Title
19942
    1ASP      N    1   2.813   3.623   4.364 -0.4865 -0.4681 -0.5985
    1ASP    HT1    2   2.745   3.694   4.331 -1.8259 -1.8598 -0.9028
    1ASP    HT2    3   2.845   3.628   4.463 -2.5677 -2.5105  0.2443
    1ASP    HT3    4   2.756   3.536   4.364 -2.3445  0.6939 -0.9005
    1ASP     CA    5   2.930   3.620   4.267  0.1266  0.0353 -0.2255
    1ASP     HA    6   2.970   3.720   4.255  1.7353 -0.1054  2.9640
    1ASP     CB    7   3.045   3.522   4.320  0.0927 -0.3365  0.4284
    1ASP    HB1    8   3.129   3.523   4.248  0.5226  2.6290  0.8661
    1ASP    HB2    9   3.002   3.422   4.343 -0.6253  0.2631  1.8112
    1ASP     CG   10   3.100   3.575   4.448  0.1945 -0.0546  0.4989
    1ASP    OD1   11   3.163   3.499   4.522  0.1285  0.0167  0.5987
    1ASP    OD2   12   3.089   3.701   4.474  0.5023  0.1106 -0.6122
    1ASP      C   13   2.890   3.566   4.138 -0.1703  0.3369  0.1872
    1ASP      O   14   2.801   3.481   4.116  0.0850 -0.1325 -0.6307
    2ALA      N   15   2.958   3.612   4.032  0.9097  0.6943 -0.2323
    2ALA     HN   16   3.022   3.688   4.030  0.4216  1.1035 -1.2257
    2ALA     CA   17   2.961   3.543   3.905  0.1519 -0.0977 -0.6881
    2ALA     HA   18   2.862   3.524   3.865  0.8980 -1.0682 -2.1542
    2ALA     CB   19   3.033   3.633   3.806  0.6161  0.3152  0.0669
    2ALA    HB1   20   2.998   3.609   3.703  0.1108  1.1477  0.0349
    2ALA    HB2   21   3.142   3.614   3.815  0.8761  2.2629  1.6372
    2ALA    HB3   22   3.013   3.740   3.828 -0.3673  0.7312 -2.4488
    2ALA      C   23   3.030   3.401   3.906 -0.2400 -0.9884  0.7707
    2ALA      O   24   3.140   3.378   3.958 -0.2845 -0.1115 -0.0398
    3ASP      N   25   2.974   3.304   3.834 -0.3557  0.0230  0.7737
    3ASP     HN   26   2.887   3.307   3.786  0.4497  0.5257 -0.7201
    3ASP     CA   27   3.035   3.168   3.845 -0.3212  0.4736 -0.4700
    3ASP     HA   28   3.090   3.157   3.938  0.4259  1.4151 -0.7822
    3ASP     CB   29   2.924   3.065   3.834 -0.3515  0.2470  0.4104
    3ASP    HB1   30   2.954   2.958   3.834  0.0340  0.3523  0.8569
    3ASP    HB2   31   2.861   3.086   3.745  0.4782 -3.1657 -1.1565
    3ASP     CG   32   2.829   3.080   3.952  0.3136 -0.5182 -0.8485
    3ASP    OD1   33   2.873   3.042   4.064 -0.5769 -0.0105 -0.3897
    3ASP    OD2   34   2.715   3.134   3.939  0.0842  0.1480  0.2737
    3ASP      C   35   3.132   3.140   3.731  0.5774 -0.0142  0.5457
    3ASP      O   36   3.090   3.160   3.616 -0.2554  0.2815 -0.0918
    4GLY      N   37   3.251   3.086   3.768 -0.0228  0.0779 -0.0494
    4GLY     HN   38   3.260   3.053   3.861 -0.3776 -1.6445 -0.5867
    4GLY     CA   39   3.369   3.079   3.685  0.1463 -0.1382 -0.1977
    4GLY    HA1   40   3.347   2.994   3.621  4.7734 -1.8812  0.1245
    4GLY    HA2   41   3.446   3.059   3.758  1.1745  1.7552 -0.7000
    4GLY      C   42   3.410   3.199   3.601 -0.4141  0.1842 -0.3205
    4GLY      O   43   3.364   3.307   3.631 -0.1080  0.5304  0.4857
    5PRO      N   44   3.501   3.188   3.506  0.1783  0.5068 -0.5624
    5PRO     CD   45   3.572   3.063   3.496 -0.4055  0.3301 -0.3123
    5PRO    HD1   46   3.498   2.993   3.453 -0.3682  0.4978 -0.6507
    5PRO    HD2   47   3.610   3.021   3.591 -1.4652  1.6756  0.7639
    5PRO     CA   48   3.543   3.280   3.393  0.2022  0.0638 -0.3921
    5PRO     HA   49   3.585   3.364   3.447 -2.3399  1.3972 -0.3203
    5PRO     CB   50   3.614   3.182   3.297 -0.3339 -0.0371  0.0771
    5PRO    HB1   51   3.685   3.236   3.230 -1.1924  1.0903  0.0517
    5PRO    HB2   52   3.545   3.135   3.224  2.0898 -1.2619 -1.5616
    5PRO     CG   53   3.677   3.078   3.388 -0.3186 -0.6407  0.2199
    5PRO    HG1   54   3.696   2.978   3.345  0.7026 -0.6592  0.6879
    5PRO    HG2   55   3.769   3.126   3.429 -0.0365 -1.2612  0.3259
    5PRO      C   56   3.437   3.357   3.320 -0.0376  0.3468  0.3098
    5PRO      O   57   3.322   3.311   3.300 -0.5859 -0.3013 -0.3453
    6GLY      N   58   3.484   3.473   3.267 -0.4040  0.3048 -0.7738
    6GLY     HN   59   3.577   3.493   3.296 -0.5825  0.0299  0.0168
    6GLY     CA   60   3.421   3.551   3.167  0.3716  0.0240  0.2206
    6GLY    HA1   61   3.459   3.651   3.184 -2.1993  0.9142  1.3956
    6GLY    HA2   62   3.313   3.550   3.180  0.2395  2.1416 -0.2973
    6GLY      C   63   3.457   3.509   3.024 -0.1414  0.3747  0.7922
    6GLY      O   64   3.531   3.416   2.990  0.2549 -0.1135 -0.1638
    7ASP      N   65   3.399   3.590   2.931  0.2028 -0.7606 -0.7328
    7ASP     HN   66   3.342   3.664   2.968 -0.9883 -2.5682  1.2778
    7ASP     CA   67   3.424   3.575   2.787  0.0717  0.2743  0.2992
    7ASP     HA   68   3.482   3.487   2.764 -0.0074 -0.0753  1.3399
    7ASP     CB   69   3.283   3.554   2.717  0.3362 -0.0399 -0.0549
    7ASP    HB1   70   3.218   3.639   2.747  0.2351  0.2392 -1.0386
    7ASP    HB2   71   3.232   3.464   2.757 -1.3583  1.1391  0.5292
    7ASP     CG   72   3.286   3.544   2.564 -0.1433  0.1840 -0.0360
    7ASP    OD1   73   3.172   3.541   2.509  0.1903  0.3126  0.2301
    7ASP    OD2   74   3.397   3.525   2.507 -0.2670 -0.3698  0.1733
    7ASP      C   75   3.504   3.695   2.748 -0.8164 -0.2857 -0.0217
    7ASP      O   76   3.454   3.811   2.750  0.1641 -0.3560  0.0082
    8PRO      N   77   3.627   3.676   2.700 -0.0252 -0.1506 -0.6011
    8PRO     CD   78   3.714   3.567   2.743 -0.6658  0.0782 -0.3291
    8PRO    HD1   79   3.678   3.476   2.690 -0.4177 -1.0911  1.4268
    8PRO    HD2   80   3.713   3.554   2.853  2.1370 -0.6062 -0.3285
    8PRO     CA   81   3.695   3.780   2.623 -0.0291 -0.6219  0.0163
    8PRO     HA   82   3.715   3.859   2.694 -2.0307  1.5438 -1.6848
    8PRO     CB   83   3.825   3.707   2.584 -0.0045 -0.1087  0.3464
    8PRO    HB1   84   3.904   3.778   2.550 -0.7774  0.0286 -1.2572
    8PRO    HB2   85   3.817   3.640   2.495  1.3368  0.4001 -0.1890
    8PRO     CG   86   3.855   3.619   2.708 -0.3344 -0.0620  0.0715
    8PRO    HG1   87   3.929   3.540   2.682  0.0227  0.1537  0.4412
    8PRO    HG2   88   3.887   3.678   2.796 -0.7920  0.6389 -0.2265
    8PRO      C   89   3.623   3.846   2.506 -0.0475 -0.0764  0.5249
    8PRO      O   90   3.658   3.956   2.478  0.1543 -0.3733 -0.3355
    9ASP      N   91   3.518   3.789   2.449  0.9241  0.3756  0.4062
    9ASP     HN   92   3.487   3.701   2.485 -2.9147  1.0819 -0.7795
    9ASP     CA   93   3.439   3.858   2.347 -0.2004  0.2793  0.5638
    9ASP     HA   94   3.510   3.919   2.293  1.2777 -2.3012 -0.6548
    9ASP     CB   95   3.377   3.755   2.254 -0.3237  0.2169  0.4732
    9ASP    HB1   96   3.291   3.792   2.194  0.1384  1.1716  0.3749
    9ASP    HB2   97   3.331   3.673   2.313 -0.4922 -1.2922 -1.6189
    9ASP     CG   98   3.475   3.691   2.152 -0.0515  0.0194 -0.5926
    9ASP    OD1   99   3.434   3.593   2.086 -0.2788 -0.2617  0.3950
    9ASP    OD2  100   3.591   3.741   2.138 -0.5072 -0.0775  0.1984
    9ASP      C  101   3.329   3.931   2.417 -0.1595 -0.2149  0.3971
    9ASP      O  102   3.265   4.012   2.356  1.0245  0.0397  0.2205
   10ALA      N  103   3.303   3.921   2.541 -0.3784 -0.3557 -0.0668
   10ALA     HN  104   3.372   3.875   2.596  1.7875  1.9238 -0.7413
   10ALA     CA  105   3.201   4.002   2.607  0.1088 -0.7698  0.0309
   10ALA     HA  106   3.115   3.995   2.542  0.1810 -0.1605 -0.1367
   10ALA     CB  107   3.162   3.957   2.745 -0.4311  0.1915  0.3797
   10ALA    HB1  108   3.148   3.847   2.745  2.0756 -0.1934 -1.0637
   10ALA    HB2  109   3.069   4.005   2.782  0.0480  1.2025  0.3028
   10ALA    HB3  110   3.242   3.980   2.819  1.9246  1.8025 -2.4378
   10ALA      C  111   3.239   4.155   2.605  0.6676  0.0320 -1.0695
   10ALA      O  112   3.354   4.194   2.625 -0.4215  0.2014  0.4529
   11GLY      N  113   3.141   4.245   2.584 -0.0096  0.1844  0.0566
   11GLY     HN  114   3.045   4.223   2.572  0.5855 -2.2296 -0.8762
   11GLY     CA  115   3.183   4.381   2.566  0.9303  0.6406  0.4271
   11GLY    HA1  116   3.275   4.391   2.511  0.2597  1.9652 -0.5103
   11GLY    HA2  117   3.189   4.439   2.658  0.9247 -0.8531  1.4028
   11GLY      C  118   3.066   4.442   2.485  0.1713  0.5488 -0.5800
   11GLY    OT1  119   2.955   4.461   2.543  0.1761 -0.1683  0.3991
   11GLY    OT2  120   3.083   4.461   2.363 -0.4823 -0.4323 -0.2580
   12LIT    LIT  121   0.043   5.636   3.642  0.3617  0.0708  0.8976
   13LIT    LIT  122   2.411   1.580   3.688  0.2629 -1.3377 -0.6120
   14LIT    LIT  123   2.466   4.497   4.631  0.0194 -0.9421  0.2554
   15LIT    LIT  124   0.152   2.390   1.227  0.2606  0.4999 -0.8133
   16LIT    LIT  125   1.717   5.667   0.686 -0.2359  0.8353 -0.3739
   17LIT    LIT  126   0.020   4.410   4.766  0.1947  0.5854 -0.1048
   18LIT    LIT  127   3.365   2.020   0.310 -0.7667  0.8009 -0.8858
   19LIT    LIT  128   3.134   3.397   2.393  0.1759 -0.3918  0.3812
   20LIT    LIT  129   4.576   2.170   2.279  0.3283 -0.3961 -0.1608
   21LIT    LIT  130   6.277   2.166   3.324 -0.8034 -0.2293  0.7441
   22LIT    LIT  131   5.619   3.412   2.207 -0.4153 -0.3543 -0.5980
   23LIT    LIT  132   3.475   0.006   0.681 -0.4828  0.6491 -0.8244
   24LIT    LIT  133   3.139   2.416   3.803  0.7744  1.3041  0.3606
   25LIT    LIT  134   4.487   5.419   1.522 -0.1989 -0.2179  0.8849
   26LIT    LIT  135   0.581   5.222   2.536  0.2500  0.0979  0.5066
   27LIT    LIT  136   0.998   2.741   4.084  0.1581  0.7075  0.6090
   28LIT    LIT  137   3.520   4.819   4.396  0.3398  1.3999  0.1126
   29LIT    LIT  138   2.864   3.086   3.250  0.5591 -0.2211 -0.2487
   30LIT    LIT  139   2.029   0.686   3.724  0.6401 -0.4343  0.5851
   31LIT    LIT  140   0.845   2.247   1.712  1.2379 -0.1731 -0.6085
   32LIT    LIT  141   6.210   3.192   0.729  0.2099  0.4623 -0.1733
   33LIT    LIT  142   2.902   4.550   2.382  0.5359  0.6469 -0.3977
   34CLA    CLA  143   5.573   2.277   2.507 -0.2319  0.0498 -0.3621
   35CLA    CLA  144   0.614   1.015   1.365  0.1503  0.2392  0.2609
   36CLA    CLA  145   5.587   3.806   1.285  0.2307 -0.4456  0.1480
   37CLA    CLA  146   0.080   3.864   0.598  0.4006  0.3376 -0.1434
   38CLA    CLA  147   5.886   1.816   4.412  0.0366  0.1541  0.1003
   39CLA    CLA  148   0.475   2.547   1.566  0.0739 -0.0145 -0.1793
   40CLA    CLA  149   2.380   4.994   3.658  0.0406  0.0828 -0.4783
   41CLA    CLA  150   4.706   1.487   2.685  0.3602  0.2540 -0.8878
   42CLA    CLA  151   0.831   5.609   4.088 -0.3776  0.1710  0.2158
   43CLA    CLA  152   4.880   5.864   2.790  0.0939 -0.0638 -0.1757
   44CLA    CLA  153   3.158   2.158   4.191  0.1833 -0.0873  0.0586
   45CLA    CLA  154   2.294   1.966   4.247 -0.1902  0.4285  0.0022
   46CLA    CLA  155   3.604   0.723   1.310 -0.1369  0.4056  0.4537
   47CLA    CLA  156   0.506   3.424   4.780  0.3194 -0.3893 -0.0207
   48CLA    CLA  157   1.617   5.653   0.477  0.0250  0.0022 -0.5345
   49CLA    CLA  158   0.675   1.969   4.595 -0.3851 -0.1311  0.2642
   50CLA    CLA  159   0.327   1.504   3.093 -0.2798  0.3513  0.3854
   51CLA    CLA  160   3.866   1.904   2.034 -0.6616 -0.2452 -0.3470
   52TIP3   OH2  161   3.182   5.134   2.362  0.6754 -0.4565  0.3600
   52TIP3    H1  162   3.183   5.108   2.270 -1.9693  3.3862 -0.9618
   52TIP3    H2  163   3.239   5.210   2.366 -2.9986  2.5513  0.5726
   53TIP3   OH2  164   3.394   2.106   3.466  0.0992 -0.4907 -0.0349
   53TIP3    H1  165   3.451   2.182   3.482  0.0964 -0.7217  1.2008
   53TIP3    H2  166   3.409   2.083   3.375  0.7160  0.5002 -0.1990
   54TIP3   OH2  167   3.936   0.755   1.813  0.0857 -0.0811  0.4307
   54TIP3    H1  168   3.990   0.676   1.812 -0.8130 -0.7016  0.1872
   54TIP3    H2  169   3.849   0.726   1.841 -0.4401  0.6987 -0.3034
   55TIP3   OH2  170   3.413   0.319   1.511  0.0897 -0.0614  0.9882
   55TIP3    H1  171   3.498   0.282   1.533 -0.2033 -0.5662  1.3154
   55TIP3    H2  172   3.403   0.304   1.417  0.2656 -0.2034  0.9918
   56TIP3   OH2  173   4.560   2.968   3.551  0.3310 -0.3540  0.2087
   56TIP3    H1  174   4.519   2.899   3.603  0.8067 -0.5066  0.3936
   56TIP3    H2  175   4.608   2.921   3.482  0.7303 -0.2165  0.3885
   57TIP3   OH2  176   1.195   3.465   1.164  0.8333  0.2971  0.2359
   57TIP3    H1  177   1.182   3.503   1.251 -0.0058 -0.9183  0.6683
   57TIP3    H2  178   1.212   3.372   1.181  0.9401  0.0993 -0.8836
   58TIP3   OH2  179   4.967   1.356   0.479 -0.6273  0.2651 -0.4407
   58TIP3    H1  180   5.050   1.366   0.432  0.1102 -1.0533  0.4903
   58TIP3    H2  181   4.981   1.403   0.561 -0.4754 -0.6370  0.0650
   59TIP3   OH2  182   1.688   0.700   2.197 -0.4005 -0.2545  0.0084
   59TIP3    H1  183   1.656   0.655   2.118  0.3787  0.3689 -0.6782
   59TIP3    H2  184   1.693   0.792   2.172  0.4542 -0.1359  0.5953
   60TIP3   OH2  185   5.578   2.574   2.693  0.2901 -0.1107 -0.2367
   60TIP3    H1  186   5.608   2.490   2.728  0.8162 -0.4115 -1.3662
   60TIP3    H2  187   5.654   2.610   2.649 -0.5839 -0.2181 -1.9241
   61TIP3   OH2  188   0.896   0.818   0.889  0.1549  0.7301  0.1784
   61TIP3    H1  189   0.898   0.874   0.811 -1.2808  0.5876  0.0047
   61TIP3    H2  190   0.945   0.740   0.863  0.1594  0.9192 -0.3981
   62TIP3   OH2  191   3.783   0.659   2.208  0.3047  0.6716  0.0957
   62TIP3    H1  192   3.700   0.655   2.255  0.5493 -1.7146  0.4465
   62TIP3    H2  193   3.836   0.721   2.257 -1.0273  1.7471  0.2286
   63TIP3   OH2  194   0.464   3.732   4.828 -0.0799  0.3933  0.2075
   63TIP3    H1  195   0.369   3.729   4.819 -0.0682 -0.2437  0.2240
   63TIP3    H2  196   0.490   3.640   4.841  0.4034  0.6907  1.5277
   64TIP3   OH2  197   4.963   1.301   1.654  0.1104  0.2623  0.4295
   64TIP3    H1  198   4.992   1.366   1.718 -3.0418  1.4508  0.8592
   64TIP3    H2  199   4.876   1.276   1.684 -0.1142 -1.6755 -1.6140
   65TIP3   OH2  200   4.936   5.822   2.311 -0.3814  0.5053  0.2163
   65TIP3    H1  201   5.023   5.782   2.321 -0.4423  0.7081  1.9184
   65TIP3    H2  202   4.875   5.752   2.331 -0.5888  0.5573 -0.2378
   66TIP3   OH2  203   6.172   4.470   4.338 -0.1866 -0.1393  0.0423
   66TIP3    H1  204   6.260   4.440   4.314 -0.3516 -0.4113 -0.2277
   66TIP3    H2  205   6.115   4.398   4.312 -0.1577 -1.5185  3.3709
   67TIP3   OH2  206   2.651   0.321   1.486 -0.5553 -0.0643  0.0442
   67TIP3    H1  207   2.663   0.274   1.404 -2.2503 -1.6767  0.6439
   67TIP3    H2  208   2.739   0.347   1.513  0.0768  0.1059 -2.0227
   68TIP3   OH2  209   1.122   0.599   4.903  0.0648  0.7389 -0.6610
   68TIP3    H1  210   1.075   0.540   4.962 -0.9862  0.8083 -1.4110
   68TIP3    H2  211   1.195   0.632   4.956  0.8568 -1.4109 -0.2828
   69TIP3   OH2  212   5.472   0.388   1.000  0.0809  0.0046 -0.1156
   69TIP3    H1  213   5.452   0.371   1.092 -0.9857  0.8858 -0.1713
   69TIP3    H2  214   5.411   0.333   0.952  2.1734 -2.2440 -0.3534
   70TIP3   OH2  215   5.617   3.683   1.007  0.3646 -0.2774 -0.4974
   70TIP3    H1  216   5.528   3.688   0.972  0.3183  0.7097 -0.2625
   70TIP3    H2  217   5.616   3.742   1.083  1.7898  1.4790 -1.7745
   71TIP3   OH2  218   3.431   4.592   2.346  0.1485 -0.0980 -0.1958
   71TIP3    H1  219   3.519   4.628   2.340 -0.0567  1.4078  3.3539
   71TIP3    H2  220   3.444   4.502   2.376  0.4859 -0.5179 -1.5559
   72TIP3   OH2  221   3.786   2.367   2.102 -0.6726  0.0448  0.1337
   72TIP3    H1  222   3.798   2.334   2.191  0.3453  0.6736  0.2427
   72TIP3    H2  223   3.754   2.291   2.053 -0.1838 -0.6089  0.7925
   73TIP3   OH2  224   4.375   4.852   1.800  0.0639  0.4598 -0.1407
   73TIP3    H1  225   4.292   4.850   1.752 -0.1050  0.0504  0.1644
   73TIP3    H2  226   4.435   4.897   1.741 -0.2714  0.4004 -0.5341
   74TIP3   OH2  227   5.870   1.331   4.875 -0.4722 -0.4231  0.3249
   74TIP3    H1  228   5.929   1.370   4.810 -1.0326 -0.5624 -0.2861
   74TIP3    H2  229   5.915   1.251   4.903  1.4515  1.3592  2.7846
   75TIP3   OH2  230   5.516   5.750   3.806 -0.0894 -0.1056  0.1409
   75TIP3    H1  231   5.524   5.668   3.757 -0.1229 -0.9248  1.4650
   75TIP3    H2  232   5.457   5.729   3.878  2.8708 -0.0814  2.7711
   76TIP3   OH2  233   1.577   0.236   0.043  0.2026 -0.4411 -0.0337
   76TIP3    H1  234   1.498   0.198   0.081 -0.4623 -0.0864 -1.0037
   76TIP3    H2  235   1.544   0.301  -0.020  1.2686 -0.1728 -0.3371
   77TIP3   OH2  236   2.398   5.432   2.318  0.2775  0.2937  0.0249
   77TIP3    H1  237   2.400   5.344   2.356  2.0480  0.8984  1.4937
   77TIP3    H2  238   2.482   5.441   2.274 -0.4227  0.8049 -1.2472
   78TIP3   OH2  239   4.806   1.977   1.914 -0.1722  0.1023 -0.0615
   78TIP3    H1  240   4.872   1.936   1.857 -0.7650 -0.2747 -0.4911
   78TIP3    H2  241   4.730   1.919   1.908 -0.2407  0.0536  1.1407
   79TIP3   OH2  242   0.385   4.607   3.431  0.7895 -0.5438  0.7269
   79TIP3    H1  243   0.364   4.609   3.337  2.2905 -2.0651  0.3204
   79TIP3    H2  244   0.307   4.644   3.473  0.2237  0.5154 -1.1276
   80TIP3   OH2  245   3.714   4.105   3.253 -0.2010 -0.3241 -0.6892
   80TIP3    H1  246   3.704   4.138   3.163  0.3711  1.5797 -0.1068
   80TIP3    H2  247   3.792   4.050   3.249  0.3908  0.5188 -1.1772
   81TIP3   OH2  248   0.970   5.814   1.918  0.1083 -0.4448 -0.1578
   81TIP3    H1  249   0.973   5.883   1.851 -2.1731 -0.5839 -0.4644
   81TIP3    H2  250   1.031   5.844   1.985 -0.1885  1.4640 -0.6807
   82TIP3   OH2  251   1.546   4.841   3.331  0.4221 -0.0110 -0.3605
   82TIP3    H1  252   1.487   4.865   3.259  0.6848  0.7553 -0.3346
   82TIP3    H2  253   1.491   4.792   3.392  0.0072 -0.0059 -0.7236
   83TIP3   OH2  254   5.477   4.944   1.237  0.4954 -0.0042  0.3365
   83TIP3    H1  255   5.384   4.944   1.215  0.5378 -0.2029  0.1555
   83TIP3    H2  256   5.516   5.003   1.172  0.2835  1.2866  1.3350
   84TIP3   OH2  257   3.380   0.292   4.696  0.0476 -0.5080 -0.0410
   84TIP3    H1  258   3.455   0.337   4.735  1.8601 -2.5417 -0.9351
   84TIP3    H2  259   3.366   0.337   4.613 -0.4394  0.5515  0.5998
   85TIP3   OH2  260   5.751   0.450   5.068 -0.1393 -0.1622 -0.1917
   85TIP3    H1  261   5.786   0.477   4.984 -0.8620  2.6667  0.3183
   85TIP3    H2  262   5.828   0.424   5.119  0.4842 -0.1274 -1.0986
   86TIP3   OH2  263   5.443   2.754   1.177 -0.2631 -0.2486  0.0424
   86TIP3    H1  264   5.422   2.791   1.091 -0.3137  0.5727  0.3998
   86TIP3    H2  265   5.449   2.830   1.235  2.8336 -0.4692  0.1581
   87TIP3   OH2  266   2.120   0.631   0.040 -0.4900  0.7123  0.2073
   87TIP3    H1  267   2.211   0.603   0.054 -1.3704 -2.6956  0.0835
   87TIP3    H2  268   2.127   0.723   0.017  2.7823  1.0167  1.7581
   88TIP3   OH2  269   1.925   4.865   0.947  0.1542  0.0779 -0.2010
   88TIP3    H1  270   1.919   4.858   0.852  1.3925 -1.3851 -0.1990
   88TIP3    H2  271   1.996   4.806   0.972 -0.7283 -0.2562  1.7291
   89TIP3   OH2  272   1.831   3.711   3.102 -0.1035  0.0612  0.3886
   89TIP3    H1  273   1.831   3.669   3.016  1.3936 -1.9236  1.2671
   89TIP3    H2  274   1.746   3.688   3.140 -0.4207  0.2139 -0.2079
   90TIP3   OH2  275   0.952   3.782   1.097  0.3221  0.3965  0.0563
   90TIP3    H1  276   0.910   3.761   1.014  2.1480 -1.3141 -0.5360
   90TIP3    H2  277   0.897   3.740   1.164 -0.7118  1.0870 -0.3440
   91TIP3   OH2  278   5.129   2.073   1.805 -0.7440  0.7372 -0.4680
   91TIP3    H1  279   5.101   2.160   1.777  1.0243  2.0524  1.4431
   91TIP3    H2  280   5.215   2.088   1.846 -1.2071 -1.5704  1.6254
   92TIP3   OH2  281   4.097   1.716   3.427  0.5266  0.0576 -0.0825
   92TIP3    H1  282   4.147   1.766   3.492 -1.3716  0.6729  0.9664
   92TIP3    H2  283   4.138   1.737   3.343  1.4594  1.2333  0.6429
   93TIP3   OH2  284   1.551   1.605   2.092 -0.0968 -0.1223 -0.0590
   93TIP3    H1  285   1.553   1.539   2.161  0.3534 -0.2801 -0.2161
   93TIP3    H2  286   1.515   1.559   2.016 -0.1046 -0.0945 -0.0721
   94TIP3   OH2  287   2.364   0.888   4.707  0.4560  0.4173 -0.1752
   94TIP3    H1  288   2.358   0.965   4.764  0.1932  0.8670 -0.7969
   94TIP3    H2  289   2.444   0.902   4.656 -0.3821  1.0409 -1.3607
   95TIP3   OH2  290   4.862   5.762   0.344 -0.6064  0.4186  0.4251
   95TIP3    H1  291   4.953   5.737   0.362 -0.5083  1.3630  1.2799
   95TIP3    H2  292   4.810   5.688   0.377 -0.1837  0.1354  0.4677
   96TIP3   OH2  293   1.487   5.158   2.447  0.0226  0.3753  0.9011
   96TIP3    H1  294   1.501   5.068   2.418  0.7989  1.0384 -0.9023
   96TIP3    H2  295   1.554   5.173   2.514 -0.1311 -0.3706  1.2315
   97TIP3   OH2  296   4.406   4.509   2.215  0.6892  1.0123  0.2377
   97TIP3    H1  297   4.461   4.442   2.176  0.0650  0.6548 -0.0472
   97TIP3    H2  298   4.338   4.526   2.149 -0.0068  0.8573  0.8988
   98TIP3   OH2  299   1.952   5.450   0.044 -0.0185 -0.0434 -0.2931
   98TIP3    H1  300   1.920   5.494   0.122  2.3534 -1.2359  1.4831
   98TIP3    H2  301   2.047   5.462   0.047  0.2175 -0.7002 -2.6719
   99TIP3   OH2  302   1.254   0.458   0.322  0.4296 -0.1180  0.2353
   99TIP3    H1  303   1.269   0.405   0.244  0.8962 -0.4169  0.5226
   99TIP3    H2  304   1.166   0.494   0.310  1.0842  1.1363 -1.1838
  100TIP3   OH2  305   5.697   5.447   4.289 -0.2680 -0.2311  0.5809
  100TIP3    H1  306   5.634   5.481   4.353 -0.6625  1.3650 -0.5955
  100TIP3    H2  307   5.700   5.514   4.220  0.7667 -1.5043 -0.6717
  101TIP3   OH2  308   5.934   1.755   0.282 -0.3540 -0.0541  0.2336
  101TIP3    H1  309   5.868   1.692   0.313 -1.0761  0.6590  0.1670
  101TIP3    H2  310   5.939   1.821   0.351 -1.0380  0.8621 -0.5687
  102TIP3   OH2  311   1.792   0.553   2.723  0.5596 -0.3263  0.8081
  102TIP3    H1  312   1.870   0.506   2.696  0.4499 -0.1154  0.1158
  102TIP3    H2  313   1.719   0.504   2.685  0.4788  0.7850 -0.5421
  103TIP3   OH2  314   0.499   5.165   3.001  0.4948  0.2946 -0.0415
  103TIP3    H1  315   0.521   5.131   3.088 -0.2513  0.8203  0.3648
  103TIP3    H2  316   0.536   5.253   3.000  1.9460 -0.2998 -0.8877
  104TIP3   OH2  317   2.168   3.627   0.610 -0.1108  0.0629 -0.1249
  104TIP3    H1  318   2.116   3.705   0.593  1.3343  1.1805  0.3922
  104TIP3    H2  319   2.217   3.613   0.528  0.0399  0.0224 -0.0275
  105TIP3   OH2  320   2.477   2.436   1.015 -0.6050 -0.2394 -0.1582
  105TIP3    H1  321   2.478   2.340   1.014 -1.2394 -0.2466 -0.4593
  105TIP3    H2  322   2.548   2.462   0.956  0.9825 -0.5025  1.5348
  106TIP3   OH2  323   4.269   0.404   4.882 -0.2008 -0.1766 -0.3459
  106TIP3    H1  324   4.347   0.459   4.872 -0.4852  0.3840  0.4862
  106TIP3    H2  325   4.197   0.466   4.891 -0.6180 -0.6947 -0.0867
  107TIP3   OH2  326   3.780   4.615   3.378 -0.3144  0.1694 -0.1126
  107TIP3    H1  327   3.860   4.562   3.387  0.9599  2.0872  0.4652
  107TIP3    H2  328   3.711   4.551   3.362  0.7477 -1.8891  2.6983
  108TIP3   OH2  329   4.609   3.964   1.740  0.2586 -0.1582  0.3370
  108TIP3    H1  330   4.686   3.987   1.688  2.3939 -1.9493  2.4779
  108TIP3    H2  331   4.554   3.914   1.680  1.8899 -0.8244 -0.6797
  109TIP3   OH2  332   5.829   2.804   1.800  0.0991  0.3742 -0.2575
  109TIP3    H1  333   5.780   2.741   1.854 -0.0615  1.3342  0.7397
  109TIP3    H2  334   5.879   2.749   1.739  0.1771 -0.7432  0.7696
  110TIP3   OH2  335   3.896   0.100   2.768  0.0186 -0.0128  0.2975
  110TIP3    H1  336   3.849   0.058   2.840  0.2624 -0.0990  0.4109
  110TIP3    H2  337   3.882   0.194   2.780  0.9431  0.0443  1.0965
  111TIP3   OH2  338   5.298   0.898   0.114 -0.0976  0.1572  0.4272
  111TIP3    H1  339   5.252   0.982   0.113 -0.3170  0.0439 -0.7274
  111TIP3    H2  340   5.283   0.863   0.201 -0.8573  0.8512  0.5879
  112TIP3   OH2  341   2.780   3.325   5.005 -0.3780  0.6072  0.1771
  112TIP3    H1  342   2.863   3.287   4.976 -0.3478  1.1675 -0.5005
  112TIP3    H2  343   2.727   3.250   5.031  0.3301  0.2418  0.5830
  113TIP3   OH2  344   5.588   4.919   1.721  0.3196 -0.3221 -0.2213
  113TIP3    H1  345   5.659   4.857   1.702 -0.4861 -0.7068 -2.2189
  113TIP3    H2  346   5.514   4.886   1.671 -1.0749  0.5121  1.2119
  114TIP3   OH2  347   5.786   2.692   0.119 -0.0387  0.5082  0.1603
  114TIP3    H1  348   5.736   2.680   0.039  1.8421  2.8156 -1.5213
  114TIP3    H2  349   5.742   2.764   0.164 -0.2216  0.2251  0.4349
  115TIP3   OH2  350   1.937   2.279   4.085  0.0229 -0.0064  0.4526
  115TIP3    H1  351   1.929   2.350   4.150 -1.0494  0.3755 -0.0709
  115TIP3    H2  352   1.888   2.206   4.123 -0.6190  0.2230  0.0716
  116TIP3   OH2  353   2.598   0.945   4.572  0.0029  0.2332  0.0666
  116TIP3    H1  354   2.654   0.999   4.629  0.1161  0.0815  0.0993
  116TIP3    H2  355   2.581   1.001   4.497  0.6771  0.0785 -0.2139
  117TIP3   OH2  356   5.940   2.232   3.171  0.1179  0.1945  0.1292
  117TIP3    H1  357   5.932   2.137   3.164 -1.4262  0.4055 -1.7589
  117TIP3    H2  358   6.033   2.247   3.188  1.1111 -1.5686 -2.8728
  118TIP3   OH2  359   5.399   0.660   2.859  0.0231  0.7223 -0.3344
  118TIP3    H1  360   5.374   0.573   2.889 -1.7467  1.1214 -0.5257
  118TIP3    H2  361   5.394   0.715   2.937  1.1118  0.6640 -0.2177
  119TIP3   OH2  362   3.888   2.186   4.926 -0.7527 -0.4112  0.0647
  119TIP3    H1  363   3.952   2.253   4.947 -0.8491 -0.1564 -0.4363
  119TIP3    H2  364   3.940   2.110   4.899 -0.6359 -0.6524  0.9459
  120TIP3   OH2  365   3.336   1.196   3.153 -0.2414 -0.1431 -0.3179
  120TIP3    H1  366   3.365   1.274   3.106 -0.0190 -0.8332 -1.3593
  120TIP3    H2  367   3.403   1.131   3.134 -1.0778 -0.9634 -0.5284
  121TIP3   OH2  368   0.922   3.219   4.519  0.0202  0.2178 -0.2594
  121TIP3    H1  369   1.011   3.250   4.508  0.3728 -0.2450  1.0664
  121TIP3    H2  370   0.880   3.285   4.574 -0.6625  0.7605 -1.4001
  122TIP3   OH2  371   0.807   1.741   4.419  0.2049 -0.4953 -0.3212
  122TIP3    H1  372   0.768   1.818   4.461 -0.5293 -0.5096 -0.9580
  122TIP3    H2  373   0.821   1.767   4.328  0.1144 -1.0625 -0.5003
  123TIP3   OH2  374   5.398   3.794   4.841  0.4772  0.1435  0.3308
  123TIP3    H1  375   5.432   3.705   4.828  1.2328  0.7776 -2.7491
  123TIP3    H2  376   5.475   3.850   4.834 -0.3476  1.2130 -0.4430
  124TIP3   OH2  377   1.375   4.825   3.551 -0.0534 -0.1451  0.4099
  124TIP3    H1  378   1.318   4.752   3.524  0.4541  0.0440 -1.3126
  124TIP3    H2  379   1.319   4.902   3.543  0.1878 -0.0495 -0.5308
  125TIP3   OH2  380   4.348   0.861   2.772  0.0056  0.1014 -0.0431
  125TIP3    H1  381   4.403   0.872   2.849 -0.1241 -0.1764  0.0886
  125TIP3    H2  382   4.411   0.851   2.700  0.2589 -3.5081  0.4999
  126TIP3   OH2  383   3.185   0.622   4.721 -0.1640  0.3931 -0.0464
  126TIP3    H1  384   3.268   0.652   4.759  0.8208 -2.1519 -0.0054
  126TIP3    H2  385   3.134   0.702   4.711  1.4395  1.8009  1.9809
  127TIP3   OH2  386   3.551   5.564   4.164 -0.0861  0.3396  0.1314
  127TIP3    H1  387   3.500   5.595   4.089 -1.7582 -1.0132  0.6515
  127TIP3    H2  388   3.638   5.600   4.150 -0.4425  0.4020 -2.2938
  128TIP3   OH2  389   3.130   2.726   0.562  0.1751  0.5224  0.6554
  128TIP3    H1  390   3.182   2.652   0.592  1.8044  1.1090 -0.6028
  128TIP3    H2  391   3.075   2.749   0.637  1.1526 -0.6214  1.7605
  129TIP3   OH2  392   2.995   0.759   2.730  0.1554 -0.0157  0.5141
  129TIP3    H1  393   3.004   0.837   2.675  1.7266 -0.3329  0.2736
  129TIP3    H2  394   3.061   0.770   2.799  0.6254 -1.2573  0.2939
  130TIP3   OH2  395   1.479   4.127   1.295 -0.3381 -0.2371 -0.1649
  130TIP3    H1  396   1.497   4.036   1.272 -0.1978 -0.2249 -0.1040
  130TIP3    H2  397   1.460   4.125   1.389 -0.9730 -0.2955 -0.2905
  131TIP3   OH2  398   0.246   4.259   4.138  0.1557  0.4796  0.7982
  131TIP3    H1  399   0.246   4.347   4.176  1.2423 -0.3857  2.9259
  131TIP3    H2  400   0.315   4.212   4.185  0.1063 -1.3219 -0.7960
  132TIP3   OH2  401   1.800   3.338   1.062 -0.3268  0.3265 -0.3584
  132TIP3    H1  402   1.762   3.422   1.088  0.9155  0.6641  0.5226
  132TIP3    H2  403   1.833   3.300   1.144 -1.0066 -1.1079 -0.7179
  133TIP3   OH2  404   0.790   1.128   4.027  0.1572 -0.8496  0.1401
  133TIP3    H1  405   0.768   1.064   3.961 -2.0459  0.8149 -0.8743
  133TIP3    H2  406   0.854   1.186   3.985 -0.4073 -0.4444 -0.1827
  134TIP3   OH2  407   0.367   1.117   1.246  0.2904  0.1895  0.3207
  134TIP3    H1  408   0.332   1.056   1.180 -1.4736  0.9013  0.5425
  134TIP3    H2  409   0.450   1.078   1.273  1.3662  0.1294 -2.6877
  135TIP3   OH2  410   0.686   3.436   4.214 -0.6887 -0.0804  0.1318
  135TIP3    H1  411   0.623   3.482   4.269  0.6124  1.3491  0.5006
  135TIP3    H2  412   0.771   3.457   4.252  0.0136 -3.3865  0.7426
  136TIP3   OH2  413   0.048   4.521   2.199 -0.4545  0.3754  0.2569
  136TIP3    H1  414   0.092   4.470   2.131 -1.1533 -0.6031  0.5205
  136TIP3    H2  415  -0.011   4.579   2.152  0.9483  1.5914 -0.0959
  137TIP3   OH2  416   4.147   1.464   2.882  0.2775 -0.2710 -0.1700
  137TIP3    H1  417   4.227   1.501   2.920  1.2674 -3.0779  0.8203
  137TIP3    H2  418   4.076   1.502   2.934  1.1055  0.9519  0.1099
  138TIP3   OH2  419   6.331   0.465   0.142 -0.3000  0.0972 -0.2447
  138TIP3    H1  420   6.362   0.505   0.223 -1.8189  0.0307  0.4032
  138TIP3    H2  421   6.236   0.460   0.153 -0.4327 -0.8145 -1.6240
  139TIP3   OH2  422   0.992   5.126   1.066  0.3229 -0.2255 -0.5721
  139TIP3    H1  423   1.024   5.043   1.103 -3.5867 -1.3447  0.7752
  139TIP3    H2  424   0.996   5.188   1.139  2.6430  0.7268 -1.4114
  140TIP3   OH2  425   0.766   0.417   1.924 -0.1607 -0.7983  0.1310
  140TIP3    H1  426   0.765   0.428   1.829 -2.4096 -0.4046  0.1550
  140TIP3    H2  427   0.816   0.492   1.957 -0.6846 -0.0813 -0.6710
  141TIP3   OH2  428   0.581   4.841   3.434 -0.0625  0.0118 -0.1072
  141TIP3    H1  429   0.621   4.844   3.347 -0.4094 -0.4330 -0.2839
  141TIP3    H2  430   0.512   4.775   3.427  0.4405 -0.6263  0.7345
  142TIP3   OH2  431   4.822   5.397   1.738 -0.0534 -0.6879 -0.0473
  142TIP3    H1  432   4.826   5.362   1.827 -1.4438 -0.6734  0.0325
  142TIP3    H2  433   4.850   5.324   1.683  1.7371 -0.4200  0.4219
  143TIP3   OH2  434   2.869   2.628   2.995 -0.0850 -0.2852 -0.0528
  143TIP3    H1  435   2.961   2.605   2.979 -0.2382 -0.9812  0.0290
  143TIP3    H2  436   2.873   2.711   3.042  0.4867 -0.0769 -0.4644
  144TIP3   OH2  437   5.493   5.372   1.536 -0.0350 -0.5727  0.6346
  144TIP3    H1  438   5.498   5.278   1.520 -1.7428 -0.9553  1.9998
  144TIP3    H2  439   5.469   5.379   1.629  2.9287  1.2965  1.3993
  145TIP3   OH2  440   4.018   0.452   0.702 -0.7354  0.2766  1.0322
  145TIP3    H1  441   3.975   0.536   0.720 -0.5175  0.0505  2.8184
  145TIP3    H2  442   4.076   0.438   0.777  1.0295 -0.3663 -0.3759
  146TIP3   OH2  443   6.306   4.091   2.299  0.4763 -0.5832  0.2144
  146TIP3    H1  444   6.331   4.080   2.207  1.5041 -0.5044  0.4750
  146TIP3    H2  445   6.222   4.137   2.296 -0.1608 -1.7536 -0.7127
  147TIP3   OH2  446   1.659   1.135   4.869  0.3377 -0.4765  0.8606
  147TIP3    H1  447   1.574   1.180   4.863  0.1822 -0.9175 -0.6244
  147TIP3    H2  448   1.704   1.179   4.940 -0.6967  0.5283  0.9287
  148TIP3   OH2  449   0.816   2.055   4.337 -1.2287 -0.1186 -0.0622
  148TIP3    H1  450   0.772   2.049   4.422 -1.3895  0.0505 -0.1303
  148TIP3    H2  451   0.777   2.132   4.296 -1.0778 -0.1396 -0.2475
  149TIP3   OH2  452   2.447   2.122   0.574  0.3081 -0.0413  0.4270
  149TIP3    H1  453   2.523   2.157   0.527 -0.5451  1.0403 -0.1975
  149TIP3    H2  454   2.435   2.180   0.649 -0.1325  0.0425  0.2981
  150TIP3   OH2  455   3.278   2.534   2.680 -0.6370 -0.5321 -0.1517
  150TIP3    H1  456   3.325   2.455   2.655 -1.4050 -0.8020 -0.7713
  150TIP3    H2  457   3.261   2.580   2.598  0.3451  0.6144  0.2420
  151TIP3   OH2  458   3.230   4.505   4.379  0.5399  0.4860  0.5195
  151TIP3    H1  459   3.309   4.455   4.401  0.1002 -0.2547  0.4553
  151TIP3    H2  460   3.182   4.511   4.461 -0.7990 -1.7383  0.0001
  152TIP3   OH2  461   0.783   3.691   1.580 -0.1986  0.0729 -0.0726
  152TIP3    H1  462   0.821   3.689   1.492  0.9512  1.2682  0.3612
  152TIP3    H2  463   0.754   3.782   1.591 -0.5411 -0.1247  0.6917
  153TIP3   OH2  464   4.004   2.389   3.907 -0.2368  0.3549 -0.1870
  153TIP3    H1  465   3.946   2.412   3.979 -0.1073  0.0818  0.0068
  153TIP3    H2  466   3.956   2.322   3.858 -0.0926  0.1454 -0.0395
  154TIP3   OH2  467   3.143   1.643   3.917  0.1831  0.1678 -0.3213
  154TIP3    H1  468   3.149   1.640   3.822 -1.4829  1.2323 -0.4879
  154TIP3    H2  469   3.205   1.712   3.942 -0.6595  1.1340 -0.8090
  155TIP3   OH2  470   1.515   4.191   0.395  0.2067 -0.4475 -0.2268
  155TIP3    H1  471   1.430   4.152   0.373  0.5445 -0.2928 -1.9504
  155TIP3    H2  472   1.574   4.116   0.405 -0.0853 -0.5468  0.7831
  156TIP3   OH2  473   0.522   4.353   1.720 -0.1265 -0.0399 -0.5854
  156TIP3    H1  474   0.609   4.388   1.741  0.3506 -1.8415  0.6501
  156TIP3    H2  475   0.522   4.346   1.625  0.7223  0.8487 -0.6736
  157TIP3   OH2  476   1.328   2.384   2.497  0.6550 -0.2277  0.2439
  157TIP3    H1  477   1.403   2.396   2.555  0.9883 -1.4155  0.0946
  157TIP3    H2  478   1.255   2.367   2.557  0.7313 -0.1434  0.3620
  158TIP3   OH2  479   5.362   0.598   3.285  0.1916 -0.4769  0.1154
  158TIP3    H1  480   5.405   0.642   3.359 -0.1084 -0.2844  0.1786
  158TIP3    H2  481   5.397   0.509   3.286 -1.1587 -1.0456  1.6160
  159TIP3   OH2  482   4.790   1.405   3.627  0.7582  0.2032  0.2408
  159TIP3    H1  483   4.875   1.380   3.592  0.2817 -0.4993 -0.4766
  159TIP3    H2  484   4.773   1.341   3.696  1.3187  1.0634  1.1953
  160TIP3   OH2  485   1.011   2.564   3.235 -0.1373 -0.1138 -0.4687
  160TIP3    H1  486   1.031   2.654   3.209 -0.8894 -0.0143 -0.7226
  160TIP3    H2  487   1.090   2.515   3.211  0.0971  0.3896 -0.7634
  161TIP3   OH2  488   2.989   3.584   0.457  0.5291 -0.1574  0.1719
  161TIP3    H1  489   2.934   3.651   0.416 -0.4358 -1.0198 -0.0074
  161TIP3    H2  490   3.078   3.618   0.452  0.4980 -0.2981 -2.8626
  162TIP3   OH2  491   5.546   1.561   1.593 -0.1704  0.0101  0.1495
  162TIP3    H1  492   5.457   1.528   1.582 -0.3347 -0.1453  1.7823
  162TIP3    H2  493   5.559   1.619   1.518 -1.2528 -0.7811 -0.6891
  163TIP3   OH2  494   1.194   3.597   0.245  1.0684 -0.1384 -0.1300
  163TIP3    H1  495   1.236   3.593   0.159 -0.6427  2.8546 -1.2838
  163TIP3    H2  496   1.255   3.645   0.300  0.9197  0.6295 -0.6151
  164TIP3   OH2  497   4.374   4.164   4.980 -0.6052  0.2050  0.1317
  164TIP3    H1  498   4.347   4.191   5.068 -1.5998  0.3615 -0.2078
  164TIP3    H2  499   4.433   4.090   4.995  0.0243  0.8444  0.9650
  165TIP3   OH2  500   5.709   0.763   3.908  0.4005  0.1019  0.6097
  165TIP3    H1  501   5.693   0.778   4.002 -0.5624 -1.1266  0.6733
  165TIP3    H2  502   5.648   0.693   3.885  3.3223 -2.4173 -0.0465
  166TIP3   OH2  503   3.400   1.062   2.452 -0.1339 -0.5417 -0.3318
  166TIP3    H1  504   3.430   1.139   2.402  0.6542 -0.9691 -0.5429
  166TIP3    H2  505   3.318   1.038   2.410 -1.7474  1.6725  1.3259
  167TIP3   OH2  506   5.770   2.242   2.126  0.3963 -0.0945 -0.2456
  167TIP3    H1  507   5.833   2.309   2.151  1.6844 -0.5306 -2.0891
  167TIP3    H2  508   5.787   2.168   2.184 -0.5776  0.8897  1.3469
  168TIP3   OH2  509   0.215   1.708   2.224  0.6804 -0.0217 -0.6903
  168TIP3    H1  510   0.245   1.711   2.315 -0.5635  0.6155 -0.2809
  168TIP3    H2  511   0.163   1.628   2.218 -1.3289  1.1818 -0.1261
  169TIP3   OH2  512   5.201   2.583   3.320 -0.7663  0.3640 -0.5282
  169TIP3    H1  513   5.126   2.527   3.298  0.3206 -1.2127 -0.4484
  169TIP3    H2  514   5.211   2.573   3.415 -1.0200  1.3094 -0.4004
  170TIP3   OH2  515   3.532   1.786   2.298 -0.8263 -0.0188  0.2174
  170TIP3    H1  516   3.546   1.768   2.391 -1.1197  0.2947  0.3249
  170TIP3    H2  517   3.437   1.785   2.287 -0.7981 -3.3124 -0.7474
  171TIP3   OH2  518   5.392   2.166   1.967 -0.1690  0.5315 -0.5676
  171TIP3    H1  519   5.383   2.081   2.010  0.1119 -0.4966 -2.4425
  171TIP3    H2  520   5.449   2.217   2.025  2.1192 -1.5832 -0.8142
  172TIP3   OH2  521   3.644   5.836   0.098 -0.7513  0.0130  0.1212
  172TIP3    H1  522   3.690   5.897   0.156 -0.7978 -0.5277  0.7358
  172TIP3    H2  523   3.568   5.807   0.148  0.3045 -2.0507  0.6488
  173TIP3   OH2  524   1.332   0.115   2.021 -0.1210 -0.3665 -0.6353
  173TIP3    H1  525   1.376   0.191   2.057 -1.6773  0.6072 -0.6888
  173TIP3    H2  526   1.275   0.150   1.952 -1.1961 -1.4941 -0.3652
  174TIP3   OH2  527   0.997   4.183   2.278  0.0638  0.5355 -0.4299
  174TIP3    H1  528   0.912   4.228   2.281 -0.5360 -0.6217  0.9987
  174TIP3    H2  529   0.981   4.104   2.227  0.4907  0.6888 -0.8104
  175TIP3   OH2  530   6.067   2.534   4.967 -0.1965  0.2512 -0.4337
  175TIP3    H1  531   6.089   2.627   4.973 -0.6873  0.3096  1.0146
  175TIP3    H2  532   6.094   2.498   5.052 -0.7443 -0.7601 -0.6713
  176TIP3   OH2  533   4.219   1.756   1.085  0.1305  0.0143  0.2622
  176TIP3    H1  534   4.307   1.779   1.115  0.9248 -1.6946 -0.6190
  176TIP3    H2  535   4.161   1.803   1.144  1.5946 -1.2081  2.8866
  177TIP3   OH2  536   2.144   2.732   2.223  0.6681 -0.4269 -0.4370
  177TIP3    H1  537   2.049   2.736   2.236  0.9346  0.6251  1.5885
  177TIP3    H2  538   2.172   2.659   2.278  1.0786 -0.3960 -0.6067
  178TIP3   OH2  539   1.479   0.831   2.668  0.1172  0.2912 -0.1092
  178TIP3    H1  540   1.431   0.883   2.603 -1.1261 -0.2077  0.3660
  178TIP3    H2  541   1.570   0.856   2.656 -0.3913  2.3970 -0.0697
  179TIP3   OH2  542   0.195   3.458   1.167  0.5994  0.1571 -0.0282
  179TIP3    H1  543   0.184   3.372   1.208  0.8570  0.0989 -0.0841
  179TIP3    H2  544   0.200   3.519   1.241 -1.0997  0.3143  0.0034
  180TIP3   OH2  545   1.457   0.119   4.596 -0.8327 -0.1350 -0.2416
  180TIP3    H1  546   1.465   0.174   4.675 -0.2026 -0.5798  0.0167
  180TIP3    H2  547   1.371   0.079   4.603 -0.4229 -0.8930  0.7085
  181TIP3   OH2  548   4.400   5.681   2.843 -0.3821  0.4340 -0.5604
  181TIP3    H1  549   4.465   5.665   2.911 -1.1421  1.9055  0.5697
  181TIP3    H2  550   4.447   5.727   2.774 -0.1882  1.4038  0.2066
  182TIP3   OH2  551   5.249   3.561   2.007 -0.0922  0.0972  0.5068
  182TIP3    H1  552   5.305   3.534   1.934  0.1501  0.2212  0.6454
  182TIP3    H2  553   5.243   3.483   2.062 -1.8835 -0.6363 -0.6234
  183TIP3   OH2  554   0.115   1.140   1.327 -0.1872  0.0990  0.2844
  183TIP3    H1  555   0.198   1.095   1.345 -0.3182  0.5666  2.1820
  183TIP3    H2  556   0.122   1.165   1.235  2.2595  1.1114  0.6654
  184TIP3   OH2  557   3.002   1.750   3.325 -0.5032  0.0811 -0.7376
  184TIP3    H1  558   3.042   1.806   3.391  1.6910 -2.1258 -0.0742
  184TIP3    H2  559   2.922   1.718   3.366 -0.3235  0.5028 -0.0456
  185TIP3   OH2  560   2.185   0.775   2.467 -0.5365  0.1124 -0.2826
  185TIP3    H1  561   2.199   0.809   2.378  1.4182 -2.0565 -0.9168
  185TIP3    H2  562   2.091   0.784   2.482 -1.0953 -0.3862 -3.0073
  186TIP3   OH2  563   0.832   0.825   3.308  0.6561  0.2698 -0.2710
  186TIP3    H1  564   0.852   0.785   3.223 -1.1384 -1.6677  0.1295
  186TIP3    H2  565   0.738   0.843   3.304  0.2458 -1.1556  1.7847
  187TIP3   OH2  566   5.417   3.616   0.594 -0.5686  0.7116 -0.2981
  187TIP3    H1  567   5.354   3.543   0.596 -1.6653  1.6325  0.0889
  187TIP3    H2  568   5.364   3.693   0.616  0.2893  1.8395 -2.0117
  188TIP3   OH2  569   1.170   3.369   2.907  0.0803  0.0711  0.3666
  188TIP3    H1  570   1.155   3.463   2.905  0.3399  0.1037 -1.3069
  188TIP3    H2  571   1.083   3.331   2.924 -0.6537  0.5367 -1.9651
  189TIP3   OH2  572   4.615   2.326   1.421  0.3692  0.0018 -0.1918
  189TIP3    H1  573   4.623   2.271   1.498 -0.5433  1.3143  0.8871
  189TIP3    H2  574   4.536   2.294   1.377  0.3493 -0.1283 -0.0609
  190TIP3   OH2  575   0.748   0.981   2.132 -0.3478  0.0756 -0.4985
  190TIP3    H1  576   0.685   1.044   2.096 -0.1225  0.4902 -0.1840
  190TIP3    H2  577   0.791   1.029   2.203  2.0399  0.6653 -2.2066
  191TIP3   OH2  578   4.534   1.266   2.792 -0.5620 -0.2044  0.0428
  191TIP3    H1  579   4.582   1.344   2.767 -1.1849 -0.4218 -2.0470
  191TIP3    H2  580   4.556   1.201   2.724 -0.7658 -1.5453  1.2071
  192TIP3   OH2  581   5.119   4.876   0.913 -0.4374 -0.2829  0.4060
  192TIP3    H1  582   5.171   4.939   0.964 -0.2083  0.0035 -0.1729
  192TIP3    H2  583   5.159   4.791   0.934 -0.2447 -0.1527  0.5796
  193TIP3   OH2  584   1.827   1.775   1.688  0.3373  0.3353 -0.0476
  193TIP3    H1  585   1.824   1.700   1.747  0.9930 -0.4720 -1.0282
  193TIP3    H2  586   1.809   1.850   1.745 -0.7540 -0.5808  0.8740
  194TIP3   OH2  587   5.182   5.482   1.106  1.1562  0.0939 -0.6656
  194TIP3    H1  588   5.190   5.577   1.117  0.6419  0.1070 -0.3739
  194TIP3    H2  589   5.248   5.446   1.164 -0.9385  0.1926  2.0005
  195TIP3   OH2  590   3.986   0.802   2.643  0.5469  0.1992  0.3670
  195TIP3    H1  591   4.046   0.877   2.653  1.9269 -0.7922 -0.0987
  195TIP3    H2  592   4.016   0.739   2.708 -0.5099 -0.0202  0.6549
  196TIP3   OH2  593   0.311   4.484   4.303  0.2136 -0.0982 -0.1912
  196TIP3    H1  594   0.381   4.434   4.343 -1.9003 -1.9734  1.4154
  196TIP3    H2  595   0.292   4.554   4.365 -0.7536 -0.9289  0.4866
  197TIP3   OH2  596   5.124   4.942   0.042  0.0815  0.0707  0.1453
  197TIP3    H1  597   5.091   4.988  -0.035 -0.7335 -0.0353  0.4250
  197TIP3    H2  598   5.046   4.906   0.084  0.6971 -1.8231 -0.2297
  198TIP3   OH2  599   1.894   3.617   0.162 -0.0221  0.3171  0.2775
  198TIP3    H1  600   1.800   3.609   0.152 -0.0429  0.3228  0.4603
  198TIP3    H2  601   1.920   3.681   0.096  0.0952 -0.9529 -0.9523
  199TIP3   OH2  602   1.546   3.526   2.914 -0.1936 -0.3321 -0.4904
  199TIP3    H1  603   1.502   3.519   2.829 -1.5666  0.7525  0.0959
  199TIP3    H2  604   1.533   3.441   2.955  0.8378 -1.0184 -1.4879
  200TIP3   OH2  605   4.015   5.886   1.758  0.1610 -0.2051  0.2246
  200TIP3    H1  606   4.046   5.797   1.771  0.6172  0.0179  0.7130
  200TIP3    H2  607   3.927   5.887   1.794  0.2028 -0.4266  0.3322
  201TIP3   OH2  608   1.638   1.256   4.002  0.1389 -0.1216 -0.3233
  201TIP3    H1  609   1.604   1.299   4.080  0.2074  0.4919 -0.6230
  201TIP3    H2  610   1.563   1.206   3.969  0.7400 -2.2788  1.3932
  202TIP3   OH2  611   0.574   5.916   1.392  0.5947  0.0970 -0.5476
  202TIP3    H1  612   0.573   5.857   1.316  1.5609 -0.0900 -0.4263
  202TIP3    H2  613   0.573   5.857   1.467 -2.0343  0.2826 -0.3417
  203TIP3   OH2  614   0.244   3.815   2.041  0.2688 -1.0659 -0.1622
  203TIP3    H1  615   0.249   3.806   1.946  0.6982  2.8540 -0.6598
  203TIP3    H2  616   0.166   3.764   2.065 -1.0956 -0.4984 -2.9232
  204TIP3   OH2  617   4.903   5.723   1.004 -0.3020  0.1359  0.3233
  204TIP3    H1  618   4.815   5.716   1.041 -0.5754  1.1553 -0.1106
  204TIP3    H2  619   4.962   5.704   1.077 -0.8593  0.6373  0.9136
  205TIP3   OH2  620   1.713   1.563   5.029 -0.0304 -0.3662  0.3460
  205TIP3    H1  621   1.658   1.641   5.018  0.2903 -0.1993 -0.1222
  205TIP3    H2  622   1.763   1.581   5.109  0.0701 -0.0677  0.2188
  206TIP3   OH2  623   1.172   2.132   4.718 -0.2068  0.4486  0.1881
  206TIP3    H1  624   1.172   2.148   4.813  1.4919 -2.1377  0.7267
  206TIP3    H2  625   1.232   2.059   4.706 -0.0619  0.9495 -2.9837
  207TIP3   OH2  626   5.343   5.883   1.168  0.6669 -0.0186 -0.1375
  207TIP3    H1  627   5.422   5.938   1.176  0.0066  0.7536  1.5027
  207TIP3    H2  628   5.321   5.888   1.075  2.0690  0.4454 -0.4767
  208TIP3   OH2  629   3.800   4.767   1.083  0.2658  0.6388  0.4663
  208TIP3    H1  630   3.782   4.773   1.177 -1.3257  0.6685  0.1838
  208TIP3    H2  631   3.730   4.712   1.048  0.0766  1.6727 -0.8989
  209TIP3   OH2  632   3.344   4.886   4.422  0.3833  0.4760 -0.6077
  209TIP3    H1  633   3.252   4.860   4.417  0.7434 -0.6735 -1.8834
  209TIP3    H2  634   3.342   4.977   4.452 -1.0761 -0.0618  1.0838
  210TIP3   OH2  635   4.314   3.056   0.799 -0.0247 -0.5970  0.0254
  210TIP3    H1  636   4.248   3.008   0.750 -1.4247 -0.6445  1.8672
  210TIP3    H2  637   4.267   3.128   0.840  1.7343  1.5154 -1.3777
  211TIP3   OH2  638   3.322   4.273   0.979  0.5155 -0.6992 -0.0941
  211TIP3    H1  639   3.247   4.249   0.924 -0.3366 -0.7574  1.0624
  211TIP3    H2  640   3.288   4.270   1.068  1.6960  0.0501  0.3988
  212TIP3   OH2  641   0.080   1.491   4.034  0.5048  0.0617  0.0067
  212TIP3    H1  642   0.167   1.469   4.065  0.0672 -1.3158  0.3229
  212TIP3    H2  643   0.043   1.546   4.103  1.3586  1.2824 -0.4665
  213TIP3   OH2  644   2.201   2.260   0.405  0.0354 -0.1631  0.1066
  213TIP3    H1  645   2.234   2.323   0.469 -1.3787  0.7603 -0.0380
  213TIP3    H2  646   2.233   2.175   0.437  2.1539  0.5934  0.1762
  214TIP3   OH2  647   2.529   5.262   2.726  0.5631 -0.4642  0.1487
  214TIP3    H1  648   2.459   5.262   2.662  2.2680  0.1617 -1.8449
  214TIP3    H2  649   2.543   5.354   2.747  3.1441 -0.1198 -2.3921
  215TIP3   OH2  650   4.897   0.758   2.040 -0.2549 -0.4648 -0.0848
  215TIP3    H1  651   4.899   0.668   2.071  0.8939 -0.4179 -0.0084
  215TIP3    H2  652   4.985   0.775   2.008 -0.7387  0.3038 -1.0642
  216TIP3   OH2  653   1.732   0.342   1.062 -0.4654  0.2043 -0.5318
  216TIP3    H1  654   1.646   0.325   1.024 -0.7929  1.3477 -0.3595
  216TIP3    H2  655   1.786   0.268   1.035 -0.4595  1.2623 -3.8774
  217TIP3   OH2  656   3.671   5.901   4.887 -0.2112 -0.0103 -0.0096
  217TIP3    H1  657   3.660   5.994   4.864 -0.1908  0.1593  0.6536
  217TIP3    H2  658   3.646   5.854   4.807 -0.8730  0.5424 -0.1375
  218TIP3   OH2  659   3.106   3.245   2.505 -0.9474  0.3847  0.7063
  218TIP3    H1  660   3.114   3.222   2.598 -0.8643  0.5645  0.7439
  218TIP3    H2  661   3.096   3.161   2.461  0.2722  0.1931  0.7582
  219TIP3   OH2  662   3.302   0.733   3.914 -0.0039  0.3727 -0.0647
  219TIP3    H1  663   3.351   0.695   3.841 -1.2662 -0.0141 -0.7474
  219TIP3    H2  664   3.326   0.825   3.913  2.2674 -0.1550  0.9318
  220TIP3   OH2  665   5.029   3.813   0.758 -0.5318  0.3410  0.0057
  220TIP3    H1  666   5.115   3.780   0.734 -0.8454  0.1465 -0.8633
  220TIP3    H2  667   4.981   3.820   0.676 -0.7206  2.2956  0.2467
  221TIP3   OH2  668   2.970   4.747   2.229  0.0752  0.1942 -0.3565
  221TIP3    H1  669   2.969   4.815   2.297  0.9416 -0.9891  0.8985
  221TIP3    H2  670   3.062   4.736   2.207 -0.2421  1.0451 -2.2912
  222TIP3   OH2  671   4.843   4.375   4.085  0.1026 -0.2809 -0.2120
  222TIP3    H1  672   4.910   4.309   4.098 -0.0942 -0.2990  0.8162
  222TIP3    H2  673   4.760   4.329   4.100 -0.0865 -0.0247 -0.4558
  223TIP3   OH2  674   6.320   3.711   4.443  0.2125 -0.4574 -0.4574
  223TIP3    H1  675   6.340   3.619   4.462  0.1833 -0.8154 -2.0096
  223TIP3    H2  676   6.259   3.707   4.369 -0.0447  0.8125 -0.3319
  224TIP3   OH2  677   5.400   2.632   0.814  0.7473 -0.1437  0.6572
  224TIP3    H1  678   5.477   2.673   0.774 -1.2327  0.9150 -2.4344
  224TIP3    H2  679   5.382   2.557   0.758 -0.1524 -0.7601  1.7349
  225TIP3   OH2  680   0.072   2.276   5.130  0.5011 -0.0172 -0.5792
  225TIP3    H1  681   0.035   2.301   5.046  2.0053 -1.3741 -1.7267
  225TIP3    H2  682   0.017   2.203   5.160 -1.4642  1.9083  0.8453
  226TIP3   OH2  683   4.895   2.703   1.245 -0.0265 -0.2385 -0.1437
  226TIP3    H1  684   4.921   2.777   1.300  0.2855 -0.1918 -0.3547
  226TIP3    H2  685   4.861   2.639   1.307 -1.3964  0.5288 -0.0495
  227TIP3   OH2  686   4.658   4.997   0.404  0.3269  0.8587 -0.4740
  227TIP3    H1  687   4.710   4.939   0.460 -2.0773  0.7902  1.8941
  227TIP3    H2  688   4.620   4.939   0.339 -1.7491 -0.3117  1.6410
  228TIP3   OH2  689   4.286   1.154   1.399  0.6331  0.2542  0.5025
  228TIP3    H1  690   4.299   1.147   1.493  0.5355  4.3665  1.0217
  228TIP3    H2  691   4.194   1.178   1.389  0.6175 -0.2128 -0.6565
  229TIP3   OH2  692   5.432   4.586   0.461  0.5355  0.2063 -0.0911
  229TIP3    H1  693   5.380   4.665   0.450  0.3058 -0.1767 -2.4105
  229TIP3    H2  694   5.379   4.517   0.420  1.6229 -0.7517  0.0634
  230TIP3   OH2  695   1.432   3.524   2.039  0.0373  1.2235 -1.0610
  230TIP3    H1  696   1.344   3.516   2.076 -0.2518  1.1876 -1.7560
  230TIP3    H2  697   1.485   3.462   2.090 -0.9306 -0.9262 -2.5354
  231TIP3   OH2  698   1.814   4.376   4.533 -0.3072  0.0705 -0.0639
  231TIP3    H1  699   1.724   4.348   4.548  0.5937 -2.3842  1.3354
  231TIP3    H2  700   1.822   4.382   4.438 -2.2431  1.6748 -0.2040
  232TIP3   OH2  701   5.381   1.133   0.332  0.0908  0.1179 -0.6246
  232TIP3    H1  702   5.379   1.172   0.245 -0.8694 -1.5503 -1.4112
  232TIP3    H2  703   5.300   1.082   0.336  0.5192 -0.4825  0.9431
  233TIP3   OH2  704   5.300   0.160   0.500 -0.5471 -0.4459  0.1009
  233TIP3    H1  705   5.292   0.200   0.413  0.3664  0.1477  0.2792
  233TIP3    H2  706   5.373   0.098   0.490  0.7476  0.8902  0.8785
  234TIP3   OH2  707   5.178   3.678   1.491 -0.6669  0.1874  0.4890
  234TIP3    H1  708   5.204   3.767   1.515  0.6579  0.6292 -2.1917
  234TIP3    H2  709   5.257   3.638   1.455 -1.1874 -2.1742  1.7467
  235TIP3   OH2  710   1.589   4.955   4.299  0.5120 -0.2276  0.1371
  235TIP3    H1  711   1.602   5.012   4.374  0.8441  0.2845 -0.3076
  235TIP3    H2  712   1.663   4.973   4.242  0.4235 -0.8341 -0.1794
  236TIP3   OH2  713   0.381   1.579   4.527 -0.1282  0.6058  0.2069
  236TIP3    H1  714   0.452   1.628   4.570  0.1554  0.8266 -0.4981
  236TIP3    H2  715   0.317   1.646   4.503  0.2253  0.6348 -0.6891
  237TIP3   OH2  716   0.438   5.943   1.099 -0.0247  0.2288 -0.0053
  237TIP3    H1  717   0.375   5.888   1.052 -0.0991  0.8539 -0.6501
  237TIP3    H2  718   0.502   5.881   1.134 -0.0324 -0.2591 -0.8324
  238TIP3   OH2  719   5.520   3.706   1.600  0.1113  0.2477 -0.3988
  238TIP3    H1  720   5.607   3.671   1.579  0.5812  0.6026  0.8705
  238TIP3    H2  721   5.479   3.720   1.514  1.9637  1.6976 -1.1304
  239TIP3   OH2  722   4.580   4.398   1.073 -0.1966 -0.2020 -0.0583
  239TIP3    H1  723   4.529   4.473   1.103 -0.6284 -0.2218 -0.7161
  239TIP3    H2  724   4.515   4.336   1.041 -0.1783 -2.4967  3.8042
  240TIP3   OH2  725   1.635   4.605   4.868 -0.6259 -0.4492 -0.2456
  240TIP3    H1  726   1.700   4.582   4.801 -0.9616  1.5036 -1.3298
  240TIP3    H2  727   1.558   4.631   4.817 -1.3075 -0.0653  0.9538
  241TIP3   OH2  728   0.836   4.294   2.602  0.3543 -0.0150  0.3353
  241TIP3    H1  729   0.758   4.275   2.655  0.5346  0.0526  0.6284
  241TIP3    H2  730   0.839   4.224   2.538 -0.8724  0.8610 -0.7290
  242TIP3   OH2  731   2.745   4.036   0.662  0.8693 -0.1353 -0.0407
  242TIP3    H1  732   2.815   4.088   0.622  1.5297 -1.7207 -1.0905
  242TIP3    H2  733   2.778   3.946   0.658 -0.5687 -0.7386  0.9264
  243TIP3   OH2  734   2.684   3.163   4.218  1.1707  0.7251  0.3052
  243TIP3    H1  735   2.599   3.166   4.173  0.9538 -0.9250  0.5315
  243TIP3    H2  736   2.747   3.149   4.148  0.9838 -0.3966  0.3371
  244TIP3   OH2  737   6.168   3.385   1.060  0.1654  0.6379 -0.0988
  244TIP3    H1  738   6.073   3.392   1.067 -0.1049 -2.5230  0.9208
  244TIP3    H2  739   6.201   3.428   1.139 -0.3540  2.0363 -0.6150
  245TIP3   OH2  740   2.315   1.270   2.424 -0.3163  0.0451 -0.6444
  245TIP3    H1  741   2.257   1.346   2.436  1.7203  1.6525 -0.4012
  245TIP3    H2  742   2.330   1.267   2.330  0.7477  0.8866 -0.5181
  246TIP3   OH2  743   2.765   1.386   0.062 -0.4482 -0.3763  0.4196
  246TIP3    H1  744   2.766   1.482   0.068 -1.0544 -0.3796  0.6494
  246TIP3    H2  745   2.816   1.357   0.138 -0.3967 -0.2387  0.4378
  247TIP3   OH2  746   0.335   4.730   2.341 -0.0784 -0.0975  0.9616
  247TIP3    H1  747   0.339   4.811   2.393 -1.4901  0.1976  0.6458
  247TIP3    H2  748   0.281   4.753   2.266  2.2345 -0.3992 -0.9066
  248TIP3   OH2  749   3.030   1.880   1.605  0.5289 -0.2771 -0.9787
  248TIP3    H1  750   3.125   1.888   1.604  0.7329 -1.7992  0.7082
  248TIP3    H2  751   3.013   1.794   1.643 -1.5332  0.4268 -0.1385
  249TIP3   OH2  752   0.312   3.418   1.788  0.1520 -0.0562  0.2217
  249TIP3    H1  753   0.346   3.393   1.702  0.8572  0.5306  0.3163
  249TIP3    H2  754   0.381   3.392   1.849  0.2985  0.8491  0.4547
  250TIP3   OH2  755   6.192   3.048   4.390 -0.0306 -0.1083  0.5668
  250TIP3    H1  756   6.215   3.072   4.480  1.2772 -0.5311  0.3625
  250TIP3    H2  757   6.106   3.006   4.398 -0.2368  0.4561  1.5199
  251TIP3   OH2  758   0.724   4.734   0.900 -0.0961  0.2080  0.4585
  251TIP3    H1  759   0.720   4.667   0.968 -0.8695 -0.5597 -0.3253
  251TIP3    H2  760   0.790   4.701   0.839 -0.8277 -0.0851 -0.1785
  252TIP3   OH2  761   3.760   0.993   0.445  0.0036  0.2175  0.2363
  252TIP3    H1  762   3.777   1.023   0.534  1.5679 -0.6835  0.2702
  252TIP3    H2  763   3.842   1.007   0.398 -0.1423 -1.1996 -0.5096
  253TIP3   OH2  764   1.099   4.530   4.814  0.2894 -0.3965  0.1112
  253TIP3    H1  765   1.032   4.597   4.803  0.4162 -0.1485  0.8091
  253TIP3    H2  766   1.134   4.516   4.726  1.1322  1.3859  0.1207
  254TIP3   OH2  767   5.874   0.139   4.259  0.1839  0.2446  0.3105
  254TIP3    H1  768   5.962   0.154   4.225  0.3014 -0.3489  0.3486
  254TIP3    H2  769   5.848   0.223   4.298  0.4353  0.6436 -0.3674
  255TIP3   OH2  770   5.178   4.968   0.650 -0.4446  0.1081  0.5957
  255TIP3    H1  771   5.175   4.917   0.731 -2.9934  0.5670  0.8575
  255TIP3    H2  772   5.259   4.939   0.607  0.7146 -0.5282  3.0219
  256TIP3   OH2  773   0.204   2.694   2.659 -0.3666 -0.6771 -0.4714
  256TIP3    H1  774   0.284   2.730   2.621 -0.3695  0.2396  0.3497
  256TIP3    H2  775   0.167   2.766   2.710 -3.0947 -0.2075 -2.8452
  257TIP3   OH2  776   6.032   0.173   1.042 -0.4925  0.5267  0.0255
  257TIP3    H1  777   6.077   0.113   0.983 -0.4942  0.6749 -0.1268
  257TIP3    H2  778   6.070   0.155   1.128  0.2459  1.0291 -0.1891
  258TIP3   OH2  779   5.093   2.343   0.902  0.0977 -0.2876 -0.0065
  258TIP3    H1  780   5.010   2.366   0.942  0.5958 -1.8545  2.1576
  258TIP3    H2  781   5.073   2.328   0.810 -2.1187 -1.0662  0.5438
  259TIP3   OH2  782   5.135   5.732   0.109 -0.0006  0.0892  0.2474
  259TIP3    H1  783   5.194   5.666   0.071 -0.0239 -0.4674  1.1442
  259TIP3    H2  784   5.187   5.772   0.179 -0.5340 -0.1045  0.7580
  260TIP3   OH2  785   3.142   1.131   2.140 -0.3425 -0.0118  0.0178
  260TIP3    H1  786   3.194   1.130   2.059  0.6910 -1.8303  0.6236
  260TIP3    H2  787   3.052   1.137   2.110  0.0011 -0.9017 -1.3070
  261TIP3   OH2  788   0.558   2.563   5.043 -0.3086 -0.9143  0.2338
  261TIP3    H1  789   0.481   2.512   5.067 -0.7759 -0.1585  0.3928
  261TIP3    H2  790   0.549   2.579   4.949 -0.4546 -0.6641  0.2879
  262TIP3   OH2  791   0.087   4.739   4.806  0.5419 -0.0970 -0.0842
  262TIP3    H1  792   0.080   4.798   4.731 -0.8200  0.3920  0.4101
  262TIP3    H2  793   0.010   4.683   4.801  1.0454 -0.8555  0.3103
  263TIP3   OH2  794   5.230   2.038   0.473  0.3704 -0.2918 -0.3263
  263TIP3    H1  795   5.165   1.973   0.447 -2.4380  2.4100 -0.6162
  263TIP3    H2  796   5.246   2.089   0.394  4.3263 -1.8296 -0.7648
  264TIP3   OH2  797   3.819   4.467   3.749 -0.5252 -0.1186  0.0743
  264TIP3    H1  798   3.731   4.491   3.776 -1.0365 -0.0360 -1.5769
  264TIP3    H2  799   3.808   4.390   3.694  0.3459  0.3041 -0.7289
  265TIP3   OH2  800   4.203   3.491   3.994 -0.3365 -0.5003  0.2640
  265TIP3    H1  801   4.213   3.446   3.910  0.9028 -1.6764  1.0134
  265TIP3    H2  802   4.289   3.528   4.012 -0.9293  0.8721  0.4212
  266TIP3   OH2  803   2.996   5.164   4.316  0.5014  0.2567  0.4756
  266TIP3    H1  804   3.044   5.183   4.235  0.8719  0.6235  0.7765
  266TIP3    H2  805   2.913   5.210   4.307  0.2369 -0.3069 -0.0111
  267TIP3   OH2  806   2.580   3.433   3.008  0.8138 -0.8185  0.1542
  267TIP3    H1  807   2.527   3.452   3.085 -0.3531  0.1992 -0.8568
  267TIP3    H2  808   2.518   3.432   2.936  1.8141 -2.1877 -0.7371
  268TIP3   OH2  809   5.863   2.519   0.407 -0.3919 -0.5244  0.0264
  268TIP3    H1  810   5.795   2.585   0.392 -0.9643 -1.0755  0.1507
  268TIP3    H2  811   5.839   2.478   0.489  0.4875 -0.2678  0.4232
  269TIP3   OH2  812   3.952   0.560   4.328  0.0053  0.1214  0.4778
  269TIP3    H1  813   3.968   0.609   4.247 -0.4698 -0.3601  0.0835
  269TIP3    H2  814   3.949   0.627   4.396  1.9622  0.4013  0.3506
  270TIP3   OH2  815   3.211   4.737   5.078 -0.1736 -0.2801  0.0605
  270TIP3    H1  816   3.272   4.810   5.073  0.6855 -1.0550 -1.0562
  270TIP3    H2  817   3.189   4.731   5.171 -0.1605  1.2909  0.2018
  271TIP3   OH2  818   2.254   2.347   3.440  0.0264 -0.6590 -0.0268
  271TIP3    H1  819   2.346   2.343   3.412  0.5884 -1.8745  1.8002
  271TIP3    H2  820   2.215   2.415   3.386  1.3941 -1.7465 -2.5556
  272TIP3   OH2  821   5.787   2.151   1.245  0.2305 -0.3795  0.3322
  272TIP3    H1  822   5.728   2.224   1.261 -0.6449 -1.0435  0.2058
  272TIP3    H2  823   5.742   2.075   1.282  0.2222 -1.1816 -1.2444
  273TIP3   OH2  824   1.382   1.907   3.124 -0.5735 -0.3878 -0.3037
  273TIP3    H1  825   1.320   1.868   3.062  0.6761 -0.6405 -1.4456
  273TIP3    H2  826   1.461   1.853   3.115  0.4936  1.1490 -0.4022
  274TIP3   OH2  827   5.968   5.877   4.968 -0.3871 -0.1608 -0.5624
  274TIP3    H1  828   5.988   5.866   5.061  0.9906 -0.9567 -0.9294
  274TIP3    H2  829   5.878   5.910   4.967 -0.2250  0.4304  1.0669
  275TIP3   OH2  830   5.642   2.692   0.407  0.4518  0.4310  0.1215
  275TIP3    H1  831   5.574   2.632   0.376  0.8103  0.0814 -0.0029
  275TIP3    H2  832   5.620   2.776   0.367  0.1349  0.3040  0.0253
  276TIP3   OH2  833   2.541   0.321   0.712 -0.3628 -0.5132 -0.2282
  276TIP3    H1  834   2.475   0.386   0.732  1.9501  1.1006  3.2796
  276TIP3    H2  835   2.499   0.237   0.729 -1.9781  0.3472  0.1495
  277TIP3   OH2  836   5.794   1.760   4.798  0.2856  0.3437 -0.1873
  277TIP3    H1  837   5.849   1.737   4.723  0.2713  1.4256 -0.5431
  277TIP3    H2  838   5.709   1.719   4.778  0.9692 -1.5389  0.4838
  278TIP3   OH2  839   4.128   0.629   4.537  0.0259 -0.1807  0.4789
  278TIP3    H1  840   4.099   0.603   4.624  3.0325 -0.7266  1.4368
  278TIP3    H2  841   4.176   0.553   4.504 -1.5872 -0.2328 -2.0090
  279TIP3   OH2  842   4.663   2.674   4.974 -0.1298  0.0099  0.3365
  279TIP3    H1  843   4.571   2.648   4.982 -0.1858 -0.0098 -0.3445
  279TIP3    H2  844   4.708   2.593   4.952 -0.0086  0.1058  0.2351
  280TIP3   OH2  845   0.326   3.983   2.809 -0.0021  0.2014  0.4534
  280TIP3    H1  846   0.380   3.905   2.796  1.1719  0.8703  1.1609
  280TIP3    H2  847   0.250   3.968   2.753  0.6065 -1.0509 -0.0985
  281TIP3   OH2  848   4.167   0.690   3.249 -0.3561 -0.0049 -0.3254
  281TIP3    H1  849   4.202   0.622   3.191 -0.9269 -0.5270 -0.0618
  281TIP3    H2  850   4.198   0.772   3.211  0.4628 -0.4136 -0.5688
  282TIP3   OH2  851   4.759   1.136   0.870  0.1142 -0.3589  0.5086
  282TIP3    H1  852   4.737   1.059   0.818 -1.7133  1.2021 -1.1587
  282TIP3    H2  853   4.845   1.164   0.837 -1.1169  0.7614 -2.0330
  283TIP3   OH2  854   0.806   3.925   5.181  0.3683 -0.5810 -0.7691
  283TIP3    H1  855   0.780   3.995   5.241  1.8177  2.4144 -3.3058
  283TIP3    H2  856   0.729   3.913   5.125  0.2576 -0.7077 -0.5897
  284TIP3   OH2  857   3.873   4.258   4.070 -0.0184 -0.3721 -0.1228
  284TIP3    H1  858   3.902   4.168   4.053 -0.0701 -0.4752  0.3383
  284TIP3    H2  859   3.922   4.311   4.006  1.4220 -0.5062  0.8210
  285TIP3   OH2  860   6.019   1.567   1.803 -0.2626 -0.2269  0.3050
  285TIP3    H1  861   5.995   1.655   1.832  1.2728 -0.5148  2.6360
  285TIP3    H2  862   5.942   1.537   1.754 -1.5252  1.7352  0.9626
  286TIP3   OH2  863   4.028   1.337   1.345 -0.2344 -0.7548  0.5248
  286TIP3    H1  864   4.070   1.386   1.416  0.7708 -1.9682  0.8081
  286TIP3    H2  865   4.027   1.397   1.271  1.5722 -0.5145  0.6670
  287TIP3   OH2  866   4.800   5.603   3.510 -0.0875  0.7381 -0.4975
  287TIP3    H1  867   4.761   5.598   3.597  0.0752 -2.8028 -0.4949
  287TIP3    H2  868   4.863   5.675   3.517 -1.6201  1.9915  1.6006
  288TIP3   OH2  869   1.150   5.756   3.132  0.2002 -0.2596 -0.2085
  288TIP3    H1  870   1.181   5.832   3.083  1.3893  0.3049  1.3797
  288TIP3    H2  871   1.057   5.751   3.110  0.9004 -0.9801 -3.7422
  289TIP3   OH2  872   0.323   2.467   0.162  0.1710  0.7095 -0.1933
  289TIP3    H1  873   0.384   2.429   0.226 -0.1030 -1.2341 -1.0229
  289TIP3    H2  874   0.236   2.449   0.199  0.0194 -0.1557 -0.9678
  290TIP3   OH2  875   6.087   5.884   0.966  0.2421 -0.3751 -0.4765
  290TIP3    H1  876   6.121   5.801   1.000 -0.1134 -0.4130 -0.2038
  290TIP3    H2  877   6.004   5.896   1.011 -0.1773 -0.3592 -1.2228
  291TIP3   OH2  878   3.100   2.448   4.332 -0.3746  0.2811  0.0465
  291TIP3    H1  879   3.193   2.461   4.354 -0.4367 -0.0368  0.5178
  291TIP3    H2  880   3.098   2.360   4.292 -0.5759 -0.0061  0.6803
  292TIP3   OH2  881   0.918   0.367   3.633  0.2167 -0.0371  0.4513
  292TIP3    H1  882   0.962   0.404   3.556  0.3697  2.0166  1.4547
  292TIP3    H2  883   0.851   0.432   3.656 -0.3902 -1.0213  1.5540
  293TIP3   OH2  884   2.009   1.073   0.944 -0.1164  0.1644  0.2790
  293TIP3    H1  885   1.961   0.992   0.926  0.9085 -0.1992 -1.0219
  293TIP3    H2  886   2.088   1.066   0.891 -0.1918  2.2028 -0.1983
  294TIP3   OH2  887   4.373   2.563   3.099  0.4871  0.4077 -0.2405
  294TIP3    H1  888   4.426   2.518   3.034 -1.7103  1.0052 -2.5836
  294TIP3    H2  889   4.433   2.578   3.172  2.0826 -3.6622 -0.4695
  295TIP3   OH2  890   3.111   0.531   5.175 -0.1323 -0.2836 -0.2146
  295TIP3    H1  891   3.090   0.477   5.099 -0.4717 -1.9805  1.0060
  295TIP3    H2  892   3.034   0.588   5.186 -0.2664 -0.3292 -0.8746
  296TIP3   OH2  893   2.445   4.597   0.065  0.0747  0.4935 -0.0680
  296TIP3    H1  894   2.430   4.683   0.104 -0.3571 -0.5950  2.3809
  296TIP3    H2  895   2.387   4.595  -0.011  0.2590  2.4266 -0.3029
  297TIP3   OH2  896   6.164   2.773   5.058  0.4262  0.4309 -0.1315
  297TIP3    H1  897   6.099   2.801   5.123  2.4179  3.0335  0.9319
  297TIP3    H2  898   6.156   2.837   4.987  1.1362  0.1466 -0.4774
  298TIP3   OH2  899   0.532   1.408   0.785  0.1341 -0.7230  0.0891
  298TIP3    H1  900   0.609   1.376   0.832  0.4959  2.1414  1.6431
  298TIP3    H2  901   0.567   1.465   0.716 -0.5393 -2.3700 -1.7272
  299TIP3   OH2  902   4.007   1.380   3.833 -0.2375  0.2906  0.4055
  299TIP3    H1  903   4.046   1.294   3.850  0.2456  0.2174 -0.9467
  299TIP3    H2  904   3.920   1.375   3.872  0.0669 -0.5535  0.9949
  300TIP3   OH2  905   2.322   0.337   3.062 -1.0313  0.1291 -0.3141
  300TIP3    H1  906   2.366   0.361   3.144 -1.1176 -0.5201 -0.0755
  300TIP3    H2  907   2.371   0.384   2.995 -1.4008  1.2367  0.1670
  301TIP3   OH2  908   5.023   0.368   2.228 -0.0222  0.7765  0.0320
  301TIP3    H1  909   5.040   0.275   2.210  3.4635  0.4284  3.8116
  301TIP3    H2  910   4.944   0.368   2.282  0.6303 -0.1958  1.0346
  302TIP3   OH2  911   6.047   3.775   2.428  0.1833  0.2684  0.7091
  302TIP3    H1  912   6.048   3.851   2.486  0.0172  0.9221 -0.1234
  302TIP3    H2  913   6.138   3.762   2.403  0.1785  0.3591  0.6448
  303TIP3   OH2  914   4.254   5.440   3.109 -0.3035 -0.1401  0.1428
  303TIP3    H1  915   4.164   5.416   3.130 -0.0818 -0.8322  0.3219
  303TIP3    H2  916   4.247   5.530   3.076 -0.6306  1.0964  3.2795
  304TIP3   OH2  917   2.068   0.088   2.189  0.1946 -0.6655  0.1098
  304TIP3    H1  918   2.043   0.058   2.102  2.8682  0.6580 -1.2566
  304TIP3    H2  919   2.067   0.184   2.182  2.0525 -0.5476  0.9724
  305TIP3   OH2  920   4.410   4.330   0.617 -0.2112  0.3569 -0.3666
  305TIP3    H1  921   4.408   4.416   0.576 -2.1625  0.2621 -0.5933
  305TIP3    H2  922   4.332   4.328   0.672  1.8488  0.1461  2.7653
  306TIP3   OH2  923   1.275   2.297   3.900  0.3548 -0.1230 -0.6243
  306TIP3    H1  924   1.312   2.301   3.988 -1.8339  0.5191  0.3345
  306TIP3    H2  925   1.264   2.203   3.884  1.9895 -0.3124 -0.8040
  307TIP3   OH2  926   3.201   0.087   3.114  0.4269  0.3183  0.1293
  307TIP3    H1  927   3.147   0.086   3.035  2.2732  0.8824 -1.2359
  307TIP3    H2  928   3.288   0.059   3.084  0.8667 -0.8528  2.2700
  308TIP3   OH2  929   0.623   1.420   2.990 -0.1047 -0.6258 -0.8548
  308TIP3    H1  930   0.539   1.460   3.010  0.6989  0.0619  1.3957
  308TIP3    H2  931   0.601   1.330   2.964 -1.4982 -0.6982  0.4576
  309TIP3   OH2  932   3.728   1.498   4.439 -0.1542 -0.0022 -0.2283
  309TIP3    H1  933   3.755   1.494   4.531 -1.8068  1.0352  0.3486
  309TIP3    H2  934   3.699   1.589   4.427 -0.7682 -0.3485 -1.5323
  310TIP3   OH2  935   2.360   1.445   0.886 -0.1590 -0.4699 -0.0746
  310TIP3    H1  936   2.393   1.478   0.802  0.9755 -2.1822 -0.3445
  310TIP3    H2  937   2.266   1.463   0.883 -0.2796 -1.1530 -2.0451
  311TIP3   OH2  938   5.090   2.747   0.427  0.1642  0.4945  0.2823
  311TIP3    H1  939   5.050   2.670   0.386 -0.8534  1.0483  0.1959
  311TIP3    H2  940   5.106   2.807   0.355  0.2380  0.6696  0.4431
  312TIP3   OH2  941   2.683   0.803   1.780  0.2287  0.7804 -0.1814
  312TIP3    H1  942   2.735   0.825   1.857 -0.5753 -0.9643  0.9151
  312TIP3    H2  943   2.747   0.768   1.718  0.5944 -0.0844  0.6458
  313TIP3   OH2  944   2.532   0.902   1.198 -0.3157 -0.0064  0.1281
  313TIP3    H1  945   2.627   0.903   1.206 -0.3658  1.2112  1.0970
  313TIP3    H2  946   2.514   0.864   1.113  1.0018 -1.1030  0.3166
  314TIP3   OH2  947   2.078   1.828   4.627  0.1953 -0.2434 -0.4206
  314TIP3    H1  948   2.041   1.740   4.626 -2.3796  0.7230 -0.3527
  314TIP3    H2  949   2.102   1.843   4.719 -1.8502 -0.0205  0.1436
  315TIP3   OH2  950   3.519   3.259   1.823 -0.1343  0.7960 -0.3178
  315TIP3    H1  951   3.605   3.255   1.781 -0.7400  1.5326 -1.6808
  315TIP3    H2  952   3.496   3.352   1.823 -1.0619  0.5797 -0.2326
  316TIP3   OH2  953   5.963   5.079   1.686 -0.4010  0.5219 -0.2083
  316TIP3    H1  954   5.898   5.147   1.670 -0.4553  0.9004  1.4187
  316TIP3    H2  955   6.047   5.119   1.663 -0.4275  1.2005  0.8103
  317TIP3   OH2  956   2.255   1.160   2.150 -0.2654  0.3833 -0.2366
  317TIP3    H1  957   2.206   1.241   2.136  0.3092  1.0196  1.2271
  317TIP3    H2  958   2.335   1.172   2.100 -0.8348  0.0762 -1.2343
  318TIP3   OH2  959   6.117   0.477   2.508 -0.8099 -0.1538 -0.6496
  318TIP3    H1  960   6.100   0.525   2.589 -1.4363 -1.9784  0.3621
  318TIP3    H2  961   6.032   0.438   2.485 -0.2473 -1.0861 -1.2066
  319TIP3   OH2  962   6.274   1.885   3.634 -0.4937  0.1777  0.7411
  319TIP3    H1  963   6.291   1.859   3.724 -0.8608  0.7443  0.9737
  319TIP3    H2  964   6.187   1.924   3.635 -0.3971  0.4252  0.1927
  320TIP3   OH2  965   1.149   3.205   5.075 -0.2569  0.2419 -0.1426
  320TIP3    H1  966   1.067   3.246   5.103  0.4637  2.2173 -0.7702
  320TIP3    H2  967   1.209   3.278   5.062  1.9501 -1.1930  1.2815
  321TIP3   OH2  968   0.406   1.980   1.869  0.3435 -0.1838 -0.1625
  321TIP3    H1  969   0.498   1.966   1.893  0.1246  1.3757  1.8921
  321TIP3    H2  970   0.365   1.895   1.886  1.0657 -0.3614  0.8592
  322TIP3   OH2  971   2.567   5.508   1.587 -0.6102 -0.0923  0.0321
  322TIP3    H1  972   2.519   5.505   1.670 -0.5865 -1.3214  0.0166
  322TIP3    H2  973   2.543   5.427   1.543  0.2014  0.0582 -0.7089
  323TIP3   OH2  974   3.237   4.745   3.807  0.2073 -0.5805 -0.2373
  323TIP3    H1  975   3.198   4.738   3.719 -1.3861 -0.0647  0.3923
  323TIP3    H2  976   3.204   4.668   3.854 -0.4601  0.1063  0.4472
  324TIP3   OH2  977   4.769   0.372   1.576  0.3981  0.6065  0.0882
  324TIP3    H1  978   4.693   0.316   1.562 -1.4412  2.8016  0.6115
  324TIP3    H2  979   4.829   0.319   1.629  0.5765 -2.1820 -2.6404
  325TIP3   OH2  980   3.005   2.926   1.327  0.5215  0.3446 -0.1235
  325TIP3    H1  981   3.009   2.961   1.416  1.0326  0.4023 -0.1670
  325TIP3    H2  982   3.095   2.898   1.309  0.3960  0.2448 -0.5841
  326TIP3   OH2  983   2.499   1.051   3.686 -1.0262 -0.3749 -0.2196
  326TIP3    H1  984   2.496   1.118   3.755 -1.2298  1.3904 -1.8737
  326TIP3    H2  985   2.417   1.062   3.638 -0.6915 -1.2841 -1.0218
  327TIP3   OH2  986   1.449   4.288   1.780  0.3042  0.0739  0.4062
  327TIP3    H1  987   1.411   4.376   1.786 -0.0870  0.0087 -0.8608
  327TIP3    H2  988   1.440   4.252   1.868 -0.4261  0.9439  0.7018
  328TIP3   OH2  989   0.099   2.265   2.033 -0.0116  0.1869 -0.3689
  328TIP3    H1  990   0.077   2.353   2.004 -0.5340  0.2668  0.2514
  328TIP3    H2  991   0.037   2.208   1.987  0.6357  0.0928 -1.1345
  329TIP3   OH2  992   6.154   2.022   4.406 -0.5484  0.5389  0.3826
  329TIP3    H1  993   6.123   2.091   4.347 -1.2859 -0.9389 -1.0653
  329TIP3    H2  994   6.077   1.967   4.421  0.2257 -0.4905  0.7103
  330TIP3   OH2  995   1.372   3.719   1.437  0.3691 -0.4805  0.0047
  330TIP3    H1  996   1.329   3.783   1.493 -1.5686 -2.2182  0.6399
  330TIP3    H2  997   1.409   3.770   1.366 -1.1544  1.3499  0.4450
  331TIP3   OH2  998   5.830   0.683   2.780 -0.1386 -0.6841 -0.2645
  331TIP3    H1  999   5.749   0.706   2.734  1.0649 -0.6763 -2.5381
  331TIP3    H2 1000   5.831   0.587   2.779  0.8066 -0.7093 -2.1515
  332TIP3   OH2 1001   4.178   3.714   1.995  0.0316  0.0348 -0.0164
  332TIP3    H1 1002   4.113   3.761   1.942  1.9412  1.8396 -0.9002
  332TIP3    H2 1003   4.234   3.670   1.931  0.8220  0.0942  0.6198
  333TIP3   OH2 1004   4.803   5.201   5.193 -0.0670  0.4247 -0.2418
  333TIP3    H1 1005   4.804   5.244   5.107 -0.3998  0.4783 -0.2208
  333TIP3    H2 1006   4.871   5.246   5.243  2.2779 -1.5842 -1.4077
  334TIP3   OH2 1007   2.552   1.567   3.831 -0.2581  0.0661 -0.7129
  334TIP3    H1 1008   2.639   1.528   3.825 -0.1146  0.4355 -1.0524
  334TIP3    H2 1009   2.545   1.597   3.922  0.8624  2.0681 -1.2267
  335TIP3   OH2 1010   3.081   0.678   0.143 -0.2420  0.0330  0.0259
  335TIP3    H1 1011   3.090   0.675   0.048 -1.9528  1.7818 -0.2530
  335TIP3    H2 1012   2.987   0.671   0.159 -0.0615  0.5999  1.5309
  336TIP3   OH2 1013   3.353   0.691   0.438  0.1489  0.7317 -0.4257
  336TIP3    H1 1014   3.409   0.666   0.364 -0.4127 -0.9934 -0.3061
  336TIP3    H2 1015   3.383   0.636   0.510 -1.5989 -0.1366 -0.3234
  337TIP3   OH2 1016   6.036   3.740   2.784 -0.1137 -0.3909 -0.4091
  337TIP3    H1 1017   6.075   3.706   2.865 -0.1891 -0.1600 -0.2754
  337TIP3    H2 1018   5.989   3.819   2.811  0.0324 -0.1989 -0.7151
  338TIP3   OH2 1019   1.849   5.962   4.369  0.1392 -0.0534  0.0285
  338TIP3    H1 1020   1.884   5.908   4.440 -0.7710 -1.1224 -0.3070
  338TIP3    H2 1021   1.790   5.904   4.322 -0.4346  1.0846 -0.6935
  339TIP3   OH2 1022   5.772   4.843   3.875 -0.0263  0.4491  0.3575
  339TIP3    H1 1023   5.864   4.869   3.872  0.5631 -1.5772 -1.4313
  339TIP3    H2 1024   5.729   4.900   3.811 -0.0436  1.3433  1.1363
  340TIP3   OH2 1025   5.876   4.037   0.282 -1.0119  0.3332  0.2893
  340TIP3    H1 1026   5.882   4.132   0.293  2.0287  0.4143 -1.0593
  340TIP3    H2 1027   5.921   4.001   0.359 -3.4294 -0.1634  1.5639
  341TIP3   OH2 1028   3.290   0.023   4.722  0.1606  0.3203 -0.5234
  341TIP3    H1 1029   3.202   0.047   4.749  0.7894  0.9547  1.0930
  341TIP3    H2 1030   3.333   0.106   4.700  0.4402  0.0426 -1.0732
  342TIP3   OH2 1031   5.464   0.196   4.173  0.4617  0.1525 -0.2662
  342TIP3    H1 1032   5.553   0.227   4.156  0.8184  0.8318  2.3800
  342TIP3    H2 1033   5.475   0.122   4.232 -0.6945 -1.0252 -1.4525
  343TIP3   OH2 1034   1.881   5.112   2.322 -0.2859 -0.4819 -0.0548
  343TIP3    H1 1035   1.863   5.060   2.401 -0.3543  1.3735  1.2351
  343TIP3    H2 1036   1.927   5.052   2.264 -1.9227 -2.4894  0.5851
  344TIP3   OH2 1037   1.588   1.514   0.434  1.0204 -0.2201 -0.1719
  344TIP3    H1 1038   1.615   1.504   0.526 -0.3662 -0.7071  0.2086
  344TIP3    H2 1039   1.496   1.488   0.434  0.7374  0.7092 -1.5334
  345TIP3   OH2 1040   4.612   3.117   4.012  0.0012 -0.1627 -0.0548
  345TIP3    H1 1041   4.647   3.038   3.971  0.8150 -0.2169  0.7157
  345TIP3    H2 1042   4.539   3.143   3.955 -0.5125 -1.6538 -0.1262
  346TIP3   OH2 1043   4.285   3.253   1.630  0.0396 -0.2315  0.4078
  346TIP3    H1 1044   4.338   3.253   1.710  0.8053  2.2822 -0.0289
  346TIP3    H2 1045   4.340   3.295   1.564 -1.3201 -0.4729 -0.9467
  347TIP3   OH2 1046   1.623   5.209   3.714  0.6332 -0.4704 -0.0444
  347TIP3    H1 1047   1.615   5.304   3.700  0.2172 -0.4570  0.2475
  347TIP3    H2 1048   1.650   5.201   3.806 -0.8386 -0.6681  0.3961
  348TIP3   OH2 1049   3.797   2.511   2.861 -0.0969 -0.4348 -0.1988
  348TIP3    H1 1050   3.748   2.435   2.891  0.1106 -0.2054  0.7367
  348TIP3    H2 1051   3.818   2.560   2.940  0.0154  0.4567 -0.7628
  349TIP3   OH2 1052   1.198   5.632   2.036 -0.1178 -0.0352  0.3476
  349TIP3    H1 1053   1.198   5.538   2.019  0.2317  0.2708 -1.5049
  349TIP3    H2 1054   1.289   5.659   2.022 -0.5630  0.8641 -1.0636
  350TIP3   OH2 1055   0.363   5.761   3.726 -0.3947  0.6708 -0.6567
  350TIP3    H1 1056   0.302   5.774   3.799  0.9064  0.0062  0.6064
  350TIP3    H2 1057   0.344   5.673   3.694  0.1751  0.2772  0.0462
  351TIP3   OH2 1058   4.694   5.329   3.478 -0.2608  0.0111  0.4053
  351TIP3    H1 1059   4.623   5.337   3.542 -0.6952  0.5920 -0.1495
  351TIP3    H2 1060   4.710   5.418   3.448 -0.6678 -0.3497 -0.9562
  352TIP3   OH2 1061   1.847   0.990   3.676 -0.4598  0.6507  0.6401
  352TIP3    H1 1062   1.790   1.002   3.600 -1.7808  0.6691  1.5945
  352TIP3    H2 1063   1.891   1.074   3.688  1.3102  0.0678 -1.2731
  353TIP3   OH2 1064   6.175   0.125   1.288 -0.2100 -0.1253 -0.2553
  353TIP3    H1 1065   6.216   0.109   1.373  1.6704  0.1974 -1.0487
  353TIP3    H2 1066   6.180   0.220   1.276 -0.7262 -0.1381 -0.6132
  354TIP3   OH2 1067   4.239   0.672   0.454 -0.1102 -0.2860  0.6696
  354TIP3    H1 1068   4.203   0.739   0.512 -0.7927 -0.1260  0.0797
  354TIP3    H2 1069   4.257   0.718   0.372 -2.6943 -1.1928 -0.5314
  355TIP3   OH2 1070   1.971   1.838   2.932  0.4500 -0.2230 -0.4947
  355TIP3    H1 1071   1.973   1.767   2.996  0.5203  0.5889  0.4297
  355TIP3    H2 1072   1.879   1.864   2.927  0.4495 -0.2597 -0.7078
  356TIP3   OH2 1073   2.476   5.256   1.509  0.2810 -0.2950  0.1427
  356TIP3    H1 1074   2.469   5.167   1.542 -0.4839 -0.6750 -0.9769
  356TIP3    H2 1075   2.451   5.250   1.417  0.2539  1.0675  0.0306
  357TIP3   OH2 1076   4.381   1.874   3.800  0.5209  0.7688 -0.1989
  357TIP3    H1 1077   4.466   1.852   3.838  0.2280 -0.4771 -0.2405
  357TIP3    H2 1078   4.318   1.843   3.865  0.0768  3.5831  0.8721
  358TIP3   OH2 1079   5.728   0.807   3.223 -0.1776  0.0676  0.1670
  358TIP3    H1 1080   5.803   0.815   3.281 -0.7278 -1.0032  1.0691
  358TIP3    H2 1081   5.762   0.829   3.136  1.3083 -0.9692  0.4574
  359TIP3   OH2 1082   3.223   3.070   1.524 -0.0319 -0.4301  0.1491
  359TIP3    H1 1083   3.298   3.016   1.496  0.8414 -0.0634  1.6868
  359TIP3    H2 1084   3.181   3.019   1.593 -0.2023  0.1109  0.4480
  360TIP3   OH2 1085   1.447   0.532   4.488  0.7533  0.0379 -0.0229
  360TIP3    H1 1086   1.471   0.573   4.571 -2.8002  1.0400  0.6987
  360TIP3    H2 1087   1.386   0.594   4.448  0.5011 -1.5297 -2.2399
  361TIP3   OH2 1088   0.890   1.917   1.160 -0.7014  0.4676  0.6009
  361TIP3    H1 1089   0.824   1.986   1.153 -0.5431  0.4726 -1.0880
  361TIP3    H2 1090   0.850   1.841   1.117 -0.5513 -0.2785  1.7286
  362TIP3   OH2 1091   6.200   5.451   3.965  0.0072 -0.2810 -0.0730
  362TIP3    H1 1092   6.121   5.467   4.016 -0.5546 -2.0557 -0.3405
  362TIP3    H2 1093   6.171   5.400   3.890  1.5708 -2.0305  0.4418
  363TIP3   OH2 1094   0.265   5.447   3.151  0.0175  0.1548  0.0551
  363TIP3    H1 1095   0.189   5.499   3.178 -1.3133 -0.1894 -2.6705
  363TIP3    H2 1096   0.232   5.358   3.142  1.6425 -0.7363  2.0920
  364TIP3   OH2 1097   1.858   2.182   0.010  0.3766  0.9394  0.3707
  364TIP3    H1 1098   1.946   2.160   0.042  0.6951 -0.8431 -1.5218
  364TIP3    H2 1099   1.801   2.119   0.053  0.5286 -0.1308 -0.9470
  365TIP3   OH2 1100   4.763   5.544   0.812 -0.0059 -0.2888  0.5338
  365TIP3    H1 1101   4.744   5.450   0.817  0.7821 -0.6020 -1.3370
  365TIP3    H2 1102   4.813   5.563   0.892 -1.9371 -0.9709  1.9555
  366TIP3   OH2 1103   6.137   2.953   3.956 -0.0007 -0.0496 -0.8194
  366TIP3    H1 1104   6.068   2.977   4.017  0.1647  0.5389 -0.8577
  366TIP3    H2 1105   6.162   3.035   3.914  0.8257 -0.2359 -0.7007
  367TIP3   OH2 1106   1.243   2.428   1.685 -0.5979  0.1002  0.1467
  367TIP3    H1 1107   1.256   2.521   1.667 -1.0470  0.1619  0.1153
  367TIP3    H2 1108   1.330   2.390   1.681 -0.4792  0.4233 -0.3808
  368TIP3   OH2 1109   3.837   1.620   2.822 -0.3498  0.4977 -0.4973
  368TIP3    H1 1110   3.910   1.676   2.850 -0.0679 -0.1340  0.0362
  368TIP3    H2 1111   3.842   1.622   2.726  1.8860 -1.4534 -0.5214
  369TIP3   OH2 1112   2.010   4.130   2.077 -0.9219  0.4157 -0.1778
  369TIP3    H1 1113   2.063   4.068   2.027 -0.9188  0.5960 -0.3991
  369TIP3    H2 1114   1.994   4.202   2.017 -0.8485  0.6737  0.1091
  370TIP3   OH2 1115   6.098   0.943   2.890 -0.0721  0.4999  0.0660
  370TIP3    H1 1116   6.078   1.027   2.851 -1.0635  0.6450  0.8351
  370TIP3    H2 1117   6.194   0.942   2.898  0.0063  1.2069 -0.6647
  371TIP3   OH2 1118   3.765   5.454   1.566  0.1048  0.0379 -0.0572
  371TIP3    H1 1119   3.842   5.498   1.531  1.0352 -1.5217 -0.0646
  371TIP3    H2 1120   3.716   5.523   1.611  2.7444  0.6916  2.0777
  372TIP3   OH2 1121   6.178   0.820   4.672  0.3999 -0.2955 -0.7533
  372TIP3    H1 1122   6.199   0.912   4.659 -1.6152  0.1282 -1.4247
  372TIP3    H2 1123   6.136   0.817   4.758 -1.6042 -0.1139 -1.6494
  373TIP3   OH2 1124   3.748   5.407   2.478  0.0633  0.0071  0.7285
  373TIP3    H1 1125   3.677   5.461   2.513  1.2736  2.0456  0.2628
  373TIP3    H2 1126   3.712   5.368   2.398 -0.7137  0.4975  0.8277
  374TIP3   OH2 1127   2.649   4.366   0.750  0.0431  0.0378 -0.3500
  374TIP3    H1 1128   2.564   4.389   0.788  0.1265  1.1667 -0.8058
  374TIP3    H2 1129   2.628   4.334   0.662 -0.0012 -0.8068 -0.0349
  375TIP3   OH2 1130   0.536   1.874   3.248  0.4619 -0.2929 -0.0343
  375TIP3    H1 1131   0.579   1.797   3.285 -0.4700 -1.0957 -0.5895
  375TIP3    H2 1132   0.478   1.839   3.180 -1.1964  0.7298  0.7959
  376TIP3   OH2 1133   0.165   3.639   1.378  0.0431  0.4024  0.6679
  376TIP3    H1 1134   0.222   3.703   1.421  0.7667 -1.8704  3.4125
  376TIP3    H2 1135   0.119   3.596   1.451 -1.2653 -1.3862 -1.1204
  377TIP3   OH2 1136   0.192   4.836   4.142 -0.3127  0.1776  0.3952
  377TIP3    H1 1137   0.150   4.797   4.219  1.1475  1.1668  1.7463
  377TIP3    H2 1138   0.153   4.922   4.134 -0.1983  0.2161  0.2526
  378TIP3   OH2 1139   6.220   5.490   0.506  0.1566 -0.0607  0.0811
  378TIP3    H1 1140   6.284   5.487   0.577 -0.7021  1.2896  0.9678
  378TIP3    H2 1141   6.184   5.402   0.502 -0.7853  0.1800  2.3038
  379TIP3   OH2 1142   1.179   3.932   1.480  0.2784  0.7112 -0.5025
  379TIP3    H1 1143   1.190   3.975   1.565  3.2125  3.6942 -2.1606
  379TIP3    H2 1144   1.140   4.000   1.424  0.4405 -0.4496 -2.0755
  380TIP3   OH2 1145   5.775   2.052   1.579  0.4349  0.0253  0.0842
  380TIP3    H1 1146   5.804   1.964   1.601 -1.1802 -0.3337  0.9982
  380TIP3    H2 1147   5.847   2.109   1.604  1.2081 -0.9759  0.1655
  381TIP3   OH2 1148   4.166   3.612   4.920 -0.4332 -0.3310 -0.2961
  381TIP3    H1 1149   4.187   3.646   5.007  0.0812  3.1410 -1.6487
  381TIP3    H2 1150   4.109   3.678   4.881  0.2488 -1.2341 -3.0026
  382TIP3   OH2 1151   0.416   1.589   4.845  0.5591  0.1108  0.5034
  382TIP3    H1 1152   0.363   1.669   4.841  0.3016 -0.0326  1.0731
  382TIP3    H2 1153   0.499   1.614   4.803  0.2667  0.5049  0.1502
  383TIP3   OH2 1154   2.983   0.816   3.439 -0.3146 -0.7271 -0.0320
  383TIP3    H1 1155   3.040   0.749   3.478 -2.3057 -1.8718  1.0450
  383TIP3    H2 1156   2.914   0.830   3.504  0.2294  2.7657  0.0065
  384TIP3   OH2 1157   4.304   3.270   3.083 -0.2263  0.1478  0.1421
  384TIP3    H1 1158   4.232   3.273   3.021  0.7638  1.2296 -1.0033
  384TIP3    H2 1159   4.370   3.215   3.040 -1.0018 -2.4367  1.9734
  385TIP3   OH2 1160   0.485   0.588   4.862 -0.2894  0.6513  0.8213
  385TIP3    H1 1161   0.433   0.546   4.794  0.2951  1.3614 -0.0855
  385TIP3    H2 1162   0.548   0.642   4.815  2.4204 -1.4236  1.8019
  386TIP3   OH2 1163   2.896   2.924   1.585  0.2524  0.0241 -0.0002
  386TIP3    H1 1164   2.968   2.930   1.648  0.0755  0.2299  0.1870
  386TIP3    H2 1165   2.900   2.835   1.551  1.1169  0.2795 -0.6188
  387TIP3   OH2 1166   3.653   0.639   2.447  0.1590 -0.4662 -0.2634
  387TIP3    H1 1167   3.568   0.598   2.432  1.1819 -2.7244 -0.3552
  387TIP3    H2 1168   3.639   0.697   2.521 -0.8340 -3.1352  1.7998
  388TIP3   OH2 1169   3.401   3.262   4.914 -0.0980 -0.0945 -0.0949
  388TIP3    H1 1170   3.361   3.299   4.835  0.7967  0.7640 -0.1718
  388TIP3    H2 1171   3.328   3.254   4.976 -0.3468  1.9618 -0.0351
  389TIP3   OH2 1172   2.413   1.530   4.526  0.0978 -0.0827 -0.4015
  389TIP3    H1 1173   2.487   1.510   4.469  0.3546 -1.3917  0.3557
  389TIP3    H2 1174   2.391   1.621   4.505  1.5774  0.1698 -1.0131
  390TIP3   OH2 1175   2.204   5.982   0.116  0.0935 -0.2265  0.2446
  390TIP3    H1 1176   2.259   5.906   0.135  0.2112 -0.3249 -0.4676
  390TIP3    H2 1177   2.120   5.963   0.157  0.5295 -0.1495  1.2039
  391TIP3   OH2 1178   3.673   1.525   2.211  0.3289 -0.3363  1.0996
  391TIP3    H1 1179   3.646   1.606   2.253  0.8245  1.5081 -1.9041
  391TIP3    H2 1180   3.741   1.550   2.149 -3.1085 -1.8957 -3.9550
  392TIP3   OH2 1181   3.316   1.251   3.432 -0.0771  0.4636 -0.0589
  392TIP3    H1 1182   3.259   1.327   3.424  0.7790  1.1457  0.2335
  392TIP3    H2 1183   3.338   1.227   3.342 -1.1115 -0.0485 -0.1969
  393TIP3   OH2 1184   5.353   2.668   1.883  0.0679 -0.3249 -0.5174
  393TIP3    H1 1185   5.336   2.577   1.857 -2.3353 -0.2986  0.7623
  393TIP3    H2 1186   5.304   2.721   1.820 -1.0086 -0.0602  0.5107
  394TIP3   OH2 1187   5.925   0.791   2.383 -0.2334  0.2063 -0.0700
  394TIP3    H1 1188   5.837   0.756   2.396  0.3890 -0.7004  2.2689
  394TIP3    H2 1189   5.975   0.759   2.458  1.6524  2.1507 -0.3849
  395TIP3   OH2 1190   3.914   5.668   0.664 -0.1558  0.7040 -0.2004
  395TIP3    H1 1191   3.997   5.690   0.622 -0.1071  2.9930  0.9500
  395TIP3    H2 1192   3.859   5.746   0.651 -1.1912  0.2711  1.3008
  396TIP3   OH2 1193   4.379   1.577   4.970 -0.2499 -0.3205  0.0377
  396TIP3    H1 1194   4.392   1.621   4.885  0.3533  0.9425  0.7565
  396TIP3    H2 1195   4.462   1.590   5.016  0.1053 -2.6105  0.1389
  397TIP3   OH2 1196   4.997   0.046   3.668  0.1856  0.6130 -0.6997
  397TIP3    H1 1197   4.989   0.140   3.650 -1.9458  0.7652  0.6199
  397TIP3    H2 1198   4.951   0.035   3.751 -1.0848 -1.8526 -1.6478
  398TIP3   OH2 1199   1.964   2.669   2.460 -0.7087  0.0061  0.3824
  398TIP3    H1 1200   1.882   2.679   2.413  0.1927  0.0336 -1.2544
  398TIP3    H2 1201   1.986   2.757   2.490  0.3628  0.6941 -2.1276
  399TIP3   OH2 1202   0.039   3.271   5.097  0.5720  0.2312  0.6293
  399TIP3    H1 1203   0.133   3.289   5.100  0.4605  1.1099 -0.4273
  399TIP3    H2 1204   0.007   3.298   5.183  0.7127  3.6154 -0.2418
  400TIP3   OH2 1205   0.215   2.049   3.965 -0.2402  0.0401  0.8461
  400TIP3    H1 1206   0.257   2.129   3.934  0.0644  0.1506  1.5196
  400TIP3    H2 1207   0.287   1.996   4.000  0.0653 -1.9035 -2.3398
  401TIP3   OH2 1208   2.301   5.587   0.383 -0.2588  0.1489  0.1649
  401TIP3    H1 1209   2.320   5.506   0.336 -0.7392  0.7705 -1.1360
  401TIP3    H2 1210   2.247   5.559   0.457 -0.4506 -0.7228 -0.2877
  402TIP3   OH2 1211   6.098   2.321   2.061  0.4238 -0.2815  0.1539
  402TIP3    H1 1212   6.120   2.228   2.062  1.7400  0.0006  1.2662
  402TIP3    H2 1213   6.105   2.346   1.969  1.0499 -1.0786 -0.0287
  403TIP3   OH2 1214   1.787   5.380   2.317  0.0112  0.0097 -0.3607
  403TIP3    H1 1215   1.875   5.414   2.306  0.2298  0.3910  1.9937
  403TIP3    H2 1216   1.798   5.285   2.323  0.0956 -0.0451 -1.3698
  404TIP3   OH2 1217   5.282   5.896   2.177 -0.3218 -0.0725 -0.6042
  404TIP3    H1 1218   5.367   5.939   2.164  0.0113 -0.7405 -0.6837
  404TIP3    H2 1219   5.219   5.956   2.138  0.0667  0.6397 -0.1591
  405TIP3   OH2 1220   0.033   0.793   2.443  0.1227  0.0391  0.3685
  405TIP3    H1 1221   0.038   0.697   2.437 -0.5814 -0.0461  0.9156
  405TIP3    H2 1222  -0.009   0.808   2.528  0.2209  0.8351  0.2757
  406TIP3   OH2 1223   4.383   1.775   0.574 -0.1768 -0.8712 -0.1370
  406TIP3    H1 1224   4.385   1.707   0.507 -2.2287 -0.1077 -1.0509
  406TIP3    H2 1225   4.430   1.849   0.534 -0.1338 -0.8992 -0.1391
  407TIP3   OH2 1226   1.779   3.365   3.029 -0.4483  0.5510  0.2038
  407TIP3    H1 1227   1.821   3.397   3.109  1.0856 -1.4661  0.2642
  407TIP3    H2 1228   1.812   3.423   2.960  1.8909 -0.4934  0.3741
  408TIP3   OH2 1229   1.619   5.185   1.316  0.2646  0.3120 -0.1805
  408TIP3    H1 1230   1.637   5.271   1.279  2.0151 -0.1049 -0.4047
  408TIP3    H2 1231   1.603   5.129   1.239 -0.1317  0.2838 -0.0781
  409TIP3   OH2 1232   3.233   0.932   0.147 -0.2642  0.5088  0.4605
  409TIP3    H1 1233   3.250   0.937   0.241 -0.0204 -0.5996  0.4811
  409TIP3    H2 1234   3.180   0.853   0.136 -1.4539  1.3567 -0.1799
  410TIP3   OH2 1235   4.993   0.043   3.068  0.7089 -0.5671  0.3670
  410TIP3    H1 1236   4.942  -0.037   3.051  0.7244 -0.9837  2.0837
  410TIP3    H2 1237   4.945   0.088   3.137  1.4295  0.2378  0.3650
  411TIP3   OH2 1238   1.897   1.127   1.568  0.3825  0.4250  0.2203
  411TIP3    H1 1239   1.936   1.053   1.613  1.3503  1.1018  0.5215
  411TIP3    H2 1240   1.960   1.149   1.498  0.4027  1.3201  0.5033
  412TIP3   OH2 1241   3.780   3.577   2.199 -0.6812  0.1973 -0.2020
  412TIP3    H1 1242   3.729   3.500   2.177  0.9469 -0.5487 -1.6503
  412TIP3    H2 1243   3.717   3.649   2.198 -2.1074 -0.9962  0.5356
  413TIP3   OH2 1244   2.743   3.466   2.512 -0.0279 -0.0534  0.2642
  413TIP3    H1 1245   2.647   3.459   2.515  0.0687 -1.9333  0.2903
  413TIP3    H2 1246   2.760   3.560   2.511 -1.8604  0.3291  0.6990
  414TIP3   OH2 1247   3.977   1.856   4.449  0.5337 -0.5831  0.4376
  414TIP3    H1 1248   4.015   1.898   4.371  0.1617  0.5171  0.8297
  414TIP3    H2 1249   3.891   1.826   4.420  0.5576 -0.5274  0.3081
  415TIP3   OH2 1250   0.999   1.114   0.669  0.7936 -0.6060 -0.1446
  415TIP3    H1 1251   0.945   1.098   0.747 -0.0095 -1.7220 -0.8978
  415TIP3    H2 1252   1.084   1.077   0.691  0.3917 -1.4696 -0.0160
  416TIP3   OH2 1253   2.101   5.256   4.023  0.2992  0.0794 -0.5074
  416TIP3    H1 1254   2.183   5.302   4.011  0.0699  0.5059 -0.4517
  416TIP3    H2 1255   2.088   5.207   3.942  0.6762 -0.1093 -0.4579
  417TIP3   OH2 1256   5.220   3.238   3.246  0.0794  0.5654  0.2289
  417TIP3    H1 1257   5.299   3.278   3.282 -0.0388 -0.2664  1.4692
  417TIP3    H2 1258   5.210   3.278   3.159  1.1349  1.6240  0.5703
  418TIP3   OH2 1259   2.195   5.586   4.515  0.5851  0.6733  0.1457
  418TIP3    H1 1260   2.282   5.616   4.492  0.9321  0.8961  1.6323
  418TIP3    H2 1261   2.136   5.633   4.456  1.4545  0.5855 -0.8040
  419TIP3   OH2 1262   0.870   4.059   1.440  0.4572  0.1081 -0.5604
  419TIP3    H1 1263   0.815   4.136   1.422  1.7654  0.9146 -1.2257
  419TIP3    H2 1264   0.878   4.058   1.535 -1.2840 -0.4635 -0.3755
  420TIP3   OH2 1265   3.317   0.602   1.068  0.0496  0.0487 -1.0380
  420TIP3    H1 1266   3.388   0.554   1.026 -0.9164 -0.6113 -1.9435
  420TIP3    H2 1267   3.350   0.692   1.075  0.8388 -0.1774 -1.7392
  421TIP3   OH2 1268   3.673   5.281   4.589  0.4714 -0.0430  0.0536
  421TIP3    H1 1269   3.703   5.305   4.501 -1.1674 -1.5342 -1.0013
  421TIP3    H2 1270   3.622   5.356   4.619  0.2495  0.1273 -0.7146
  422TIP3   OH2 1271   0.216   4.250   2.309  0.9524  0.2792 -0.8470
  422TIP3    H1 1272   0.211   4.346   2.309 -1.8899  0.2101 -0.5236
  422TIP3    H2 1273   0.209   4.225   2.217  0.3919  0.3480 -0.8226
  423TIP3   OH2 1274   0.563   1.942   4.042 -0.2897  0.0737  0.2348
  423TIP3    H1 1275   0.537   1.998   4.115 -1.1429  0.5284 -0.3990
  423TIP3    H2 1276   0.489   1.883   4.029 -0.0477 -0.1645 -0.1012
  424TIP3   OH2 1277   0.523   0.162   4.650  0.3320 -0.0917 -0.0831
  424TIP3    H1 1278   0.440   0.178   4.604 -0.0227  1.8110  1.1053
  424TIP3    H2 1279   0.579   0.120   4.584 -1.4057 -1.0681 -1.0381
  425TIP3   OH2 1280   5.743   3.326   3.748  0.1056 -0.6646  0.0491
  425TIP3    H1 1281   5.834   3.351   3.765 -0.2596  0.5133  0.4101
  425TIP3    H2 1282   5.743   3.230   3.749  1.2395 -0.6735  0.5844
  426TIP3   OH2 1283   3.766   4.689   4.942  0.2626 -0.2892  0.2967
  426TIP3    H1 1284   3.858   4.715   4.945  0.4800 -0.5511 -2.1239
  426TIP3    H2 1285   3.718   4.772   4.942  0.4723 -0.1477  1.3635
  427TIP3   OH2 1286   5.640   5.753   2.932  0.6352 -0.3251 -0.2295
  427TIP3    H1 1287   5.709   5.806   2.971 -1.5480  1.1939  1.8420
  427TIP3    H2 1288   5.686   5.676   2.897  3.6780  1.8914 -1.5723
  428TIP3   OH2 1289   2.238   0.777   1.745 -0.0459  0.0222  0.1491
  428TIP3    H1 1290   2.309   0.713   1.745 -0.8499 -0.9437  1.9857
  428TIP3    H2 1291   2.280   0.860   1.721  1.3512 -0.8418 -0.5169
  429TIP3   OH2 1292   3.874   5.383   0.758  0.2482  0.0377  0.5118
  429TIP3    H1 1293   3.849   5.448   0.825 -1.7480 -0.7194  0.5791
  429TIP3    H2 1294   3.873   5.433   0.676 -0.4105  0.3010  0.6704
  430TIP3   OH2 1295   1.515   1.400   1.163 -0.5792 -0.2112 -0.5911
  430TIP3    H1 1296   1.594   1.445   1.192  0.3134 -1.8075 -0.4833
  430TIP3    H2 1297   1.444   1.461   1.185  0.5423  0.9666 -0.0959
  431TIP3   OH2 1298   0.113   5.108   4.393  0.1374  0.2524  0.4166
  431TIP3    H1 1299   0.064   5.150   4.323 -0.8949  0.2101  1.0911
  431TIP3    H2 1300   0.128   5.177   4.457  3.7530  1.1029 -1.1156
  432TIP3   OH2 1301   4.182   5.107   4.547  0.0612  0.1108  0.1044
  432TIP3    H1 1302   4.119   5.035   4.556 -0.0049  0.3334  1.7288
  432TIP3    H2 1303   4.128   5.186   4.544  0.0255  0.1141 -3.2371
  433TIP3   OH2 1304   1.832   2.114   2.888  0.4467 -0.3148  0.3848
  433TIP3    H1 1305   1.757   2.055   2.885  0.1947 -0.0212  0.7913
  433TIP3    H2 1306   1.883   2.092   2.810 -0.8156  0.4985 -0.7248
  434TIP3   OH2 1307   1.655   5.017   4.751 -0.0086  0.2705 -0.0519
  434TIP3    H1 1308   1.655   5.054   4.839 -1.3297  1.3911 -0.4859
  434TIP3    H2 1309   1.586   4.950   4.754  0.2256  0.0276 -0.1196
  435TIP3   OH2 1310  -0.004   0.362   0.962  0.7344  0.5124 -0.3489
  435TIP3    H1 1311   0.018   0.399   0.877  0.1067  0.7963 -0.3940
  435TIP3    H2 1312   0.060   0.401   1.022  1.2786  0.1878 -0.7060
  436TIP3   OH2 1313   5.631   0.242   0.795  0.2140  0.9856 -0.1351
  436TIP3    H1 1314   5.543   0.229   0.828  0.2466 -0.5864 -0.5586
  436TIP3    H2 1315   5.683   0.268   0.871 -0.1292 -0.4979  0.6403
  437TIP3   OH2 1316   5.607   3.931   1.829 -0.1655  0.1935  0.1005
  437TIP3    H1 1317   5.694   3.956   1.859 -0.2957  1.7522 -0.7301
  437TIP3    H2 1318   5.609   3.946   1.734 -1.0130 -0.7499 -0.0807
  438TIP3   OH2 1319   2.692   4.454   4.952  0.2497  0.1018 -0.5032
  438TIP3    H1 1320   2.728   4.497   5.030 -1.7487 -0.4223  0.7896
  438TIP3    H2 1321   2.672   4.525   4.892  1.4832  0.5466 -0.4079
  439TIP3   OH2 1322   2.200   1.889   1.398 -0.3872 -0.4946  0.0906
  439TIP3    H1 1323   2.163   1.818   1.450 -1.1459  0.0560  0.3271
  439TIP3    H2 1324   2.123   1.932   1.359 -0.0681  1.0751  1.1030
  440TIP3   OH2 1325   3.759   2.641   5.048 -0.0735  0.3260  0.1180
  440TIP3    H1 1326   3.751   2.733   5.023 -3.7192  0.5945  1.6348
  440TIP3    H2 1327   3.753   2.594   4.965  0.7857  1.3814 -0.5789
  441TIP3   OH2 1328   1.447   2.211   0.843 -0.2347 -0.2527 -0.0437
  441TIP3    H1 1329   1.422   2.232   0.753 -0.6222  0.1884  0.1606
  441TIP3    H2 1330   1.392   2.267   0.897 -0.2318 -0.7412  0.4823
  442TIP3   OH2 1331   2.825   5.264   0.454  0.0240 -0.7025 -0.0819
  442TIP3    H1 1332   2.761   5.202   0.420 -0.4511 -0.5130  0.4503
  442TIP3    H2 1333   2.899   5.257   0.394 -0.2897 -1.2949 -0.4113
  443TIP3   OH2 1334   5.785   1.437   1.705  0.0407  0.2570 -0.2875
  443TIP3    H1 1335   5.752   1.400   1.787  2.2078 -0.5348  0.2981
  443TIP3    H2 1336   5.708   1.472   1.662 -1.2357  0.3309  1.9013
  444TIP3   OH2 1337   4.756   1.052   0.197  0.0122 -0.6840 -0.1276
  444TIP3    H1 1338   4.723   1.027   0.284 -0.4210 -0.6894 -0.2927
  444TIP3    H2 1339   4.679   1.046   0.140  0.2721 -0.5632 -0.4880
  445TIP3   OH2 1340   2.491   3.569   1.803 -0.3637  0.0590 -0.3210
  445TIP3    H1 1341   2.548   3.556   1.878  0.1135 -2.6011 -1.0403
  445TIP3    H2 1342   2.404   3.542   1.834 -0.1780 -0.9798 -0.6586
  446TIP3   OH2 1343   1.414   1.923   0.080 -0.3192 -0.6897  0.3835
  446TIP3    H1 1344   1.435   1.839   0.121 -0.8715 -0.8702  0.2994
  446TIP3    H2 1345   1.367   1.972   0.147 -0.4100 -0.6246  0.2716
  447TIP3   OH2 1346   2.837   4.343   3.814  0.6082 -0.1553 -0.6469
  447TIP3    H1 1347   2.751   4.302   3.821 -0.4121  2.1224  1.7691
  447TIP3    H2 1348   2.822   4.419   3.757  1.1118  0.0439 -0.5164
  448TIP3   OH2 1349   6.274   1.863   1.841  0.0732  0.1759 -0.2570
  448TIP3    H1 1350   6.247   1.813   1.764  2.4903 -0.4787 -0.7784
  448TIP3    H2 1351   6.284   1.797   1.910 -1.4670  0.6737  0.4972
  449TIP3   OH2 1352   5.393   1.686   4.436  0.0445 -0.3150 -0.1880
  449TIP3    H1 1353   5.446   1.761   4.464  2.7445 -2.2311  0.1758
  449TIP3    H2 1354   5.316   1.689   4.493 -0.7755  2.9623 -1.1891
  450TIP3   OH2 1355   2.799   0.364   3.562  0.8671 -0.0846 -0.3318
  450TIP3    H1 1356   2.759   0.289   3.518  2.4653  0.0313 -2.0980
  450TIP3    H2 1357   2.864   0.325   3.621  0.1463 -0.1490  0.4421
  451TIP3   OH2 1358   4.121   0.826   0.084 -0.4000 -0.1383 -0.5750
  451TIP3    H1 1359   4.148   0.854  -0.004 -0.1066  0.2459 -0.3645
  451TIP3    H2 1360   4.169   0.745   0.098  0.5734  0.4716 -0.2564
  452TIP3   OH2 1361   5.683   2.909   3.114  0.6012 -0.1521 -0.3533
  452TIP3    H1 1362   5.600   2.932   3.072  1.7829  0.6229 -2.3808
  452TIP3    H2 1363   5.714   2.833   3.065  2.6169  1.5258 -1.8509
  453TIP3   OH2 1364   4.595   5.537   5.126 -0.1359  0.1377  0.6406
  453TIP3    H1 1365   4.659   5.471   5.101 -0.7515 -0.2591  0.0847
  453TIP3    H2 1366   4.627   5.618   5.086  1.1554  0.4248  2.1372
  454TIP3   OH2 1367   4.868   4.848   0.111 -0.3149 -0.3382 -0.1117
  454TIP3    H1 1368   4.866   4.784   0.182  1.7297 -1.8497 -1.2886
  454TIP3    H2 1369   4.776   4.855   0.082 -1.3652  1.0042  3.1100
  455TIP3   OH2 1370   5.180   3.401   1.018 -0.1285 -0.0514 -0.5689
  455TIP3    H1 1371   5.102   3.348   1.004  0.3075 -0.6315 -0.8654
  455TIP3    H2 1372   5.160   3.454   1.095 -0.6640 -0.4772 -0.4119
  456TIP3   OH2 1373   5.986   5.568   4.418  0.3817 -0.0280 -0.1702
  456TIP3    H1 1374   5.905   5.619   4.420  0.2596 -0.2026 -0.5264
  456TIP3    H2 1375   5.988   5.524   4.503  1.3951  1.9359  0.9029
  457TIP3   OH2 1376   1.238   0.194   3.480 -0.4439  0.3532 -0.4580
  457TIP3    H1 1377   1.250   0.117   3.535 -0.4182  1.2858  0.8915
  457TIP3    H2 1378   1.262   0.165   3.392  1.1523 -0.7433  0.2909
  458TIP3   OH2 1379   2.696   1.436   1.188  0.0949  0.5904 -0.1478
  458TIP3    H1 1380   2.716   1.358   1.240 -0.1512  1.4572  1.3233
  458TIP3    H2 1381   2.655   1.403   1.108 -3.1340 -0.7065  1.8360
  459TIP3   OH2 1382   1.519   2.847   3.898 -0.5543  0.3557  0.3622
  459TIP3    H1 1383   1.539   2.910   3.829  2.2684 -0.9899 -0.2035
  459TIP3    H2 1384   1.548   2.890   3.978  0.0687  0.3251  0.1570
  460TIP3   OH2 1385   3.687   0.298   3.846  0.6013  0.5175 -0.0990
  460TIP3    H1 1386   3.638   0.349   3.910  0.5770  0.1473  0.1798
  460TIP3    H2 1387   3.671   0.342   3.762 -0.0426  0.5133  0.0218
  461TIP3   OH2 1388   2.995   5.889   0.535  0.0397 -0.1318 -0.4705
  461TIP3    H1 1389   3.019   5.868   0.445 -0.7306  1.4874 -1.0898
  461TIP3    H2 1390   3.010   5.984   0.543 -2.4167  0.2829  0.2447
  462TIP3   OH2 1391   4.172   2.094   3.889  0.1880 -0.3980 -0.0064
  462TIP3    H1 1392   4.258   2.082   3.848  0.0671  0.3865 -0.5073
  462TIP3    H2 1393   4.160   2.189   3.891  0.1295 -0.4058  1.7395
  463TIP3   OH2 1394   4.310   5.897   0.500  0.5159 -0.0137  0.5924
  463TIP3    H1 1395   4.379   5.947   0.545 -1.2446  1.2430  2.0827
  463TIP3    H2 1396   4.356   5.848   0.432  2.5865  2.6966 -0.1742
  464TIP3   OH2 1397   5.204   1.148   2.058  0.4775  0.2132 -0.5735
  464TIP3    H1 1398   5.238   1.160   1.970 -1.2092 -0.7666 -1.4076
  464TIP3    H2 1399   5.111   1.169   2.051  0.1213 -0.7582  0.7562
  465TIP3   OH2 1400   0.900   5.682   0.411 -0.3056 -0.0364  0.8004
  465TIP3    H1 1401   0.816   5.689   0.366 -0.0209  0.6323  0.3552
  465TIP3    H2 1402   0.897   5.749   0.479 -0.8892 -1.2993  2.0735
  466TIP3   OH2 1403   3.461   1.618   1.512  0.7149  0.3101  0.3149
  466TIP3    H1 1404   3.556   1.605   1.504  0.8893  1.1289  0.9128
  466TIP3    H2 1405   3.426   1.587   1.428  1.6864  1.5487 -0.6003
  467TIP3   OH2 1406   1.229   2.995   1.315  0.7777  0.3167  0.1782
  467TIP3    H1 1407   1.247   2.937   1.240 -2.0960 -2.3406  1.3069
  467TIP3    H2 1408   1.157   3.051   1.285 -1.2253 -1.5832  1.1699
  468TIP3   OH2 1409   1.009   1.661   2.689  0.1430  0.1118 -0.1430
  468TIP3    H1 1410   0.982   1.674   2.780 -1.0421  1.4488 -0.6555
  468TIP3    H2 1411   0.940   1.606   2.651  0.4393 -0.1230 -0.3491
  469TIP3   OH2 1412   3.674   0.597   0.512 -0.3627 -0.2648  0.2791
  469TIP3    H1 1413   3.732   0.650   0.566 -1.0119 -0.6528  1.4042
  469TIP3    H2 1414   3.677   0.637   0.425  1.3287 -0.0956  0.3847
  470TIP3   OH2 1415   5.481   2.766   3.306 -0.4580  0.1863 -0.7229
  470TIP3    H1 1416   5.560   2.754   3.252 -0.4761 -1.4642 -0.4328
  470TIP3    H2 1417   5.431   2.686   3.293 -0.7868  0.0336  1.2137
  471TIP3   OH2 1418   2.196   4.537   2.189  0.6219 -0.1248 -0.2071
  471TIP3    H1 1419   2.221   4.623   2.158 -0.8047 -0.3099 -2.0801
  471TIP3    H2 1420   2.250   4.476   2.139  1.5969 -0.3660  1.0769
  472TIP3   OH2 1421   4.981   0.211   1.684  0.5352 -0.2489 -0.1557
  472TIP3    H1 1422   4.962   0.118   1.684 -1.9913  0.2091 -0.5466
  472TIP3    H2 1423   5.076   0.216   1.699  0.6920 -2.8317  0.1190
  473TIP3   OH2 1424   5.701   2.941   4.975 -0.0868 -0.2593 -0.5928
  473TIP3    H1 1425   5.680   3.021   4.927  0.3925  1.1819  1.4618
  473TIP3    H2 1426   5.784   2.911   4.937  0.6987  1.2923 -0.1951
  474TIP3   OH2 1427   3.743   3.953   2.232  0.5557  0.0752  0.4388
  474TIP3    H1 1428   3.702   3.964   2.318  0.0252  1.7917  0.0100
  474TIP3    H2 1429   3.693   3.883   2.190  0.4284 -0.3566  1.2951
  475TIP3   OH2 1430   3.673   2.029   1.167  0.2660 -0.1771 -0.2976
  475TIP3    H1 1431   3.584   2.024   1.202  0.0546 -2.9455 -1.0645
  475TIP3    H2 1432   3.665   2.008   1.074  1.5908  0.9003 -0.7043
  476TIP3   OH2 1433   3.898   5.334   3.746  0.0088  0.1213  0.1713
  476TIP3    H1 1434   3.943   5.255   3.716 -1.6939 -1.9250  2.5855
  476TIP3    H2 1435   3.806   5.319   3.728 -0.4267  1.2984  1.1936
  477TIP3   OH2 1436   3.783   4.002   4.617  0.1740 -0.0122 -0.6900
  477TIP3    H1 1437   3.721   3.981   4.548 -0.4968  2.3385 -0.9104
  477TIP3    H2 1438   3.857   4.043   4.572  0.7449 -0.4626 -0.1905
  478TIP3   OH2 1439   2.006   1.507   0.492  0.1470  0.2056 -0.5166
  478TIP3    H1 1440   1.927   1.490   0.441 -0.1136 -0.4893  0.0996
  478TIP3    H2 1441   2.049   1.422   0.498 -0.4325 -0.0032  1.3967
  479TIP3   OH2 1442   4.873   3.130   2.929  0.1912 -0.4855 -0.0001
  479TIP3    H1 1443   4.795   3.157   2.880 -0.2644  0.0535  0.9901
  479TIP3    H2 1444   4.903   3.050   2.885 -0.8989 -0.6811 -0.4148
  480TIP3   OH2 1445   3.149   4.422   1.678  0.4151  0.5826  0.1933
  480TIP3    H1 1446   3.190   4.455   1.598  0.2693 -1.7012 -0.9248
  480TIP3    H2 1447   3.055   4.438   1.664  0.5484  2.2245  0.9713
  481TIP3   OH2 1448   4.884   5.495   2.708  0.1070 -0.1912 -0.2062
  481TIP3    H1 1449   4.978   5.508   2.694  0.0462  2.0724  0.9573
  481TIP3    H2 1450   4.849   5.583   2.721 -2.6008 -0.7310 -2.7788
  482TIP3   OH2 1451   1.578   0.729   1.266  0.1103  0.3376 -0.1141
  482TIP3    H1 1452   1.587   0.765   1.354 -0.1249 -2.1656  1.0457
  482TIP3    H2 1453   1.559   0.636   1.281  1.6284 -0.5063 -2.8459
  483TIP3   OH2 1454   3.909   5.699   0.074  0.0725  0.0474 -0.1997
  483TIP3    H1 1455   3.818   5.728   0.063 -0.1559 -0.0641  1.1928
  483TIP3    H2 1456   3.961   5.771   0.038 -0.5409  1.1006  0.9157
  484TIP3   OH2 1457   1.638   2.417   2.371 -0.3795  0.0037 -0.1849
  484TIP3    H1 1458   1.707   2.355   2.348  2.0234  2.1526  0.8392
  484TIP3    H2 1459   1.592   2.376   2.445  2.5440  0.2366  1.9230
  485TIP3   OH2 1460   4.847   1.101   0.507 -0.5022  0.1268 -0.6469
  485TIP3    H1 1461   4.920   1.042   0.487 -0.3462  0.6922 -1.8050
  485TIP3    H2 1462   4.881   1.189   0.488 -1.4218  0.4113 -1.0229
  486TIP3   OH2 1463   1.506   0.114   5.054  0.1281 -0.1951  0.2082
  486TIP3    H1 1464   1.477   0.179   4.990  0.4068  0.2908  0.5761
  486TIP3    H2 1465   1.458   0.034   5.030 -1.9076  0.7084  1.0829
  487TIP3   OH2 1466   2.443   1.307   0.127 -0.1864  0.1549  0.2539
  487TIP3    H1 1467   2.499   1.235   0.156  0.1443  0.4787  0.4351
  487TIP3    H2 1468   2.470   1.324   0.037  2.1115  2.2415  1.2231
  488TIP3   OH2 1469   1.324   1.738   2.882  0.4532  0.6317  0.4068
  488TIP3    H1 1470   1.365   1.744   2.796  0.2272  0.1692  0.2594
  488TIP3    H2 1471   1.347   1.650   2.914 -3.0624 -1.0506 -1.0983
  489TIP3   OH2 1472   6.308   2.358   1.235  0.0925  0.1159  0.3367
  489TIP3    H1 1473   6.264   2.377   1.153  1.4040 -2.5976 -1.1140
  489TIP3    H2 1474   6.256   2.288   1.275  0.4334  0.2202  0.9932
  490TIP3   OH2 1475   3.334   0.864   3.427  0.4338 -0.0380 -0.1726
  490TIP3    H1 1476   3.248   0.856   3.386  0.1686  0.0666  0.3596
  490TIP3    H2 1477   3.324   0.936   3.490  0.8871 -0.0846 -0.0426
  491TIP3   OH2 1478   3.570   1.690   2.880  1.3248  0.4317 -0.0961
  491TIP3    H1 1479   3.635   1.622   2.862  1.3198  0.4573 -0.2143
  491TIP3    H2 1480   3.621   1.765   2.911  1.4847  0.9026 -1.4432
  492TIP3   OH2 1481   1.230   0.842   2.175 -0.1057 -0.0427 -0.2631
  492TIP3    H1 1482   1.177   0.793   2.237  0.7604  0.0551  0.5877
  492TIP3    H2 1483   1.181   0.840   2.093 -1.0821 -0.5157  0.3217
  493TIP3   OH2 1484   3.507   4.415   0.091 -0.2434  0.1796 -0.4285
  493TIP3    H1 1485   3.524   4.493   0.039  1.0082  0.5858  0.5328
  493TIP3    H2 1486   3.554   4.345   0.046  0.3518  0.4091 -0.1696
  494TIP3   OH2 1487   1.577   3.279   3.197 -0.0320  0.0839 -0.3407
  494TIP3    H1 1488   1.667   3.296   3.167  0.5365 -1.9816  0.0499
  494TIP3    H2 1489   1.522   3.322   3.131  1.2178  1.2504 -0.6800
  495TIP3   OH2 1490   3.360   3.713   0.827 -0.0740 -0.6994  0.0664
  495TIP3    H1 1491   3.316   3.656   0.890  1.0915  0.1928  1.7368
  495TIP3    H2 1492   3.293   3.777   0.801 -0.5267 -1.0064  0.4726
  496TIP3   OH2 1493   0.364   2.671   2.099 -0.3298  0.7240  0.0307
  496TIP3    H1 1494   0.391   2.638   2.013 -0.6654  0.6673 -0.0524
  496TIP3    H2 1495   0.396   2.606   2.161 -1.4369 -0.0213 -0.1682
  497TIP3   OH2 1496   4.164   1.532   5.150 -0.0035  0.1327  0.6461
  497TIP3    H1 1497   4.241   1.562   5.200  1.1242 -0.8442 -0.4526
  497TIP3    H2 1498   4.183   1.558   5.060 -2.1695  2.1689  0.6839
  498TIP3   OH2 1499   3.846   0.974   4.916  0.1738  0.2588  0.1876
  498TIP3    H1 1500   3.864   1.028   4.839  0.4631 -1.8521 -1.3090
  498TIP3    H2 1501   3.931   0.966   4.959 -0.0109  1.5408  0.8368
  499TIP3   OH2 1502   5.895   4.394   3.676  0.0169 -0.1496  0.0066
  499TIP3    H1 1503   5.800   4.389   3.667 -0.1711 -0.2624  1.7523
  499TIP3    H2 1504   5.929   4.343   3.602 -1.3096 -1.6421  0.3706
  500TIP3   OH2 1505   2.704   1.267   1.761  0.4387  0.2609 -0.0517
  500TIP3    H1 1506   2.709   1.194   1.699  1.6469  1.0216 -0.8867
  500TIP3    H2 1507   2.676   1.342   1.708 -3.0302  0.0210  1.1998
  501TIP3   OH2 1508   3.050   0.035   2.888  0.3049  0.3579  0.1291
  501TIP3    H1 1509   2.981   0.101   2.898  0.3460  0.2629  1.0892
  501TIP3    H2 1510   3.008  -0.036   2.839 -0.1152  0.5435  0.2168
  502TIP3   OH2 1511   4.626   1.766   1.912 -0.6159 -0.5381  0.0842
  502TIP3    H1 1512   4.682   1.688   1.904  2.8204  1.6609  0.7450
  502TIP3    H2 1513   4.623   1.784   2.006 -2.8864 -0.7904  0.1084
  503TIP3   OH2 1514   1.200   5.577   0.696 -0.1402  0.3738  0.0061
  503TIP3    H1 1515   1.166   5.551   0.610  1.1969 -0.8436 -0.2006
  503TIP3    H2 1516   1.204   5.496   0.746  0.9117  0.7463  0.5555
  504TIP3   OH2 1517   3.526   0.841   2.590  0.2664 -0.0929  0.0776
  504TIP3    H1 1518   3.453   0.786   2.619  0.0088  0.8160  1.2267
  504TIP3    H2 1519   3.483   0.914   2.544  0.3757  0.8403  1.4116
  505TIP3   OH2 1520   3.748   3.087   3.813 -0.2797  0.4054 -0.0830
  505TIP3    H1 1521   3.782   3.017   3.757 -1.4431 -2.1969  2.2131
  505TIP3    H2 1522   3.827   3.128   3.849  0.4470 -0.5323 -0.5499
  506TIP3   OH2 1523   1.183   4.678   3.053  0.3058  0.1611 -0.3821
  506TIP3    H1 1524   1.153   4.673   3.143 -0.7830  0.3099 -0.7257
  506TIP3    H2 1525   1.110   4.717   3.005  0.7025 -0.3149 -1.4023
  507TIP3   OH2 1526   1.877   4.846   4.819  0.4830 -0.2147  0.1759
  507TIP3    H1 1527   1.861   4.768   4.766 -0.1475  1.3845 -2.1437
  507TIP3    H2 1528   1.797   4.897   4.811  1.1725  1.0399  0.9454
  508TIP3   OH2 1529   2.748   0.533   1.173  0.5103 -0.4272 -0.8042
  508TIP3    H1 1530   2.789   0.579   1.100 -0.5163  1.9261 -0.0155
  508TIP3    H2 1531   2.790   0.571   1.251 -0.5605 -0.6283 -0.1086
  509TIP3   OH2 1532   2.596   4.014   5.120  0.2651 -0.0575  0.2470
  509TIP3    H1 1533   2.529   4.059   5.069  0.0616 -0.3616  0.2449
  509TIP3    H2 1534   2.635   3.951   5.059 -1.1994 -1.6986  0.9219
  510TIP3   OH2 1535   2.473   4.765   1.791  0.0015 -0.1564  0.4050
  510TIP3    H1 1536   2.537   4.738   1.725 -0.0032  0.1310  0.2789
  510TIP3    H2 1537   2.403   4.807   1.741  0.1230  0.3014  0.6102
  511TIP3   OH2 1538   6.243   1.438   3.709  0.4991 -0.0843  0.5268
  511TIP3    H1 1539   6.324   1.469   3.750  0.1859  1.1237  0.2859
  511TIP3    H2 1540   6.225   1.503   3.641 -0.7689 -0.2268  0.7050
  512TIP3   OH2 1541   1.039   4.077   2.590  0.1535  0.3461  0.0360
  512TIP3    H1 1542   1.053   4.171   2.601  0.8286  0.1850  0.6653
  512TIP3    H2 1543   0.997   4.049   2.671  1.0239 -0.0824  0.3591
  513TIP3   OH2 1544   5.205   2.370   2.923 -0.1420  0.4564  0.5992
  513TIP3    H1 1545   5.169   2.287   2.953  0.7268 -0.0171  0.3548
  513TIP3    H2 1546   5.281   2.346   2.870 -0.5508  1.3539 -0.4368
  514TIP3   OH2 1547   0.316   4.666   4.541  0.3696  0.2490  0.6953
  514TIP3    H1 1548   0.279   4.749   4.513  0.8018  0.0691 -0.4560
  514TIP3    H2 1549   0.402   4.689   4.577  0.8589  0.2212 -0.4213
  515TIP3   OH2 1550   5.967   0.669   1.304 -0.2398  0.2100  0.3533
  515TIP3    H1 1551   6.055   0.692   1.272 -1.0975  1.1539 -1.5190
  515TIP3    H2 1552   5.965   0.703   1.393  0.9676  1.1135  0.0795
  516TIP3   OH2 1553   2.932   2.013   4.795 -0.0879  0.1520 -0.0768
  516TIP3    H1 1554   2.964   2.103   4.801  0.4229 -0.0408  0.0608
  516TIP3    H2 1555   2.839   2.020   4.816  0.1250  0.5236  0.7732
  517TIP3   OH2 1556   2.967   2.481   3.822  0.8675 -0.0286  0.7151
  517TIP3    H1 1557   2.888   2.464   3.874 -0.3383 -1.0564 -1.3532
  517TIP3    H2 1558   2.950   2.566   3.782 -0.0436 -1.0246 -1.1203
  518TIP3   OH2 1559   3.507   2.540   5.066 -0.0905 -0.0070 -0.7529
  518TIP3    H1 1560   3.588   2.580   5.099 -0.0517 -0.3645 -0.4147
  518TIP3    H2 1561   3.474   2.603   5.002  0.1920  0.3768 -0.5260
  519TIP3   OH2 1562   3.776   2.349   0.283 -0.2193  0.2294  0.1270
  519TIP3    H1 1563   3.762   2.285   0.353 -1.4286  0.6948  0.3283
  519TIP3    H2 1564   3.806   2.296   0.208  0.6625 -0.3223  0.8547
  520TIP3   OH2 1565   0.388   0.866   2.397 -0.1907 -0.0353  0.4621
  520TIP3    H1 1566   0.475   0.832   2.420 -0.0855  1.2398  2.1812
  520TIP3    H2 1567   0.401   0.909   2.313  0.5384 -0.9517  0.0884
  521TIP3   OH2 1568   1.020   5.381   4.483  0.6732 -0.3940  0.1346
  521TIP3    H1 1569   0.965   5.449   4.444  0.1103 -0.2244  1.1848
  521TIP3    H2 1570   1.083   5.359   4.414 -1.8230 -1.9390 -1.8229
  522TIP3   OH2 1571   0.661   5.115   3.925 -0.2359  0.0410 -0.3871
  522TIP3    H1 1572   0.716   5.176   3.877  2.1555 -1.3752  0.3742
  522TIP3    H2 1573   0.641   5.045   3.863 -1.1970  0.5257 -0.6471
  523TIP3   OH2 1574   2.657   5.010   5.057  0.1760  0.0527  0.5180
  523TIP3    H1 1575   2.665   5.043   4.967  0.4175 -0.1687  0.4552
  523TIP3    H2 1576   2.730   5.050   5.104  0.6600 -0.6328  0.3630
  524TIP3   OH2 1577   5.014   2.926   1.390  0.2049  0.0887 -0.4179
  524TIP3    H1 1578   5.066   3.006   1.380  0.0978  0.2161  0.0019
  524TIP3    H2 1579   4.945   2.950   1.452  0.6550 -0.5618  0.3479
  525TIP3   OH2 1580   5.850   1.077   4.062 -0.1165 -0.1292 -0.0149
  525TIP3    H1 1581   5.935   1.034   4.064 -0.2208 -0.4921  3.8715
  525TIP3    H2 1582   5.787   1.006   4.078 -0.7591  0.6468  1.0193
  526TIP3   OH2 1583   1.250   5.398   2.733 -0.0488  0.1688  0.4844
  526TIP3    H1 1584   1.190   5.468   2.760 -1.9357 -1.0139 -0.4004
  526TIP3    H2 1585   1.328   5.444   2.701 -1.4299  1.9103 -0.6116
  527TIP3   OH2 1586   2.965   4.880   0.869 -0.1295 -0.8453  0.0674
  527TIP3    H1 1587   3.021   4.957   0.862 -1.6787  0.7212  3.0596
  527TIP3    H2 1588   2.921   4.874   0.785  0.2787  1.3457 -0.3582
  528TIP3   OH2 1589   3.347   2.419   3.487 -0.0071 -0.1390  0.4118
  528TIP3    H1 1590   3.356   2.512   3.504  0.6096  0.7682 -3.9124
  528TIP3    H2 1591   3.421   2.396   3.432 -2.6893 -1.9092 -2.8111
  529TIP3   OH2 1592   2.252   5.308   0.224  0.1523  0.6231  0.0216
  529TIP3    H1 1593   2.172   5.312   0.276 -0.1731  1.5387 -0.5272
  529TIP3    H2 1594   2.223   5.322   0.134  0.6970 -1.0394 -0.4363
  530TIP3   OH2 1595   0.581   2.711   4.755  0.0733 -0.3164 -0.0507
  530TIP3    H1 1596   0.565   2.783   4.817 -0.8985 -2.9667  3.0451
  530TIP3    H2 1597   0.673   2.723   4.729  0.9828  0.2936  2.9581
  531TIP3   OH2 1598   0.562   4.118   4.017 -0.1949 -0.5280  0.2734
  531TIP3    H1 1599   0.592   4.125   3.927  0.7490 -1.6605  0.4683
  531TIP3    H2 1600   0.474   4.081   4.011 -0.4021  0.0265 -0.1984
  532TIP3   OH2 1601   5.025   1.952   3.216 -0.6522 -0.5282  0.3320
  532TIP3    H1 1602   4.955   2.017   3.218 -0.0616  0.1144  0.9286
  532TIP3    H2 1603   5.102   1.999   3.251 -0.1444 -1.4634  0.5011
  533TIP3   OH2 1604   1.982   5.078   0.741  0.4337 -0.0425 -0.2046
  533TIP3    H1 1605   1.993   4.992   0.702 -0.7195  0.5600 -1.9999
  533TIP3    H2 1606   2.070   5.104   0.769  0.7237 -1.9512  0.8061
  534TIP3   OH2 1607   4.314   2.749   4.141  0.2992 -0.3418 -0.1776
  534TIP3    H1 1608   4.277   2.683   4.083 -0.6877  0.0996 -0.0679
  534TIP3    H2 1609   4.281   2.727   4.228  0.0418  0.2234 -0.1236
  535TIP3   OH2 1610   2.633   0.980   5.024 -0.3133 -0.2031 -0.5225
  535TIP3    H1 1611   2.652   0.920   4.952  0.3330 -0.0058 -0.5221
  535TIP3    H2 1612   2.713   0.983   5.075 -0.7360 -0.2584  0.1521
  536TIP3   OH2 1613   3.419   0.529   2.978  0.4330  0.3752  0.0246
  536TIP3    H1 1614   3.398   0.585   3.053  1.2126  0.0949  0.4679
  536TIP3    H2 1615   3.414   0.440   3.012 -0.9796  0.1453 -0.7250
  537TIP3   OH2 1616   3.072   4.703   4.590  0.1557 -0.5196 -0.1350
  537TIP3    H1 1617   3.063   4.775   4.528 -2.6615 -0.1303  0.5562
  537TIP3    H2 1618   3.146   4.727   4.645  1.3971  0.1367 -2.0081
  538TIP3   OH2 1619   0.209   4.576   1.644  0.1105  0.0990 -0.0201
  538TIP3    H1 1620   0.175   4.488   1.630  2.0697 -0.5708 -1.0410
  538TIP3    H2 1621   0.291   4.578   1.593  0.4224  2.3089  0.4644
  539TIP3   OH2 1622   1.454   4.865   1.286 -0.2057  0.0291 -0.3883
  539TIP3    H1 1623   1.492   4.843   1.201 -0.1322 -1.0897 -0.0793
  539TIP3    H2 1624   1.391   4.795   1.303 -1.1976  0.9638 -0.1273
  540TIP3   OH2 1625   5.170   0.617   0.481 -0.0497  0.2152 -0.2597
  540TIP3    H1 1626   5.196   0.572   0.401  2.4227 -0.9160  1.0827
  540TIP3    H2 1627   5.104   0.559   0.521  0.9269 -0.7543 -0.0192
  541TIP3   OH2 1628   5.566   5.578   4.862 -0.0147 -0.6260 -0.1034
  541TIP3    H1 1629   5.556   5.536   4.948  2.0680  0.0693  0.5536
  541TIP3    H2 1630   5.543   5.670   4.878 -0.1569 -0.6088 -0.4122
  542TIP3   OH2 1631   0.352   1.664   3.359  0.4767  0.0443  0.1870
  542TIP3    H1 1632   0.263   1.699   3.346  0.7893  1.4512  1.5283
  542TIP3    H2 1633   0.368   1.611   3.281 -0.7357  1.5009 -1.1345
  543TIP3   OH2 1634   3.470   5.000   2.148 -0.1971  0.5280  0.0104
  543TIP3    H1 1635   3.451   4.916   2.107  2.0421  0.6037 -1.3468
  543TIP3    H2 1636   3.560   4.992   2.179 -0.7898  1.5781  2.2036
  544TIP3   OH2 1637   5.902   2.203   1.011  0.5532  1.0468  0.0743
  544TIP3    H1 1638   5.861   2.174   1.092 -0.1490 -1.2564 -1.0131
  544TIP3    H2 1639   5.834   2.254   0.967  0.9645  2.3768  0.9209
  545TIP3   OH2 1640   4.662   1.759   2.187 -0.0013  0.2945 -0.0146
  545TIP3    H1 1641   4.606   1.765   2.265 -0.2503 -0.7296 -0.1018
  545TIP3    H2 1642   4.727   1.828   2.199 -1.2805  1.5390  0.0803
  546TIP3   OH2 1643   4.558   0.264   3.146 -0.1129  0.4324 -0.0211
  546TIP3    H1 1644   4.579   0.194   3.085 -0.0524  0.7449 -0.3622
  546TIP3    H2 1645   4.492   0.226   3.204  1.8425 -0.8118  1.5382
  547TIP3   OH2 1646   3.912   2.609   3.097  0.0478 -0.3498  0.1007
  547TIP3    H1 1647   3.969   2.673   3.138  0.0406  0.7055 -1.4348
  547TIP3    H2 1648   3.971   2.548   3.053  0.0698  0.9525 -1.7980
  548TIP3   OH2 1649   0.036   0.575   4.677  0.4230  0.1315 -0.0721
  548TIP3    H1 1650   0.007   0.616   4.758  0.2042 -0.8450  0.3694
  548TIP3    H2 1651  -0.008   0.624   4.608  2.5876  2.6253  0.2046
  549TIP3   OH2 1652   3.904   1.117   4.649  0.1248  0.3611 -0.0846
  549TIP3    H1 1653   3.920   1.028   4.616 -1.3992  0.2766 -0.7154
  549TIP3    H2 1654   3.977   1.134   4.709  0.8432 -1.0292 -0.5067
  550TIP3   OH2 1655   4.028   5.606   1.663  0.3499  0.0106 -0.1612
  550TIP3    H1 1656   4.079   5.628   1.740  1.1314 -1.8943 -0.0713
  550TIP3    H2 1657   4.083   5.631   1.589  0.5307 -0.1455 -0.0796
  551TIP3   OH2 1658   1.697   3.846   0.845  0.0360  0.1090 -0.1715
  551TIP3    H1 1659   1.721   3.771   0.899 -2.0125 -0.9542 -0.6281
  551TIP3    H2 1660   1.667   3.912   0.908 -1.9557 -0.9760  0.1034
  552TIP3   OH2 1661   2.824   1.964   1.449 -0.3221  0.4539 -0.7888
  552TIP3    H1 1662   2.901   1.948   1.503 -0.5755  0.5275 -0.3968
  552TIP3    H2 1663   2.848   2.038   1.394 -0.1961  0.6273 -0.5026
  553TIP3   OH2 1664   2.301   5.559   3.875 -0.1737 -0.1564 -0.3513
  553TIP3    H1 1665   2.226   5.528   3.823 -0.1957  1.4256 -1.3405
  553TIP3    H2 1666   2.288   5.654   3.880  1.8992  0.1785 -0.7740
  554TIP3   OH2 1667   1.196   1.433   3.348  0.4294 -0.2998  0.5304
  554TIP3    H1 1668   1.170   1.517   3.386 -1.1357 -1.0536  1.2228
  554TIP3    H2 1669   1.243   1.389   3.419  2.7005  0.5772 -0.3399
  555TIP3   OH2 1670   1.144   3.685   3.605 -0.0897  0.4999  0.1729
  555TIP3    H1 1671   1.071   3.628   3.583 -1.8017  2.1172  1.3988
  555TIP3    H2 1672   1.153   3.742   3.529 -1.1967  1.3408  0.6510
  556TIP3   OH2 1673   3.152   5.004   0.375 -0.5816 -0.4328 -0.1834
  556TIP3    H1 1674   3.209   4.981   0.448 -2.2025 -0.9866  0.9450
  556TIP3    H2 1675   3.200   4.976   0.297 -0.1589 -2.7326  0.8393
  557TIP3   OH2 1676   3.457   2.961   1.427  0.1992 -0.0031 -0.7541
  557TIP3    H1 1677   3.456   2.962   1.331 -0.0113 -0.9289 -0.7722
  557TIP3    H2 1678   3.489   2.873   1.449 -1.0604 -0.2798  0.0236
  558TIP3   OH2 1679   3.134   2.713   4.646 -0.3527 -0.1259  0.0102
  558TIP3    H1 1680   3.146   2.782   4.580 -0.2484 -0.4885 -0.3527
  558TIP3    H2 1681   3.086   2.644   4.601 -0.1273 -0.4525  0.2629
  559TIP3   OH2 1682   4.473   1.900   2.754  0.0329  0.5161  0.5550
  559TIP3    H1 1683   4.517   1.940   2.828 -1.5465 -2.1133  3.1297
  559TIP3    H2 1684   4.526   1.823   2.734 -1.0087 -0.2794  0.8001
  560TIP3   OH2 1685   2.165   5.894   2.562 -0.4332 -0.2480  0.0522
  560TIP3    H1 1686   2.077   5.911   2.529  0.1332 -0.5332 -1.7071
  560TIP3    H2 1687   2.192   5.813   2.519  1.4258  0.8731 -1.0431
  561TIP3   OH2 1688   5.819   0.248   1.718  0.1766  0.1352  0.2382
  561TIP3    H1 1689   5.829   0.337   1.684 -0.6268  0.7926  1.6282
  561TIP3    H2 1690   5.738   0.217   1.679 -0.6445  0.8186  1.3287
  562TIP3   OH2 1691   2.681   2.964   0.893 -0.0399 -0.2397 -0.3873
  562TIP3    H1 1692   2.750   3.029   0.877  0.9017 -1.6249 -2.4293
  562TIP3    H2 1693   2.718   2.907   0.961  0.5581 -0.5864 -0.9959
  563TIP3   OH2 1694   1.353   3.957   3.697  0.2783 -0.1693 -0.4133
  563TIP3    H1 1695   1.303   4.034   3.672 -0.0525 -0.5549 -0.9619
  563TIP3    H2 1696   1.352   3.901   3.619  1.0469 -0.4512 -0.2275
  564TIP3   OH2 1697   2.602   3.222   0.762  0.3597 -0.0392  0.0970
  564TIP3    H1 1698   2.562   3.145   0.801 -0.8391  0.1058 -0.7816
  564TIP3    H2 1699   2.600   3.289   0.830 -3.2102  0.7354 -0.5689
  565TIP3   OH2 1700   6.103   2.962   4.863 -0.2002 -0.1339 -0.5796
  565TIP3    H1 1701   6.039   2.919   4.807 -0.0839 -0.4311 -0.4875
  565TIP3    H2 1702   6.090   3.056   4.847 -0.2889 -0.2101 -0.9659
  566TIP3   OH2 1703   1.477   5.516   0.962 -0.9047  0.1375  0.0429
  566TIP3    H1 1704   1.427   5.451   0.913  0.4107 -2.3573  1.7463
  566TIP3    H2 1705   1.413   5.557   1.020 -1.6141 -0.2999 -0.4117
  567TIP3   OH2 1706   1.939   2.211   1.751 -0.5619 -0.3743  0.3773
  567TIP3    H1 1707   1.889   2.290   1.771  0.9381  1.4043 -2.2711
  567TIP3    H2 1708   1.995   2.198   1.828 -1.8524  0.2807  1.4597
  568TIP3   OH2 1709   3.611   5.321   1.245 -0.0840  0.2987 -0.3734
  568TIP3    H1 1710   3.523   5.284   1.238 -0.1334  0.1168  0.9643
  568TIP3    H2 1711   3.602   5.411   1.215 -0.6297  0.1653 -0.6250
  569TIP3   OH2 1712   2.177   1.542   4.212 -0.0523  0.3881 -0.4129
  569TIP3    H1 1713   2.242   1.594   4.164 -1.2216  0.8202 -1.5855
  569TIP3    H2 1714   2.106   1.604   4.230  0.0699  0.0808  1.3893
  570TIP3   OH2 1715   4.322   0.090   1.093 -0.7657  0.3085 -0.7305
  570TIP3    H1 1716   4.336   0.007   1.046  0.1996 -1.2481  2.0769
  570TIP3    H2 1717   4.229   0.089   1.115 -0.8812  0.2655 -1.2034
  571TIP3   OH2 1718   4.234   5.988   4.225 -0.1616 -0.1762  0.3327
  571TIP3    H1 1719   4.281   5.991   4.142 -1.8867  0.1274 -0.6775
  571TIP3    H2 1720   4.227   5.895   4.246  0.3972 -0.2462  0.2087
  572TIP3   OH2 1721   1.979   0.339   2.198  0.4440 -0.0619 -0.0282
  572TIP3    H1 1722   1.986   0.317   2.291  3.7337 -0.5061 -0.2514
  572TIP3    H2 1723   1.998   0.432   2.194  1.3268 -0.2490 -0.3200
  573TIP3   OH2 1724   1.601   5.715   0.840 -0.0038  0.0229  0.1673
  573TIP3    H1 1725   1.592   5.635   0.893 -0.5710 -2.1830 -2.9909
  573TIP3    H2 1726   1.556   5.783   0.891 -3.4914 -2.6705  1.0548
  574TIP3   OH2 1727   5.757   4.741   0.349  0.0771 -0.2126 -0.4977
  574TIP3    H1 1728   5.775   4.771   0.260  0.3612  1.1985 -0.0050
  574TIP3    H2 1729   5.698   4.667   0.339 -1.2534  0.9481 -1.8125
  575TIP3   OH2 1730   4.707   0.763   4.737  0.0799 -0.1868 -0.0294
  575TIP3    H1 1731   4.693   0.747   4.643  1.5487  0.7121 -0.4467
  575TIP3    H2 1732   4.801   0.783   4.743  0.0438 -0.4181  1.6739
  576TIP3   OH2 1733   4.858   5.986   0.985 -0.4807  0.2477 -0.6041
  576TIP3    H1 1734   4.782   5.977   1.042 -0.0790  1.4484  0.1505
  576TIP3    H2 1735   4.897   5.898   0.983 -1.1375 -0.0639  0.0581
  577TIP3   OH2 1736   2.849   1.072   4.196  1.1107 -0.6870 -0.4109
  577TIP3    H1 1737   2.857   0.976   4.198 -0.2492 -0.8632 -1.2593
  577TIP3    H2 1738   2.781   1.088   4.130 -0.4977  0.7277  1.4787
  578TIP3   OH2 1739   0.524   4.833   1.342 -0.3939 -0.6856 -0.5523
  578TIP3    H1 1740   0.618   4.817   1.351 -0.6547 -1.3674  1.6356
  578TIP3    H2 1741   0.513   4.926   1.361 -0.1946 -0.6755 -0.4802
  579TIP3   OH2 1742   0.172   3.247   1.359  0.0730  0.2490  0.1851
  579TIP3    H1 1743   0.099   3.185   1.363  1.1805 -1.0840  3.1691
  579TIP3    H2 1744   0.157   3.306   1.433  1.6267  0.3904  0.4151
  580TIP3   OH2 1745   0.725   5.094   2.578  0.5781  0.7249  0.0263
  580TIP3    H1 1746   0.725   5.000   2.597  0.0930  1.1486  2.3970
  580TIP3    H2 1747   0.818   5.116   2.569  0.7277  0.1442  0.0935
  581TIP3   OH2 1748   0.038   4.494   2.991 -0.1700 -0.1640 -0.2925
  581TIP3    H1 1749   0.011   4.462   3.077 -0.0484 -0.8854 -0.5188
  581TIP3    H2 1750   0.089   4.423   2.953 -1.9390 -0.6983 -1.7968
  582TIP3   OH2 1751   1.135   2.586   3.795  0.0716  0.1260  0.0855
  582TIP3    H1 1752   1.131   2.500   3.836  2.0131 -0.0672 -0.0163
  582TIP3    H2 1753   1.130   2.568   3.701 -0.1777  0.1757  0.0904
  583TIP3   OH2 1754   1.921   4.639   1.358 -0.1819  1.2047 -0.1082
  583TIP3    H1 1755   1.932   4.579   1.432 -1.4146 -0.7488 -1.4133
  583TIP3    H2 1756   1.837   4.681   1.373 -0.0678  1.3955 -0.0045
  584TIP3   OH2 1757   1.139   0.826   4.166  0.0614  0.2765  0.1300
  584TIP3    H1 1758   1.217   0.834   4.112  0.5079 -0.4792  0.6424
  584TIP3    H2 1759   1.117   0.916   4.191  1.3980  0.4124  0.8565
  585TIP3   OH2 1760   3.246   1.052   2.693 -0.2634  0.7008 -0.1733
  585TIP3    H1 1761   3.307   1.046   2.766 -1.0989  0.5064  0.5163
  585TIP3    H2 1762   3.301   1.041   2.615  0.1659 -2.9683  0.4916
  586TIP3   OH2 1763   3.178   0.256   0.350  0.1871  0.3143 -1.3577
  586TIP3    H1 1764   3.205   0.168   0.324 -1.0798 -0.7475  0.6492
  586TIP3    H2 1765   3.258   0.308   0.346  1.8912 -1.8606  1.1008
  587TIP3   OH2 1766   0.309   4.316   4.938  0.1137 -0.1115  0.4225
  587TIP3    H1 1767   0.278   4.405   4.958 -0.1174  0.2082 -1.2234
  587TIP3    H2 1768   0.404   4.323   4.934  0.0907  0.0965  0.2081
  588TIP3   OH2 1769   0.163   4.990   2.814  0.4215  0.3882 -0.0111
  588TIP3    H1 1770   0.175   4.900   2.844  1.0105  0.4429 -0.0734
  588TIP3    H2 1771   0.203   4.992   2.727  2.8527  1.3626  1.0522
  589TIP3   OH2 1772   4.346   2.608   4.834 -0.1441  0.4685  0.5236
  589TIP3    H1 1773   4.341   2.673   4.905 -2.7814 -0.2433  1.0926
  589TIP3    H2 1774   4.285   2.640   4.768  1.6507  0.6679 -1.1121
  590TIP3   OH2 1775   4.099   0.076   3.242  0.5873 -0.4158  0.3635
  590TIP3    H1 1776   4.181   0.123   3.254  0.5755 -0.3185  0.0752
  590TIP3    H2 1777   4.075   0.092   3.151 -0.1908  0.2749  0.6753
  591TIP3   OH2 1778   2.437   1.165   1.298  0.0878 -0.2683 -0.2178
  591TIP3    H1 1779   2.493   1.105   1.249  1.3697  0.9055 -0.2547
  591TIP3    H2 1780   2.385   1.209   1.231 -0.1606 -0.6481 -0.2760
  592TIP3   OH2 1781   5.420   5.037   3.925  0.1701 -0.1097  0.1954
  592TIP3    H1 1782   5.438   4.972   3.993 -0.8106  0.5736  1.1501
  592TIP3    H2 1783   5.389   4.987   3.850  0.1407 -0.7882  0.6560
  593TIP3   OH2 1784   3.109   0.980   5.136  0.5554  0.4633 -0.1567
  593TIP3    H1 1785   3.151   0.894   5.145 -0.8690 -0.2886 -0.4297
  593TIP3    H2 1786   3.094   0.990   5.042 -1.8321 -0.3020  0.0747
  594TIP3   OH2 1787   4.519   5.147   4.042 -0.1680  0.2070 -0.3048
  594TIP3    H1 1788   4.494   5.094   4.118  2.4821 -0.4167  0.2288
  594TIP3    H2 1789   4.504   5.089   3.967  4.2988 -2.3301  0.3532
  595TIP3   OH2 1790   4.380   0.339   5.130  0.3594  0.1038 -0.1062
  595TIP3    H1 1791   4.365   0.246   5.144  0.3637 -0.1766 -1.7578
  595TIP3    H2 1792   4.334   0.359   5.049  1.3125  1.2741 -0.3903
  596TIP3   OH2 1793   0.416   4.294   2.884  0.0959  0.3208 -0.0018
  596TIP3    H1 1794   0.323   4.276   2.896  0.4229 -1.5976  0.0978
  596TIP3    H2 1795   0.421   4.340   2.800 -0.8316 -1.2904 -1.0151
  597TIP3   OH2 1796   4.684   5.216   4.541  0.0278  0.5895 -0.0212
  597TIP3    H1 1797   4.720   5.132   4.513 -2.5056 -0.5824 -0.0831
  597TIP3    H2 1798   4.603   5.225   4.490 -0.0410  2.8243  0.3941
  598TIP3   OH2 1799   3.457   5.762   0.374  0.7170 -0.2370 -0.1199
  598TIP3    H1 1800   3.538   5.744   0.423  0.8884 -0.1745 -0.3769
  598TIP3    H2 1801   3.400   5.688   0.393  1.6873 -1.4654 -1.7618
  599TIP3   OH2 1802   3.348   4.143   4.300 -0.9556 -0.9703  0.1283
  599TIP3    H1 1803   3.279   4.203   4.270 -1.2757 -1.5004 -0.1976
  599TIP3    H2 1804   3.357   4.079   4.230 -0.3861 -1.1231  0.3331
  600TIP3   OH2 1805   1.803   3.770   2.153 -0.1976  0.3154 -0.4185
  600TIP3    H1 1806   1.831   3.798   2.066  0.5568 -1.4394 -0.7889
  600TIP3    H2 1807   1.875   3.716   2.185 -0.6308  0.6116  1.1432
  601TIP3   OH2 1808   5.754   0.465   0.181  0.1482 -0.2525 -0.1597
  601TIP3    H1 1809   5.771   0.559   0.186  0.2288 -0.3114  1.0626
  601TIP3    H2 1810   5.680   0.456   0.121 -0.1926  0.6410  0.1135
  602TIP3   OH2 1811   5.575   5.650   2.344 -0.2980  0.2720 -0.3088
  602TIP3    H1 1812   5.613   5.678   2.260  2.0010  2.7978  1.3758
  602TIP3    H2 1813   5.646   5.602   2.386 -1.0135  0.0305  0.6310
  603TIP3   OH2 1814   6.086   4.206   4.340 -0.3435  0.2779  0.3038
  603TIP3    H1 1815   6.175   4.193   4.374  0.9991  2.8601 -1.8290
  603TIP3    H2 1816   6.029   4.181   4.412  2.1771  0.7924  2.6545
  604TIP3   OH2 1817   4.548   2.587   2.087 -0.2811 -0.1824  0.5790
  604TIP3    H1 1818   4.565   2.675   2.052 -1.2108  0.1902  1.0119
  604TIP3    H2 1819   4.590   2.528   2.025  0.1861  0.5578  0.1661
  605TIP3   OH2 1820   5.860   3.986   1.949  0.1343 -0.0432  0.0367
  605TIP3    H1 1821   5.911   4.061   1.980 -0.3263  0.0991  0.4542
  605TIP3    H2 1822   5.855   3.928   2.025  0.0573 -0.2619 -0.1369
  606TIP3   OH2 1823   3.699   4.820   3.907 -0.3178  0.4174  0.1646
  606TIP3    H1 1824   3.679   4.893   3.848 -0.5973  0.9868  0.9528
  606TIP3    H2 1825   3.794   4.813   3.905 -0.2373  1.2735  0.6278
  607TIP3   OH2 1826   6.168   0.642   0.588  0.2758  0.3234 -0.2454
  607TIP3    H1 1827   6.192   0.550   0.573 -0.1210  0.5292 -2.5065
  607TIP3    H2 1828   6.142   0.645   0.680  0.1431 -1.8601 -0.1496
  608TIP3   OH2 1829   0.137   1.644   2.514 -0.4205 -0.5717 -0.6513
  608TIP3    H1 1830   0.081   1.589   2.569 -1.0588 -1.1647 -1.8656
  608TIP3    H2 1831   0.081   1.717   2.488  0.3760  0.6421  0.8197
  609TIP3   OH2 1832   1.823   2.815   3.476  0.4928  0.1884  0.7068
  609TIP3    H1 1833   1.740   2.783   3.440  1.4484 -0.8190 -0.7236
  609TIP3    H2 1834   1.804   2.833   3.568 -0.9858 -1.2546  0.7363
  610TIP3   OH2 1835   0.203   2.203   1.233 -0.0069 -0.1932 -0.5668
  610TIP3    H1 1836   0.285   2.163   1.261  0.1909  1.1376  0.8254
  610TIP3    H2 1837   0.136   2.141   1.261  0.4652 -1.0775 -1.3209
  611TIP3   OH2 1838   2.530   3.710   2.157  0.1245 -0.3026 -0.2361
  611TIP3    H1 1839   2.565   3.635   2.109 -1.1741 -0.0532 -1.6281
  611TIP3    H2 1840   2.441   3.684   2.181 -0.0128  0.4390  0.0972
  612TIP3   OH2 1841   2.882   1.271   0.273  0.1762  0.4913 -0.4280
  612TIP3    H1 1842   2.835   1.252   0.354 -2.1839  5.2111 -0.3256
  612TIP3    H2 1843   2.974   1.276   0.300 -0.5663  2.2376  2.1739
  613TIP3   OH2 1844   2.798   2.134   3.846 -0.0120  0.2657  0.0097
  613TIP3    H1 1845   2.853   2.095   3.914 -0.0553  0.3174  0.0736
  613TIP3    H2 1846   2.752   2.205   3.890 -2.0844 -1.3467  0.6665
  614TIP3   OH2 1847   4.002   4.361   0.105 -0.4851  0.1666 -0.1786
  614TIP3    H1 1848   4.078   4.408   0.071  0.5072 -1.3700 -0.1828
  614TIP3    H2 1849   3.956   4.425   0.159  0.1087  1.4932 -1.1940
  615TIP3   OH2 1850   1.177   5.756   2.536  0.1412  0.0789  0.4650
  615TIP3    H1 1851   1.215   5.673   2.505 -1.2028 -0.2668 -0.3391
  615TIP3    H2 1852   1.107   5.775   2.473 -1.5333  0.2940  2.3117
  616TIP3   OH2 1853   3.308   4.435   0.303 -0.2935 -0.5263 -0.3182
  616TIP3    H1 1854   3.331   4.414   0.213  0.9879  0.2297 -0.1903
  616TIP3    H2 1855   3.293   4.529   0.303 -1.0312 -0.6333  0.1201
  617TIP3   OH2 1856   2.075   3.089   2.783 -0.5828  0.0736 -0.0762
  617TIP3    H1 1857   2.055   3.033   2.858  0.6397  0.1444  0.3380
  617TIP3    H2 1858   2.017   3.164   2.794  1.1606  1.2342  2.1927
  618TIP3   OH2 1859   5.924   4.980   3.609  0.2324  0.2654  0.4575
  618TIP3    H1 1860   5.835   4.945   3.607  0.1821  0.4111 -0.1350
  618TIP3    H2 1861   5.955   4.963   3.698  0.5816 -2.1726 -0.0565
  619TIP3   OH2 1862   4.925   4.143   4.238  0.2218  0.6131 -0.9128
  619TIP3    H1 1863   4.850   4.138   4.179  2.2469  0.0133 -3.5941
  619TIP3    H2 1864   4.951   4.051   4.252 -0.5542  0.6809  1.5105
  620TIP3   OH2 1865   4.444   0.512   1.189 -0.3749  0.1169 -0.1914
  620TIP3    H1 1866   4.490   0.428   1.186 -0.8208 -0.1403  0.1070
  620TIP3    H2 1867   4.514   0.578   1.179 -0.0929 -0.2979 -1.0483
  621TIP3   OH2 1868   4.838   1.609   3.832 -0.0444  0.2949 -0.1719
  621TIP3    H1 1869   4.814   1.522   3.799 -3.1967  1.2087 -0.6724
  621TIP3    H2 1870   4.867   1.657   3.755  2.0607 -0.3322  0.1640
  622TIP3   OH2 1871   6.207   2.530   3.736 -0.0263  0.0836 -0.2179
  622TIP3    H1 1872   6.167   2.599   3.789  0.7027  0.2843  0.0724
  622TIP3    H2 1873   6.298   2.556   3.726  0.6636 -1.5755  1.1958
  623TIP3   OH2 1874   0.289   4.010   3.663  1.0595 -0.8090 -0.3998
  623TIP3    H1 1875   0.271   3.919   3.687 -0.4254 -1.0337 -2.1561
  623TIP3    H2 1876   0.283   4.058   3.746 -0.4745 -1.9889  0.2322
  624TIP3   OH2 1877   5.791   3.429   2.258 -0.7631  0.4449 -0.4722
  624TIP3    H1 1878   5.793   3.471   2.344 -1.9032  1.9221 -1.1262
  624TIP3    H2 1879   5.880   3.394   2.246  0.0008  1.9496  0.4840
  625TIP3   OH2 1880   5.904   1.616   1.033  0.3683  0.5170  0.0405
  625TIP3    H1 1881   5.924   1.646   1.122  0.5084  0.3129  0.0784
  625TIP3    H2 1882   5.983   1.638   0.983  1.5742 -2.1095  0.6148
  626TIP3   OH2 1883   2.210   4.504   1.136  0.6676  0.0727  0.0300
  626TIP3    H1 1884   2.197   4.410   1.122 -1.2910  0.4714 -1.1154
  626TIP3    H2 1885   2.149   4.528   1.205 -1.7234  1.1205 -2.2523
  627TIP3   OH2 1886   6.111   3.417   1.854 -0.4627 -0.1469 -0.5225
  627TIP3    H1 1887   6.158   3.341   1.818 -1.6646 -0.8035 -0.7316
  627TIP3    H2 1888   6.024   3.412   1.816 -0.1220  2.2756 -1.8657
  628TIP3   OH2 1889   5.042   4.838   2.591 -0.1781 -0.4850  0.0128
  628TIP3    H1 1890   5.030   4.825   2.685  1.3818 -1.6885  0.0837
  628TIP3    H2 1891   5.091   4.919   2.583  0.2753 -0.7313  0.2840
  629TIP3   OH2 1892   2.341   2.545   3.718 -0.0121 -0.0615 -0.5783
  629TIP3    H1 1893   2.394   2.475   3.679  0.8858 -0.0377  0.5424
  629TIP3    H2 1894   2.339   2.524   3.812  0.7278  1.6698 -0.1337
  630TIP3   OH2 1895   2.076   0.996   3.390 -0.1873 -0.0082 -0.0142
  630TIP3    H1 1896   2.074   0.901   3.378  0.1538  0.1036 -1.0006
  630TIP3    H2 1897   2.112   1.008   3.478  0.5145 -0.7755 -0.1909
  631TIP3   OH2 1898   0.164   2.646   1.777 -0.0951  0.3461  0.0392
  631TIP3    H1 1899   0.241   2.589   1.786 -0.0467  0.0974 -1.7046
  631TIP3    H2 1900   0.103   2.613   1.843  0.2032 -1.3159 -0.4714
  632TIP3   OH2 1901   4.832   2.491   4.900  0.2319 -0.0486  0.6671
  632TIP3    H1 1902   4.899   2.459   4.961  1.2561  0.4967 -0.1302
  632TIP3    H2 1903   4.882   2.521   4.824 -0.8268  1.4948  0.5358
  633TIP3   OH2 1904   3.376   1.001   4.606  0.0073 -0.1650 -0.4861
  633TIP3    H1 1905   3.317   1.047   4.548 -0.1912  0.1273 -0.0576
  633TIP3    H2 1906   3.372   0.909   4.578 -2.3729 -0.5717  0.9354
  634TIP3   OH2 1907   1.573   2.257  -0.015  0.1753 -0.4640  0.4448
  634TIP3    H1 1908   1.562   2.232   0.077  2.5480 -2.3894  0.3070
  634TIP3    H2 1909   1.615   2.342  -0.011  1.0019 -0.8847  1.2048
  635TIP3   OH2 1910   3.453   0.129   0.531  0.0914  0.2772  0.3195
  635TIP3    H1 1911   3.474   0.101   0.442  1.4031  0.3741  0.5752
  635TIP3    H2 1912   3.454   0.224   0.527  1.5288  0.3008  0.7110
  636TIP3   OH2 1913   4.328   0.572   2.855 -0.1763  0.0917  0.7376
  636TIP3    H1 1914   4.361   0.662   2.865 -0.1592  0.6314 -2.7929
  636TIP3    H2 1915   4.401   0.525   2.815 -1.2751 -0.5319 -0.6341
  637TIP3   OH2 1916   1.497   5.243   4.195 -0.7613 -0.7188 -0.0160
  637TIP3    H1 1917   1.516   5.210   4.283  0.6222 -0.7234 -0.2992
  637TIP3    H2 1918   1.447   5.323   4.211  0.3974 -0.1347  0.8226
  638TIP3   OH2 1919   0.103   5.412   2.618  0.0787  0.3656 -0.5120
  638TIP3    H1 1920   0.090   5.368   2.534 -1.3403 -0.3680  0.0421
  638TIP3    H2 1921   0.067   5.350   2.683  2.0582  0.4514  0.7636
  639TIP3   OH2 1922   0.897   2.192   0.294  0.4007  0.1822 -0.7539
  639TIP3    H1 1923   0.816   2.142   0.295  0.0660  0.7118 -0.9852
  639TIP3    H2 1924   0.887   2.254   0.222  0.8637  0.4829 -0.5687
  640TIP3   OH2 1925   2.866   2.612   4.585  0.0470  0.1059 -0.4145
  640TIP3    H1 1926   2.778   2.619   4.622  0.6239  0.0734  1.0179
  640TIP3    H2 1927   2.859   2.652   4.499 -0.6876  2.9562  0.8600
  641TIP3   OH2 1928   4.972   2.452   4.039 -0.3773  0.7756 -0.1861
  641TIP3    H1 1929   5.061   2.468   4.010 -0.3081 -0.5601 -0.8009
  641TIP3    H2 1930   4.965   2.356   4.043 -0.9859  0.8575  2.4017
  642TIP3   OH2 1931   0.254   0.733   3.814 -0.2506  0.5539  0.0522
  642TIP3    H1 1932   0.320   0.738   3.884 -1.5908 -1.2675  1.5200
  642TIP3    H2 1933   0.280   0.657   3.762 -1.7750 -0.9220  1.3505
  643TIP3   OH2 1934   3.469   0.333   2.223 -0.3480 -0.3472 -0.0071
  643TIP3    H1 1935   3.414   0.398   2.267  0.0459  0.3718 -0.5597
  643TIP3    H2 1936   3.418   0.307   2.147 -0.1680 -0.1083 -0.2082
  644TIP3   OH2 1937   3.799   3.704   1.223  0.6872 -0.5464 -0.5312
  644TIP3    H1 1938   3.769   3.791   1.196 -0.0745 -0.0563  1.6763
  644TIP3    H2 1939   3.724   3.666   1.269  1.2728 -2.0766 -0.7957
  645TIP3   OH2 1940   4.758   4.892   4.155 -0.3841  0.1834 -0.0429
  645TIP3    H1 1941   4.674   4.918   4.192 -0.7847  0.9576 -1.4113
  645TIP3    H2 1942   4.776   4.806   4.192 -0.6951  0.9388  1.9707
  646TIP3   OH2 1943   2.338   4.882   4.551  0.8682  0.1613  0.0270
  646TIP3    H1 1944   2.267   4.856   4.609  1.7560 -0.5699  0.8341
  646TIP3    H2 1945   2.392   4.941   4.604  1.1644  0.2606 -0.3817
  647TIP3   OH2 1946   6.268   1.714   0.319  0.3076 -0.0786 -0.0398
  647TIP3    H1 1947   6.312   1.737   0.237  0.0800 -1.2257 -0.5020
  647TIP3    H2 1948   6.216   1.637   0.297 -0.1058 -0.1313  1.0826
  648TIP3   OH2 1949   5.948   0.666   3.785 -0.4202 -0.5580 -0.2368
  648TIP3    H1 1950   5.878   0.706   3.836 -1.1787 -1.6765 -0.3674
  648TIP3    H2 1951   5.985   0.738   3.733  0.6736  0.7126  2.1637
  649TIP3   OH2 1952   0.914   4.829   4.140  0.1495 -0.0404  0.2334
  649TIP3    H1 1953   0.867   4.797   4.063  2.3779 -0.5295 -1.0210
  649TIP3    H2 1954   0.995   4.778   4.142  1.9200  2.5539  0.6586
  650TIP3   OH2 1955   2.384   1.873   0.894  0.0459 -0.0911  0.3498
  650TIP3    H1 1956   2.417   1.784   0.911  0.1215 -0.7093 -2.5397
  650TIP3    H2 1957   2.450   1.912   0.837 -0.6332  1.3811  0.5410
  651TIP3   OH2 1958   1.886   5.396   3.022  0.3361  0.1522  0.3624
  651TIP3    H1 1959   1.927   5.352   3.096 -1.1791 -1.8057  0.1054
  651TIP3    H2 1960   1.885   5.330   2.952 -0.4925  1.1534 -0.6142
  652TIP3   OH2 1961   5.681   0.865   3.654 -0.2723  0.1859  0.6179
  652TIP3    H1 1962   5.758   0.915   3.627 -1.5328  1.7547 -0.2198
  652TIP3    H2 1963   5.695   0.849   3.747  1.8695 -1.0937  0.1412
  653TIP3   OH2 1964   5.585   4.854   3.272  0.2835 -0.0158  0.2024
  653TIP3    H1 1965   5.580   4.799   3.195  0.0818 -1.7697  1.4174
  653TIP3    H2 1966   5.584   4.793   3.346  0.8822  1.5682  1.5933
  654TIP3   OH2 1967   2.736   5.780   3.037 -0.4824  0.2017  0.5529
  654TIP3    H1 1968   2.668   5.775   2.969 -0.8171  1.2932  0.7882
  654TIP3    H2 1969   2.803   5.718   3.007 -2.2844 -2.2441  1.1795
  655TIP3   OH2 1970   0.292   0.019   0.657  0.3881  0.0484  0.1782
  655TIP3    H1 1971   0.232   0.041   0.728  0.0903 -1.9444  0.6038
  655TIP3    H2 1972   0.347  -0.050   0.692  0.6508 -0.5466 -1.3192
  656TIP3   OH2 1973   2.847   4.435   2.216 -0.5068 -0.2810 -0.6619
  656TIP3    H1 1974   2.886   4.466   2.134 -1.3595 -0.3151 -1.0801
  656TIP3    H2 1975   2.887   4.350   2.231  2.0952  1.0179  0.6413
  657TIP3   OH2 1976   1.156   0.243   4.964  0.1393  0.1104  0.5931
  657TIP3    H1 1977   1.236   0.271   4.920  0.7769 -0.2230  1.5182
  657TIP3    H2 1978   1.111   0.189   4.900  0.5201  0.5188 -0.0307
  658TIP3   OH2 1979   1.643   2.865   4.396 -0.6875 -0.4733  0.4186
  658TIP3    H1 1980   1.587   2.924   4.446  2.0940  1.2472  1.7073
  658TIP3    H2 1981   1.619   2.778   4.426 -1.3644  0.3257  2.3356
  659TIP3   OH2 1982   5.698   2.565   2.366 -0.4774  0.7396  1.0898
  659TIP3    H1 1983   5.664   2.478   2.389 -0.1734  0.2803 -0.1350
  659TIP3    H2 1984   5.760   2.549   2.295 -1.3441  2.0844 -0.0269
  660TIP3   OH2 1985   5.954   2.897   0.507  0.7005  0.3046 -0.4965
  660TIP3    H1 1986   5.989   2.944   0.583 -0.4883 -0.3618  0.5009
  660TIP3    H2 1987   5.897   2.961   0.463 -0.8500 -0.1030  0.8125
  661TIP3   OH2 1988   2.620   2.613   1.801 -0.0925  0.0406  0.2648
  661TIP3    H1 1989   2.662   2.699   1.794 -0.0275  0.0282  0.4848
  661TIP3    H2 1990   2.527   2.631   1.800 -0.0804  0.0900  0.0290
  662TIP3   OH2 1991   5.475   1.500   1.885  0.2481 -0.2771  0.7159
  662TIP3    H1 1992   5.414   1.435   1.849 -0.5614 -0.6545  2.6653
  662TIP3    H2 1993   5.459   1.579   1.833 -1.9781 -0.3525  1.2018
  663TIP3   OH2 1994   5.672   1.150   1.732  0.2741 -0.0646 -0.9807
  663TIP3    H1 1995   5.630   1.190   1.656  2.4244 -0.4972 -2.5006
  663TIP3    H2 1996   5.766   1.156   1.713  1.0569  1.8427  2.7205
  664TIP3   OH2 1997   6.074   3.614   5.094 -0.1257  0.4163 -0.7079
  664TIP3    H1 1998   6.010   3.660   5.148  1.5151  1.0275  0.8509
  664TIP3    H2 1999   6.142   3.587   5.156 -0.1256 -2.5704 -1.8612
  665TIP3   OH2 2000   0.570   0.911   2.635 -0.1651 -0.1108 -0.1688
  665TIP3    H1 2001   0.632   0.970   2.677  2.2217 -2.4659 -0.1055
  665TIP3    H2 2002   0.516   0.878   2.706  1.7251 -1.6332  0.6356
  666TIP3   OH2 2003   1.401   0.919   4.040 -0.3059 -0.4518 -0.5793
  666TIP3    H1 2004   1.470   0.972   4.081 -0.2919 -0.8364 -0.0869
  666TIP3    H2 2005   1.413   0.932   3.946 -0.1134  0.1740 -0.4773
  667TIP3   OH2 2006   1.688   0.615   3.484 -0.3960  0.1067 -0.8208
  667TIP3    H1 2007   1.667   0.620   3.391  1.4316  1.6326 -1.2127
  667TIP3    H2 2008   1.734   0.532   3.494 -0.7307 -0.1315 -1.2265
  668TIP3   OH2 2009   0.998   2.439   2.278 -0.1227 -0.0531 -0.7216
  668TIP3    H1 2010   0.922   2.389   2.308  0.1131  0.7933  1.4422
  668TIP3    H2 2011   0.964   2.527   2.262  0.5187  0.5933  1.2016
  669TIP3   OH2 2012   4.087   1.631   0.859 -0.2302  0.2250 -0.4189
  669TIP3    H1 2013   4.129   1.673   0.934  0.3819  1.5467 -1.4569
  669TIP3    H2 2014   4.130   1.545   0.852  0.7828  0.6959 -0.1681
  670TIP3   OH2 2015   5.618   3.010   2.389 -0.4367 -0.8727  0.0553
  670TIP3    H1 2016   5.702   2.962   2.391  0.7437  1.1067  0.0897
  670TIP3    H2 2017   5.605   3.037   2.480  0.1572  0.8661 -0.3397
  671TIP3   OH2 2018   3.957   4.202   2.204 -0.5387  0.1120  0.1049
  671TIP3    H1 2019   4.016   4.152   2.260 -0.3781  0.6774  0.4357
  671TIP3    H2 2020   3.874   4.153   2.209  0.2071 -1.4112 -1.3701
  672TIP3   OH2 2021   4.209   0.799   0.988  0.3069  0.0956  0.0017
  672TIP3    H1 2022   4.192   0.766   1.076  0.4288 -2.4797 -0.8654
  672TIP3    H2 2023   4.144   0.868   0.976  0.7307  0.9988  2.3193
  673TIP3   OH2 2024   3.337   0.795   0.805  0.2620  0.3896  0.5594
  673TIP3    H1 2025   3.333   0.879   0.759  0.7722  1.4177  2.2712
  673TIP3    H2 2026   3.389   0.813   0.883  1.3653 -1.8279  0.4212
  674TIP3   OH2 2027   1.503   5.887   1.665 -0.2393 -1.1064  0.6186
  674TIP3    H1 2028   1.499   5.865   1.572  1.6906  1.4011 -0.1657
  674TIP3    H2 2029   1.481   5.980   1.668  1.7646 -0.6091  2.3803
  675TIP3   OH2 2030   3.724   3.857   4.218 -0.2323 -0.1994  0.0701
  675TIP3    H1 2031   3.736   3.862   4.123 -0.5142  3.6283  0.0853
  675TIP3    H2 2032   3.799   3.905   4.254 -1.2716  0.3001  1.6417
  676TIP3   OH2 2033   6.307   0.259   3.294  0.8645  0.2875 -0.6801
  676TIP3    H1 2034   6.254   0.266   3.215 -1.7003 -0.7062  0.8417
  676TIP3    H2 2035   6.346   0.346   3.305  0.2483  0.7947 -2.3184
  677TIP3   OH2 2036   4.267   0.475   3.099  0.1766  0.2631 -0.2261
  677TIP3    H1 2037   4.256   0.509   3.010  0.0361 -0.7319 -0.5982
  677TIP3    H2 2038   4.359   0.492   3.120  0.4780 -0.3842 -0.9562
  678TIP3   OH2 2039   0.892   4.582   2.557  0.1409 -0.1328  0.4737
  678TIP3    H1 2040   0.870   4.489   2.563  0.8412 -0.3435  0.0122
  678TIP3    H2 2041   0.969   4.592   2.613  0.5269  0.0037 -0.0725
  679TIP3   OH2 2042   3.019   2.551   3.362 -0.3038 -0.8200 -0.0921
  679TIP3    H1 2043   2.953   2.561   3.430  0.6739  1.0056  0.6617
  679TIP3    H2 2044   2.971   2.560   3.280 -1.2835 -1.6533  0.3722
  680TIP3   OH2 2045   0.598   4.545   0.349 -0.1148  0.3334 -0.2272
  680TIP3    H1 2046   0.674   4.593   0.383 -0.0210  0.3227 -0.4213
  680TIP3    H2 2047   0.633   4.458   0.328 -0.4283 -0.0519  0.7697
  681TIP3   OH2 2048   4.009   5.246   2.775  0.2136  0.2880  0.6949
  681TIP3    H1 2049   4.093   5.241   2.820  0.2316  0.6674  0.7036
  681TIP3    H2 2050   4.030   5.287   2.691 -0.1828  1.7130  1.2597
  682TIP3   OH2 2051   2.286   3.612   0.351  0.0854  0.2586  0.1836
  682TIP3    H1 2052   2.372   3.574   0.332  0.4202  0.7519  0.6891
  682TIP3    H2 2053   2.226   3.562   0.296  0.9547  1.2872 -1.8559
  683TIP3   OH2 2054   1.778   1.293   0.680 -0.8320  0.0471  0.2284
  683TIP3    H1 2055   1.755   1.383   0.705 -0.5969  0.1575  0.0562
  683TIP3    H2 2056   1.873   1.296   0.668 -0.9414 -0.0063 -0.6831
  684TIP3   OH2 2057   4.658   3.444   3.864 -0.2552 -0.5836 -0.1060
  684TIP3    H1 2058   4.746   3.406   3.859  1.0657  2.0411  1.1189
  684TIP3    H2 2059   4.628   3.446   3.773  0.1450 -3.0719 -0.3857
  685TIP3   OH2 2060   0.450   1.634   3.975  0.0611  0.5106 -0.0929
  685TIP3    H1 2061   0.411   1.552   4.006  0.4148 -0.1568 -1.3584
  685TIP3    H2 2062   0.478   1.679   4.055 -2.1605  0.4687  0.8076
  686TIP3   OH2 2063   0.513   2.012   0.714 -0.2193 -0.0526  0.4751
  686TIP3    H1 2064   0.477   2.085   0.765 -1.1743  0.4812 -0.9132
  686TIP3    H2 2065   0.461   1.936   0.741 -1.4229  0.4257 -0.4322
  687TIP3   OH2 2066   4.531   3.445   0.371 -0.6526 -0.2341  0.3702
  687TIP3    H1 2067   4.456   3.504   0.363  0.6523  1.3753 -0.5600
  687TIP3    H2 2068   4.585   3.484   0.440  0.6045  0.1395 -0.7797
  688TIP3   OH2 2069   2.482   2.162   0.850 -0.1035 -0.1021 -0.1787
  688TIP3    H1 2070   2.570   2.168   0.813  0.0027 -0.1402  0.0682
  688TIP3    H2 2071   2.496   2.143   0.943 -0.3574  0.7076  0.0312
  689TIP3   OH2 2072   1.630   5.909   0.293  0.1496  0.9971 -0.4434
  689TIP3    H1 2073   1.710   5.949   0.328 -0.1295  1.0355  0.1666
  689TIP3    H2 2074   1.632   5.819   0.327  0.8806  0.3983 -1.9796
  690TIP3   OH2 2075   4.134   4.069   4.821  0.2380  0.5393 -0.4178
  690TIP3    H1 2076   4.168   4.067   4.732 -0.1317  0.8231 -0.5688
  690TIP3    H2 2077   4.212   4.081   4.876  0.5751 -0.6080 -0.6250
  691TIP3   OH2 2078   1.868   5.786   0.645 -0.0389  0.6717  0.2123
  691TIP3    H1 2079   1.851   5.856   0.581 -1.3929  2.4941  2.4226
  691TIP3    H2 2080   1.953   5.809   0.683 -0.0610  0.6067  0.3004
  692TIP3   OH2 2081   5.262   0.152   0.205 -0.3857 -0.1812  0.1199
  692TIP3    H1 2082   5.239   0.209   0.132  2.2138 -0.6059 -1.1552
  692TIP3    H2 2083   5.247   0.064   0.172  1.5022 -0.4063 -0.2532
  693TIP3   OH2 2084   2.185   0.513   0.991  0.6744 -0.0265  0.3801
  693TIP3    H1 2085   2.231   0.447   0.939  1.2848  0.8464 -0.2078
  693TIP3    H2 2086   2.099   0.474   1.009  0.0832  0.0177 -2.0852
  694TIP3   OH2 2087   4.305   5.327   1.297  0.2850  0.4685  0.2809
  694TIP3    H1 2088   4.235   5.344   1.234  0.2843 -0.7917 -0.0821
  694TIP3    H2 2089   4.330   5.414   1.329 -2.9954  0.9468  2.1182
  695TIP3   OH2 2090   3.473   5.525   3.392 -0.0248  0.2560  0.5393
  695TIP3    H1 2091   3.520   5.445   3.367  1.5408  1.1761  0.4290
  695TIP3    H2 2092   3.381   5.498   3.395  0.4372 -1.4989  0.3105
  696TIP3   OH2 2093   4.652   2.461   2.617  0.8441 -0.1621  0.4330
  696TIP3    H1 2094   4.697   2.517   2.554  0.0228 -0.1839 -0.1969
  696TIP3    H2 2095   4.613   2.392   2.563 -2.1982  1.2816  0.5508
  697TIP3   OH2 2096   6.185   1.616   0.943  0.4015 -0.1606  0.4521
  697TIP3    H1 2097   6.263   1.569   0.972  0.7126  0.7245  1.1295
  697TIP3    H2 2098   6.219   1.694   0.899 -0.0004  1.7887  3.3251
  698TIP3   OH2 2099   3.696   5.349   3.354 -0.1000  0.0517  0.0727
  698TIP3    H1 2100   3.760   5.281   3.333 -0.2563  0.4595 -1.9284
  698TIP3    H2 2101   3.677   5.391   3.270  0.7227  3.2527  1.3195
  699TIP3   OH2 2102   0.342   5.667   4.722 -0.7845  0.2477 -1.1575
  699TIP3    H1 2103   0.398   5.618   4.782 -1.6685  1.5423  0.8101
  699TIP3    H2 2104   0.399   5.691   4.649  0.1964 -1.7959 -1.1350
  700TIP3   OH2 2105   3.921   0.308   1.320  0.1917  0.1235  0.6207
  700TIP3    H1 2106   3.993   0.370   1.333 -0.3883  0.7688  0.7652
  700TIP3    H2 2107   3.842   0.359   1.332 -0.3421 -0.1943 -1.2284
  701TIP3   OH2 2108   0.667   1.235   2.035  0.4768 -0.0103  0.4681
  701TIP3    H1 2109   0.595   1.291   2.064 -0.0510  0.7596 -2.0106
  701TIP3    H2 2110   0.732   1.295   2.000  1.1625 -0.8195  0.3143
  702TIP3   OH2 2111   1.496   4.482   0.869  0.0960 -0.5485 -0.2595
  702TIP3    H1 2112   1.576   4.467   0.919  0.7171 -0.9795 -1.3329
  702TIP3    H2 2113   1.499   4.416   0.800 -0.2278  0.6162 -1.4410
  703TIP3   OH2 2114   4.945   2.752   2.230 -0.0141  0.2536  0.3173
  703TIP3    H1 2115   5.029   2.729   2.189 -0.1297  1.6901 -0.7766
  703TIP3    H2 2116   4.905   2.814   2.170 -2.9662 -2.0997 -0.4120
  704TIP3   OH2 2117   3.959   3.362   1.803 -0.1203  0.6112  0.8491
  704TIP3    H1 2118   4.029   3.300   1.824 -1.0320 -0.0824  1.8832
  704TIP3    H2 2119   3.891   3.309   1.762  0.0801  1.3486 -0.5126
  705TIP3   OH2 2120   5.695   5.627   4.078  0.1041  0.2057 -0.7128
  705TIP3    H1 2121   5.613   5.599   4.039  0.4997  0.4003 -1.7134
  705TIP3    H2 2122   5.692   5.722   4.074 -0.1482  0.2596  0.3887
  706TIP3   OH2 2123   3.614   0.183   1.619  0.2877  0.0704 -0.3656
  706TIP3    H1 2124   3.679   0.135   1.569  0.3052 -2.3785  1.8047
  706TIP3    H2 2125   3.666   0.236   1.680  0.3165 -1.1196  0.6843
  707TIP3   OH2 2126   1.466   4.565   4.596 -0.3068 -0.1698  0.1060
  707TIP3    H1 2127   1.498   4.475   4.589  1.7471  0.3704  1.6283
  707TIP3    H2 2128   1.522   4.615   4.537 -0.5793  0.3017  0.2442
  708TIP3   OH2 2129   4.692   1.416   3.328  0.5493  0.4061  0.2983
  708TIP3    H1 2130   4.777   1.426   3.285  0.5475 -1.3322 -0.2026
  708TIP3    H2 2131   4.629   1.417   3.255  0.4010 -0.9537  0.3865
  709TIP3   OH2 2132   4.262   3.581   0.406 -0.3001 -0.1816  0.0703
  709TIP3    H1 2133   4.240   3.503   0.457  0.3471 -1.2898 -1.2965
  709TIP3    H2 2134   4.266   3.651   0.471  1.3043 -1.6704  1.6740
  710TIP3   OH2 2135   4.145   5.958   2.851 -0.0606 -0.0636 -0.6993
  710TIP3    H1 2136   4.073   6.013   2.881 -1.5620 -1.1572 -2.1404
  710TIP3    H2 2137   4.213   5.969   2.918 -1.6570  0.7983  0.8605
  711TIP3   OH2 2138   0.920   5.817   1.253 -0.0764 -0.6208  0.1782
  711TIP3    H1 2139   0.889   5.805   1.342 -1.7979  1.1286 -0.1274
  711TIP3    H2 2140   0.894   5.737   1.208 -0.8842 -0.7335  0.8200
  712TIP3   OH2 2141   1.512   3.331   0.456 -0.6214 -0.0223 -0.3870
  712TIP3    H1 2142   1.486   3.258   0.511 -1.4817 -0.6731 -1.6220
  712TIP3    H2 2143   1.441   3.341   0.393  0.1970  0.8950 -1.2018
  713TIP3   OH2 2144   5.190   3.444   0.747  0.7033  0.3017 -0.5264
  713TIP3    H1 2145   5.214   3.466   0.837 -1.5347  0.6939  0.0330
  713TIP3    H2 2146   5.193   3.348   0.745 -2.8980 -0.0261  1.2256
  714TIP3   OH2 2147   1.434   5.917   5.077 -0.2839 -0.2140 -0.4101
  714TIP3    H1 2148   1.344   5.903   5.108 -0.2290 -1.2004 -0.6779
  714TIP3    H2 2149   1.459   5.834   5.036  1.6528 -0.8812  1.8645
  715TIP3   OH2 2150   1.865   0.327   1.943 -0.2257 -0.0939  0.8066
  715TIP3    H1 2151   1.946   0.368   1.913 -1.2942  1.2327 -0.3554
  715TIP3    H2 2152   1.876   0.320   2.038  1.0126  0.5630  0.7304
  716TIP3   OH2 2153   1.609   2.648   4.161  0.5205  0.4854 -0.3548
  716TIP3    H1 2154   1.623   2.711   4.091  0.4767 -0.4638 -1.2393
  716TIP3    H2 2155   1.571   2.572   4.118  0.6655 -0.1895  0.6701
  717TIP3   OH2 2156   2.034   2.484   3.283  0.1793 -0.4595 -0.4072
  717TIP3    H1 2157   2.010   2.405   3.235 -1.2262 -0.7763  0.7640
  717TIP3    H2 2158   1.962   2.545   3.267  0.7986  0.2518 -0.5302
  718TIP3   OH2 2159   3.010   1.386   3.058 -0.0707 -0.2111 -0.0876
  718TIP3    H1 2160   3.065   1.316   3.092 -0.6152 -0.5824  0.0430
  718TIP3    H2 2161   3.065   1.464   3.064  0.6303 -0.6661 -0.4728
  719TIP3   OH2 2162   0.986   3.626   5.079 -0.3896  0.4488 -0.3014
  719TIP3    H1 2163   1.045   3.608   5.152 -0.2881  0.4567 -0.3815
  719TIP3    H2 2164   0.961   3.717   5.090 -0.4045  0.4389 -0.2537
  720TIP3   OH2 2165   1.430   2.686   4.796  0.3390 -0.6257  0.5428
  720TIP3    H1 2166   1.499   2.749   4.774 -1.0491  0.0181 -2.5257
  720TIP3    H2 2167   1.419   2.694   4.891  0.0392  4.0521  0.3374
  721TIP3   OH2 2168   2.585   0.656   4.321  0.5388  0.5793 -0.6529
  721TIP3    H1 2169   2.542   0.573   4.344  0.2769  0.5216 -1.3316
  721TIP3    H2 2170   2.514   0.720   4.317  0.8438  1.0296  0.6924
  722TIP3   OH2 2171   5.060   3.952   3.862 -0.4548  0.2604  0.0250
  722TIP3    H1 2172   4.991   3.888   3.876 -0.6906  0.4191 -0.4164
  722TIP3    H2 2173   5.084   3.942   3.770  1.7241 -1.4110  0.6796
  723TIP3   OH2 2174   5.721   0.633   0.442  0.2201 -0.0529  0.0065
  723TIP3    H1 2175   5.811   0.663   0.449  0.3536 -0.4860  0.1711
  723TIP3    H2 2176   5.728   0.538   0.432 -0.2269 -0.1349  0.4172
  724TIP3   OH2 2177   5.743   1.506   4.515 -0.5311 -0.0148  0.0388
  724TIP3    H1 2178   5.675   1.470   4.458 -1.8904  0.0520  1.5495
  724TIP3    H2 2179   5.757   1.595   4.483 -0.2442 -0.4353 -1.0511
  725TIP3   OH2 2180   3.473   5.381   0.564  0.0041 -0.4977 -0.2238
  725TIP3    H1 2181   3.510   5.459   0.605 -1.8413  0.3912 -0.1159
  725TIP3    H2 2182   3.461   5.405   0.472  0.0015 -0.8888 -0.3304
  726TIP3   OH2 2183   3.882   0.278   4.801 -0.4939  0.4889  0.1368
  726TIP3    H1 2184   3.882   0.268   4.706 -1.4287 -1.6797  0.2957
  726TIP3    H2 2185   3.809   0.224   4.831 -0.1989  1.0758  2.1026
  727TIP3   OH2 2186   4.263   2.784   3.446  0.1882  0.2601 -0.4198
  727TIP3    H1 2187   4.245   2.737   3.527 -1.6490 -0.2166 -1.0496
  727TIP3    H2 2188   4.263   2.716   3.379 -0.3698  0.8760 -1.0680
  728TIP3   OH2 2189   5.761   0.831   2.017  0.0305 -1.0478 -0.6758
  728TIP3    H1 2190   5.716   0.912   2.043  1.3886 -0.1676 -0.9999
  728TIP3    H2 2191   5.692   0.765   2.019 -1.8333  0.6118 -3.2219
  729TIP3   OH2 2192   0.483   4.079   0.984 -0.6713 -0.1412 -0.3033
  729TIP3    H1 2193   0.477   4.052   0.892  2.8208 -2.8311  0.0664
  729TIP3    H2 2194   0.439   4.010   1.032  0.8284 -0.7653  0.2098
  730TIP3   OH2 2195   4.684   1.564   0.079 -0.0369  0.0901 -0.3465
  730TIP3    H1 2196   4.767   1.610   0.070 -0.0014  0.2171  0.5076
  730TIP3    H2 2197   4.706   1.481   0.121  0.0956 -1.4239 -3.1954
  731TIP3   OH2 2198   4.720   0.225   2.601 -0.1420  0.0425  0.1826
  731TIP3    H1 2199   4.784   0.170   2.648 -1.3074  0.2417  2.1226
  731TIP3    H2 2200   4.672   0.163   2.546 -0.3007 -0.6296  1.0452
  732TIP3   OH2 2201   2.021   2.265   2.382  0.2152  0.0577 -0.3835
  732TIP3    H1 2202   1.946   2.268   2.322 -0.2639  1.4986  0.2548
  732TIP3    H2 2203   1.985   2.230   2.464  0.4133  0.0562 -0.2964
  733TIP3   OH2 2204   2.791   5.408   3.657 -0.2887 -0.1877  0.0810
  733TIP3    H1 2205   2.792   5.395   3.562 -0.1998 -1.6258  0.2586
  733TIP3    H2 2206   2.707   5.450   3.675 -0.5086 -0.3341 -0.5897
  734TIP3   OH2 2207   2.556   4.809   2.235 -0.5886 -0.2234 -0.1023
  734TIP3    H1 2208   2.630   4.773   2.187  0.0352 -1.5846  1.7814
  734TIP3    H2 2209   2.576   4.902   2.244  0.4693 -0.4188 -0.3656
  735TIP3   OH2 2210   3.089   1.035   3.787 -0.5400 -0.5570  0.2463
  735TIP3    H1 2211   3.176   1.046   3.748 -1.4162 -0.5004 -1.8244
  735TIP3    H2 2212   3.102   1.051   3.880  1.4738  0.4837 -0.1628
  736TIP3   OH2 2213   5.680   0.550   4.557 -0.5793  0.4351  0.1628
  736TIP3    H1 2214   5.616   0.581   4.621 -0.5610  0.3762  0.2091
  736TIP3    H2 2215   5.664   0.604   4.480 -1.0832  0.0249 -0.0302
  737TIP3   OH2 2216   5.598   3.502   0.318 -0.3607 -0.7209  0.2576
  737TIP3    H1 2217   5.625   3.585   0.280 -2.2621  0.9844  2.3755
  737TIP3    H2 2218   5.679   3.452   0.327  0.7156  0.5336 -1.7823
  738TIP3   OH2 2219   3.753   4.839   0.674  0.0362  1.2661 -0.1842
  738TIP3    H1 2220   3.683   4.790   0.717 -0.0448  2.6386  1.3506
  738TIP3    H2 2221   3.730   4.931   0.688  2.5270  1.7747  1.0781
  739TIP3   OH2 2222   6.068   2.537   4.521 -0.5704  0.0869 -0.1382
  739TIP3    H1 2223   6.079   2.523   4.427  0.5534 -1.5028  0.1772
  739TIP3    H2 2224   6.128   2.608   4.542 -0.2034 -0.1165 -0.4917
  740TIP3   OH2 2225   4.476   3.953   1.490  0.3260 -0.5314  0.7178
  740TIP3    H1 2226   4.545   3.966   1.425 -0.7632  0.3515 -0.3089
  740TIP3    H2 2227   4.463   4.041   1.528 -0.1084 -0.7271  1.0307
  741TIP3   OH2 2228   1.642   2.477   0.769 -0.1990 -0.6356  0.5136
  741TIP3    H1 2229   1.648   2.433   0.684 -0.6969 -0.7902  0.5538
  741TIP3    H2 2230   1.637   2.406   0.832 -1.2030 -0.5395  0.5644
  742TIP3   OH2 2231   5.523   5.938   2.385  0.0271  0.0605 -0.2956
  742TIP3    H1 2232   5.603   5.972   2.343  0.1937 -1.6456 -1.4656
  742TIP3    H2 2233   5.531   5.843   2.378 -1.8074 -0.1632  0.1639
  743TIP3   OH2 2234   3.402   2.084   1.240 -0.8989 -0.0779  0.3812
  743TIP3    H1 2235   3.387   2.151   1.307  1.1846  2.5371 -1.5277
  743TIP3    H2 2236   3.355   2.116   1.163  0.3927 -0.6244 -0.6774
  744TIP3   OH2 2237   0.981   3.067   1.196  0.2331 -0.0459  0.2302
  744TIP3    H1 2238   1.013   3.111   1.117 -1.7667  0.2298 -0.4856
  744TIP3    H2 2239   0.966   2.976   1.169 -0.3810  0.0299  0.2981
  745TIP3   OH2 2240   3.194  -0.023   3.929 -0.1381 -0.0272  0.4346
  745TIP3    H1 2241   3.178   0.049   3.869  0.2901 -1.2116 -1.1751
  745TIP3    H2 2242   3.284  -0.012   3.958 -0.8584  1.5152  2.2978
  746TIP3   OH2 2243   5.627   1.740   0.545 -0.3462 -0.3043 -0.2809
  746TIP3    H1 2244   5.575   1.817   0.520 -0.6886  0.0990  1.4722
  746TIP3    H2 2245   5.586   1.709   0.626  1.3186 -0.7797  0.4372
  747TIP3   OH2 2246   3.054   4.704   2.607  0.3941  0.0338  0.1214
  747TIP3    H1 2247   3.097   4.710   2.693  0.7117 -0.7800  0.0365
  747TIP3    H2 2248   3.024   4.613   2.603 -1.7811  0.6998  0.3645
  748TIP3   OH2 2249   0.697   4.239   4.591 -0.5676  0.0066  0.1225
  748TIP3    H1 2250   0.766   4.215   4.530 -1.2436  1.2841 -1.2141
  748TIP3    H2 2251   0.736   4.227   4.678  1.1817  0.2815 -0.5848
  749TIP3   OH2 2252   1.995   2.994   2.285 -0.8720 -0.2901  0.0107
  749TIP3    H1 2253   2.049   2.927   2.243  0.6124  1.5636 -1.1889
  749TIP3    H2 2254   2.041   3.015   2.365  0.9776  2.1125 -1.5568
  750TIP3   OH2 2255   5.050   5.382   0.879  0.0732  0.1143  0.6281
  750TIP3    H1 2256   4.975   5.342   0.924  0.6194 -0.6014  0.9224
  750TIP3    H2 2257   5.092   5.436   0.945  1.0383 -1.1574  1.0796
  751TIP3   OH2 2258   4.172   1.307   4.432  0.2234  0.3191  0.2988
  751TIP3    H1 2259   4.178   1.399   4.456 -0.8010  0.2919  0.7101
  751TIP3    H2 2260   4.091   1.300   4.382  0.4642 -0.3013 -0.0195
  752TIP3   OH2 2261   5.616   4.719   0.805  0.0465 -0.2871  0.2315
  752TIP3    H1 2262   5.691   4.699   0.861 -0.1813  1.6413  1.3042
  752TIP3    H2 2263   5.655   4.764   0.730  0.0067  0.4572  0.6505
  753TIP3   OH2 2264   5.850   4.171   3.881 -0.5629  0.4373  0.1614
  753TIP3    H1 2265   5.935   4.156   3.923 -0.2772  1.1970 -0.1195
  753TIP3    H2 2266   5.866   4.245   3.823 -1.8575  1.6975  1.3634
  754TIP3   OH2 2267   2.965   4.926   2.831  0.1960 -0.4197  0.0819
  754TIP3    H1 2268   2.910   4.857   2.868  1.7191 -2.5489 -1.3858
  754TIP3    H2 2269   2.920   4.951   2.750  0.9759 -1.6937 -0.7812
  755TIP3   OH2 2270   4.575   1.529   1.578 -0.0254  0.3898 -0.3415
  755TIP3    H1 2271   4.645   1.480   1.620  0.5196  0.3121 -1.3027
  755TIP3    H2 2272   4.585   1.509   1.485 -1.9249 -0.4268 -0.4221
  756TIP3   OH2 2273   5.892   4.714   2.471  0.0360  0.5162  0.3093
  756TIP3    H1 2274   5.964   4.732   2.533 -1.0174  0.8016  1.4827
  756TIP3    H2 2275   5.854   4.799   2.452  0.5382  0.4640 -1.0026
  757TIP3   OH2 2276   2.116   2.203   0.076 -0.7407 -0.1204 -0.2047
  757TIP3    H1 2277   2.177   2.202   0.150  0.9043 -1.4309 -1.4975
  757TIP3    H2 2278   2.149   2.272   0.019 -2.0653  0.9548  0.2663
  758TIP3   OH2 2279   4.861   3.839   1.453 -0.5984 -0.4433  0.1828
  758TIP3    H1 2280   4.876   3.781   1.378 -0.9896  1.0774 -1.1238
  758TIP3    H2 2281   4.943   3.836   1.503 -0.0770 -0.9577 -0.6822
  759TIP3   OH2 2282   5.368   4.521   2.908 -0.2610  0.4210  0.4922
  759TIP3    H1 2283   5.333   4.576   2.838 -2.4334  0.8327  1.8375
  759TIP3    H2 2284   5.313   4.443   2.908 -0.4151  0.5154  1.8653
  760TIP3   OH2 2285   4.589   5.342   2.847 -0.5322  0.1903 -0.0560
  760TIP3    H1 2286   4.560   5.327   2.937  1.9014 -2.7338  0.4036
  760TIP3    H2 2287   4.657   5.409   2.855  0.6134 -0.9887  0.5795
  761TIP3   OH2 2288   0.940   3.366   3.334 -0.1171 -0.1043 -0.5287
  761TIP3    H1 2289   0.889   3.312   3.273 -0.0466 -1.8105  0.8557
  761TIP3    H2 2290   1.026   3.324   3.338  0.2107  0.5980 -0.0467
  762TIP3   OH2 2291   5.482   0.343   0.260  0.0330  0.2342  0.3359
  762TIP3    H1 2292   5.518   0.380   0.341 -1.7750  0.3130  1.1589
  762TIP3    H2 2293   5.424   0.273   0.290 -0.0595 -0.2748 -0.9592
  763TIP3   OH2 2294   0.507   3.939   3.230  0.0792  0.0332 -0.1163
  763TIP3    H1 2295   0.413   3.937   3.248  0.3580  0.3669  1.5657
  763TIP3    H2 2296   0.547   3.965   3.313  1.6477  0.1857 -0.8716
  764TIP3   OH2 2297   5.654   4.252   3.485 -0.1128 -0.6476  0.2136
  764TIP3    H1 2298   5.698   4.336   3.471 -1.6489  0.2924  0.7087
  764TIP3    H2 2299   5.632   4.252   3.578 -2.0756 -0.5615 -0.2123
  765TIP3   OH2 2300   6.316   3.378   4.825  0.1064  0.0545  0.0183
  765TIP3    H1 2301   6.395   3.357   4.874  0.2290 -0.0459 -0.2253
  765TIP3    H2 2302   6.293   3.297   4.779 -0.1315  0.0854  0.0784
  766TIP3   OH2 2303   6.038   4.434   3.257  0.8371  0.5111  0.0644
  766TIP3    H1 2304   5.972   4.501   3.237 -0.2177 -0.5758 -0.1645
  766TIP3    H2 2305   6.070   4.406   3.172 -1.1339 -1.6179 -0.0520
  767TIP3   OH2 2306   6.141   5.909   4.716  0.3252  0.1476  0.0244
  767TIP3    H1 2307   6.112   5.871   4.799  1.0694  1.0405  0.7165
  767TIP3    H2 2308   6.061   5.939   4.674 -0.0192  0.1024  0.6347
  768TIP3   OH2 2309   0.619   0.054   0.368  0.0403 -0.2466  0.2246
  768TIP3    H1 2310   0.589  -0.036   0.377 -0.8982  0.0481  0.1668
  768TIP3    H2 2311   0.714   0.047   0.361 -0.0296 -1.2378  0.0901
  769TIP3   OH2 2312   5.004   5.131   2.526  0.3357  0.1476  0.0923
  769TIP3    H1 2313   4.922   5.089   2.500  0.6796  0.0180 -0.8407
  769TIP3    H2 2314   4.993   5.151   2.619 -0.6492 -0.0974  0.0378
  770TIP3   OH2 2315   2.345   3.685   0.800 -0.1791 -0.2999 -0.2674
  770TIP3    H1 2316   2.406   3.736   0.747  2.0535 -1.9535  0.5629
  770TIP3    H2 2317   2.285   3.647   0.736  1.5462 -1.0580 -1.5048
  771TIP3   OH2 2318   5.962   4.642   4.095  0.1592 -0.2859  0.0466
  771TIP3    H1 2319   5.871   4.614   4.088  0.3248 -0.8214 -0.0109
  771TIP3    H2 2320   5.961   4.709   4.164  0.0032 -1.6273  1.4098
  772TIP3   OH2 2321   3.560   1.454   2.570 -0.0737 -0.3654 -0.6844
  772TIP3    H1 2322   3.471   1.422   2.557 -0.8183  1.1313  0.4070
  772TIP3    H2 2323   3.592   1.405   2.646  0.0402 -0.8796 -1.0570
  773TIP3   OH2 2324   1.781   5.230   0.615  0.0155 -0.0280 -0.0532
  773TIP3    H1 2325   1.803   5.237   0.522  1.7124 -2.9002  0.0022
  773TIP3    H2 2326   1.842   5.164   0.649 -1.2647  0.1421  2.8826
  774TIP3   OH2 2327   2.425   5.779   0.557 -0.3228 -0.2858 -0.2803
  774TIP3    H1 2328   2.355   5.842   0.539 -0.2578 -0.9377 -3.5222
  774TIP3    H2 2329   2.382   5.694   0.552  0.3155 -0.6228 -0.0984
  775TIP3   OH2 2330   2.359   3.898   2.428  0.3997 -0.6594  0.2898
  775TIP3    H1 2331   2.434   3.838   2.429  0.1119 -1.0628  1.9734
  775TIP3    H2 2332   2.302   3.863   2.360  1.0197 -1.3018  0.0814
  776TIP3   OH2 2333   0.311   4.601   4.060  1.0180  0.5768  0.2317
  776TIP3    H1 2334   0.316   4.577   4.152 -1.2847  1.6035  0.6981
  776TIP3    H2 2335   0.301   4.697   4.061 -0.5144  0.4595 -0.9673
  777TIP3   OH2 2336   1.387   2.593   3.570 -0.5008  0.2628  0.0314
  777TIP3    H1 2337   1.388   2.498   3.562  3.0472  0.2329 -0.7935
  777TIP3    H2 2338   1.418   2.610   3.659 -0.2908  0.6500 -0.1130
  778TIP3   OH2 2339   0.501   1.604   3.574  0.4524 -0.0639 -0.3005
  778TIP3    H1 2340   0.449   1.636   3.500 -1.0064 -0.6087  0.4307
  778TIP3    H2 2341   0.563   1.543   3.536 -1.6521 -1.9448 -0.9040
  779TIP3   OH2 2342   4.402   3.540   3.033 -0.8181 -0.0295 -0.4356
  779TIP3    H1 2343   4.481   3.514   2.985 -0.7550 -0.3752 -0.1568
  779TIP3    H2 2344   4.371   3.458   3.073  0.8858  0.6906  2.6787
  780TIP3   OH2 2345   1.672   3.576   2.556 -0.7026 -0.2659 -0.0714
  780TIP3    H1 2346   1.716   3.616   2.481  0.8405 -0.4355  0.6951
  780TIP3    H2 2347   1.597   3.633   2.573 -0.3429  0.4896 -0.9580
  781TIP3   OH2 2348   0.366   0.644   5.128  0.3839 -0.2880 -0.1621
  781TIP3    H1 2349   0.418   0.633   5.048  1.3150  0.0883  0.3695
  781TIP3    H2 2350   0.308   0.717   5.109 -0.2833 -0.9989 -0.9244
  782TIP3   OH2 2351   0.069   1.701   0.564  0.2122 -0.2473 -0.1121
  782TIP3    H1 2352   0.019   1.706   0.482  0.0854 -0.4005 -0.0455
  782TIP3    H2 2353   0.106   1.789   0.575 -0.7879  0.1324  0.3082
  783TIP3   OH2 2354   5.201   4.813   3.977 -0.0355 -0.0754  0.5794
  783TIP3    H1 2355   5.187   4.838   3.886  1.1221  0.1418  0.4541
  783TIP3    H2 2356   5.141   4.740   3.991  1.1811 -1.4175 -0.9426
  784TIP3   OH2 2357   6.112   5.491   3.183  0.5508  0.0478  0.1394
  784TIP3    H1 2358   6.158   5.564   3.225 -1.1401  0.3433  1.6024
  784TIP3    H2 2359   6.174   5.418   3.189  1.3795  0.7694  0.7691
  785TIP3   OH2 2360   5.317   1.861   1.263 -0.2942  0.0882 -0.0569
  785TIP3    H1 2361   5.267   1.877   1.184 -0.3040 -0.5551 -0.1890
  785TIP3    H2 2362   5.272   1.788   1.306  0.8494 -0.9136 -0.4817
  786TIP3   OH2 2363   1.487   0.644   4.053  0.5585  0.3646  0.2483
  786TIP3    H1 2364   1.400   0.606   4.038 -0.0367  1.9065 -0.3753
  786TIP3    H2 2365   1.470   0.733   4.084  1.9207  0.5540  0.5417
  787TIP3   OH2 2366   6.081   4.010   4.845 -0.2908 -0.0403  0.0047
  787TIP3    H1 2367   6.129   3.945   4.794  1.5958  1.2101  0.1155
  787TIP3    H2 2368   6.001   3.964   4.873 -1.5054 -0.8024 -4.0576
  788TIP3   OH2 2369   3.111   3.400   3.479 -0.0695  0.2665  0.6473
  788TIP3    H1 2370   3.175   3.362   3.418  0.2548  2.0535 -0.2023
  788TIP3    H2 2371   3.091   3.329   3.539  0.1401 -1.3806 -1.1050
  789TIP3   OH2 2372   1.492   5.532   4.285  0.3216  0.0830  0.2988
  789TIP3    H1 2373   1.583   5.513   4.306 -0.1874  0.1402  2.9018
  789TIP3    H2 2374   1.495   5.583   4.204  2.5987  0.3698  0.5192
  790TIP3   OH2 2375   0.903   0.703   4.184  0.2186 -0.0585  0.2448
  790TIP3    H1 2376   0.894   0.781   4.239  1.6665  0.1255  0.2617
  790TIP3    H2 2377   0.992   0.709   4.149 -0.0557 -1.1197 -0.6647
  791TIP3   OH2 2378   5.833   1.073   0.666  0.3077  0.2367 -0.2038
  791TIP3    H1 2379   5.751   1.060   0.618  0.7972 -1.7209 -0.5773
  791TIP3    H2 2380   5.873   0.987   0.669  1.5712  0.8268  1.4487
  792TIP3   OH2 2381   4.718   0.804   0.435 -0.5389  0.7901  0.4435
  792TIP3    H1 2382   4.687   0.726   0.481  1.0711  0.0174  0.2854
  792TIP3    H2 2383   4.765   0.769   0.359  1.0068  1.8786  0.8754
  793TIP3   OH2 2384   4.553   2.783   3.273 -0.0976  0.0229 -0.4135
  793TIP3    H1 2385   4.599   2.865   3.254 -1.6377  0.7709 -1.1664
  793TIP3    H2 2386   4.468   2.811   3.307 -0.2943 -1.2863  0.2288
  794TIP3   OH2 2387   0.640   3.665   2.242  0.1905 -0.2567  0.4414
  794TIP3    H1 2388   0.545   3.661   2.250  0.1525  0.4736  0.4151
  794TIP3    H2 2389   0.670   3.694   2.328  0.2894  0.6766  0.1137
  795TIP3   OH2 2390   4.505   4.425   4.651  0.0988  0.4012 -0.2200
  795TIP3    H1 2391   4.452   4.468   4.719 -0.9620  0.9839 -1.3795
  795TIP3    H2 2392   4.569   4.491   4.625  0.2653  0.3079 -0.0461
  796TIP3   OH2 2393   4.338   4.331   2.426 -0.2081  0.1964  0.0050
  796TIP3    H1 2394   4.310   4.399   2.366 -0.9832  0.1557  0.3109
  796TIP3    H2 2395   4.363   4.258   2.369 -1.3408  0.0042 -0.2715
  797TIP3   OH2 2396   1.659   2.803   1.908 -0.0627  0.0171  0.1278
  797TIP3    H1 2397   1.704   2.784   1.990 -1.5783 -0.7116  0.8242
  797TIP3    H2 2398   1.727   2.797   1.841  1.1995  0.6250  1.3141
  798TIP3   OH2 2399   6.204   2.980   1.094 -0.0567  0.1222 -0.8559
  798TIP3    H1 2400   6.245   3.001   1.010  0.8964  1.0300 -0.1765
  798TIP3    H2 2401   6.110   2.993   1.079  0.2000  1.3024 -1.4857
  799TIP3   OH2 2402   4.950   0.997   1.561  0.0385  0.0471 -0.1309
  799TIP3    H1 2403   4.948   1.080   1.513  0.5523 -0.4969 -1.1108
  799TIP3    H2 2404   5.007   0.940   1.510 -1.3361 -1.3556 -0.2078
  800TIP3   OH2 2405   3.924   0.344   5.078  0.1661 -0.3028 -0.4536
  800TIP3    H1 2406   3.934   0.320   4.986  0.0888 -1.3261 -0.2136
  800TIP3    H2 2407   3.924   0.440   5.079 -0.7587 -0.2813 -1.6124
  801TIP3   OH2 2408   1.894   4.159   3.655  0.5923  0.1487  0.5438
  801TIP3    H1 2409   1.899   4.068   3.683  1.6732 -0.9556 -2.8192
  801TIP3    H2 2410   1.801   4.175   3.639  0.4460 -0.4929  0.7498
  802TIP3   OH2 2411   5.762   0.963   1.304  0.0320  0.4069 -0.3174
  802TIP3    H1 2412   5.800   1.017   1.372 -0.0216  1.2276 -0.9322
  802TIP3    H2 2413   5.836   0.937   1.249  0.0975 -0.3796  0.1196
  803TIP3   OH2 2414   0.720   5.797   4.864 -0.6047  0.0259  0.1173
  803TIP3    H1 2415   0.805   5.757   4.879 -1.2282 -0.6353  2.1384
  803TIP3    H2 2416   0.677   5.739   4.800 -0.3179 -0.8099  0.6684
  804TIP3   OH2 2417   1.477   2.566   0.243  0.0159 -0.0684 -0.1353
  804TIP3    H1 2418   1.556   2.577   0.190 -0.7762  1.4119 -1.0860
  804TIP3    H2 2419   1.417   2.633   0.211 -1.9210 -1.5957  0.0415
  805TIP3   OH2 2420   4.298   2.448   2.550  0.0125 -0.4737 -0.5395
  805TIP3    H1 2421   4.339   2.512   2.493 -1.3672  1.6013  0.6709
  805TIP3    H2 2422   4.205   2.453   2.529 -0.3084 -0.9435  0.6674
  806TIP3   OH2 2423   1.985   5.990   0.273  0.2937 -0.0752 -0.0865
  806TIP3    H1 2424   1.938   6.021   0.350  1.8165  1.5748  0.2232
  806TIP3    H2 2425   1.975   5.895   0.276 -2.1383  0.1288  0.4899
  807TIP3   OH2 2426   1.417   3.415   1.397  0.8206  0.2850  0.2994
  807TIP3    H1 2427   1.472   3.451   1.328  0.7969 -0.2467  0.0003
  807TIP3    H2 2428   1.399   3.490   1.454  2.5738  0.2993  0.8948
  808TIP3   OH2 2429   6.147   0.896   4.977  0.0128 -0.8379 -0.4531
  808TIP3    H1 2430   6.160   0.902   5.072  0.4618  0.3018 -0.5676
  808TIP3    H2 2431   6.113   0.808   4.963 -1.9481 -0.3836  0.9782
  809TIP3   OH2 2432   2.719   2.582   2.329 -0.0865  0.1401  0.2546
  809TIP3    H1 2433   2.689   2.597   2.419 -1.0946 -3.0664  0.5779
  809TIP3    H2 2434   2.638   2.569   2.280  0.5332 -0.3578 -0.6447
  810TIP3   OH2 2435   1.196   3.346   1.867  0.0172  0.3701  0.4458
  810TIP3    H1 2436   1.275   3.331   1.918  0.1521  0.8140  0.3767
  810TIP3    H2 2437   1.185   3.267   1.814  1.1864  0.8468 -0.5652
  811TIP3   OH2 2438   5.762   4.345   4.761  0.1689  0.6055  0.4566
  811TIP3    H1 2439   5.673   4.363   4.791  0.0149  1.7299 -0.5880
  811TIP3    H2 2440   5.769   4.391   4.677  1.9671  1.1462  0.8519
  812TIP3   OH2 2441   4.982   1.385   3.188  0.3187  0.2323 -0.7615
  812TIP3    H1 2442   4.988   1.363   3.095  0.9974  1.0960 -0.9398
  812TIP3    H2 2443   4.979   1.481   3.190  1.4311  0.2772  0.1445
  813TIP3   OH2 2444   4.339   3.172   4.818  0.3472 -0.4112  0.2316
  813TIP3    H1 2445   4.343   3.260   4.856 -0.6308 -0.5930  0.7976
  813TIP3    H2 2446   4.399   3.120   4.871 -1.8313 -0.9340  2.3858
  814TIP3   OH2 2447   5.533   3.038   4.570 -0.0691  0.1777  0.5148
  814TIP3    H1 2448   5.586   3.068   4.644 -1.9925 -0.8074  2.4099
  814TIP3    H2 2449   5.549   2.944   4.565  1.3523  0.4543 -1.5265
  815TIP3   OH2 2450   3.376   0.128   4.233 -0.0947  0.3812 -0.0656
  815TIP3    H1 2451   3.415   0.211   4.259 -2.1519  1.8707 -1.3536
  815TIP3    H2 2452   3.322   0.102   4.307  0.0892  0.5150  0.1144
  816TIP3   OH2 2453   5.544   0.060   2.810 -0.3884 -0.4411 -0.0006
  816TIP3    H1 2454   5.469   0.049   2.868 -0.2398  0.2690  0.3350
  816TIP3    H2 2455   5.616   0.087   2.867  0.5097 -2.4458 -0.1145
  817TIP3   OH2 2456   5.623   0.393   2.942  0.9218  0.7263 -0.1298
  817TIP3    H1 2457   5.717   0.414   2.939  1.2685 -0.7840 -1.0239
  817TIP3    H2 2458   5.616   0.324   3.008  0.5055  0.5254 -0.3804
  818TIP3   OH2 2459   0.140   1.671   2.858 -0.0736 -0.4209 -0.2729
  818TIP3    H1 2460   0.222   1.629   2.829  0.2966 -0.1782  0.3964
  818TIP3    H2 2461   0.122   1.631   2.944 -2.0347 -2.3499 -1.4785
  819TIP3   OH2 2462   4.707   2.207   0.543  0.7647  0.1183  0.4588
  819TIP3    H1 2463   4.637   2.266   0.574  1.4366  1.0046  0.3197
  819TIP3    H2 2464   4.749   2.255   0.472  1.1731 -0.6472  0.1737
  820TIP3   OH2 2465   2.120   4.223   0.812  0.0368 -0.3241  0.2569
  820TIP3    H1 2466   2.192   4.164   0.790 -0.5276 -0.9124 -0.0634
  820TIP3    H2 2467   2.053   4.204   0.746  0.6625  2.2490 -1.2650
  821TIP3   OH2 2468   5.858   0.555   3.468  0.4157 -0.2515 -1.2275
  821TIP3    H1 2469   5.799   0.624   3.497  0.4734 -0.1497 -1.3488
  821TIP3    H2 2470   5.930   0.602   3.425  0.7317 -0.3598 -0.8146
  822TIP3   OH2 2471   5.419   5.821   4.854  0.1972 -0.1770  0.1523
  822TIP3    H1 2472   5.390   5.874   4.780 -1.2843 -2.8394 -1.3543
  822TIP3    H2 2473   5.348   5.831   4.919  0.7901  0.9998  0.6563
  823TIP3   OH2 2474   5.330   5.853   0.308  0.3535  0.1352  0.0624
  823TIP3    H1 2475   5.313   5.801   0.386 -0.4781 -0.5153 -0.5478
  823TIP3    H2 2476   5.401   5.807   0.263  0.9044  0.5670  0.4766
  824TIP3   OH2 2477   1.476   2.157   4.670  0.3540  0.4292  0.0758
  824TIP3    H1 2478   1.481   2.202   4.586  1.3976 -0.4279 -0.3382
  824TIP3    H2 2479   1.504   2.223   4.734  1.1531  0.6000 -0.4432
  825TIP3   OH2 2480   6.167   5.634   1.066  0.1905  0.0244  0.6691
  825TIP3    H1 2481   6.100   5.618   1.133  0.5142  0.0801  1.0101
  825TIP3    H2 2482   6.245   5.591   1.101  0.8902  1.6758  1.2458
  826TIP3   OH2 2483   2.587   3.371   4.013 -0.3562  0.0173  0.7855
  826TIP3    H1 2484   2.622   3.285   3.986 -0.3333  0.5109 -0.9015
  826TIP3    H2 2485   2.664   3.421   4.039  0.1815  0.7048 -1.7865
  827TIP3   OH2 2486   4.279   0.027   0.484 -0.6111 -0.1782 -0.1680
  827TIP3    H1 2487   4.248   0.036   0.394  2.2575 -2.3209 -1.5693
  827TIP3    H2 2488   4.355   0.085   0.489  1.0306 -2.1950 -0.2164
  828TIP3   OH2 2489   3.051   5.670   2.696  0.6264 -0.0408  0.1823
  828TIP3    H1 2490   3.053   5.581   2.661  0.6310  0.3791 -0.9085
  828TIP3    H2 2491   3.143   5.698   2.696  0.3590  1.1123 -2.5622
  829TIP3   OH2 2492   6.164   1.728   1.589  0.2122 -0.1095  0.5002
  829TIP3    H1 2493   6.147   1.637   1.563  1.6903 -0.1859 -0.2758
  829TIP3    H2 2494   6.241   1.753   1.539 -0.1282  1.5627  0.7721
  830TIP3   OH2 2495   4.026   3.740   1.395  0.5331 -0.3113 -0.7099
  830TIP3    H1 2496   3.960   3.748   1.327 -1.4740  0.3799  1.2013
  830TIP3    H2 2497   4.003   3.660   1.442  0.4339  0.4556  0.5855
  831TIP3   OH2 2498   1.027   2.194   5.116 -0.3212  0.5446  0.3868
  831TIP3    H1 2499   0.935   2.213   5.099 -0.9492 -3.1452 -1.2487
  831TIP3    H2 2500   1.072   2.220   5.036 -0.2307  0.6493  0.4712
  832TIP3   OH2 2501   6.347   2.682   0.323 -0.1613  0.2173 -0.7743
  832TIP3    H1 2502   6.272   2.673   0.381 -0.4679 -1.1304 -1.3353
  832TIP3    H2 2503   6.420   2.706   0.381 -1.1061  2.1418 -0.3095
  833TIP3   OH2 2504   5.876   1.738   2.981 -0.1109  0.2286  0.2189
  833TIP3    H1 2505   5.848   1.779   2.899  0.4257  0.1092 -0.0312
  833TIP3    H2 2506   5.962   1.701   2.960 -0.0127  0.1210  0.8124
  834TIP3   OH2 2507   5.335   1.342   0.579  0.2603  0.0285  0.5709
  834TIP3    H1 2508   5.307   1.276   0.642 -0.0158 -0.5961 -0.1844
  834TIP3    H2 2509   5.306   1.308   0.494 -0.4167  1.4052  0.2161
  835TIP3   OH2 2510   0.880   1.478   0.166 -0.0913 -0.1113  0.5378
  835TIP3    H1 2511   0.933   1.412   0.121 -1.5416 -1.4431  0.7119
  835TIP3    H2 2512   0.848   1.434   0.245 -1.4348  0.6568  0.4467
  836TIP3   OH2 2513   5.923   4.503   1.122 -0.7205  0.2824 -0.0748
  836TIP3    H1 2514   6.002   4.449   1.124 -1.1974 -0.4108  0.4153
  836TIP3    H2 2515   5.926   4.553   1.204  0.7826  2.6098 -1.4194
  837TIP3   OH2 2516   6.277   2.050   5.032  0.4666  0.4581 -0.3547
  837TIP3    H1 2517   6.185   2.064   5.054  0.7039  3.3761 -0.7957
  837TIP3    H2 2518   6.275   2.011   4.945 -0.3672  0.4228 -0.3283
  838TIP3   OH2 2519   2.867   5.552   1.569 -0.2077  0.0594 -0.5055
  838TIP3    H1 2520   2.774   5.539   1.587 -0.1075 -0.8932 -0.6064
  838TIP3    H2 2521   2.893   5.623   1.627 -1.0344  0.4467 -0.5921
  839TIP3   OH2 2522   5.019   3.238   1.619 -0.1775 -0.5190  0.4612
  839TIP3    H1 2523   4.947   3.283   1.575  0.4626 -0.5359 -0.6327
  839TIP3    H2 2524   5.032   3.158   1.568  2.0254  0.5116 -0.7050
  840TIP3   OH2 2525   0.269   1.020   2.577 -0.3337 -0.5607 -0.4301
  840TIP3    H1 2526   0.221   0.962   2.636 -1.6628 -0.2578 -1.1728
  840TIP3    H2 2527   0.334   0.963   2.536  1.5197 -0.5284  2.1869
  841TIP3   OH2 2528   1.027   0.788   0.586  0.3896 -0.2964 -0.2812
  841TIP3    H1 2529   0.980   0.867   0.559  1.7985 -0.5477 -4.0929
  841TIP3    H2 2530   0.963   0.718   0.575  0.5018 -0.2026 -1.7974
  842TIP3   OH2 2531   0.718   1.586   3.880 -0.3088 -0.4936 -0.2037
  842TIP3    H1 2532   0.751   1.601   3.968  2.8691  0.4593 -1.4157
  842TIP3    H2 2533   0.625   1.606   3.885  0.0980  1.1515  2.5625
  843TIP3   OH2 2534   6.281   1.564   4.582 -0.1967 -0.2228  0.2880
  843TIP3    H1 2535   6.198   1.598   4.550 -0.4750 -0.7757  0.4062
  843TIP3    H2 2536   6.263   1.535   4.671 -0.1230 -1.1869  0.0054
  844TIP3   OH2 2537   3.879   0.865   1.555 -0.2798  0.1051  0.0659
  844TIP3    H1 2538   3.924   0.801   1.500  0.3481  0.9281 -0.4114
  844TIP3    H2 2539   3.908   0.846   1.644 -0.0996 -0.2638 -0.0700
  845TIP3   OH2 2540   5.580   0.435   3.392  0.3690  0.0953 -0.1337
  845TIP3    H1 2541   5.660   0.483   3.370  0.8773 -0.8522 -0.4461
  845TIP3    H2 2542   5.606   0.343   3.386 -0.4852 -0.2191  0.7527
  846TIP3   OH2 2543   0.068   2.689   1.455 -0.7123  0.3182  0.8373
  846TIP3    H1 2544   0.127   2.750   1.500 -0.8669  1.3200 -0.2833
  846TIP3    H2 2545   0.075   2.712   1.363 -0.9036 -1.2753  0.3976
  847TIP3   OH2 2546   0.220   4.956   3.775 -0.1936  0.0631  0.1155
  847TIP3    H1 2547   0.195   4.942   3.684 -2.4567 -1.0420  0.8306
  847TIP3    H2 2548   0.239   5.049   3.782 -1.7798  0.5096 -1.1131
  848TIP3   OH2 2549   4.324   1.390   1.645  0.2625  0.3248  0.1914
  848TIP3    H1 2550   4.381   1.466   1.632  0.0642  0.5225  0.4620
  848TIP3    H2 2551   4.238   1.419   1.613  0.5845 -0.3919 -1.4177
  849TIP3   OH2 2552   1.008   2.856   3.930  0.0791 -0.0705  0.2363
  849TIP3    H1 2553   0.949   2.920   3.889  0.5006  0.4490  0.4218
  849TIP3    H2 2554   1.060   2.821   3.857  1.0517  1.0869  0.3321
  850TIP3   OH2 2555   2.565   0.779   1.441  0.3250  0.2673 -0.5536
  850TIP3    H1 2556   2.522   0.820   1.366  2.6466 -0.5048 -2.4320
  850TIP3    H2 2557   2.513   0.700   1.457 -0.8147  0.9734 -0.6107
  851TIP3   OH2 2558   5.802   3.591   1.941  0.2508 -0.1978 -0.3371
  851TIP3    H1 2559   5.847   3.508   1.925  1.7651  0.3810  0.6388
  851TIP3    H2 2560   5.717   3.565   1.976 -0.1815 -1.3387 -2.1162
  852TIP3   OH2 2561   3.148   0.267   1.542 -0.4410 -0.6985  0.7064
  852TIP3    H1 2562   3.142   0.207   1.468  0.2125 -1.5857  1.3422
  852TIP3    H2 2563   3.242   0.272   1.562 -0.5265  0.1808  0.9613
  853TIP3   OH2 2564   6.321   1.273   1.545  0.3538 -0.3140 -0.0258
  853TIP3    H1 2565   6.341   1.249   1.455  1.5897  0.0119  0.1397
  853TIP3    H2 2566   6.326   1.191   1.594  2.3878 -0.1358  0.1716
  854TIP3   OH2 2567   4.917   4.878   0.499 -0.5560 -0.2947 -0.5774
  854TIP3    H1 2568   4.956   4.857   0.414 -0.1720 -0.2306 -0.4192
  854TIP3    H2 2569   4.933   4.800   0.552  0.3708  0.1583 -0.1645
  855TIP3   OH2 2570   5.563   1.139   5.120 -0.1251  0.5726 -0.0655
  855TIP3    H1 2571   5.628   1.104   5.181 -0.0487  0.9310  0.0640
  855TIP3    H2 2572   5.491   1.076   5.122 -0.0874  0.5378  0.3364
  856TIP3   OH2 2573   5.959   2.837   4.677 -0.4604 -0.0359 -0.2300
  856TIP3    H1 2574   5.944   2.873   4.590  0.9536  1.1047 -0.0485
  856TIP3    H2 2575   5.892   2.770   4.688 -1.8480  1.0993 -1.4463
  857TIP3   OH2 2576   5.449   3.017   3.766  0.3979  0.3679 -0.2901
  857TIP3    H1 2577   5.446   3.033   3.861  0.2744  0.4080 -0.3011
  857TIP3    H2 2578   5.462   2.923   3.758 -0.9379  0.1607 -0.2489
  858TIP3   OH2 2579   5.434   0.591   2.468 -0.3645 -0.2519 -0.3699
  858TIP3    H1 2580   5.404   0.527   2.403  1.6037  0.1750 -1.7683
  858TIP3    H2 2581   5.450   0.539   2.547  0.3666 -1.3509 -1.2151
  859TIP3   OH2 2582   0.199   1.137   4.581 -0.1740 -0.7619  0.3286
  859TIP3    H1 2583   0.203   1.046   4.610 -1.2340 -0.6017  1.0443
  859TIP3    H2 2584   0.217   1.188   4.660 -0.8191 -0.3481  0.2194
  860TIP3   OH2 2585   3.569   2.925   1.702  0.2305 -0.2432  0.3118
  860TIP3    H1 2586   3.531   2.930   1.614 -0.4566  0.0635  0.6186
  860TIP3    H2 2587   3.624   3.003   1.709 -1.7675  1.1762  1.0827
  861TIP3   OH2 2588   5.781   0.416   3.779  0.6320  0.4094  0.2295
  861TIP3    H1 2589   5.807   0.502   3.744  2.5819 -0.4444 -0.5718
  861TIP3    H2 2590   5.836   0.405   3.856  0.2962 -0.0721  0.4025
  862TIP3   OH2 2591   5.786   3.558   4.483 -0.1814  0.0793  0.1502
  862TIP3    H1 2592   5.728   3.519   4.418  0.0301 -1.6022  0.9199
  862TIP3    H2 2593   5.730   3.621   4.529 -0.7262  0.2246 -0.6834
  863TIP3   OH2 2594   4.850   0.979   1.838 -0.2398 -0.5351 -0.0084
  863TIP3    H1 2595   4.854   0.897   1.886  2.3891 -0.0360  0.8317
  863TIP3    H2 2596   4.856   0.953   1.746  1.7826 -1.3338  0.2833
  864TIP3   OH2 2597   0.707   0.577   1.015 -0.4510  0.1357 -0.0205
  864TIP3    H1 2598   0.654   0.653   1.042 -2.2507 -0.8910 -0.4609
  864TIP3    H2 2599   0.790   0.588   1.061 -1.2645  1.5280  1.2102
  865TIP3   OH2 2600   1.208   2.275   2.144 -0.5891  0.2206 -0.4240
  865TIP3    H1 2601   1.162   2.205   2.191  0.1871  0.2139  0.3462
  865TIP3    H2 2602   1.182   2.356   2.188 -0.5083  0.2949 -0.5102
  866TIP3   OH2 2603   5.130   4.478   1.344  0.0874 -0.3374  0.0317
  866TIP3    H1 2604   5.150   4.534   1.269 -2.8038 -0.6022 -1.0833
  866TIP3    H2 2605   5.061   4.525   1.391 -0.3040 -1.5971  0.7717
  867TIP3   OH2 2606   2.274   5.451   1.357  0.1508  0.0486 -0.0810
  867TIP3    H1 2607   2.254   5.448   1.451  0.9445 -0.5308  0.0821
  867TIP3    H2 2608   2.257   5.363   1.326  2.1359 -0.4176  0.0246
  868TIP3   OH2 2609   4.388   2.775   0.130  0.2477 -0.2956 -0.1061
  868TIP3    H1 2610   4.469   2.771   0.080  1.5407  0.9849  1.7574
  868TIP3    H2 2611   4.337   2.844   0.087  0.8189 -0.0272 -0.3668
  869TIP3   OH2 2612   5.068   0.487   4.865 -0.1749 -0.9126 -0.0852
  869TIP3    H1 2613   5.152   0.501   4.908  0.3066  0.8401 -1.4837
  869TIP3    H2 2614   5.007   0.468   4.936  1.4150 -2.5250  0.9370
  870TIP3   OH2 2615   3.233   4.597   1.219  0.6112 -0.2249 -0.7918
  870TIP3    H1 2616   3.259   4.685   1.189  1.8237 -0.5843 -0.8419
  870TIP3    H2 2617   3.137   4.597   1.213  0.6275  0.9145 -1.3002
  871TIP3   OH2 2618   1.967   5.758   0.979  0.1184  0.3557 -0.1285
  871TIP3    H1 2619   2.003   5.825   0.921  1.0645 -0.1107 -0.1002
  871TIP3    H2 2620   2.043   5.722   1.025 -0.4050 -0.5212  0.0910
  872TIP3   OH2 2621   5.538   3.582   2.270 -0.1461  0.5431  0.2312
  872TIP3    H1 2622   5.495   3.603   2.353 -0.5100  1.0384 -0.0745
  872TIP3    H2 2623   5.521   3.659   2.214  0.1080  0.2239 -0.2920
  873TIP3   OH2 2624   1.922   4.752   0.270  0.4076 -0.4242  0.0746
  873TIP3    H1 2625   1.971   4.712   0.197 -1.5023 -1.2545 -0.8129
  873TIP3    H2 2626   1.942   4.845   0.263  0.1201 -0.4515 -1.6778
  874TIP3   OH2 2627   5.333   4.180   2.872 -0.0627 -0.1209  1.1126
  874TIP3    H1 2628   5.338   4.119   2.799 -0.2581 -0.2132  1.1768
  874TIP3    H2 2629   5.413   4.166   2.921  0.6643  0.7915  0.2422
  875TIP3   OH2 2630   6.023   3.581   3.469  0.5376  0.2787 -0.3349
  875TIP3    H1 2631   5.949   3.544   3.516  0.7906  1.3208  0.9486
  875TIP3    H2 2632   6.028   3.531   3.388  0.5036 -2.1002  1.0239
  876TIP3   OH2 2633   6.372   4.619   0.910 -0.2265  0.7111 -0.2930
  876TIP3    H1 2634   6.285   4.655   0.927 -0.7907 -0.4735 -0.5597
  876TIP3    H2 2635   6.357   4.553   0.842  0.4674 -1.1809  1.3110
  877TIP3   OH2 2636   2.394   0.309   4.873  0.1811 -0.2513  0.3171
  877TIP3    H1 2637   2.387   0.243   4.805  0.7540 -0.7959  0.7838
  877TIP3    H2 2638   2.375   0.263   4.954 -0.2732  0.3445  0.5558
  878TIP3   OH2 2639   1.330   5.807   0.610 -0.1078  0.0911 -0.0634
  878TIP3    H1 2640   1.294   5.733   0.659  1.7856  0.8241  2.6839
  878TIP3    H2 2641   1.393   5.767   0.550  0.2058 -0.6345  0.7237
  879TIP3   OH2 2642   0.722   0.263   0.153 -0.0847 -0.2355 -0.0650
  879TIP3    H1 2643   0.723   0.198   0.082 -0.0521 -0.0567 -0.2293
  879TIP3    H2 2644   0.633   0.296   0.155 -0.1385 -0.3896  0.1156
  880TIP3   OH2 2645   4.008   0.364   3.158 -0.5319  0.1577 -0.3643
  880TIP3    H1 2646   3.992   0.281   3.113  0.0323 -0.8839  1.2549
  880TIP3    H2 2647   4.086   0.400   3.116  0.0817 -0.8776 -0.1436
  881TIP3   OH2 2648   3.588   0.251   0.914 -0.1268  0.1690  0.2719
  881TIP3    H1 2649   3.504   0.287   0.887  0.8659  0.8645 -2.1917
  881TIP3    H2 2650   3.627   0.319   0.970 -0.7943  0.2219  0.6867
  882TIP3   OH2 2651   5.660   4.701   1.549  0.0441  0.1603  0.7756
  882TIP3    H1 2652   5.694   4.612   1.542 -0.5365 -0.0862  1.1210
  882TIP3    H2 2653   5.576   4.699   1.503  0.9041  1.0103 -0.9697
  883TIP3   OH2 2654   1.192   2.059   1.691 -0.1054 -0.5805  0.1216
  883TIP3    H1 2655   1.225   2.028   1.775  0.7813 -1.4179 -0.5195
  883TIP3    H2 2656   1.158   1.981   1.647 -1.5071  0.0103  0.1022
  884TIP3   OH2 2657   2.715   0.926   2.616  0.3393  0.8186 -0.4532
  884TIP3    H1 2658   2.620   0.927   2.606  0.3512  3.1189 -0.7930
  884TIP3    H2 2659   2.747   0.995   2.558  2.1457  0.7711  0.3987
  885TIP3   OH2 2660   1.677   3.908   2.692  0.1242 -0.6921  0.9586
  885TIP3    H1 2661   1.758   3.858   2.700  0.5598 -0.0699  0.5392
  885TIP3    H2 2662   1.680   3.945   2.603 -0.1997  0.0488  1.2488
  886TIP3   OH2 2663   3.214   3.046   4.738 -0.1978  0.5277 -0.4313
  886TIP3    H1 2664   3.191   2.993   4.814  0.3646 -1.4597 -1.5614
  886TIP3    H2 2665   3.291   3.095   4.765  0.3264 -0.5630  0.1384
  887TIP3   OH2 2666   3.170   0.592   3.571  0.2093  0.0742 -0.1247
  887TIP3    H1 2667   3.189   0.530   3.500 -1.1675 -0.0215 -0.4437
  887TIP3    H2 2668   3.186   0.543   3.651  2.7307  0.4705 -0.2982
  888TIP3   OH2 2669   2.372   1.668   2.373 -0.1511 -0.3761 -0.6772
  888TIP3    H1 2670   2.464   1.652   2.352 -0.6549 -2.0200 -1.8465
  888TIP3    H2 2671   2.323   1.625   2.302 -1.8251  2.3077 -1.3134
  889TIP3   OH2 2672   3.390   4.728   1.745 -0.1468 -0.0644  0.0159
  889TIP3    H1 2673   3.455   4.790   1.778  0.2562 -0.8606  0.7660
  889TIP3    H2 2674   3.436   4.644   1.745 -0.3313 -0.2089 -2.0156
  890TIP3   OH2 2675   2.036   3.823   0.033  0.0176  0.3033 -0.2290
  890TIP3    H1 2676   2.125   3.834  -0.001  0.3310  0.8779  0.7535
  890TIP3    H2 2677   2.048   3.789   0.122 -0.7400  0.3507 -0.1023
  891TIP3   OH2 2678   0.924   4.545   2.254  0.2166 -0.1676 -0.0405
  891TIP3    H1 2679   0.974   4.617   2.215  2.0466 -1.4141 -0.1096
  891TIP3    H2 2680   0.907   4.574   2.343  1.3260  0.1853  0.0717
  892TIP3   OH2 2681   0.906   4.321   1.549  0.1552 -0.4470  0.4684
  892TIP3    H1 2682   0.902   4.256   1.619 -0.8034 -0.8926  0.0246
  892TIP3    H2 2683   0.912   4.405   1.594 -0.4294 -0.7286  1.0882
  893TIP3   OH2 2684   4.446   0.353   3.800  0.3432  0.2207  0.3258
  893TIP3    H1 2685   4.498   0.275   3.779  0.0632  0.0848  0.1276
  893TIP3    H2 2686   4.510   0.422   3.812  0.5031  0.6078 -2.2142
  894TIP3   OH2 2687   0.267   0.727   4.522  0.2755  0.1925 -0.2519
  894TIP3    H1 2688   0.310   0.734   4.436  0.2886  0.5287 -0.2173
  894TIP3    H2 2689   0.308   0.650   4.562  1.0036  0.6283 -0.1347
  895TIP3   OH2 2690   2.934   0.347   0.372  0.1303 -0.0439 -0.5240
  895TIP3    H1 2691   3.022   0.310   0.363  0.2302  0.3992 -1.5108
  895TIP3    H2 2692   2.944   0.439   0.349 -0.7483 -0.1938 -1.5949
  896TIP3   OH2 2693   2.545   6.003   1.155  0.3367  0.3770 -0.2062
  896TIP3    H1 2694   2.569   6.008   1.063  0.1328 -0.8116 -0.3487
  896TIP3    H2 2695   2.529   5.909   1.170 -3.1352  0.8796  0.1161
  897TIP3   OH2 2696   0.579   3.507   1.625  0.1882 -0.1325  0.0428
  897TIP3    H1 2697   0.648   3.570   1.607 -0.9222  1.3039  0.5895
  897TIP3    H2 2698   0.571   3.456   1.544  0.4986  1.0451 -0.7553
  898TIP3   OH2 2699   3.343   2.864   2.374  0.2702 -0.0396  0.0901
  898TIP3    H1 2700   3.338   2.917   2.454  1.9928 -1.0145  0.9064
  898TIP3    H2 2701   3.272   2.801   2.384 -1.4015  1.6303 -0.5963
  899TIP3   OH2 2702   3.542   4.329   4.726  0.5735 -0.3591 -0.4294
  899TIP3    H1 2703   3.537   4.234   4.740  0.1184  0.0388  2.7459
  899TIP3    H2 2704   3.452   4.354   4.704 -0.3778 -0.1982  3.1215
  900TIP3   OH2 2705   6.053   4.895   3.005  0.3795 -0.1387 -0.1310
  900TIP3    H1 2706   5.988   4.825   2.994 -0.1334  0.2854  0.1877
  900TIP3    H2 2707   6.137   4.851   2.990  0.1098 -0.9704  0.6779
  901TIP3   OH2 2708   1.628   4.772   0.247  0.3133 -0.0225  0.0288
  901TIP3    H1 2709   1.722   4.757   0.256  0.5441 -1.0652 -3.0175
  901TIP3    H2 2710   1.587   4.692   0.279  0.4391  0.3342  1.1235
  902TIP3   OH2 2711   6.285   3.968   1.200 -0.5375  0.6607 -0.0433
  902TIP3    H1 2712   6.193   3.967   1.224 -0.0061 -0.6831  2.1670
  902TIP3    H2 2713   6.301   3.880   1.165  0.2411  0.3443  1.0735
  903TIP3   OH2 2714   0.139   0.230   5.007  0.0509  0.1001  0.1849
  903TIP3    H1 2715   0.234   0.240   5.006 -0.0854  1.5924 -0.2449
  903TIP3    H2 2716   0.112   0.247   4.917 -0.5983 -0.8060  0.1900
  904TIP3   OH2 2717   0.410   0.772   1.724 -0.1196  0.4888 -0.2167
  904TIP3    H1 2718   0.358   0.791   1.802 -1.6764 -0.6707 -0.9281
  904TIP3    H2 2719   0.476   0.709   1.753 -1.0621 -0.3923  0.0617
  905TIP3   OH2 2720   1.639   4.522   3.363  0.5698  0.6290 -0.0519
  905TIP3    H1 2721   1.562   4.472   3.392  0.3281  0.8452 -0.3116
  905TIP3    H2 2722   1.624   4.537   3.270  1.2496  0.1043 -0.2580
  906TIP3   OH2 2723   1.509   3.800   2.034 -0.2550  0.6423  0.2729
  906TIP3    H1 2724   1.485   3.708   2.020  0.8502  0.5210 -1.0675
  906TIP3    H2 2725   1.558   3.799   2.116  0.5448 -0.1534 -0.1840
  907TIP3   OH2 2726   0.733   4.533   4.241 -0.3167  0.2786 -0.0270
  907TIP3    H1 2727   0.816   4.561   4.281  0.5134  0.2714 -1.6396
  907TIP3    H2 2728   0.754   4.524   4.148 -1.9972 -0.3127 -0.3774
  908TIP3   OH2 2729   6.042   4.581   3.846  0.4083 -0.0039  0.2465
  908TIP3    H1 2730   5.981   4.534   3.790  0.5323  0.3151 -0.1602
  908TIP3    H2 2731   5.994   4.595   3.928  0.7339 -1.7513  0.7689
  909TIP3   OH2 2732   4.062   5.293   1.166 -0.1505 -0.4837 -0.2326
  909TIP3    H1 2733   3.984   5.259   1.210 -0.7232 -0.3377 -1.1105
  909TIP3    H2 2734   4.045   5.279   1.072  0.1723  1.0024 -0.5425
  910TIP3   OH2 2735   0.786   1.255   1.257 -0.5045  0.1977  0.4537
  910TIP3    H1 2736   0.717   1.197   1.290  0.6741  0.1844  3.0871
  910TIP3    H2 2737   0.858   1.197   1.235 -0.6179  0.3801 -0.4265
  911TIP3   OH2 2738   0.745   4.770   1.925 -0.2056 -0.3141  0.8981
  911TIP3    H1 2739   0.686   4.750   1.853  0.6616  1.6360 -0.4609
  911TIP3    H2 2740   0.695   4.829   1.982  0.4793  1.7705 -0.5291
  912TIP3   OH2 2741   1.428   3.290   2.977 -0.0322 -0.1825 -0.1276
  912TIP3    H1 2742   1.336   3.313   2.966 -0.2442 -1.1786 -0.5836
  912TIP3    H2 2743   1.445   3.226   2.907  1.4506  1.2186 -1.1181
  913TIP3   OH2 2744   2.457   1.512   3.498  0.2964  0.2689  0.1124
  913TIP3    H1 2745   2.393   1.449   3.465  0.1664 -0.2435  1.3016
  913TIP3    H2 2746   2.539   1.486   3.456  0.1852 -0.5092  0.3649
  914TIP3   OH2 2747   1.705   4.383   2.546 -0.6179  0.7467 -0.2339
  914TIP3    H1 2748   1.687   4.427   2.464 -1.9044  0.3345 -0.2020
  914TIP3    H2 2749   1.642   4.420   2.608 -0.9197 -0.2441  0.0848
  915TIP3   OH2 2750   2.426   3.194   4.409  0.3655 -0.1323  0.1171
  915TIP3    H1 2751   2.488   3.142   4.459 -0.9663 -2.2401 -0.3164
  915TIP3    H2 2752   2.436   3.163   4.319  0.7037  1.5812 -0.4786
  916TIP3   OH2 2753   2.272   5.161   1.955  0.1729 -0.0225  0.0550
  916TIP3    H1 2754   2.226   5.100   2.013  1.3027 -0.3498  0.6352
  916TIP3    H2 2755   2.274   5.244   2.003  0.8514 -0.2162  0.3778
  917TIP3   OH2 2756   6.056   1.893   1.220  0.1295 -0.0549 -0.5771
  917TIP3    H1 2757   6.044   1.882   1.125 -0.0414  1.4916 -0.7753
  917TIP3    H2 2758   6.001   1.826   1.259  0.4476 -0.9310 -1.5663
  918TIP3   OH2 2759   5.189   2.126   3.519 -0.2772  0.1681 -0.5052
  918TIP3    H1 2760   5.252   2.096   3.585  0.2019  0.4070 -0.8478
  918TIP3    H2 2761   5.174   2.218   3.541 -0.2573  0.1989 -0.6216
  919TIP3   OH2 2762   5.398   3.132   2.062 -0.2988  0.1912  0.1188
  919TIP3    H1 2763   5.486   3.095   2.058 -0.2680  0.3879 -1.5739
  919TIP3    H2 2764   5.365   3.127   1.972 -2.9131 -2.0012  1.0359
  920TIP3   OH2 2765   0.507   5.404   5.047  0.4665  0.3082  0.1749
  920TIP3    H1 2766   0.468   5.343   4.984 -0.0952 -0.4594  1.2401
  920TIP3    H2 2767   0.599   5.408   5.022  0.4640 -0.8058 -0.0621
  921TIP3   OH2 2768   5.849   0.363   1.374  0.4840  0.5885 -0.0824
  921TIP3    H1 2769   5.917   0.430   1.367  0.3936  0.8834  1.5935
  921TIP3    H2 2770   5.803   0.383   1.456 -0.3674 -0.7736 -0.1921
  922TIP3   OH2 2771   0.422   0.061   3.478  0.4009  0.2477 -0.2602
  922TIP3    H1 2772   0.418   0.087   3.570  0.9371 -0.5908  0.0098
  922TIP3    H2 2773   0.406   0.142   3.430 -2.7499  0.2337  0.5414
  923TIP3   OH2 2774   3.000   3.700   2.034  0.1935  0.1849 -0.9044
  923TIP3    H1 2775   3.089   3.665   2.031  0.0889 -0.1363 -0.4482
  923TIP3    H2 2776   2.977   3.717   1.943  0.3542 -0.6816 -1.1168
  924TIP3   OH2 2777   1.237   3.320   3.362  0.6149 -0.6589 -0.3405
  924TIP3    H1 2778   1.272   3.332   3.450  0.6273  0.3939 -0.4833
  924TIP3    H2 2779   1.247   3.405   3.320 -1.4338 -0.5250 -0.6353
  925TIP3   OH2 2780   5.116   3.331   5.099  0.1795  0.2399  0.3098
  925TIP3    H1 2781   5.201   3.347   5.057  0.4369 -0.5299  0.5197
  925TIP3    H2 2782   5.074   3.417   5.101  0.2300  0.3411 -1.3531
  926TIP3   OH2 2783   1.510   5.671   4.987  0.1143 -0.0711  0.2637
  926TIP3    H1 2784   1.604   5.692   4.986  0.5162 -1.6797 -1.6663
  926TIP3    H2 2785   1.507   5.581   5.018 -0.7898 -0.0997  0.1036
  927TIP3   OH2 2786   0.103   0.854   0.501 -0.1016  0.3657 -0.0917
  927TIP3    H1 2787   0.050   0.868   0.580 -0.2346 -0.9387  0.0652
  927TIP3    H2 2788   0.101   0.939   0.456 -1.2008  0.7254  0.5866
  928TIP3   OH2 2789   0.510   0.047   3.029 -0.3910 -0.3927  0.7331
  928TIP3    H1 2790   0.512  -0.029   2.971 -2.3739 -0.2096  0.3390
  928TIP3    H2 2791   0.512   0.009   3.117 -1.5902 -0.9540  0.5418
  929TIP3   OH2 2792   1.332   3.447   5.090 -0.2484  0.5194 -0.7328
  929TIP3    H1 2793   1.365   3.500   5.018  0.5212  1.3612  0.2166
  929TIP3    H2 2794   1.274   3.506   5.139  0.7215  0.5661  0.4099
  930TIP3   OH2 2795   2.186   3.428   5.080  0.7289 -0.2776  0.2404
  930TIP3    H1 2796   2.179   3.442   5.174  0.8426 -1.8537  0.5114
  930TIP3    H2 2797   2.096   3.433   5.048  0.8536  2.2070  0.0793
  931TIP3   OH2 2798   1.516   4.395   1.247 -0.7118  0.3590  0.6322
  931TIP3    H1 2799   1.589   4.393   1.185  0.1457  0.1128  1.6241
  931TIP3    H2 2800   1.477   4.307   1.241 -0.0042  0.0044  1.1666
  932TIP3   OH2 2801   3.819   1.606   1.978 -0.4174 -0.3048 -0.0248
  932TIP3    H1 2802   3.859   1.690   2.000  0.0953 -0.1101 -1.6014
  932TIP3    H2 2803   3.738   1.629   1.933 -0.4260 -0.6696 -0.1978
  933TIP3   OH2 2804   5.672   1.963   1.859 -0.2040  0.2694  0.4843
  933TIP3    H1 2805   5.700   2.050   1.830 -0.2576 -0.5469 -2.2325
  933TIP3    H2 2806   5.748   1.907   1.844 -0.3313 -0.2723  1.7457
  934TIP3   OH2 2807   4.661   5.757   1.092 -0.3349 -0.5933  0.2019
  934TIP3    H1 2808   4.584   5.703   1.105  0.7149 -1.6251  2.7795
  934TIP3    H2 2809   4.641   5.839   1.135 -1.2091  0.4783 -2.0901
  935TIP3   OH2 2810   3.510   4.798   0.757  0.3265 -0.1637 -0.2578
  935TIP3    H1 2811   3.517   4.704   0.774  3.2798 -0.0141 -0.1042
  935TIP3    H2 2812   3.456   4.832   0.828  0.6707 -1.5363  0.6926
  936TIP3   OH2 2813   5.650   5.990   2.677  0.2623  0.0218 -0.1732
  936TIP3    H1 2814   5.695   5.906   2.667  0.2824 -0.0680  0.6158
  936TIP3    H2 2815   5.576   5.985   2.616 -0.7956 -1.2988  1.1574
  937TIP3   OH2 2816   1.469   0.889   3.750  0.5491  0.4344 -0.3415
  937TIP3    H1 2817   1.459   0.800   3.715 -0.5341 -0.2884  1.6219
  937TIP3    H2 2818   1.394   0.936   3.714  0.5255  0.2575 -0.5312
  938TIP3   OH2 2819   1.121   3.433   0.541 -0.7614  0.8196  0.3334
  938TIP3    H1 2820   1.133   3.517   0.498  0.2520  0.6149  0.2008
  938TIP3    H2 2821   1.108   3.371   0.469  0.6053  0.5301  0.3182
  939TIP3   OH2 2822   0.488   5.105   1.377 -0.2602  0.4649 -0.6184
  939TIP3    H1 2823   0.553   5.139   1.316 -0.1818 -0.4196 -1.0390
  939TIP3    H2 2824   0.410   5.158   1.360 -0.4593 -0.2422 -1.9958
  940TIP3   OH2 2825   1.471   5.631   3.048 -0.0220  0.7572  0.3088
  940TIP3    H1 2826   1.421   5.631   3.130  2.3482  1.6223  1.8944
  940TIP3    H2 2827   1.533   5.558   3.058 -1.2913 -0.7212 -1.8807
  941TIP3   OH2 2828   2.230   3.972   1.601 -0.1266  0.1771 -0.0174
  941TIP3    H1 2829   2.141   3.996   1.576  0.2610  1.0817 -0.5648
  941TIP3    H2 2830   2.285   4.041   1.564  0.7439 -0.0182  0.8647
  942TIP3   OH2 2831   1.266   1.707   0.783  0.0968 -0.3009 -0.5068
  942TIP3    H1 2832   1.185   1.757   0.793  0.1846 -0.4319  1.0860
  942TIP3    H2 2833   1.335   1.770   0.804  0.3085 -0.5845 -0.3465
  943TIP3   OH2 2834   0.007   5.985   2.436 -0.0398 -0.4828 -0.1129
  943TIP3    H1 2835   0.001   6.010   2.343 -1.2135 -1.2262 -0.2545
  943TIP3    H2 2836   0.099   5.961   2.448  0.4244  0.8409 -0.7463
  944TIP3   OH2 2837   3.446   0.468   4.265  0.3362  0.2646  0.0229
  944TIP3    H1 2838   3.382   0.499   4.329  0.3664  0.4157 -0.0197
  944TIP3    H2 2839   3.529   0.507   4.293  0.4036  0.0973  0.0582
  945TIP3   OH2 2840   4.515   3.185   3.723  0.1634  0.1944 -0.2692
  945TIP3    H1 2841   4.511   3.117   3.656  0.7867 -1.6337  1.4349
  945TIP3    H2 2842   4.601   3.225   3.711  0.5591 -0.5991 -0.1569
  946TIP3   OH2 2843   4.144   2.694   2.762 -0.2590 -0.2821 -0.3263
  946TIP3    H1 2844   4.100   2.661   2.840 -0.6016 -1.1961 -0.8830
  946TIP3    H2 2845   4.161   2.615   2.710  1.8202  0.0674 -0.2409
  947TIP3   OH2 2846   5.484   4.547   2.161 -0.2313  0.6037  0.2348
  947TIP3    H1 2847   5.419   4.478   2.174 -0.8967  1.1374 -0.2073
  947TIP3    H2 2848   5.469   4.577   2.071  2.2233 -0.9291 -0.8130
  948TIP3   OH2 2849   3.413   0.131   3.349  0.1463 -0.2373 -0.8192
  948TIP3    H1 2850   3.365   0.157   3.271  0.0175  0.7379 -0.4297
  948TIP3    H2 2851   3.476   0.202   3.364  1.7523 -1.4904 -1.3293
  949TIP3   OH2 2852   1.858   0.051   1.739  0.4037 -0.0931 -0.0754
  949TIP3    H1 2853   1.776   0.017   1.703  0.1296 -0.7130  1.0600
  949TIP3    H2 2854   1.926   0.013   1.684 -0.0941  1.1440 -1.5810
  950TIP3   OH2 2855   6.244   3.638   4.877 -0.7517  0.0704 -0.2757
  950TIP3    H1 2856   6.287   3.553   4.881 -0.3020  0.3405  2.1120
  950TIP3    H2 2857   6.174   3.633   4.941 -0.0503  1.8089  0.7073
  951TIP3   OH2 2858   5.908   5.551   1.661 -0.8189 -0.5769  0.2422
  951TIP3    H1 2859   5.828   5.551   1.713 -1.5588  1.2827 -0.8057
  951TIP3    H2 2860   5.879   5.545   1.571  0.1085  1.3414 -0.2371
  952TIP3   OH2 2861   5.484   0.146   4.970 -0.1105 -0.0885  0.6263
  952TIP3    H1 2862   5.521   0.059   4.984 -0.3125 -0.5984 -1.7161
  952TIP3    H2 2863   5.392   0.137   4.992  0.1871  0.0104  2.0248
  953TIP3   OH2 2864   2.703   2.904   2.963  0.4649  0.3287 -0.2834
  953TIP3    H1 2865   2.667   2.992   2.955 -0.6452 -0.0589  0.2691
  953TIP3    H2 2866   2.718   2.876   2.872 -0.6040  0.5218 -0.5337
  954TIP3   OH2 2867   4.012   5.004   1.105  0.3726 -0.4582  0.5232
  954TIP3    H1 2868   3.930   5.017   1.153  0.1628 -2.5057  0.8331
  954TIP3    H2 2869   3.991   5.026   1.015 -0.5198 -0.8648  0.6158
  955TIP3   OH2 2870   4.703   3.268   0.281  0.1092  0.0060 -0.0808
  955TIP3    H1 2871   4.782   3.286   0.332 -0.1035  0.1075  0.2163
  955TIP3    H2 2872   4.647   3.344   0.297 -0.8781 -0.9867  1.3379
  956TIP3   OH2 2873   5.021   1.885   5.015 -0.0469  0.3452 -1.0061
  956TIP3    H1 2874   4.958   1.870   5.085  0.1313 -0.4166 -1.0056
  956TIP3    H2 2875   5.107   1.884   5.059  0.1723 -1.5334 -1.4165
  957TIP3   OH2 2876   0.738   2.487   3.731 -1.1795  0.4314 -0.6659
  957TIP3    H1 2877   0.778   2.426   3.669 -0.5492 -1.1814  1.2201
  957TIP3    H2 2878   0.698   2.555   3.676 -0.8175 -0.9976 -2.8128
  958TIP3   OH2 2879   6.284   5.634   2.569 -0.1561 -0.0946  0.2686
  958TIP3    H1 2880   6.340   5.561   2.595 -0.9496 -0.3607  1.2554
  958TIP3    H2 2881   6.246   5.666   2.650 -0.8191  0.6009 -0.2986
  959TIP3   OH2 2882   5.905   3.288   4.188 -0.2691  0.6716  0.2536
  959TIP3    H1 2883   5.940   3.253   4.107 -0.5743 -1.9570  1.1628
  959TIP3    H2 2884   5.838   3.350   4.160 -0.0773  0.1492 -1.4977
  960TIP3   OH2 2885   3.800   5.055   4.137  0.2650  0.0009  0.4661
  960TIP3    H1 2886   3.895   5.059   4.125  0.1291 -0.5531 -1.0362
  960TIP3    H2 2887   3.767   5.132   4.089 -0.1147 -0.4827 -0.0601
  961TIP3   OH2 2888   4.641   1.965   2.952 -0.5183  0.0173 -0.1577
  961TIP3    H1 2889   4.642   1.922   3.038  0.8033 -0.5790 -0.4523
  961TIP3    H2 2890   4.732   1.985   2.934 -0.7334 -0.2038 -1.6052
  962TIP3   OH2 2891   4.321   3.077   1.208 -0.1225 -0.5065 -0.1240
  962TIP3    H1 2892   4.308   3.055   1.300 -1.2078  0.4425 -0.0305
  962TIP3    H2 2893   4.336   3.172   1.208 -1.1646 -0.3257 -1.0146
  963TIP3   OH2 2894   0.418   0.449   2.248 -0.2121  0.4379  0.3386
  963TIP3    H1 2895   0.435   0.392   2.323 -0.3116  0.3455  0.2921
  963TIP3    H2 2896   0.492   0.436   2.190  0.1883  0.9957  0.7127
  964TIP3   OH2 2897   3.715   1.894   2.986  0.2798 -0.0572 -0.1598
  964TIP3    H1 2898   3.806   1.882   3.011  0.1132 -0.1581  0.4014
  964TIP3    H2 2899   3.715   1.975   2.934  0.8619 -0.6452 -1.0994
  965TIP3   OH2 2900   0.889   0.413   1.676 -0.2002 -0.2958  0.1234
  965TIP3    H1 2901   0.900   0.338   1.617  0.0799 -0.8550  0.8620
  965TIP3    H2 2902   0.977   0.445   1.692 -0.3684  0.5743 -0.6570
  966TIP3   OH2 2903   2.540   0.624   0.570  0.1802 -0.2892  0.1293
  966TIP3    H1 2904   2.581   0.644   0.487  0.2787 -1.3171 -0.0837
  966TIP3    H2 2905   2.456   0.583   0.547 -0.7488  1.2873  0.5520
  967TIP3   OH2 2906   6.239   4.717   3.698 -0.0116  0.4526 -0.2375
  967TIP3    H1 2907   6.310   4.673   3.744 -0.8221  1.4788  2.1754
  967TIP3    H2 2908   6.160   4.667   3.722 -0.4855  1.1749 -0.2537
  968TIP3   OH2 2909   4.258   5.007   3.699  0.1594  0.0543  0.3515
  968TIP3    H1 2910   4.304   5.082   3.662 -0.2351  0.7151  1.1580
  968TIP3    H2 2911   4.314   4.977   3.771 -1.3832  1.9335  2.4676
  969TIP3   OH2 2912   1.496   5.016   2.794  0.2196  0.1003 -0.4175
  969TIP3    H1 2913   1.520   4.958   2.721  0.5642 -1.6695  1.0286
  969TIP3    H2 2914   1.558   5.089   2.788 -0.8482  0.9312 -2.8798
  970TIP3   OH2 2915   1.050   0.775   2.796 -0.2176 -0.0212 -0.2246
  970TIP3    H1 2916   1.085   0.774   2.707 -0.1670 -0.0670 -0.2045
  970TIP3    H2 2917   1.086   0.856   2.834  2.1905 -1.4220  0.7023
  971TIP3   OH2 2918   0.369   0.757   3.419 -0.0812 -0.2281  0.2511
  971TIP3    H1 2919   0.279   0.734   3.442  0.1134  0.2887  1.7024
  971TIP3    H2 2920   0.421   0.725   3.493  0.7972  0.3370 -0.1052
  972TIP3   OH2 2921   4.256   3.001   3.736 -0.1011 -0.4884  0.6210
  972TIP3    H1 2922   4.271   3.021   3.828  1.2744 -1.6791  0.6931
  972TIP3    H2 2923   4.310   2.924   3.719  0.1355  0.0538 -1.3352
  973TIP3   OH2 2924   2.528   5.799   1.821  0.0971  0.7153  0.1157
  973TIP3    H1 2925   2.512   5.892   1.807  0.7750  0.5935 -1.7783
  973TIP3    H2 2926   2.460   5.755   1.769 -0.4524  0.1316  1.2924
  974TIP3   OH2 2927   0.796   1.847   4.158 -0.5485 -0.1603  0.0998
  974TIP3    H1 2928   0.836   1.926   4.193  0.7613 -0.2707 -1.0814
  974TIP3    H2 2929   0.720   1.879   4.109 -0.2703  0.3271 -0.0172
  975TIP3   OH2 2930   3.021   0.832   4.650  0.0814  0.0871 -0.3100
  975TIP3    H1 2931   3.028   0.895   4.579 -1.1555 -0.4913 -0.9672
  975TIP3    H2 2932   2.938   0.787   4.635 -0.4665  0.2938  1.7786
  976TIP3   OH2 2933   5.264   2.517   4.019  0.4625 -0.2551 -0.6166
  976TIP3    H1 2934   5.229   2.606   4.007 -0.6393 -0.8491 -2.1030
  976TIP3    H2 2935   5.318   2.503   3.942  0.2086 -1.0664 -0.6480
  977TIP3   OH2 2936   4.268   3.039   2.437 -0.3122  0.3696  0.7515
  977TIP3    H1 2937   4.220   2.966   2.475  1.3484 -0.3686  1.5007
  977TIP3    H2 2938   4.203   3.084   2.382 -1.2628 -1.9271 -0.1373
  978TIP3   OH2 2939   1.414   0.395   3.485 -0.0552  0.4932  0.1927
  978TIP3    H1 2940   1.322   0.372   3.498  0.4403 -2.2875 -0.4048
  978TIP3    H2 2941   1.461   0.345   3.552  1.1850 -0.3512 -1.2498
  979TIP3   OH2 2942   2.128   5.001   0.119  0.0154  0.3686  0.9496
  979TIP3    H1 2943   2.221   4.980   0.114  0.1151  0.9187  0.4716
  979TIP3    H2 2944   2.095   4.982   0.032 -0.0747  1.3354  0.7679
  980TIP3   OH2 2945   4.027   1.702   1.324 -0.4484  0.2647 -0.4108
  980TIP3    H1 2946   4.024   1.633   1.258  1.5744 -0.1181 -0.1758
  980TIP3    H2 2947   4.001   1.781   1.277 -2.7561 -0.5858 -0.6931
  981TIP3   OH2 2948   5.754   3.836   2.177  0.0924  0.6876 -0.2727
  981TIP3    H1 2949   5.791   3.754   2.208 -0.2806  0.0964 -1.3479
  981TIP3    H2 2950   5.672   3.811   2.135  0.2587  1.5321 -1.1338
  982TIP3   OH2 2951  -0.015   4.170   4.394 -0.2709 -0.4890 -1.1574
  982TIP3    H1 2952   0.061   4.152   4.449 -0.9056  1.9393  0.6774
  982TIP3    H2 2953   0.017   4.158   4.304  1.6922 -1.4408 -0.3833
  983TIP3   OH2 2954   3.185   2.890   1.728  0.3832 -0.1835 -0.3717
  983TIP3    H1 2955   3.200   2.797   1.749  0.5357  0.2143  1.5141
  983TIP3    H2 2956   3.240   2.937   1.791 -1.0541  1.1982 -0.0848
  984TIP3   OH2 2957   5.629   3.169   0.843 -0.1184 -0.2623  0.1276
  984TIP3    H1 2958   5.680   3.196   0.767  0.6013  0.5673  0.8735
  984TIP3    H2 2959   5.604   3.251   0.885 -0.6767 -0.7043  0.6856
  985TIP3   OH2 2960   2.675   5.742   0.406 -0.2542  0.2202  0.3112
  985TIP3    H1 2961   2.603   5.775   0.459 -0.2603 -0.1501  0.5372
  985TIP3    H2 2962   2.675   5.797   0.328  0.4459  1.4875  1.1759
  986TIP3   OH2 2963   4.032   3.689   3.252  0.1633 -0.5275 -0.0429
  986TIP3    H1 2964   4.102   3.657   3.308  1.2898  0.7874 -0.6481
  986TIP3    H2 2965   4.061   3.669   3.163 -0.9073 -1.2360 -0.2540
  987TIP3   OH2 2966   4.709   3.223   0.630  0.6419  0.2408 -0.7159
  987TIP3    H1 2967   4.760   3.147   0.601  1.8885 -0.3575  2.5692
  987TIP3    H2 2968   4.759   3.258   0.704 -2.4968  1.1096  1.1972
  988TIP3   OH2 2969   5.509   1.527   3.641 -0.5386 -0.4167 -0.3867
  988TIP3    H1 2970   5.487   1.620   3.638 -0.0070 -0.0949  2.4836
  988TIP3    H2 2971   5.440   1.488   3.696  0.1983 -1.3845 -0.1203
  989TIP3   OH2 2972   6.162   4.683   4.981  0.1270  1.1035 -0.4910
  989TIP3    H1 2973   6.150   4.767   5.025 -1.0970  1.2998 -1.1532
  989TIP3    H2 2974   6.079   4.637   4.993  0.7223  0.0498 -0.2825
  990TIP3   OH2 2975   4.965   0.517   1.452 -0.2076 -0.1916  0.5280
  990TIP3    H1 2976   4.901   0.571   1.407 -0.6014 -0.9238  0.1988
  990TIP3    H2 2977   4.919   0.435   1.471  0.9803 -1.2040 -0.7969
  991TIP3   OH2 2978   1.847   0.283   0.607 -0.0215  0.4542  0.7209
  991TIP3    H1 2979   1.842   0.198   0.649  0.2023  0.2126  0.2609
  991TIP3    H2 2980   1.764   0.325   0.628 -0.9000 -0.5723 -0.5322
  992TIP3   OH2 2981   3.550  -0.010   3.877  0.5490  0.5549 -0.2645
  992TIP3    H1 2982   3.560   0.081   3.849 -1.6541  0.2059 -2.5295
  992TIP3    H2 2983   3.495  -0.050   3.809  0.1116 -2.0643  1.4943
  993TIP3   OH2 2984   2.043   4.311   4.687 -0.2293  0.0091  0.2913
  993TIP3    H1 2985   2.021   4.264   4.768 -0.8796 -0.1961 -0.0012
  993TIP3    H2 2986   1.961   4.314   4.638 -0.0539  0.9442  0.0425
  994TIP3   OH2 2987   1.355   1.618   5.067 -0.2572  0.4254  0.1985
  994TIP3    H1 2988   1.435   1.670   5.056  0.1331 -0.1586  0.2182
  994TIP3    H2 2989   1.299   1.672   5.123 -0.3691  1.3626 -0.7954
  995TIP3   OH2 2990   1.138   0.609   1.287  0.2496  0.2216 -0.3771
  995TIP3    H1 2991   1.090   0.675   1.238 -0.0031 -0.1146 -0.5904
  995TIP3    H2 2992   1.120   0.629   1.379  0.2262  0.4871 -0.4402
  996TIP3   OH2 2993   2.113   0.333   0.286  0.4668  0.3696  0.1512
  996TIP3    H1 2994   2.091   0.395   0.216 -3.7735  0.3418  1.2435
  996TIP3    H2 2995   2.074   0.370   0.365 -2.7161 -3.7061  0.8232
  997TIP3   OH2 2996   3.753   2.362   3.649  0.0118  0.1666  0.0504
  997TIP3    H1 2997   3.812   2.292   3.675 -0.4100 -0.0132  0.5461
  997TIP3    H2 2998   3.734   2.408   3.731  0.1806  0.7781 -0.2505
  998TIP3   OH2 2999   5.301   1.496   4.745  0.1516 -0.0039  0.2001
  998TIP3    H1 3000   5.278   1.439   4.819 -1.2221  0.1353 -0.0936
  998TIP3    H2 3001   5.217   1.518   4.704  0.8228  0.5985 -0.9109
  999TIP3   OH2 3002   5.505   1.917   3.121  0.4461 -0.0988  0.5334
  999TIP3    H1 3003   5.468   2.006   3.120  0.2054 -0.1757  1.7859
  999TIP3    H2 3004   5.513   1.895   3.213  0.8347 -1.2568  0.2388
 1000TIP3   OH2 3005   0.190   4.455   4.668 -0.1294  0.3204 -0.6319
 1000TIP3    H1 3006   0.214   4.538   4.627 -0.9282  1.8195  1.6941
 1000TIP3    H2 3007   0.246   4.390   4.626  1.9223  2.3448 -1.2199
 1001TIP3   OH2 3008   2.432   5.453   3.457 -0.2104  0.1269 -0.1834
 1001TIP3    H1 3009   2.474   5.497   3.382  0.0145  1.4418  0.6771
 1001TIP3    H2 3010   2.464   5.363   3.453 -1.0644 -0.1445 -2.3111
 1002TIP3   OH2 3011   5.243   5.258   3.813 -0.0098 -0.0291  0.1029
 1002TIP3    H1 3012   5.310   5.199   3.846  0.6089  0.7406  0.2545
 1002TIP3    H2 3013   5.252   5.255   3.718 -0.5136 -0.7770  0.0699
 1003TIP3   OH2 3014   4.624   2.476   1.093 -0.1896 -0.8343 -0.2464
 1003TIP3    H1 3015   4.577   2.395   1.076 -0.3507 -0.8412  0.2280
 1003TIP3    H2 3016   4.715   2.450   1.103  0.0032 -0.7753 -1.5716
 1004TIP3   OH2 3017   0.964   5.361   2.740  0.2144  0.5816  0.2069
 1004TIP3    H1 3018   1.057   5.357   2.718 -0.1764  0.8926 -1.7318
 1004TIP3    H2 3019   0.920   5.329   2.661 -1.3125 -0.4083  1.4042
 1005TIP3   OH2 3020   1.793   2.039   4.177  0.0448  0.1933 -0.2716
 1005TIP3    H1 3021   1.710   2.017   4.135  0.8784 -1.0178 -1.3559
 1005TIP3    H2 3022   1.769   2.066   4.266 -1.4596 -0.7377 -0.3629
 1006TIP3   OH2 3023   5.885   3.445   1.732 -0.2518 -0.1510  0.2104
 1006TIP3    H1 3024   5.837   3.520   1.696 -0.3363 -0.1756  0.2728
 1006TIP3    H2 3025   5.845   3.369   1.691  1.0647 -0.0692 -1.2998
 1007TIP3   OH2 3026   2.466   2.565   5.052 -0.0031 -0.1590  0.0792
 1007TIP3    H1 3027   2.494   2.644   5.097  3.4866  0.3275 -2.4848
 1007TIP3    H2 3028   2.430   2.595   4.969 -2.0293 -1.1799  0.5314
 1008TIP3   OH2 3029   3.582   3.355   0.648  0.3205 -0.3395 -0.8371
 1008TIP3    H1 3030   3.609   3.290   0.713  2.3695  0.5939 -0.6644
 1008TIP3    H2 3031   3.607   3.317   0.564  0.8471 -0.1038 -0.7918
 1009TIP3   OH2 3032   1.145   2.333   4.178  0.0892  0.0298 -0.4614
 1009TIP3    H1 3033   1.083   2.334   4.105  0.0680 -1.1579 -0.4800
 1009TIP3    H2 3034   1.159   2.240   4.197  2.1263  0.2531 -0.6571
 1010TIP3   OH2 3035   2.931   4.939   4.964 -0.1026  0.5955  0.2844
 1010TIP3    H1 3036   2.996   4.963   4.898  0.3293 -0.2294  0.3922
 1010TIP3    H2 3037   2.980   4.940   5.047 -0.3421  0.4292  0.4271
 1011TIP3   OH2 3038   4.913   4.101   3.172 -0.1000  0.0248  0.6196
 1011TIP3    H1 3039   4.907   4.118   3.266  1.5237 -0.4500  0.8475
 1011TIP3    H2 3040   4.859   4.169   3.132  2.2901  2.8133  1.7173
 1012TIP3   OH2 3041   0.516   1.021   3.980  0.0870 -0.4478  0.3108
 1012TIP3    H1 3042   0.470   1.050   4.059  2.0694 -2.4293  2.3666
 1012TIP3    H2 3043   0.551   1.101   3.942 -2.4660  0.7702  0.3083
 1013TIP3   OH2 3044   2.278   3.995   0.872  0.2851 -0.3254 -0.0253
 1013TIP3    H1 3045   2.343   4.053   0.911 -1.2789  0.8340  0.9987
 1013TIP3    H2 3046   2.325   3.949   0.802  1.8114  1.5263 -0.2906
 1014TIP3   OH2 3047   2.970   1.492   1.192  0.0743  0.2691  0.2599
 1014TIP3    H1 3048   2.903   1.483   1.124  1.1180 -3.0469 -0.4851
 1014TIP3    H2 3049   2.924   1.471   1.274 -0.5113  1.3678  0.2343
 1015TIP3   OH2 3050   3.257   3.806   3.227 -0.3068  0.5366  0.4971
 1015TIP3    H1 3051   3.227   3.779   3.314  0.4986 -0.1847  0.5680
 1015TIP3    H2 3052   3.347   3.833   3.240 -0.3128  0.8290 -0.0422
 1016TIP3   OH2 3053   2.672   3.242   1.201  0.0252 -0.1982 -0.2008
 1016TIP3    H1 3054   2.671   3.194   1.283  0.7748  0.0359 -0.0429
 1016TIP3    H2 3055   2.759   3.225   1.164  1.5397  3.2804  1.2614
 1017TIP3   OH2 3056   0.743   1.384   4.760 -0.5148 -0.3618 -0.3156
 1017TIP3    H1 3057   0.778   1.339   4.683 -0.8561  2.5426 -2.3066
 1017TIP3    H2 3058   0.649   1.366   4.757 -0.3375 -1.4919  0.3499
 1018TIP3   OH2 3059   2.278   2.542   4.026 -0.1315  0.2368 -0.0593
 1018TIP3    H1 3060   2.200   2.597   4.035 -0.0964  0.2809 -0.0234
 1018TIP3    H2 3061   2.251   2.456   4.060 -0.3001  0.1259 -0.4682
 1019TIP3   OH2 3062   3.118   5.028   0.679  0.6784  0.4513  0.0247
 1019TIP3    H1 3063   3.176   5.097   0.709  0.2537  1.5866 -1.6254
 1019TIP3    H2 3064   3.176   4.964   0.637  1.0136  0.0350  1.0840
 1020TIP3   OH2 3065   5.176   4.709   0.400  0.5715  0.2176  0.9673
 1020TIP3    H1 3066   5.211   4.744   0.482 -1.4720  1.6326  1.3274
 1020TIP3    H2 3067   5.114   4.642   0.427 -0.6050  1.1481  0.6662
 1021TIP3   OH2 3068   6.375   5.632   4.105 -0.1157  0.1403 -0.4839
 1021TIP3    H1 3069   6.287   5.668   4.116  0.3261  1.2023 -0.3616
 1021TIP3    H2 3070   6.367   5.572   4.030 -1.1551 -0.5275  0.1404
 1022TIP3   OH2 3071   2.881   2.321   2.472 -0.2188  0.2202  0.1502
 1022TIP3    H1 3072   2.801   2.310   2.420 -1.1088  1.5162  1.1641
 1022TIP3    H2 3073   2.858   2.387   2.537  1.2482 -0.4383  1.3997
 1023TIP3   OH2 3074   2.348   2.209   1.572  0.1295  0.1458 -0.0253
 1023TIP3    H1 3075   2.309   2.191   1.486 -1.8691 -1.3666  1.1207
 1023TIP3    H2 3076   2.307   2.291   1.600 -1.4137 -0.8172  0.6533
 1024TIP3   OH2 3077   3.192   2.706   3.527 -0.0739  0.3355 -0.0805
 1024TIP3    H1 3078   3.144   2.643   3.474  0.0728  1.9235 -2.2583
 1024TIP3    H2 3079   3.124   2.762   3.565 -0.1120  0.2328  0.0012
 1025TIP3   OH2 3080   0.266   0.598   0.521 -0.1172  0.2725  0.1899
 1025TIP3    H1 3081   0.246   0.688   0.547  1.6366  0.6224  0.4836
 1025TIP3    H2 3082   0.356   0.602   0.488 -0.5776 -1.0799 -1.3728
 1026TIP3   OH2 3083   4.105   2.162   3.048 -0.1934 -0.1204 -0.2095
 1026TIP3    H1 3084   4.146   2.118   2.974  0.7997 -0.1113  0.3203
 1026TIP3    H2 3085   4.156   2.134   3.124 -0.9712  0.1552  0.4300
 1027TIP3   OH2 3086   1.668   1.122   0.880 -0.4240  0.0092  0.1318
 1027TIP3    H1 3087   1.735   1.171   0.833 -1.0728  0.5708 -0.2152
 1027TIP3    H2 3088   1.716   1.050   0.922  0.2215 -0.2508 -1.0303
 1028TIP3   OH2 3089   4.159   5.616   0.841 -0.1760 -0.4581  0.3592
 1028TIP3    H1 3090   4.158   5.645   0.749  1.0920 -0.2251  0.3913
 1028TIP3    H2 3091   4.072   5.637   0.874 -1.0454 -1.5759 -1.0894
 1029TIP3   OH2 3092   6.302   2.444   4.012  0.0870 -0.3988  0.2108
 1029TIP3    H1 3093   6.242   2.518   4.003 -0.6530 -1.0198 -0.0429
 1029TIP3    H2 3094   6.365   2.473   4.078 -1.9491 -0.6254  2.4056
 1030TIP3   OH2 3095   0.615   2.935   4.188  0.0744  0.0617  0.1464
 1030TIP3    H1 3096   0.525   2.915   4.160  0.1744 -0.1887  0.0041
 1030TIP3    H2 3097   0.604   3.004   4.254 -0.1732  0.5599 -0.3996
 1031TIP3   OH2 3098   0.386   0.244   1.703 -0.4218  0.1274  0.0475
 1031TIP3    H1 3099   0.467   0.243   1.651 -1.1626  1.9336 -1.2878
 1031TIP3    H2 3100   0.404   0.305   1.774 -0.9081  1.4270 -0.8961
 1032TIP3   OH2 3101   5.823   0.520   1.616  0.2889  0.1372 -0.0967
 1032TIP3    H1 3102   5.850   0.592   1.559  0.2637  0.4924  0.3409
 1032TIP3    H2 3103   5.865   0.538   1.699  0.5080 -0.5033 -0.0621
 1033TIP3   OH2 3104   5.309   5.001   2.619  0.1123 -0.0750  0.3905
 1033TIP3    H1 3105   5.305   5.090   2.654 -0.6100 -0.1316  0.4652
 1033TIP3    H2 3106   5.258   5.004   2.538 -0.9781 -0.6847  1.0121
 1034TIP3   OH2 3107   0.521   3.143   0.106  0.5395 -0.4905  0.0786
 1034TIP3    H1 3108   0.532   3.237   0.091  0.8256 -0.5410 -0.0300
 1034TIP3    H2 3109   0.513   3.105   0.018  0.7381 -0.6065  0.1114
 1035TIP3   OH2 3110   6.111   5.203   3.610 -0.4113 -0.0369  0.6669
 1035TIP3    H1 3111   6.162   5.137   3.656 -2.5290 -0.3042  2.8460
 1035TIP3    H2 3112   6.026   5.161   3.594 -1.2180  1.5713  0.5016
 1036TIP3   OH2 3113   5.710   1.341   3.687 -0.2563 -0.0799 -0.0214
 1036TIP3    H1 3114   5.707   1.301   3.601  1.5820  0.0183 -0.1747
 1036TIP3    H2 3115   5.648   1.414   3.682  0.8623  0.8122 -1.7585
 1037TIP3   OH2 3116   1.781   3.912   0.579  0.0354  0.0140  0.5376
 1037TIP3    H1 3117   1.826   3.828   0.569 -1.0649 -0.6918  1.2563
 1037TIP3    H2 3118   1.738   3.906   0.664  1.1886  1.9435  1.3341
 1038TIP3   OH2 3119   6.313   3.076   1.329 -0.3345 -0.2479  0.6723
 1038TIP3    H1 3120   6.269   3.044   1.251 -0.1577 -1.8395  1.1921
 1038TIP3    H2 3121   6.254   3.143   1.363 -1.2821 -0.7818  0.1388
 1039TIP3   OH2 3122   1.495   3.338   3.818  0.1825  0.0475  0.5424
 1039TIP3    H1 3123   1.582   3.366   3.845  0.6579 -0.8535 -0.0339
 1039TIP3    H2 3124   1.441   3.349   3.896  0.4596  2.0034  0.5144
 1040TIP3   OH2 3125   3.986   5.803   1.205  0.5681  0.0756 -0.7695
 1040TIP3    H1 3126   3.917   5.829   1.144  0.5160 -0.1651 -0.8151
 1040TIP3    H2 3127   3.976   5.864   1.279 -0.1855 -0.4229 -0.4383
 1041TIP3   OH2 3128   6.217   3.195   0.107  0.0502 -0.0865  0.2857
 1041TIP3    H1 3129   6.241   3.191   0.014 -0.3897  1.0168  0.1057
 1041TIP3    H2 3130   6.180   3.283   0.118 -2.1884 -1.0571  0.9730
 1042TIP3   OH2 3131   5.595   3.132   5.197  0.5148  0.1301 -0.7727
 1042TIP3    H1 3132   5.669   3.084   5.159  0.6743 -0.3527  0.1162
 1042TIP3    H2 3133   5.521   3.112   5.139  0.8945 -0.0559 -1.1989
 1043TIP3   OH2 3134   2.373   5.185   3.187  0.1214 -0.4483  0.7262
 1043TIP3    H1 3135   2.356   5.097   3.154 -0.9145 -0.4849  1.3238
 1043TIP3    H2 3136   2.438   5.221   3.127 -0.0274 -1.3288  0.0207
 1044TIP3   OH2 3137   1.658   5.499   1.486 -0.3696 -0.3525 -0.3465
 1044TIP3    H1 3138   1.713   5.538   1.418  0.1483 -1.1773 -0.4122
 1044TIP3    H2 3139   1.709   5.425   1.519  0.1685  1.0475  2.1913
 1045TIP3   OH2 3140   2.639   1.616   2.391 -0.1405  0.4313 -0.1787
 1045TIP3    H1 3141   2.676   1.700   2.420 -2.1630  0.9545  1.0917
 1045TIP3    H2 3142   2.715   1.564   2.365  1.3372  1.9725  0.8367
 1046TIP3   OH2 3143   1.981   3.779   1.094 -0.5760 -0.1288  0.7509
 1046TIP3    H1 3144   2.000   3.774   1.188 -0.3894 -1.9598  0.6417
 1046TIP3    H2 3145   2.060   3.747   1.052 -1.0683 -0.3974  0.0086
 1047TIP3   OH2 3146   5.906   3.621   0.203  0.0818 -0.1834  0.2093
 1047TIP3    H1 3147   5.910   3.566   0.124 -1.3163 -1.5713  1.0466
 1047TIP3    H2 3148   5.904   3.558   0.275 -1.1680  0.9790  1.2258
 1048TIP3   OH2 3149   1.253   3.144   0.875  0.0643  0.4908 -0.8697
 1048TIP3    H1 3150   1.305   3.074   0.837 -1.2691 -0.6686 -0.6712
 1048TIP3    H2 3151   1.166   3.132   0.837 -0.5770  1.0735  0.3423
 1049TIP3   OH2 3152   2.546   4.782   2.763  0.1469  0.1405 -0.4012
 1049TIP3    H1 3153   2.465   4.778   2.814  0.7468  1.8631  0.7502
 1049TIP3    H2 3154   2.537   4.711   2.699 -1.2875 -1.1435  1.1271
 1050TIP3   OH2 3155   3.433   5.129   3.040  0.1644  0.2476  0.4636
 1050TIP3    H1 3156   3.393   5.097   2.959  0.2015  1.8430 -0.2271
 1050TIP3    H2 3157   3.527   5.125   3.023  0.4889 -3.7814  2.1904
 1051TIP3   OH2 3158   2.787   3.233   2.647  0.3771 -0.6944  0.1017
 1051TIP3    H1 3159   2.734   3.254   2.724 -1.4816 -1.0211 -1.0115
 1051TIP3    H2 3160   2.806   3.318   2.607  3.6243 -0.2531  2.2124
 1052TIP3   OH2 3161   5.948   4.693   1.381 -0.0022  0.0155  0.6344
 1052TIP3    H1 3162   6.022   4.709   1.440 -1.3026  1.7705  1.9135
 1052TIP3    H2 3163   5.881   4.655   1.437 -1.2984  1.7940  0.3738
 1053TIP3   OH2 3164   2.455   3.998   2.733 -0.5084  0.4422 -0.5105
 1053TIP3    H1 3165   2.508   3.920   2.749  1.4481  1.5443 -1.3196
 1053TIP3    H2 3166   2.465   4.015   2.640 -0.2090  2.1128 -0.1996
 1054TIP3   OH2 3167   4.095   0.162   2.984 -0.1665  0.0974 -0.1567
 1054TIP3    H1 3168   4.028   0.142   2.919  0.4215 -0.1539 -0.6972
 1054TIP3    H2 3169   4.178   0.146   2.939  0.2581  0.2429  0.5519
 1055TIP3   OH2 3170   4.134   3.333   3.517 -0.1899 -0.3245 -0.1338
 1055TIP3    H1 3171   4.076   3.342   3.442  0.1547 -1.6385 -0.5795
 1055TIP3    H2 3172   4.221   3.318   3.479 -0.1171 -1.6521  0.5074
 1056TIP3   OH2 3173   3.356   2.397   4.166  0.1611  0.1745  0.1325
 1056TIP3    H1 3174   3.294   2.325   4.175 -0.3640  0.6782  0.5501
 1056TIP3    H2 3175   3.414   2.389   4.242  0.6496 -0.3237 -0.2822
 1057TIP3   OH2 3176   0.383   3.652   3.947  0.1522  0.0827  0.0451
 1057TIP3    H1 3177   0.403   3.563   3.920 -0.6064  0.5115 -2.1535
 1057TIP3    H2 3178   0.369   3.646   4.041  2.0241 -1.7321  0.2721
 1058TIP3   OH2 3179   0.267   3.481   3.514  0.5159  0.0174 -0.4519
 1058TIP3    H1 3180   0.270   3.406   3.455 -0.6788  2.3203 -3.7754
 1058TIP3    H2 3181   0.177   3.512   3.508  1.3783  2.7604 -0.7720
 1059TIP3   OH2 3182   1.122   3.735   2.017  0.4502 -0.5983  0.1135
 1059TIP3    H1 3183   1.156   3.652   2.053 -0.8954 -0.5076  1.7105
 1059TIP3    H2 3184   1.076   3.709   1.938  0.3329 -1.3455  0.4125
 1060TIP3   OH2 3185   4.222   1.949   4.523  0.0570  0.0455  0.4581
 1060TIP3    H1 3186   4.298   1.903   4.485  0.7535  1.0138  0.6503
 1060TIP3    H2 3187   4.147   1.895   4.497  0.7368 -0.5569 -0.3390
 1061TIP3   OH2 3188   3.882   2.275   0.673 -0.1882  0.7603 -0.0856
 1061TIP3    H1 3189   3.886   2.252   0.766  1.2344 -1.2686 -0.5770
 1061TIP3    H2 3190   3.971   2.303   0.652  0.3932 -1.8089 -1.4565
 1062TIP3   OH2 3191   2.070   0.238   1.313  0.1181 -0.3825 -0.0694
 1062TIP3    H1 3192   2.129   0.171   1.349  0.2052 -1.0500 -1.3927
 1062TIP3    H2 3193   1.982   0.207   1.334  0.1525 -1.0235 -0.8291
 1063TIP3   OH2 3194   3.798   2.500   4.102 -0.3286 -0.1032 -0.2378
 1063TIP3    H1 3195   3.805   2.429   4.165  1.9321 -0.7730 -1.1220
 1063TIP3    H2 3196   3.837   2.576   4.146 -0.8104  0.0339 -0.0436
 1064TIP3   OH2 3197   5.905   5.893   4.126  0.2438  0.7711 -0.2407
 1064TIP3    H1 3198   5.830   5.877   4.070  0.9443  0.8632 -1.2316
 1064TIP3    H2 3199   5.872   5.950   4.196 -1.2119 -1.2410  0.8307
 1065TIP3   OH2 3200   3.590   4.612   0.427 -0.3861  0.2910 -0.5686
 1065TIP3    H1 3201   3.605   4.586   0.518 -1.9613 -1.5852 -0.7677
 1065TIP3    H2 3202   3.629   4.542   0.375 -0.3372  0.8631 -1.3300
 1066TIP3   OH2 3203   3.682   5.302   3.982  0.6035  0.1453  0.2110
 1066TIP3    H1 3204   3.608   5.348   4.021  1.1538  1.0128  0.2491
 1066TIP3    H2 3205   3.646   5.217   3.956 -0.0235 -0.0647  1.6521
 1067TIP3   OH2 3206   5.979   0.312   5.165  0.1127 -0.5830  0.4734
 1067TIP3    H1 3207   5.983   0.299   5.259 -2.1946 -1.8781  0.4587
 1067TIP3    H2 3208   6.036   0.243   5.129  0.5280 -0.4556  0.8782
 1068TIP3   OH2 3209   5.771   2.325   4.475  0.0516 -0.2442  0.5554
 1068TIP3    H1 3210   5.826   2.370   4.411  0.9632 -2.3621 -0.2537
 1068TIP3    H2 3211   5.781   2.232   4.454 -3.5594 -0.7765  0.6253
 1069TIP3   OH2 3212   5.397   4.996   4.682  0.0103  0.4924 -0.6766
 1069TIP3    H1 3213   5.476   5.048   4.694  0.6796 -0.3318 -1.4779
 1069TIP3    H2 3214   5.332   5.038   4.739  1.0653  1.0586  0.1245
 1070TIP3   OH2 3215   3.707   4.625   2.294  0.2534 -0.0622 -0.0682
 1070TIP3    H1 3216   3.748   4.710   2.277  2.0491 -0.8350  0.2013
 1070TIP3    H2 3217   3.751   4.592   2.372  0.2479 -1.6408 -0.6945
 1071TIP3   OH2 3218   0.630   1.603   3.227 -0.1032 -0.4397 -0.7296
 1071TIP3    H1 3219   0.558   1.543   3.205  0.3222 -0.4888 -2.0548
 1071TIP3    H2 3220   0.708   1.549   3.222  0.0868 -0.2874  0.3175
 1072TIP3   OH2 3221   0.070   2.797   2.049  0.4233  0.2680 -0.2803
 1072TIP3    H1 3222   0.044   2.879   2.009  1.4756 -0.7689 -3.3184
 1072TIP3    H2 3223   0.164   2.805   2.065  0.3699 -0.0412  0.2403
 1073TIP3   OH2 3224   2.389   4.364   2.109 -0.1405  0.1066 -0.1301
 1073TIP3    H1 3225   2.409   4.289   2.163 -0.4623  0.2824  0.2397
 1073TIP3    H2 3226   2.383   4.329   2.020  1.9912  0.0796 -0.3116
 1074TIP3   OH2 3227   6.168   3.721   4.208 -0.1035 -0.5074  0.4243
 1074TIP3    H1 3228   6.121   3.782   4.151  0.7218 -0.0731  0.2012
 1074TIP3    H2 3229   6.111   3.645   4.213 -1.6245  0.6292  1.4708
 1075TIP3   OH2 3230   4.013   2.373   2.726  0.5958  0.1760 -0.4174
 1075TIP3    H1 3231   3.947   2.408   2.787  0.9648  0.0853  0.0402
 1075TIP3    H2 3232   4.048   2.296   2.771 -0.5130 -1.0753 -1.5845
 1076TIP3   OH2 3233   3.484   5.857   3.097  0.4433  0.0555 -0.1546
 1076TIP3    H1 3234   3.431   5.836   3.020 -0.6032  0.3188  0.4637
 1076TIP3    H2 3235   3.428   5.834   3.171  1.6290 -0.6797  0.5434
 1077TIP3   OH2 3236   1.630   0.107   0.706 -1.0049 -0.1498 -0.0423
 1077TIP3    H1 3237   1.581   0.026   0.700 -3.0981  0.9915  0.6941
 1077TIP3    H2 3238   1.717   0.080   0.737 -1.6528 -2.0886  0.2243
 1078TIP3   OH2 3239   3.861   0.710   0.691 -0.3730 -0.5267  0.3379
 1078TIP3    H1 3240   3.941   0.761   0.701 -0.4972 -0.6038  2.0455
 1078TIP3    H2 3241   3.820   0.713   0.777 -2.0179 -0.8233 -0.4026
 1079TIP3   OH2 3242   2.102   0.647   3.553  0.3355 -0.4071  0.3694
 1079TIP3    H1 3243   2.195   0.633   3.534  0.7520  1.0189  1.2221
 1079TIP3    H2 3244   2.060   0.652   3.467  1.0161 -1.1370 -0.0225
 1080TIP3   OH2 3245   1.899   5.941   1.525 -0.3078 -0.6225  0.1141
 1080TIP3    H1 3246   1.915   5.858   1.479 -2.3484 -0.2038 -1.4996
 1080TIP3    H2 3247   1.853   5.916   1.605  2.9522 -1.3307  1.9412
 1081TIP3   OH2 3248   3.034   1.410   2.338 -0.0747 -0.0313 -0.5267
 1081TIP3    H1 3249   3.122   1.383   2.365  0.1444  1.4183  0.2720
 1081TIP3    H2 3250   2.978   1.339   2.367  0.6328 -0.2126  0.4398
 1082TIP3   OH2 3251   0.901   3.804   4.811  0.4071 -0.2467  0.8662
 1082TIP3    H1 3252   0.854   3.733   4.853 -0.2715  0.5610  1.4968
 1082TIP3    H2 3253   0.834   3.851   4.760  0.6357  0.5290  1.2610
 1083TIP3   OH2 3254   6.233   0.159   0.047  0.2700  0.0791 -0.3326
 1083TIP3    H1 3255   6.323   0.186   0.026  0.6423 -0.6718  0.2481
 1083TIP3    H2 3256   6.244   0.083   0.103 -0.7282  0.7876  0.8554
 1084TIP3   OH2 3257   1.214   5.088   2.246 -1.0547 -0.0546  0.4281
 1084TIP3    H1 3258   1.178   5.060   2.330  1.3157 -1.7650  0.9614
 1084TIP3    H2 3259   1.186   5.020   2.184 -2.3051  0.8977 -0.0977
 1085TIP3   OH2 3260   4.299   0.750   3.473 -0.1985  0.3143  0.3689
 1085TIP3    H1 3261   4.253   0.832   3.453 -1.5957 -0.4007  0.5414
 1085TIP3    H2 3262   4.276   0.692   3.401 -0.9452 -0.5905  1.3065
 1086TIP3   OH2 3263   0.043   3.782   4.072  0.4203 -0.4033  0.0087
 1086TIP3    H1 3264  -0.031   3.768   4.132 -0.7060  0.1983 -1.1758
 1086TIP3    H2 3265   0.057   3.876   4.074 -0.7550 -0.1306 -1.8773
 1087TIP3   OH2 3266   5.231   5.490   1.764 -0.0105 -0.1067 -0.4275
 1087TIP3    H1 3267   5.246   5.554   1.833 -2.2347 -0.9563  0.9658
 1087TIP3    H2 3268   5.206   5.541   1.687 -0.4022  0.7424  0.2595
 1088TIP3   OH2 3269   1.527   5.844   1.365  0.1313 -0.5929 -0.2937
 1088TIP3    H1 3270   1.582   5.922   1.364  0.5935 -0.9048  0.1578
 1088TIP3    H2 3271   1.442   5.873   1.332  1.2824 -0.6440 -3.6673
 1089TIP3   OH2 3272   2.739   5.127   3.277  0.1119  0.6218  0.7539
 1089TIP3    H1 3273   2.665   5.162   3.327  0.1454 -0.0586  1.3010
 1089TIP3    H2 3274   2.710   5.039   3.251  0.3265  0.7513  0.0730
 1090TIP3   OH2 3275   1.045   5.166   4.805  0.2814 -0.2531  0.2748
 1090TIP3    H1 3276   1.045   5.254   4.843 -0.9903 -0.2090  0.2230
 1090TIP3    H2 3277   1.017   5.109   4.877 -0.6229 -0.3689 -0.1537
 1091TIP3   OH2 3278   5.517   3.676   4.271 -0.1516 -0.1390  0.1179
 1091TIP3    H1 3279   5.555   3.590   4.288  0.5719 -0.3224 -2.0701
 1091TIP3    H2 3280   5.425   3.659   4.253 -0.1055 -0.4118  0.1361
 1092TIP3   OH2 3281   2.156   1.902   0.374 -0.1570 -0.1605  0.1997
 1092TIP3    H1 3282   2.136   1.994   0.357  1.0657  0.3215  1.2031
 1092TIP3    H2 3283   2.087   1.854   0.327  1.2884  1.0729 -3.5712
 1093TIP3   OH2 3284   0.247   0.382   2.663 -0.3930 -0.3669 -0.2295
 1093TIP3    H1 3285   0.267   0.475   2.668 -1.8424  0.0083 -0.9615
 1093TIP3    H2 3286   0.308   0.348   2.596  0.6603 -0.1294  0.5788
 1094TIP3   OH2 3287   4.936   1.658   2.547 -0.0385 -0.0083 -0.2727
 1094TIP3    H1 3288   4.924   1.605   2.468 -2.5809 -0.8188  0.5547
 1094TIP3    H2 3289   4.867   1.628   2.606  0.1367  2.3778  1.2781
 1095TIP3   OH2 3290   2.067   4.208   3.462 -0.4281  0.2953  0.0649
 1095TIP3    H1 3291   1.988   4.200   3.515  0.3398  0.0285  1.2286
 1095TIP3    H2 3292   2.069   4.299   3.434  0.1285  0.9939  2.1907
 1096TIP3   OH2 3293   5.390   2.397   4.338  0.2003  0.0992 -0.0841
 1096TIP3    H1 3294   5.388   2.329   4.404 -1.5403  1.1946  1.0498
 1096TIP3    H2 3295   5.372   2.351   4.256 -3.1548 -0.5926  0.9148
 1097TIP3   OH2 3296   1.537   4.548   2.378  0.0300  0.9240 -0.1439
 1097TIP3    H1 3297   1.555   4.598   2.298  0.8344 -0.7746 -1.0848
 1097TIP3    H2 3298   1.490   4.471   2.347  0.4268  0.1900  1.0211
 1098TIP3   OH2 3299   5.869   5.714   3.668 -0.3452  0.6985  0.6227
 1098TIP3    H1 3300   5.836   5.625   3.674  0.5790  0.2387 -0.6650
 1098TIP3    H2 3301   5.854   5.740   3.577  1.2093  1.0887  0.4408
 1099TIP3   OH2 3302   6.258   4.054   0.280 -0.3648  0.9043  0.1355
 1099TIP3    H1 3303   6.264   4.146   0.255 -3.9077  1.1690 -0.3326
 1099TIP3    H2 3304   6.183   4.021   0.230 -0.4775 -1.6732  1.8405
 1100TIP3   OH2 3305   6.041   4.533   0.127 -0.2369  0.4029 -0.0194
 1100TIP3    H1 3306   5.970   4.512   0.067  0.2034  0.6253 -0.6304
 1100TIP3    H2 3307   6.121   4.518   0.076  0.1354  1.1967  0.3042
 1101TIP3   OH2 3308   4.232   1.493   0.054  0.4852  0.3978 -0.2901
 1101TIP3    H1 3309   4.274   1.414   0.020  0.8266 -0.0645  1.1220
 1101TIP3    H2 3310   4.304   1.546   0.088  0.2243  1.1824 -0.9270
 1102TIP3   OH2 3311   6.154   3.409   2.949  0.1811 -0.1842  0.0062
 1102TIP3    H1 3312   6.108   3.435   2.870 -1.9542  0.7907  1.4678
 1102TIP3    H2 3313   6.212   3.483   2.969  0.3708 -0.2274 -0.3843
 1103TIP3   OH2 3314   3.576   2.016   4.335 -0.0533 -0.5202 -0.1504
 1103TIP3    H1 3315   3.624   2.021   4.418  1.1062 -1.0027 -0.7585
 1103TIP3    H2 3316   3.563   2.107   4.309  0.9254 -0.3667 -0.1611
 1104TIP3   OH2 3317   5.771   0.734   0.064 -0.0457 -0.0039  0.0012
 1104TIP3    H1 3318   5.697   0.793   0.080 -0.4453 -0.8124  1.2272
 1104TIP3    H2 3319   5.846   0.779   0.101 -0.2070  0.0792  0.2265
 1105TIP3   OH2 3320   5.958   2.993   0.217  0.1916 -0.2125  0.0983
 1105TIP3    H1 3321   6.043   3.022   0.250 -0.0433 -0.5469  1.0176
 1105TIP3    H2 3322   5.942   2.909   0.260 -0.7190 -0.0377  0.1372
 1106TIP3   OH2 3323   1.925   3.177   0.216 -0.1321  0.0414  0.1113
 1106TIP3    H1 3324   1.930   3.144   0.126  1.5837  0.4741  0.0123
 1106TIP3    H2 3325   1.895   3.102   0.267 -0.6959 -0.3358 -0.7407
 1107TIP3   OH2 3326   1.534   5.703   2.337 -0.3924  0.0198  0.0169
 1107TIP3    H1 3327   1.597   5.698   2.409 -1.7365  1.1104  1.3363
 1107TIP3    H2 3328   1.458   5.655   2.369 -0.6849 -0.2587 -1.0726
 1108TIP3   OH2 3329   4.794   3.865   3.445  0.0330  0.2161  0.3073
 1108TIP3    H1 3330   4.734   3.819   3.505 -0.0746 -1.4802 -1.0080
 1108TIP3    H2 3331   4.737   3.897   3.375  0.2623  1.5015  0.6881
 1109TIP3   OH2 3332   5.080   5.137   4.550  0.1511  0.6767 -0.2599
 1109TIP3    H1 3333   5.097   5.184   4.468 -0.7945  1.7293  0.1120
 1109TIP3    H2 3334   5.150   5.167   4.609  1.1355 -0.4742 -0.8120
 1110TIP3   OH2 3335   4.387   4.460   4.913  0.7305 -0.4852 -0.5856
 1110TIP3    H1 3336   4.362   4.368   4.925  0.2996 -0.7688 -3.1065
 1110TIP3    H2 3337   4.304   4.507   4.909  0.9071 -0.1650 -0.4892
 1111TIP3   OH2 3338   4.905   4.911   3.059 -0.1247  0.3828  0.0903
 1111TIP3    H1 3339   4.829   4.964   3.033 -1.3876 -0.8949  1.0459
 1111TIP3    H2 3340   4.935   4.950   3.141  0.4029  1.0184 -0.3961
 1112TIP3   OH2 3341   5.632   4.483   0.224  0.0207 -0.5916 -0.0577
 1112TIP3    H1 3342   5.589   4.478   0.309  1.6116 -0.2269  0.8119
 1112TIP3    H2 3343   5.561   4.483   0.160 -1.1864 -1.2008  1.2576
 1113TIP3   OH2 3344   3.173   5.026   4.764 -0.2749  0.2195  0.4596
 1113TIP3    H1 3345   3.217   4.942   4.777  1.5891  1.2686  1.3578
 1113TIP3    H2 3346   3.203   5.055   4.677  0.7637  0.8605  1.0055
 1114TIP3   OH2 3347   1.822   5.883   2.135  0.5646 -0.2462  0.2117
 1114TIP3    H1 3348   1.777   5.928   2.064  0.4552 -0.7019 -0.0125
 1114TIP3    H2 3349   1.797   5.931   2.214  0.3908  0.0371 -0.0159
 1115TIP3   OH2 3350   1.654   2.728   1.267 -0.1263  0.4235 -0.1543
 1115TIP3    H1 3351   1.646   2.691   1.179 -0.8169 -0.1392  0.1396
 1115TIP3    H2 3352   1.641   2.654   1.326  0.6690  0.7288  0.4303
 1116TIP3   OH2 3353   1.481   2.719   2.557  0.0180  0.5429  0.0540
 1116TIP3    H1 3354   1.433   2.696   2.478 -0.7875 -1.2721  1.0079
 1116TIP3    H2 3355   1.417   2.710   2.628  1.5684 -1.6352  1.3376
 1117TIP3   OH2 3356   4.373   3.866   3.894 -0.1571 -0.0649  0.3824
 1117TIP3    H1 3357   4.289   3.843   3.934 -0.7268  1.0008 -0.1568
 1117TIP3    H2 3358   4.359   3.954   3.858  1.4488  0.5139  1.0599
 1118TIP3   OH2 3359   1.428   2.002   3.500  0.2120  0.3021 -0.6366
 1118TIP3    H1 3360   1.474   1.986   3.582  0.7033 -2.0956 -1.3127
 1118TIP3    H2 3361   1.455   2.091   3.474  1.3149  0.4631  0.9575
 1119TIP3   OH2 3362   6.294   3.582   1.752  0.4617 -0.1517  0.0326
 1119TIP3    H1 3363   6.241   3.644   1.702 -0.0699  1.0192  1.9184
 1119TIP3    H2 3364   6.230   3.523   1.793  0.8415 -0.7758 -0.2601
 1120TIP3   OH2 3365   0.708   1.209   0.185 -0.0603 -0.1584  0.3133
 1120TIP3    H1 3366   0.710   1.263   0.264  0.7319  1.5607 -0.8192
 1120TIP3    H2 3367   0.796   1.217   0.149 -0.7560  0.0776 -1.3907
 1121TIP3   OH2 3368   2.918   3.471   0.021 -0.1508  0.1450  0.0953
 1121TIP3    H1 3369   3.013   3.469   0.004 -0.0029 -0.7012  0.9389
 1121TIP3    H2 3370   2.892   3.560  -0.002  0.5747 -0.0284 -1.5576
 1122TIP3   OH2 3371   4.738   5.792   4.431  0.2240 -0.2651  0.0153
 1122TIP3    H1 3372   4.774   5.705   4.413  1.3583 -0.1182  1.4366
 1122TIP3    H2 3373   4.692   5.782   4.514 -2.0425 -0.1288 -1.1252
 1123TIP3   OH2 3374   4.706   2.133   1.610  0.5836 -0.0980  0.6649
 1123TIP3    H1 3375   4.760   2.059   1.584  1.0589  0.4307  0.0938
 1123TIP3    H2 3376   4.657   2.102   1.686 -0.7531 -1.6584 -0.7579
 1124TIP3   OH2 3377   6.187   4.205   2.746  0.0003 -0.2386 -0.8896
 1124TIP3    H1 3378   6.184   4.141   2.817  1.4657  1.5813  0.9415
 1124TIP3    H2 3379   6.279   4.208   2.720 -0.0760  0.9114 -1.0931
 1125TIP3   OH2 3380   1.728   1.230   5.124 -0.0565  0.5438  0.4557
 1125TIP3    H1 3381   1.680   1.172   5.184  0.0019 -2.4247 -2.0727
 1125TIP3    H2 3382   1.748   1.307   5.176 -2.6652 -0.4626  3.2917
 1126TIP3   OH2 3383   4.696   0.931   3.530 -0.0070 -0.7136  0.1035
 1126TIP3    H1 3384   4.692   0.851   3.477 -0.8733  0.0886 -1.0886
 1126TIP3    H2 3385   4.607   0.943   3.561  0.2192 -0.4520  0.6603
 1127TIP3   OH2 3386   4.569   5.199   1.173 -0.2882 -0.2495 -0.4384
 1127TIP3    H1 3387   4.603   5.110   1.166 -1.5257 -0.6698 -1.4100
 1127TIP3    H2 3388   4.475   5.191   1.157 -0.6893  1.0360  1.0186
 1128TIP3   OH2 3389   2.853   3.408   2.030  0.2802 -0.3359 -0.4839
 1128TIP3    H1 3390   2.839   3.441   1.941 -0.5183  2.3988  0.5397
 1128TIP3    H2 3391   2.857   3.313   2.021 -0.5814 -0.1743 -3.3159
 1129TIP3   OH2 3392   1.242   3.049   2.671 -0.1545 -0.2219  0.0517
 1129TIP3    H1 3393   1.272   3.032   2.760  0.2160 -0.7005 -0.1616
 1129TIP3    H2 3394   1.186   2.975   2.650  0.6866 -0.7075 -0.5310
 1130TIP3   OH2 3395   5.790   4.543   0.893 -0.3755 -0.2073  0.4651
 1130TIP3    H1 3396   5.861   4.535   0.829 -0.5989 -1.2330  0.3161
 1130TIP3    H2 3397   5.833   4.534   0.978  0.0834  2.2989  0.5612
 1131TIP3   OH2 3398   0.257   1.516   0.262 -0.0116 -0.5861  0.0060
 1131TIP3    H1 3399   0.214   1.538   0.180 -0.5241  0.3623  0.5021
 1131TIP3    H2 3400   0.189   1.475   0.315  0.1736 -0.7066  0.1553
 1132TIP3   OH2 3401   6.019   4.581   2.240  0.2906 -0.8933 -0.3743
 1132TIP3    H1 3402   5.924   4.575   2.245  0.3437 -0.6834  3.1525
 1132TIP3    H2 3403   6.037   4.675   2.233  0.1795 -0.5134  3.0061
 1133TIP3   OH2 3404   4.661   4.460   0.040 -0.0953  0.7983  0.0141
 1133TIP3    H1 3405   4.646   4.494  -0.048 -1.4179  0.9566  0.2726
 1133TIP3    H2 3406   4.604   4.383   0.047  0.5405  0.3606  0.4877
 1134TIP3   OH2 3407   4.037   4.795   4.945 -0.0124  0.0692  0.3974
 1134TIP3    H1 3408   4.055   4.837   5.029 -0.7273  0.7621  0.2112
 1134TIP3    H2 3409   4.117   4.810   4.894 -0.4541  1.7176  0.1376
 1135TIP3   OH2 3410   3.436   1.103   1.589 -0.3583  0.6765 -0.0241
 1135TIP3    H1 3411   3.500   1.038   1.614 -0.6214  1.3406  2.6293
 1135TIP3    H2 3412   3.465   1.134   1.503  2.4860  0.4978  0.7961
 1136TIP3   OH2 3413   6.162   1.422   2.040  0.2555 -0.3947  0.0723
 1136TIP3    H1 3414   6.204   1.438   1.956 -0.0367  0.3018  0.0562
 1136TIP3    H2 3415   6.079   1.470   2.035 -1.3831 -3.0802 -0.5690
 1137TIP3   OH2 3416   5.209   2.035   4.482  0.0345 -0.2405  0.1082
 1137TIP3    H1 3417   5.218   1.944   4.511 -1.5390 -1.1600 -2.0070
 1137TIP3    H2 3418   5.287   2.051   4.429  0.3780 -0.3194  0.5920
 1138TIP3   OH2 3419   3.101   1.485   2.081  0.2919  0.6276  0.3865
 1138TIP3    H1 3420   3.045   1.455   2.010  0.2501  2.0540 -0.2204
 1138TIP3    H2 3421   3.061   1.448   2.160 -0.1938 -0.2189 -0.2336
 1139TIP3   OH2 3422   0.085   4.831   4.411 -0.9956  0.1655 -0.2345
 1139TIP3    H1 3423   0.045   4.855   4.494  0.9074  0.9061  0.4964
 1139TIP3    H2 3424   0.107   4.914   4.369  0.4615 -0.2056 -0.2606
 1140TIP3   OH2 3425   3.413   2.072   2.575 -0.3032 -0.2499 -0.0661
 1140TIP3    H1 3426   3.398   2.162   2.546 -1.7365 -0.1888  0.8039
 1140TIP3    H2 3427   3.509   2.063   2.576 -0.1125  1.5293  0.6372
 1141TIP3   OH2 3428   2.802   0.371   4.528  0.0943 -0.3850 -0.4765
 1141TIP3    H1 3429   2.742   0.349   4.456 -0.4148 -0.7188  0.0311
 1141TIP3    H2 3430   2.889   0.367   4.489 -0.2852  2.2018 -1.7594
 1142TIP3   OH2 3431   1.094   5.643   3.551 -0.1148 -0.2431 -0.3260
 1142TIP3    H1 3432   1.049   5.724   3.529  0.1757 -0.0253 -0.1307
 1142TIP3    H2 3433   1.146   5.622   3.473  2.5364  1.6337  0.7709
 1143TIP3   OH2 3434   3.189   4.918   1.906 -0.1395  0.1954 -0.2079
 1143TIP3    H1 3435   3.245   4.993   1.922 -2.4577  1.8251  0.8687
 1143TIP3    H2 3436   3.241   4.842   1.933  1.6052  1.5646  0.4553
 1144TIP3   OH2 3437   0.974   0.683   3.474 -0.0963  0.0414 -0.0555
 1144TIP3    H1 3438   0.932   0.742   3.412  2.2438 -0.3369 -2.1345
 1144TIP3    H2 3439   0.945   0.595   3.446  0.6925 -0.1066 -0.4325
 1145TIP3   OH2 3440   5.792   0.176   4.773 -0.1133 -0.0570  0.1392
 1145TIP3    H1 3441   5.868   0.164   4.716  0.9287 -0.0364  1.4841
 1145TIP3    H2 3442   5.792   0.270   4.793 -0.7346  0.0127 -0.1625
 1146TIP3   OH2 3443   6.350   1.010   3.650  0.6601 -0.3428  0.0517
 1146TIP3    H1 3444   6.269   1.051   3.679  0.4400  0.4295 -1.5513
 1146TIP3    H2 3445   6.417   1.076   3.666  1.3526 -1.6113  3.0347
 1147TIP3   OH2 3446   4.598   2.669   0.901 -0.2041  0.0429 -0.1882
 1147TIP3    H1 3447   4.579   2.588   0.949 -0.5405  0.9292  1.2548
 1147TIP3    H2 3448   4.691   2.685   0.916  0.6161 -1.5710 -2.9369
 1148TIP3   OH2 3449   1.500   4.025   3.207 -0.3778 -0.0114  0.6280
 1148TIP3    H1 3450   1.482   4.041   3.114  0.9241 -0.3652  0.2910
 1148TIP3    H2 3451   1.594   4.008   3.210 -0.5125 -0.6205  1.9339
 1149TIP3   OH2 3452   2.341   5.750   0.180 -0.5007  0.1242 -0.3456
 1149TIP3    H1 3453   2.310   5.676   0.128  0.7365 -0.5718 -0.1370
 1149TIP3    H2 3454   2.365   5.712   0.265 -0.7447  0.9263  0.0959
 1150TIP3   OH2 3455   2.428   3.052   1.217  1.0186  0.4644  0.5138
 1150TIP3    H1 3456   2.397   3.140   1.196 -0.0836 -0.0362 -0.0377
 1150TIP3    H2 3457   2.507   3.067   1.269 -0.2606  1.8031  2.1978
 1151TIP3   OH2 3458   1.602   5.372   3.100  0.4818  0.8668  0.1069
 1151TIP3    H1 3459   1.698   5.374   3.100  0.6858 -2.2429 -1.8726
 1151TIP3    H2 3460   1.580   5.299   3.157 -0.2515 -2.1151 -3.5624
 1152TIP3   OH2 3461   1.744   2.666   1.006  0.1645 -0.2292  0.8132
 1152TIP3    H1 3462   1.703   2.580   1.012  1.1517 -0.7355  0.5762
 1152TIP3    H2 3463   1.833   2.652   1.041  0.0180  0.9194  1.6877
 1153TIP3   OH2 3464   2.671   4.907   4.606  0.2640  0.0050  0.2508
 1153TIP3    H1 3465   2.626   4.932   4.526  1.6892  1.0474 -0.2627
 1153TIP3    H2 3466   2.725   4.983   4.629 -0.0734 -0.2739  2.1829
 1154TIP3   OH2 3467   6.138   1.193   2.794  0.3471 -0.4937 -0.3027
 1154TIP3    H1 3468   6.125   1.226   2.706 -1.3403  0.7215  0.3431
 1154TIP3    H2 3469   6.212   1.243   2.829 -1.2160  1.6372  0.1416
 1155TIP3   OH2 3470   1.735   5.449   4.362  0.0856 -0.5482  0.0197
 1155TIP3    H1 3471   1.785   5.401   4.297  2.1159 -1.1010  1.8705
 1155TIP3    H2 3472   1.738   5.394   4.440  1.6223  1.9954  1.9371
 1156TIP3   OH2 3473   6.174   1.445   0.160 -0.5588 -0.2889  0.2143
 1156TIP3    H1 3474   6.168   1.514   0.093  1.6375  0.4855  0.7369
 1156TIP3    H2 3475   6.085   1.411   0.166 -1.1870  0.7590 -1.8899
 1157TIP3   OH2 3476   1.846   3.045   1.927  0.0149 -0.5325 -0.4902
 1157TIP3    H1 3477   1.938   3.020   1.926  0.6151  1.3511  1.0829
 1157TIP3    H2 3478   1.823   3.058   1.835  1.5886 -0.2146 -0.8610
 1158TIP3   OH2 3479   0.469   0.067   2.598  0.4201 -0.1641 -0.3852
 1158TIP3    H1 3480   0.532   0.050   2.668  0.5427  0.7679 -0.2432
 1158TIP3    H2 3481   0.408  -0.007   2.600 -0.3251  0.4504  1.5526
 1159TIP3   OH2 3482   5.293   2.466   0.120  0.4040  0.6070  0.1821
 1159TIP3    H1 3483   5.329   2.525   0.054  0.0192  0.7453  0.0951
 1159TIP3    H2 3484   5.354   2.474   0.194  1.8571 -0.9067 -0.7791
 1160TIP3   OH2 3485   2.380   1.705   0.371 -0.0228  0.2140  0.1017
 1160TIP3    H1 3486   2.311   1.754   0.416  0.2434 -0.3606  1.1809
 1160TIP3    H2 3487   2.339   1.621   0.348 -0.5151  0.9515 -1.8523
 1161TIP3   OH2 3488   2.330   5.088   2.333  0.1381  0.8636  0.5535
 1161TIP3    H1 3489   2.405   5.048   2.290 -0.3984  1.0580 -0.5845
 1161TIP3    H2 3490   2.308   5.028   2.405  0.1368 -0.2331 -0.3432
 1162TIP3   OH2 3491   2.756   2.055   3.581  0.0355 -0.4069 -0.0814
 1162TIP3    H1 3492   2.684   1.992   3.575 -1.1243  0.9959 -1.5597
 1162TIP3    H2 3493   2.749   2.090   3.670 -1.3425 -0.0376 -0.3130
 1163TIP3   OH2 3494   3.420   5.295   2.387  0.1145  0.0516 -0.3459
 1163TIP3    H1 3495   3.488   5.317   2.323  1.3458 -0.8014  0.6098
 1163TIP3    H2 3496   3.469   5.267   2.465 -1.3152 -2.7999 -0.3697
 1164TIP3   OH2 3497   2.275   3.706   3.596 -0.2745  0.3969 -0.3906
 1164TIP3    H1 3498   2.279   3.779   3.534  2.2858  0.2371 -0.5307
 1164TIP3    H2 3499   2.231   3.742   3.672 -0.0461  1.7715 -0.8740
 1165TIP3   OH2 3500   4.606   2.016   0.739 -0.7461  0.4151  0.0994
 1165TIP3    H1 3501   4.669   2.086   0.726  2.2571 -2.1680 -0.3946
 1165TIP3    H2 3502   4.556   2.013   0.657 -0.6313  1.6354 -0.0341
 1166TIP3   OH2 3503   3.089   1.161   3.216  0.0824  0.0550  0.0426
 1166TIP3    H1 3504   3.067   1.203   3.300 -1.0673  3.5417 -1.7998
 1166TIP3    H2 3505   3.180   1.186   3.201 -0.1513  0.6679 -0.3800
 1167TIP3   OH2 3506   1.815   4.951   4.139 -0.1632  0.4363 -0.4393
 1167TIP3    H1 3507   1.853   4.868   4.109 -0.0858  0.9195 -1.7796
 1167TIP3    H2 3508   1.874   4.982   4.207 -0.7768 -1.1231  0.8479
 1168TIP3   OH2 3509   4.310   2.475   1.248  0.2462  0.0211 -0.3136
 1168TIP3    H1 3510   4.399   2.512   1.247 -0.0542  0.8082 -2.4009
 1168TIP3    H2 3511   4.306   2.425   1.330  2.7866 -0.4670 -0.4021
 1169TIP3   OH2 3512   4.340   5.333   2.459  0.2367 -0.4815 -0.4286
 1169TIP3    H1 3513   4.340   5.353   2.552 -3.5697  0.3438 -0.4250
 1169TIP3    H2 3514   4.281   5.258   2.450  0.6291 -0.6330 -2.1381
 1170TIP3   OH2 3515   2.529   2.313   2.502  0.1425 -0.0995  0.2396
 1170TIP3    H1 3516   2.519   2.270   2.587  0.4435 -1.5754 -0.4370
 1170TIP3    H2 3517   2.519   2.243   2.438  1.3910  0.7093 -0.9063
 1171TIP3   OH2 3518   1.715   0.993   1.143 -0.4657  0.3876 -0.3146
 1171TIP3    H1 3519   1.806   1.012   1.169 -0.3648  0.3907 -0.6592
 1171TIP3    H2 3520   1.707   0.898   1.152 -0.5609  0.4345  0.1259
 1172TIP3   OH2 3521   2.264   2.321   0.802 -0.1194  0.1069  0.8148
 1172TIP3    H1 3522   2.351   2.291   0.830  0.2742 -0.1765 -0.6434
 1172TIP3    H2 3523   2.279   2.363   0.718 -1.3598  0.3496  0.6962
 1173TIP3   OH2 3524   1.696   1.893   2.886  0.9465  0.3351  0.3428
 1173TIP3    H1 3525   1.639   1.842   2.943  3.5960 -1.6959  1.3922
 1173TIP3    H2 3526   1.684   1.854   2.799  0.1164  0.5347  0.3596
 1174TIP3   OH2 3527   4.522   1.285   3.524 -0.1609  0.0386  0.2630
 1174TIP3    H1 3528   4.596   1.345   3.515  1.1876 -0.7615  4.1397
 1174TIP3    H2 3529   4.533   1.221   3.453  1.1483  1.5737 -0.9659
 1175TIP3   OH2 3530   6.031   5.465   3.677 -0.0830  0.0764  0.2866
 1175TIP3    H1 3531   5.954   5.421   3.713 -0.6856 -1.0622 -2.2366
 1175TIP3    H2 3532   6.094   5.394   3.661  0.6163  0.7048  0.1886
 1176TIP3   OH2 3533   6.256   2.444   0.962  0.1197 -0.2530 -0.0926
 1176TIP3    H1 3534   6.180   2.448   0.904 -0.8069  0.4406  1.1185
 1176TIP3    H2 3535   6.327   2.415   0.905 -1.3702 -2.6704 -0.9184
 1177TIP3   OH2 3536   4.508   0.552   3.526  0.1397  0.0669  0.1452
 1177TIP3    H1 3537   4.462   0.631   3.498  1.6942  0.4157 -1.5784
 1177TIP3    H2 3538   4.529   0.568   3.618 -2.3018  0.2690  0.7386
 1178TIP3   OH2 3539   3.550   0.479   3.990 -0.1913  0.9400  0.0036
 1178TIP3    H1 3540   3.491   0.553   3.975 -0.8947  0.8320  1.8881
 1178TIP3    H2 3541   3.520   0.442   4.073  0.5030 -1.1321 -0.6125
 1179TIP3   OH2 3542   4.682   3.936   0.844 -0.2010  0.4757  0.2387
 1179TIP3    H1 3543   4.726   3.993   0.780 -0.2902  0.0574 -0.2002
 1179TIP3    H2 3544   4.703   3.975   0.929 -0.5955  1.4056 -0.0740
 1180TIP3   OH2 3545   4.852   5.933   3.687 -0.2228  0.2680  0.1945
 1180TIP3    H1 3546   4.900   5.850   3.693 -0.1788  0.2722 -0.0969
 1180TIP3    H2 3547   4.917   5.996   3.656  0.6913  1.2129  3.6265
 1181TIP3   OH2 3548   4.027   2.502   0.906 -0.4763  0.1277  0.3871
 1181TIP3    H1 3549   4.034   2.423   0.960  0.8998  1.0141  1.5273
 1181TIP3    H2 3550   4.056   2.473   0.819 -2.1766 -1.1605  0.1718
 1182TIP3   OH2 3551   0.476   2.784   3.673 -0.2339 -0.4851 -0.2059
 1182TIP3    H1 3552   0.512   2.804   3.760 -0.7650  0.4777 -0.2015
 1182TIP3    H2 3553   0.383   2.766   3.689 -0.5350  0.5617 -0.6704
 1183TIP3   OH2 3554   0.050   4.443   3.817  0.3390  0.1214  0.1982
 1183TIP3    H1 3555  -0.005   4.467   3.892 -0.7287  0.0474 -0.5441
 1183TIP3    H2 3556   0.113   4.514   3.811 -1.9842  2.2456 -1.1912
 1184TIP3   OH2 3557   3.801   4.784   1.650  0.1047  0.0806  0.6001
 1184TIP3    H1 3558   3.765   4.703   1.614 -1.9519  1.2781 -0.2348
 1184TIP3    H2 3559   3.881   4.798   1.600 -0.6874 -0.3102 -0.8476
 1185TIP3   OH2 3560   0.131   1.797   0.930  0.0431 -0.3475 -0.1918
 1185TIP3    H1 3561   0.169   1.824   1.013  1.5501  0.8257 -1.1950
 1185TIP3    H2 3562   0.095   1.878   0.892  0.0557 -0.7081 -1.0098
 1186TIP3   OH2 3563   0.054   0.977   2.775  0.4031 -0.2434  0.2381
 1186TIP3    H1 3564   0.090   1.060   2.804 -0.1368 -0.2086  0.8325
 1186TIP3    H2 3565  -0.022   1.002   2.721  0.7316 -0.3355 -0.2752
 1187TIP3   OH2 3566   1.171   4.832   1.663 -0.5734 -0.0732 -0.5268
 1187TIP3    H1 3567   1.169   4.796   1.574 -0.7053  0.3353 -0.6945
 1187TIP3    H2 3568   1.263   4.854   1.678 -0.6692  0.6090 -0.8788
 1188TIP3   OH2 3569   2.902   1.319   1.958  0.0012 -0.2043  0.2822
 1188TIP3    H1 3570   2.903   1.224   1.973  0.6275 -0.4254 -1.0306
 1188TIP3    H2 3571   2.847   1.331   1.881  0.5147  0.4174 -0.0020
 1189TIP3   OH2 3572   2.994   5.787   0.260 -0.1626  0.0956 -0.8661
 1189TIP3    H1 3573   2.942   5.760   0.185  0.1206  1.8111 -1.7338
 1189TIP3    H2 3574   3.075   5.821   0.222  0.0711  0.8139  0.2269
 1190TIP3   OH2 3575   3.019   3.099   3.376 -0.0690  0.0240  0.3992
 1190TIP3    H1 3576   3.104   3.081   3.336 -0.4624  0.1619 -0.5406
 1190TIP3    H2 3577   3.036   3.104   3.470  0.4580 -3.0498  0.5694
 1191TIP3   OH2 3578   0.636   0.125   1.540 -0.2502 -0.0140 -0.4647
 1191TIP3    H1 3579   0.683   0.187   1.484  1.0606  0.3464  0.9571
 1191TIP3    H2 3580   0.698   0.104   1.610 -2.0454  0.1364  1.2681
 1192TIP3   OH2 3581   1.531   0.826   4.361 -0.8727 -0.4394  0.4014
 1192TIP3    H1 3582   1.606   0.772   4.388 -2.2411 -2.8649 -0.3346
 1192TIP3    H2 3583   1.467   0.814   4.432 -1.7279 -0.9517 -0.4395
 1193TIP3   OH2 3584   5.368   4.210   1.245  0.5615 -0.7778 -0.3559
 1193TIP3    H1 3585   5.287   4.260   1.258  0.9893  0.6418 -2.5211
 1193TIP3    H2 3586   5.430   4.249   1.306  0.9023  1.5680 -2.0245
 1194TIP3   OH2 3587   1.012   0.615   0.241 -0.3573 -0.2739 -0.0515
 1194TIP3    H1 3588   1.047   0.702   0.263  0.5286 -0.7956  0.6675
 1194TIP3    H2 3589   1.009   0.614   0.145 -0.6342  0.6475 -0.0632
 1195TIP3   OH2 3590   3.877   4.113   5.068  0.1761  0.1913 -0.1516
 1195TIP3    H1 3591   3.898   4.024   5.095  0.2362 -0.9259 -3.4400
 1195TIP3    H2 3592   3.962   4.153   5.048  0.3181  1.6914  2.8691
 1196TIP3   OH2 3593   4.962   1.891   2.812  0.4317 -0.1092 -0.3492
 1196TIP3    H1 3594   5.013   1.820   2.851  1.9385  0.8364 -0.5119
 1196TIP3    H2 3595   4.967   1.962   2.876  1.4204  0.8377 -1.4234
 1197TIP3   OH2 3596   3.978   4.819   0.866 -0.1723  0.3317  0.3968
 1197TIP3    H1 3597   3.916   4.817   0.793  0.6888  1.2098 -0.3903
 1197TIP3    H2 3598   3.924   4.804   0.943 -1.1254 -0.4848 -0.4022
 1198TIP3   OH2 3599   3.682   5.663   0.507  0.0474  0.6121 -0.0704
 1198TIP3    H1 3600   3.634   5.644   0.588  0.1986  2.7172  0.5639
 1198TIP3    H2 3601   3.763   5.613   0.515  0.1692  0.9812  1.2128
 1199TIP3   OH2 3602   2.957   3.069   3.067 -0.1322 -0.2569 -0.1056
 1199TIP3    H1 3603   3.002   3.009   3.008 -1.5377 -1.5722  0.0797
 1199TIP3    H2 3604   2.957   3.152   3.021  0.5107 -0.7726 -1.0824
 1200TIP3   OH2 3605   1.343   2.858   1.073  0.1216 -0.2444 -0.1732
 1200TIP3    H1 3606   1.390   2.938   1.046  0.6724 -0.3983  0.3017
 1200TIP3    H2 3607   1.269   2.852   1.013 -0.0163  0.7155 -0.1145
 1201TIP3   OH2 3608   2.870   0.003   0.707  0.3785  0.1195 -0.0989
 1201TIP3    H1 3609   2.865   0.077   0.647 -0.7970 -0.7893 -1.1931
 1201TIP3    H2 3610   2.786  -0.042   0.697  0.8586 -1.0778  0.9024
 1202TIP3   OH2 3611   6.206   0.599   3.504 -0.0050 -0.7117  0.1535
 1202TIP3    H1 3612   6.287   0.639   3.535 -0.6299 -0.2381  1.2240
 1202TIP3    H2 3613   6.170   0.663   3.442  0.6985 -1.1686 -0.7467
 1203TIP3   OH2 3614   1.796   5.741   3.216  0.1191  0.4281  0.0037
 1203TIP3    H1 3615   1.864   5.686   3.256  1.0139  1.8327  0.5137
 1203TIP3    H2 3616   1.813   5.736   3.122  2.1425  2.1417  0.1830
 1204TIP3   OH2 3617   2.164   3.906   4.117 -0.7223  0.6868 -0.1868
 1204TIP3    H1 3618   2.115   3.914   4.199 -0.7015  1.7196 -0.2666
 1204TIP3    H2 3619   2.099   3.876   4.053 -0.6172 -0.6947  0.3068
 1205TIP3   OH2 3620   0.445   2.553   2.879 -0.0571  0.2299  0.4940
 1205TIP3    H1 3621   0.430   2.645   2.900  0.1941  0.6760 -1.1760
 1205TIP3    H2 3622   0.482   2.516   2.960 -0.3196  1.5370  1.2426
 1206TIP3   OH2 3623   3.260   5.565   4.802 -0.4734 -0.5128  0.2208
 1206TIP3    H1 3624   3.296   5.570   4.890 -0.6847 -2.1103  0.4244
 1206TIP3    H2 3625   3.330   5.599   4.746 -0.8022  1.7513  1.0587
 1207TIP3   OH2 3626   1.778   1.623   4.621  0.3064  0.9304  0.3545
 1207TIP3    H1 3627   1.777   1.694   4.685 -0.3775  1.7053 -0.5036
 1207TIP3    H2 3628   1.871   1.607   4.604  0.4740  2.7419 -0.6523
 1208TIP3   OH2 3629   6.259   2.810   4.256 -0.2183 -0.0828 -0.4660
 1208TIP3    H1 3630   6.347   2.808   4.294 -0.3477 -1.6530 -0.1792
 1208TIP3    H2 3631   6.232   2.902   4.261  1.0104  0.2493  0.3456
 1209TIP3   OH2 3632   6.259   5.508   2.905 -0.4317  0.2209 -0.0792
 1209TIP3    H1 3633   6.198   5.446   2.865 -0.1137  0.4685 -0.9755
 1209TIP3    H2 3634   6.279   5.471   2.991 -0.2760 -0.9087 -0.5824
 1210TIP3   OH2 3635   4.560   3.009   0.167  0.6158  0.2252 -0.6442
 1210TIP3    H1 3636   4.595   2.940   0.222 -0.3339  0.1157 -0.1581
 1210TIP3    H2 3637   4.538   3.080   0.228 -2.4526 -0.6996 -0.5222
 1211TIP3   OH2 3638   1.388   1.213   3.925  0.4229 -0.2048 -0.5077
 1211TIP3    H1 3639   1.316   1.157   3.953 -0.8109  0.6127 -1.8754
 1211TIP3    H2 3640   1.353   1.302   3.931  2.2993  0.4834  1.5146
 1212TIP3   OH2 3641   6.207   3.674   2.991 -0.3276  0.4812 -0.1763
 1212TIP3    H1 3642   6.213   3.716   3.077  0.0502 -0.7644  0.4350
 1212TIP3    H2 3643   6.294   3.683   2.954 -0.3023  0.4045 -0.1350
 1213TIP3   OH2 3644   2.718   2.783   1.313  0.6342  0.1939  0.5035
 1213TIP3    H1 3645   2.797   2.816   1.355  0.8829 -0.4389  0.5349
 1213TIP3    H2 3646   2.736   2.790   1.219  0.6927  0.1350  0.5102
 1214TIP3   OH2 3647   3.886   3.612   4.014  0.0451  0.7793  0.5044
 1214TIP3    H1 3648   3.810   3.553   4.021 -0.5002  1.2017 -1.3220
 1214TIP3    H2 3649   3.959   3.553   3.995 -0.0606  0.4784  1.0155
 1215TIP3   OH2 3650   3.727   1.372   2.823 -0.0523 -0.0513 -0.5054
 1215TIP3    H1 3651   3.778   1.447   2.854 -0.7257  0.2006  0.0178
 1215TIP3    H2 3652   3.791   1.314   2.783  0.6459  0.2542  0.1566
 1216TIP3   OH2 3653   3.243   5.484   2.378 -0.6568 -0.0857 -0.4405
 1216TIP3    H1 3654   3.294   5.404   2.390 -0.6733 -0.0632 -0.2300
 1216TIP3    H2 3655   3.276   5.544   2.444  0.0210  0.4099 -1.2093
 1217TIP3   OH2 3656   1.958   1.037   3.935  0.1439 -0.0106  0.1417
 1217TIP3    H1 3657   1.966   1.132   3.947  1.8503 -0.0447 -0.3883
 1217TIP3    H2 3658   1.884   1.012   3.990 -1.4385  1.8455 -1.0126
 1218TIP3   OH2 3659   4.445   1.419   3.787 -0.2019  0.7858  0.2943
 1218TIP3    H1 3660   4.532   1.428   3.749 -0.4071  1.7539  0.0195
 1218TIP3    H2 3661   4.390   1.389   3.715 -0.2910  1.1839  0.1891
 1219TIP3   OH2 3662   0.122   4.008   1.674 -0.5180  0.5514  0.0299
 1219TIP3    H1 3663   0.082   3.934   1.719  0.0881 -0.2870 -0.7654
 1219TIP3    H2 3664   0.052   4.073   1.669 -1.3419 -0.3130 -0.0430
 1220TIP3   OH2 3665   0.783   2.203   1.889 -0.1071 -0.9964  0.0843
 1220TIP3    H1 3666   0.711   2.180   1.947  0.4227 -0.2192  1.0752
 1220TIP3    H2 3667   0.854   2.227   1.948  0.4093 -0.0657 -0.8952
 1221TIP3   OH2 3668   4.435   5.327   0.713  0.1816  0.0055 -0.3988
 1221TIP3    H1 3669   4.524   5.327   0.678  0.9947  1.0312  1.5062
 1221TIP3    H2 3670   4.437   5.393   0.782 -1.6618 -1.0208  0.7043
 1222TIP3   OH2 3671   0.361   2.644   3.164  0.6015 -0.1106  0.5149
 1222TIP3    H1 3672   0.287   2.674   3.217 -1.3101 -0.8841 -1.5543
 1222TIP3    H2 3673   0.420   2.719   3.159 -1.9472  1.9134 -1.0012
 1223TIP3   OH2 3674   5.156   0.451   3.601  0.2549 -0.0464  0.0772
 1223TIP3    H1 3675   5.093   0.471   3.532  1.0772  1.0480 -0.3931
 1223TIP3    H2 3676   5.227   0.405   3.556  0.1768 -0.5276  0.4415
 1224TIP3   OH2 3677   5.188   4.296   0.131  0.0190 -0.1347 -0.1092
 1224TIP3    H1 3678   5.225   4.242   0.201 -0.9766 -1.0788 -0.2843
 1224TIP3    H2 3679   5.105   4.327   0.166 -1.1502 -1.7262 -1.3239
 1225TIP3   OH2 3680   3.359   1.060   3.650  0.8037 -0.0508 -0.6122
 1225TIP3    H1 3681   3.361   1.130   3.586  2.4148 -0.7211 -1.3599
 1225TIP3    H2 3682   3.446   1.061   3.690  0.4848 -0.9034  0.1559
 1226TIP3   OH2 3683   6.017   3.984   1.273 -0.3129  0.0329  0.1624
 1226TIP3    H1 3684   5.927   4.003   1.247 -0.7898 -1.9859  0.1491
 1226TIP3    H2 3685   6.017   3.995   1.368  0.0480  2.2113 -0.0452
 1227TIP3   OH2 3686   2.416   4.098   2.216 -0.3393 -0.5192  0.0738
 1227TIP3    H1 3687   2.427   4.054   2.132 -1.4429 -2.5401  0.9137
 1227TIP3    H2 3688   2.448   4.036   2.281 -2.4020 -0.3715  1.3529
 1228TIP3   OH2 3689   1.933   2.321   1.348  0.0006  0.5070 -0.0183
 1228TIP3    H1 3690   1.912   2.256   1.415  0.4171 -0.1636 -0.5255
 1228TIP3    H2 3691   1.935   2.404   1.395 -0.0461  0.0897  0.7373
 1229TIP3   OH2 3692   1.724   0.274   4.238  0.1093 -0.0143  0.4783
 1229TIP3    H1 3693   1.815   0.245   4.244  0.9537  2.5668  1.5242
 1229TIP3    H2 3694   1.698   0.288   4.329 -1.7426 -1.6929  0.2757
 1230TIP3   OH2 3695   2.079   0.474   1.565  0.1488  0.6588 -0.0434
 1230TIP3    H1 3696   2.153   0.416   1.584  1.4372  2.2256 -0.0591
 1230TIP3    H2 3697   2.003   0.431   1.605  1.4169  0.0125  1.7731
 1231TIP3   OH2 3698   4.390   5.451   3.702 -0.5139 -0.5141  0.4428
 1231TIP3    H1 3699   4.400   5.485   3.791 -2.9394 -2.4119  1.5411
 1231TIP3    H2 3700   4.366   5.528   3.650  0.5332  0.5495  1.4661
 1232TIP3   OH2 3701   0.332   2.278   1.891  0.5441 -0.2349  0.3255
 1232TIP3    H1 3702   0.256   2.276   1.948  1.5054  0.1716  1.6951
 1232TIP3    H2 3703   0.362   2.187   1.887  1.4598 -0.0444  1.9274
 1233TIP3   OH2 3704   6.132   1.917   2.312  0.1277  0.4223  0.2647
 1233TIP3    H1 3705   6.121   1.822   2.311  1.3985  0.2563 -0.3359
 1233TIP3    H2 3706   6.053   1.950   2.354 -1.1197 -0.7846 -1.0099
 1234TIP3   OH2 3707   0.593   5.732   2.149  0.3024  0.3447  0.0696
 1234TIP3    H1 3708   0.569   5.811   2.198  1.5058 -0.6859  2.4921
 1234TIP3    H2 3709   0.531   5.666   2.179 -0.0203  0.0780 -1.1349
 1235TIP3   OH2 3710   2.312   4.366   3.882  0.4172 -0.0273  0.0060
 1235TIP3    H1 3711   2.297   4.337   3.792  0.4385  1.1083 -0.3818
 1235TIP3    H2 3712   2.224   4.382   3.917  0.3302 -1.8646  0.6871
 1236TIP3   OH2 3713   3.112   1.216   0.055 -0.1154 -0.2628 -0.6868
 1236TIP3    H1 3714   3.187   1.256   0.100 -0.0717 -0.7396 -0.3288
 1236TIP3    H2 3715   3.101   1.132   0.098 -1.4061  0.1598 -0.1379
 1237TIP3   OH2 3716   2.092   3.139   3.458  0.1961 -0.4413  0.2748
 1237TIP3    H1 3717   2.140   3.096   3.529  2.3191 -1.3107 -1.5381
 1237TIP3    H2 3718   2.070   3.067   3.398 -0.7221  0.3712 -0.3822
 1238TIP3   OH2 3719   2.626   2.294   0.387  0.4023 -0.0095  0.4447
 1238TIP3    H1 3720   2.687   2.314   0.317  1.2052 -1.1111  0.8080
 1238TIP3    H2 3721   2.609   2.379   0.429  1.1094  0.4150 -0.1057
 1239TIP3   OH2 3722   1.273   3.851   0.022  0.2904  0.0069  0.7390
 1239TIP3    H1 3723   1.363   3.860   0.055  0.4905 -0.2578  0.2686
 1239TIP3    H2 3724   1.282   3.857  -0.073 -0.2136  0.1429  0.7009
 1240TIP3   OH2 3725   5.285   5.267   0.766  0.1479  0.1768 -0.1289
 1240TIP3    H1 3726   5.219   5.265   0.835  1.2508 -1.9151  0.9618
 1240TIP3    H2 3727   5.241   5.231   0.690 -0.1756 -0.5531  0.3937
 1241TIP3   OH2 3728   4.677   4.613   0.591  0.0394 -0.2484 -0.3113
 1241TIP3    H1 3729   4.602   4.593   0.647 -0.3597 -2.2606 -1.4872
 1241TIP3    H2 3730   4.639   4.641   0.508  0.5534 -1.0802 -0.8468
 1242TIP3   OH2 3731   4.283   4.879   2.774  0.5047  0.0256 -0.5544
 1242TIP3    H1 3732   4.188   4.889   2.769  0.4038 -1.1944 -1.5840
 1242TIP3    H2 3733   4.297   4.784   2.779  1.5501  0.2197  3.1076
 1243TIP3   OH2 3734   1.787   1.103   2.733 -0.3465 -0.5824 -0.1132
 1243TIP3    H1 3735   1.781   1.198   2.729 -1.2874 -0.5396  1.3213
 1243TIP3    H2 3736   1.869   1.086   2.779 -0.3202 -0.4431 -0.1072
 1244TIP3   OH2 3737   1.748   1.400   1.761 -0.3873  0.2140 -0.0943
 1244TIP3    H1 3738   1.752   1.476   1.820  0.8762  0.8336 -0.9503
 1244TIP3    H2 3739   1.839   1.383   1.738 -0.7373 -1.0296 -0.6182
 1245TIP3   OH2 3740   5.392   1.854   2.736 -0.2819 -0.0330 -0.0158
 1245TIP3    H1 3741   5.300   1.871   2.715 -0.2616  0.3893  0.2278
 1245TIP3    H2 3742   5.393   1.845   2.832 -0.0596  0.0440 -0.0116
 1246TIP3   OH2 3743   1.802   2.523   5.058  0.2949  0.2834  0.6629
 1246TIP3    H1 3744   1.772   2.582   5.127 -0.1803 -0.3722  1.0261
 1246TIP3    H2 3745   1.723   2.476   5.031  0.2782  1.2075 -1.0102
 1247TIP3   OH2 3746   4.943   3.248   4.871 -0.0312 -0.1426  0.6054
 1247TIP3    H1 3747   5.000   3.216   4.942  1.8693  3.5424  0.9639
 1247TIP3    H2 3748   5.004   3.273   4.801 -1.6326 -0.2962 -0.8982
 1248TIP3   OH2 3749   6.183   1.991   2.855  0.6729  0.0569 -0.6209
 1248TIP3    H1 3750   6.099   2.030   2.882  0.6677 -0.7772  0.6868
 1248TIP3    H2 3751   6.248   2.055   2.883  0.7212 -1.0549  2.2121
 1249TIP3   OH2 3752   1.811   3.012   0.394 -0.1841 -0.4150  0.6171
 1249TIP3    H1 3753   1.741   2.948   0.402 -0.0319 -0.8493 -1.1303
 1249TIP3    H2 3754   1.819   3.051   0.481 -2.6440 -0.2846  0.8320
 1250TIP3   OH2 3755   3.091   5.366   2.916 -0.4283  0.0024  0.1951
 1250TIP3    H1 3756   3.135   5.363   2.832  1.7228  0.2867  1.2423
 1250TIP3    H2 3757   3.159   5.346   2.980 -2.0899 -0.6604  1.8615
 1251TIP3   OH2 3758   0.751   5.388   4.923 -0.3605  0.5085 -0.7012
 1251TIP3    H1 3759   0.836   5.404   4.881 -0.2817  1.1362 -0.3018
 1251TIP3    H2 3760   0.771   5.330   4.996 -0.1490  1.3410 -0.0943
 1252TIP3   OH2 3761   5.184   5.957   3.572  0.3707  0.9129  0.0754
 1252TIP3    H1 3762   5.258   5.964   3.512 -1.3224  1.2979 -2.1012
 1252TIP3    H2 3763   5.182   6.042   3.617  2.0979  0.3530  1.3442
 1253TIP3   OH2 3764   5.064   0.198   1.053  0.0017 -0.2503 -0.3456
 1253TIP3    H1 3765   5.062   0.274   1.111  1.2369 -0.0157 -0.5829
 1253TIP3    H2 3766   5.015   0.131   1.100  0.2151  0.2129  0.5718
 1254TIP3   OH2 3767   2.758   3.245   3.280 -0.2444  0.1809  0.0234
 1254TIP3    H1 3768   2.780   3.330   3.242 -0.5350  0.0755 -0.3944
 1254TIP3    H2 3769   2.669   3.256   3.313  0.0634  0.3197  0.8363
 1255TIP3   OH2 3770   0.599   5.441   0.320  0.0600 -0.3865  0.3204
 1255TIP3    H1 3771   0.596   5.468   0.229  0.1661  0.2298  0.4947
 1255TIP3    H2 3772   0.693   5.434   0.340  0.0533  0.0936  0.5509
 1256TIP3   OH2 3773   2.275   2.854   1.975 -0.3231 -0.1964  0.1985
 1256TIP3    H1 3774   2.287   2.940   2.015 -0.1414 -0.4528  0.7171
 1256TIP3    H2 3775   2.281   2.793   2.049  0.0984 -0.6922 -0.2417
 1257TIP3   OH2 3776   0.787   2.862   1.834 -0.0592  0.1893 -0.2087
 1257TIP3    H1 3777   0.709   2.861   1.890  0.3128  0.6831  0.3290
 1257TIP3    H2 3778   0.820   2.951   1.840 -0.1095  0.3116 -1.3713
 1258TIP3   OH2 3779   3.926   1.624   2.577  0.4103 -0.1475  0.2077
 1258TIP3    H1 3780   3.907   1.623   2.483  0.7167  0.0487  0.1402
 1258TIP3    H2 3781   3.976   1.543   2.591  0.0380 -0.3651  0.2724
 1259TIP3   OH2 3782   3.136   5.986   4.976  0.0789 -0.7173  0.6871
 1259TIP3    H1 3783   3.103   5.915   5.031  0.6754 -0.7811  0.9729
 1259TIP3    H2 3784   3.068   6.053   4.980 -1.7154 -2.2251 -1.6009
 1260TIP3   OH2 3785   3.446   1.268   3.843  1.0069 -1.1606 -0.2722
 1260TIP3    H1 3786   3.497   1.299   3.768 -0.7917  1.5162 -0.5064
 1260TIP3    H2 3787   3.437   1.345   3.899 -0.1493 -2.3666  1.2796
 1261TIP3   OH2 3788   5.905   0.056   0.260 -0.1410  0.2795  0.4563
 1261TIP3    H1 3789   5.974   0.101   0.211  1.6128  0.3419  2.7606
 1261TIP3    H2 3790   5.877   0.121   0.326 -1.4718 -0.2156  0.4045
 1262TIP3   OH2 3791   0.922   2.108   2.445  0.1770  0.3545  0.0748
 1262TIP3    H1 3792   0.877   2.150   2.372  0.0992 -2.0765 -1.3679
 1262TIP3    H2 3793   1.010   2.090   2.411  0.1165 -0.8785  0.5401
 1263TIP3   OH2 3794   4.913   2.831   0.142 -0.0904 -0.0002 -0.4363
 1263TIP3    H1 3795   4.889   2.884   0.066  0.2721  1.3481  0.3465
 1263TIP3    H2 3796   4.980   2.883   0.187  0.3813 -1.2073  0.2953
 1264TIP3   OH2 3797   1.178   3.495   2.150 -0.1740 -0.4065  0.0533
 1264TIP3    H1 3798   1.113   3.516   2.217 -0.5595  0.0262 -0.4550
 1264TIP3    H2 3799   1.130   3.444   2.084  0.1983 -0.8102  0.0872
 1265TIP3   OH2 3800   2.805   3.772   0.342 -0.0984  0.0428  0.0671
 1265TIP3    H1 3801   2.740   3.747   0.276 -2.0535 -0.0550  1.9217
 1265TIP3    H2 3802   2.867   3.828   0.295  0.4402 -2.5119 -2.5737
 1266TIP3   OH2 3803   3.274   3.013   3.285 -0.1517  0.2187  0.0568
 1266TIP3    H1 3804   3.293   3.106   3.270 -0.5346  0.1884 -0.6980
 1266TIP3    H2 3805   3.318   2.968   3.213  0.5561 -0.2482  0.7740
 1267TIP3   OH2 3806   4.482   0.559   0.124  0.2091 -1.0398  0.8475
 1267TIP3    H1 3807   4.483   0.540   0.218  1.9436  0.0091  1.0732
 1267TIP3    H2 3808   4.548   0.501   0.087 -1.0515 -2.0634  0.0957
 1268TIP3   OH2 3809   5.965   2.740   3.908 -0.5880  0.0784  0.3110
 1268TIP3    H1 3810   6.016   2.816   3.934  1.2873 -0.4247 -1.6198
 1268TIP3    H2 3811   5.903   2.773   3.843 -1.3019  0.3156  1.0982
 1269TIP3   OH2 3812   1.818   0.399   2.465 -0.2943  0.3535  0.0737
 1269TIP3    H1 3813   1.839   0.308   2.486  0.2693  1.0542  2.9833
 1269TIP3    H2 3814   1.724   0.406   2.478 -0.1690  0.4230  1.0007
 1270TIP3   OH2 3815   4.402   5.039   2.278  0.3919 -0.2654  0.3156
 1270TIP3    H1 3816   4.332   4.993   2.231 -1.3004  0.2349  2.1961
 1270TIP3    H2 3817   4.436   5.101   2.214 -0.1689 -1.2279 -0.9673
 1271TIP3   OH2 3818   2.713   1.724   1.453  0.3598 -0.1605  0.0232
 1271TIP3    H1 3819   2.763   1.691   1.527 -1.0626 -0.1162  1.0418
 1271TIP3    H2 3820   2.737   1.816   1.446  0.7610 -0.2496  0.1833
 1272TIP3   OH2 3821   6.318   2.982   1.847 -0.6874  0.8142 -0.5348
 1272TIP3    H1 3822   6.244   2.928   1.818 -0.0313 -1.6961  2.0754
 1272TIP3    H2 3823   6.395   2.940   1.810 -0.2125  0.3263  0.9613
 1273TIP3   OH2 3824   3.115   2.368   3.618  0.2682 -0.0902  0.0699
 1273TIP3    H1 3825   3.040   2.340   3.566  0.2569 -2.5704  1.2722
 1273TIP3    H2 3826   3.189   2.365   3.557 -0.2737  0.5226 -0.6450
 1274TIP3   OH2 3827   5.388   3.741   3.585 -0.4191  0.1847  0.3990
 1274TIP3    H1 3828   5.414   3.652   3.608 -0.1957  0.1833  0.1457
 1274TIP3    H2 3829   5.425   3.796   3.654  3.0047  0.5636 -1.5246
 1275TIP3   OH2 3830   4.550   5.038   3.792  0.6360 -0.5353  0.0419
 1275TIP3    H1 3831   4.574   5.122   3.753 -0.2448  0.4151  1.4919
 1275TIP3    H2 3832   4.608   4.975   3.749 -0.0146  0.4833 -2.4933
 1276TIP3   OH2 3833   2.578   1.767   5.008  0.4777 -0.6750 -0.2729
 1276TIP3    H1 3834   2.635   1.702   4.966  0.7449 -1.0275  0.6083
 1276TIP3    H2 3835   2.586   1.845   4.953  0.3199 -1.3183 -1.2271
 1277TIP3   OH2 3836   2.658   2.144   3.232 -0.0434  0.4845  0.0212
 1277TIP3    H1 3837   2.609   2.092   3.169  0.3667 -1.4052  1.1650
 1277TIP3    H2 3838   2.740   2.164   3.188 -0.0806 -0.1348 -0.3521
 1278TIP3   OH2 3839   6.288   1.004   2.289 -0.4818 -0.5497 -0.2690
 1278TIP3    H1 3840   6.202   0.972   2.261 -0.2931  0.4909 -2.2203
 1278TIP3    H2 3841   6.336   0.925   2.314 -2.7790 -0.9819  3.5476
 1279TIP3   OH2 3842   0.761   3.693   2.486 -0.1302  0.3255 -0.6580
 1279TIP3    H1 3843   0.770   3.603   2.519 -1.4047  0.1546 -0.7298
 1279TIP3    H2 3844   0.752   3.746   2.565 -1.2939  0.1465 -0.6600
 1280TIP3   OH2 3845   4.571   4.061   3.804 -0.0455  0.3129 -0.3730
 1280TIP3    H1 3846   4.547   3.968   3.805 -1.2152  0.5795  1.7990
 1280TIP3    H2 3847   4.660   4.062   3.768  0.7058 -1.8342  1.1918
 1281TIP3   OH2 3848   3.062   3.088   4.246 -0.0054  0.3594  0.6333
 1281TIP3    H1 3849   2.991   3.107   4.185  1.3643  1.2531 -0.7687
 1281TIP3    H2 3850   3.042   3.140   4.323 -1.1803  0.1199  0.5003
 1282TIP3   OH2 3851   5.947   5.450   0.098 -0.2898  0.1807  0.2559
 1282TIP3    H1 3852   5.913   5.476   0.012  1.5043  0.5169 -0.3910
 1282TIP3    H2 3853   6.017   5.388   0.078 -0.6095 -0.6237  1.5454
 1283TIP3   OH2 3854   1.646   1.837   3.329 -0.5076  0.0928 -0.1467
 1283TIP3    H1 3855   1.687   1.793   3.404 -0.5812  0.5756  0.1772
 1283TIP3    H2 3856   1.574   1.886   3.367 -0.3777  0.5563 -0.4964
 1284TIP3   OH2 3857   6.051   0.724   3.319 -0.2758  0.0395 -0.0519
 1284TIP3    H1 3858   6.101   0.679   3.250  0.6996 -0.3237  0.8607
 1284TIP3    H2 3859   6.070   0.817   3.306  0.9249 -0.1112  0.4653
 1285TIP3   OH2 3860   0.064   5.492   1.145 -0.0673 -0.3558 -0.4828
 1285TIP3    H1 3861   0.155   5.500   1.175 -0.8004  2.1270  1.4328
 1285TIP3    H2 3862   0.047   5.398   1.147  1.6737 -0.7352  1.8081
 1286TIP3   OH2 3863   6.035   0.845   0.155 -0.8075  0.3955 -0.4787
 1286TIP3    H1 3864   6.095   0.894   0.211 -0.3416 -0.7728  0.0875
 1286TIP3    H2 3865   6.087   0.820   0.079 -0.6199 -0.4066 -0.1026
 1287TIP3   OH2 3866   3.827   3.250   2.505 -0.1603 -0.2684 -0.2094
 1287TIP3    H1 3867   3.744   3.298   2.495  0.0130 -0.0806 -0.8173
 1287TIP3    H2 3868   3.823   3.214   2.593 -0.6788  0.1435 -0.0546
 1288TIP3   OH2 3869   0.968   0.741   3.059 -0.1118 -0.1331  0.2225
 1288TIP3    H1 3870   0.991   0.771   2.971 -1.3753 -0.5634 -0.2765
 1288TIP3    H2 3871   0.911   0.666   3.045  2.6901 -2.6855  1.4400
 1289TIP3   OH2 3872   0.394   3.370   2.115  0.0086  0.0668  0.0082
 1289TIP3    H1 3873   0.489   3.368   2.104  0.2603  0.9476  1.6784
 1289TIP3    H2 3874   0.377   3.453   2.159 -1.3741 -0.7605  1.1271
 1290TIP3   OH2 3875   1.182   4.356   1.481 -0.5097 -0.7455 -0.2311
 1290TIP3    H1 3876   1.096   4.347   1.523 -0.5913  1.0181  0.0454
 1290TIP3    H2 3877   1.233   4.410   1.541  0.5386 -1.0989 -0.7787
 1291TIP3   OH2 3878   5.424   4.395   0.731 -0.9280  0.2380  0.0137
 1291TIP3    H1 3879   5.450   4.353   0.814  1.5629  2.8170  0.7350
 1291TIP3    H2 3880   5.507   4.424   0.693 -2.1618  0.5657 -2.6243
 1292TIP3   OH2 3881   6.127   3.725   0.496 -0.1155  0.0142 -0.4076
 1292TIP3    H1 3882   6.066   3.799   0.487 -0.8590 -0.4378  0.6387
 1292TIP3    H2 3883   6.211   3.766   0.516 -0.7336  0.5900  1.2201
 1293TIP3   OH2 3884   5.109   0.632   2.986 -0.0365 -0.6722 -0.1595
 1293TIP3    H1 3885   5.189   0.580   2.997  1.2978  0.3828 -3.6211
 1293TIP3    H2 3886   5.049   0.574   2.939 -0.8862 -1.0186  1.2946
 1294TIP3   OH2 3887   5.514   4.011   4.250  0.4596 -0.5637  0.4084
 1294TIP3    H1 3888   5.519   3.916   4.236  1.7023 -0.2678 -1.4729
 1294TIP3    H2 3889   5.577   4.048   4.189 -0.5214  1.5452  0.5788
 1295TIP3   OH2 3890   4.572   3.127   4.964 -0.2905  0.0327 -0.5216
 1295TIP3    H1 3891   4.540   3.156   5.049  1.2825  3.5470 -0.9389
 1295TIP3    H2 3892   4.651   3.076   4.984 -1.0043 -0.8610  0.1218
 1296TIP3   OH2 3893   4.085   1.455   4.111 -0.0717  0.5179 -0.2112
 1296TIP3    H1 3894   4.037   1.480   4.031 -0.3180  1.1550  0.1292
 1296TIP3    H2 3895   4.033   1.383   4.148  0.6398 -0.5310 -1.1960
 1297TIP3   OH2 3896   1.348   5.186   3.834 -0.4136 -0.0200 -0.3951
 1297TIP3    H1 3897   1.300   5.110   3.866 -0.8958 -1.1229 -3.3809
 1297TIP3    H2 3898   1.427   5.149   3.795 -0.3824  1.0666 -1.4155
 1298TIP3   OH2 3899   2.591   2.126   1.422  0.5655  0.3396  0.3640
 1298TIP3    H1 3900   2.520   2.105   1.483 -1.1050  2.7015 -0.5952
 1298TIP3    H2 3901   2.660   2.062   1.442 -2.3410 -3.1764  0.3324
 1299TIP3   OH2 3902   2.491   1.771   3.632 -0.1935  0.8524 -0.0644
 1299TIP3    H1 3903   2.555   1.797   3.698  1.7543  0.6562 -1.7801
 1299TIP3    H2 3904   2.473   1.852   3.583 -1.7288  1.0275  0.7231
 1300TIP3   OH2 3905   2.737   1.283   4.967 -0.2441 -0.4000 -0.1182
 1300TIP3    H1 3906   2.678   1.265   5.041 -1.8179 -1.5522 -1.5804
 1300TIP3    H2 3907   2.822   1.300   5.008 -1.0724 -0.9128  1.9527
 1301TIP3   OH2 3908   1.548   2.607   4.539  0.7294  0.5223 -0.0132
 1301TIP3    H1 3909   1.644   2.608   4.539  0.7692  1.9548 -2.0009
 1301TIP3    H2 3910   1.524   2.667   4.610  1.3590  1.6387 -0.7106
 1302TIP3   OH2 3911   6.333   3.177   3.078  0.2664  0.3171  0.6310
 1302TIP3    H1 3912   6.286   3.261   3.076  0.0673  0.1967 -0.3497
 1302TIP3    H2 3913   6.274   3.118   3.126  0.1090  0.5656  0.7469
 1303TIP3   OH2 3914   5.394   5.651   2.849 -0.1014 -0.0864 -0.5174
 1303TIP3    H1 3915   5.338   5.723   2.820 -0.7627 -0.0512  0.8113
 1303TIP3    H2 3916   5.454   5.690   2.912  0.8332 -0.3206 -1.2374
 1304TIP3   OH2 3917   5.830   1.563   4.064  0.6116 -0.2780 -0.1948
 1304TIP3    H1 3918   5.777   1.490   4.032 -1.1844  0.4495  0.9411
 1304TIP3    H2 3919   5.872   1.529   4.143 -0.4602 -0.0322  0.5024
 1305TIP3   OH2 3920   3.976   2.159   4.538 -0.5037  0.4021 -0.3776
 1305TIP3    H1 3921   3.916   2.088   4.560 -0.7512  0.9020  0.6043
 1305TIP3    H2 3922   4.005   2.139   4.449  0.1997 -1.4719  0.2122
 1306TIP3   OH2 3923   4.020   4.735   1.451  0.1551 -0.0584  0.3765
 1306TIP3    H1 3924   4.042   4.647   1.483 -0.2793 -0.2154  0.2452
 1306TIP3    H2 3925   4.068   4.743   1.368 -0.0167 -0.2788  0.2528
 1307TIP3   OH2 3926   3.238   1.215   1.289  0.0118  0.2899 -0.0708
 1307TIP3    H1 3927   3.330   1.193   1.305  0.0244  0.0201 -0.4817
 1307TIP3    H2 3928   3.191   1.132   1.300  0.0860 -0.0285 -1.8415
 1308TIP3   OH2 3929   3.661   3.465   0.996  0.0987 -0.1267 -0.1086
 1308TIP3    H1 3930   3.664   3.559   0.978 -0.5817 -0.2135 -0.7060
 1308TIP3    H2 3931   3.568   3.442   0.993  0.1768 -0.6441  0.9896
 1309TIP3   OH2 3932   1.424   5.226   1.500 -0.5942 -0.1012  0.3293
 1309TIP3    H1 3933   1.474   5.250   1.578  1.1548 -1.0343 -0.4338
 1309TIP3    H2 3934   1.491   5.209   1.433 -2.0055 -0.1640 -1.1308
 1310TIP3   OH2 3935   3.306   2.491   3.831  0.2811 -0.0048 -0.0763
 1310TIP3    H1 3936   3.297   2.530   3.917  0.6562 -1.6549  0.7482
 1310TIP3    H2 3937   3.398   2.503   3.808  0.3783 -0.3272  0.1413
 1311TIP3   OH2 3938   2.492   1.651   1.956 -0.2159  0.6173 -0.4816
 1311TIP3    H1 3939   2.477   1.744   1.943  2.0690  0.8499 -2.1593
 1311TIP3    H2 3940   2.583   1.646   1.987 -0.4443 -1.0142  0.0168
 1312TIP3   OH2 3941   3.333   1.385   2.070  0.2987  0.0410  0.2747
 1312TIP3    H1 3942   3.252   1.436   2.066  0.0264 -0.3892  0.2624
 1312TIP3    H2 3943   3.358   1.371   1.979  0.5222  0.3786  0.2804
 1313TIP3   OH2 3944   4.567   5.017   4.744 -0.5038  0.4648  0.0238
 1313TIP3    H1 3945   4.653   5.052   4.767  0.9481 -2.5614 -0.2438
 1313TIP3    H2 3946   4.551   4.949   4.810 -1.2696 -1.0038 -1.5942
 1314TIP3   OH2 3947   2.811   5.162   2.711  0.0722  0.2003 -0.1355
 1314TIP3    H1 3948   2.805   5.184   2.804  0.3205 -1.3799  0.2748
 1314TIP3    H2 3949   2.720   5.163   2.680 -0.5602 -3.3764  1.1686
 1315TIP3   OH2 3950   0.600   4.610   2.584  0.0366  0.3566  0.4414
 1315TIP3    H1 3951   0.692   4.601   2.559  0.1426  0.4168  0.8089
 1315TIP3    H2 3952   0.600   4.600   2.679 -0.5297 -1.1534  0.2954
 1316TIP3   OH2 3953   0.063   4.932   1.254  0.7644 -0.0119  0.2354
 1316TIP3    H1 3954   0.094   4.858   1.203  1.3897  0.1694  0.3399
 1316TIP3    H2 3955   0.084   4.910   1.345  0.6927  0.1680  0.2966
 1317TIP3   OH2 3956   4.916   5.536   0.132 -0.0288 -0.8488  0.2709
 1317TIP3    H1 3957   4.949   5.473   0.195 -1.5931  1.1894  3.3805
 1317TIP3    H2 3958   4.990   5.594   0.115  0.2910 -1.1658  0.5666
 1318TIP3   OH2 3959   2.788   2.705   0.374 -0.1931  0.6485 -0.4826
 1318TIP3    H1 3960   2.772   2.792   0.410  0.8369  0.8994 -0.5849
 1318TIP3    H2 3961   2.842   2.661   0.440 -0.6304  0.1198 -0.4717
 1319TIP3   OH2 3962   4.466   3.938   0.110 -0.3828 -0.1056 -0.1149
 1319TIP3    H1 3963   4.504   3.960   0.025 -1.4027 -1.3604 -0.9326
 1319TIP3    H2 3964   4.541   3.912   0.163  0.3014  0.9531 -0.5211
 1320TIP3   OH2 3965   1.511   5.578   3.453 -0.8313 -0.2174  0.8808
 1320TIP3    H1 3966   1.552   5.492   3.462 -1.0421 -0.2174  2.0116
 1320TIP3    H2 3967   1.470   5.594   3.539 -1.8195  0.4792  0.3003
 1321TIP3   OH2 3968   2.488   0.895   3.423 -0.0037 -0.2783 -0.0804
 1321TIP3    H1 3969   2.552   0.887   3.494 -1.1223  0.9995  1.1375
 1321TIP3    H2 3970   2.520   0.969   3.370  0.0908 -0.3201 -0.0815
 1322TIP3   OH2 3971   0.672   5.431   1.016 -0.2247 -0.5840  0.0460
 1322TIP3    H1 3972   0.664   5.351   1.068  0.4259 -0.6361  0.0716
 1322TIP3    H2 3973   0.706   5.401   0.931  0.1319 -0.3275  0.0938
 1323TIP3   OH2 3974   4.545   2.078   1.821  0.0395  0.2710  0.3459
 1323TIP3    H1 3975   4.489   2.100   1.746  0.9953 -2.5723 -1.3868
 1323TIP3    H2 3976   4.488   2.030   1.881 -0.5021  1.7273  1.0324
 1324TIP3   OH2 3977   1.002   4.749   3.771  0.2321 -0.0588  0.0900
 1324TIP3    H1 3978   0.948   4.762   3.693  1.4216 -0.5399 -0.8608
 1324TIP3    H2 3979   0.941   4.724   3.840 -0.8090  0.0375 -0.7775
 1325TIP3   OH2 3980   3.938   1.645   0.652  0.4380  0.4466  0.0172
 1325TIP3    H1 3981   3.997   1.618   0.582  1.9727  0.3538  1.2957
 1325TIP3    H2 3982   3.979   1.613   0.732 -2.3158 -1.3421  0.8601
 1326TIP3   OH2 3983   3.346   3.361   4.648  0.2924 -0.5216  0.3848
 1326TIP3    H1 3984   3.278   3.421   4.618  1.0503 -0.1964 -0.7626
 1326TIP3    H2 3985   3.428   3.407   4.629  0.8777 -1.7995 -0.3001
 1327TIP3   OH2 3986   0.540   0.338   3.546  0.4423  0.3140 -0.4799
 1327TIP3    H1 3987   0.472   0.335   3.479 -1.2073 -0.2505  1.1401
 1327TIP3    H2 3988   0.601   0.268   3.522  0.4699  0.7941 -1.9190
 1328TIP3   OH2 3989   5.291   1.765   4.987 -0.0457 -0.2348 -0.4018
 1328TIP3    H1 3990   5.352   1.691   4.988  0.9009  0.5189  1.1745
 1328TIP3    H2 3991   5.316   1.818   5.062 -1.1479  1.3474 -1.0941
 1329TIP3   OH2 3992   2.299   4.564   4.543  0.1292 -0.0360  0.3085
 1329TIP3    H1 3993   2.237   4.615   4.595 -0.3710 -1.5326  1.2540
 1329TIP3    H2 3994   2.287   4.594   4.453 -2.0852 -0.3808  0.4558
 1330TIP3   OH2 3995   4.445   4.978   2.559 -0.5637 -0.2588 -0.6867
 1330TIP3    H1 3996   4.451   4.996   2.466 -1.2552 -0.8949 -0.8583
 1330TIP3    H2 3997   4.352   4.966   2.576 -0.3346 -1.5690 -0.1997
 1331TIP3   OH2 3998   0.751   2.389   0.866 -0.0311 -0.3552 -0.3390
 1331TIP3    H1 3999   0.671   2.354   0.827  0.1041  2.2403 -3.2956
 1331TIP3    H2 4000   0.818   2.323   0.847 -0.9417 -1.4110 -0.0044
 1332TIP3   OH2 4001   3.134   1.384   0.985  0.4074 -0.0107  0.1189
 1332TIP3    H1 4002   3.080   1.457   0.953  1.1557  0.5352  0.0650
 1332TIP3    H2 4003   3.148   1.404   1.078  0.7562  0.0077  0.0625
 1333TIP3   OH2 4004   5.737   2.629   1.284 -0.6799 -0.2344 -0.6501
 1333TIP3    H1 4005   5.713   2.704   1.339  1.5412 -1.0071  1.5917
 1333TIP3    H2 4006   5.670   2.563   1.303  0.5299 -0.8311  2.0767
 1334TIP3   OH2 4007   2.758   5.822   0.990 -0.4728  0.1420 -0.0173
 1334TIP3    H1 4008   2.676   5.851   0.950 -0.2679 -0.6843 -1.0850
 1334TIP3    H2 4009   2.822   5.822   0.919 -0.3270 -2.3269  0.0211
 1335TIP3   OH2 4010   1.918   3.178   4.492 -0.4242  0.3690 -0.0542
 1335TIP3    H1 4011   1.952   3.162   4.404  0.9726  1.0958  0.3257
 1335TIP3    H2 4012   1.993   3.210   4.541 -1.8826  3.1766  0.5438
 1336TIP3   OH2 4013   3.337   2.448   1.013 -0.1789 -0.0768 -0.6636
 1336TIP3    H1 4014   3.412   2.392   0.995 -0.9431 -1.2163 -0.3718
 1336TIP3    H2 4015   3.375   2.536   1.024  1.0426 -0.5424 -1.0113
 1337TIP3   OH2 4016   3.288   0.382   3.736 -0.1799  0.1120  0.1460
 1337TIP3    H1 4017   3.286   0.341   3.822 -0.6054  2.3892  1.2861
 1337TIP3    H2 4018   3.380   0.398   3.718 -0.0809 -0.4927  0.0927
 1338TIP3   OH2 4019   2.492   5.021   1.611  0.1468 -0.1003  0.4943
 1338TIP3    H1 4020   2.570   4.967   1.622  0.3797 -0.5268 -2.3693
 1338TIP3    H2 4021   2.419   4.963   1.631  0.5083 -0.2142  1.4992
 1339TIP3   OH2 4022   5.520   3.769   2.051 -0.0781  0.1967  0.3383
 1339TIP3    H1 4023   5.558   3.785   1.965 -0.8201 -1.8972 -0.4320
 1339TIP3    H2 4024   5.436   3.816   2.050  0.1903  0.6722  0.1588
 1340TIP3   OH2 4025   0.140   4.155   0.677 -0.5170 -0.5299 -0.2642
 1340TIP3    H1 4026   0.124   4.061   0.673 -1.8518 -0.3850  1.0576
 1340TIP3    H2 4027   0.089   4.185   0.752 -0.6148  1.3616 -1.0470
 1341TIP3   OH2 4028   4.980   3.800   2.726 -0.5361  0.2530 -0.4719
 1341TIP3    H1 4029   4.938   3.775   2.643  0.5030  1.7706 -1.4987
 1341TIP3    H2 4030   4.950   3.889   2.743 -1.7731 -0.4810  1.5282
 1342TIP3   OH2 4031   0.166   2.069   2.234 -0.4575 -0.4698  0.0530
 1342TIP3    H1 4032   0.110   2.089   2.159 -0.1430  0.5314  0.0741
 1342TIP3    H2 4033   0.177   2.153   2.279  0.7340 -0.7259  0.2713
 1343TIP3   OH2 4034   4.544   0.246   0.691  0.0375  0.1157  0.3095
 1343TIP3    H1 4035   4.458   0.223   0.725  0.5537 -1.4495  0.6683
 1343TIP3    H2 4036   4.543   0.212   0.601 -0.6765  2.6041 -0.6956
 1344TIP3   OH2 4037   5.562   2.816   5.203  0.1339 -0.3143 -0.3888
 1344TIP3    H1 4038   5.606   2.851   5.126 -2.4967  0.8928 -1.4173
 1344TIP3    H2 4039   5.470   2.836   5.191 -0.5232 -0.9675  2.6244
 1345TIP3   OH2 4040   2.179   2.100   2.206 -0.3685  0.6239 -0.4643
 1345TIP3    H1 4041   2.134   2.149   2.274  0.2740  0.4532  0.0928
 1345TIP3    H2 4042   2.264   2.077   2.244 -0.3110 -0.1651 -1.0261
 1346TIP3   OH2 4043   4.450   2.978   4.571  0.3658 -0.3235 -0.3931
 1346TIP3    H1 4044   4.428   3.028   4.493 -1.0655  1.7255  1.2107
 1346TIP3    H2 4045   4.503   3.038   4.624 -0.4002 -0.8874  1.0727
 1347TIP3   OH2 4046   5.033   0.481   1.796  0.3246 -0.1595  0.5865
 1347TIP3    H1 4047   5.128   0.488   1.801  0.5759 -0.0543 -2.3737
 1347TIP3    H2 4048   5.017   0.388   1.783  0.0053 -0.1888  1.1754
 1348TIP3   OH2 4049   5.459   0.580   0.117 -0.0330  0.3042  0.3705
 1348TIP3    H1 4050   5.488   0.646   0.180  0.8891  0.0596  0.2098
 1348TIP3    H2 4051   5.462   0.498   0.165  1.0091  0.0681 -0.0880
 1349TIP3   OH2 4052   2.054   2.925   0.695 -0.2282  0.5048  0.1267
 1349TIP3    H1 4053   2.112   2.964   0.760  0.6642 -1.1281  0.3619
 1349TIP3    H2 4054   2.111   2.903   0.621 -0.5662 -0.8934  0.2518
 1350TIP3   OH2 4055   0.570   4.988   2.793  0.4639  0.1045 -0.2647
 1350TIP3    H1 4056   0.662   4.980   2.819  0.3731 -1.6026 -0.3577
 1350TIP3    H2 4057   0.531   5.044   2.860  1.0656 -1.1052  1.1419
 1351TIP3   OH2 4058   2.576   3.172   2.479  0.4429  0.0841 -0.4800
 1351TIP3    H1 4059   2.599   3.096   2.425 -0.8682 -1.1465  0.5965
 1351TIP3    H2 4060   2.655   3.187   2.532  1.4827  0.8642 -2.1484
 1352TIP3   OH2 4061   0.563   3.882   5.050 -0.0437 -0.0006  0.1902
 1352TIP3    H1 4062   0.500   3.942   5.010 -0.9300  0.2980  1.9572
 1352TIP3    H2 4063   0.552   3.800   5.001  1.3214  1.2327 -2.3932
 1353TIP3   OH2 4064   5.631   0.983   0.467  0.4915  0.0313 -0.3726
 1353TIP3    H1 4065   5.561   1.047   0.451  0.9012  0.6115  0.1280
 1353TIP3    H2 4066   5.698   1.005   0.404 -0.7025 -2.0100 -2.4982
 1354TIP3   OH2 4067   3.639   2.948   4.282  0.1543  0.1943 -0.1159
 1354TIP3    H1 4068   3.661   2.953   4.189  0.4016 -0.4549 -0.0961
 1354TIP3    H2 4069   3.548   2.919   4.285  0.7071 -1.6680 -0.1468
 1355TIP3   OH2 4070   4.217   3.380   2.666 -0.5001 -0.7093 -0.7390
 1355TIP3    H1 4071   4.144   3.418   2.616  0.6808 -0.7179 -2.5646
 1355TIP3    H2 4072   4.295   3.404   2.617  0.7913 -0.5172  1.2862
 1356TIP3   OH2 4073   0.585   5.573   1.353 -0.2310 -0.1716 -0.4536
 1356TIP3    H1 4074   0.633   5.492   1.369 -0.1657 -0.0446 -0.0004
 1356TIP3    H2 4075   0.556   5.602   1.440 -1.7667 -0.6329 -0.7697
 1357TIP3   OH2 4076   2.623   4.347   2.384  0.4135 -0.1079  0.6151
 1357TIP3    H1 4077   2.674   4.402   2.325 -1.0656  1.4091  0.6812
 1357TIP3    H2 4078   2.688   4.290   2.425  2.0542  1.6780  0.6728
 1358TIP3   OH2 4079   2.845   5.704   3.908  0.1453  0.2150  0.1955
 1358TIP3    H1 4080   2.876   5.614   3.909  0.4309  0.2374 -2.1140
 1358TIP3    H2 4081   2.912   5.752   3.859 -0.4424  1.5252  0.6286
 1359TIP3   OH2 4082   4.325   2.805   5.046 -0.1502 -0.1263  0.1219
 1359TIP3    H1 4083   4.357   2.865   5.113 -0.9772 -0.1037  0.5081
 1359TIP3    H2 4084   4.273   2.741   5.095  2.0891 -2.2208 -0.0129
 1360TIP3   OH2 4085   2.173   0.405   4.190 -0.2712  0.5653 -0.1212
 1360TIP3    H1 4086   2.169   0.501   4.191 -0.1633  0.5727 -0.3412
 1360TIP3    H2 4087   2.266   0.385   4.179 -0.2722  0.4337  0.1180
 1361TIP3   OH2 4088   2.842   4.266   4.176  0.0868 -0.3119 -0.0584
 1361TIP3    H1 4089   2.930   4.261   4.138  0.3701 -2.2338  0.7381
 1361TIP3    H2 4090   2.797   4.190   4.141 -0.2900 -1.0000  1.8148
 1362TIP3   OH2 4091   5.227   3.687   2.830  0.1400  0.2364  0.0847
 1362TIP3    H1 4092   5.175   3.752   2.783  0.0406 -0.9185 -1.4423
 1362TIP3    H2 4093   5.169   3.612   2.839  0.3630  0.2066  1.5610
 1363TIP3   OH2 4094   3.480   5.419   1.770 -0.0156 -0.1055  0.0621
 1363TIP3    H1 4095   3.413   5.474   1.729 -0.4958 -0.1760  0.7349
 1363TIP3    H2 4096   3.513   5.364   1.699  0.2119  0.7895 -0.5455
 1364TIP3   OH2 4097   2.727   2.214   4.531 -0.2424 -0.3992  0.2549
 1364TIP3    H1 4098   2.814   2.253   4.540  0.8310 -2.9297  2.1646
 1364TIP3    H2 4099   2.741   2.136   4.478 -1.6522 -0.1109 -0.5849
 1365TIP3   OH2 4100   2.792   4.665   4.296 -0.0107 -0.2763  0.3606
 1365TIP3    H1 4101   2.745   4.711   4.365  0.7862  1.4911 -0.2083
 1365TIP3    H2 4102   2.734   4.593   4.271 -1.7513  0.9719  0.6446
 1366TIP3   OH2 4103   3.328   4.441   3.189 -0.1603  0.4187 -0.1391
 1366TIP3    H1 4104   3.246   4.407   3.153 -0.3789  0.8513 -0.0532
 1366TIP3    H2 4105   3.343   4.388   3.267  1.2316 -1.7482 -1.7315
 1367TIP3   OH2 4106   3.405   4.267   5.095 -0.4167  0.1365  0.0739
 1367TIP3    H1 4107   3.353   4.343   5.070 -0.3664 -0.3113 -1.5376
 1367TIP3    H2 4108   3.357   4.192   5.060 -0.6404 -0.6420  1.9238
 1368TIP3   OH2 4109   3.455   0.387   0.515  0.5582 -0.4295  0.0044
 1368TIP3    H1 4110   3.394   0.451   0.552 -0.1862 -1.6027  0.8688
 1368TIP3    H2 4111   3.541   0.429   0.524  0.4639 -0.6704  3.2644
 1369TIP3   OH2 4112   1.883   0.514   4.402  0.2855  0.1633 -0.1627
 1369TIP3    H1 4113   1.816   0.529   4.335  0.6453  0.6271 -0.4275
 1369TIP3    H2 4114   1.914   0.426   4.385 -0.5006 -0.1907  0.1806
 1370TIP3   OH2 4115   1.548   1.063   2.899 -0.2413  0.2600 -0.4022
 1370TIP3    H1 4116   1.616   1.080   2.835  0.5763  0.9481  0.6324
 1370TIP3    H2 4117   1.561   0.971   2.924 -0.8330 -0.1443 -1.5015
 1371TIP3   OH2 4118   4.651   1.621   5.026 -0.0926 -0.3770 -0.2105
 1371TIP3    H1 4119   4.713   1.646   5.095 -0.6631 -1.1563  0.6052
 1371TIP3    H2 4120   4.699   1.635   4.944  1.6060 -2.0918  0.4364
 1372TIP3   OH2 4121   6.244   1.636   3.511  0.3329 -0.6706 -0.0710
 1372TIP3    H1 4122   6.329   1.590   3.513  0.2314 -0.8511  0.1169
 1372TIP3    H2 4123   6.260   1.717   3.559  0.6340 -0.2982 -0.7936
 1373TIP3   OH2 4124   3.246   0.033   4.449  1.0301  0.4780 -0.0205
 1373TIP3    H1 4125   3.279   0.023   4.538  1.4584  1.4786 -0.0628
 1373TIP3    H2 4126   3.185  -0.040   4.438  1.4584 -0.0299  0.8646
 1374TIP3   OH2 4127   3.394   0.614   0.104  0.2923 -0.0865  0.2177
 1374TIP3    H1 4128   3.299   0.611   0.118  0.3012  1.4092  0.8093
 1374TIP3    H2 4129   3.425   0.527   0.131 -1.0089 -0.9643 -0.9999
 1375TIP3   OH2 4130   4.332   5.917   5.096  0.3387 -0.6252  0.1672
 1375TIP3    H1 4131   4.383   5.998   5.107  0.8215 -1.0583  1.2551
 1375TIP3    H2 4132   4.378   5.868   5.029 -0.5268  0.4274 -1.2464
 1376TIP3   OH2 4133   4.490   1.173   0.710 -0.2180 -0.0080 -0.2664
 1376TIP3    H1 4134   4.490   1.146   0.802  0.7947 -2.3145 -0.8791
 1376TIP3    H2 4135   4.404   1.212   0.697 -0.5220  0.0240  1.5565
 1377TIP3   OH2 4136   2.485   4.237   2.943 -0.1189  0.0821 -0.3055
 1377TIP3    H1 4137   2.479   4.164   2.880 -0.2881  0.4041 -0.6695
 1377TIP3    H2 4138   2.415   4.296   2.916 -0.4267  0.0510  0.4180
 1378TIP3   OH2 4139   0.478   1.821   3.758  0.1694 -1.1679 -0.0105
 1378TIP3    H1 4140   0.484   1.772   3.840  0.9108 -2.7463 -0.9567
 1378TIP3    H2 4141   0.486   1.754   3.689 -0.2379  0.1274 -1.3787
 1379TIP3   OH2 4142   2.228   0.188   0.606 -0.0048 -0.2614  0.2583
 1379TIP3    H1 4143   2.211   0.111   0.552 -0.5313 -0.2564  0.4082
 1379TIP3    H2 4144   2.163   0.253   0.577  1.6437  0.8080 -1.1817
 1380TIP3   OH2 4145   4.154   4.741   3.685 -0.0888 -0.0259  0.2017
 1380TIP3    H1 4146   4.205   4.822   3.685 -0.0175 -0.0463  1.7496
 1380TIP3    H2 4147   4.156   4.712   3.593  0.9959  1.0106 -0.1363
 1381TIP3   OH2 4148   1.754   0.176   5.203 -0.6673  0.2143 -0.5992
 1381TIP3    H1 4149   1.823   0.163   5.137  0.8359 -0.6185  1.0611
 1381TIP3    H2 4150   1.675   0.138   5.164  0.3612 -0.9503 -1.6221
 1382TIP3   OH2 4151   0.697   0.941   1.828  0.4154 -0.3882  0.3853
 1382TIP3    H1 4152   0.681   0.935   1.922  0.3270 -0.0994  0.3890
 1382TIP3    H2 4153   0.661   0.859   1.793  0.0390 -0.2961  0.5484
 1383TIP3   OH2 4154   3.943   4.591   4.560  0.1404 -0.3834 -0.1682
 1383TIP3    H1 4155   3.899   4.566   4.478 -0.2017 -0.7291  0.1168
 1383TIP3    H2 4156   3.924   4.519   4.620  0.0433  0.0647  0.3443
 1384TIP3   OH2 4157   6.060   5.894   3.733  0.5154 -0.7454 -0.2268
 1384TIP3    H1 4158   6.069   5.960   3.663 -0.7979 -0.7162 -0.3878
 1384TIP3    H2 4159   5.983   5.844   3.709  0.5752 -1.3292  0.7436
 1385TIP3   OH2 4160   5.202   2.921   0.621 -0.3286  0.6957 -0.2061
 1385TIP3    H1 4161   5.184   2.848   0.563  2.1878  1.4241 -2.1118
 1385TIP3    H2 4162   5.286   2.899   0.662 -1.1769  1.0368  1.8340
 1386TIP3   OH2 4163   4.809   3.719   2.520 -0.1246 -0.1910  0.3921
 1386TIP3    H1 4164   4.743   3.770   2.472  1.0857  2.3942  1.2859
 1386TIP3    H2 4165   4.847   3.661   2.454  0.1349  1.8581 -1.3637
 1387TIP3   OH2 4166   2.454   3.479   2.487  0.2847 -0.0499  0.0204
 1387TIP3    H1 4167   2.372   3.428   2.478 -0.0652  0.7939 -2.5569
 1387TIP3    H2 4168   2.442   3.553   2.427  2.5210  0.6839  0.4101
 1388TIP3   OH2 4169   6.130   5.981   0.694 -0.6843  0.2929 -0.3584
 1388TIP3    H1 4170   6.102   5.924   0.765 -1.5395  0.1350 -0.8098
 1388TIP3    H2 4171   6.204   5.935   0.654 -1.9924 -1.0350 -1.3587
 1389TIP3   OH2 4172   3.999   5.309   4.618  0.4117 -0.0326 -0.0018
 1389TIP3    H1 4173   4.017   5.294   4.710 -0.7547 -2.2474 -0.0513
 1389TIP3    H2 4174   3.904   5.308   4.611  0.3048  3.6174 -0.7989
 1390TIP3   OH2 4175   5.721   0.154   2.200 -0.0297 -0.1158  0.3334
 1390TIP3    H1 4176   5.708   0.077   2.145  0.9169 -0.1659  0.1712
 1390TIP3    H2 4177   5.643   0.207   2.185 -0.0638 -0.4128 -0.5881
 1391TIP3   OH2 4178   1.947   3.843   4.725  0.7715 -0.5372  0.0742
 1391TIP3    H1 4179   1.979   3.870   4.810  0.8393 -0.2206 -0.0524
 1391TIP3    H2 4180   2.025   3.844   4.668  1.0166 -2.1203  0.3365
 1392TIP3   OH2 4181   0.838   5.850   2.227 -0.0880 -0.5348  0.4362
 1392TIP3    H1 4182   0.778   5.775   2.218  1.0764 -1.3579 -0.8190
 1392TIP3    H2 4183   0.791   5.922   2.184 -0.4726 -1.0066  0.0393
 1393TIP3   OH2 4184   1.869   0.310   1.647 -0.1591 -0.5865 -0.3998
 1393TIP3    H1 4185   1.834   0.251   1.580  0.0706  0.1851 -1.2194
 1393TIP3    H2 4186   1.895   0.252   1.719 -1.5975 -1.3215 -0.4395
 1394TIP3   OH2 4187   3.704   1.898   0.444 -0.3367 -0.3621 -0.1957
 1394TIP3    H1 4188   3.783   1.917   0.493 -0.7892 -0.1807  0.4772
 1394TIP3    H2 4189   3.664   1.983   0.429 -1.0463 -0.5457  0.5757
 1395TIP3   OH2 4190   3.602   3.629   0.661  0.6361  0.3909  0.1491
 1395TIP3    H1 4191   3.601   3.535   0.641 -1.7045  0.5412 -0.8091
 1395TIP3    H2 4192   3.521   3.644   0.710  0.7545  1.9784 -0.0841
 1396TIP3   OH2 4193   0.206   4.750   1.093 -0.6561  0.3986  0.0321
 1396TIP3    H1 4194   0.243   4.785   1.012 -0.4060  1.1408  0.4578
 1396TIP3    H2 4195   0.146   4.682   1.064 -0.1409  0.2648 -0.7493
 1397TIP3   OH2 4196   4.660   4.679   1.682 -0.1541 -0.5604 -0.5569
 1397TIP3    H1 4197   4.636   4.685   1.774  1.3867 -3.1975  0.1121
 1397TIP3    H2 4198   4.577   4.664   1.637 -1.0071  1.3982  0.2596
 1398TIP3   OH2 4199   2.676   2.381   2.969 -0.3869 -0.3894  0.1357
 1398TIP3    H1 4200   2.762   2.422   2.962 -0.1710 -1.1540 -2.5142
 1398TIP3    H2 4201   2.616   2.444   2.929 -0.6729 -0.9355 -0.3052
 1399TIP3   OH2 4202   2.707   4.553   3.630 -0.3735  0.4098 -1.4448
 1399TIP3    H1 4203   2.623   4.588   3.662  0.9666  1.2358  1.5188
 1399TIP3    H2 4204   2.749   4.628   3.587 -0.3163  0.5566 -1.1335
 1400TIP3   OH2 4205   5.336   3.352   4.918 -0.0630  0.5292  0.0613
 1400TIP3    H1 4206   5.417   3.396   4.941  0.4661 -0.7634  0.7751
 1400TIP3    H2 4207   5.355   3.258   4.929 -2.4158  0.2391  2.9643
 1401TIP3   OH2 4208   2.613   4.367   1.460 -0.0290  0.2930 -0.1567
 1401TIP3    H1 4209   2.535   4.313   1.476 -0.3550  0.8514  0.2174
 1401TIP3    H2 4210   2.601   4.400   1.371  0.0169 -0.0009 -0.2728
 1402TIP3   OH2 4211   3.245   2.251   0.775  0.4166 -0.8182 -0.4554
 1402TIP3    H1 4212   3.338   2.248   0.752  0.9949 -0.1495  1.5480
 1402TIP3    H2 4213   3.234   2.182   0.840  0.1524  0.7032  1.2063
 1403TIP3   OH2 4214   2.927   3.125   1.162 -0.3409 -0.7135  0.7910
 1403TIP3    H1 4215   3.018   3.134   1.134 -0.7698 -0.7316 -0.6843
 1403TIP3    H2 4216   2.929   3.061   1.233  1.0510  0.8447  2.2297
 1404TIP3   OH2 4217   3.513   4.481   1.808  0.3561 -0.9821  0.2540
 1404TIP3    H1 4218   3.576   4.423   1.850  0.9582  0.2731  1.1347
 1404TIP3    H2 4219   3.432   4.470   1.858  0.7835 -0.2547  1.1249
 1405TIP3   OH2 4220   5.743   5.875   1.611 -0.6518 -0.6066 -0.6010
 1405TIP3    H1 4221   5.774   5.950   1.559  0.0705 -1.5426 -1.5633
 1405TIP3    H2 4222   5.721   5.913   1.696  0.0001  0.6544 -0.9612
 1406TIP3   OH2 4223   6.334   2.050   1.224  0.4007  0.0376  0.4649
 1406TIP3    H1 4224   6.265   2.062   1.159  0.8240  2.4953  0.3731
 1406TIP3    H2 4225   6.299   1.985   1.285 -2.6355  2.1970  1.2316
 1407TIP3   OH2 4226   0.477   3.932   0.046  0.0532  0.0392 -0.1820
 1407TIP3    H1 4227   0.476   3.915   0.140  1.9143 -1.6260 -0.3965
 1407TIP3    H2 4228   0.387   3.917   0.018 -0.6893  1.2394  1.3949
 1408TIP3   OH2 4229   5.785   5.954   2.295  0.0975  0.1753  0.0152
 1408TIP3    H1 4230   5.821   6.037   2.264  0.4958 -0.6008 -1.7657
 1408TIP3    H2 4231   5.858   5.913   2.341  1.0171 -0.5685 -1.9568
 1409TIP3   OH2 4232   1.642   3.341   4.862 -0.0563 -0.2724  0.5746
 1409TIP3    H1 4233   1.699   3.299   4.927 -0.4021 -1.8023 -0.0548
 1409TIP3    H2 4234   1.574   3.383   4.914  0.4779 -0.2226  1.2546
 1410TIP3   OH2 4235   1.367   3.907   3.425  0.6954 -0.1696 -0.4489
 1410TIP3    H1 4236   1.406   3.949   3.348  2.6180 -1.7553 -0.4018
 1410TIP3    H2 4237   1.296   3.854   3.389  0.1318  0.8076 -0.8342
 1411TIP3   OH2 4238   2.726   5.477   0.837  0.9369  0.1473  0.3242
 1411TIP3    H1 4239   2.729   5.530   0.758 -2.1380 -0.8790 -0.6163
 1411TIP3    H2 4240   2.751   5.389   0.808 -0.2596 -0.2478  0.4292
 1412TIP3   OH2 4241   0.982   1.235   0.127  0.2835 -0.0961  0.3604
 1412TIP3    H1 4242   1.000   1.153   0.080  0.3185  0.6827 -1.0410
 1412TIP3    H2 4243   1.027   1.225   0.211  1.1373 -1.1008 -0.1923
 1413TIP3   OH2 4244   4.950   1.954   0.395 -0.2639 -0.4218  0.8650
 1413TIP3    H1 4245   5.025   1.902   0.367 -0.2940  0.3596 -0.7842
 1413TIP3    H2 4246   4.874   1.910   0.356 -0.3067  0.6911 -0.3927
 1414TIP3   OH2 4247   4.402   5.188   1.987  0.3100 -0.3787  0.0460
 1414TIP3    H1 4248   4.468   5.119   1.980  1.0549  0.0273  2.2461
 1414TIP3    H2 4249   4.451   5.265   2.018 -0.4095  1.3488 -2.6617
 1415TIP3   OH2 4250   3.744   0.258   0.638 -0.5799 -0.4268  0.1839
 1415TIP3    H1 4251   3.745   0.320   0.565  0.2506 -1.3662 -0.6440
 1415TIP3    H2 4252   3.706   0.307   0.711  1.8184  1.6901  0.1490
 1416TIP3   OH2 4253   4.341   2.304   3.368 -0.2261 -0.2196 -0.3969
 1416TIP3    H1 4254   4.272   2.369   3.359 -0.9447 -0.8083  0.7527
 1416TIP3    H2 4255   4.366   2.307   3.460  1.7636  0.4408 -0.9091
 1417TIP3   OH2 4256   6.314   5.929   1.615  0.2808 -0.1023 -0.1707
 1417TIP3    H1 4257   6.332   5.942   1.522 -1.0039  0.7221 -0.3220
 1417TIP3    H2 4258   6.267   5.845   1.618 -1.2165  0.6893 -0.4974
 1418TIP3   OH2 4259   1.912   0.797   4.197  0.6004  0.2946 -0.5430
 1418TIP3    H1 4260   1.856   0.720   4.200  1.4831 -0.3465  1.2522
 1418TIP3    H2 4261   1.852   0.871   4.190 -0.6709 -0.2520  2.7720
 1419TIP3   OH2 4262   2.388   2.788   3.620  0.1652 -0.3672 -0.4844
 1419TIP3    H1 4263   2.371   2.716   3.681 -0.2049  0.3538  0.2886
 1419TIP3    H2 4264   2.319   2.851   3.637  0.0286 -0.1635 -1.7069
 1420TIP3   OH2 4265   2.499   5.186   3.427 -0.1760  0.0083  0.4128
 1420TIP3    H1 4266   2.457   5.140   3.500  0.5128 -0.7704  0.3360
 1420TIP3    H2 4267   2.466   5.142   3.349  0.3065 -0.2009  0.3259
 1421TIP3   OH2 4268   6.062   3.474   2.685 -0.1370 -0.6435 -0.7037
 1421TIP3    H1 4269   6.034   3.566   2.688 -3.6839 -1.6200  1.8530
 1421TIP3    H2 4270   6.007   3.435   2.617  1.2401 -0.9993 -1.6611
 1422TIP3   OH2 4271   0.062   0.909   0.157  0.4344 -0.1619 -0.0257
 1422TIP3    H1 4272   0.151   0.877   0.141  0.5147  0.2690 -0.4785
 1422TIP3    H2 4273   0.069   1.004   0.148  0.4946  0.1710  2.6109
 1423TIP3   OH2 4274   0.065   4.084   2.041 -0.6394 -0.1599 -0.3152
 1423TIP3    H1 4275   0.126   4.010   2.045 -0.9270 -0.4755 -1.5498
 1423TIP3    H2 4276  -0.002   4.057   1.978 -1.7570  0.4106  0.5849
 1424TIP3   OH2 4277   4.691   2.252   0.888  0.2596 -0.6970 -0.8825
 1424TIP3    H1 4278   4.736   2.333   0.867 -0.7309  0.1972  0.3161
 1424TIP3    H2 4279   4.753   2.183   0.863  1.5889  0.4462 -0.8384
 1425TIP3   OH2 4280   5.127   1.765   4.523  0.2598 -0.5999 -0.1580
 1425TIP3    H1 4281   5.147   1.775   4.616 -1.2539 -1.0424  0.2528
 1425TIP3    H2 4282   5.082   1.681   4.517  2.2646 -1.6396 -1.6662
 1426TIP3   OH2 4283   6.141   3.790   3.623  0.2976  0.0943 -0.1731
 1426TIP3    H1 4284   6.134   3.702   3.588  1.1475 -0.1768  0.3018
 1426TIP3    H2 4285   6.121   3.848   3.549  0.4117 -0.4843 -0.6591
 1427TIP3   OH2 4286   2.669   3.548   0.665  0.1269 -0.1477 -0.4677
 1427TIP3    H1 4287   2.753   3.503   0.667 -0.0916 -0.5599 -0.4072
 1427TIP3    H2 4288   2.612   3.495   0.721  0.0061  0.5001  0.0318
 1428TIP3   OH2 4289   4.147   2.838   1.352  0.1357  0.3729  0.7698
 1428TIP3    H1 4290   4.121   2.824   1.261 -1.3325  2.1998  0.8559
 1428TIP3    H2 4291   4.121   2.757   1.397  0.7446 -0.4882 -0.3757
 1429TIP3   OH2 4292   0.138   4.355   2.015  0.2807  0.2549 -0.1396
 1429TIP3    H1 4293   0.101   4.267   2.022  1.3691 -0.1814  0.4247
 1429TIP3    H2 4294   0.204   4.347   1.946  0.7472  0.4817  0.2722
 1430TIP3   OH2 4295   2.836   2.702   4.065  0.3830 -0.0537  0.4519
 1430TIP3    H1 4296   2.918   2.748   4.045 -0.8208  1.8684 -0.4160
 1430TIP3    H2 4297   2.780   2.770   4.103 -1.2414 -0.9860 -0.1986
 1431TIP3   OH2 4298   4.925   0.749   3.596  0.3422  0.4218 -0.3205
 1431TIP3    H1 4299   4.905   0.837   3.628 -1.2258  0.1591 -0.4962
 1431TIP3    H2 4300   5.007   0.760   3.546 -0.7389  2.1566 -1.8715
 1432TIP3   OH2 4301   5.085   1.488   2.157  0.0658  0.2631 -0.1221
 1432TIP3    H1 4302   5.006   1.486   2.212  0.0057 -1.2714 -0.2070
 1432TIP3    H2 4303   5.157   1.476   2.218  0.0272 -1.0278 -0.2974
 1433TIP3   OH2 4304   1.553   4.896   3.901 -0.6990  0.3288 -0.1920
 1433TIP3    H1 4305   1.620   4.963   3.910 -0.2066 -0.1153 -0.5296
 1433TIP3    H2 4306   1.587   4.836   3.835 -1.1395 -0.2491  0.0940
 1434TIP3   OH2 4307   4.057   4.494   1.609  0.1371 -0.1643 -0.1368
 1434TIP3    H1 4308   4.133   4.446   1.641 -0.2603 -0.4799  0.3521
 1434TIP3    H2 4309   4.003   4.429   1.565  0.0613  0.0227 -0.3255
 1435TIP3   OH2 4310   5.768   0.069   3.013 -0.2333  0.2165  0.1113
 1435TIP3    H1 4311   5.781   0.135   3.082 -1.1793 -1.3792  1.9005
 1435TIP3    H2 4312   5.713   0.002   3.054 -0.8981 -0.7685 -2.2585
 1436TIP3   OH2 4313   5.910   1.377   0.812  0.1520  0.2670 -0.6578
 1436TIP3    H1 4314   5.971   1.304   0.798  0.7268  0.7971 -0.9972
 1436TIP3    H2 4315   5.965   1.446   0.850 -0.5071  0.3272  0.2081
 1437TIP3   OH2 4316   5.834   2.428   4.873 -0.1085  0.1544 -0.5410
 1437TIP3    H1 4317   5.909   2.482   4.899  0.2288 -0.2061 -0.7501
 1437TIP3    H2 4318   5.761   2.461   4.925  0.5688 -0.6335  0.9499
 1438TIP3   OH2 4319   4.981   5.547   1.364 -0.1241  0.1061 -0.6921
 1438TIP3    H1 4320   5.057   5.566   1.308 -0.5959  0.9455 -1.0619
 1438TIP3    H2 4321   4.906   5.549   1.305 -0.4652 -0.5549 -0.2980
 1439TIP3   OH2 4322   2.756   0.798   2.075  0.1001  0.3677 -0.8444
 1439TIP3    H1 4323   2.774   0.704   2.070  0.0513  0.0606  2.3497
 1439TIP3    H2 4324   2.661   0.804   2.077  0.0419  0.0455  2.4102
 1440TIP3   OH2 4325   4.237   3.488   1.328 -0.0268  0.4763 -0.6705
 1440TIP3    H1 4326   4.247   3.549   1.401  1.2580  0.2955 -0.6816
 1440TIP3    H2 4327   4.186   3.416   1.364  0.2876  0.5554 -0.0592
 1441TIP3   OH2 4328   5.095   4.619   4.798  0.4128 -0.3459 -0.1387
 1441TIP3    H1 4329   5.137   4.605   4.713  0.5705  0.3201 -0.1764
 1441TIP3    H2 4330   5.094   4.533   4.839  0.8587 -0.5654 -0.5774
 1442TIP3   OH2 4331   3.146   5.543   0.071  0.1925 -0.2447  0.4756
 1442TIP3    H1 4332   3.166   5.529  -0.022  1.5821  0.1774  0.6896
 1442TIP3    H2 4333   3.085   5.617   0.071  1.0246  0.4651 -0.0607
 1443TIP3   OH2 4334   4.482   4.609   1.454 -0.0477  0.0739  0.3015
 1443TIP3    H1 4335   4.460   4.698   1.429  0.2980 -0.3440 -1.7082
 1443TIP3    H2 4336   4.414   4.555   1.414 -0.7724 -0.5431  2.2539
 1444TIP3   OH2 4337   0.677   2.858   0.065  0.3483 -0.0618  0.0074
 1444TIP3    H1 4338   0.763   2.838   0.028  0.3858  2.8385 -1.7628
 1444TIP3    H2 4339   0.615   2.818   0.004  0.3541 -1.9251  1.1424
 1445TIP3   OH2 4340   5.879   3.566   0.903  0.3419  0.0253  0.4964
 1445TIP3    H1 4341   5.812   3.627   0.870 -0.2398 -1.1561 -0.6104
 1445TIP3    H2 4342   5.904   3.601   0.988  0.3583  2.0578 -0.2911
 1446TIP3   OH2 4343   1.089   2.013   4.270 -0.2147 -0.2109  0.0804
 1446TIP3    H1 4344   1.000   2.030   4.301 -0.5114  0.7187 -1.1701
 1446TIP3    H2 4345   1.083   2.025   4.175  0.8523 -1.9501 -0.2460
 1447TIP3   OH2 4346   2.846   0.848   0.478  0.3162 -0.3055  0.2563
 1447TIP3    H1 4347   2.912   0.778   0.480  0.2751 -0.3732 -0.4860
 1447TIP3    H2 4348   2.763   0.802   0.464  0.2696 -0.1248 -0.0752
 1448TIP3   OH2 4349   1.353   1.424   3.602 -0.5724 -0.0284 -0.1671
 1448TIP3    H1 4350   1.317   1.470   3.678  0.8201 -1.0784  1.1825
 1448TIP3    H2 4351   1.436   1.468   3.584  0.1632 -1.1508  0.3495
 1449TIP3   OH2 4352   0.434   5.167   4.135 -0.0974 -0.3516 -0.6879
 1449TIP3    H1 4353   0.509   5.111   4.112 -0.7576 -0.0737 -4.0454
 1449TIP3    H2 4354   0.464   5.256   4.116 -1.1377 -0.2131 -1.8070
 1450TIP3   OH2 4355   5.513   1.130   1.248 -0.3547  1.1656 -0.2003
 1450TIP3    H1 4356   5.550   1.212   1.282 -0.7519  1.7882 -1.2091
 1450TIP3    H2 4357   5.586   1.068   1.251  0.6013  2.1627 -1.4411
 1451TIP3   OH2 4358   3.803   2.695   0.559 -0.1109 -0.0403 -0.1830
 1451TIP3    H1 4359   3.828   2.672   0.648 -0.3874 -1.4468 -0.4320
 1451TIP3    H2 4360   3.885   2.694   0.510 -0.2565 -2.2158 -0.5043
 1452TIP3   OH2 4361   3.410   4.918   5.006 -0.6873 -0.0102  0.2813
 1452TIP3    H1 4362   3.430   4.992   4.949 -1.1368  0.3513  0.5856
 1452TIP3    H2 4363   3.442   4.946   5.092  1.4254 -1.1695 -0.0662
 1453TIP3   OH2 4364   4.814   2.327   3.755  0.1259 -0.3180  0.2181
 1453TIP3    H1 4365   4.858   2.330   3.840 -0.6685  0.0845  0.6308
 1453TIP3    H2 4366   4.722   2.308   3.776 -0.1196 -0.0182 -0.5299
 1454TIP3   OH2 4367   3.683   4.533   1.568  0.5256  0.1564 -0.5632
 1454TIP3    H1 4368   3.629   4.517   1.645  2.8869 -1.1646  0.9625
 1454TIP3    H2 4369   3.680   4.450   1.519  0.6459  0.2928 -0.8045
 1455TIP3   OH2 4370   1.259   2.412   3.235  0.7008 -0.1393 -0.2061
 1455TIP3    H1 4371   1.353   2.398   3.223  0.8287 -0.2615  0.8617
 1455TIP3    H2 4372   1.229   2.335   3.282 -0.0555 -0.3622 -1.0220
 1456TIP3   OH2 4373   4.528   0.108   2.846  0.0610  0.1869  0.1961
 1456TIP3    H1 4374   4.622   0.114   2.828  0.1742  1.8945  1.1481
 1456TIP3    H2 4375   4.522   0.062   2.930 -0.0905 -1.4808 -0.6809
 1457TIP3   OH2 4376   3.072   5.338   3.603 -0.0637 -0.8020  0.6169
 1457TIP3    H1 4377   2.981   5.366   3.599 -0.5568 -2.0556  1.8957
 1457TIP3    H2 4378   3.119   5.411   3.644 -0.6603 -0.4865  0.7380
 1458TIP3   OH2 4379   0.584   3.182   4.368 -0.2575  0.1869 -0.0131
 1458TIP3    H1 4380   0.591   3.278   4.371 -1.2753  0.2873 -0.6155
 1458TIP3    H2 4381   0.575   3.157   4.460  2.5868  0.4226  0.4272
 1459TIP3   OH2 4382   5.849   3.166   2.631 -0.2274 -0.0124  0.4035
 1459TIP3    H1 4383   5.919   3.154   2.567 -0.2318  3.7970 -0.5167
 1459TIP3    H2 4384   5.894   3.163   2.716  0.1732 -2.4209  0.1966
 1460TIP3   OH2 4385   1.933   0.315   3.886  0.0385  0.3592 -0.2444
 1460TIP3    H1 4386   1.904   0.239   3.937  0.6064 -0.7141 -1.4835
 1460TIP3    H2 4387   1.952   0.281   3.799  1.1753  1.7655 -0.5913
 1461TIP3   OH2 4388   5.888   2.578   0.919  0.3253 -0.1878 -0.3307
 1461TIP3    H1 4389   5.843   2.529   0.988 -1.2395  1.0582 -0.4086
 1461TIP3    H2 4390   5.940   2.644   0.966 -0.0742  0.1181 -0.3173
 1462TIP3   OH2 4391   0.891   5.053   0.669 -0.2218  0.5138  0.6287
 1462TIP3    H1 4392   0.944   5.003   0.732  0.3806  1.6144  1.0255
 1462TIP3    H2 4393   0.801   5.030   0.690  0.0519 -0.7270  0.5198
 1463TIP3   OH2 4394   5.127   1.986   2.306  0.2436 -0.1641  0.6531
 1463TIP3    H1 4395   5.186   1.910   2.301  2.2359  1.3322 -2.9488
 1463TIP3    H2 4396   5.184   2.059   2.331 -0.5853  0.9171 -0.4859
 1464TIP3   OH2 4397   5.759   4.495   3.433  0.1164 -0.2063 -0.3161
 1464TIP3    H1 4398   5.845   4.521   3.399 -0.4714 -0.2387 -1.8929
 1464TIP3    H2 4399   5.701   4.568   3.411 -0.7685 -1.2170 -1.5282
 1465TIP3   OH2 4400   1.458   1.492   3.232  0.2601  0.5882  0.6431
 1465TIP3    H1 4401   1.504   1.425   3.181  2.3248  1.2539  1.4977
 1465TIP3    H2 4402   1.370   1.458   3.243  0.0548 -0.1104 -2.3261
 1466TIP3   OH2 4403   2.012   0.255   4.344 -0.8442 -0.2891  0.3157
 1466TIP3    H1 4404   2.072   0.307   4.290 -0.2675  0.4352  1.6079
 1466TIP3    H2 4405   2.047   0.166   4.341  0.3437  0.1317  1.0665
 1467TIP3   OH2 4406   4.140   4.760   1.173  0.2498  0.4341 -0.0685
 1467TIP3    H1 4407   4.092   4.832   1.131  1.1728  0.7220 -0.6780
 1467TIP3    H2 4408   4.155   4.697   1.102 -0.6769 -0.4419  0.4934
 1468TIP3   OH2 4409   3.974   2.907   4.535  0.1825  0.1929  0.4555
 1468TIP3    H1 4410   3.890   2.953   4.528 -0.0882 -0.4568 -0.8653
 1468TIP3    H2 4411   4.035   2.975   4.563 -0.7130  0.7526  1.1364
 1469TIP3   OH2 4412   4.091   5.175   2.430  0.4503  0.9658  0.1737
 1469TIP3    H1 4413   4.089   5.192   2.336  4.2967 -1.6153 -0.5996
 1469TIP3    H2 4414   4.037   5.097   2.442  2.2959 -0.4983 -0.5333
 1470TIP3   OH2 4415   4.002   0.295   3.400 -0.0614  0.5626  0.0180
 1470TIP3    H1 4416   4.001   0.358   3.328  4.2115 -0.5941 -1.3545
 1470TIP3    H2 4417   4.006   0.209   3.358 -2.8498 -0.5808  1.8192
 1471TIP3   OH2 4418   4.121   1.760   1.917 -0.1118 -0.0474  0.3113
 1471TIP3    H1 4419   4.041   1.793   1.958 -0.2751  0.1587 -0.1700
 1471TIP3    H2 4420   4.092   1.686   1.863 -0.3850  1.4927 -1.7794
 1472TIP3   OH2 4421   0.318   1.202   3.207  0.8961  0.2012 -0.3735
 1472TIP3    H1 4422   0.326   1.295   3.186 -0.2117  0.1455 -1.1602
 1472TIP3    H2 4423   0.361   1.193   3.292  0.6478  1.5219 -0.0773
 1473TIP3   OH2 4424   2.386   3.734   1.392 -0.1181 -0.2917  0.2185
 1473TIP3    H1 4425   2.445   3.756   1.320  0.7869 -1.1930  0.6592
 1473TIP3    H2 4426   2.402   3.802   1.457  0.5290 -0.5813  0.3750
 1474TIP3   OH2 4427   4.837   1.551   4.280  0.2533 -0.2830  0.3031
 1474TIP3    H1 4428   4.859   1.621   4.217 -0.5693  0.4864  0.8511
 1474TIP3    H2 4429   4.856   1.470   4.232  2.8884  0.2765  0.2274
 1475TIP3   OH2 4430   5.250   2.224   5.131  0.2336 -0.1315  0.1822
 1475TIP3    H1 4431   5.167   2.271   5.138 -0.7530 -1.5868 -1.1301
 1475TIP3    H2 4432   5.235   2.142   5.179  0.1590 -1.3233 -1.7828
 1476TIP3   OH2 4433   2.002   1.484   4.917  0.8523 -0.2957  0.0180
 1476TIP3    H1 4434   1.910   1.505   4.927  0.2007 -1.5587 -2.4366
 1476TIP3    H2 4435   2.038   1.489   5.006 -1.6839 -0.3715  1.1292
 1477TIP3   OH2 4436   5.334   4.031   2.131 -0.3809  0.0692 -0.5740
 1477TIP3    H1 4437   5.400   4.093   2.099 -1.1768  1.4341  0.3113
 1477TIP3    H2 4438   5.270   4.086   2.177  0.1041 -1.6347  2.3510
 1478TIP3   OH2 4439   2.870   0.131   1.942 -0.1450  0.4753 -1.1063
 1478TIP3    H1 4440   2.855   0.223   1.921 -0.8894  0.4945 -0.4983
 1478TIP3    H2 4441   2.804   0.084   1.891 -1.6264  0.4871  0.7010
 1479TIP3   OH2 4442   2.828   1.400   3.799 -0.3443 -0.2161 -0.0702
 1479TIP3    H1 4443   2.911   1.396   3.750  0.7647  1.2354  1.6075
 1479TIP3    H2 4444   2.769   1.344   3.748  2.1771 -2.9933 -0.2879
 1480TIP3   OH2 4445   0.268   3.320   4.227  0.2252  0.3746 -0.3160
 1480TIP3    H1 4446   0.362   3.332   4.243  0.4164  0.2951 -1.2710
 1480TIP3    H2 4447   0.241   3.254   4.290  0.9493 -0.0248 -0.4070
 1481TIP3   OH2 4448   3.820   5.773   5.085  1.1004 -0.0648  0.0395
 1481TIP3    H1 4449   3.782   5.834   5.022 -1.9159 -1.2638  0.5571
 1481TIP3    H2 4450   3.819   5.820   5.168 -0.9041 -0.6092  0.3701
 1482TIP3   OH2 4451   2.204   4.439   3.247  0.5931  0.0364 -0.0080
 1482TIP3    H1 4452   2.144   4.513   3.256  2.2896  1.5554 -0.6157
 1482TIP3    H2 4453   2.181   4.400   3.163 -0.8016 -0.6494  0.6464
 1483TIP3   OH2 4454   4.477   4.353   2.673 -0.2984  0.1286  0.1272
 1483TIP3    H1 4455   4.433   4.368   2.589 -0.2028  0.1960  0.0888
 1483TIP3    H2 4456   4.560   4.401   2.665  0.6856 -1.5928 -0.5694
 1484TIP3   OH2 4457   4.128   4.386   2.609 -0.1894 -0.3379  0.3465
 1484TIP3    H1 4458   4.117   4.294   2.633 -1.4334 -0.2902 -0.0035
 1484TIP3    H2 4459   4.186   4.384   2.533  0.3629 -0.7730  0.7671
 1485TIP3   OH2 4460   5.738   5.438   3.742  0.3732  0.0731 -0.1440
 1485TIP3    H1 4461   5.652   5.475   3.724  0.1885 -1.0623 -1.7612
 1485TIP3    H2 4462   5.720   5.357   3.789  0.4730 -0.7949 -1.5672
 1486TIP3   OH2 4463   3.436   5.477   0.078  0.2853  0.2634 -0.0537
 1486TIP3    H1 4464   3.449   5.413   0.008 -0.7405 -0.8996  0.7749
 1486TIP3    H2 4465   3.344   5.503   0.069  0.2729  0.4445  0.5757
 1487TIP3   OH2 4466   5.462   4.660   1.336  0.0411  0.0757 -0.3552
 1487TIP3    H1 4467   5.505   4.612   1.265 -1.1943 -1.6415 -0.0169
 1487TIP3    H2 4468   5.428   4.739   1.294  1.4535  0.3117 -1.1146
 1488TIP3   OH2 4469   3.536   5.908   2.048  0.0615 -0.0788 -0.2134
 1488TIP3    H1 4470   3.455   5.895   1.999  1.2374 -2.1662 -1.7995
 1488TIP3    H2 4471   3.545   5.828   2.100  0.8445  0.3511  0.3259
 1489TIP3   OH2 4472   5.665   0.709   4.887  0.3794  0.2762 -0.2080
 1489TIP3    H1 4473   5.718   0.745   4.816 -0.5719 -0.2260 -1.2023
 1489TIP3    H2 4474   5.576   0.706   4.851 -0.0437 -0.3699  0.8555
 1490TIP3   OH2 4475   6.034   4.978   4.699 -0.5399 -0.4077  0.1497
 1490TIP3    H1 4476   6.061   5.008   4.612  0.9810 -0.7661  0.4708
 1490TIP3    H2 4477   5.955   5.029   4.718  1.2634  2.6639  0.1849
 1491TIP3   OH2 4478   2.849   4.842   0.065  0.2903 -0.4786  0.3884
 1491TIP3    H1 4479   2.906   4.815  -0.007 -0.0020 -3.4338  1.1060
 1491TIP3    H2 4480   2.795   4.912   0.028  1.0097 -1.0380 -1.8775
 1492TIP3   OH2 4481   1.767   4.000   5.042  0.2414 -0.1504  0.4199
 1492TIP3    H1 4482   1.834   3.932   5.051 -0.6074 -1.1719 -0.7105
 1492TIP3    H2 4483   1.772   4.048   5.125  0.8594 -1.5832  1.2691
 1493TIP3   OH2 4484   4.408   5.371   3.336  0.4753  0.4487  0.5214
 1493TIP3    H1 4485   4.346   5.375   3.264  1.1748 -1.5957 -0.2852
 1493TIP3    H2 4486   4.491   5.400   3.298  0.4126  1.4419  1.1099
 1494TIP3   OH2 4487   4.359   0.053   1.380 -0.2915 -0.1860  0.2321
 1494TIP3    H1 4488   4.270   0.021   1.391 -0.5840  0.9532  1.3927
 1494TIP3    H2 4489   4.366   0.071   1.286 -1.6757  0.7895  0.2862
 1495TIP3   OH2 4490   0.471   0.136   2.018  0.4493  0.1176 -0.1579
 1495TIP3    H1 4491   0.465   0.043   1.996  0.6920 -0.2618  1.2688
 1495TIP3    H2 4492   0.521   0.138   2.100 -0.5332  1.4173  0.4519
 1496TIP3   OH2 4493   3.663   0.013   0.714 -0.4141 -0.5264  0.2289
 1496TIP3    H1 4494   3.696   0.097   0.681 -0.2127 -0.7608 -0.1837
 1496TIP3    H2 4495   3.735  -0.022   0.767  0.8129 -1.8839 -2.1296
 1497TIP3   OH2 4496   0.246   3.505   2.908  0.2787  0.7346  0.3085
 1497TIP3    H1 4497   0.174   3.452   2.874 -0.3624  1.9911 -0.3825
 1497TIP3    H2 4498   0.233   3.505   3.003 -1.0697  1.4850  0.1610
 1498TIP3   OH2 4499   1.032   2.077   4.011 -0.3949  0.1489 -0.1487
 1498TIP3    H1 4500   0.956   2.046   3.962 -0.0016 -0.8961 -0.1200
 1498TIP3    H2 4501   1.107   2.039   3.965 -0.0406 -1.4915  1.6716
 1499TIP3   OH2 4502   0.999   1.589   0.725  0.0749 -0.4174  0.1465
 1499TIP3    H1 4503   1.055   1.514   0.708  0.1310  0.0175 -1.7885
 1499TIP3    H2 4504   0.926   1.579   0.663 -0.9551  0.0987  1.2268
 1500TIP3   OH2 4505   0.732   1.793   0.723  0.7236  0.1829 -0.2402
 1500TIP3    H1 4506   0.698   1.881   0.735  1.1710  0.3503 -0.2044
 1500TIP3    H2 4507   0.793   1.780   0.795 -0.5663 -0.7697  0.7408
 1501TIP3   OH2 4508   5.954   3.053   1.106  0.6232 -0.1299 -0.1536
 1501TIP3    H1 4509   5.953   3.147   1.085  0.0922  0.1322  0.9981
 1501TIP3    H2 4510   5.936   3.049   1.199 -0.2212 -1.4430 -0.3544
 1502TIP3   OH2 4511   6.043   4.271   1.409  0.2493 -0.4463 -0.6915
 1502TIP3    H1 4512   6.052   4.328   1.486 -1.0853 -0.7266 -0.2985
 1502TIP3    H2 4513   5.957   4.293   1.373  0.9115 -0.2197 -2.2138
 1503TIP3   OH2 4514   1.806   0.325   0.210  0.0249  0.1734 -0.0594
 1503TIP3    H1 4515   1.731   0.299   0.157 -0.3780  0.4586  0.3623
 1503TIP3    H2 4516   1.878   0.334   0.148 -0.0507 -1.0383 -0.3414
 1504TIP3   OH2 4517   0.398   3.254   1.552  0.2613 -0.4063  0.1589
 1504TIP3    H1 4518   0.455   3.178   1.565 -0.4878 -1.0390 -0.1457
 1504TIP3    H2 4519   0.442   3.305   1.484  2.6082  1.3353  2.7503
 1505TIP3   OH2 4520   0.022   4.218   4.767  0.1300  0.3176 -1.1104
 1505TIP3    H1 4521   0.097   4.177   4.811  0.5492  1.9490 -0.2179
 1505TIP3    H2 4522   0.001   4.159   4.695  0.4817 -1.5900  0.3016
 1506TIP3   OH2 4523   5.058   1.485   0.728 -0.4242  0.4272  0.0915
 1506TIP3    H1 4524   5.150   1.501   0.708  0.2671 -1.6430  1.3025
 1506TIP3    H2 4525   5.032   1.561   0.781  1.3434 -0.1204  1.8684
 1507TIP3   OH2 4526   5.773   5.500   1.427 -0.2518  0.2869 -0.1542
 1507TIP3    H1 4527   5.807   5.563   1.363 -0.5657  0.5612 -0.0496
 1507TIP3    H2 4528   5.684   5.482   1.398 -0.7111  1.1116  0.7292
 1508TIP3   OH2 4529   0.016   4.562   1.378  0.8502 -0.1337 -0.1329
 1508TIP3    H1 4530   0.079   4.500   1.415  0.3565 -1.1332 -0.9274
 1508TIP3    H2 4531   0.064   4.645   1.374  1.2079 -0.2047  1.8396
 1509TIP3   OH2 4532   4.256   0.977   2.455  0.2842 -0.5414  0.2631
 1509TIP3    H1 4533   4.224   0.963   2.544  1.2340  1.7149  1.0022
 1509TIP3    H2 4534   4.210   1.055   2.425  1.4209 -0.1536 -0.5072
 1510TIP3   OH2 4535   4.162   2.160   0.724  0.0721 -0.2270 -0.6377
 1510TIP3    H1 4536   4.203   2.074   0.714  0.9084  0.1691 -0.7517
 1510TIP3    H2 4537   4.168   2.200   0.637  0.5922  0.3194 -0.3631
 1511TIP3   OH2 4538   6.252   3.018   2.295 -0.2534 -0.1216  0.3882
 1511TIP3    H1 4539   6.227   3.075   2.222 -1.0565 -1.1809 -0.2073
 1511TIP3    H2 4540   6.325   3.062   2.337 -0.3806  0.9716 -0.5000
 1512TIP3   OH2 4541   6.353   5.220   2.782  0.0675  0.1514 -0.3891
 1512TIP3    H1 4542   6.263   5.190   2.768 -0.1693  1.4337 -1.8077
 1512TIP3    H2 4543   6.403   5.139   2.793 -1.0294 -0.6422 -0.9930
 1513TIP3   OH2 4544   5.619   4.941   2.024  0.2639  0.2907  0.3073
 1513TIP3    H1 4545   5.634   4.910   1.935  1.2115 -2.7949  1.3983
 1513TIP3    H2 4546   5.536   4.899   2.050  0.3980  0.5105  1.1205
 1514TIP3   OH2 4547   4.884   1.081   3.381  0.1889 -0.2899  0.3488
 1514TIP3    H1 4548   4.848   1.145   3.441 -0.3669  0.9281 -1.2220
 1514TIP3    H2 4549   4.859   0.996   3.418 -3.1517  0.4423  0.0919
 1515TIP3   OH2 4550   4.009   1.956   1.727 -0.3101  0.0384 -0.3532
 1515TIP3    H1 4551   3.970   1.948   1.813  1.2404  0.6919  0.4456
 1515TIP3    H2 4552   4.068   1.882   1.720 -0.1302  0.2089 -0.6955
 1516TIP3   OH2 4553   4.423   1.657   0.163  0.1438 -0.7512  0.7574
 1516TIP3    H1 4554   4.505   1.636   0.119  0.8524  2.2534  0.3886
 1516TIP3    H2 4555   4.444   1.652   0.257  0.7453 -0.1268  0.6649
 1517TIP3   OH2 4556   0.723   5.634   3.659  0.2002  0.1247  0.0461
 1517TIP3    H1 4557   0.786   5.674   3.720  0.3561 -1.3459  0.8806
 1517TIP3    H2 4558   0.647   5.692   3.662  0.8311  0.9679  0.3610
 1518TIP3   OH2 4559   2.857   5.145   2.406 -0.0762  0.0320 -0.1317
 1518TIP3    H1 4560   2.914   5.068   2.416  1.2856  1.0921  0.6538
 1518TIP3    H2 4561   2.854   5.183   2.494 -2.4128 -0.2449 -0.0500
 1519TIP3   OH2 4562   2.326   5.682   3.536 -0.5487  0.2107  0.1127
 1519TIP3    H1 4563   2.356   5.596   3.506  1.3607  0.6644  0.5866
 1519TIP3    H2 4564   2.238   5.666   3.571 -0.2951 -1.5041  0.0507
 1520TIP3   OH2 4565   0.389   5.212   4.886  0.2888  0.5270 -0.5279
 1520TIP3    H1 4566   0.377   5.125   4.924 -1.3320  0.7635 -0.4212
 1520TIP3    H2 4567   0.413   5.196   4.795  1.5959 -0.0181 -0.1130
 1521TIP3   OH2 4568   4.009   4.421   0.575 -0.5876 -0.4369  0.0840
 1521TIP3    H1 4569   4.074   4.487   0.553 -2.1608  1.7242  1.3795
 1521TIP3    H2 4570   3.995   4.372   0.494 -0.9921  2.3768 -1.7021
 1522TIP3   OH2 4571   2.443   0.412   4.121 -0.3397  0.3634 -0.1437
 1522TIP3    H1 4572   2.451   0.500   4.084  0.4474  0.2710 -0.2145
 1522TIP3    H2 4573   2.506   0.359   4.071 -1.4620 -0.4608 -0.7501
 1523TIP3   OH2 4574   2.458   0.821   0.117 -0.3483  0.3986 -0.1324
 1523TIP3    H1 4575   2.422   0.733   0.107  1.3743 -0.2074 -1.6921
 1523TIP3    H2 4576   2.518   0.830   0.043 -1.3619  3.3592 -0.7441
 1524TIP3   OH2 4577   0.622   1.217   2.528 -0.1829  0.0481 -0.5921
 1524TIP3    H1 4578   0.563   1.293   2.524 -0.0460  0.1664 -0.4012
 1524TIP3    H2 4579   0.607   1.180   2.615  0.0889  0.1301 -0.5114
 1525TIP3   OH2 4580   5.263   2.799   1.476  0.4476  0.0985  0.3702
 1525TIP3    H1 4581   5.276   2.870   1.539 -0.1594  0.9602 -0.4590
 1525TIP3    H2 4582   5.171   2.803   1.453  0.2932 -1.2757  0.6535
 1526TIP3   OH2 4583   5.928   0.369   2.819 -0.2203  0.2523  0.4950
 1526TIP3    H1 4584   5.884   0.366   2.734  2.2405  3.0758 -1.0876
 1526TIP3    H2 4585   6.010   0.321   2.805 -0.0643  0.2081  1.4765
 1527TIP3   OH2 4586   6.012   2.344   3.724  0.3271 -0.0573 -0.1769
 1527TIP3    H1 4587   5.951   2.384   3.662  0.5776  1.0299  0.2575
 1527TIP3    H2 4588   6.095   2.390   3.709  0.7816 -0.8270 -0.0669
 1528TIP3   OH2 4589   1.690   3.801   1.328  0.0600  0.7811  0.0086
 1528TIP3    H1 4590   1.707   3.823   1.420  4.5393 -1.2105 -0.0754
 1528TIP3    H2 4591   1.742   3.864   1.278  3.5213 -2.1972 -0.6306
 1529TIP3   OH2 4592   6.020   0.077   2.903  0.4570 -0.3016 -0.8023
 1529TIP3    H1 4593   5.993   0.059   2.813 -1.2971  0.2170 -0.4317
 1529TIP3    H2 4594   5.944   0.052   2.956  1.1049  0.2767  0.4393
 1530TIP3   OH2 4595   2.030   1.865   2.011 -0.2171  0.1756 -0.1141
 1530TIP3    H1 4596   1.957   1.900   1.960  0.4499  2.0033  0.0940
 1530TIP3    H2 4597   2.096   1.935   2.009  1.1942 -1.0894  0.3951
 1531TIP3   OH2 4598   2.931   4.550   1.206 -0.4090 -0.2146  0.4363
 1531TIP3    H1 4599   2.868   4.480   1.190 -2.0985  0.9380  1.7098
 1531TIP3    H2 4600   2.900   4.624   1.153  0.4355  0.0829  0.3331
 1532TIP3   OH2 4601   0.120   2.527   3.575 -0.6745  0.1446 -0.7319
 1532TIP3    H1 4602   0.163   2.444   3.599 -1.1176  0.3374  0.8199
 1532TIP3    H2 4603   0.066   2.504   3.499 -0.4441 -0.8879 -0.6051
 1533TIP3   OH2 4604   4.804   1.965   3.709  0.0824  0.5387  0.3621
 1533TIP3    H1 4605   4.882   1.981   3.763 -0.0436 -0.8556  1.0038
 1533TIP3    H2 4606   4.839   1.939   3.624  0.3019  0.9874  0.3123
 1534TIP3   OH2 4607   5.165   4.592   4.542 -0.0083 -0.8663  0.8715
 1534TIP3    H1 4608   5.255   4.607   4.514  0.0405 -0.5562  1.1885
 1534TIP3    H2 4609   5.122   4.677   4.531 -0.1581 -0.9119  1.0922
 1535TIP3   OH2 4610   2.066   1.307   0.719  0.4508 -0.1570 -0.8671
 1535TIP3    H1 4611   2.082   1.325   0.812  0.2999  0.0835 -0.8876
 1535TIP3    H2 4612   2.151   1.280   0.685  0.4559 -0.4944 -0.6010
 1536TIP3   OH2 4613   4.968   5.335   0.414  0.3231  0.2166 -0.3810
 1536TIP3    H1 4614   4.980   5.422   0.453  0.2909  0.9270 -1.8683
 1536TIP3    H2 4615   5.050   5.289   0.431  1.3748  1.4753 -1.7883
 1537TIP3   OH2 4616   3.693   3.815   3.571  0.0275  0.4169  0.3245
 1537TIP3    H1 4617   3.612   3.821   3.520  0.1929  0.5089  0.0697
 1537TIP3    H2 4618   3.669   3.848   3.658 -0.3172  0.0215  0.3794
 1538TIP3   OH2 4619   1.314   4.186   2.018 -0.0285 -0.1685  0.0078
 1538TIP3    H1 4620   1.293   4.162   2.108 -0.5724  0.1812 -0.0212
 1538TIP3    H2 4621   1.359   4.110   1.982 -0.8092 -0.7361  0.2254
 1539TIP3   OH2 4622   4.274  -0.025   4.665  0.1046 -0.1021  0.5587
 1539TIP3    H1 4623   4.237   0.063   4.657 -1.8950 -1.0455 -1.6789
 1539TIP3    H2 4624   4.350  -0.025   4.607 -0.9650 -0.3301 -0.8821
 1540TIP3   OH2 4625   1.787   1.466   1.238  0.0499  0.0519  0.1314
 1540TIP3    H1 4626   1.856   1.420   1.190  0.9798 -0.0304  1.4928
 1540TIP3    H2 4627   1.825   1.550   1.261 -1.2913  1.1534 -1.4546
 1541TIP3   OH2 4628   1.833   3.206   2.160  0.5245 -0.1137 -0.2897
 1541TIP3    H1 4629   1.817   3.200   2.066  0.7407  1.7867 -0.4977
 1541TIP3    H2 4630   1.874   3.123   2.183  0.4327 -0.6267 -1.8661
 1542TIP3   OH2 4631   1.290   4.088   2.276  0.4080  0.1278 -0.3274
 1542TIP3    H1 4632   1.197   4.092   2.297  0.4316 -0.9420  0.0687
 1542TIP3    H2 4633   1.317   3.999   2.302  2.0182  1.0966  1.6272
 1543TIP3   OH2 4634   2.923   5.517   2.342  0.8040 -0.3864 -0.0903
 1543TIP3    H1 4635   2.934   5.495   2.434  1.1041  0.2371  0.0301
 1543TIP3    H2 4636   3.013   5.532   2.311  0.5894  1.0913 -0.0490
 1544TIP3   OH2 4637   1.428   1.498   2.925 -0.3996  0.0381  0.0652
 1544TIP3    H1 4638   1.487   1.432   2.963  0.2583 -1.5890 -3.3252
 1544TIP3    H2 4639   1.352   1.447   2.897 -1.9018  1.5504  1.2283
 1545TIP3   OH2 4640   4.246   3.336   3.762 -0.2080  0.5473 -0.4692
 1545TIP3    H1 4641   4.295   3.255   3.777 -1.6260  0.0480  1.9384
 1545TIP3    H2 4642   4.214   3.327   3.672 -0.9592 -1.9724 -0.0351
 1546TIP3   OH2 4643   5.568   0.541   1.420  0.1944 -0.0993  0.0905
 1546TIP3    H1 4644   5.606   0.528   1.333 -1.8029 -0.4742 -0.7670
 1546TIP3    H2 4645   5.547   0.634   1.424  0.2526 -0.0890  0.1557
 1547TIP3   OH2 4646   1.840   5.941   2.522 -0.7148  0.2978  0.2885
 1547TIP3    H1 4647   1.789   5.992   2.458 -1.3523 -0.7491 -0.0672
 1547TIP3    H2 4648   1.827   5.988   2.605 -0.6448  1.1482 -0.1669
 1548TIP3   OH2 4649   5.204   5.951   5.007 -0.1023  0.3031 -0.2348
 1548TIP3    H1 4650   5.251   5.966   5.090  0.0876  0.2305 -0.3274
 1548TIP3    H2 4651   5.112   5.963   5.029  0.0939  3.0319 -0.6166
 1549TIP3   OH2 4652   0.724   3.687   0.429  0.2915 -0.6094 -0.0573
 1549TIP3    H1 4653   0.768   3.772   0.429  1.2494 -1.0427  1.9371
 1549TIP3    H2 4654   0.790   3.627   0.393  0.4828 -0.8782  0.7303
 1550TIP3   OH2 4655   5.482   3.496   3.699  0.2414 -0.2168 -0.3001
 1550TIP3    H1 4656   5.544   3.494   3.772  0.4600 -0.3322 -0.4882
 1550TIP3    H2 4657   5.444   3.408   3.698 -0.5477  0.0978  0.3414
 1551TIP3   OH2 4658   4.254   4.617   2.717 -0.3090 -0.2681  0.0050
 1551TIP3    H1 4659   4.209   4.534   2.705  0.8926 -0.6566 -2.3935
 1551TIP3    H2 4660   4.259   4.655   2.630  0.1318  1.8316  0.8765
 1552TIP3   OH2 4661   3.960   4.602   0.235 -0.2495  0.7474 -0.0733
 1552TIP3    H1 4662   3.918   4.650   0.306 -1.0782  0.2568 -0.2249
 1552TIP3    H2 4663   4.001   4.671   0.181  1.2332  1.0689  1.3657
 1553TIP3   OH2 4664   4.181   2.567   3.641  0.1323 -0.4115  0.1841
 1553TIP3    H1 4665   4.188   2.511   3.719  2.3358 -2.7597 -1.5205
 1553TIP3    H2 4666   4.092   2.554   3.610 -0.2004 -0.9028  1.2840
 1554TIP3   OH2 4667   2.948   1.598   4.748 -0.8470  0.4328 -0.2532
 1554TIP3    H1 4668   2.972   1.666   4.685  1.4060 -0.8263 -0.8597
 1554TIP3    H2 4669   2.955   1.516   4.700  0.7288 -0.5514  1.5241
 1555TIP3   OH2 4670   5.429   4.527   4.367  0.2541  0.1534 -0.3197
 1555TIP3    H1 4671   5.451   4.488   4.452  0.6593 -0.3675 -0.6537
 1555TIP3    H2 4672   5.388   4.610   4.389  0.9449  0.3274  0.3778
 1556TIP3   OH2 4673   0.159   2.565   4.149  0.1404  0.3861 -0.1690
 1556TIP3    H1 4674   0.206   2.620   4.086 -0.4769 -0.2469 -1.2008
 1556TIP3    H2 4675   0.152   2.619   4.228  1.5752  0.9119 -0.3840
 1557TIP3   OH2 4676   0.978   1.378   2.677  0.1179 -0.2237  0.3076
 1557TIP3    H1 4677   0.884   1.394   2.683  0.0190 -0.9989  1.0965
 1557TIP3    H2 4678   0.985   1.285   2.652  0.6665 -0.3259  0.8037
 1558TIP3   OH2 4679   0.103   3.745   2.878 -0.3488 -0.4410 -0.0640
 1558TIP3    H1 4680   0.162   3.671   2.894  0.6927  0.0323 -1.4806
 1558TIP3    H2 4681   0.084   3.741   2.784 -0.7856  0.7183 -0.0414
 1559TIP3   OH2 4682   5.874   3.394   4.989  0.8707 -0.5565 -0.5858
 1559TIP3    H1 4683   5.892   3.482   5.020 -0.6313 -0.3352 -0.2608
 1559TIP3    H2 4684   5.957   3.347   4.998  2.0260  1.1295 -1.9216
 1560TIP3   OH2 4685   6.268   4.221   3.685 -0.0871  0.6026 -0.1187
 1560TIP3    H1 4686   6.335   4.277   3.723  0.6527 -0.9726  0.9733
 1560TIP3    H2 4687   6.208   4.202   3.757 -0.2073 -0.1903 -0.4169
 1561TIP3   OH2 4688   5.633   3.415   0.657 -0.2624 -0.3949  0.0357
 1561TIP3    H1 4689   5.609   3.481   0.592 -0.5918 -0.6176 -0.0742
 1561TIP3    H2 4690   5.550   3.388   0.695  0.0311  0.7870  1.6110
 1562TIP3   OH2 4691   5.008   1.537   4.513 -0.8571  0.3117 -0.3631
 1562TIP3    H1 4692   4.994   1.458   4.565  1.1509 -0.5676 -1.0215
 1562TIP3    H2 4693   4.971   1.516   4.427  0.6969 -0.4394 -0.8953
 1563TIP3   OH2 4694   2.799   2.367   0.194 -0.4667 -0.2638  0.3183
 1563TIP3    H1 4695   2.767   2.442   0.144  0.5441 -0.3510 -0.4877
 1563TIP3    H2 4696   2.883   2.395   0.230 -1.4404  0.0135  2.5386
 1564TIP3   OH2 4697   0.944   2.925   5.108  0.4664  0.0889  0.2679
 1564TIP3    H1 4698   0.941   2.974   5.026 -0.4612  0.6248  0.6009
 1564TIP3    H2 4699   1.032   2.888   5.111 -0.2049 -2.0562 -2.1595
 1565TIP3   OH2 4700   3.380   2.852   5.167  0.1675 -0.3172  0.0914
 1565TIP3    H1 4701   3.437   2.855   5.090  3.9275 -1.4734  2.5071
 1565TIP3    H2 4702   3.372   2.944   5.194  0.2466 -0.0631 -0.7325
 1566TIP3   OH2 4703   3.060   3.057   2.044  0.0235 -0.0213 -0.0613
 1566TIP3    H1 4704   2.996   3.085   1.978 -0.6044 -0.2700  0.4343
 1566TIP3    H2 4705   3.145   3.070   2.002 -0.3370  0.6258 -0.6132
 1567TIP3   OH2 4706   3.363   5.769   1.098  0.3075 -0.2761 -0.5640
 1567TIP3    H1 4707   3.310   5.763   1.019  0.1774  1.5127 -0.6533
 1567TIP3    H2 4708   3.360   5.862   1.122  3.3120 -0.0887 -0.5395
 1568TIP3   OH2 4709   5.419   3.400   3.353  0.3444 -0.0189 -0.2226
 1568TIP3    H1 4710   5.473   3.354   3.418  1.3708  0.9715 -0.3321
 1568TIP3    H2 4711   5.465   3.483   3.339 -1.4572  1.0698  0.0088
 1569TIP3   OH2 4712   5.139   0.854   4.907 -0.5760 -0.0742 -0.0257
 1569TIP3    H1 4713   5.101   0.831   4.823 -3.0558 -0.8319  1.2021
 1569TIP3    H2 4714   5.067   0.845   4.969  0.9661  1.1858  2.0839
 1570TIP3   OH2 4715   4.969   3.993   0.009 -0.2987  0.3938  0.2141
 1570TIP3    H1 4716   5.060   4.003  -0.016 -0.1186  0.5685  0.9093
 1570TIP3    H2 4717   4.947   4.075   0.054 -0.8654  0.4487 -0.1514
 1571TIP3   OH2 4718   3.842   5.206   1.314 -0.0667  0.5029  0.2504
 1571TIP3    H1 4719   3.819   5.137   1.376  0.6319  0.1508  0.1307
 1571TIP3    H2 4720   3.761   5.254   1.300 -0.0760  1.1392  2.1105
 1572TIP3   OH2 4721   2.578   5.792   2.475  0.0228  0.0110  0.1699
 1572TIP3    H1 4722   2.658   5.829   2.437  1.2285 -2.3837  0.1501
 1572TIP3    H2 4723   2.513   5.798   2.405  0.8971 -0.1826 -0.6808
 1573TIP3   OH2 4724   5.358   0.076   1.243 -0.2578 -0.1035 -0.2216
 1573TIP3    H1 4725   5.343   0.170   1.227 -0.3272  0.3518  2.0924
 1573TIP3    H2 4726   5.424   0.074   1.312  3.3068 -1.9363 -3.3549
 1574TIP3   OH2 4727   5.075   4.749   3.728  0.1229 -0.1950 -0.0715
 1574TIP3    H1 4728   5.093   4.686   3.658 -0.6708 -0.9279  0.3759
 1574TIP3    H2 4729   4.993   4.720   3.767 -0.1457  0.9978  0.2888
 1575TIP3   OH2 4730   1.480   3.055   4.540 -0.0976  0.0456 -0.2465
 1575TIP3    H1 4731   1.445   3.141   4.565 -0.6585 -0.0952 -0.5335
 1575TIP3    H2 4732   1.468   3.051   4.445  0.9317  0.0904 -0.3965
 1576TIP3   OH2 4733   1.350   0.930   4.612  0.6444 -0.0379  0.5926
 1576TIP3    H1 4734   1.302   0.988   4.553  1.1716  0.7281  0.9011
 1576TIP3    H2 4735   1.442   0.945   4.590  0.8491  0.2912  1.6395
 1577TIP3   OH2 4736   0.173   5.788   1.237 -0.2909  0.3634  0.6971
 1577TIP3    H1 4737   0.169   5.774   1.143  1.7057  1.0234  0.4592
 1577TIP3    H2 4738   0.207   5.705   1.272  0.1526  0.5362  0.6819
 1578TIP3   OH2 4739   4.630   1.304   1.758  0.2185 -0.2250 -0.4921
 1578TIP3    H1 4740   4.591   1.240   1.698  0.2415 -0.7150  0.0088
 1578TIP3    H2 4741   4.571   1.306   1.833  0.2494  0.3033 -0.4802
 1579TIP3   OH2 4742   1.354   1.623   4.672 -0.3333 -0.3469  0.0148
 1579TIP3    H1 4743   1.348   1.718   4.682 -0.9281 -0.2192 -1.3199
 1579TIP3    H2 4744   1.432   1.598   4.721  1.4423  1.2154 -1.8406
 1580TIP3   OH2 4745   0.395   5.456   3.725 -0.1080 -1.0095  0.6841
 1580TIP3    H1 4746   0.473   5.442   3.672 -0.1034 -1.4687  0.8132
 1580TIP3    H2 4747   0.428   5.467   3.814 -0.2305 -1.8165  0.8364
 1581TIP3   OH2 4748   5.098   2.340   1.705 -0.7501  0.6925 -0.2945
 1581TIP3    H1 4749   5.040   2.396   1.756 -0.9807  0.7550 -0.6229
 1581TIP3    H2 4750   5.115   2.389   1.625 -0.1214  0.7397 -0.1381
 1582TIP3   OH2 4751   1.300   4.523   1.694 -0.2342  0.4166 -0.4597
 1582TIP3    H1 4752   1.378   4.555   1.648  0.3739  0.0233  0.2781
 1582TIP3    H2 4753   1.269   4.599   1.744  0.6122  0.1552  0.4899
 1583TIP3   OH2 4754   3.420   2.157   0.188 -0.2178 -0.1642  0.2554
 1583TIP3    H1 4755   3.434   2.252   0.181 -0.7306 -0.0365  0.9167
 1583TIP3    H2 4756   3.407   2.128   0.098 -0.4599  0.4561  0.0891
 1584TIP3   OH2 4757   4.025   3.131   3.656  0.4218 -0.1884  0.0835
 1584TIP3    H1 4758   4.045   3.219   3.623  1.0805 -0.3173  0.1265
 1584TIP3    H2 4759   4.103   3.080   3.636 -0.0632 -0.8357 -0.1845
 1585TIP3   OH2 4760   1.540   5.086   1.033 -0.0515 -0.8172 -0.2091
 1585TIP3    H1 4761   1.554   4.992   1.020  0.3058 -1.0392  1.6149
 1585TIP3    H2 4762   1.622   5.126   1.002 -0.3664 -1.0345 -1.3981
 1586TIP3   OH2 4763   2.652   1.135   0.165 -0.1007  0.3355  0.0233
 1586TIP3    H1 4764   2.716   1.206   0.169 -0.6743  0.9805 -1.5322
 1586TIP3    H2 4765   2.661   1.089   0.249  3.2468 -0.3643 -0.5859
 1587TIP3   OH2 4766   1.571   5.403   1.961  0.3087 -0.5103 -0.4358
 1587TIP3    H1 4767   1.599   5.379   2.050 -1.5112 -0.8457  0.1085
 1587TIP3    H2 4768   1.544   5.494   1.968  1.2445 -0.1831 -0.9492
 1588TIP3   OH2 4769   2.566   5.044   4.097  0.1028 -0.2765  0.0630
 1588TIP3    H1 4770   2.570   4.954   4.066  1.0636 -0.0466 -0.5240
 1588TIP3    H2 4771   2.495   5.083   4.045 -3.2359 -1.6557  3.1156
 1589TIP3   OH2 4772   0.988   3.021   0.392  0.0460 -0.5199  0.5237
 1589TIP3    H1 4773   0.999   2.960   0.466  0.2814 -3.5177 -1.8085
 1589TIP3    H2 4774   0.898   3.009   0.364  0.2759 -0.2635 -0.3599
 1590TIP3   OH2 4775   1.665   5.620   1.762 -0.1495 -0.0573 -0.7922
 1590TIP3    H1 4776   1.675   5.598   1.669 -0.5775 -1.0966 -0.6114
 1590TIP3    H2 4777   1.604   5.554   1.795  1.0142 -0.5023  0.5203
 1591TIP3   OH2 4778   5.869   4.296   0.353 -0.6944 -1.1640  0.7114
 1591TIP3    H1 4779   5.808   4.355   0.308  0.2659 -0.3330  0.4637
 1591TIP3    H2 4780   5.948   4.349   0.365 -0.7850 -1.4647  3.0738
 1592TIP3   OH2 4781   2.421   3.528   2.779  0.2614 -0.2741  0.6205
 1592TIP3    H1 4782   2.326   3.540   2.786  0.3102  0.8179 -0.2630
 1592TIP3    H2 4783   2.438   3.525   2.685  1.1850  0.3296  0.7535
 1593TIP3   OH2 4784   4.506   4.957   4.280 -0.1468 -0.7154 -0.0693
 1593TIP3    H1 4785   4.513   5.013   4.358  1.8639 -0.9157 -0.0624
 1593TIP3    H2 4786   4.445   4.888   4.306 -0.1763 -0.2966  1.0316
 1594TIP3   OH2 4787   3.197   0.478   2.234 -0.1881  0.2069 -0.1823
 1594TIP3    H1 4788   3.208   0.509   2.144  1.6280  0.0250 -0.0613
 1594TIP3    H2 4789   3.130   0.410   2.228 -1.6793  1.6679 -1.0170
 1595TIP3   OH2 4790   6.327   1.104   4.779  0.9418 -0.3528 -0.2385
 1595TIP3    H1 4791   6.322   1.029   4.838  2.6588  0.1448  0.5867
 1595TIP3    H2 4792   6.394   1.080   4.715  1.3616  0.3972 -0.0827
 1596TIP3   OH2 4793   2.141   0.364   1.887 -0.5082 -0.3716  0.2661
 1596TIP3    H1 4794   2.222   0.394   1.930 -1.7160  3.4550  0.1977
 1596TIP3    H2 4795   2.170   0.333   1.801  0.9336  0.6832  0.3312
 1597TIP3   OH2 4796   3.314   4.765   4.770 -0.7060 -0.2330  0.8130
 1597TIP3    H1 4797   3.398   4.739   4.732 -1.6321 -1.4642 -0.5236
 1597TIP3    H2 4798   3.332   4.772   4.864  1.1165  0.5913  0.4520
 1598TIP3   OH2 4799   0.547   2.823   3.946 -0.3073 -0.3598 -0.1353
 1598TIP3    H1 4800   0.526   2.746   3.999  0.2014 -1.0622 -0.9357
 1598TIP3    H2 4801   0.616   2.868   3.995  0.5174 -1.2724 -0.4271
 1599TIP3   OH2 4802   1.092   3.618   3.922  0.3069  0.5829 -0.4708
 1599TIP3    H1 4803   1.007   3.663   3.923  0.5450  1.0918 -1.4214
 1599TIP3    H2 4804   1.081   3.550   3.855 -0.2147 -1.1613  1.3018
 1600TIP3   OH2 4805   5.853   3.371   0.079 -0.3252 -0.2322  0.1491
 1600TIP3    H1 4806   5.927   3.364   0.019 -0.2331 -0.6926  0.3100
 1600TIP3    H2 4807   5.812   3.285   0.076  0.4916 -0.7137  1.7874
 1601TIP3   OH2 4808   4.851  -0.002   2.354 -0.2389  0.0918  0.0635
 1601TIP3    H1 4809   4.916   0.051   2.400 -1.1269  1.1805  0.1258
 1601TIP3    H2 4810   4.897  -0.033   2.276  0.1365  1.5426 -0.3333
 1602TIP3   OH2 4811   5.384   4.803   5.157  0.5310 -0.1451  0.9212
 1602TIP3    H1 4812   5.360   4.891   5.186  0.8504 -0.4345  2.1658
 1602TIP3    H2 4813   5.411   4.813   5.066 -0.2944  0.8841  0.7781
 1603TIP3   OH2 4814   5.332   1.480   1.444  0.3581  0.1327  0.4827
 1603TIP3    H1 4815   5.278   1.537   1.390 -0.0022 -0.2436  0.4420
 1603TIP3    H2 4816   5.415   1.472   1.396  0.3183  0.4176  0.3694
 1604TIP3   OH2 4817   0.757   1.080   0.782 -0.4640  0.5904  0.0195
 1604TIP3    H1 4818   0.736   1.155   0.838 -0.6358  0.8014 -0.3257
 1604TIP3    H2 4819   0.713   1.099   0.699 -0.7063 -0.0032  0.0055
 1605TIP3   OH2 4820   2.648   4.819   3.552  0.5134 -0.4481  0.7803
 1605TIP3    H1 4821   2.586   4.885   3.584  0.6535  0.0868 -0.0311
 1605TIP3    H2 4822   2.721   4.870   3.516 -0.3539 -0.9539 -1.8643
 1606TIP3   OH2 4823   4.562   4.379   2.014 -0.4450 -0.3842  0.1690
 1606TIP3    H1 4824   4.641   4.326   2.025  0.3622  1.0404  1.5462
 1606TIP3    H2 4825   4.520   4.344   1.935  3.0007  0.5588 -2.3107
 1607TIP3   OH2 4826   0.279   0.477   4.688  0.7255  0.2344  0.0106
 1607TIP3    H1 4827   0.246   0.387   4.682  1.6617 -0.0887 -0.5572
 1607TIP3    H2 4828   0.201   0.532   4.685  0.1077 -0.5784  0.9053
 1608TIP3   OH2 4829   4.089   0.680   1.465 -0.4842 -0.0950 -0.2642
 1608TIP3    H1 4830   4.103   0.745   1.533 -1.6394  0.9110 -0.9348
 1608TIP3    H2 4831   4.132   0.601   1.497 -0.5456  0.5009  1.3699
 1609TIP3   OH2 4832   1.150   5.074   3.101 -0.5514  0.0643 -0.3253
 1609TIP3    H1 4833   1.193   5.142   3.049  1.3402 -0.0395  1.0078
 1609TIP3    H2 4834   1.114   5.120   3.176 -1.5044 -0.0717 -0.6850
 1610TIP3   OH2 4835   1.320   3.318   2.641  0.4036 -0.5860  0.2106
 1610TIP3    H1 4836   1.299   3.226   2.626 -0.7659 -0.3143  0.0163
 1610TIP3    H2 4837   1.266   3.342   2.716  2.4506 -0.6411  1.7750
 1611TIP3   OH2 4838   2.357   0.055   2.196  0.3584  0.0613 -0.5049
 1611TIP3    H1 4839   2.261   0.052   2.202  0.2860 -1.9426 -1.6752
 1611TIP3    H2 4840   2.387   0.001   2.270  0.4262 -1.7340 -1.7788
 1612TIP3   OH2 4841   1.780   0.774   4.476  0.9835 -0.0341  0.0562
 1612TIP3    H1 4842   1.828   0.777   4.559 -0.8618 -1.5066  1.2533
 1612TIP3    H2 4843   1.817   0.698   4.430  1.6277  0.4539 -0.2485
 1613TIP3   OH2 4844   0.379   3.439   0.285 -0.3695  0.1580  0.2759
 1613TIP3    H1 4845   0.288   3.408   0.285  0.5729 -3.1208  1.6190
 1613TIP3    H2 4846   0.381   3.505   0.355 -1.9543  1.4290 -0.7909
 1614TIP3   OH2 4847   4.400   3.701   4.681  0.0765  0.4958  0.5190
 1614TIP3    H1 4848   4.463   3.771   4.694 -0.0216  0.4478  1.2702
 1614TIP3    H2 4849   4.399   3.653   4.764 -0.0128 -0.2685  0.0884
 1615TIP3   OH2 4850   6.121   3.258   1.400 -0.0453  0.5918  0.6499
 1615TIP3    H1 4851   6.111   3.349   1.375  1.9502  0.2528 -1.7746
 1615TIP3    H2 4852   6.141   3.260   1.494  1.1779  2.7235  0.3943
 1616TIP3   OH2 4853   0.404   0.786   4.291 -0.2004 -0.4336 -0.5940
 1616TIP3    H1 4854   0.491   0.748   4.279 -1.0713 -1.8180 -3.6593
 1616TIP3    H2 4855   0.370   0.795   4.202 -2.7244  1.2926  0.4322
 1617TIP3   OH2 4856   2.831   4.231   5.019 -0.2663 -0.8775  0.1301
 1617TIP3    H1 4857   2.779   4.175   5.077 -0.5345 -2.6062 -1.6556
 1617TIP3    H2 4858   2.773   4.304   4.998 -1.4780 -2.0026 -0.6248
 1618TIP3   OH2 4859   5.777   3.440   3.163  0.1755 -0.3735  0.2546
 1618TIP3    H1 4860   5.729   3.518   3.190  0.7027  0.4295 -1.0548
 1618TIP3    H2 4861   5.789   3.450   3.069  1.3753 -1.4035  0.2671
 1619TIP3   OH2 4862   0.757   1.360   0.397 -0.3397 -0.9638 -0.4566
 1619TIP3    H1 4863   0.700   1.422   0.443  0.0142  0.0119 -1.2894
 1619TIP3    H2 4864   0.844   1.377   0.433 -0.1675 -0.6514 -1.0190
 1620TIP3   OH2 4865   0.086   4.945   1.834 -0.2051 -0.3113 -0.2544
 1620TIP3    H1 4866  -0.001   4.909   1.816  0.2486 -0.5121 -2.3411
 1620TIP3    H2 4867   0.141   4.867   1.848 -0.0123 -0.2845 -0.8173
 1621TIP3   OH2 4868   0.111   2.094   0.966  0.1264 -0.1512  0.0413
 1621TIP3    H1 4869   0.103   2.090   1.061 -0.0653  2.0254  0.1660
 1621TIP3    H2 4870   0.022   2.109   0.935  0.4509  1.1605 -0.3072
 1622TIP3   OH2 4871   5.907   0.437   3.088 -0.5506  0.1473 -0.4611
 1622TIP3    H1 4872   5.917   0.419   2.994 -0.7555 -1.6873 -0.1823
 1622TIP3    H2 4873   5.996   0.451   3.120  0.0652 -3.2557 -0.2726
 1623TIP3   OH2 4874   4.467   5.567   1.120 -0.7958 -0.4514  0.0420
 1623TIP3    H1 4875   4.482   5.477   1.150  0.5337 -0.4558 -0.5977
 1623TIP3    H2 4876   4.371   5.576   1.120 -0.9280 -1.5798  0.9141
 1624TIP3   OH2 4877   0.915   3.404   2.246 -0.0425 -0.6039 -0.1552
 1624TIP3    H1 4878   0.861   3.436   2.173  0.1685 -2.0694 -0.9950
 1624TIP3    H2 4879   0.874   3.440   2.324 -2.7217 -2.1873 -0.6935
 1625TIP3   OH2 4880   1.799   1.597   3.976  0.2839  0.1765 -0.2072
 1625TIP3    H1 4881   1.850   1.516   3.975  0.1517  0.0900 -1.1567
 1625TIP3    H2 4882   1.790   1.618   4.069 -1.2615 -1.8948  0.1914
 1626TIP3   OH2 4883   1.624   0.214   1.871  0.8145  0.2769 -0.4563
 1626TIP3    H1 4884   1.707   0.263   1.874  1.8521 -1.4361 -0.0300
 1626TIP3    H2 4885   1.568   0.258   1.934  1.8239  0.7352  0.1514
 1627TIP3   OH2 4886   2.419   4.535   4.816 -0.0390  0.0918  0.0652
 1627TIP3    H1 4887   2.456   4.602   4.873  0.4332 -1.1161  1.2603
 1627TIP3    H2 4888   2.330   4.522   4.848 -0.7498  1.3740 -1.3180
 1628TIP3   OH2 4889   3.983   1.934   1.149  0.1842 -0.0385  0.2874
 1628TIP3    H1 4890   4.005   1.933   1.056  1.6773 -2.2707  0.5717
 1628TIP3    H2 4891   3.890   1.956   1.152 -0.1566 -0.9419 -1.8260
 1629TIP3   OH2 4892   0.345   5.018   0.690  0.3338  0.5126  0.5398
 1629TIP3    H1 4893   0.287   4.942   0.687  0.8067  0.1218  0.9606
 1629TIP3    H2 4894   0.433   4.980   0.682  0.5016  1.1579 -0.8712
 1630TIP3   OH2 4895   1.026   0.746   2.351  0.2846 -0.5965 -0.2215
 1630TIP3    H1 4896   1.079   0.677   2.393 -1.0255 -0.7580  1.2581
 1630TIP3    H2 4897   0.957   0.765   2.414 -1.2836 -0.1922 -1.9700
 1631TIP3   OH2 4898   3.586   4.929   4.253 -0.1009  0.0827  0.7027
 1631TIP3    H1 4899   3.537   4.972   4.184 -0.8746 -0.4284  0.9216
 1631TIP3    H2 4900   3.678   4.947   4.233 -0.3013 -0.2735 -0.5976
 1632TIP3   OH2 4901   5.805   0.089   0.627 -1.0140 -0.5793 -0.4611
 1632TIP3    H1 4902   5.789   0.139   0.707 -0.5648 -0.5401 -0.3914
 1632TIP3    H2 4903   5.814   0.156   0.558 -0.9987 -0.5936 -0.4730
 1633TIP3   OH2 4904   0.069   2.076   2.626  0.2330  0.2116 -0.1916
 1633TIP3    H1 4905   0.056   2.017   2.552 -1.1029  0.6779 -0.3480
 1633TIP3    H2 4906   0.137   2.033   2.679  0.6880 -0.4767 -1.3065
 1634TIP3   OH2 4907   1.826   1.986   1.867 -0.9143 -0.3885  0.1818
 1634TIP3    H1 4908   1.851   2.065   1.818 -4.9797 -0.8481 -3.2113
 1634TIP3    H2 4909   1.764   2.016   1.933 -0.4323 -0.4766  0.6783
 1635TIP3   OH2 4910   3.881   5.906   0.501  0.0749 -0.4525  0.0012
 1635TIP3    H1 4911   3.870   5.821   0.458 -2.9537 -0.4600  0.5008
 1635TIP3    H2 4912   3.821   5.964   0.454  0.5181  0.8530  1.0046
 1636TIP3   OH2 4913   3.375   2.671   4.841 -0.0186  0.1432  0.2094
 1636TIP3    H1 4914   3.305   2.646   4.781 -0.5617  0.7816  0.5584
 1636TIP3    H2 4915   3.442   2.711   4.784  0.0792 -0.4942 -0.1283
 1637TIP3   OH2 4916   3.610   5.596   1.175  0.2139 -0.1323 -0.0438
 1637TIP3    H1 4917   3.657   5.652   1.236 -0.2496  0.7289 -0.4578
 1637TIP3    H2 4918   3.539   5.651   1.142 -0.4890 -1.0921 -0.1720
 1638TIP3   OH2 4919   2.613   4.353   0.217  0.1215 -0.2634  0.0636
 1638TIP3    H1 4920   2.613   4.446   0.195 -0.9703 -0.0613  0.8696
 1638TIP3    H2 4921   2.701   4.323   0.192  0.3222  0.8584 -0.6719
 1639TIP3   OH2 4922   4.304   2.211   4.404 -0.1356 -0.0078  0.3155
 1639TIP3    H1 4923   4.355   2.286   4.433 -2.7487  2.1098 -0.1335
 1639TIP3    H2 4924   4.321   2.143   4.469  2.1078  1.0105  0.8890
 1640TIP3   OH2 4925   0.864   5.767   1.510  0.4133 -0.2847 -0.6397
 1640TIP3    H1 4926   0.851   5.678   1.543 -0.1702 -0.0831 -0.3129
 1640TIP3    H2 4927   0.855   5.823   1.587  0.2026  0.0980 -0.9360
 1641TIP3   OH2 4928   5.345   2.095   3.745 -0.1767 -0.0538 -0.8598
 1641TIP3    H1 4929   5.387   2.182   3.739  0.2882 -0.1956  0.1669
 1641TIP3    H2 4930   5.394   2.050   3.813 -1.3722 -0.5975 -0.3388
 1642TIP3   OH2 4931   4.112   2.914   0.673 -0.0337  0.2958  0.0221
 1642TIP3    H1 4932   4.046   2.846   0.691 -0.5550  0.9909  0.8515
 1642TIP3    H2 4933   4.068   2.973   0.612  0.9281 -0.8413 -1.8466
 1643TIP3   OH2 4934   4.075   1.188   2.439  0.0087 -0.2661  0.5339
 1643TIP3    H1 4935   4.064   1.224   2.351  2.1311 -1.9354 -0.5258
 1643TIP3    H2 4936   4.061   1.263   2.497 -2.6919  0.6283 -1.0760
 1644TIP3   OH2 4937   3.843   2.255   3.039  0.0463 -0.1266 -0.2960
 1644TIP3    H1 4938   3.815   2.277   3.128  0.1979 -1.6234  0.1531
 1644TIP3    H2 4939   3.938   2.240   3.046  0.3510  1.2541 -1.0477
 1645TIP3   OH2 4940   1.880   2.345   4.804 -0.2289 -0.2251 -0.6282
 1645TIP3    H1 4941   1.949   2.395   4.849  0.1116  0.1292 -1.5326
 1645TIP3    H2 4942   1.911   2.337   4.714 -1.1130 -0.5574 -0.9078
 1646TIP3   OH2 4943   5.361   1.047   1.480  0.0252  0.0351 -0.0389
 1646TIP3    H1 4944   5.386   1.033   1.389 -0.3940  1.7744 -0.4517
 1646TIP3    H2 4945   5.281   1.099   1.475 -0.3695 -0.4138  1.3178
 1647TIP3   OH2 4946   2.644   1.296   4.469  0.2708 -0.1298  0.0722
 1647TIP3    H1 4947   2.581   1.251   4.413 -0.5612  0.5680  0.4227
 1647TIP3    H2 4948   2.714   1.233   4.482  0.3063 -0.4453 -1.4503
 1648TIP3   OH2 4949   2.386   2.935   1.598  0.2753 -0.1957 -0.3412
 1648TIP3    H1 4950   2.432   3.015   1.573  0.4687 -0.5083 -1.0010
 1648TIP3    H2 4951   2.417   2.869   1.536  0.5527 -0.9236  0.5481
 1649TIP3   OH2 4952   5.832   2.845   2.388 -0.0109 -0.4411 -0.3710
 1649TIP3    H1 4953   5.886   2.851   2.467 -1.2663 -0.5386  0.5328
 1649TIP3    H2 4954   5.793   2.757   2.393 -1.1337  0.0335 -0.3691
 1650TIP3   OH2 4955   2.239   4.024   0.518  0.3792  0.3570 -0.7234
 1650TIP3    H1 4956   2.190   3.972   0.454  0.0524  0.2999 -0.4303
 1650TIP3    H2 4957   2.206   3.995   0.603  0.6445  0.5988 -0.5351
 1651TIP3   OH2 4958   4.463   1.182   4.330 -0.3480 -0.3699  0.0491
 1651TIP3    H1 4959   4.556   1.196   4.348 -0.2428 -0.7916 -0.1639
 1651TIP3    H2 4960   4.430   1.139   4.410 -0.6305  0.8753  0.6240
 1652TIP3   OH2 4961   1.224   1.401   4.790 -0.5155  0.4207  0.3439
 1652TIP3    H1 4962   1.252   1.481   4.745  0.1973 -0.4478 -0.8038
 1652TIP3    H2 4963   1.136   1.384   4.756 -0.1013 -0.0624 -0.4913
 1653TIP3   OH2 4964   3.933   5.593   3.694  0.3853 -0.8726  0.1381
 1653TIP3    H1 4965   3.845   5.596   3.654 -0.4746 -1.2687  1.9195
 1653TIP3    H2 4966   3.941   5.504   3.727  1.7197 -1.0001 -0.4772
 1654TIP3   OH2 4967   1.666   2.101   2.055 -0.3539 -0.0411 -0.2757
 1654TIP3    H1 4968   1.580   2.142   2.045 -1.7056 -2.6412 -0.0992
 1654TIP3    H2 4969   1.650   2.022   2.106  1.8774 -1.3813 -1.4514
 1655TIP3   OH2 4970   5.377   3.032   1.557  0.2607  0.0150 -0.3550
 1655TIP3    H1 4971   5.377   3.024   1.461 -1.2578 -1.3153 -0.2896
 1655TIP3    H2 4972   5.461   2.996   1.584  0.4388 -0.1927 -1.1416
 1656TIP3   OH2 4973   6.343   2.124   1.828 -0.1546  0.3350  0.2508
 1656TIP3    H1 4974   6.299   2.169   1.756  0.7994 -0.4213 -0.8443
 1656TIP3    H2 4975   6.340   2.031   1.805  1.3033  0.1884  0.5178
 1657TIP3   OH2 4976   1.605   5.816   2.703 -0.2553  0.2777 -0.5171
 1657TIP3    H1 4977   1.576   5.857   2.621  1.6028  0.9280 -0.9000
 1657TIP3    H2 4978   1.677   5.759   2.676  2.4530  2.7776  0.9445
 1658TIP3   OH2 4979   3.088   1.198   4.056  0.3374  0.0370  0.4781
 1658TIP3    H1 4980   3.077   1.293   4.061  0.3065  0.3821 -3.3478
 1658TIP3    H2 4981   3.005   1.162   4.087 -0.8832  1.4343 -1.0648
 1659TIP3   OH2 4982   2.653   2.943   2.330  0.3834  0.5163  0.9891
 1659TIP3    H1 4983   2.696   2.929   2.246 -0.3518 -0.0150  0.6908
 1659TIP3    H2 4984   2.723   2.934   2.395  0.8997  0.6325  0.4528
 1660TIP3   OH2 4985   0.207   0.904   4.748 -0.3107 -0.2604  0.1462
 1660TIP3    H1 4986   0.201   0.834   4.814  1.7653 -0.2583  0.4215
 1660TIP3    H2 4987   0.252   0.863   4.674  0.9077  0.7370  0.2971
 1661TIP3   OH2 4988   2.458   1.863   1.523  0.1908 -0.5759 -0.2556
 1661TIP3    H1 4989   2.371   1.875   1.485 -0.1681 -0.0904  0.6824
 1661TIP3    H2 4990   2.499   1.797   1.468 -1.0519 -1.3629 -0.2949
 1662TIP3   OH2 4991   5.510   0.587   3.811  0.1719  0.3754  0.4254
 1662TIP3    H1 4992   5.531   0.494   3.820  2.3872  0.7421 -0.3243
 1662TIP3    H2 4993   5.492   0.599   3.718 -0.5413  0.6341  0.5905
 1663TIP3   OH2 4994   4.036   3.403   0.303  0.1600  0.1957  0.5794
 1663TIP3    H1 4995   4.084   3.424   0.224 -0.8602  2.4289  0.4607
 1663TIP3    H2 4996   3.946   3.389   0.274 -0.5461  2.5115  1.4109
 1664TIP3   OH2 4997   4.528   4.761   4.547 -0.2616  0.3619 -0.3431
 1664TIP3    H1 4998   4.490   4.698   4.486 -1.7814 -0.6490  1.5432
 1664TIP3    H2 4999   4.452   4.800   4.592  0.7826  1.2417  0.7388
 1665TIP3   OH2 5000   4.721   0.040   3.323  0.0337  0.2651 -0.2355
 1665TIP3    H1 5001   4.656   0.023   3.391 -0.0842  0.6070 -0.2606
 1665TIP3    H2 5002   4.770   0.116   3.355 -0.5820  0.9696 -0.9237
 1666TIP3   OH2 5003   1.457   4.864   1.755 -0.1827 -1.1287  1.1427
 1666TIP3    H1 5004   1.471   4.772   1.734 -0.8410 -1.5466  2.4234
 1666TIP3    H2 5005   1.546   4.901   1.756 -0.0513 -1.1885 -1.5638
 1667TIP3   OH2 5006   0.608   3.806   1.169  0.3684 -0.1499 -0.0116
 1667TIP3    H1 5007   0.619   3.815   1.074 -0.3535  0.1884 -0.0689
 1667TIP3    H2 5008   0.587   3.713   1.182 -0.0297 -0.0917 -0.2335
 1668TIP3   OH2 5009   2.820   1.050   3.158  0.3738 -0.5489  0.3558
 1668TIP3    H1 5010   2.790   1.092   3.078  0.4747 -0.2022  0.4994
 1668TIP3    H2 5011   2.910   1.081   3.170  0.5977 -1.1313  0.2382
 1669TIP3   OH2 5012   0.034   0.214   2.623 -0.0363  0.0752 -0.3477
 1669TIP3    H1 5013   0.086   0.135   2.605  1.0343  0.9565 -1.2951
 1669TIP3    H2 5014   0.099   0.284   2.628 -0.7413  0.6335  2.6197
 1670TIP3   OH2 5015   5.128   3.926   4.794 -0.2401 -0.5247 -0.2047
 1670TIP3    H1 5016   5.097   3.961   4.710  0.2862  1.3210  0.3026
 1670TIP3    H2 5017   5.220   3.903   4.777  0.0619  0.4549 -0.0228
 1671TIP3   OH2 5018   0.071   1.708   4.227  0.3860  0.6444  0.2914
 1671TIP3    H1 5019   0.021   1.773   4.179  0.4134 -0.1743 -0.8972
 1671TIP3    H2 5020   0.007   1.666   4.285  0.0026  0.5876 -0.1661
 1672TIP3   OH2 5021   2.776   0.176   1.299 -0.0654 -0.2288 -0.5281
 1672TIP3    H1 5022   2.765   0.157   1.206 -1.1323 -2.0377 -0.0739
 1672TIP3    H2 5023   2.792   0.091   1.340  0.4464  0.5383  0.9569
 1673TIP3   OH2 5024   1.039   1.147   4.719 -0.1960 -0.2082 -0.2545
 1673TIP3    H1 5025   1.101   1.172   4.651 -0.5112 -0.9079 -0.8008
 1673TIP3    H2 5026   1.055   1.054   4.733 -0.3573 -0.1414  0.4025
 1674TIP3   OH2 5027   1.057   5.929   0.347 -0.4880  0.4958 -0.4279
 1674TIP3    H1 5028   1.046   5.913   0.441  1.5867  0.0597 -0.2181
 1674TIP3    H2 5029   1.061   5.842   0.308  0.3909  0.6392 -0.6732
 1675TIP3   OH2 5030   3.218   5.229   4.979 -0.3866 -0.3524 -0.1029
 1675TIP3    H1 5031   3.310   5.215   4.954 -0.2413 -0.6418  0.5651
 1675TIP3    H2 5032   3.168   5.178   4.915 -0.0932 -0.0844 -0.5571
 1676TIP3   OH2 5033   1.185   5.498   1.539 -0.2998 -0.3768 -0.8738
 1676TIP3    H1 5034   1.254   5.558   1.512 -0.6099 -0.3406 -1.5973
 1676TIP3    H2 5035   1.193   5.423   1.480  1.6780 -2.2584  1.5374
 1677TIP3   OH2 5036   6.091   2.669   0.440 -0.1772 -0.4736  0.0912
 1677TIP3    H1 5037   6.048   2.745   0.479 -0.3702 -0.3080 -0.4401
 1677TIP3    H2 5038   6.020   2.607   0.426  0.1291 -1.2012  1.5254
 1678TIP3   OH2 5039   5.239   5.647   2.038  0.5991 -0.1341 -0.4202
 1678TIP3    H1 5040   5.254   5.703   2.114 -0.9101 -0.7008  0.3211
 1678TIP3    H2 5041   5.200   5.567   2.073  2.6866 -1.7055 -1.4580
 1679TIP3   OH2 5042   4.467   5.095   0.859 -0.4314 -0.3986  0.0349
 1679TIP3    H1 5043   4.409   5.106   0.934  0.1556 -0.8466  0.5626
 1679TIP3    H2 5044   4.447   5.170   0.802 -1.6752 -0.6634  0.0883
 1680TIP3   OH2 5045   5.322   4.817   1.652 -0.5651  0.3685 -0.0560
 1680TIP3    H1 5046   5.277   4.745   1.607 -1.6788  0.6726  0.5368
 1680TIP3    H2 5047   5.292   4.810   1.743  0.7221  0.4945  0.4015
 1681TIP3   OH2 5048   1.928   2.558   1.177  0.3183  0.1519 -0.1796
 1681TIP3    H1 5049   2.007   2.539   1.126 -0.4907  0.0710 -1.4545
 1681TIP3    H2 5050   1.883   2.474   1.182 -0.3692  0.4783 -0.7018
 1682TIP3   OH2 5051   0.536   3.255   3.689 -0.1621 -0.3483 -0.2340
 1682TIP3    H1 5052   0.461   3.296   3.732  0.2545 -0.7398  0.9069
 1682TIP3    H2 5053   0.504   3.168   3.664  0.1374 -0.8418  1.0233
 1683TIP3   OH2 5054   0.147   5.120   0.102 -0.2297 -0.1104 -0.4489
 1683TIP3    H1 5055   0.239   5.131   0.080 -0.4505 -0.3110 -1.5059
 1683TIP3    H2 5056   0.146   5.119   0.198  0.8033  0.3608 -0.4173
 1684TIP3   OH2 5057   3.089   1.875   0.543  0.8515  0.7093 -0.3138
 1684TIP3    H1 5058   3.112   1.798   0.595  0.2450  0.6393 -0.1402
 1684TIP3    H2 5059   3.002   1.901   0.576  0.4434  0.6434 -1.3110
 1685TIP3   OH2 5060   3.177   1.455   1.609 -0.4756 -0.4443 -0.2940
 1685TIP3    H1 5061   3.100   1.512   1.614  0.6236  0.9879  0.8642
 1685TIP3    H2 5062   3.227   1.488   1.535 -0.4335 -0.6742 -0.3690
 1686TIP3   OH2 5063   0.294   0.814   1.323  0.1303  0.1832  0.5149
 1686TIP3    H1 5064   0.347   0.850   1.252  0.3725 -0.2356  0.4850
 1686TIP3    H2 5065   0.281   0.888   1.382  0.5458  0.3488  0.4041
 1687TIP3   OH2 5066   5.426   5.459   0.370 -0.2704  0.1215 -0.2669
 1687TIP3    H1 5067   5.379   5.482   0.450  0.2465 -0.6111  0.2646
 1687TIP3    H2 5068   5.359   5.421   0.312 -0.4034 -0.6536  0.3730
 1688TIP3   OH2 5069   1.917   2.920   4.311 -0.1499 -0.0448  0.4264
 1688TIP3    H1 5070   1.827   2.901   4.336 -0.6466  1.1778 -0.3407
 1688TIP3    H2 5071   1.913   3.006   4.268  1.3355 -0.0822  0.1409
 1689TIP3   OH2 5072   6.133   2.652   1.091  0.5073  0.1591 -0.0673
 1689TIP3    H1 5073   6.203   2.717   1.090 -0.3385  1.0911 -0.4846
 1689TIP3    H2 5074   6.170   2.575   1.047  1.6668  0.1834  0.8359
 1690TIP3   OH2 5075   4.491   3.493   4.071 -0.2249 -1.0428 -0.0892
 1690TIP3    H1 5076   4.552   3.461   4.004  2.9485  0.7884  1.6593
 1690TIP3    H2 5077   4.504   3.433   4.145  2.0477  1.0610  1.4135
 1691TIP3   OH2 5078   1.394   4.435   4.319  0.8125  0.3679  0.0319
 1691TIP3    H1 5079   1.403   4.494   4.244 -1.8563  0.6838 -0.1321
 1691TIP3    H2 5080   1.337   4.365   4.288  1.7999 -0.9270  1.0256
 1692TIP3   OH2 5081   1.436   1.229   0.598  0.1582 -0.8258 -0.2383
 1692TIP3    H1 5082   1.430   1.273   0.513  0.1380  0.5857  0.4667
 1692TIP3    H2 5083   1.496   1.284   0.649 -0.3950 -1.2527  0.8991
 1693TIP3   OH2 5084   5.207   3.208   4.196 -0.4967 -0.6954  0.0149
 1693TIP3    H1 5085   5.131   3.260   4.222 -1.4113 -2.5679  1.3245
 1693TIP3    H2 5086   5.256   3.194   4.277  1.7182  1.0419 -0.9033
 1694TIP3   OH2 5087   2.217   3.335   2.430  0.3357 -0.3657  0.2019
 1694TIP3    H1 5088   2.124   3.349   2.448  0.3200  0.8291 -0.6786
 1694TIP3    H2 5089   2.227   3.239   2.431 -0.5630 -0.4771  1.8627
 1695TIP3   OH2 5090   4.021   0.903   4.536 -0.1565  0.0208 -0.3691
 1695TIP3    H1 5091   3.930   0.894   4.507 -1.0673  0.9643  1.9415
 1695TIP3    H2 5092   4.056   0.814   4.530 -1.8940 -0.7937  0.6283
 1696TIP3   OH2 5093   0.689   3.492   1.136  0.4768 -0.4092 -0.2263
 1696TIP3    H1 5094   0.637   3.457   1.064 -1.6425  0.6252  0.6969
 1696TIP3    H2 5095   0.777   3.457   1.122 -0.2461 -1.5477 -2.3643
 1697TIP3   OH2 5096   4.430   1.297   1.972 -0.0990 -0.1775  0.0502
 1697TIP3    H1 5097   4.395   1.209   1.985  1.3832 -0.5786  1.6310
 1697TIP3    H2 5098   4.425   1.338   2.059 -0.3220  1.1492 -0.5543
 1698TIP3   OH2 5099   0.553   1.683   4.231 -0.3138  0.0497 -0.5813
 1698TIP3    H1 5100   0.524   1.733   4.307 -0.9254  1.0049 -1.4131
 1698TIP3    H2 5101   0.641   1.654   4.253 -1.2149 -1.4902  1.3400
 1699TIP3   OH2 5102   4.063   0.866   0.600 -0.5162 -0.0044 -0.2845
 1699TIP3    H1 5103   4.016   0.893   0.522  1.6731  0.0438 -1.6720
 1699TIP3    H2 5104   4.103   0.947   0.633  1.8435 -0.6031 -1.4905
 1700TIP3   OH2 5105   5.825   5.880   0.369  0.7554 -0.4614  0.0079
 1700TIP3    H1 5106   5.860   5.838   0.291  0.9816 -0.5678  0.1657
 1700TIP3    H2 5107   5.858   5.970   0.366 -0.2521 -0.0958 -0.6650
 1701TIP3   OH2 5108   2.095   1.758   1.611  0.7327 -0.4704 -0.0537
 1701TIP3    H1 5109   2.155   1.804   1.670  0.5711 -0.6495  0.2523
 1701TIP3    H2 5110   2.008   1.774   1.648  0.6517 -0.7730 -0.1125
 1702TIP3   OH2 5111   2.611   5.850   1.449  0.3469 -0.2587  0.1583
 1702TIP3    H1 5112   2.562   5.782   1.495  2.1096 -2.0530 -0.4526
 1702TIP3    H2 5113   2.676   5.802   1.398  1.4136  1.8948 -0.6291
 1703TIP3   OH2 5114   5.843   5.007   2.707  0.4329  0.0930  0.3851
 1703TIP3    H1 5115   5.860   4.917   2.734  0.7577  0.1675  0.4297
 1703TIP3    H2 5116   5.757   5.003   2.665 -0.6477  0.1815  2.4544
 1704TIP3   OH2 5117   4.079   3.258   1.293  0.2917  0.5996  0.0026
 1704TIP3    H1 5118   4.057   3.183   1.347 -0.0540  1.3364  0.9081
 1704TIP3    H2 5119   3.995   3.296   1.270  0.4011 -0.0266 -1.5580
 1705TIP3   OH2 5120   1.519   2.362   3.249 -0.0469  0.4124  0.2640
 1705TIP3    H1 5121   1.565   2.371   3.333  1.1353 -2.3814  0.0243
 1705TIP3    H2 5122   1.589   2.363   3.184 -0.7672  0.5397 -0.5234
 1706TIP3   OH2 5123   3.632   4.884   1.861  0.2657  0.2191  0.0973
 1706TIP3    H1 5124   3.672   4.971   1.853 -0.7465  0.6371 -0.7633
 1706TIP3    H2 5125   3.663   4.837   1.784  0.5075 -0.0544  0.3618
 1707TIP3   OH2 5126   3.868   5.582   4.396  0.7030  0.6970 -0.0968
 1707TIP3    H1 5127   3.805   5.517   4.366  0.4987  0.5838  0.5584
 1707TIP3    H2 5128   3.855   5.657   4.339 -1.0332  1.2223  0.9201
 1708TIP3   OH2 5129   1.044   0.390   0.581 -0.2842 -0.7828  0.6915
 1708TIP3    H1 5130   1.056   0.346   0.497 -0.7861 -0.1128  0.2647
 1708TIP3    H2 5131   0.987   0.464   0.562  0.5649  0.0789  1.3989
 1709TIP3   OH2 5132   0.441   1.243   2.802 -0.3880  0.1044  0.4336
 1709TIP3    H1 5133   0.350   1.225   2.823 -0.7457  1.0389 -0.2585
 1709TIP3    H2 5134   0.485   1.158   2.811 -0.9529 -0.0073  2.5464
 1710TIP3   OH2 5135   2.703   1.661   0.096  0.4943  0.7560 -0.4787
 1710TIP3    H1 5136   2.737   1.736   0.047  1.5760  2.1812  2.2527
 1710TIP3    H2 5137   2.608   1.675   0.098  0.6046  1.6029 -0.6974
 1711TIP3   OH2 5138   2.427   2.641   2.147  0.0946 -0.0705  0.0858
 1711TIP3    H1 5139   2.473   2.573   2.097 -1.4956 -0.2213 -1.2574
 1711TIP3    H2 5140   2.397   2.596   2.225 -0.5408 -0.8232 -0.5711
 1712TIP3   OH2 5141   5.237   2.086   2.949 -0.3891 -0.9676 -0.8350
 1712TIP3    H1 5142   5.277   2.131   2.874 -1.4906 -0.0360 -0.8846
 1712TIP3    H2 5143   5.292   2.110   3.023  0.5832 -1.7202 -1.2791
 1713TIP3   OH2 5144   5.129   2.871   1.867 -0.1974  0.7985  0.0718
 1713TIP3    H1 5145   5.066   2.942   1.852 -0.9884  0.2096  0.5320
 1713TIP3    H2 5146   5.077   2.802   1.908  1.1979  1.1470  2.6007
 1714TIP3   OH2 5147   5.021   1.217   0.767  0.0639  0.2217  0.0556
 1714TIP3    H1 5148   5.087   1.207   0.836 -1.1191 -1.4049  1.0172
 1714TIP3    H2 5149   5.022   1.310   0.746  2.6994  0.2362 -0.0329
 1715TIP3   OH2 5150   0.299   5.694   1.887 -0.1940 -0.3190  0.3341
 1715TIP3    H1 5151   0.381   5.645   1.882 -0.1230 -0.2826  0.9880
 1715TIP3    H2 5152   0.245   5.643   1.948 -0.7971 -0.5393 -0.3767
 1716TIP3   OH2 5153   1.764   5.644   0.094  0.3362 -0.0172  0.0577
 1716TIP3    H1 5154   1.765   5.734   0.061  1.1017  0.3090  0.9421
 1716TIP3    H2 5155   1.673   5.616   0.083  0.0376  0.9448 -0.0087
 1717TIP3   OH2 5156   5.757   3.086   1.936 -0.3905  0.3747  0.4799
 1717TIP3    H1 5157   5.819   3.029   1.982  0.6485  0.1684 -1.0884
 1717TIP3    H2 5158   5.694   3.025   1.896 -0.9980  0.5243  1.1813
 1718TIP3   OH2 5159   0.916   4.124   4.468  0.1684 -0.1536  0.1155
 1718TIP3    H1 5160   0.971   4.053   4.501  0.5501  0.3097  0.4867
 1718TIP3    H2 5161   0.866   4.084   4.397  1.1298 -0.5426 -0.3698
 1719TIP3   OH2 5162   3.488   1.862   0.281 -0.0804 -0.0916 -0.2273
 1719TIP3    H1 5163   3.470   1.789   0.222 -0.3507 -1.2862  1.2905
 1719TIP3    H2 5164   3.579   1.849   0.309  0.3978  1.0639 -1.1539
 1720TIP3   OH2 5165   0.344   2.889   2.257  0.1699  0.0807 -0.3968
 1720TIP3    H1 5166   0.319   2.947   2.185  2.7394 -0.7761 -2.0896
 1720TIP3    H2 5167   0.351   2.802   2.217  3.5263 -0.0972  0.3447
 1721TIP3   OH2 5168   4.489   4.299   1.472  0.2121  0.4535 -0.3341
 1721TIP3    H1 5169   4.425   4.316   1.403  1.1124 -0.4203 -1.4291
 1721TIP3    H2 5170   4.561   4.358   1.453 -0.4337  1.8033  1.1951
 1722TIP3   OH2 5171   5.521   0.011   1.484 -0.0158 -0.1452 -0.1679
 1722TIP3    H1 5172   5.467   0.012   1.563 -2.5994 -0.9115 -1.8209
 1722TIP3    H2 5173   5.583   0.083   1.498 -0.3752 -0.2206  2.5026
 1723TIP3   OH2 5174   3.352   1.824   1.244 -0.3268  0.1700  0.4140
 1723TIP3    H1 5175   3.261   1.813   1.272 -0.4978  2.4024  0.9058
 1723TIP3    H2 5176   3.374   1.914   1.267  2.0331 -0.3055  0.3039
 1724TIP3   OH2 5177   2.481   2.735   1.436  0.0626 -0.2216  0.6968
 1724TIP3    H1 5178   2.466   2.642   1.416 -0.8743 -0.0566  0.5706
 1724TIP3    H2 5179   2.560   2.758   1.387 -0.1850 -0.7343  0.0439
 1725TIP3   OH2 5180   0.460   1.434   2.271  0.0142 -0.1636 -0.0008
 1725TIP3    H1 5181   0.488   1.497   2.205 -0.6100 -0.8596 -0.9539
 1725TIP3    H2 5182   0.412   1.367   2.222  0.1334 -1.0647  1.0613
 1726TIP3   OH2 5183   6.168   5.970   4.441  0.2406  0.3895  0.7525
 1726TIP3    H1 5184   6.077   5.946   4.457 -0.3271  1.6007 -0.4931
 1726TIP3    H2 5185   6.209   5.968   4.528 -0.3820 -2.3148  1.0857
 1727TIP3   OH2 5186   0.077   0.621   3.972 -0.5612  0.0752  0.0507
 1727TIP3    H1 5187   0.144   0.673   3.926  0.0175 -0.9325 -0.2741
 1727TIP3    H2 5188   0.122   0.585   4.048 -0.5782 -1.0449 -0.4563
 1728TIP3   OH2 5189   1.615   5.011   2.130  0.3254 -0.1128 -0.1546
 1728TIP3    H1 5190   1.620   5.008   2.225  2.4926  2.4173 -0.0740
 1728TIP3    H2 5191   1.527   4.978   2.109  0.3848 -2.2789  2.5317
 1729TIP3   OH2 5192   1.825   2.769   1.667 -0.2866 -0.8520  0.0363
 1729TIP3    H1 5193   1.812   2.862   1.651 -1.1798 -0.7254  1.2913
 1729TIP3    H2 5194   1.916   2.760   1.692 -0.0239 -0.4295 -0.7449
 1730TIP3   OH2 5195   2.584   3.482   1.334  0.0847 -0.2047  0.6035
 1730TIP3    H1 5196   2.544   3.555   1.287  0.2684 -1.7792 -2.1965
 1730TIP3    H2 5197   2.640   3.439   1.269  3.1234 -0.5608  3.2182
 1731TIP3   OH2 5198   4.536   5.006   2.859  0.5650 -0.5489 -0.7651
 1731TIP3    H1 5199   4.528   4.933   2.921  1.4241 -2.1863 -2.4987
 1731TIP3    H2 5200   4.484   4.979   2.784 -0.9717  1.6893 -0.5730
 1732TIP3   OH2 5201   1.577   0.413   2.626 -0.4665 -0.5256  0.1250
 1732TIP3    H1 5202   1.587   0.319   2.636 -0.3804 -0.4676  0.6165
 1732TIP3    H2 5203   1.509   0.438   2.689  0.2419 -0.1174  0.7488
 1733TIP3   OH2 5204   4.035   5.214   0.904  0.4822 -0.3917 -0.2594
 1733TIP3    H1 5205   3.971   5.271   0.861 -0.1635 -0.8420  0.0740
 1733TIP3    H2 5206   4.100   5.195   0.836  1.6533  2.0700  0.0890
 1734TIP3   OH2 5207   5.476   2.469   0.361  0.0027  0.3042 -0.2344
 1734TIP3    H1 5208   5.460   2.445   0.452  2.4242  2.0443  0.7596
 1734TIP3    H2 5209   5.505   2.388   0.319 -1.8598 -0.6836  0.2888
 1735TIP3   OH2 5210   3.602   3.657   4.926  0.5096 -0.2008 -0.2674
 1735TIP3    H1 5211   3.690   3.688   4.903  0.4401  0.4007  0.2403
 1735TIP3    H2 5212   3.566   3.727   4.982  0.4324 -1.3268  1.1286
 1736TIP3   OH2 5213   1.908   5.861   4.645  0.3385  0.0833 -1.0324
 1736TIP3    H1 5214   1.915   5.771   4.674 -1.7154 -0.2076 -1.2257
 1736TIP3    H2 5215   1.991   5.901   4.668  0.1404 -1.0082  2.0491
 1737TIP3   OH2 5216   6.190   4.442   1.153 -0.4877 -0.2935 -0.4264
 1737TIP3    H1 5217   6.226   4.472   1.236  0.1584  0.1209 -0.8487
 1737TIP3    H2 5218   6.259   4.387   1.116 -0.4060  0.2624 -1.1081
 1738TIP3   OH2 5219   1.237   5.250   2.486  0.0457 -0.0625  0.1556
 1738TIP3    H1 5220   1.275   5.322   2.536  0.8209  0.2301 -0.8097
 1738TIP3    H2 5221   1.311   5.193   2.467 -0.6351 -1.3942  1.3141
 1739TIP3   OH2 5222   4.176   3.882   2.701  0.3765 -0.1221  0.1051
 1739TIP3    H1 5223   4.255   3.864   2.650 -0.6647 -1.5198 -1.1077
 1739TIP3    H2 5224   4.149   3.797   2.735 -0.0697  0.4925  1.3276
 1740TIP3   OH2 5225   0.188   3.505   4.483 -0.3383  0.1928  0.1364
 1740TIP3    H1 5226   0.098   3.497   4.512 -0.5374 -0.5154 -0.6347
 1740TIP3    H2 5227   0.219   3.415   4.475  0.9376  0.4212  1.8479
 1741TIP3   OH2 5228   1.061   1.638   3.481 -0.4312 -0.3047 -0.3023
 1741TIP3    H1 5229   1.087   1.728   3.460  0.0788 -0.5436 -0.7068
 1741TIP3    H2 5230   0.972   1.647   3.516  0.6405  0.6968  2.4207
 1742TIP3   OH2 5231   4.416   2.292   0.886  0.3857  0.0041  0.2428
 1742TIP3    H1 5232   4.376   2.297   0.799  0.9631 -0.5379 -0.0593
 1742TIP3    H2 5233   4.510   2.302   0.870  0.4444  0.5399  0.8739
 1743TIP3   OH2 5234   5.390   3.724   0.272 -0.3089  0.0857 -0.1278
 1743TIP3    H1 5235   5.375   3.815   0.297  1.8852  0.4264  0.0932
 1743TIP3    H2 5236   5.474   3.724   0.227  2.0575 -2.3752  3.6815
 1744TIP3   OH2 5237   0.611   2.856   2.040 -0.0217  0.0653 -0.0032
 1744TIP3    H1 5238   0.646   2.821   2.122 -1.1371 -0.7452  0.1528
 1744TIP3    H2 5239   0.527   2.812   2.029 -0.2643  0.7706 -1.1736
 1745TIP3   OH2 5240   3.570   5.553   3.075 -0.5494  0.0177 -0.3889
 1745TIP3    H1 5241   3.527   5.600   3.146  0.2834  0.8475 -0.4129
 1745TIP3    H2 5242   3.500   5.537   3.012 -1.1048  0.1023  0.1942
 1746TIP3   OH2 5243   4.743   3.223   4.692 -0.5031  0.4628 -0.5594
 1746TIP3    H1 5244   4.800   3.211   4.768  0.5999  0.3339 -1.3943
 1746TIP3    H2 5245   4.665   3.266   4.728  0.3613  1.2023  0.5079
 1747TIP3   OH2 5246   4.652   0.351   0.031 -0.1707  0.6018  0.0314
 1747TIP3    H1 5247   4.619   0.263   0.050 -0.6257  0.6141 -0.6662
 1747TIP3    H2 5248   4.746   0.339   0.018 -0.6884 -0.5020 -3.8582
 1748TIP3   OH2 5249   6.307   0.081   3.863 -0.4419 -0.7526 -0.1683
 1748TIP3    H1 5250   6.215   0.063   3.841 -0.8777  1.5647 -0.4384
 1748TIP3    H2 5251   6.321   0.172   3.838  1.2278 -0.2632  2.2005
 1749TIP3   OH2 5252   5.317   0.551   1.927 -0.4758 -0.5104 -0.2175
 1749TIP3    H1 5253   5.372   0.584   1.856  0.5243  1.0904  1.2100
 1749TIP3    H2 5254   5.370   0.564   2.006 -2.7482  0.8151  1.2135
 1750TIP3   OH2 5255   4.789   0.764   0.985 -0.5035 -0.4508 -0.3172
 1750TIP3    H1 5256   4.847   0.773   0.908 -1.6359  1.6478 -1.0059
 1750TIP3    H2 5257   4.704   0.743   0.948 -0.9121 -0.1014  0.4050
 1751TIP3   OH2 5258   4.135   4.595   3.447 -0.0904 -0.2463 -1.3794
 1751TIP3    H1 5259   4.230   4.588   3.458 -0.2152 -0.6721 -0.5280
 1751TIP3    H2 5260   4.124   4.639   3.362  0.8679  0.2053 -1.2836
 1752TIP3   OH2 5261   4.206   1.407   0.846  0.5560  0.3197 -0.1116
 1752TIP3    H1 5262   4.244   1.365   0.768 -0.8333 -0.4207 -0.4203
 1752TIP3    H2 5263   4.121   1.364   0.857 -1.1502  3.3047 -0.6636
 1753TIP3   OH2 5264   0.808   1.517   1.303 -0.0457 -0.0534  0.4720
 1753TIP3    H1 5265   0.806   1.422   1.303  1.2972 -0.0971  1.4308
 1753TIP3    H2 5266   0.900   1.540   1.296 -0.3682  1.1927 -0.0321
 1754TIP3   OH2 5267   5.686   3.772   0.206 -0.1374 -0.2699  0.2217
 1754TIP3    H1 5268   5.711   3.863   0.190 -2.4438  0.0053 -2.7445
 1754TIP3    H2 5269   5.769   3.724   0.205  1.1704  1.7308  2.2268
 1755TIP3   OH2 5270   5.847   4.841   0.111 -0.1727 -0.5126 -0.5394
 1755TIP3    H1 5271   5.869   4.932   0.133 -0.2238 -0.7830  0.6797
 1755TIP3    H2 5272   5.929   4.803   0.080  0.5338 -0.7915  1.5188
 1756TIP3   OH2 5273   5.190   0.663   1.030  0.6529 -0.1562 -0.5059
 1756TIP3    H1 5274   5.260   0.692   1.089  1.1342 -1.2990 -0.4903
 1756TIP3    H2 5275   5.232   0.652   0.945  0.1825  0.4806 -0.8304
 1757TIP3   OH2 5276   2.928   2.732   3.601  0.0082  0.5613 -0.4187
 1757TIP3    H1 5277   2.879   2.809   3.574 -1.4510 -0.2292 -0.1379
 1757TIP3    H2 5278   2.866   2.660   3.593  0.7657 -0.3145  1.0586
 1758TIP3   OH2 5279   5.182   5.605   3.758 -0.1127 -0.4815 -0.0905
 1758TIP3    H1 5280   5.118   5.670   3.728  0.1407  0.6115  1.6348
 1758TIP3    H2 5281   5.218   5.568   3.677 -1.2562  0.5220 -1.0973
 1759TIP3   OH2 5282   4.836   4.099   1.621  0.0813 -0.6433  0.0282
 1759TIP3    H1 5283   4.828   4.186   1.582 -0.0310  0.2833  2.0032
 1759TIP3    H2 5284   4.826   4.038   1.548  0.5516  1.0048 -1.4580
 1760TIP3   OH2 5285   0.220   5.150   3.037 -0.0512  0.0912  0.4361
 1760TIP3    H1 5286   0.190   5.097   2.963  0.7419  2.6986 -1.9249
 1760TIP3    H2 5287   0.316   5.153   3.027 -0.0864  2.1399  0.2896
 1761TIP3   OH2 5288   4.204   4.000   0.681  0.3991 -0.3509 -0.1604
 1761TIP3    H1 5289   4.262   4.034   0.613  0.7384  2.4931  1.3709
 1761TIP3    H2 5290   4.263   3.979   0.754 -0.1553 -1.0597  0.0929
 1762TIP3   OH2 5291   4.137   3.443   2.087  0.3097 -0.0018 -0.1954
 1762TIP3    H1 5292   4.136   3.538   2.090  0.8493  0.0224  2.5278
 1762TIP3    H2 5293   4.054   3.417   2.128  0.7813 -0.6514  0.3825
 1763TIP3   OH2 5294   4.794   0.542   2.829 -0.6473 -0.2095 -0.1803
 1763TIP3    H1 5295   4.716   0.497   2.798 -1.0003 -0.8592  1.5749
 1763TIP3    H2 5296   4.796   0.623   2.778 -1.4813 -0.9615 -1.4772
 1764TIP3   OH2 5297   3.132   0.071   2.591 -0.0681 -0.0111 -0.3615
 1764TIP3    H1 5298   3.224   0.058   2.613 -0.4324 -1.1664  0.5971
 1764TIP3    H2 5299   3.090   0.089   2.676 -0.8710 -0.4072 -0.6673
 1765TIP3   OH2 5300   5.021   5.484   0.644 -0.3132  0.4473  0.7574
 1765TIP3    H1 5301   5.034   5.430   0.722 -1.3277 -0.6724  0.1985
 1765TIP3    H2 5302   4.967   5.557   0.674  0.5745  0.8482  1.4059
 1766TIP3   OH2 5303   3.753   2.896   3.124 -0.0850  0.0437 -0.0695
 1766TIP3    H1 5304   3.800   2.832   3.070 -0.3977 -0.2870  0.0457
 1766TIP3    H2 5305   3.809   2.908   3.200  0.3962  0.5710 -0.4959
 1767TIP3   OH2 5306   2.285   1.187   4.821 -0.0975  0.8877 -0.0078
 1767TIP3    H1 5307   2.201   1.198   4.776 -0.3471 -1.0857 -0.1436
 1767TIP3    H2 5308   2.349   1.227   4.762 -0.6972  0.4093 -1.0121
 1768TIP3   OH2 5309   4.125   2.065   4.806 -0.2224  0.4168 -0.4341
 1768TIP3    H1 5310   4.185   1.993   4.822  1.3831  1.9197  0.6829
 1768TIP3    H2 5311   4.107   2.061   4.712  1.7279 -0.0302 -0.8276
 1769TIP3   OH2 5312   5.752   4.679   5.042 -0.1226  0.1744 -0.1107
 1769TIP3    H1 5313   5.807   4.615   4.996 -1.4324  1.0025 -3.0985
 1769TIP3    H2 5314   5.794   4.763   5.025 -0.1547  0.4305  1.0260
 1770TIP3   OH2 5315   1.092   3.621   1.364  0.1534  0.3404  0.0031
 1770TIP3    H1 5316   1.025   3.685   1.340  0.1736  1.3700  2.4450
 1770TIP3    H2 5317   1.168   3.674   1.389  1.4710 -0.7805 -1.4483
 1771TIP3   OH2 5318   2.152   2.028   3.146  0.0984  0.4715 -0.0113
 1771TIP3    H1 5319   2.072   1.983   3.172  0.5662 -1.7113 -1.9862
 1771TIP3    H2 5320   2.203   2.035   3.227 -1.4249  0.5356  0.9879
 1772TIP3   OH2 5321   4.768   0.640   1.231 -0.1403  0.4021 -0.5654
 1772TIP3    H1 5322   4.777   0.670   1.141  2.4411  1.4190 -0.0388
 1772TIP3    H2 5323   4.730   0.714   1.278 -0.5417  0.2219 -0.5944
 1773TIP3   OH2 5324   2.228   4.861   1.710  0.3387  0.0896  0.4373
 1773TIP3    H1 5325   2.199   4.857   1.801 -0.8611 -2.5263  0.0544
 1773TIP3    H2 5326   2.147   4.872   1.659  0.7473 -0.4536 -0.3651
 1774TIP3   OH2 5327   0.059   3.801   3.362 -0.0075 -0.3374  0.7186
 1774TIP3    H1 5328   0.094   3.801   3.273 -1.2909 -0.3103  0.1893
 1774TIP3    H2 5329   0.084   3.886   3.397 -0.1436 -0.0345  0.0994
 1775TIP3   OH2 5330   3.810   4.530   2.543 -0.0058  0.6571 -0.7075
 1775TIP3    H1 5331   3.794   4.435   2.546  1.6586  0.3511 -0.0390
 1775TIP3    H2 5332   3.834   4.552   2.633 -1.1318  1.8772 -0.6919
 1776TIP3   OH2 5333   3.490   4.492   3.615  0.1020 -0.0309 -0.3214
 1776TIP3    H1 5334   3.517   4.536   3.696  0.7019  0.4699 -0.7815
 1776TIP3    H2 5335   3.468   4.564   3.555 -1.4924 -0.4178 -0.2257
 1777TIP3   OH2 5336   0.232   5.136   0.378  0.2022  0.3180 -0.3201
 1777TIP3    H1 5337   0.310   5.098   0.419 -0.4540 -0.2754  0.3995
 1777TIP3    H2 5338   0.169   5.144   0.450 -1.8173 -2.8539 -1.5540
 1778TIP3   OH2 5339   4.055   1.112   0.135 -0.2728  0.5065 -0.3576
 1778TIP3    H1 5340   3.979   1.141   0.086 -1.9279  0.1008  1.8183
 1778TIP3    H2 5341   4.069   1.021   0.107 -0.3945  0.6820 -0.9845
 1779TIP3   OH2 5342   6.289   0.285   1.630  0.8606 -0.2376  0.4238
 1779TIP3    H1 5343   6.258   0.236   1.705  1.2847  0.2745  0.9489
 1779TIP3    H2 5344   6.378   0.252   1.615  1.1629  0.3791  0.8049
 1780TIP3   OH2 5345   3.225   2.198   1.470  0.2525 -0.3012  0.1089
 1780TIP3    H1 5346   3.211   2.253   1.393  0.2640 -2.3999 -1.4621
 1780TIP3    H2 5347   3.137   2.177   1.501  0.1786 -1.5537 -0.9122
 1781TIP3   OH2 5348   5.089   4.342   4.882 -0.3762 -0.0543  0.5650
 1781TIP3    H1 5349   5.129   4.259   4.907  0.2471 -0.4876 -1.7197
 1781TIP3    H2 5350   5.086   4.341   4.787 -0.3116  2.5563  0.4411
 1782TIP3   OH2 5351   4.401   3.725   2.612 -0.5702  0.5408 -0.0392
 1782TIP3    H1 5352   4.489   3.707   2.578  0.1283 -0.1148  1.9500
 1782TIP3    H2 5353   4.342   3.699   2.541  0.7435 -1.6645 -0.4281
 1783TIP3   OH2 5354   4.291   1.637   1.380  0.4768 -0.3214  0.2708
 1783TIP3    H1 5355   4.200   1.665   1.373  0.7223  0.1922 -1.1418
 1783TIP3    H2 5356   4.289   1.563   1.441 -0.2953  2.1902  3.6345
 1784TIP3   OH2 5357   5.395   5.938   1.786 -0.1108  0.8597  0.1701
 1784TIP3    H1 5358   5.392   5.940   1.690 -2.3196 -0.9364  0.1042
 1784TIP3    H2 5359   5.384   6.029   1.812  3.3487  1.8197 -1.1934
 1785TIP3   OH2 5360   2.685   0.049   2.240  0.4295 -0.1922  0.0323
 1785TIP3    H1 5361   2.643   0.039   2.155 -0.1023  1.0796  0.1173
 1785TIP3    H2 5362   2.652   0.132   2.274 -0.0360 -1.0734  1.8779
 1786TIP3   OH2 5363   1.421   1.709   0.256 -0.2390 -0.3075  1.0513
 1786TIP3    H1 5364   1.505   1.672   0.282 -0.3301 -0.3701  1.2611
 1786TIP3    H2 5365   1.377   1.729   0.339  0.5012  1.8846  0.9891
 1787TIP3   OH2 5366   4.760   4.412   1.680 -0.2121  0.2516 -0.1559
 1787TIP3    H1 5367   4.728   4.502   1.674  0.2581  0.4339  0.0071
 1787TIP3    H2 5368   4.720   4.377   1.759  1.3447  1.0461  1.0359
 1788TIP3   OH2 5369   0.488   4.651   0.128 -0.3977  0.1585  0.1605
 1788TIP3    H1 5370   0.434   4.579   0.097  1.0862 -0.7663 -0.3751
 1788TIP3    H2 5371   0.535   4.616   0.204  0.3954  0.5161 -0.1517
 1789TIP3   OH2 5372   5.566   3.987   0.721 -0.3692  0.1371 -0.5371
 1789TIP3    H1 5373   5.626   4.058   0.697  1.4184 -0.3037  2.2191
 1789TIP3    H2 5374   5.615   3.907   0.701 -1.6539 -0.3682 -1.8859
 1790TIP3   OH2 5375   4.440   1.605   4.709 -0.2001 -0.2703 -0.0632
 1790TIP3    H1 5376   4.528   1.597   4.672 -0.0031  1.2920 -0.0162
 1790TIP3    H2 5377   4.381   1.600   4.634 -0.0716 -1.2535 -0.1015
 1791TIP3   OH2 5378   4.781   2.940   5.008 -0.2252 -0.3795  0.7212
 1791TIP3    H1 5379   4.729   2.866   4.978  0.4064  0.7596 -3.9676
 1791TIP3    H2 5380   4.865   2.930   4.962  0.2302  2.6676  0.7043
 1792TIP3   OH2 5381   5.750   3.576   3.600  0.1653  0.2773 -0.2197
 1792TIP3    H1 5382   5.656   3.591   3.600  0.3280  1.5569  1.5449
 1792TIP3    H2 5383   5.762   3.490   3.640 -0.2107  0.4198  0.1949
 1793TIP3   OH2 5384   3.059   2.011   2.458  0.2368  0.2964 -0.0632
 1793TIP3    H1 5385   3.130   2.068   2.428  0.2874  0.6078  0.6290
 1793TIP3    H2 5386   3.065   1.934   2.401 -1.0533  1.7609 -2.3668
 1794TIP3   OH2 5387   3.127   1.626   3.119 -0.5423 -0.1830 -0.1569
 1794TIP3    H1 5388   3.189   1.687   3.079 -2.6552  1.7450 -0.7094
 1794TIP3    H2 5389   3.066   1.682   3.166 -2.4878 -1.8675 -0.5542
 1795TIP3   OH2 5390   6.107   0.002   3.381  0.1585 -0.0168 -0.1591
 1795TIP3    H1 5391   6.167   0.021   3.453  1.1906 -1.1675 -0.6610
 1795TIP3    H2 5392   6.064   0.085   3.362  0.1224  0.3778  1.5383
 1796TIP3   OH2 5393   1.988   2.547   1.969 -0.1375 -0.3353  0.0000
 1796TIP3    H1 5394   1.926   2.590   2.028 -1.1472 -1.6849 -0.0419
 1796TIP3    H2 5395   1.997   2.459   2.004  0.3421 -0.7186 -1.0514
 1797TIP3   OH2 5396   5.730   5.760   4.417  0.2404  0.1407  0.1129
 1797TIP3    H1 5397   5.691   5.835   4.372  0.0892 -0.1719 -0.2843
 1797TIP3    H2 5398   5.656   5.716   4.460 -0.0569 -1.0808 -1.5449
 1798TIP3   OH2 5399   3.253   3.151   1.108 -0.0852  0.4002  0.1467
 1798TIP3    H1 5400   3.306   3.072   1.119 -0.9428 -0.2427 -0.1921
 1798TIP3    H2 5401   3.246   3.162   1.013 -1.0827  0.0934  0.1727
 1799TIP3   OH2 5402   1.625   3.900   0.350  0.1936 -0.1086  0.4022
 1799TIP3    H1 5403   1.700   3.910   0.290  0.5935 -2.2668  0.4634
 1799TIP3    H2 5404   1.663   3.909   0.437  0.1273  0.2012  0.3990
 1800TIP3   OH2 5405   2.721   2.132   4.158  0.1172  0.3223  0.2289
 1800TIP3    H1 5406   2.674   2.215   4.143 -1.1363 -0.1694  1.2116
 1800TIP3    H2 5407   2.795   2.157   4.215  0.9226  1.0602 -1.0977
 1801TIP3   OH2 5408   3.640   5.086   3.819  0.0228 -0.8105  0.2425
 1801TIP3    H1 5409   3.546   5.066   3.809 -0.5457  1.4104  0.5987
 1801TIP3    H2 5410   3.656   5.155   3.754  1.5169 -1.4147 -0.0597
 1802TIP3   OH2 5411   3.385   0.842   1.610  0.5200 -0.1572 -0.1981
 1802TIP3    H1 5412   3.376   0.753   1.641 -0.1928  0.0736  0.2588
 1802TIP3    H2 5413   3.479   0.851   1.590  0.5162 -1.1501 -0.7257
 1803TIP3   OH2 5414   1.653   2.167   3.643 -0.2965  0.1020 -0.3188
 1803TIP3    H1 5415   1.746   2.154   3.663  0.0895  1.9440 -0.7112
 1803TIP3    H2 5416   1.611   2.177   3.728  0.0010  0.1009 -0.1697
 1804TIP3   OH2 5417   5.294   5.231   3.073 -0.3724 -0.3479  0.4769
 1804TIP3    H1 5418   5.237   5.302   3.102  2.9337  2.0969  1.6580
 1804TIP3    H2 5419   5.301   5.172   3.148  0.5516  0.7148  1.2581
 1805TIP3   OH2 5420   6.244   4.675   2.015  0.2644  0.0509 -0.0415
 1805TIP3    H1 5421   6.219   4.708   1.929  1.1128 -1.0062 -0.7208
 1805TIP3    H2 5422   6.197   4.731   2.077 -0.5742  0.6518 -1.1867
 1806TIP3   OH2 5423   2.140   4.000   3.282 -0.0034  0.2705  0.8055
 1806TIP3    H1 5424   2.196   3.964   3.351  0.2488 -0.3436  0.2775
 1806TIP3    H2 5425   2.115   4.087   3.315  2.3984  1.1632  0.4225
 1807TIP3   OH2 5426   1.301   4.037   0.315 -0.7672  0.0997 -0.4211
 1807TIP3    H1 5427   1.348   3.997   0.242 -0.9521 -1.2157  0.1628
 1807TIP3    H2 5428   1.328   3.987   0.391 -1.4749  0.7137  0.2488
 1808TIP3   OH2 5429   3.024   0.117   4.742 -0.1763  0.8174  0.1214
 1808TIP3    H1 5430   2.946   0.086   4.695 -0.1295 -1.0459  1.1851
 1808TIP3    H2 5431   2.990   0.158   4.821 -0.1293  1.4848 -0.1969
 1809TIP3   OH2 5432   0.059   3.550   3.878 -0.1208  0.4356 -0.4089
 1809TIP3    H1 5433   0.037   3.478   3.938  3.5132 -0.2348  0.3137
 1809TIP3    H2 5434   0.091   3.620   3.934  0.9574  0.7635 -1.4061
 1810TIP3   OH2 5435   3.117   4.641   0.777 -0.2658  0.1712 -0.3006
 1810TIP3    H1 5436   3.040   4.650   0.833 -0.2002 -0.1343 -0.1597
 1810TIP3    H2 5437   3.084   4.604   0.695 -0.5785  1.8778 -0.9785
 1811TIP3   OH2 5438   2.675   1.258   3.602  0.4778 -1.0298  0.2437
 1811TIP3    H1 5439   2.597   1.207   3.623 -1.1550  0.7529 -1.1373
 1811TIP3    H2 5440   2.709   1.219   3.522 -0.4013 -0.3708 -0.4629
 1812TIP3   OH2 5441   5.018   4.775   2.863  0.4375 -0.5504 -0.2771
 1812TIP3    H1 5442   4.965   4.699   2.886  1.9845 -0.8906  2.6025
 1812TIP3    H2 5443   4.973   4.849   2.904  1.2243 -0.6145  0.7648
 1813TIP3   OH2 5444   2.165   5.909   3.608 -0.0755 -0.2886 -0.8658
 1813TIP3    H1 5445   2.100   5.847   3.641 -0.2074 -0.2210 -0.9946
 1813TIP3    H2 5446   2.125   5.995   3.620  0.0887 -0.2312 -0.7285
 1814TIP3   OH2 5447   0.972   3.933   2.819  0.5720 -0.7251  0.6404
 1814TIP3    H1 5448   1.038   3.877   2.778  1.6356  1.0480 -0.1903
 1814TIP3    H2 5449   0.899   3.874   2.839  1.5508 -2.3455 -0.3810
 1815TIP3   OH2 5450   4.043   4.905   0.266  0.2272 -0.3068 -0.0313
 1815TIP3    H1 5451   3.984   4.928   0.338 -0.5854  0.7112 -0.9731
 1815TIP3    H2 5452   3.995   4.931   0.187  2.1868  1.1854 -0.8175
 1816TIP3   OH2 5453   3.947   1.186   3.285  0.2883  0.2880  0.2037
 1816TIP3    H1 5454   4.041   1.202   3.273 -0.0455  1.9117 -0.5254
 1816TIP3    H2 5455   3.919   1.148   3.202 -0.1145  2.0762 -0.5341
 1817TIP3   OH2 5456   3.264   1.533   2.521  0.2331  0.3045 -0.1757
 1817TIP3    H1 5457   3.271   1.626   2.541  1.5310 -0.1235  1.6165
 1817TIP3    H2 5458   3.252   1.491   2.606 -1.3887 -1.1178 -1.0431
 1818TIP3   OH2 5459   6.046   2.700   0.121 -0.0974 -0.0894 -0.2555
 1818TIP3    H1 5460   5.953   2.681   0.118 -0.5823  2.0861 -1.0956
 1818TIP3    H2 5461   6.084   2.628   0.172 -2.6666  0.5811  2.9746
 1819TIP3   OH2 5462   3.953   0.626   5.046  0.0242 -0.1935  0.3979
 1819TIP3    H1 5463   3.876   0.681   5.056 -0.0238 -0.2335  0.2578
 1819TIP3    H2 5464   4.027   0.686   5.053 -0.0439  0.0209 -0.5456
 1820TIP3   OH2 5465   3.460   0.648   4.812 -0.0137  0.0304 -0.3052
 1820TIP3    H1 5466   3.524   0.578   4.808 -0.4102 -0.3461 -0.1456
 1820TIP3    H2 5467   3.512   0.729   4.809  0.3428 -0.1532 -3.8400
 1821TIP3   OH2 5468   5.173   5.468   4.434  0.4113  0.2215  0.1618
 1821TIP3    H1 5469   5.089   5.499   4.469  1.3961  2.7711  0.4604
 1821TIP3    H2 5470   5.149   5.414   4.359 -1.4931  1.5669 -0.2785
 1822TIP3   OH2 5471   5.930   3.694   3.991  0.2305  0.3093  0.3708
 1822TIP3    H1 5472   6.020   3.683   3.960  0.0499 -1.6838  0.3981
 1822TIP3    H2 5473   5.885   3.737   3.920  0.8954  0.0291 -0.2354
 1823TIP3   OH2 5474   1.155   5.342   3.968 -0.4625  0.2794 -0.1457
 1823TIP3    H1 5475   1.094   5.380   3.906 -1.1490 -1.8140 -0.8336
 1823TIP3    H2 5476   1.209   5.282   3.916  0.7627  0.4958  0.8205
 1824TIP3   OH2 5477   3.019   0.748   2.307 -0.7920  0.0653  0.3306
 1824TIP3    H1 5478   3.030   0.708   2.221  0.9185  0.4011  0.3755
 1824TIP3    H2 5479   3.061   0.687   2.368 -1.5776  0.0605  0.8890
 1825TIP3   OH2 5480   3.421   4.997   2.491 -0.5794 -0.0458 -0.0940
 1825TIP3    H1 5481   3.494   5.022   2.435  1.0287  1.5394  2.4989
 1825TIP3    H2 5482   3.342   5.024   2.443  0.7983  3.5572 -0.5681
 1826TIP3   OH2 5483   4.454   2.210   4.130  0.4793  0.6766  0.0682
 1826TIP3    H1 5484   4.409   2.199   4.214  1.0490  1.9536  0.5668
 1826TIP3    H2 5485   4.464   2.121   4.097 -1.0835  0.2422  0.6308
 1827TIP3   OH2 5486   2.161   3.952   2.594  0.2667  0.5157  0.5641
 1827TIP3    H1 5487   2.104   4.000   2.533 -1.2032 -0.3997  1.1567
 1827TIP3    H2 5488   2.246   3.950   2.551 -0.3474  1.2069 -0.7479
 1828TIP3   OH2 5489   1.111   2.546   2.957 -0.3939  0.1879 -0.5765
 1828TIP3    H1 5490   1.184   2.485   2.961 -1.5514 -1.2030  1.8691
 1828TIP3    H2 5491   1.033   2.491   2.947 -1.6745  0.8453  3.5654
 1829TIP3   OH2 5492   2.608   3.709   4.970 -0.4301  0.6823 -0.2968
 1829TIP3    H1 5493   2.543   3.689   5.038  0.2925  0.6077  0.3899
 1829TIP3    H2 5494   2.557   3.738   4.895 -1.2421  0.9701  0.3560
 1830TIP3   OH2 5495   3.853   5.830   4.264  0.3567  0.1136  0.3035
 1830TIP3    H1 5496   3.846   5.788   4.178 -0.6958 -0.9380  0.8748
 1830TIP3    H2 5497   3.834   5.923   4.247  0.2713 -0.0649 -0.6168
 1831TIP3   OH2 5498   5.586   0.760   0.629  0.1907 -0.1624 -0.5623
 1831TIP3    H1 5499   5.593   0.851   0.598  0.2399  0.6291  1.5975
 1831TIP3    H2 5500   5.647   0.711   0.574 -1.0455  0.7483 -2.8947
 1832TIP3   OH2 5501   2.965   4.782   4.139 -0.0911 -0.3304  0.8541
 1832TIP3    H1 5502   2.901   4.725   4.180 -0.1749 -0.9010 -0.0585
 1832TIP3    H2 5503   2.917   4.827   4.070  0.0470  0.6331  1.3603
 1833TIP3   OH2 5504   0.115   4.796   1.495 -0.1892 -0.1030 -0.5455
 1833TIP3    H1 5505   0.162   4.728   1.544 -1.2690  0.1341  0.8724
 1833TIP3    H2 5506   0.146   4.879   1.532 -0.0633  0.1317 -1.1607
 1834TIP3   OH2 5507   2.183   5.645   1.957  0.0274  0.1977 -0.4575
 1834TIP3    H1 5508   2.143   5.703   1.892  1.2914  0.8833 -0.6671
 1834TIP3    H2 5509   2.276   5.642   1.932  0.4053 -0.0932  0.9003
 1835TIP3   OH2 5510   5.552   3.590   3.203  0.0519  0.0487  0.8335
 1835TIP3    H1 5511   5.507   3.672   3.225 -0.2434 -0.2171  1.2272
 1835TIP3    H2 5512   5.500   3.553   3.132 -0.5238 -0.3944  1.4726
 1836TIP3   OH2 5513   5.793   2.969   3.525 -0.0385 -0.4455 -0.4657
 1836TIP3    H1 5514   5.770   3.059   3.504  1.0172 -0.0868 -0.1594
 1836TIP3    H2 5515   5.780   2.921   3.443  1.3518  0.3894 -1.2147
 1837TIP3   OH2 5516   2.703   1.198   3.987 -0.3919  0.5937  0.0133
 1837TIP3    H1 5517   2.752   1.153   3.918  1.4291  0.6986  1.1508
 1837TIP3    H2 5518   2.752   1.279   4.001 -1.5251  1.2064  0.4969
 1838TIP3   OH2 5519   5.563   5.547   4.528  0.3729  0.4364 -0.3353
 1838TIP3    H1 5520   5.493   5.599   4.568 -0.3432 -1.5801  1.1756
 1838TIP3    H2 5521   5.610   5.508   4.601  0.6256 -1.3534 -1.3783
 1839TIP3   OH2 5522   6.068   4.779   2.672 -0.2312  0.0271  0.0833
 1839TIP3    H1 5523   6.028   4.717   2.733 -1.1228 -0.7689 -1.2412
 1839TIP3    H2 5524   6.148   4.735   2.642 -1.1177 -0.7584 -1.2326
 1840TIP3   OH2 5525   4.943   4.444   0.110 -0.2429  0.0315 -0.1358
 1840TIP3    H1 5526   4.849   4.460   0.101 -0.2327 -0.5824 -1.4477
 1840TIP3    H2 5527   4.983   4.507   0.051  0.0678 -0.9894 -1.0331
 1841TIP3   OH2 5528   4.087   4.041   0.041 -0.0011 -0.0070 -0.5602
 1841TIP3    H1 5529   3.998   4.073   0.026  0.2647  0.0557 -2.2186
 1841TIP3    H2 5530   4.129   4.045  -0.045  1.6949  0.2009  0.2258
 1842TIP3   OH2 5531   1.509   3.353   4.599  0.4151 -0.0683  0.2148
 1842TIP3    H1 5532   1.566   3.346   4.676 -0.8023 -0.2035  1.1261
 1842TIP3    H2 5533   1.428   3.392   4.632 -0.6262 -1.3380 -0.7103
 1843TIP3   OH2 5534   4.379   2.187   2.326 -0.2067 -0.0934 -0.5629
 1843TIP3    H1 5535   4.350   2.172   2.416 -1.8031 -1.1496 -1.2108
 1843TIP3    H2 5536   4.321   2.254   2.292  0.5543  0.4881 -0.7514
 1844TIP3   OH2 5537   4.529   1.089   3.266 -0.4087  0.1938  0.0007
 1844TIP3    H1 5538   4.599   1.149   3.239 -0.1812  0.7040  1.5822
 1844TIP3    H2 5539   4.552   1.005   3.225 -0.4089  1.0081 -1.7502
 1845TIP3   OH2 5540   2.951   0.518   3.397 -0.2541  0.2083  0.2624
 1845TIP3    H1 5541   2.923   0.467   3.473  1.4276  0.0316  0.8246
 1845TIP3    H2 5542   3.035   0.479   3.373 -0.1705  1.0743 -0.9133
 1846TIP3   OH2 5543   5.113   4.236   1.463 -0.2608 -0.7296  0.2312
 1846TIP3    H1 5544   5.116   4.322   1.423  0.6313 -0.5847  0.6040
 1846TIP3    H2 5545   5.047   4.188   1.411 -0.5539  0.0698 -0.1502
 1847TIP3   OH2 5546   5.105   2.663   4.777  0.2237 -0.2075 -0.0847
 1847TIP3    H1 5547   5.193   2.701   4.782 -0.1503  1.0098 -1.7361
 1847TIP3    H2 5548   5.119   2.575   4.744  0.8797 -0.2854  0.3816
 1848TIP3   OH2 5549   0.254   3.444   0.556 -0.6239 -0.2819 -0.0894
 1848TIP3    H1 5550   0.177   3.480   0.599 -0.5022 -0.5456  0.3484
 1848TIP3    H2 5551   0.266   3.358   0.595 -0.4196 -0.4620 -0.5380
 1849TIP3   OH2 5552   2.704   1.477   0.707 -0.5323 -0.8153 -0.6924
 1849TIP3    H1 5553   2.782   1.510   0.663 -0.6769 -1.5909 -1.5601
 1849TIP3    H2 5554   2.635   1.483   0.641 -0.8685 -1.5121 -0.4146
 1850TIP3   OH2 5555   5.627   3.856   2.882  0.3568  0.0972  0.0493
 1850TIP3    H1 5556   5.538   3.838   2.911  0.0708 -0.1755 -0.9740
 1850TIP3    H2 5557   5.679   3.857   2.963 -0.7349  1.3134  0.7640
 1851TIP3   OH2 5558   3.454   2.805   3.833 -0.0487  0.4553  0.2891
 1851TIP3    H1 5559   3.478   2.890   3.872  2.8065 -1.0591  2.2195
 1851TIP3    H2 5560   3.398   2.763   3.899 -0.7853  0.4706 -0.3059
 1852TIP3   OH2 5561   1.793   2.573   3.246 -0.4094 -0.3102  0.2426
 1852TIP3    H1 5562   1.748   2.656   3.232 -0.2532 -0.5624 -2.1311
 1852TIP3    H2 5563   1.728   2.518   3.292 -0.9203  0.7096  0.7722
 1853TIP3   OH2 5564   2.739   2.463   1.212 -0.4766 -0.1063  0.0787
 1853TIP3    H1 5565   2.716   2.509   1.292 -2.3615  0.0502 -0.5064
 1853TIP3    H2 5566   2.673   2.491   1.148  0.2903 -1.1093 -1.1994
 1854TIP3   OH2 5567   4.281   5.103   3.313 -0.0350  0.4336 -0.2246
 1854TIP3    H1 5568   4.355   5.118   3.255  0.7195  0.2880  0.6746
 1854TIP3    H2 5569   4.204   5.122   3.259  0.4142 -2.9187 -2.3708
 1855TIP3   OH2 5570   3.047   4.525   3.722  0.4394 -0.3677  0.1423
 1855TIP3    H1 5571   3.063   4.435   3.693 -1.8070 -0.2661 -1.7150
 1855TIP3    H2 5572   3.034   4.574   3.641  0.2529  1.3569  1.1701
 1856TIP3   OH2 5573   0.684   2.675   2.679 -0.3096 -0.6805 -0.2347
 1856TIP3    H1 5574   0.608   2.617   2.678 -1.7649  1.0110  1.5806
 1856TIP3    H2 5575   0.759   2.618   2.659 -1.8413 -2.7562 -0.3851
 1857TIP3   OH2 5576   3.138   1.666   3.639 -0.3245 -0.0018 -0.4573
 1857TIP3    H1 5577   3.188   1.690   3.561 -1.3262  1.1026 -0.7930
 1857TIP3    H2 5578   3.052   1.706   3.626 -0.3836  0.6142  1.4066
 1858TIP3   OH2 5579   0.437   3.019   1.832  0.0594 -0.0615 -0.3303
 1858TIP3    H1 5580   0.366   2.997   1.772 -0.7944  0.4120  0.4696
 1858TIP3    H2 5581   0.507   3.051   1.776 -0.9448  0.9752 -1.0608
 1859TIP3   OH2 5582   2.507   1.988   3.049  0.9191  0.5725  0.6889
 1859TIP3    H1 5583   2.566   2.024   2.983  0.4555 -1.6921 -1.1168
 1859TIP3    H2 5584   2.420   2.001   3.012  0.3130  2.5682  2.6463
 1860TIP3   OH2 5585   3.643   5.770   3.888 -0.5099 -0.5606 -0.3015
 1860TIP3    H1 5586   3.657   5.830   3.815  2.4231 -0.7639 -0.0328
 1860TIP3    H2 5587   3.592   5.821   3.951 -1.8118  0.1109 -1.8228
 1861TIP3   OH2 5588   0.253   5.277   1.337  0.4771  0.2043 -0.1286
 1861TIP3    H1 5589   0.207   5.283   1.420 -0.8502  1.5659 -0.9127
 1861TIP3    H2 5590   0.189   5.238   1.277  1.4304 -0.8071 -0.5228
 1862TIP3   OH2 5591   4.571   0.821   2.607  0.7182  0.1337  0.1421
 1862TIP3    H1 5592   4.657   0.806   2.646  1.0054 -0.2670 -0.6279
 1862TIP3    H2 5593   4.561   0.752   2.542 -0.9475 -0.9232  1.4371
 1863TIP3   OH2 5594   0.948   4.671   0.291 -0.4618  0.0296 -0.2802
 1863TIP3    H1 5595   0.910   4.756   0.314 -1.8294 -1.0348  1.6785
 1863TIP3    H2 5596   1.015   4.657   0.358  0.3280 -0.0733 -1.0924
 1864TIP3   OH2 5597   5.131   5.725   1.216  0.2253 -0.2660  0.5950
 1864TIP3    H1 5598   5.081   5.788   1.268 -0.3320  1.2091 -1.5934
 1864TIP3    H2 5599   5.208   5.775   1.186 -0.0034 -0.7271 -0.8241
 1865TIP3   OH2 5600   4.438   0.499   4.534  0.2605 -0.2419 -0.3855
 1865TIP3    H1 5601   4.396   0.583   4.514 -2.6476 -1.8103 -1.3793
 1865TIP3    H2 5602   4.452   0.501   4.629 -3.1296  0.0424  0.2390
 1866TIP3   OH2 5603   5.562   5.363   0.771  0.0042 -0.5686  0.0278
 1866TIP3    H1 5604   5.610   5.408   0.702 -1.4050 -0.2357 -0.7905
 1866TIP3    H2 5605   5.483   5.330   0.727 -0.5984 -0.9338  1.3315
 1867TIP3   OH2 5606   1.166   2.634   4.120 -0.2134 -0.3857 -0.0030
 1867TIP3    H1 5607   1.161   2.539   4.121 -0.7211 -0.4256 -2.2116
 1867TIP3    H2 5608   1.248   2.654   4.166  1.7520 -2.1045 -2.4792
 1868TIP3   OH2 5609  -0.005   2.759   2.365 -0.2721  0.2427 -0.1383
 1868TIP3    H1 5610  -0.012   2.816   2.442 -0.7230  0.0999 -0.0750
 1868TIP3    H2 5611   0.030   2.816   2.297 -0.1735  0.4500  0.0835
 1869TIP3   OH2 5612   2.914   2.255   3.454  0.0568 -0.1252 -0.7917
 1869TIP3    H1 5613   2.867   2.172   3.457 -1.0852  0.4415 -2.0176
 1869TIP3    H2 5614   2.937   2.266   3.362 -0.8742  1.4711 -0.8603
 1870TIP3   OH2 5615   1.139   4.572   0.462  0.0391 -0.0202 -0.1427
 1870TIP3    H1 5616   1.107   4.508   0.526 -1.7065  0.4215 -0.5230
 1870TIP3    H2 5617   1.179   4.519   0.393  1.5493 -0.5209  1.0552
 1871TIP3   OH2 5618   5.743   4.017   3.414 -0.1053  0.1593  0.1016
 1871TIP3    H1 5619   5.777   3.973   3.492 -0.0241  0.4889  0.2549
 1871TIP3    H2 5620   5.692   4.091   3.448 -0.2245  0.1950 -0.1515
 1872TIP3   OH2 5621   4.068   0.072   1.218  0.0559  0.1637 -0.1416
 1872TIP3    H1 5622   4.014   0.131   1.270  1.7641  0.9271  0.8392
 1872TIP3    H2 5623   4.011  -0.003   1.200 -1.9579  1.7741 -0.8640
 1873TIP3   OH2 5624   5.345   3.195   4.441 -0.2821 -0.1993  1.0073
 1873TIP3    H1 5625   5.390   3.266   4.488 -0.4494  0.1692  0.6242
 1873TIP3    H2 5626   5.398   3.117   4.458 -0.2572 -0.0455  1.6842
 1874TIP3   OH2 5627   1.591   1.944   0.575  0.0596 -0.2950 -0.1907
 1874TIP3    H1 5628   1.645   2.018   0.604  0.1461 -1.0624  1.7957
 1874TIP3    H2 5629   1.654   1.875   0.554  0.0396  0.4647 -3.1490
 1875TIP3   OH2 5630   0.218   2.450   1.050  0.1748 -0.2339 -0.4158
 1875TIP3    H1 5631   0.192   2.462   0.959  0.6570 -3.4530 -1.0989
 1875TIP3    H2 5632   0.313   2.437   1.047  0.2672  0.1038  0.6251
 1876TIP3   OH2 5633   4.354   1.005   1.184 -0.2250  0.0479  0.3450
 1876TIP3    H1 5634   4.338   1.062   1.258 -1.9654  0.5573 -0.3668
 1876TIP3    H2 5635   4.295   0.931   1.197  1.9224 -1.6351  1.2087
 1877TIP3   OH2 5636   5.597   3.371   5.016  0.1694 -0.3309  0.0612
 1877TIP3    H1 5637   5.597   3.305   5.086 -1.5047 -0.2224  0.2194
 1877TIP3    H2 5638   5.687   3.401   5.010  0.3255 -0.2030  2.3269
 1878TIP3   OH2 5639   2.128   5.098   2.906  0.1082  0.4900  0.1232
 1878TIP3    H1 5640   2.076   5.058   2.976 -0.9748 -1.1382 -1.5326
 1878TIP3    H2 5641   2.217   5.068   2.922 -0.5556 -2.1933 -0.6734
 1879TIP3   OH2 5642   3.070   3.019   2.325  0.2178  0.2577 -0.5651
 1879TIP3    H1 5643   3.001   2.958   2.351  0.9023 -0.6926 -0.9599
 1879TIP3    H2 5644   3.053   3.035   2.232  2.0478 -2.0933 -1.4113
 1880TIP3   OH2 5645   0.791   5.923   4.108 -0.4057 -0.1289 -0.2537
 1880TIP3    H1 5646   0.810   5.832   4.087 -1.7861 -0.5085 -0.0026
 1880TIP3    H2 5647   0.875   5.960   4.134  0.1597 -1.3594 -0.2395
 1881TIP3   OH2 5648   4.770   5.003   2.455  0.5114 -0.0864 -0.1149
 1881TIP3    H1 5649   4.703   5.036   2.514  2.0610 -0.3580  1.8731
 1881TIP3    H2 5650   4.739   4.916   2.430 -1.2494  0.8890 -1.6031
 1882TIP3   OH2 5651   5.378   1.105   0.750  0.7945  0.2276 -0.0895
 1882TIP3    H1 5652   5.331   1.062   0.822  0.4508  2.1105  0.8814
 1882TIP3    H2 5653   5.468   1.115   0.783  0.8817  0.2454 -0.3296
 1883TIP3   OH2 5654   1.781   3.162   2.589 -0.0798 -0.6517 -0.1469
 1883TIP3    H1 5655   1.750   3.098   2.654 -0.6759 -1.5604 -1.2654
 1883TIP3    H2 5656   1.701   3.206   2.559 -0.0070 -1.1890 -1.1992
 1884TIP3   OH2 5657   5.174   1.216   1.031  0.4196  0.1837 -0.3204
 1884TIP3    H1 5658   5.091   1.239   1.074 -0.6941  0.9916 -2.7476
 1884TIP3    H2 5659   5.226   1.296   1.035  0.1978  0.3512 -0.6997
 1885TIP3   OH2 5660   3.701   4.072   1.634 -0.3592 -0.2238 -0.1150
 1885TIP3    H1 5661   3.688   4.083   1.728 -1.4655  1.5420 -0.4387
 1885TIP3    H2 5662   3.711   3.977   1.622 -1.7538 -0.6336  1.6005
 1886TIP3   OH2 5663   2.247   1.655   3.765 -0.3727 -1.0352 -0.1828
 1886TIP3    H1 5664   2.206   1.741   3.757  0.2963 -0.5465  1.3385
 1886TIP3    H2 5665   2.246   1.636   3.859 -0.3085 -2.6021 -0.4662
 1887TIP3   OH2 5666   4.605   3.717   3.916  0.2053 -0.8579  0.1878
 1887TIP3    H1 5667   4.530   3.776   3.928 -0.6675 -1.3729 -2.2685
 1887TIP3    H2 5668   4.593   3.650   3.984 -0.7434 -0.1436  0.7520
 1888TIP3   OH2 5669   0.764   1.925   3.533  0.2303  0.5548  0.3057
 1888TIP3    H1 5670   0.699   1.959   3.595 -1.2888 -0.5796 -0.5873
 1888TIP3    H2 5671   0.776   1.834   3.560  1.3340  0.7018  0.3438
 1889TIP3   OH2 5672   3.487   1.454   5.021  0.0036  0.5370  0.4054
 1889TIP3    H1 5673   3.469   1.531   5.076  0.0881  1.9413 -1.4278
 1889TIP3    H2 5674   3.406   1.441   4.971  1.0862  1.6742 -1.8050
 1890TIP3   OH2 5675   4.469   3.699   3.269 -0.1039  0.5918  0.2087
 1890TIP3    H1 5676   4.539   3.764   3.270  0.4827 -0.0327 -0.1320
 1890TIP3    H2 5677   4.473   3.661   3.182 -1.2128  0.9115 -0.0054
 1891TIP3   OH2 5678   0.475   1.641   1.285  0.1676 -0.5075 -0.4650
 1891TIP3    H1 5679   0.517   1.560   1.315 -1.1958 -1.2881 -0.5867
 1891TIP3    H2 5680   0.389   1.640   1.326 -0.0897  0.6090 -0.9412
 1892TIP3   OH2 5681   2.219   0.029   1.374 -0.4872  0.1263 -0.1035
 1892TIP3    H1 5682   2.306   0.070   1.381 -0.5329 -0.1158  2.6311
 1892TIP3    H2 5683   2.233  -0.046   1.316  0.7314  1.0578 -1.0673
 1893TIP3   OH2 5684   4.125   5.782   3.600 -0.6763 -0.2703 -0.3563
 1893TIP3    H1 5685   4.064   5.727   3.648  0.6813 -2.5731 -1.1083
 1893TIP3    H2 5686   4.146   5.732   3.521  3.1571 -0.3077  0.4745
 1894TIP3   OH2 5687   5.178   4.189   2.344 -0.1472 -0.0278  0.6917
 1894TIP3    H1 5688   5.115   4.130   2.385 -0.8352 -1.0810 -1.7035
 1894TIP3    H2 5689   5.124   4.246   2.288  0.8214  0.5493  0.3214
 1895TIP3   OH2 5690   5.224   4.373   3.671  0.1124  0.3822  0.2953
 1895TIP3    H1 5691   5.133   4.397   3.652  0.1955 -0.7433 -1.9434
 1895TIP3    H2 5692   5.272   4.456   3.665 -0.7806  1.0619  1.9303
 1896TIP3   OH2 5693   4.604   5.194   2.622  0.7483 -0.8302  0.6778
 1896TIP3    H1 5694   4.557   5.114   2.645  0.8941 -0.5659  1.9773
 1896TIP3    H2 5695   4.591   5.252   2.697  0.3350  0.5169 -0.4011
 1897TIP3   OH2 5696   1.470   1.167   3.655  0.4500  0.3099 -0.1389
 1897TIP3    H1 5697   1.507   1.255   3.651  0.2695  0.4568  1.1783
 1897TIP3    H2 5698   1.425   1.163   3.739 -1.5182 -0.2646 -1.1503
 1898TIP3   OH2 5699   0.404   1.916   2.196  0.0404  0.1196 -0.6247
 1898TIP3    H1 5700   0.337   1.850   2.177 -0.1115  0.1900 -0.3390
 1898TIP3    H2 5701   0.355   1.996   2.212  0.3189  0.9827 -3.5258
 1899TIP3   OH2 5702   2.684   3.619   1.556  0.6202 -0.4491 -0.4515
 1899TIP3    H1 5703   2.659   3.550   1.495  0.4486 -1.3650  0.6274
 1899TIP3    H2 5704   2.601   3.660   1.582  0.8148  1.2353 -2.2557
 1900TIP3   OH2 5705   3.142   0.970   1.573  0.6789 -0.3472  0.2069
 1900TIP3    H1 5706   3.195   0.896   1.599 -1.5666 -1.5322  1.7720
 1900TIP3    H2 5707   3.167   1.040   1.633 -2.5072 -2.2484  4.2513
 1901TIP3   OH2 5708   3.265   0.508   4.489 -0.2118 -0.0980  0.2777
 1901TIP3    H1 5709   3.224   0.422   4.492 -0.8236  0.1913  0.4479
 1901TIP3    H2 5710   3.228   0.555   4.563  0.1596  0.2948  0.2205
 1902TIP3   OH2 5711   1.256   0.603   2.486 -0.3393 -0.3747  0.3420
 1902TIP3    H1 5712   1.252   0.584   2.579 -1.4287 -1.2712  0.1262
 1902TIP3    H2 5713   1.350   0.606   2.467 -0.1012  0.0565  1.4990
 1903TIP3   OH2 5714   6.311   4.883   2.436  0.1793  0.0532  0.0211
 1903TIP3    H1 5715   6.376   4.946   2.465 -0.9987  1.3779 -0.0991
 1903TIP3    H2 5716   6.336   4.801   2.479  2.1525  0.4066 -0.3861
 1904TIP3   OH2 5717   2.587   3.929   3.399 -0.1667  0.4154  0.6110
 1904TIP3    H1 5718   2.669   3.884   3.417  0.3556  1.0177 -0.1858
 1904TIP3    H2 5719   2.592   3.952   3.306 -1.4217  0.0959  0.4537
 1905TIP3   OH2 5720   2.533   5.532   3.193 -0.4357  0.3378 -0.3540
 1905TIP3    H1 5721   2.441   5.550   3.176 -0.4560  0.7886  0.2190
 1905TIP3    H2 5722   2.574   5.619   3.196  0.1322  0.1176 -1.2724
 1906TIP3   OH2 5723   0.639   3.418   1.877 -0.2719 -0.2846 -0.2254
 1906TIP3    H1 5724   0.603   3.439   1.791 -0.8708  1.8149  0.4782
 1906TIP3    H2 5725   0.679   3.332   1.866 -3.2831 -1.6587 -1.7269
 1907TIP3   OH2 5726   0.789   3.582   0.043  0.4326  0.2526  0.4665
 1907TIP3    H1 5727   0.878   3.615   0.032  0.7607 -0.7149  0.1010
 1907TIP3    H2 5728   0.784   3.556   0.135  0.6680 -0.0690  0.3906
 1908TIP3   OH2 5729   2.031   3.256   1.783  0.1819 -0.6171 -0.4433
 1908TIP3    H1 5730   1.944   3.266   1.744  0.2796  1.3995 -0.2403
 1908TIP3    H2 5731   2.055   3.165   1.764 -1.4610 -0.8750 -1.5278
 1909TIP3   OH2 5732   5.866   4.189   0.930  0.1459  0.1725 -0.2960
 1909TIP3    H1 5733   5.840   4.122   0.993  2.8330  0.8441  1.7035
 1909TIP3    H2 5734   5.948   4.157   0.892 -1.0587  0.0847 -3.1253
 1910TIP3   OH2 5735   4.259   2.698   0.574  0.2701  0.2423  0.1875
 1910TIP3    H1 5736   4.242   2.770   0.634 -1.0244  0.1066  0.0190
 1910TIP3    H2 5737   4.275   2.740   0.490  1.3302  0.4002  0.4613
 1911TIP3   OH2 5738   0.038   0.740   3.625 -0.4126  0.2547 -0.1764
 1911TIP3    H1 5739   0.104   0.725   3.692 -2.7947  0.1225  2.3343
 1911TIP3    H2 5740   0.005   0.828   3.644 -1.4293  0.0418 -0.8867
 1912TIP3   OH2 5741   4.015   4.416   5.048  0.7198  0.7690  0.0734
 1912TIP3    H1 5742   3.919   4.413   5.046  0.6714 -0.1664  1.7262
 1912TIP3    H2 5743   4.040   4.462   4.968 -1.1821  2.7645  0.5521
 1913TIP3   OH2 5744   0.832   1.399   1.667  0.0925 -0.5724  0.0241
 1913TIP3    H1 5745   0.791   1.314   1.647  0.1499 -0.6549  0.2525
 1913TIP3    H2 5746   0.785   1.461   1.612 -0.6267 -0.6012  0.5788
 1914TIP3   OH2 5747   3.888   1.303   4.300  0.0905  0.0724  0.4601
 1914TIP3    H1 5748   3.821   1.239   4.278  0.1790 -0.1815  0.9104
 1914TIP3    H2 5749   3.839   1.381   4.328 -0.0211  0.4183 -0.6537
 1915TIP3   OH2 5750   1.989   3.564   2.228 -0.6601  0.0344  0.3894
 1915TIP3    H1 5751   1.994   3.508   2.150  0.7980  0.3447  0.2452
 1915TIP3    H2 5752   1.965   3.503   2.299  2.1012 -1.1170  0.4842
 1916TIP3   OH2 5753   5.967   1.838   4.097  0.2478 -0.1658  0.3309
 1916TIP3    H1 5754   5.935   1.858   4.185  2.3103  1.5218  0.7724
 1916TIP3    H2 5755   5.964   1.742   4.091 -2.7073 -0.2202  1.0662
 1917TIP3   OH2 5756   2.280   4.160   4.100 -0.0566 -0.3893 -0.8724
 1917TIP3    H1 5757   2.240   4.073   4.103  0.4886 -0.6186 -0.0853
 1917TIP3    H2 5758   2.248   4.198   4.018 -2.2338 -0.4035 -0.1102
 1918TIP3   OH2 5759   4.242   2.893   0.388  0.0165  0.4919  0.3856
 1918TIP3    H1 5760   4.307   2.913   0.320  0.1221  1.3752  0.7313
 1918TIP3    H2 5761   4.196   2.976   0.401 -0.2527  0.2257  1.1340
 1919TIP3   OH2 5762   5.041   1.590   4.926  0.1379  0.2618  0.4604
 1919TIP3    H1 5763   5.068   1.682   4.928 -0.0440  0.3133  0.5630
 1919TIP3    H2 5764   5.104   1.546   4.984  0.4687  0.2523  0.1003
 1920TIP3   OH2 5765   1.928   1.884   0.027 -0.5297  0.1906 -0.1071
 1920TIP3    H1 5766   1.969   1.832   0.096  0.6320  0.5855 -0.4723
 1920TIP3    H2 5767   1.856   1.929   0.071  0.5843  0.9301  1.0186
 1921TIP3   OH2 5768   4.610   0.130   1.550 -0.1048  0.9957  0.5627
 1921TIP3    H1 5769   4.527   0.152   1.508  1.1277  2.5178 -1.2893
 1921TIP3    H2 5770   4.654   0.072   1.488 -1.1356 -2.9184  3.1142
 1922TIP3   OH2 5771   2.414   0.917   0.376 -0.1082  0.5040 -0.1422
 1922TIP3    H1 5772   2.353   0.952   0.311 -0.5732 -0.4198 -0.2196
 1922TIP3    H2 5773   2.455   0.842   0.333 -0.6379 -0.3074  0.7136
 1923TIP3   OH2 5774   6.051   0.160   3.672  0.4178 -0.9725  0.8812
 1923TIP3    H1 5775   6.137   0.160   3.628  0.5553 -1.3307  1.1445
 1923TIP3    H2 5776   6.043   0.248   3.708  0.2907 -0.6649  0.1090
 1924TIP3   OH2 5777   1.509   0.579   2.407 -0.0536 -0.3654  0.6310
 1924TIP3    H1 5778   1.552   0.535   2.480  0.7756 -1.2905 -0.3792
 1924TIP3    H2 5779   1.580   0.605   2.349 -0.7613 -0.9806 -0.5619
 1925TIP3   OH2 5780   1.995   4.077   1.506  0.4858  0.7725 -0.6190
 1925TIP3    H1 5781   1.976   4.002   1.450 -0.8664 -0.2823  1.1581
 1925TIP3    H2 5782   1.914   4.128   1.508 -0.5449 -0.7298  2.5135
 1926TIP3   OH2 5783   0.170   1.142   0.410  0.0761 -0.1658  0.1248
 1926TIP3    H1 5784   0.111   1.207   0.448  0.3638 -0.3168  0.8454
 1926TIP3    H2 5785   0.147   1.140   0.318 -1.6916 -0.9017  0.5494
 1927TIP3   OH2 5786   1.099   3.366   3.773 -0.5010  0.4587 -0.0489
 1927TIP3    H1 5787   1.142   3.292   3.729 -1.1749 -0.5015  0.8493
 1927TIP3    H2 5788   1.005   3.349   3.760 -0.6843  0.6339  0.9852
 1928TIP3   OH2 5789   0.158   0.870   5.080  0.4847 -0.0660 -0.2469
 1928TIP3    H1 5790   0.129   0.961   5.090 -2.5407 -0.3697 -3.8702
 1928TIP3    H2 5791   0.234   0.876   5.022  1.6989  0.2032  1.3226
 1929TIP3   OH2 5792   3.891   2.909   1.023 -0.1920  0.1525 -0.1806
 1929TIP3    H1 5793   3.876   2.993   0.979  1.8048  1.2023  0.9947
 1929TIP3    H2 5794   3.984   2.909   1.043 -0.3217 -1.9726  0.6638
 1930TIP3   OH2 5795   2.675   5.395   2.300 -0.3629 -0.6750  0.3980
 1930TIP3    H1 5796   2.679   5.308   2.341  0.0841 -0.5483  0.6335
 1930TIP3    H2 5797   2.760   5.435   2.322 -1.1632  0.4293  1.6264
 1931TIP3   OH2 5798   0.830   0.651   1.428  0.9871  0.5892  0.0415
 1931TIP3    H1 5799   0.743   0.675   1.458  0.6180 -0.6671  0.0564
 1931TIP3    H2 5800   0.876   0.623   1.508  0.9700  0.0456 -0.1290
 1932TIP3   OH2 5801   4.923   5.115   1.785  0.2763  0.6257 -0.2888
 1932TIP3    H1 5802   4.894   5.041   1.732 -0.4727  0.8761 -0.2410
 1932TIP3    H2 5803   4.934   5.079   1.873  1.2827  0.2649 -0.5460
 1933TIP3   OH2 5804   4.996   3.593   4.793 -0.0470  0.1127 -0.2023
 1933TIP3    H1 5805   5.047   3.660   4.748 -2.0326  1.2612 -0.8771
 1933TIP3    H2 5806   5.037   3.510   4.768  1.3173  0.9638 -0.8797
 1934TIP3   OH2 5807   6.301   2.189   0.613 -0.7813  0.3708 -0.8262
 1934TIP3    H1 5808   6.312   2.273   0.569  1.9290  0.1142 -0.8255
 1934TIP3    H2 5809   6.303   2.124   0.542 -2.3887  0.2400 -0.7857
 1935TIP3   OH2 5810   2.743   5.215   1.079  0.3674 -0.0774 -0.0931
 1935TIP3    H1 5811   2.730   5.282   1.146  1.7446 -0.4019  0.5297
 1935TIP3    H2 5812   2.826   5.239   1.038 -0.3232 -0.0247 -1.5447
 1936TIP3   OH2 5813   5.763   4.268   5.170 -0.3633 -0.0772  0.0302
 1936TIP3    H1 5814   5.670   4.250   5.158 -1.2601  3.1563  0.9825
 1936TIP3    H2 5815   5.765   4.348   5.222  2.9888 -0.2333  0.3586
 1937TIP3   OH2 5816   2.312   2.765   2.805 -0.3384 -0.4166 -0.4413
 1937TIP3    H1 5817   2.344   2.817   2.731  1.5280 -1.2822 -0.3144
 1937TIP3    H2 5818   2.231   2.807   2.831  0.5234  1.7601 -1.0322
 1938TIP3   OH2 5819   2.913   2.300   4.859  0.1800 -0.0073  0.2039
 1938TIP3    H1 5820   2.924   2.316   4.766 -0.2589 -0.9227 -0.0203
 1938TIP3    H2 5821   2.833   2.348   4.882  0.1528  0.0151  0.0604
 1939TIP3   OH2 5822   3.524   5.755   4.729  0.0730  0.4307 -0.1320
 1939TIP3    H1 5823   3.455   5.821   4.736 -0.8386 -0.4240 -0.7823
 1939TIP3    H2 5824   3.508   5.713   4.645  0.8742 -0.3757  0.1062
 1940TIP3   OH2 5825   1.468   4.539   2.633 -0.1046  0.5115  0.5621
 1940TIP3    H1 5826   1.414   4.463   2.612 -0.1592  0.1913  1.7914
 1940TIP3    H2 5827   1.486   4.579   2.548 -1.4485  0.0678  0.0345
 1941TIP3   OH2 5828   2.039   3.872   4.359  0.2197  0.6139  0.3237
 1941TIP3    H1 5829   2.069   3.895   4.448 -2.9220  0.6904  1.4855
 1941TIP3    H2 5830   2.023   3.778   4.363  1.1051  0.4136 -0.5478
 1942TIP3   OH2 5831   1.373   1.176   3.099  0.1726 -0.3793 -0.1339
 1942TIP3    H1 5832   1.413   1.142   3.179 -0.4271  2.6660  1.6356
 1942TIP3    H2 5833   1.437   1.157   3.031  2.9140  0.8590  1.8936
 1943TIP3   OH2 5834   1.916   3.522   1.445  0.1294  0.3371  0.2474
 1943TIP3    H1 5835   1.998   3.478   1.468 -1.1816 -2.1013  0.6805
 1943TIP3    H2 5836   1.896   3.491   1.357 -0.7338  0.1797  0.4880
 1944TIP3   OH2 5837   4.359   1.465   2.495 -0.4130 -0.5954 -0.0740
 1944TIP3    H1 5838   4.336   1.473   2.402 -1.4138  0.5757  0.2492
 1944TIP3    H2 5839   4.421   1.392   2.498  1.1540  0.5513 -1.9352
 1945TIP3   OH2 5840   5.299   5.192   2.411 -0.1407 -0.1433  0.0177
 1945TIP3    H1 5841   5.278   5.283   2.433 -0.1028 -0.4864  1.5699
 1945TIP3    H2 5842   5.383   5.198   2.365  0.0965  0.5766  0.5153
 1946TIP3   OH2 5843   0.616   0.710   2.033  0.1352 -1.0846 -0.2282
 1946TIP3    H1 5844   0.710   0.705   2.019  0.4245  0.9984  0.6008
 1946TIP3    H2 5845   0.602   0.666   2.117  1.0305  1.8570  1.6397
 1947TIP3   OH2 5846   0.331   5.433   0.436  0.2127  0.1818  0.3352
 1947TIP3    H1 5847   0.328   5.377   0.358  0.6447  0.1913  0.3100
 1947TIP3    H2 5848   0.424   5.442   0.455  0.0902 -0.9087  1.6472
 1948TIP3   OH2 5849   0.724   0.040   0.726  0.0027 -0.3823  0.1870
 1948TIP3    H1 5850   0.664   0.097   0.677 -0.0080 -0.1722  0.4428
 1948TIP3    H2 5851   0.692   0.044   0.816 -0.1425 -0.9843  0.1674
 1949TIP3   OH2 5852   2.212   2.304   1.349 -0.0516 -0.2967  0.0215
 1949TIP3    H1 5853   2.123   2.335   1.332 -0.1275  0.1561  1.1223
 1949TIP3    H2 5854   2.233   2.247   1.276 -1.0863 -0.0598 -0.4715
 1950TIP3   OH2 5855   0.223   0.507   4.208 -0.0325  0.3151 -0.4784
 1950TIP3    H1 5856   0.231   0.412   4.222 -3.0988 -0.1516 -1.1953
 1950TIP3    H2 5857   0.150   0.533   4.264 -0.2400  1.9655 -1.4645
 1951TIP3   OH2 5858   5.099   5.835   4.422 -0.1090 -0.0066  0.1630
 1951TIP3    H1 5859   5.065   5.778   4.352  1.0308 -1.1508  0.4831
 1951TIP3    H2 5860   5.194   5.823   4.417  0.1872  2.0862  0.1065
 1952TIP3   OH2 5861   4.197   2.071   3.298 -0.3660 -0.3049 -0.0463
 1952TIP3    H1 5862   4.122   2.066   3.358 -1.0460  1.5343 -0.6741
 1952TIP3    H2 5863   4.242   2.151   3.322 -0.8800  0.7136 -2.1759
 1953TIP3   OH2 5864   0.635   4.913   1.075  0.1673  0.1913 -0.6022
 1953TIP3    H1 5865   0.667   4.847   1.014  0.1740  0.4549 -0.8850
 1953TIP3    H2 5866   0.552   4.879   1.107  0.3071 -0.0864 -0.5331
 1954TIP3   OH2 5867   4.797   2.607   0.222  0.1022  0.2615  0.2806
 1954TIP3    H1 5868   4.843   2.689   0.204 -0.6259  1.2005  2.4301
 1954TIP3    H2 5869   4.711   2.634   0.254 -0.7189 -1.3956 -0.4341
 1955TIP3   OH2 5870   0.928   0.464   2.844 -0.2552  0.3572 -0.4349
 1955TIP3    H1 5871   0.912   0.371   2.831 -1.1014  0.3513  0.5358
 1955TIP3    H2 5872   0.907   0.505   2.760 -0.3966 -0.2625 -0.7014
 1956TIP3   OH2 5873   1.775   3.316   1.672  0.4166 -0.0970  0.0674
 1956TIP3    H1 5874   1.707   3.299   1.737  0.4267  1.0193  0.3814
 1956TIP3    H2 5875   1.753   3.402   1.636  0.8298 -0.3723 -0.8820
 1957TIP3   OH2 5876   6.117   5.709   4.197 -0.3396 -0.1559 -0.0915
 1957TIP3    H1 5877   6.075   5.794   4.178  0.0832  0.6183  2.1750
 1957TIP3    H2 5878   6.063   5.671   4.266 -0.8131 -2.0413 -1.4082
 1958TIP3   OH2 5879   2.624   3.994   3.670 -0.1303 -0.0929  0.3281
 1958TIP3    H1 5880   2.587   3.911   3.702 -1.1717  0.3735  0.3865
 1958TIP3    H2 5881   2.616   3.988   3.575  0.2111 -0.2464  0.3092
 1959TIP3   OH2 5882   4.303   1.037   4.918 -0.0527  0.0973 -0.1729
 1959TIP3    H1 5883   4.375   0.998   4.868 -0.5053 -0.3104 -0.5231
 1959TIP3    H2 5884   4.328   1.128   4.929  0.7064 -0.1284  0.0545
 1960TIP3   OH2 5885   2.385   5.731   4.412 -0.2350 -0.5791  0.2322
 1960TIP3    H1 5886   2.465   5.783   4.405 -0.8722  0.2735 -1.3773
 1960TIP3    H2 5887   2.316   5.788   4.375 -0.7810 -2.8792 -2.6506
 1961TIP3   OH2 5888   4.275   1.323   0.577 -0.1035  0.8632  0.3484
 1961TIP3    H1 5889   4.199   1.273   0.545 -1.0872  3.1753 -1.1746
 1961TIP3    H2 5890   4.317   1.356   0.497  3.0770 -0.9874  1.0987
 1962TIP3   OH2 5891   1.224   4.258   4.135  0.2114 -0.1633  0.0970
 1962TIP3    H1 5892   1.202   4.326   4.071 -0.0741 -0.1505  0.2043
 1962TIP3    H2 5893   1.161   4.188   4.118  0.5425 -0.4248 -0.0511
 1963TIP3   OH2 5894   5.590   5.464   1.017  0.5654  0.4391  0.3574
 1963TIP3    H1 5895   5.575   5.410   0.940 -0.9609  0.0761  0.8690
 1963TIP3    H2 5896   5.609   5.401   1.087  1.8257  0.7592  0.3324
 1964TIP3   OH2 5897   4.362   1.637   3.975  0.5008 -0.1453  0.0990
 1964TIP3    H1 5898   4.391   1.563   3.922  0.8954 -0.3779  0.6319
 1964TIP3    H2 5899   4.359   1.603   4.065  0.2624  0.3611  0.2885
 1965TIP3   OH2 5900   4.228   4.378   4.545  0.1419  0.2910  0.0222
 1965TIP3    H1 5901   4.318   4.351   4.527  0.8495  1.5328  1.4939
 1965TIP3    H2 5902   4.207   4.439   4.474  0.4060 -0.0897 -0.3909
 1966TIP3   OH2 5903   4.726   1.790   2.718 -0.0965  0.2125 -0.4336
 1966TIP3    H1 5904   4.815   1.816   2.740 -0.6299  0.4217  1.7113
 1966TIP3    H2 5905   4.722   1.697   2.740 -0.3020  0.1301 -0.8235
 1967TIP3   OH2 5906   4.979   3.840   3.078 -0.0425 -0.8219  0.0919
 1967TIP3    H1 5907   4.951   3.823   2.988  0.5174  1.1815 -0.4946
 1967TIP3    H2 5908   4.943   3.926   3.099  0.2179 -1.0571  1.6359
 1968TIP3   OH2 5909   3.499   1.195   4.745 -0.3148 -0.9115 -0.2135
 1968TIP3    H1 5910   3.452   1.132   4.691 -1.0095 -0.5635 -0.0323
 1968TIP3    H2 5911   3.435   1.222   4.811  0.1563 -0.4590  0.0663
 1969TIP3   OH2 5912   4.692   0.195   3.721 -0.2607 -0.2924  0.2297
 1969TIP3    H1 5913   4.650   0.132   3.663  0.2546 -0.7291  0.3213
 1969TIP3    H2 5914   4.679   0.159   3.809  1.7722 -1.3753  0.1619
 1970TIP3   OH2 5915   1.316   0.992   0.396  0.1240  0.0077  0.6643
 1970TIP3    H1 5916   1.347   0.921   0.340  1.9536  0.0481  1.5611
 1970TIP3    H2 5917   1.309   0.952   0.483 -1.5796  0.2333  0.6514
 1971TIP3   OH2 5918   1.372   1.531   4.195  0.0330  0.1431 -0.5013
 1971TIP3    H1 5919   1.309   1.566   4.259 -0.1124 -1.2709  0.1475
 1971TIP3    H2 5920   1.408   1.610   4.154 -1.7206  1.0236 -0.4838
 1972TIP3   OH2 5921   1.205   3.119   3.183  0.4018 -0.2299  0.5687
 1972TIP3    H1 5922   1.204   3.197   3.239  0.9880  0.0993  0.1310
 1972TIP3    H2 5923   1.298   3.095   3.178  0.2719 -0.6796  0.3139
 1973TIP3   OH2 5924   4.429   3.388   2.445 -0.0135  0.4010  0.2573
 1973TIP3    H1 5925   4.501   3.434   2.488  1.8150 -0.2753 -1.8600
 1973TIP3    H2 5926   4.426   3.426   2.356 -1.2523 -0.6683 -0.1932
 1974TIP3   OH2 5927   4.788   2.370   0.331 -0.3211 -0.4355  0.1687
 1974TIP3    H1 5928   4.736   2.341   0.256 -2.0171  1.0695  0.7008
 1974TIP3    H2 5929   4.802   2.464   0.316  1.5378 -0.6243  0.4910
 1975TIP3   OH2 5930   2.138   4.699   0.962  0.3495  0.1074  0.4933
 1975TIP3    H1 5931   2.123   4.650   0.881 -1.6774  1.3411  0.0464
 1975TIP3    H2 5932   2.175   4.636   1.023  0.7620 -1.1582 -1.0121
 1976TIP3   OH2 5933   4.363   5.223   3.565 -0.6637 -0.3974 -0.0757
 1976TIP3    H1 5934   4.392   5.302   3.608  1.7305 -1.6460  0.7474
 1976TIP3    H2 5935   4.377   5.239   3.472 -0.1941  0.1388  0.0873
 1977TIP3   OH2 5936   2.942   4.143   0.513  0.0672 -0.0857  0.1224
 1977TIP3    H1 5937   3.005   4.209   0.538  0.7117 -0.5573 -0.2150
 1977TIP3    H2 5938   2.995   4.072   0.476 -0.6821 -0.2971 -0.5928
 1978TIP3   OH2 5939   3.718   3.041   4.560 -0.5270 -0.5229 -0.6602
 1978TIP3    H1 5940   3.681   3.029   4.473  0.4468 -0.8166 -1.0482
 1978TIP3    H2 5941   3.734   3.135   4.567 -0.8776 -0.4611 -0.6814
 1979TIP3   OH2 5942   4.009   0.496   2.529  0.0892 -0.1386 -0.7445
 1979TIP3    H1 5943   3.968   0.575   2.564 -0.4330 -1.0587  0.8270
 1979TIP3    H2 5944   4.043   0.451   2.606  3.9877  0.4406 -1.9217
 1980TIP3   OH2 5945   3.311   1.677   2.848  0.5142 -0.4197 -0.0814
 1980TIP3    H1 5946   3.290   1.735   2.775  1.1606 -0.2934 -0.1739
 1980TIP3    H2 5947   3.407   1.675   2.850  0.5046 -1.5066 -0.0990
 1981TIP3   OH2 5948   0.628   2.504   3.136  0.0159 -0.5389  0.0876
 1981TIP3    H1 5949   0.539   2.509   3.172  0.1523  0.2681  0.3302
 1981TIP3    H2 5950   0.684   2.489   3.212  0.4695  2.6465  0.5252
 1982TIP3   OH2 5951   1.201   4.084   1.711  0.5551 -0.3921 -0.5281
 1982TIP3    H1 5952   1.256   4.030   1.769 -0.7904 -0.5208  0.6766
 1982TIP3    H2 5953   1.203   4.171   1.751  0.0141 -0.3674 -0.5485
 1983TIP3   OH2 5954   1.279   0.989   1.415 -0.2347  0.3003 -0.3374
 1983TIP3    H1 5955   1.358   1.017   1.370  0.9387  0.6670  1.8213
 1983TIP3    H2 5956   1.242   0.921   1.359  1.2487  0.5860 -1.7181
 1984TIP3   OH2 5957   0.197   0.496   1.109  0.5804  0.4070 -0.2424
 1984TIP3    H1 5958   0.267   0.543   1.063  0.6712  0.6926  0.1824
 1984TIP3    H2 5959   0.153   0.564   1.161  1.4129 -0.1624  1.2564
 1985TIP3   OH2 5960   2.091   5.536   5.153  0.0342  1.1503  0.1194
 1985TIP3    H1 5961   2.139   5.585   5.086 -1.8006  1.6477 -0.9144
 1985TIP3    H2 5962   2.131   5.449   5.152 -0.2801  0.9672 -2.0524
 1986TIP3   OH2 5963   2.025   4.291   3.838 -0.0386  0.3026  0.6427
 1986TIP3    H1 5964   1.968   4.292   3.915 -0.2182  1.3576  0.5166
 1986TIP3    H2 5965   1.976   4.241   3.773 -0.0221 -0.3356  1.1121
 1987TIP3   OH2 5966   2.107   5.827   3.320 -0.2408  0.0987 -0.4417
 1987TIP3    H1 5967   2.048   5.899   3.300 -1.1386 -0.4736  0.1016
 1987TIP3    H2 5968   2.150   5.854   3.401 -1.2191 -0.3580  0.2347
 1988TIP3   OH2 5969   3.699   4.249   3.003  0.0197  0.5187 -0.5047
 1988TIP3    H1 5970   3.608   4.246   2.972  0.4429 -4.0466 -2.0817
 1988TIP3    H2 5971   3.751   4.227   2.926  2.0969 -0.7775  1.1493
 1989TIP3   OH2 5972   3.618   1.400   1.292 -0.0120 -0.1485 -0.4581
 1989TIP3    H1 5973   3.579   1.471   1.242  1.4646 -0.4984 -2.2144
 1989TIP3    H2 5974   3.657   1.442   1.369 -0.0766  0.7710 -0.9244
 1990TIP3   OH2 5975   1.266   5.583   1.136  0.0515 -0.3327  0.2536
 1990TIP3    H1 5976   1.294   5.539   1.216  1.0610 -0.3057 -0.0615
 1990TIP3    H2 5977   1.193   5.531   1.103  0.3658 -0.9991  0.5919
 1991TIP3   OH2 5978   3.603   5.498   4.775 -0.1564 -0.3521 -0.3187
 1991TIP3    H1 5979   3.590   5.592   4.763 -0.8831 -0.3506  0.4352
 1991TIP3    H2 5980   3.559   5.478   4.857 -0.0542 -1.3692 -0.5034
 1992TIP3   OH2 5981   0.027   4.876   3.108  0.0641  0.3270 -0.4643
 1992TIP3    H1 5982  -0.035   4.945   3.130 -0.4364  0.1265 -1.2223
 1992TIP3    H2 5983   0.010   4.807   3.173  0.8654  1.0740  0.5689
 1993TIP3   OH2 5984   5.661   4.998   5.092  0.4557 -0.6626 -0.3282
 1993TIP3    H1 5985   5.628   4.915   5.126 -0.1132 -0.5323 -0.5447
 1993TIP3    H2 5986   5.739   4.975   5.043  1.6420 -0.7913  1.5139
 1994TIP3   OH2 5987   2.277   0.322   2.587  1.0696 -0.1602  0.5144
 1994TIP3    H1 5988   2.326   0.391   2.542 -0.4390  0.4781 -0.2246
 1994TIP3    H2 5989   2.223   0.369   2.651  1.6350 -0.8861  1.5586
 1995TIP3   OH2 5990   0.088   5.174   2.048  0.0940 -0.4354 -0.5007
 1995TIP3    H1 5991   0.047   5.107   1.993 -0.7735 -0.1534 -0.2048
 1995TIP3    H2 5992   0.019   5.237   2.066  0.9704  0.6967 -0.9894
 1996TIP3   OH2 5993   1.000   1.697   4.077 -0.2599 -0.2108 -0.3873
 1996TIP3    H1 5994   0.956   1.614   4.099 -0.2966 -0.7848 -2.4231
 1996TIP3    H2 5995   0.944   1.764   4.116 -1.7559 -1.0284 -1.0268
 1997TIP3   OH2 5996   5.638   3.223   3.466 -0.2617 -0.5078  0.0884
 1997TIP3    H1 5997   5.611   3.237   3.557  0.3191 -2.1122  0.5305
 1997TIP3    H2 5998   5.563   3.180   3.425 -0.3648 -0.1583 -0.0977
 1998TIP3   OH2 5999   0.478   5.501   4.448 -0.5446 -0.4871  0.2877
 1998TIP3    H1 6000   0.534   5.435   4.406 -0.6645 -1.0671  1.0319
 1998TIP3    H2 6001   0.407   5.451   4.487 -0.6443  0.0855  0.8520
 1999TIP3   OH2 6002   5.036   2.370   2.543  0.0488 -1.0065  0.1065
 1999TIP3    H1 6003   5.051   2.278   2.564  1.5549 -0.6478  0.7128
 1999TIP3    H2 6004   5.122   2.412   2.553 -0.7020  0.5642  0.3668
 2000TIP3   OH2 6005   3.698   3.394   4.057 -0.1637 -0.0213 -0.2236
 2000TIP3    H1 6006   3.605   3.415   4.060  0.1335  1.4592 -0.6764
 2000TIP3    H2 6007   3.710   3.329   4.126 -1.4913 -0.1266 -0.0610
 2001TIP3   OH2 6008   3.291   1.347   0.770 -0.4043  0.6660 -0.3084
 2001TIP3    H1 6009   3.282   1.266   0.721 -1.7712 -0.3570  1.4764
 2001TIP3    H2 6010   3.241   1.331   0.851  0.4374  2.7883  0.7059
 2002TIP3   OH2 6011   0.997   5.774   4.964 -0.0579  0.7735  0.0099
 2002TIP3    H1 6012   1.018   5.853   4.915  0.8704  1.0504  0.8157
 2002TIP3    H2 6013   1.081   5.732   4.979 -0.6517 -1.2184 -1.7313
 2003TIP3   OH2 6014   2.512   1.912   0.243 -0.0962  0.6089  0.2929
 2003TIP3    H1 6015   2.506   1.817   0.255  0.2510  0.7170  1.5252
 2003TIP3    H2 6016   2.429   1.945   0.279  1.3126  1.0114  3.5065
 2004TIP3   OH2 6017   4.697   3.493   0.647 -0.0725 -0.1920  0.4661
 2004TIP3    H1 6018   4.701   3.400   0.628  1.2832 -0.1093  0.2753
 2004TIP3    H2 6019   4.775   3.512   0.699  0.1803  0.9956 -0.2927
 2005TIP3   OH2 6020   5.836   1.383   0.547  0.4652 -0.7224 -0.7405
 2005TIP3    H1 6021   5.842   1.397   0.641 -1.7497 -0.7197 -0.5303
 2005TIP3    H2 6022   5.843   1.288   0.536 -0.7731 -0.8715 -0.3789
 2006TIP3   OH2 6023   3.554   2.252   1.022  0.4127  0.1294  0.0234
 2006TIP3    H1 6024   3.636   2.213   1.053 -0.1884 -0.0237  1.5219
 2006TIP3    H2 6025   3.507   2.180   0.981  0.5179 -0.0761  0.2556
 2007TIP3   OH2 6026   0.385   0.669   3.135 -0.5099 -0.1614  0.3595
 2007TIP3    H1 6027   0.441   0.667   3.213 -0.5175 -1.6732  0.3522
 2007TIP3    H2 6028   0.297   0.686   3.170 -0.1489  1.9709  0.3912
 2008TIP3   OH2 6029   3.424   1.505   3.117  0.0580  0.3259 -0.2910
 2008TIP3    H1 6030   3.518   1.486   3.114  0.2871  1.5251 -2.0707
 2008TIP3    H2 6031   3.394   1.490   3.027 -1.4990 -0.1355  0.2723
 2009TIP3   OH2 6032   2.562   4.308   2.677 -0.4560 -0.9571  0.1866
 2009TIP3    H1 6033   2.562   4.344   2.766 -0.2285 -0.5143  0.0095
 2009TIP3    H2 6034   2.470   4.285   2.661 -0.8942  0.8946 -0.2197
 2010TIP3   OH2 6035   2.951   5.928   2.730 -0.3208 -0.0017  0.7830
 2010TIP3    H1 6036   3.013   5.933   2.803  0.2044 -2.5785  0.6072
 2010TIP3    H2 6037   2.973   5.846   2.686 -2.0006  0.4559 -1.0269
 2011TIP3   OH2 6038   0.923   4.641   4.427 -0.3101 -0.1595  0.4899
 2011TIP3    H1 6039   0.974   4.560   4.423  0.0645  0.1241 -0.7684
 2011TIP3    H2 6040   0.986   4.707   4.456  0.1346  0.2355 -1.2783
 2012TIP3   OH2 6041   4.733   0.089   0.865 -0.5432  0.2785  0.0706
 2012TIP3    H1 6042   4.817   0.120   0.830 -0.9929  0.7019 -0.6471
 2012TIP3    H2 6043   4.668   0.149   0.829 -1.1535  0.0003  0.6857
 2013TIP3   OH2 6044   3.584   1.719   2.589  0.1568 -0.1796 -0.2729
 2013TIP3    H1 6045   3.560   1.741   2.679  1.1628  1.3368 -0.3278
 2013TIP3    H2 6046   3.565   1.626   2.580 -0.3491 -0.2565  1.3751
 2014TIP3   OH2 6047   2.157   1.907   1.101  0.1360 -0.3748 -0.6064
 2014TIP3    H1 6048   2.218   1.895   1.028  0.5045 -0.0777 -0.3462
 2014TIP3    H2 6049   2.113   1.990   1.082 -0.2420 -0.6219 -0.8294
 2015TIP3   OH2 6050   2.820   3.775   0.624  0.2053  0.3794 -0.6525
 2015TIP3    H1 6051   2.742   3.721   0.638  0.7779 -0.4278 -0.4876
 2015TIP3    H2 6052   2.827   3.781   0.529  1.2491 -1.5705 -0.7646
 2016TIP3   OH2 6053   2.014   4.812   0.662  0.2402  0.2409 -0.4730
 2016TIP3    H1 6054   1.944   4.779   0.606 -1.7892  2.1633  0.7587
 2016TIP3    H2 6055   2.073   4.738   0.673 -0.9094 -1.1003 -2.5788
 2017TIP3   OH2 6056   3.080   0.334   1.822 -0.9138 -0.2813  0.1472
 2017TIP3    H1 6057   3.127   0.325   1.739 -1.4330  0.7735 -0.2815
 2017TIP3    H2 6058   3.032   0.251   1.832 -0.1206 -0.7885 -0.1221
 2018TIP3   OH2 6059   4.653   1.836   3.943 -0.2854 -0.5627 -0.2838
 2018TIP3    H1 6060   4.702   1.768   3.898 -0.9201 -0.3450 -1.3454
 2018TIP3    H2 6061   4.705   1.915   3.931 -0.9198 -0.3060 -1.5179
 2019TIP3   OH2 6062   4.576   1.220   4.722  0.3711  0.4400  0.1468
 2019TIP3    H1 6063   4.499   1.179   4.762  0.9853 -0.5608  0.3378
 2019TIP3    H2 6064   4.560   1.314   4.730 -1.9113  0.3248 -1.8622
 2020TIP3   OH2 6065   3.049   5.041   1.689 -0.3580 -0.5262 -0.0242
 2020TIP3    H1 6066   3.113   4.984   1.731  0.3917 -1.2670 -2.0640
 2020TIP3    H2 6067   3.096   5.123   1.672 -0.4546 -0.4637  0.0075
 2021TIP3   OH2 6068   0.527   1.510   0.227  0.8035  0.3560 -0.2441
 2021TIP3    H1 6069   0.445   1.544   0.263  0.7846 -2.0935  2.3913
 2021TIP3    H2 6070   0.528   1.541   0.136 -2.3578  1.5668  0.0024
 2022TIP3   OH2 6071   1.613   3.001   5.077  0.1545 -0.0325 -0.0181
 2022TIP3    H1 6072   1.602   2.917   5.121 -1.8861  0.8245  1.2647
 2022TIP3    H2 6073   1.635   3.063   5.146  1.6674  0.5185 -0.9479
 2023TIP3   OH2 6074  -0.017   3.696   1.136  0.1087  0.8053 -0.2103
 2023TIP3    H1 6075   0.038   3.662   1.206 -0.2689 -0.1858 -0.3823
 2023TIP3    H2 6076   0.035   3.684   1.057 -0.4737 -0.4797 -0.4225
 2024TIP3   OH2 6077   0.416   2.832   0.414  0.4236 -0.1032  0.1597
 2024TIP3    H1 6078   0.509   2.825   0.396  0.1854 -1.0630 -0.8349
 2024TIP3    H2 6079   0.394   2.923   0.395  0.9488 -0.1437 -0.6937
 2025TIP3   OH2 6080   1.187   5.910   5.191  0.1482 -0.0580 -0.1913
 2025TIP3    H1 6081   1.116   5.971   5.168 -1.6550 -1.7393  0.6152
 2025TIP3    H2 6082   1.163   5.828   5.149 -0.3099 -1.6495  2.8505
 2026TIP3   OH2 6083   2.759   1.512   3.088 -0.4888  0.1940  0.1152
 2026TIP3    H1 6084   2.846   1.472   3.083 -1.1297 -1.2269 -0.1806
 2026TIP3    H2 6085   2.776   1.606   3.081  1.0873  0.0159  0.9230
 2027TIP3   OH2 6086   3.275   5.177   4.535 -0.5158  0.2042 -0.1070
 2027TIP3    H1 6087   3.201   5.237   4.549 -1.2569 -0.5334 -0.7559
 2027TIP3    H2 6088   3.352   5.233   4.536 -1.2308  1.2503 -1.1930
 2028TIP3   OH2 6089   3.944   1.265   0.880  0.0364  0.0031 -0.7295
 2028TIP3    H1 6090   3.858   1.261   0.922  1.0099 -0.3361  1.4144
 2028TIP3    H2 6091   3.997   1.203   0.931  2.1306  1.9093 -0.4760
 2029TIP3   OH2 6092   5.507   1.826   0.289  0.7336  0.5913  0.3489
 2029TIP3    H1 6093   5.488   1.920   0.283  2.4776  0.9220 -0.7883
 2029TIP3    H2 6094   5.581   1.813   0.229  0.5225 -1.5177  0.4873
 2030TIP3   OH2 6095   3.784   1.422   4.000  0.0897 -0.1510  0.8808
 2030TIP3    H1 6096   3.717   1.490   3.989 -1.1676 -1.2635  1.3595
 2030TIP3    H2 6097   3.737   1.349   4.041  1.5335 -1.0984  0.9067
 2031TIP3   OH2 6098   4.611   1.315   2.439  0.4009  0.0998  0.5160
 2031TIP3    H1 6099   4.663   1.361   2.505  0.3225  0.1990  0.5096
 2031TIP3    H2 6100   4.585   1.233   2.481 -1.5968  1.1356  1.4760
 2032TIP3   OH2 6101   0.309   4.529   0.382  0.2137  0.2359 -0.0904
 2032TIP3    H1 6102   0.402   4.548   0.373  0.1555  1.3665  1.2935
 2032TIP3    H2 6103   0.270   4.611   0.412 -0.8792 -0.7471  1.3551
 2033TIP3   OH2 6104   3.888   3.577   4.285  0.3849  0.1077 -0.3675
 2033TIP3    H1 6105   3.893   3.598   4.192  0.2062 -0.9464 -0.6381
 2033TIP3    H2 6106   3.970   3.532   4.304 -0.2328 -1.1210 -0.4380
 2034TIP3   OH2 6107   0.813   3.552   2.048  0.1095  0.3625  0.7527
 2034TIP3    H1 6108   0.790   3.611   2.120  0.1999  0.5949  0.5965
 2034TIP3    H2 6109   0.729   3.523   2.013  0.0678 -0.6643  1.6762
 2035TIP3   OH2 6110   6.265   1.957   0.779 -0.5021  0.4155 -0.0698
 2035TIP3    H1 6111   6.301   1.910   0.704  1.4840  1.7299 -0.0135
 2035TIP3    H2 6112   6.258   2.048   0.749 -0.0347  0.8869  1.1990
 2036TIP3   OH2 6113   2.327   0.087   3.753 -0.0557 -0.4478 -0.3549
 2036TIP3    H1 6114   2.334   0.180   3.730 -0.0671 -1.3106 -4.4826
 2036TIP3    H2 6115   2.394   0.075   3.821 -1.2283  2.8071  1.6574
 2037TIP3   OH2 6116   2.054   2.288   4.529 -1.0005 -0.1319 -0.4754
 2037TIP3    H1 6117   1.998   2.320   4.458 -1.2792 -2.1779 -1.2321
 2037TIP3    H2 6118   2.059   2.193   4.516  1.7863 -0.1681  0.2078
 2038TIP3   OH2 6119   1.723   4.241   1.391 -0.5647  0.1249  0.3765
 2038TIP3    H1 6120   1.661   4.180   1.351  0.3767 -0.0503 -0.8760
 2038TIP3    H2 6121   1.688   4.327   1.371 -0.7286  0.0255  0.2281
 2039TIP3   OH2 6122   2.838   2.924   0.543  0.3461  0.1607  0.6093
 2039TIP3    H1 6123   2.752   2.962   0.528 -0.2037 -0.6325  1.6555
 2039TIP3    H2 6124   2.900   2.991   0.512 -0.6224  0.0255 -1.8976
 2040TIP3   OH2 6125   4.164   5.858   3.184  0.5883 -0.2496 -0.0391
 2040TIP3    H1 6126   4.097   5.814   3.132  1.2869  1.5132 -2.6214
 2040TIP3    H2 6127   4.113   5.909   3.248 -0.5948  0.6147 -1.5814
 2041TIP3   OH2 6128   3.066   0.106   1.329  0.2167 -0.5939 -0.1684
 2041TIP3    H1 6129   3.065   0.011   1.317 -0.8122 -0.5670 -0.4461
 2041TIP3    H2 6130   2.976   0.133   1.309  0.2270  0.3141  0.9225
 2042TIP3   OH2 6131   3.832   2.434   1.198 -0.0286  0.2385  0.0343
 2042TIP3    H1 6132   3.926   2.453   1.197  0.3423 -1.4094 -1.3159
 2042TIP3    H2 6133   3.793   2.500   1.141  0.4112  0.5550  0.1011
 2043TIP3   OH2 6134   4.310   3.708   2.348  0.5704  0.5037 -0.7656
 2043TIP3    H1 6135   4.221   3.735   2.325  1.2055  3.1452 -0.4194
 2043TIP3    H2 6136   4.328   3.634   2.290 -1.9322 -0.2868 -0.6384
 2044TIP3   OH2 6137   4.256   0.921   3.118 -0.2844  0.2776  0.5972
 2044TIP3    H1 6138   4.351   0.929   3.108 -0.4788 -0.2622 -3.0328
 2044TIP3    H2 6139   4.223   1.010   3.108 -0.2016  0.2630  0.1321
 2045TIP3   OH2 6140   3.312   1.845   1.602  0.1845  0.0479  0.0176
 2045TIP3    H1 6141   3.338   1.768   1.552  1.4365  0.8436 -0.5945
 2045TIP3    H2 6142   3.376   1.850   1.674 -2.7848 -2.3252  3.2105
 2046TIP3   OH2 6143   3.430   3.510   1.836 -0.3075  0.4266  0.5236
 2046TIP3    H1 6144   3.436   3.538   1.927  1.5898  0.3581  0.4640
 2046TIP3    H2 6145   3.340   3.530   1.810 -0.3766  2.0477  1.8847
 2047TIP3   OH2 6146   2.168   2.497   2.393 -0.2179 -0.0332 -0.7899
 2047TIP3    H1 6147   2.089   2.543   2.420  1.1795  1.4975  1.1002
 2047TIP3    H2 6148   2.141   2.407   2.379 -1.8513 -0.2373  2.6275
 2048TIP3   OH2 6149   1.549   1.809   5.019 -0.6616  0.3470  0.0478
 2048TIP3    H1 6150   1.587   1.861   5.090  0.8937  0.5061 -0.8673
 2048TIP3    H2 6151   1.549   1.868   4.944 -0.6640 -0.3688 -0.5222
 2049TIP3   OH2 6152   5.841   2.683   3.521  0.5749 -0.8135  0.4746
 2049TIP3    H1 6153   5.812   2.772   3.546 -0.3562 -0.7467 -0.7347
 2049TIP3    H2 6154   5.854   2.688   3.426  1.1604 -1.8121  0.4918
 2050TIP3   OH2 6155   3.648   2.440   3.883 -0.5834  0.0908  0.3043
 2050TIP3    H1 6156   3.702   2.461   3.959 -1.6421  0.3639  1.0034
 2050TIP3    H2 6157   3.578   2.385   3.917 -0.6415 -0.4332 -0.6236
 2051TIP3   OH2 6158   5.587   2.766   4.637 -0.3295 -0.3659  0.2474
 2051TIP3    H1 6159   5.507   2.720   4.660 -0.8884  0.0597 -0.7605
 2051TIP3    H2 6160   5.657   2.701   4.648 -0.8121 -0.7512  1.0787
 2052TIP3   OH2 6161   1.536   3.750   4.138 -0.2559  0.2529 -0.2854
 2052TIP3    H1 6162   1.505   3.836   4.166  0.8027  0.7551 -0.5996
 2052TIP3    H2 6163   1.544   3.757   4.043  0.7514  0.1305 -0.2199
 2053TIP3   OH2 6164   1.407   3.003   2.187 -0.0914  0.0329  0.1082
 2053TIP3    H1 6165   1.354   2.954   2.250  1.6642 -0.9230  0.8906
 2053TIP3    H2 6166   1.497   2.977   2.205  0.6284  1.1810 -1.5621
 2054TIP3   OH2 6167   0.816   5.830   2.753 -0.1801 -0.0782  0.1484
 2054TIP3    H1 6168   0.815   5.837   2.658  0.1281  0.5919  0.1924
 2054TIP3    H2 6169   0.767   5.750   2.771 -1.3672  0.4615 -0.5190
 2055TIP3   OH2 6170   5.151   1.111   4.209  0.2195  0.4752  0.2325
 2055TIP3    H1 6171   5.084   1.114   4.277 -1.4133 -0.3116 -1.2623
 2055TIP3    H2 6172   5.178   1.019   4.206  0.8042  0.6424  0.2918
 2056TIP3   OH2 6173   1.122   1.061   2.870 -0.0841 -0.3697 -0.0940
 2056TIP3    H1 6174   1.035   1.094   2.846 -0.7182 -1.9200 -0.0327
 2056TIP3    H2 6175   1.131   1.083   2.962 -1.0821 -1.5055  0.3082
 2057TIP3   OH2 6176   5.874   3.003   0.830 -0.1774  0.6150 -0.1947
 2057TIP3    H1 6177   5.900   2.983   0.920  0.3066  1.3106 -0.1762
 2057TIP3    H2 6178   5.780   2.987   0.828  0.2009 -2.0278 -0.2702
 2058TIP3   OH2 6179   0.799   3.090   0.931 -0.7322 -0.0733  0.1873
 2058TIP3    H1 6180   0.870   3.109   0.869 -1.7330  0.5939 -0.7930
 2058TIP3    H2 6181   0.814   3.150   1.004  0.0793 -0.3923  0.2891
 2059TIP3   OH2 6182   6.337   2.623   3.326 -0.3390 -0.3643  0.0072
 2059TIP3    H1 6183   6.397   2.696   3.309 -1.0434 -0.3482 -2.8217
 2059TIP3    H2 6184   6.293   2.648   3.407  1.2800  1.0716  0.5291
 2060TIP3   OH2 6185   0.431   2.597   0.582  0.0095 -0.3346  0.8814
 2060TIP3    H1 6186   0.399   2.672   0.532 -1.0116  0.9040  3.2186
 2060TIP3    H2 6187   0.432   2.627   0.673  2.1362 -2.3249  1.6256
 2061TIP3   OH2 6188   4.121   4.173   3.240  0.5146 -0.5600 -0.2726
 2061TIP3    H1 6189   4.101   4.133   3.324  1.9311 -1.4673 -0.3369
 2061TIP3    H2 6190   4.203   4.132   3.213  0.4150  0.1840 -1.7955
 2062TIP3   OH2 6191   1.720   2.406   1.752  0.1256  0.1093 -0.1830
 2062TIP3    H1 6192   1.639   2.359   1.732  1.7149 -1.3688 -3.9645
 2062TIP3    H2 6193   1.712   2.489   1.707  0.5630  0.1289 -0.2278
 2063TIP3   OH2 6194   0.339   3.609   2.233 -0.1131  0.4058  0.2068
 2063TIP3    H1 6195   0.287   3.619   2.312 -0.0800  1.9911  0.0487
 2063TIP3    H2 6196   0.301   3.671   2.171  0.2006 -0.4270 -0.8489
 2064TIP3   OH2 6197   0.546   0.463   0.047 -0.1684  0.6679  0.2430
 2064TIP3    H1 6198   0.562   0.408  -0.029  0.7920  0.2628  0.7155
 2064TIP3    H2 6199   0.580   0.549   0.023 -3.8230  1.8511 -1.4163
 2065TIP3   OH2 6200   4.752   4.982   0.852 -0.3730 -0.1324 -0.2355
 2065TIP3    H1 6201   4.681   5.038   0.884  0.0882 -0.2355  1.0516
 2065TIP3    H2 6202   4.803   5.038   0.793 -0.2898  0.6258  0.5330
 2066TIP3   OH2 6203   4.802   5.134   4.020 -0.3707 -0.3655  0.1424
 2066TIP3    H1 6204   4.708   5.152   4.012 -0.6709 -1.4771  1.0549
 2066TIP3    H2 6205   4.807   5.049   4.063  1.0621 -0.0074  0.7386
 2067TIP3   OH2 6206   1.473   2.622   5.087  0.4522  0.1993  0.3061
 2067TIP3    H1 6207   1.461   2.706   5.132  3.3404  0.6449  0.4367
 2067TIP3    H2 6208   1.411   2.563   5.130  0.2247  1.6068  2.0395
 2068TIP3   OH2 6209   5.374   2.718   2.820  0.1837 -0.1643 -0.2596
 2068TIP3    H1 6210   5.349   2.672   2.900  0.9252  1.2289  0.8205
 2068TIP3    H2 6211   5.450   2.669   2.787 -0.5988 -1.2094 -0.5886
 2069TIP3   OH2 6212   4.082   0.361   0.973 -0.5094 -0.0311  0.3425
 2069TIP3    H1 6213   4.134   0.369   1.054  1.5175  2.7613 -1.0794
 2069TIP3    H2 6214   3.991   0.367   1.003  0.1235 -0.1948  2.5120
 2070TIP3   OH2 6215   3.364   1.541   1.785 -0.4307 -0.2531  0.5531
 2070TIP3    H1 6216   3.430   1.576   1.725 -0.7568  3.6115  2.1296
 2070TIP3    H2 6217   3.284   1.535   1.731 -1.3229  5.2931  0.6715
 2071TIP3   OH2 6218   1.852   3.386   3.305  0.4361 -0.6760  0.6101
 2071TIP3    H1 6219   1.767   3.397   3.347  0.4848  0.2468  0.4933
 2071TIP3    H2 6220   1.915   3.386   3.377  0.5005  0.6895  0.5831
 2072TIP3   OH2 6221   3.832   1.728   3.443 -0.3118  0.4822  0.2649
 2072TIP3    H1 6222   3.821   1.643   3.402 -1.0384 -0.9730  3.1864
 2072TIP3    H2 6223   3.926   1.734   3.461 -0.0500  0.9617 -1.1845
 2073TIP3   OH2 6224   0.194   2.283   2.409 -0.2576  0.0622 -0.3673
 2073TIP3    H1 6225   0.140   2.296   2.487 -0.6432  0.6305 -0.7230
 2073TIP3    H2 6226   0.171   2.355   2.351 -3.1633 -2.5015 -2.7953
 2074TIP3   OH2 6227   4.719   2.863   2.919 -0.3618 -0.0202 -0.2445
 2074TIP3    H1 6228   4.768   2.897   2.994 -0.3143  0.1947 -0.3707
 2074TIP3    H2 6229   4.767   2.785   2.892  0.2165  0.4837 -0.6938
 2075TIP3   OH2 6230   5.425   5.336   1.800  0.0146  0.6374 -0.1451
 2075TIP3    H1 6231   5.389   5.249   1.784 -0.9078  1.2268 -1.4617
 2075TIP3    H2 6232   5.348   5.393   1.806  0.6347  1.6143 -1.0486
 2076TIP3   OH2 6233   2.914   2.867   0.074  0.3960  0.0642  0.0355
 2076TIP3    H1 6234   2.836   2.833   0.118 -1.1451  2.4369 -0.6824
 2076TIP3    H2 6235   2.972   2.892   0.145 -0.0865 -0.4240  0.6164
 2077TIP3   OH2 6236   6.016   0.643   0.371 -0.0752  0.1217 -0.7519
 2077TIP3    H1 6237   6.035   0.697   0.294 -1.2628  2.1227  0.2886
 2077TIP3    H2 6238   6.091   0.658   0.429 -0.3618  0.5743 -0.4999
 2078TIP3   OH2 6239   0.710   2.106   0.553 -0.2977 -0.2515  0.6140
 2078TIP3    H1 6240   0.771   2.113   0.627 -0.6294  1.0878  0.7981
 2078TIP3    H2 6241   0.624   2.097   0.595 -0.3644 -0.7840  0.3671
 2079TIP3   OH2 6242   3.700   4.047   4.880 -0.0083  0.2811 -0.0049
 2079TIP3    H1 6243   3.731   4.051   4.789 -1.1297 -0.6308 -0.4535
 2079TIP3    H2 6244   3.776   4.073   4.932  0.8404  0.2250 -1.1656
 2080TIP3   OH2 6245   2.915   3.513   4.845  0.5509  0.6786  0.3369
 2080TIP3    H1 6246   2.956   3.431   4.817  1.6916  0.8970  1.2692
 2080TIP3    H2 6247   2.844   3.486   4.903 -0.0985  0.3124 -0.6145
 2081TIP3   OH2 6248   4.237   5.440   4.542 -0.0417 -0.0533 -0.1332
 2081TIP3    H1 6249   4.147   5.416   4.563 -0.2881 -0.8533 -1.8832
 2081TIP3    H2 6250   4.263   5.376   4.475  1.2639  1.1634 -0.8383
 2082TIP3   OH2 6251   2.053   4.913   5.049  0.0396  0.1957 -0.0475
 2082TIP3    H1 6252   1.993   4.893   4.977 -0.0483  0.7747 -0.1393
 2082TIP3    H2 6253   2.129   4.953   5.007  0.2159  0.0523  0.1324
 2083TIP3   OH2 6254   5.265   4.338   1.971  0.5427  0.7614  0.2683
 2083TIP3    H1 6255   5.352   4.303   1.989  1.9149  2.4231 -2.4166
 2083TIP3    H2 6256   5.236   4.293   1.892 -0.3872  1.2481  0.3109
 2084TIP3   OH2 6257   2.894   1.648   2.268  0.2401  0.1651  0.7998
 2084TIP3    H1 6258   2.943   1.728   2.285 -0.6562  0.7667  0.6559
 2084TIP3    H2 6259   2.949   1.578   2.302  0.8243  0.8823  1.3740
 2085TIP3   OH2 6260   3.900   3.894   3.414  0.7389 -0.1380 -0.1499
 2085TIP3    H1 6261   3.922   3.814   3.365 -1.2673  0.1793 -1.7044
 2085TIP3    H2 6262   3.834   3.866   3.477  0.0325  0.2492 -0.6980
 2086TIP3   OH2 6263   0.984   4.217   1.989 -0.2492 -0.0035  0.0503
 2086TIP3    H1 6264   0.909   4.255   2.034  1.1740  1.3468  1.4083
 2086TIP3    H2 6265   1.011   4.144   2.044  0.1555  0.2794  0.2364
 2087TIP3   OH2 6266  -0.001   4.493   4.938 -0.0785  0.2235 -0.6319
 2087TIP3    H1 6267   0.080   4.536   4.966  0.2446  0.8709 -2.4002
 2087TIP3    H2 6268  -0.071   4.551   4.970  0.2497  0.7383 -0.8277
 2088TIP3   OH2 6269   4.954   4.447   3.316 -0.3180  0.0088 -0.0674
 2088TIP3    H1 6270   5.024   4.408   3.368  1.6644  0.8977 -1.8910
 2088TIP3    H2 6271   4.984   4.438   3.226 -3.1130 -0.5288 -1.0188
 2089TIP3   OH2 6272   4.812   5.884   3.298 -0.3589 -0.3525  0.4241
 2089TIP3    H1 6273   4.803   5.803   3.347 -1.6344  0.3428  1.3884
 2089TIP3    H2 6274   4.760   5.948   3.347 -0.0543  0.8463 -0.7595
 2090TIP3   OH2 6275   3.323   2.601   3.194 -0.0913  0.6370 -0.3912
 2090TIP3    H1 6276   3.276   2.629   3.272 -0.3578  0.6389 -0.5485
 2090TIP3    H2 6277   3.283   2.517   3.171 -2.2003  2.0401 -2.2977
 2091TIP3   OH2 6278   2.274   1.770   2.950  0.4817 -0.6514  0.5898
 2091TIP3    H1 6279   2.355   1.795   2.904 -0.2867 -2.5739 -2.0109
 2091TIP3    H2 6280   2.219   1.848   2.944  0.6681 -0.6183 -1.2148
 2092TIP3   OH2 6281   5.738   4.469   2.542 -0.0288  0.4181 -0.4747
 2092TIP3    H1 6282   5.830   4.495   2.546 -0.0166  0.3513 -0.2762
 2092TIP3    H2 6283   5.689   4.550   2.553  0.0056  0.2874  0.8613
 2093TIP3   OH2 6284   4.640   4.032   5.111  0.9606 -0.3445  0.2437
 2093TIP3    H1 6285   4.685   4.032   5.195  0.4288 -0.0754  0.5384
 2093TIP3    H2 6286   4.696   4.082   5.053  3.4727 -3.9453 -0.7839
 2094TIP3   OH2 6287   3.962   5.300   4.043 -0.5472 -0.1969  0.2376
 2094TIP3    H1 6288   3.972   5.222   3.989  1.1208  1.3194 -1.8652
 2094TIP3    H2 6289   3.879   5.339   4.014 -0.9795 -0.7453  0.7166
 2095TIP3   OH2 6290   6.123   3.230   4.988  0.3891  0.1441  0.3854
 2095TIP3    H1 6291   6.210   3.270   4.993 -0.0652  1.1683  0.2927
 2095TIP3    H2 6292   6.098   3.217   5.079  0.9034 -0.7894  0.4143
 2096TIP3   OH2 6293   1.581   3.888   4.880  0.4745  0.1349 -0.0244
 2096TIP3    H1 6294   1.651   3.899   4.945  1.2859  0.2284 -0.8965
 2096TIP3    H2 6295   1.501   3.916   4.926  1.0544  0.3792  0.8682
 2097TIP3   OH2 6296   3.089   3.373   0.870 -0.1800  0.7093  0.2968
 2097TIP3    H1 6297   3.172   3.383   0.823  0.3836  1.1720  1.3597
 2097TIP3    H2 6298   3.088   3.445   0.932 -1.0503  0.2795  0.8012
 2098TIP3   OH2 6299   0.972   1.090   1.865  0.4825  0.0125  0.0613
 2098TIP3    H1 6300   0.879   1.097   1.844  0.4719  1.9034  0.5550
 2098TIP3    H2 6301   1.006   1.179   1.853  1.6016  0.0166  2.6266
 2099TIP3   OH2 6302   3.146   1.298   4.392 -0.4632  0.2276 -0.7497
 2099TIP3    H1 6303   3.240   1.306   4.410 -0.5245  0.4858 -0.5327
 2099TIP3    H2 6304   3.124   1.376   4.341 -0.9184  1.1387  0.7671
 2100TIP3   OH2 6305   2.559   3.602   0.977 -0.2611  0.4693  0.3138
 2100TIP3    H1 6306   2.507   3.632   0.903 -0.8084 -1.4337 -0.1395
 2100TIP3    H2 6307   2.552   3.506   0.973  1.9307  0.2235  1.2219
 2101TIP3   OH2 6308   4.597   2.405   1.889 -0.0290  0.0053 -0.1265
 2101TIP3    H1 6309   4.604   2.310   1.884  1.3699 -0.0009  1.0572
 2101TIP3    H2 6310   4.671   2.437   1.838  0.2192  0.4061  0.4707
 2102TIP3   OH2 6311   5.418   3.534   2.980 -0.0989  0.0850  0.1433
 2102TIP3    H1 6312   5.350   3.475   3.012  0.5821  0.2333  1.9958
 2102TIP3    H2 6313   5.374   3.587   2.913 -0.6549 -2.6375 -1.7881
 2103TIP3   OH2 6314   1.199   1.554   2.176 -0.0911 -0.5742 -0.3309
 2103TIP3    H1 6315   1.287   1.561   2.215 -0.5684 -1.6207  0.9999
 2103TIP3    H2 6316   1.140   1.546   2.251 -1.2111 -1.1695 -1.2441
 2104TIP3   OH2 6317   0.899   4.532   5.160 -0.2245  0.8836  0.2096
 2104TIP3    H1 6318   0.898   4.546   5.065  0.1268  2.4878  0.4097
 2104TIP3    H2 6319   0.987   4.558   5.186 -1.0285  2.7472  1.2545
 2105TIP3   OH2 6320   3.573   1.962   3.219 -0.6636 -0.1526  0.3107
 2105TIP3    H1 6321   3.499   1.902   3.209 -0.5946 -0.3306  0.8471
 2105TIP3    H2 6322   3.637   1.932   3.154 -0.6665 -0.6062  0.5159
 2106TIP3   OH2 6323   3.776   5.852   2.215 -0.5443 -0.7538 -0.1642
 2106TIP3    H1 6324   3.852   5.903   2.240 -0.0569 -1.5421  0.0110
 2106TIP3    H2 6325   3.726   5.909   2.157 -0.1924  0.0317  0.2899
 2107TIP3   OH2 6326   3.606   5.962   3.668 -0.4530 -1.0320 -0.1411
 2107TIP3    H1 6327   3.596   6.052   3.636  1.4140 -0.4593  0.7572
 2107TIP3    H2 6328   3.660   5.919   3.601  1.4911 -0.4852  0.9954
 2108TIP3   OH2 6329   6.028   4.336   2.994 -0.1651 -0.6546  0.0216
 2108TIP3    H1 6330   5.953   4.371   2.947 -0.3293  0.8892  1.3583
 2108TIP3    H2 6331   6.101   4.340   2.932 -0.9419 -1.2526 -0.9611
 2109TIP3   OH2 6332   5.026   5.710   4.910  0.4707 -0.4414 -0.6339
 2109TIP3    H1 6333   5.060   5.800   4.917 -1.0277  0.0297  2.0034
 2109TIP3    H2 6334   5.056   5.667   4.990 -2.5595 -0.8361  0.4171
 2110TIP3   OH2 6335   4.711   2.830   4.012 -0.0580  1.0405 -0.1336
 2110TIP3    H1 6336   4.794   2.837   4.059  1.5250 -1.3779 -2.3078
 2110TIP3    H2 6337   4.648   2.807   4.079  1.8787 -1.2043  1.0587
 2111TIP3   OH2 6338   4.403   5.543   1.405  0.3501 -0.2935 -0.6229
 2111TIP3    H1 6339   4.326   5.592   1.434  1.3996  0.0985  1.7109
 2111TIP3    H2 6340   4.463   5.610   1.373  0.8688 -0.2577  0.3837
 2112TIP3   OH2 6341   1.863   0.787   3.182  0.2543  0.1820 -0.0549
 2112TIP3    H1 6342   1.868   0.876   3.148  0.7623 -0.1855 -0.9853
 2112TIP3    H2 6343   1.793   0.746   3.132  0.9510 -0.3432 -0.6144
 2113TIP3   OH2 6344   2.125   2.796   4.423 -0.4580  0.2355 -0.0977
 2113TIP3    H1 6345   2.047   2.839   4.388  1.0614  2.2029 -1.3009
 2113TIP3    H2 6346   2.172   2.865   4.469  0.7643 -0.8040  0.2797
 2114TIP3   OH2 6347   5.573   4.098   0.208  0.0734 -0.1985  0.0937
 2114TIP3    H1 6348   5.656   4.086   0.253  0.1164  0.5385  0.2217
 2114TIP3    H2 6349   5.586   4.176   0.153 -0.6250  0.1054  0.3476
 2115TIP3   OH2 6350   5.329   4.587   3.461  0.1494  0.0634 -0.3964
 2115TIP3    H1 6351   5.337   4.506   3.412 -0.8412 -0.0166 -0.4415
 2115TIP3    H2 6352   5.249   4.628   3.427 -0.0048  0.4813  0.4475
 2116TIP3   OH2 6353   1.173   5.614   4.643  0.1972  0.6739 -0.5149
 2116TIP3    H1 6354   1.100   5.661   4.601  1.4666  1.9217 -1.4317
 2116TIP3    H2 6355   1.248   5.632   4.587  0.7693 -2.6742 -1.0307
 2117TIP3   OH2 6356   6.228   0.362   0.587  0.3004 -0.0044  0.1750
 2117TIP3    H1 6357   6.231   0.268   0.605  1.0482 -0.1565 -0.6540
 2117TIP3    H2 6358   6.280   0.373   0.507  1.2392  1.2791  0.9169
 2118TIP3   OH2 6359   0.104   1.031   1.956  0.1121 -0.0244  0.2337
 2118TIP3    H1 6360   0.102   1.024   1.861  0.3215 -0.3348  0.2487
 2118TIP3    H2 6361   0.014   1.048   1.981  0.0597  0.0732 -0.0219
 2119TIP3   OH2 6362   3.527   2.197   1.492  0.1347 -0.3844  0.0714
 2119TIP3    H1 6363   3.589   2.146   1.544 -0.3150 -1.3603 -0.3390
 2119TIP3    H2 6364   3.447   2.146   1.493 -0.7559  0.9723  0.7657
 2120TIP3   OH2 6365   3.374   4.713   0.302  0.6066 -0.3745  0.1472
 2120TIP3    H1 6366   3.452   4.666   0.330  0.4481 -0.4516  0.4627
 2120TIP3    H2 6367   3.364   4.783   0.367 -0.3808 -1.2089  0.9239
 2121TIP3   OH2 6368   1.961   5.016   3.134 -0.1384  0.0385 -0.1052
 2121TIP3    H1 6369   1.901   4.950   3.168 -0.9159  1.1952  0.8135
 2121TIP3    H2 6370   1.936   5.097   3.177  0.8095  0.9586 -1.1980
 2122TIP3   OH2 6371   4.679   4.224   3.555 -0.1157  0.0597 -0.1523
 2122TIP3    H1 6372   4.630   4.238   3.636 -1.0693 -0.0340 -0.6966
 2122TIP3    H2 6373   4.613   4.196   3.491  0.5135  0.7061 -1.1206
 2123TIP3   OH2 6374   1.817   4.309   0.357  0.1820  0.3418 -0.0246
 2123TIP3    H1 6375   1.852   4.352   0.279 -0.4973  0.1401 -0.4563
 2123TIP3    H2 6376   1.723   4.324   0.352  0.0121 -0.5758  0.1952
 2124TIP3   OH2 6377   1.944   2.917   2.980  0.3580  0.7547 -0.9936
 2124TIP3    H1 6378   1.868   2.976   2.989  0.9317  1.4818 -0.8312
 2124TIP3    H2 6379   1.989   2.923   3.063  0.2663 -0.1670 -0.8660
 2125TIP3   OH2 6380   5.634   5.317   0.456 -0.6084  0.4417  0.2357
 2125TIP3    H1 6381   5.586   5.399   0.455 -2.2575 -0.4771 -1.0965
 2125TIP3    H2 6382   5.713   5.334   0.404 -0.8647  1.1945  0.0854
 2126TIP3   OH2 6383   5.395   1.322   3.052 -0.8811 -0.5266 -0.0262
 2126TIP3    H1 6384   5.398   1.230   3.026  1.0403 -1.1763  2.1566
 2126TIP3    H2 6385   5.324   1.326   3.117 -0.3776 -0.6854  0.5413
 2127TIP3   OH2 6386   4.696   2.534   3.317 -0.3013 -0.0485 -0.1392
 2127TIP3    H1 6387   4.648   2.615   3.301 -0.8687 -0.4619 -0.5713
 2127TIP3    H2 6388   4.656   2.470   3.257 -0.5116 -0.8936  0.8688
 2128TIP3   OH2 6389   5.518   0.925   1.718  0.2567 -0.5339 -0.4018
 2128TIP3    H1 6390   5.459   0.908   1.792 -0.7917 -0.4704 -1.1900
 2128TIP3    H2 6391   5.573   0.997   1.748  0.0183 -0.6699  0.4090
 2129TIP3   OH2 6392   2.176   1.550   2.836 -0.2857  0.0698  0.2029
 2129TIP3    H1 6393   2.181   1.627   2.893  0.7092 -0.3628  0.7098
 2129TIP3    H2 6394   2.265   1.538   2.803 -1.0071  0.8918 -2.2697
 2130TIP3   OH2 6395   4.943   3.082   2.610  0.4148  0.6409  0.0197
 2130TIP3    H1 6396   4.992   3.051   2.534  0.2956 -1.0317  0.5781
 2130TIP3    H2 6397   4.861   3.033   2.606 -1.7789  4.0783 -1.4541
 2131TIP3   OH2 6398   3.045   0.088   0.001 -0.0473  0.4388 -0.1496
 2131TIP3    H1 6399   3.027   0.178  -0.027 -1.9473 -0.1682 -1.0476
 2131TIP3    H2 6400   2.964   0.059   0.042  0.2293 -1.1319 -0.6319
 2132TIP3   OH2 6401   3.280   5.876   1.939 -0.2313  0.1336  0.3645
 2132TIP3    H1 6402   3.313   5.814   1.874 -0.8662  0.2107 -0.0378
 2132TIP3    H2 6403   3.232   5.822   2.001 -0.2510  0.1456  0.3597
 2133TIP3   OH2 6404   1.232   0.808   3.583 -0.2261  0.1092  0.4961
 2133TIP3    H1 6405   1.141   0.782   3.572 -0.5347  0.4685  1.9889
 2133TIP3    H2 6406   1.254   0.781   3.672  1.1862 -0.1110  0.1169
 2134TIP3   OH2 6407   2.808   3.324   1.556 -0.5232 -0.0637  0.1760
 2134TIP3    H1 6408   2.885   3.307   1.608 -1.2121 -0.0531  1.2251
 2134TIP3    H2 6409   2.837   3.387   1.490  0.5335 -0.6398  0.0704
 2135TIP3   OH2 6410   2.401   2.661   4.762 -0.1673 -0.2146  0.0967
 2135TIP3    H1 6411   2.346   2.590   4.728 -2.3031  1.4731 -0.1922
 2135TIP3    H2 6412   2.341   2.735   4.772  1.6862  1.1822  1.6705
 2136TIP3   OH2 6413   2.479   1.339   2.171  0.2045  0.1935  0.0222
 2136TIP3    H1 6414   2.522   1.259   2.202  0.9807 -0.7598 -3.1193
 2136TIP3    H2 6415   2.552   1.399   2.154 -0.2518  0.9326  0.6273
 2137TIP3   OH2 6416   5.277   5.706   2.375  0.4242 -0.1457 -0.5332
 2137TIP3    H1 6417   5.356   5.654   2.361 -1.2274 -2.2399 -3.0371
 2137TIP3    H2 6418   5.298   5.792   2.339  1.5818 -0.7024 -1.2480
 2138TIP3   OH2 6419   5.066   5.911   3.204  0.2209  0.1200  0.4116
 2138TIP3    H1 6420   4.977   5.903   3.239  0.2867  1.1435  0.8741
 2138TIP3    H2 6421   5.102   5.988   3.248  1.9593 -1.2609  1.5388
 2139TIP3   OH2 6422   0.597   3.233   4.038  0.4672 -0.0693 -0.9688
 2139TIP3    H1 6423   0.610   3.302   3.974  0.5171  1.1119  0.2622
 2139TIP3    H2 6424   0.625   3.272   4.121  3.6878 -2.5822 -0.6588
 2140TIP3   OH2 6425   5.577   4.612   3.787 -0.1350 -0.1016 -0.4684
 2140TIP3    H1 6426   5.517   4.628   3.860 -0.6897 -1.9229 -0.4621
 2140TIP3    H2 6427   5.641   4.683   3.791 -0.7520  0.3919  1.1546
 2141TIP3   OH2 6428   4.647   5.496   2.554 -0.3838  0.0729 -0.0756
 2141TIP3    H1 6429   4.731   5.481   2.598 -0.9227  2.2890  1.8902
 2141TIP3    H2 6430   4.602   5.411   2.560  0.4240 -0.2728  1.8217
 2142TIP3   OH2 6431   5.775   4.469   1.540  0.1554  0.0389  0.8167
 2142TIP3    H1 6432   5.805   4.395   1.594  1.5983  0.1968  0.2925
 2142TIP3    H2 6433   5.781   4.437   1.450 -0.4647  0.3807  0.6489
 2143TIP3   OH2 6434   0.740   0.169   3.511  0.2399  0.6683  0.5327
 2143TIP3    H1 6435   0.809   0.122   3.465  0.6559  0.9986  0.8148
 2143TIP3    H2 6436   0.786   0.228   3.570 -0.2321 -1.9793  3.8152
 2144TIP3   OH2 6437   2.102   3.104   3.961 -0.4327  0.1264 -0.0697
 2144TIP3    H1 6438   2.099   3.017   4.000  0.2362  0.2096  0.1800
 2144TIP3    H2 6439   2.187   3.109   3.918 -0.8825  0.2871 -0.9752
 2145TIP3   OH2 6440   2.396   0.650   3.468  0.9876  0.4270 -0.2761
 2145TIP3    H1 6441   2.486   0.630   3.443  1.0443  1.2647 -0.7701
 2145TIP3    H2 6442   2.385   0.743   3.450 -0.7273 -0.1281 -2.7250
 2146TIP3   OH2 6443   2.193   1.078   2.593  0.3951 -0.4951 -0.0885
 2146TIP3    H1 6444   2.202   1.152   2.533 -0.5400 -0.1353  0.2074
 2146TIP3    H2 6445   2.283   1.044   2.602  0.6399 -0.1973 -1.2229
 2147TIP3   OH2 6446   4.701   2.939   2.632  0.3812 -0.8221  0.1880
 2147TIP3    H1 6447   4.672   2.941   2.723  0.7117  0.1771  0.2794
 2147TIP3    H2 6448   4.634   2.987   2.584  0.1685 -1.4141 -0.1077
 2148TIP3   OH2 6449   3.902   0.204   0.069 -0.2890 -0.6067  0.5846
 2148TIP3    H1 6450   3.977   0.253   0.103 -0.0603  0.1840 -0.9578
 2148TIP3    H2 6451   3.826   0.251   0.102 -0.0700  0.1948 -0.0024
 2149TIP3   OH2 6452   2.116   5.045   1.052  0.1899  0.3356 -0.3543
 2149TIP3    H1 6453   2.135   5.073   0.963  0.8179  0.7468 -0.0971
 2149TIP3    H2 6454   2.032   4.999   1.046  0.8503 -0.7618 -1.3676
 2150TIP3   OH2 6455   5.502   2.124   4.477  0.0646 -0.0490 -0.0726
 2150TIP3    H1 6456   5.547   2.041   4.494  0.3984 -0.3474 -2.1902
 2150TIP3    H2 6457   5.517   2.175   4.556  4.2278 -0.1002 -0.6271
 2151TIP3   OH2 6458   4.148   2.462   3.015  0.3015 -0.1515  0.2645
 2151TIP3    H1 6459   4.229   2.506   3.040  0.2744 -1.0455  2.0858
 2151TIP3    H2 6460   4.176   2.388   2.962  0.5004  0.7053 -0.8621
 2152TIP3   OH2 6461   1.147   3.397   0.802  0.9054 -0.4507 -0.7890
 2152TIP3    H1 6462   1.133   3.378   0.709 -1.1109  0.9104 -0.8330
 2152TIP3    H2 6463   1.201   3.325   0.833  1.4372 -1.0616 -2.9603
 2153TIP3   OH2 6464   0.822   4.876   1.413 -0.7965  0.0142  0.3310
 2153TIP3    H1 6465   0.875   4.860   1.335 -1.5939 -0.9999 -0.0384
 2153TIP3    H2 6466   0.869   4.943   1.462  0.7024 -0.7142 -0.0732
 2154TIP3   OH2 6467   0.217   0.091   2.335 -0.0656  0.4721  0.4613
 2154TIP3    H1 6468   0.299   0.123   2.297  0.0475 -0.7135 -0.3609
 2154TIP3    H2 6469   0.240   0.005   2.371 -1.1779 -0.3909 -0.7937
 2155TIP3   OH2 6470   2.734   0.718   4.590 -0.5904  0.6675  0.0943
 2155TIP3    H1 6471   2.686   0.636   4.575  1.0719 -0.2937 -0.2433
 2155TIP3    H2 6472   2.678   0.786   4.551 -2.3107 -0.1918  0.9413
 2156TIP3   OH2 6473   4.141   2.182   0.433 -0.0426 -0.7742  0.5606
 2156TIP3    H1 6474   4.129   2.122   0.360 -1.2436  1.3700 -1.1353
 2156TIP3    H2 6475   4.193   2.254   0.396 -1.0452  0.5618  1.6500
 2157TIP3   OH2 6476  -0.007   0.464   5.084  0.4773 -0.2419 -0.2103
 2157TIP3    H1 6477   0.037   0.381   5.064  3.6514  1.4448 -1.0129
 2157TIP3    H2 6478  -0.000   0.473   5.179 -1.6426 -1.7047  0.1352
 2158TIP3   OH2 6479   6.150   1.621   2.964  0.1374  0.5270 -0.6222
 2158TIP3    H1 6480   6.228   1.577   2.997 -0.5100 -0.6552 -0.5844
 2158TIP3    H2 6481   6.169   1.637   2.872 -0.4376 -1.9604 -1.2573
 2159TIP3   OH2 6482   4.466   2.274   3.631  0.6506 -0.1336 -0.1179
 2159TIP3    H1 6483   4.493   2.306   3.717 -0.6198  1.0691 -0.1380
 2159TIP3    H2 6484   4.507   2.188   3.623  1.0824 -0.1010  1.5314
 2160TIP3   OH2 6485   6.128   5.672   4.907 -0.0640  1.1786  0.1406
 2160TIP3    H1 6486   6.165   5.672   4.995 -0.7016  1.5060  0.4189
 2160TIP3    H2 6487   6.047   5.723   4.916  0.5102  2.3280 -0.8997
 2161TIP3   OH2 6488   3.127   1.446   3.360 -0.2173  0.1953 -0.4523
 2161TIP3    H1 6489   3.039   1.460   3.395 -0.8504  1.4538 -2.3496
 2161TIP3    H2 6490   3.147   1.528   3.314  1.4089 -0.5532 -1.1394
 2162TIP3   OH2 6491   4.837   1.503   2.277 -0.5634  0.1250  0.6185
 2162TIP3    H1 6492   4.760   1.552   2.307 -0.3605  2.0456 -1.6210
 2162TIP3    H2 6493   4.808   1.462   2.195  0.6754  0.5927 -0.0781
 2163TIP3   OH2 6494   4.358   1.360   4.151 -0.2889  0.2330  0.0163
 2163TIP3    H1 6495   4.360   1.310   4.232 -1.3118 -0.6601 -0.4783
 2163TIP3    H2 6496   4.265   1.377   4.136  0.0010  1.6719 -0.2057
 2164TIP3   OH2 6497   3.609   2.265   0.022 -0.1080  0.4153 -0.4128
 2164TIP3    H1 6498   3.703   2.247   0.025 -0.1939  0.0535  0.2948
 2164TIP3    H2 6499   3.573   2.193  -0.029 -0.0443  0.3525 -0.3704
 2165TIP3   OH2 6500   4.602   0.768   2.152 -0.5780 -0.7620  0.1722
 2165TIP3    H1 6501   4.621   0.796   2.063  1.5202  0.1106  0.8053
 2165TIP3    H2 6502   4.513   0.798   2.169  0.0049  1.7215 -0.6976
 2166TIP3   OH2 6503   2.588   0.209   1.870 -0.2855 -0.0779  0.2300
 2166TIP3    H1 6504   2.550   0.272   1.932  2.5747  0.7559  1.2899
 2166TIP3    H2 6505   2.591   0.126   1.918  0.5064  0.2034  0.6864
 2167TIP3   OH2 6506   0.592   5.530   0.071  0.1396 -0.3740  0.6129
 2167TIP3    H1 6507   0.518   5.511   0.013  0.3355  0.2579  0.1468
 2167TIP3    H2 6508   0.617   5.620   0.050  1.2081 -0.6646  0.5656
 2168TIP3   OH2 6509   4.595   1.742   3.140  0.4017  0.3655  0.3712
 2168TIP3    H1 6510   4.626   1.692   3.065 -1.2543  0.1676 -0.2239
 2168TIP3    H2 6511   4.645   1.708   3.215  1.0028 -0.4863 -0.4032
 2169TIP3   OH2 6512   0.026   5.570   2.288  0.1580 -0.2680 -0.4271
 2169TIP3    H1 6513  -0.044   5.592   2.350 -1.0028 -0.4847 -1.6143
 2169TIP3    H2 6514   0.103   5.616   2.322 -0.2889 -0.8201  1.4731
 2170TIP3   OH2 6515   1.445   3.656   4.545 -0.1096 -0.0141 -0.2452
 2170TIP3    H1 6516   1.396   3.715   4.487 -0.1658 -1.4759 -1.7755
 2170TIP3    H2 6517   1.523   3.706   4.569 -0.4251  0.8977 -1.0235
 2171TIP3   OH2 6518   3.471   2.695   3.580 -0.0476 -0.1508 -0.1242
 2171TIP3    H1 6519   3.482   2.731   3.668 -1.0086 -2.3042  0.9474
 2171TIP3    H2 6520   3.385   2.727   3.552  0.4368  0.8763 -0.4844
 2172TIP3   OH2 6521   5.243   5.523   3.506  0.3251  0.2363  0.0212
 2172TIP3    H1 6522   5.159   5.561   3.480  1.0036  1.4634 -0.4622
 2172TIP3    H2 6523   5.263   5.458   3.439  1.0147  1.8312 -1.3819
 2173TIP3   OH2 6524   5.894   4.919   4.960 -0.7201  0.0638  0.2845
 2173TIP3    H1 6525   5.902   4.910   4.865 -0.0276  3.2628 -0.0725
 2173TIP3    H2 6526   5.984   4.927   4.991 -1.0182  1.4459  0.8588
 2174TIP3   OH2 6527   1.392   3.033   4.280 -0.1738  0.0874  0.1796
 2174TIP3    H1 6528   1.403   3.005   4.189  0.0114  2.1830 -0.4860
 2174TIP3    H2 6529   1.406   3.127   4.278  0.1943  0.1334  2.4583
 2175TIP3   OH2 6530   5.858   0.445   2.174  0.4862  0.9043  0.0360
 2175TIP3    H1 6531   5.812   0.373   2.216  0.5009  2.0016  2.0271
 2175TIP3    H2 6532   5.789   0.507   2.151  0.4416  0.1969 -1.9244
 2176TIP3   OH2 6533   5.297   1.350   1.743  0.0391 -0.0409 -0.4272
 2176TIP3    H1 6534   5.357   1.330   1.671 -1.1984 -2.1259 -0.9379
 2176TIP3    H2 6535   5.257   1.266   1.766 -1.9587  1.1050  0.5781
 2177TIP3   OH2 6536   4.643   4.148   4.140 -0.2167 -0.2075  0.3378
 2177TIP3    H1 6537   4.585   4.171   4.068 -0.6788 -2.5287 -0.0929
 2177TIP3    H2 6538   4.597   4.079   4.187  1.7492 -1.4330  0.5657
 2178TIP3   OH2 6539   2.647   2.531   0.827  0.5546 -0.1510 -0.1640
 2178TIP3    H1 6540   2.659   2.462   0.761  0.9317 -0.7244  0.4874
 2178TIP3    H2 6541   2.661   2.612   0.779 -0.7489 -0.4699 -1.1429
 2179TIP3   OH2 6542   4.455   1.839   1.207 -0.2929 -0.0719 -0.1540
 2179TIP3    H1 6543   4.519   1.847   1.137 -0.6838  2.3512 -0.3097
 2179TIP3    H2 6544   4.506   1.810   1.283  0.7260  0.3346 -0.6647
 2180TIP3   OH2 6545   6.077   2.811   2.534  0.7652 -0.2515 -0.3613
 2180TIP3    H1 6546   6.091   2.732   2.482  1.2523 -0.4372  0.0419
 2180TIP3    H2 6547   6.155   2.864   2.518  0.0020  0.6023 -1.4040
 2181TIP3   OH2 6548   2.741   3.741   3.215  0.9791 -0.4748 -0.1540
 2181TIP3    H1 6549   2.645   3.733   3.215  1.0359 -1.4855 -1.6105
 2181TIP3    H2 6550   2.770   3.676   3.279  0.7133 -0.2096  0.2459
 2182TIP3   OH2 6551   6.163   0.598   3.082  0.3806  0.4608 -0.0458
 2182TIP3    H1 6552   6.185   0.649   3.005 -1.7054  0.6726 -0.5647
 2182TIP3    H2 6553   6.203   0.512   3.067  0.8165  0.8032 -0.8775
 2183TIP3   OH2 6554   2.112   0.488   2.736  0.3444  0.1473  0.4604
 2183TIP3    H1 6555   2.110   0.581   2.712  1.8368 -0.1733 -1.1980
 2183TIP3    H2 6556   2.122   0.488   2.831 -1.9155  1.6157  0.7705
 2184TIP3   OH2 6557   5.411   1.820   1.626 -0.3227  0.8926  0.4273
 2184TIP3    H1 6558   5.482   1.824   1.690 -0.9015  0.5895  1.1021
 2184TIP3    H2 6559   5.397   1.910   1.600  1.0508  0.8563 -0.5573
 2185TIP3   OH2 6560   3.902   1.287   0.478  0.0221  0.1072 -0.2749
 2185TIP3    H1 6561   3.946   1.365   0.510 -3.1706  1.5621  0.9278
 2185TIP3    H2 6562   3.838   1.319   0.415  0.5637 -1.9022 -1.9744
 2186TIP3   OH2 6563   2.360   3.643   5.152 -0.0621 -0.4609 -0.3041
 2186TIP3    H1 6564   2.320   3.564   5.115 -1.2375 -0.5035  0.9992
 2186TIP3    H2 6565   2.313   3.659   5.234  1.8540  0.1264  0.7694
 2187TIP3   OH2 6566   4.501   0.201   0.424 -0.3022 -0.0149 -0.2408
 2187TIP3    H1 6567   4.464   0.287   0.403  0.4519  0.2768 -0.4206
 2187TIP3    H2 6568   4.576   0.192   0.365  1.0171  0.2034  1.3391
 2188TIP3   OH2 6569   2.346   2.336   1.936  0.3654  0.1193 -0.3487
 2188TIP3    H1 6570   2.316   2.375   1.854 -0.0921 -0.6923 -0.5812
 2188TIP3    H2 6571   2.392   2.256   1.909  1.3253  0.4982  0.1147
 2189TIP3   OH2 6572   3.400   0.273   3.080  0.0288  0.6173  0.2842
 2189TIP3    H1 6573   3.362   0.248   2.996 -1.1332  1.3274  0.5825
 2189TIP3    H2 6574   3.488   0.235   3.078 -1.2664 -2.6577  0.3201
 2190TIP3   OH2 6575   2.084   0.513   3.019  0.2593 -0.3040  0.1694
 2190TIP3    H1 6576   2.102   0.449   3.089 -1.0690 -1.0177 -0.0977
 2190TIP3    H2 6577   2.123   0.594   3.050 -1.6218 -0.1818  2.5438
 2191TIP3   OH2 6578   0.774   4.073   3.175  0.4477  0.0187  0.0645
 2191TIP3    H1 6579   0.682   4.046   3.176  0.8713 -1.4550  1.0004
 2191TIP3    H2 6580   0.799   4.068   3.082  0.1202 -1.5005  0.0419
 2192TIP3   OH2 6581   0.786   2.997   3.030 -0.0718 -0.0678  0.2402
 2192TIP3    H1 6582   0.776   2.909   2.995  0.7215 -0.0891  0.0545
 2192TIP3    H2 6583   0.869   3.028   2.995 -0.7247  1.0659 -0.3579
 2193TIP3   OH2 6584   1.309   4.884   4.318 -0.1229 -0.0827  0.7374
 2193TIP3    H1 6585   1.290   4.940   4.242 -0.0771  1.8675  2.0712
 2193TIP3    H2 6586   1.402   4.896   4.334  0.1686 -1.6177  0.2641
 2194TIP3   OH2 6587   1.936   5.267   3.267  0.0854  0.1459  0.4671
 2194TIP3    H1 6588   2.025   5.289   3.294 -0.2602  1.8261  0.3534
 2194TIP3    H2 6589   1.885   5.269   3.348 -0.1299  0.7577  0.3212
 2195TIP3   OH2 6590   4.604   5.303   1.426 -0.1115  0.6572 -0.1415
 2195TIP3    H1 6591   4.700   5.300   1.427 -0.0952  0.1951 -1.2283
 2195TIP3    H2 6592   4.580   5.252   1.349 -1.2999 -0.7558  1.1119
 2196TIP3   OH2 6593   4.177   1.854   3.637  0.3077 -0.1103  0.3407
 2196TIP3    H1 6594   4.139   1.791   3.698  1.4160 -1.1083  0.0310
 2196TIP3    H2 6595   4.251   1.891   3.685 -1.0262  1.9100  0.9902
 2197TIP3   OH2 6596   2.061   4.239   5.007  0.2526  0.0004 -0.5407
 2197TIP3    H1 6597   2.143   4.265   5.050 -0.2747 -0.8319  1.0327
 2197TIP3    H2 6598   2.010   4.320   5.002 -0.1188 -0.0515  1.4779
 2198TIP3   OH2 6599   2.654   3.715   0.135  0.1687 -0.3467 -0.3958
 2198TIP3    H1 6600   2.591   3.661   0.088 -0.4524  1.8508 -2.2966
 2198TIP3    H2 6601   2.619   3.804   0.126  2.4154  0.6795  0.4313
 2199TIP3   OH2 6602   6.127   5.103   1.978 -0.0901  0.5886  0.3023
 2199TIP3    H1 6603   6.134   5.132   2.069  0.6394 -0.9995  0.7999
 2199TIP3    H2 6604   6.069   5.167   1.937  0.8184  2.2402  1.4702
 2200TIP3   OH2 6605   5.920   4.584   4.444 -0.4311  0.1247  0.3172
 2200TIP3    H1 6606   5.878   4.498   4.439 -0.8572  0.3691 -0.4991
 2200TIP3    H2 6607   6.014   4.566   4.438 -0.5037 -0.3003  0.4436
 2201TIP3   OH2 6608   4.114   2.373   4.303 -0.3498  0.1711 -0.6331
 2201TIP3    H1 6609   4.160   2.302   4.349 -2.0378  0.0505  0.9860
 2201TIP3    H2 6610   4.025   2.339   4.290 -1.0039  1.7447 -0.4089
 2202TIP3   OH2 6611   1.269   2.346   3.607 -0.2604  0.3667 -0.0743
 2202TIP3    H1 6612   1.225   2.303   3.534 -2.8249  0.1376  1.4970
 2202TIP3    H2 6613   1.257   2.287   3.681  1.3569  1.0821  0.8258
 2203TIP3   OH2 6614   4.545   4.673   1.954 -0.2366 -0.0119 -0.2157
 2203TIP3    H1 6615   4.535   4.592   2.003 -0.8201  0.5305  0.5843
 2203TIP3    H2 6616   4.459   4.689   1.915 -0.5853  1.0155  0.9116
 2204TIP3   OH2 6617   4.873   2.987   2.106 -0.3357 -0.8458  0.0810
 2204TIP3    H1 6618   4.808   3.021   2.167 -0.6882 -1.1178 -0.1418
 2204TIP3    H2 6619   4.941   3.055   2.103 -0.2283 -0.9109  0.9061
 2205TIP3   OH2 6620   2.378   0.201   4.452  0.1215  0.0834  0.7043
 2205TIP3    H1 6621   2.305   0.213   4.512  0.7403  1.2315  1.2613
 2205TIP3    H2 6622   2.337   0.195   4.365 -0.5697  2.6937  0.7769
 2206TIP3   OH2 6623   3.950   1.836   3.195 -0.3093 -0.5806 -0.1131
 2206TIP3    H1 6624   3.924   1.835   3.287 -0.0991 -0.3647 -0.0467
 2206TIP3    H2 6625   4.011   1.910   3.189  1.7948 -2.1919  0.1722
 2207TIP3   OH2 6626   5.902   0.416   4.038 -0.5472  0.1077  0.4452
 2207TIP3    H1 6627   5.997   0.405   4.026 -0.4541  0.1708  1.0725
 2207TIP3    H2 6628   5.895   0.465   4.120 -1.1229  0.1517  0.3673
 2208TIP3   OH2 6629   4.594   3.889   2.454  0.4122  0.1843 -0.1765
 2208TIP3    H1 6630   4.628   3.944   2.384  0.9324 -1.9097 -1.6764
 2208TIP3    H2 6631   4.503   3.918   2.466  0.6295  1.2467 -1.0134
 2209TIP3   OH2 6632   4.902   2.121   2.181 -0.7374 -0.0260  0.7831
 2209TIP3    H1 6633   4.871   2.076   2.102 -0.5365  1.9750 -0.4843
 2209TIP3    H2 6634   4.972   2.065   2.214  0.6901  0.1235 -1.7153
 2210TIP3   OH2 6635   3.054   5.243   0.303 -0.0509  0.1282 -0.9961
 2210TIP3    H1 6636   3.099   5.161   0.322 -1.7839 -0.6429  0.0295
 2210TIP3    H2 6637   3.121   5.298   0.261  1.2674 -1.6315 -1.3277
 2211TIP3   OH2 6638   3.262   2.294   4.548 -0.1965  0.2456  0.5215
 2211TIP3    H1 6639   3.266   2.284   4.643 -0.2208  0.6423  0.5684
 2211TIP3    H2 6640   3.253   2.205   4.515 -0.2475  0.1079  0.8943
 2212TIP3   OH2 6641   4.710   3.007   3.295  0.3688  0.2724 -0.4747
 2212TIP3    H1 6642   4.750   3.067   3.357  1.2323 -2.8219  2.2585
 2212TIP3    H2 6643   4.777   2.994   3.228  0.7092  1.2288 -0.3360
 2213TIP3   OH2 6644   3.684   4.714   3.144  0.1041  0.6548 -0.4402
 2213TIP3    H1 6645   3.730   4.673   3.070  0.2260 -0.8051  0.4244
 2213TIP3    H2 6646   3.719   4.670   3.221  0.3401  2.5016  0.5551
 2214TIP3   OH2 6647   5.683   5.577   0.570 -0.1134 -0.2339 -0.3767
 2214TIP3    H1 6648   5.760   5.568   0.514  0.4336  1.9727 -0.0838
 2214TIP3    H2 6649   5.700   5.656   0.622 -1.3069 -1.3202  1.7994
 2215TIP3   OH2 6650   2.398   2.190   0.181 -0.1451  0.2050 -0.0034
 2215TIP3    H1 6651   2.489   2.166   0.169 -0.0045  0.8556 -0.3009
 2215TIP3    H2 6652   2.399   2.251   0.255 -0.4340 -0.3462  0.4600
 2216TIP3   OH2 6653   2.336   3.653   4.111  0.3912 -0.0741  0.1468
 2216TIP3    H1 6654   2.266   3.719   4.109 -0.9311 -1.4298  0.2702
 2216TIP3    H2 6655   2.350   3.636   4.205 -0.2778 -0.9771  0.0949
 2217TIP3   OH2 6656   1.970   4.521   5.060  0.1071 -0.1472 -0.6158
 2217TIP3    H1 6657   1.894   4.465   5.074  0.2872 -0.1839  0.2641
 2217TIP3    H2 6658   1.963   4.588   5.128 -0.1503  0.9668 -1.6992
 2218TIP3   OH2 6659   6.032   2.998   1.695 -0.2424  0.4946  0.1201
 2218TIP3    H1 6660   5.948   2.956   1.715  0.4290 -0.5751  0.7616
 2218TIP3    H2 6661   6.072   2.942   1.629  0.2644  0.6172  0.3197
 2219TIP3   OH2 6662   6.021   1.943   0.934 -0.6249  0.6020  0.0734
 2219TIP3    H1 6663   6.021   2.038   0.942 -0.6645  0.8305 -2.1417
 2219TIP3    H2 6664   6.086   1.924   0.866 -0.7862 -0.9437  0.3013
 2220TIP3   OH2 6665   1.812   1.071   0.500 -0.0833 -0.1502 -0.0405
 2220TIP3    H1 6666   1.804   1.144   0.561 -0.0528 -0.7564  0.7036
 2220TIP3    H2 6667   1.786   0.994   0.551  0.3844 -0.7258 -0.6537
 2221TIP3   OH2 6668   0.728   1.451   2.724  0.6023 -0.0666  0.2421
 2221TIP3    H1 6669   0.692   1.467   2.811 -0.5073  1.2462 -0.4147
 2221TIP3    H2 6670   0.651   1.447   2.667  1.3324 -0.5131 -0.7374
 2222TIP3   OH2 6671   6.225   3.362   2.271  0.7593 -0.3582 -0.0069
 2222TIP3    H1 6672   6.314   3.327   2.275  0.7945 -0.3734 -0.7325
 2222TIP3    H2 6673   6.218   3.399   2.183  0.8514  1.8361  0.8633
 2223TIP3   OH2 6674   1.276   2.829   3.796 -0.2926 -0.3763 -0.5826
 2223TIP3    H1 6675   1.362   2.823   3.838 -0.0042 -0.1266 -1.1302
 2223TIP3    H2 6676   1.246   2.738   3.790 -0.5127 -0.3851  0.5141
 2224TIP3   OH2 6677   2.726   4.758   4.860  0.0745 -1.2757 -0.0148
 2224TIP3    H1 6678   2.714   4.785   4.769  0.6381 -0.1519  0.2235
 2224TIP3    H2 6679   2.794   4.816   4.894 -0.1098 -1.6837  1.1220
 2225TIP3   OH2 6680   5.549   0.582   5.196  0.5933 -0.4119  0.0028
 2225TIP3    H1 6681   5.567   0.675   5.189 -3.3205  0.3923 -2.7460
 2225TIP3    H2 6682   5.619   0.540   5.145  1.2048  1.2284 -0.5617
 2226TIP3   OH2 6683   3.027   1.241   1.460 -0.5377 -0.0317  0.1976
 2226TIP3    H1 6684   3.090   1.252   1.389  0.6950 -3.5583  0.5654
 2226TIP3    H2 6685   3.081   1.231   1.538 -1.5475 -2.0627  0.6978
 2227TIP3   OH2 6686   4.807   0.134   2.021  0.3346 -0.7732 -0.2684
 2227TIP3    H1 6687   4.767   0.052   2.050  0.7536 -1.1107 -0.6097
 2227TIP3    H2 6688   4.774   0.147   1.932  0.2888 -0.5871 -0.2240
 2228TIP3   OH2 6689   3.820   3.927   0.106 -0.5497  0.2968 -0.4660
 2228TIP3    H1 6690   3.909   3.922   0.143 -0.9112  1.5581  0.6553
 2228TIP3    H2 6691   3.796   3.836   0.088  0.8046 -0.0955 -0.3980
 2229TIP3   OH2 6692   2.291   0.189   0.069 -0.6961 -0.0609 -0.2097
 2229TIP3    H1 6693   2.222   0.217   0.129 -1.3881  0.1050 -1.0621
 2229TIP3    H2 6694   2.300   0.095   0.084 -1.5051 -0.1857 -0.4908
 2230TIP3   OH2 6695   5.204   0.186   2.941  0.0509  0.2093  0.0583
 2230TIP3    H1 6696   5.173   0.120   3.004  0.5291  1.6018  1.8251
 2230TIP3    H2 6697   5.124   0.219   2.900 -0.2449 -0.9144 -0.3133
 2231TIP3   OH2 6698   1.023   3.669   2.717  0.3624  0.0779 -0.4365
 2231TIP3    H1 6699   0.986   3.588   2.681  0.0947  0.0535 -0.1002
 2231TIP3    H2 6700   1.084   3.698   2.649 -0.0127 -0.0628 -0.8407
 2232TIP3   OH2 6701   5.104   0.422   1.215  0.0006  0.0035 -0.0006
 2232TIP3    H1 6702   5.106   0.500   1.160  0.2225 -0.7614 -1.0984
 2232TIP3    H2 6703   5.086   0.456   1.303  0.9688  1.3680 -0.2936
 2233TIP3   OH2 6704   0.313   5.675   0.703 -0.3092  0.8237 -0.3936
 2233TIP3    H1 6705   0.356   5.612   0.761 -0.2133  0.9108 -0.3693
 2233TIP3    H2 6706   0.257   5.622   0.647 -1.5791  0.8568  0.7816
 2234TIP3   OH2 6707   3.289   2.599   1.681  0.2870  0.4699 -0.3664
 2234TIP3    H1 6708   3.376   2.622   1.716  0.2766 -0.6642  0.4512
 2234TIP3    H2 6709   3.275   2.509   1.709 -1.1256  0.6059 -0.5657
 2235TIP3   OH2 6710   4.457   1.559   1.100  0.2170 -0.1165  0.0168
 2235TIP3    H1 6711   4.449   1.607   1.018  0.8034  1.0072  0.5972
 2235TIP3    H2 6712   4.374   1.575   1.145  1.2028  2.1971  1.1437
 2236TIP3   OH2 6713   2.387   1.160   2.826 -0.6041 -0.3394 -0.1363
 2236TIP3    H1 6714   2.452   1.099   2.864 -1.3190 -1.7119 -1.0303
 2236TIP3    H2 6715   2.429   1.194   2.748  0.6074  1.9798  1.4128
 2237TIP3   OH2 6716   3.304   3.872   4.822  0.1243 -0.2719  0.4051
 2237TIP3    H1 6717   3.267   3.947   4.869 -0.3451 -1.5472  2.1905
 2237TIP3    H2 6718   3.227   3.824   4.790  0.2380 -1.5553  1.9047
 2238TIP3   OH2 6719   0.059   5.214   1.168 -0.8342  0.2009  0.1194
 2238TIP3    H1 6720   0.047   5.126   1.205  0.7068 -0.2194 -0.3256
 2238TIP3    H2 6721   0.034   5.204   1.076 -0.2966  0.1214 -0.0222
 2239TIP3   OH2 6722   3.622   4.022   0.253  0.2035  0.1195  0.8059
 2239TIP3    H1 6723   3.704   3.998   0.211  0.5755  0.4921  1.3113
 2239TIP3    H2 6724   3.604   3.951   0.314  0.8384  0.6812  1.6523
 2240TIP3   OH2 6725   3.907   1.843   4.734 -0.0801  0.2640 -0.5175
 2240TIP3    H1 6726   3.965   1.810   4.665  1.0364 -0.1924  0.5836
 2240TIP3    H2 6727   3.931   1.792   4.811  1.0584  2.9616  1.0551
 2241TIP3   OH2 6728   2.971   5.511   0.964 -0.0685  0.2320  0.3446
 2241TIP3    H1 6729   2.882   5.515   0.931 -0.3205  1.9097  1.1517
 2241TIP3    H2 6730   2.964   5.533   1.057  1.0813 -0.5599  0.6477
 2242TIP3   OH2 6731   0.557   4.962   3.728 -0.2479 -0.0310  0.0387
 2242TIP3    H1 6732   0.479   5.009   3.698 -0.8394 -0.6512  0.5972
 2242TIP3    H2 6733   0.602   4.936   3.647 -0.2914  0.8542 -0.2805
 2243TIP3   OH2 6734   1.210   1.538   0.196 -0.1740 -0.1737 -0.5760
 2243TIP3    H1 6735   1.235   1.483   0.123  2.0673 -1.4868  1.0420
 2243TIP3    H2 6736   1.279   1.605   0.201 -1.0560  0.7602 -0.4947
 2244TIP3   OH2 6737   2.565   5.007   4.384 -0.1117  0.1614  0.3290
 2244TIP3    H1 6738   2.603   5.034   4.301 -0.8572  0.9286  0.2162
 2244TIP3    H2 6739   2.477   5.046   4.384 -0.2892 -0.1961  1.2770
 2245TIP3   OH2 6740   5.938   5.106   3.150 -0.0483 -0.0692  0.1228
 2245TIP3    H1 6741   5.886   5.167   3.098 -1.1775 -0.2400  1.0121
 2245TIP3    H2 6742   5.956   5.034   3.089 -0.5338  0.1655 -0.3197
 2246TIP3   OH2 6743   0.929   5.518   1.597  0.1697 -0.0263  0.4473
 2246TIP3    H1 6744   1.019   5.524   1.566  0.7887 -2.8697  1.3697
 2246TIP3    H2 6745   0.936   5.520   1.692 -0.5183 -1.7788  0.5758
 2247TIP3   OH2 6746   2.213   5.208   3.534  0.5332 -0.1046  0.2884
 2247TIP3    H1 6747   2.134   5.156   3.523 -1.8241  2.6859  2.2675
 2247TIP3    H2 6748   2.268   5.156   3.592  0.4060 -2.2658 -1.3974
 2248TIP3   OH2 6749   2.111   0.206   2.923  0.4065 -0.5944  0.1433
 2248TIP3    H1 6750   2.115   0.271   2.853 -1.8423  1.7256  1.9851
 2248TIP3    H2 6751   2.173   0.238   2.989  0.5763 -1.3167  0.3455
 2249TIP3   OH2 6752   6.110   1.142   4.320  0.4410  0.0956 -0.6732
 2249TIP3    H1 6753   6.203   1.167   4.316  0.2799  1.4959  2.0702
 2249TIP3    H2 6754   6.075   1.172   4.236  1.8778  2.4981 -0.5455
 2250TIP3   OH2 6755   4.518   2.722   4.567 -0.0477  0.3626  0.2056
 2250TIP3    H1 6756   4.479   2.810   4.564  0.0192  0.3767 -2.5943
 2250TIP3    H2 6757   4.488   2.686   4.651 -1.6679  2.3366  0.5704
 2251TIP3   OH2 6758   0.784   4.029   0.808  0.4667  0.5433  0.3495
 2251TIP3    H1 6759   0.806   4.115   0.846  1.1525  1.1142 -1.2472
 2251TIP3    H2 6760   0.763   4.049   0.716 -1.3536 -0.7517  0.4435
 2252TIP3   OH2 6761   4.747   5.481   1.211 -0.5360  0.0409  0.4020
 2252TIP3    H1 6762   4.713   5.413   1.270  2.4344 -0.3463  1.8182
 2252TIP3    H2 6763   4.695   5.559   1.233 -1.9857 -0.9966  0.8592
 2253TIP3   OH2 6764   4.262   1.039   4.485  0.6571  0.5735 -0.3066
 2253TIP3    H1 6765   4.232   1.128   4.465  0.7787  0.8681  0.7769
 2253TIP3    H2 6766   4.188   0.998   4.529 -0.3082 -0.7023 -2.8906
 2254TIP3   OH2 6767   5.114   0.995   3.255  0.0482  0.0178 -0.1502
 2254TIP3    H1 6768   5.029   1.031   3.280 -0.5587 -0.3519 -1.5969
 2254TIP3    H2 6769   5.120   1.011   3.161  1.6729  0.2032 -0.0321
 2255TIP3   OH2 6770   2.529   5.016   0.123  0.0142 -0.2057  0.0252
 2255TIP3    H1 6771   2.478   4.979   0.051  2.1326 -0.3766 -1.4838
 2255TIP3    H2 6772   2.575   5.091   0.083 -0.2541  0.9039  1.7141
 2256TIP3   OH2 6773   4.210   5.734   1.465 -0.2407  0.8909 -0.4779
 2256TIP3    H1 6774   4.169   5.815   1.494 -0.4562  0.3245  0.8529
 2256TIP3    H2 6775   4.284   5.763   1.411 -0.1078  1.9821  0.2611
 2257TIP3   OH2 6776   5.405   4.372   4.602 -0.1997  0.1672  0.2299
 2257TIP3    H1 6777   5.339   4.308   4.575  0.4504 -0.1770 -0.5692
 2257TIP3    H2 6778   5.450   4.330   4.676 -0.4381  0.1260  0.3530
 2258TIP3   OH2 6779   1.048   0.348   1.323 -0.2723 -0.1515  0.4705
 2258TIP3    H1 6780   1.090   0.313   1.244 -1.1953 -0.6442  0.1665
 2258TIP3    H2 6781   1.057   0.443   1.315 -0.4446 -0.1873 -0.2959
 2259TIP3   OH2 6782   4.732   0.706   3.379  0.0693 -0.4602  0.1188
 2259TIP3    H1 6783   4.809   0.707   3.435 -0.6657 -1.7634  1.2259
 2259TIP3    H2 6784   4.703   0.614   3.381 -1.2018 -0.0987 -0.6946
 2260TIP3   OH2 6785   3.991   5.362   3.155 -0.5698 -0.5411  0.0840
 2260TIP3    H1 6786   3.904   5.371   3.117 -0.5973 -0.9378  0.0547
 2260TIP3    H2 6787   3.977   5.363   3.249 -0.3863  1.7844  0.1553
 2261TIP3   OH2 6788   5.665   1.731   1.379  0.1443  0.3184  0.0275
 2261TIP3    H1 6789   5.632   1.819   1.398  0.0580  0.2396  0.2482
 2261TIP3    H2 6790   5.616   1.703   1.302  0.6308  0.7169 -0.4331
 2262TIP3   OH2 6791   5.281   4.454   2.481 -0.1346  0.6149  1.1161
 2262TIP3    H1 6792   5.326   4.374   2.510 -0.8275 -0.5157 -0.7827
 2262TIP3    H2 6793   5.225   4.426   2.409 -0.0207  2.9289  0.0419
 2263TIP3   OH2 6794   0.497   5.544   3.350  0.2527  0.4394 -0.1329
 2263TIP3    H1 6795   0.489   5.624   3.298  1.5109 -0.1112 -1.2376
 2263TIP3    H2 6796   0.465   5.475   3.292 -2.2086  0.2441  1.3128
 2264TIP3   OH2 6797   2.045   4.666   3.219 -0.0577  0.3264  0.1798
 2264TIP3    H1 6798   2.029   4.645   3.311 -1.3130 -1.3521 -0.3743
 2264TIP3    H2 6799   1.959   4.692   3.184  0.2623  0.3095 -0.6576
 2265TIP3   OH2 6800   1.250   5.432   1.810  0.3595 -0.5603  0.5764
 2265TIP3    H1 6801   1.312   5.360   1.824 -0.0024 -0.8388  0.7709
 2265TIP3    H2 6802   1.231   5.429   1.716  1.0160 -0.1578  0.4235
 2266TIP3   OH2 6803   2.613   4.489   4.172 -0.9202  0.2980 -0.3023
 2266TIP3    H1 6804   2.686   4.428   4.183 -0.4071  0.7276 -1.1605
 2266TIP3    H2 6805   2.536   4.441   4.202 -0.4232 -0.4989 -0.2727
 2267TIP3   OH2 6806   1.879   0.724   4.730  0.4350  0.0140 -0.2956
 2267TIP3    H1 6807   1.829   0.742   4.809  2.0023  0.0060  0.7240
 2267TIP3    H2 6808   1.964   0.694   4.761  0.7704 -0.9234 -1.9790
 2268TIP3   OH2 6809   3.851   4.341   4.675  0.3018 -0.3784  0.1833
 2268TIP3    H1 6810   3.756   4.351   4.664  0.4483  1.1382  0.0281
 2268TIP3    H2 6811   3.861   4.287   4.753 -0.7167  1.5087  1.7276
 2269TIP3   OH2 6812   3.479   3.718   1.133  0.4495  0.1537 -0.1818
 2269TIP3    H1 6813   3.517   3.634   1.106  0.1061  0.4703 -1.7221
 2269TIP3    H2 6814   3.399   3.694   1.179 -0.3488 -0.3665 -1.7527
 2270TIP3   OH2 6815   5.647   3.423   1.237 -0.0277 -0.0680 -0.1059
 2270TIP3    H1 6816   5.703   3.496   1.262  0.4587  0.2466 -1.9694
 2270TIP3    H2 6817   5.616   3.387   1.320  0.6454  1.5246  0.8804
 2271TIP3   OH2 6818   0.484   2.331   0.595  0.3734 -0.2493  0.0840
 2271TIP3    H1 6819   0.469   2.425   0.592  0.0351 -0.3132 -2.5290
 2271TIP3    H2 6820   0.563   2.317   0.542 -0.5569 -1.5417 -1.0518
 2272TIP3   OH2 6821   2.695   2.460   3.950 -1.0246 -0.1769 -0.8407
 2272TIP3    H1 6822   2.639   2.421   4.017 -0.5783 -0.2329 -0.4980
 2272TIP3    H2 6823   2.735   2.536   3.993  0.9967 -1.4672 -0.3091
 2273TIP3   OH2 6824   0.126   4.345   1.520 -0.5298  0.4700  0.4734
 2273TIP3    H1 6825   0.079   4.321   1.440  0.7717  2.0519 -0.8469
 2273TIP3    H2 6826   0.203   4.287   1.521 -1.7740 -1.2865  1.9934
 2274TIP3   OH2 6827   3.526   5.605   0.729 -0.6089  0.4391  0.4378
 2274TIP3    H1 6828   3.432   5.590   0.720 -0.5504 -1.4851  2.2204
 2274TIP3    H2 6829   3.533   5.695   0.763 -1.6201  1.3277 -1.5363
 2275TIP3   OH2 6830   3.185   5.833   3.984 -0.0089  0.2429 -0.2214
 2275TIP3    H1 6831   3.252   5.766   3.971  0.5804  0.5744  0.9514
 2275TIP3    H2 6832   3.138   5.837   3.901  0.7201 -0.7748 -0.6976
 2276TIP3   OH2 6833   5.021   4.470   1.824  0.0962 -0.1384 -0.3722
 2276TIP3    H1 6834   5.098   4.415   1.809  0.1352  0.5099 -3.3004
 2276TIP3    H2 6835   4.954   4.434   1.765 -0.5186  1.6883 -0.8554
 2277TIP3   OH2 6836   1.674   4.266   2.908  0.3633 -0.3472 -0.3063
 2277TIP3    H1 6837   1.708   4.263   2.997 -0.1018  1.1212 -0.0606
 2277TIP3    H2 6838   1.749   4.243   2.853  0.3060 -2.7094  0.4966
 2278TIP3   OH2 6839   1.322   1.259   1.492 -0.0399 -0.4825 -0.4370
 2278TIP3    H1 6840   1.273   1.177   1.495  1.6949 -1.5950 -0.6036
 2278TIP3    H2 6841   1.414   1.232   1.494  0.6108  1.4092 -1.5105
 2279TIP3   OH2 6842   5.667   2.293   0.862 -0.2767 -0.1737 -0.2235
 2279TIP3    H1 6843   5.649   2.381   0.898 -0.4693  0.4439 -1.7667
 2279TIP3    H2 6844   5.606   2.236   0.909 -1.4938  0.8360 -0.5154
 2280TIP3   OH2 6845   3.976   1.588   3.080  0.5061 -0.3342 -0.3736
 2280TIP3    H1 6846   3.972   1.683   3.094  2.7277 -0.2328  0.0358
 2280TIP3    H2 6847   4.046   1.559   3.139  0.0509 -2.1882 -0.7056
 2281TIP3   OH2 6848   3.477   4.260   3.984 -0.3234 -0.5751  0.7116
 2281TIP3    H1 6849   3.540   4.246   3.913 -1.4773 -1.3618 -0.1917
 2281TIP3    H2 6850   3.448   4.173   4.008  0.4031 -0.3563  2.5224
 2282TIP3   OH2 6851   0.553   3.819   3.737  0.1502 -0.0188 -0.4539
 2282TIP3    H1 6852   0.548   3.872   3.816  1.5336 -0.8343  0.2133
 2282TIP3    H2 6853   0.478   3.760   3.741  1.2716 -1.4234  1.3073
 2283TIP3   OH2 6854   5.791   1.225   3.421 -0.4935 -0.2717 -0.9030
 2283TIP3    H1 6855   5.869   1.233   3.366 -1.0468  0.7853 -1.5698
 2283TIP3    H2 6856   5.721   1.268   3.370 -1.0310  0.7261  0.5971
 2284TIP3   OH2 6857   5.007   4.862   4.902 -0.0993 -0.3684 -0.2941
 2284TIP3    H1 6858   5.060   4.788   4.871  0.2139  0.5426 -2.0914
 2284TIP3    H2 6859   4.940   4.873   4.835 -0.1360  0.9796 -0.0624
 2285TIP3   OH2 6860   4.660   0.940   4.517 -0.0910 -0.4208 -0.2398
 2285TIP3    H1 6861   4.694   0.956   4.429 -0.0389 -0.8524 -0.2969
 2285TIP3    H2 6862   4.580   0.889   4.503  0.1447 -0.8537 -0.0130
 2286TIP3   OH2 6863   4.043   1.529   0.434 -0.3395  0.3224 -0.0832
 2286TIP3    H1 6864   4.126   1.483   0.451 -0.3448  0.8120  1.4474
 2286TIP3    H2 6865   4.019   1.503   0.346  0.4575 -1.3759  0.1590
 2287TIP3   OH2 6866   5.612   2.411   3.032 -0.5370 -0.5321 -0.0849
 2287TIP3    H1 6867   5.560   2.490   3.018 -1.6896 -1.2475  0.0567
 2287TIP3    H2 6868   5.634   2.381   2.944 -0.7445 -0.4749 -0.1570
 2288TIP3   OH2 6869   1.820   4.174   4.814 -0.0637  0.3040 -0.3444
 2288TIP3    H1 6870   1.852   4.201   4.900 -0.1221 -1.0002  0.0975
 2288TIP3    H2 6871   1.771   4.094   4.830  0.0723 -0.0561 -1.6235
 2289TIP3   OH2 6872   0.309   5.199   3.785  0.2968 -0.3591 -0.1527
 2289TIP3    H1 6873   0.321   5.284   3.743  0.9168  0.6588  1.9414
 2289TIP3    H2 6874   0.366   5.202   3.862 -2.4801 -1.1252  2.1245
 2290TIP3   OH2 6875   6.164   2.153   2.525  0.2802  0.5187  0.1464
 2290TIP3    H1 6876   6.242   2.123   2.573  0.2206 -1.1273 -0.7131
 2290TIP3    H2 6877   6.198   2.203   2.452  0.7354 -2.0248 -1.5049
 2291TIP3   OH2 6878   5.960   0.231   0.026 -0.1169  0.4555 -0.2051
 2291TIP3    H1 6879   6.054   0.214   0.019  0.0989  1.1312  0.7669
 2291TIP3    H2 6880   5.955   0.324   0.047 -0.9493  0.2105  0.7612
 2292TIP3   OH2 6881   0.399   2.828   2.518  0.1094  0.2955 -0.2982
 2292TIP3    H1 6882   0.371   2.819   2.427 -0.2515 -0.2239 -0.1406
 2292TIP3    H2 6883   0.467   2.896   2.516  0.6286 -0.2278 -1.0708
 2293TIP3   OH2 6884   2.493   0.346   3.284 -0.1141  0.4543  0.1509
 2293TIP3    H1 6885   2.538   0.427   3.308  3.5608 -0.8406 -1.5319
 2293TIP3    H2 6886   2.500   0.291   3.362  2.4681 -0.1077 -0.3808
 2294TIP3   OH2 6887   1.699   2.369   3.463  0.2081 -0.4688 -0.9051
 2294TIP3    H1 6888   1.760   2.413   3.522  0.8779 -0.9847 -1.2038
 2294TIP3    H2 6889   1.665   2.295   3.513 -0.4102 -0.0188 -0.6379
 2295TIP3   OH2 6890   1.884   1.754   5.153 -0.8566  0.0346 -0.1630
 2295TIP3    H1 6891   1.971   1.794   5.158 -0.2532 -1.1067 -1.0528
 2295TIP3    H2 6892   1.824   1.828   5.159  0.1778  0.8668  0.3094
 2296TIP3   OH2 6893   5.206   5.510   3.028  0.3018  0.5611 -0.2884
 2296TIP3    H1 6894   5.280   5.535   2.973 -0.6905 -0.3548 -2.1410
 2296TIP3    H2 6895   5.131   5.555   2.989 -0.2835  0.7287  0.9841
 2297TIP3   OH2 6896   0.174   4.505   0.689 -0.5325  0.0912  0.1837
 2297TIP3    H1 6897   0.231   4.432   0.713  0.7382  1.7699  2.6877
 2297TIP3    H2 6898   0.216   4.582   0.727 -3.8554  1.6148  1.1635
 2298TIP3   OH2 6899   4.016   3.675   2.314  0.1492  0.0850  0.5562
 2298TIP3    H1 6900   3.943   3.662   2.253  1.2433 -0.9355 -0.5685
 2298TIP3    H2 6901   4.018   3.596   2.367 -0.3880  0.6942  1.5239
 2299TIP3   OH2 6902   1.046   3.009   3.373  0.3555 -0.3393  0.1505
 2299TIP3    H1 6903   1.135   3.004   3.407 -0.0094  2.9738  1.9882
 2299TIP3    H2 6904   1.048   3.082   3.311 -0.7032 -1.4520 -1.2616
 2300TIP3   OH2 6905   6.334   1.445   1.777 -0.5744 -0.6951  0.0973
 2300TIP3    H1 6906   6.322   1.405   1.690 -0.2545 -0.5232 -0.0251
 2300TIP3    H2 6907   6.277   1.522   1.775  1.2270  0.6850 -0.8462
 2301TIP3   OH2 6908   3.046   3.981   0.835  0.5151  0.2619  0.2493
 2301TIP3    H1 6909   3.105   4.040   0.789  0.7149 -0.7184 -0.7971
 2301TIP3    H2 6910   2.967   4.032   0.850  0.4460  0.6146 -1.1945
 2302TIP3   OH2 6911   2.774  -0.014   3.329 -0.1994  0.7812  0.0207
 2302TIP3    H1 6912   2.866   0.012   3.340  0.1924  1.0738 -3.1018
 2302TIP3    H2 6913   2.725   0.067   3.346  0.3479  1.3051 -0.8017
 2303TIP3   OH2 6914   1.650   2.827   0.497 -0.1418 -0.0487  0.8844
 2303TIP3    H1 6915   1.710   2.792   0.563  0.5755  0.9146  0.7604
 2303TIP3    H2 6916   1.567   2.783   0.515  0.2977 -0.5339  1.8031
 2304TIP3   OH2 6917   0.618   4.304   0.996  0.1097 -0.8848 -0.5833
 2304TIP3    H1 6918   0.621   4.290   1.091 -1.8124  0.4339 -0.2701
 2304TIP3    H2 6919   0.567   4.231   0.963 -1.5131  0.0341 -0.2133
 2305TIP3   OH2 6920   1.436   3.604   1.051  0.1892 -0.2882  0.2768
 2305TIP3    H1 6921   1.479   3.543   0.991 -0.1486 -0.3868  0.1334
 2305TIP3    H2 6922   1.361   3.556   1.085  0.9091 -0.5681  1.5178
 2306TIP3   OH2 6923   4.080   5.180   3.552  0.3710 -0.1596  0.0334
 2306TIP3    H1 6924   4.120   5.123   3.618  0.5915  0.7181  0.6743
 2306TIP3    H2 6925   4.153   5.208   3.498  0.0895 -1.4949 -1.1009
 2307TIP3   OH2 6926   0.868   1.138   4.923 -0.3274  0.2248  0.2731
 2307TIP3    H1 6927   0.931   1.163   4.856  0.0367  4.2383  1.8520
 2307TIP3    H2 6928   0.920   1.129   5.003 -1.3367  0.1176  0.9368
 2308TIP3   OH2 6929   5.125   1.993   4.138 -0.0262  0.6657  0.2994
 2308TIP3    H1 6930   5.048   1.976   4.192 -0.8175  1.5076 -0.5199
 2308TIP3    H2 6931   5.199   1.972   4.195 -0.8515 -0.4233  1.0135
 2309TIP3   OH2 6932   5.444   2.118   4.842 -0.1367  0.1987  0.4151
 2309TIP3    H1 6933   5.524   2.065   4.841 -1.3288 -1.8009  2.0934
 2309TIP3    H2 6934   5.468   2.199   4.797  2.4932 -0.7712 -0.1058
 2310TIP3   OH2 6935   4.988   5.726   3.039  0.2897  0.4549  0.0846
 2310TIP3    H1 6936   4.954   5.781   2.968  0.2292  0.4768  0.1308
 2310TIP3    H2 6937   5.030   5.787   3.099  0.8900  0.3686 -0.2457
 2311TIP3   OH2 6938   0.258   5.347   4.487  0.2053  0.3212 -0.0325
 2311TIP3    H1 6939   0.204   5.339   4.567  2.9435  0.3174  1.9506
 2311TIP3    H2 6940   0.198   5.384   4.422 -2.0866  0.6874  2.1039
 2312TIP3   OH2 6941   1.079   4.340   2.730 -0.0295  0.5958  0.4868
 2312TIP3    H1 6942   0.984   4.325   2.730 -0.0429  0.2861  3.1342
 2312TIP3    H2 6943   1.091   4.424   2.773  0.9024  0.8497 -0.2297
 2313TIP3   OH2 6944   0.901   3.371   1.765 -0.2977  0.1232 -0.0302
 2313TIP3    H1 6945   0.933   3.448   1.813 -0.9342  0.8128 -0.6877
 2313TIP3    H2 6946   0.947   3.376   1.681 -0.2870 -0.2588 -0.0458
 2314TIP3   OH2 6947   2.465   5.528   0.961 -0.9142  0.1015  0.3613
 2314TIP3    H1 6948   2.545   5.532   0.907 -1.5088 -1.8946 -0.7679
 2314TIP3    H2 6949   2.489   5.473   1.035 -0.4085  2.0090  1.7147
 2315TIP3   OH2 6950   4.042   5.874   4.462  0.2322  0.6453 -0.2522
 2315TIP3    H1 6951   3.995   5.851   4.382  0.1234  0.4943 -0.1472
 2315TIP3    H2 6952   4.004   5.816   4.529  1.3875 -0.3365 -0.4045
 2316TIP3   OH2 6953   2.640   0.222   4.339 -0.6149 -0.3238  0.0976
 2316TIP3    H1 6954   2.628   0.290   4.272  0.1344  1.9621  2.1417
 2316TIP3    H2 6955   2.560   0.225   4.391 -0.0328 -0.0395  0.9961
 2317TIP3   OH2 6956   4.900   4.170   5.030  0.5556 -0.4114 -0.0289
 2317TIP3    H1 6957   4.934   4.237   4.972  0.9658 -1.8501 -1.5474
 2317TIP3    H2 6958   4.890   4.213   5.114 -0.1727  1.7961 -1.1824
 2318TIP3   OH2 6959   2.053   2.290   3.101  0.4726  0.0435 -0.1086
 2318TIP3    H1 6960   2.081   2.206   3.138  0.1548  0.3022  0.7530
 2318TIP3    H2 6961   2.072   2.283   3.007  0.1105 -1.1210 -0.1042
 2319TIP3   OH2 6962   1.207   2.927   2.354 -0.1216  0.6014 -0.1357
 2319TIP3    H1 6963   1.233   2.834   2.354  1.8924  1.1048  1.2641
 2319TIP3    H2 6964   1.166   2.941   2.439 -0.2530  1.0304 -0.2682
 2320TIP3   OH2 6965   5.276   4.958   3.706  0.2140 -0.0157 -0.3185
 2320TIP3    H1 6966   5.258   5.033   3.649 -0.5993  0.4681  0.5557
 2320TIP3    H2 6967   5.202   4.898   3.690  0.5801 -0.3980 -0.6096
 2321TIP3   OH2 6968   3.144   2.867   4.411  0.1660  0.4208  0.5600
 2321TIP3    H1 6969   3.136   2.937   4.346  1.6246 -0.1975 -0.3269
 2321TIP3    H2 6970   3.088   2.797   4.378 -0.7535  0.8747  1.0965
 2322TIP3   OH2 6971   6.070   1.134   4.629  0.4251 -0.0222  0.1246
 2322TIP3    H1 6972   6.101   1.168   4.546 -0.0997 -0.5674 -0.3092
 2322TIP3    H2 6973   6.145   1.141   4.688  0.6416  0.8544 -0.2451
 2323TIP3   OH2 6974   4.171   0.177   1.628  0.5333  0.1032 -0.6393
 2323TIP3    H1 6975   4.215   0.122   1.693  0.0715  1.6978  1.0907
 2323TIP3    H2 6976   4.114   0.117   1.581 -1.1693 -0.7155  2.2553
 2324TIP3   OH2 6977   5.228   5.883   0.913  0.6856  0.0508 -0.2312
 2324TIP3    H1 6978   5.272   5.808   0.873 -0.4902 -0.3315 -0.8427
 2324TIP3    H2 6979   5.208   5.941   0.840 -0.1569  0.0349 -0.0245
 2325TIP3   OH2 6980   4.560   1.987   3.295  0.1970 -0.1511  0.0132
 2325TIP3    H1 6981   4.542   1.984   3.389 -1.1427  0.1113 -0.2082
 2325TIP3    H2 6982   4.528   1.903   3.262 -0.7287  0.3522 -0.4114
 2326TIP3   OH2 6983   1.208   3.784   4.178 -0.0191 -0.5104 -0.0299
 2326TIP3    H1 6984   1.253   3.741   4.105  2.0374 -0.8151  1.3444
 2326TIP3    H2 6985   1.264   3.858   4.200  1.1529 -2.1692  3.1753
 2327TIP3   OH2 6986   3.066   4.893   4.402 -0.3378  0.3549  0.7121
 2327TIP3    H1 6987   3.061   4.988   4.396  1.0126  0.3931 -0.1192
 2327TIP3    H2 6988   3.054   4.862   4.312 -1.7132 -0.3374  1.0989
 2328TIP3   OH2 6989   3.132   3.483   1.491  0.1149  0.3908 -0.3940
 2328TIP3    H1 6990   3.142   3.405   1.436  1.1924 -0.0643  0.4298
 2328TIP3    H2 6991   3.037   3.500   1.491  0.0694  0.4581 -2.4265
 2329TIP3   OH2 6992   6.198   4.729   4.273  0.1014 -0.2606  0.0706
 2329TIP3    H1 6993   6.156   4.643   4.285 -0.4751  0.0413  0.2353
 2329TIP3    H2 6994   6.251   4.740   4.352  0.7561 -0.7867 -0.2848
 2330TIP3   OH2 6995   4.449   1.783   4.479 -0.7153 -0.1676 -0.5225
 2330TIP3    H1 6996   4.472   1.748   4.393  0.4959  1.2910 -0.8398
 2330TIP3    H2 6997   4.531   1.818   4.514 -0.6292 -2.8144  2.3124
 2331TIP3   OH2 6998   2.810   0.545   0.169 -0.2402 -0.1365  0.4881
 2331TIP3    H1 6999   2.806   0.537   0.074  0.8008 -0.1934  0.4368
 2331TIP3    H2 7000   2.760   0.470   0.202 -1.7803  0.6345  0.0040
 2332TIP3   OH2 7001   6.063   4.156   2.038 -0.0210 -0.2338 -0.2020
 2332TIP3    H1 7002   6.111   4.234   2.012 -1.7594  0.7111 -0.7663
 2332TIP3    H2 7003   6.033   4.175   2.127 -0.2617 -0.3585 -0.2561
 2333TIP3   OH2 7004   6.127   2.733   3.554 -0.0396 -0.1016 -0.2869
 2333TIP3    H1 7005   6.038   2.717   3.525 -0.4937  2.1163 -0.3139
 2333TIP3    H2 7006   6.129   2.826   3.575  2.2658 -0.0939 -0.2496
 2334TIP3   OH2 7007   4.842   0.323   4.009 -0.0748 -0.3347  0.8634
 2334TIP3    H1 7008   4.868   0.233   3.989  1.2115 -0.0602  1.2107
 2334TIP3    H2 7009   4.840   0.367   3.925 -0.4449 -0.6108  0.7230
 2335TIP3   OH2 7010   3.320   0.753   4.201  0.0842  0.1734  0.5204
 2335TIP3    H1 7011   3.316   0.753   4.105  1.5390 -0.7914  0.4181
 2335TIP3    H2 7012   3.359   0.838   4.223 -1.3060  0.8810  0.3521
 2336TIP3   OH2 7013   4.532   3.934   4.746 -0.0474  0.1636  0.5946
 2336TIP3    H1 7014   4.550   4.027   4.760  1.0053 -0.3224  3.0272
 2336TIP3    H2 7015   4.493   3.905   4.828  0.5840 -1.7641  0.2543
 2337TIP3   OH2 7016   4.423   5.602   0.821  0.5483  0.2703 -0.1028
 2337TIP3    H1 7017   4.330   5.590   0.837  0.0663  0.6147 -2.3391
 2337TIP3    H2 7018   4.455   5.648   0.899 -1.7279  2.6058 -0.3903
 2338TIP3   OH2 7019   4.475   0.665   1.455 -0.0789  0.5310 -0.4977
 2338TIP3    H1 7020   4.526   0.741   1.426  1.6694 -0.8000 -1.1307
 2338TIP3    H2 7021   4.529   0.590   1.431 -0.2663 -0.8385  2.8192
 2339TIP3   OH2 7022   5.386   5.816   4.362 -0.1049 -0.7535 -0.1254
 2339TIP3    H1 7023   5.387   5.730   4.321  0.7546 -0.7283 -0.1847
 2339TIP3    H2 7024   5.377   5.877   4.289 -1.4598 -0.8066 -0.0243
 2340TIP3   OH2 7025   2.225   3.981   1.183 -0.0060  0.1072  0.1247
 2340TIP3    H1 7026   2.190   3.906   1.231 -1.8720  0.6848 -0.2592
 2340TIP3    H2 7027   2.226   3.953   1.092  1.3609 -0.1854  0.2133
 2341TIP3   OH2 7028   0.653   0.704   3.513 -0.3557  0.0735 -0.1786
 2341TIP3    H1 7029   0.634   0.668   3.426  1.5283  1.0257 -1.0576
 2341TIP3    H2 7030   0.683   0.793   3.495  0.7816  0.0435  1.3695
 2342TIP3   OH2 7031   3.169   2.643   2.408 -0.3646 -0.0215 -0.8341
 2342TIP3    H1 7032   3.122   2.587   2.347 -0.5579 -0.1485 -0.5728
 2342TIP3    H2 7033   3.100   2.683   2.461 -0.2138  0.2869 -0.8705
 2343TIP3   OH2 7034   4.129   4.793   4.296 -0.7040 -0.1260 -0.5445
 2343TIP3    H1 7035   4.148   4.817   4.387 -2.1346  0.6982 -0.4343
 2343TIP3    H2 7036   4.096   4.703   4.301 -0.1271 -0.3328 -0.3423
 2344TIP3   OH2 7037   0.836   1.356   3.790  0.0199  0.0163  0.1264
 2344TIP3    H1 7038   0.793   1.438   3.816 -0.1083 -0.0639  0.1697
 2344TIP3    H2 7039   0.887   1.379   3.713  1.3865  0.5552  1.1442
 2345TIP3   OH2 7040   1.953   1.984   3.422  0.5846 -0.0816 -0.3511
 2345TIP3    H1 7041   1.954   2.075   3.452 -0.5161 -0.5276  1.2206
 2345TIP3    H2 7042   1.893   1.984   3.348 -0.5562  0.2637  0.5411
 2346TIP3   OH2 7043   6.320   2.132   3.518 -0.3742  0.3472  0.4992
 2346TIP3    H1 7044   6.306   2.170   3.605 -1.4345  0.2902  0.3643
 2346TIP3    H2 7045   6.309   2.038   3.532 -1.2290  0.3919  0.1888
 2347TIP3   OH2 7046   1.861   2.955   4.648  0.0785 -0.3093 -0.6021
 2347TIP3    H1 7047   1.846   3.033   4.595  1.3964  0.3137 -0.1152
 2347TIP3    H2 7048   1.948   2.968   4.686  0.0357 -1.6959  0.0557
 2348TIP3   OH2 7049   0.535   2.269   2.414 -0.1123 -0.4506  0.2231
 2348TIP3    H1 7050   0.494   2.186   2.438 -0.4226 -0.6777 -1.0472
 2348TIP3    H2 7051   0.497   2.332   2.475 -0.5963 -1.0606  0.5740
 2349TIP3   OH2 7052   4.308   5.177   4.250 -0.1906  0.0617  0.3125
 2349TIP3    H1 7053   4.319   5.141   4.338 -0.2768  0.0079  0.3018
 2349TIP3    H2 7054   4.229   5.231   4.256 -0.1306  0.1511  0.2977
 2350TIP3   OH2 7055   0.625   1.319   5.041  0.1213 -0.3582  0.1371
 2350TIP3    H1 7056   0.620   1.411   5.065  0.6375 -0.5839  1.1427
 2350TIP3    H2 7057   0.679   1.317   4.962 -0.7218  0.2838 -0.4775
 2351TIP3   OH2 7058   4.173   3.239   0.959  0.1712 -0.1362  0.2078
 2351TIP3    H1 7059   4.205   3.324   0.927 -0.1135 -0.1066 -0.0038
 2351TIP3    H2 7060   4.181   3.245   1.054 -1.0422  0.6281  0.2835
 2352TIP3   OH2 7061   0.890   0.592   2.085 -0.1837 -0.2431 -0.4793
 2352TIP3    H1 7062   0.947   0.669   2.084 -1.4895  0.7615 -0.4719
 2352TIP3    H2 7063   0.901   0.556   2.173 -0.9908  1.0645  0.1779
 2353TIP3   OH2 7064   3.281   5.528   1.238 -0.2251 -0.3457  0.0412
 2353TIP3    H1 7065   3.311   5.595   1.178 -0.2868 -0.4298 -0.0841
 2353TIP3    H2 7066   3.331   5.543   1.318  1.8377 -1.8600 -0.8753
 2354TIP3   OH2 7067   5.982   3.317   2.092 -0.0783 -0.0230  0.0233
 2354TIP3    H1 7068   5.937   3.243   2.050 -0.6001 -0.0336  0.5813
 2354TIP3    H2 7069   6.075   3.300   2.080 -0.2126 -0.2687 -0.7085
 2355TIP3   OH2 7070   4.921   2.710   0.635 -0.2806  0.1091  0.0022
 2355TIP3    H1 7071   4.964   2.740   0.555 -1.4500 -0.1368 -0.7451
 2355TIP3    H2 7072   4.925   2.785   0.694  0.2553  0.4234 -0.4230
 2356TIP3   OH2 7073   5.648   4.954   3.634  0.1142 -0.1624 -0.0767
 2356TIP3    H1 7074   5.597   5.022   3.589 -0.9293 -0.9434 -0.1198
 2356TIP3    H2 7075   5.627   4.874   3.587  0.3833 -0.7070  0.7174
 2357TIP3   OH2 7076   3.156   2.592   2.918  0.5542 -0.2934 -0.1156
 2357TIP3    H1 7077   3.200   2.580   2.834  1.0137 -1.7128  0.2925
 2357TIP3    H2 7078   3.206   2.538   2.979 -1.2694 -1.3596  0.5290
 2358TIP3   OH2 7079   3.764   0.467   1.450  0.0518  0.0106  0.0514
 2358TIP3    H1 7080   3.818   0.475   1.528  0.2879 -0.3259 -0.0739
 2358TIP3    H2 7081   3.720   0.552   1.442  1.4787  0.7410 -0.5101
 2359TIP3   OH2 7082   5.570   0.895   0.096 -0.0444  0.0077 -0.0433
 2359TIP3    H1 7083   5.476   0.884   0.088  0.0195 -0.2289 -0.5089
 2359TIP3    H2 7084   5.586   0.897   0.190 -0.5548  0.4408  0.0420
 2360TIP3   OH2 7085   6.068   1.583   3.897 -0.5440  0.2636  0.1808
 2360TIP3    H1 7086   5.999   1.547   3.952  0.6228  0.5337  1.8883
 2360TIP3    H2 7087   6.124   1.508   3.876 -0.4178  0.3478  0.2188
 2361TIP3   OH2 7088   5.083   3.118   3.739  0.0466 -0.1694  0.0605
 2361TIP3    H1 7089   5.122   3.136   3.653  1.2900 -0.9725  0.4309
 2361TIP3    H2 7090   5.045   3.031   3.731 -1.2317  0.3842 -0.1256
 2362TIP3   OH2 7091   1.312   3.520   4.765 -0.1984  0.7690 -0.2240
 2362TIP3    H1 7092   1.315   3.568   4.683  2.9334 -0.6810 -1.0878
 2362TIP3    H2 7093   1.360   3.574   4.827 -1.5787  1.3268  0.3964
 2363TIP3   OH2 7094   5.524   2.923   0.863  0.0808 -0.1458  0.1452
 2363TIP3    H1 7095   5.580   3.001   0.857 -2.3801  1.7086 -0.6365
 2363TIP3    H2 7096   5.518   2.891   0.773  1.5978 -1.7297  0.5514
 2364TIP3   OH2 7097   2.083   1.609   1.952  0.4428 -0.4815  0.0887
 2364TIP3    H1 7098   2.161   1.598   2.006  0.4560  0.7204  0.3336
 2364TIP3    H2 7099   2.064   1.703   1.955 -0.4972 -0.6276 -0.6885
 2365TIP3   OH2 7100   5.509   0.198   3.080 -0.4776 -0.4370 -0.2234
 2365TIP3    H1 7101   5.426   0.162   3.048 -1.0612  0.8100 -0.1489
 2365TIP3    H2 7102   5.519   0.158   3.167 -1.8500  0.6085  0.4726
 2366TIP3   OH2 7103   2.114   0.753   2.731  0.3670 -0.2263 -0.2026
 2366TIP3    H1 7104   2.134   0.824   2.793  0.8632 -0.8393  0.3457
 2366TIP3    H2 7105   2.136   0.791   2.645  2.9095 -0.4660  0.2622
 2367TIP3   OH2 7106   0.342   1.093   4.213  0.4222 -0.2473  0.6326
 2367TIP3    H1 7107   0.320   1.172   4.261 -0.3819  0.2869 -0.5757
 2367TIP3    H2 7108   0.265   1.036   4.223  1.1159 -1.0202  1.7509
 2368TIP3   OH2 7109   5.629   3.135   4.081 -0.3487  0.3285  0.3964
 2368TIP3    H1 7110   5.600   3.217   4.041 -0.6704  0.4523  0.8731
 2368TIP3    H2 7111   5.555   3.075   4.070  0.7923 -0.7655 -2.2950
 2369TIP3   OH2 7112   3.869   1.096   1.368  0.6493  0.2562  0.0204
 2369TIP3    H1 7113   3.877   1.048   1.450 -0.7262  0.8338  0.5284
 2369TIP3    H2 7114   3.889   1.187   1.392 -1.3894  0.7371  0.1445
 2370TIP3   OH2 7115   5.579   5.242   3.499  0.2772  0.0776 -0.1010
 2370TIP3    H1 7116   5.625   5.204   3.425 -2.6302  1.6194 -2.9367
 2370TIP3    H2 7117   5.595   5.336   3.493  1.2027  0.1462  2.2270
 2371TIP3   OH2 7118   1.603   3.388   2.254 -0.1711  0.2901 -0.6374
 2371TIP3    H1 7119   1.673   3.328   2.229 -1.1341 -1.0754 -0.1312
 2371TIP3    H2 7120   1.585   3.368   2.346 -2.3413 -0.5652 -1.1852
 2372TIP3   OH2 7121   2.325   5.741   3.168 -0.0913 -0.0150  0.1890
 2372TIP3    H1 7122   2.275   5.698   3.100 -0.5420  1.8183 -0.7124
 2372TIP3    H2 7123   2.259   5.777   3.228  0.2794 -0.9653  1.1959
 2373TIP3   OH2 7124   0.913   3.288   2.831 -0.5431 -0.0312  0.7677
 2373TIP3    H1 7125   0.920   3.241   2.748 -2.1055  1.3098 -0.1927
 2373TIP3    H2 7126   0.929   3.221   2.898 -2.2275 -1.8733 -0.5337
 2374TIP3   OH2 7127   0.532   2.615   4.101 -0.5488  0.3243 -0.0859
 2374TIP3    H1 7128   0.598   2.579   4.161 -0.5108  1.7991  0.8067
 2374TIP3    H2 7129   0.477   2.540   4.079  0.2145 -0.5235  0.7814
 2375TIP3   OH2 7130   3.460   0.752   3.687  0.3664 -0.0711  0.4200
 2375TIP3    H1 7131   3.512   0.830   3.708 -0.1742  0.5338 -0.4015
 2375TIP3    H2 7132   3.422   0.772   3.601 -1.4007 -0.4015  1.0908
 2376TIP3   OH2 7133   4.265   0.660   3.748 -0.2729  0.8324  0.2712
 2376TIP3    H1 7134   4.333   0.713   3.790  0.3025  0.6266 -0.3674
 2376TIP3    H2 7135   4.285   0.667   3.654  0.8242 -1.8304  0.2417
 2377TIP3   OH2 7136   0.484   0.309   3.130 -0.6888 -0.4298  0.0043
 2377TIP3    H1 7137   0.449   0.233   3.084 -0.7934 -0.2593 -0.2023
 2377TIP3    H2 7138   0.483   0.379   3.064 -1.2349 -0.0749  0.3851
 2378TIP3   OH2 7139   0.579   3.947   4.406 -0.3688 -0.0965  0.6332
 2378TIP3    H1 7140   0.531   3.866   4.420  0.0019 -0.3072  0.7034
 2378TIP3    H2 7141   0.603   3.976   4.493 -2.9900  1.6470  0.8831
 2379TIP3   OH2 7142   6.338   1.226   0.820  0.6237 -0.1567 -0.0514
 2379TIP3    H1 7143   6.243   1.230   0.837  1.0983  0.3656  3.0430
 2379TIP3    H2 7144   6.351   1.284   0.744 -1.7009 -1.8017 -1.8589
 2380TIP3   OH2 7145   0.802   3.190   1.372  0.3647 -0.0072 -0.2687
 2380TIP3    H1 7146   0.816   3.156   1.460  1.7391 -0.5002 -0.6511
 2380TIP3    H2 7147   0.864   3.142   1.317  0.7959  1.5219 -1.2062
 2381TIP3   OH2 7148   5.400   5.504   4.227  0.3379 -0.6114 -0.1016
 2381TIP3    H1 7149   5.334   5.514   4.295  0.8051 -1.0893  0.4362
 2381TIP3    H2 7150   5.382   5.419   4.188  0.6553 -0.7606  0.0721
 2382TIP3   OH2 7151   4.665   3.899   3.207 -0.0117 -0.1416  0.1004
 2382TIP3    H1 7152   4.672   3.901   3.112  2.0337 -0.1197  0.2133
 2382TIP3    H2 7153   4.634   3.987   3.231 -0.0002  0.0342 -0.5226
 2383TIP3   OH2 7154   4.686   3.474   4.543 -0.2436 -0.1283  0.0227
 2383TIP3    H1 7155   4.733   3.390   4.543  0.5300  0.3035 -0.2240
 2383TIP3    H2 7156   4.594   3.449   4.535 -0.1442 -1.0171  1.3606
 2384TIP3   OH2 7157   5.952   0.666   4.155  0.4042 -0.0555  0.3516
 2384TIP3    H1 7158   5.928   0.658   4.062 -1.4841  0.3124  0.7623
 2384TIP3    H2 7159   6.047   0.677   4.155  0.3399  0.8916 -1.6043
 2385TIP3   OH2 7160   1.562   3.262   1.831  0.3000 -0.2749 -0.1411
 2385TIP3    H1 7161   1.500   3.248   1.759 -0.4691  1.2120  0.2060
 2385TIP3    H2 7162   1.537   3.197   1.896  1.8662 -2.5943 -1.6767
 2386TIP3   OH2 7163   1.916   5.642   4.333 -0.3172 -0.1478 -0.5402
 2386TIP3    H1 7164   1.937   5.578   4.265 -0.0608  0.7152 -1.2799
 2386TIP3    H2 7165   1.861   5.593   4.395 -0.0493 -1.1072 -1.0391
 2387TIP3   OH2 7166   6.306   1.192   3.145 -0.1087  0.3322 -0.5099
 2387TIP3    H1 7167   6.259   1.255   3.200 -1.4057  0.0464 -1.2650
 2387TIP3    H2 7168   6.390   1.180   3.190 -0.1940  1.8971  0.1359
 2388TIP3   OH2 7169   6.148   4.939   5.070 -0.3223  0.0919  0.2280
 2388TIP3    H1 7170   6.222   4.910   5.124 -1.8863  1.3663  3.2869
 2388TIP3    H2 7171   6.166   5.032   5.053 -1.3384  0.5258  1.3591
 2389TIP3   OH2 7172   3.336   5.585   5.117  0.2921  0.0183  0.2895
 2389TIP3    H1 7173   3.244   5.562   5.129  0.3624  0.4289  1.8477
 2389TIP3    H2 7174   3.356   5.641   5.192  1.7033  0.2743 -0.2594
 2390TIP3   OH2 7175   6.070   2.421   0.758  0.3132  0.1410 -0.2402
 2390TIP3    H1 7176   6.057   2.332   0.725 -1.4988  0.7288 -1.2672
 2390TIP3    H2 7177   5.981   2.452   0.777  0.8615  1.9207 -0.4339
 2391TIP3   OH2 7178   3.475   3.125   2.279  0.5070  0.1052  0.0137
 2391TIP3    H1 7179   3.499   3.211   2.315  1.2105 -1.1848  2.9737
 2391TIP3    H2 7180   3.414   3.089   2.344 -2.0084 -0.6051 -2.5416
 2392TIP3   OH2 7181   2.776   0.806   3.261  0.1459  0.3127 -0.4167
 2392TIP3    H1 7182   2.801   0.884   3.212  0.2914 -0.6016 -1.8271
 2392TIP3    H2 7183   2.851   0.790   3.320  0.7485  0.4018 -1.1493
 2393TIP3   OH2 7184   0.904   3.311   5.171  0.0623  0.1638 -0.2988
 2393TIP3    H1 7185   0.883   3.344   5.084 -1.5114  0.6259  0.2231
 2393TIP3    H2 7186   0.890   3.386   5.229  0.8337 -0.2072  0.3822
 2394TIP3   OH2 7187   2.115   4.818   2.364 -0.2548  0.2172  0.1373
 2394TIP3    H1 7188   2.181   4.750   2.350  0.5946  1.4001 -2.2667
 2394TIP3    H2 7189   2.034   4.771   2.380  0.8331 -1.2915  1.5734
 2395TIP3   OH2 7190   4.448   2.458   4.463 -0.1978  0.2498  0.0435
 2395TIP3    H1 7191   4.451   2.553   4.475  0.1783  0.1014  1.2531
 2395TIP3    H2 7192   4.504   2.424   4.532  1.1530 -0.7858 -1.4888
 2396TIP3   OH2 7193   5.600   5.027   2.577 -1.2594 -0.3429  0.3860
 2396TIP3    H1 7194   5.640   4.995   2.496 -1.6317  0.5667 -0.1768
 2396TIP3    H2 7195   5.506   5.023   2.560 -1.4154 -1.5460  1.3415
 2397TIP3   OH2 7196   6.285   3.180   3.816  0.2645 -0.3838  0.2683
 2397TIP3    H1 7197   6.278   3.259   3.762 -1.0436 -1.3428 -1.0357
 2397TIP3    H2 7198   6.330   3.210   3.895  1.5442  1.2364 -0.9902
 2398TIP3   OH2 7199   4.976   4.108   2.804  0.1574  0.1298  0.0972
 2398TIP3    H1 7200   4.881   4.099   2.804  0.2241 -0.7168  0.7584
 2398TIP3    H2 7201   4.994   4.168   2.877  0.1705 -0.4207  0.5608
 2399TIP3   OH2 7202   0.411   1.798   3.010  0.2152 -0.2179  0.4773
 2399TIP3    H1 7203   0.395   1.704   3.008 -0.1108 -0.1736  0.7993
 2399TIP3    H2 7204   0.493   1.810   2.962 -0.4154 -0.5141 -0.7002
 2400TIP3   OH2 7205   5.165   1.237   1.468  0.7628  0.1964  0.3114
 2400TIP3    H1 7206   5.090   1.272   1.517 -0.3397  0.2813 -1.3561
 2400TIP3    H2 7207   5.221   1.313   1.452  0.9925  0.2196  1.1411
 2401TIP3   OH2 7208   1.878   0.141   2.503 -0.2696 -0.3025 -0.6199
 2401TIP3    H1 7209   1.824   0.074   2.544 -1.4202  0.9201 -0.0411
 2401TIP3    H2 7210   1.962   0.098   2.486 -0.7183 -1.6502  0.4096
 2402TIP3   OH2 7211   5.472   2.338   3.377 -0.3699  0.8582 -0.6565
 2402TIP3    H1 7212   5.482   2.286   3.456 -1.9368 -0.4273 -1.2506
 2402TIP3    H2 7213   5.560   2.343   3.340 -0.0408 -0.6308 -0.1212
 2403TIP3   OH2 7214   1.858   4.489   2.984  0.1222  0.8379  0.2238
 2403TIP3    H1 7215   1.796   4.454   3.048 -0.1188  2.2549  0.8027
 2403TIP3    H2 7216   1.804   4.526   2.915  0.3373 -2.7792 -2.1650
 2404TIP3   OH2 7217   4.937   5.421   4.610  0.3202  0.6602  0.0781
 2404TIP3    H1 7218   4.916   5.515   4.605 -0.0768  0.5814  0.2038
 2404TIP3    H2 7219   4.852   5.378   4.605  0.5368  0.2867 -0.4289
 2405TIP3   OH2 7220   4.563   0.551   4.274  0.2350 -0.3730 -0.6755
 2405TIP3    H1 7221   4.549   0.578   4.364  0.4426  0.1938 -0.8054
 2405TIP3    H2 7222   4.639   0.493   4.278  1.6107  1.3340 -0.7370
 2406TIP3   OH2 7223   3.716   1.998   3.458 -0.0124 -0.1903  0.4364
 2406TIP3    H1 7224   3.719   1.903   3.443  1.5579 -0.3380  1.4078
 2406TIP3    H2 7225   3.662   2.032   3.387 -2.5592 -2.0405  1.3109
 2407TIP3   OH2 7226   2.904   3.423   0.675 -0.1649 -0.5038  0.0858
 2407TIP3    H1 7227   2.940   3.476   0.604 -2.1562  1.6851  0.5994
 2407TIP3    H2 7228   2.978   3.411   0.735  0.7323  0.3062 -0.8065
 2408TIP3   OH2 7229   0.242   3.705   1.807  0.0001 -0.0070  0.2259
 2408TIP3    H1 7230   0.302   3.630   1.811 -0.6190 -0.5376 -0.3654
 2408TIP3    H2 7231   0.155   3.667   1.815 -0.2795  0.7690  1.0913
 2409TIP3   OH2 7232   2.610   0.561   2.256 -0.5318 -0.5028  0.3878
 2409TIP3    H1 7233   2.676   0.518   2.201  0.0681 -0.6957  1.2459
 2409TIP3    H2 7234   2.661   0.612   2.319 -1.1737 -1.2530  1.5360
 2410TIP3   OH2 7235   0.628   1.801   2.855 -0.3044  0.0854  0.1882
 2410TIP3    H1 7236   0.720   1.781   2.874  0.0971  1.4401 -0.1812
 2410TIP3    H2 7237   0.631   1.849   2.772 -1.2653  0.8516  0.5780
 2411TIP3   OH2 7238   3.031   5.415   4.802 -1.0122  0.0865 -0.3355
 2411TIP3    H1 7239   3.048   5.368   4.721 -0.2908  0.4247 -0.3927
 2411TIP3    H2 7240   3.109   5.471   4.814 -1.5432  0.7533  0.0779
 2412TIP3   OH2 7241   3.477   4.382   4.421  0.0835  0.1714 -0.2141
 2412TIP3    H1 7242   3.548   4.358   4.480  0.6201  0.1062 -0.8841
 2412TIP3    H2 7243   3.457   4.301   4.374 -0.4702  0.1762 -0.0041
 2413TIP3   OH2 7244   5.019   1.675   3.217  0.0537  0.5748  0.2909
 2413TIP3    H1 7245   5.070   1.682   3.298 -0.1544 -0.5835  0.5357
 2413TIP3    H2 7246   5.002   1.766   3.192  1.3958  0.9787  0.7321
 2414TIP3   OH2 7247   2.790   0.165   1.010  0.2107 -0.1498 -0.5733
 2414TIP3    H1 7248   2.772   0.106   0.937 -1.3463 -0.3625 -0.0624
 2414TIP3    H2 7249   2.772   0.252   0.976  2.8254  0.1518 -1.4274
 2415TIP3   OH2 7250   2.261   1.957   1.685 -0.2054 -0.3537 -0.9040
 2415TIP3    H1 7251   2.237   2.049   1.674 -0.2661 -0.2228  0.1940
 2415TIP3    H2 7252   2.345   1.948   1.639 -1.7568 -0.5778 -3.9445
 2416TIP3   OH2 7253   5.331   3.030   4.740  0.5393 -0.5915 -0.0026
 2416TIP3    H1 7254   5.383   3.081   4.679 -0.3926  3.4882  2.2364
 2416TIP3    H2 7255   5.247   3.018   4.696  1.1376 -1.2792 -1.0021
 2417TIP3   OH2 7256   4.825   4.036   4.688 -0.3745 -0.0086  0.2187
 2417TIP3    H1 7257   4.757   4.094   4.723 -2.2827 -1.0600 -1.5280
 2417TIP3    H2 7258   4.803   3.949   4.721 -1.5131 -0.8171 -2.4043
 2418TIP3   OH2 7259   6.217   0.738   4.108  0.3470  0.1871  0.2866
 2418TIP3    H1 7260   6.267   0.819   4.119  2.6809 -1.3091  1.5394
 2418TIP3    H2 7261   6.265   0.688   4.042  0.6128 -1.3097  1.5360
 2419TIP3   OH2 7262   0.779   0.513   0.314  0.6469 -0.1842 -0.2429
 2419TIP3    H1 7263   0.870   0.534   0.293  0.2389  1.3038 -0.6252
 2419TIP3    H2 7264   0.759   0.438   0.258  1.2906  0.1859 -0.9859
 2420TIP3   OH2 7265   1.431   0.590   2.075  0.7289 -0.6677 -0.1076
 2420TIP3    H1 7266   1.378   0.623   2.148  1.3922 -1.5654  0.8113
 2420TIP3    H2 7267   1.442   0.665   2.017 -2.0556 -0.5644 -0.6751
 2421TIP3   OH2 7268   0.814   4.187   4.824 -0.2352 -0.3728 -0.4549
 2421TIP3    H1 7269   0.910   4.192   4.820 -0.3312  2.1702 -1.4767
 2421TIP3    H2 7270   0.796   4.146   4.909  1.7636  0.6712  0.5669
 2422TIP3   OH2 7271   3.669   3.398   4.363  0.5565 -0.2021 -0.7542
 2422TIP3    H1 7272   3.729   3.454   4.312 -0.2296  0.7020 -0.7079
 2422TIP3    H2 7273   3.716   3.382   4.445  0.5617  0.8898 -0.5229
 2423TIP3   OH2 7274   4.454   5.746   4.922  0.3452 -0.6799 -0.8354
 2423TIP3    H1 7275   4.549   5.733   4.917  0.5109  0.4514 -0.8783
 2423TIP3    H2 7276   4.417   5.674   4.870  1.2686  0.0186 -2.5215
 2424TIP3   OH2 7277   4.447   4.635   1.146  0.0182  0.2304 -0.0241
 2424TIP3    H1 7278   4.443   4.709   1.206 -0.7902  0.3039 -0.1562
 2424TIP3    H2 7279   4.462   4.675   1.060 -3.4138  0.5480 -0.5902
 2425TIP3   OH2 7280   3.452   1.799   0.629 -0.9754 -0.2739  0.0244
 2425TIP3    H1 7281   3.436   1.799   0.723  0.4261  0.4393  0.2809
 2425TIP3    H2 7282   3.526   1.740   0.616  1.8562  2.9918 -0.0046
 2426TIP3   OH2 7283   3.144   2.100   3.018 -0.2637 -0.1827 -0.8017
 2426TIP3    H1 7284   3.133   2.035   2.948 -0.6172  0.5874 -1.4819
 2426TIP3    H2 7285   3.224   2.073   3.063  0.4253 -0.2492 -2.0135
 2427TIP3   OH2 7286   4.438   5.182   3.090  0.5695  0.3231 -0.6851
 2427TIP3    H1 7287   4.364   5.243   3.095 -1.3024 -1.9556  1.3187
 2427TIP3    H2 7288   4.418   5.127   3.014 -0.4871 -1.0508  0.5457
 2428TIP3   OH2 7289   4.788   3.793   4.144  0.0628  0.6736 -0.1682
 2428TIP3    H1 7290   4.699   3.820   4.166 -0.9883 -2.6515  0.2720
 2428TIP3    H2 7291   4.792   3.800   4.049 -1.0132  0.0059 -0.2829
 2429TIP3   OH2 7292   0.647   5.760   1.173 -0.3116 -0.5319  0.1535
 2429TIP3    H1 7293   0.646   5.683   1.229  0.1349  0.3825  1.4983
 2429TIP3    H2 7294   0.740   5.780   1.162 -0.4288  0.3476  0.6286
 2430TIP3   OH2 7295   4.021   2.497   2.479 -0.3378 -0.1596 -0.1100
 2430TIP3    H1 7296   4.018   2.482   2.573 -0.1510 -1.5845 -0.3072
 2430TIP3    H2 7297   3.936   2.466   2.446 -0.4271  0.3848 -0.4020
 2431TIP3   OH2 7298   2.993   0.294   2.122 -0.5780  0.9463 -0.6180
 2431TIP3    H1 7299   2.969   0.223   2.063  1.0424  0.4691 -0.7485
 2431TIP3    H2 7300   2.986   0.257   2.210 -1.5755  1.2162 -0.5753
 2432TIP3   OH2 7301   0.644   0.623   4.252 -0.5817 -0.0916 -0.0403
 2432TIP3    H1 7302   0.739   0.628   4.237 -0.6274  1.2947 -0.0372
 2432TIP3    H2 7303   0.616   0.544   4.206  0.9322 -1.9047  1.9774
 2433TIP3   OH2 7304   2.882   0.256   2.867 -0.7888 -0.1172 -0.4269
 2433TIP3    H1 7305   2.796   0.228   2.835 -0.6887 -0.5081 -0.3655
 2433TIP3    H2 7306   2.869   0.347   2.894 -1.2598 -0.2643 -0.1376
 2434TIP3   OH2 7307   4.585   2.941   1.191 -0.0182  0.4620 -0.4757
 2434TIP3    H1 7308   4.494   2.950   1.163 -0.4790 -0.7715  0.5352
 2434TIP3    H2 7309   4.593   2.849   1.217  1.5001  0.5699 -0.4711
 2435TIP3   OH2 7310   3.814   2.242   4.271 -0.4166 -1.2629 -0.0238
 2435TIP3    H1 7311   3.759   2.236   4.194  0.3009 -0.5243 -0.6124
 2435TIP3    H2 7312   3.753   2.243   4.345 -1.1219 -1.6163 -0.5964
 2436TIP3   OH2 7313   1.695   4.378   1.045 -0.0133 -0.4223 -0.6227
 2436TIP3    H1 7314   1.728   4.467   1.059 -2.1744  0.4069 -0.4424
 2436TIP3    H2 7315   1.771   4.330   1.011  0.8741  1.8304 -2.0831
 2437TIP3   OH2 7316   2.421   1.599   0.645 -0.0224 -0.5331 -0.0235
 2437TIP3    H1 7317   2.380   1.685   0.656  0.7880 -0.2871  1.2574
 2437TIP3    H2 7318   2.444   1.596   0.552 -2.2323 -0.3947 -0.6500
 2438TIP3   OH2 7319   3.387   4.931   3.304 -0.1622  0.4093 -0.7722
 2438TIP3    H1 7320   3.459   4.970   3.254  2.3386 -1.1834  1.2988
 2438TIP3    H2 7321   3.393   4.837   3.285 -0.6987  0.0734  0.5973
 2439TIP3   OH2 7322   2.823   0.257   3.125  0.1222 -0.5777 -0.1987
 2439TIP3    H1 7323   2.857   0.189   3.067 -0.5471 -1.4819  0.4341
 2439TIP3    H2 7324   2.883   0.257   3.199  0.7854  0.3442 -0.7178
 2440TIP3   OH2 7325   3.827   2.176   1.383 -0.1899 -0.1055 -0.3871
 2440TIP3    H1 7326   3.836   2.263   1.343  3.4268 -1.0436 -1.9367
 2440TIP3    H2 7327   3.762   2.132   1.328  0.1340  0.6774 -1.4390
 2441TIP3   OH2 7328   3.802   0.293   4.535  0.2907 -0.0613  0.0552
 2441TIP3    H1 7329   3.884   0.292   4.486  0.4146 -3.5350  0.1343
 2441TIP3    H2 7330   3.742   0.240   4.483 -0.7699 -0.6002  1.7499
 2442TIP3   OH2 7331   1.734   2.591   3.846  0.0761  0.4680 -0.5504
 2442TIP3    H1 7332   1.644   2.572   3.820 -0.9450  0.3387  2.7008
 2442TIP3    H2 7333   1.735   2.685   3.864 -0.3484 -0.0262  2.4223
 2443TIP3   OH2 7334   3.083   1.065   1.032 -0.2377 -0.0927 -0.7614
 2443TIP3    H1 7335   3.137   1.142   1.052  1.2759 -0.7137 -2.2140
 2443TIP3    H2 7336   3.068   1.024   1.118  0.6628  0.7122 -0.1960
 2444TIP3   OH2 7337   2.760   2.036   0.202  0.2476 -0.4811 -0.3090
 2444TIP3    H1 7338   2.702   1.959   0.201 -1.0778  0.4734  0.3446
 2444TIP3    H2 7339   2.727   2.092   0.132  1.7051 -0.8269 -1.3095
 2445TIP3   OH2 7340   3.162   2.881   4.945  0.8319  0.2757  1.0203
 2445TIP3    H1 7341   3.114   2.800   4.927  1.6651  0.4039 -2.6372
 2445TIP3    H2 7342   3.254   2.859   4.930  1.1329  1.7015  0.5725
 2446TIP3   OH2 7343   2.490   1.073   4.354  0.1447 -0.3949  0.0711
 2446TIP3    H1 7344   2.464   1.001   4.298 -3.6546  0.5792  0.3206
 2446TIP3    H2 7345   2.408   1.118   4.377  2.2357  4.6001 -0.8063
 2447TIP3   OH2 7346   5.430   1.023   4.135  0.0036  0.1563 -0.2355
 2447TIP3    H1 7347   5.378   1.104   4.132  0.4570  0.4265 -1.0080
 2447TIP3    H2 7348   5.391   0.967   4.069 -1.3125 -0.9012  1.3633
 2448TIP3   OH2 7349   1.717   5.488   3.712  0.4011  0.1387 -0.3375
 2448TIP3    H1 7350   1.753   5.461   3.796 -0.6644 -0.6734 -0.1226
 2448TIP3    H2 7351   1.629   5.519   3.732 -0.2801 -1.0992 -1.2793
 2449TIP3   OH2 7352   5.082   5.107   2.238 -0.4603  0.4206 -0.1878
 2449TIP3    H1 7353   5.151   5.152   2.188 -1.1145  2.2406  0.4572
 2449TIP3    H2 7354   5.101   5.129   2.329 -2.2482  1.5243 -0.0431
 2450TIP3   OH2 7355   1.029   2.267   1.634  0.1074  0.0348 -0.5507
 2450TIP3    H1 7356   1.103   2.320   1.605  0.8425 -1.3705 -1.3588
 2450TIP3    H2 7357   1.069   2.188   1.671 -0.9748 -1.1832 -1.8648
 2451TIP3   OH2 7358   4.685   2.085   2.691 -0.4077  0.7503 -0.4219
 2451TIP3    H1 7359   4.676   1.990   2.704  1.8894  0.5966  0.4726
 2451TIP3    H2 7360   4.779   2.101   2.698 -0.7724  3.1491 -0.3443
 2452TIP3   OH2 7361   1.201   2.579   4.547 -0.0551  0.1739 -0.6161
 2452TIP3    H1 7362   1.137   2.556   4.479  0.8753  1.9274 -2.1859
 2452TIP3    H2 7363   1.163   2.654   4.592 -0.6818 -1.0027  0.8959
 2453TIP3   OH2 7364   5.231   2.766   2.602  0.0562 -0.3663  0.8887
 2453TIP3    H1 7365   5.278   2.821   2.540 -1.4676  0.9001  0.7885
 2453TIP3    H2 7366   5.296   2.741   2.668  1.2851 -0.2916 -0.2723
 2454TIP3   OH2 7367   0.927   1.755   5.106  0.3569  0.2825  0.5058
 2454TIP3    H1 7368   0.914   1.679   5.050  1.5506  1.6438 -1.7752
 2454TIP3    H2 7369   0.993   1.727   5.170 -0.2980 -1.0081  0.6493
 2455TIP3   OH2 7370   5.729   2.251   1.854  0.0017  0.5207 -0.0071
 2455TIP3    H1 7371   5.671   2.326   1.843 -0.2429  0.1275 -1.5957
 2455TIP3    H2 7372   5.743   2.246   1.949 -1.6031  1.3347  0.3175
 2456TIP3   OH2 7373   3.766   4.169   3.578 -0.0945 -0.3533  0.1522
 2456TIP3    H1 7374   3.847   4.121   3.557  0.4549 -0.0278  1.4525
 2456TIP3    H2 7375   3.722   4.179   3.493  2.1363  1.1560 -0.9283
 2457TIP3   OH2 7376   2.185   3.113   0.831  0.3522 -0.3528  0.1893
 2457TIP3    H1 7377   2.268   3.070   0.852  0.8628  0.4356 -0.1785
 2457TIP3    H2 7378   2.177   3.184   0.895 -0.3565 -0.8037  0.6216
 2458TIP3   OH2 7379   2.042   1.338   2.097 -0.4929  0.5438  0.0218
 2458TIP3    H1 7380   2.058   1.322   2.004  0.1540  1.0805  0.0390
 2458TIP3    H2 7381   2.009   1.428   2.101 -0.7810  0.4307  0.2880
 2459TIP3   OH2 7382   3.761   3.263   1.650 -0.4408 -0.1090  0.4655
 2459TIP3    H1 7383   3.790   3.174   1.627  1.9635  0.9170 -0.8517
 2459TIP3    H2 7384   3.721   3.296   1.570  0.2609  0.5673  0.3807
 2460TIP3   OH2 7385   0.892   1.353   1.959 -0.0318 -0.2601  0.2118
 2460TIP3    H1 7386   0.886   1.412   1.883  0.0746  0.0226  0.4233
 2460TIP3    H2 7387   0.983   1.325   1.961 -0.0512 -0.3251  0.1930
 2461TIP3   OH2 7388   2.243   5.831   3.888 -0.7665 -0.4140 -0.4330
 2461TIP3    H1 7389   2.236   5.912   3.939  1.5693 -0.2293 -0.2844
 2461TIP3    H2 7390   2.248   5.860   3.797 -0.4400 -0.4034 -0.4151
 2462TIP3   OH2 7391   3.478   3.545   0.137  0.0461  0.4132  0.2527
 2462TIP3    H1 7392   3.567   3.575   0.151  0.4781 -0.2796 -0.9154
 2462TIP3    H2 7393   3.477   3.511   0.048 -1.2416 -0.1021  0.4344
 2463TIP3   OH2 7394   0.780   5.110   5.152  0.0902  0.3133 -0.0628
 2463TIP3    H1 7395   0.750   5.120   5.242  0.6201 -0.1825  0.1723
 2463TIP3    H2 7396   0.840   5.184   5.138  1.5748 -0.7009  0.6603
 2464TIP3   OH2 7397   3.974   3.472   1.544 -0.4412  0.3284  0.1567
 2464TIP3    H1 7398   3.923   3.440   1.619 -1.0165  1.1098  0.1193
 2464TIP3    H2 7399   4.065   3.464   1.572 -0.4613 -2.4429 -0.3183
 2465TIP3   OH2 7400   2.550   0.196   3.500 -0.6531  0.2623  0.4701
 2465TIP3    H1 7401   2.505   0.245   3.568  0.1951 -0.0773  1.3049
 2465TIP3    H2 7402   2.573   0.113   3.541  0.3594  0.2683 -0.0519
 2466TIP3   OH2 7403   3.963   3.943   4.322  0.3098 -0.2461 -0.2717
 2466TIP3    H1 7404   3.985   3.999   4.396 -0.1196  0.6942 -0.8402
 2466TIP3    H2 7405   4.048   3.914   4.289  0.4997 -0.9300  0.7623
 2467TIP3   OH2 7406   1.884  -0.012   0.281  0.5485 -0.1962 -0.0551
 2467TIP3    H1 7407   1.833  -0.054   0.212 -1.2220 -0.8604  1.5791
 2467TIP3    H2 7408   1.885   0.080   0.256 -0.0897 -0.4149 -0.9598
 2468TIP3   OH2 7409   1.594   1.686   3.081 -0.2437 -0.4717  0.1818
 2468TIP3    H1 7410   1.628   1.714   3.165 -3.2949  1.0411  1.0735
 2468TIP3    H2 7411   1.546   1.605   3.100  0.3286 -0.9774 -0.4546
 2469TIP3   OH2 7412   2.848   1.111   0.889 -0.4393 -0.3043 -0.4191
 2469TIP3    H1 7413   2.810   1.169   0.956  0.4540 -0.3002  0.1036
 2469TIP3    H2 7414   2.930   1.081   0.928  0.5861  0.4751 -1.9097
 2470TIP3   OH2 7415   5.898   5.458   3.356 -0.0319  0.4845 -0.1971
 2470TIP3    H1 7416   5.969   5.466   3.293  1.3837  2.2848  1.5067
 2470TIP3    H2 7417   5.919   5.379   3.406 -0.2568 -0.0067 -0.8610
 2471TIP3   OH2 7418   3.441   0.586   1.586  0.5394  0.0198  0.0227
 2471TIP3    H1 7419   3.415   0.497   1.563  0.8432 -0.0429 -0.0881
 2471TIP3    H2 7420   3.473   0.624   1.504  2.3939 -0.4720  0.4760
 2472TIP3   OH2 7421   2.804   4.708   0.990 -0.1740 -0.5593  0.0159
 2472TIP3    H1 7422   2.796   4.672   0.902 -3.1394  1.3471 -0.6099
 2472TIP3    H2 7423   2.855   4.788   0.979 -0.2173 -0.5216  0.0902
 2473TIP3   OH2 7424   1.486   3.019   3.287  0.1502 -0.0841 -0.2866
 2473TIP3    H1 7425   1.523   2.974   3.363 -1.0948 -0.1459  0.3084
 2473TIP3    H2 7426   1.533   3.102   3.282  1.5189 -0.8339 -0.5724
 2474TIP3   OH2 7427   0.812   1.639   3.601  0.1613  0.3838  0.3474
 2474TIP3    H1 7428   0.801   1.616   3.693 -0.3717 -0.9924 -0.0444
 2474TIP3    H2 7429   0.782   1.562   3.553 -1.4700  1.7893 -1.0190
 2475TIP3   OH2 7430   4.545   2.502   2.905  0.2851  0.1876  0.5894
 2475TIP3    H1 7431   4.602   2.555   2.850 -1.7810  0.6557 -1.2470
 2475TIP3    H2 7432   4.543   2.416   2.864 -2.0805  0.8235 -0.8404
 2476TIP3   OH2 7433   0.596   2.931   3.233 -0.6804 -0.1225 -0.1356
 2476TIP3    H1 7434   0.619   2.958   3.322  0.0728 -1.2205  0.0089
 2476TIP3    H2 7435   0.663   2.970   3.178 -1.5956  1.2457 -0.3569
 2477TIP3   OH2 7436   2.877   5.860   4.705 -0.0636  0.1540 -0.1718
 2477TIP3    H1 7437   2.880   5.799   4.631 -0.0557  0.3510 -0.3353
 2477TIP3    H2 7438   2.884   5.804   4.783 -3.4595 -0.4458 -0.1534
 2478TIP3   OH2 7439   4.898   1.877   3.473  0.2775  0.5369  0.2296
 2478TIP3    H1 7440   4.940   1.904   3.391  1.5374 -2.1591 -0.1183
 2478TIP3    H2 7441   4.828   1.817   3.445  0.3481  0.0434  1.0827
 2479TIP3   OH2 7442   2.452   2.471   1.329  0.3014 -0.3666 -0.1235
 2479TIP3    H1 7443   2.389   2.400   1.341  0.5632 -0.5987 -0.0962
 2479TIP3    H2 7444   2.448   2.491   1.235  1.2159 -1.3709 -0.4065
 2480TIP3   OH2 7445   1.763   2.573   2.742 -0.4598  0.4461 -0.7684
 2480TIP3    H1 7446   1.820   2.573   2.666 -0.7481  0.9168 -0.9926
 2480TIP3    H2 7447   1.821   2.590   2.816 -0.3207  1.0025 -1.0032
 2481TIP3   OH2 7448   5.094   0.963   0.630 -0.1358 -0.2127  0.2226
 2481TIP3    H1 7449   5.036   1.032   0.664  0.8049  0.5865  0.2302
 2481TIP3    H2 7450   5.170   0.965   0.687  0.2235 -0.7598 -0.2337
 2482TIP3   OH2 7451   1.514   5.360   2.247  0.1403  0.1365  0.2585
 2482TIP3    H1 7452   1.602   5.386   2.276  1.4202 -2.4414 -1.0153
 2482TIP3    H2 7453   1.502   5.272   2.283 -0.8632 -0.5671 -1.6663
 2483TIP3   OH2 7454   4.420   3.465   2.151  0.2497 -0.3754 -0.2068
 2483TIP3    H1 7455   4.439   3.549   2.109  1.1240  0.9575  2.5984
 2483TIP3    H2 7456   4.327   3.451   2.137 -0.0259  1.3411 -0.2948
 2484TIP3   OH2 7457   2.320   2.642   0.747 -0.2787 -0.8020 -0.5472
 2484TIP3    H1 7458   2.396   2.695   0.722 -1.9644  1.3228 -1.3800
 2484TIP3    H2 7459   2.325   2.637   0.843  1.3745 -1.5329 -0.6169
 2485TIP3   OH2 7460   4.885   2.678   4.198  0.3770 -0.4843  0.7529
 2485TIP3    H1 7461   4.932   2.596   4.181 -0.8259 -1.3533  1.4838
 2485TIP3    H2 7462   4.891   2.689   4.293 -0.7858 -0.5606  0.8463
 2486TIP3   OH2 7463   2.401   0.381   3.623  0.4549 -1.0211 -0.3983
 2486TIP3    H1 7464   2.322   0.389   3.677  2.3307 -0.0718  2.4369
 2486TIP3    H2 7465   2.401   0.461   3.569 -0.2378 -0.7446 -0.0062
 2487TIP3   OH2 7466   5.367   2.930   2.437  0.3899  0.7055 -0.1149
 2487TIP3    H1 7467   5.368   2.861   2.370 -0.2733  0.5694  0.0091
 2487TIP3    H2 7468   5.450   2.976   2.425  1.2557 -0.6713  0.3834
 2488TIP3   OH2 7469   0.554   4.485   3.594  0.3312  0.3555  0.0595
 2488TIP3    H1 7470   0.581   4.413   3.537 -2.3931 -1.7015  1.1545
 2488TIP3    H2 7471   0.492   4.536   3.542 -1.3412 -0.9145  0.6916
 2489TIP3   OH2 7472   1.544   4.810   3.008  0.6500 -0.6647  0.0445
 2489TIP3    H1 7473   1.476   4.830   3.073 -0.7840 -2.4909 -0.7668
 2489TIP3    H2 7474   1.565   4.894   2.968 -2.4141 -0.2025 -0.8364
 2490TIP3   OH2 7475   3.852   0.981   4.223 -0.3587  0.1977  0.6214
 2490TIP3    H1 7476   3.838   0.969   4.317 -0.2821 -3.5790  0.3070
 2490TIP3    H2 7477   3.764   0.971   4.185 -0.2157  0.4740  0.2211
 2491TIP3   OH2 7478   5.623   5.282   1.243 -0.3484  0.2182  0.3635
 2491TIP3    H1 7479   5.612   5.188   1.229  1.6586 -0.0632  0.2752
 2491TIP3    H2 7480   5.709   5.289   1.286 -0.3680  2.0279  0.1619
 2492TIP3   OH2 7481   3.291   5.910   4.790 -0.1556 -0.1944 -0.6341
 2492TIP3    H1 7482   3.281   5.980   4.726 -0.2582 -0.9727 -1.4951
 2492TIP3    H2 7483   3.224   5.928   4.856 -0.0473  0.6231 -0.7370
 2493TIP3   OH2 7484   4.321   1.937   1.491  0.0533 -0.0212  0.5665
 2493TIP3    H1 7485   4.371   1.919   1.412  0.0700  1.0226  0.3274
 2493TIP3    H2 7486   4.252   1.997   1.463 -0.8251 -0.7688  1.0635
 2494TIP3   OH2 7487   5.325   2.491   2.226 -0.0033  0.2077 -0.2068
 2494TIP3    H1 7488   5.273   2.479   2.305 -2.7158  0.8170 -1.7424
 2494TIP3    H2 7489   5.372   2.408   2.214  1.7627  0.6371  2.7752
 2495TIP3   OH2 7490   2.437   0.919   2.582  0.2278 -0.2334  0.0273
 2495TIP3    H1 7491   2.383   0.849   2.547  0.8808 -0.7123 -0.0393
 2495TIP3    H2 7492   2.460   0.890   2.670  0.9080 -0.3347 -0.1791
 2496TIP3   OH2 7493   5.474   0.691   4.696 -0.3104 -0.0340  0.2302
 2496TIP3    H1 7494   5.482   0.768   4.639  0.7973  0.1583  0.6233
 2496TIP3    H2 7495   5.400   0.642   4.659  0.2059  0.2141 -1.2045
 2497TIP3   OH2 7496   4.037   1.774   0.258 -0.1346 -0.6836  0.8133
 2497TIP3    H1 7497   4.020   1.805   0.347  2.3175 -0.1799  1.1803
 2497TIP3    H2 7498   4.033   1.678   0.265 -1.6098 -0.6195  1.0616
 2498TIP3   OH2 7499   3.385   0.547   2.402 -0.1738 -0.0252  0.1548
 2498TIP3    H1 7500   3.305   0.519   2.359 -1.5627  3.4453  0.1205
 2498TIP3    H2 7501   3.371   0.528   2.495 -0.4076 -0.7360 -0.0250
 2499TIP3   OH2 7502   3.480   3.990   4.058 -0.3080 -0.2678  0.5860
 2499TIP3    H1 7503   3.499   3.902   4.092 -0.2756 -0.6045 -0.2941
 2499TIP3    H2 7504   3.498   3.984   3.964 -1.8171  0.2518  0.2526
 2500TIP3   OH2 7505   3.461   2.186   1.944  0.3135  0.4124  0.0292
 2500TIP3    H1 7506   3.517   2.248   1.990  0.5763  0.2380 -0.0491
 2500TIP3    H2 7507   3.522   2.123   1.905  0.0371 -0.1865  0.5266
 2501TIP3   OH2 7508   0.360   0.008   1.500 -0.0642 -0.3632  0.2737
 2501TIP3    H1 7509   0.310   0.044   1.573 -0.5631 -2.7695  1.2300
 2501TIP3    H2 7510   0.446   0.051   1.506 -1.0802  1.7847  0.2993
 2502TIP3   OH2 7511   0.913   3.541   0.300 -0.3826  0.1422  0.2166
 2502TIP3    H1 7512   0.923   3.446   0.290  0.0670 -0.0283  2.0061
 2502TIP3    H2 7513   1.002   3.575   0.293 -0.1936  0.1275  2.1934
 2503TIP3   OH2 7514   5.208   2.883   2.983 -0.5139 -0.7604  0.4018
 2503TIP3    H1 7515   5.251   2.822   2.924 -0.0533 -1.4293  1.3972
 2503TIP3    H2 7516   5.116   2.857   2.983 -0.0548 -2.6644  2.1611
 2504TIP3   OH2 7517   1.598   4.444   0.253 -0.1810 -0.0073  0.4395
 2504TIP3    H1 7518   1.526   4.382   0.267  0.3609 -0.5969  0.6837
 2504TIP3    H2 7519   1.633   4.422   0.167 -0.4596  0.4638  0.1983
 2505TIP3   OH2 7520   5.959   3.954   0.558 -0.2823 -0.2269 -0.4088
 2505TIP3    H1 7521   5.889   4.018   0.574  0.0404  0.3102 -1.0857
 2505TIP3    H2 7522   6.037   3.997   0.592 -0.4901 -1.4725  1.8266
 2506TIP3   OH2 7523   1.078   4.367   0.656 -0.1641  0.1083  0.1948
 2506TIP3    H1 7524   1.158   4.329   0.694  0.4890  1.2685  0.0291
 2506TIP3    H2 7525   1.028   4.291   0.626  0.6647 -0.6722  0.7139
 2507TIP3   OH2 7526   3.009   5.566   1.258 -0.5134 -0.3511  0.1365
 2507TIP3    H1 7527   3.079   5.501   1.256 -1.1150 -1.0114 -0.5197
 2507TIP3    H2 7528   3.053   5.650   1.256  0.2858 -0.7112 -2.7882
 2508TIP3   OH2 7529   1.450   1.098   3.385 -0.0344 -0.1164 -0.1507
 2508TIP3    H1 7530   1.455   1.122   3.477  0.8038 -0.6040 -0.0603
 2508TIP3    H2 7531   1.534   1.056   3.366  0.5899  1.5955 -1.6023
 2509TIP3   OH2 7532   0.686   5.151   1.190 -0.4339 -0.4668  0.1541
 2509TIP3    H1 7533   0.767   5.136   1.239 -1.8312 -0.9744  2.4729
 2509TIP3    H2 7534   0.664   5.065   1.153 -0.1411 -0.4381 -0.0806
 2510TIP3   OH2 7535   0.033   5.109   0.557 -0.1664 -0.1636  0.1279
 2510TIP3    H1 7536  -0.009   5.175   0.613 -1.1990 -0.8000  0.1434
 2510TIP3    H2 7537  -0.013   5.028   0.578  0.8469 -0.8172 -0.1477
 2511TIP3   OH2 7538   1.852   5.307   3.558  0.8904  0.5135  0.2922
 2511TIP3    H1 7539   1.781   5.242   3.560  0.8830  0.5318  0.5823
 2511TIP3    H2 7540   1.821   5.378   3.614  1.1368  0.5240  0.4145
 2512TIP3   OH2 7541   5.272   3.591   4.593  0.0287 -0.4346 -0.4190
 2512TIP3    H1 7542   5.260   3.560   4.503  1.1347 -1.2246 -0.3201
 2512TIP3    H2 7543   5.335   3.662   4.587 -1.1063  0.5924 -0.4324
 2513TIP3   OH2 7544   3.231   2.366   3.114 -0.0069 -0.1758  0.4637
 2513TIP3    H1 7545   3.140   2.340   3.122 -0.4199  0.5945 -1.3608
 2513TIP3    H2 7546   3.280   2.285   3.123 -0.9445 -0.7945  0.1122
 2514TIP3   OH2 7547   4.660   2.658   3.688 -0.0298  0.1676  0.7167
 2514TIP3    H1 7548   4.687   2.610   3.766  0.3175  0.1090  0.5624
 2514TIP3    H2 7549   4.698   2.609   3.615 -1.0507 -0.2592  0.4490
 2515TIP3   OH2 7550   1.712   2.356   0.502  0.2772  0.2075 -0.1361
 2515TIP3    H1 7551   1.741   2.275   0.546  1.1283  1.2439  1.3036
 2515TIP3    H2 7552   1.792   2.392   0.465 -0.1467  0.2764 -0.9906
 2516TIP3   OH2 7553   6.246   2.460   0.564  0.1743 -0.4167  0.0964
 2516TIP3    H1 7554   6.201   2.422   0.639  1.1290  0.0059  0.9092
 2516TIP3    H2 7555   6.184   2.523   0.528  0.6692  1.3810  2.2096
 2517TIP3   OH2 7556   1.682   0.834   4.890 -0.5050 -0.1115 -0.4873
 2517TIP3    H1 7557   1.632   0.786   4.956  0.3284 -1.8030 -1.0252
 2517TIP3    H2 7558   1.672   0.926   4.914 -3.1421 -0.4131 -0.0646
 2518TIP3   OH2 7559   2.932   2.921   5.107 -0.3453  0.1892  0.1629
 2518TIP3    H1 7560   2.935   2.840   5.157  0.1497 -1.5893 -2.5088
 2518TIP3    H2 7561   3.016   2.923   5.061 -0.6412  1.8647 -0.3648
 2519TIP3   OH2 7562   3.251   1.213   1.763 -0.3697  0.6234  0.0020
 2519TIP3    H1 7563   3.333   1.188   1.721 -0.4941  0.2960 -0.0481
 2519TIP3    H2 7564   3.229   1.298   1.724 -0.4882  0.3200 -0.5925
 2520TIP3   OH2 7565   3.286   0.269   4.011  0.2011 -0.4787 -0.1171
 2520TIP3    H1 7566   3.296   0.209   4.085  0.0619  0.6402  0.8358
 2520TIP3    H2 7567   3.251   0.349   4.049  1.1427  0.5098 -1.2175
 2521TIP3   OH2 7568   5.268   0.977   0.945  0.4764  0.1809 -0.0968
 2521TIP3    H1 7569   5.236   1.061   0.977  2.1680  0.7628  0.1371
 2521TIP3    H2 7570   5.207   0.913   0.982 -1.8491  1.3714 -1.6317
 2522TIP3   OH2 7571   4.471   0.938   4.140 -0.3114 -0.4502  0.3095
 2522TIP3    H1 7572   4.395   0.888   4.112  0.0740 -0.0162 -1.6827
 2522TIP3    H2 7573   4.435   1.015   4.184 -1.0454 -0.2511 -0.6101
 2523TIP3   OH2 7574   1.503   3.301   4.334 -0.3231 -0.2564  0.3126
 2523TIP3    H1 7575   1.496   3.389   4.298  1.0918 -0.5822 -0.8423
 2523TIP3    H2 7576   1.504   3.314   4.429  0.1910  1.0076  0.1546
 2524TIP3   OH2 7577   4.285   2.133   1.690  0.8724  0.1246  0.1875
 2524TIP3    H1 7578   4.213   2.082   1.725  0.5187  0.4732 -0.0324
 2524TIP3    H2 7579   4.317   2.082   1.615 -0.7965  1.1660 -1.3252
 2525TIP3   OH2 7580   2.025   5.414   0.885  0.1120  0.0304  0.3678
 2525TIP3    H1 7581   2.061   5.489   0.933  0.2136 -0.7278  1.4880
 2525TIP3    H2 7582   2.032   5.340   0.945 -0.6163 -0.7532 -0.4740
 2526TIP3   OH2 7583   5.482   2.888   0.595 -0.6084 -0.3258  0.3235
 2526TIP3    H1 7584   5.535   2.937   0.531 -1.1490  1.0480  0.8974
 2526TIP3    H2 7585   5.469   2.802   0.554  3.0311 -1.2040  0.6521
 2527TIP3   OH2 7586   3.619   0.451   1.136  0.1581 -0.5764 -0.2201
 2527TIP3    H1 7587   3.631   0.528   1.192 -1.4210  0.2314 -0.9272
 2527TIP3    H2 7588   3.546   0.403   1.176  0.6938 -1.3677 -0.1614
 2528TIP3   OH2 7589   2.280   3.266   1.132  0.2680 -0.5963  0.0819
 2528TIP3    H1 7590   2.276   3.323   1.209  0.9416 -1.3552  0.7051
 2528TIP3    H2 7591   2.195   3.278   1.089 -0.6518 -1.1111  1.6555
 2529TIP3   OH2 7592   3.721   0.881   4.462 -0.1802 -0.1586  0.4995
 2529TIP3    H1 7593   3.660   0.809   4.475  0.7655 -1.6986 -2.6355
 2529TIP3    H2 7594   3.666   0.960   4.467 -1.6652 -1.2003  1.5851
 2530TIP3   OH2 7595   6.019   1.153   2.502 -0.6910  0.0609  0.4232
 2530TIP3    H1 7596   6.001   1.245   2.485  4.3465  1.1954 -0.3366
 2530TIP3    H2 7597   6.011   1.111   2.416 -1.7342  0.0269  0.5284
 2531TIP3   OH2 7598   3.740   1.145   5.161  0.5501  0.3292  0.2280
 2531TIP3    H1 7599   3.782   1.121   5.079 -0.2402  0.2884 -0.1725
 2531TIP3    H2 7600   3.666   1.085   5.169 -0.0081  1.0297  0.4407
 2532TIP3   OH2 7601   3.762   5.037   1.529 -0.0521  0.1878  0.2966
 2532TIP3    H1 7602   3.678   5.080   1.548 -0.5937 -0.9455  0.5552
 2532TIP3    H2 7603   3.757   4.954   1.577  0.9098 -0.2243 -0.3048
 2533TIP3   OH2 7604   0.323   3.239   4.592  0.1704 -0.6278  0.1270
 2533TIP3    H1 7605   0.350   3.311   4.650 -2.1142  1.4168 -1.1648
 2533TIP3    H2 7606   0.342   3.160   4.643  1.5981  0.8952  2.1652
 2534TIP3   OH2 7607   2.324   3.904   3.043 -1.0140  0.5885  0.7718
 2534TIP3    H1 7608   2.411   3.942   3.049 -0.8201  0.3122 -0.1813
 2534TIP3    H2 7609   2.267   3.966   3.088 -0.3352  0.7870  1.3639
 2535TIP3   OH2 7610   4.399   4.302   4.283 -0.5008 -0.7391  0.2766
 2535TIP3    H1 7611   4.344   4.284   4.207 -1.9567  0.0655  1.0866
 2535TIP3    H2 7612   4.473   4.351   4.248 -0.5668 -1.3724 -0.7710
 2536TIP3   OH2 7613   4.376   5.091   0.202  0.2834  0.0408 -0.6017
 2536TIP3    H1 7614   4.412   5.153   0.265  1.7356 -0.9347 -0.4195
 2536TIP3    H2 7615   4.298   5.134   0.168 -1.2697  0.1423  2.6863
 2537TIP3   OH2 7616   0.216   4.982   2.509  0.6751 -0.7170  0.3042
 2537TIP3    H1 7617   0.225   5.036   2.430  1.3088 -2.8990 -1.1844
 2537TIP3    H2 7618   0.305   4.957   2.532  0.3311 -1.9653  0.3458
 2538TIP3   OH2 7619   5.493   4.323   4.851  0.0267 -0.1457  0.0527
 2538TIP3    H1 7620   5.460   4.400   4.898 -0.8593 -0.7244  0.4120
 2538TIP3    H2 7621   5.488   4.253   4.916 -1.2414 -0.9739 -0.8884
 2539TIP3   OH2 7622   1.848   0.584   1.816  0.1072 -0.3192 -0.2286
 2539TIP3    H1 7623   1.836   0.489   1.813  0.4535 -0.4251  0.9772
 2539TIP3    H2 7624   1.772   0.620   1.771  0.3483 -1.1824 -1.3498
 2540TIP3   OH2 7625   4.006   0.867   2.994  0.2020  0.3276  0.2239
 2540TIP3    H1 7626   4.092   0.874   3.035  0.6118  1.3112 -0.7396
 2540TIP3    H2 7627   3.973   0.957   2.993  0.0914  0.2911 -1.3274
 2541TIP3   OH2 7628   3.030   0.148   3.322 -0.4026 -0.0615  0.2259
 2541TIP3    H1 7629   3.099   0.139   3.256 -0.7591  0.7408 -0.2673
 2541TIP3    H2 7630   3.077   0.162   3.404  0.0464  1.4019 -0.2431
 2542TIP3   OH2 7631   5.417   4.940   2.864  0.1939  0.3522 -0.5583
 2542TIP3    H1 7632   5.384   4.947   2.774  1.2808  1.4210 -0.9114
 2542TIP3    H2 7633   5.462   4.856   2.867 -2.4084 -1.1312 -0.0714
 2543TIP3   OH2 7634   3.351   2.317   2.490 -0.1118  0.4312 -0.6068
 2543TIP3    H1 7635   3.267   2.317   2.444  0.5188  1.7679 -1.8309
 2543TIP3    H2 7636   3.395   2.396   2.460  0.8338  0.7472  1.4484
 2544TIP3   OH2 7637   2.582   4.245   3.834 -0.0386 -0.3292  0.6549
 2544TIP3    H1 7638   2.558   4.210   3.748  2.3558  0.0801 -0.2348
 2544TIP3    H2 7639   2.498   4.269   3.873 -1.1674  0.2299 -1.8836
 2545TIP3   OH2 7640   3.167   0.669   2.003 -0.2900 -0.4375 -0.5819
 2545TIP3    H1 7641   3.106   0.621   1.947 -0.0480 -1.1891 -0.2114
 2545TIP3    H2 7642   3.142   0.761   1.992 -2.3684 -0.7938  0.5577
 2546TIP3   OH2 7643   5.900   5.476   3.961 -0.0156 -0.0840  0.0070
 2546TIP3    H1 7644   5.845   5.471   3.883 -0.3498 -1.6072  0.3159
 2546TIP3    H2 7645   5.893   5.568   3.988 -2.3258 -0.1802 -0.0236
 2547TIP3   OH2 7646   2.047   1.064   4.963  0.5870 -0.3070  0.0979
 2547TIP3    H1 7647   1.983   1.017   4.908 -3.2058  1.6016  2.4881
 2547TIP3    H2 7648   2.083   1.131   4.905  0.4115 -1.3785 -1.3185
 2548TIP3   OH2 7649   2.142   0.073   0.352  0.1238  0.3762 -0.0047
 2548TIP3    H1 7650   2.069   0.011   0.357  0.7380 -0.3378  0.2745
 2548TIP3    H2 7651   2.104   0.151   0.311 -1.0396  0.3785  1.0011
 2549TIP3   OH2 7652   5.119   4.272   3.023  0.0451  0.6145 -0.0245
 2549TIP3    H1 7653   5.189   4.261   2.958 -0.2776  1.6858 -0.5755
 2549TIP3    H2 7654   5.142   4.211   3.093  0.9704  0.2000 -0.6670
 2550TIP3   OH2 7655   2.346   3.516   2.242  0.4906  0.3449 -0.6106
 2550TIP3    H1 7656   2.273   3.463   2.275  0.4459  0.7099 -0.1080
 2550TIP3    H2 7657   2.350   3.495   2.148  3.1073 -3.7473  0.1426
 2551TIP3   OH2 7658   2.222   5.410   1.638 -0.5404  0.0621 -0.3167
 2551TIP3    H1 7659   2.281   5.461   1.694  0.0029  0.4332 -1.1995
 2551TIP3    H2 7660   2.233   5.320   1.668  0.9839  0.0266 -0.8804
 2552TIP3   OH2 7661   4.164   4.885   0.691 -0.3399 -0.3586 -0.1019
 2552TIP3    H1 7662   4.107   4.834   0.748 -0.0134 -1.7095 -0.9581
 2552TIP3    H2 7663   4.152   4.976   0.721 -2.4592 -0.6705  0.1219
 2553TIP3   OH2 7664   5.539   3.423   0.963 -0.0161  0.5396  0.0536
 2553TIP3    H1 7665   5.564   3.513   0.942 -0.1981  0.6948  0.4912
 2553TIP3    H2 7666   5.546   3.418   1.058 -0.3670  0.1954  0.0643
 2554TIP3   OH2 7667   1.156   5.295   4.256 -0.3092  0.0241 -0.0576
 2554TIP3    H1 7668   1.176   5.313   4.164  0.2686  1.7399  0.3694
 2554TIP3    H2 7669   1.124   5.205   4.256 -1.0699  0.2489 -2.0340
 2555TIP3   OH2 7670   5.495   2.146   4.008 -0.4446  0.4403 -0.2698
 2555TIP3    H1 7671   5.406   2.158   4.038 -0.1479  0.6974  0.5320
 2555TIP3    H2 7672   5.545   2.216   4.049 -0.0801  1.0422 -1.6752
 2556TIP3   OH2 7673   3.171   3.800   3.501 -0.1596 -0.1382 -0.2591
 2556TIP3    H1 7674   3.163   3.856   3.578  0.5525  1.1792 -1.1017
 2556TIP3    H2 7675   3.214   3.721   3.533  0.1745  0.4118  0.6843
 2557TIP3   OH2 7676   3.133   4.335   0.521 -0.0274  0.0107 -0.1137
 2557TIP3    H1 7677   3.201   4.345   0.455  0.3352  0.5321  0.3344
 2557TIP3    H2 7678   3.086   4.418   0.521 -0.9561 -0.4916 -0.7230
 2558TIP3   OH2 7679   1.767   5.840   3.511  0.0663  0.0511  0.5858
 2558TIP3    H1 7680   1.686   5.817   3.465  1.4375 -3.1899 -0.4557
 2558TIP3    H2 7681   1.802   5.914   3.463 -1.1309  0.0496 -0.3419
 2559TIP3   OH2 7682   3.995   2.041   3.465  0.2562  0.6040 -0.1493
 2559TIP3    H1 7683   4.039   2.001   3.540  0.3539  0.0337 -0.5063
 2559TIP3    H2 7684   3.902   2.036   3.486  0.2303 -0.4030 -0.4781
 2560TIP3   OH2 7685   1.750   1.790   3.766 -0.4593 -0.0776  0.0084
 2560TIP3    H1 7686   1.794   1.754   3.689  1.4452  1.5362  0.2727
 2560TIP3    H2 7687   1.776   1.733   3.838  1.8001  1.1220  0.2585
 2561TIP3   OH2 7688   2.076   5.649   4.080  0.1688  0.6509 -0.6157
 2561TIP3    H1 7689   1.981   5.654   4.070  0.1032  1.2930  0.1658
 2561TIP3    H2 7690   2.111   5.692   4.002 -0.2280  1.6491 -0.2724
 2562TIP3   OH2 7691   4.769   4.678   3.154  0.1367 -0.5725 -0.2804
 2562TIP3    H1 7692   4.794   4.742   3.088  2.2845  0.3632  1.3337
 2562TIP3    H2 7693   4.817   4.599   3.130 -0.9689 -1.0260 -1.1336
 2563TIP3   OH2 7694   2.716   1.820   1.192 -0.0020 -0.3799  0.3985
 2563TIP3    H1 7695   2.628   1.852   1.170  1.0078  2.0817 -0.4189
 2563TIP3    H2 7696   2.709   1.789   1.282 -1.0878  2.5952  1.4380
 2564TIP3   OH2 7697   3.794   3.483   3.293  0.3629  0.2420  0.2636
 2564TIP3    H1 7698   3.777   3.503   3.385 -0.9552 -0.2814  0.1536
 2564TIP3    H2 7699   3.856   3.410   3.295 -0.7304 -0.6878  0.7592
 2565TIP3   OH2 7700   3.691   2.004   2.254 -0.5397  0.0740  0.0289
 2565TIP3    H1 7701   3.617   1.943   2.258 -0.7746  0.3587  0.0514
 2565TIP3    H2 7702   3.752   1.965   2.191  0.8466 -1.8882  2.3985
 2566TIP3   OH2 7703   2.141   3.265   0.374 -0.4065  0.4592  0.0111
 2566TIP3    H1 7704   2.072   3.202   0.354 -0.1753 -0.6133  2.3133
 2566TIP3    H2 7705   2.182   3.233   0.454  2.0437  1.6852 -0.6220
 2567TIP3   OH2 7706   5.390   3.922   2.553  0.7547 -0.1016  0.0969
 2567TIP3    H1 7707   5.430   3.861   2.616  0.7996 -0.8605 -0.6560
 2567TIP3    H2 7708   5.450   3.924   2.479  0.4251  0.3565 -0.1658
 2568TIP3   OH2 7709   3.610   0.970   4.055 -0.1583  0.3305 -0.1843
 2568TIP3    H1 7710   3.663   0.944   3.980 -0.1412  1.0338 -0.4238
 2568TIP3    H2 7711   3.531   1.008   4.016 -0.3221  0.3485  0.1616
 2569TIP3   OH2 7712   2.719   0.872   3.564 -0.1645  0.1932 -0.4577
 2569TIP3    H1 7713   2.754   0.944   3.513 -0.3654  0.8460  0.3040
 2569TIP3    H2 7714   2.748   0.890   3.654  1.3273 -1.6171 -0.5012
 2570TIP3   OH2 7715   5.740   3.208   1.678  0.1811  0.0664  0.3411
 2570TIP3    H1 7716   5.754   3.193   1.771 -2.2053  0.2179  0.7970
 2570TIP3    H2 7717   5.683   3.136   1.650 -0.9778  1.2205 -0.4290
 2571TIP3   OH2 7718   5.692   1.456   0.987  0.4327 -0.2543 -0.0416
 2571TIP3    H1 7719   5.745   1.531   1.014 -0.5745  0.6637 -0.5042
 2571TIP3    H2 7720   5.753   1.383   0.982  1.7431  0.8709 -1.0996
 2572TIP3   OH2 7721   6.130   1.462   1.500  0.0425 -0.4648  0.0305
 2572TIP3    H1 7722   6.135   1.375   1.539 -0.0024 -0.4264  0.1238
 2572TIP3    H2 7723   6.184   1.457   1.422  2.6245  0.2848  1.6517
 2573TIP3   OH2 7724   2.460   1.972   3.928 -0.0387 -0.0548  0.3660
 2573TIP3    H1 7725   2.540   1.952   3.879 -0.5499  1.6919 -1.3123
 2573TIP3    H2 7726   2.484   1.963   4.020  2.3207  1.1352 -0.0684
 2574TIP3   OH2 7727   1.362   4.597   1.320 -0.7199  0.1036 -0.2526
 2574TIP3    H1 7728   1.406   4.512   1.320 -2.5607 -0.9547  1.8832
 2574TIP3    H2 7729   1.334   4.609   1.229 -0.2348 -1.4899 -0.6478
 2575TIP3   OH2 7730   5.585   3.413   4.379  0.6035 -0.8055 -0.2647
 2575TIP3    H1 7731   5.557   3.415   4.470  1.6503 -0.9739  0.0776
 2575TIP3    H2 7732   5.583   3.320   4.355 -0.5556 -0.6722 -0.7061
 2576TIP3   OH2 7733   0.561   5.111   3.248  0.1023 -0.0763 -0.1530
 2576TIP3    H1 7734   0.652   5.096   3.277  0.7660  2.3432 -0.7332
 2576TIP3    H2 7735   0.508   5.072   3.317  1.5027 -2.9185 -0.5238
 2577TIP3   OH2 7736   5.967   1.956   2.549  0.5987  0.2672  0.2599
 2577TIP3    H1 7737   5.956   1.907   2.631  1.6160 -1.1802 -0.4249
 2577TIP3    H2 7738   6.037   2.018   2.567 -0.4159  1.2304  1.0128
 2578TIP3   OH2 7739   6.160   1.624   2.302  0.1530  0.6263 -0.3862
 2578TIP3    H1 7740   6.209   1.543   2.305 -0.6088  0.1398 -0.6760
 2578TIP3    H2 7741   6.076   1.603   2.344  0.0382  1.3243 -0.2479
 2579TIP3   OH2 7742   5.540   2.709   4.061 -0.3857  0.6837  0.0549
 2579TIP3    H1 7743   5.531   2.653   4.138 -1.1865 -0.2588 -0.7158
 2579TIP3    H2 7744   5.490   2.788   4.084  0.5733  1.0424  1.0526
 2580TIP3   OH2 7745   5.531   4.302   1.433  0.1060 -0.0121  0.1288
 2580TIP3    H1 7746   5.592   4.369   1.462 -0.2780  0.8363 -0.9374
 2580TIP3    H2 7747   5.450   4.321   1.481 -0.1866  0.6817 -0.6229
 2581TIP3   OH2 7748   4.649   1.513   0.606 -0.3203  0.1475  0.1436
 2581TIP3    H1 7749   4.704   1.590   0.612  0.7190 -0.6240  0.9419
 2581TIP3    H2 7750   4.654   1.473   0.693 -0.7323 -0.8923 -0.2894
 2582TIP3   OH2 7751   3.480   2.314   0.645 -0.2324  0.0250 -1.0607
 2582TIP3    H1 7752   3.526   2.358   0.717  0.3515 -0.5114 -1.1028
 2582TIP3    H2 7753   3.525   2.345   0.566 -1.4163  1.2883 -1.2858
 2583TIP3   OH2 7754   1.008   4.514   4.095  0.5544 -0.1265  0.3773
 2583TIP3    H1 7755   1.061   4.593   4.107 -0.2213  0.3257  0.9531
 2583TIP3    H2 7756   1.027   4.461   4.172  1.1263 -0.5446 -0.0425
 2584TIP3   OH2 7757   1.550   0.340   3.717  0.1450 -0.1888  0.0577
 2584TIP3    H1 7758   1.483   0.342   3.785 -1.0257 -1.0583 -1.0000
 2584TIP3    H2 7759   1.631   0.363   3.762 -0.7634  0.3504  1.4998
 2585TIP3   OH2 7760   4.120   3.379   5.206  0.4476 -0.3514  0.4824
 2585TIP3    H1 7761   4.124   3.362   5.112  1.8601 -1.6646  0.7418
 2585TIP3    H2 7762   4.143   3.472   5.215 -2.8724  0.7165 -0.6480
 2586TIP3   OH2 7763   3.876   1.124   2.997 -0.2047  0.1311  0.2837
 2586TIP3    H1 7764   3.910   1.141   2.909 -0.7039 -0.7880 -0.0942
 2586TIP3    H2 7765   3.783   1.106   2.984 -0.7133  1.7814  1.2154
 2587TIP3   OH2 7766   5.833   1.747   2.713  0.2069 -0.1476  0.0238
 2587TIP3    H1 7767   5.901   1.682   2.699  0.0362 -0.2701 -0.2401
 2587TIP3    H2 7768   5.784   1.750   2.631 -0.3235 -0.3176  0.3215
 2588TIP3   OH2 7769   4.186   0.883   1.628  0.0229  0.2420  0.3214
 2588TIP3    H1 7770   4.212   0.960   1.678  0.4271 -1.5818  3.1476
 2588TIP3    H2 7771   4.259   0.822   1.639 -0.7782 -0.9705 -0.8686
 2589TIP3   OH2 7772   5.593   4.739   2.324 -0.3993 -0.3317 -0.2133
 2589TIP3    H1 7773   5.533   4.801   2.281 -0.0899  0.3661  0.3488
 2589TIP3    H2 7774   5.572   4.654   2.284 -0.4174  0.2254 -1.4270
 2590TIP3   OH2 7775   5.170   0.265   1.950  0.5875  0.1432 -0.3728
 2590TIP3    H1 7776   5.254   0.257   1.903  0.8024 -0.6852  0.1194
 2590TIP3    H2 7777   5.183   0.338   2.010  1.4635 -0.8414  0.6794
 2591TIP3   OH2 7778   0.805   5.578   4.395  0.8019 -0.2473 -0.8301
 2591TIP3    H1 7779   0.747   5.502   4.397 -0.5004  0.7140 -0.5893
 2591TIP3    H2 7780   0.817   5.597   4.301  2.0868 -1.4186 -0.9288
 2592TIP3   OH2 7781   2.204   3.636   1.034  0.2137 -0.2308  0.2534
 2592TIP3    H1 7782   2.252   3.666   0.956 -2.9234 -0.6695 -2.0344
 2592TIP3    H2 7783   2.191   3.542   1.019 -2.6653  0.1396 -0.1424
 2593TIP3   OH2 7784   0.712   3.566   3.963  0.1278  0.4758  0.0883
 2593TIP3    H1 7785   0.683   3.531   4.048  0.8529 -0.6872 -0.1185
 2593TIP3    H2 7786   0.731   3.658   3.981  2.0715 -0.1594  1.6902
 2594TIP3   OH2 7787   1.540   5.382   5.060 -0.1296  0.2359 -0.0542
 2594TIP3    H1 7788   1.499   5.297   5.041 -0.1423  0.1459  0.3703
 2594TIP3    H2 7789   1.538   5.389   5.155 -0.8159  1.0451 -0.1085
 2595TIP3   OH2 7790   4.260   1.806   3.239 -0.1902 -0.0910  0.5517
 2595TIP3    H1 7791   4.249   1.897   3.267 -2.5858 -0.1782  0.0797
 2595TIP3    H2 7792   4.256   1.809   3.143  0.8676 -0.5894  0.4743
 2596TIP3   OH2 7793   3.621   2.335   2.572 -0.3097  0.2158 -0.5119
 2596TIP3    H1 7794   3.579   2.342   2.658  0.2813 -0.3588 -0.1689
 2596TIP3    H2 7795   3.612   2.422   2.534  0.3405  0.7816  0.5686
 2597TIP3   OH2 7796   0.535   2.422   4.779 -0.2246  0.5645 -0.0250
 2597TIP3    H1 7797   0.541   2.518   4.775 -0.8214  0.6234  0.4842
 2597TIP3    H2 7798   0.443   2.403   4.766 -0.3454  0.1409  1.3470
 2598TIP3   OH2 7799   3.034   5.880   1.164 -0.3805  0.2305 -0.2729
 2598TIP3    H1 7800   2.951   5.929   1.161 -0.2323  0.4272 -1.6540
 2598TIP3    H2 7801   3.094   5.939   1.210 -1.2224 -0.3011  1.6015
 2599TIP3   OH2 7802   4.863   3.514   3.122  0.1066 -0.2289  0.7409
 2599TIP3    H1 7803   4.862   3.427   3.162  3.7307 -0.8156 -0.1652
 2599TIP3    H2 7804   4.913   3.569   3.182  0.8422  0.3188 -0.3344
 2600TIP3   OH2 7805   2.745   1.227   1.346 -0.1120  0.4490 -0.2954
 2600TIP3    H1 7806   2.708   1.153   1.393  2.3289 -1.5719 -1.3126
 2600TIP3    H2 7807   2.826   1.248   1.393 -0.2183  1.7797 -0.6535
 2601TIP3   OH2 7808   0.931   2.922   4.539  0.4073 -0.0708  0.1287
 2601TIP3    H1 7809   0.943   3.017   4.549  0.0064 -0.0058  0.0110
 2601TIP3    H2 7810   0.998   2.897   4.476  0.5481  0.1271  0.1971
 2602TIP3   OH2 7811   0.455   1.938   0.423 -0.1715 -0.7176  0.0736
 2602TIP3    H1 7812   0.465   1.844   0.438 -0.6027 -0.7976 -0.1220
 2602TIP3    H2 7813   0.454   1.977   0.511  1.1406 -0.7687  0.1214
 2603TIP3   OH2 7814   1.792   4.241   3.991 -0.4871 -0.1024 -0.0541
 2603TIP3    H1 7815   1.712   4.265   3.945 -0.7800 -1.4111 -0.2484
 2603TIP3    H2 7816   1.773   4.158   4.033  1.0706 -0.9829 -0.9568
 2604TIP3   OH2 7817   2.319   2.804   1.215  0.0585 -0.1422  0.5315
 2604TIP3    H1 7818   2.389   2.770   1.270  1.3922 -2.1010 -2.1281
 2604TIP3    H2 7819   2.342   2.896   1.200  1.1009 -0.3034  1.0999
 2605TIP3   OH2 7820   0.168   1.177   2.387 -0.2793 -0.6787  0.1559
 2605TIP3    H1 7821   0.213   1.123   2.452 -1.5758 -0.3197  1.3975
 2605TIP3    H2 7822   0.099   1.121   2.353  0.4067 -0.8722 -0.9573
 2606TIP3   OH2 7823   5.935   2.918   4.410  0.3357  0.0175 -0.1813
 2606TIP3    H1 7824   5.896   2.859   4.345 -0.2717  0.2418 -0.0197
 2606TIP3    H2 7825   5.869   2.985   4.424  0.3694 -0.1596  0.8519
 2607TIP3   OH2 7826   0.604   2.428   1.303 -0.6589 -0.8143  0.0568
 2607TIP3    H1 7827   0.544   2.354   1.314  1.0212 -2.2739 -0.1760
 2607TIP3    H2 7828   0.588   2.483   1.379 -3.2733 -0.3637 -0.6991
 2608TIP3   OH2 7829   6.071   4.049   3.001  0.3020  0.0255 -0.4611
 2608TIP3    H1 7830   6.043   4.136   3.027 -0.6433 -0.1401 -0.8968
 2608TIP3    H2 7831   6.054   3.994   3.078  1.9457  0.4071  0.2215
 2609TIP3   OH2 7832   4.679   3.936   2.937 -0.8006  0.0182 -0.2707
 2609TIP3    H1 7833   4.595   3.900   2.910 -0.0939 -0.6198 -1.7278
 2609TIP3    H2 7834   4.696   4.007   2.876  0.7851 -1.3742 -1.5423
 2610TIP3   OH2 7835   5.158   0.064   1.465  0.5661 -0.8595 -0.3975
 2610TIP3    H1 7836   5.099   0.073   1.390  0.8216 -0.8699 -0.6037
 2610TIP3    H2 7837   5.113   0.004   1.525 -0.3496  0.3516  0.1727
 2611TIP3   OH2 7838   0.227   2.029   4.540 -0.2051 -0.4287 -0.3822
 2611TIP3    H1 7839   0.272   2.106   4.504  1.0904 -1.1009 -0.2798
 2611TIP3    H2 7840   0.137   2.058   4.554  0.1492  0.9386 -0.7458
 2612TIP3   OH2 7841   0.375   2.259   4.452 -0.4675 -0.5057  0.1873
 2612TIP3    H1 7842   0.292   2.293   4.419  0.4576  0.0291 -1.7102
 2612TIP3    H2 7843   0.438   2.328   4.433  0.8536 -1.9053 -0.7074
 2613TIP3   OH2 7844   4.752   1.256   4.304 -0.0635  0.3412  0.9804
 2613TIP3    H1 7845   4.826   1.244   4.244 -1.0393  2.6311 -0.8505
 2613TIP3    H2 7846   4.714   1.168   4.313  0.3559 -0.1714 -1.4958
 2614TIP3   OH2 7847   1.698   0.464   1.391  0.1421  0.2155  0.5816
 2614TIP3    H1 7848   1.661   0.390   1.342 -1.3023  1.0501  0.3565
 2614TIP3    H2 7849   1.793   0.457   1.377  0.2579 -2.6214  2.0517
 2615TIP3   OH2 7850   0.814   5.213   4.169 -0.0131  0.1610  0.0815
 2615TIP3    H1 7851   0.744   5.178   4.114 -0.1726 -0.4704  0.6734
 2615TIP3    H2 7852   0.881   5.242   4.107 -0.1889 -0.5403 -0.4526
 2616TIP3   OH2 7853   1.727   0.599   4.193  0.2210 -0.1271 -0.4183
 2616TIP3    H1 7854   1.652   0.651   4.166  0.4524  0.6646  0.4171
 2616TIP3    H2 7855   1.721   0.519   4.140 -0.2247  0.6671 -1.6074
 2617TIP3   OH2 7856   5.966   5.330   4.278 -0.2657  0.3003  0.1330
 2617TIP3    H1 7857   6.028   5.398   4.303 -1.4564  1.0480  1.1656
 2617TIP3    H2 7858   5.880   5.371   4.288 -0.9454 -0.2433 -2.6157
 2618TIP3   OH2 7859   0.219   0.255   1.230  0.5141 -0.2493 -0.4245
 2618TIP3    H1 7860   0.232   0.287   1.319 -0.6407 -1.6067  0.2696
 2618TIP3    H2 7861   0.201   0.335   1.179  0.3342  0.4649  0.7121
 2619TIP3   OH2 7862   4.877   0.710   0.198  0.1974  0.5501  0.3005
 2619TIP3    H1 7863   4.851   0.660   0.120 -0.9886  1.6275 -0.0227
 2619TIP3    H2 7864   4.936   0.777   0.164 -1.3729  1.8739  0.0710
 2620TIP3   OH2 7865   4.600   2.555   1.631  0.3126 -0.0939 -0.1127
 2620TIP3    H1 7866   4.510   2.583   1.647  0.3193 -0.5652  0.8491
 2620TIP3    H2 7867   4.593   2.465   1.600  0.4759 -0.3595  0.6016
 2621TIP3   OH2 7868   2.917   5.505   1.963  0.4687 -0.0627 -0.0053
 2621TIP3    H1 7869   2.897   5.424   1.916  1.0412 -1.2061  1.6185
 2621TIP3    H2 7870   3.004   5.491   2.000  0.9700  1.6809 -0.4197
 2622TIP3   OH2 7871   0.597   1.424   4.421 -0.2371 -0.1824  0.0583
 2622TIP3    H1 7872   0.537   1.494   4.446  1.1345  0.9432  0.3079
 2622TIP3    H2 7873   0.585   1.357   4.489 -2.6322 -0.9352 -0.9757
 2623TIP3   OH2 7874   2.737   2.410   5.080 -0.0762  0.1552  0.0670
 2623TIP3    H1 7875   2.752   2.461   5.160  0.6385  2.1932 -1.3050
 2623TIP3    H2 7876   2.678   2.464   5.027  1.8418  0.2950 -2.0571
 2624TIP3   OH2 7877   0.120   0.711   3.164  0.4146 -0.2463 -0.5925
 2624TIP3    H1 7878   0.084   0.779   3.220  1.6404 -0.1160  0.0656
 2624TIP3    H2 7879   0.080   0.726   3.078  1.9546  2.4035 -0.9413
 2625TIP3   OH2 7880   0.393   3.734   4.427 -0.0457 -0.0203  0.0347
 2625TIP3    H1 7881   0.389   3.719   4.332  2.4136 -0.1475 -0.1233
 2625TIP3    H2 7882   0.325   3.678   4.463 -1.1259  0.1229 -1.6536
 2626TIP3   OH2 7883   5.390   5.449   2.674 -0.4895  0.3163  0.2884
 2626TIP3    H1 7884   5.422   5.518   2.732  0.0371 -0.2470  0.6825
 2626TIP3    H2 7885   5.349   5.385   2.732  0.6499 -0.5892  0.1391
 2627TIP3   OH2 7886   5.892   1.966   3.145 -0.0417  0.0128 -0.0837
 2627TIP3    H1 7887   5.824   2.003   3.089 -0.7335 -0.9968  0.0673
 2627TIP3    H2 7888   5.912   1.881   3.106 -0.2003 -0.5048  0.9338
 2628TIP3   OH2 7889   4.793   5.380   4.994 -0.2107  0.0126 -0.4783
 2628TIP3    H1 7890   4.878   5.416   4.969 -0.1207  0.3903  0.3285
 2628TIP3    H2 7891   4.737   5.396   4.918  0.3280  0.1317 -0.8594
 2629TIP3   OH2 7892   1.732   0.506   3.859 -0.0193  0.5126  0.4985
 2629TIP3    H1 7893   1.808   0.449   3.871 -0.2432  0.1470  0.2345
 2629TIP3    H2 7894   1.768   0.593   3.844  0.3087  0.6311  1.8698
 2630TIP3   OH2 7895   3.797   3.212   2.782 -0.3303  0.1022 -0.3827
 2630TIP3    H1 7896   3.843   3.174   2.857  1.2461  1.2917 -0.6967
 2630TIP3    H2 7897   3.704   3.201   2.804  0.0500  1.1285  2.1843
 2631TIP3   OH2 7898   1.201   4.750   0.649  0.1406 -0.1671 -0.0156
 2631TIP3    H1 7899   1.188   4.706   0.565  0.1960  0.4139 -0.3361
 2631TIP3    H2 7900   1.295   4.766   0.653  0.0411  0.4987 -0.2059
 2632TIP3   OH2 7901   4.952   2.983   4.007  0.4924 -0.3316 -0.4243
 2632TIP3    H1 7902   4.988   3.032   4.081  0.5768 -1.1518  0.0948
 2632TIP3    H2 7903   4.898   3.046   3.960 -1.0702 -0.2402  1.3761
 2633TIP3   OH2 7904   6.329   5.737   0.611 -0.0599  0.4555  0.1576
 2633TIP3    H1 7905   6.400   5.685   0.650 -0.2413  2.5605  3.6754
 2633TIP3    H2 7906   6.257   5.675   0.600  1.2484 -1.0208 -0.4521
 2634TIP3   OH2 7907   2.141   5.399   4.731  0.2227 -0.2754 -0.1748
 2634TIP3    H1 7908   2.059   5.441   4.756  0.7698  0.6917  0.0781
 2634TIP3    H2 7909   2.185   5.463   4.676  1.9223  0.3434  1.7415
 2635TIP3   OH2 7910   3.299   3.816   4.354 -0.4594  0.2261 -0.2960
 2635TIP3    H1 7911   3.221   3.777   4.394 -0.0669  0.9196  1.2123
 2635TIP3    H2 7912   3.353   3.741   4.330 -0.2093 -0.2189  1.5447
 2636TIP3   OH2 7913   3.603   4.615   4.712  0.2474 -0.0436 -0.2587
 2636TIP3    H1 7914   3.671   4.636   4.776  0.2407  0.3737 -0.3847
 2636TIP3    H2 7915   3.572   4.528   4.737  0.5780 -0.0827  0.0156
 2637TIP3   OH2 7916   0.987   2.532   0.639 -0.1523 -0.3800  0.5280
 2637TIP3    H1 7917   1.064   2.541   0.694 -0.9107  1.7268  1.3529
 2637TIP3    H2 7918   0.976   2.438   0.628 -0.0808 -0.9412  4.1536
 2638TIP3   OH2 7919   2.311   0.653   3.063  0.0696 -0.2779 -0.8622
 2638TIP3    H1 7920   2.322   0.609   2.979  0.6637  1.6582 -1.8511
 2638TIP3    H2 7921   2.384   0.715   3.067 -0.1175 -0.1124  0.9704
 2639TIP3   OH2 7922   0.852   4.582   1.137  1.0587 -0.5065 -0.4973
 2639TIP3    H1 7923   0.817   4.512   1.191 -0.7726  0.2673 -0.6113
 2639TIP3    H2 7924   0.917   4.539   1.081  0.0259 -2.0959 -0.5352
 2640TIP3   OH2 7925   5.946   3.979   3.238  0.3325  0.2388  0.2544
 2640TIP3    H1 7926   6.014   4.004   3.300  1.2002 -0.8635 -0.2173
 2640TIP3    H2 7927   5.863   3.998   3.283  0.9505  0.2534  1.4057
 2641TIP3   OH2 7928   6.011   3.473   0.403 -0.0496  0.0145  0.0013
 2641TIP3    H1 7929   6.058   3.556   0.398 -2.9643  1.9000  0.7914
 2641TIP3    H2 7930   6.011   3.451   0.496 -1.3295  0.4869  0.1337
 2642TIP3   OH2 7931   2.845   0.551   2.828 -0.1406  0.1428  0.3793
 2642TIP3    H1 7932   2.899   0.630   2.820  0.2028  0.0218  1.3397
 2642TIP3    H2 7933   2.787   0.554   2.752  0.7148  0.6648 -0.2722
 2643TIP3   OH2 7934   1.608   1.383   3.741 -0.1028  0.6597  0.2892
 2643TIP3    H1 7935   1.608   1.348   3.831  0.1466 -0.6868 -0.1992
 2643TIP3    H2 7936   1.696   1.419   3.730 -0.0345  0.5602  0.4951
 2644TIP3   OH2 7937   3.758   3.532   3.556  0.1135  0.0932 -0.4243
 2644TIP3    H1 7938   3.729   3.620   3.581  1.1336  1.0248 -2.3310
 2644TIP3    H2 7939   3.773   3.488   3.640 -1.0554  1.4870  0.5858
 2645TIP3   OH2 7940   2.388   4.643   2.358 -0.1395 -0.5143  0.0527
 2645TIP3    H1 7941   2.410   4.564   2.309  1.2496  0.4038 -0.8813
 2645TIP3    H2 7942   2.431   4.714   2.310 -0.3056  0.6557  1.5611
 2646TIP3   OH2 7943   2.397   2.989   3.109 -0.0415  0.5251 -0.3939
 2646TIP3    H1 7944   2.416   2.898   3.087  0.5024  0.7792 -0.9840
 2646TIP3    H2 7945   2.301   2.995   3.107 -0.1327 -0.2488  0.5565
 2647TIP3   OH2 7946   3.207   3.163   5.079  0.1787 -0.5262 -0.7534
 2647TIP3    H1 7947   3.148   3.206   5.141  1.3789 -2.4941  1.9790
 2647TIP3    H2 7948   3.156   3.090   5.044 -0.0219 -0.3163 -0.9012
 2648TIP3   OH2 7949   1.256   5.339   2.148  0.5960 -0.2899 -0.5168
 2648TIP3    H1 7950   1.237   5.263   2.202  0.4696 -0.5459 -0.9219
 2648TIP3    H2 7951   1.350   5.352   2.157  0.5403 -0.1764 -0.0352
 2649TIP3   OH2 7952   2.064   1.406   2.409 -0.4810 -0.5770  0.7044
 2649TIP3    H1 7953   2.029   1.469   2.346 -2.4141 -1.2975  0.9690
 2649TIP3    H2 7954   2.003   1.332   2.404 -0.1318 -1.0587  2.7088
 2650TIP3   OH2 7955   2.730   2.431   1.514  0.4733  0.7115 -0.6041
 2650TIP3    H1 7956   2.654   2.384   1.479  0.9083 -0.6876  0.2304
 2650TIP3    H2 7957   2.730   2.409   1.607  3.4665 -1.6616 -1.0269
 2651TIP3   OH2 7958   1.912   0.983   1.941  0.4798 -0.1241  0.0271
 2651TIP3    H1 7959   1.911   0.955   1.849 -1.0271 -1.1798  0.3278
 2651TIP3    H2 7960   1.955   0.912   1.987 -0.2642 -0.3786  0.3452
 2652TIP3   OH2 7961   3.913   1.644   4.962  0.0214  0.2585 -0.1668
 2652TIP3    H1 7962   3.832   1.601   4.933 -0.4291  0.1768  1.1797
 2652TIP3    H2 7963   3.979   1.615   4.899 -0.8459 -0.2181 -0.8817
 2653TIP3   OH2 7964   5.825   0.792   4.681 -0.1551 -0.2570 -0.6023
 2653TIP3    H1 7965   5.889   0.737   4.636  0.8896 -0.1384  0.6806
 2653TIP3    H2 7966   5.819   0.871   4.627  0.3015 -0.5447 -1.0822
 2654TIP3   OH2 7967   0.345   3.253   2.539  0.4836  0.0703 -0.0559
 2654TIP3    H1 7968   0.402   3.216   2.471  0.2898  0.0690 -0.2170
 2654TIP3    H2 7969   0.344   3.347   2.521 -0.4861 -0.0600 -0.7553
 2655TIP3   OH2 7970   4.690   0.885   3.191 -0.2515  0.0539 -0.1454
 2655TIP3    H1 7971   4.712   0.817   3.254 -0.4513  0.3649  0.2680
 2655TIP3    H2 7972   4.774   0.910   3.152 -0.0410  0.3044  0.4631
 2656TIP3   OH2 7973   2.096   5.129   4.668 -0.3812  0.1121 -0.0696
 2656TIP3    H1 7974   2.001   5.136   4.656 -0.2590 -0.1236 -1.3266
 2656TIP3    H2 7975   2.122   5.212   4.707 -0.9871  0.5597 -0.5871
 2657TIP3   OH2 7976   2.908   4.132   1.265 -0.0082 -0.4232 -0.0156
 2657TIP3    H1 7977   2.880   4.045   1.295 -0.3243 -0.3260 -0.0258
 2657TIP3    H2 7978   2.832   4.166   1.218  0.8785 -1.0723 -2.0079
 2658TIP3   OH2 7979   4.765   2.432   4.451  1.0454 -0.7323 -0.2426
 2658TIP3    H1 7980   4.845   2.384   4.430  0.9455 -1.2401  0.4903
 2658TIP3    H2 7981   4.712   2.370   4.502  0.6078 -0.0789  0.1173
 2659TIP3   OH2 7982   4.577   4.156   4.473 -0.3174 -0.4465 -0.0826
 2659TIP3    H1 7983   4.645   4.202   4.521 -0.3190  0.2169 -0.6970
 2659TIP3    H2 7984   4.525   4.226   4.433 -1.2792 -0.9414  0.2638
 2660TIP3   OH2 7985   1.244   1.619   4.423 -0.0258  0.0818 -0.0363
 2660TIP3    H1 7986   1.288   1.613   4.508  0.6384 -0.0807 -0.3847
 2660TIP3    H2 7987   1.154   1.588   4.440  0.3035 -0.6274  0.4591
 2661TIP3   OH2 7988   3.383   5.454   2.766  0.5047 -0.1202 -0.0427
 2661TIP3    H1 7989   3.422   5.522   2.711  1.3154 -0.9147 -0.4990
 2661TIP3    H2 7990   3.445   5.381   2.760 -1.1346 -1.5071 -0.9018
 2662TIP3   OH2 7991   2.586   4.079   4.774  0.2092 -0.2713 -0.3252
 2662TIP3    H1 7992   2.680   4.089   4.782  0.2300  0.0870 -1.0053
 2662TIP3    H2 7993   2.567   4.094   4.682 -0.6543  0.9200  0.0170
 2663TIP3   OH2 7994   2.561   4.412   3.209  0.0557 -0.5033 -0.1347
 2663TIP3    H1 7995   2.588   4.349   3.141 -0.0473  0.2099 -0.8498
 2663TIP3    H2 7996   2.547   4.494   3.162 -1.4252 -0.3411  0.5154
 2664TIP3   OH2 7997   0.562   3.158   0.797 -0.0341 -0.1138  0.0602
 2664TIP3    H1 7998   0.590   3.198   0.715 -0.3921  0.3022  0.1360
 2664TIP3    H2 7999   0.643   3.130   0.839  0.2591  0.8700  0.1758
 2665TIP3   OH2 8000   4.742   2.569   3.958 -0.1016 -0.0250  0.1388
 2665TIP3    H1 8001   4.726   2.661   3.978 -0.3893 -0.2206  0.8148
 2665TIP3    H2 8002   4.824   2.549   4.003 -0.6798 -0.4295  1.0206
 2666TIP3   OH2 8003   1.760   5.408   3.957 -0.2770  0.2365 -0.6550
 2666TIP3    H1 8004   1.758   5.343   4.028 -0.1550  0.0845 -0.7891
 2666TIP3    H2 8005   1.807   5.483   3.994  1.4607 -0.5490 -1.1602
 2667TIP3   OH2 8006   4.733   1.665   3.455 -0.1691 -0.1370 -0.1820
 2667TIP3    H1 8007   4.640   1.663   3.479  0.1658 -0.5331  1.1653
 2667TIP3    H2 8008   4.761   1.573   3.460  0.5272  0.0988  0.4314
 2668TIP3   OH2 8009   0.537   5.971   3.669  0.5061 -0.2644  0.3282
 2668TIP3    H1 8010   0.581   5.970   3.754  0.7149  0.7230  0.2474
 2668TIP3    H2 8011   0.471   5.902   3.675  1.8198 -1.5206  0.5708
 2669TIP3   OH2 8012   3.218   3.259   1.341  0.0903  0.0598  0.0717
 2669TIP3    H1 8013   3.221   3.188   1.405  1.0745  0.7219  0.7905
 2669TIP3    H2 8014   3.234   3.217   1.257 -0.0763 -0.6676  0.4003
 2670TIP3   OH2 8015   3.135   5.011   3.422 -0.2686 -0.2288 -0.0672
 2670TIP3    H1 8016   3.096   5.091   3.388  1.0470  0.9182  0.9796
 2670TIP3    H2 8017   3.221   5.006   3.380  0.3012 -0.1995  1.0487
 2671TIP3   OH2 8018   0.749   1.830   1.821 -0.6001  0.3062  0.0756
 2671TIP3    H1 8019   0.666   1.806   1.780 -0.2254 -0.8568 -0.0453
 2671TIP3    H2 8020   0.724   1.866   1.906 -1.2260 -0.1372  0.0858
 2672TIP3   OH2 8021   4.444   2.194   1.119  0.4921  0.0220 -0.5006
 2672TIP3    H1 8022   4.423   2.103   1.099 -1.6053  0.4586 -0.5436
 2672TIP3    H2 8023   4.450   2.236   1.033  3.0860 -0.3470 -0.5585
 2673TIP3   OH2 8024   5.267   3.466   0.286  0.0452  0.5874  0.0478
 2673TIP3    H1 8025   5.263   3.485   0.193  0.8385  0.7547  0.0402
 2673TIP3    H2 8026   5.334   3.526   0.320  1.8263 -1.3836  0.2249
 2674TIP3   OH2 8027   4.323   0.059   5.157 -0.4403 -0.4001 -0.7056
 2674TIP3    H1 8028   4.284   0.001   5.222  0.0957 -1.2327 -1.1154
 2674TIP3    H2 8029   4.272   0.045   5.078  0.0326 -0.7233 -0.9568
 2675TIP3   OH2 8030   5.995   2.188   4.222  0.0343 -0.2054  0.6002
 2675TIP3    H1 8031   5.907   2.150   4.224 -0.0931  0.0771  0.2740
 2675TIP3    H2 8032   6.035   2.153   4.142  0.0698  0.0041  0.5266
 2676TIP3   OH2 8033   5.250   1.256   4.917  0.2798 -0.2597  0.2391
 2676TIP3    H1 8034   5.306   1.208   4.857  0.7975 -0.7393  1.0939
 2676TIP3    H2 8035   5.193   1.189   4.955 -1.0743  0.2534 -0.8124
 2677TIP3   OH2 8036   5.136   5.237   1.698 -0.3465 -0.2406 -0.1469
 2677TIP3    H1 8037   5.058   5.191   1.729 -0.5381  1.0518  1.4292
 2677TIP3    H2 8038   5.123   5.327   1.726  2.2058 -0.1858  1.1263
 2678TIP3   OH2 8039   5.257   1.498   3.768 -0.2274 -0.4483 -0.1849
 2678TIP3    H1 8040   5.205   1.424   3.737  1.6412 -0.4438 -3.8400
 2678TIP3    H2 8041   5.197   1.572   3.766 -1.5007 -1.3641  1.2990
 2679TIP3   OH2 8042   4.506   3.354   4.288 -0.1153 -0.1988 -0.1709
 2679TIP3    H1 8043   4.558   3.306   4.352 -0.8490  0.2048  0.7536
 2679TIP3    H2 8044   4.495   3.441   4.327 -0.4000  0.1204 -0.9475
 2680TIP3   OH2 8045   0.273   0.796   1.957  0.1359  0.2714  0.0714
 2680TIP3    H1 8046   0.206   0.865   1.967 -0.2229 -0.0345 -0.1895
 2680TIP3    H2 8047   0.269   0.748   2.040  1.4274  1.4609  0.8609
 2681TIP3   OH2 8048   2.541   5.808   2.100 -0.3410  0.4658 -0.5553
 2681TIP3    H1 8049   2.544   5.774   2.011  0.5089 -1.2287  0.0780
 2681TIP3    H2 8050   2.632   5.807   2.129 -0.5801  1.1787  0.2742
 2682TIP3   OH2 8051   1.035   5.666   0.150  0.1742 -0.0137 -0.0880
 2682TIP3    H1 8052   1.118   5.621   0.167 -0.0866 -0.6356 -0.4327
 2682TIP3    H2 8053   0.972   5.626   0.210 -0.4388 -1.2813 -1.5297
 2683TIP3   OH2 8054   2.308   4.725   2.900 -0.2075 -0.1896 -0.1852
 2683TIP3    H1 8055   2.290   4.750   2.990 -1.1184 -0.5523 -0.2610
 2683TIP3    H2 8056   2.222   4.717   2.859  0.2000  0.4471 -1.2213
 2684TIP3   OH2 8057   5.007   0.561   2.561 -0.0373  0.9197 -0.9722
 2684TIP3    H1 8058   5.075   0.528   2.503  0.0506  1.0038 -0.9170
 2684TIP3    H2 8059   5.025   0.655   2.568  0.6898  0.7108  0.1771
 2685TIP3   OH2 8060   1.253   1.198   5.076 -0.2680 -0.1576 -0.1755
 2685TIP3    H1 8061   1.324   1.228   5.019 -0.7472 -0.2328 -0.8259
 2685TIP3    H2 8062   1.183   1.262   5.062 -0.1120  0.2822  0.9472
 2686TIP3   OH2 8063   4.716   5.614   0.535  0.2086  0.0381  0.4410
 2686TIP3    H1 8064   4.629   5.648   0.515  0.3931 -0.3755 -1.2574
 2686TIP3    H2 8065   4.715   5.601   0.630 -0.9394  1.7256  0.7101
 2687TIP3   OH2 8066   3.071   0.695   0.437  0.3239 -0.3930 -0.0731
 2687TIP3    H1 8067   3.074   0.698   0.342 -1.5504  2.2303 -0.1754
 2687TIP3    H2 8068   3.161   0.711   0.465  0.6542  0.2453 -1.4166
 2688TIP3   OH2 8069   2.789   2.182   1.270 -0.0563 -0.1034 -0.4014
 2688TIP3    H1 8070   2.780   2.268   1.230  0.1940  0.5015  0.7969
 2688TIP3    H2 8071   2.717   2.177   1.332  0.4041 -0.4119  0.1195
 2689TIP3   OH2 8072   4.157   3.144   0.378  0.2357  0.0554  0.5971
 2689TIP3    H1 8073   4.131   3.235   0.395 -0.6836  0.4426 -2.2438
 2689TIP3    H2 8074   4.253   3.146   0.379  0.2166  0.8951  1.3132
 2690TIP3   OH2 8075   2.783   0.811   4.182 -0.0503  0.1758  0.0281
 2690TIP3    H1 8076   2.830   0.742   4.135 -0.0067  0.1441  0.1181
 2690TIP3    H2 8077   2.731   0.764   4.247  1.0011  0.3094  0.9938
 2691TIP3   OH2 8078   4.580   4.955   1.659  0.2624 -0.3465 -0.3564
 2691TIP3    H1 8079   4.617   5.028   1.609 -0.9240  0.4140 -0.1446
 2691TIP3    H2 8080   4.651   4.890   1.661  1.4902  0.9465 -0.1830
 2692TIP3   OH2 8081   4.421   1.840   2.403  0.1422 -0.5876  0.0538
 2692TIP3    H1 8082   4.462   1.754   2.406 -1.9587 -1.6668  0.0216
 2692TIP3    H2 8083   4.419   1.869   2.494  2.0091  0.0817 -0.0652
 2693TIP3   OH2 8084   2.191   2.841   0.484  0.1944 -0.2951  0.3363
 2693TIP3    H1 8085   2.178   2.861   0.391  0.6838 -0.9838  0.1118
 2693TIP3    H2 8086   2.180   2.746   0.489 -2.0176 -0.0552  1.3595
 2694TIP3   OH2 8087   3.744   3.687   4.503  0.2176  0.2177 -0.7384
 2694TIP3    H1 8088   3.790   3.674   4.420 -0.1318  1.5963 -1.1831
 2694TIP3    H2 8089   3.716   3.778   4.500 -0.3165  0.1199  0.6502
 2695TIP3   OH2 8090   5.695   2.315   4.081 -0.0969 -0.2586  0.5808
 2695TIP3    H1 8091   5.730   2.339   4.166  0.7039 -0.7171  0.3915
 2695TIP3    H2 8092   5.744   2.369   4.019 -0.3666 -0.2478  0.3725
 2696TIP3   OH2 8093   0.615   1.068   4.828  0.0472  0.2985  0.2833
 2696TIP3    H1 8094   0.699   1.076   4.873  0.3927  0.5726 -0.3965
 2696TIP3    H2 8095   0.637   1.030   4.743 -0.5280  0.3247  0.1168
 2697TIP3   OH2 8096   2.427   0.069   3.187 -0.2429 -0.7405 -0.2183
 2697TIP3    H1 8097   2.387   0.065   3.100 -1.3320 -0.5084  0.2510
 2697TIP3    H2 8098   2.487   0.143   3.182  1.5573 -2.1893 -1.4830
 2698TIP3   OH2 8099   0.655   3.902   2.701 -0.1240 -0.2350  0.1819
 2698TIP3    H1 8100   0.679   3.992   2.725 -0.2814 -0.1698  0.1017
 2698TIP3    H2 8101   0.598   3.913   2.625 -2.2808 -0.2381  1.7285
 2699TIP3   OH2 8102   1.539   0.136   1.296  0.0235  0.5611 -0.4072
 2699TIP3    H1 8103   1.494   0.214   1.327 -0.6307  0.6106 -1.3968
 2699TIP3    H2 8104   1.469   0.071   1.286  0.4200  0.1362 -0.4669
 2700TIP3   OH2 8105   3.433   4.514   4.086 -0.1432 -0.0205 -0.8062
 2700TIP3    H1 8106   3.346   4.553   4.078  0.1538  0.8025 -0.2012
 2700TIP3    H2 8107   3.426   4.429   4.042 -1.2459  0.0389 -0.7682
 2701TIP3   OH2 8108   0.653   0.565   3.273 -1.1268  0.2673  0.0353
 2701TIP3    H1 8109   0.683   0.570   3.182  1.5563  0.4444  0.8263
 2701TIP3    H2 8110   0.636   0.472   3.287  0.8326 -0.1560 -0.0392
 2702TIP3   OH2 8111   5.674   5.212   4.165  0.3373 -0.6239  0.4540
 2702TIP3    H1 8112   5.745   5.179   4.110 -0.6407  0.4269 -1.5568
 2702TIP3    H2 8113   5.700   5.301   4.187  0.3614 -0.7799  1.0965
 2703TIP3   OH2 8114   3.246   3.683   1.267  0.5106  0.1700  0.4639
 2703TIP3    H1 8115   3.234   3.778   1.263 -0.5650  0.0595  0.8648
 2703TIP3    H2 8116   3.205   3.657   1.349 -0.2465 -0.7784 -0.1881
 2704TIP3   OH2 8117   4.477   0.682   3.116  0.0802 -0.0344 -0.1646
 2704TIP3    H1 8118   4.492   0.776   3.123  0.2425  0.0648 -1.5193
 2704TIP3    H2 8119   4.559   0.642   3.143 -0.2992  0.1618  1.3381
 2705TIP3   OH2 8120   6.045   1.150   0.822 -0.0386 -0.2630 -0.0879
 2705TIP3    H1 8121   5.991   1.118   0.750  0.9759 -0.5549 -0.7284
 2705TIP3    H2 8122   6.038   1.082   0.890 -1.3346  0.2126  0.2772
 2706TIP3   OH2 8123   1.842   4.696   1.758  0.5294 -0.3968  0.4169
 2706TIP3    H1 8124   1.894   4.686   1.838 -2.3956  0.9554  2.7129
 2706TIP3    H2 8125   1.792   4.776   1.773 -1.9884 -1.4472 -1.6952
 2707TIP3   OH2 8126   2.003   5.327   0.364  0.0002  0.3666 -0.2959
 2707TIP3    H1 8127   2.032   5.375   0.442 -2.8264  1.8316 -0.0053
 2707TIP3    H2 8128   1.909   5.345   0.358 -0.2771 -1.3338 -2.9437
 2708TIP3   OH2 8129   1.944   3.737   1.652  0.1920 -0.0999 -0.0184
 2708TIP3    H1 8130   1.959   3.644   1.632  0.9359 -0.5885  2.3917
 2708TIP3    H2 8131   1.852   3.751   1.632 -0.3302 -1.7985  0.9709
 2709TIP3   OH2 8132   0.560   3.155   0.371  0.2135  0.0126 -0.6091
 2709TIP3    H1 8133   0.510   3.164   0.290 -0.6341 -0.4184 -0.1539
 2709TIP3    H2 8134   0.522   3.221   0.429 -0.1774 -0.6543 -0.0916
 2710TIP3   OH2 8135   1.958   3.417   4.163 -0.7955  0.4363  0.0655
 2710TIP3    H1 8136   1.968   3.471   4.085 -1.9872  0.7480  0.0945
 2710TIP3    H2 8137   1.966   3.479   4.236  0.9409  0.0443  0.2321
 2711TIP3   OH2 8138   2.417   3.022   0.935  0.3577 -0.7686 -0.1316
 2711TIP3    H1 8139   2.490   2.965   0.911  1.6960  1.3186 -1.3419
 2711TIP3    H2 8140   2.402   3.005   1.028  2.9960 -0.6499  0.3923
 2712TIP3   OH2 8141   3.961   2.832   4.799  0.1751  0.2012  1.1915
 2712TIP3    H1 8142   3.951   2.861   4.708 -1.4151  0.3606  1.3998
 2712TIP3    H2 8143   4.034   2.884   4.832 -0.2429  1.2900  0.4572
 2713TIP3   OH2 8144   1.185   1.210   0.333 -0.1764 -0.8338  0.0018
 2713TIP3    H1 8145   1.245   1.224   0.259  0.5445 -0.7573  0.5857
 2713TIP3    H2 8146   1.221   1.134   0.379 -1.0507 -1.3449 -0.1440
 2714TIP3   OH2 8147   1.925   4.132   0.624 -0.4589 -0.0522 -0.2289
 2714TIP3    H1 8148   1.873   4.067   0.576 -1.0830 -0.0133  0.3819
 2714TIP3    H2 8149   1.931   4.206   0.564 -1.1715 -0.0357 -0.2942
 2715TIP3   OH2 8150   0.417   2.521   3.454  0.2530  1.0785 -0.0505
 2715TIP3    H1 8151   0.325   2.523   3.428  0.9279  0.9697 -2.7422
 2715TIP3    H2 8152   0.424   2.444   3.511 -1.2560  0.9433 -0.0003
 2716TIP3   OH2 8153   0.668   0.796   4.562 -0.1325 -0.0025  0.4145
 2716TIP3    H1 8154   0.672   0.701   4.572  0.0450  0.2015  2.7593
 2716TIP3    H2 8155   0.744   0.829   4.610  0.7477  1.3101 -1.6989
 2717TIP3   OH2 8156   6.334   4.933   4.629 -0.4793 -0.7999  0.1618
 2717TIP3    H1 8157   6.248   4.941   4.670  0.7937 -1.1932  3.1809
 2717TIP3    H2 8158   6.358   5.023   4.605 -1.1633 -0.4898  0.6121
 2718TIP3   OH2 8159   0.463   1.301   0.365  0.1933 -0.5177 -0.0361
 2718TIP3    H1 8160   0.439   1.227   0.310  2.5479 -0.4811 -1.2591
 2718TIP3    H2 8161   0.501   1.365   0.305 -2.0710  1.9051  0.9207
 2719TIP3   OH2 8162   1.278   3.378   3.981 -0.7036  0.3424 -0.8133
 2719TIP3    H1 8163   1.218   3.406   3.912 -2.4147 -1.1829 -0.0401
 2719TIP3    H2 8164   1.256   3.286   3.995  1.5220 -0.1390 -0.1301
 2720TIP3   OH2 8165   5.221   4.810   1.230 -0.0577  0.4316  0.2629
 2720TIP3    H1 8166   5.185   4.856   1.306  0.8118 -0.3256  1.1787
 2720TIP3    H2 8167   5.161   4.737   1.216  0.4329 -0.1405  1.0293
 2721TIP3   OH2 8168   2.129   4.244   1.081 -0.2472 -0.1437 -0.2161
 2721TIP3    H1 8169   2.093   4.241   0.992 -2.2679 -2.2395  0.5699
 2721TIP3    H2 8170   2.205   4.185   1.078 -0.1405  0.0124 -0.6127
 2722TIP3   OH2 8171   2.383   2.730   3.348 -0.6172 -0.1585  0.1846
 2722TIP3    H1 8172   2.425   2.765   3.427 -1.1086  0.5563  0.1364
 2722TIP3    H2 8173   2.453   2.682   3.304  0.1663  1.0109  0.1163
 2723TIP3   OH2 8174   4.943   3.331   0.146  0.4757  0.1122 -0.1042
 2723TIP3    H1 8175   5.024   3.290   0.115  2.7723  3.1503  1.3571
 2723TIP3    H2 8176   4.934   3.299   0.236  0.1002 -0.1148 -0.2201
 2724TIP3   OH2 8177   4.964   5.911   4.045  0.1169 -0.5627 -0.4330
 2724TIP3    H1 8178   5.016   5.864   4.111  0.8118 -0.0795 -0.6360
 2724TIP3    H2 8179   4.951   5.847   3.976  0.7050 -0.5981 -0.5180
 2725TIP3   OH2 8180   0.454   2.045   1.591  0.1438 -0.2831 -0.3323
 2725TIP3    H1 8181   0.441   2.038   1.686  3.0812 -0.5296  0.1645
 2725TIP3    H2 8182   0.520   1.978   1.571  0.1141  0.2389 -2.4298
 2726TIP3   OH2 8183   3.665   3.164   0.835 -0.0646  0.5734  0.2855
 2726TIP3    H1 8184   3.647   3.165   0.929 -2.0453 -0.2036 -0.0214
 2726TIP3    H2 8185   3.759   3.149   0.829  0.3772  2.1400  2.1237
 2727TIP3   OH2 8186   4.770   1.747   1.621 -0.3554  0.2130 -0.0442
 2727TIP3    H1 8187   4.852   1.780   1.658  1.1803 -0.7510 -2.3420
 2727TIP3    H2 8188   4.731   1.695   1.691  1.7520 -0.5073  0.6770
 2728TIP3   OH2 8189   5.804   3.756   3.109  0.3246 -0.0211 -0.2772
 2728TIP3    H1 8190   5.722   3.786   3.149 -0.4101 -1.3188 -0.7502
 2728TIP3    H2 8191   5.873   3.796   3.163 -0.5854  1.6057 -0.2545
 2729TIP3   OH2 8192   4.739   5.733   4.988  0.0429 -0.2487  0.2715
 2729TIP3    H1 8193   4.715   5.824   5.007 -0.2426  0.0740 -1.4642
 2729TIP3    H2 8194   4.830   5.737   4.959  0.4597 -0.7203  1.4497
 2730TIP3   OH2 8195   6.316   4.242   1.306  0.0795  0.6715 -0.2692
 2730TIP3    H1 8196   6.344   4.166   1.255  1.1479  1.3842 -0.7882
 2730TIP3    H2 8197   6.223   4.227   1.323  0.4813 -1.2303  0.5003
 2731TIP3   OH2 8198   1.078   3.288   0.287 -0.1568 -0.1809  0.2089
 2731TIP3    H1 8199   1.142   3.280   0.217  0.1221 -1.0406  0.5508
 2731TIP3    H2 8200   1.030   3.205   0.285 -2.4651  1.0871 -1.1779
 2732TIP3   OH2 8201   6.085   5.402   4.851 -0.0823  0.0033 -0.3820
 2732TIP3    H1 8202   6.093   5.497   4.857  1.7813 -0.0561 -1.1641
 2732TIP3    H2 8203   6.044   5.386   4.766 -0.2030  0.1086 -0.3430
 2733TIP3   OH2 8204   4.930   0.752   4.388  0.8167  0.1554 -0.2548
 2733TIP3    H1 8205   4.949   0.845   4.373  0.5599 -0.0115 -1.7326
 2733TIP3    H2 8206   5.015   0.712   4.407  0.8660  0.7628  0.8858
 2734TIP3   OH2 8207   6.248   1.544   1.253 -0.2994 -0.3405 -0.1800
 2734TIP3    H1 8208   6.335   1.553   1.213  0.5518 -0.5518  1.5279
 2734TIP3    H2 8209   6.233   1.628   1.297 -0.1581 -0.9087  0.9937
 2735TIP3   OH2 8210   5.960   1.059   1.466 -0.5893 -0.1535  0.5830
 2735TIP3    H1 8211   6.004   1.107   1.536  1.5602 -1.1138 -0.0073
 2735TIP3    H2 8212   6.031   1.034   1.406 -1.7939 -2.5974  0.0307
 2736TIP3   OH2 8213   3.387   0.973   2.168  0.2839 -0.3856  0.0434
 2736TIP3    H1 8214   3.422   0.948   2.253 -3.5365  1.5953  2.5307
 2736TIP3    H2 8215   3.359   1.064   2.180  0.1669  0.2118 -3.6254
 2737TIP3   OH2 8216   3.558   5.000   1.270  0.2537 -0.1266  0.1461
 2737TIP3    H1 8217   3.623   4.939   1.305  0.3389 -0.7343 -1.0296
 2737TIP3    H2 8218   3.556   4.982   1.176 -2.0053 -0.4686  0.2168
 2738TIP3   OH2 8219   0.884   1.525   2.963  0.6337  1.0565  0.2430
 2738TIP3    H1 8220   0.793   1.502   2.983  0.9049  0.3512  0.7054
 2738TIP3    H2 8221   0.885   1.621   2.962 -0.3351  1.0832 -0.8278
 2739TIP3   OH2 8222   0.927   2.331   3.984  0.0319 -0.3445  0.2414
 2739TIP3    H1 8223   0.930   2.236   3.990 -0.5160 -0.3244  0.8790
 2739TIP3    H2 8224   0.918   2.349   3.890  0.7535 -0.8951  0.0586
 2740TIP3   OH2 8225   5.907   1.295   3.883 -0.7249  0.0434  0.1083
 2740TIP3    H1 8226   5.854   1.228   3.926  1.1040 -2.5238 -1.3689
 2740TIP3    H2 8227   5.855   1.322   3.808 -1.5688  0.4628  0.8284
 2741TIP3   OH2 8228   5.745   5.495   3.061 -0.0755 -0.3488 -0.2437
 2741TIP3    H1 8229   5.781   5.437   3.128  0.7368 -0.6557 -0.9252
 2741TIP3    H2 8230   5.651   5.495   3.078 -0.0163 -1.3354  0.1940
 2742TIP3   OH2 8231   0.487   4.864   4.027  0.5892 -0.0836  0.4268
 2742TIP3    H1 8232   0.487   4.861   3.931  1.1327 -2.1781  0.4470
 2742TIP3    H2 8233   0.403   4.906   4.049  1.3137  2.2584 -0.9328
 2743TIP3   OH2 8234   5.489   1.469   4.318  0.3246  0.0134  1.1469
 2743TIP3    H1 8235   5.449   1.548   4.353 -1.6556 -1.2655  1.9303
 2743TIP3    H2 8236   5.444   1.397   4.362  0.9734 -1.6030 -0.6554
 2744TIP3   OH2 8237   4.843   4.878   1.539 -0.7780  0.4921  0.0521
 2744TIP3    H1 8238   4.892   4.895   1.459  2.2994 -2.1938  1.1245
 2744TIP3    H2 8239   4.812   4.788   1.529 -2.8384  1.0810  0.7471
 2745TIP3   OH2 8240   1.435   2.980   1.921  0.0021 -0.0892  0.4405
 2745TIP3    H1 8241   1.431   3.002   2.014  1.1857  3.6991 -0.1878
 2745TIP3    H2 8242   1.517   2.932   1.911 -0.2701 -0.7551  1.3911
 2746TIP3   OH2 8243   5.450   5.958   4.598 -0.4472  0.1668 -0.4992
 2746TIP3    H1 8244   5.422   5.882   4.547  0.1690  0.0542 -0.6786
 2746TIP3    H2 8245   5.407   6.032   4.556  0.0848  0.0815 -1.2180
 2747TIP3   OH2 8246   0.894   0.056   1.703  0.0233  0.1312 -0.3116
 2747TIP3    H1 8247   0.938   0.094   1.627 -1.2862 -2.4079 -2.4732
 2747TIP3    H2 8248   0.963   0.011   1.751  0.5203 -0.0044 -1.1403
 2748TIP3   OH2 8249   0.045   4.050   4.071 -0.5228 -0.0511  0.2899
 2748TIP3    H1 8250   0.010   4.080   3.987 -1.9927 -1.3656  0.3844
 2748TIP3    H2 8251   0.090   4.126   4.107 -2.8986  1.6496 -0.1026
 2749TIP3   OH2 8252   0.513   4.218   0.589  0.1496 -0.0146  0.4943
 2749TIP3    H1 8253   0.472   4.133   0.606 -1.3110  0.2326 -1.3911
 2749TIP3    H2 8254   0.525   4.220   0.494  1.7897  1.1990  0.6766
 2750TIP3   OH2 8255   5.144   0.760   3.419  0.3008  0.2644  0.1682
 2750TIP3    H1 8256   5.147   0.818   3.344 -1.0632 -0.6324 -0.6257
 2750TIP3    H2 8257   5.158   0.672   3.383 -1.2686 -0.2824  0.8024
 2751TIP3   OH2 8258   5.655   5.202   3.826  0.2272  0.1641 -0.0694
 2751TIP3    H1 8259   5.646   5.165   3.738  0.7964 -1.6063  0.5681
 2751TIP3    H2 8260   5.573   5.180   3.870  0.7119 -0.6917  0.4291
 2752TIP3   OH2 8261   0.036   3.639   2.081 -0.3109  0.3293  0.0322
 2752TIP3    H1 8262   0.046   3.576   2.010  0.5916  3.2977 -2.7384
 2752TIP3    H2 8263  -0.057   3.635   2.104 -0.6737 -0.6183 -1.4610
 2753TIP3   OH2 8264   4.593   1.367   3.050 -0.0984  0.0334  0.2548
 2753TIP3    H1 8265   4.575   1.288   2.998 -1.0279  0.4402 -0.0697
 2753TIP3    H2 8266   4.644   1.423   2.991 -1.3125  0.5723 -0.3170
 2754TIP3   OH2 8267   0.939   3.667   0.717  0.3268 -0.0611  0.1390
 2754TIP3    H1 8268   1.019   3.627   0.751  0.3698 -0.9729 -0.9389
 2754TIP3    H2 8269   0.893   3.594   0.675 -0.6338  0.6295 -0.0317
 2755TIP3   OH2 8270   3.318  -0.020   1.963 -0.4586 -0.3077 -0.2135
 2755TIP3    H1 8271   3.403  -0.020   2.006 -1.4399  0.7848  1.9098
 2755TIP3    H2 8272   3.317   0.060   1.911 -0.5739  0.2896  0.6778
 2756TIP3   OH2 8273   3.772   5.122   0.753 -0.1384 -0.5341 -0.1483
 2756TIP3    H1 8274   3.747   5.128   0.846  0.3551  0.1833 -0.0570
 2756TIP3    H2 8275   3.829   5.197   0.739 -2.2962  0.9189 -1.7184
 2757TIP3   OH2 8276   1.876   3.604   3.929  0.5199  0.0607 -0.0308
 2757TIP3    H1 8277   1.854   3.658   3.853  0.0732  0.2703  0.2384
 2757TIP3    H2 8278   1.960   3.565   3.907  0.6812  0.5869 -0.3853
 2758TIP3   OH2 8279   3.761   0.691   0.972  0.0437 -0.0913  0.2618
 2758TIP3    H1 8280   3.697   0.750   1.013 -0.1176  0.2502 -0.4646
 2758TIP3    H2 8281   3.818   0.663   1.044 -1.4741 -1.1394  1.1026
 2759TIP3   OH2 8282   5.016   3.501   0.543 -0.1126  0.3080 -0.0656
 2759TIP3    H1 8283   5.062   3.461   0.616  0.0674 -0.7772 -0.7344
 2759TIP3    H2 8284   5.082   3.552   0.497 -0.1168  0.6066  0.2595
 2760TIP3   OH2 8285   1.039   1.066   1.522  0.3662  0.5221 -0.2889
 2760TIP3    H1 8286   0.984   1.036   1.450 -0.1119 -0.3475  0.4268
 2760TIP3    H2 8287   1.122   1.020   1.509  0.8483  1.5908 -1.1839
 2761TIP3   OH2 8288   0.346   5.443   2.881  0.1673 -0.6349  0.0358
 2761TIP3    H1 8289   0.441   5.441   2.886  0.1529  0.3526  0.9176
 2761TIP3    H2 8290   0.316   5.431   2.971 -0.4580  1.9873  0.2583
 2762TIP3   OH2 8291   0.246   4.896   4.971 -0.3128  0.3203  0.1764
 2762TIP3    H1 8292   0.313   4.911   4.904 -0.1089  1.6651  0.6520
 2762TIP3    H2 8293   0.180   4.842   4.927 -0.4846  1.6722 -1.3221
 2763TIP3   OH2 8294   1.998   5.566   3.300 -0.7490 -0.3218 -0.2950
 2763TIP3    H1 8295   2.055   5.491   3.284  0.0367  0.2161 -0.1088
 2763TIP3    H2 8296   2.057   5.642   3.296 -0.9795  0.0949  2.3142
 2764TIP3   OH2 8297   5.651   1.008   2.747 -0.0905 -0.1547  0.3406
 2764TIP3    H1 8298   5.628   0.922   2.710  0.6680 -0.7229  1.1686
 2764TIP3    H2 8299   5.706   0.988   2.822  0.7837  1.0948  0.0605
 2765TIP3   OH2 8300   0.597   0.771   1.181 -0.3333 -0.5999  0.4063
 2765TIP3    H1 8301   0.589   0.802   1.091  1.7560 -1.7669 -0.2361
 2765TIP3    H2 8302   0.616   0.849   1.232  3.1313 -0.3832 -0.9233
 2766TIP3   OH2 8303   1.861   1.008   0.244 -0.1727 -0.2147 -0.4766
 2766TIP3    H1 8304   1.957   1.013   0.245 -0.1886  0.1056 -0.5017
 2766TIP3    H2 8305   1.838   0.982   0.333  0.0864 -3.3014 -1.1921
 2767TIP3   OH2 8306   5.260   5.065   1.902  0.2365  0.2973  0.1604
 2767TIP3    H1 8307   5.261   4.970   1.908  0.4240  0.2015 -1.1101
 2767TIP3    H2 8308   5.180   5.085   1.853  0.5918  0.7315 -0.2558
 2768TIP3   OH2 8309   1.913   0.021   2.886  0.2167 -0.0908 -0.5721
 2768TIP3    H1 8310   1.969   0.094   2.913  0.7058  0.9546 -3.9521
 2768TIP3    H2 8311   1.835   0.063   2.850 -0.2352 -1.2887 -1.0331
 2769TIP3   OH2 8312   6.182   0.333   2.789  0.2376  0.1831 -0.5453
 2769TIP3    H1 8313   6.229   0.414   2.771  2.7108 -0.4263  2.3039
 2769TIP3    H2 8314   6.225   0.267   2.734  0.9079  0.1313  0.0290
 2770TIP3   OH2 8315   3.628   0.551   0.784  0.4551 -0.2043  0.2977
 2770TIP3    H1 8316   3.671   0.597   0.856  1.8635  0.8730 -1.1594
 2770TIP3    H2 8317   3.682   0.570   0.707 -1.3797 -0.7154 -1.2039
 2771TIP3   OH2 8318   2.324   0.847   3.966  0.3816  0.3745 -0.7010
 2771TIP3    H1 8319   2.409   0.849   4.011 -0.6987 -0.0996  1.5117
 2771TIP3    H2 8320   2.344   0.817   3.877  2.6628  1.5171 -0.6361
 2772TIP3   OH2 8321   2.014   1.600   1.413 -0.2701  0.4603 -0.4491
 2772TIP3    H1 8322   2.040   1.656   1.486 -1.7066  0.0420  0.4389
 2772TIP3    H2 8323   2.046   1.513   1.437 -0.0283  0.4798 -0.7081
 2773TIP3   OH2 8324   2.589   1.887   4.175 -0.0906  0.3041 -0.4149
 2773TIP3    H1 8325   2.510   1.895   4.229 -0.0647  0.2210 -0.3648
 2773TIP3    H2 8326   2.631   1.973   4.180 -0.0812  0.2919 -0.2921
 2774TIP3   OH2 8327   2.696   3.053   1.407 -0.1111  0.5128  0.2077
 2774TIP3    H1 8328   2.706   2.964   1.441  3.7662 -0.7876 -3.4055
 2774TIP3    H2 8329   2.765   3.103   1.450  0.5188  0.5542 -0.7987
 2775TIP3   OH2 8330   1.211   5.572   3.331 -0.0184  0.3064  0.2544
 2775TIP3    H1 8331   1.279   5.639   3.326  0.0962  0.2174  0.6069
 2775TIP3    H2 8332   1.154   5.591   3.257  1.4893 -0.8272 -1.2866
 2776TIP3   OH2 8333   2.967   5.310   1.594  0.2547 -0.1902  0.0298
 2776TIP3    H1 8334   2.939   5.400   1.578 -1.9338 -0.8314  0.0128
 2776TIP3    H2 8335   2.910   5.278   1.664  2.0922 -1.0788  1.2061
 2777TIP3   OH2 8336   0.963   2.250   4.526 -0.3341 -0.0881  0.5282
 2777TIP3    H1 8337   1.005   2.224   4.608  0.7967 -1.1943 -0.3623
 2777TIP3    H2 8338   0.871   2.261   4.549 -0.0282 -0.2374  1.9670
 2778TIP3   OH2 8339   2.082   2.867   4.100  0.2094 -0.3490  0.2750
 2778TIP3    H1 8340   1.999   2.839   4.061  0.0037  0.2936  0.2463
 2778TIP3    H2 8341   2.063   2.872   4.194 -0.0852  0.7778  0.1737
 2779TIP3   OH2 8342   1.160   2.503   1.205  0.4299  0.1356 -0.0829
 2779TIP3    H1 8343   1.086   2.448   1.230 -1.5264  1.4392 -2.5684
 2779TIP3    H2 8344   1.141   2.587   1.246 -0.5636  1.0213 -2.1992
 2780TIP3   OH2 8345   0.219   2.698   3.753  0.3932 -0.1135  0.1486
 2780TIP3    H1 8346   0.154   2.732   3.815  0.4307 -0.1085  0.1843
 2780TIP3    H2 8347   0.166   2.651   3.688  0.4109 -0.8062  0.6240
 2781TIP3   OH2 8348   1.970   0.219   3.643  0.6876 -0.5807 -0.4331
 2781TIP3    H1 8349   2.049   0.188   3.599  1.5241 -1.1713  1.3937
 2781TIP3    H2 8350   1.909   0.239   3.572  3.1003  1.7510 -2.0478
 2782TIP3   OH2 8351   0.370   1.538   2.754  0.2069 -0.3940  0.1205
 2782TIP3    H1 8352   0.376   1.484   2.833  2.3268  0.3774  0.5585
 2782TIP3    H2 8353   0.419   1.489   2.688 -0.6197 -0.5113 -0.4193
 2783TIP3   OH2 8354   0.056   3.283   2.815  0.0630 -0.5582  0.9704
 2783TIP3    H1 8355   0.135   3.230   2.804  0.9885  0.9480  0.0564
 2783TIP3    H2 8356  -0.014   3.218   2.829  1.2045 -2.0018  0.2998
 2784TIP3   OH2 8357   2.467   1.903   1.174  0.0630 -0.0500  0.2053
 2784TIP3    H1 8358   2.448   1.882   1.083  0.1847  0.1263  0.1383
 2784TIP3    H2 8359   2.392   1.868   1.223  0.1868 -0.4897  0.0818
 2785TIP3   OH2 8360   3.989   2.410   4.693  0.4973 -0.3771  0.7767
 2785TIP3    H1 8361   4.034   2.382   4.773 -2.2157 -1.4016  2.0736
 2785TIP3    H2 8362   4.001   2.337   4.632 -1.3782 -1.7751  1.9859
 2786TIP3   OH2 8363   2.220   0.876   2.200 -0.0431  0.1107  0.7252
 2786TIP3    H1 8364   2.229   0.970   2.187  1.5678 -0.2197 -1.0211
 2786TIP3    H2 8365   2.150   0.851   2.139 -1.9625  0.4176  2.7050
 2787TIP3   OH2 8366   1.147   2.750   1.540  0.5085  0.0481  0.0376
 2787TIP3    H1 8367   1.233   2.742   1.499  1.4653  2.2459  1.4660
 2787TIP3    H2 8368   1.086   2.753   1.466  1.7415 -0.4381 -1.0424
 2788TIP3   OH2 8369   2.778   3.447   0.244  0.5296  0.0516  0.0750
 2788TIP3    H1 8370   2.837   3.448   0.169 -0.5441 -3.3375 -1.0122
 2788TIP3    H2 8371   2.808   3.519   0.300  1.6570  2.4443 -3.3155
 2789TIP3   OH2 8372   1.470   2.979   0.828  0.1877 -0.2131  0.1505
 2789TIP3    H1 8373   1.554   3.002   0.868  0.6185  0.6548 -1.2100
 2789TIP3    H2 8374   1.475   2.884   0.814  1.2179 -0.0733 -0.5194
 2790TIP3   OH2 8375   0.751   1.318   0.948 -0.2642 -0.3040  0.3290
 2790TIP3    H1 8376   0.846   1.316   0.938 -0.3421 -1.0327 -0.3684
 2790TIP3    H2 8377   0.737   1.326   1.042  0.4943  2.6534  0.2811
 2791TIP3   OH2 8378   2.154   3.578   2.782 -0.6463 -0.0239 -0.1701
 2791TIP3    H1 8379   2.098   3.503   2.765 -0.9817  0.1543  0.1292
 2791TIP3    H2 8380   2.124   3.645   2.721 -0.3143 -0.1407 -0.4722
 2792TIP3   OH2 8381   3.799   3.559   1.899 -0.3055 -0.3747  0.1214
 2792TIP3    H1 8382   3.801   3.592   1.989  1.5534  0.8715 -0.3144
 2792TIP3    H2 8383   3.869   3.494   1.895  1.1910  1.1781 -0.9044
 2793TIP3   OH2 8384   1.409   3.720   0.356  0.5712 -0.6106 -0.3980
 2793TIP3    H1 8385   1.447   3.805   0.335  1.5346 -0.5591  1.3442
 2793TIP3    H2 8386   1.424   3.710   0.450 -0.6687 -2.1516 -0.3292
 2794TIP3   OH2 8387   0.341   2.258   3.527  0.2407  0.1231  0.1980
 2794TIP3    H1 8388   0.371   2.188   3.586 -2.4384 -0.0532  1.5241
 2794TIP3    H2 8389   0.363   2.226   3.439  1.1485 -1.2922  0.8993
 2795TIP3   OH2 8390   3.099   3.955   3.713  0.1351 -0.1807  0.1155
 2795TIP3    H1 8391   3.160   4.018   3.751 -0.6468  0.5644  0.1574
 2795TIP3    H2 8392   3.012   3.992   3.730 -0.2660  0.7420 -3.2015
 2796TIP3   OH2 8393   2.880   5.073   4.634  0.0143 -0.0391  0.3163
 2796TIP3    H1 8394   2.951   5.085   4.697  0.6552 -2.4091  0.1633
 2796TIP3    H2 8395   2.920   5.089   4.549 -0.0114  0.0499  0.3214
 2797TIP3   OH2 8396   3.293   0.780   2.732  0.4443  0.1372 -0.4885
 2797TIP3    H1 8397   3.224   0.846   2.719  1.4116  0.9731 -1.6099
 2797TIP3    H2 8398   3.307   0.779   2.827 -0.2716  0.8366 -0.3595
 2798TIP3   OH2 8399   3.848   5.140   2.099  0.2761 -0.4985  0.1671
 2798TIP3    H1 8400   3.933   5.115   2.134  0.1528  1.2370  1.9308
 2798TIP3    H2 8401   3.867   5.180   2.014  1.1521 -0.6583  0.2795
 2799TIP3   OH2 8402   0.046   2.480   2.610  0.6452 -0.0078 -0.5531
 2799TIP3    H1 8403   0.031   2.457   2.702 -1.3949 -0.6686 -1.0054
 2799TIP3    H2 8404   0.105   2.555   2.614  1.4577 -0.6858  1.2488
 2800TIP3   OH2 8405   1.174   2.199   3.384  0.4123 -0.6167 -0.1372
 2800TIP3    H1 8406   1.160   2.126   3.446  0.6854 -0.6918 -0.1619
 2800TIP3    H2 8407   1.124   2.174   3.307  1.8957 -1.6437 -0.8284
 2801TIP3   OH2 8408   0.142   2.902   2.845  0.1221  0.6613  0.0203
 2801TIP3    H1 8409   0.175   2.992   2.833  0.6850  0.6419  1.2580
 2801TIP3    H2 8410   0.073   2.911   2.911 -0.4597  0.3093 -0.5411
 2802TIP3   OH2 8411   0.510   2.118   4.278 -0.2296  0.3048 -0.5171
 2802TIP3    H1 8412   0.462   2.175   4.338  0.9355  1.7275 -0.8701
 2802TIP3    H2 8413   0.468   2.033   4.287 -2.1166  1.2223 -0.0335
 2803TIP3   OH2 8414   4.753   2.143   4.172 -0.2356  0.2880 -0.0690
 2803TIP3    H1 8415   4.682   2.083   4.196  0.5549 -0.5045  0.3289
 2803TIP3    H2 8416   4.773   2.189   4.254 -1.0057  1.2984 -0.4272
 2804TIP3   OH2 8417   5.938   1.749   5.040 -0.0655 -0.4926  0.4678
 2804TIP3    H1 8418   5.959   1.837   5.072  0.1683  0.1118 -1.2553
 2804TIP3    H2 8419   5.871   1.762   4.974 -1.0006 -1.7686  1.1181
 2805TIP3   OH2 8420   3.964   2.686   4.171 -0.7256 -0.6127  0.0084
 2805TIP3    H1 8421   3.974   2.772   4.130 -2.1113 -1.0245 -1.2582
 2805TIP3    H2 8422   4.040   2.679   4.230 -0.7522  1.6060  0.4036
 2806TIP3   OH2 8423   1.030   4.345   3.641  0.4317 -0.0088  0.4550
 2806TIP3    H1 8424   0.973   4.281   3.600 -0.1486  0.4062  0.6061
 2806TIP3    H2 8425   0.994   4.357   3.728  1.5508 -0.7526  1.0523
 2807TIP3   OH2 8426   6.278   5.576   0.237 -0.4801  0.0544  0.1593
 2807TIP3    H1 8427   6.274   5.671   0.243 -1.6100  0.0538 -0.1999
 2807TIP3    H2 8428   6.264   5.545   0.327  1.5832  0.2211  0.5799
 2808TIP3   OH2 8429   1.731   0.806   2.879 -0.0104 -0.2371  0.1088
 2808TIP3    H1 8430   1.779   0.757   2.812  2.0936 -0.3839  1.6379
 2808TIP3    H2 8431   1.655   0.751   2.899 -0.1262 -0.6764 -1.3807
 2809TIP3   OH2 8432   6.205   0.956   2.578 -0.2107 -0.0187  0.1262
 2809TIP3    H1 8433   6.144   1.029   2.578 -2.3285 -1.6816 -0.2524
 2809TIP3    H2 8434   6.251   0.962   2.494 -2.0896 -0.4157 -0.9808
 2810TIP3   OH2 8435   4.603   5.771   2.656  0.0654 -0.1085 -0.5342
 2810TIP3    H1 8436   4.605   5.675   2.657  0.0904 -0.1294 -1.6271
 2810TIP3    H2 8437   4.695   5.797   2.657  0.0683 -0.0393  1.4200
 2811TIP3   OH2 8438   2.094   3.551   4.575 -0.2760 -0.2238  0.1584
 2811TIP3    H1 8439   2.008   3.510   4.564  0.2139 -1.0326 -0.8575
 2811TIP3    H2 8440   2.145   3.487   4.626  0.1208 -0.3680 -0.4021
 2812TIP3   OH2 8441   2.361   1.647   1.696 -0.4282 -0.1478 -0.1821
 2812TIP3    H1 8442   2.373   1.661   1.790  0.4906 -0.7118 -0.2080
 2812TIP3    H2 8443   2.392   1.728   1.656  0.1537 -0.3064 -0.0558
 2813TIP3   OH2 8444   5.841   2.698   3.028  0.1916 -0.1990 -0.1393
 2813TIP3    H1 8445   5.854   2.719   2.936 -0.0156 -2.5495 -0.7518
 2813TIP3    H2 8446   5.928   2.672   3.059  0.1943  0.2679  0.2685
 2814TIP3   OH2 8447   6.227   5.299   0.729  0.1274 -0.8480  0.6634
 2814TIP3    H1 8448   6.198   5.376   0.778  0.5844 -0.5280  0.4431
 2814TIP3    H2 8449   6.146   5.258   0.698 -0.0938  1.2812 -1.8694
 2815TIP3   OH2 8450   1.887   1.196   2.397 -0.4471 -0.2241  0.4607
 2815TIP3    H1 8451   1.852   1.167   2.313  1.4964 -0.9983 -0.1395
 2815TIP3    H2 8452   1.810   1.210   2.452 -1.7890  0.4406 -1.4694
 2816TIP3   OH2 8453   6.173   5.015   2.770  0.4222  0.0573  0.3859
 2816TIP3    H1 8454   6.141   4.934   2.730 -0.7056  1.0040 -0.7391
 2816TIP3    H2 8455   6.117   5.028   2.847  1.0057 -0.5266  0.9198
 2817TIP3   OH2 8456   3.586   5.477   2.000 -0.0802 -0.5617 -0.4451
 2817TIP3    H1 8457   3.540   5.461   1.918  0.0173  1.6686 -0.9816
 2817TIP3    H2 8458   3.667   5.521   1.974  1.0982 -1.9447  0.6977
 2818TIP3   OH2 8459   4.292   1.616   2.172  0.0879  0.1620  0.2934
 2818TIP3    H1 8460   4.380   1.639   2.140 -0.6764  1.2921 -1.1047
 2818TIP3    H2 8461   4.238   1.693   2.152 -1.1729 -0.4078  1.3769
 2819TIP3   OH2 8462   0.002   0.157   2.177 -0.2081 -0.1757  0.5128
 2819TIP3    H1 8463   0.039   0.245   2.177 -1.1638  0.2363  0.3128
 2819TIP3    H2 8464   0.060   0.107   2.234  1.8528 -0.0710 -1.3331
 2820TIP3   OH2 8465   1.403   3.983   4.228  0.2763  0.7371  0.4590
 2820TIP3    H1 8466   1.485   4.001   4.274  0.6027 -0.1193  0.2314
 2820TIP3    H2 8467   1.399   4.051   4.160  0.3149  1.3600  1.0682
 2821TIP3   OH2 8468   3.549   1.499   3.391  0.0010 -0.3314 -1.1374
 2821TIP3    H1 8469   3.518   1.581   3.429  0.7353  0.3835 -2.0384
 2821TIP3    H2 8470   3.485   1.478   3.323 -0.5909 -0.9189 -0.4254
 2822TIP3   OH2 8471   0.321   1.915   0.160  0.1373  0.9718 -0.7582
 2822TIP3    H1 8472   0.346   1.933   0.250  0.0598  0.4878 -0.6369
 2822TIP3    H2 8473   0.393   1.862   0.125  0.5998  1.9141 -1.2604
 2823TIP3   OH2 8474   4.369   4.046   2.576  0.6930 -0.3756  0.1019
 2823TIP3    H1 8475   4.333   4.112   2.636  0.8001  0.8302 -1.1261
 2823TIP3    H2 8476   4.344   4.076   2.489  1.2483 -1.6662 -0.5300
 2824TIP3   OH2 8477   4.215   1.946   2.213 -0.4916 -0.1875  0.7714
 2824TIP3    H1 8478   4.280   1.910   2.273 -0.4584  0.9019  1.4048
 2824TIP3    H2 8479   4.138   1.963   2.268 -0.1722  1.6249  0.7215
 2825TIP3   OH2 8480   4.272   5.457   2.180 -0.3049  0.4475 -0.0196
 2825TIP3    H1 8481   4.267   5.533   2.238 -2.7086 -0.5448  1.2365
 2825TIP3    H2 8482   4.365   5.443   2.166  0.2306  2.8637  0.7327
 2826TIP3   OH2 8483   4.191   2.410   1.724  0.1278  0.5714  0.1572
 2826TIP3    H1 8484   4.133   2.375   1.792  0.5585  1.2362  0.8813
 2826TIP3    H2 8485   4.239   2.333   1.691  0.3927  0.3348  1.0729
 2827TIP3   OH2 8486   1.231   4.895   2.838 -0.0782 -0.0459  0.0698
 2827TIP3    H1 8487   1.318   4.936   2.838  0.4856 -1.0006  2.8659
 2827TIP3    H2 8488   1.175   4.957   2.884 -0.2027 -0.6211  0.7069
 2828TIP3   OH2 8489   3.148   4.758   3.535 -0.0330  0.2110  0.0783
 2828TIP3    H1 8490   3.121   4.697   3.466 -0.1569  0.6253 -0.2412
 2828TIP3    H2 8491   3.134   4.845   3.497  0.4666  0.4377  0.4060
 2829TIP3   OH2 8492   5.086   5.316   4.823  0.3242  0.3806  0.4643
 2829TIP3    H1 8493   5.033   5.344   4.749 -1.2445  0.5939  1.6262
 2829TIP3    H2 8494   5.149   5.387   4.836 -1.0960  1.6055  0.9450
 2830TIP3   OH2 8495   6.033   4.355   2.577 -0.0553  0.4384 -0.4053
 2830TIP3    H1 8496   6.088   4.411   2.521 -0.5032  2.8859  1.4581
 2830TIP3    H2 8497   6.095   4.307   2.631  0.3362 -1.0862 -2.0823
 2831TIP3   OH2 8498   3.407   2.768   2.854 -0.3087 -0.6466  0.3228
 2831TIP3    H1 8499   3.476   2.785   2.790  0.5204 -1.2675  1.0395
 2831TIP3    H2 8500   3.393   2.674   2.851 -1.6703 -0.4616 -0.3376
 2832TIP3   OH2 8501   1.044   1.251   3.930 -0.2211  0.0779  0.0706
 2832TIP3    H1 8502   0.985   1.309   3.881  0.8189  1.5661  0.4914
 2832TIP3    H2 8503   1.121   1.306   3.948  1.0572 -1.6288  0.0069
 2833TIP3   OH2 8504   1.461   0.705   2.920 -0.3044 -0.3301  0.2124
 2833TIP3    H1 8505   1.397   0.634   2.927 -1.3447  0.6419  0.7057
 2833TIP3    H2 8506   1.462   0.727   2.826  0.0384 -0.9834  0.0531
 2834TIP3   OH2 8507   0.539   0.558   0.463  0.4607 -0.3175 -0.6093
 2834TIP3    H1 8508   0.556   0.513   0.381  0.9941 -0.3483 -0.4823
 2834TIP3    H2 8509   0.556   0.493   0.531  0.8716 -0.0332 -0.4407
 2835TIP3   OH2 8510   1.541   5.818   3.314  0.1875 -0.0770  0.5179
 2835TIP3    H1 8511   1.528   5.734   3.357  2.5505 -0.7173  0.1615
 2835TIP3    H2 8512   1.612   5.802   3.252 -1.9230  1.2266 -2.4643
 2836TIP3   OH2 8513   3.683   3.788   0.430  0.2940 -0.0371  0.3638
 2836TIP3    H1 8514   3.655   3.729   0.499  0.1051 -1.1823 -0.6502
 2836TIP3    H2 8515   3.758   3.744   0.390 -0.0781  0.2259 -0.6540
 2837TIP3   OH2 8516   5.484   0.115   3.336  0.1978  0.2746 -0.4406
 2837TIP3    H1 8517   5.442   0.029   3.340 -0.3612  0.5783  2.0346
 2837TIP3    H2 8518   5.571   0.100   3.375  0.3626  0.6981 -0.6441
 2838TIP3   OH2 8519   1.693   5.572   2.515 -0.0998  0.9415  0.4640
 2838TIP3    H1 8520   1.766   5.553   2.572 -1.3748  1.7196  2.4687
 2838TIP3    H2 8521   1.718   5.535   2.430  1.8006 -0.3942  1.5366
 2839TIP3   OH2 8522   3.158   5.851   0.936 -0.0095 -0.9587  0.1780
 2839TIP3    H1 8523   3.099   5.834   0.863  0.1406  2.6220 -0.9816
 2839TIP3    H2 8524   3.102   5.849   1.014 -1.4028  0.7983 -0.7191
 2840TIP3   OH2 8525   2.555   2.928   4.024  0.0685  0.2979  0.3166
 2840TIP3    H1 8526   2.620   2.985   3.982 -0.2292 -0.5300 -1.3383
 2840TIP3    H2 8527   2.602   2.888   4.097  1.3729 -0.0948 -0.6940
 2841TIP3   OH2 8528   4.214   2.549   3.977 -0.7831 -0.5911  0.4136
 2841TIP3    H1 8529   4.164   2.477   3.939  0.7426 -1.7542  0.5322
 2841TIP3    H2 8530   4.252   2.512   4.057  0.5931  0.1158  0.1093
 2842TIP3   OH2 8531   6.302   0.974   0.705  0.3644  0.2820  0.3510
 2842TIP3    H1 8532   6.299   1.057   0.753  1.7186  0.5115  0.0784
 2842TIP3    H2 8533   6.342   0.912   0.767  0.3487  0.1052  0.1862
 2843TIP3   OH2 8534   0.553   4.471   1.991  0.1746 -0.0022 -0.2513
 2843TIP3    H1 8535   0.637   4.490   1.948 -0.5312  0.7168 -1.3831
 2843TIP3    H2 8536   0.493   4.453   1.918 -0.8423  0.2898  0.5000
 2844TIP3   OH2 8537   4.878   2.566   1.929  0.1610  0.6085 -0.7981
 2844TIP3    H1 8538   4.853   2.594   2.017  2.7376  1.3211 -0.1923
 2844TIP3    H2 8539   4.894   2.472   1.937  2.6025  1.0196  0.1962
 2845TIP3   OH2 8540   1.175   5.288   3.287  0.0208 -0.5834  0.8314
 2845TIP3    H1 8541   1.233   5.345   3.337 -1.0234  0.5442  0.7854
 2845TIP3    H2 8542   1.124   5.347   3.232 -0.6367 -1.6149  0.2917
 2846TIP3   OH2 8543   1.551   2.396   2.643 -0.5251  0.0877 -0.1983
 2846TIP3    H1 8544   1.637   2.430   2.667 -0.4690 -0.5364  0.5294
 2846TIP3    H2 8545   1.562   2.302   2.638 -1.4492 -0.1477  1.3062
 2847TIP3   OH2 8546   2.866   3.814   4.994  0.1996 -0.0209  0.3740
 2847TIP3    H1 8547   2.795   3.759   4.960 -0.8694  1.2447  0.5019
 2847TIP3    H2 8548   2.884   3.876   4.924 -0.3119  1.0144  1.1276
 2848TIP3   OH2 8549   3.620   0.673   0.246 -0.0538 -0.2401  0.0447
 2848TIP3    H1 8550   3.534   0.694   0.211 -0.2531 -0.6120  0.3176
 2848TIP3    H2 8551   3.679   0.732   0.198 -0.2028 -1.3107 -1.5573
 2849TIP3   OH2 8552   4.198   5.569   1.108  0.0014 -0.1134 -0.2038
 2849TIP3    H1 8553   4.111   5.600   1.135 -0.2346 -0.5834 -0.4195
 2849TIP3    H2 8554   4.188   5.549   1.015  0.7087  1.1566 -0.5771
 2850TIP3   OH2 8555   4.048   3.753   0.075 -0.4795  0.3290  0.2595
 2850TIP3    H1 8556   4.117   3.819   0.071 -0.9393  0.7476 -1.4189
 2850TIP3    H2 8557   4.094   3.670   0.068  0.2482  0.2672  3.7208
 2851TIP3   OH2 8558   3.607   2.678   2.693 -0.1101 -0.1419 -0.6497
 2851TIP3    H1 8559   3.629   2.769   2.712 -0.7206 -0.3503  1.2792
 2851TIP3    H2 8560   3.683   2.628   2.721 -1.2252 -0.4999  2.0188
 2852TIP3   OH2 8561   2.222   1.164   3.565 -0.2027 -0.4041 -0.0862
 2852TIP3    H1 8562   2.254   1.248   3.599  0.3902 -1.4388  2.0591
 2852TIP3    H2 8563   2.149   1.141   3.622  0.1663 -1.7466 -0.1353
 2853TIP3   OH2 8564   2.314   5.807   2.806  0.2284 -0.4160 -0.1342
 2853TIP3    H1 8565   2.289   5.849   2.724  1.2392  0.7787  0.1325
 2853TIP3    H2 8566   2.409   5.817   2.810  0.2167 -0.5766  1.1078
 2854TIP3   OH2 8567   5.120   3.873   3.607 -0.2053  0.0360  0.7269
 2854TIP3    H1 8568   5.091   3.881   3.516  0.2679 -1.1587  0.4531
 2854TIP3    H2 8569   5.215   3.862   3.601  0.2841  2.8545  1.5562
 2855TIP3   OH2 8570   2.910   5.659   4.524  0.3497 -0.2568  0.4304
 2855TIP3    H1 8571   2.858   5.606   4.585 -2.6557  0.8004 -1.0048
 2855TIP3    H2 8572   2.864   5.650   4.440  1.9509  1.6112 -0.7231
 2856TIP3   OH2 8573   3.164   5.024   3.114  0.0127 -0.0545 -0.3929
 2856TIP3    H1 8574   3.134   4.933   3.111 -0.1847  0.0346 -2.6632
 2856TIP3    H2 8575   3.255   5.018   3.145  0.6419 -1.2584 -2.3032
 2857TIP3   OH2 8576   2.050   4.404   2.406 -0.7961 -0.2872 -0.0808
 2857TIP3    H1 8577   2.096   4.455   2.340 -0.2421 -0.3880  0.2238
 2857TIP3    H2 8578   2.080   4.314   2.392  0.5396 -0.0850  1.3095
 2858TIP3   OH2 8579   4.174   5.680   0.584 -0.0529  0.0847 -0.9441
 2858TIP3    H1 8580   4.229   5.759   0.579  1.5759 -0.6742  2.1944
 2858TIP3    H2 8581   4.234   5.608   0.564 -0.5165 -0.5879 -0.0124
 2859TIP3   OH2 8582   0.348   2.851   5.119  0.2016 -0.1365  0.0839
 2859TIP3    H1 8583   0.302   2.826   5.200  1.0820 -0.5558  0.4692
 2859TIP3    H2 8584   0.360   2.769   5.072  1.0451 -0.1291  0.2588
 2860TIP3   OH2 8585   0.188   3.730   4.809  0.4815 -0.9939 -0.1723
 2860TIP3    H1 8586   0.183   3.792   4.736  1.7581  0.5999  1.0141
 2860TIP3    H2 8587   0.098   3.697   4.818  0.0522 -0.3452 -1.7000
 2861TIP3   OH2 8588   4.629   2.971   0.474 -0.4552  0.5481 -0.0734
 2861TIP3    H1 8589   4.602   2.912   0.544 -1.5586  0.2323 -0.7376
 2861TIP3    H2 8590   4.718   2.944   0.453 -0.3299  0.2560  0.7891
 2862TIP3   OH2 8591   1.635   2.423   1.070  0.1032  0.1001 -0.8076
 2862TIP3    H1 8592   1.639   2.357   1.139  0.9398  1.0717  0.1160
 2862TIP3    H2 8593   1.546   2.458   1.075  1.0090  2.4265  2.0672
 2863TIP3   OH2 8594   0.283   5.252   0.807  0.0899 -0.5046  0.6516
 2863TIP3    H1 8595   0.211   5.205   0.849  0.1128 -0.4786  0.7189
 2863TIP3    H2 8596   0.337   5.183   0.768  0.7294 -0.6107  1.6884
 2864TIP3   OH2 8597   3.090   2.708   1.966  0.6661 -0.3679 -0.5028
 2864TIP3    H1 8598   3.164   2.762   1.993  2.2865 -2.0833 -1.3182
 2864TIP3    H2 8599   3.017   2.771   1.956  1.1831  1.0340  2.9433
 2865TIP3   OH2 8600   0.382   4.481   2.658  0.3032 -0.4136 -0.9939
 2865TIP3    H1 8601   0.306   4.500   2.603  0.0875  0.1649 -0.5074
 2865TIP3    H2 8602   0.451   4.537   2.623  0.3919 -0.6393 -1.1804
 2866TIP3   OH2 8603   4.067   3.335   2.965 -0.2536  0.0630 -0.1454
 2866TIP3    H1 8604   3.980   3.369   2.946 -0.0020 -0.0787 -1.6884
 2866TIP3    H2 8605   4.084   3.273   2.895  1.0390 -0.0132  0.2127
 2867TIP3   OH2 8606   3.107   0.275   4.496  0.3884 -0.3309  0.2828
 2867TIP3    H1 8607   3.075   0.253   4.584  0.1377 -0.2681  0.2081
 2867TIP3    H2 8608   3.176   0.211   4.480  0.7821 -0.0301  0.7266
 2868TIP3   OH2 8609   3.195   4.427   5.053 -0.2939  0.0617 -0.3450
 2868TIP3    H1 8610   3.193   4.508   5.001 -0.1251  0.2760 -0.0209
 2868TIP3    H2 8611   3.108   4.421   5.090  0.0472  0.7447  0.6098
 2869TIP3   OH2 8612   2.954   4.477   2.876  0.1781  0.5710  0.5480
 2869TIP3    H1 8613   2.879   4.531   2.899 -0.5825 -0.8499  1.5912
 2869TIP3    H2 8614   2.949   4.468   2.780 -1.0969  0.3594  0.6176
 2870TIP3   OH2 8615   0.710   2.483   2.081  0.2068 -0.9800  0.2006
 2870TIP3    H1 8616   0.645   2.501   2.012 -0.6512 -2.6830  0.5111
 2870TIP3    H2 8617   0.789   2.526   2.050 -0.2476 -1.3854 -1.7016
 2871TIP3   OH2 8618   1.080   4.129   3.183  0.1349  0.1855  0.7010
 2871TIP3    H1 8619   1.038   4.086   3.258 -3.8287  0.4395 -1.1080
 2871TIP3    H2 8620   1.124   4.205   3.221  1.5396 -1.6772  3.1290
 2872TIP3   OH2 8621   1.107   5.024   3.798  0.1267  0.2070 -0.3415
 2872TIP3    H1 8622   1.066   4.938   3.807 -0.4559  0.4396 -0.6825
 2872TIP3    H2 8623   1.036   5.081   3.766  0.6081  0.7178 -0.5164
 2873TIP3   OH2 8624   2.509   1.059   3.196  0.4702  0.1790  0.7785
 2873TIP3    H1 8625   2.443   1.109   3.147 -0.7466 -1.4411  0.6853
 2873TIP3    H2 8626   2.593   1.094   3.166 -0.2278 -0.2978 -2.0043
 2874TIP3   OH2 8627   4.599   4.954   0.115 -0.0059 -0.7618 -0.6029
 2874TIP3    H1 8628   4.529   5.003   0.158 -1.0555  0.0666 -3.0526
 2874TIP3    H2 8629   4.671   5.017   0.107 -0.6459 -0.1796 -2.0226
 2875TIP3   OH2 8630   0.756   2.239   4.723 -0.3349 -0.0719 -0.1920
 2875TIP3    H1 8631   0.708   2.162   4.692 -0.8294  0.3190 -0.4106
 2875TIP3    H2 8632   0.688   2.303   4.744  0.0934  0.6199 -0.8492
 2876TIP3   OH2 8633   2.244   2.951   5.015 -0.7573 -0.1403 -0.4121
 2876TIP3    H1 8634   2.276   3.035   5.050 -0.1324 -0.2744 -0.6505
 2876TIP3    H2 8635   2.273   2.886   5.078  0.5240 -0.4037 -1.2297
 2877TIP3   OH2 8636   1.249   4.354   0.275 -0.2909 -0.1039  0.0847
 2877TIP3    H1 8637   1.290   4.268   0.287  0.0187  0.0266 -0.0306
 2877TIP3    H2 8638   1.178   4.338   0.213  1.3156  0.1725 -1.9120
 2878TIP3   OH2 8639   3.511   1.159   1.314  0.0129  0.2298 -0.2944
 2878TIP3    H1 8640   3.522   1.245   1.275  0.0108  0.1919 -0.3791
 2878TIP3    H2 8641   3.565   1.101   1.260 -1.8058 -0.2442 -1.7134
 2879TIP3   OH2 8642   5.697   0.652   2.356  0.1043 -0.0574  0.2181
 2879TIP3    H1 8643   5.747   0.593   2.412 -0.5912 -1.4370 -0.5738
 2879TIP3    H2 8644   5.606   0.641   2.382 -0.1359 -0.0681 -0.5911
 2880TIP3   OH2 8645   3.766   5.392   3.024  0.4357 -0.4303 -0.3445
 2880TIP3    H1 8646   3.811   5.434   2.951 -1.3756  1.8573 -0.2847
 2880TIP3    H2 8647   3.698   5.455   3.049 -1.9861 -3.1167  0.3372
 2881TIP3   OH2 8648   2.328   4.430   2.848 -0.2136 -0.0613 -0.2197
 2881TIP3    H1 8649   2.242   4.403   2.882  1.1539 -0.7161  3.0595
 2881TIP3    H2 8650   2.323   4.526   2.844 -0.7807 -0.0257  0.9400
 2882TIP3   OH2 8651   1.918   5.707   2.391  0.0239  0.0259  0.0292
 2882TIP3    H1 8652   1.909   5.794   2.428 -0.5799  0.6499 -1.5012
 2882TIP3    H2 8653   1.989   5.715   2.327  2.2681 -1.4526  2.1629
 2883TIP3   OH2 8654   0.873   1.205   2.970  0.1245 -0.5229 -0.1894
 2883TIP3    H1 8655   0.881   1.289   2.926 -1.0078 -0.4534 -0.2752
 2883TIP3    H2 8656   0.897   1.224   3.061  0.6285 -0.2836 -0.3626
 2884TIP3   OH2 8657   6.265   1.269   5.214 -0.3088 -0.1137 -0.3858
 2884TIP3    H1 8658   6.178   1.308   5.207  0.9452  2.6737 -1.9901
 2884TIP3    H2 8659   6.300   1.272   5.125  1.4606 -1.1757  0.2209
 2885TIP3   OH2 8660   5.096   3.016   4.612  0.1307 -0.5053  0.5528
 2885TIP3    H1 8661   5.046   3.077   4.558  1.4840  0.3477  0.2328
 2885TIP3    H2 8662   5.068   2.929   4.582  0.2169 -0.0499 -0.9011
 2886TIP3   OH2 8663   2.150   4.125   2.310  0.4924  0.2695 -0.1439
 2886TIP3    H1 8664   2.093   4.119   2.233 -0.1926 -0.2181  0.3841
 2886TIP3    H2 8665   2.237   4.104   2.277  0.4667  1.4874 -1.0614
 2887TIP3   OH2 8666   3.364   2.648   4.059 -0.6721 -0.0572 -0.0670
 2887TIP3    H1 8667   3.338   2.571   4.109  0.2052 -0.9038 -0.8664
 2887TIP3    H2 8668   3.348   2.722   4.117 -0.0552 -0.9785  1.3161
 2888TIP3   OH2 8669   2.598   4.312   3.515  0.8178  0.1378  0.4207
 2888TIP3    H1 8670   2.680   4.263   3.502  0.8203 -0.3927  2.1181
 2888TIP3    H2 8671   2.626   4.399   3.544  0.7870  0.6133 -0.9254
 2889TIP3   OH2 8672   3.096   5.091   3.959  0.8590 -0.5208  0.0106
 2889TIP3    H1 8673   3.112   5.090   3.864 -2.3682  0.0330 -0.6455
 2889TIP3    H2 8674   3.023   5.031   3.971  1.0964 -0.4350  2.1702
 2890TIP3   OH2 8675   1.499   0.828   1.976 -0.6793 -0.0410 -0.3092
 2890TIP3    H1 8676   1.455   0.896   1.925  0.4810 -0.5618 -2.0964
 2890TIP3    H2 8677   1.545   0.877   2.045 -1.4118  0.7928 -0.3891
 2891TIP3   OH2 8678   2.780   4.985   1.640 -0.1940 -0.1026 -0.0624
 2891TIP3    H1 8679   2.805   5.021   1.555 -0.3229 -0.6288 -0.3264
 2891TIP3    H2 8680   2.857   5.002   1.696  0.1340 -0.2994 -0.4477
 2892TIP3   OH2 8681   1.641   4.520   3.922  0.4925  0.3320 -0.1110
 2892TIP3    H1 8682   1.624   4.573   3.845 -0.3705  0.4837  0.1792
 2892TIP3    H2 8683   1.637   4.429   3.891 -0.1812  0.3829 -0.1827
 2893TIP3   OH2 8684   2.791   5.262   1.819  0.1350 -0.7116  0.3802
 2893TIP3    H1 8685   2.804   5.211   1.899 -0.1715 -1.7599 -0.2120
 2893TIP3    H2 8686   2.696   5.263   1.805  0.2491 -1.7867 -0.7131
 2894TIP3   OH2 8687   0.138   1.432   2.206  0.2676 -0.1405  0.3532
 2894TIP3    H1 8688   0.190   1.409   2.283  0.1409 -2.1277 -0.1030
 2894TIP3    H2 8689   0.065   1.370   2.207 -0.3232  0.5077 -0.7959
 2895TIP3   OH2 8690   2.645   0.580   3.348  0.4785  0.1517 -0.6206
 2895TIP3    H1 8691   2.671   0.670   3.331  0.1445  0.5851  1.0519
 2895TIP3    H2 8692   2.721   0.539   3.388  0.0143  0.2404  0.3805
 2896TIP3   OH2 8693   5.762   4.979   2.380  0.4198 -0.0414  0.0678
 2896TIP3    H1 8694   5.733   4.908   2.322  2.9913  0.0852 -1.5242
 2896TIP3    H2 8695   5.750   5.058   2.327  1.5596  0.2248  0.1918
 2897TIP3   OH2 8696   4.931   3.082   1.850 -0.3946  0.5077 -0.2625
 2897TIP3    H1 8697   4.849   3.071   1.803  0.3708  0.2093 -1.5849
 2897TIP3    H2 8698   4.983   3.140   1.795 -0.8980  3.5159  2.1575
 2898TIP3   OH2 8699   0.657   2.699   3.415  0.3645 -0.1749  0.1266
 2898TIP3    H1 8700   0.582   2.657   3.457  1.7958 -1.3181  1.6479
 2898TIP3    H2 8701   0.618   2.759   3.351 -1.9092  0.8876  2.3496
 2899TIP3   OH2 8702   3.985   3.200   3.916  0.1539 -0.3581  0.5062
 2899TIP3    H1 8703   4.059   3.216   3.975  0.3115  0.7211  0.0441
 2899TIP3    H2 8704   4.026   3.187   3.830 -0.2386  1.8832 -0.0673
 2900TIP3   OH2 8705   2.478   3.432   4.657  0.5347  0.3452 -0.4019
 2900TIP3    H1 8706   2.534   3.356   4.672  1.4388  0.8133 -1.2867
 2900TIP3    H2 8707   2.409   3.424   4.723  2.3227  0.4325  1.5829
 2901TIP3   OH2 8708   3.666   0.553   2.828 -0.8281  0.2717  0.2187
 2901TIP3    H1 8709   3.585   0.553   2.879  0.0745 -1.2609  1.7592
 2901TIP3    H2 8710   3.714   0.628   2.862  0.1534 -1.2499  2.4092
 2902TIP3   OH2 8711   5.767   4.366   4.398  0.2097  0.1531 -0.2644
 2902TIP3    H1 8712   5.709   4.363   4.322 -2.2260 -2.2112  1.4642
 2902TIP3    H2 8713   5.783   4.274   4.419  2.3788  0.7596  0.9801
 2903TIP3   OH2 8714   4.660   5.758   0.033 -0.6684 -0.0933  0.1719
 2903TIP3    H1 8715   4.596   5.811   0.080 -1.3241 -1.2101  0.5564
 2903TIP3    H2 8716   4.729   5.742   0.098  0.5575  1.9284 -0.5111
 2904TIP3   OH2 8717   6.293   3.727   2.658  0.4378  0.2588  0.4340
 2904TIP3    H1 8718   6.201   3.738   2.682  0.6201  1.1307  0.7978
 2904TIP3    H2 8719   6.303   3.634   2.639 -0.8463  0.3889 -1.0205
 2905TIP3   OH2 8720   6.187   2.441   0.232  0.5323  0.5948  0.0152
 2905TIP3    H1 8721   6.244   2.510   0.197  0.0663  0.9046 -0.1453
 2905TIP3    H2 8722   6.245   2.366   0.246  0.8755  0.7353 -0.6392
 2906TIP3   OH2 8723   0.568   2.185   5.126 -0.2608  0.2210  0.5159
 2906TIP3    H1 8724   0.505   2.257   5.126  0.0810  0.5304 -0.1032
 2906TIP3    H2 8725   0.647   2.222   5.165 -0.4821 -0.1931  1.3772
 2907TIP3   OH2 8726   1.462   2.990   1.492 -0.3051 -0.2824 -0.3060
 2907TIP3    H1 8727   1.507   2.908   1.514 -2.9885 -1.3644  1.8006
 2907TIP3    H2 8728   1.405   2.967   1.419  0.4707  0.3182 -1.1150
 2908TIP3   OH2 8729   3.559   2.001   0.880 -0.6972  0.6092  0.4340
 2908TIP3    H1 8730   3.490   1.942   0.910  0.0668 -0.2160  0.6272
 2908TIP3    H2 8731   3.614   1.947   0.823 -0.0605  1.1705  0.5004
 2909TIP3   OH2 8732   0.644   2.846   0.707  0.1126 -0.4303 -0.2111
 2909TIP3    H1 8733   0.638   2.851   0.612 -1.2008 -0.5068 -0.1395
 2909TIP3    H2 8734   0.719   2.903   0.729 -0.1808  0.3690 -1.2088
 2910TIP3   OH2 8735   3.645   2.504   0.753  0.5492 -1.3835  0.3287
 2910TIP3    H1 8736   3.643   2.587   0.801 -0.8584 -0.2675 -1.5301
 2910TIP3    H2 8737   3.731   2.503   0.710  0.0565 -0.1363 -0.7767
 2911TIP3   OH2 8738   5.900   2.915   2.136 -0.7523 -0.2234  0.4665
 2911TIP3    H1 8739   5.982   2.879   2.102 -1.1807 -1.0857  0.3180
 2911TIP3    H2 8740   5.890   2.876   2.223 -0.5976  0.5219  0.8238
 2912TIP3   OH2 8741   4.605   3.666   1.360  0.4782 -0.1018 -0.5282
 2912TIP3    H1 8742   4.589   3.638   1.450 -1.2860  0.9340 -0.4593
 2912TIP3    H2 8743   4.651   3.750   1.370  0.1845  0.0663 -0.5834
 2913TIP3   OH2 8744   4.941   4.467   3.040 -0.2772  0.3870  0.1001
 2913TIP3    H1 8745   5.011   4.405   3.019  1.0871  2.2412 -1.1284
 2913TIP3    H2 8746   4.872   4.447   2.977 -0.2536 -0.4815  0.3326
 2914TIP3   OH2 8747   1.272   2.019   2.831  0.0467  0.1260  0.3747
 2914TIP3    H1 8748   1.295   1.935   2.871 -0.4760 -1.3344 -2.2116
 2914TIP3    H2 8749   1.201   2.053   2.886  0.0543 -1.2731  1.2916
 2915TIP3   OH2 8750   1.274   5.520   2.388  0.2056 -0.1467 -0.5111
 2915TIP3    H1 8751   1.205   5.477   2.337  0.5938 -0.8274 -0.4814
 2915TIP3    H2 8752   1.351   5.465   2.373  0.1803 -0.7366  1.3210
 2916TIP3   OH2 8753   0.915   3.563   4.565 -0.1420 -0.1195  0.2342
 2916TIP3    H1 8754   0.874   3.563   4.479 -1.2011 -0.6998  0.7266
 2916TIP3    H2 8755   1.009   3.567   4.547 -0.3411 -0.6287 -0.9539
 2917TIP3   OH2 8756   3.587   1.954   3.745 -0.3585 -0.1234  0.3024
 2917TIP3    H1 8757   3.506   2.006   3.741 -0.5978 -0.3297  1.8135
 2917TIP3    H2 8758   3.649   2.003   3.690 -0.9673  1.0423  0.6081
 2918TIP3   OH2 8759   5.705   5.333   1.860  0.7425 -0.1671  0.2349
 2918TIP3    H1 8760   5.610   5.329   1.843  0.9520 -1.5049 -0.7581
 2918TIP3    H2 8761   5.745   5.298   1.780  1.9720 -1.9551  1.5475
 2919TIP3   OH2 8762   2.318   0.092   1.853 -0.3739  0.1882 -0.1174
 2919TIP3    H1 8763   2.332   0.149   1.929 -1.2344  0.6447 -0.2942
 2919TIP3    H2 8764   2.362   0.137   1.781  0.4387 -0.2423  0.0887
 2920TIP3   OH2 8765   4.978   2.197   0.226  0.4507 -0.0456 -0.0320
 2920TIP3    H1 8766   4.900   2.248   0.246  0.1895 -0.3407 -0.2812
 2920TIP3    H2 8767   4.992   2.143   0.304  1.7156  1.5883  0.9424
 2921TIP3   OH2 8768   1.311   1.595   2.613 -0.2636  0.0488  0.1676
 2921TIP3    H1 8769   1.226   1.629   2.587 -0.9073 -1.0885  0.6871
 2921TIP3    H2 8770   1.296   1.555   2.699  0.5655 -0.9784 -0.1320
 2922TIP3   OH2 8771   0.980   2.248   0.028  0.2781 -0.7028  0.4105
 2922TIP3    H1 8772   0.977   2.153   0.032 -0.5092 -0.7155 -0.2546
 2922TIP3    H2 8773   1.021   2.267  -0.056  2.2552 -0.4352  1.3731
 2923TIP3   OH2 8774   4.751   3.279   2.343 -0.7096  0.7414 -0.3521
 2923TIP3    H1 8775   4.680   3.259   2.282 -1.1466 -1.5746  0.8463
 2923TIP3    H2 8776   4.831   3.253   2.297 -1.0772 -1.5076  0.1730
 2924TIP3   OH2 8777   0.872   2.101   0.840 -0.4532 -0.4751 -0.0403
 2924TIP3    H1 8778   0.962   2.135   0.844 -0.9308  0.7318  1.9322
 2924TIP3    H2 8779   0.880   2.010   0.869  0.2150 -0.6446 -0.7007
 2925TIP3   OH2 8780   6.179   2.167   1.025 -0.3571  0.1339  0.1983
 2925TIP3    H1 8781   6.084   2.165   1.034 -0.4831 -0.0439 -1.0227
 2925TIP3    H2 8782   6.197   2.243   0.969  0.1383 -0.3902 -0.3761
 2926TIP3   OH2 8783   4.242   3.825   4.316 -0.0174 -0.0538  0.1416
 2926TIP3    H1 8784   4.288   3.895   4.363  0.1742  0.6008 -0.9690
 2926TIP3    H2 8785   4.309   3.759   4.301  0.6092  0.8599 -1.3970
 2927TIP3   OH2 8786   2.540   5.816   0.826 -0.5576 -0.2177  0.3490
 2927TIP3    H1 8787   2.583   5.902   0.830 -0.4837 -0.2446  0.1526
 2927TIP3    H2 8788   2.527   5.801   0.733  0.4797 -0.9428  0.3046
 2928TIP3   OH2 8789   0.808   4.505   1.868 -0.0386 -0.5280 -0.1400
 2928TIP3    H1 8790   0.819   4.600   1.876  1.2487 -0.5537 -1.1955
 2928TIP3    H2 8791   0.847   4.470   1.948  0.0290 -0.1828 -0.0166
 2929TIP3   OH2 8792   4.150   5.790   2.172  0.1554  0.9606  0.0840
 2929TIP3    H1 8793   4.127   5.862   2.232 -0.1943  0.1841  0.9025
 2929TIP3    H2 8794   4.087   5.721   2.193 -0.4412  0.9186 -1.6968
 2930TIP3   OH2 8795   6.232   3.192   2.016  0.3854  0.2635  0.0769
 2930TIP3    H1 8796   6.242   3.136   1.939  2.7306  0.2037  0.3670
 2930TIP3    H2 8797   6.315   3.240   2.022 -0.1110  0.9586  2.0358
 2931TIP3   OH2 8798   2.543   4.655   1.070 -0.5890 -0.4375 -0.2257
 2931TIP3    H1 8799   2.518   4.712   1.143 -1.8668  0.0575 -1.0212
 2931TIP3    H2 8800   2.619   4.698   1.032 -1.4323  0.6861 -0.7077
 2932TIP3   OH2 8801   5.756   0.283   1.063 -0.0824  0.1974 -0.5202
 2932TIP3    H1 8802   5.814   0.208   1.071 -0.8045 -0.4763 -1.2977
 2932TIP3    H2 8803   5.814   0.357   1.049  0.7214  0.0226  1.5079
 2933TIP3   OH2 8804   1.573   1.276   2.017 -0.1216  0.4097 -0.0922
 2933TIP3    H1 8805   1.666   1.260   2.031 -0.3020 -1.2128 -0.5392
 2933TIP3    H2 8806   1.537   1.287   2.105  0.2281 -0.6451  0.1978
 2934TIP3   OH2 8807   0.277   3.350   4.978 -0.3359 -0.3383 -0.1438
 2934TIP3    H1 8808   0.296   3.365   5.070 -1.5305  1.0874 -0.1001
 2934TIP3    H2 8809   0.356   3.376   4.932 -0.2456  0.3457  0.3897
 2935TIP3   OH2 8810   3.966   0.460   1.672 -0.5051  0.2118  0.1176
 2935TIP3    H1 8811   4.025   0.499   1.736 -0.6263 -1.0096  1.0083
 2935TIP3    H2 8812   4.013   0.383   1.640 -1.2351 -0.2566  0.1547
 2936TIP3   OH2 8813   4.228   4.136   3.708  0.1614 -0.1941  0.3364
 2936TIP3    H1 8814   4.211   4.230   3.714  1.1449  0.0525 -0.4754
 2936TIP3    H2 8815   4.191   4.110   3.624 -0.6159 -0.6632  0.8108
 2937TIP3   OH2 8816   5.917   0.840   0.786 -0.3168 -0.1746  0.2253
 2937TIP3    H1 8817   5.984   0.773   0.771  0.5870  0.6222  0.5813
 2937TIP3    H2 8818   5.883   0.821   0.873 -0.4298 -0.4779  0.1159
 2938TIP3   OH2 8819   5.505   0.009   4.361 -0.2365  0.0384  0.0315
 2938TIP3    H1 8820   5.582  -0.030   4.402  0.5231 -0.9020 -2.1556
 2938TIP3    H2 8821   5.449   0.036   4.435  0.5690 -2.4511  1.6536
 2939TIP3   OH2 8822   3.605   1.710   3.608 -0.2113  0.7800 -0.8347
 2939TIP3    H1 8823   3.576   1.801   3.622 -0.7651  0.2698  1.7429
 2939TIP3    H2 8824   3.696   1.719   3.579  0.5192  2.1674  1.6006
 2940TIP3   OH2 8825   1.414   0.284   4.860 -0.8851  0.3105  0.5655
 2940TIP3    H1 8826   1.495   0.326   4.831  0.5180 -1.7940  1.2810
 2940TIP3    H2 8827   1.349   0.312   4.795  0.8985  0.2529 -1.3526
 2941TIP3   OH2 8828   4.387   2.472   4.166 -0.4642 -0.6053  0.3096
 2941TIP3    H1 8829   4.388   2.380   4.138 -0.0793 -0.3152 -0.6719
 2941TIP3    H2 8830   4.386   2.468   4.262 -1.6941 -1.6426  0.2794
 2942TIP3   OH2 8831   2.494   0.564   3.885 -0.2071 -0.3174  0.3032
 2942TIP3    H1 8832   2.468   0.647   3.844 -0.1861 -0.6456 -0.3874
 2942TIP3    H2 8833   2.583   0.549   3.855 -0.4377 -0.9120 -0.0875
 2943TIP3   OH2 8834   3.590   4.109   2.738  0.0755 -0.6865  0.1921
 2943TIP3    H1 8835   3.560   4.048   2.805  0.0609 -0.2973  0.5461
 2943TIP3    H2 8836   3.516   4.115   2.677 -1.3909  1.6438  2.0063
 2944TIP3   OH2 8837   4.754   4.672   1.129  0.2883 -0.5448  0.7757
 2944TIP3    H1 8838   4.784   4.619   1.056 -2.1541  1.3543 -1.8078
 2944TIP3    H2 8839   4.669   4.634   1.153 -1.3173  1.7543 -0.8617
 2945TIP3   OH2 8840   4.201   3.057   0.113  0.1303  0.2402  0.0946
 2945TIP3    H1 8841   4.208   3.125   0.180 -2.1264 -0.5511  1.2235
 2945TIP3    H2 8842   4.179   3.106   0.033 -0.1051  0.9671  0.5888
 2946TIP3   OH2 8843   3.706   0.271   2.097  0.1963  0.3315 -0.6132
 2946TIP3    H1 8844   3.622   0.276   2.144  1.1172 -0.9386  1.2915
 2946TIP3    H2 8845   3.768   0.315   2.155  1.3284 -1.0314 -0.7569
 2947TIP3   OH2 8846   4.272   3.858   1.297  0.4281  0.2384  0.4699
 2947TIP3    H1 8847   4.343   3.891   1.352  0.8080  0.7489 -0.3166
 2947TIP3    H2 8848   4.203   3.834   1.360 -0.0384  2.9073  1.1030
 2948TIP3   OH2 8849   5.389   5.595   0.064 -0.1256 -0.0627 -0.8668
 2948TIP3    H1 8850   5.463   5.539   0.088 -0.2339 -1.1971 -2.9442
 2948TIP3    H2 8851   5.430   5.675   0.032  0.0767  0.5234  0.7747
 2949TIP3   OH2 8852   3.711   2.175   0.500  0.6824 -0.1723 -0.4835
 2949TIP3    H1 8853   3.770   2.221   0.560  1.3321 -0.6937 -0.7201
 2949TIP3    H2 8854   3.640   2.144   0.556  1.9285 -1.7951  0.2808
 2950TIP3   OH2 8855   1.174   4.506   4.545  0.6984  0.1702 -0.1204
 2950TIP3    H1 8856   1.255   4.553   4.565  0.3589  0.8818 -0.3830
 2950TIP3    H2 8857   1.189   4.466   4.460  0.9401 -0.0697  0.0370
 2951TIP3   OH2 8858   1.572   4.642   1.637 -0.1314  0.3045  0.2131
 2951TIP3    H1 8859   1.616   4.686   1.564 -0.3910  0.4154  0.1233
 2951TIP3    H2 8860   1.644   4.619   1.697  0.0039  0.9113  0.2935
 2952TIP3   OH2 8861   5.643   5.861   4.988 -0.1557  0.2024  0.0138
 2952TIP3    H1 8862   5.618   5.836   5.077 -0.7981  0.9308  0.0436
 2952TIP3    H2 8863   5.569   5.835   4.934  0.8316 -1.5936 -0.5505
 2953TIP3   OH2 8864   2.563   4.693   1.537 -0.0070  0.4483 -0.0098
 2953TIP3    H1 8865   2.541   4.648   1.455  2.0631  0.1385 -0.4506
 2953TIP3    H2 8866   2.642   4.742   1.517 -0.4976  1.8660  1.3392
 2954TIP3   OH2 8867   6.210   2.912   1.518  0.4237 -0.0659  0.7831
 2954TIP3    H1 8868   6.193   2.818   1.513 -1.8406  0.3491 -0.5914
 2954TIP3    H2 8869   6.271   2.930   1.448 -2.5133  0.0357 -1.9802
 2955TIP3   OH2 8870   0.055   4.030   3.531  0.0399 -0.2912 -0.3174
 2955TIP3    H1 8871   0.032   4.110   3.578 -2.3597 -1.6530  1.0412
 2955TIP3    H2 8872   0.139   4.003   3.568  0.0575  0.7199  0.4004
 2956TIP3   OH2 8873   1.853   0.592   0.290  0.5640  0.5260 -0.2792
 2956TIP3    H1 8874   1.839   0.498   0.301  0.2517  0.6165  0.1268
 2956TIP3    H2 8875   1.830   0.609   0.199  1.5065  0.0584 -0.6178
 2957TIP3   OH2 8876   0.873   4.657   1.570  0.1891 -0.0550 -0.1921
 2957TIP3    H1 8877   0.926   4.710   1.629  1.4867 -0.7342 -0.6989
 2957TIP3    H2 8878   0.825   4.720   1.517 -0.7913  0.5712  1.3686
 2958TIP3   OH2 8879   3.673   5.117   0.270 -0.8232  0.1871  0.2491
 2958TIP3    H1 8880   3.612   5.183   0.236 -0.4472  0.8890  0.9058
 2958TIP3    H2 8881   3.637   5.094   0.356 -0.5623  0.0732  0.3287
 2959TIP3   OH2 8882   5.525   5.263   2.264  0.0718  0.0957 -0.0260
 2959TIP3    H1 8883   5.593   5.239   2.202 -0.7953  0.6337 -1.2291
 2959TIP3    H2 8884   5.548   5.351   2.293  1.3012 -0.7239  1.6281
 2960TIP3   OH2 8885   0.991   4.438   2.993 -0.4017  0.1914 -0.1203
 2960TIP3    H1 8886   1.052   4.406   3.060 -2.0640 -1.3595  0.7339
 2960TIP3    H2 8887   0.928   4.367   2.982 -0.9552  0.9413 -2.4143
 2961TIP3   OH2 8888   2.516   5.167   1.846  0.2351 -0.8578  0.0040
 2961TIP3    H1 8889   2.433   5.140   1.884  0.0388 -1.5400 -0.8672
 2961TIP3    H2 8890   2.519   5.122   1.761  1.0948 -0.1554 -0.3531
 2962TIP3   OH2 8891   1.256   2.698   2.725 -0.4875  0.2018 -0.5515
 2962TIP3    H1 8892   1.248   2.612   2.766  0.8739 -0.4242 -1.5517
 2962TIP3    H2 8893   1.220   2.687   2.637 -0.3501  0.6704 -0.6725
 2963TIP3   OH2 8894   1.715   1.991   2.395  0.6210  0.5631  0.6027
 2963TIP3    H1 8895   1.630   1.986   2.351  0.7613 -1.6190  0.4354
 2963TIP3    H2 8896   1.700   2.045   2.472 -0.9874  0.0384  0.6856
 2964TIP3   OH2 8897   0.266   5.689   3.995  0.3837 -0.2766 -0.4060
 2964TIP3    H1 8898   0.189   5.733   4.031 -1.4454 -1.2644 -2.8217
 2964TIP3    H2 8899   0.338   5.714   4.054 -1.2497  2.7341  0.5244
 2965TIP3   OH2 8900   4.471   0.830   0.834 -0.7975 -0.0606 -0.5409
 2965TIP3    H1 8901   4.486   0.916   0.794  1.0064 -0.1928 -0.2330
 2965TIP3    H2 8902   4.399   0.844   0.895  0.9426  1.8774  1.2537
 2966TIP3   OH2 8903   6.315   5.322   3.155  0.6495 -0.6360  0.1332
 2966TIP3    H1 8904   6.314   5.290   3.245 -1.7280 -2.4843 -0.4413
 2966TIP3    H2 8905   6.360   5.252   3.106  0.4300 -0.4414 -0.3458
 2967TIP3   OH2 8906   2.570   3.220   1.628 -0.0702 -0.1098  0.2237
 2967TIP3    H1 8907   2.513   3.288   1.593 -0.3892 -0.3422  0.2760
 2967TIP3    H2 8908   2.657   3.241   1.595  0.0635  0.9986  1.1993
 2968TIP3   OH2 8909   5.132   1.762   0.352 -0.9601 -0.6517  0.2632
 2968TIP3    H1 8910   5.090   1.743   0.436 -2.0015  1.2316  0.2161
 2968TIP3    H2 8911   5.216   1.717   0.357 -1.2600 -1.1007  2.0511
 2969TIP3   OH2 8912   0.918   0.182   2.770 -0.1272 -0.1814  0.2501
 2969TIP3    H1 8913   0.919   0.114   2.838  0.4587 -0.0653  0.3642
 2969TIP3    H2 8914   0.982   0.152   2.706 -0.1540  0.0704  0.1068
 2970TIP3   OH2 8915   0.341   0.312   3.362 -0.1731  0.0237  0.0537
 2970TIP3    H1 8916   0.371   0.325   3.272 -0.9635  1.6207 -0.0162
 2970TIP3    H2 8917   0.255   0.355   3.365 -1.1268 -1.8155  1.0359
 2971TIP3   OH2 8918   2.692   4.878   3.153  0.1275 -0.0400  0.8721
 2971TIP3    H1 8919   2.779   4.840   3.167 -0.4350 -1.2830  1.2081
 2971TIP3    H2 8920   2.633   4.816   3.196 -1.0876 -0.1964 -0.9298
 2972TIP3   OH2 8921   2.812   4.652   3.921  0.5142 -0.7252 -0.2470
 2972TIP3    H1 8922   2.878   4.588   3.948  0.8164 -0.6592 -0.8184
 2972TIP3    H2 8923   2.747   4.600   3.873  0.6618 -0.6318 -0.5468
 2973TIP3   OH2 8924   0.152   4.012   4.885  0.1694 -0.1080 -0.3118
 2973TIP3    H1 8925   0.148   3.958   4.806  0.8685 -0.0612 -0.3820
 2973TIP3    H2 8926   0.191   3.955   4.951  0.5896  0.1981 -0.2939
 2974TIP3   OH2 8927   4.103   5.115   3.061  0.5897  0.4264  0.5191
 2974TIP3    H1 8928   4.044   5.044   3.036  0.6006  0.2190  1.0605
 2974TIP3    H2 8929   4.049   5.172   3.116  0.4040  1.1775 -0.4120
 2975TIP3   OH2 8930   4.394   4.246   0.073 -0.3939 -0.3805 -0.1400
 2975TIP3    H1 8931   4.322   4.191   0.106 -1.1497  0.9264  0.4460
 2975TIP3    H2 8932   4.451   4.184   0.027 -1.4026 -1.6046  0.1805
 2976TIP3   OH2 8933   5.412   4.355   3.329 -0.2187 -0.1727 -0.1590
 2976TIP3    H1 8934   5.345   4.287   3.335  0.8607 -1.2761  0.0134
 2976TIP3    H2 8935   5.490   4.314   3.367  0.8835  0.6229 -1.4830
 2977TIP3   OH2 8936   3.187   4.145   4.511 -0.9088  0.4678  0.2805
 2977TIP3    H1 8937   3.234   4.081   4.565 -0.8298  0.3717  0.1002
 2977TIP3    H2 8938   3.237   4.147   4.429 -0.9843  0.6687  0.2400
 2978TIP3   OH2 8939   5.316   2.577   3.067  0.4223  0.2527  0.1156
 2978TIP3    H1 8940   5.272   2.504   3.024  0.6835 -0.4150  0.9514
 2978TIP3    H2 8941   5.276   2.583   3.154  2.6977 -1.1438  1.3660
 2979TIP3   OH2 8942   0.854   5.274   2.970 -0.2641 -0.1376 -0.4270
 2979TIP3    H1 8943   0.903   5.294   2.891  0.7574  0.8952  0.4334
 2979TIP3    H2 8944   0.897   5.325   3.039 -0.3486 -1.9260  1.0369
 2980TIP3   OH2 8945   1.475   0.613   3.713  0.0468  0.0394 -0.2710
 2980TIP3    H1 8946   1.512   0.602   3.800 -0.2672 -0.8541 -0.2463
 2980TIP3    H2 8947   1.541   0.578   3.654  0.2816  0.6909 -0.4088
 2981TIP3   OH2 8948   0.429   2.206   0.266  0.5261  0.1425  0.4278
 2981TIP3    H1 8949   0.517   2.189   0.231  0.6867  2.1154 -0.2737
 2981TIP3    H2 8950   0.417   2.140   0.334  1.8141 -1.3223 -0.6759
 2982TIP3   OH2 8951   3.894   0.861   2.386 -0.4358  0.2844  0.2144
 2982TIP3    H1 8952   3.922   0.813   2.464  1.2586  0.3161 -0.3370
 2982TIP3    H2 8953   3.812   0.903   2.411 -0.4849 -0.5965  1.6145
 2983TIP3   OH2 8954   0.456   0.416   0.751 -0.1006 -0.2491 -0.0060
 2983TIP3    H1 8955   0.439   0.350   0.683  0.5822 -1.4563  0.9472
 2983TIP3    H2 8956   0.552   0.419   0.758 -0.1672 -0.5341  1.2529
 2984TIP3   OH2 8957   3.187   0.414   3.287 -0.8265 -0.7862  0.0032
 2984TIP3    H1 8958   3.271   0.370   3.274  0.9815  2.2171  0.7347
 2984TIP3    H2 8959   3.183   0.478   3.216 -1.9108 -0.0534  0.7007
 2985TIP3   OH2 8960   1.030   0.297   3.891  0.1548  0.0491  0.2197
 2985TIP3    H1 8961   1.035   0.336   3.804 -0.7249 -0.3789 -0.0404
 2985TIP3    H2 8962   0.965   0.226   3.881 -0.0573  0.0903  1.2527
 2986TIP3   OH2 8963   6.151   5.793   2.216  0.1119  0.0454  0.1266
 2986TIP3    H1 8964   6.196   5.835   2.143  0.4028 -0.6113 -0.0841
 2986TIP3    H2 8965   6.128   5.706   2.182 -0.7231  0.1369  0.4539
 2987TIP3   OH2 8966   2.878   3.910   4.743 -0.6532  0.0009  0.1416
 2987TIP3    H1 8967   2.872   3.961   4.663 -1.0856 -0.2511  0.0079
 2987TIP3    H2 8968   2.938   3.838   4.721  0.0727  0.5222  0.3744
 2988TIP3   OH2 8969   6.348   0.920   3.330 -0.0120  0.1536  0.1397
 2988TIP3    H1 8970   6.346   0.950   3.421  0.1704 -0.5807  0.3901
 2988TIP3    H2 8971   6.267   0.956   3.292 -0.9582 -0.9329  1.0541
 2989TIP3   OH2 8972   1.841   0.782   1.398  0.4570  0.3608  0.4806
 2989TIP3    H1 8973   1.828   0.727   1.321  1.2933  2.3515 -1.1862
 2989TIP3    H2 8974   1.916   0.743   1.443 -0.9789 -1.7254  1.2248
 2990TIP3   OH2 8975   1.223   0.642   4.348  0.2039  0.1356 -0.0049
 2990TIP3    H1 8976   1.152   0.579   4.335  0.1538  0.1821  0.0459
 2990TIP3    H2 8977   1.195   0.720   4.301 -0.2770  0.5334  0.9181
 2991TIP3   OH2 8978   1.175   5.321   0.815 -0.1406  1.2186 -0.1737
 2991TIP3    H1 8979   1.143   5.258   0.750  0.5317  0.0334  0.6216
 2991TIP3    H2 8980   1.263   5.291   0.838 -0.2808  1.7306  1.1458
 2992TIP3   OH2 8981   6.203   5.386   0.068  0.2462  0.3704  0.4204
 2992TIP3    H1 8982   6.266   5.319   0.094  0.2171 -0.1318 -0.7243
 2992TIP3    H2 8983   6.219   5.459   0.128 -0.1923 -0.8935  2.1690
 2993TIP3   OH2 8984   3.808   2.257   2.359  0.2318  0.4677  0.3122
 2993TIP3    H1 8985   3.780   2.176   2.317  0.6744  2.1270 -3.5115
 2993TIP3    H2 8986   3.752   2.263   2.437 -1.1845 -2.4547 -0.3183
 2994TIP3   OH2 8987   0.617   5.680   2.940  0.1346  0.0212 -0.0353
 2994TIP3    H1 8988   0.588   5.719   3.023  0.8833 -2.0042  1.2298
 2994TIP3    H2 8989   0.539   5.683   2.884 -0.8161  0.0556  1.2519
 2995TIP3   OH2 8990   1.747   5.915   0.040  0.3350 -0.0438 -0.1865
 2995TIP3    H1 8991   1.682   5.917   0.110 -0.8306 -0.4553 -1.2144
 2995TIP3    H2 8992   1.780   6.005   0.034 -0.3898  0.2479  0.1265
 2996TIP3   OH2 8993   4.994   1.817   1.763 -0.0272  0.5963  0.3661
 2996TIP3    H1 8994   5.039   1.732   1.765 -1.1425 -0.0524 -0.8416
 2996TIP3    H2 8995   5.062   1.880   1.785  0.9211 -0.5627  0.9132
 2997TIP3   OH2 8996   3.467   0.409   5.137  0.2362  0.0180 -0.4628
 2997TIP3    H1 8997   3.518   0.443   5.064  0.4431  0.4328 -0.1262
 2997TIP3    H2 8998   3.521   0.425   5.215  0.5558 -1.4854 -0.3334
 2998TIP3   OH2 8999   2.772   5.444   3.383 -0.0242  0.5593 -0.3764
 2998TIP3    H1 9000   2.778   5.381   3.311 -0.4848 -0.4813  0.4725
 2998TIP3    H2 9001   2.709   5.509   3.353  0.8324  0.9168 -1.4686
 2999TIP3   OH2 9002   4.934   3.270   0.409  0.0779  0.1935 -0.0504
 2999TIP3    H1 9003   4.972   3.347   0.451  0.3346 -1.3629  2.7543
 2999TIP3    H2 9004   4.973   3.196   0.454 -2.6525 -1.5493 -0.3325
 3000TIP3   OH2 9005   3.817   3.448   3.027 -0.2533  0.0037  0.1910
 3000TIP3    H1 9006   3.725   3.443   3.003 -0.4169  0.6006  0.6694
 3000TIP3    H2 9007   3.816   3.470   3.120  0.3735  0.3696  0.1159
 3001TIP3   OH2 9008   4.154   3.155   1.938 -0.1229  0.1108  0.5771
 3001TIP3    H1 9009   4.120   3.066   1.946 -0.0937  0.1770  1.6908
 3001TIP3    H2 9010   4.131   3.196   2.021  0.6237  0.8739  0.4190
 3002TIP3   OH2 9011   2.402   1.094   5.078  0.0019 -0.6540 -0.4522
 3002TIP3    H1 9012   2.477   1.045   5.046 -0.1837 -0.9216 -0.4804
 3002TIP3    H2 9013   2.351   1.114   4.999 -0.6223 -1.5904 -0.3069
 3003TIP3   OH2 9014   3.649   3.239   1.363  0.3223 -0.7427 -0.0757
 3003TIP3    H1 9015   3.665   3.144   1.364 -1.2360 -1.0336  1.1882
 3003TIP3    H2 9016   3.725   3.275   1.318  0.8937 -2.5995 -0.7175
 3004TIP3   OH2 9017   3.401   0.230   2.730  0.0891  0.2258  0.2219
 3004TIP3    H1 9018   3.422   0.144   2.693 -0.1018  0.4107 -0.3382
 3004TIP3    H2 9019   3.485   0.266   2.757 -0.0922 -1.4372  3.4948
 3005TIP3   OH2 9020   1.065   1.080   4.308 -0.1422 -0.2743  0.2809
 3005TIP3    H1 9021   0.978   1.043   4.291 -0.4904  0.5642  0.1908
 3005TIP3    H2 9022   1.063   1.165   4.266  1.1482 -0.7244 -0.7168
 3006TIP3   OH2 9023   5.961   0.014   2.644  0.2680  0.5671  0.3091
 3006TIP3    H1 9024   5.938   0.058   2.562 -0.1221  0.3300  0.2897
 3006TIP3    H2 9025   6.050  -0.017   2.630  1.0454  2.4444  0.7788
 3007TIP3   OH2 9026   2.689   2.052   4.955 -0.5578  0.1599 -0.4529
 3007TIP3    H1 9027   2.616   2.094   4.910 -1.6388 -0.8496  0.2738
 3007TIP3    H2 9028   2.695   2.097   5.039 -1.3128 -0.6810  0.0732
 3008TIP3   OH2 9029   4.739   0.408   0.766 -0.0524  0.1099 -0.4718
 3008TIP3    H1 9030   4.708   0.475   0.827 -0.2699  0.0483 -0.5141
 3008TIP3    H2 9031   4.660   0.362   0.738  0.2400 -1.1122  0.6413
 3009TIP3   OH2 9032   3.822   4.657   2.910  0.1010  0.2093 -0.0718
 3009TIP3    H1 9033   3.892   4.609   2.865 -0.0313  0.2224 -0.2892
 3009TIP3    H2 9034   3.744   4.640   2.859  0.1268  0.9850 -0.3921
 3010TIP3   OH2 9035   5.433   2.279   2.788 -0.1050 -0.0512  0.0214
 3010TIP3    H1 9036   5.502   2.214   2.787 -0.3123 -0.3036 -1.9966
 3010TIP3    H2 9037   5.442   2.325   2.705 -1.9478  0.3553  0.0034
 3011TIP3   OH2 9038   6.097   4.681   0.953  0.0529 -0.3558  0.4363
 3011TIP3    H1 9039   6.019   4.735   0.939  1.3160  2.3696  2.9009
 3011TIP3    H2 9040   6.080   4.634   1.035 -0.4522 -2.8205 -0.9716
 3012TIP3   OH2 9041   1.113   5.709   4.149  0.6048 -0.6730 -0.1552
 3012TIP3    H1 9042   1.026   5.681   4.121 -1.3839  2.9303  1.8084
 3012TIP3    H2 9043   1.135   5.649   4.221 -1.7345  0.2088  1.3985
 3013TIP3   OH2 9044   0.902   4.140   3.511 -0.1688  0.4317 -0.0682
 3013TIP3    H1 9045   0.926   4.185   3.429 -0.1924  0.3480 -0.1208
 3013TIP3    H2 9046   0.875   4.053   3.483  0.4985  0.1667  0.0965
 3014TIP3   OH2 9047   2.225   5.161   1.270 -0.7745  0.3942  0.1336
 3014TIP3    H1 9048   2.178   5.137   1.190 -1.7315 -1.3960  1.1675
 3014TIP3    H2 9049   2.183   5.110   1.339  0.8061  0.9708  1.6023
 3015TIP3   OH2 9050  -0.000   4.669   2.611 -0.0438  0.4781 -0.6239
 3015TIP3    H1 9051   0.048   4.708   2.683 -0.3131 -0.4270  0.0727
 3015TIP3    H2 9052   0.060   4.605   2.573 -0.4748 -0.2659 -0.0967
 3016TIP3   OH2 9053   6.220   5.417   4.515  0.3696  0.0870  0.1322
 3016TIP3    H1 9054   6.285   5.415   4.445  0.2733  0.9721  0.0152
 3016TIP3    H2 9055   6.204   5.510   4.530 -0.4621 -0.1214  0.5385
 3017TIP3   OH2 9056   3.529   1.259   0.562 -0.0236 -0.9104 -0.5834
 3017TIP3    H1 9057   3.466   1.216   0.620  0.4660  1.0763  1.5998
 3017TIP3    H2 9058   3.601   1.196   0.555 -0.1741 -1.2987  0.8919
 3018TIP3   OH2 9059   3.756   5.204   2.645  0.3582 -0.4146 -0.4775
 3018TIP3    H1 9060   3.830   5.219   2.705  0.5640 -0.4611 -0.7203
 3018TIP3    H2 9061   3.753   5.282   2.590  0.5978 -0.6726 -0.8606
 3019TIP3   OH2 9062   5.097   4.742   1.826  0.0020  0.0047  0.2283
 3019TIP3    H1 9063   5.035   4.764   1.896 -0.3961  0.7339 -0.3406
 3019TIP3    H2 9064   5.111   4.648   1.836 -1.7729 -0.3437 -0.0721
 3020TIP3   OH2 9065   2.494   5.728   1.157 -0.3630  0.2336 -0.1937
 3020TIP3    H1 9066   2.570   5.718   1.215 -0.7402  0.9030  0.4289
 3020TIP3    H2 9067   2.502   5.656   1.095  0.8836  0.4062 -0.2534
 3021TIP3   OH2 9068   2.363   3.090   2.104  0.1425  0.5722  0.0347
 3021TIP3    H1 9069   2.371   3.105   2.199 -0.8704  2.6798 -0.1645
 3021TIP3    H2 9070   2.432   3.144   2.066 -1.3281  2.1349 -0.5387
 3022TIP3   OH2 9071   4.746   2.977   3.755 -0.4702  0.2632 -0.2536
 3022TIP3    H1 9072   4.682   2.976   3.684 -0.4561  0.4912 -0.2696
 3022TIP3    H2 9073   4.711   2.917   3.820 -0.7721  0.4996 -0.1985
 3023TIP3   OH2 9074   1.680   4.829   5.059 -0.5052  0.0210 -0.2154
 3023TIP3    H1 9075   1.703   4.777   4.982  1.9154 -1.1970  1.2211
 3023TIP3    H2 9076   1.708   4.918   5.037 -1.0546 -0.0272 -1.1897
 3024TIP3   OH2 9077   0.046   1.822   0.103 -0.7171 -0.1254  0.1071
 3024TIP3    H1 9078   0.095   1.898   0.135 -0.9946  0.0858  0.0323
 3024TIP3    H2 9079  -0.003   1.855   0.028 -0.0555 -0.6190 -0.5606
 3025TIP3   OH2 9080   0.613   1.901   1.002 -0.1682 -0.1384  0.2392
 3025TIP3    H1 9081   0.550   1.864   0.940 -1.0919 -0.4017  1.2872
 3025TIP3    H2 9082   0.645   1.825   1.051 -1.0571  0.2537  1.4913
 3026TIP3   OH2 9083   5.453   3.883   3.812 -0.3259  0.2191 -0.1828
 3026TIP3    H1 9084   5.547   3.895   3.827 -0.0601 -1.3338 -0.4379
 3026TIP3    H2 9085   5.410   3.936   3.879  0.7405  0.6502  0.1672
 3027TIP3   OH2 9086   2.845   2.954   4.476  0.0758 -0.3073  0.4980
 3027TIP3    H1 9087   2.936   2.964   4.446  0.0118 -1.0992  0.0199
 3027TIP3    H2 9088   2.853   2.921   4.565  0.2889 -2.6968 -0.3440
 3028TIP3   OH2 9089   4.011   0.764   4.130 -0.1028 -0.3702 -0.1003
 3028TIP3    H1 9090   3.961   0.734   4.054 -1.8620 -2.0912  1.6455
 3028TIP3    H2 9091   3.981   0.854   4.145 -1.6912 -0.9142  0.0958
 3029TIP3   OH2 9092   3.749   1.123   0.692  0.1934  0.0180  0.1527
 3029TIP3    H1 9093   3.753   1.086   0.780 -1.5186  0.5833  0.5130
 3029TIP3    H2 9094   3.828   1.175   0.683  0.2761  0.1311  1.4458
 3030TIP3   OH2 9095   0.591   5.694   4.608  0.8003 -0.1439  0.2847
 3030TIP3    H1 9096   0.586   5.601   4.631  0.8505  0.0777  1.2126
 3030TIP3    H2 9097   0.584   5.695   4.512 -1.5363 -0.9417  0.3989
 3031TIP3   OH2 9098   4.558   0.447   2.711 -0.1249  0.2358  0.2420
 3031TIP3    H1 9099   4.584   0.356   2.725 -2.2752 -0.2014  2.0780
 3031TIP3    H2 9100   4.510   0.446   2.628 -1.7955 -0.7709  1.1671
 3032TIP3   OH2 9101   0.646   0.237   2.908 -0.5623 -0.5349 -0.2696
 3032TIP3    H1 9102   0.588   0.165   2.933  0.5801 -2.0137 -1.6394
 3032TIP3    H2 9103   0.731   0.195   2.894  1.0554  1.6507  2.2240
 3033TIP3   OH2 9104   0.964   4.172   1.135 -0.2839  0.2133  0.7811
 3033TIP3    H1 9105   0.915   4.094   1.111  0.8952  0.3020 -2.4151
 3033TIP3    H2 9106   1.042   4.139   1.180 -0.0772 -0.4349 -0.0347
 3034TIP3   OH2 9107   3.496   2.303   4.395  0.3199 -0.1728 -0.3870
 3034TIP3    H1 9108   3.424   2.291   4.457  1.5181 -2.9387  0.6372
 3034TIP3    H2 9109   3.564   2.350   4.444  0.7263 -1.1215 -0.0205
 3035TIP3   OH2 9110   3.517   1.540   4.019 -0.2093 -0.1237  0.1706
 3035TIP3    H1 9111   3.483   1.616   3.970 -0.6498 -1.2479 -1.3497
 3035TIP3    H2 9112   3.492   1.557   4.110  0.6695  2.0651  0.0614
 3036TIP3   OH2 9113   1.564   0.324   2.948  0.4167 -0.4330 -0.2753
 3036TIP3    H1 9114   1.493   0.353   3.006  0.2597 -0.1140 -0.6206
 3036TIP3    H2 9115   1.638   0.379   2.972  0.6832 -1.0674  0.3900
 3037TIP3   OH2 9116   5.839   3.625   1.277 -0.1390  0.3597 -0.0850
 3037TIP3    H1 9117   5.887   3.637   1.195  0.0781  1.1275  0.1448
 3037TIP3    H2 9118   5.778   3.699   1.280  1.6099  1.8351  1.6490
 3038TIP3   OH2 9119   0.737   1.086   2.764  0.1382 -0.4576 -0.0543
 3038TIP3    H1 9120   0.812   1.095   2.705 -0.3300  1.9928 -0.3879
 3038TIP3    H2 9121   0.771   1.112   2.849 -0.2666  0.5508 -0.1855
 3039TIP3   OH2 9122   3.347   4.943   0.960 -0.5663  0.1199  0.3269
 3039TIP3    H1 9123   3.357   5.036   0.981  0.7051 -0.1382  0.9695
 3039TIP3    H2 9124   3.307   4.906   1.038  2.3633 -0.4926  1.6635
 3040TIP3   OH2 9125   1.241   3.914   4.719 -0.2044  0.2766 -0.4015
 3040TIP3    H1 9126   1.178   3.875   4.780  0.8762 -0.7513  0.0916
 3040TIP3    H2 9127   1.252   4.004   4.751  0.6625 -0.3705  1.2218
 3041TIP3   OH2 9128   1.081   1.869   2.031  0.2824  0.5668 -0.1547
 3041TIP3    H1 9129   1.176   1.885   2.026  0.8072 -1.4231  1.7579
 3041TIP3    H2 9130   1.053   1.867   1.940  2.7174 -1.8931 -0.9955
 3042TIP3   OH2 9131   6.145   0.393   4.900 -0.0764 -0.3280  0.0755
 3042TIP3    H1 9132   6.168   0.302   4.881 -0.1795 -0.4496  0.5067
 3042TIP3    H2 9133   6.203   0.418   4.972  0.8701  0.3771 -0.9061
 3043TIP3   OH2 9134   5.196   4.228   1.732  0.2495  0.0858 -0.2727
 3043TIP3    H1 9135   5.154   4.230   1.646  0.6713  1.6454 -0.4726
 3043TIP3    H2 9136   5.269   4.168   1.721  0.2009  0.1399 -0.9696
 3044TIP3   OH2 9137   3.285   3.444   2.273 -0.5359 -0.1898 -0.1113
 3044TIP3    H1 9138   3.344   3.473   2.342  1.5968 -2.8992 -0.6218
 3044TIP3    H2 9139   3.324   3.475   2.192  0.2815 -1.9923 -0.4549
 3045TIP3   OH2 9140   3.378   1.778   0.890  0.4372 -0.3269  0.2128
 3045TIP3    H1 9141   3.377   1.683   0.906  0.3399 -0.4436 -0.4351
 3045TIP3    H2 9142   3.302   1.811   0.939 -0.1157 -0.7301 -0.3512
 3046TIP3   OH2 9143   2.875   0.459   4.271  0.4846 -0.1152  0.4188
 3046TIP3    H1 9144   2.845   0.407   4.196 -0.5613 -2.2350  2.2094
 3046TIP3    H2 9145   2.804   0.520   4.287  0.2934 -0.2974  0.2737
 3047TIP3   OH2 9146   5.714   4.177   4.126 -0.1278  0.0403 -0.4092
 3047TIP3    H1 9147   5.784   4.159   4.063  1.7241  0.9820  1.2443
 3047TIP3    H2 9148   5.674   4.259   4.096  0.3081  0.1396 -0.7237
 3048TIP3   OH2 9149   3.478   2.840   0.077 -0.5394 -0.0851  0.6719
 3048TIP3    H1 9150   3.441   2.845   0.165 -1.5408 -2.7121  0.4902
 3048TIP3    H2 9151   3.572   2.825   0.093  0.0257  3.2562  1.1604
 3049TIP3   OH2 9152   1.772   2.684   2.123  0.6474 -0.2175 -0.0730
 3049TIP3    H1 9153   1.737   2.602   2.088  0.0419 -0.5254  1.1711
 3049TIP3    H2 9154   1.735   2.689   2.211 -0.3391  2.0050 -0.5495
 3050TIP3   OH2 9155   2.331   0.024   4.216 -0.4993  0.2663 -0.3625
 3050TIP3    H1 9156   2.280  -0.031   4.276  0.0815 -0.2755 -0.3604
 3050TIP3    H2 9157   2.278   0.027   4.136 -0.6167 -0.1534 -0.3033
 3051TIP3   OH2 9158   3.231   5.881   0.175  0.0961  0.7103 -0.2039
 3051TIP3    H1 9159   3.271   5.870   0.089  2.3871 -2.4708  1.0708
 3051TIP3    H2 9160   3.304   5.908   0.232 -0.8441  0.5711  1.1177
 3052TIP3   OH2 9161   1.721   4.233   3.227 -0.0501 -0.1923  0.1090
 3052TIP3    H1 9162   1.777   4.264   3.298 -2.3444 -0.9262  2.4100
 3052TIP3    H2 9163   1.757   4.147   3.204  1.5461  0.6417 -0.6742
 3053TIP3   OH2 9164   3.028   0.258   3.696 -0.3021 -0.3238 -0.5169
 3053TIP3    H1 9165   3.084   0.202   3.641  0.1836 -0.2140 -0.1376
 3053TIP3    H2 9166   3.089   0.314   3.744 -0.6259 -1.3758  1.2086
 3054TIP3   OH2 9167   3.303   2.954   0.636 -0.1306  0.4573  0.4521
 3054TIP3    H1 9168   3.246   2.915   0.570  1.4749  1.2882 -1.5473
 3054TIP3    H2 9169   3.391   2.924   0.612  0.8026  2.8900  0.5612
 3055TIP3   OH2 9170   5.396   4.177   2.508 -0.7456 -0.4426  0.2386
 3055TIP3    H1 9171   5.414   4.086   2.532  0.0533 -0.4076 -0.2011
 3055TIP3    H2 9172   5.320   4.171   2.450 -0.4989 -0.8661 -0.0458
 3056TIP3   OH2 9173   6.300   3.707   0.210  0.4323 -0.0233  0.0360
 3056TIP3    H1 9174   6.302   3.706   0.306  0.2984 -0.2154  0.0381
 3056TIP3    H2 9175   6.331   3.794   0.186 -1.3533  0.7267  0.3000
 3057TIP3   OH2 9176   0.084   2.237   4.817  0.2354  0.0010  0.0626
 3057TIP3    H1 9177   0.102   2.154   4.860 -0.4587 -0.6429 -0.8611
 3057TIP3    H2 9178   0.012   2.219   4.756 -1.8271  1.8655  1.7534
 3058TIP3   OH2 9179   3.813   0.079   1.937  0.2798  0.8771  0.0005
 3058TIP3    H1 9180   3.746   0.125   1.987 -1.1405 -0.4244 -0.6345
 3058TIP3    H2 9181   3.885   0.143   1.929  0.0913  1.5445  2.5981
 3059TIP3   OH2 9182   6.110   0.700   2.182 -0.1428  0.1294  0.7508
 3059TIP3    H1 9183   6.062   0.740   2.254  0.1979  0.4691  0.7937
 3059TIP3    H2 9184   6.176   0.645   2.225 -2.1842 -2.5363  0.7475
 3060TIP3   OH2 9185   2.099   1.077   2.858 -0.0995  0.0362  0.1239
 3060TIP3    H1 9186   2.177   1.123   2.890 -0.6879  0.4702  1.0130
 3060TIP3    H2 9187   2.110   1.073   2.763  0.8748  0.3296  0.2155
 3061TIP3   OH2 9188   2.695   1.607   1.742 -0.1243  0.1234 -0.4410
 3061TIP3    H1 9189   2.661   1.575   1.658 -1.0347  1.1487 -0.4807
 3061TIP3    H2 9190   2.621   1.604   1.802 -0.4871  2.6909 -0.6138
 3062TIP3   OH2 9191   4.800   0.302   1.227  0.6477  0.6231 -0.8656
 3062TIP3    H1 9192   4.710   0.275   1.207  0.0170  1.7026  0.3298
 3062TIP3    H2 9193   4.799   0.397   1.216  0.9943  0.9325  1.3171
 3063TIP3   OH2 9194   5.019   0.087   0.811  0.5726  0.4500  0.0740
 3063TIP3    H1 9195   5.074   0.009   0.798  1.0726  0.8834 -0.4998
 3063TIP3    H2 9196   5.053   0.127   0.891  0.3594  0.1193  0.3330
 3064TIP3   OH2 9197   1.406   5.712   4.498 -0.5672 -0.5734 -0.2549
 3064TIP3    H1 9198   1.413   5.784   4.435 -0.2363  1.3266  1.8366
 3064TIP3    H2 9199   1.429   5.634   4.447  0.8893  0.9899 -2.1888
 3065TIP3   OH2 9200   6.281   4.040   5.037 -0.4396  0.3566  0.2464
 3065TIP3    H1 9201   6.352   4.057   4.974  0.1875 -1.7169  0.3072
 3065TIP3    H2 9202   6.211   4.003   4.983  0.5356 -2.5480  0.8198
 3066TIP3   OH2 9203   0.782   3.445   0.795 -1.0136 -0.0272 -0.0330
 3066TIP3    H1 9204   0.695   3.459   0.832 -0.5233  0.7743  0.8682
 3066TIP3    H2 9205   0.842   3.452   0.870 -0.1088  0.2045 -0.7491
 3067TIP3   OH2 9206   4.039   4.110   2.554 -0.0437  0.1033  0.0288
 3067TIP3    H1 9207   4.034   4.064   2.471 -0.8938  0.4946 -0.1435
 3067TIP3    H2 9208   4.065   4.043   2.617 -1.5592 -0.6958 -0.1678
 3068TIP3   OH2 9209   0.596   0.296   3.810 -0.1827  0.0625  0.1128
 3068TIP3    H1 9210   0.524   0.240   3.781  0.7536 -1.1028 -0.0359
 3068TIP3    H2 9211   0.625   0.341   3.731 -0.1722 -0.1451 -0.0025
 3069TIP3   OH2 9212   4.771   2.665   2.477  0.6799  0.2481  0.5782
 3069TIP3    H1 9213   4.845   2.664   2.416 -0.2371 -0.8721 -0.5631
 3069TIP3    H2 9214   4.803   2.715   2.552  2.3357  0.4309 -0.1995
 3070TIP3   OH2 9215   5.610   4.317   0.918  0.2724  0.0003  0.0108
 3070TIP3    H1 9216   5.654   4.397   0.890  0.7510 -0.2354  0.0687
 3070TIP3    H2 9217   5.682   4.259   0.944  0.0228 -0.8858 -1.1810
 3071TIP3   OH2 9218   1.166   4.354   2.395 -0.0532  0.3311  0.5299
 3071TIP3    H1 9219   1.102   4.291   2.362 -0.1024  0.5310  0.2491
 3071TIP3    H2 9220   1.202   4.395   2.317 -0.5827  1.2178  0.7465
 3072TIP3   OH2 9221   5.394   5.287   4.483  0.3805 -0.1438 -0.1679
 3072TIP3    H1 9222   5.321   5.340   4.451  0.4991 -0.9346 -1.8540
 3072TIP3    H2 9223   5.440   5.344   4.545 -0.7293  0.9304 -0.2997
 3073TIP3   OH2 9224   0.026   3.563   0.647 -0.1383 -0.0117 -0.2753
 3073TIP3    H1 9225  -0.024   3.541   0.568  1.3356  1.1155 -1.5969
 3073TIP3    H2 9226   0.053   3.654   0.634  3.2997 -0.8952 -0.3041
 3074TIP3   OH2 9227   1.564   1.361   2.272  0.0315 -0.2688  0.0973
 3074TIP3    H1 9228   1.602   1.290   2.324 -0.6220  0.2120  1.2902
 3074TIP3    H2 9229   1.469   1.351   2.285 -0.2226 -0.7312 -1.8392
 3075TIP3   OH2 9230   0.325   5.528   1.199 -0.4983  0.1259  0.0576
 3075TIP3    H1 9231   0.308   5.441   1.235 -0.0558 -0.1725 -0.4453
 3075TIP3    H2 9232   0.420   5.539   1.207 -0.6038  0.7777  0.5888
 3076TIP3   OH2 9233   0.742   3.454   2.953 -0.3785 -0.5006  0.2434
 3076TIP3    H1 9234   0.811   3.405   2.907  0.5821  1.1270 -0.1408
 3076TIP3    H2 9235   0.738   3.538   2.908  0.0344  0.8768  2.5779
 3077TIP3   OH2 9236   1.560   4.677   3.716 -0.3993  0.2444 -0.0700
 3077TIP3    H1 9237   1.644   4.684   3.670 -0.5231 -0.1670 -0.3638
 3077TIP3    H2 9238   1.499   4.728   3.662  0.2242  2.9593  1.6016
 3078TIP3   OH2 9239   4.870   2.943   0.825 -0.0984 -0.0539  0.1113
 3078TIP3    H1 9240   4.894   2.882   0.895  1.1950 -0.6523 -0.8134
 3078TIP3    H2 9241   4.777   2.926   0.809  0.3611 -2.2555 -0.5311
 3079TIP3   OH2 9242   4.765   3.747   5.109 -0.3085  0.0951  0.1148
 3079TIP3    H1 9243   4.795   3.659   5.089 -0.0217 -0.4935  2.7425
 3079TIP3    H2 9244   4.840   3.803   5.089 -0.6170 -0.1563 -1.9251
 3080TIP3   OH2 9245   6.128   4.871   3.494 -0.0760  0.0717 -0.2700
 3080TIP3    H1 9246   6.053   4.916   3.533  0.1002  1.0124 -0.9792
 3080TIP3    H2 9247   6.152   4.805   3.558 -2.0609 -0.8548 -0.4049
 3081TIP3   OH2 9248   5.406   4.486   0.077 -0.1289 -0.0609 -0.2625
 3081TIP3    H1 9249   5.358   4.568   0.064  1.3960  0.5542 -2.4792
 3081TIP3    H2 9250   5.337   4.420   0.085 -1.4102  1.3642  1.6960
 3082TIP3   OH2 9251   4.876   2.312   1.153 -0.0266  0.1812 -0.0424
 3082TIP3    H1 9252   4.944   2.291   1.216  0.4569 -0.5144 -0.7831
 3082TIP3    H2 9253   4.842   2.228   1.124 -0.8527  0.5101 -0.0684
 3083TIP3   OH2 9254   1.189   3.269   4.462  0.5218 -0.2240 -0.1070
 3083TIP3    H1 9255   1.218   3.360   4.470 -0.4444  0.0485  0.6180
 3083TIP3    H2 9256   1.189   3.251   4.368  1.2397  0.3457 -0.2217
 3084TIP3   OH2 9257   0.943   3.750   4.277 -0.0378  0.3654 -0.2039
 3084TIP3    H1 9258   1.033   3.746   4.245 -0.1894 -0.3187 -0.5583
 3084TIP3    H2 9259   0.952   3.760   4.372  0.4302 -1.3633 -0.0360
 3085TIP3   OH2 9260   0.010   1.220   4.001 -0.2259 -0.0217  0.2314
 3085TIP3    H1 9261   0.023   1.313   4.019 -0.3882  0.0447  0.0093
 3085TIP3    H2 9262   0.068   1.201   3.927 -1.3364  0.2700 -0.7470
 3086TIP3   OH2 9263   4.574   5.076   5.097  0.2096  0.5450  0.4355
 3086TIP3    H1 9264   4.526   5.115   5.170 -0.8949 -0.2638  0.1750
 3086TIP3    H2 9265   4.667   5.087   5.120 -0.0391  2.9797  0.5186
 3087TIP3   OH2 9266   3.944   2.758   2.014  0.6478 -0.5303  0.4582
 3087TIP3    H1 9267   3.992   2.686   2.055  0.8723 -0.4017  0.4213
 3087TIP3    H2 9268   3.865   2.716   1.978  2.5926 -1.6061 -3.0806
 3088TIP3   OH2 9269   5.679   2.815   3.836  0.1706  0.4121  0.4701
 3088TIP3    H1 9270   5.623   2.777   3.768  1.0346  0.8341 -0.5274
 3088TIP3    H2 9271   5.672   2.756   3.910  0.4706 -1.0001 -0.5882
 3089TIP3   OH2 9272   1.243   1.430   3.967 -0.0578 -0.2439  0.6162
 3089TIP3    H1 9273   1.272   1.470   4.049 -1.9293  0.9728  0.7295
 3089TIP3    H2 9274   1.203   1.502   3.918 -0.1081 -1.2172 -0.8214
 3090TIP3   OH2 9275   5.031   1.362   2.933 -0.1391 -0.1945  0.3212
 3090TIP3    H1 9276   4.952   1.311   2.911 -0.4664  0.0368  0.9267
 3090TIP3    H2 9277   5.101   1.320   2.884 -0.7366 -0.0578 -0.6777
 3091TIP3   OH2 9278   6.140   1.660   4.290 -0.0266 -0.1210 -0.3483
 3091TIP3    H1 9279   6.100   1.747   4.292 -0.2435 -0.2318  0.1702
 3091TIP3    H2 9280   6.067   1.599   4.291  0.1410 -0.3298  0.9811
 3092TIP3   OH2 9281   2.631   5.739   2.776 -0.2357 -0.2643  0.0906
 3092TIP3    H1 9282   2.614   5.647   2.797  1.9548 -0.2703  2.2302
 3092TIP3    H2 9283   2.622   5.743   2.680 -3.0035 -2.0336  0.1412
 3093TIP3   OH2 9284   2.013   4.841   1.538 -0.4041 -0.6445 -0.1512
 3093TIP3    H1 9285   1.939   4.827   1.598 -2.9005 -0.4390 -2.9597
 3093TIP3    H2 9286   2.015   4.763   1.483 -1.0392  0.9435 -2.5579
 3094TIP3   OH2 9287   1.237   2.491   0.741 -0.1716 -0.3168 -0.0787
 3094TIP3    H1 9288   1.248   2.424   0.808  1.6244  0.9265  0.9517
 3094TIP3    H2 9289   1.324   2.529   0.731 -0.7865  0.7104 -1.8674
 3095TIP3   OH2 9290   4.512   5.817   2.415  0.0186  0.2970  0.5335
 3095TIP3    H1 9291   4.557   5.819   2.500 -0.4680  1.1049  0.7784
 3095TIP3    H2 9292   4.457   5.739   2.418  0.7180 -0.2144  0.5721
 3096TIP3   OH2 9293   5.250   1.895   4.756 -0.2090 -0.1763 -0.2740
 3096TIP3    H1 9294   5.284   1.985   4.762 -1.4627  0.3467 -0.6666
 3096TIP3    H2 9295   5.267   1.857   4.842 -0.6048  0.7904  0.2458
 3097TIP3   OH2 9296   2.147   3.463   0.181  0.3030  0.2545 -0.1556
 3097TIP3    H1 9297   2.058   3.493   0.162  0.1962 -0.9840 -1.8339
 3097TIP3    H2 9298   2.136   3.401   0.253 -0.1931  0.0773 -0.3770
 3098TIP3   OH2 9299   4.991   2.128   2.606 -0.2835  0.0857  0.1139
 3098TIP3    H1 9300   5.017   2.108   2.516  1.0896  2.3225 -0.0691
 3098TIP3    H2 9301   5.008   2.048   2.655  0.1662 -0.7596 -1.3773
 3099TIP3   OH2 9302   1.822   0.685   1.095  0.2689  0.3186 -0.7448
 3099TIP3    H1 9303   1.897   0.635   1.128  0.9835  0.8319 -1.5380
 3099TIP3    H2 9304   1.758   0.618   1.070  0.7878 -0.1683 -0.8018
 3100TIP3   OH2 9305   3.010   4.912   2.428  0.4390 -0.3706 -0.7640
 3100TIP3    H1 9306   2.969   4.840   2.477 -1.8214  0.9182 -0.5980
 3100TIP3    H2 9307   3.090   4.931   2.476  0.8290 -2.3985 -0.5028
 3101TIP3   OH2 9308   3.677   0.552   4.388  0.0005 -0.1053 -0.4157
 3101TIP3    H1 9309   3.766   0.558   4.354  0.6742  3.1545  1.4488
 3101TIP3    H2 9310   3.686   0.502   4.470  0.0350 -0.1520 -0.4481
 3102TIP3   OH2 9311   1.208   0.548   2.763 -0.1054  0.1792 -0.3599
 3102TIP3    H1 9312   1.124   0.586   2.791 -0.5644  0.0398 -1.5082
 3102TIP3    H2 9313   1.190   0.455   2.752 -0.0628  0.3039 -1.5615
 3103TIP3   OH2 9314   4.003   0.981   1.147  0.2501 -0.0235 -0.1012
 3103TIP3    H1 9315   3.975   1.033   1.222 -2.5295 -0.0446 -1.0043
 3103TIP3    H2 9316   3.996   0.890   1.178 -0.3792 -0.0172 -0.2199
 3104TIP3   OH2 9317   0.554   2.894   4.944 -0.2833 -0.2570  0.7306
 3104TIP3    H1 9318   0.547   2.990   4.941 -1.4048 -0.3559 -0.8198
 3104TIP3    H2 9319   0.483   2.867   5.002  0.2842 -0.1649  1.5000
 3105TIP3   OH2 9320   2.666   2.383   4.773 -0.3057  0.2703 -0.0951
 3105TIP3    H1 9321   2.680   2.316   4.707 -0.0943  2.4289 -2.3983
 3105TIP3    H2 9322   2.602   2.345   4.833 -0.6651 -1.7263 -1.6404
 3106TIP3   OH2 9323   0.694   4.619   2.847 -0.2430 -0.5879  0.1060
 3106TIP3    H1 9324   0.762   4.686   2.860  0.8913 -1.5165 -0.8628
 3106TIP3    H2 9325   0.738   4.536   2.864 -1.3304 -1.1742  0.1399
 3107TIP3   OH2 9326   3.989   2.911   4.027  0.9265  1.0205  0.1903
 3107TIP3    H1 9327   3.988   3.006   4.016 -1.5515  0.8368 -2.6582
 3107TIP3    H2 9328   4.024   2.877   3.945 -0.9324 -0.4904 -0.0759
 3108TIP3   OH2 9329   5.570   0.306   1.586 -0.1834 -0.6717  0.2687
 3108TIP3    H1 9330   5.587   0.397   1.564 -0.4555 -0.3963  1.1171
 3108TIP3    H2 9331   5.475   0.296   1.575 -0.1065 -0.9447 -0.1461
 3109TIP3   OH2 9332   1.028   4.235   0.151  0.0608 -0.3408 -0.0269
 3109TIP3    H1 9333   0.955   4.297   0.148  0.7599  0.4895 -0.5074
 3109TIP3    H2 9334   1.006   4.169   0.085 -0.0169  0.1748 -0.5176
 3110TIP3   OH2 9335   1.672   5.145   4.001 -0.1138 -0.8630  0.2162
 3110TIP3    H1 9336   1.610   5.185   4.063 -0.5218 -1.4236  0.1772
 3110TIP3    H2 9337   1.717   5.078   4.053 -2.4335 -3.3224 -0.7274
 3111TIP3   OH2 9338   5.889   4.314   1.789 -0.3615  0.2446 -0.0967
 3111TIP3    H1 9339   5.911   4.233   1.835 -0.1080 -0.1200 -0.8385
 3111TIP3    H2 9340   5.912   4.384   1.850 -0.9035 -0.2477  0.6871
 3112TIP3   OH2 9341   4.079   5.223   4.903 -0.0389  0.3431  0.1299
 3112TIP3    H1 9342   4.053   5.213   4.995  0.3887 -0.8928  0.1325
 3112TIP3    H2 9343   4.175   5.227   4.905  0.0412 -0.8489 -0.3338
 3113TIP3   OH2 9344   0.895   4.944   4.971 -0.0845  0.5520  0.1709
 3113TIP3    H1 9345   0.854   5.005   5.033 -0.1761 -0.9753  1.7123
 3113TIP3    H2 9346   0.835   4.870   4.968  1.0617 -0.3986  0.0791
 3114TIP3   OH2 9347   0.682   2.709   2.301 -0.2152  0.2206  0.5674
 3114TIP3    H1 9348   0.684   2.792   2.350 -1.3552 -0.0009  1.0261
 3114TIP3    H2 9349   0.773   2.691   2.280 -0.0122  2.1403 -0.4568
 3115TIP3   OH2 9350   3.551   2.395   1.689  0.3555 -0.2202 -0.3593
 3115TIP3    H1 9351   3.464   2.389   1.731  0.8855 -1.1926  0.6735
 3115TIP3    H2 9352   3.544   2.337   1.613  0.3292 -0.9733  0.1960
 3116TIP3   OH2 9353   0.676   1.402   3.489 -0.2057  0.5465  0.7748
 3116TIP3    H1 9354   0.639   1.315   3.472 -0.0923  0.6474 -0.0180
 3116TIP3    H2 9355   0.745   1.412   3.423  0.1218  1.0346  1.1843
 3117TIP3   OH2 9356   0.399   1.230   2.131  0.1745 -0.0398 -0.6382
 3117TIP3    H1 9357   0.322   1.246   2.075 -0.1844 -1.7254 -0.6815
 3117TIP3    H2 9358   0.402   1.135   2.140 -0.0156  0.1376  2.5309
 3118TIP3   OH2 9359   5.511   0.031   3.831  0.1640  0.8128  0.5675
 3118TIP3    H1 9360   5.542   0.007   3.918  0.9705 -1.1389 -0.1917
 3118TIP3    H2 9361   5.575  -0.007   3.771 -1.1252  0.8534 -0.9217
 3119TIP3   OH2 9362   3.895   5.565   1.343 -0.1670  0.0555 -0.4423
 3119TIP3    H1 9363   3.926   5.642   1.295  1.8209  0.3787  1.2100
 3119TIP3    H2 9364   3.931   5.490   1.295 -0.4356  0.2385 -0.9338
 3120TIP3   OH2 9365   2.743   4.005   1.681  0.4453 -0.0585 -0.5537
 3120TIP3    H1 9366   2.790   4.034   1.603  0.5644  1.9141  0.1757
 3120TIP3    H2 9367   2.694   4.083   1.709  0.4432 -0.6988  1.3498
 3121TIP3   OH2 9368   3.533   2.691   1.827  0.2427 -0.2952 -0.0171
 3121TIP3    H1 9369   3.611   2.638   1.809 -0.1491 -0.6877 -0.6302
 3121TIP3    H2 9370   3.553   2.776   1.789  0.7864 -0.0677  0.7653
 3122TIP3   OH2 9371   4.092   4.318   2.990  0.3804 -0.1465  0.0581
 3122TIP3    H1 9372   4.067   4.263   3.063  0.1138 -0.6730 -0.4238
 3122TIP3    H2 9373   4.149   4.385   3.028  1.2461 -1.1378  0.5392
 3123TIP3   OH2 9374   0.798   1.867   2.412  0.2619  0.4802  0.5428
 3123TIP3    H1 9375   0.857   1.809   2.364 -0.2765  1.7393 -1.7634
 3123TIP3    H2 9376   0.853   1.941   2.437  0.3408  0.2223  1.1566
 3124TIP3   OH2 9377   3.313   0.474   2.651 -0.6374 -0.6112 -0.1462
 3124TIP3    H1 9378   3.350   0.393   2.685 -0.9756 -1.2414 -1.2292
 3124TIP3    H2 9379   3.295   0.527   2.729 -0.4140 -1.5708  0.5738
 3125TIP3   OH2 9380   3.953   2.993   2.939  0.5955  0.5953  0.6998
 3125TIP3    H1 9381   4.014   3.053   2.895 -1.0657  2.3797  0.6697
 3125TIP3    H2 9382   3.998   2.968   3.020  0.5023  3.8297  1.8972
 3126TIP3   OH2 9383   2.136   0.047   4.831  0.2820 -0.2447 -0.0521
 3126TIP3    H1 9384   2.133  -0.010   4.754 -1.6377  0.8044 -0.8158
 3126TIP3    H2 9385   2.175  -0.008   4.900  0.5635 -1.7251 -1.3387
 3127TIP3   OH2 9386   1.845   1.468   3.630 -0.2666  0.1962  0.4324
 3127TIP3    H1 9387   1.862   1.425   3.547  0.1482 -1.0993  1.1629
 3127TIP3    H2 9388   1.862   1.561   3.613  3.9072 -0.4372  0.0840
 3128TIP3   OH2 9389   0.407   1.512   1.742 -0.0407 -0.1271  0.0517
 3128TIP3    H1 9390   0.420   1.453   1.668 -0.9894 -0.2526 -0.0214
 3128TIP3    H2 9391   0.337   1.472   1.793  0.9332 -0.3063  1.3051
 3129TIP3   OH2 9392   0.953   1.106   2.607 -0.4232  0.7034 -0.0196
 3129TIP3    H1 9393   1.020   1.037   2.607 -0.8492  0.2751  1.0497
 3129TIP3    H2 9394   0.924   1.110   2.515 -0.0201 -0.1741 -0.2011
 3130TIP3   OH2 9395   2.377   0.994   0.637 -0.4074  0.0235 -0.3924
 3130TIP3    H1 9396   2.468   1.003   0.664 -0.5175  2.3263 -0.5969
 3130TIP3    H2 9397   2.381   0.950   0.552  0.1724 -3.5948  1.2899
 3131TIP3   OH2 9398   3.133   1.812   1.023  0.1137  0.6546 -0.0333
 3131TIP3    H1 9399   3.114   1.782   1.111 -0.4982  0.6316 -0.1669
 3131TIP3    H2 9400   3.048   1.810   0.978  0.2730  1.4367 -0.3874
 3132TIP3   OH2 9401   0.713   0.898   3.835 -0.2759 -0.1013 -0.3892
 3132TIP3    H1 9402   0.702   0.807   3.861 -2.8000 -0.1904 -1.5208
 3132TIP3    H2 9403   0.647   0.945   3.885  0.4237  1.0124 -0.4722
 3133TIP3   OH2 9404   0.450   4.135   4.260 -0.1398 -0.0187  0.0974
 3133TIP3    H1 9405   0.507   4.087   4.320  0.9544  1.1337  0.0337
 3133TIP3    H2 9406   0.509   4.169   4.192 -1.2182 -0.5137 -1.1351
 3134TIP3   OH2 9407   0.880   2.478   4.831 -0.7928 -0.3723 -0.2731
 3134TIP3    H1 9408   0.857   2.412   4.766  0.2478 -1.0681  0.0493
 3134TIP3    H2 9409   0.842   2.559   4.797 -0.9092 -0.8681 -1.3666
 3135TIP3   OH2 9410   2.287   1.393   3.714  0.2788 -0.5824  0.2555
 3135TIP3    H1 9411   2.345   1.349   3.776  0.6508  0.8058  0.9149
 3135TIP3    H2 9412   2.219   1.432   3.768 -0.1334 -0.4659 -0.3315
 3136TIP3   OH2 9413   3.749   2.498   3.273 -0.4466 -0.5189 -0.0813
 3136TIP3    H1 9414   3.761   2.552   3.351 -0.9301 -0.2512 -0.1911
 3136TIP3    H2 9415   3.797   2.544   3.204 -1.5453  0.2304 -0.3758
 3137TIP3   OH2 9416   0.223   1.959   1.469  0.0552 -0.2032  0.0388
 3137TIP3    H1 9417   0.169   2.036   1.489  0.9615  0.1625  1.1893
 3137TIP3    H2 9418   0.303   1.972   1.520  1.0271 -0.9825 -1.2290
 3138TIP3   OH2 9419   1.787   0.359   3.397 -0.7480  0.0592  0.2650
 3138TIP3    H1 9420   1.729   0.284   3.410 -0.3599 -0.1618  0.7484
 3138TIP3    H2 9421   1.742   0.413   3.332 -0.9957 -0.6346 -0.1576
 3139TIP3   OH2 9422   2.004   0.447   4.943  0.1267  0.1171 -0.4137
 3139TIP3    H1 9423   2.091   0.487   4.951 -0.5380  1.4811  0.3657
 3139TIP3    H2 9424   1.983   0.452   4.850  0.2565  1.2017 -0.3951
 3140TIP3   OH2 9425   5.621   2.942   1.644 -0.4231 -0.6069  0.3561
 3140TIP3    H1 9426   5.657   2.892   1.717 -2.9775 -1.3585  1.2156
 3140TIP3    H2 9427   5.655   2.898   1.566  2.0556 -0.0143  1.0261
 3141TIP3   OH2 9428   5.395   1.598   2.603 -0.0818 -0.5169  0.1289
 3141TIP3    H1 9429   5.405   1.563   2.692  0.4602  0.8151  0.6200
 3141TIP3    H2 9430   5.376   1.691   2.616  0.5742 -0.1830 -1.1537
 3142TIP3   OH2 9431   4.714   1.047   1.148 -0.8488 -0.4723 -0.0692
 3142TIP3    H1 9432   4.736   1.135   1.177 -1.9121 -0.0211 -0.5615
 3142TIP3    H2 9433   4.754   1.039   1.061 -0.2849 -0.6816  0.2083
 3143TIP3   OH2 9434   5.791   0.780   1.028 -0.2362  0.9189 -0.5516
 3143TIP3    H1 9435   5.795   0.699   1.078  1.1943 -0.3825 -2.5979
 3143TIP3    H2 9436   5.698   0.802   1.025 -0.4538  0.5308  1.7581
 3144TIP3   OH2 9437   6.118   3.619   2.076 -0.1183  1.0323 -0.6306
 3144TIP3    H1 9438   6.060   3.695   2.071 -1.5201  0.1154  0.8266
 3144TIP3    H2 9439   6.076   3.552   2.023  0.0794  0.6445 -0.3076
 3145TIP3   OH2 9440   1.299   3.918   0.566  0.0113  0.1542 -0.0856
 3145TIP3    H1 9441   1.374   3.887   0.617 -0.2562 -0.7051 -0.2024
 3145TIP3    H2 9442   1.232   3.937   0.631  0.4189  1.2168  0.0439
 3146TIP3   OH2 9443   3.221   5.072   2.850  0.0064 -0.1243 -0.0694
 3146TIP3    H1 9444   3.156   5.009   2.818  0.2356  0.6855 -2.3283
 3146TIP3    H2 9445   3.205   5.078   2.944 -2.9665 -0.2193 -0.4768
 3147TIP3   OH2 9446   0.180   1.201   3.783 -0.2867 -0.0204  0.1776
 3147TIP3    H1 9447   0.226   1.123   3.753 -0.2020 -0.6280  1.8128
 3147TIP3    H2 9448   0.238   1.274   3.761  0.3920 -0.5699  0.1308
 3148TIP3   OH2 9449   5.069   4.825   4.468  0.4944  0.1238  0.1949
 3148TIP3    H1 9450   5.071   4.917   4.495 -0.0989 -0.4349  2.3699
 3148TIP3    H2 9451   4.977   4.809   4.446  0.5471 -0.0119  0.0739
 3149TIP3   OH2 9452   2.618   4.731   0.495 -0.1166 -0.1396  0.6707
 3149TIP3    H1 9453   2.643   4.807   0.443  1.5023 -0.0657  1.4844
 3149TIP3    H2 9454   2.525   4.719   0.477 -0.1903  1.4470 -0.1990
 3150TIP3   OH2 9455   1.164   0.399   2.024  0.0180  0.0083 -0.1296
 3150TIP3    H1 9456   1.098   0.469   2.026 -0.2703 -0.2793  1.1335
 3150TIP3    H2 9457   1.193   0.391   2.115  0.9241 -0.7020 -0.4669
 3151TIP3   OH2 9458   3.853   0.775   0.108  0.5772  0.0487 -0.3602
 3151TIP3    H1 9459   3.820   0.864   0.117 -0.2543 -0.3981  1.3424
 3151TIP3    H2 9460   3.946   0.781   0.128  0.2615  0.3483  1.1169
 3152TIP3   OH2 9461   4.125   3.417   4.236  0.1207 -0.4941 -0.0335
 3152TIP3    H1 9462   4.167   3.336   4.265 -1.3652 -1.0711  0.6187
 3152TIP3    H2 9463   4.162   3.433   4.150  0.1046 -2.1333 -0.3803
 3153TIP3   OH2 9464   4.005   4.935   3.358 -0.1187 -0.3474  0.0291
 3153TIP3    H1 9465   4.096   4.950   3.382 -0.2809 -1.0727  1.1594
 3153TIP3    H2 9466   4.008   4.859   3.299  0.0607  0.0171 -0.4354
 3154TIP3   OH2 9467   1.772   5.868   1.139 -0.4549  0.2434  0.2588
 3154TIP3    H1 9468   1.695   5.908   1.097 -0.4807  0.6278  0.6622
 3154TIP3    H2 9469   1.824   5.835   1.066 -0.6932  0.5461 -0.0574
 3155TIP3   OH2 9470   4.550   2.347   3.193  0.3138 -0.3136 -0.1407
 3155TIP3    H1 9471   4.472   2.320   3.241  0.7538 -0.4965  0.4853
 3155TIP3    H2 9472   4.549   2.293   3.114 -1.2387  1.0677 -1.1207
 3156TIP3   OH2 9473   4.940   2.213   4.409  0.6106 -0.1830 -0.0193
 3156TIP3    H1 9474   4.952   2.127   4.368 -1.1194 -0.5118  0.0930
 3156TIP3    H2 9475   4.998   2.212   4.485  1.7636 -0.6370 -0.8729
 3157TIP3   OH2 9476   6.017   1.242   3.263 -0.2648  0.2521  0.3376
 3157TIP3    H1 9477   6.072   1.320   3.274 -0.5166  0.4349  0.3046
 3157TIP3    H2 9478   5.983   1.249   3.173 -0.3229  0.1287  0.3499
 3158TIP3   OH2 9479   2.135   0.770   4.421  0.2484  0.2584 -0.1310
 3158TIP3    H1 9480   2.112   0.724   4.502 -1.0941 -0.2037 -0.7432
 3158TIP3    H2 9481   2.052   0.802   4.388  0.7955  0.5076 -1.2905
 3159TIP3   OH2 9482   4.447   3.297   0.690 -0.1128 -0.6348 -0.0482
 3159TIP3    H1 9483   4.432   3.215   0.737 -1.1536  0.8541  2.4260
 3159TIP3    H2 9484   4.535   3.288   0.653  0.2686 -2.3795  1.1646
 3160TIP3   OH2 9485   1.576   1.544   1.516  0.1747  0.6572 -0.5484
 3160TIP3    H1 9486   1.636   1.470   1.505 -0.5502 -0.0893  0.4082
 3160TIP3    H2 9487   1.489   1.505   1.508 -0.2677  1.0799  1.6642
 3161TIP3   OH2 9488   1.017   3.947   2.125 -0.8118 -0.1608  0.4453
 3161TIP3    H1 9489   1.065   3.891   2.064  0.6877  0.3141  1.1470
 3161TIP3    H2 9490   0.978   3.886   2.188 -0.2266 -0.4954  0.4898
 3162TIP3   OH2 9491   4.791   4.412   2.812 -0.2473 -0.0540  0.0121
 3162TIP3    H1 9492   4.754   4.480   2.756 -1.8040 -0.5116  0.4254
 3162TIP3    H2 9493   4.846   4.359   2.754 -0.4699  0.4836 -0.6952
 3163TIP3   OH2 9494   3.382   2.850   4.273 -0.1232 -0.0946  0.0025
 3163TIP3    H1 9495   3.325   2.899   4.331 -0.3778 -0.1488 -0.1981
 3163TIP3    H2 9496   3.394   2.765   4.316  0.2739  0.1258  0.3228
 3164TIP3   OH2 9497   3.229   3.341   0.215  0.4859  0.0545 -0.0017
 3164TIP3    H1 9498   3.302   3.402   0.206 -1.1054  2.1676  0.5501
 3164TIP3    H2 9499   3.199   3.353   0.306 -1.1768  0.0473 -0.5168
 3165TIP3   OH2 9500   4.820   3.588   3.411  0.3155  0.6304  0.1345
 3165TIP3    H1 9501   4.833   3.683   3.418  1.8632  0.4346  0.3368
 3165TIP3    H2 9502   4.886   3.551   3.470 -0.4418 -0.5724  0.2587
 3166TIP3   OH2 9503   6.258   2.355   2.288  0.3203 -0.2547 -0.4016
 3166TIP3    H1 9504   6.340   2.405   2.285 -0.6909  1.4368 -2.4674
 3166TIP3    H2 9505   6.239   2.335   2.196 -0.8273 -1.9710  0.1625
 3167TIP3   OH2 9506   0.870   5.171   4.580  0.8131 -0.0428 -0.5582
 3167TIP3    H1 9507   0.929   5.232   4.535  0.2022  0.8362 -0.2028
 3167TIP3    H2 9508   0.896   5.176   4.672  0.0973  0.4755 -0.3747
 3168TIP3   OH2 9509   2.277   1.242   0.558  0.2336 -0.2747  0.2441
 3168TIP3    H1 9510   2.342   1.312   0.560  0.8230 -0.7936 -0.3373
 3168TIP3    H2 9511   2.328   1.161   0.561 -0.2173 -0.7463 -2.3105
 3169TIP3   OH2 9512   2.289   5.732   1.699 -0.4233 -0.2075  0.5173
 3169TIP3    H1 9513   2.293   5.726   1.603  0.1509 -1.0961  0.5932
 3169TIP3    H2 9514   2.230   5.806   1.715  0.5023  0.8079 -0.5312
 3170TIP3   OH2 9515   1.883   1.016   3.019  0.0536  0.0846  0.2731
 3170TIP3    H1 9516   1.967   1.036   2.978 -0.6404  1.1640 -0.7158
 3170TIP3    H2 9517   1.838   0.960   2.956 -0.2190  0.0601  0.4840
 3171TIP3   OH2 9518   0.665   5.086   1.981 -0.4153  0.2676 -1.3956
 3171TIP3    H1 9519   0.672   5.164   2.036 -0.4449 -0.6665 -0.0155
 3171TIP3    H2 9520   0.570   5.073   1.971 -0.4653 -0.6578  0.0046
 3172TIP3   OH2 9521   6.264   1.739   2.739 -0.1954 -0.0170 -0.6139
 3172TIP3    H1 9522   6.347   1.714   2.779 -0.4687 -0.5763 -0.3826
 3172TIP3    H2 9523   6.251   1.830   2.763 -1.9418 -1.1208  3.4129
 3173TIP3   OH2 9524   0.847   3.109   4.279 -0.3134 -0.1410 -0.6930
 3173TIP3    H1 9525   0.904   3.142   4.349  0.1428 -2.5187  0.1525
 3173TIP3    H2 9526   0.759   3.132   4.307  0.0072  0.9431 -0.5163
 3174TIP3   OH2 9527   0.494   3.331   2.963  0.1923 -0.2509  0.1506
 3174TIP3    H1 9528   0.558   3.398   2.941 -0.8808  1.0302  0.8215
 3174TIP3    H2 9529   0.417   3.352   2.911 -0.5558 -0.2654  1.2208
 3175TIP3   OH2 9530   5.339   0.835   3.894 -0.2320  0.2980  0.0725
 3175TIP3    H1 9531   5.353   0.861   3.803  1.4192 -1.0471 -0.0985
 3175TIP3    H2 9532   5.278   0.761   3.888  1.9917 -1.6267 -0.2638
 3176TIP3   OH2 9533   2.149   4.084   0.228 -0.6537  0.5311  0.5362
 3176TIP3    H1 9534   2.241   4.112   0.224  0.3338 -2.4328 -1.0987
 3176TIP3    H2 9535   2.109   4.123   0.150  0.4024 -1.4244 -1.0912
 3177TIP3   OH2 9536   4.156   2.979   4.922 -0.1722  0.1304  0.2802
 3177TIP3    H1 9537   4.241   2.997   4.880 -0.2106 -0.9095 -0.2734
 3177TIP3    H2 9538   4.175   2.909   4.984 -0.5759  0.0752  0.3383
 3178TIP3   OH2 9539   1.505   4.888   2.393  0.1441  0.1611  0.3189
 3178TIP3    H1 9540   1.433   4.829   2.371 -0.6284  1.3429 -0.4647
 3178TIP3    H2 9541   1.570   4.832   2.435 -1.0903 -1.0021  0.7664
 3179TIP3   OH2 9542   1.182   0.727   1.538  0.3862 -0.4914 -0.4952
 3179TIP3    H1 9543   1.275   0.723   1.561  0.5113  1.1424 -0.5848
 3179TIP3    H2 9544   1.142   0.777   1.609 -0.1722  0.0187 -1.1513
 3180TIP3   OH2 9545   0.185   3.737   0.879 -1.1497 -0.5351  0.1153
 3180TIP3    H1 9546   0.142   3.760   0.796 -1.0256  0.8515  0.4120
 3180TIP3    H2 9547   0.181   3.818   0.931  1.4837 -0.4395  0.2943
 3181TIP3   OH2 9548   6.098   4.441   1.621  0.5640  0.2675 -0.2241
 3181TIP3    H1 9549   6.113   4.536   1.614  2.3770  0.0510  0.1488
 3181TIP3    H2 9550   6.039   4.432   1.697 -1.3612  1.1819 -1.5279
 3182TIP3   OH2 9551   1.883   1.728   3.520  0.0667  0.2029  0.2048
 3182TIP3    H1 9552   1.970   1.688   3.524  0.5067  1.2346  1.6300
 3182TIP3    H2 9553   1.899   1.822   3.509 -0.8176  0.5590  1.7385
 3183TIP3   OH2 9554   5.203   3.688   1.136  0.0526 -0.1993 -0.4020
 3183TIP3    H1 9555   5.253   3.707   1.058  1.2202  0.6533  0.5169
 3183TIP3    H2 9556   5.261   3.710   1.209 -0.9947 -0.9348  0.7174
 3184TIP3   OH2 9557   3.364   3.196   4.278 -0.4561 -0.1127 -0.1362
 3184TIP3    H1 9558   3.423   3.249   4.331 -2.0014  1.0031  0.5712
 3184TIP3    H2 9559   3.284   3.190   4.331 -0.7636 -2.1345 -0.7536
 3185TIP3   OH2 9560   6.339   1.746   5.004 -0.7805 -0.0492 -0.0166
 3185TIP3    H1 9561   6.272   1.763   4.939 -0.6080  0.0321 -0.1740
 3185TIP3    H2 9562   6.407   1.696   4.958 -0.1754  0.8946 -0.1739
 3186TIP3   OH2 9563   4.323   3.992   3.270 -0.0491 -0.2210  0.1767
 3186TIP3    H1 9564   4.284   3.905   3.263 -0.2596 -0.0958 -0.3248
 3186TIP3    H2 9565   4.351   4.012   3.180 -2.5844  1.3855 -0.3678
 3187TIP3   OH2 9566   5.599   1.372   3.253 -0.5378 -0.2876  0.0474
 3187TIP3    H1 9567   5.621   1.460   3.222 -1.1735  0.1293  0.7341
 3187TIP3    H2 9568   5.522   1.347   3.201 -1.4881  0.3346  1.1060
 3188TIP3   OH2 9569   3.511   3.888   5.017 -0.0100  0.0496  0.3907
 3188TIP3    H1 9570   3.449   3.891   4.943  1.0884 -1.1348 -0.6293
 3188TIP3    H2 9571   3.580   3.950   4.993  1.5122 -1.9612 -0.7424
 3189TIP3   OH2 9572   3.772   5.832   1.902  0.3710  0.8304  0.7011
 3189TIP3    H1 9573   3.772   5.759   1.964 -0.1854 -0.2916 -0.5816
 3189TIP3    H2 9574   3.704   5.891   1.935 -0.6929 -0.2912  0.5861
 3190TIP3   OH2 9575   3.813   0.117   2.339 -0.1761 -0.1602 -0.1499
 3190TIP3    H1 9576   3.841   0.208   2.333  2.0007 -0.8549 -2.7280
 3190TIP3    H2 9577   3.720   0.122   2.365  0.2631  2.6443  1.3172
 3191TIP3   OH2 9578   4.215   1.296   0.306  0.4885  0.1435 -0.1312
 3191TIP3    H1 9579   4.164   1.237   0.250  0.3671 -0.2734  0.4131
 3191TIP3    H2 9580   4.306   1.268   0.294  0.6535  1.1045 -1.3635
 3192TIP3   OH2 9581   2.623   0.766   4.845  0.0705  0.0820  0.3629
 3192TIP3    H1 9582   2.651   0.809   4.764 -0.4307  1.1619  0.7487
 3192TIP3    H2 9583   2.567   0.694   4.816 -0.6062  0.8307 -0.2408
 3193TIP3   OH2 9584   1.911   2.543   1.503 -0.4627 -0.0896  0.1149
 3193TIP3    H1 9585   1.936   2.572   1.591  0.8362 -1.2286  0.1658
 3193TIP3    H2 9586   1.955   2.605   1.445 -1.8674  1.0701  0.2457
 3194TIP3   OH2 9587   2.093   0.581   2.168  0.1180  0.5473 -0.0890
 3194TIP3    H1 9588   2.067   0.648   2.104  0.0316 -0.1864 -0.8309
 3194TIP3    H2 9589   2.181   0.555   2.141 -0.1250 -0.1397 -0.2315
 3195TIP3   OH2 9590   1.425   0.593   0.510  0.0734  0.5148  0.5855
 3195TIP3    H1 9591   1.366   0.562   0.441  0.1486 -1.3458  1.2918
 3195TIP3    H2 9592   1.381   0.670   0.546 -1.9900 -0.8576  1.1411
 3196TIP3   OH2 9593   4.679   4.028   1.327 -0.0794  0.4390 -0.1614
 3196TIP3    H1 9594   4.772   4.051   1.334 -0.1272  0.7063 -0.4338
 3196TIP3    H2 9595   4.666   4.006   1.235 -0.3710  0.7593 -0.1965
 3197TIP3   OH2 9596   3.648   0.159   4.335  0.0625 -0.2229  0.2324
 3197TIP3    H1 9597   3.633   0.068   4.309  0.8332 -0.1523 -0.5235
 3197TIP3    H2 9598   3.732   0.181   4.294 -0.8339  1.3106 -0.8834
 3198TIP3   OH2 9599   3.139   2.279   2.350  0.4030 -0.1390  0.0396
 3198TIP3    H1 9600   3.109   2.302   2.262 -1.8359 -1.1439  0.4851
 3198TIP3    H2 9601   3.074   2.316   2.409  1.6510  0.1504  1.2839
 3199TIP3   OH2 9602   5.266   5.957   4.138 -0.0656 -1.0623  0.3507
 3199TIP3    H1 9603   5.285   5.880   4.083 -0.0901 -0.4095 -0.6043
 3199TIP3    H2 9604   5.278   6.032   4.079 -1.4622 -0.3986  0.8667
 3200TIP3   OH2 9605   2.314   1.779   4.499  0.7653  0.5674  0.3844
 3200TIP3    H1 9606   2.234   1.789   4.551  0.9644 -0.6071  0.9654
 3200TIP3    H2 9607   2.302   1.837   4.424 -0.9033 -0.0314  0.1419
 3201TIP3   OH2 9608   2.908   2.343   2.151  0.5880 -0.5864 -0.2831
 3201TIP3    H1 9609   2.973   2.414   2.150  0.3666 -0.3124  1.4913
 3201TIP3    H2 9610   2.829   2.382   2.115  1.2574 -0.7924 -2.0417
 3202TIP3   OH2 9611   4.517   4.507   3.155 -0.0202 -0.4694 -0.1166
 3202TIP3    H1 9612   4.603   4.550   3.158  0.0876 -0.6283 -0.8030
 3202TIP3    H2 9613   4.479   4.524   3.241  1.0416 -1.0842  0.4951
 3203TIP3   OH2 9614   0.975   3.147   2.307 -0.0842 -0.2945 -0.0048
 3203TIP3    H1 9615   1.032   3.104   2.244 -0.8585 -1.1607 -0.1494
 3203TIP3    H2 9616   0.974   3.239   2.281  2.6732  0.1509  1.1002
 3204TIP3   OH2 9617   5.889   0.898   4.355 -0.1674  0.4138  0.1644
 3204TIP3    H1 9618   5.846   0.863   4.277 -0.5576  0.5673  0.3088
 3204TIP3    H2 9619   5.932   0.978   4.325  0.4857 -0.0315 -0.1022
 3205TIP3   OH2 9620   0.154   4.849   2.154  0.2089 -0.3626  0.2288
 3205TIP3    H1 9621   0.179   4.818   2.067 -0.6127  0.4755 -0.3215
 3205TIP3    H2 9622   0.059   4.838   2.157  0.1990 -0.1242  0.9251
 3206TIP3   OH2 9623   4.425   5.761   2.130  0.0278 -0.1992 -0.2407
 3206TIP3    H1 9624   4.339   5.754   2.172  0.3501 -0.8363  0.3273
 3206TIP3    H2 9625   4.486   5.779   2.201  0.2178  1.5991 -0.7991
 3207TIP3   OH2 9626   0.084   2.202   1.508  0.0635 -0.0202  0.5580
 3207TIP3    H1 9627   0.143   2.263   1.552 -0.9959  1.2632  0.2745
 3207TIP3    H2 9628  -0.003   2.228   1.537 -0.6334  0.4239 -1.7073
 3208TIP3   OH2 9629   3.233   4.859   1.188  0.0965  0.8468  0.6620
 3208TIP3    H1 9630   3.163   4.925   1.189  1.0333  1.8702  0.0289
 3208TIP3    H2 9631   3.282   4.874   1.268  0.5066  1.1359  0.3582
 3209TIP3   OH2 9632   3.523   1.662   1.991 -0.2737  0.0455  0.7856
 3209TIP3    H1 9633   3.436   1.626   1.973  0.0892 -1.3048  1.5667
 3209TIP3    H2 9634   3.528   1.666   2.087 -0.7563  3.4619  0.7806
 3210TIP3   OH2 9635   1.938   4.502   1.586  0.2282 -0.3586 -0.1438
 3210TIP3    H1 9636   1.915   4.569   1.651  0.1673 -1.6955  1.2595
 3210TIP3    H2 9637   1.980   4.433   1.636  0.4787 -1.3106 -1.5950
 3211TIP3   OH2 9638   2.261   3.340   2.974  0.4627  0.3315  0.2127
 3211TIP3    H1 9639   2.231   3.429   2.994  0.6616  0.1814  1.2191
 3211TIP3    H2 9640   2.242   3.289   3.052  0.2225 -0.5622 -0.4078
 3212TIP3   OH2 9641   1.007   5.463   3.753  0.2999 -0.1282  0.0834
 3212TIP3    H1 9642   1.044   5.481   3.667 -1.2254 -0.5641 -0.7155
 3212TIP3    H2 9643   0.952   5.539   3.772  1.0477  0.2108  0.9349
 3213TIP3   OH2 9644   2.602   0.199   2.826 -0.6118  0.2081 -0.0336
 3213TIP3    H1 9645   2.552   0.280   2.834 -0.1742  0.4095  0.8166
 3213TIP3    H2 9646   2.589   0.155   2.910 -0.5703 -0.4455 -0.3633
 3214TIP3   OH2 9647   5.833   5.913   1.089 -0.8460  0.0495  0.6425
 3214TIP3    H1 9648   5.809   5.979   1.154 -0.3185  0.0197  0.8692
 3214TIP3    H2 9649   5.777   5.933   1.014  0.5928  1.9423 -0.0108
 3215TIP3   OH2 9650   6.230  -0.016   2.583 -0.3614 -0.5261  0.0144
 3215TIP3    H1 9651   6.290  -0.037   2.654 -0.1071  0.4382  0.0973
 3215TIP3    H2 9652   6.251   0.074   2.559  1.1888 -1.5538 -2.9137
 3216TIP3   OH2 9653   3.564   3.160   2.907  0.0378 -0.1716  0.1024
 3216TIP3    H1 9654   3.537   3.223   2.974  0.6764  0.6721 -0.4356
 3216TIP3    H2 9655   3.557   3.075   2.952 -1.2643  0.2085  0.6922
 3217TIP3   OH2 9656   3.598   1.101   3.103  0.8984  0.4753  0.2543
 3217TIP3    H1 9657   3.607   1.166   3.172  0.6488 -1.3290  2.0860
 3217TIP3    H2 9658   3.652   1.027   3.132  0.5967 -0.4447 -1.3741
 3218TIP3   OH2 9659   5.032   1.699   3.605  0.2775  0.9068  0.4904
 3218TIP3    H1 9660   5.109   1.738   3.645  0.8321 -0.1539  0.5142
 3218TIP3    H2 9661   4.983   1.772   3.569  0.4150  1.7710  1.9700
 3219TIP3   OH2 9662   4.436   5.298   4.897  0.1774 -0.3913 -0.4066
 3219TIP3    H1 9663   4.447   5.336   4.984 -1.3034  2.2108 -1.2365
 3219TIP3    H2 9664   4.408   5.208   4.914 -0.1875  0.0750  1.8038
 3220TIP3   OH2 9665   1.433   4.856   0.533  0.3174 -0.1403  0.2571
 3220TIP3    H1 9666   1.361   4.910   0.501  1.3226  1.2013  0.1993
 3220TIP3    H2 9667   1.448   4.792   0.463 -1.8127 -1.4961  0.9181
 3221TIP3   OH2 9668   0.408   0.986   4.984 -0.0574 -0.3095  0.3665
 3221TIP3    H1 9669   0.485   0.969   4.930 -0.5821  0.8679 -0.8288
 3221TIP3    H2 9670   0.442   1.031   5.061  0.5186 -0.2627  0.0885
 3222TIP3   OH2 9671   4.279   1.210   2.871 -0.4063 -0.0960  0.1997
 3222TIP3    H1 9672   4.363   1.238   2.837 -0.7408 -1.2709 -1.7494
 3222TIP3    H2 9673   4.223   1.288   2.867 -0.1673  0.0298 -1.1428
 3223TIP3   OH2 9674   1.693   4.784   1.418 -0.0193  0.2911  0.2794
 3223TIP3    H1 9675   1.629   4.790   1.347  2.4355  0.4302 -2.1077
 3223TIP3    H2 9676   1.696   4.872   1.456 -0.8170  0.4347  0.0196
 3224TIP3   OH2 9677   3.459   5.046   1.647  0.0625  0.5802  0.2352
 3224TIP3    H1 9678   3.471   5.141   1.638  1.4693  0.3411 -0.5716
 3224TIP3    H2 9679   3.453   5.031   1.742  0.2428  1.4203  0.3835
 3225TIP3   OH2 9680   0.237   2.196   0.569 -0.2318 -0.0217 -0.1091
 3225TIP3    H1 9681   0.214   2.264   0.506  0.4826  1.9560  1.6618
 3225TIP3    H2 9682   0.324   2.220   0.600  0.8630 -2.7840 -0.6893
 3226TIP3   OH2 9683   3.208   2.342   1.228  0.8393 -0.1689 -0.2007
 3226TIP3    H1 9684   3.278   2.382   1.177  0.1933  1.6332  0.2311
 3226TIP3    H2 9685   3.132   2.399   1.213  0.1441 -0.6470  1.2786
 3227TIP3   OH2 9686   0.151   5.863   4.623 -0.1582 -0.1621 -0.3467
 3227TIP3    H1 9687   0.145   5.867   4.528 -0.2508  0.4406 -0.3165
 3227TIP3    H2 9688   0.207   5.787   4.640  0.2411  0.0066 -0.8920
 3228TIP3   OH2 9689   5.655   2.533   4.307 -0.1338 -0.1276  0.5141
 3228TIP3    H1 9690   5.592   2.587   4.354 -0.1771  0.8188 -0.5752
 3228TIP3    H2 9691   5.686   2.470   4.372  1.7159  2.6805  2.6256
 3229TIP3   OH2 9692   0.438   0.397   1.907  0.2842 -0.1902 -0.4528
 3229TIP3    H1 9693   0.436   0.310   1.948  1.0958 -0.3300 -0.7008
 3229TIP3    H2 9694   0.531   0.414   1.891  0.0205  0.1254 -1.6934
 3230TIP3   OH2 9695   6.139   0.622   0.857  0.2058 -0.1632 -0.2033
 3230TIP3    H1 9696   6.104   0.546   0.904  1.1769 -1.1921 -1.1059
 3230TIP3    H2 9697   6.183   0.674   0.924 -0.5484 -0.3313  0.4347
 3231TIP3   OH2 9698   1.964   2.066   5.147 -0.3786  0.2203 -0.7278
 3231TIP3    H1 9699   1.887   2.064   5.089 -0.6661  0.4101 -0.3624
 3231TIP3    H2 9700   2.039   2.059   5.088 -0.6937 -1.1587 -1.0142
 3232TIP3   OH2 9701   1.492   5.785   4.067  0.2199 -0.3746 -0.0668
 3232TIP3    H1 9702   1.426   5.734   4.020 -2.1876  2.2213  0.2016
 3232TIP3    H2 9703   1.498   5.867   4.017  2.5177 -0.1204  0.5203
 3233TIP3   OH2 9704   0.813   1.260   4.519 -0.2561 -0.3849 -0.4093
 3233TIP3    H1 9705   0.746   1.192   4.526  0.4836 -0.9943  1.8422
 3233TIP3    H2 9706   0.892   1.219   4.556  0.0278  1.8441  1.7306
 3234TIP3   OH2 9707   1.065   0.412   3.405 -0.8510 -0.0063 -0.1156
 3234TIP3    H1 9708   1.113   0.482   3.361 -0.3728 -0.1239  0.2195
 3234TIP3    H2 9709   1.131   0.348   3.429 -1.0339  0.2487  1.1590
 3235TIP3   OH2 9710   1.311   5.290   3.557 -0.0811 -0.4128 -0.4838
 3235TIP3    H1 9711   1.267   5.213   3.522  0.4420 -0.5794 -0.7991
 3235TIP3    H2 9712   1.313   5.277   3.651 -0.7500 -0.3764 -0.4644
 3236TIP3   OH2 9713   0.855   1.901   0.417 -0.3091  0.2842 -0.5325
 3236TIP3    H1 9714   0.799   1.976   0.436  0.8393  1.4952 -1.7189
 3236TIP3    H2 9715   0.797   1.838   0.374 -1.8822 -0.6395  2.6504
 3237TIP3   OH2 9716   5.086   3.810   3.327 -0.6963  0.1208  0.4505
 3237TIP3    H1 9717   5.087   3.714   3.334  0.9176  0.0486 -0.1991
 3237TIP3    H2 9718   5.050   3.827   3.240  0.9623 -0.0275 -0.3084
 3238TIP3   OH2 9719   1.390   4.086   3.981  0.5307  0.6392  0.8165
 3238TIP3    H1 9720   1.321   4.152   3.984  1.1518  1.3458 -0.0223
 3238TIP3    H2 9721   1.377   4.042   3.897  0.8337  0.4819  0.8521
 3239TIP3   OH2 9722   3.781   2.992   1.342  0.4713  0.8726 -0.0605
 3239TIP3    H1 9723   3.800   2.903   1.312 -1.9687  0.4265 -0.4737
 3239TIP3    H2 9724   3.809   2.993   1.434  1.1257 -0.0987 -0.2344
 3240TIP3   OH2 9725   4.758   3.733   4.580 -0.2427 -0.1288 -0.1770
 3240TIP3    H1 9726   4.747   3.639   4.569 -1.5436 -0.0335  0.1324
 3240TIP3    H2 9727   4.720   3.752   4.667  0.8883  0.5381  0.1886
 3241TIP3   OH2 9728   0.454   1.869   4.410  0.0007  0.1202 -0.5074
 3241TIP3    H1 9729   0.531   1.900   4.458  0.4550  0.2589 -1.2999
 3241TIP3    H2 9730   0.382   1.878   4.471  0.6090  0.0309  0.2366
 3242TIP3   OH2 9731   1.090   1.734   1.139 -0.1771 -0.4276 -0.1744
 3242TIP3    H1 9732   1.093   1.699   1.228 -1.8381  0.8453  0.4221
 3242TIP3    H2 9733   1.057   1.823   1.149  0.2688 -0.0159 -2.0216
 3243TIP3   OH2 9734   2.345   0.522   4.468  0.2942 -0.0150 -0.0078
 3243TIP3    H1 9735   2.278   0.495   4.405 -0.0556  2.8589 -0.9898
 3243TIP3    H2 9736   2.297   0.571   4.535  1.2024  0.8094  0.0650
 3244TIP3   OH2 9737   1.270   3.238   4.764 -0.2108  0.4732 -0.5758
 3244TIP3    H1 9738   1.218   3.229   4.685 -1.5138 -1.3147  0.4280
 3244TIP3    H2 9739   1.224   3.304   4.816  0.6453  1.6474 -1.2687
 3245TIP3   OH2 9740   2.478   5.308   0.437  0.0333 -0.4662  0.1491
 3245TIP3    H1 9741   2.529   5.376   0.394  0.1606 -0.5517  0.1660
 3245TIP3    H2 9742   2.418   5.277   0.369  1.3475 -1.7526 -0.4628
 3246TIP3   OH2 9743   0.897   0.954   0.020  0.1488  0.3029 -0.2893
 3246TIP3    H1 9744   0.868   0.906   0.098 -1.8571  2.2768  0.2844
 3246TIP3    H2 9745   0.842   0.921  -0.051 -0.1626  0.6664 -0.2178
 3247TIP3   OH2 9746   3.574   4.621   2.792 -0.4744 -0.0798 -0.2114
 3247TIP3    H1 9747   3.518   4.548   2.818 -2.1335  0.5373 -1.8020
 3247TIP3    H2 9748   3.517   4.678   2.741  0.8955  2.1017  0.5561
 3248TIP3   OH2 9749   6.328   1.338   0.419  0.1638  0.4781  0.4156
 3248TIP3    H1 9750   6.333   1.373   0.508 -1.3005  1.7042  0.0503
 3248TIP3    H2 9751   6.265   1.394   0.374  1.5153  0.4346 -1.6738
 3249TIP3   OH2 9752   0.751   5.342   1.435 -0.3904  0.2340  0.3208
 3249TIP3    H1 9753   0.815   5.329   1.364 -0.5955  1.1087 -0.0447
 3249TIP3    H2 9754   0.803   5.375   1.508  0.0538 -1.9792  1.0941
 3250TIP3   OH2 9755   0.375   4.001   0.674 -0.3904 -0.0610 -0.2994
 3250TIP3    H1 9756   0.300   4.061   0.677 -0.4027 -0.0626 -0.5923
 3250TIP3    H2 9757   0.339   3.921   0.636 -0.2116 -0.0252 -0.5409
 3251TIP3   OH2 9758   3.571   3.888   0.823  0.3040 -0.3461 -0.3184
 3251TIP3    H1 9759   3.633   3.901   0.752  1.6911 -2.2739  0.4706
 3251TIP3    H2 9760   3.527   3.806   0.803 -1.7588  0.7361 -0.6156
 3252TIP3   OH2 9761   2.160   0.663   4.112  0.0192 -0.0900 -0.0111
 3252TIP3    H1 9762   2.223   0.720   4.068  0.7291  0.3149  1.4454
 3252TIP3    H2 9763   2.101   0.723   4.157 -0.0183 -0.4781  0.4693
 3253TIP3   OH2 9764   6.098   1.716   0.056  0.0200  0.1786  0.9926
 3253TIP3    H1 9765   6.060   1.732   0.142 -2.5551 -1.5830  0.3016
 3253TIP3    H2 9766   6.036   1.757  -0.005 -0.2736 -1.8014 -0.1395
 3254TIP3   OH2 9767   5.518   1.621   5.141  0.2755 -0.0562 -0.1499
 3254TIP3    H1 9768   5.587   1.687   5.151  0.5828 -0.4127  0.0995
 3254TIP3    H2 9769   5.564   1.539   5.127 -0.1145 -0.1416 -1.0134
 3255TIP3   OH2 9770   1.089   3.925   0.751 -0.3856 -0.7815 -0.4807
 3255TIP3    H1 9771   1.098   3.832   0.771  0.5297 -0.6338 -0.1432
 3255TIP3    H2 9772   0.999   3.946   0.774 -0.4432 -1.4647 -0.0536
 3256TIP3   OH2 9773   3.727   4.400   2.130 -0.3387  0.0251 -0.1672
 3256TIP3    H1 9774   3.806   4.354   2.159 -0.6923  0.0541  0.8688
 3256TIP3    H2 9775   3.715   4.471   2.193  0.3733  1.8004 -1.9239
 3257TIP3   OH2 9776   3.955   5.002   0.503  0.1724 -0.3345  0.8299
 3257TIP3    H1 9777   3.860   5.001   0.511 -0.0768 -0.4087 -1.4229
 3257TIP3    H2 9778   3.984   4.924   0.551 -1.0803 -1.2508  0.1623
 3258TIP3   OH2 9779   0.122   1.500   1.483  0.3074 -0.5940  0.4739
 3258TIP3    H1 9780   0.072   1.418   1.490  0.2949 -0.6581 -0.2831
 3258TIP3    H2 9781   0.212   1.475   1.502  0.2883 -0.7660  0.3424
 3259TIP3   OH2 9782   5.738   3.145   4.346  0.4675 -0.0776  0.1885
 3259TIP3    H1 9783   5.662   3.127   4.291 -0.9450  2.7483  1.0393
 3259TIP3    H2 9784   5.808   3.165   4.284 -0.1337 -0.3568 -0.5919
 3260TIP3   OH2 9785   4.518  -0.007   4.850 -0.2735  0.2352 -0.1541
 3260TIP3    H1 9786   4.436  -0.008   4.801  0.7243 -0.3250 -1.9270
 3260TIP3    H2 9787   4.577   0.046   4.796  0.6581  0.2581  0.8540
 3261TIP3   OH2 9788   4.131   3.682   1.097 -0.2967  0.0477 -0.3206
 3261TIP3    H1 9789   4.131   3.608   1.157 -0.0953  1.4279  1.4596
 3261TIP3    H2 9790   4.146   3.758   1.153 -1.1215  1.5063 -1.9887
 3262TIP3   OH2 9791   3.701   0.654   1.917 -0.4275 -0.8280  0.1727
 3262TIP3    H1 9792   3.725   0.624   2.005  1.0750 -0.0900  0.0433
 3262TIP3    H2 9793   3.622   0.706   1.930  1.6044  2.1194  1.6538
 3263TIP3   OH2 9794   3.303   2.868   1.196 -0.1340 -0.3404  0.4371
 3263TIP3    H1 9795   3.238   2.853   1.127  1.2758  0.6323 -1.1867
 3263TIP3    H2 9796   3.346   2.783   1.208  0.1462 -0.3325 -0.4671
 3264TIP3   OH2 9797   0.864   1.950   0.075 -0.1387  0.5893  0.3312
 3264TIP3    H1 9798   0.806   1.889   0.120  0.0938  0.1113 -0.0044
 3264TIP3    H2 9799   0.952   1.924   0.102  0.1150 -0.7261 -1.5837
 3265TIP3   OH2 9800   0.939   3.759   3.186  0.5171  0.1048  0.2539
 3265TIP3    H1 9801   0.953   3.810   3.106  0.7346 -0.5496 -0.1346
 3265TIP3    H2 9802   0.928   3.669   3.155 -0.4354 -0.0130  0.8792
 3266TIP3   OH2 9803   3.734   1.325   4.716  0.1140 -0.2195  0.0261
 3266TIP3    H1 9804   3.653   1.275   4.728 -0.3083  0.4694  0.1244
 3266TIP3    H2 9805   3.803   1.259   4.712 -0.5493 -0.8848 -1.0046
 3267TIP3   OH2 9806   1.065   3.942   3.877  0.5368 -0.2886 -0.1234
 3267TIP3    H1 9807   0.982   3.897   3.864  0.2018 -2.3460  5.8016
 3267TIP3    H2 9808   1.131   3.880   3.847 -0.0443 -1.0450  0.1369
 3268TIP3   OH2 9809  -0.014   0.768   1.556 -0.0811 -0.3698 -0.2352
 3268TIP3    H1 9810   0.080   0.748   1.564 -0.1240 -0.6279 -0.3743
 3268TIP3    H2 9811  -0.058   0.692   1.594 -0.2470 -0.6719 -1.0136
 3269TIP3   OH2 9812   0.846   0.588   0.572  0.3439  0.0972 -0.1076
 3269TIP3    H1 9813   0.780   0.567   0.506  0.5120 -2.8551  0.5552
 3269TIP3    H2 9814   0.805   0.564   0.655  1.8579 -0.8077  0.4113
 3270TIP3   OH2 9815   2.477   2.179   1.141  0.6220 -0.4895 -0.1280
 3270TIP3    H1 9816   2.528   2.210   1.216  0.0487 -1.0721  0.5057
 3270TIP3    H2 9817   2.459   2.087   1.160  0.8781 -0.7804 -1.2086
 3271TIP3   OH2 9818   4.012   0.364   4.050  0.3206 -0.4622 -0.0043
 3271TIP3    H1 9819   3.987   0.301   4.117 -0.5954 -0.2070 -0.0958
 3271TIP3    H2 9820   4.108   0.366   4.052  0.3210 -1.1979  0.6000
 3272TIP3   OH2 9821   6.355   5.250   3.425 -0.8582  0.2460 -0.2402
 3272TIP3    H1 9822   6.416   5.184   3.457  1.5314  1.7513 -1.4163
 3272TIP3    H2 9823   6.269   5.216   3.448  0.1256 -3.7753 -1.6958
 3273TIP3   OH2 9824   0.275   0.224   4.554 -0.3709  0.3915 -0.4256
 3273TIP3    H1 9825   0.265   0.245   4.461 -0.3515 -1.3225 -0.8545
 3273TIP3    H2 9826   0.236   0.137   4.563  0.6413  0.0440  0.9454
 3274TIP3   OH2 9827   2.765   4.672   2.432 -0.4169 -0.0890 -0.0785
 3274TIP3    H1 9828   2.704   4.633   2.494 -1.5476 -1.3163 -1.8525
 3274TIP3    H2 9829   2.724   4.756   2.408 -0.4496 -0.0439  0.1306
 3275TIP3   OH2 9830   6.329   4.413   3.482  0.0236 -0.2032  0.2292
 3275TIP3    H1 9831   6.398   4.432   3.546  0.1497 -0.5236  0.1955
 3275TIP3    H2 9832   6.265   4.361   3.530 -0.6217  0.8165  0.4826
 3276TIP3   OH2 9833   0.058   1.170   4.348 -0.0578 -0.2137 -0.0534
 3276TIP3    H1 9834   0.107   1.138   4.424 -1.1341 -0.4535  0.5584
 3276TIP3    H2 9835   0.083   1.262   4.340  1.3600 -0.6049 -0.4708
 3277TIP3   OH2 9836   3.142   5.225   2.629 -0.0801  0.0686 -0.0202
 3277TIP3    H1 9837   3.195   5.183   2.697  1.0905  0.5972 -0.5624
 3277TIP3    H2 9838   3.154   5.169   2.552 -0.5863  0.0136 -0.0593
 3278TIP3   OH2 9839   1.631   0.993   1.455  0.0564  0.0008 -0.0953
 3278TIP3    H1 9840   1.704   0.950   1.412  0.9491  1.7253 -0.4014
 3278TIP3    H2 9841   1.657   1.085   1.460 -1.5188  0.4330  1.0124
 3279TIP3   OH2 9842   5.326   2.403   1.842  0.3907 -0.5199 -0.1424
 3279TIP3    H1 9843   5.250   2.369   1.795  2.4454 -2.4035 -2.3679
 3279TIP3    H2 9844   5.350   2.333   1.903  0.1608  0.2074  0.8000
 3280TIP3   OH2 9845   2.618   5.083   2.275 -0.3100  0.3914  0.4563
 3280TIP3    H1 9846   2.689   5.090   2.339  0.4385 -1.7000 -0.0762
 3280TIP3    H2 9847   2.657   5.111   2.192  0.7115 -2.8831 -0.3175
 3281TIP3   OH2 9848   5.008   5.356   3.570 -0.4882 -0.7149 -0.3422
 3281TIP3    H1 9849   4.972   5.439   3.603  3.0295  0.7794  0.1476
 3281TIP3    H2 9850   5.004   5.297   3.645 -2.0925 -0.7151 -0.3964
 3282TIP3   OH2 9851   4.158   0.353   4.406  0.0279 -0.0449  0.0135
 3282TIP3    H1 9852   4.104   0.424   4.370  0.4213 -0.0802 -0.6667
 3282TIP3    H2 9853   4.223   0.336   4.338 -0.0660 -1.0651  0.1734
 3283TIP3   OH2 9854   3.148   0.892   3.226 -0.3660 -0.0297 -0.2003
 3283TIP3    H1 9855   3.082   0.865   3.289  1.6036 -0.2967  1.8963
 3283TIP3    H2 9856   3.130   0.984   3.209 -0.3311  0.3582  1.6608
 3284TIP3   OH2 9857   0.409   0.647   4.033  0.2596  0.2320 -0.0433
 3284TIP3    H1 9858   0.362   0.592   4.095 -0.7909  0.4841 -0.5802
 3284TIP3    H2 9859   0.501   0.637   4.056  0.0360 -1.1963  0.2988
 3285TIP3   OH2 9860   3.053   4.440   3.135 -0.4532 -0.1762  0.2935
 3285TIP3    H1 9861   3.042   4.428   3.040  0.6229 -0.7996  0.2254
 3285TIP3    H2 9862   2.965   4.429   3.171 -1.0302  0.9450 -0.7135
 3286TIP3   OH2 9863   3.070   5.528   5.076  0.1271  0.8380 -0.3324
 3286TIP3    H1 9864   3.011   5.481   5.135 -0.5425  2.5047  0.3883
 3286TIP3    H2 9865   3.069   5.476   4.995  0.1313 -0.8416  0.6878
 3287TIP3   OH2 9866   1.541   5.374   0.174  0.3237 -0.2204  0.1356
 3287TIP3    H1 9867   1.510   5.464   0.161 -0.0928 -0.5559 -1.3841
 3287TIP3    H2 9868   1.461   5.324   0.190  0.5699 -0.3069  1.1383
 3288TIP3   OH2 9869   5.303   4.012   4.030 -0.2615  0.0302 -0.1504
 3288TIP3    H1 9870   5.292   3.996   4.124  0.5995 -2.0589 -0.3401
 3288TIP3    H2 9871   5.217   3.990   3.992 -1.0191  2.1160  0.2134
 3289TIP3   OH2 9872   0.984   0.837   2.040  0.0396 -0.2479 -0.0860
 3289TIP3    H1 9873   0.986   0.895   1.964  0.4639  0.1379  0.2182
 3289TIP3    H2 9874   0.924   0.879   2.101 -1.0539 -1.0420 -0.5836
 3290TIP3   OH2 9875   4.178   3.032   3.339  0.6129  0.7327  0.4435
 3290TIP3    H1 9876   4.236   3.108   3.347  2.1618 -0.3901  0.1859
 3290TIP3    H2 9877   4.223   2.961   3.384  0.2361 -0.5943 -1.1481
 3291TIP3   OH2 9878   5.517   4.232   2.016 -0.0605 -0.2693 -0.0165
 3291TIP3    H1 9879   5.601   4.227   2.062  0.2529  0.4352 -0.4938
 3291TIP3    H2 9880   5.541   4.235   1.923 -0.4152  2.8304 -0.1110
 3292TIP3   OH2 9881   2.142   3.482   1.615  0.2164  0.0533  0.3116
 3292TIP3    H1 9882   2.238   3.487   1.611  0.1335  2.6612 -0.0305
 3292TIP3    H2 9883   2.124   3.405   1.668  2.5682  0.8912  2.5157
 3293TIP3   OH2 9884   0.340   2.051   3.317 -0.3008  0.1971 -0.1741
 3293TIP3    H1 9885   0.310   1.992   3.386 -1.0540  1.3134  0.4707
 3293TIP3    H2 9886   0.429   2.021   3.298  0.3523  0.5380  2.0680
 3294TIP3   OH2 9887   0.975   0.366   0.086 -0.0944  0.2533  0.1958
 3294TIP3    H1 9888   0.884   0.336   0.082 -0.6098  1.7921 -0.7810
 3294TIP3    H2 9889   0.975   0.448   0.037  1.9643 -0.0265 -0.3798
 3295TIP3   OH2 9890   5.277   2.262   4.115 -0.4929  0.8832  0.6439
 3295TIP3    H1 9891   5.251   2.324   4.046 -2.4271  0.6815  1.1546
 3295TIP3    H2 9892   5.197   2.215   4.136  0.8906 -1.7461  0.3780
 3296TIP3   OH2 9893   2.728   1.784   2.985  0.2428  0.2382 -0.4695
 3296TIP3    H1 9894   2.647   1.774   2.935  0.8183 -1.1451 -1.1912
 3296TIP3    H2 9895   2.719   1.868   3.029 -1.7907 -0.0805 -0.1626
 3297TIP3   OH2 9896   2.367   2.717   1.766 -0.2068  0.1554 -0.0649
 3297TIP3    H1 9897   2.317   2.753   1.839  2.1894  1.6528  0.9519
 3297TIP3    H2 9898   2.387   2.792   1.710  2.1661 -0.0488  0.4070
 3298TIP3   OH2 9899   2.842   0.694   0.999  0.3379 -0.4230 -0.0775
 3298TIP3    H1 9900   2.924   0.687   0.951 -0.1830  0.4366 -1.1477
 3298TIP3    H2 9901   2.781   0.734   0.936 -0.8278 -0.8182  0.7670
 3299TIP3   OH2 9902   3.052   5.815   3.747  0.6023 -0.0042  0.6486
 3299TIP3    H1 9903   2.992   5.888   3.732 -0.1827 -0.3657  1.8913
 3299TIP3    H2 9904   3.042   5.760   3.669 -0.3551  0.1759  0.6286
 3300TIP3   OH2 9905   4.211   3.163   4.307  0.3604  0.1204 -0.2817
 3300TIP3    H1 9906   4.180   3.128   4.390  0.5659  0.2057 -0.1667
 3300TIP3    H2 9907   4.299   3.126   4.296  1.0838  1.5159  0.4352
 3301TIP3   OH2 9908   1.084   1.990   0.543  0.7513 -0.2951  0.2001
 3301TIP3    H1 9909   1.158   1.928   0.537  0.7861 -0.1935 -0.4922
 3301TIP3    H2 9910   1.008   1.937   0.521  0.6961 -0.2385  0.2557
 3302TIP3   OH2 9911   3.392   5.728   1.456  0.0349  0.4213 -0.4077
 3302TIP3    H1 9912   3.361   5.808   1.498 -0.9351 -0.0219 -0.2655
 3302TIP3    H2 9913   3.476   5.753   1.416 -0.2971  1.5174 -0.4409
 3303TIP3   OH2 9914   3.534   4.638   4.327  0.4101 -0.3592  0.6437
 3303TIP3    H1 9915   3.543   4.626   4.232  0.0348 -0.9635  0.6828
 3303TIP3    H2 9916   3.494   4.557   4.358 -0.6284  0.3247  1.1511
 3304TIP3   OH2 9917   1.111   4.704   3.316 -0.0873 -0.2521 -0.3074
 3304TIP3    H1 9918   1.202   4.679   3.331 -0.2293 -0.8713 -0.4175
 3304TIP3    H2 9919   1.060   4.631   3.353 -0.5270 -0.0917 -0.5804
 3305TIP3   OH2 9920   0.235   1.959   2.818  0.5913 -0.1994  0.1702
 3305TIP3    H1 9921   0.279   1.901   2.755 -0.5605 -0.3865 -0.4876
 3305TIP3    H2 9922   0.219   1.903   2.893  2.0278  0.0400  0.6974
 3306TIP3   OH2 9923   3.446   0.350   0.178  0.3845  0.4083  0.5128
 3306TIP3    H1 9924   3.461   0.302   0.259 -0.2463  0.5508  0.7257
 3306TIP3    H2 9925   3.423   0.283   0.114 -0.5414  0.4119  0.8211
 3307TIP3   OH2 9926   5.774   2.081   4.330  0.6853 -0.5671 -0.3051
 3307TIP3    H1 9927   5.687   2.058   4.295  0.8616  0.4335 -1.4909
 3307TIP3    H2 9928   5.810   1.998   4.359 -0.2876 -1.1596 -0.7122
 3308TIP3   OH2 9929   5.576   3.297   2.850 -0.2094 -0.5878  0.0347
 3308TIP3    H1 9930   5.535   3.368   2.899 -1.0155 -0.8641 -0.2355
 3308TIP3    H2 9931   5.636   3.256   2.914  1.1333  1.0198 -0.1328
 3309TIP3   OH2 9932   6.314   3.162   0.558 -0.2668 -0.5899  0.8972
 3309TIP3    H1 9933   6.278   3.106   0.489  0.2395 -1.1581  1.0806
 3309TIP3    H2 9934   6.396   3.195   0.521  0.2544 -1.2918  1.3986
 3310TIP3   OH2 9935   5.920   1.512   3.512  0.3998 -0.5025  0.0207
 3310TIP3    H1 9936   5.864   1.570   3.563  0.5651 -0.6039  0.3183
 3310TIP3    H2 9937   5.891   1.424   3.536 -0.4656 -0.5546 -1.0999
 3311TIP3   OH2 9938   1.972   2.914   2.573 -0.4511  0.1263  0.2363
 3311TIP3    H1 9939   1.879   2.934   2.590 -0.5458  0.4476 -0.6470
 3311TIP3    H2 9940   2.019   2.975   2.629 -0.7683  0.6477 -0.0582
 3312TIP3   OH2 9941   3.521   4.215   2.097  0.4779  0.0630 -0.4698
 3312TIP3    H1 9942   3.439   4.247   2.134 -0.1617 -2.0474  0.0842
 3312TIP3    H2 9943   3.588   4.270   2.138 -0.6061  1.6335 -0.7125
 3313TIP3   OH2 9944   0.184   5.905   0.116 -0.7473  0.5778  0.0510
 3313TIP3    H1 9945   0.250   5.836   0.111 -1.8148 -0.4626 -0.2304
 3313TIP3    H2 9946   0.170   5.917   0.210 -0.8922  0.0589  0.1004
 3314TIP3   OH2 9947   4.877   3.751   3.865 -0.6782 -0.4056  0.1391
 3314TIP3    H1 9948   4.938   3.678   3.858 -2.2692 -1.9252  1.3297
 3314TIP3    H2 9949   4.791   3.711   3.862 -1.6263  1.0580  3.2889
 3315TIP3   OH2 9950   1.298   1.146   2.178  0.0566 -0.0428 -0.3907
 3315TIP3    H1 9951   1.300   1.181   2.267 -1.6125  0.1066 -0.3800
 3315TIP3    H2 9952   1.310   1.051   2.189  2.9978  0.2293 -0.3038
 3316TIP3   OH2 9953   1.966   0.771   4.991 -0.2775  0.5740 -0.1052
 3316TIP3    H1 9954   1.910   0.755   5.067 -2.8881  1.5676 -1.6934
 3316TIP3    H2 9955   2.048   0.805   5.028 -0.5609 -1.1217  2.3314
 3317TIP3   OH2 9956   0.771   2.354   5.050 -0.3986 -0.2979  0.1598
 3317TIP3    H1 9957   0.698   2.416   5.050  0.3213  0.5679 -0.3740
 3317TIP3    H2 9958   0.832   2.389   4.985  0.5282 -0.9731  0.6487
 3318TIP3   OH2 9959   6.014   0.600   4.606 -0.2026  1.2328  0.4008
 3318TIP3    H1 9960   6.085   0.661   4.624 -0.1023  0.8818  1.2272
 3318TIP3    H2 9961   6.023   0.579   4.513 -0.2252  2.4490  0.1091
 3319TIP3   OH2 9962   3.939   2.001   4.220  0.0639  0.2890  0.0458
 3319TIP3    H1 9963   3.890   2.081   4.239  1.4971  0.9402  1.1839
 3319TIP3    H2 9964   3.890   1.959   4.150 -1.5262  1.4286  0.4221
 3320TIP3   OH2 9965   3.263   2.533   0.698  0.4624  0.1078  0.4522
 3320TIP3    H1 9966   3.294   2.570   0.781  1.2540 -0.7671  0.5637
 3320TIP3    H2 9967   3.254   2.439   0.716 -0.5740  0.0961 -0.0978
 3321TIP3   OH2 9968   2.762   0.538   3.807 -0.3186  0.0308 -0.2426
 3321TIP3    H1 9969   2.764   0.484   3.728  2.9024 -1.6861  0.8170
 3321TIP3    H2 9970   2.852   0.566   3.819 -1.2227  2.5742  1.3729
 3322TIP3   OH2 9971   6.282   4.703   3.324  0.4023 -0.7480 -0.3251
 3322TIP3    H1 9972   6.218   4.770   3.349  2.0188  0.9157 -0.4309
 3322TIP3    H2 9973   6.282   4.642   3.397 -0.7131 -0.3339  0.0434
 3323TIP3   OH2 9974   0.125   5.621   1.665 -0.3650  0.3913  0.3434
 3323TIP3    H1 9975   0.185   5.669   1.722 -0.4175  2.8926 -1.5481
 3323TIP3    H2 9976   0.100   5.684   1.598 -0.3182 -2.3657 -2.4646
 3324TIP3   OH2 9977   2.692   5.005   0.357  0.1602  0.1701 -0.6347
 3324TIP3    H1 9978   2.637   4.998   0.279  0.4072 -0.4675 -0.7630
 3324TIP3    H2 9979   2.767   4.948   0.339  0.7135  0.7923 -0.3377
 3325TIP3   OH2 9980   1.257   5.356   1.310 -0.6459  0.4954 -0.9843
 3325TIP3    H1 9981   1.328   5.334   1.370  0.8962  2.5949 -1.9182
 3325TIP3    H2 9982   1.270   5.298   1.235 -1.2762 -0.6402 -0.2353
 3326TIP3   OH2 9983   2.561   4.887   0.834  0.4992  0.2094  0.8312
 3326TIP3    H1 9984   2.473   4.865   0.805  0.3306 -0.3719  1.7210
 3326TIP3    H2 9985   2.619   4.847   0.769  0.1426  3.5237 -1.7605
 3327TIP3   OH2 9986   4.422   3.370   4.591  0.5405 -0.0015  0.0934
 3327TIP3    H1 9987   4.349   3.309   4.580  2.5250 -2.6206  0.2406
 3327TIP3    H2 9988   4.412   3.403   4.681 -0.6577  0.0068 -0.0288
 3328TIP3   OH2 9989   0.584   3.386   1.358  0.5545  0.4867 -0.2521
 3328TIP3    H1 9990   0.613   3.452   1.294  0.3564 -0.3101 -1.1793
 3328TIP3    H2 9991   0.659   3.328   1.367  0.6365  0.6822  0.3759
 3329TIP3   OH2 9992   1.058   1.011   3.166 -0.3265  0.1662 -0.1620
 3329TIP3    H1 9993   1.099   0.982   3.247 -0.6521  1.4640  0.4893
 3329TIP3    H2 9994   1.017   0.932   3.130 -2.3351  0.0028  2.2025
 3330TIP3   OH2 9995   2.916   3.732   1.492 -0.1304  0.2970 -0.4384
 3330TIP3    H1 9996   2.928   3.774   1.577 -0.0675  0.0891 -0.3434
 3330TIP3    H2 9997   2.828   3.694   1.496  0.3287 -0.7740  0.0053
 3331TIP3   OH2 9998   0.572   4.276   3.430 -0.3456  0.0916 -0.1183
 3331TIP3    H1 9999   0.483   4.272   3.396 -1.7218 -0.6616  3.1439
 3331TIP3    H210000   0.588   4.187   3.463  1.1587  0.5195  0.3558
 3332TIP3   OH210001   5.989   2.024   5.059  0.0192 -0.5934 -0.2384
 3332TIP3    H110002   5.983   2.088   5.131  4.1670 -0.8416  0.5611
 3332TIP3    H210003   5.967   2.075   4.981  0.6418  1.1652  0.6608
 3333TIP3   OH210004   5.680   4.173   2.526 -0.1136 -0.4906  0.5757
 3333TIP3    H110005   5.718   4.261   2.520 -1.5421  0.1150 -0.0665
 3333TIP3    H210006   5.586   4.187   2.522 -0.3604 -2.0890 -0.0772
 3334TIP3   OH210007   4.793   4.783   2.034  0.2325  0.4506  0.2063
 3334TIP3    H110008   4.825   4.731   2.107 -0.3331 -0.6560 -0.3131
 3334TIP3    H210009   4.715   4.736   2.004 -0.2426  1.5520 -0.3378
 3335TIP3   OH210010   0.244   3.783   5.086  0.1118  0.4158 -0.7685
 3335TIP3    H110011   0.281   3.715   5.142 -1.0971  0.6138  0.3371
 3335TIP3    H210012   0.219   3.737   5.006 -3.1191 -1.1290  0.9255
 3336TIP3   OH210013   5.738   5.953   1.868 -0.3289 -0.2983  0.7996
 3336TIP3    H110014   5.678   5.981   1.937 -0.5628 -1.3043  1.0318
 3336TIP3    H210015   5.794   6.028   1.852  0.3757 -0.3309  2.7967
 3337TIP3   OH210016   0.958   2.778   2.871 -0.4506  0.2191 -0.1091
 3337TIP3    H110017   1.011   2.706   2.906 -0.2444 -0.7476 -2.2199
 3337TIP3    H210018   0.868   2.755   2.895 -0.3191 -0.4209 -0.2042
 3338TIP3   OH210019   5.171   1.108   1.765 -0.0645  0.2021 -0.4732
 3338TIP3    H110020   5.170   1.013   1.766 -0.9714  0.2002 -0.6900
 3338TIP3    H210021   5.092   1.132   1.716 -1.1941  1.0955  1.6779
 3339TIP3   OH210022   0.956   4.923   3.360  0.6462 -0.0397  0.3314
 3339TIP3    H110023   0.903   4.881   3.429  1.5373 -0.2090  0.9314
 3339TIP3    H210024   1.015   4.854   3.330 -0.2742 -0.2134 -1.2189
 3340TIP3   OH210025   5.642   1.330   4.726  0.1545 -0.3093 -0.0601
 3340TIP3    H110026   5.711   1.332   4.792 -1.4684  1.2822  1.6845
 3340TIP3    H210027   5.666   1.400   4.665 -0.8425  1.6725  1.6695
 3341TIP3   OH210028   1.360   1.968   0.725 -0.2144  0.5173  0.2771
 3341TIP3    H110029   1.427   1.964   0.656 -0.6153  0.9077 -0.1399
 3341TIP3    H210030   1.387   2.042   0.779 -1.0124  1.5101 -0.6456
 3342TIP3   OH210031   5.096   5.430   2.137  0.0584 -0.6728 -0.0238
 3342TIP3    H110032   5.068   5.436   2.228 -0.3179  1.0543 -0.2303
 3342TIP3    H210033   5.175   5.375   2.140  1.7980  1.7171  1.7808
 3343TIP3   OH210034   4.771   4.623   0.266  0.2140 -0.2561  0.0998
 3343TIP3    H110035   4.694   4.648   0.316  0.2060 -0.2922  0.1058
 3343TIP3    H210036   4.740   4.554   0.207 -0.0110  0.5301 -0.7070
 3344TIP3   OH210037   2.261   4.741   0.272 -0.1528  0.6952  0.0894
 3344TIP3    H110038   2.318   4.701   0.337  0.4067  0.4254 -0.5555
 3344TIP3    H210039   2.214   4.809   0.320 -0.9348 -0.5519  1.1455
 3345TIP3   OH210040   2.253   3.642   4.381  0.2407  0.1720 -0.1093
 3345TIP3    H110041   2.208   3.726   4.375  0.2114  0.1666  0.0348
 3345TIP3    H210042   2.211   3.597   4.454  0.4004  0.1189 -0.0486
 3346TIP3   OH210043   0.337   1.686   0.503 -0.3583 -0.0114 -0.1213
 3346TIP3    H110044   0.314   1.608   0.454 -1.5336 -0.3428  0.8998
 3346TIP3    H210045   0.254   1.721   0.534  0.0972  1.8919 -0.8727
 3347TIP3   OH210046   3.071   1.037   4.437 -0.1964 -0.0022 -0.4189
 3347TIP3    H110047   3.022   1.032   4.355 -1.6754  0.6302  0.3740
 3347TIP3    H210048   3.098   1.129   4.443 -0.1657 -0.0261 -0.1654
 3348TIP3   OH210049   3.771   3.767   3.105 -0.2155  0.2580  0.6570
 3348TIP3    H110050   3.808   3.686   3.141  1.0860  0.8033  0.5687
 3348TIP3    H210051   3.843   3.808   3.057 -1.1880  0.8912 -0.3069
 3349TIP3   OH210052   5.141   5.451   4.024  0.3614  0.3813  0.2460
 3349TIP3    H110053   5.150   5.371   4.076 -2.0092  0.7430  1.3390
 3349TIP3    H210054   5.164   5.425   3.935 -1.4845 -1.8457  0.3342
 3350TIP3   OH210055   0.190   2.879   0.966 -0.7861  0.2764 -0.2068
 3350TIP3    H110056   0.244   2.958   0.975 -0.9127  0.2736  0.6642
 3350TIP3    H210057   0.251   2.812   0.933 -0.6335  0.6773 -0.7603
 3351TIP3   OH210058   0.236   2.506   1.356 -0.5890  0.0473 -0.0350
 3351TIP3    H110059   0.169   2.550   1.408  0.4290 -0.3253  1.6842
 3351TIP3    H210060   0.307   2.488   1.418  1.4450  1.0695 -1.9304
 3352TIP3   OH210061   2.153   0.919  -0.031 -0.0356 -0.1186  0.4241
 3352TIP3    H110062   2.199   0.925   0.053 -0.5893 -1.3730  0.8467
 3352TIP3    H210063   2.079   0.980  -0.022 -0.9170 -1.2883  1.4304
 3353TIP3   OH210064   4.515   5.537   4.482 -0.5077 -0.6285  0.0493
 3353TIP3    H110065   4.424   5.507   4.476 -0.3895 -1.1688  0.7341
 3353TIP3    H210066   4.515   5.596   4.557 -0.5861  0.5328 -0.8502
 3354TIP3   OH210067   2.077   1.456   0.958  0.3005  0.1457  0.1003
 3354TIP3    H110068   2.042   1.388   1.015 -1.2850 -0.2602 -1.2779
 3354TIP3    H210069   2.060   1.538   1.004 -1.8141 -0.1000 -0.1610
 3355TIP3   OH210070   2.290   2.874   3.914 -0.4557  0.7243  0.2173
 3355TIP3    H110071   2.237   2.850   3.990 -1.3691  0.0936 -0.5959
 3355TIP3    H210072   2.380   2.877   3.948 -0.6307 -1.1761  0.9785
 3356TIP3   OH210073   5.475   1.631   1.190 -0.0100 -0.3697 -0.6795
 3356TIP3    H110074   5.429   1.558   1.149  0.7926 -0.6847 -1.0281
 3356TIP3    H210075   5.449   1.708   1.139 -0.3478 -0.5042 -0.7129
 3357TIP3   OH210076   4.533   2.412   3.873 -0.2347  0.1233 -0.1528
 3357TIP3    H110077   4.472   2.431   3.944 -0.4111  0.7796 -0.4701
 3357TIP3    H210078   4.616   2.448   3.903 -0.4939  1.1585 -0.6118
 3358TIP3   OH210079   4.846   2.329   2.771  0.7088 -0.2327  0.4360
 3358TIP3    H110080   4.781   2.373   2.717  0.2122 -1.5174 -0.0539
 3358TIP3    H210081   4.925   2.326   2.717  0.5805 -0.4118  0.2552
 3359TIP3   OH210082   1.402   2.326   5.035  0.9037  0.3141  0.2817
 3359TIP3    H110083   1.339   2.350   4.967 -0.2618  0.3181  1.3082
 3359TIP3    H210084   1.487   2.325   4.991  0.1237 -0.1736 -1.2653
 3360TIP3   OH210085   6.378   3.041   3.601  0.1721  1.1698  0.4511
 3360TIP3    H110086   6.298   2.989   3.590  0.0899  1.2554  0.6389
 3360TIP3    H210087   6.358   3.101   3.672  0.2572  1.4816  0.2133
 3361TIP3   OH210088   5.737   5.488   2.785  0.2589 -0.2453  0.0636
 3361TIP3    H110089   5.722   5.420   2.719  0.7719 -1.3021  0.9822
 3361TIP3    H210090   5.754   5.439   2.866  0.5307  0.9908  0.7869
 3362TIP3   OH210091   0.111   0.103   3.045 -0.0434 -0.2716 -0.3492
 3362TIP3    H110092   0.136   0.022   3.089  1.1618  0.2919  0.0464
 3362TIP3    H210093   0.074   0.158   3.115 -1.6206 -0.7707 -0.7684
 3363TIP3   OH210094   0.780   2.045   3.870 -0.4405  0.1735 -0.3873
 3363TIP3    H110095   0.735   2.128   3.853 -0.9565  0.3401  1.5123
 3363TIP3    H210096   0.713   1.989   3.909  0.4032 -0.3918  0.3020
 3364TIP3   OH210097   4.950   1.686   4.061  0.2112 -0.2500  0.2673
 3364TIP3    H110098   4.986   1.772   4.039 -0.4459 -0.0916 -0.2017
 3364TIP3    H210099   4.906   1.657   3.982 -0.0047 -0.8053  0.5827
 3365TIP3   OH210100   2.989   5.234   2.165 -0.0032 -0.3988 -0.2107
 3365TIP3    H110101   2.938   5.165   2.122  1.0297 -0.5834 -1.1822
 3365TIP3    H210102   2.976   5.219   2.258  0.7292 -2.3274 -0.3776
 3366TIP3   OH210103   3.057   2.254   1.906 -0.1150 -0.1984  0.1671
 3366TIP3    H110104   3.036   2.293   1.991  0.9970 -0.4347  0.5729
 3366TIP3    H210105   3.019   2.166   1.910  2.2785 -1.2939  1.6019
 3367TIP3   OH210106   2.020   2.906   3.296 -0.2543  0.8272  0.4036
 3367TIP3    H110107   2.047   2.822   3.261  0.4075  0.4188  1.7992
 3367TIP3    H210108   1.943   2.886   3.350 -1.0894  1.3892 -0.5505
 3368TIP3   OH210109   3.587   1.916   1.873 -0.1611  0.1161  0.8768
 3368TIP3    H110110   3.669   1.934   1.920 -0.2634 -0.1318  1.1521
 3368TIP3    H210111   3.547   1.844   1.921  0.0911 -0.6430 -0.0286
 3369TIP3   OH210112   2.878   2.989   2.595 -0.4208  0.0877  0.3797
 3369TIP3    H110113   2.963   3.029   2.575 -0.2366 -0.2938  0.3777
 3369TIP3    H210114   2.823   3.061   2.625 -0.7133  0.7253 -1.5027
 3370TIP3   OH210115   5.977   2.628   1.665  0.2936 -0.0886 -0.2205
 3370TIP3    H110116   5.932   2.550   1.699  2.2416 -1.2461 -0.1253
 3370TIP3    H210117   5.966   2.623   1.571  0.9926 -0.9085 -0.2757
 3371TIP3   OH210118   0.120   2.226   3.284  0.5203  0.4603  0.0773
 3371TIP3    H110119   0.191   2.164   3.297  0.3374 -0.0869 -1.3755
 3371TIP3    H210120   0.148   2.280   3.210  0.4510  1.7992  0.9925
 3372TIP3   OH210121   2.783   2.492   3.579  0.7034 -0.0725 -0.1331
 3372TIP3    H110122   2.808   2.421   3.520  1.5472  0.3323 -0.2862
 3372TIP3    H210123   2.699   2.465   3.615  1.2347 -1.3713  0.1919
 3373TIP3   OH210124   3.834   3.849   3.968  0.6764 -0.2443 -0.7347
 3373TIP3    H110125   3.912   3.904   3.970  0.7189 -0.3302  0.4605
 3373TIP3    H210126   3.867   3.759   3.974  0.5728 -0.4080 -2.0969
 3374TIP3   OH210127   6.037   0.643   4.900 -0.2234 -0.3132  0.0567
 3374TIP3    H110128   6.065   0.553   4.913  0.3941 -0.1190  0.1151
 3374TIP3    H210129   6.004   0.646   4.810  0.1659 -0.4944 -0.0902
 3375TIP3   OH210130   1.829   4.474   0.701 -0.4663 -0.2999 -0.0044
 3375TIP3    H110131   1.895   4.498   0.636 -0.1935 -1.9066 -0.3592
 3375TIP3    H210132   1.755   4.533   0.683  0.4208  0.7519 -0.3326
 3376TIP3   OH210133   0.969   2.702   1.334  0.5774 -0.1183 -0.1655
 3376TIP3    H110134   0.900   2.636   1.342  0.3311  0.2466  0.9104
 3376TIP3    H210135   0.921   2.786   1.336  0.8308  0.1176 -2.0192
 3377TIP3   OH210136   0.768   4.055   4.219 -0.5536  0.3566 -0.1291
 3377TIP3    H110137   0.721   4.116   4.163 -0.3193  1.1391  0.4950
 3377TIP3    H210138   0.700   4.015   4.273 -0.4853  2.2210  1.4767
 3378TIP3   OH210139   1.465   1.104   1.126 -0.3779 -0.5302  0.6325
 3378TIP3    H110140   1.465   1.198   1.146 -0.4784  0.2988 -2.6741
 3378TIP3    H210141   1.557   1.080   1.124 -0.3671 -0.6951  2.0453
 3379TIP3   OH210142   2.045   2.391   2.813  0.1089  0.4331  0.0982
 3379TIP3    H110143   2.134   2.414   2.787 -0.3084  0.4559 -1.3701
 3379TIP3    H210144   2.008   2.473   2.844  0.1192  0.7622 -0.7361
 3380TIP3   OH210145   4.148   4.008   3.491  0.0580 -0.0172 -0.7765
 3380TIP3    H110146   4.086   3.945   3.454  0.5480 -2.2754  1.9017
 3380TIP3    H210147   4.232   3.984   3.454  0.1719 -0.7268 -0.0967
 3381TIP3   OH210148   3.674   2.475   4.533 -1.0653  0.3348  0.4570
 3381TIP3    H110149   3.702   2.567   4.533 -1.1233  0.3684  1.5457
 3381TIP3    H210150   3.713   2.438   4.612  3.0260 -1.9239 -2.2925
 3382TIP3   OH210151   5.559   2.308   4.650 -0.1892  0.1172  0.0314
 3382TIP3    H110152   5.630   2.313   4.586 -0.3479 -0.9654 -0.2467
 3382TIP3    H210153   5.545   2.399   4.677  2.8760  0.1777  1.8458
 3383TIP3   OH210154   4.518   4.870   3.093 -0.5539  0.3327  0.1269
 3383TIP3    H110155   4.448   4.821   3.137  2.8266 -2.9278  2.5679
 3383TIP3    H210156   4.575   4.899   3.165  1.9655  0.4937 -1.7960
 3384TIP3   OH210157   6.289   0.633   4.380 -0.2454  0.3260 -0.1962
 3384TIP3    H110158   6.246   0.700   4.432  0.2902  0.1432  0.5003
 3384TIP3    H210159   6.302   0.674   4.294  0.9003  1.4714  0.4840
 3385TIP3   OH210160   5.057   2.934   2.414 -0.3281 -0.0641  0.0790
 3385TIP3    H110161   5.041   2.885   2.333 -0.9222  1.0420 -0.5062
 3385TIP3    H210162   5.152   2.930   2.426 -0.1675  0.2164 -0.9865
 3386TIP3   OH210163   5.439   2.558   1.456 -0.2397  0.7424 -0.0120
 3386TIP3    H110164   5.376   2.629   1.461  0.1719  1.0866  0.3534
 3386TIP3    H210165   5.405   2.500   1.388 -1.0375  0.8369  0.3011
 3387TIP3   OH210166   4.915   1.631   0.920  0.1595 -0.2358 -0.3923
 3387TIP3    H110167   4.917   1.654   1.012 -2.0749 -1.6618  0.0986
 3387TIP3    H210168   4.873   1.545   0.918  1.7899 -1.0782 -2.6085
 3388TIP3   OH210169   4.700   0.938   0.688 -0.0169 -0.0186 -0.0373
 3388TIP3    H110170   4.755   0.861   0.676 -2.3584 -1.3673 -4.0563
 3388TIP3    H210171   4.737   1.003   0.628 -0.6949  0.3166 -0.1008
 3389TIP3   OH210172   2.705   1.121   0.428  0.2246 -0.2264  0.4559
 3389TIP3    H110173   2.768   1.051   0.414 -1.4512 -1.7805  0.4072
 3389TIP3    H210174   2.679   1.113   0.519 -0.9814 -0.5495  0.0984
 3390TIP3   OH210175   4.264   4.559   1.970 -0.0115 -0.4352  0.0094
 3390TIP3    H110176   4.294   4.539   1.881  1.5894 -0.3634  0.4877
 3390TIP3    H210177   4.169   4.565   1.963  0.1171  0.1597 -1.8098
 3391TIP3   OH210178   0.398   5.540   2.199 -0.1974  0.4317  0.4348
 3391TIP3    H110179   0.356   5.533   2.285 -0.3480  0.8830  0.4030
 3391TIP3    H210180   0.340   5.494   2.139 -1.5564  2.4569  0.0885
 3392TIP3   OH210181   4.822   5.257   4.271 -0.0063  0.3590 -0.0727
 3392TIP3    H110182   4.810   5.208   4.189  0.6823  1.5462 -0.9243
 3392TIP3    H210183   4.778   5.204   4.337 -1.1783 -0.3033 -1.3180
 3393TIP3   OH210184   4.423   3.650   0.708 -0.1920  0.0474  0.9544
 3393TIP3    H110185   4.489   3.581   0.702 -1.6578 -1.2742 -1.2669
 3393TIP3    H210186   4.362   3.618   0.774 -0.7918 -0.7654  0.0326
 3394TIP3   OH210187   6.100   5.300   1.637 -0.4059 -0.0354 -0.1935
 3394TIP3    H110188   6.180   5.327   1.682  0.6385 -1.8157 -0.8788
 3394TIP3    H210189   6.040   5.374   1.648  1.2813  1.2981  0.4403
 3395TIP3   OH210190   2.173   3.001   3.680  0.3383 -0.0529  0.0299
 3395TIP3    H110191   2.100   2.949   3.714  0.6239 -1.0694 -0.8593
 3395TIP3    H210192   2.237   3.003   3.751  0.6715 -1.6253 -0.1884
 3396TIP3   OH210193   1.211   0.351   1.063  0.0048 -0.0685  0.2104
 3396TIP3    H110194   1.296   0.307   1.062 -0.3382 -0.7341 -0.3960
 3396TIP3    H210195   1.192   0.370   0.971 -0.9347 -0.7875  0.2393
 3397TIP3   OH210196   3.475   1.296   2.895 -0.7646 -0.1458  0.1594
 3397TIP3    H110197   3.568   1.321   2.895 -0.9300  0.5447 -1.2453
 3397TIP3    H210198   3.477   1.200   2.896  0.0157 -0.1714 -0.9873
 3398TIP3   OH210199   3.750   2.003   4.548  0.6012 -0.4313 -0.1380
 3398TIP3    H110200   3.714   2.073   4.603 -2.1173 -0.4129 -1.7785
 3398TIP3    H210201   3.786   1.940   4.610  2.0567  1.8010  1.4271
 3399TIP3   OH210202   3.694   1.618   0.951  0.4594  0.4482 -0.2469
 3399TIP3    H110203   3.731   1.692   0.904 -0.9603  0.5112 -1.3378
 3399TIP3    H210204   3.638   1.574   0.886 -0.3777 -0.3443  0.9714
 3400TIP3   OH210205   2.848   0.409   2.417 -0.0653  0.0923 -0.1620
 3400TIP3    H110206   2.896   0.336   2.379 -0.1927  0.0980 -0.3391
 3400TIP3    H210207   2.914   0.476   2.434  0.0610 -0.0908  0.0647
 3401TIP3   OH210208   6.227   3.006   0.314 -0.7372  0.0856  0.0765
 3401TIP3    H110209   6.206   3.063   0.241 -1.9352  0.2779  0.5460
 3401TIP3    H210210   6.248   2.921   0.273  0.1913  0.6035 -0.5611
 3402TIP3   OH210211   3.591   3.548   4.673  0.3344 -0.2868 -0.7138
 3402TIP3    H110212   3.583   3.592   4.758  0.2967  1.0858 -1.4012
 3402TIP3    H210213   3.669   3.585   4.633  1.1850 -1.9698 -0.7179
 3403TIP3   OH210214   0.435   0.309   2.479  0.5183  0.2103  0.4426
 3403TIP3    H110215   0.504   0.351   2.530  0.5533  0.0292  0.5436
 3403TIP3    H210216   0.445   0.216   2.495  0.2846  0.1775  0.4148
 3404TIP3   OH210217   5.329   1.717   3.058  0.2004 -0.1137  0.3279
 3404TIP3    H110218   5.312   1.698   3.150 -2.0965  0.1611  0.0281
 3404TIP3    H210219   5.389   1.792   3.059  0.0149  0.0268  1.6089
 3405TIP3   OH210220   1.812   0.218   4.735 -0.3245 -0.6229 -0.3358
 3405TIP3    H110221   1.801   0.274   4.658  0.7471  1.0354  0.6456
 3405TIP3    H210222   1.898   0.177   4.722  0.5111  0.7456  0.5644
 3406TIP3   OH210223   1.964   5.390   2.613 -0.4151  0.5879 -0.4569
 3406TIP3    H110224   2.029   5.457   2.637 -0.6947  0.9445 -0.6820
 3406TIP3    H210225   1.980   5.374   2.520 -0.3310  0.3203 -0.3955
 3407TIP3   OH210226   1.025   2.885   2.629  0.1379  0.0110  0.1876
 3407TIP3    H110227   0.964   2.847   2.565 -0.0908 -0.0434  0.4366
 3407TIP3    H210228   0.995   2.852   2.713 -0.3677  1.1297  0.4661
 3408TIP3   OH210229   6.313   4.593   0.544  0.5466  0.1744 -0.6084
 3408TIP3    H110230   6.398   4.560   0.572  1.2935  1.2799 -1.4997
 3408TIP3    H210231   6.284   4.530   0.477 -1.7829 -3.1529  3.0798
 3409TIP3   OH210232   1.661   3.712   3.441  0.9375  0.3376  0.2770
 3409TIP3    H110233   1.665   3.617   3.437  2.0703  0.2506  2.1577
 3409TIP3    H210234   1.572   3.734   3.414  1.0150 -1.1536 -1.3341
 3410TIP3   OH210235   1.247   2.320   0.272  0.3656  0.1618 -0.1808
 3410TIP3    H110236   1.159   2.357   0.280  1.2839  2.2924  1.0593
 3410TIP3    H210237   1.304   2.397   0.267  2.1201 -1.1652 -1.7842
 3411TIP3   OH210238   2.852   4.936   3.923 -0.1917  0.2018 -0.1805
 3411TIP3    H110239   2.831   4.846   3.899 -0.7510  0.1366  0.4984
 3411TIP3    H210240   2.810   4.990   3.856  1.7798 -0.0741 -1.7147
 3412TIP3   OH210241   5.183   4.139   3.387 -0.1442  0.0351  0.0850
 3412TIP3    H110242   5.197   4.174   3.475  1.1492  0.4258 -0.2591
 3412TIP3    H210243   5.092   4.108   3.388 -1.0466  2.5229  0.6920
 3413TIP3   OH210244   6.204   5.357   5.085  0.0176 -0.4407 -0.1842
 3413TIP3    H110245   6.135   5.346   5.020  0.0056 -0.0956 -0.2280
 3413TIP3    H210246   6.282   5.380   5.034  0.1223 -0.6386 -0.1174
 3414TIP3   OH210247   3.144   2.496   2.147 -0.6246 -0.2673  0.4037
 3414TIP3    H110248   3.237   2.479   2.131 -0.8884 -1.8400  0.3909
 3414TIP3    H210249   3.125   2.574   2.096  0.9476  0.7450  1.2983
 3415TIP3   OH210250   4.154   2.318   1.050  0.0829 -0.5579  0.0650
 3415TIP3    H110251   4.213   2.376   1.099 -0.3419  1.3865 -1.5751
 3415TIP3    H210252   4.211   2.271   0.990  0.0966  1.1944 -1.3972
 3416TIP3   OH210253   1.502   0.088   3.813 -0.0437  0.2762  0.1799
 3416TIP3    H110254   1.447   0.162   3.839 -1.1864  0.2955 -2.0049
 3416TIP3    H210255   1.578   0.092   3.871 -0.8729  2.1551  1.2132
 3417TIP3   OH210256   1.592   3.434   3.419  0.7051  0.5740  0.3968
 3417TIP3    H110257   1.536   3.425   3.496  1.2476  1.1419  0.8703
 3417TIP3    H210258   1.553   3.375   3.354 -1.1628  1.8648  0.2726
 3418TIP3   OH210259   5.545   0.937   4.625 -0.5986  0.3512  0.9506
 3418TIP3    H110260   5.518   1.015   4.673  0.5062 -0.0373  2.3000
 3418TIP3    H210261   5.641   0.941   4.625 -0.5129  0.8214 -2.1308
 3419TIP3   OH210262   2.743   2.366   1.786  0.0590 -0.3554  0.3798
 3419TIP3    H110263   2.680   2.429   1.821  1.2272  1.8274 -1.2020
 3419TIP3    H210264   2.826   2.414   1.784  1.3831 -2.4912  0.5674
 3420TIP3   OH210265   5.455   0.306   3.816  0.9246 -0.5469 -0.0358
 3420TIP3    H110266   5.435   0.225   3.862  1.2599 -0.4780  0.2378
 3420TIP3    H210267   5.429   0.290   3.726 -0.3578 -0.4489  0.3022
 3421TIP3   OH210268   3.273   1.839   2.618  0.1613 -0.2371 -0.1095
 3421TIP3    H110269   3.318   1.911   2.575  0.5307 -1.2287 -1.4648
 3421TIP3    H210270   3.193   1.877   2.654  0.6019  0.9344 -0.3569
 3422TIP3   OH210271   1.315   4.311   2.631 -0.0692  0.0801 -0.9670
 3422TIP3    H110272   1.249   4.328   2.697  0.2898 -0.6164 -0.4109
 3422TIP3    H210273   1.267   4.309   2.548 -0.5178  0.9828 -0.7417
 3423TIP3   OH210274   6.132   4.063   3.895 -0.2754  0.6163 -0.1734
 3423TIP3    H110275   6.189   3.999   3.854  1.0937  2.4827 -1.3778
 3423TIP3    H210276   6.091   4.016   3.968 -1.7640 -2.4601 -2.7466
 3424TIP3   OH210277   3.784   5.520   5.182 -0.2250  0.0156  0.1483
 3424TIP3    H110278   3.783   5.605   5.138 -0.2755  0.4850  1.0350
 3424TIP3    H210279   3.872   5.512   5.218 -0.3277 -0.1571  0.3635
 3425TIP3   OH210280   4.093   2.788   3.816 -0.1709  0.0363 -0.0508
 3425TIP3    H110281   4.171   2.834   3.786  0.6630 -1.1336  0.2679
 3425TIP3    H210282   4.126   2.709   3.859 -1.5136 -0.3340  0.3606
 3426TIP3   OH210283   3.417   0.756   4.469 -0.3649  0.4138  0.3037
 3426TIP3    H110284   3.388   0.676   4.513 -0.4263  0.3973  0.2322
 3426TIP3    H210285   3.421   0.733   4.377  2.1890 -0.3178  0.5236
 3427TIP3   OH210286   4.519   1.023   0.063 -0.1897 -0.5411 -0.2545
 3427TIP3    H110287   4.445   1.082   0.052 -1.6679 -2.2779 -0.1587
 3427TIP3    H210288   4.514   0.964  -0.012  0.8950 -0.9172 -0.0532
 3428TIP3   OH210289   1.790   4.639   1.083 -0.1537  0.1461 -0.2678
 3428TIP3    H110290   1.820   4.720   1.041  1.4639 -0.5988 -0.6568
 3428TIP3    H210291   1.836   4.637   1.167  1.5660 -1.3686 -1.1729
 3429TIP3   OH210292   5.711   2.029   2.916  0.3027 -0.4821 -0.4421
 3429TIP3    H110293   5.727   1.992   2.829  0.0151 -0.3114 -0.5677
 3429TIP3    H210294   5.631   1.985   2.946  0.1139 -0.1622 -0.4773
 3430TIP3   OH210295   3.864   1.677   4.219 -0.0924 -0.1747 -0.6116
 3430TIP3    H110296   3.947   1.674   4.267 -0.2912 -0.0059 -0.2561
 3430TIP3    H210297   3.824   1.592   4.234  0.6328 -0.7649 -1.8958
 3431TIP3   OH210298   0.852   0.097   3.848 -0.1771 -0.2278 -0.1442
 3431TIP3    H110299   0.787   0.161   3.878 -0.5253 -0.3287 -0.6608
 3431TIP3    H210300   0.814   0.012   3.869 -0.5150 -0.3075 -1.0073
 3432TIP3   OH210301   1.584   5.204   4.480 -0.2886 -0.0725  0.1054
 3432TIP3    H110302   1.634   5.162   4.549 -0.4226 -3.0441 -1.4204
 3432TIP3    H210303   1.511   5.245   4.525  1.6411  1.4783  2.0394
 3433TIP3   OH210304   2.421   1.901   1.899  0.0977  0.0141 -0.1829
 3433TIP3    H110305   2.463   1.987   1.895 -0.5443  0.4187  1.2521
 3433TIP3    H210306   2.346   1.909   1.840 -0.2618  0.6261  0.3390
 3434TIP3   OH210307   1.810   2.272   2.217 -0.1641  0.0417 -0.1211
 3434TIP3    H110308   1.778   2.350   2.173 -1.8798  0.0422  1.0263
 3434TIP3    H210309   1.816   2.206   2.148  0.8797  1.0220 -1.0150
 3435TIP3   OH210310   4.128   2.032   0.185  0.0283  0.3524 -0.7659
 3435TIP3    H110311   4.101   1.942   0.168 -0.3298 -0.1449  1.9795
 3435TIP3    H210312   4.186   2.054   0.112  0.2851 -2.1519 -1.4145
 3436TIP3   OH210313   1.983   2.599   3.961 -0.1872 -0.1969  0.0099
 3436TIP3    H110314   1.916   2.540   3.928 -0.8897  0.8004 -0.4119
 3436TIP3    H210315   1.972   2.679   3.909 -0.3042  0.8772  1.6154
 3437TIP3   OH210316   3.296   3.401   0.684  0.4234 -0.6534 -0.0820
 3437TIP3    H110317   3.387   3.382   0.662  0.4401  0.0861 -0.6713
 3437TIP3    H210318   3.279   3.487   0.645 -0.9353 -1.3803 -1.1714
 3438TIP3   OH210319   5.657   0.870   4.153  0.4783 -0.3243 -0.2871
 3438TIP3    H110320   5.573   0.909   4.129  0.8385  0.5345 -0.1841
 3438TIP3    H210321   5.645   0.842   4.243  0.8656  1.4748  0.3584
 3439TIP3   OH210322   3.163   4.174   1.183 -0.2906  0.5670 -0.3555
 3439TIP3    H110323   3.074   4.202   1.201 -1.1749 -2.2638  0.1620
 3439TIP3    H210324   3.209   4.184   1.267 -0.6299  0.3744 -0.1450
 3440TIP3   OH210325   3.722   0.952   2.758 -0.2339 -0.5485 -0.0199
 3440TIP3    H110326   3.723   0.894   2.834  1.8413 -0.5887 -0.0022
 3440TIP3    H210327   3.666   0.908   2.694  0.4665 -2.0725  0.3785
 3441TIP3   OH210328   2.828   4.976   0.620 -1.1483  0.7813  0.2707
 3441TIP3    H110329   2.911   5.023   0.623 -0.2879 -0.7024  1.0190
 3441TIP3    H210330   2.787   5.004   0.538  0.7892  0.4184 -0.8788
 3442TIP3   OH210331   0.533   3.398   0.935  0.0330  0.7355  0.2352
 3442TIP3    H110332   0.445   3.435   0.923 -0.3536 -0.5206 -1.1195
 3442TIP3    H210333   0.533   3.319   0.882  1.6839  0.1785  0.9978
 3443TIP3   OH210334   6.286   0.143   3.537  0.3876 -0.1609 -0.0045
 3443TIP3    H110335   6.355   0.080   3.555  0.2870 -0.3656 -0.3370
 3443TIP3    H210336   6.313   0.186   3.456 -0.3293 -0.8851 -0.6349
 3444TIP3   OH210337   0.095   0.505   0.725  0.3139 -0.5335 -0.2380
 3444TIP3    H110338   0.156   0.538   0.659  0.2122 -0.9951 -0.5669
 3444TIP3    H210339   0.048   0.434   0.681 -1.3520  0.6289 -0.4004
 3445TIP3   OH210340   3.372   2.108   3.742  0.3266 -0.0242 -0.8468
 3445TIP3    H110341   3.303   2.043   3.756  0.2865 -0.3019 -2.2245
 3445TIP3    H210342   3.354   2.143   3.655 -0.4995  2.8906  0.3667
 3446TIP3   OH210343   1.915   3.856   1.912  0.5301  0.1354  0.9345
 3446TIP3    H110344   1.938   3.794   1.843  0.3738  1.4679 -0.3718
 3446TIP3    H210345   1.926   3.942   1.872 -1.6701  0.9420  1.8676
 3447TIP3   OH210346   1.080   0.118   1.515 -0.2869 -0.0516  0.1618
 3447TIP3    H110347   1.082   0.183   1.445 -1.6500  1.3592  1.3527
 3447TIP3    H210348   1.072   0.034   1.470 -1.4102  0.8248 -1.3676
 3448TIP3   OH210349   0.424   0.144   0.175 -0.1905 -0.1064 -0.0746
 3448TIP3    H110350   0.367   0.069   0.159  0.8830 -1.0489  0.4122
 3448TIP3    H210351   0.487   0.113   0.239 -0.4701  1.5947  1.1007
 3449TIP3   OH210352   5.803   5.086   0.591 -0.4512  0.2845 -0.1263
 3449TIP3    H110353   5.803   5.093   0.687  0.7426 -0.3771 -0.0642
 3449TIP3    H210354   5.747   5.158   0.562  1.1338  2.0648  0.9737
 3450TIP3   OH210355   3.266   5.531   0.792  0.7607 -0.0973 -0.0747
 3450TIP3    H110356   3.206   5.492   0.728  0.0038 -0.9698  1.1265
 3450TIP3    H210357   3.210   5.563   0.862  1.4968  1.8104 -0.2853
 3451TIP3   OH210358   0.679   5.390   2.502 -0.3583  0.4572 -0.3562
 3451TIP3    H110359   0.753   5.403   2.442  1.3685  0.0613  1.5645
 3451TIP3    H210360   0.639   5.477   2.509  1.0939  1.1278 -0.0138
 3452TIP3   OH210361   3.194   0.088   3.543  0.2482 -0.1941  0.0050
 3452TIP3    H110362   3.263   0.096   3.478 -0.7677 -3.2089 -1.6287
 3452TIP3    H210363   3.145   0.009   3.518 -2.5859  0.6649  2.2202
 3453TIP3   OH210364   1.381   2.674   1.431  0.3220  0.7713 -0.1330
 3453TIP3    H110365   1.465   2.629   1.446  0.1511  0.4093 -0.2438
 3453TIP3    H210366   1.371   2.675   1.336 -0.8713 -1.2239 -0.0822
 3454TIP3   OH210367   5.519   1.267   1.555 -0.1123  0.4688 -0.0561
 3454TIP3    H110368   5.477   1.182   1.542  1.7872 -0.5560  0.1162
 3454TIP3    H210369   5.515   1.310   1.470  0.5143 -0.5875 -0.6434
 3455TIP3   OH210370   0.238   4.578   5.067  0.5560  0.1227  0.5839
 3455TIP3    H110371   0.302   4.568   5.138 -0.4327  2.1548  1.8455
 3455TIP3    H210372   0.245   4.670   5.042  0.6104 -0.4597 -1.7627
 3456TIP3   OH210373   5.874   3.242   4.562 -0.3552 -0.0098 -0.3337
 3456TIP3    H110374   5.819   3.218   4.487 -1.1461  0.4235  0.1023
 3456TIP3    H210375   5.932   3.310   4.528  0.5645 -1.1120 -1.0460
 3457TIP3   OH210376   5.272   5.506   4.887 -0.3612 -0.1213  0.0732
 3457TIP3    H110377   5.262   5.529   4.979  0.1199 -0.6922  0.2765
 3457TIP3    H210378   5.365   5.522   4.867 -0.8626  1.9278 -0.8738
 3458TIP3   OH210379   1.928   1.584   2.229  0.2667  0.3779 -0.3580
 3458TIP3    H110380   1.855   1.583   2.290  1.5571 -1.7273  1.3083
 3458TIP3    H210381   1.958   1.675   2.228 -1.6766  1.0577 -0.2890
 3459TIP3   OH210382   4.137   4.509   4.784  0.2727 -0.2463 -0.1319
 3459TIP3    H110383   4.166   4.467   4.704 -0.2771  0.1833 -0.5681
 3459TIP3    H210384   4.068   4.570   4.756 -0.9402 -1.1197  0.8460
 3460TIP3   OH210385   4.604   0.275   2.163  0.3826  0.0318 -0.0725
 3460TIP3    H110386   4.662   0.249   2.092 -0.4544 -0.7150 -0.5087
 3460TIP3    H210387   4.618   0.209   2.231  0.9385  0.5586  0.3446
 3461TIP3   OH210388   0.400   5.745   2.764  0.9930  0.3099 -0.2417
 3461TIP3    H110389   0.312   5.720   2.792  1.8452 -1.3839  1.1336
 3461TIP3    H210390   0.399   5.841   2.767 -0.1634  0.3090  1.9687
 3462TIP3   OH210391   2.439   1.818   3.256 -0.7565 -0.3731  0.0094
 3462TIP3    H110392   2.360   1.860   3.292  0.9284  3.4764 -0.4226
 3462TIP3    H210393   2.465   1.872   3.182  2.5551 -1.2314  0.3786
 3463TIP3   OH210394   3.218   2.267   2.778  0.5340 -0.2314 -0.0680
 3463TIP3    H110395   3.192   2.189   2.826  0.1629 -0.8106 -1.1608
 3463TIP3    H210396   3.225   2.237   2.687 -0.6637  1.2441 -0.6762
 3464TIP3   OH210397   4.840   4.277   2.309 -0.1590  0.1151 -0.2928
 3464TIP3    H110398   4.771   4.212   2.292 -0.4570  0.5340 -0.7003
 3464TIP3    H210399   4.851   4.323   2.226  0.1724  0.4744 -0.0551
 3465TIP3   OH210400   1.475   4.105   1.581 -0.4151  0.0022 -0.4548
 3465TIP3    H110401   1.450   4.185   1.627  1.5264 -0.5275  1.7055
 3465TIP3    H210402   1.424   4.036   1.623 -0.0772 -0.2364 -0.4292
 3466TIP3   OH210403   6.097   0.980   4.005 -0.0187  0.6364  0.3699
 3466TIP3    H110404   6.092   0.885   4.009  0.4834  0.6125  0.4515
 3466TIP3    H210405   6.189   0.998   3.983 -0.2908  1.0702 -0.4681
 3467TIP3   OH210406   5.652   0.034   1.138 -0.3321 -0.3786  0.6246
 3467TIP3    H110407   5.618   0.111   1.092 -1.4210 -0.0745  1.9026
 3467TIP3    H210408   5.719   0.069   1.197  0.3816 -0.6571  0.0122
 3468TIP3   OH210409   0.903   0.798   4.705  0.0409 -0.3175  0.5257
 3468TIP3    H110410   0.935   0.752   4.627 -1.0601  1.2539 -0.9176
 3468TIP3    H210411   0.980   0.844   4.738  0.1036  0.5953 -0.8250
 3469TIP3   OH210412   5.325   5.115   5.158  0.1030 -0.0586 -0.4403
 3469TIP3    H110413   5.289   5.068   5.082 -0.4160  1.5949 -1.2614
 3469TIP3    H210414   5.258   5.179   5.180  0.5664 -0.0386  0.9855
 3470TIP3   OH210415   3.574   2.751   4.673 -0.6738  0.4463  0.4487
 3470TIP3    H110416   3.617   2.833   4.695 -0.6448  0.1433  1.6459
 3470TIP3    H210417   3.634   2.683   4.706  0.4729 -0.1861 -2.6087
 3471TIP3   OH210418   0.115   3.205   1.678  0.0938 -0.4172 -0.1481
 3471TIP3    H110419   0.159   3.121   1.664  1.3624  0.4078 -1.4480
 3471TIP3    H210420   0.186   3.267   1.694 -0.6446  0.8010 -1.3848
 3472TIP3   OH210421   3.607   4.307   1.441 -0.4170 -0.7490  0.6405
 3472TIP3    H110422   3.548   4.332   1.369 -0.5140 -0.8338  0.6912
 3472TIP3    H210423   3.567   4.230   1.480 -1.3252  0.3287  1.9353
 3473TIP3   OH210424   2.600   1.113   2.259  0.2189  0.3009  0.6018
 3473TIP3    H110425   2.660   1.066   2.317 -0.1542 -0.5481  0.3181
 3473TIP3    H210426   2.585   1.052   2.186 -0.0003  1.0036  0.0478
 3474TIP3   OH210427   1.239   0.384   2.283 -0.2279  0.2870 -0.4210
 3474TIP3    H110428   1.195   0.431   2.354  1.6131  1.5467 -0.0418
 3474TIP3    H210429   1.330   0.380   2.311  0.5071  0.5986 -2.6117
 3475TIP3   OH210430   0.731   4.118   2.348 -0.2963  0.4159  0.0845
 3475TIP3    H110431   0.642   4.152   2.363 -0.3905 -0.1471  0.8725
 3475TIP3    H210432   0.725   4.025   2.369  0.2108  0.1185 -1.0285
 3476TIP3   OH210433   3.647   2.834   2.387  0.2993  0.5528  0.3512
 3476TIP3    H110434   3.669   2.767   2.323  1.1988  0.9165  0.2618
 3476TIP3    H210435   3.558   2.862   2.364  1.4049  2.3299 -2.2363
 3477TIP3   OH210436   5.923   3.773   1.780 -0.1551 -0.0105 -0.1694
 3477TIP3    H110437   5.896   3.701   1.836  0.2244 -0.0031  0.0292
 3477TIP3    H210438   5.902   3.852   1.830 -2.4084  0.1097 -1.1972
 3478TIP3   OH210439   6.239   4.712   2.930  0.2533 -0.0615  0.4232
 3478TIP3    H110440   6.303   4.784   2.937  0.7644 -0.4838  0.1599
 3478TIP3    H210441   6.286   4.636   2.964  0.4174 -0.7000 -1.1552
 3479TIP3   OH210442   1.786   5.717   4.006  0.5213 -0.3727 -0.2872
 3479TIP3    H110443   1.693   5.725   4.030  0.4413 -1.0135 -0.3583
 3479TIP3    H210444   1.793   5.761   3.922  0.6614  1.2964  0.5431
 3480TIP3   OH210445   3.532   1.000   0.311 -0.0939 -0.2619  0.1934
 3480TIP3    H110446   3.595   0.960   0.370 -1.5257 -0.1453  1.8865
 3480TIP3    H210447   3.465   1.037   0.369 -0.5904  1.5617 -1.4342
 3481TIP3   OH210448   1.123   2.064   2.288  0.8757 -0.1346  0.1926
 3481TIP3    H110449   1.218   2.055   2.301  1.4494  1.2065 -2.3511
 3481TIP3    H210450   1.103   2.000   2.220 -0.1947 -0.8156  1.1233
 3482TIP3   OH210451   1.556   3.657   3.147  0.7189  0.0074  0.3253
 3482TIP3    H110452   1.586   3.604   3.073  2.4440  0.4589  0.6576
 3482TIP3    H210453   1.556   3.746   3.114 -0.2698  0.0279  0.3542
 3483TIP3   OH210454   3.127   2.364   0.042  0.4146  0.4210 -0.0858
 3483TIP3    H110455   3.121   2.370   0.137  1.3333 -0.1421  0.0168
 3483TIP3    H210456   3.065   2.430   0.010 -1.2186 -0.5698  0.8789
 3484TIP3   OH210457   0.577   1.592   5.115  0.0063  0.2653  0.0808
 3484TIP3    H110458   0.576   1.654   5.042 -0.1615 -1.1905 -1.2108
 3484TIP3    H210459   0.498   1.612   5.164  1.1210  2.5827  1.0780
 3485TIP3   OH210460   1.638   3.532   1.228 -0.3244 -0.9798 -0.2849
 3485TIP3    H110461   1.679   3.610   1.266  0.7505 -1.3932 -0.5748
 3485TIP3    H210462   1.584   3.566   1.157 -1.3083 -0.3325  0.7257
 3486TIP3   OH210463   2.613   4.626   4.602 -0.2633 -0.2744 -0.0695
 3486TIP3    H110464   2.624   4.722   4.598 -0.5383 -0.2766 -1.1599
 3486TIP3    H210465   2.701   4.593   4.619 -0.0187  0.1407 -0.5028
 3487TIP3   OH210466   1.655   2.266   3.916  0.5279  0.3653  0.2819
 3487TIP3    H110467   1.635   2.173   3.923 -1.1122  0.5678 -1.0794
 3487TIP3    H210468   1.749   2.272   3.932  0.6268 -1.4865  0.6001
 3488TIP3   OH210469   1.978   1.514   2.654 -0.0201 -0.3774  0.3444
 3488TIP3    H110470   2.035   1.486   2.583 -1.4845  0.1930 -1.1243
 3488TIP3    H210471   2.034   1.514   2.731  1.9157  0.0459 -0.9919
 3489TIP3   OH210472   0.032   5.851   1.905 -0.6440  0.5736 -0.2898
 3489TIP3    H110473   0.097   5.921   1.911  0.2270 -0.3348  3.3657
 3489TIP3    H210474  -0.051   5.894   1.925 -0.3966  0.9103  0.0304
 3490TIP3   OH210475   0.905   4.942   0.391  0.3716  0.4028  0.5693
 3490TIP3    H110476   0.879   4.990   0.470  0.6372  1.9844 -0.2551
 3490TIP3    H210477   0.999   4.961   0.381  0.7756 -1.2866  0.8598
 3491TIP3   OH210478   2.714   0.294   0.235 -0.0457  0.3588  0.1045
 3491TIP3    H110479   2.785   0.293   0.300 -1.2307 -0.0618  1.4429
 3491TIP3    H210480   2.714   0.206   0.199 -0.0213  0.2862  0.2777
 3492TIP3   OH210481   3.216   1.422   2.762 -0.1596  0.0329 -0.2934
 3492TIP3    H110482   3.211   1.502   2.814  2.2161  0.4268 -0.5648
 3492TIP3    H210483   3.278   1.367   2.809 -0.6644 -1.0851 -0.8863
 3493TIP3   OH210484   4.127   5.171   2.158  0.0405  0.3840  0.2574
 3493TIP3    H110485   4.150   5.263   2.144 -0.8548  0.4673 -0.7921
 3493TIP3    H210486   4.172   5.123   2.089  0.3649  0.0390  0.6966
 3494TIP3   OH210487   0.956   5.783   4.543 -1.2331  0.2398 -0.2138
 3494TIP3    H110488   0.872   5.820   4.571 -1.1954 -0.0936  0.3451
 3494TIP3    H210489   0.932   5.719   4.476 -1.3875  0.4451 -0.3590
 3495TIP3   OH210490   0.600   4.737   1.701  0.2166  0.0892 -0.3042
 3495TIP3    H110491   0.561   4.810   1.653 -1.4313  0.0732  0.8889
 3495TIP3    H210492   0.626   4.674   1.634  0.6730  1.3026 -1.2864
 3496TIP3   OH210493   1.775   4.326   5.055  0.3310  0.3417  0.2553
 3496TIP3    H110494   1.769   4.247   5.107  0.3081  1.2054  1.6176
 3496TIP3    H210495   1.687   4.338   5.019 -0.0123  0.4606  1.1281
 3497TIP3   OH210496   4.469   2.047   0.469  0.9566  0.2304  0.5800
 3497TIP3    H110497   4.476   2.142   0.481  0.9500  0.0047  2.7022
 3497TIP3    H210498   4.462   2.036   0.374  0.6573  2.3620  0.2960
 3498TIP3   OH210499   0.929   0.117   4.750 -0.8112 -0.5281 -0.2245
 3498TIP3    H110500   0.872   0.193   4.745 -1.4901 -1.1213 -2.9575
 3498TIP3    H210501   0.875   0.048   4.788 -0.6264 -0.0459  0.9434
 3499TIP3   OH210502   1.018   0.034   0.666  0.1902  0.2295 -0.4344
 3499TIP3    H110503   0.938   0.035   0.614  0.3567  0.9084 -0.6884
 3499TIP3    H210504   1.088   0.049   0.602  0.2765  2.7772  0.1666
 3500TIP3   OH210505   3.008   1.212   4.793 -0.1477  0.0796  0.2005
 3500TIP3    H110506   3.053   1.130   4.809  0.3636 -0.0038 -1.4694
 3500TIP3    H210507   3.001   1.253   4.879  2.0387 -0.4572  0.6894
 3501TIP3   OH210508   1.818   3.576   2.837 -0.1496 -0.6605  0.3623
 3501TIP3    H110509   1.723   3.589   2.833 -0.0468  0.3961  0.9111
 3501TIP3    H210510   1.853   3.638   2.774  0.1661 -1.5142 -0.3297
 3502TIP3   OH210511   2.187   0.232   1.616 -0.2981 -0.3086 -0.1170
 3502TIP3    H110512   2.278   0.212   1.599 -0.4504 -1.6039  0.5071
 3502TIP3    H210513   2.144   0.147   1.626 -1.8094  0.2164 -1.5004
 3503TIP3   OH210514   5.336   1.606   0.403  0.2649  0.2280  0.1881
 3503TIP3    H110515   5.368   1.549   0.473  0.7057  0.1341 -0.0826
 3503TIP3    H210516   5.403   1.674   0.395  0.8041 -0.4006 -0.9105
 3504TIP3   OH210517   2.841   2.475   0.537 -0.2201  0.2967  0.0198
 3504TIP3    H110518   2.879   2.421   0.607  0.2385 -0.0399 -0.4810
 3504TIP3    H210519   2.818   2.412   0.469 -0.5815  0.6333 -0.1674
 3505TIP3   OH210520   3.384   4.985   3.827  0.0516 -0.2235 -0.1652
 3505TIP3    H110521   3.304   5.029   3.800  0.3644 -0.6024 -1.8397
 3505TIP3    H210522   3.363   4.891   3.821 -0.2896 -0.3824  2.3660
 3506TIP3   OH210523   3.170   2.890   0.978 -0.0929  0.0265  0.2327
 3506TIP3    H110524   3.104   2.863   0.914 -0.0580 -0.2721  0.3209
 3506TIP3    H210525   3.202   2.974   0.945  1.3780 -1.0649 -1.2669
 3507TIP3   OH210526   2.901   2.789   2.272  0.2215  0.5723 -0.8872
 3507TIP3    H110527   2.858   2.704   2.280 -1.1240  1.1431 -1.7416
 3507TIP3    H210528   2.920   2.798   2.179 -0.8747  1.7763 -1.0142
 3508TIP3   OH210529   5.083   5.593   3.293 -0.1176  0.4171  0.5284
 3508TIP3    H110530   4.997   5.557   3.269  0.3928 -0.3627 -0.2018
 3508TIP3    H210531   5.136   5.582   3.214  0.5168  1.3698  0.7995
 3509TIP3   OH210532   6.130   0.417   4.394  0.0021 -0.0998  0.4315
 3509TIP3    H110533   6.184   0.494   4.379 -0.3048  0.2537  1.0914
 3509TIP3    H210534   6.189   0.355   4.438  0.0671  0.0141  0.5054
 3510TIP3   OH210535   2.512   0.600   0.989  0.2620 -0.2917 -0.2432
 3510TIP3    H110536   2.468   0.517   0.974  2.4859 -1.0645 -3.4548
 3510TIP3    H210537   2.586   0.579   1.046  0.2795 -0.3346 -0.2821
 3511TIP3   OH210538   1.278   1.985   4.956  0.3910  0.3467 -0.0564
 3511TIP3    H110539   1.320   1.909   4.916 -0.7028 -0.5752  0.4932
 3511TIP3    H210540   1.184   1.969   4.946  0.0954  0.5964  1.8919
 3512TIP3   OH210541   0.927   2.624   1.687 -0.8908  0.7465  0.2716
 3512TIP3    H110542   1.010   2.652   1.647 -1.3005  0.0067 -1.1674
 3512TIP3    H210543   0.866   2.695   1.669 -1.0661  0.4289 -0.4303
 3513TIP3   OH210544   0.745   0.311   4.752  0.5639 -0.3632 -0.1887
 3513TIP3    H110545   0.681   0.241   4.761  1.8637 -1.6720 -0.7061
 3513TIP3    H210546   0.758   0.344   4.841 -0.0377 -0.8079  0.0683
 3514TIP3   OH210547   3.023   0.381   0.825 -0.1371 -0.0616 -0.2140
 3514TIP3    H110548   2.951   0.352   0.770  1.5526 -2.3321 -1.4263
 3514TIP3    H210549   3.051   0.464   0.787 -1.5373  0.4333 -0.2210
 3515TIP3   OH210550   3.288   4.489   1.461 -0.0574 -0.2514  0.4372
 3515TIP3    H110551   3.376   4.467   1.431 -0.2335  1.0733 -1.2029
 3515TIP3    H210552   3.249   4.538   1.388 -1.3730  1.0999  1.9587
 3516TIP3   OH210553   2.911   1.834   4.244 -0.0297  0.3385 -0.0675
 3516TIP3    H110554   2.917   1.925   4.274 -0.4606  0.0067  1.0683
 3516TIP3    H210555   2.834   1.799   4.289 -1.1507  0.0083 -2.1424
 3517TIP3   OH210556   1.002   5.532   1.865  0.2614  0.2660  0.4853
 3517TIP3    H110557   1.016   5.613   1.915  0.0697 -0.5906  1.9632
 3517TIP3    H210558   1.090   5.505   1.840  0.3066  1.0959 -0.3184
 3518TIP3   OH210559   1.284   0.785   5.048 -0.1619 -0.2198  0.2543
 3518TIP3    H110560   1.371   0.746   5.054  0.1721  0.4914  0.1647
 3518TIP3    H210561   1.285   0.855   5.113  0.5464  2.0265 -1.9745
 3519TIP3   OH210562   3.087   3.386   3.159  0.0923 -0.3191  0.1017
 3519TIP3    H110563   3.166   3.361   3.208  0.7931  0.5261 -0.5736
 3519TIP3    H210564   3.102   3.476   3.132 -1.5420  0.2046  0.7820
 3520TIP3   OH210565   6.123   4.438   0.824 -0.2080  0.2392  0.3632
 3520TIP3    H110566   6.084   4.471   0.742 -1.0558  0.4575  0.8411
 3520TIP3    H210567   6.131   4.515   0.880  2.2189  0.4682 -0.1799
 3521TIP3   OH210568   5.809   5.077   0.857 -0.1071  0.4605 -0.6657
 3521TIP3    H110569   5.719   5.078   0.891  0.2185  0.2760  0.2325
 3521TIP3    H210570   5.858   5.131   0.920  0.8348 -1.2164  0.1020
 3522TIP3   OH210571   1.378   3.246   2.093 -0.6139 -0.9323 -0.2990
 3522TIP3    H110572   1.450   3.286   2.141 -0.1756 -1.9798 -0.0618
 3522TIP3    H210573   1.383   3.153   2.115 -1.8687 -1.0641 -0.5021
 3523TIP3   OH210574   5.429   4.784   4.470  0.3372  0.3137 -0.3538
 3523TIP3    H110575   5.393   4.838   4.540  0.9559  0.3124 -0.0352
 3523TIP3    H210576   5.520   4.813   4.461  0.5126 -0.2798 -0.5662
 3524TIP3   OH210577   5.688   4.580   4.237  0.2031 -0.4301  0.1390
 3524TIP3    H110578   5.745   4.606   4.310  0.3466  2.2836 -0.8288
 3524TIP3    H210579   5.600   4.595   4.269  0.2287 -0.1755  0.0928
 3525TIP3   OH210580   0.037   1.908   2.405  0.5309  0.1725 -0.0380
 3525TIP3    H110581   0.094   1.946   2.338 -0.1644  2.5479  0.6169
 3525TIP3    H210582  -0.051   1.937   2.382 -0.0252 -0.8460  0.6940
 3526TIP3   OH210583   2.571   0.947   4.048 -0.1438 -0.1762 -0.5075
 3526TIP3    H110584   2.591   1.040   4.034 -1.5585  0.2563  0.1077
 3526TIP3    H210585   2.652   0.909   4.081  0.4242  0.8674 -0.6680
 3527TIP3   OH210586   5.697   5.610   1.823 -0.1809  0.3062 -0.2935
 3527TIP3    H110587   5.612   5.640   1.857  0.1098  1.3646 -0.4680
 3527TIP3    H210588   5.718   5.533   1.876 -0.3091  1.2030  1.1042
 3528TIP3   OH210589   4.402   4.589   3.453 -0.2133  0.7844 -0.0448
 3528TIP3    H110590   4.424   4.677   3.484 -0.4432  1.0108 -0.5150
 3528TIP3    H210591   4.444   4.530   3.516  1.4498  1.2032 -0.7042
 3529TIP3   OH210592   1.752   5.129   4.990 -0.0819 -0.1284  0.0214
 3529TIP3    H110593   1.769   5.118   5.083  1.9333  0.9379 -0.1474
 3529TIP3    H210594   1.793   5.213   4.968  0.1237 -0.6861 -1.9560
 3530TIP3   OH210595   1.381   4.564   2.017 -0.0766  0.6548 -0.4356
 3530TIP3    H110596   1.464   4.571   2.063  0.8953  0.5732 -2.0847
 3530TIP3    H210597   1.326   4.508   2.072  0.7327  1.2222  0.9766
 3531TIP3   OH210598   3.420   4.734   3.534  0.2566  0.1105 -0.3179
 3531TIP3    H110599   3.418   4.819   3.490 -0.3869  0.2236 -0.0849
 3531TIP3    H210600   3.327   4.711   3.545  0.4007  0.0838  0.9614
 3532TIP3   OH210601   1.434   2.163   2.385 -0.3706 -0.1451 -0.6244
 3532TIP3    H110602   1.392   2.116   2.457 -1.2128 -0.7154 -1.4668
 3532TIP3    H210603   1.400   2.253   2.393  2.6294  0.9328  2.0886
 3533TIP3   OH210604   0.984   3.477   2.497  0.2306 -0.0046  0.4224
 3533TIP3    H110605   1.052   3.484   2.430 -0.8889  0.3202 -0.7245
 3533TIP3    H210606   0.979   3.384   2.517  0.5396 -0.1204 -0.0119
 3534TIP3   OH210607   5.131   2.496   4.551  0.3171 -0.3233 -0.4146
 3534TIP3    H110608   5.076   2.421   4.573 -1.3365  0.4488 -1.7161
 3534TIP3    H210609   5.128   2.500   4.456  0.8560  1.0450 -0.3859
 3535TIP3   OH210610   2.513   3.842   1.630  0.1059  0.5466  0.2096
 3535TIP3    H110611   2.584   3.896   1.665 -1.7875  1.2674  3.2696
 3535TIP3    H210612   2.443   3.849   1.694 -2.0621 -1.7149 -1.6919
 3536TIP3   OH210613   0.896   0.235   2.123 -0.2883  0.1784 -0.7299
 3536TIP3    H110614   0.853   0.308   2.079 -1.0974 -0.4580 -1.0030
 3536TIP3    H210615   0.890   0.162   2.061 -1.5848 -0.7778  0.4629
 3537TIP3   OH210616   2.856   4.229   3.458  0.1484  0.4668 -0.2156
 3537TIP3    H110617   2.933   4.244   3.513  0.4281 -1.6369  0.0313
 3537TIP3    H210618   2.853   4.134   3.445 -0.8904  0.7274 -2.4183
 3538TIP3   OH210619   0.163   4.646   3.553  0.1446  0.4136  0.2424
 3538TIP3    H110620   0.201   4.624   3.638 -1.1740 -1.4455  0.4324
 3538TIP3    H210621   0.137   4.737   3.560  0.8568  0.5395  1.5026
 3539TIP3   OH210622   2.819   4.242   2.623  0.2053  0.5708 -0.0906
 3539TIP3    H110623   2.730   4.252   2.655  0.1001 -0.0602 -0.1720
 3539TIP3    H210624   2.848   4.332   2.603 -1.1661  0.6482 -2.0848
 3540TIP3   OH210625   0.177   1.307   2.630  0.3155  0.3333 -0.0127
 3540TIP3    H110626   0.188   1.218   2.663 -1.0179  0.1135 -0.1266
 3540TIP3    H210627   0.221   1.306   2.545  1.4601  0.1766  0.5540
 3541TIP3   OH210628   5.156   3.438   1.312  0.2155  0.0548  0.1318
 3541TIP3    H110629   5.236   3.491   1.307 -0.2804  0.7416 -0.8538
 3541TIP3    H210630   5.093   3.496   1.354  0.0439 -0.2495  0.2932
 3542TIP3   OH210631   1.048   4.921   0.839 -0.0683  0.2900 -0.1687
 3542TIP3    H110632   1.092   4.927   0.924  0.5382  2.3774 -0.5636
 3542TIP3    H210633   1.108   4.872   0.783 -0.4978 -1.1463  0.5836
 3543TIP3   OH210634   0.602   1.586   0.560  0.1803 -0.0526  0.0938
 3543TIP3    H110635   0.510   1.611   0.553 -0.1887 -1.1636  0.7179
 3543TIP3    H210636   0.644   1.660   0.604  0.5823  2.5814 -4.1235
 3544TIP3   OH210637   6.367   5.154   0.896 -0.2746  0.1766  0.5323
 3544TIP3    H110638   6.308   5.079   0.889  0.4751 -0.3157 -0.8800
 3544TIP3    H210639   6.337   5.215   0.828  0.3301  0.2824  0.3526
 3545TIP3   OH210640   0.508   1.226   1.657  0.8512 -0.7753 -0.3757
 3545TIP3    H110641   0.599   1.198   1.646  0.9971 -0.1221 -0.8883
 3545TIP3    H210642   0.486   1.201   1.747  1.0715 -2.2089 -0.6899
 3546TIP3   OH210643   4.794   4.520   4.461 -0.2018 -0.2969  0.2139
 3546TIP3    H110644   4.778   4.534   4.368  0.8809  0.8162  0.1629
 3546TIP3    H210645   4.827   4.431   4.467  2.4870  0.5306 -0.8908
 3547TIP3   OH210646   5.924   5.564   2.172  0.4996  0.1396  0.0118
 3547TIP3    H110647   5.875   5.525   2.244  0.1559 -0.4575 -0.5367
 3547TIP3    H210648   5.878   5.645   2.153 -0.1525 -0.3074 -0.3542
 3548TIP3   OH210649   3.417   3.980   0.070 -0.0782 -0.2760  0.1179
 3548TIP3    H110650   3.491   4.016   0.117  0.8526 -0.7082 -0.9603
 3548TIP3    H210651   3.397   4.046   0.003 -1.1691  0.1862  0.8832
 3549TIP3   OH210652   4.455   0.807   3.878 -0.7413  0.0782  0.0665
 3549TIP3    H110653   4.510   0.776   3.950  0.1789  0.6789 -0.3685
 3549TIP3    H210654   4.513   0.858   3.823 -1.2201 -1.0381 -1.5711
 3550TIP3   OH210655   4.546   2.226   2.876  0.0585 -0.3588  0.7105
 3550TIP3    H110656   4.611   2.184   2.820  2.5114 -0.2515  3.3113
 3550TIP3    H210657   4.549   2.178   2.958 -0.8750  1.6115  1.9757
 3551TIP3   OH210658   4.765   5.857   1.960  0.0111  0.6664 -0.1452
 3551TIP3    H110659   4.740   5.783   2.014  0.9770  1.1698  1.0296
 3551TIP3    H210660   4.806   5.818   1.883  0.3347 -0.0171  0.3676
 3552TIP3   OH210661   5.648   4.852   0.570 -0.3263 -0.1964 -0.3664
 3552TIP3    H110662   5.689   4.809   0.494  0.3601  1.4119 -0.9365
 3552TIP3    H210663   5.695   4.934   0.579 -1.3945  0.2980  0.9152
 3553TIP3   OH210664   3.089   3.660   3.017 -0.2539  0.0693  0.2805
 3553TIP3    H110665   3.083   3.740   3.069 -0.3371 -0.0629  0.4771
 3553TIP3    H210666   3.001   3.648   2.981 -0.2855 -0.0204  0.3845
 3554TIP3   OH210667   0.688   2.752   1.435 -0.1572 -0.0434 -0.2252
 3554TIP3    H110668   0.628   2.706   1.494 -0.5041  0.4500 -0.1830
 3554TIP3    H210669   0.630   2.804   1.379  0.2853  1.8913  1.0346
 3555TIP3   OH210670   3.567   3.066   4.841  0.5653 -0.5969  0.2826
 3555TIP3    H110671   3.634   3.101   4.782 -0.9059 -1.3897 -1.9720
 3555TIP3    H210672   3.526   3.143   4.880  0.4471  0.0453 -1.0548
 3556TIP3   OH210673   4.364   4.439   0.282 -0.4150  0.3113  0.0692
 3556TIP3    H110674   4.452   4.410   0.302 -0.2621 -0.3221 -1.4256
 3556TIP3    H210675   4.329   4.374   0.222 -0.4556  2.5524 -2.5568
 3557TIP3   OH210676   3.558   5.302   1.548 -0.4369  0.1553 -0.4445
 3557TIP3    H110677   3.510   5.304   1.466  2.2173 -2.5482 -2.2998
 3557TIP3    H210678   3.637   5.354   1.530 -0.6495  1.0378  1.0509
 3558TIP3   OH210679   1.741   1.381   2.593  0.0154 -0.2782 -0.0324
 3558TIP3    H110680   1.700   1.419   2.670 -1.7875  0.5668 -1.3394
 3558TIP3    H210681   1.833   1.406   2.600 -0.5592  1.8452  0.6287
 3559TIP3   OH210682   2.308   1.248   4.141  0.1277 -0.3994  0.0334
 3559TIP3    H110683   2.261   1.330   4.154  0.9406  0.0019  0.5314
 3559TIP3    H210684   2.297   1.200   4.223  1.1193 -0.0172  0.4021
 3560TIP3   OH210685   2.539   2.175   1.810  0.1124  0.1512 -0.3024
 3560TIP3    H110686   2.629   2.202   1.790 -0.3635  1.3434 -1.0034
 3560TIP3    H210687   2.489   2.204   1.734 -1.3383  2.2274  1.3227
 3561TIP3   OH210688   4.477   1.100   0.961 -0.2916  0.4998 -0.3896
 3561TIP3    H110689   4.416   1.077   1.031  0.2335  0.0295 -0.0722
 3561TIP3    H210690   4.561   1.064   0.990  0.2808  1.6722 -0.5245
 3562TIP3   OH210691   6.193   3.233   1.668  0.5442 -0.0300 -0.0677
 3562TIP3    H110692   6.133   3.158   1.669  1.4524 -0.7800 -0.3370
 3562TIP3    H210693   6.280   3.194   1.668  1.0637  1.0556  1.2311
 3563TIP3   OH210694   6.205   5.615   5.166  0.3778 -0.2891  0.3048
 3563TIP3    H110695   6.259   5.599   5.244 -0.1239 -2.0081  0.3456
 3563TIP3    H210696   6.177   5.527   5.139  2.2351 -0.0081 -3.0285
 3564TIP3   OH210697   2.075   3.336   0.947 -0.3062  0.1267  0.4110
 3564TIP3    H110698   1.986   3.323   0.980 -1.2392  0.6234 -1.7368
 3564TIP3    H210699   2.063   3.371   0.859  2.0314 -0.3669 -0.1680
 3565TIP3   OH210700   5.904   5.929   4.578 -0.2656 -0.1653 -0.1330
 3565TIP3    H110701   5.847   6.006   4.582  0.8961  0.6844  1.0043
 3565TIP3    H210702   5.855   5.865   4.526 -3.1820 -0.2312  2.4011
 3566TIP3   OH210703   3.017   2.761   2.615 -0.5115  0.6988  0.0351
 3566TIP3    H110704   2.959   2.837   2.615 -0.9254  0.4014 -0.9932
 3566TIP3    H210705   2.960   2.688   2.639 -0.2145  0.6430  0.5716
 3567TIP3   OH210706   1.908   5.726   0.313  0.2390  0.9024  0.4627
 3567TIP3    H110707   1.861   5.688   0.239  1.0644  0.8118 -0.0255
 3567TIP3    H210708   1.865   5.689   0.390 -0.1396  0.3968  0.0178
 3568TIP3   OH210709   2.826   5.628   4.267 -0.0803  0.2428 -0.0885
 3568TIP3    H110710   2.858   5.539   4.256 -0.5695 -0.0945  0.9948
 3568TIP3    H210711   2.732   5.622   4.246 -0.7556 -0.1605  2.6424
 3569TIP3   OH210712   5.653   2.681   0.728  0.0218  0.2724  0.4097
 3569TIP3    H110713   5.680   2.706   0.639 -0.0325 -1.8577 -0.2523
 3569TIP3    H210714   5.733   2.646   0.768  0.1656  1.6676  1.4147
 3570TIP3   OH210715   4.718   1.419   0.944  0.3146  0.3975  0.5469
 3570TIP3    H110716   4.731   1.325   0.936 -0.3485  0.3036  0.5655
 3570TIP3    H210717   4.626   1.429   0.965  0.0093  1.1402 -1.0379
 3571TIP3   OH210718   4.018   4.138   4.525  0.2586 -0.4338 -0.4812
 3571TIP3    H110719   4.112   4.155   4.521  0.4206 -0.6835  1.4793
 3571TIP3    H210720   3.980   4.221   4.553  0.0628 -0.7434  0.1852
 3572TIP3   OH210721   0.395   5.343   1.781 -0.1937 -0.1965  0.4592
 3572TIP3    H110722   0.423   5.264   1.827 -0.4213 -0.6752 -0.2163
 3572TIP3    H210723   0.473   5.372   1.733 -0.2505 -0.3032  0.3012
 3573TIP3   OH210724   5.952   1.023   2.258 -0.4774  0.1026 -0.0637
 3573TIP3    H110725   5.919   0.934   2.267  0.9244 -0.4162  0.1981
 3573TIP3    H210726   5.978   1.030   2.167  1.9091 -0.7094  0.4885
 3574TIP3   OH210727   4.043   0.585   3.483  0.4107  0.1795 -0.4222
 3574TIP3    H110728   4.098   0.511   3.509  1.9293  1.0450 -1.0418
 3574TIP3    H210729   4.086   0.620   3.405 -0.5194  1.4541 -0.3922
 3575TIP3   OH210730   2.479   5.717   4.748  0.4434 -0.1996 -0.6438
 3575TIP3    H110731   2.430   5.753   4.823  1.3718 -2.1472  1.0035
 3575TIP3    H210732   2.427   5.741   4.672 -0.3914  2.1706  0.5535
 3576TIP3   OH210733   0.802   2.695   5.156  0.0364  0.0676 -0.1884
 3576TIP3    H110734   0.728   2.676   5.099  0.8393 -1.8163 -0.7118
 3576TIP3    H210735   0.837   2.778   5.124  0.0104 -0.5669 -1.9980
 3577TIP3   OH210736   1.648   0.606   1.646  0.1683 -0.1184 -0.2342
 3577TIP3    H110737   1.591   0.673   1.610  1.0227  0.0426 -1.3352
 3577TIP3    H210738   1.653   0.539   1.577  0.2189 -0.7825  0.3995
 3578TIP3   OH210739   1.221   0.915   1.776 -0.3607  0.0197  0.0723
 3578TIP3    H110740   1.286   0.981   1.801  0.5352 -0.5500 -0.6738
 3578TIP3    H210741   1.138   0.950   1.806 -0.3266  2.8157 -2.6041
 3579TIP3   OH210742   5.493   4.832   4.912 -0.3170 -0.4125 -0.5232
 3579TIP3    H110743   5.431   4.888   4.866  0.6416  0.7059 -0.4899
 3579TIP3    H210744   5.569   4.826   4.854  0.9466  1.0902  0.8860
 3580TIP3   OH210745   1.523   0.852   3.247 -0.0299 -0.1467  0.0221
 3580TIP3    H110746   1.462   0.837   3.175  0.6457 -0.5286 -0.4801
 3580TIP3    H210747   1.500   0.787   3.313 -1.0550  0.6048  0.4289
 3581TIP3   OH210748   4.386   0.841   0.254  0.0831  0.4227  0.5477
 3581TIP3    H110749   4.386   0.846   0.159 -0.4194 -1.3383  0.4138
 3581TIP3    H210750   4.445   0.911   0.282 -0.6759  1.7309 -0.9873
 3582TIP3   OH210751   2.726   2.936   3.225  0.2777  0.5946  0.2779
 3582TIP3    H110752   2.674   2.872   3.273 -0.7502  1.1721 -0.0308
 3582TIP3    H210753   2.721   2.907   3.133 -0.2940  1.1571  0.1194
 3583TIP3   OH210754   5.892   2.322   1.661  0.9148 -0.1765 -0.0027
 3583TIP3    H110755   5.845   2.275   1.729  0.1817 -0.0124 -0.3761
 3583TIP3    H210756   5.823   2.348   1.599  1.1953  1.8130  0.4379
 3584TIP3   OH210757   1.195   0.947   2.592  0.2466 -0.0452 -0.4230
 3584TIP3    H110758   1.247   1.014   2.637 -1.7538  1.1305  0.2272
 3584TIP3    H210759   1.253   0.917   2.521  1.9662  0.8803  0.5037
 3585TIP3   OH210760   3.615   1.297   4.207 -0.0180  0.0867 -0.6457
 3585TIP3    H110761   3.526   1.323   4.183  0.3445  0.1878 -1.9850
 3585TIP3    H210762   3.606   1.210   4.244 -0.9649  1.0719  1.6222
 3586TIP3   OH210763   0.298   1.898   1.137  0.1224  0.1477  0.3140
 3586TIP3    H110764   0.387   1.862   1.134  0.2945  0.5796  0.0326
 3586TIP3    H210765   0.279   1.907   1.230 -0.2968 -1.5435  0.4278
 3587TIP3   OH210766   2.271   4.268   3.637 -1.0665 -0.0784  0.2043
 3587TIP3    H110767   2.209   4.202   3.605 -1.6126  1.3353 -1.8345
 3587TIP3    H210768   2.296   4.317   3.559  1.6608  0.2393  1.1787
 3588TIP3   OH210769   2.885   5.078   1.396 -0.2723  0.3919 -0.0324
 3588TIP3    H110770   2.870   5.173   1.402  0.6531  0.4539  2.3613
 3588TIP3    H210771   2.933   5.067   1.313  0.2756  2.1258  0.0084
 3589TIP3   OH210772   4.942   0.897   2.995 -0.2084  0.1431 -0.5974
 3589TIP3    H110773   5.013   0.959   2.980  0.4159 -0.9968 -2.8470
 3589TIP3    H210774   4.986   0.817   3.024 -0.7559 -0.0498 -0.2765
 3590TIP3   OH210775   4.688   1.601   4.549 -0.1754  0.3125  0.3699
 3590TIP3    H110776   4.726   1.602   4.461 -1.2262  1.1974 -0.0964
 3590TIP3    H210777   4.677   1.693   4.572 -0.8293  0.0858  1.0127
 3591TIP3   OH210778   1.148   4.949   1.934  0.4174  0.0512  0.6094
 3591TIP3    H110779   1.158   5.042   1.952 -1.6553  0.8916 -2.0017
 3591TIP3    H210780   1.152   4.942   1.838  4.2778 -3.1340  0.7140
 3592TIP3   OH210781   2.683   5.181   4.840 -0.4392 -1.0483 -0.1457
 3592TIP3    H110782   2.746   5.139   4.782 -2.0371 -0.2443 -2.6152
 3592TIP3    H210783   2.628   5.234   4.782 -1.3538  0.8522  2.2746
 3593TIP3   OH210784   5.505   2.278   2.194 -0.2251 -0.1597 -0.7284
 3593TIP3    H110785   5.592   2.260   2.159 -0.7113 -3.0729 -0.6991
 3593TIP3    H210786   5.514   2.264   2.289 -0.8451 -1.1527 -0.8043
 3594TIP3   OH210787   5.606   1.890   4.569 -0.2219 -0.1556 -0.1365
 3594TIP3    H110788   5.598   1.821   4.635  1.2174  1.1205  1.4593
 3594TIP3    H210789   5.689   1.872   4.526 -1.3069 -1.1842 -1.9598
 3595TIP3   OH210790   2.969   4.278   4.618  0.6232  0.0759 -0.4709
 3595TIP3    H110791   2.993   4.265   4.710  0.2065 -0.8077 -0.4754
 3595TIP3    H210792   3.037   4.231   4.569  0.7696  0.4353 -0.6190
 3596TIP3   OH210793   4.645   0.545   1.891  0.3340  0.1577  0.0945
 3596TIP3    H110794   4.707   0.553   1.818 -0.7029 -0.7732 -0.9322
 3596TIP3    H210795   4.700   0.520   1.965  1.3032  0.1895 -0.5825
 3597TIP3   OH210796   3.244   3.101   0.843  0.3047 -0.4397  0.1528
 3597TIP3    H110797   3.266   3.050   0.765  1.1672  0.2543 -0.0828
 3597TIP3    H210798   3.209   3.184   0.808 -1.6937 -1.0661  0.5224
 3598TIP3   OH210799   5.710   2.345   2.786  0.1901  0.4732  0.2457
 3598TIP3    H110800   5.714   2.313   2.696 -0.5447  0.6176  0.1609
 3598TIP3    H210801   5.801   2.365   2.808  0.3894  0.3066 -0.4132
 3599TIP3   OH210802   0.438   0.002   5.025 -0.3865 -0.2291 -0.0793
 3599TIP3    H110803   0.406   0.078   4.977 -1.3097 -0.0047  0.8508
 3599TIP3    H210804   0.507   0.036   5.082  1.9655 -0.7910 -2.4156
 3600TIP3   OH210805   3.916   2.211   0.088 -0.0756  0.4536 -0.4190
 3600TIP3    H110806   3.958   2.137   0.132 -1.4575 -1.0181 -1.4605
 3600TIP3    H210807   3.989   2.263   0.054  0.9369 -0.2923  0.5195
 3601TIP3   OH210808   4.091   0.113   3.639 -0.0345  0.7983  0.4707
 3601TIP3    H110809   4.061   0.193   3.597  0.3571  1.2479  1.0221
 3601TIP3    H210810   4.052   0.116   3.727  0.1484  0.4887  0.5652
 3602TIP3   OH210811   5.457   5.099   1.589  0.9864 -0.1756 -0.0169
 3602TIP3    H110812   5.499   5.068   1.669  1.7649 -0.3044 -0.4651
 3602TIP3    H210813   5.408   5.024   1.557 -0.5274  0.2978  1.1030
 3603TIP3   OH210814   5.675   3.913   2.452 -0.4731 -0.3722 -0.2611
 3603TIP3    H110815   5.708   4.002   2.463  0.2296 -0.5969 -0.4858
 3603TIP3    H210816   5.685   3.895   2.359  1.1530 -1.3435  0.0591
 3604TIP3   OH210817   5.035   1.453   1.872  0.0588 -0.0804  0.1956
 3604TIP3    H110818   5.109   1.505   1.840 -0.1800 -0.7664 -1.5870
 3604TIP3    H210819   5.052   1.441   1.966  0.9967  1.7220  0.2912
 3605TIP3   OH210820   4.372   2.602   1.829  0.4596 -0.3204  0.2247
 3605TIP3    H110821   4.421   2.538   1.880  0.0575 -1.4670 -0.7569
 3605TIP3    H210822   4.299   2.552   1.792 -0.1536  0.8247 -0.1732
 3606TIP3   OH210823   3.501   5.382   5.006  0.1499  0.6383  0.3322
 3606TIP3    H110824   3.545   5.341   5.081  0.0054 -0.1169  0.0157
 3606TIP3    H210825   3.463   5.462   5.041  1.4895  1.1488  0.6982
 3607TIP3   OH210826   5.806   2.728   4.178  0.2148  0.3668 -0.1610
 3607TIP3    H110827   5.819   2.643   4.221  0.7626  1.3037  1.6204
 3607TIP3    H210828   5.716   2.724   4.145  0.6111 -1.3189 -1.1416
 3608TIP3   OH210829   3.897   3.101   5.118  0.6551 -0.1593  0.5265
 3608TIP3    H110830   3.932   3.173   5.065 -1.2489  0.4984  0.0990
 3608TIP3    H210831   3.827   3.140   5.169 -1.4273 -1.9560 -0.7816
 3609TIP3   OH210832   0.995   5.271   1.313  0.0474  0.1169 -0.4213
 3609TIP3    H110833   1.081   5.309   1.295  0.0533 -0.1697 -1.0249
 3609TIP3    H210834   1.009   5.213   1.387  0.6075 -0.7328 -1.1682
 3610TIP3   OH210835   2.982   2.514   1.767  0.1010 -0.1579 -0.0095
 3610TIP3    H110836   3.012   2.575   1.834 -1.4160  0.0400  0.5350
 3610TIP3    H210837   3.030   2.433   1.785 -1.0329 -0.4514  2.0571
 3611TIP3   OH210838   0.694   3.983   1.749 -0.4915 -0.2394 -0.1471
 3611TIP3    H110839   0.777   4.022   1.723 -0.5061 -0.1993 -0.1344
 3611TIP3    H210840   0.704   3.967   1.843 -0.0886 -1.2623 -0.3543
 3612TIP3   OH210841   5.252   1.057   4.614 -0.8047  0.1736  0.2616
 3612TIP3    H110842   5.267   0.973   4.570 -0.9340  2.2616 -4.3423
 3612TIP3    H210843   5.328   1.067   4.672  0.0656 -2.3635 -0.2825
 3613TIP3   OH210844   1.727   1.021   4.229  0.0056 -0.3177  0.1637
 3613TIP3    H110845   1.704   1.047   4.140 -0.1369 -1.2727 -0.0930
 3613TIP3    H210846   1.646   0.984   4.264  0.5299 -1.6207  0.0454
 3614TIP3   OH210847   1.211   0.359   0.789 -0.3972 -0.4528  0.3878
 3614TIP3    H110848   1.295   0.326   0.757 -0.2296 -1.4285  1.7178
 3614TIP3    H210849   1.148   0.334   0.722  0.2288 -0.6516 -0.1364
 3615TIP3   OH210850   1.009   3.845   4.539 -0.0684 -0.2075 -0.1308
 3615TIP3    H110851   0.987   3.804   4.622  0.2008 -0.7582 -0.3300
 3615TIP3    H210852   1.102   3.867   4.546 -0.0701 -0.1613 -0.2477
 3616TIP3   OH210853   3.792   2.693   4.393 -0.4875 -0.4932  0.2678
 3616TIP3    H110854   3.731   2.763   4.368 -1.0917 -0.5730  1.4519
 3616TIP3    H210855   3.859   2.694   4.325 -1.4989 -0.0100 -0.7494
 3617TIP3   OH210856   4.729   5.902   4.168  0.2901 -0.2868 -0.5602
 3617TIP3    H110857   4.736   5.866   4.256  0.5009 -1.5048 -1.0568
 3617TIP3    H210858   4.819   5.915   4.141  0.2421 -0.4804 -0.8161
 3618TIP3   OH210859   5.713   3.188   3.035 -0.1229  0.2044 -0.2128
 3618TIP3    H110860   5.724   3.250   3.107 -1.7628  0.5752 -0.2386
 3618TIP3    H210861   5.690   3.105   3.078 -2.4192  0.7282 -0.2626
 3619TIP3   OH210862   4.133   3.112   4.609  0.3959 -0.3080 -0.0671
 3619TIP3    H110863   4.067   3.178   4.630  1.5570  0.5966  0.9213
 3619TIP3    H210864   4.191   3.111   4.686  0.7098 -2.1113 -0.2858
 3620TIP3   OH210865   2.741   5.488   4.668 -0.1873 -0.2262  0.3384
 3620TIP3    H110866   2.715   5.397   4.680  0.2292 -0.2422  1.2554
 3620TIP3    H210867   2.672   5.539   4.710  0.5836 -0.2259  1.7090
 3621TIP3   OH210868   4.902   4.624   2.223 -0.0365 -0.0263 -0.0499
 3621TIP3    H110869   4.914   4.593   2.312  2.4727 -0.0807 -0.3580
 3621TIP3    H210870   4.915   4.547   2.168  0.3371  0.3925 -0.5538
 3622TIP3   OH210871   1.495   2.906   3.043  0.4057  0.0165  0.1527
 3622TIP3    H110872   1.474   2.956   3.122  1.6317 -0.2203  0.6529
 3622TIP3    H210873   1.482   2.814   3.070  0.3887 -0.0434 -0.0599
 3623TIP3   OH210874   1.498   5.641   0.149 -0.1577 -0.0607 -0.3373
 3623TIP3    H110875   1.446   5.710   0.107 -1.2701 -1.5195 -1.4715
 3623TIP3    H210876   1.523   5.678   0.233 -2.2801  1.0646 -0.1315
 3624TIP3   OH210877   4.428   1.635   0.835 -0.1370  0.0534  0.4203
 3624TIP3    H110878   4.362   1.567   0.826  0.4586 -0.3316 -1.7661
 3624TIP3    H210879   4.430   1.678   0.749  0.7319  1.6926  1.2026
 3625TIP3   OH210880   0.189   4.533   2.444 -0.5996 -0.2492  0.3385
 3625TIP3    H110881   0.257   4.596   2.421  0.6496 -1.2297  1.1769
 3625TIP3    H210882   0.126   4.537   2.372  0.5632  0.3840 -0.6752
 3626TIP3   OH210883   2.947   5.433   2.613  0.0179  0.6683  0.5301
 3626TIP3    H110884   2.922   5.450   2.704  2.6334  2.3951  1.0163
 3626TIP3    H210885   2.993   5.349   2.617 -0.8032  0.2112  0.5860
 3627TIP3   OH210886   3.778   5.831   1.051 -0.0457 -0.0050 -0.0552
 3627TIP3    H110887   3.739   5.862   0.969  0.3043 -0.7038 -0.4963
 3627TIP3    H210888   3.708   5.841   1.116  0.0750  1.7673 -0.1422
 3628TIP3   OH210889   5.453   2.543   4.769 -0.5939  0.2405  0.5144
 3628TIP3    H110890   5.376   2.492   4.792 -0.7287 -0.2476 -0.9191
 3628TIP3    H210891   5.432   2.632   4.795 -0.2337 -0.4210  3.3486
 3629TIP3   OH210892   4.157   3.760   4.040 -0.0249 -0.0553 -0.5224
 3629TIP3    H110893   4.164   3.666   4.021 -1.3155 -0.1854 -0.4542
 3629TIP3    H210894   4.142   3.764   4.134  0.8114  0.2757 -0.3969
 3630TIP3   OH210895   6.299   5.454   1.762  0.2782  0.5779  0.0881
 3630TIP3    H110896   6.372   5.510   1.736  1.9203 -0.9766  1.1159
 3630TIP3    H210897   6.300   5.457   1.858 -0.8051  0.2380  0.1221
 3631TIP3   OH210898   5.057   0.083   2.165 -0.3067  0.1626 -0.1379
 3631TIP3    H110899   5.143   0.064   2.125  0.0474  2.5953 -0.6626
 3631TIP3    H210900   4.996   0.080   2.091 -0.8753 -2.2400  0.3346
 3632TIP3   OH210901   2.991   1.389   4.577  0.1755 -0.4107 -0.3083
 3632TIP3    H110902   2.972   1.326   4.646  0.2514 -0.8564 -0.6876
 3632TIP3    H210903   3.051   1.343   4.518  2.2398  0.8450  0.6997
 3633TIP3   OH210904   2.902   1.592   0.558 -0.0949  0.1341  0.5591
 3633TIP3    H110905   2.894   1.682   0.588 -1.4526  0.2967 -0.1679
 3633TIP3    H210906   2.994   1.581   0.536 -0.1432  1.8319 -0.7143
 3634TIP3   OH210907   3.594   2.309   3.437  0.4617 -0.0092  0.2312
 3634TIP3    H110908   3.657   2.303   3.509  2.7051 -0.6707 -1.6436
 3634TIP3    H210909   3.643   2.351   3.367 -0.6765 -1.8864 -1.8144
 3635TIP3   OH210910   1.811   4.901   2.844 -0.6753 -0.1274 -0.3862
 3635TIP3    H110911   1.843   4.932   2.929 -0.2957 -2.1673  0.2669
 3635TIP3    H210912   1.878   4.839   2.814 -0.5883  0.8712 -2.4175
 3636TIP3   OH210913   3.010   2.676   4.883 -0.7041 -0.3376 -0.1243
 3636TIP3    H110914   3.042   2.689   4.794  0.1918  1.5495  0.4072
 3636TIP3    H210915   2.917   2.654   4.873 -1.5868  3.3081 -1.5097
 3637TIP3   OH210916   0.181   4.699   2.822 -0.3906 -0.3113  0.3681
 3637TIP3    H110917   0.272   4.673   2.810 -0.9094 -1.4664 -1.4396
 3637TIP3    H210918   0.142   4.627   2.872 -0.4679 -0.1253  0.5775
 3638TIP3   OH210919   1.230   3.070   3.957  0.6798 -0.7110 -0.1981
 3638TIP3    H110920   1.275   3.014   3.893  1.4479  1.3159 -1.5345
 3638TIP3    H210921   1.147   3.092   3.915  0.4565 -0.7242  0.2347
 3639TIP3   OH210922   4.020   4.765   2.480 -0.6210 -0.1213  0.1955
 3639TIP3    H110923   4.025   4.670   2.472  1.1280  0.0156 -0.9875
 3639TIP3    H210924   4.044   4.797   2.393 -0.3481  1.4204  0.8142
 3640TIP3   OH210925   3.937   3.662   0.384 -0.1928  0.0867 -0.1486
 3640TIP3    H110926   3.989   3.584   0.363 -0.1578  0.7249 -2.7543
 3640TIP3    H210927   3.992   3.711   0.446  1.3997 -0.2797 -1.2019
 3641TIP3   OH210928   4.963   2.696   2.927 -0.0756  0.6481 -1.1254
 3641TIP3    H110929   4.909   2.625   2.963  0.8484  1.1677  1.5545
 3641TIP3    H210930   4.995   2.662   2.844  2.1334 -3.1454  0.9665
 3642TIP3   OH210931   0.520   5.515   3.949 -0.1350 -0.2243  0.1607
 3642TIP3    H110932   0.610   5.546   3.957 -0.3581  0.9692 -1.5320
 3642TIP3    H210933   0.476   5.550   4.026  0.3977  0.9160 -0.0310
 3643TIP3   OH210934   1.917   3.769   2.705  0.1917  0.3243  0.1758
 3643TIP3    H110935   1.989   3.815   2.748  0.3911  0.6222 -0.4581
 3643TIP3    H210936   1.922   3.797   2.614 -1.0347  0.7357  0.2189
 3644TIP3   OH210937   5.656   2.526   5.043  0.1146 -0.0878  0.1837
 3644TIP3    H110938   5.561   2.522   5.047  0.0952  0.5195  0.3950
 3644TIP3    H210939   5.680   2.598   5.101  0.4436  2.7237 -3.1005
 3645TIP3   OH210940   1.560   4.526   5.141  0.1640  0.1449 -0.5600
 3645TIP3    H110941   1.505   4.589   5.096 -0.2583 -0.0783 -0.3585
 3645TIP3    H210942   1.643   4.528   5.093  0.3865  1.3350 -0.1385
 3646TIP3   OH210943   5.229   1.649   4.126 -0.1102 -0.0618  0.3982
 3646TIP3    H110944   5.268   1.570   4.164 -0.1512  0.5754  1.8142
 3646TIP3    H210945   5.134   1.634   4.134 -0.1239  0.6349  1.8194
 3647TIP3   OH210946   3.786   0.626   3.378 -0.4886  0.0567 -0.5720
 3647TIP3    H110947   3.864   0.620   3.433  0.1001 -0.0753 -1.4025
 3647TIP3    H210948   3.779   0.539   3.337  0.4173  0.8166 -2.4581
 3648TIP3   OH210949   3.736   5.141   1.797 -0.4491  0.9596 -0.3837
 3648TIP3    H110950   3.725   5.225   1.753  0.5321  2.5116  2.1898
 3648TIP3    H210951   3.830   5.124   1.794 -0.6685 -0.3712 -1.2907
 3649TIP3   OH210952   2.618   1.408   1.539  0.0874  0.3615  0.0434
 3649TIP3    H110953   2.552   1.463   1.497 -0.1793 -0.1654 -0.2306
 3649TIP3    H210954   2.650   1.351   1.469 -1.8603 -1.9982  0.9505
 3650TIP3   OH210955   0.501   5.880   0.584  0.8384  0.1196 -0.0545
 3650TIP3    H110956   0.445   5.945   0.627  0.4612 -0.8260  0.9476
 3650TIP3    H210957   0.470   5.796   0.620  1.8688 -0.5367 -0.6796
 3651TIP3   OH210958   6.086   5.071   0.629 -0.4386  0.2736 -0.0269
 3651TIP3    H110959   6.112   4.985   0.597 -0.4319 -0.5423  2.0241
 3651TIP3    H210960   5.993   5.063   0.649 -0.5053  0.8307 -0.0903
 3652TIP3   OH210961   0.731   0.447   0.779  0.3066  0.0522 -0.0261
 3652TIP3    H110962   0.805   0.389   0.801  0.7926  0.8830  0.5865
 3652TIP3    H210963   0.721   0.504   0.855 -1.1789 -0.2365  0.0208
 3653TIP3   OH210964   5.262   0.275   4.361  0.5096  0.1393  0.3019
 3653TIP3    H110965   5.349   0.298   4.330  1.1433  0.3665  2.1411
 3653TIP3    H210966   5.233   0.206   4.301  0.9008  1.7498 -1.8409
 3654TIP3   OH210967   2.519   3.007   0.205 -0.3726  0.0387 -0.0504
 3654TIP3    H110968   2.444   3.056   0.171  0.4897 -0.3029 -2.6769
 3654TIP3    H210969   2.595   3.055   0.172  0.5648 -0.4665  1.3034
 3655TIP3   OH210970   3.310   2.353   1.791  0.4737  0.2731  0.1749
 3655TIP3    H110971   3.366   2.291   1.837  0.1368  1.0113  1.6252
 3655TIP3    H210972   3.221   2.320   1.806  0.2722  1.2056  1.1749
 3656TIP3   OH210973   4.927   5.691   4.662 -0.7143  0.5868  0.4759
 3656TIP3    H110974   4.958   5.703   4.751 -0.5156  0.3823  0.4332
 3656TIP3    H210975   4.970   5.761   4.612 -1.3635  1.1361  0.6670
 3657TIP3   OH210976   0.950   4.167   2.948 -0.1805 -0.2688  0.6023
 3657TIP3    H110977   0.968   4.086   2.899 -0.9100  0.4585 -0.9715
 3657TIP3    H210978   1.019   4.172   3.013  1.1161 -1.1072 -0.6409
 3658TIP3   OH210979   0.948   1.863   3.752 -0.1034 -0.7306 -0.6860
 3658TIP3    H110980   0.897   1.924   3.805  1.3373  1.1374 -1.3289
 3658TIP3    H210981   0.903   1.861   3.667 -0.5113 -1.0816 -0.4647
 3659TIP3   OH210982   5.499   1.799   3.574 -0.1203 -0.1078  0.7975
 3659TIP3    H110983   5.553   1.835   3.504  0.6392 -2.3977  0.0846
 3659TIP3    H210984   5.491   1.869   3.638  0.6001  1.4947 -0.7896
 3660TIP3   OH210985   2.409   4.229   1.011  0.0594 -0.3690 -0.1972
 3660TIP3    H110986   2.482   4.216   1.072 -0.2508  0.4025  0.3432
 3660TIP3    H210987   2.423   4.315   0.973 -0.4090 -0.3394 -0.3158
 3661TIP3   OH210988   5.038   5.403   2.403 -0.1684  0.6077 -0.3927
 3661TIP3    H110989   5.044   5.318   2.446 -0.0762 -0.1688 -1.8920
 3661TIP3    H210990   5.019   5.464   2.474  2.2253 -0.2733  1.1322
 3662TIP3   OH210991   4.337   5.602   2.481  0.5624 -0.3339 -0.6212
 3662TIP3    H110992   4.325   5.610   2.576 -0.3227  0.5399 -0.7924
 3662TIP3    H210993   4.339   5.507   2.465  0.3175 -0.4916  0.2228
 3663TIP3   OH210994   2.094   5.305   2.374 -0.0237  0.0508 -0.3713
 3663TIP3    H110995   2.086   5.346   2.288  0.4185 -0.9879 -0.9228
 3663TIP3    H210996   2.052   5.220   2.364  1.9992 -1.0307 -0.2495
 3664TIP3   OH210997   3.677   0.110   4.864 -0.1493  0.0799  0.0739
 3664TIP3    H110998   3.669   0.038   4.801 -0.1538  0.9909 -0.9899
 3664TIP3    H210999   3.611   0.090   4.931  1.3718 -2.1139  1.0662
 3665TIP3   OH211000   6.091   1.548   4.879 -0.6259 -0.2568  0.2082
 3665TIP3    H111001   6.047   1.584   4.802  0.8656 -1.1692 -1.1451
 3665TIP3    H211002   6.047   1.588   4.953 -2.3551  0.3987 -1.1093
 3666TIP3   OH211003   3.341   5.539   3.962 -0.5814 -0.2785 -0.6049
 3666TIP3    H111004   3.295   5.460   3.990  0.4581 -0.3374  1.0468
 3666TIP3    H211005   3.322   5.546   3.868 -1.6272 -1.8322 -0.5392
 3667TIP3   OH211006   4.802   0.034   2.778 -0.5182  0.1184  0.3535
 3667TIP3    H111007   4.897   0.029   2.781 -0.4923 -0.6033 -1.0805
 3667TIP3    H211008   4.773  -0.053   2.806 -0.8212  0.6784  1.9122
 3668TIP3   OH211009   1.375   1.261   0.167  0.6453 -0.1535  0.5479
 3668TIP3    H111010   1.470   1.252   0.179  0.6350 -0.5008  0.3541
 3668TIP3    H211011   1.361   1.250   0.073  0.5628  1.2427  0.3698
 3669TIP3   OH211012   1.947   3.338   2.386  0.3333 -0.3776 -0.2267
 3669TIP3    H111013   1.882   3.290   2.437  0.5393 -0.7395 -0.2999
 3669TIP3    H211014   1.947   3.294   2.300  1.4912 -1.1243  0.1297
 3670TIP3   OH211015   4.259   4.836   4.787 -0.1793 -0.1870  0.3294
 3670TIP3    H111016   4.255   4.929   4.808  1.0953  0.3026 -1.3709
 3670TIP3    H211017   4.335   4.804   4.836 -0.2330 -0.1782  0.4177
 3671TIP3   OH211018   5.510   3.095   0.397 -0.0071 -0.1867 -0.4226
 3671TIP3    H111019   5.531   3.188   0.395 -3.2016  0.6948  0.9751
 3671TIP3    H211020   5.419   3.091   0.429  0.4327 -3.8397  0.8941
 3672TIP3   OH211021   2.686   5.688   3.593 -0.2189 -0.4346  0.0149
 3672TIP3    H111022   2.628   5.630   3.642 -1.5123 -0.2402 -1.2165
 3672TIP3    H211023   2.661   5.777   3.620  0.4508 -0.3833  0.4861
 3673TIP3   OH211024   3.931   4.882   3.745 -0.4573 -0.0498 -0.0649
 3673TIP3    H111025   4.015   4.855   3.708  1.0450  2.1076  1.4890
 3673TIP3    H211026   3.878   4.908   3.669  1.7561  2.2758 -0.9698
 3674TIP3   OH211027   2.689   5.328   5.060 -0.4505  0.2882 -0.1850
 3674TIP3    H111028   2.602   5.363   5.077 -1.4713 -2.0100 -0.2868
 3674TIP3    H211029   2.684   5.290   4.973  0.6349  0.0617 -0.1701
 3675TIP3   OH211030   4.175   1.480   1.852 -0.0895  0.7119  0.7288
 3675TIP3    H111031   4.136   1.443   1.932  1.1827 -0.3767  0.8839
 3675TIP3    H211032   4.244   1.418   1.829 -1.2349  0.3342 -1.9607
 3676TIP3   OH211033   5.899   3.417   0.682  0.0737 -0.7158  0.4522
 3676TIP3    H111034   5.805   3.417   0.664  0.4929  1.3625 -2.2880
 3676TIP3    H211035   5.909   3.478   0.755 -0.6293 -0.1356  0.0736
 3677TIP3   OH211036   0.465   2.474   2.620  0.1729  0.0978  0.0896
 3677TIP3    H111037   0.416   2.535   2.565 -1.1221  0.1873  1.2775
 3677TIP3    H211038   0.435   2.493   2.709  0.4887 -1.5773  0.5972
 3678TIP3   OH211039   3.560   2.434   3.098  0.0923  0.3298 -0.5139
 3678TIP3    H111040   3.647   2.459   3.130 -0.3876 -0.5460  1.6571
 3678TIP3    H211041   3.500   2.496   3.140 -0.4200  0.4749 -1.4168
 3679TIP3   OH211042   2.573   5.216   3.001  0.2520 -0.8845  0.5655
 3679TIP3    H111043   2.637   5.145   2.998  1.0661 -0.2906  2.5230
 3679TIP3    H211044   2.601   5.277   2.933 -0.5307 -2.4122 -1.2407
 3680TIP3   OH211045   2.158   3.797   2.256  0.2167  0.3244  0.4904
 3680TIP3    H111046   2.127   3.708   2.237  0.6922  0.1724  0.4332
 3680TIP3    H211047   2.168   3.838   2.171  1.4359 -0.0519  0.4445
 3681TIP3   OH211048   0.478   5.174   0.048  0.0485 -0.2774  0.2961
 3681TIP3    H111049   0.500   5.170   0.141 -1.5624  2.0704  0.8690
 3681TIP3    H211050   0.551   5.130   0.004  1.1018 -0.9989  2.6191
 3682TIP3   OH211051   1.506   0.227   0.916 -0.0449  0.2182  0.1169
 3682TIP3    H111052   1.555   0.252   0.838  1.0245 -0.6996  0.4750
 3682TIP3    H211053   1.503   0.132   0.914  1.3441  0.0721  1.9531
 3683TIP3   OH211054   0.812   2.367   2.457 -0.1365  0.1166 -0.6071
 3683TIP3    H111055   0.839   2.401   2.542 -0.1246 -1.1615 -0.0833
 3683TIP3    H211056   0.717   2.364   2.460 -0.2280  1.5101 -1.2326
 3684TIP3   OH211057   2.286   5.587   0.737  0.6064  0.1286 -0.1809
 3684TIP3    H111058   2.333   5.506   0.717 -0.4249 -0.6959  0.6563
 3684TIP3    H211059   2.323   5.616   0.820 -0.1348 -0.3520  0.3210
 3685TIP3   OH211060   3.876   5.600   0.924  0.4239  0.1362  0.1562
 3685TIP3    H111061   3.835   5.664   0.982 -1.5367 -1.1999  0.3634
 3685TIP3    H211062   3.871   5.638   0.837 -1.2384  0.0676  0.1978
 3686TIP3   OH211063   4.892   3.575   2.303  1.0669 -0.2970 -0.7337
 3686TIP3    H111064   4.817   3.524   2.273  1.8054 -0.4813 -2.3905
 3686TIP3    H211065   4.958   3.564   2.234  2.1150  0.9712  0.0087
 3687TIP3   OH211066   5.168   1.627   1.289 -0.0287  0.4881 -0.0131
 3687TIP3    H111067   5.184   1.640   1.195  0.2405 -0.1167 -0.0548
 3687TIP3    H211068   5.076   1.604   1.294 -0.0600  0.5870 -0.1203
 3688TIP3   OH211069   4.835   3.299   1.420  0.0964  0.4326  0.1655
 3688TIP3    H111070   4.834   3.244   1.341 -0.4431  0.9782 -0.2236
 3688TIP3    H211071   4.850   3.387   1.387 -1.9265  0.9464  0.4602
 3689TIP3   OH211072   3.874   0.348   2.866 -0.6724 -0.4437 -0.0160
 3689TIP3    H111073   3.803   0.412   2.866 -0.1973  0.1043 -0.8300
 3689TIP3    H211074   3.950   0.397   2.834 -0.6162 -1.7334 -1.9853
 3690TIP3   OH211075   5.467   0.722   2.086  0.4133  0.3354 -0.6722
 3690TIP3    H111076   5.388   0.760   2.046 -1.4504 -2.6226 -0.1100
 3690TIP3    H211077   5.467   0.757   2.175  0.3440  1.1632 -0.9848
 3691TIP3   OH211078   4.318   1.858   4.919  0.0942  0.2753  0.1662
 3691TIP3    H111079   4.397   1.898   4.955 -0.5292  0.1238  1.7543
 3691TIP3    H211080   4.268   1.829   4.995 -0.9294 -0.7363 -0.8425
 3692TIP3   OH211081   6.022   1.262   1.655  0.0321  0.4087 -0.1283
 3692TIP3    H111082   6.006   1.209   1.733  0.7757  0.3339 -0.0098
 3692TIP3    H211083   5.996   1.350   1.680  1.7173  0.7033  0.7753
 3693TIP3   OH211084   6.291   5.301   4.184 -0.1888 -0.8498 -0.1267
 3693TIP3    H111085   6.249   5.341   4.108  0.6930 -1.4702 -0.9676
 3693TIP3    H211086   6.250   5.215   4.193  0.4887 -1.2325 -0.6081
 3694TIP3   OH211087   4.675   4.077   2.695  0.3552 -0.0317  0.2680
 3694TIP3    H111088   4.634   4.001   2.654  0.9445 -0.8971  1.2669
 3694TIP3    H211089   4.609   4.147   2.686  1.0576  0.4047 -3.7496
 3695TIP3   OH211090   6.298   1.736   2.083 -0.1649 -0.4008  0.1463
 3695TIP3    H111091   6.388   1.750   2.112  0.3784 -2.2066 -0.4908
 3695TIP3    H211092   6.249   1.721   2.163  0.2716 -0.2226  0.4497
 3696TIP3   OH211093   0.273   3.041   0.202  0.2969 -0.4235 -0.1115
 3696TIP3    H111094   0.227   3.038   0.118  0.4118 -3.5843 -0.1641
 3696TIP3    H211095   0.355   3.086   0.183 -0.3493  0.3042 -1.2927
 3697TIP3   OH211096   0.271   2.434   4.783  0.0188  0.4135  0.1853
 3697TIP3    H111097   0.207   2.477   4.726  0.6531  1.9967  0.6379
 3697TIP3    H211098   0.234   2.347   4.797 -0.6731  0.3240 -1.7856
 3698TIP3   OH211099   5.157   1.832   2.588 -0.3136  0.2185  0.1072
 3698TIP3    H111100   5.093   1.762   2.598  0.3777 -0.1672  2.5564
 3698TIP3    H211101   5.197   1.816   2.502 -0.5532 -2.0774  0.3655
 3699TIP3   OH211102   1.950   2.631   4.785 -0.1621 -0.2696  0.0206
 3699TIP3    H111103   2.038   2.666   4.789  0.7676 -2.5295  1.1976
 3699TIP3    H211104   1.916   2.640   4.874 -0.1826 -1.5817  0.1620
 3700TIP3   OH211105   3.215   0.905   1.849 -0.1921 -0.2206 -0.2113
 3700TIP3    H111106   3.226   0.999   1.843  0.3881 -0.3117 -0.6340
 3700TIP3    H211107   3.302   0.869   1.831  0.2276 -0.7628  2.3764
 3701TIP3   OH211108   5.030   2.349   3.598 -0.0743  0.4763 -0.2211
 3701TIP3    H111109   4.997   2.312   3.516  0.5609 -1.2402  0.2579
 3701TIP3    H211110   4.958   2.336   3.661  0.8635 -2.0020  0.4734
 3702TIP3   OH211111   0.761   0.304   3.171  0.0719 -0.1044  1.0100
 3702TIP3    H111112   0.674   0.271   3.149  1.3851 -1.7610 -2.4771
 3702TIP3    H211113   0.768   0.387   3.123 -0.4034  1.3967  3.3855
 3703TIP3   OH211114   0.681   3.227   2.518  0.4025 -0.4206 -0.2817
 3703TIP3    H111115   0.637   3.194   2.440  0.1115 -0.7409  0.0079
 3703TIP3    H211116   0.682   3.152   2.578  0.0093  0.0041  0.2711
 3704TIP3   OH211117   5.809   1.054   4.603  0.3094 -0.7276 -0.2250
 3704TIP3    H111118   5.903   1.076   4.605 -0.0907  1.1457 -0.0109
 3704TIP3    H211119   5.769   1.127   4.556 -1.2860 -0.5259  1.3418
 3705TIP3   OH211120   4.458   1.139   3.956 -0.8334  0.2275  0.1456
 3705TIP3    H111121   4.382   1.188   3.987 -1.3922 -0.5275  0.0031
 3705TIP3    H211122   4.451   1.054   3.998 -1.5383 -0.7856 -1.8644
 3706TIP3   OH211123   5.885   5.457   0.354 -0.3215  0.0077 -0.1644
 3706TIP3    H111124   5.914   5.473   0.264  1.8734  1.3260  0.7041
 3706TIP3    H211125   5.947   5.393   0.388 -0.1995  0.6757  0.8812
 3707TIP3   OH211126   5.533   4.556   1.067  0.3692  0.1712  0.1467
 3707TIP3    H111127   5.612   4.604   1.041 -0.4610  0.9864 -1.0083
 3707TIP3    H211128   5.543   4.469   1.027 -0.1196  0.8711 -1.6077
 3708TIP3   OH211129   2.971   5.528   0.381  1.1849  0.1598 -0.2312
 3708TIP3    H111130   2.981   5.617   0.347 -0.6345  0.3511 -0.3643
 3708TIP3    H211131   2.983   5.472   0.305  1.3371  0.3501 -0.3479
 3709TIP3   OH211132   4.457   4.036   0.579  0.2138  0.0784  0.2335
 3709TIP3    H111133   4.496   4.111   0.625  1.2016  0.8911 -1.7693
 3709TIP3    H211134   4.527   3.971   0.577  1.2721  1.1347 -2.4434
 3710TIP3   OH211135   2.880   5.172   2.978 -0.5948 -0.2217  0.5542
 3710TIP3    H111136   2.948   5.194   2.914 -2.2024  0.5652 -0.9525
 3710TIP3    H211137   2.903   5.084   3.007 -0.7611 -1.3760 -2.4786
 3711TIP3   OH211138   1.653   0.504   3.201  0.0798 -0.6763  0.7719
 3711TIP3    H111139   1.690   0.511   3.114  0.2999  1.8017  1.0170
 3711TIP3    H211140   1.560   0.484   3.186 -0.3093  1.5715 -0.1434
 3712TIP3   OH211141   5.199   5.210   2.797  0.0515 -0.2610 -1.0101
 3712TIP3    H111142   5.225   5.179   2.884  0.9437  0.1232 -1.1350
 3712TIP3    H211143   5.105   5.223   2.804  0.3135  1.2258  0.3662
 3713TIP3   OH211144   2.722   1.675   3.347  0.2133 -0.1707  0.6749
 3713TIP3    H111145   2.648   1.736   3.343  1.3262  1.2018  0.4973
 3713TIP3    H211146   2.694   1.601   3.293 -0.0397  1.4612 -1.5817
 3714TIP3   OH211147   0.010   4.337   3.208  0.5511  0.2920  0.7137
 3714TIP3    H111148  -0.019   4.369   3.293  1.8548  0.7873  1.0091
 3714TIP3    H211149   0.026   4.244   3.221  2.8379  0.7340  1.6934
 3715TIP3   OH211150   3.326   1.603   2.250  0.1747 -0.2988 -0.0006
 3715TIP3    H111151   3.344   1.534   2.185 -0.5567 -1.5662  1.0854
 3715TIP3    H211152   3.326   1.557   2.334 -0.4105  1.0318  0.7602
 3716TIP3   OH211153   4.219   1.641   4.542  0.0003  0.8591 -0.2106
 3716TIP3    H111154   4.174   1.632   4.458 -0.8259 -1.3510  0.3930
 3716TIP3    H211155   4.296   1.695   4.523  0.5280 -0.6316 -2.6862
 3717TIP3   OH211156   4.165   1.098   3.930 -0.2592 -0.4344 -0.0991
 3717TIP3    H111157   4.173   1.095   4.025  0.3536 -1.1353 -0.1617
 3717TIP3    H211158   4.117   1.018   3.907  1.6775 -1.5303 -0.5472
 3718TIP3   OH211159   3.117   3.607   5.146  0.0378  0.5142  0.5182
 3718TIP3    H111160   3.203   3.595   5.107 -0.5254 -0.3548 -0.5186
 3718TIP3    H211161   3.065   3.648   5.077 -0.3228  1.2718  1.2208
 3719TIP3   OH211162   1.434   1.288   4.895 -0.1979 -0.1446 -0.2390
 3719TIP3    H111163   1.495   1.357   4.871  0.1608  0.0318  1.0922
 3719TIP3    H211164   1.352   1.311   4.851 -0.2307  1.4183  0.5751
 3720TIP3   OH211165   4.637   2.264   0.103 -0.0563 -0.0405 -0.5980
 3720TIP3    H111166   4.572   2.334   0.107 -1.6059 -1.3738 -1.4092
 3720TIP3    H211167   4.676   2.272   0.016 -1.1143 -0.8885 -1.1791
 3721TIP3   OH211168   0.312   4.554   3.757 -0.5768 -0.0999  0.2854
 3721TIP3    H111169   0.307   4.567   3.852 -1.0194 -1.9524  0.5649
 3721TIP3    H211170   0.405   4.539   3.740 -0.4366  0.6823  0.3573
 3722TIP3   OH211171   4.594   1.944   4.979 -0.0505  0.3005  0.4516
 3722TIP3    H111172   4.668   1.938   4.919  0.7759  1.8461  1.2639
 3722TIP3    H211173   4.631   1.926   5.065 -0.8845 -0.1841  0.7225
 3723TIP3   OH211174   0.330   2.264   2.830 -0.1161 -0.4621 -0.5233
 3723TIP3    H111175   0.333   2.357   2.810 -0.0712 -0.6735 -1.5563
 3723TIP3    H211176   0.316   2.221   2.746  0.5448 -1.4334 -0.1620
 3724TIP3   OH211177   5.394   4.532   5.036 -0.1067  1.0558 -0.4564
 3724TIP3    H111178   5.307   4.499   5.060  1.1497 -0.0021  3.3994
 3724TIP3    H211179   5.414   4.598   5.102  1.3588  2.6926 -2.3928
 3725TIP3   OH211180   0.284   5.759   0.963 -0.0544 -0.0263 -0.3880
 3725TIP3    H111181   0.311   5.668   0.972 -0.5250 -0.3471 -1.9547
 3725TIP3    H211182   0.291   5.777   0.870  1.8640  2.1401  0.1059
 3726TIP3   OH211183   3.832   0.695   3.766 -0.0331  0.1046  0.1206
 3726TIP3    H111184   3.855   0.622   3.708  1.6305  1.0599 -0.4894
 3726TIP3    H211185   3.809   0.653   3.849  0.1571 -1.1530 -0.4316
 3727TIP3   OH211186   4.946   3.543   1.530  0.2806 -0.2772  0.0782
 3727TIP3    H111187   4.875   3.573   1.586  1.1478 -0.0875  1.1149
 3727TIP3    H211188   5.012   3.612   1.536  0.2031 -0.0113 -1.5933
 3728TIP3   OH211189   5.366   3.116   5.007  0.2152 -0.4202 -0.8701
 3728TIP3    H111190   5.335   3.081   4.924 -2.7418  0.4262 -0.2702
 3728TIP3    H211191   5.316   3.068   5.073  1.4121 -0.0500  0.3531
 3729TIP3   OH211192   4.336   0.185   2.291  0.0174  0.1817  0.6684
 3729TIP3    H111193   4.424   0.218   2.307  0.5513 -0.9584  0.1862
 3729TIP3    H211194   4.331   0.104   2.342 -0.2849 -0.4215 -0.2871
 3730TIP3   OH211195   1.081   4.367   1.771 -0.1150 -0.4144  0.0131
 3730TIP3    H111196   1.058   4.312   1.845 -1.5102 -0.5014 -0.4582
 3730TIP3    H211197   1.093   4.454   1.808 -0.6642 -0.4852  0.3618
 3731TIP3   OH211198   2.337   4.482   1.587 -0.7487  0.1376  0.3397
 3731TIP3    H111199   2.428   4.511   1.593 -0.9555  0.7148  0.7266
 3731TIP3    H211200   2.309   4.507   1.499 -0.7849  0.6996  0.5104
 3732TIP3   OH211201   6.188   2.323   3.253  0.5235 -0.1330  0.0457
 3732TIP3    H111202   6.183   2.388   3.183  3.7256  0.4207  0.1973
 3732TIP3    H211203   6.159   2.370   3.331  0.1235  0.2595 -0.3332
 3733TIP3   OH211204   5.882   0.996   0.352  0.3006  0.2433 -0.3158
 3733TIP3    H111205   5.919   0.954   0.274 -0.2487  0.9749 -0.9764
 3733TIP3    H211206   5.943   0.972   0.422  1.1652  0.1134 -1.0816
 3734TIP3   OH211207   3.711   2.247   4.708  0.1241  0.4841 -0.2323
 3734TIP3    H111208   3.653   2.262   4.783  1.2382  0.8565  0.5748
 3734TIP3    H211209   3.790   2.207   4.745 -0.1704 -1.4317 -1.5149
 3735TIP3   OH211210   2.465   4.821   3.920 -0.7341 -0.5395  0.2308
 3735TIP3    H111211   2.453   4.858   3.832 -0.0676  1.1006  0.7759
 3735TIP3    H211212   2.488   4.730   3.905  1.9294  0.2846 -1.4895
 3736TIP3   OH211213   6.093   0.917   0.533  0.2390  0.1562 -0.1589
 3736TIP3    H111214   6.164   0.942   0.592 -0.7249  1.5890  0.4514
 3736TIP3    H211215   6.085   0.822   0.543  0.2337  0.3436  1.8669
 3737TIP3   OH211216   4.101   2.370   1.987 -0.6769 -0.2651 -0.4639
 3737TIP3    H111217   4.098   2.439   2.054  1.0595  0.2669 -0.8963
 3737TIP3    H211218   4.075   2.291   2.034 -2.5272  0.6120  0.0903
 3738TIP3   OH211219   1.114   2.510   4.997  0.0792 -0.2593 -0.0608
 3738TIP3    H111220   1.185   2.478   4.941 -1.0598 -1.4551 -0.9097
 3738TIP3    H211221   1.042   2.527   4.936 -0.4377  0.7586  0.7944
 3739TIP3   OH211222   4.772   0.578   4.507  0.1971 -0.4240 -0.3436
 3739TIP3    H111223   4.819   0.657   4.480 -1.2547  1.1815  1.5263
 3739TIP3    H211224   4.779   0.519   4.432  0.9729  1.6296 -1.9860
 3740TIP3   OH211225   4.989   2.398   3.224  0.1529  0.3261 -0.4961
 3740TIP3    H111226   4.972   2.442   3.141  0.8570 -0.5204 -1.1065
 3740TIP3    H211227   4.923   2.329   3.229 -1.6639  2.0444  0.9780
 3741TIP3   OH211228   5.417   3.036   3.055 -0.2036 -0.2419  0.2555
 3741TIP3    H111229   5.336   2.986   3.042  0.8118 -2.2233  1.2281
 3741TIP3    H211230   5.425   3.088   2.975 -2.3334 -0.0969  0.0567
 3742TIP3   OH211231   4.900   1.242   2.734  0.2198 -0.0442  0.2785
 3742TIP3    H111232   4.834   1.307   2.710  0.1388 -0.4668 -0.6720
 3742TIP3    H211233   4.971   1.255   2.671  0.1197 -1.0004 -0.0428
 3743TIP3   OH211234   1.708   5.868   3.791 -0.0441  0.2718 -0.1198
 3743TIP3    H111235   1.622   5.904   3.809 -0.2591  0.3449 -1.1917
 3743TIP3    H211236   1.723   5.887   3.698  0.5185 -0.9738 -0.3071
 3744TIP3   OH211237   2.894   5.592   2.910 -0.4858  0.0631 -0.3077
 3744TIP3    H111238   2.933   5.507   2.933  0.5057  0.6826  0.4105
 3744TIP3    H211239   2.959   5.634   2.854  0.8977  1.9118  2.4402
 3745TIP3   OH211240   0.938   4.106   1.729  0.0708 -0.5410  0.2770
 3745TIP3    H111241   0.931   4.119   1.824 -0.1475 -1.2324  0.3583
 3745TIP3    H211242   1.033   4.104   1.712  0.1126  0.4150  0.3585
 3746TIP3   OH211243   2.244   4.579   3.654  0.1962 -0.1745  0.1385
 3746TIP3    H111244   2.310   4.514   3.678  1.8604  0.7157 -1.7691
 3746TIP3    H211245   2.283   4.626   3.580 -1.9420  1.4396 -0.0290
 3747TIP3   OH211246   1.740   0.162   2.231 -0.1805 -0.1703  0.0994
 3747TIP3    H111247   1.770   0.117   2.152  2.1398 -0.6147  1.1564
 3747TIP3    H211248   1.817   0.167   2.287 -1.5326  0.9395  1.9940
 3748TIP3   OH211249   3.117   1.283   0.405 -0.3083  0.3546  0.5177
 3748TIP3    H111250   3.166   1.364   0.390 -0.6081  0.2626 -1.0722
 3748TIP3    H211251   3.073   1.297   0.489  0.9903  1.1511  1.0994
 3749TIP3   OH211252   5.349   2.478   2.520  0.0264 -0.3542  0.2457
 3749TIP3    H111253   5.417   2.412   2.526  0.7012 -0.0023 -2.2722
 3749TIP3    H211254   5.392   2.560   2.546 -0.6372 -0.6866  2.7145
 3750TIP3   OH211255   4.423   1.695   1.751  0.3712 -0.0436 -0.4046
 3750TIP3    H111256   4.467   1.646   1.681  1.6168  1.7168 -0.9236
 3750TIP3    H211257   4.494   1.744   1.793 -0.4003 -0.7455  1.8831
 3751TIP3   OH211258   1.479   0.794   1.586 -0.3946  0.0997 -0.0881
 3751TIP3    H111259   1.487   0.885   1.558 -0.3576  0.4371  0.9732
 3751TIP3    H211260   1.450   0.799   1.677  0.1351 -0.9361  0.1620
 3752TIP3   OH211261   5.637   5.901   4.067  0.1849 -0.0554 -0.3078
 3752TIP3    H111262   5.601   5.932   3.984  0.9026 -0.4838 -0.7912
 3752TIP3    H211263   5.651   5.981   4.118 -1.6558  0.1142  0.0043
 3753TIP3   OH211264   1.251   0.205   3.187  0.2821  0.1302 -0.1565
 3753TIP3    H111265   1.237   0.123   3.140 -0.7703 -0.3401  0.9347
 3753TIP3    H211266   1.206   0.271   3.134 -1.7959 -0.5558  0.6484
 3754TIP3   OH211267   2.251   4.881   4.078 -0.3829  0.4983 -0.1039
 3754TIP3    H111268   2.328   4.863   4.025  0.0492 -0.4694  0.8097
 3754TIP3    H211269   2.180   4.833   4.034 -0.4273  1.1868 -0.8047
 3755TIP3   OH211270   0.267   3.731   3.717  0.1411  0.1332  0.1989
 3755TIP3    H111271   0.277   3.676   3.795  1.9840  0.6069  0.3259
 3755TIP3    H211272   0.278   3.671   3.643 -0.6873 -0.1434  0.2801
 3756TIP3   OH211273   1.809   2.780   0.728  0.3924  0.7460 -0.2304
 3756TIP3    H111274   1.799   2.756   0.821  0.2698  1.8129  0.0485
 3756TIP3    H211275   1.897   2.816   0.722  0.2235  1.1341 -0.4164
 3757TIP3   OH211276   0.542   0.998   4.417 -0.2122 -0.2233 -0.5825
 3757TIP3    H111277   0.457   0.984   4.375 -1.3666 -1.7299  2.0210
 3757TIP3    H211278   0.564   0.913   4.455  1.2152  0.7925  0.9815
 3758TIP3   OH211279   5.145   2.988   0.984 -0.0652 -0.5068  0.4259
 3758TIP3    H111280   5.223   3.041   1.001  0.1651 -0.6789 -0.0798
 3758TIP3    H211281   5.168   2.935   0.908 -0.3905 -1.1423  0.7621
 3759TIP3   OH211282   0.697   3.764   4.164  0.1572 -0.2892 -0.3934
 3759TIP3    H111283   0.783   3.752   4.204 -0.7892  0.1338  1.9070
 3759TIP3    H211284   0.698   3.855   4.134 -0.2622  0.4798  1.7727
 3760TIP3   OH211285   2.500   0.894   2.082  0.6258  0.1280  0.2096
 3760TIP3    H111286   2.489   0.974   2.030  1.1051  0.5352  0.7381
 3760TIP3    H211287   2.410   0.866   2.101  0.4239 -0.2216 -1.1195
 3761TIP3   OH211288   5.621   1.078   2.008  0.3924 -0.1658 -0.3675
 3761TIP3    H111289   5.617   1.143   1.938  1.0581 -0.4613 -0.6902
 3761TIP3    H211290   5.633   1.130   2.088  0.2783  0.1407 -0.5469
 3762TIP3   OH211291   2.534   1.630   4.092  0.7208  0.4030  0.2291
 3762TIP3    H111292   2.549   1.570   4.166 -2.8897  0.9520  1.5941
 3762TIP3    H211293   2.565   1.715   4.124  0.3911  0.3853  0.5995
 3763TIP3   OH211294   3.972   0.507   2.089  0.1862 -0.0280  0.1906
 3763TIP3    H111295   3.885   0.530   2.119 -0.1169  1.5172 -1.6679
 3763TIP3    H211296   4.027   0.581   2.115  0.4982 -0.0312 -0.4335
 3764TIP3   OH211297   4.983   3.881   4.994  0.0305  0.2746  0.2759
 3764TIP3    H111298   5.020   3.879   4.906 -0.9831  1.6451 -0.2044
 3764TIP3    H211299   4.940   3.966   5.000  0.1232  0.2231  2.1159
 3765TIP3   OH211300   4.695   0.859   1.595 -0.2496 -0.1974 -0.0749
 3765TIP3    H111301   4.702   0.788   1.659  0.9608  0.1873  0.2495
 3765TIP3    H211302   4.785   0.889   1.583 -0.7045  1.0905 -0.4242
 3766TIP3   OH211303   5.986   2.296   0.346 -0.1773  0.0381  0.2411
 3766TIP3    H111304   5.920   2.365   0.349 -0.9066 -0.6093 -0.3058
 3766TIP3    H211305   6.066   2.340   0.319 -0.3609  0.8577  1.0135
 3767TIP3   OH211306   1.187   2.830   0.097 -0.9913  0.7574 -0.3642
 3767TIP3    H111307   1.236   2.863   0.022  0.7702  0.9390  0.8210
 3767TIP3    H211308   1.215   2.886   0.170 -1.5739 -0.3292  0.7193
 3768TIP3   OH211309   2.019   3.808   5.153 -0.2604  0.2985 -0.0383
 3768TIP3    H111310   2.080   3.831   5.223  0.6265 -1.5159 -0.1560
 3768TIP3    H211311   2.050   3.858   5.077  0.4535  0.1691  0.1647
 3769TIP3   OH211312   0.158   5.548   3.769 -0.2439  0.0020 -0.4791
 3769TIP3    H111313   0.180   5.566   3.861 -1.3115 -0.5569 -0.0868
 3769TIP3    H211314   0.232   5.499   3.735 -0.2681 -0.6802  0.4007
 3770TIP3   OH211315   3.690   4.811   3.561  0.0336  0.1164 -0.4981
 3770TIP3    H111316   3.602   4.777   3.575  0.7452 -1.5382  0.2615
 3770TIP3    H211317   3.733   4.746   3.506  1.5915 -0.5704  1.4005
 3771TIP3   OH211318   1.188   2.887   4.439 -0.2386 -0.2745  0.1379
 3771TIP3    H111319   1.226   2.819   4.383 -1.9726  0.2053 -1.7296
 3771TIP3    H211320   1.237   2.967   4.417 -0.6317 -0.1771 -0.3979
 3772TIP3   OH211321   0.936   5.732   3.826 -1.0189 -0.1033 -0.5568
 3772TIP3    H111322   0.910   5.691   3.909 -1.2196  0.5308 -0.2993
 3772TIP3    H211323   0.986   5.809   3.853 -1.1288  0.1313 -1.0233
 3773TIP3   OH211324   3.969   1.488   0.168  0.4992 -0.4684  0.2804
 3773TIP3    H111325   3.952   1.394   0.168  0.1514 -0.4124 -0.1325
 3773TIP3    H211326   4.052   1.497   0.121 -0.2872 -0.4569 -1.2047
 3774TIP3   OH211327   4.811   0.941   2.240 -0.0147  0.1638 -0.8213
 3774TIP3    H111328   4.726   0.908   2.268  1.4467 -1.6112  2.0390
 3774TIP3    H211329   4.844   0.875   2.180 -0.1052  0.1808 -0.8902
 3775TIP3   OH211330   1.162   3.889   3.033  0.3647 -0.2610  0.7450
 3775TIP3    H111331   1.204   3.916   2.951  0.6079 -1.4110  0.4750
 3775TIP3    H211332   1.148   3.970   3.081  0.2483  0.4304 -0.4308
 3776TIP3   OH211333   6.195   3.977   1.847 -0.0137  0.3045 -0.1363
 3776TIP3    H111334   6.140   3.969   1.769 -1.0662 -0.1879  0.6218
 3776TIP3    H211335   6.145   4.034   1.906 -1.5303 -2.9834  2.0168
 3777TIP3   OH211336   0.178   2.138   0.155 -0.3098  0.4276  0.1450
 3777TIP3    H111337   0.242   2.200   0.189  0.1239  1.5737 -2.5093
 3777TIP3    H211338   0.229   2.060   0.134 -0.5263 -0.1640  1.7169
 3778TIP3   OH211339   3.746   0.414   0.152 -0.5399 -0.2263  0.4337
 3778TIP3    H111340   3.755   0.498   0.198  0.4386  0.8373 -1.5845
 3778TIP3    H211341   3.651   0.399   0.150 -1.0122  2.2920 -1.5398
 3779TIP3   OH211342   5.833   3.934   4.926  0.2308 -0.2143  0.1926
 3779TIP3    H111343   5.767   3.975   4.870  1.0395  0.4084 -0.3275
 3779TIP3    H211344   5.794   3.850   4.951 -1.5659  0.9357  1.4863
 3780TIP3   OH211345   2.040   0.053   3.224  0.2444 -0.2855 -0.0824
 3780TIP3    H111346   2.011   0.054   3.133 -0.2366  1.5049  0.0512
 3780TIP3    H211347   2.050   0.145   3.247  0.3279 -0.7015  1.6959
 3781TIP3   OH211348   1.135   1.263   1.164 -0.3090 -0.0140 -0.0269
 3781TIP3    H111349   1.078   1.324   1.116 -1.8939 -1.4808 -0.1068
 3781TIP3    H211350   1.169   1.204   1.096  0.9890  0.5657  0.0879
 3782TIP3   OH211351   0.628   3.981   3.516  0.1055  0.2327 -0.7398
 3782TIP3    H111352   0.559   3.939   3.566 -0.1763  1.7804  0.2246
 3782TIP3    H211353   0.677   3.908   3.476 -1.0791 -0.9320 -0.1267
 3783TIP3   OH211354   4.196   5.171   0.685  0.2989 -0.0725  0.0023
 3783TIP3    H111355   4.155   5.188   0.601  0.6989  0.3377 -0.1140
 3783TIP3    H211356   4.284   5.209   0.677  0.5680 -0.5963  0.3737
 3784TIP3   OH211357   0.288   4.244   1.814  0.2362  0.0562  0.1561
 3784TIP3    H111358   0.256   4.186   1.745 -0.3778  0.4860  0.0770
 3784TIP3    H211359   0.359   4.293   1.772 -1.6750  2.0684 -0.9786
 3785TIP3   OH211360   5.872   2.079   0.221  0.3786 -0.0070  0.8558
 3785TIP3    H111361   5.917   2.154   0.260 -0.8015  1.2828 -0.1659
 3785TIP3    H211362   5.930   2.050   0.150  0.4309  0.5133  0.6825
 3786TIP3   OH211363   1.528   5.372   4.738  0.0363 -0.0508  0.0360
 3786TIP3    H111364   1.502   5.410   4.822  0.9195 -1.0266  0.7713
 3786TIP3    H211365   1.623   5.360   4.745 -0.2462 -2.9355  0.1209
 3787TIP3   OH211366   1.461   2.282   1.984  0.1231 -0.0778  0.4618
 3787TIP3    H111367   1.383   2.279   2.038 -0.1669  0.7213  0.0970
 3787TIP3    H211368   1.428   2.278   1.894  0.5766 -1.0250  0.3243
 3788TIP3   OH211369   4.884   3.383   1.820 -0.6042  0.5896  0.0197
 3788TIP3    H111370   4.806   3.412   1.772  0.5525  5.0911  0.4374
 3788TIP3    H211371   4.947   3.360   1.752 -0.8469  1.3688 -0.4891
 3789TIP3   OH211372   5.239   2.110   0.219 -0.1802  0.6321 -0.3118
 3789TIP3    H111373   5.259   2.034   0.164 -0.4678  0.3029  0.0336
 3789TIP3    H211374   5.156   2.143   0.183 -0.5218  0.2399  0.1032
 3790TIP3   OH211375   0.746   3.795   2.911 -0.0869 -0.0331 -0.0674
 3790TIP3    H111376   0.676   3.775   2.973  0.8722 -0.0006  1.0621
 3790TIP3    H211377   0.701   3.813   2.828 -1.4017  0.0030  0.6349
 3791TIP3   OH211378   0.251   0.933   1.035  0.1012  0.1402  0.0680
 3791TIP3    H111379   0.277   0.961   0.947 -1.4004 -0.5863 -0.6491
 3791TIP3    H211380   0.290   0.847   1.045  3.1823  1.5550  1.5529
 3792TIP3   OH211381   3.719   4.127   1.919 -0.2016  0.8393  0.3912
 3792TIP3    H111382   3.659   4.156   1.988 -2.4753  0.9362 -1.5003
 3792TIP3    H211383   3.726   4.033   1.931 -1.8756  0.6137 -0.1211
 3793TIP3   OH211384   2.380   5.162   3.924  0.5787 -0.1690  0.2639
 3793TIP3    H111385   2.434   5.240   3.911 -0.7383  0.8815  0.9368
 3793TIP3    H211386   2.388   5.114   3.841 -1.1654  2.3140 -1.4837
 3794TIP3   OH211387   0.150   1.526   3.522  0.3457 -0.0235  0.1334
 3794TIP3    H111388   0.164   1.565   3.609  1.5013 -0.4458  0.1504
 3794TIP3    H211389   0.219   1.563   3.468  0.3257 -0.6379 -0.3197
 3795TIP3   OH211390   0.726   4.756   0.518 -0.1994 -0.1034 -0.0573
 3795TIP3    H111391   0.795   4.813   0.486 -0.6103  1.3995  1.5960
 3795TIP3    H211392   0.766   4.708   0.590 -0.4787 -0.2900 -0.0234
 3796TIP3   OH211393   4.375   2.328   2.053  0.5127 -0.4764 -0.5641
 3796TIP3    H111394   4.305   2.367   2.001  0.6961 -1.8872 -1.9379
 3796TIP3    H211395   4.456   2.359   2.012  0.6588 -1.7682 -1.3073
 3797TIP3   OH211396   4.942   0.213   3.308 -0.9041  0.5172 -0.2142
 3797TIP3    H111397   5.017   0.226   3.365 -0.9993 -0.1655  0.0674
 3797TIP3    H211398   4.947   0.286   3.246 -0.4176  0.8773  0.2380
 3798TIP3   OH211399   5.291   0.460   2.244  0.6741 -0.0681 -0.6739
 3798TIP3    H111400   5.249   0.546   2.241  0.6797  0.1469  2.3144
 3798TIP3    H211401   5.218   0.398   2.251  0.7145 -0.2477 -1.6512
 3799TIP3   OH211402   3.802   5.220   4.901  0.3064  0.4098  0.3472
 3799TIP3    H111403   3.868   5.151   4.907  0.4363  0.4271 -0.6735
 3799TIP3    H211404   3.770   5.230   4.990 -0.1868 -1.4308  0.4130
 3800TIP3   OH211405   0.591   1.079   5.155 -0.0198 -0.5442  0.7677
 3800TIP3    H111406   0.601   1.157   5.100 -1.5197 -1.1117 -0.3833
 3800TIP3    H211407   0.651   1.093   5.228  0.9902  0.8933 -0.2937
 3801TIP3   OH211408   5.680   1.649   3.135 -0.1319  0.2248  0.2197
 3801TIP3    H111409   5.688   1.738   3.170 -0.9857  0.4225 -0.0877
 3801TIP3    H211410   5.742   1.646   3.062  0.8687  0.1456  1.0360
 3802TIP3   OH211411   2.356   2.457   0.544  0.0262 -0.3086 -0.1164
 3802TIP3    H111412   2.432   2.484   0.492  0.7041 -0.9973  0.4965
 3802TIP3    H211413   2.339   2.531   0.602  1.4008 -0.8566  1.0297
 3803TIP3   OH211414   1.075   2.204   1.099 -0.7847 -0.4062  0.0342
 3803TIP3    H111415   1.011   2.268   1.131 -1.5605 -1.2502  0.1955
 3803TIP3    H211416   1.075   2.135   1.165  0.5582 -0.2569  0.2061
 3804TIP3   OH211417   5.602   3.592   4.791  0.2806 -0.0904  0.0038
 3804TIP3    H111418   5.630   3.664   4.734  0.7667 -1.1983 -1.2110
 3804TIP3    H211419   5.665   3.593   4.864  0.3810  0.5937 -0.0874
 3805TIP3   OH211420   5.346   2.777   4.859 -0.1136 -0.2497  0.1718
 3805TIP3    H111421   5.354   2.860   4.812  2.3694 -1.1517 -1.1635
 3805TIP3    H211422   5.345   2.802   4.952  0.6809  1.2645 -0.1930
 3806TIP3   OH211423   6.274   3.408   3.670  0.4355  0.1756 -0.1084
 3806TIP3    H111424   6.326   3.470   3.721  0.8539  0.2342 -0.6017
 3806TIP3    H211425   6.301   3.422   3.579 -0.1118 -0.1113 -0.3212
 3807TIP3   OH211426   2.150   4.811   3.834 -0.2372  0.0118 -0.3857
 3807TIP3    H111427   2.210   4.885   3.847  0.6006 -0.7066 -0.0006
 3807TIP3    H211428   2.198   4.751   3.777 -0.6087 -0.5519 -0.1172
 3808TIP3   OH211429   1.808   2.653   4.544  0.0141 -0.1391  0.2096
 3808TIP3    H111430   1.840   2.620   4.628 -0.7146  0.6464  0.8180
 3808TIP3    H211431   1.829   2.746   4.545  0.8202 -0.2917 -0.8901
 3809TIP3   OH211432   4.928   0.795   5.082 -0.1671 -0.5406  0.2402
 3809TIP3    H111433   4.947   0.720   5.139 -0.7306  0.3609  1.6505
 3809TIP3    H211434   4.890   0.861   5.140 -2.0933 -0.0906 -1.4072
 3810TIP3   OH211435   0.863   2.729   4.709  0.0621  0.0479  0.0085
 3810TIP3    H111436   0.860   2.813   4.664  0.5513 -0.5238 -1.1364
 3810TIP3    H211437   0.956   2.710   4.721 -0.0156 -0.6530 -0.3988
 3811TIP3   OH211438   2.850   5.740   3.287 -0.1436  0.4107  0.1396
 3811TIP3    H111439   2.850   5.823   3.334 -2.5838  0.1561  0.6919
 3811TIP3    H211440   2.802   5.758   3.206  0.9356 -0.0329 -0.6267
 3812TIP3   OH211441   2.913   3.565   3.341  0.0630 -0.0476 -0.0029
 3812TIP3    H111442   2.976   3.525   3.402 -0.0513  0.0357  0.1707
 3812TIP3    H211443   2.932   3.524   3.257  0.9532  0.6360 -0.1476
 3813TIP3   OH211444   5.056   2.340   0.597  0.3650  0.6525 -0.7181
 3813TIP3    H111445   5.062   2.383   0.512 -1.0945 -0.9280 -1.6831
 3813TIP3    H211446   5.047   2.247   0.576  1.8652 -0.0028  1.2310
 3814TIP3   OH211447   1.258   4.891   1.004 -0.0359 -0.6406 -0.2028
 3814TIP3    H111448   1.320   4.819   0.993  0.4808 -0.2710  0.2640
 3814TIP3    H211449   1.208   4.868   1.082  0.2946 -0.3840  0.0904
 3815TIP3   OH211450   2.825   2.063   0.452 -0.1542 -0.1561 -0.4747
 3815TIP3    H111451   2.818   2.056   0.357  0.2503 -0.9778 -0.4562
 3815TIP3    H211452   2.757   2.004   0.486 -0.3003  0.1365 -0.2555
 3816TIP3   OH211453   3.593   3.623   1.380 -0.1898  0.3778  0.7778
 3816TIP3    H111454   3.521   3.561   1.369  1.7027 -1.7763 -0.1991
 3816TIP3    H211455   3.628   3.603   1.467  0.9223 -0.5828  0.1494
 3817TIP3   OH211456   1.449   2.637   3.131 -0.1561 -0.2752  0.0904
 3817TIP3    H111457   1.494   2.567   3.083 -0.8077 -1.2687  0.8804
 3817TIP3    H211458   1.370   2.595   3.165 -0.9963  1.0768 -0.1237
 3818TIP3   OH211459   0.822   1.109   2.366  0.0692 -0.0797 -0.4720
 3818TIP3    H111460   0.842   1.198   2.338  0.2955  0.7835  2.2310
 3818TIP3    H211461   0.730   1.113   2.392 -0.2540 -0.9702 -1.3942
 3819TIP3   OH211462   0.358   1.002   3.757 -0.3067 -0.4518 -0.1632
 3819TIP3    H111463   0.412   1.016   3.835  0.8429 -1.7183 -0.7054
 3819TIP3    H211464   0.319   0.916   3.770 -0.4716 -0.4739 -0.7919
 3820TIP3   OH211465   1.807   5.870   1.792  0.0923 -0.1264  0.0948
 3820TIP3    H111466   1.791   5.940   1.855 -0.1401 -0.1524  0.0628
 3820TIP3    H211467   1.721   5.845   1.761  0.2640  0.8033 -1.2281
 3821TIP3   OH211468   6.129   5.923   1.986  0.1065 -0.0320  0.2164
 3821TIP3    H111469   6.076   5.849   1.956 -0.4360  0.0793  0.8946
 3821TIP3    H211470   6.117   5.990   1.919 -0.7999  0.0781  0.4787
 3822TIP3   OH211471   2.909   1.024   2.044 -0.2993 -0.0052 -0.2044
 3822TIP3    H111472   2.939   0.980   1.964 -1.5372  0.8179 -1.1498
 3822TIP3    H211473   2.825   0.984   2.063 -0.4571  0.4743  0.1234
 3823TIP3   OH211474   1.710   0.833   0.623 -0.2333 -0.1361 -0.3633
 3823TIP3    H111475   1.629   0.828   0.673 -1.3097  0.9448 -1.9001
 3823TIP3    H211476   1.690   0.791   0.539  0.3350  1.2779 -1.2617
 3824TIP3   OH211477   4.071   4.924   1.949 -0.2917  0.3772 -0.2537
 3824TIP3    H111478   4.041   4.967   1.869  1.3901  0.5776 -0.7969
 3824TIP3    H211479   4.082   4.832   1.924 -0.6396  0.2600  0.0066
 3825TIP3   OH211480   1.628   4.020   4.371  0.4721  0.4142  0.0955
 3825TIP3    H111481   1.693   4.003   4.439  1.3325 -0.3986 -0.8992
 3825TIP3    H211482   1.678   4.023   4.289 -0.2788  3.0440 -0.3928
 3826TIP3   OH211483   3.527   1.117   0.949  0.2880  0.2462 -0.5305
 3826TIP3    H111484   3.569   1.196   0.983  2.1562 -0.9115  0.0079
 3826TIP3    H211485   3.542   1.119   0.855  2.0436 -0.3712 -0.2971
 3827TIP3   OH211486   0.038   1.221   0.175  0.4274  0.1318 -0.3425
 3827TIP3    H111487   0.081   1.268   0.104 -1.7109  1.6988 -0.7236
 3827TIP3    H211488   0.028   1.286   0.245 -0.6382 -0.3494 -0.0122
 3828TIP3   OH211489   0.875   5.110   1.747 -0.1253 -0.4521 -0.7172
 3828TIP3    H111490   0.852   5.062   1.827 -0.5569  1.8866  0.6474
 3828TIP3    H211491   0.792   5.144   1.714  0.2454 -0.0139 -1.2276
 3829TIP3   OH211492   1.505   0.129   3.279  0.0826 -0.5028 -0.6411
 3829TIP3    H111493   1.526   0.049   3.230 -0.7068 -0.8738 -0.3922
 3829TIP3    H211494   1.440   0.173   3.225  0.8976  0.2481 -1.0329
 3830TIP3   OH211495   5.943   4.546   0.633 -0.9032  0.1890 -0.4266
 3830TIP3    H111496   5.982   4.633   0.640  0.7011 -0.5452  0.1156
 3830TIP3    H211497   5.977   4.511   0.550 -0.1277 -0.5737  0.1992
 3831TIP3   OH211498   5.357   3.839   3.310 -0.0070 -0.1827  0.4366
 3831TIP3    H111499   5.261   3.844   3.302 -0.0847 -0.4802  1.0898
 3831TIP3    H211500   5.371   3.795   3.394  0.7068 -1.0005 -0.1018
 3832TIP3   OH211501   1.254   2.000   3.848 -0.2560  0.2037 -0.7664
 3832TIP3    H111502   1.209   1.957   3.775 -0.2045 -0.1639 -0.5816
 3832TIP3    H211503   1.346   1.977   3.837 -0.5405 -1.9582  0.8181
 3833TIP3   OH211504   0.590   1.350   4.134 -0.5838  0.4720 -0.3573
 3833TIP3    H111505   0.577   1.308   4.218 -0.4200  1.0946 -0.0131
 3833TIP3    H211506   0.649   1.292   4.086  0.4779  0.8286  0.4961
 3834TIP3   OH211507   5.802   3.905   0.972  0.9301 -0.2592 -0.3006
 3834TIP3    H111508   5.734   3.849   0.935  0.3815  0.6619 -0.7072
 3834TIP3    H211509   5.878   3.890   0.916  1.2001 -1.5611  0.3651
 3835TIP3   OH211510   0.144   2.361   4.340  0.2470 -0.1910 -0.0338
 3835TIP3    H111511   0.173   2.430   4.280 -1.1872 -1.2429 -2.0441
 3835TIP3    H211512   0.091   2.303   4.286 -2.9804 -0.0798  2.7292
 3836TIP3   OH211513   2.826   5.916   1.638 -0.4251  0.4242  0.0399
 3836TIP3    H111514   2.811   5.852   1.708  1.2244 -0.1002 -0.0442
 3836TIP3    H211515   2.754   5.901   1.576  0.4236 -2.0736 -0.4633
 3837TIP3   OH211516   4.276   2.431   0.333 -0.1658  0.0112  0.1979
 3837TIP3    H111517   4.199   2.469   0.289 -1.6498 -1.8506  1.0418
 3837TIP3    H211518   4.335   2.409   0.261 -0.9770  0.2936 -0.5840
 3838TIP3   OH211519   5.373   2.366   3.693 -0.5078 -0.1212 -0.2325
 3838TIP3    H111520   5.321   2.444   3.672  1.1906  0.8082 -1.2191
 3838TIP3    H211521   5.441   2.398   3.752  0.5539 -0.7213 -1.1044
 3839TIP3   OH211522   5.088   0.540   4.068  0.1745  0.5950 -0.1851
 3839TIP3    H111523   5.178   0.510   4.068 -0.3386 -1.0482 -0.1069
 3839TIP3    H211524   5.037   0.465   4.037 -1.3585  0.7520  1.7029
 3840TIP3   OH211525   4.702   4.365   3.832  0.1007 -0.1346 -0.5121
 3840TIP3    H111526   4.779   4.308   3.825 -0.1533 -0.5243 -0.1844
 3840TIP3    H211527   4.720   4.419   3.909 -0.6521 -1.3266  0.5426
 3841TIP3   OH211528   3.784   1.854   4.025  0.0856 -0.7556  0.0235
 3841TIP3    H111529   3.788   1.794   4.099 -1.2010  1.2526  1.8664
 3841TIP3    H211530   3.722   1.814   3.965  0.2830 -1.9024  0.5682
 3842TIP3   OH211531   2.525   3.607   4.397 -0.5284 -0.2167  0.0207
 3842TIP3    H111532   2.433   3.629   4.380 -0.4750  1.4994  1.6775
 3842TIP3    H211533   2.521   3.539   4.465 -0.5673 -0.0346  0.2001
 3843TIP3   OH211534   4.971   1.331   4.130 -0.2962 -0.3822  0.5224
 3843TIP3    H111535   4.982   1.355   4.038  0.6659  0.1075  0.7544
 3843TIP3    H211536   5.037   1.264   4.146  0.9269  0.9679  1.3613
 3844TIP3   OH211537   3.150   3.349   1.989  0.3270  0.2674 -0.2727
 3844TIP3    H111538   3.181   3.434   1.961 -1.3029  0.3843 -1.9164
 3844TIP3    H211539   3.109   3.365   2.074  0.7381  0.9515 -0.1965
 3845TIP3   OH211540   1.201   2.651   0.354 -0.0553  0.3243 -0.1715
 3845TIP3    H111541   1.148   2.573   0.371  1.0423 -0.3582  0.2224
 3845TIP3    H211542   1.193   2.665   0.260 -0.6100 -0.0009 -0.1796
 3846TIP3   OH211543   0.139   2.625   3.002  0.0865  0.3290 -0.3980
 3846TIP3    H111544   0.136   2.703   2.947 -2.2901  0.5613 -0.0270
 3846TIP3    H211545   0.226   2.627   3.041 -0.4387  3.7721  0.9397
 3847TIP3   OH211546   3.437   5.214   3.446 -0.4559  0.5136 -0.3501
 3847TIP3    H111547   3.503   5.185   3.508 -2.0387 -2.4417  0.1392
 3847TIP3    H211548   3.408   5.134   3.402 -3.0222  1.7970 -1.2258
 3848TIP3   OH211549   0.181   0.072   4.036 -0.2866 -0.2397 -0.0325
 3848TIP3    H111550   0.251   0.051   3.975  0.3809  1.1214  0.2308
 3848TIP3    H211551   0.111   0.109   3.980  1.2789  3.4123  0.1387
 3849TIP3   OH211552   6.162   0.764   1.894 -0.0812 -0.3090  0.0117
 3849TIP3    H111553   6.151   0.715   1.976 -0.2645 -1.1842 -0.5284
 3849TIP3    H211554   6.219   0.710   1.841 -0.7463 -0.2100 -0.8202
 3850TIP3   OH211555   2.445   0.179   1.217  0.3360  0.5268  0.1985
 3850TIP3    H111556   2.498   0.232   1.157  1.4353  1.1180  1.6202
 3850TIP3    H211557   2.478   0.090   1.206 -0.7256  0.3002 -1.3667
 3851TIP3   OH211558   0.494   0.206   0.580  0.1910 -0.5517  0.3310
 3851TIP3    H111559   0.542   0.158   0.513  1.9308  0.7921  0.5525
 3851TIP3    H211560   0.424   0.146   0.607  1.1168 -2.1805 -0.7229
 3852TIP3   OH211561   3.124   3.861   1.641  0.3108 -0.5685 -0.0032
 3852TIP3    H111562   3.176   3.870   1.721 -1.0798 -2.7298  1.2367
 3852TIP3    H211563   3.116   3.951   1.608 -0.7044  0.7528  3.3799
 3853TIP3   OH211564   0.575   5.637   2.570  0.6127 -0.5132  0.1224
 3853TIP3    H111565   0.623   5.719   2.563  0.0631 -0.0766  1.2394
 3853TIP3    H211566   0.505   5.655   2.633 -0.2108 -1.5102 -0.4622
 3854TIP3   OH211567   2.621   4.430   1.857 -0.9000 -0.1219 -0.3092
 3854TIP3    H111568   2.691   4.490   1.884 -0.6889 -0.2029 -0.6666
 3854TIP3    H211569   2.542   4.483   1.863 -0.7668  0.0724 -0.2235
 3855TIP3   OH211570   2.450   1.593   1.327  0.0141  0.4248 -0.2073
 3855TIP3    H111571   2.398   1.601   1.247  1.1844  1.1683 -0.9160
 3855TIP3    H211572   2.532   1.551   1.299 -0.3688 -1.2251  0.9855
 3856TIP3   OH211573   4.607   4.932   1.128 -0.6236  0.2223  0.1412
 3856TIP3    H111574   4.524   4.927   1.081 -1.0801  1.9817  0.6970
 3856TIP3    H211575   4.652   4.850   1.106 -2.7685 -1.0908  0.3945
 3857TIP3   OH211576   1.506   2.717   0.801 -0.2985 -0.0088 -0.2945
 3857TIP3    H111577   1.571   2.652   0.829  0.3280  0.4845 -0.6098
 3857TIP3    H211578   1.484   2.692   0.712  0.4815  0.6356 -0.6737
 3858TIP3   OH211579   3.872   5.435   0.471 -0.4180 -0.0040 -0.3684
 3858TIP3    H111580   3.951   5.382   0.457  0.2238  1.1400 -1.2408
 3858TIP3    H211581   3.800   5.377   0.445  0.2231 -0.6345 -0.7873
 3859TIP3   OH211582   0.286   0.286   2.922  0.1194 -0.3854  0.4656
 3859TIP3    H111583   0.233   0.215   2.959 -1.4110  0.5428  0.1181
 3859TIP3    H211584   0.247   0.304   2.837  0.1829  1.1732  0.7370
 3860TIP3   OH211585   6.102   3.713   1.585 -0.7130  0.0825 -0.0890
 3860TIP3    H111586   6.107   3.807   1.566 -1.7720 -0.1200 -1.5164
 3860TIP3    H211587   6.031   3.705   1.649 -0.8139  0.2259 -0.1829
 3861TIP3   OH211588   5.055   4.377   0.369 -0.2739 -0.2262 -0.2058
 3861TIP3    H111589   5.004   4.404   0.293  0.2621 -0.7944 -0.7794
 3861TIP3    H211590   5.029   4.437   0.438 -0.0164  0.9778 -1.1199
 3862TIP3   OH211591   5.151   0.766   1.917 -0.2715 -0.2147 -0.2264
 3862TIP3    H111592   5.207   0.692   1.941 -0.2447 -0.1108  0.0303
 3862TIP3    H211593   5.211   0.835   1.890 -0.3247 -0.6563 -1.5517
 3863TIP3   OH211594   3.755   5.778   3.186 -0.1666  0.3356 -0.5418
 3863TIP3    H111595   3.823   5.767   3.119 -0.8139 -1.0870 -1.0122
 3863TIP3    H211596   3.674   5.787   3.136 -0.2041  3.9654 -0.0652
 3864TIP3   OH211597   3.057   3.269   1.687  0.7792 -0.7106 -0.6305
 3864TIP3    H111598   3.098   3.323   1.755  1.8545 -0.9220 -1.0838
 3864TIP3    H211599   3.130   3.241   1.632 -0.0137 -0.9522 -1.5863
 3865TIP3   OH211600   1.286   3.143   3.657 -0.5761 -0.7734 -0.2216
 3865TIP3    H111601   1.260   3.057   3.688  1.8884 -0.4564  3.4243
 3865TIP3    H211602   1.381   3.137   3.646 -0.5627  1.0471 -1.5374
 3866TIP3   OH211603   3.956   1.552   1.120 -0.0446  0.0828 -0.2329
 3866TIP3    H111604   3.994   1.559   1.032  0.1494  3.0915 -0.0223
 3866TIP3    H211605   3.862   1.550   1.105  0.0059 -0.0814 -0.5386
 3867TIP3   OH211606   1.554   1.926   1.233 -0.3898  0.0747  0.0526
 3867TIP3    H111607   1.596   1.907   1.149 -0.7228 -1.7541  0.2473
 3867TIP3    H211608   1.618   1.898   1.298  0.6190  3.1318  0.5258
 3868TIP3   OH211609   0.008   3.895   3.794  0.4312  0.2414  0.1967
 3868TIP3    H111610   0.004   3.868   3.703  1.1270 -0.6932  0.4231
 3868TIP3    H211611   0.093   3.862   3.825  0.5088  1.1556  0.9887
 3869TIP3   OH211612   2.833   5.232   0.725 -0.1081  0.2146 -0.5060
 3869TIP3    H111613   2.835   5.263   0.634 -1.3658 -1.3090 -1.1050
 3869TIP3    H211614   2.823   5.137   0.718  0.2642  0.0050  1.2468
 3870TIP3   OH211615   0.800   0.250   2.457  0.2049  0.3324  0.1540
 3870TIP3    H111616   0.810   0.162   2.495  1.2421 -0.5566 -2.0046
 3870TIP3    H211617   0.756   0.300   2.525 -1.2864 -2.1114  1.1274
 3871TIP3   OH211618   4.075   3.762   0.599  0.0924 -0.1053  0.3485
 3871TIP3    H111619   4.046   3.726   0.683  1.1876  0.0997  0.8312
 3871TIP3    H211620   4.105   3.851   0.619  0.4285 -0.0758 -0.2426
 3872TIP3   OH211621   3.486   1.598   1.135 -0.1920 -0.1252  0.6186
 3872TIP3    H111622   3.560   1.618   1.078  0.5690 -1.6816  0.9950
 3872TIP3    H211623   3.462   1.682   1.174  0.5781  0.6166 -0.4428
 3873TIP3   OH211624   3.532   3.886   3.226 -0.1772  0.3511  0.0037
 3873TIP3    H111625   3.566   3.973   3.246  0.8716 -0.2860  1.1599
 3873TIP3    H211626   3.598   3.848   3.167 -0.1659  0.0223  0.2262
 3874TIP3   OH211627   4.865   5.116   1.202 -0.8169  0.3141 -0.0852
 3874TIP3    H111628   4.956   5.143   1.215  0.0984 -2.3839 -0.3646
 3874TIP3    H211629   4.814   5.184   1.246  1.1218  3.3514 -2.1043
 3875TIP3   OH211630   2.210   3.490   1.307 -0.3180  0.7268  0.5468
 3875TIP3    H111631   2.181   3.566   1.255 -0.1206  0.8773  0.6549
 3875TIP3    H211632   2.241   3.528   1.389  2.7825  0.8884 -0.5753
 3876TIP3   OH211633   0.692   1.008   3.580  0.0030  0.2720 -0.1237
 3876TIP3    H111634   0.666   0.948   3.651  2.3721 -0.8514 -0.1227
 3876TIP3    H211635   0.772   1.050   3.611 -0.2437  1.5899 -1.1756
 3877TIP3   OH211636   5.341   0.788   1.225 -0.1505 -0.5276  0.0588
 3877TIP3    H111637   5.415   0.804   1.284  2.8953 -3.7388 -2.4308
 3877TIP3    H211638   5.373   0.815   1.139 -1.4259 -2.8853 -1.2626
 3878TIP3   OH211639   3.433   4.396   1.217  0.3212 -0.2124 -0.6661
 3878TIP3    H111640   3.366   4.463   1.231  0.9267  0.1518  0.7267
 3878TIP3    H211641   3.416   4.362   1.129 -1.5592  0.0017 -0.4246
 3879TIP3   OH211642   1.466   2.325   4.456  0.1026 -0.1030  0.0962
 3879TIP3    H111643   1.397   2.277   4.411  0.4451 -1.0560  0.5452
 3879TIP3    H211644   1.436   2.416   4.457 -1.0258 -0.4546  0.0667
 3880TIP3   OH211645   5.185   4.454   2.223 -0.1406  0.0013 -0.0337
 3880TIP3    H111646   5.181   4.406   2.140 -0.3093  1.2453 -0.7791
 3880TIP3    H211647   5.197   4.545   2.196  2.9425  0.1314  1.3564
 3881TIP3   OH211648   3.264   4.212   1.838 -0.0243 -0.4307 -0.3685
 3881TIP3    H111649   3.279   4.266   1.916  0.4128 -0.3316 -0.5180
 3881TIP3    H211650   3.243   4.275   1.769 -0.7692 -0.5425 -0.2518
 3882TIP3   OH211651   2.576   2.994   4.512  0.2500 -0.9360 -0.6139
 3882TIP3    H111652   2.667   2.982   4.485  0.4178 -2.9848  0.6586
 3882TIP3    H211653   2.527   2.931   4.459  0.1474 -2.6026  1.3303
 3883TIP3   OH211654  -0.010   1.380   2.838 -0.2307 -0.6475  0.2769
 3883TIP3    H111655   0.012   1.437   2.912 -2.3231  0.8863 -0.1890
 3883TIP3    H211656   0.064   1.389   2.778  0.2188  0.3291  0.9447
 3884TIP3   OH211657   0.220   1.906   5.131 -0.3799 -0.2547 -0.2283
 3884TIP3    H111658   0.249   1.981   5.079 -0.7741 -1.0028 -1.5855
 3884TIP3    H211659   0.155   1.862   5.075 -0.7541 -1.1458  0.8735
 3885TIP3   OH211660   1.224   1.154   4.523  0.2768  0.0105 -0.1167
 3885TIP3    H111661   1.178   1.116   4.448 -0.0437 -0.0156  0.0904
 3885TIP3    H211662   1.295   1.204   4.485  1.2775 -1.5278 -0.3711
 3886TIP3   OH211663   1.885   0.053   3.972  0.8398 -0.6311 -0.2813
 3886TIP3    H111664   1.847  -0.005   4.039  2.2940 -1.4524 -0.1248
 3886TIP3    H211665   1.867   0.009   3.889  0.0559 -0.1928 -0.3588
 3887TIP3   OH211666   2.389   3.373   0.047 -0.6577  0.9978 -0.3505
 3887TIP3    H111667   2.362   3.421   0.126  0.1137  3.0676 -1.2770
 3887TIP3    H211668   2.424   3.440  -0.011 -1.2638 -0.4664 -2.5208
 3888TIP3   OH211669   4.953   0.071   4.422  0.1392 -0.1372 -0.4502
 3888TIP3    H111670   4.977   0.121   4.500 -1.1764 -0.2419  0.0514
 3888TIP3    H211671   5.036   0.043   4.384  0.8102  0.3579  0.6257
 3889TIP3   OH211672   2.529   2.463   4.436  0.3126  0.3048 -0.4048
 3889TIP3    H111673   2.557   2.390   4.493  1.1561  2.4343  2.1061
 3889TIP3    H211674   2.461   2.507   4.486 -0.3116  1.1629 -1.9680
 3890TIP3   OH211675   3.926   2.529   3.528  0.0950 -0.2226 -0.4491
 3890TIP3    H111676   3.854   2.483   3.570  1.8074  0.7632  4.0718
 3890TIP3    H211677   3.889   2.614   3.504 -1.0201 -0.9572 -1.4961
 3891TIP3   OH211678   2.005   0.212   5.080  0.0316  0.8639 -0.0083
 3891TIP3    H111679   2.008   0.295   5.032  1.2702  0.7217 -0.2236
 3891TIP3    H211680   2.027   0.146   5.014  0.6401  0.5454  0.5057
 3892TIP3   OH211681   3.642   5.981   4.471 -0.0403  0.4816  0.1340
 3892TIP3    H111682   3.683   6.042   4.411  1.9697  1.0337  1.9414
 3892TIP3    H211683   3.692   5.900   4.461  0.5027  0.6635  1.1983
 3893TIP3   OH211684   6.159   2.543   2.471  0.4493 -0.1775 -0.0986
 3893TIP3    H111685   6.184   2.487   2.398 -0.2362 -1.1870  0.4168
 3893TIP3    H211686   6.236   2.543   2.529 -0.1406 -2.0614  0.7589
 3894TIP3   OH211687   0.592   3.054   2.851  0.0846  0.1609  0.2529
 3894TIP3    H111688   0.573   3.143   2.882  0.4622  0.5659 -0.6608
 3894TIP3    H211689   0.671   3.028   2.898  1.2380  1.1592 -1.0734
 3895TIP3   OH211690   1.011   5.050   4.303 -0.3036  0.6212 -0.4986
 3895TIP3    H111691   0.951   5.121   4.281 -2.7347 -0.7954  1.0634
 3895TIP3    H211692   1.001   4.987   4.231 -0.4244  0.5313 -0.4024
 3896TIP3   OH211693   3.434   5.707   3.696 -0.1183 -0.1402 -0.2490
 3896TIP3    H111694   3.490   5.744   3.628  0.4368 -0.2447  0.1478
 3896TIP3    H211695   3.493   5.686   3.767 -0.4040 -1.8136 -0.4594
 3897TIP3   OH211696   2.736   4.279   4.447 -0.3769  0.4997 -0.9269
 3897TIP3    H111697   2.808   4.318   4.496 -0.2283  1.0690 -1.5731
 3897TIP3    H211698   2.769   4.273   4.357  0.3602 -2.9913 -0.5511
 3898TIP3   OH211699   0.037   0.681   4.925  0.1889 -0.1853  0.2874
 3898TIP3    H111700   0.058   0.747   4.991  0.0175 -0.1196  0.2768
 3898TIP3    H211701   0.011   0.603   4.976 -4.2728  1.1087  0.4542
 3899TIP3   OH211702   0.453   5.268   2.671 -0.1850 -0.7072 -0.5051
 3899TIP3    H111703   0.513   5.307   2.735  1.2043 -0.9201 -1.6253
 3899TIP3    H211704   0.367   5.277   2.711  0.5560 -0.2071  1.0809
 3900TIP3   OH211705   2.072   1.659   1.134 -0.1054  0.1948 -0.6193
 3900TIP3    H111706   2.108   1.748   1.133 -0.3607  0.3032 -0.4032
 3900TIP3    H211707   2.039   1.648   1.224  1.6370 -0.8075 -0.0561
 3901TIP3   OH211708   4.044   0.616   2.865  0.8328  0.0084 -0.3443
 3901TIP3    H111709   4.017   0.674   2.936  0.0270  0.3391 -0.9079
 3901TIP3    H211710   4.136   0.638   2.850  0.7817  0.5021  0.0534
 3902TIP3   OH211711   4.154   4.199   5.145  0.3042  0.5297  0.7510
 3902TIP3    H111712   4.139   4.227   5.236 -0.8081  2.2770  0.0594
 3902TIP3    H211713   4.114   4.267   5.091  3.5901  1.1900 -1.1341
 3903TIP3   OH211714   1.179   5.886   1.616 -0.0369 -0.0419 -0.4587
 3903TIP3    H111715   1.224   5.864   1.697  0.0699 -0.4010 -0.6108
 3903TIP3    H211716   1.092   5.914   1.643 -0.9475 -2.6521 -0.3467
 3904TIP3   OH211717   5.016   4.144   0.500 -0.4064 -0.0970  0.3242
 3904TIP3    H111718   5.029   4.208   0.431  2.2196 -0.8233  0.0581
 3904TIP3    H211719   5.089   4.158   0.560  0.5272 -3.1001  0.0099
 3905TIP3   OH211720   4.264   0.112   2.794  0.1398 -0.2211  0.8463
 3905TIP3    H111721   4.244   0.072   2.709  0.4079 -0.9036  1.1016
 3905TIP3    H211722   4.360   0.115   2.797  0.1237  0.5169  0.7992
 3906TIP3   OH211723   1.554   3.093   3.668 -0.3395 -0.3333  0.7278
 3906TIP3    H111724   1.545   3.156   3.739 -0.6369 -1.7060  1.9635
 3906TIP3    H211725   1.641   3.109   3.632 -1.1993  2.1922 -0.4515
 3907TIP3   OH211726   5.717   3.937   3.862 -0.0227  0.1777  0.4932
 3907TIP3    H111727   5.760   4.019   3.885  2.4114 -0.7698 -0.4122
 3907TIP3    H211728   5.764   3.905   3.785 -0.7337 -2.2017  0.9565
 3908TIP3   OH211729   2.851   4.610   5.115 -0.1039  0.3372 -0.5616
 3908TIP3    H111730   2.914   4.572   5.176 -1.0058 -0.7476 -0.2836
 3908TIP3    H211731   2.894   4.602   5.029  0.6212  0.6860 -0.2407
 3909TIP3   OH211732   2.010   0.465   4.656  0.2933 -0.2197 -0.4088
 3909TIP3    H111733   1.937   0.497   4.603  1.0159  0.0902 -1.2488
 3909TIP3    H211734   2.079   0.530   4.643  0.9461 -0.8487 -0.1625
 3910TIP3   OH211735   0.390   0.964   0.471 -0.6937  0.3029 -0.1837
 3910TIP3    H111736   0.412   0.929   0.385 -1.9952  0.3621 -0.5539
 3910TIP3    H211737   0.315   1.021   0.456 -1.1474  0.0584  1.0432
 3911TIP3   OH211738   2.538   4.565   2.569  0.4589  0.0247 -0.3645
 3911TIP3    H111739   2.545   4.471   2.555 -1.7619 -0.0438 -1.5558
 3911TIP3    H211740   2.490   4.597   2.491  0.0294  1.9225  0.6121
 3912TIP3   OH211741   0.977   5.125   2.448 -0.4737 -0.6517  0.0490
 3912TIP3    H111742   1.050   5.185   2.458 -3.0374  3.0320 -1.3039
 3912TIP3    H211743   0.959   5.124   2.354 -1.5598 -2.3411  0.2154
 3913TIP3   OH211744   3.655   0.138   3.147 -0.0975  0.1373  0.0232
 3913TIP3    H111745   3.711   0.090   3.086 -0.3518  0.0099 -0.1112
 3913TIP3    H211746   3.626   0.072   3.211  0.0246  0.2329  0.1768
 3914TIP3   OH211747   4.364   4.838   0.959  0.4498  0.6176 -0.3941
 3914TIP3    H111748   4.318   4.769   0.911  2.4032 -0.7427 -0.4170
 3914TIP3    H211749   4.350   4.916   0.906 -0.0240 -0.1988 -1.5334
 3915TIP3   OH211750   3.051   4.281   4.871 -0.3565 -0.1540 -0.2209
 3915TIP3    H111751   2.983   4.256   4.933 -0.6580 -0.1941 -0.5624
 3915TIP3    H211752   3.110   4.337   4.920 -0.1535 -0.8346  0.3240
 3916TIP3   OH211753   2.215   3.381   4.791 -0.0762 -0.0198  0.5351
 3916TIP3    H111754   2.232   3.428   4.873 -1.2430 -0.1419  0.8797
 3916TIP3    H211755   2.133   3.333   4.808  0.9111 -1.9842  0.1158
 3917TIP3   OH211756   3.847   5.563   1.998 -0.1631  0.7720  0.3366
 3917TIP3    H111757   3.905   5.561   2.074  0.4729  1.3263 -0.1109
 3917TIP3    H211758   3.895   5.514   1.931 -0.2528  1.1502 -0.0063
 3918TIP3   OH211759   4.467   0.510   2.220  0.6391 -0.0910 -0.5254
 3918TIP3    H111760   4.533   0.443   2.203  1.6701  1.1949 -1.9069
 3918TIP3    H211761   4.506   0.563   2.290  0.3452 -0.2452 -0.2423
 3919TIP3   OH211762   2.994   1.314   5.054  0.3027 -0.6850  0.3237
 3919TIP3    H111763   3.033   1.288   5.138 -1.7091 -1.0097  1.2243
 3919TIP3    H211764   2.994   1.410   5.056 -1.0639 -0.6682  1.4215
 3920TIP3   OH211765   1.373   0.470   3.074 -0.2995  0.0652  0.1218
 3920TIP3    H111766   1.318   0.413   3.019  0.2355  0.2636 -0.6434
 3920TIP3    H211767   1.311   0.518   3.128 -0.8256 -0.4264 -0.0331
 3921TIP3   OH211768   4.261   0.755   4.219  0.0135 -0.1786  0.5663
 3921TIP3    H111769   4.174   0.737   4.183  0.4570  0.2655 -0.7662
 3921TIP3    H211770   4.309   0.673   4.208  0.0747 -0.1188  0.3993
 3922TIP3   OH211771   6.248   1.424   3.306 -0.5021  0.1348  0.0208
 3922TIP3    H111772   6.314   1.396   3.369  1.3777  1.9067 -1.0461
 3922TIP3    H211773   6.224   1.512   3.333 -1.7893 -0.1286 -0.1656
 3923TIP3   OH211774   0.910   2.843   4.233  0.6086  0.3956  0.6741
 3923TIP3    H111775   0.856   2.795   4.295  1.1302  0.9736  1.6110
 3923TIP3    H211776   0.876   2.933   4.236  0.5164  0.3872 -0.0249
 3924TIP3   OH211777   1.822   3.040   1.639 -0.3361  0.4380 -0.2069
 3924TIP3    H111778   1.811   3.017   1.547 -2.1381  1.7046 -0.3636
 3924TIP3    H211779   1.810   3.135   1.642 -2.9652  0.1753  1.6167
 3925TIP3   OH211780   2.887   4.679   1.788 -0.3108  0.2711  0.1979
 3925TIP3    H111781   2.855   4.665   1.699 -1.7338  1.6233  0.4547
 3925TIP3    H211782   2.963   4.737   1.778 -1.5700  1.9597 -0.0711
 3926TIP3   OH211783   0.327   4.437   0.110  0.0369  0.3183 -0.5737
 3926TIP3    H111784   0.327   4.414   0.203 -0.1864  1.1342 -0.3665
 3926TIP3    H211785   0.322   4.352   0.065 -0.3353 -0.0658  0.1594
 3927TIP3   OH211786   3.066   1.152   3.513  0.1734  0.0096 -0.1484
 3927TIP3    H111787   3.158   1.130   3.497  1.4555  3.4443  1.5771
 3927TIP3    H211788   3.068   1.216   3.583 -3.5604  0.6155 -0.3742
 3928TIP3   OH211789   4.929   2.092   0.620  0.2476  0.0459 -0.4692
 3928TIP3    H111790   4.843   2.130   0.604 -0.3829 -0.9231  0.4948
 3928TIP3    H211791   4.947   2.040   0.542 -2.0093 -3.2328  0.9994
 3929TIP3   OH211792   5.605   5.337   2.543  0.3111  0.2124 -0.1710
 3929TIP3    H111793   5.593   5.244   2.564 -1.4723  0.2287 -1.0157
 3929TIP3    H211794   5.534   5.381   2.589  0.1429  0.9649 -1.1352
 3930TIP3   OH211795   6.125   2.732   2.077 -0.1912 -0.0542  0.1244
 3930TIP3    H111796   6.120   2.722   1.982  0.4664 -1.3027  0.2118
 3930TIP3    H211797   6.213   2.766   2.093 -0.0233 -0.5783  0.3364
 3931TIP3   OH211798   0.261   3.939   1.074  0.1346  0.3882 -0.2044
 3931TIP3    H111799   0.297   3.914   1.159  0.5423 -2.1525 -1.0160
 3931TIP3    H211800   0.190   4.000   1.094  0.2086 -0.1513  1.9506
 3932TIP3   OH211801   5.036   0.125   2.516  0.6550  0.6316 -0.6277
 3932TIP3    H111802   5.118   0.138   2.469  0.9582  1.0257 -0.0099
 3932TIP3    H211803   5.052   0.046   2.568 -0.6056 -1.4184 -3.1304
 3933TIP3   OH211804   5.892   2.171   4.859 -0.5415 -0.2604 -0.1995
 3933TIP3    H111805   5.879   2.172   4.765 -0.8353  0.9099 -0.1582
 3933TIP3    H211806   5.885   2.263   4.886 -0.9175 -0.6231  1.0222
 3934TIP3   OH211807   3.735   5.862   3.454 -0.3966 -0.0530 -0.5933
 3934TIP3    H111808   3.721   5.826   3.366 -0.0215 -0.8763 -0.3299
 3934TIP3    H211809   3.827   5.887   3.454  1.3209 -5.0472  1.1951
 3935TIP3   OH211810   4.803   3.024   0.002 -0.4987  0.1843  0.0733
 3935TIP3    H111811   4.817   3.116  -0.022 -0.3383 -0.0024 -0.5544
 3935TIP3    H211812   4.740   3.028   0.074 -0.0884  0.8201  0.4128
 3936TIP3   OH211813   1.419   2.100   5.161 -0.2721  0.2134  0.3099
 3936TIP3    H111814   1.424   2.186   5.120  1.6152  0.1793  0.4063
 3936TIP3    H211815   1.367   2.047   5.100 -2.8966  1.7876  1.0194
 3937TIP3   OH211816   4.933   4.593   2.491 -0.5145  0.6509 -0.3877
 3937TIP3    H111817   4.992   4.665   2.511 -0.8246  0.2374  2.4251
 3937TIP3    H211818   4.974   4.515   2.529 -0.5781 -0.5827 -2.6417
 3938TIP3   OH211819   5.249   1.465   5.103  0.3715 -0.1017 -0.1996
 3938TIP3    H111820   5.336   1.468   5.142  0.5827 -2.4869 -0.3705
 3938TIP3    H211821   5.255   1.397   5.036 -1.2171  0.7669 -1.2886
 3939TIP3   OH211822   5.725   3.489   2.653  0.0041  0.1085 -0.0578
 3939TIP3    H111823   5.728   3.393   2.646  1.6210  0.0509  0.8634
 3939TIP3    H211824   5.781   3.519   2.582  0.3816  0.3134  0.3223
 3940TIP3   OH211825   5.343   5.721   3.217  0.1136  0.2535  0.1478
 3940TIP3    H111826   5.390   5.783   3.272 -0.4736  0.0965  0.8402
 3940TIP3    H211827   5.257   5.711   3.259  0.3092 -1.2752  0.2489
 3941TIP3   OH211828   3.260   5.951   3.567  0.1370  0.5187  0.0249
 3941TIP3    H111829   3.293   5.863   3.552 -0.7830 -0.2066  1.9101
 3941TIP3    H211830   3.275   5.967   3.660 -0.0894  2.1921 -0.1945
 3942TIP3   OH211831   5.315   5.628   4.634  0.2288  0.2163 -0.5482
 3942TIP3    H111832   5.296   5.598   4.722  2.1519 -0.9127 -0.4545
 3942TIP3    H211833   5.258   5.577   4.577 -0.6158  0.5496 -0.0059
 3943TIP3   OH211834   3.356   5.219   0.989 -0.2934  0.1180 -0.1653
 3943TIP3    H111835   3.400   5.302   0.970  0.1681 -0.0614  0.1264
 3943TIP3    H211836   3.325   5.229   1.079  0.1991 -0.2183  0.0429
 3944TIP3   OH211837   6.159   0.377   4.139 -0.1524  0.2968  0.2021
 3944TIP3    H111838   6.146   0.282   4.133  1.4195 -0.0404  1.4993
 3944TIP3    H211839   6.159   0.395   4.232 -1.9623  1.8660 -0.0336
 3945TIP3   OH211840   1.071   4.312   5.022 -0.0461 -0.4162 -0.1158
 3945TIP3    H111841   1.146   4.258   4.994  0.7599  0.7099 -0.2116
 3945TIP3    H211842   1.059   4.375   4.951 -0.0958  0.3813  0.5795
 3946TIP3   OH211843   0.051   1.453   0.642 -0.2414 -0.5990  0.1053
 3946TIP3    H111844   0.140   1.424   0.624 -0.4083 -0.6551 -0.6547
 3946TIP3    H211845   0.056   1.549   0.642 -0.2962 -0.5893 -0.5895
 3947TIP3   OH211846   2.969   1.705   2.682  0.0134 -0.3675 -0.3934
 3947TIP3    H111847   2.920   1.741   2.608 -1.3703 -0.0528  0.6258
 3947TIP3    H211848   2.904   1.652   2.730  0.4731  0.5878  1.3754
 3948TIP3   OH211849   0.261   0.005   1.120 -0.0989 -0.2199 -0.0444
 3948TIP3    H111850   0.253   0.100   1.132  0.1030 -0.2934  0.7210
 3948TIP3    H211851   0.201  -0.015   1.048  1.1474  0.7291 -1.4273
 3949TIP3   OH211852   3.764   0.375   3.250  0.3793  0.0096  0.3525
 3949TIP3    H111853   3.834   0.387   3.185 -0.5672  1.9088 -0.4230
 3949TIP3    H211854   3.706   0.310   3.211  0.9158 -0.4297  0.2797
 3950TIP3   OH211855   0.493   0.149   1.230 -0.7175 -0.0862 -0.0764
 3950TIP3    H111856   0.403   0.150   1.261 -1.2975  2.6420 -1.5435
 3950TIP3    H211857   0.517   0.242   1.223  1.9765 -0.7248 -0.4042
 3951TIP3   OH211858   4.876   5.314   1.458  0.2060 -0.8576 -0.0312
 3951TIP3    H111859   4.894   5.407   1.443  0.3829 -0.4840  2.0694
 3951TIP3    H211860   4.962   5.275   1.471  0.0388 -0.8181  1.3678
 3952TIP3   OH211861   3.604   1.226   3.337 -0.2595  0.9320  0.0396
 3952TIP3    H111862   3.613   1.172   3.416  2.1909  1.5819  0.2767
 3952TIP3    H211863   3.608   1.316   3.370 -0.5733  1.2357 -0.7264
 3953TIP3   OH211864   4.142   0.086   4.913  0.1151  0.0365  0.3560
 3953TIP3    H111865   4.144   0.144   4.837  0.0176  2.1874  1.8971
 3953TIP3    H211866   4.050   0.060   4.921 -0.0487  0.5671  0.2642
 3954TIP3   OH211867   1.691   3.612   1.587 -0.1736  0.0992 -0.2335
 3954TIP3    H111868   1.773   3.595   1.540  0.0855  0.5867  0.0236
 3954TIP3    H211869   1.640   3.666   1.527 -0.6421 -0.8754 -0.7116
 3955TIP3   OH211870   2.128   2.040   0.822 -0.0554  0.5878 -0.0540
 3955TIP3    H111871   2.131   2.135   0.821 -0.2753  0.6060  0.4554
 3955TIP3    H211872   2.216   2.013   0.847  0.3198  0.6199 -1.3045
 3956TIP3   OH211873   0.999   5.064   1.508 -0.0465 -0.8677  0.2475
 3956TIP3    H111874   1.090   5.044   1.529  0.1877  0.7444  0.9709
 3956TIP3    H211875   0.957   5.079   1.593 -1.3870 -3.0114  0.0244
 3957TIP3   OH211876   3.439   4.682   3.219 -0.0371 -0.3169  0.0745
 3957TIP3    H111877   3.418   4.589   3.213  0.8715 -0.5816  0.7980
 3957TIP3    H211878   3.522   4.691   3.174 -0.8272  0.4267 -1.3013
 3958TIP3   OH211879   1.077   2.803   0.575 -0.2701  0.1543 -0.4210
 3958TIP3    H111880   1.013   2.740   0.610  0.0913 -0.2256 -0.4447
 3958TIP3    H211881   1.127   2.753   0.511 -0.5642  0.7038 -1.0906
 3959TIP3   OH211882   4.630   5.389   4.756 -0.3997 -0.6292  0.5713
 3959TIP3    H111883   4.551   5.364   4.803 -0.0164 -0.0112  1.5747
 3959TIP3    H211884   4.636   5.327   4.684 -3.0040  0.6427 -0.8743
 3960TIP3   OH211885   2.114   3.003   1.734 -0.3910  0.0849 -0.1934
 3960TIP3    H111886   2.159   2.970   1.812  1.3536  1.4524 -0.5738
 3960TIP3    H211887   2.171   2.977   1.661 -0.2372  1.7670 -0.6995
 3961TIP3   OH211888   2.486   2.972   2.673  0.2909  0.0044  1.2275
 3961TIP3    H111889   2.483   3.010   2.585 -3.8157 -1.6741  0.4249
 3961TIP3    H211890   2.446   3.038   2.729  0.4106 -0.0152  1.3368
 3962TIP3   OH211891   0.186   5.336   1.590 -0.1890  0.0635 -0.0420
 3962TIP3    H111892   0.119   5.397   1.623 -0.0811  1.0200 -1.5028
 3962TIP3    H211893   0.259   5.346   1.652 -1.9785 -2.4497  2.7545
 3963TIP3   OH211894   2.960   4.575   0.413 -0.5555 -0.3576 -0.1318
 3963TIP3    H111895   2.937   4.531   0.331  0.4589 -1.4244  0.1199
 3963TIP3    H211896   2.930   4.665   0.402  1.2099  0.0418 -2.4354
 3964TIP3   OH211897   4.303   0.248   3.267  0.3500  0.3691 -0.6567
 3964TIP3    H111898   4.278   0.323   3.213  0.7048  1.8630  1.1654
 3964TIP3    H211899   4.280   0.274   3.356 -0.1829 -2.0068 -0.0454
 3965TIP3   OH211900   3.643   1.432   3.677 -0.3510  0.2904 -0.5040
 3965TIP3    H111901   3.625   1.525   3.667  2.5013  1.1371  1.1046
 3965TIP3    H211902   3.644   1.418   3.771  1.2483 -0.8888 -0.6660
 3966TIP3   OH211903   4.728   4.340   1.311  0.7963 -0.6750 -0.4137
 3966TIP3    H111904   4.735   4.246   1.330 -2.0461 -1.3069 -1.8168
 3966TIP3    H211905   4.680   4.343   1.228 -0.1663  2.0452  0.1522
 3967TIP3   OH211906   0.812   1.960   3.263  0.7280 -0.2374 -0.5758
 3967TIP3    H111907   0.718   1.946   3.250  0.8825 -1.8800 -0.1352
 3967TIP3    H211908   0.822   1.972   3.357  0.9285  0.3913 -0.6676
 3968TIP3   OH211909   5.375   0.104   2.153  0.2799  0.1672  0.2546
 3968TIP3    H111910   5.364   0.186   2.105  1.4005 -0.6408 -1.4774
 3968TIP3    H211911   5.370   0.035   2.086 -1.3229 -1.2750  1.7401
 3969TIP3   OH211912   4.815   2.128   3.235 -0.0728 -0.2341 -0.4125
 3969TIP3    H111913   4.801   2.175   3.317  0.9162  0.8518 -0.8278
 3969TIP3    H211914   4.731   2.087   3.216 -0.1196 -1.1669  1.5153
 3970TIP3   OH211915   2.946   3.817   2.264  0.5252 -0.0432  0.4113
 3970TIP3    H111916   2.955   3.767   2.184 -4.5938 -1.1909  0.2049
 3970TIP3    H211917   2.965   3.754   2.334 -2.3240 -1.4328  0.0753
 3971TIP3   OH211918   3.414   2.165   3.093  0.0030  0.1950 -0.5056
 3971TIP3    H111919   3.474   2.099   3.129 -1.7635 -0.0498  2.3370
 3971TIP3    H211920   3.470   2.236   3.065  1.7958 -1.3130 -0.9565
 3972TIP3   OH211921   4.856   4.236   4.491 -0.4184 -0.4780 -0.4583
 3972TIP3    H111922   4.859   4.154   4.540 -2.4137 -0.9526 -1.0542
 3972TIP3    H211923   4.884   4.212   4.403 -1.3483 -0.6324 -0.7275
 3973TIP3   OH211924   2.251   0.371   3.856 -0.2401  0.5914 -0.2688
 3973TIP3    H111925   2.324   0.385   3.917  0.2984  0.9946 -0.9873
 3973TIP3    H211926   2.177   0.350   3.912  0.1300  1.4142  0.5664
 3974TIP3   OH211927   2.285   2.370   5.102 -0.1434 -0.0137 -0.0328
 3974TIP3    H111928   2.358   2.431   5.110 -1.0554  1.1043 -0.0603
 3974TIP3    H211929   2.242   2.372   5.187 -0.2725 -0.5119 -0.0803
 3975TIP3   OH211930   4.643   4.350   0.370 -0.1040 -0.1626  0.2079
 3975TIP3    H111931   4.669   4.352   0.463 -1.1127  1.1305  0.4905
 3975TIP3    H211932   4.611   4.260   0.357 -5.7542  0.9730  2.9014
 3976TIP3   OH211933   5.204   0.915   3.651 -0.0345 -0.5210 -0.1233
 3976TIP3    H111934   5.207   0.865   3.569  2.0279 -1.3886  0.4179
 3976TIP3    H211935   5.180   0.851   3.718 -0.1378 -0.1721  0.1752
 3977TIP3   OH211936   1.815   3.115   3.597  0.2599 -0.5697 -0.1265
 3977TIP3    H111937   1.861   3.199   3.599  1.3398 -1.0662 -1.6933
 3977TIP3    H211938   1.806   3.096   3.504 -0.8130 -1.7561  0.2004
 3978TIP3   OH211939   5.313   3.987   0.233  0.1648  0.1950 -0.1511
 3978TIP3    H111940   5.401   4.020   0.213  0.3589  1.4350  2.3289
 3978TIP3    H211941   5.266   3.993   0.150  1.9682  1.0248 -1.1738
 3979TIP3   OH211942   4.585   4.997   2.073 -0.0922 -0.2280 -0.6746
 3979TIP3    H111943   4.515   4.934   2.088  0.7837 -0.6516  2.4544
 3979TIP3    H211944   4.662   4.943   2.054  0.1244  0.0358 -0.5527
 3980TIP3   OH211945   0.610   0.383   2.678  0.2436  0.0557  0.6535
 3980TIP3    H111946   0.602   0.320   2.750 -0.9901 -0.3505  0.1899
 3980TIP3    H211947   0.609   0.468   2.721  0.9580 -0.2116  1.2214
 3981TIP3   OH211948   1.253   1.043   0.754 -0.2861  0.3533  0.3899
 3981TIP3    H111949   1.251   1.040   0.849 -0.2799  0.7293  0.4034
 3981TIP3    H211950   1.312   1.116   0.733 -0.0126  0.0559  0.0970
 3982TIP3   OH211951   4.800   3.563   0.334  0.7556 -0.2541  0.1643
 3982TIP3    H111952   4.852   3.548   0.413  1.8259  0.8860 -0.2788
 3982TIP3    H211953   4.847   3.515   0.266  1.3050  0.8379 -0.2523
 3983TIP3   OH211954   6.140   4.864   2.234 -0.0004 -0.2012 -0.0175
 3983TIP3    H111955   6.137   4.960   2.234 -0.6083 -0.2089 -0.9085
 3983TIP3    H211956   6.186   4.842   2.315 -0.0742  0.8338  0.3257
 3984TIP3   OH211957   2.413   4.203   3.342  0.0221 -0.1240  0.5363
 3984TIP3    H111958   2.490   4.230   3.391  0.5923  0.7013 -0.7694
 3984TIP3    H211959   2.402   4.270   3.275 -1.4612 -0.5689  0.2835
 3985TIP3   OH211960   0.604   2.961   3.507 -0.5008 -0.0290 -0.0871
 3985TIP3    H111961   0.689   2.946   3.548 -1.0726  1.2406  1.6264
 3985TIP3    H211962   0.542   2.910   3.560 -0.8056 -1.3148 -1.5897
 3986TIP3   OH211963   5.139   0.752   2.270  0.2926 -0.1578 -0.2682
 3986TIP3    H111964   5.082   0.818   2.230  0.4854 -0.4274 -0.9906
 3986TIP3    H211965   5.215   0.802   2.300  0.1217  0.0544 -0.1820
 3987TIP3   OH211966   2.005   2.237   3.524  0.2439  0.2463  0.6778
 3987TIP3    H111967   1.955   2.288   3.587 -1.4196 -0.4284 -0.0248
 3987TIP3    H211968   2.031   2.300   3.457 -1.0082  0.3807  0.2798
 3988TIP3   OH211969   1.676   2.970   2.247 -0.6709  0.3744 -0.0567
 3988TIP3    H111970   1.713   2.894   2.202 -2.5706 -1.5372  1.4174
 3988TIP3    H211971   1.751   3.012   2.289  0.3684 -0.9783 -0.4985
 3989TIP3   OH211972   6.301   3.336   0.803  0.0309  0.7187  0.0989
 3989TIP3    H111973   6.289   3.360   0.895 -0.3943  1.4788 -0.1425
 3989TIP3    H211974   6.371   3.393   0.773  0.6337 -0.0012  0.1205
 3990TIP3   OH211975   5.989   3.201   3.947 -0.2582 -0.1350 -0.2164
 3990TIP3    H111976   5.908   3.149   3.954 -0.7093  0.4451 -0.9638
 3990TIP3    H211977   5.976   3.254   3.868  1.4343 -1.0437 -1.1697
 3991TIP3   OH211978   0.680   5.314   4.386 -0.4846 -0.1509 -0.3653
 3991TIP3    H111979   0.712   5.250   4.450  2.6049  1.3251 -0.3090
 3991TIP3    H211980   0.732   5.298   4.307 -1.0274  1.0275 -0.9903
 3992TIP3   OH211981   0.309   0.832   0.149  0.2993 -0.4720 -0.1669
 3992TIP3    H111982   0.381   0.895   0.160  1.3005 -1.8574  1.8788
 3992TIP3    H211983   0.338   0.775   0.078 -0.7935  1.5091 -2.3136
 3993TIP3   OH211984   1.784   0.476   5.136 -0.3078  0.2860  0.3980
 3993TIP3    H111985   1.751   0.388   5.155 -2.1189  0.4893 -1.4667
 3993TIP3    H211986   1.872   0.462   5.102  1.1370 -0.4008  3.9908
 3994TIP3   OH211987   4.288   2.210   5.039  0.2748 -0.1852  0.0250
 3994TIP3    H111988   4.239   2.149   4.985  1.5274 -0.0760 -1.2937
 3994TIP3    H211989   4.314   2.159   5.116 -0.6134 -0.6500  0.0280
 3995TIP3   OH211990   1.578   3.329   2.531  0.1152 -0.1170 -0.2150
 3995TIP3    H111991   1.620   3.401   2.578 -0.1303 -0.8615  1.1909
 3995TIP3    H211992   1.484   3.339   2.551 -0.0677 -0.0873 -1.0571
 3996TIP3   OH211993   3.336   0.665   3.231 -0.2449  0.3060  0.0886
 3996TIP3    H111994   3.284   0.740   3.201 -0.5825  1.1131  2.4901
 3996TIP3    H211995   3.349   0.680   3.325  0.5874 -2.1277  0.4461
 3997TIP3   OH211996   2.608   0.761   0.792 -0.3237 -0.0022  0.3331
 3997TIP3    H111997   2.584   0.712   0.713 -0.5496  1.6221 -0.6451
 3997TIP3    H211998   2.582   0.704   0.864  2.1926 -2.7050 -0.6727
 3998TIP3   OH211999   2.091   1.896   4.877 -0.3468  0.1535 -0.8420
 3998TIP3    H112000   2.160   1.856   4.930 -0.9382  0.5409  0.2565
 3998TIP3    H212001   2.117   1.988   4.869  0.1046 -0.0545 -1.8467
 3999TIP3   OH212002   5.017   3.505   2.882 -0.5761 -0.4914 -0.2139
 3999TIP3    H112003   4.950   3.524   2.947 -0.3799  1.1594 -0.4394
 3999TIP3    H212004   4.976   3.525   2.798  0.3142  1.1216 -0.3214
 4000TIP3   OH212005   5.020   2.025   1.522 -0.3378  0.0585  0.3429
 4000TIP3    H112006   5.026   1.986   1.609 -0.3106 -2.0746 -0.5403
 4000TIP3    H212007   5.049   1.955   1.463  0.3543  1.6953 -1.3255
 4001TIP3   OH212008   5.746   3.113   0.526 -0.0373  0.0162  0.3324
 4001TIP3    H112009   5.658   3.103   0.489  0.5000 -0.6022 -0.8060
 4001TIP3    H212010   5.781   3.191   0.483  0.0337  0.1853  0.6896
 4002TIP3   OH212011   5.610   2.545   1.849  0.0077  0.6469 -0.2560
 4002TIP3    H112012   5.673   2.577   1.914  1.6289 -0.2226 -1.3594
 4002TIP3    H212013   5.527   2.587   1.875  0.8116  1.1349  1.7443
 4003TIP3   OH212014   4.046   4.522   0.983 -0.4372 -0.1957  0.5811
 4003TIP3    H112015   3.971   4.532   0.925 -0.6855  0.2924  0.9784
 4003TIP3    H212016   4.012   4.474   1.059  0.2196 -2.1374 -0.2958
 4004TIP3   OH212017   4.411   0.635   5.050  0.2875  0.5151 -0.3465
 4004TIP3    H112018   4.438   0.552   5.090 -0.6656 -0.4887 -1.6972
 4004TIP3    H212019   4.493   0.680   5.031  0.8530 -0.4869 -0.3502
 4005TIP3   OH212020   2.645   0.711   0.324  0.1258  0.1544  0.2407
 4005TIP3    H112021   2.605   0.744   0.244  0.8063 -0.4117 -0.3573
 4005TIP3    H212022   2.705   0.642   0.294 -0.9410 -1.3467  1.3818
 4006TIP3   OH212023   0.452   4.110   0.342  0.2866 -0.3397  0.4530
 4006TIP3    H112024   0.371   4.153   0.370  1.2200  1.4882  0.4430
 4006TIP3    H212025   0.427   4.018   0.333 -2.0297  0.3051 -0.4637
 4007TIP3   OH212026   1.550   3.832   2.918 -0.4784  0.3173  0.0102
 4007TIP3    H112027   1.584   3.896   2.855 -1.7586  0.6831 -0.3423
 4007TIP3    H212028   1.496   3.773   2.866 -1.8544  0.8492  0.8011
 4008TIP3   OH212029   0.424   2.722   1.106  0.1004 -0.2372 -0.3556
 4008TIP3    H112030   0.414   2.803   1.156  1.4009  1.4518 -2.6486
 4008TIP3    H212031   0.394   2.654   1.165  0.1252  1.7694  2.1364
 4009TIP3   OH212032   2.673   1.037   0.688 -0.0446 -0.2818  0.2233
 4009TIP3    H112033   2.736   1.061   0.756  0.8703 -0.9894 -0.3560
 4009TIP3    H212034   2.668   0.942   0.693 -1.1004 -0.2365  0.2747
 4010TIP3   OH212035   5.271   3.370   1.728  0.1140 -0.2380 -0.5751
 4010TIP3    H112036   5.197   3.393   1.673 -1.6471  0.4133  1.8675
 4010TIP3    H212037   5.251   3.282   1.760 -0.3729  0.4333  1.1235
 4011TIP3   OH212038   3.640   1.169   3.606  0.1721 -0.1808 -0.4775
 4011TIP3    H112039   3.734   1.152   3.602  0.8065  2.7822 -0.7778
 4011TIP3    H212040   3.633   1.264   3.599 -2.9416 -0.3807 -1.9083
 4012TIP3   OH212041   3.689   2.137   4.071  0.4375 -0.3931  0.2464
 4012TIP3    H112042   3.596   2.152   4.053 -1.0310 -3.2248  4.1360
 4012TIP3    H212043   3.698   2.042   4.069  4.4637 -0.3155 -4.1022
 4013TIP3   OH212044   5.938   2.443   2.595 -0.1318 -0.0080  0.3843
 4013TIP3    H112045   5.995   2.465   2.522  0.5697 -1.1811  0.5472
 4013TIP3    H212046   5.959   2.351   2.615 -0.7844  0.0879  1.6222
 4014TIP3   OH212047   3.910   1.339   2.220  0.1533  0.1481  0.5183
 4014TIP3    H112048   3.845   1.402   2.188  0.2456  1.0221  1.9631
 4014TIP3    H212049   3.887   1.326   2.312 -0.1432 -2.3205  0.1563
 4015TIP3   OH212050   0.700   0.717   5.105 -0.1335  0.0839 -0.1846
 4015TIP3    H112051   0.670   0.745   5.191  1.3461 -1.0601  0.7521
 4015TIP3    H212052   0.773   0.776   5.084  0.4857 -0.5761  0.0573
 4016TIP3   OH212053   3.389   4.823   2.711  0.1275  0.3024 -0.3179
 4016TIP3    H112054   3.382   4.850   2.619 -3.5118  1.2380  0.0871
 4016TIP3    H212055   3.445   4.890   2.751 -0.9583  1.8124 -1.2265
 4017TIP3   OH212056   1.478   1.866   2.141  0.0415 -0.6123 -0.1237
 4017TIP3    H112057   1.510   1.776   2.135 -0.0414 -0.5863 -1.2755
 4017TIP3    H212058   1.441   1.873   2.229 -0.9776 -2.0649 -0.3891
 4018TIP3   OH212059   6.065   0.343   0.805 -0.7448  0.4387  0.1329
 4018TIP3    H112060   6.146   0.360   0.758 -0.3206 -0.8006  0.3829
 4018TIP3    H212061   6.088   0.276   0.870 -2.3110 -1.1943 -0.8935
 4019TIP3   OH212062   3.178   2.723   1.459  0.2068 -0.3820  0.6999
 4019TIP3    H112063   3.223   2.682   1.532  0.0429 -0.1853  0.9119
 4019TIP3    H212064   3.086   2.729   1.487 -0.1760 -1.7767 -0.1547
 4020TIP3   OH212065   1.506   3.377   0.879 -0.7184 -0.0275 -0.4054
 4020TIP3    H112066   1.558   3.372   0.799 -2.0969 -0.5664 -1.3135
 4020TIP3    H212067   1.517   3.291   0.921 -0.2367  0.1509 -0.1528
 4021TIP3   OH212068   0.889   0.031   0.418 -0.1920  0.0594  0.0442
 4021TIP3    H112069   0.939   0.098   0.373  0.5369  0.0101  0.7514
 4021TIP3    H212070   0.935  -0.051   0.398 -0.1662 -0.0255  0.4451
 4022TIP3   OH212071   4.578   4.021   2.003 -0.0813 -0.4446  0.0076
 4022TIP3    H112072   4.586   3.979   1.918 -1.5046 -2.7260  0.8956
 4022TIP3    H212073   4.502   4.079   1.995  1.4195  1.4867 -0.9981
 4023TIP3   OH212074   5.122   1.685   2.887 -0.1431 -0.0700  0.2181
 4023TIP3    H112075   5.196   1.706   2.943  1.6219  0.4650 -2.1320
 4023TIP3    H212076   5.125   1.589   2.878  0.0014 -0.0873  0.4608
 4024TIP3   OH212077   3.038   2.556   1.220  0.1138 -0.1420  0.3347
 4024TIP3    H112078   2.950   2.556   1.258 -0.2467  1.4197 -0.4366
 4024TIP3    H212079   3.084   2.626   1.267  0.1491  0.7336 -0.9578
 4025TIP3   OH212080   5.212   4.839   3.054 -0.7885 -0.4285 -0.3350
 4025TIP3    H112081   5.148   4.800   2.995  0.2393 -2.0068 -0.4593
 4025TIP3    H212082   5.269   4.890   2.997 -0.8932 -0.4504 -0.4601
 4026TIP3   OH212083   3.094   0.990   0.766 -0.0306  0.6478  0.1779
 4026TIP3    H112084   3.010   0.949   0.745 -0.4697  2.1481 -1.1615
 4026TIP3    H212085   3.093   1.000   0.861 -0.8889 -0.3170  0.2871
 4027TIP3   OH212086   5.233   1.313   3.278 -0.2159 -0.0158 -0.9212
 4027TIP3    H112087   5.244   1.285   3.369 -1.0150  2.3323 -0.0083
 4027TIP3    H212088   5.140   1.306   3.261  0.0239 -1.1436 -1.8364
 4028TIP3   OH212089   1.985   1.270   4.256  0.2350 -0.2398 -0.4696
 4028TIP3    H112090   2.022   1.329   4.321  1.7938 -0.4881 -1.0884
 4028TIP3    H212091   1.993   1.183   4.295 -3.0280 -0.0601  0.8985
 4029TIP3   OH212092   5.943   5.357   4.591  0.0078 -0.3205 -0.1251
 4029TIP3    H112093   5.863   5.376   4.639 -0.2995  0.2776 -0.8489
 4029TIP3    H212094   5.913   5.314   4.510  0.2277  1.5621 -1.2782
 4030TIP3   OH212095   2.864   4.394   1.604 -0.0747 -0.0659  0.1139
 4030TIP3    H112096   2.787   4.351   1.566 -0.2557  0.9262 -0.6856
 4030TIP3    H212097   2.856   4.485   1.576  1.6168 -0.0400 -0.3709
 4031TIP3   OH212098   4.258   2.256   2.795  0.3723  0.0026  0.2304
 4031TIP3    H112099   4.275   2.330   2.737 -0.9609 -0.2031 -0.4543
 4031TIP3    H212100   4.341   2.244   2.843  0.7535  1.6393  0.0509
 4032TIP3   OH212101   0.311   1.860   4.794 -0.5117 -0.2881 -0.1362
 4032TIP3    H112102   0.330   1.900   4.878  0.1080 -1.0056  0.0839
 4032TIP3    H212103   0.347   1.920   4.729 -0.5816  0.0422  0.1319
 4033TIP3   OH212104   6.162   5.081   0.272 -0.2256 -0.3573  0.2930
 4033TIP3    H112105   6.068   5.088   0.257 -0.0941  0.1312 -0.3744
 4033TIP3    H212106   6.183   4.989   0.258 -0.4291 -0.2639 -0.6951
 4034TIP3   OH212107   0.859   3.233   4.823  0.0178  0.1892  0.3144
 4034TIP3    H112108   0.928   3.167   4.836 -0.3122 -0.2510 -0.1466
 4034TIP3    H212109   0.905   3.316   4.833  0.6757 -0.0927 -0.1971
 4035TIP3   OH212110   5.010   1.172   0.163 -0.0865 -0.1795 -0.0586
 4035TIP3    H112111   5.060   1.234   0.217  0.7404 -0.0601 -0.9468
 4035TIP3    H212112   4.926   1.163   0.209  0.2216  0.7010  0.7065
 4036TIP3   OH212113   3.653   3.234   0.411 -0.1765 -0.0646 -0.3980
 4036TIP3    H112114   3.617   3.208   0.326  0.5913  0.0466 -0.7622
 4036TIP3    H212115   3.705   3.159   0.439 -0.8811 -0.3277  0.2530
 4037TIP3   OH212116   0.136   3.360   1.993 -0.1587  0.2979  0.6526
 4037TIP3    H112117   0.154   3.377   1.901  1.1057  1.3678  1.0764
 4037TIP3    H212118   0.222   3.359   2.035 -0.7843  1.3621  2.0608
 4038TIP3   OH212119   0.699   4.757   5.002 -0.5563 -0.4129  0.2045
 4038TIP3    H112120   0.662   4.724   5.083 -2.4317  0.4290 -0.2554
 4038TIP3    H212121   0.648   4.715   4.933 -0.9876  1.0869 -0.4464
 4039TIP3   OH212122   2.011   1.708   0.220  0.1401  0.1878 -0.4475
 4039TIP3    H112123   2.101   1.677   0.226 -0.1598 -0.3878  2.2050
 4039TIP3    H212124   1.963   1.635   0.181  0.5146 -0.2392 -0.1178
 4040TIP3   OH212125   5.032   0.371   2.761 -0.3512  0.1070 -0.5194
 4040TIP3    H112126   5.026   0.444   2.699 -0.1233  1.5141  1.0382
 4040TIP3    H212127   4.949   0.373   2.809  0.8179  1.3211  1.5791
 4041TIP3   OH212128   0.215   3.922   0.021  0.2917  0.2971  0.1647
 4041TIP3    H112129   0.135   3.886  -0.016  0.9849  0.1123 -1.2083
 4041TIP3    H212130   0.217   3.889   0.111 -0.3330 -1.0808 -0.3044
 4042TIP3   OH212131   0.636   5.945   4.355 -0.6630 -0.7018 -0.1475
 4042TIP3    H112132   0.608   6.036   4.352 -1.2009 -0.8860 -0.7763
 4042TIP3    H212133   0.693   5.935   4.279  2.7955  0.1743  2.0715
 4043TIP3   OH212134   5.714   1.180   4.312  0.3121  0.4881 -0.0755
 4043TIP3    H112135   5.618   1.175   4.315  0.3560 -3.8112  1.5652
 4043TIP3    H212136   5.737   1.142   4.227  0.5166 -1.0562  0.6395
 4044TIP3   OH212137   5.542   1.920   2.355  0.4416  0.2701  0.0051
 4044TIP3    H112138   5.556   1.939   2.262 -0.1221  0.3623 -0.0642
 4044TIP3    H212139   5.614   1.965   2.399  0.0894  1.1564 -0.2986
 4045TIP3   OH212140   1.414   5.585   1.415  0.5435 -0.6256 -0.3341
 4045TIP3    H112141   1.431   5.675   1.385 -1.0621 -0.2286 -0.1015
 4045TIP3    H212142   1.499   5.555   1.447  1.2880  0.5280 -1.1227
 4046TIP3   OH212143   6.078   5.927   3.419 -0.0291 -0.2552 -0.8008
 4046TIP3    H112144   6.162   5.962   3.392  1.1021 -1.8924  0.4207
 4046TIP3    H212145   6.024   6.004   3.435  1.3295  0.8344 -1.2680
 4047TIP3   OH212146   2.880   3.790   1.767  0.0860 -0.0251 -0.0565
 4047TIP3    H112147   2.967   3.820   1.740  0.1898  0.3827  0.7078
 4047TIP3    H212148   2.823   3.864   1.747  0.3025  0.6364  1.6021
 4048TIP3   OH212149   1.688   4.647   2.831 -0.2150  0.4218 -0.1315
 4048TIP3    H112150   1.664   4.723   2.884 -1.0862  0.3674 -0.4302
 4048TIP3    H212151   1.612   4.590   2.836  0.5808 -0.6099  0.3894
 4049TIP3   OH212152   3.895   2.161   3.792  0.7956  0.6477  0.3885
 4049TIP3    H112153   3.834   2.131   3.859 -1.3809  0.2607 -1.6141
 4049TIP3    H212154   3.976   2.113   3.809 -0.8463 -2.2950  0.5675
 4050TIP3   OH212155   2.278   4.743   4.324 -0.0348  0.0181  0.2209
 4050TIP3    H112156   2.291   4.788   4.240  0.6107 -0.0121  0.3004
 4050TIP3    H212157   2.281   4.813   4.389 -4.5476  0.6981  0.0087
 4051TIP3   OH212158   5.866   3.328   1.083 -0.0878  0.2788  0.4015
 4051TIP3    H112159   5.837   3.367   1.000 -0.9318  0.5805  0.8307
 4051TIP3    H212160   5.805   3.363   1.149 -1.3506 -2.2731  0.7103
 4052TIP3   OH212161   0.517   2.923   1.295  0.4471  0.2343 -0.5782
 4052TIP3    H112162   0.599   2.952   1.255 -0.7738  0.8391 -2.8198
 4052TIP3    H212163   0.460   2.999   1.289 -0.2687 -0.1268  1.0978
 4053TIP3   OH212164   0.423   1.009   3.046  0.1650 -0.8851  0.2185
 4053TIP3    H112165   0.367   1.051   3.111 -0.1196  0.9252 -1.0957
 4053TIP3    H212166   0.487   0.959   3.097 -0.8066 -0.5567  1.8254
 4054TIP3   OH212167   5.981   5.382   1.980 -0.2700 -0.0745  0.1826
 4054TIP3    H112168   5.893   5.371   1.945  0.1010  1.3501 -1.3140
 4054TIP3    H212169   5.973   5.452   2.045 -0.2698 -0.0406  0.1462
 4055TIP3   OH212170   5.000   0.160   4.691 -0.5224  0.5511  0.1907
 4055TIP3    H112171   4.924   0.163   4.749 -1.1804 -0.4154 -0.5842
 4055TIP3    H212172   5.036   0.072   4.702 -1.4511 -0.1456 -1.8048
 4056TIP3   OH212173   4.816   0.799   2.744 -0.4475 -0.1170  0.2444
 4056TIP3    H112174   4.845   0.858   2.674  0.5211 -1.1981 -0.3201
 4056TIP3    H212175   4.855   0.835   2.824  0.0256  0.0955 -0.0729
 4057TIP3   OH212176   1.753   2.290   3.083 -0.2076  0.0180  0.2498
 4057TIP3    H112177   1.773   2.235   3.008 -0.2827 -0.1596  0.3582
 4057TIP3    H212178   1.832   2.286   3.138  1.4973  3.2998 -1.6471
 4058TIP3   OH212179   3.727   2.684   1.067 -0.1495 -0.3424  1.0298
 4058TIP3    H112180   3.702   2.696   1.158 -0.2202 -0.1103  0.9783
 4058TIP3    H212181   3.769   2.766   1.042 -0.6473 -0.1944  0.6780
 4059TIP3   OH212182   1.051   0.859   1.135  0.5882 -0.2662 -0.4264
 4059TIP3    H112183   0.984   0.887   1.196  0.9284  1.6828 -0.8965
 4059TIP3    H212184   1.002   0.823   1.060  0.1759 -2.7890  0.9349
 4060TIP3   OH212185   2.515   3.469   0.328 -0.0126  0.6367  0.3524
 4060TIP3    H112186   2.595   3.465   0.276 -0.5837  0.1770 -0.5138
 4060TIP3    H212187   2.519   3.392   0.385  0.3750  0.8695  0.6455
 4061TIP3   OH212188   5.132   5.613   2.597  0.1212  0.0483  0.1582
 4061TIP3    H112189   5.188   5.639   2.524  0.7940 -0.5671  0.4388
 4061TIP3    H212190   5.175   5.651   2.674  0.1237 -0.3922  0.3725
 4062TIP3   OH212191   2.525   2.327   3.387  0.0339 -0.6548  0.7581
 4062TIP3    H112192   2.567   2.282   3.314 -1.6018  0.4278 -0.9422
 4062TIP3    H212193   2.591   2.389   3.419  0.7867 -1.1701  0.2352
 4063TIP3   OH212194   3.263   5.003   0.109 -0.3510 -0.2822  0.3470
 4063TIP3    H112195   3.195   5.052   0.062  1.2470  0.3274 -1.4645
 4063TIP3    H212196   3.340   5.060   0.107  0.8965 -1.8904  0.2226
 4064TIP3   OH212197   0.048   5.835   4.361  0.4759 -0.0334 -0.0342
 4064TIP3    H112198   0.050   5.774   4.287  1.0939  1.2695 -1.1325
 4064TIP3    H212199  -0.040   5.873   4.357  0.2731 -0.4600  0.3266
 4065TIP3   OH212200   5.354   4.996   3.268 -0.1775 -0.3815 -0.2701
 4065TIP3    H112201   5.440   4.958   3.286  0.5785  1.5886  0.4786
 4065TIP3    H212202   5.315   4.938   3.202  1.9325 -1.0118 -1.0156
 4066TIP3   OH212203   2.534   5.514   3.712 -0.3612  0.3984  0.1245
 4066TIP3    H112204   2.476   5.521   3.787  1.0539  0.4637  1.2549
 4066TIP3    H212205   2.476   5.505   3.637 -1.8256  1.4264  1.1028
 4067TIP3   OH212206   0.167   2.735   0.546  0.5267  0.6098  0.3896
 4067TIP3    H112207   0.255   2.770   0.533  1.1430 -0.3602  1.7193
 4067TIP3    H212208   0.144   2.762   0.635 -0.5456  0.8897  0.0333
 4068TIP3   OH212209   4.952   1.886   4.327 -0.6121 -0.1195  0.3635
 4068TIP3    H112210   5.004   1.867   4.406 -0.5322  1.5953  0.7485
 4068TIP3    H212211   4.933   1.799   4.290  2.2701 -0.8678  0.3642
 4069TIP3   OH212212   0.023   5.980   4.016 -0.1141 -0.6093  0.5339
 4069TIP3    H112213  -0.068   6.007   4.004 -0.0779 -0.8773 -0.4062
 4069TIP3    H212214   0.057   5.969   3.927  0.5879 -1.3715  0.8865
 4070TIP3   OH212215   5.872   1.396   1.380  0.0282  0.5026  0.1459
 4070TIP3    H112216   5.937   1.353   1.325 -1.2149 -3.0262  1.1336
 4070TIP3    H212217   5.900   1.378   1.470 -2.3585 -1.4971  0.6051
 4071TIP3   OH212218   0.151   4.796   0.375 -0.4488  0.6431 -0.0965
 4071TIP3    H112219   0.155   4.886   0.407 -1.3540  0.3068  0.9906
 4071TIP3    H212220   0.067   4.762   0.407 -0.0242 -0.6572 -0.3038
 4072TIP3   OH212221   4.792   3.695   1.718  0.2596  0.0148 -0.6441
 4072TIP3    H112222   4.831   3.695   1.806 -1.2193  1.4946  0.0680
 4072TIP3    H212223   4.839   3.764   1.671  1.1042 -0.8292 -1.0743
 4073TIP3   OH212224   4.596   0.103   2.389 -0.9675 -0.2928  0.0789
 4073TIP3    H112225   4.677   0.055   2.406 -0.7708 -0.0025 -0.0417
 4073TIP3    H212226   4.538   0.038   2.349 -0.3572 -0.1882 -1.0109
 4074TIP3   OH212227   5.142   5.182   1.258  0.0913  0.2491  0.4828
 4074TIP3    H112228   5.205   5.254   1.254 -0.8519  1.2759  2.5311
 4074TIP3    H212229   5.176   5.124   1.326 -0.8494  0.5661  1.2654
 4075TIP3   OH212230   0.244   4.273   0.452 -0.4938  0.8568 -0.4227
 4075TIP3    H112231   0.228   4.264   0.546 -0.7228  0.1666 -0.5192
 4075TIP3    H212232   0.261   4.366   0.439 -1.6446  1.1637  0.1312
 4076TIP3   OH212233   0.083   2.807   1.210  0.0397  0.4616  0.2049
 4076TIP3    H112234   0.108   2.834   1.122 -0.0942  0.5500  0.1943
 4076TIP3    H212235   0.038   2.883   1.247 -0.7256  0.1071  0.0183
 4077TIP3   OH212236   0.869   2.438   1.202 -0.4695 -0.1458  0.0252
 4077TIP3    H112237   0.840   2.497   1.133  0.5475  0.6103  0.2248
 4077TIP3    H212238   0.789   2.398   1.235 -1.2451  1.5771  0.2990
 4078TIP3   OH212239   6.009   3.075   2.427  0.1534  0.5014  0.9058
 4078TIP3    H112240   5.945   3.031   2.371  0.4995 -1.2920  1.8586
 4078TIP3    H212241   6.094   3.049   2.390  0.4079  2.4599 -0.0468
 4079TIP3   OH212242   5.861   1.619   2.308 -0.2823  0.1642  0.4034
 4079TIP3    H112243   5.784   1.610   2.364 -1.1423  2.7062 -0.2234
 4079TIP3    H212244   5.828   1.660   2.228  1.7722  1.8723  0.3384
 4080TIP3   OH212245   2.549   0.813   3.090  0.0011 -0.2779 -0.0083
 4080TIP3    H112246   2.517   0.883   3.147 -0.0602 -0.8547  0.6879
 4080TIP3    H212247   2.628   0.782   3.134 -0.0399 -0.7272 -0.2532
 4081TIP3   OH212248   3.334   5.134   1.933 -0.0675  0.1376  0.3075
 4081TIP3    H112249   3.362   5.115   2.023 -3.5512  0.0246  1.5278
 4081TIP3    H212250   3.355   5.227   1.921  2.1847 -0.2936  0.4247
 4082TIP3   OH212251   1.508   4.023   0.114 -0.6975 -0.4377 -0.3734
 4082TIP3    H112252   1.549   3.963   0.052 -0.0527  1.9068 -2.4181
 4082TIP3    H212253   1.580   4.060   0.164 -0.8028  0.1962 -0.6683
 4083TIP3   OH212254   5.678   3.167   4.788 -0.7881 -0.1438  0.5056
 4083TIP3    H112255   5.758   3.171   4.737 -0.6970 -2.0226  0.4471
 4083TIP3    H212256   5.685   3.240   4.850  0.2607  0.6038 -0.4719
 4084TIP3   OH212257   4.315   0.056   4.097  0.2614 -0.4251 -0.1411
 4084TIP3    H112258   4.219   0.055   4.095  0.0924  1.3912  1.9986
 4084TIP3    H212259   4.339  -0.016   4.155  0.1592 -0.6033 -0.3208
 4085TIP3   OH212260   4.294   3.629   1.588 -0.1723 -0.1443  0.2914
 4085TIP3    H112261   4.244   3.610   1.667 -1.3067 -3.1756 -1.0089
 4085TIP3    H212262   4.383   3.600   1.608 -0.3665 -0.5540  0.5636
 4086TIP3   OH212263   2.791   3.617   4.647  0.3118 -0.1565 -0.1868
 4086TIP3    H112264   2.729   3.671   4.696 -0.4154  1.3288 -2.5704
 4086TIP3    H212265   2.831   3.561   4.713 -3.0992 -0.7843  1.5933
 4087TIP3   OH212266   4.831   3.229   3.464  0.2162  0.0273 -0.0954
 4087TIP3    H112267   4.885   3.203   3.539 -0.7874  0.7417  0.9216
 4087TIP3    H212268   4.887   3.289   3.414  0.8193 -0.2657  0.2174
 4088TIP3   OH212269   2.503   1.774   2.790  0.2938 -0.2390  0.2038
 4088TIP3    H112270   2.491   1.686   2.753 -1.4230 -0.2723  0.7297
 4088TIP3    H212271   2.519   1.830   2.713 -0.5881 -0.7247 -0.3574
 4089TIP3   OH212272   5.737   2.381   3.267 -0.1579 -0.6018 -0.0701
 4089TIP3    H112273   5.693   2.411   3.187  0.4238 -0.3956 -0.3201
 4089TIP3    H212274   5.815   2.334   3.236 -1.6444 -3.4691  0.2609
 4090TIP3   OH212275   5.032   3.857   1.668 -0.8534 -0.0756 -0.7945
 4090TIP3    H112276   5.075   3.858   1.753 -0.7282 -1.5822 -0.7995
 4090TIP3    H212277   5.002   3.947   1.654  1.8576  0.9488 -0.5822
 4091TIP3   OH212278   2.276   2.117   2.932 -0.8834 -0.1182  0.4079
 4091TIP3    H112279   2.232   2.070   2.862  0.0803 -1.0235  0.3763
 4091TIP3    H212280   2.241   2.080   3.012 -0.5579 -0.4808  0.3852
 4092TIP3   OH212281   4.378   0.582   1.965 -0.2179 -0.3070  0.3790
 4092TIP3    H112282   4.392   0.586   2.060 -0.2417  0.2898  0.3642
 4092TIP3    H212283   4.466   0.587   1.928 -0.3000  2.3685  0.3139
 4093TIP3   OH212284   4.712   1.404   0.313 -0.2152  0.0856 -0.2862
 4093TIP3    H112285   4.655   1.418   0.388  0.2305 -0.8714  0.2477
 4093TIP3    H212286   4.791   1.363   0.349 -0.3069 -1.1134 -1.3622
 4094TIP3   OH212287   2.234   1.348   3.363  0.8826  0.5655  0.5598
 4094TIP3    H112288   2.259   1.310   3.279  1.3358 -0.1092  0.9905
 4094TIP3    H212289   2.187   1.278   3.408 -0.7201  1.4140  0.2693
 4095TIP3   OH212290   3.379   4.412   2.874  0.1815 -0.0282  0.0057
 4095TIP3    H112291   3.374   4.347   2.804  0.1162  0.0093 -0.0254
 4095TIP3    H212292   3.393   4.361   2.954  0.3007 -0.0680 -0.0411
 4096TIP3   OH212293   4.865   0.402   3.050 -1.1341  0.3359  0.1577
 4096TIP3    H112294   4.832   0.461   2.982 -2.1632 -1.4099 -0.9423
 4096TIP3    H212295   4.799   0.405   3.119 -0.0385  2.1878  1.2005
 4097TIP3   OH212296   4.402   4.111   2.291 -0.1595 -0.2782 -0.0675
 4097TIP3    H112297   4.326   4.082   2.241  0.3788 -0.5124 -0.7508
 4097TIP3    H212298   4.477   4.069   2.249  0.4189  0.4387  0.2201
 4098TIP3   OH212299   2.243   1.512   0.186  0.4277  0.6260  0.1329
 4098TIP3    H112300   2.159   1.466   0.193  0.0579  1.2210 -0.3199
 4098TIP3    H212301   2.309   1.442   0.183  0.0556  0.1748  1.6948
 4099TIP3   OH212302   1.306   5.967   2.988 -0.2118  0.0933 -0.3580
 4099TIP3    H112303   1.303   5.914   2.908  0.0506 -0.4412 -0.0200
 4099TIP3    H212304   1.397   5.961   3.017 -0.1072  0.9763 -0.4708
 4100TIP3   OH212305   4.697   5.686   1.413  0.0496 -0.0131  0.6468
 4100TIP3    H112306   4.670   5.659   1.501 -0.2964 -1.5279  0.1277
 4100TIP3    H212307   4.785   5.721   1.423  1.4621 -3.3621  1.1859
 4101TIP3   OH212308   6.304   1.413   2.503 -0.3549  0.3274  0.0849
 4101TIP3    H112309   6.377   1.371   2.550 -0.5964  0.4479  0.5671
 4101TIP3    H212310   6.285   1.353   2.431 -1.7763 -1.2667  1.6943
 4102TIP3   OH212311   1.719   4.278   1.702 -0.7279  0.0970  0.8592
 4102TIP3    H112312   1.626   4.257   1.714 -1.0436  0.8951 -0.0391
 4102TIP3    H212313   1.725   4.310   1.612  0.6154 -0.9127  0.5586
 4103TIP3   OH212314   4.560   4.153   3.302  0.1439 -0.2864  0.4458
 4103TIP3    H112315   4.558   4.242   3.266  1.4617 -0.1887  0.5598
 4103TIP3    H212316   4.468   4.129   3.313 -0.2293  1.4773  1.4359
 4104TIP3   OH212317   1.902   4.649   2.395  0.4567  0.5506 -0.0364
 4104TIP3    H112318   1.948   4.568   2.416 -0.9348  0.2577  2.2017
 4104TIP3    H212319   1.866   4.635   2.307  0.1503 -1.3299  0.3586
 4105TIP3   OH212320   3.082   3.716   4.758  0.4186 -0.1710 -0.0737
 4105TIP3    H112321   3.085   3.692   4.665  0.1955 -0.8804  0.0919
 4105TIP3    H212322   3.029   3.647   4.799 -2.5235  1.9508  0.0381
 4106TIP3   OH212323   3.692   2.740   0.197 -0.3368  0.6011  0.0906
 4106TIP3    H112324   3.784   2.741   0.173 -0.4449  0.1429 -0.3699
 4106TIP3    H212325   3.691   2.749   0.292  0.2038  0.2013  0.1400
 4107TIP3   OH212326   0.737   0.541   3.707 -0.3339  0.1743 -0.0641
 4107TIP3    H112327   0.695   0.598   3.643  1.2882  1.1821 -0.2699
 4107TIP3    H212328   0.719   0.582   3.791 -0.4877  0.1311 -0.0756
 4108TIP3   OH212329   1.334   4.145   1.040  0.2123 -0.1374  0.0171
 4108TIP3    H112330   1.276   4.160   1.114  2.0039  2.6612  1.0074
 4108TIP3    H212331   1.315   4.056   1.012 -3.3872  0.1068  1.2423
 4109TIP3   OH212332   3.290   5.217   0.727 -0.0475 -0.4592 -0.5496
 4109TIP3    H112333   3.344   5.293   0.707  0.3220 -0.4171  0.5210
 4109TIP3    H212334   3.325   5.185   0.811 -2.6822  0.5334  1.0524
 4110TIP3   OH212335   1.423   4.101   2.930  0.3985 -0.4858 -0.1344
 4110TIP3    H112336   1.493   4.146   2.882 -0.3625  0.3913 -0.4507
 4110TIP3    H212337   1.388   4.037   2.867  1.0709 -1.1014  0.1086
 4111TIP3   OH212338   0.337   4.094   3.409  0.1775  0.3934 -0.0173
 4111TIP3    H112339   0.321   4.032   3.479  0.6200  0.8135  0.4641
 4111TIP3    H212340   0.323   4.180   3.449 -2.3452  0.6046 -1.1423
 4112TIP3   OH212341   0.161   2.305   3.868 -0.3766  0.4276 -0.3664
 4112TIP3    H112342   0.126   2.380   3.916 -0.9779 -0.2919  0.3657
 4112TIP3    H212343   0.083   2.255   3.843  0.0614 -1.0136  0.9745
 4113TIP3   OH212344   2.798   3.940   2.615 -0.6857  0.1045  0.7859
 4113TIP3    H112345   2.838   3.895   2.540 -1.1865 -1.1802  1.2598
 4113TIP3    H212346   2.816   4.033   2.599  0.2960 -0.2370 -0.2835
 4114TIP3   OH212347   2.264   3.589   1.964  0.3340 -0.1299  0.6449
 4114TIP3    H112348   2.182   3.542   1.979  1.1101 -2.0789 -0.8372
 4114TIP3    H212349   2.242   3.655   1.899 -0.4100  0.5177  1.5279
 4115TIP3   OH212350   3.362   1.004   3.948 -0.4282 -0.5341  0.2391
 4115TIP3    H112351   3.316   1.060   4.010  0.4771 -1.2258  1.5810
 4115TIP3    H212352   3.380   1.062   3.873  0.4124  0.9781  1.5380
 4116TIP3   OH212353   0.329   1.357   1.093 -0.1181  0.6139  0.2028
 4116TIP3    H112354   0.242   1.325   1.071  0.4198  0.0826 -1.2523
 4116TIP3    H212355   0.375   1.280   1.129  0.2248  0.4839 -0.4904
 4117TIP3   OH212356   2.192   2.832   4.788  0.0021 -0.6609  0.2182
 4117TIP3    H112357   2.198   2.897   4.718 -1.5641 -0.7333 -0.0173
 4117TIP3    H212358   2.212   2.881   4.868  1.6359 -0.5403 -0.2310
 4118TIP3   OH212359   3.064   5.355   4.511 -0.1688 -0.4024  0.2094
 4118TIP3    H112360   3.058   5.296   4.436 -0.6254 -1.0582  0.7497
 4118TIP3    H212361   3.077   5.441   4.472 -0.7401 -0.6830 -0.6411
 4119TIP3   OH212362   0.159   3.128   4.398 -0.0738  0.4636  0.4397
 4119TIP3    H112363   0.072   3.097   4.423  0.0771 -0.1424  0.2404
 4119TIP3    H212364   0.200   3.152   4.481 -0.9685  2.2544  0.4003
 4120TIP3   OH212365   2.385   4.256   2.491  0.4858 -0.1328  0.0606
 4120TIP3    H112366   2.340   4.273   2.408  0.8060  1.7041  0.2293
 4120TIP3    H212367   2.474   4.233   2.464  0.2902 -0.6728 -0.1422
 4121TIP3   OH212368   3.536   2.687   1.503 -0.3657  0.1847  0.4685
 4121TIP3    H112369   3.602   2.646   1.447  1.3612  2.6592  0.5471
 4121TIP3    H212370   3.526   2.626   1.577 -0.4089 -1.6465 -0.9669
 4122TIP3   OH212371   6.263   3.010   0.801 -0.4421  0.0469 -0.2957
 4122TIP3    H112372   6.241   2.917   0.788 -0.8069 -0.3040  2.2637
 4122TIP3    H212373   6.357   3.010   0.817 -0.6274 -0.0455  0.8331
 4123TIP3   OH212374   3.378   0.571   0.689  0.1894  0.0708 -0.1633
 4123TIP3    H112375   3.377   0.662   0.717  2.0821 -0.2316  1.1163
 4123TIP3    H212376   3.457   0.534   0.729  1.2560 -1.3268 -3.2098
 4124TIP3   OH212377   2.456   5.383   0.700 -0.3101 -0.5039 -0.3190
 4124TIP3    H112378   2.480   5.346   0.615 -1.1453 -1.0219 -0.3408
 4124TIP3    H212379   2.503   5.329   0.764  1.5000  0.7885 -0.4615
 4125TIP3   OH212380   3.817   0.461   3.611 -0.1782  0.1067  0.1967
 4125TIP3    H112381   3.845   0.370   3.621  1.1081  0.6064  1.4246
 4125TIP3    H212382   3.893   0.506   3.574 -0.6502  0.7794  0.0246
 4126TIP3   OH212383   2.437   2.547   2.394  0.0707  0.0700 -0.0364
 4126TIP3    H112384   2.343   2.534   2.406  0.0301 -0.5276 -0.9216
 4126TIP3    H212385   2.477   2.474   2.440  0.0646 -0.2003 -0.4624
 4127TIP3   OH212386   1.581   1.513   4.805  0.1380 -0.2683  0.0209
 4127TIP3    H112387   1.648   1.551   4.748  0.2905  0.1507  0.4657
 4127TIP3    H212388   1.623   1.508   4.891 -0.3494 -0.1449  0.2689
 4128TIP3   OH212389   2.875   1.884   0.955 -0.3069 -0.1695  0.4454
 4128TIP3    H112390   2.811   1.883   1.026 -2.2823 -0.0398 -1.2175
 4128TIP3    H212391   2.905   1.975   0.951  0.3413 -0.3253  1.5245
 4129TIP3   OH212392   5.947   3.028   1.413  0.5688  0.1450  0.4820
 4129TIP3    H112393   6.003   2.968   1.460 -1.1158 -0.2384  2.1289
 4129TIP3    H212394   5.992   3.113   1.418  0.7112  0.0008  2.3642
 4130TIP3   OH212395   5.528   0.401   4.843 -0.3314  0.2103  0.0940
 4130TIP3    H112396   5.548   0.329   4.902 -2.1313  1.7938  2.8489
 4130TIP3    H212397   5.613   0.440   4.822  0.4971 -1.5433  0.0667
 4131TIP3   OH212398   4.826   0.426   2.428 -0.3211  0.5727 -0.0969
 4131TIP3    H112399   4.894   0.471   2.478 -0.8311  1.2849 -0.0223
 4131TIP3    H212400   4.784   0.368   2.491 -0.9968  1.5050  0.3263
 4132TIP3   OH212401   0.565   5.158   0.330 -0.2566  0.1760 -0.2222
 4132TIP3    H112402   0.581   5.250   0.309 -0.4860  0.5216  0.9914
 4132TIP3    H212403   0.557   5.157   0.426  1.9567 -1.4474  0.0192
 4133TIP3   OH212404   3.046   2.454   0.293  0.2664  0.4626  0.4207
 4133TIP3    H112405   3.059   2.369   0.336 -1.9037  0.5586  1.3848
 4133TIP3    H212406   3.122   2.506   0.318  1.3737 -0.9932  0.2421
 4134TIP3   OH212407   2.633   5.948   0.219 -0.5954  0.1276 -0.3628
 4134TIP3    H112408   2.568   5.952   0.149 -1.0879  0.4373  0.1087
 4134TIP3    H212409   2.692   6.021   0.201 -0.3973 -0.1309 -0.7695
 4135TIP3   OH212410   3.931   3.142   0.862  0.1253  0.1929  0.1539
 4135TIP3    H112411   3.925   3.207   0.793 -0.7154 -1.1880 -1.1602
 4135TIP3    H212412   4.020   3.148   0.895  0.2692  1.4833 -0.4427
 4136TIP3   OH212413   2.755   2.722   1.042 -0.4088  0.2645  0.2967
 4136TIP3    H112414   2.698   2.663   0.991 -0.4225 -0.9486  1.6366
 4136TIP3    H212415   2.843   2.700   1.013 -0.5378  1.3213 -0.9463
 4137TIP3   OH212416   0.399   3.062   3.917  0.6299 -0.1358 -1.0126
 4137TIP3    H112417   0.444   3.129   3.968 -0.7299  0.7689 -0.9351
 4137TIP3    H212418   0.437   2.979   3.946 -0.3616  0.3081  1.7978
 4138TIP3   OH212419   2.365   2.229   3.860  0.0158 -0.3185  0.1300
 4138TIP3    H112420   2.391   2.140   3.884  1.1585 -0.1277 -0.3204
 4138TIP3    H212421   2.302   2.255   3.928 -0.8581 -1.7034 -0.1131
 4139TIP3   OH212422   2.950   3.347   4.629 -0.2543 -0.2133  0.0734
 4139TIP3    H112423   3.027   3.371   4.577 -0.0701 -0.2848  0.3141
 4139TIP3    H212424   2.879   3.401   4.593 -0.0007  0.1534  0.1267
 4140TIP3   OH212425   1.112   5.611   2.814  0.3557 -0.0579 -0.3068
 4140TIP3    H112426   1.187   5.669   2.801  1.1883  0.0968  3.8436
 4140TIP3    H212427   1.037   5.670   2.815  0.6211  0.2945 -0.6557
 4141TIP3   OH212428   1.849   4.843   3.815  0.1511  0.1986 -0.3493
 4141TIP3    H112429   1.811   4.898   3.746  0.4145  0.8328 -0.0011
 4141TIP3    H212430   1.942   4.863   3.813  0.5305 -1.4872 -1.3216
 4142TIP3   OH212431   4.899   1.004   2.584 -0.5533  0.1005 -0.1803
 4142TIP3    H112432   4.933   1.043   2.504  2.0781  1.1664  1.3461
 4142TIP3    H212433   4.886   1.078   2.644  0.4689 -0.9180  1.3683
 4143TIP3   OH212434   1.221   2.041   0.242  0.2994 -0.6192 -0.2681
 4143TIP3    H112435   1.160   2.043   0.315  1.2578 -0.1443  0.5384
 4143TIP3    H212436   1.238   2.133   0.222  0.4941 -0.7472 -0.7089
 4144TIP3   OH212437   2.209   3.781   1.781 -0.5993  1.1048 -0.5189
 4144TIP3    H112438   2.121   3.767   1.746 -0.6058 -1.0026  0.2283
 4144TIP3    H212439   2.250   3.840   1.718 -1.1333 -1.2547 -3.2829
 4145TIP3   OH212440   4.737   0.101   5.021  0.3917 -0.4872 -0.3579
 4145TIP3    H112441   4.663   0.116   4.962  0.3898  0.7975 -0.0697
 4145TIP3    H212442   4.756   0.008   5.014 -1.8309 -1.0316  0.2574
 4146TIP3   OH212443   3.393   0.211   1.822  0.1951 -0.0935  0.4374
 4146TIP3    H112444   3.429   0.176   1.741  0.2821 -0.2307  0.5347
 4146TIP3    H212445   3.452   0.281   1.848 -0.2359  0.4407 -0.0053
 4147TIP3   OH212446   6.109   0.102   4.132  0.6219  0.1933  0.4911
 4147TIP3    H112447   6.080   0.044   4.062  0.4724 -0.9972  1.5132
 4147TIP3    H212448   6.185   0.059   4.169  0.4094  0.5631  1.3752
 4148TIP3   OH212449   3.645   1.637   0.461  0.0892  1.1480 -0.1061
 4148TIP3    H112450   3.738   1.618   0.449  0.1941  0.3155  1.7111
 4148TIP3    H212451   3.639   1.732   0.455  0.6096  1.1038 -2.7729
 4149TIP3   OH212452   6.199   3.062   2.787  0.0106 -0.1359  0.3329
 4149TIP3    H112453   6.137   3.123   2.827  0.5088 -0.2721  1.3470
 4149TIP3    H212454   6.235   3.012   2.861  1.6038  0.1984 -0.1730
 4150TIP3   OH212455   1.198   4.138   1.300 -0.0894 -0.1005 -0.2911
 4150TIP3    H112456   1.178   4.217   1.349  1.8514  0.0202  0.4115
 4150TIP3    H212457   1.294   4.138   1.293 -0.2068 -0.5627 -3.3479
 4151TIP3   OH212458   2.490   4.304   4.575 -0.9801 -0.1290  0.1674
 4151TIP3    H112459   2.548   4.312   4.499  0.3599 -0.1291  1.1378
 4151TIP3    H212460   2.415   4.253   4.543  0.0006 -0.9487 -0.9211
 4152TIP3   OH212461   5.472   3.514   1.813  0.2424 -0.0599 -0.0132
 4152TIP3    H112462   5.393   3.470   1.780  0.4019 -0.5237  0.2166
 4152TIP3    H212463   5.501   3.569   1.740  0.4306 -0.8595 -0.5543
 4153TIP3   OH212464   0.521   4.454   2.285  0.0345  0.1462  0.7623
 4153TIP3    H112465   0.508   4.530   2.341  0.4705 -0.2918  1.4774
 4153TIP3    H212466   0.513   4.488   2.196  0.2280  1.0243  1.0693
 4154TIP3   OH212467   4.901   3.708   1.212 -0.9307  0.7174 -0.3623
 4154TIP3    H112468   4.984   3.667   1.188 -0.8235  1.0098 -0.4991
 4154TIP3    H212469   4.835   3.645   1.186 -0.9258  1.6960 -3.0026
 4155TIP3   OH212470   1.817   1.387   3.361 -0.6173 -0.0315  0.0674
 4155TIP3    H112471   1.867   1.409   3.282  0.7537 -0.2159  0.8542
 4155TIP3    H212472   1.806   1.292   3.355 -1.4059  0.0805 -0.3949
 4156TIP3   OH212473   1.542   4.796   1.032 -0.8205 -0.2064 -0.1995
 4156TIP3    H112474   1.539   4.807   0.937 -0.7248 -0.5116 -0.2387
 4156TIP3    H212475   1.604   4.725   1.046 -0.1456  0.4398  0.1473
 4157TIP3   OH212476   2.097   3.790   1.363  0.1407  0.2672 -0.5289
 4157TIP3    H112477   2.042   3.745   1.428  0.6742 -0.2619 -0.4380
 4157TIP3    H212478   2.185   3.787   1.400  0.5041 -0.3055 -1.4182
 4158TIP3   OH212479   1.427   0.505   1.806 -0.3886  0.5091  0.0649
 4158TIP3    H112480   1.500   0.536   1.752 -0.1789  3.7133  1.9662
 4158TIP3    H212481   1.462   0.503   1.895 -1.8930 -0.5997  0.6632
 4159TIP3   OH212482   5.999   2.059   3.619 -0.3827  0.9904  0.1908
 4159TIP3    H112483   5.997   1.985   3.679  0.1550 -0.5270 -1.5747
 4159TIP3    H212484   5.992   2.136   3.675 -0.0719 -0.3518  2.1559
 4160TIP3   OH212485   2.120   4.304   0.499  0.1344  0.0992  0.3932
 4160TIP3    H112486   2.139   4.210   0.505 -1.1168 -0.2493 -0.5688
 4160TIP3    H212487   2.140   4.326   0.408 -0.5083  0.5352  0.3502
 4161TIP3   OH212488   6.235   0.825   1.064 -0.2585 -0.5370  0.9122
 4161TIP3    H112489   6.298   0.829   0.992 -0.7073  0.3105  0.5566
 4161TIP3    H212490   6.284   0.784   1.136  0.3548 -0.9061  0.3016
 4162TIP3   OH212491   3.556   0.163   2.462 -0.6760 -0.2385  0.1162
 4162TIP3    H112492   3.582   0.242   2.509 -0.3867 -1.0456  1.3732
 4162TIP3    H212493   3.524   0.194   2.377  1.5779  1.0265 -0.3234
 4163TIP3   OH212494   4.172   0.272   0.192 -0.4484 -0.0456 -0.0632
 4163TIP3    H112495   4.188   0.296   0.284  0.5361  0.7040 -0.4068
 4163TIP3    H212496   4.168   0.176   0.193  2.0161 -0.2245  0.4497
 4164TIP3   OH212497   4.627   2.377   2.296  0.0919 -0.7380 -0.3592
 4164TIP3    H112498   4.550   2.428   2.271 -0.7633 -2.8802 -2.4243
 4164TIP3    H212499   4.699   2.417   2.248 -0.2896 -0.5821 -0.7990
 4165TIP3   OH212500   2.974   4.482   1.995 -0.9653  0.2087  0.2217
 4165TIP3    H112501   2.958   4.555   1.935  0.2759  0.3725  0.0578
 4165TIP3    H212502   2.991   4.407   1.938 -1.4693 -0.0265  0.3823
 4166TIP3   OH212503   0.489   3.813   0.297  0.2524 -0.1370 -0.2654
 4166TIP3    H112504   0.446   3.765   0.368 -0.8110  1.7925  0.4629
 4166TIP3    H212505   0.580   3.782   0.298  0.5057  0.4767  2.5634
 4167TIP3   OH212506   1.324   1.454   0.454  0.0470 -0.3745  0.5599
 4167TIP3    H112507   1.260   1.489   0.516 -0.7032 -2.5547  1.0728
 4167TIP3    H212508   1.286   1.472   0.368 -1.1393 -1.4051  0.8568
 4168TIP3   OH212509   1.088   5.212   0.573  0.6764 -0.5477 -0.4942
 4168TIP3    H112510   1.141   5.162   0.512  1.5737 -1.1335  0.7208
 4168TIP3    H212511   1.031   5.146   0.614  0.8624 -0.3478  0.0908
 4169TIP3   OH212512   4.015   5.068   3.936 -0.2167 -0.1600  0.1689
 4169TIP3    H112513   3.986   4.995   3.882  1.1683 -0.3608 -0.3433
 4169TIP3    H212514   4.090   5.034   3.985  0.4206  0.8787 -0.0382
 4170TIP3   OH212515   5.942   1.434   4.286  0.3537 -0.2382 -0.1604
 4170TIP3    H112516   5.879   1.390   4.344 -2.6422  1.2833 -1.9558
 4170TIP3    H212517   5.982   1.363   4.237 -0.2960 -1.2784  0.7462
 4171TIP3   OH212518   2.804   3.924   2.911 -0.4250  0.3133  0.3808
 4171TIP3    H112519   2.796   3.952   2.820  1.7445  0.4389  0.1940
 4171TIP3    H212520   2.717   3.891   2.933 -1.2575  1.1663 -1.4244
 4172TIP3   OH212521   1.346   0.251   1.616  0.0464  0.4303 -0.3510
 4172TIP3    H112522   1.342   0.325   1.677 -1.4320  0.6347 -0.6404
 4172TIP3    H212523   1.262   0.207   1.628 -0.2072  0.3718 -2.0846
 4173TIP3   OH212524   2.195   0.675   4.697  0.3123 -0.3669 -0.1896
 4173TIP3    H112525   2.236   0.761   4.696 -0.8648  0.2188  0.4190
 4173TIP3    H212526   2.209   0.643   4.786 -0.9870  0.0711  0.1888
 4174TIP3   OH212527   4.056   1.850   2.748  0.3748  0.1543 -0.0787
 4174TIP3    H112528   4.036   1.784   2.681  0.9209  1.3234 -1.4357
 4174TIP3    H212529   4.007   1.928   2.720  2.4002  1.3673 -0.4262
 4175TIP3   OH212530   3.084   4.492   3.417 -0.3298  0.4901 -0.1948
 4175TIP3    H112531   3.063   4.477   3.325 -0.6845 -0.8484  0.0867
 4175TIP3    H212532   3.130   4.413   3.444  0.5863  1.2615  0.5490
 4176TIP3   OH212533   4.872   3.325   0.816  0.4980 -0.5239  0.3924
 4176TIP3    H112534   4.922   3.273   0.879 -0.7435 -0.2640  1.6233
 4176TIP3    H212535   4.894   3.416   0.838 -0.1864 -0.4232  0.6642
 4177TIP3   OH212536   4.842   3.266   3.728  0.4512 -0.0411 -0.6481
 4177TIP3    H112537   4.926   3.271   3.776 -0.6021 -0.0837  1.3232
 4177TIP3    H212538   4.806   3.181   3.754 -0.1004 -0.1240 -1.6804
 4178TIP3   OH212539   1.301   3.487   2.419  0.0629  0.1001  0.4340
 4178TIP3    H112540   1.296   3.394   2.441  0.2753 -0.2098 -0.7216
 4178TIP3    H212541   1.270   3.491   2.328  0.9845  1.0035  0.1438
 4179TIP3   OH212542   3.358   3.904   0.595  0.2222 -0.0191 -0.2771
 4179TIP3    H112543   3.444   3.945   0.605  0.2002  0.0711 -0.4674
 4179TIP3    H212544   3.299   3.957   0.649  0.8309 -1.8231  2.3726
 4180TIP3   OH212545   5.861   3.845   3.656 -0.0949 -0.7081 -0.3964
 4180TIP3    H112546   5.827   3.757   3.639  1.5180 -1.6640  1.0427
 4180TIP3    H212547   5.956   3.834   3.655  0.1372  1.0528 -0.2630
 4181TIP3   OH212548   1.227   3.531   4.423  0.1096  0.1481  0.4109
 4181TIP3    H112549   1.239   3.564   4.334  1.1310 -1.0121  0.0958
 4181TIP3    H212550   1.307   3.558   4.469  0.4785 -0.9378  0.4305
 4182TIP3   OH212551   2.292   2.450   1.682 -0.3375 -0.1037  0.1665
 4182TIP3    H112552   2.338   2.533   1.695  1.4922 -0.5412 -2.6371
 4182TIP3    H212553   2.205   2.475   1.652 -0.3672  0.7659  0.9411
 4183TIP3   OH212554   4.164   1.665   4.279 -0.0588 -0.1602 -0.5188
 4183TIP3    H112555   4.192   1.731   4.216  0.5360  1.3145  1.2173
 4183TIP3    H212556   4.146   1.587   4.226  2.2258  0.4369 -2.3114
 4184TIP3   OH212557   1.724   1.666   4.251 -0.1225 -0.3280  0.2964
 4184TIP3    H112558   1.653   1.720   4.285  1.4663  2.5408 -0.6532
 4184TIP3    H212559   1.803   1.701   4.292  0.8813 -3.3513  1.2337
 4185TIP3   OH212560   0.128   5.086   4.055 -0.7477  0.1228  0.0059
 4185TIP3    H112561   0.161   5.155   4.114  3.9878 -0.6975 -1.2805
 4185TIP3    H212562   0.171   5.103   3.972  1.3468 -4.6655 -0.1924
 4186TIP3   OH212563   1.823   3.115   0.654  0.5528 -0.3182 -0.1582
 4186TIP3    H112564   1.795   3.117   0.745 -0.8279 -1.3728 -0.5166
 4186TIP3    H212565   1.908   3.071   0.656  0.8885  0.3442  0.6864
 4187TIP3   OH212566   2.032   1.267   4.763  0.4657  0.1805  0.0146
 4187TIP3    H112567   2.005   1.350   4.804  0.2042 -0.3742  1.0076
 4187TIP3    H212568   1.953   1.237   4.718 -0.2474 -0.7873  1.8193
 4188TIP3   OH212569   1.571   1.764   4.490  0.3826  0.1479  0.2535
 4188TIP3    H112570   1.589   1.674   4.515 -0.5924  0.1831  1.1922
 4188TIP3    H212571   1.652   1.811   4.509 -0.3218  0.2345  3.8894
 4189TIP3   OH212572   0.958   3.768   2.309 -0.0424  0.4721  0.5202
 4189TIP3    H112573   1.022   3.764   2.379 -0.6239 -2.7992  1.0236
 4189TIP3    H212574   0.879   3.728   2.346 -1.3641  1.4797 -1.0561
 4190TIP3   OH212575   3.730   1.131   2.082 -0.1719 -0.5892  0.2103
 4190TIP3    H112576   3.708   1.163   2.169 -0.3914 -0.3192  0.0556
 4190TIP3    H212577   3.651   1.086   2.052  0.8081 -3.2444  1.3072
 4191TIP3   OH212578   1.696   2.878   2.673 -0.2204  0.5129  0.2839
 4191TIP3    H112579   1.624   2.856   2.614 -2.2846  0.4695  2.6645
 4191TIP3    H212580   1.712   2.797   2.722 -1.1534  1.4692  2.2994
 4192TIP3   OH212581   3.323   1.366   0.159  0.1692 -0.4771 -1.2726
 4192TIP3    H112582   3.332   1.374   0.254  0.9571  0.1370 -1.3853
 4192TIP3    H212583   3.377   1.436   0.124 -1.0774  0.0896 -2.1607
 4193TIP3   OH212584   1.971   2.433   0.427 -1.0583  0.4316  0.1271
 4193TIP3    H112585   1.949   2.447   0.335 -1.1641 -1.1930 -0.1171
 4193TIP3    H212586   2.054   2.385   0.425 -0.1012  1.9668  0.9432
 4194TIP3   OH212587   3.677   4.395   3.249 -0.2526 -0.1797 -0.4061
 4194TIP3    H112588   3.681   4.373   3.156 -0.1300  1.2306 -0.7617
 4194TIP3    H212589   3.749   4.346   3.288  2.3853  2.2904 -1.7847
 4195TIP3   OH212590   5.346   0.913   2.313  0.0571 -0.5115  0.1579
 4195TIP3    H112591   5.310   1.001   2.326 -0.8878 -1.0032  0.9616
 4195TIP3    H212592   5.441   0.925   2.318  0.0743  0.8409 -2.1722
 4196TIP3   OH212593   4.629   4.218   4.777  0.0196 -0.7944 -0.4133
 4196TIP3    H112594   4.585   4.282   4.721 -0.8119 -1.3943 -0.4678
 4196TIP3    H212595   4.597   4.238   4.865 -0.4505 -1.2918 -0.4648
 4197TIP3   OH212596   2.544   5.768   3.966 -0.8717  0.2381  0.3334
 4197TIP3    H112597   2.526   5.794   3.876 -0.2690 -0.1548  0.0884
 4197TIP3    H212598   2.635   5.737   3.964 -1.7508 -2.7035  0.3794
 4198TIP3   OH212599   4.025   4.413   3.922 -0.0276 -0.0483  0.1141
 4198TIP3    H112600   4.073   4.493   3.941  1.6584 -1.3181  1.5907
 4198TIP3    H212601   3.951   4.441   3.868  1.3606  2.2573 -0.7307
 4199TIP3   OH212602   5.239   3.327   2.968  0.2170 -0.0661 -0.2939
 4199TIP3    H112603   5.166   3.353   2.911  1.4857 -0.1042 -2.0204
 4199TIP3    H212604   5.291   3.268   2.915  2.2934  1.0807  0.3456
 4200TIP3   OH212605   2.618   5.887   4.464  0.0958 -0.3008 -0.1057
 4200TIP3    H112606   2.652   5.823   4.526 -0.5647  0.5500  1.1623
 4200TIP3    H212607   2.686   5.954   4.460 -0.2456  0.0720  0.3629
 4201TIP3   OH212608   2.717   3.823   4.180  0.4283  0.0372  0.2299
 4201TIP3    H112609   2.786   3.874   4.137 -0.0544  0.5440  0.0450
 4201TIP3    H212610   2.667   3.785   4.108  2.3771 -2.9844  0.3060
 4202TIP3   OH212611   4.112   3.443   2.424  0.6784 -0.4218 -0.1118
 4202TIP3    H112612   4.028   3.410   2.392  0.9630  0.0274 -1.3662
 4202TIP3    H212613   4.173   3.371   2.409  0.9481  0.0235 -1.2492
 4203TIP3   OH212614   4.798   3.524   4.269  0.1149  0.0237  0.3683
 4203TIP3    H112615   4.786   3.606   4.221 -2.1822 -0.1084  0.5870
 4203TIP3    H212616   4.756   3.540   4.354 -1.9750 -1.8657 -0.2046
 4204TIP3   OH212617   0.176   1.556   5.009  0.3738  0.2215  0.2497
 4204TIP3    H112618   0.245   1.525   4.950  0.6248 -1.7220  1.4937
 4204TIP3    H212619   0.125   1.478   5.030 -1.6052  1.4322  0.1923
 4205TIP3   OH212620   3.875   2.876   3.682 -0.6504 -0.2874 -0.0326
 4205TIP3    H112621   3.926   2.811   3.730  0.3586 -0.6105 -1.4506
 4205TIP3    H212622   3.941   2.933   3.641 -1.4342 -0.1809 -1.1969
 4206TIP3   OH212623   5.766   0.805   5.133 -0.6303  0.1555 -0.1760
 4206TIP3    H112624   5.750   0.763   5.048  0.0684 -1.4176  0.4273
 4206TIP3    H212625   5.819   0.741   5.181  0.3027  1.6740  0.8902
 4207TIP3   OH212626   1.865   2.302   0.973  1.4155  0.4710 -0.2140
 4207TIP3    H112627   1.891   2.353   0.896 -1.1685  1.4199 -0.5770
 4207TIP3    H212628   1.782   2.342   1.000  0.3338 -2.2481  0.7722
 4208TIP3   OH212629   1.102   1.435   1.622 -0.3575  0.6429  0.0306
 4208TIP3    H112630   1.016   1.399   1.645  0.2544  0.2039  1.8519
 4208TIP3    H212631   1.158   1.358   1.609  0.1975  0.8954  0.7965
 4209TIP3   OH212632   1.223   5.385   4.979  0.2565 -0.3978 -0.7194
 4209TIP3    H112633   1.180   5.419   4.900  0.1741 -0.5502 -0.7409
 4209TIP3    H212634   1.287   5.321   4.946  0.5731 -0.0958 -0.6936
 4210TIP3   OH212635   5.148   4.113   0.881  0.3560 -0.7614 -0.4907
 4210TIP3    H112636   5.235   4.122   0.920  0.5470  0.3998 -1.1143
 4210TIP3    H212637   5.117   4.028   0.910  1.0090 -0.4849  1.1220
 4211TIP3   OH212638   3.269   4.176   1.429 -0.2150 -0.4301 -0.4052
 4211TIP3    H112639   3.248   4.261   1.468 -1.8361  0.1172 -2.2947
 4211TIP3    H212640   3.311   4.126   1.500 -0.9939  1.2527  1.3158
 4212TIP3   OH212641   2.079   0.733   0.369 -0.2427 -0.4625  0.2989
 4212TIP3    H112642   2.085   0.765   0.459  2.2173 -1.2492  0.4911
 4212TIP3    H212643   1.992   0.694   0.363 -0.3254 -0.7136  2.4509
 4213TIP3   OH212644   1.189   5.421   0.238  1.1342  0.0889  0.0043
 4213TIP3    H112645   1.234   5.369   0.172  1.1034  0.7625 -0.5560
 4213TIP3    H212646   1.253   5.431   0.309  0.5950 -2.0724  0.8599
 4214TIP3   OH212647   1.358   5.760   2.836  0.2977 -0.4575 -0.2471
 4214TIP3    H112648   1.436   5.783   2.786  1.0169 -2.9604 -0.4095
 4214TIP3    H212649   1.391   5.716   2.915 -0.9098 -1.2832 -0.1619
 4215TIP3   OH212650   6.109   0.400   2.071  0.3277 -0.4052 -0.4053
 4215TIP3    H112651   6.071   0.338   2.009  0.5840 -0.0264 -0.9496
 4215TIP3    H212652   6.035   0.431   2.123 -0.0909  0.2474 -1.3808
 4216TIP3   OH212653   0.432   0.516   2.911  0.1622  0.0925  0.0742
 4216TIP3    H112654   0.395   0.554   2.991 -0.3815  2.2508 -1.1119
 4216TIP3    H212655   0.376   0.440   2.892 -0.1766  0.0212  1.3024
 4217TIP3   OH212656   2.977   0.584   1.794  0.6418  0.3894 -0.2577
 4217TIP3    H112657   2.934   0.593   1.709 -0.1429  0.7194  0.1604
 4217TIP3    H212658   3.020   0.499   1.791 -1.7929 -0.9484  0.0403
 4218TIP3   OH212659   0.753   0.536   3.018 -0.2712 -0.2133  0.3276
 4218TIP3    H112660   0.665   0.522   2.986  0.1823 -0.0775 -1.0292
 4218TIP3    H212661   0.810   0.516   2.944  0.8736 -0.7971  1.3271
 4219TIP3   OH212662   3.038   0.669   1.372  0.2510  0.7845 -0.5156
 4219TIP3    H112663   3.125   0.697   1.403 -0.1610  2.0196 -0.4412
 4219TIP3    H212664   3.055   0.624   1.290  0.8726  1.9862 -1.0663
 4220TIP3   OH212665   0.637   0.141   5.112  0.2084 -0.4982  0.6329
 4220TIP3    H112666   0.628   0.236   5.098  2.3456 -0.3972 -0.5484
 4220TIP3    H212667   0.672   0.134   5.201  2.8425  0.0973 -0.2716
 4221TIP3   OH212668   2.680   2.796   2.699  0.1884 -0.1738  0.0756
 4221TIP3    H112669   2.751   2.845   2.659  0.4108  0.5787  1.3323
 4221TIP3    H212670   2.606   2.857   2.699  0.2239 -0.1180  0.8834
 4222TIP3   OH212671   2.419   1.189   1.588  0.5023 -0.0280 -0.3789
 4222TIP3    H112672   2.450   1.099   1.602  1.4066  0.2462 -0.5846
 4222TIP3    H212673   2.431   1.204   1.494  0.9939  0.5361 -0.2295
 4223TIP3   OH212674   1.152   3.022   1.919  0.4127  0.2098 -0.0572
 4223TIP3    H112675   1.247   3.020   1.932  0.4011 -1.1592 -0.0692
 4223TIP3    H212676   1.129   2.933   1.895 -1.2586 -0.1976  2.6363
 4224TIP3   OH212677   3.230   4.134   0.735 -0.4330 -0.3245 -0.8822
 4224TIP3    H112678   3.326   4.130   0.739 -0.3282  1.4705  3.2790
 4224TIP3    H212679   3.212   4.194   0.663  1.7364  1.2995 -0.1832
 4225TIP3   OH212680   1.791   4.759   3.201 -0.6286 -0.3601  0.1232
 4225TIP3    H112681   1.782   4.664   3.202  0.9949 -0.5325  0.7251
 4225TIP3    H212682   1.713   4.791   3.247 -0.0073 -1.5481  2.1518
 4226TIP3   OH212683   0.419   3.176   1.239  0.1892  0.0859  0.4750
 4226TIP3    H112684   0.336   3.204   1.278 -0.8592 -0.0398 -1.5433
 4226TIP3    H212685   0.468   3.257   1.229 -0.5946  0.4831 -0.3000
 4227TIP3   OH212686   4.552   1.233   1.388 -0.1410 -0.2398 -0.6383
 4227TIP3    H112687   4.577   1.194   1.472 -0.9384  0.6000  0.0196
 4227TIP3    H212688   4.457   1.222   1.384 -0.0013 -1.2338 -1.9621
 4228TIP3   OH212689   1.825   1.198   2.093  0.1227 -0.0970  0.2212
 4228TIP3    H112690   1.907   1.246   2.106 -0.3881  0.8450  0.0248
 4228TIP3    H212691   1.850   1.124   2.037  0.6917  0.6657 -0.5801
 4229TIP3   OH212692   1.924   2.472   0.759  0.4386  0.1412  0.2723
 4229TIP3    H112693   1.834   2.503   0.769 -0.5653 -1.4529 -2.6914
 4229TIP3    H212694   1.941   2.476   0.665  3.0539 -0.7711  0.6177
 4230TIP3   OH212695   1.277   1.810   4.240 -0.0049 -0.2540 -0.1313
 4230TIP3    H112696   1.214   1.882   4.244  1.7010  1.2289  1.7311
 4230TIP3    H212697   1.253   1.753   4.313 -0.3599 -0.7203 -0.6085
 4231TIP3   OH212698   5.465   2.725   2.284  0.9962 -0.0513 -0.4125
 4231TIP3    H112699   5.409   2.651   2.260 -0.1322  0.0518  1.6296
 4231TIP3    H212700   5.548   2.685   2.310  1.0422 -0.4242 -1.1115
 4232TIP3   OH212701   1.884   1.359   2.893  0.3921  0.1970  0.4617
 4232TIP3    H112702   1.979   1.353   2.897  0.2768 -1.2557  1.7910
 4232TIP3    H212703   1.867   1.442   2.848  2.2649  0.1579 -0.4133
 4233TIP3   OH212704   2.519   2.590   2.864  0.0423  0.0788  0.2381
 4233TIP3    H112705   2.583   2.659   2.844 -2.6030  1.8379 -3.1156
 4233TIP3    H212706   2.435   2.627   2.840 -1.5431 -4.5115 -2.5351
 4234TIP3   OH212707   0.781   3.561   4.852 -0.2493  0.2507  0.3714
 4234TIP3    H112708   0.834   3.554   4.772 -0.2125  1.0398  0.3265
 4234TIP3    H212709   0.701   3.513   4.831  0.1565 -0.3723  0.2018
 4235TIP3   OH212710   2.191   3.251   4.522 -0.3310 -0.2452  0.2493
 4235TIP3    H112711   2.198   3.308   4.599 -0.9054  1.2653 -0.7718
 4235TIP3    H212712   2.270   3.269   4.471 -0.1100 -1.0010  0.3065
 4236TIP3   OH212713   4.479   3.006   2.950  0.0626  0.3643  0.2359
 4236TIP3    H112714   4.538   3.080   2.968  1.0791 -0.4787  0.4887
 4236TIP3    H212715   4.538   2.935   2.925 -0.8640 -0.4943  0.4628
 4237TIP3   OH212716   0.994   0.782   3.752 -0.0792 -0.3693  0.4955
 4237TIP3    H112717   0.960   0.742   3.672  0.8741  0.3237 -0.2917
 4237TIP3    H212718   0.917   0.799   3.805 -1.1927  2.1780 -1.6921
 4238TIP3   OH212719   3.969   5.399   3.430 -0.1869 -0.5625  0.6513
 4238TIP3    H112720   3.986   5.323   3.487 -3.1344 -2.2642 -0.5599
 4238TIP3    H212721   3.892   5.441   3.468  0.3844  0.8728  0.2987
 4239TIP3   OH212722   4.488   1.081   2.575  0.0350 -0.1365 -0.2094
 4239TIP3    H112723   4.535   0.998   2.585  0.8257  0.2134 -0.8688
 4239TIP3    H212724   4.411   1.059   2.523 -0.0764 -0.5604  0.1283
 4240TIP3   OH212725   2.774   4.699   2.912 -0.2708  0.4610 -0.2304
 4240TIP3    H112726   2.746   4.715   3.002 -1.0481  1.4453 -0.6208
 4240TIP3    H212727   2.704   4.737   2.858 -0.4816 -1.2818 -1.2666
 4241TIP3   OH212728   5.611   1.225   2.272  0.7734  0.2040 -0.3313
 4241TIP3    H112729   5.679   1.181   2.323  2.1689  3.3458  0.7752
 4241TIP3    H212730   5.533   1.222   2.327  0.8670 -0.6739 -0.2246
 4242TIP3   OH212731   0.296   5.872   1.658  0.3022 -0.1638 -0.1520
 4242TIP3    H112732   0.248   5.864   1.741 -1.2894  1.2516 -0.8666
 4242TIP3    H212733   0.258   5.949   1.616  1.4314 -0.5392 -1.9797
 4243TIP3   OH212734   1.906   5.165   3.811 -0.2431  0.3813  0.5103
 4243TIP3    H112735   1.851   5.197   3.739 -0.8427 -0.2174  0.7005
 4243TIP3    H212736   1.846   5.124   3.872  0.4999 -1.0419  0.3150
 4244TIP3   OH212737   1.389   4.875   2.035  0.2009 -0.1278 -0.1245
 4244TIP3    H112738   1.300   4.886   2.003 -0.2300 -1.2877  0.5908
 4244TIP3    H212739   1.435   4.829   1.964  0.4733  1.1414 -0.8093
 4245TIP3   OH212740   3.635   2.928   4.021 -0.4200 -0.0110 -0.0154
 4245TIP3    H112741   3.695   2.858   3.993  0.4877  0.0842  1.5960
 4245TIP3    H212742   3.645   2.995   3.953  0.8502 -0.2554 -0.1058
 4246TIP3   OH212743   2.496   3.173   3.296  0.2302  0.3684 -0.4532
 4246TIP3    H112744   2.514   3.099   3.237  1.4470  0.6725 -0.4873
 4246TIP3    H212745   2.405   3.197   3.276 -0.7110 -1.9992  0.5458
 4247TIP3   OH212746   4.452   1.665   3.471  0.3937 -0.3426  0.0111
 4247TIP3    H112747   4.390   1.603   3.508  0.5842  0.8460  2.5733
 4247TIP3    H212748   4.398   1.728   3.424  0.1983 -2.2808 -2.6073
 4248TIP3   OH212749   0.234   3.261   0.737  0.5774  0.3523 -0.1401
 4248TIP3    H112750   0.277   3.203   0.800 -0.3347 -1.0523 -0.7599
 4248TIP3    H212751   0.244   3.348   0.774  2.5172 -0.1053  0.5381
 4249TIP3   OH212752   2.967   3.715   2.511 -0.3838  0.8256 -0.2368
 4249TIP3    H112753   3.043   3.658   2.498 -0.4941  0.9860 -1.7800
 4249TIP3    H212754   2.960   3.726   2.606  2.2830  1.8129 -0.0728
 4250TIP3   OH212755   2.000   1.626   0.750  0.5697 -0.2525 -0.4371
 4250TIP3    H112756   2.034   1.566   0.816  0.6745  1.3565  1.0198
 4250TIP3    H212757   2.000   1.574   0.669  0.4749 -2.2505  0.7828
 4251TIP3   OH212758   4.521   4.684   3.777 -0.0149 -0.3007  0.1002
 4251TIP3    H112759   4.567   4.755   3.732 -0.7047 -0.5662 -1.0626
 4251TIP3    H212760   4.534   4.608   3.720 -0.7102 -0.6984  0.4651
 4252TIP3   OH212761   1.401   1.807   2.383 -0.0575  0.2900  0.0149
 4252TIP3    H112762   1.408   1.736   2.447  0.0336  0.0212 -0.2907
 4252TIP3    H212763   1.314   1.844   2.398  1.5119  3.2085  3.3576
 4253TIP3   OH212764   0.048   0.681   1.258 -0.6191 -0.2248  0.6606
 4253TIP3    H112765   0.057   0.625   1.335  0.7572 -0.5361  0.3178
 4253TIP3    H212766   0.107   0.754   1.275  1.0773 -1.1625 -0.7782
 4254TIP3   OH212767   2.424   0.436   1.974  0.0648 -0.1469  0.2679
 4254TIP3    H112768   2.431   0.488   2.054 -0.5334 -0.4772  0.5421
 4254TIP3    H212769   2.463   0.492   1.906 -2.1011  1.4278  0.2085
 4255TIP3   OH212770   4.889   0.489   2.025 -0.3109  0.1726  0.0605
 4255TIP3    H112771   4.922   0.435   2.097 -0.8888  0.9111  0.9007
 4255TIP3    H212772   4.952   0.476   1.954 -0.0473 -1.0246  0.4949
 4256TIP3   OH212773   5.377   4.255   3.901  0.2162  0.7382  0.1739
 4256TIP3    H112774   5.292   4.284   3.869  0.2697  1.2711  0.4980
 4256TIP3    H212775   5.362   4.166   3.933  0.4427 -0.3374 -2.4661
 4257TIP3   OH212776   2.859   0.996   2.305 -0.5856 -0.2297  0.6180
 4257TIP3    H112777   2.870   0.902   2.318  2.8887  0.1445  1.5723
 4257TIP3    H212778   2.920   1.017   2.234 -0.4661  1.4383  1.1744
 4258TIP3   OH212779   0.492   2.057   3.623  0.1333 -0.4610  0.3737
 4258TIP3    H112780   0.539   2.087   3.701  2.2835 -0.1739 -0.9534
 4258TIP3    H212781   0.463   1.968   3.645  1.8749 -0.8948  1.0457
 4259TIP3   OH212782   3.509   1.993   4.829  0.0193 -0.0803  0.7475
 4259TIP3    H112783   3.515   2.088   4.831  0.7118 -0.1234  0.9413
 4259TIP3    H212784   3.501   1.968   4.921  0.3629 -0.2424  0.7326
 4260TIP3   OH212785   3.744   4.847   2.551 -0.1494  0.3890 -0.2970
 4260TIP3    H112786   3.686   4.772   2.557  0.5174  0.0228  3.7090
 4260TIP3    H212787   3.831   4.809   2.539 -0.1132  0.7014 -1.0927
 4261TIP3   OH212788   4.335   5.043   5.005 -0.1168  0.1104 -0.3846
 4261TIP3    H112789   4.283   5.067   5.082  0.6901  1.0264 -0.1162
 4261TIP3    H212790   4.421   5.019   5.040 -0.2816 -1.2570 -0.8413
 4262TIP3   OH212791   3.122   2.253   3.911 -0.2489  0.3296  0.5936
 4262TIP3    H112792   3.157   2.221   3.993  1.0370  1.1196  0.3854
 4262TIP3    H212793   3.105   2.174   3.859 -0.6116 -0.1477  1.4275
 4263TIP3   OH212794   5.546   3.269   2.305 -0.1289 -0.1549 -0.2453
 4263TIP3    H112795   5.451   3.277   2.307 -0.0107  1.6694 -0.7667
 4263TIP3    H212796   5.563   3.180   2.336 -1.9403 -0.1097  1.0018
 4264TIP3   OH212797   6.204   0.095   0.593  0.3517 -0.1454 -0.4488
 4264TIP3    H112798   6.124   0.043   0.589 -0.0596  0.3656  0.8820
 4264TIP3    H212799   6.274   0.030   0.606 -0.0158 -0.4654 -0.0646
 4265TIP3   OH212800   2.033   3.344   3.837  0.5885  0.6877 -0.2763
 4265TIP3    H112801   2.038   3.253   3.867 -0.4123 -0.1979 -2.5953
 4265TIP3    H212802   2.124   3.371   3.828  1.1653 -1.7298 -3.9316
 4266TIP3   OH212803   3.221   5.881   2.937 -0.5054 -0.2439  0.0475
 4266TIP3    H112804   3.225   5.786   2.952  0.4774 -0.1447  0.4496
 4266TIP3    H212805   3.177   5.916   3.014  0.7068 -0.1964  0.7375
 4267TIP3   OH212806   6.160   5.079   4.208 -0.0042  0.6790  0.0289
 4267TIP3    H112807   6.191   5.032   4.131 -0.6811  0.6414 -0.2231
 4267TIP3    H212808   6.117   5.012   4.261  0.7534  0.6384  0.6043
 4268TIP3   OH212809   0.146   5.321   4.990  0.7262 -0.3038 -0.1468
 4268TIP3    H112810   0.134   5.394   4.930  0.7436  0.8781  1.2387
 4268TIP3    H212811   0.230   5.283   4.965  0.9369  0.4503 -0.5942
 4269TIP3   OH212812   1.922   3.454   0.740  0.3477 -0.5271  0.2867
 4269TIP3    H112813   1.985   3.494   0.680 -0.8785 -2.2455 -2.3353
 4269TIP3    H212814   1.837   3.475   0.701 -0.5807 -0.7337  2.1200
 4270TIP3   OH212815   0.129   3.134   4.863  0.0920 -0.6677  0.3923
 4270TIP3    H112816   0.218   3.132   4.827 -0.3858  1.6436 -1.1191
 4270TIP3    H212817   0.139   3.172   4.950  0.6382 -1.0450  0.4999
 4271TIP3   OH212818   1.046   2.342   1.922 -0.0445  0.2030 -0.4663
 4271TIP3    H112819   1.099   2.324   2.000  0.4570  0.7818 -0.6651
 4271TIP3    H212820   1.109   2.376   1.858 -0.7228  1.3819 -0.5324
 4272TIP3   OH212821   5.212   0.506   1.556  0.1502  0.0263 -0.8207
 4272TIP3    H112822   5.243   0.594   1.575 -1.9863  0.4978  0.8252
 4272TIP3    H212823   5.121   0.517   1.531 -0.0334 -1.6765 -1.0239
 4273TIP3   OH212824   6.253   4.535   4.015  0.0812 -0.4124 -0.3547
 4273TIP3    H112825   6.242   4.572   4.103 -0.7339  0.2993 -0.7420
 4273TIP3    H212826   6.171   4.556   3.970  0.7531 -0.1877 -1.5042
 4274TIP3   OH212827   1.258   4.684   2.347 -0.7199 -0.0032 -0.2965
 4274TIP3    H112828   1.193   4.688   2.276 -0.5679  2.4850 -0.3766
 4274TIP3    H212829   1.205   4.674   2.426 -1.2413  1.4725 -0.4127
 4275TIP3   OH212830   5.835   2.409   3.525  0.7953 -0.5114 -0.2661
 4275TIP3    H112831   5.800   2.420   3.437  0.2714 -0.0415 -0.0072
 4275TIP3    H212832   5.810   2.490   3.571 -0.7276 -1.5814  0.8949
 4276TIP3   OH212833   3.509   5.132   4.862 -0.3896  0.2497 -0.1663
 4276TIP3    H112834   3.538   5.208   4.914 -0.2762  1.0423 -1.3422
 4276TIP3    H212835   3.544   5.149   4.774 -1.0879 -0.7589 -0.6545
 4277TIP3   OH212836   3.281   4.353   4.681 -0.6570  0.1335 -0.1795
 4277TIP3    H112837   3.210   4.327   4.740 -0.5325 -1.5195 -0.7144
 4277TIP3    H212838   3.279   4.288   4.611  0.5774  0.8089 -0.8705
 4278TIP3   OH212839   1.094   2.803   0.976 -0.2408 -0.9142  0.3780
 4278TIP3    H112840   1.044   2.772   1.051 -0.4016 -2.9666 -0.5172
 4278TIP3    H212841   1.043   2.776   0.900  0.4971  0.0870 -0.5133
 4279TIP3   OH212842   0.815   5.009   2.991  0.2902 -0.5598  0.0883
 4279TIP3    H112843   0.766   4.983   3.069 -1.6749  3.3910  0.4104
 4279TIP3    H212844   0.837   5.101   3.006  2.1547 -0.3742 -2.9361
 4280TIP3   OH212845   1.418   5.182   3.235 -0.4839  0.5595  0.0698
 4280TIP3    H112846   1.348   5.208   3.296  0.5097  0.8950  1.1108
 4280TIP3    H212847   1.372   5.147   3.159 -1.7989  1.5047  0.3932
 4281TIP3   OH212848   0.267   4.125   4.462  1.0870 -0.1480 -0.1957
 4281TIP3    H112849   0.307   4.093   4.382  0.8604 -1.0687  0.0486
 4281TIP3    H212850   0.335   4.178   4.504  1.4810 -0.3484 -0.5871
 4282TIP3   OH212851   2.089   0.742   1.490 -0.4977  0.2416  0.3338
 4282TIP3    H112852   2.177   0.780   1.498 -0.7575  0.7444  0.8943
 4282TIP3    H212853   2.099   0.653   1.525 -0.3880  0.5702  1.1509
 4283TIP3   OH212854   0.653   0.189   4.182 -0.1462  0.2147 -0.0887
 4283TIP3    H112855   0.632   0.163   4.271 -1.2530 -0.7820 -0.6082
 4283TIP3    H212856   0.718   0.124   4.153  0.0955  0.4440 -0.0640
 4284TIP3   OH212857   1.519   1.604   3.964  0.5246  0.7494 -0.1200
 4284TIP3    H112858   1.608   1.571   3.968  0.3171  0.0284 -1.1079
 4284TIP3    H212859   1.495   1.599   3.871 -0.2375  1.7674 -0.0010
 4285TIP3   OH212860   4.023   3.152   2.343 -0.1749 -0.1456 -0.0668
 4285TIP3    H112861   3.978   3.179   2.423 -0.0779 -0.7998  0.2123
 4285TIP3    H212862   3.980   3.202   2.273  0.1932  0.9472  0.4641
 4286TIP3   OH212863   5.306   5.260   2.089  0.0168 -0.6927  0.1380
 4286TIP3    H112864   5.389   5.243   2.133 -0.2730 -0.4229  0.8077
 4286TIP3    H212865   5.311   5.210   2.008  1.6290  0.8187 -0.7644
 4287TIP3   OH212866   5.644   3.756   0.511 -0.3383 -0.1455  0.4107
 4287TIP3    H112867   5.573   3.696   0.534  0.6425 -1.0732  1.1815
 4287TIP3    H212868   5.626   3.783   0.421 -1.3513 -0.8060  0.4061
 4288TIP3   OH212869   4.139   2.499   3.352  0.2131  0.0364 -0.0605
 4288TIP3    H112870   4.097   2.513   3.267  1.0513  2.9287 -0.1197
 4288TIP3    H212871   4.067   2.498   3.415 -0.3525 -1.3441 -0.7124
 4289TIP3   OH212872   1.926   0.674   2.425  0.4371  0.6447 -0.2166
 4289TIP3    H112873   1.963   0.644   2.342 -0.9073 -1.5813 -0.0935
 4289TIP3    H212874   1.878   0.598   2.459  2.1561  0.9536  3.3435
 4290TIP3   OH212875   0.776   5.362   1.945  0.1902  0.0848  0.1620
 4290TIP3    H112876   0.834   5.437   1.936  1.2787 -0.6926  0.4363
 4290TIP3    H212877   0.796   5.307   1.869 -1.6430  0.7223 -0.8470
 4291TIP3   OH212878   4.195   0.542   0.128  0.4242  0.5717  0.4532
 4291TIP3    H112879   4.290   0.543   0.119  0.2742  1.3851 -1.3798
 4291TIP3    H212880   4.174   0.450   0.143  1.3341 -0.0565 -1.6736
 4292TIP3   OH212881   0.792   3.241   3.154 -0.4482 -0.2798  0.0413
 4292TIP3    H112882   0.763   3.171   3.095  2.5730 -0.7905 -1.0605
 4292TIP3    H212883   0.778   3.322   3.105 -1.9898 -0.2752  0.4558
 4293TIP3   OH212884   4.680   4.563   2.630 -0.4202  0.8315  0.1025
 4293TIP3    H112885   4.621   4.616   2.575 -1.5363 -1.1877 -0.7385
 4293TIP3    H212886   4.765   4.570   2.587 -1.7956 -3.1919 -4.0870
 4294TIP3   OH212887   4.918   1.850   1.275  0.9589  0.2016  0.0474
 4294TIP3    H112888   4.880   1.937   1.290  1.7942  0.4417  0.8434
 4294TIP3    H212889   4.848   1.801   1.233 -0.0133  0.8406  0.8623
 4295TIP3   OH212890   4.840   2.478   0.836 -0.0472  0.5318 -0.1855
 4295TIP3    H112891   4.845   2.512   0.747 -1.0197  1.6404  0.1528
 4295TIP3    H212892   4.880   2.547   0.890  0.5553 -0.1377  0.2376
 4296TIP3   OH212893   5.309   5.146   3.519  0.1011  0.1600 -0.0335
 4296TIP3    H112894   5.398   5.181   3.509  0.5036 -0.4190  1.3100
 4296TIP3    H212895   5.291   5.102   3.435  2.0716 -1.8692  0.5244
 4297TIP3   OH212896   2.340   1.871   0.609 -0.1524  0.3174  0.5189
 4297TIP3    H112897   2.249   1.886   0.635  0.2735  0.4338  2.0310
 4297TIP3    H212898   2.375   1.959   0.594 -0.6575  0.2148 -1.5104
 4298TIP3   OH212899   2.635   4.940   2.511  0.1561  0.2454  0.2445
 4298TIP3    H112900   2.565   4.992   2.471  1.2725  1.9929  0.4595
 4298TIP3    H212901   2.598   4.910   2.594 -1.0721 -0.7366 -0.6151
 4299TIP3   OH212902   5.396   3.571   1.347  0.2229  0.1674 -0.1184
 4299TIP3    H112903   5.424   3.486   1.379  0.2400 -0.7401 -2.3747
 4299TIP3    H212904   5.476   3.612   1.313 -0.0087  0.4853 -0.2949
 4300TIP3   OH212905   3.818   4.289   1.017 -0.4983  0.2250 -0.3889
 4300TIP3    H112906   3.817   4.362   0.955  2.2168  0.8058  0.1484
 4300TIP3    H212907   3.750   4.230   0.984  0.8711  0.3973 -4.0496
 4301TIP3   OH212908   3.248   2.025   4.460  0.4239 -0.0771  0.3587
 4301TIP3    H112909   3.305   1.949   4.444 -0.1314 -0.4449  0.0916
 4301TIP3    H212910   3.213   2.047   4.374  0.1611  0.1433  0.5227
 4302TIP3   OH212911   5.346   3.012   4.035  0.2187  0.0362 -0.1291
 4302TIP3    H112912   5.308   2.926   4.054 -0.0696 -0.0768 -1.1735
 4302TIP3    H212913   5.284   3.075   4.074  0.9734 -0.2375  1.5692
 4303TIP3   OH212914   4.655   5.966   3.914  0.0634 -0.1095 -0.5569
 4303TIP3    H112915   4.678   5.944   4.004 -0.5693 -0.0774 -0.3810
 4303TIP3    H212916   4.736   5.956   3.865  1.0467  2.2717  0.4322
 4304TIP3   OH212917   0.734   3.790   0.911  0.8037  0.2650 -0.6221
 4304TIP3    H112918   0.680   3.748   0.844  0.2224 -0.6643  0.3839
 4304TIP3    H212919   0.773   3.865   0.868 -1.5278  1.1509 -1.3298
 4305TIP3   OH212920   1.965   5.541   1.617  0.0585 -0.1438 -0.6607
 4305TIP3    H112921   2.047   5.492   1.627 -0.5229 -1.0823 -0.3477
 4305TIP3    H212922   1.896   5.475   1.631 -0.7565  0.9897  0.9141
 4306TIP3   OH212923   0.134   5.462   0.635  0.3497  0.4412  0.5874
 4306TIP3    H112924   0.156   5.395   0.699  0.8465  0.0925  0.0581
 4306TIP3    H212925   0.192   5.445   0.561 -0.4377  0.6367 -0.0934
 4307TIP3   OH212926   5.632   4.050   1.501 -0.4539  0.5926 -0.1369
 4307TIP3    H112927   5.603   3.984   1.439 -1.0070  0.5583  0.1513
 4307TIP3    H212928   5.624   4.133   1.453 -1.5764  0.6450  0.1069
 4308TIP3   OH212929   1.001   5.861   3.391  0.0313  0.2208 -0.1120
 4308TIP3    H112930   0.944   5.891   3.320  0.7736  0.9529 -0.4201
 4308TIP3    H212931   1.079   5.828   3.346  0.8950  1.5338  0.3727
 4309TIP3   OH212932   1.736   5.091   1.553  0.2495  0.3226  0.1253
 4309TIP3    H112933   1.687   5.113   1.473  0.6574  0.1360 -0.1835
 4309TIP3    H212934   1.790   5.169   1.570 -0.9737  0.9783  1.1140
 4310TIP3   OH212935   0.557   4.881   0.000 -0.0041 -0.2444 -0.0552
 4310TIP3    H112936   0.512   4.809   0.044 -0.1997 -1.3388 -1.9606
 4310TIP3    H212937   0.602   4.928   0.071 -2.6349 -0.1447  1.6881
 4311TIP3   OH212938   1.916   4.095   1.777 -0.1122 -0.2353  0.0970
 4311TIP3    H112939   1.985   4.119   1.715  0.9965  0.4015  1.5474
 4311TIP3    H212940   1.851   4.164   1.768 -0.6505 -0.8661 -1.3145
 4312TIP3   OH212941   3.104   0.948   1.299 -0.2114 -0.1615 -0.0919
 4312TIP3    H112942   3.179   0.889   1.303  2.1271  2.6678  0.3790
 4312TIP3    H212943   3.079   0.960   1.391  0.2924  0.7117 -0.0619
 4313TIP3   OH212944   0.679   2.326   4.245 -0.6654  0.5673 -0.1994
 4313TIP3    H112945   0.627   2.247   4.231  0.9460 -0.3211 -1.5484
 4313TIP3    H212946   0.646   2.362   4.327 -0.9086 -1.9801  0.9246
 4314TIP3   OH212947   5.221   1.603   1.715 -0.2087 -0.6002 -0.4356
 4314TIP3    H112948   5.284   1.656   1.667 -1.1317  0.4936 -0.4868
 4314TIP3    H212949   5.258   1.515   1.714  1.9207  0.1920  0.5621
 4315TIP3   OH212950   5.790   2.092   2.358  0.2408  0.5919  0.2306
 4315TIP3    H112951   5.743   2.160   2.405  1.9684  1.7693  0.3713
 4315TIP3    H212952   5.842   2.048   2.424  0.1057 -0.0183 -0.0632
 4316TIP3   OH212953   2.820   1.067   3.770 -0.1922  0.0465  0.4238
 4316TIP3    H112954   2.781   1.121   3.702 -1.7494  1.3951  2.2834
 4316TIP3    H212955   2.914   1.073   3.755 -0.4893  0.6122 -1.3483
 4317TIP3   OH212956   1.266   4.995   1.448 -0.2420  0.2472 -0.3747
 4317TIP3    H112957   1.315   4.951   1.377 -0.6875 -0.7770 -0.0737
 4317TIP3    H212958   1.310   5.079   1.459  2.1193 -0.9942  0.5598
 4318TIP3   OH212959   4.840   1.114   4.668 -0.0507 -0.1085 -0.0366
 4318TIP3    H112960   4.806   1.025   4.662 -0.2756 -0.0811  0.7806
 4318TIP3    H212961   4.763   1.168   4.684 -0.3270  0.5896 -3.0620
 4319TIP3   OH212962   5.473   5.060   0.972 -0.3224 -0.3568  0.2160
 4319TIP3    H112963   5.434   4.976   0.947  0.4896 -0.5342 -0.5220
 4319TIP3    H212964   5.435   5.123   0.910 -1.3281 -0.0732  1.1013
 4320TIP3   OH212965   0.197   2.917   1.694 -0.0962 -0.0199 -0.4171
 4320TIP3    H112966   0.242   2.917   1.610  1.0893 -2.1166  0.1293
 4320TIP3    H212967   0.210   2.828   1.728 -1.6444  0.3779  1.3994
 4321TIP3   OH212968   1.314   3.919   1.895  0.3253 -0.3685  0.1897
 4321TIP3    H112969   1.236   3.875   1.929 -0.4279  2.1646  1.9889
 4321TIP3    H212970   1.387   3.870   1.934 -0.3662 -1.7225 -0.1414
 4322TIP3   OH212971   4.018   3.826   4.912  0.1087 -0.6735  0.3275
 4322TIP3    H112972   4.009   3.839   5.006 -0.7684 -0.4912  0.2287
 4322TIP3    H212973   4.036   3.913   4.877 -0.6287 -0.5607  0.2177
 4323TIP3   OH212974   3.174   4.721   3.120 -0.0210  0.0857 -0.2576
 4323TIP3    H112975   3.240   4.671   3.169 -1.0415 -1.5024 -0.4166
 4323TIP3    H212976   3.193   4.702   3.028 -2.0917 -2.4591 -0.2938
 4324TIP3   OH212977   4.866   4.143   3.809  0.2388 -0.3493  0.0609
 4324TIP3    H112978   4.919   4.139   3.729  2.3626 -2.1380  1.4434
 4324TIP3    H212979   4.913   4.088   3.872 -0.3165  2.4019  3.1704
 4325TIP3   OH212980   4.301   5.099   1.058  0.6164 -0.6555 -0.1171
 4325TIP3    H112981   4.297   5.004   1.054 -0.7260 -0.5791 -2.2083
 4325TIP3    H212982   4.222   5.125   1.104 -1.3868 -0.5223 -3.3006
 4326TIP3   OH212983   0.909   2.184   2.698 -0.1734  0.2952 -0.7100
 4326TIP3    H112984   0.927   2.161   2.607 -0.2652  0.7724 -0.8552
 4326TIP3    H212985   0.815   2.172   2.707  0.1696 -2.4207  0.1115
 4327TIP3   OH212986   0.477   5.746   4.166  0.1087 -0.1099 -0.5755
 4327TIP3    H112987   0.466   5.759   4.260  0.3279 -0.9911 -0.4243
 4327TIP3    H212988   0.571   5.732   4.154  0.0528 -0.2192 -0.9055
 4328TIP3   OH212989   6.049   4.027   2.574  0.4876  0.0589 -0.3757
 4328TIP3    H112990   6.087   4.101   2.623  1.3525 -0.2873 -0.4955
 4328TIP3    H212991   5.971   4.003   2.623  1.6495 -0.6730  1.2359
 4329TIP3   OH212992   5.419   1.956   0.676 -0.5151 -0.1697 -0.0978
 4329TIP3    H112993   5.415   2.033   0.733 -1.4484  0.2158 -0.6569
 4329TIP3    H212994   5.366   1.979   0.600 -0.1918 -1.0889 -0.6248
 4330TIP3   OH212995   0.682   2.599   1.036  0.3827 -0.0272  0.4049
 4330TIP3    H112996   0.601   2.602   1.088  0.7176  2.0238  0.8957
 4330TIP3    H212997   0.665   2.534   0.968 -1.5919  0.1997  0.6324
 4331TIP3   OH212998   1.757   5.414   0.327 -0.0832  0.0919 -0.5199
 4331TIP3    H112999   1.704   5.474   0.379  0.9148  0.3479  0.2451
 4331TIP3    H213000   1.695   5.372   0.267 -0.7733  2.0987 -1.2897
 4332TIP3   OH213001   4.484   0.013   4.502 -0.0468  0.3012 -0.1524
 4332TIP3    H113002   4.481   0.101   4.465  0.2229  1.0616  1.5521
 4332TIP3    H213003   4.576  -0.012   4.497 -0.1851 -0.0740 -1.0144
 4333TIP3   OH213004   6.168   2.342   4.684 -0.1962  0.1369  0.4858
 4333TIP3    H113005   6.121   2.405   4.629  1.4112  0.7452 -0.2218
 4333TIP3    H213006   6.119   2.342   4.766 -1.2206  1.0246 -0.0953
 4334TIP3   OH213007   6.071   0.106   2.230  0.4311  0.1911  0.1498
 4334TIP3    H113008   6.032   0.141   2.150  1.7303  0.9314 -0.1931
 4334TIP3    H213009   6.165   0.122   2.220  0.8227 -1.3769  1.0111
 4335TIP3   OH213010   5.184   2.612   0.962 -0.0340  0.4437  0.1260
 4335TIP3    H113011   5.257   2.642   0.907  1.3027  0.7456  1.9750
 4335TIP3    H213012   5.169   2.521   0.935  3.5321 -0.9210  2.0560
 4336TIP3   OH213013   1.223   3.313   0.039  0.8549  0.6319  0.2072
 4336TIP3    H113014   1.210   3.407   0.024 -1.7057  0.0830 -1.6627
 4336TIP3    H213015   1.253   3.279  -0.045 -2.0147 -0.7384 -0.3623
 4337TIP3   OH213016   4.497   2.687   2.445  0.0561 -0.1835  0.2168
 4337TIP3    H113017   4.581   2.674   2.401  1.3630  0.1728  2.4673
 4337TIP3    H213018   4.520   2.716   2.533 -2.4525  0.2674  0.8044
 4338TIP3   OH213019   2.103   4.633   0.064  0.3151  0.1253 -0.0204
 4338TIP3    H113020   2.120   4.660  -0.026  1.4447 -1.7318 -0.4224
 4338TIP3    H213021   2.170   4.677   0.116  1.9203 -1.4926 -0.6198
 4339TIP3   OH213022   0.080   5.493   4.800 -0.0112  0.2947  0.1619
 4339TIP3    H113023   0.004   5.532   4.756  0.2479 -0.1060 -0.6659
 4339TIP3    H213024   0.155   5.545   4.768  0.3341 -0.8283 -0.9267
 4340TIP3   OH213025   0.530   1.786   0.037  0.3458  0.2234  0.3770
 4340TIP3    H113026   0.607   1.750  -0.008  0.4982  1.6019 -0.5046
 4340TIP3    H213027   0.507   1.864  -0.013 -0.9746  0.4461  1.2828
 4341TIP3   OH213028   1.758   4.823   0.523 -0.0899 -0.3142 -0.1754
 4341TIP3    H113029   1.693   4.775   0.472  0.5935 -0.6995 -0.6929
 4341TIP3    H213030   1.782   4.897   0.466  0.7758 -0.8216 -0.4857
 4342TIP3   OH213031   1.771   5.254   0.043  0.4093  0.5727 -0.1788
 4342TIP3    H113032   1.694   5.303   0.074  1.0695 -0.6436  4.0245
 4342TIP3    H213033   1.845   5.313   0.060  0.9420 -0.6891  2.5247
 4343TIP3   OH213034   6.096   2.461   3.468  0.2388  0.1642  0.2603
 4343TIP3    H113035   6.103   2.533   3.531 -3.2619  0.7015  0.2267
 4343TIP3    H213036   6.026   2.405   3.502  1.7643 -2.4137 -0.5643
 4344TIP3   OH213037   3.664   3.923   1.105  0.1412  0.5949 -0.4859
 4344TIP3    H113038   3.586   3.868   1.102  0.3037  0.4103 -2.0394
 4344TIP3    H213039   3.639   4.004   1.061  0.2117  1.3976  0.8825
 4345TIP3   OH213040   5.894   1.794   1.621 -0.6503  0.8074 -0.3036
 4345TIP3    H113041   5.850   1.723   1.574 -0.8569  1.7656 -1.6209
 4345TIP3    H213042   5.987   1.780   1.603 -0.4217 -0.6446  1.6673
 4346TIP3   OH213043   3.563   3.974   4.418  0.0275 -0.0630  0.0297
 4346TIP3    H113044   3.483   4.012   4.381  0.9702  1.7315 -0.2912
 4346TIP3    H213045   3.607   3.934   4.343 -0.9828 -1.9347  0.3733
 4347TIP3   OH213046   3.616   2.461   1.357 -0.4216  0.3718  0.3405
 4347TIP3    H113047   3.683   2.446   1.289  0.2109  0.3392  0.9555
 4347TIP3    H213048   3.584   2.373   1.378 -0.0891  0.3089  0.5994
 4348TIP3   OH213049   1.206   1.860   3.463  0.1707  0.4416  0.3718
 4348TIP3    H113050   1.293   1.896   3.476  1.0388 -1.2570 -0.3601
 4348TIP3    H213051   1.205   1.829   3.372 -0.9704 -0.1176  0.5444
 4349TIP3   OH213052   5.686   4.364   2.856  0.7688  0.0545  0.5382
 4349TIP3    H113053   5.603   4.363   2.808  0.6162  0.0601  0.8055
 4349TIP3    H213054   5.683   4.287   2.912  0.5999  0.4978  1.1396
 4350TIP3   OH213055   5.969   2.195   0.631 -0.1304  0.2516  0.0881
 4350TIP3    H113056   5.877   2.208   0.655 -0.2623  1.2530 -0.8590
 4350TIP3    H213057   5.973   2.218   0.538  1.1275  0.5253  0.1903
 4351TIP3   OH213058   2.306   0.393   1.323 -0.0067  1.1326  0.3384
 4351TIP3    H113059   2.358   0.328   1.275 -1.3249 -1.1884  1.8654
 4351TIP3    H213060   2.218   0.356   1.325 -0.7181  2.7795  1.6844
 4352TIP3   OH213061   4.647   5.641   2.990  0.0258  0.1152 -0.2395
 4352TIP3    H113062   4.728   5.692   2.998 -0.0232  0.1494  0.0512
 4352TIP3    H213063   4.610   5.640   3.078 -0.6348  0.6562 -0.5079
 4353TIP3   OH213064   4.333   5.332   1.604  0.7357 -0.0346  0.1522
 4353TIP3    H113065   4.283   5.255   1.576  1.3747  0.0772 -1.4140
 4353TIP3    H213066   4.306   5.346   1.695  0.1551 -1.7288  0.2815
 4354TIP3   OH213067   2.105   5.635   3.023 -0.2398  0.4882 -0.4484
 4354TIP3    H113068   2.066   5.579   3.090 -0.7143  0.3342 -0.8526
 4354TIP3    H213069   2.041   5.705   3.010  0.6386  1.5329  0.5495
 4355TIP3   OH213070   2.800   5.392   1.306  0.5778 -0.1443 -0.0025
 4355TIP3    H113071   2.799   5.423   1.396 -0.4269  0.6809 -0.2778
 4355TIP3    H213072   2.881   5.428   1.269 -0.1418  1.4910 -0.0703
 4356TIP3   OH213073   4.913   5.198   2.786 -0.2761 -0.1314  0.2314
 4356TIP3    H113074   4.859   5.160   2.855 -1.9965  1.9784  0.1489
 4356TIP3    H213075   4.858   5.265   2.746  1.2596 -0.1428 -2.1152
 4357TIP3   OH213076   4.729   1.691   1.140 -0.4509 -0.5851 -0.0418
 4357TIP3    H113077   4.669   1.648   1.201 -0.4451 -0.5663 -0.0230
 4357TIP3    H213078   4.680   1.696   1.058 -0.8277  0.2738  0.2233
 4358TIP3   OH213079   5.290   1.901   0.038  0.1809 -0.2123  0.5457
 4358TIP3    H113080   5.329   1.817   0.015  0.0153  0.1704 -1.2205
 4358TIP3    H213081   5.208   1.904  -0.010  0.4516  1.1825  0.1302
 4359TIP3   OH213082   1.620   0.340   4.478  0.1920  0.2388  0.2008
 4359TIP3    H113083   1.584   0.268   4.530 -0.2431 -0.0917 -0.5471
 4359TIP3    H213084   1.547   0.401   4.470  1.3891  2.4246  3.5956
 4360TIP3   OH213085   5.695   4.598   1.831 -0.0927 -0.0108 -0.2060
 4360TIP3    H113086   5.607   4.563   1.821  0.5017 -1.4122 -0.8359
 4360TIP3    H213087   5.708   4.652   1.753  0.4832 -1.8616 -1.4626
 4361TIP3   OH213088   1.204   3.861   1.023 -0.2916 -0.1071  0.0987
 4361TIP3    H113089   1.213   3.807   0.944 -0.1869 -0.8292  0.5943
 4361TIP3    H213090   1.114   3.848   1.051 -0.1216 -0.4477  0.5104
 4362TIP3   OH213091   4.378   3.953   0.889  0.2560  0.5132 -0.2425
 4362TIP3    H113092   4.458   3.995   0.857 -0.0147 -0.4150 -2.3043
 4362TIP3    H213093   4.397   3.859   0.884 -1.2145  0.2369 -1.6556
 4363TIP3   OH213094   2.185   5.537   2.755 -0.1584 -0.0533  0.0479
 4363TIP3    H113095   2.201   5.562   2.846 -2.0475 -0.4805  0.5393
 4363TIP3    H213096   2.257   5.577   2.706  1.3332 -0.4379  1.7998
 4364TIP3   OH213097   1.703   2.689   2.400  0.8874  0.4788 -0.0555
 4364TIP3    H113098   1.672   2.598   2.403  0.5547  0.5845 -0.2782
 4364TIP3    H213099   1.632   2.739   2.440 -0.6018  1.1038 -3.1985
 4365TIP3   OH213100   6.208   0.209   1.895 -0.2503  0.0316  0.7969
 4365TIP3    H113101   6.193   0.120   1.925  0.6408 -0.4025 -0.0305
 4365TIP3    H213102   6.247   0.253   1.971 -0.2367 -0.4021  1.0465
 4366TIP3   OH213103   1.027   5.434   4.768  0.5962 -0.5223  0.2181
 4366TIP3    H113104   1.039   5.398   4.681  0.9644  1.5982 -0.6680
 4366TIP3    H213105   1.074   5.518   4.766  0.6137 -0.4185  2.4460
 4367TIP3   OH213106   5.795   4.306   1.278 -0.7751 -0.2165  0.6357
 4367TIP3    H113107   5.796   4.353   1.195 -2.2834 -2.2903 -0.6615
 4367TIP3    H213108   5.798   4.213   1.254 -0.9390 -0.8947  2.9009
 4368TIP3   OH213109   0.116   1.267   3.420 -0.3001 -0.3290  0.3781
 4368TIP3    H113110   0.203   1.247   3.384 -1.0417 -0.3396 -1.5542
 4368TIP3    H213111   0.128   1.351   3.464  0.3453  0.6298 -1.4884
 4369TIP3   OH213112   2.902   5.857   4.126 -0.1895 -0.1252  0.1398
 4369TIP3    H113113   2.874   5.782   4.178  3.1722 -0.5878  1.5859
 4369TIP3    H213114   2.908   5.824   4.036 -0.4585 -1.0759  0.4623
 4370TIP3   OH213115   4.200   5.696   1.861  0.1487 -0.0415 -0.2699
 4370TIP3    H113116   4.291   5.671   1.844  0.3837 -0.5438  1.4886
 4370TIP3    H213117   4.205   5.753   1.938 -0.8560  1.6535 -1.4033
 4371TIP3   OH213118   2.486   1.330   4.708  0.6485  0.4319  0.6437
 4371TIP3    H113119   2.550   1.279   4.658 -1.1823  0.1296 -1.5554
 4371TIP3    H213120   2.454   1.395   4.646 -1.8771 -0.0773  1.2948
 4372TIP3   OH213121   1.365   5.470   0.447 -0.2736  0.1255  0.0872
 4372TIP3    H113122   1.391   5.393   0.499  0.5884  0.1186 -0.3371
 4372TIP3    H213123   1.437   5.531   0.457 -0.0265  0.0725 -1.2001
 4373TIP3   OH213124   0.396   2.818   2.954 -0.5303  0.1970 -0.2730
 4373TIP3    H113125   0.417   2.886   3.018  3.2689  1.3576 -2.4072
 4373TIP3    H213126   0.347   2.864   2.885 -1.7264 -0.2892  0.2298
 4374TIP3   OH213127   0.955   3.479   4.258  0.2543 -0.1148  0.3565
 4374TIP3    H113128   0.942   3.572   4.244 -0.4943  0.3168  3.2099
 4374TIP3    H213129   1.048   3.464   4.240  0.4407  1.2207  0.1243
 4375TIP3   OH213130   1.120   1.429   5.106  0.1648  0.1217 -0.1423
 4375TIP3    H113131   1.089   1.451   5.018  0.6386 -1.0232 -0.6167
 4375TIP3    H213132   1.212   1.457   5.107  0.6244 -1.2535 -0.5802
 4376TIP3   OH213133   4.959   3.246   2.152  0.4794 -0.0573  0.0797
 4376TIP3    H113134   4.965   3.244   2.057  0.2328 -1.0721  0.0700
 4376TIP3    H213135   5.036   3.294   2.181 -0.7478  2.5661 -0.7259
 4377TIP3   OH213136   5.531   3.696   2.685  0.7884  0.1943  0.2556
 4377TIP3    H113137   5.574   3.612   2.672 -0.2396 -1.3800  4.9209
 4377TIP3    H213138   5.573   3.733   2.762 -1.0591  2.3430  0.3363
 4378TIP3   OH213139   5.208   1.201   3.684 -0.1268  0.7925 -0.3294
 4378TIP3    H113140   5.302   1.208   3.671 -0.3031  0.6538 -1.7888
 4378TIP3    H213141   5.189   1.108   3.672 -0.2067  0.4434  1.9538
 4379TIP3   OH213142   3.249   2.059   0.984  0.1374  0.6843 -0.4319
 4379TIP3    H113143   3.239   1.965   1.000  0.8401  1.0940  3.3056
 4379TIP3    H213144   3.171   2.099   1.023  0.2346  1.7315 -1.2631
 4380TIP3   OH213145   4.953   3.243   3.167 -0.2516 -0.1173 -0.0604
 4380TIP3    H113146   4.939   3.214   3.077  1.2484  0.6532 -0.5683
 4380TIP3    H213147   5.036   3.202   3.193  0.4839  1.4337  0.1601
 4381TIP3   OH213148   1.633   1.585   0.059  0.3670 -0.0800  0.0285
 4381TIP3    H113149   1.620   1.640  -0.018  0.6528 -0.7293 -0.4881
 4381TIP3    H213150   1.619   1.495   0.028 -0.7656 -0.2785  0.9982
 4382TIP3   OH213151   5.948   3.171   2.907 -0.2862  0.0386 -0.5875
 4382TIP3    H113152   5.856   3.171   2.934 -0.0202 -0.8476  0.3821
 4382TIP3    H213153   5.978   3.260   2.926 -0.6857  0.0511  0.0326
 4383TIP3   OH213154   6.134   5.765   2.752  0.2337  0.2066  0.3586
 4383TIP3    H113155   6.055   5.769   2.807  0.6649 -0.1183  1.0029
 4383TIP3    H213156   6.162   5.856   2.744 -0.2356  0.3300  0.0830
 4384TIP3   OH213157   3.899   3.257   2.104 -0.5728  0.1665 -0.1176
 4384TIP3    H113158   3.805   3.272   2.110 -0.2524  2.3945  0.1626
 4384TIP3    H213159   3.909   3.189   2.038 -2.3313  0.5782 -0.8527
 4385TIP3   OH213160   5.822   0.441   4.758  0.4692 -0.0180  0.3022
 4385TIP3    H113161   5.793   0.491   4.681  0.2877 -1.2356 -0.4410
 4385TIP3    H213162   5.917   0.444   4.754  0.4647  0.8575  0.6643
 4386TIP3   OH213163   4.651   3.411   4.977  0.0700 -0.8630  0.0688
 4386TIP3    H113164   4.722   3.353   4.950 -0.6593 -2.1587  0.8287
 4386TIP3    H213165   4.634   3.388   5.068 -1.2578 -0.5086 -0.0609
 4387TIP3   OH213166   5.485   5.945   3.058  0.4958  0.3588 -0.4221
 4387TIP3    H113167   5.540   5.882   3.010 -1.2771  0.8278 -3.3258
 4387TIP3    H213168   5.413   5.892   3.092  1.1527  0.2188  0.8107
 4388TIP3   OH213169   0.343   4.485   1.162 -0.2031 -0.1005  0.0420
 4388TIP3    H113170   0.317   4.517   1.248  0.5512  0.8993 -0.0898
 4388TIP3    H213171   0.311   4.553   1.101  1.2834  0.3529 -0.2571
 4389TIP3   OH213172   3.687   1.324   1.025 -0.2897 -0.0183 -0.5101
 4389TIP3    H113173   3.671   1.416   1.006 -2.5531 -0.7129 -2.5596
 4389TIP3    H213174   3.706   1.322   1.119  1.7872  2.6740 -0.7459
 4390TIP3   OH213175   5.023   4.617   1.126  0.0889  0.0904  0.2312
 4390TIP3    H113176   5.003   4.618   1.033  0.2156  2.4272  0.1527
 4390TIP3    H213177   4.967   4.686   1.163 -0.0062 -0.8314  1.8966
 4391TIP3   OH213178   5.050   3.912   1.078 -0.4700  0.4667 -0.1679
 4391TIP3    H113179   5.121   3.849   1.086 -0.8827  0.2216  2.5449
 4391TIP3    H213180   4.972   3.863   1.104 -0.9377  1.8104  1.0857
 4392TIP3   OH213181   1.688   3.764   4.647  0.3956 -0.2994 -0.4034
 4392TIP3    H113182   1.657   3.813   4.723  0.0921  1.2264 -1.4785
 4392TIP3    H213183   1.783   3.779   4.646  0.4269 -0.4785 -0.2258
 4393TIP3   OH213184   5.555   1.914   3.869  0.3372 -0.2916 -0.3160
 4393TIP3    H113185   5.589   1.839   3.919  0.7795 -0.3327 -0.6680
 4393TIP3    H213186   5.543   1.983   3.935  1.5863 -0.1164 -0.2354
 4394TIP3   OH213187   5.607   5.500   3.393  0.1534 -0.5462  0.3352
 4394TIP3    H113188   5.701   5.513   3.386  0.3668 -0.7573  2.4492
 4394TIP3    H213189   5.577   5.500   3.302  2.0324  0.5178 -0.3374
 4395TIP3   OH213190   0.445   0.801   2.869  0.4569 -0.0226  0.5247
 4395TIP3    H113191   0.419   0.866   2.935 -0.6981 -0.6688  0.7403
 4395TIP3    H213192   0.466   0.723   2.920  2.1077  0.2305  0.2875
 4396TIP3   OH213193   2.516   4.445   0.492 -0.4899 -0.6493 -0.1484
 4396TIP3    H113194   2.592   4.503   0.484  0.3251 -1.6338  0.1988
 4396TIP3    H213195   2.533   4.375   0.429 -1.0536 -0.9383  0.0172
 4397TIP3   OH213196   2.015   1.810   2.576  0.1534 -0.2907  0.0442
 4397TIP3    H113197   1.986   1.844   2.491  2.1178  0.0381 -0.5528
 4397TIP3    H213198   1.991   1.718   2.575 -2.8780  0.3844  0.5841
 4398TIP3   OH213199   2.730   2.636   0.119 -0.5151  0.6813  0.4173
 4398TIP3    H113200   2.642   2.665   0.099 -1.8356 -2.2598  1.3472
 4398TIP3    H213201   2.746   2.667   0.208 -0.9342  0.5891  0.5260
 4399TIP3   OH213202   2.622   4.404   1.166  0.1856  0.2335 -0.8161
 4399TIP3    H113203   2.595   4.487   1.126  2.5203  0.6724 -1.6047
 4399TIP3    H213204   2.668   4.357   1.097  0.6244 -0.8606  0.1759
 4400TIP3   OH213205   0.816   3.820   1.327  0.1655 -0.2434 -0.1044
 4400TIP3    H113206   0.836   3.900   1.377  1.1666  0.9998 -2.3477
 4400TIP3    H213207   0.750   3.847   1.263  1.8103 -0.6581 -2.1011
 4401TIP3   OH213208   0.612   5.384   2.872  0.0493 -0.0924 -0.1602
 4401TIP3    H113209   0.642   5.475   2.870  0.3000 -0.1312  0.9374
 4401TIP3    H213210   0.686   5.335   2.908  0.2343 -0.8801 -1.5499
 4402TIP3   OH213211   0.033   4.891   0.010 -0.3106  0.8842 -0.0526
 4402TIP3    H113212   0.067   4.964   0.060 -1.0181  0.1663  1.5368
 4402TIP3    H213213   0.050   4.814   0.064 -0.9984  0.0628 -0.9620
 4403TIP3   OH213214   3.594   3.853   3.829  0.4734 -0.4854  0.8522
 4403TIP3    H113215   3.556   3.766   3.843  0.6849 -0.8066 -0.4194
 4403TIP3    H213216   3.682   3.847   3.866  0.2825 -0.6288  1.2883
 4404TIP3   OH213217   2.138   4.742   4.692  0.3378 -0.5983 -0.4371
 4404TIP3    H113218   2.146   4.678   4.763  0.7307 -0.4110 -0.3127
 4404TIP3    H213219   2.060   4.794   4.715  1.4010  0.5472  0.7403
 4405TIP3   OH213220   5.880   5.070   0.266 -0.2682  0.0670 -0.5899
 4405TIP3    H113221   5.837   5.059   0.351  2.1848  1.1946  0.8903
 4405TIP3    H213222   5.852   5.157   0.237  0.0443  0.2860 -0.2345
 4406TIP3   OH213223   3.721   2.908   2.772 -0.0236 -0.5892  0.4410
 4406TIP3    H113224   3.780   2.919   2.697 -2.8551  0.2034 -1.8144
 4406TIP3    H213225   3.762   2.959   2.842  1.9994 -0.1655 -0.9698
 4407TIP3   OH213226   3.612   3.103   1.112  0.1398 -0.7174 -0.0181
 4407TIP3    H113227   3.693   3.066   1.146 -0.2070 -1.3632  0.1237
 4407TIP3    H213228   3.565   3.133   1.189  1.0582  1.4138 -0.2243
 4408TIP3   OH213229   2.395   4.190   1.478 -0.8906  0.0972  0.1996
 4408TIP3    H113230   2.335   4.252   1.438  0.1074  1.1699  0.3196
 4408TIP3    H213231   2.418   4.130   1.407 -0.0372  1.2915 -0.5829
 4409TIP3   OH213232   3.545   2.525   0.145  0.6386  0.7409 -0.1138
 4409TIP3    H113233   3.601   2.601   0.130  2.2674 -0.6067 -1.2919
 4409TIP3    H213234   3.607   2.454   0.166 -0.5391 -0.9381 -1.9505
 4410TIP3   OH213235   4.090   2.141   2.416  0.0187 -0.3415 -0.0109
 4410TIP3    H113236   4.022   2.144   2.484  0.6275  0.8265  0.5703
 4410TIP3    H213237   4.170   2.122   2.464  0.3727 -0.0368 -0.4828
 4411TIP3   OH213238   3.388   3.432   1.008 -0.7440  0.2072  0.1489
 4411TIP3    H113239   3.378   3.383   1.090 -1.1157  1.1530  0.6837
 4411TIP3    H213240   3.301   3.467   0.989 -0.4666  0.7503 -0.1639
 4412TIP3   OH213241   3.547   1.510   0.062 -0.2350 -0.2966  0.5775
 4412TIP3    H113242   3.613   1.574   0.089  0.3357 -0.6588  0.0660
 4412TIP3    H213243   3.533   1.528  -0.031  0.6818 -1.5597  0.1689
 4413TIP3   OH213244   1.788   5.363   1.744  0.3844  0.2839  0.2715
 4413TIP3    H113245   1.845   5.338   1.817 -0.6640  0.9992  1.3780
 4413TIP3    H213246   1.723   5.422   1.783 -0.3808  0.4677 -1.1908
 4414TIP3   OH213247   5.203   1.251   2.757 -0.2492  0.1568 -0.0613
 4414TIP3    H113248   5.193   1.176   2.699  2.1699 -1.3141  1.2377
 4414TIP3    H213249   5.286   1.291   2.731  0.7439 -0.3647  2.1145
 4415TIP3   OH213250   6.064   2.083   3.919  0.3882 -0.2639 -0.3930
 4415TIP3    H113251   5.972   2.104   3.907  0.2344 -0.9164 -0.3772
 4415TIP3    H213252   6.065   1.992   3.949  1.0468 -0.3766 -0.7239
 4416TIP3   OH213253   3.322   4.440   2.012  0.1678 -0.3021  0.0424
 4416TIP3    H113254   3.307   4.396   2.095  0.8628  1.9505  1.4436
 4416TIP3    H213255   3.249   4.502   2.004  0.0067 -0.6116 -1.1450
 4417TIP3   OH213256   5.278   0.154   3.975 -0.3063 -0.0004  0.5939
 4417TIP3    H113257   5.329   0.186   4.050  1.5731  2.4256 -1.5136
 4417TIP3    H213258   5.308   0.064   3.962  2.0945  0.7086  0.6662
 4418TIP3   OH213259   2.704   2.204   0.696 -0.3719 -0.4896  0.0411
 4418TIP3    H113260   2.794   2.227   0.720  1.2706 -4.5568 -1.3920
 4418TIP3    H213261   2.704   2.202   0.600 -2.3466  0.3343 -0.0403
 4419TIP3   OH213262   2.478   2.036   3.538 -0.5557 -0.4359  0.2382
 4419TIP3    H113263   2.402   2.091   3.557 -0.1198  0.4258 -0.4258
 4419TIP3    H213264   2.528   2.087   3.474 -0.3504 -1.7911 -0.7146
 4420TIP3   OH213265   2.341   5.763   5.023 -0.1191  0.3804 -0.1654
 4420TIP3    H113266   2.364   5.847   4.982 -0.1054  0.9632  1.0063
 4420TIP3    H213267   2.367   5.773   5.114  0.6728 -1.2294 -0.1888
 4421TIP3   OH213268   3.473   1.029   2.875 -0.1860 -0.6734  0.0200
 4421TIP3    H113269   3.519   1.042   2.958 -0.5951 -0.2156  0.1757
 4421TIP3    H213270   3.507   0.945   2.843  1.2051 -0.0798 -0.1685
 4422TIP3   OH213271   4.754   2.057   1.280 -0.1738  0.3189 -0.8798
 4422TIP3    H113272   4.747   2.142   1.324  2.0035 -0.6305  1.5517
 4422TIP3    H213273   4.670   2.015   1.297 -0.2115  0.8715  0.4543
 4423TIP3   OH213274   4.450   3.421  -0.007  0.1725  0.0813  0.3031
 4423TIP3    H113275   4.546   3.422  -0.007  0.2074 -0.4214 -1.2417
 4423TIP3    H213276   4.427   3.334   0.024  0.2729 -0.4014 -0.9286
 4424TIP3   OH213277   5.781   0.240   3.234  0.3088  0.1826  0.0460
 4424TIP3    H113278   5.832   0.309   3.192  1.6090 -0.8586 -0.1480
 4424TIP3    H213279   5.837   0.210   3.306 -0.1281 -0.8366 -0.0301
 4425TIP3   OH213280   0.145   5.891   3.315  0.2119  0.4517 -0.1432
 4425TIP3    H113281   0.063   5.933   3.287 -0.0343  0.8714  1.1451
 4425TIP3    H213282   0.214   5.951   3.286 -0.0179  0.7680 -0.0333
 4426TIP3   OH213283   2.915   0.451   1.544  0.0406 -0.0623 -0.3372
 4426TIP3    H113284   2.929   0.525   1.485 -0.1917 -0.9793 -1.6051
 4426TIP3    H213285   2.989   0.392   1.525 -0.3663 -0.6398 -0.1495
 4427TIP3   OH213286   4.338   4.007   4.546 -0.0305 -0.2520  0.0443
 4427TIP3    H113287   4.378   3.955   4.616  1.3421 -2.5898 -2.2853
 4427TIP3    H213288   4.411   4.050   4.503 -0.6680  0.0409 -0.7821
 4428TIP3   OH213289   5.483   5.731   1.945  0.3526 -0.0143 -0.1643
 4428TIP3    H113290   5.405   5.683   1.976  1.0738 -1.3394 -0.3352
 4428TIP3    H213291   5.447   5.801   1.890 -0.7432 -0.3010  0.1502
 4429TIP3   OH213292   3.220   5.456   3.368 -0.4163 -0.3543 -0.0236
 4429TIP3    H113293   3.140   5.483   3.323 -0.4413 -2.8491 -1.6098
 4429TIP3    H213294   3.195   5.378   3.418  1.0311 -1.2697 -0.6547
 4430TIP3   OH213295   4.909   1.537   1.341 -0.1036 -0.0791 -0.4534
 4430TIP3    H113296   4.816   1.546   1.321  0.1182  1.3548 -1.0180
 4430TIP3    H213297   4.919   1.582   1.425  0.4047  1.8270 -1.4612
 4431TIP3   OH213298   1.639   0.090   2.826  0.4181 -0.0530 -0.1477
 4431TIP3    H113299   1.601   0.171   2.860  2.2644  0.2440  1.3381
 4431TIP3    H213300   1.565   0.044   2.786 -1.0214  1.5183  0.5962
 4432TIP3   OH213301   3.358   0.005   0.832 -0.1886 -0.4163 -0.7325
 4432TIP3    H113302   3.365  -0.065   0.898 -0.5628 -0.3696 -0.6421
 4432TIP3    H213303   3.291   0.064   0.867  0.4310  0.2179 -0.6012
 4433TIP3   OH213304   0.192   1.174   2.903 -0.0546  0.2788  0.4606
 4433TIP3    H113305   0.103   1.197   2.929 -0.1004 -0.7089  1.2273
 4433TIP3    H213306   0.241   1.170   2.985  0.4594 -0.1681  0.1428
 4434TIP3   OH213307   2.159   3.943   4.600 -0.0060 -0.0907  0.3634
 4434TIP3    H113308   2.183   4.025   4.556  1.4816 -0.3624  0.6037
 4434TIP3    H213309   2.230   3.929   4.663 -0.0622 -1.7451  0.0782
 4435TIP3   OH213310   6.220   4.383   1.917  0.0487 -0.0981  0.6555
 4435TIP3    H113311   6.173   4.464   1.897  0.1077 -0.0088  0.8742
 4435TIP3    H213312   6.303   4.412   1.955  0.5022 -0.2498 -0.1973
 4436TIP3   OH213313   3.706   5.185   1.014 -0.1354  0.3321  0.2875
 4436TIP3    H113314   3.731   5.225   1.097 -1.1168 -1.8315  1.7113
 4436TIP3    H213315   3.610   5.192   1.013 -0.0635  1.6064 -1.3862
 4437TIP3   OH213316   0.525   1.781   2.404  0.4208 -0.2613  0.1026
 4437TIP3    H113317   0.497   1.833   2.329  0.1771  0.4415  0.6664
 4437TIP3    H213318   0.614   1.811   2.421  0.5728 -0.6151 -0.0762
 4438TIP3   OH213319   1.632   4.171   2.075  0.0022  0.1335 -0.6081
 4438TIP3    H113320   1.675   4.112   2.136 -0.9163 -2.6568 -2.4541
 4438TIP3    H213321   1.629   4.123   1.992 -2.7766  1.8754 -1.6949
 4439TIP3   OH213322   3.982   3.715   0.874 -0.2548 -0.4308  0.3585
 4439TIP3    H113323   3.932   3.797   0.883  0.1567 -0.0932 -0.3203
 4439TIP3    H213324   4.014   3.697   0.962  0.1615  0.4823  0.4082
 4440TIP3   OH213325   1.176   5.872   1.330  0.2912  0.5538 -0.3394
 4440TIP3    H113326   1.084   5.865   1.304  0.1915  1.5825 -0.2836
 4440TIP3    H213327   1.173   5.887   1.425  0.4945  0.9655 -0.3939
 4441TIP3   OH213328   0.875   3.205   0.585  0.4275  0.4338  0.0969
 4441TIP3    H113329   0.846   3.292   0.610 -1.5142  0.1588 -0.9712
 4441TIP3    H213330   0.892   3.212   0.491 -0.0189 -0.4018 -0.0529
 4442TIP3   OH213331   2.099   0.850   3.789  0.2892  0.0359  0.1383
 4442TIP3    H113332   2.177   0.849   3.845  2.3260  1.2870 -2.4829
 4442TIP3    H213333   2.039   0.911   3.832  1.9033  1.1990  0.8330
 4443TIP3   OH213334   3.212   4.637   2.211 -0.0168 -0.3517  0.1130
 4443TIP3    H113335   3.152   4.583   2.263 -0.6622  0.7770  0.5862
 4443TIP3    H213336   3.290   4.645   2.266 -1.2017  1.9755  1.6599
 4444TIP3   OH213337   0.607   1.847   4.913 -0.2531  0.0695 -0.2418
 4444TIP3    H113338   0.612   1.811   4.824  2.2378 -2.1756  0.6666
 4444TIP3    H213339   0.684   1.904   4.920 -0.2308 -0.0522  0.5783
 4445TIP3   OH213340   1.825   4.413   4.289 -0.6926  0.8467  0.0108
 4445TIP3    H113341   1.799   4.347   4.225  1.0912 -0.2469  0.3489
 4445TIP3    H213342   1.902   4.456   4.250 -0.4282  1.1195  0.8107
 4446TIP3   OH213343   1.787   4.052   4.570  0.2071 -0.0072 -0.0396
 4446TIP3    H113344   1.796   4.101   4.652  1.5230  0.4332 -0.4269
 4446TIP3    H213345   1.833   3.969   4.586 -1.9318 -1.1590  0.5810
 4447TIP3   OH213346   2.536   0.124   4.023 -0.6496 -0.0277 -0.2093
 4447TIP3    H113347   2.496   0.068   4.091 -0.5019  1.3119  1.0261
 4447TIP3    H213348   2.623   0.087   4.011  0.1260  0.9347  1.9267
 4448TIP3   OH213349   3.899   3.439   0.821  0.3187 -0.1484 -0.0055
 4448TIP3    H113350   3.935   3.527   0.831  0.6198 -0.1736 -0.8071
 4448TIP3    H213351   3.826   3.436   0.882 -1.5081  1.6522 -1.9530
 4449TIP3   OH213352   0.842   5.261   0.879  0.2259  0.3408  0.2972
 4449TIP3    H113353   0.906   5.208   0.926 -0.5178  0.6631  1.7398
 4449TIP3    H213354   0.823   5.212   0.799 -0.7921 -1.8575  1.7861
 4450TIP3   OH213355   3.489   2.354   2.829 -0.0279  0.6097  0.1649
 4450TIP3    H113356   3.497   2.399   2.914  0.1273  1.6481 -0.3854
 4450TIP3    H213357   3.396   2.330   2.824  0.3595 -1.4205  1.5768
 4451TIP3   OH213358   4.872   5.085   3.579  0.5112 -0.0312  0.7909
 4451TIP3    H113359   4.918   5.091   3.662  0.5309  0.4774  0.7484
 4451TIP3    H213360   4.850   5.176   3.557  2.1139  0.0473 -0.6497
 4452TIP3   OH213361   2.512   3.265   0.508  0.2943 -0.0700  0.3070
 4452TIP3    H113362   2.557   3.271   0.593  0.2089  0.1247  0.3383
 4452TIP3    H213363   2.423   3.236   0.531 -0.5020  2.3261  0.5302
 4453TIP3   OH213364   4.277   2.809   3.069 -0.4362 -0.1312  0.4721
 4453TIP3    H113365   4.337   2.735   3.055  2.0884  1.4899  1.9296
 4453TIP3    H213366   4.327   2.886   3.042 -3.0494  1.1356 -1.1884
 4454TIP3   OH213367   1.940   0.160   0.988 -0.2758 -0.1245  0.0087
 4454TIP3    H113368   2.029   0.144   1.017 -0.4645  2.2275  2.2077
 4454TIP3    H213369   1.898   0.074   0.989  0.8761 -0.7533  2.9884
 4455TIP3   OH213370   0.392   1.379   3.757  0.0749  0.1631  0.3164
 4455TIP3    H113371   0.334   1.439   3.804  0.5715 -0.1130  1.3090
 4455TIP3    H213372   0.424   1.430   3.683  1.0023  1.3835  1.4944
 4456TIP3   OH213373   4.103   2.070   1.387 -0.6638 -0.8151 -0.2126
 4456TIP3    H113374   4.017   2.102   1.415 -1.3626 -0.1882 -2.7911
 4456TIP3    H213375   4.087   2.029   1.302  1.5305 -0.9962 -0.6064
 4457TIP3   OH213376   1.955   4.517   3.710 -0.3756  0.2509  0.2735
 4457TIP3    H113377   2.043   4.552   3.694 -0.2018 -0.1711  0.2745
 4457TIP3    H213378   1.968   4.453   3.780 -0.5703 -0.2969 -0.1848
 4458TIP3   OH213379   0.493   2.508   1.892 -0.2982 -0.0445 -0.2830
 4458TIP3    H113380   0.461   2.419   1.885  0.0403 -0.1520 -0.4904
 4458TIP3    H213381   0.512   2.534   1.802  0.8929 -0.2474 -0.1093
 4459TIP3   OH213382   5.757   4.397   2.062 -0.1390 -0.8651 -0.2114
 4459TIP3    H113383   5.672   4.410   2.104 -0.8411 -2.4111 -1.0655
 4459TIP3    H213384   5.776   4.480   2.019 -1.8727 -0.8916 -1.1195
 4460TIP3   OH213385   3.176   3.619   1.003  0.0352  0.7046 -0.3688
 4460TIP3    H113386   3.108   3.679   0.971  1.4870  2.0149 -1.1234
 4460TIP3    H213387   3.207   3.660   1.084  0.7649  0.7700 -0.6780
 4461TIP3   OH213388   5.807   4.021   2.744  0.4446  0.4615 -0.3313
 4461TIP3    H113389   5.766   4.063   2.668 -2.2080  1.8704  1.6975
 4461TIP3    H213390   5.753   3.944   2.761  2.1534 -0.9040 -0.9355
 4462TIP3   OH213391   1.374   0.026   0.189 -0.1909  0.3156  0.2874
 4462TIP3    H113392   1.388   0.086   0.262 -0.9959 -0.3466  1.0019
 4462TIP3    H213393   1.408  -0.058   0.219  0.7679  0.3523 -0.6393
 4463TIP3   OH213394   3.504   3.933   1.339  0.1151  0.1663  0.3051
 4463TIP3    H113395   3.560   3.991   1.287 -0.8969 -0.6615 -1.8630
 4463TIP3    H213396   3.497   3.854   1.286 -1.1317 -0.6638  1.6616
 4464TIP3   OH213397   3.289   1.890   4.730 -0.0358 -0.4850  0.0007
 4464TIP3    H113398   3.244   1.966   4.767 -1.2021 -1.1975  0.1124
 4464TIP3    H213399   3.381   1.916   4.724 -0.4438  1.0001 -0.1586
 4465TIP3   OH213400   4.343   0.429   2.506 -0.1360  0.2829  0.4629
 4465TIP3    H113401   4.334   0.399   2.415  1.9165 -1.6967  0.7990
 4465TIP3    H213402   4.254   0.426   2.541 -0.5834 -2.1300 -0.6174
 4466TIP3   OH213403   3.498   4.146   0.623 -0.0457 -0.1391 -0.6402
 4466TIP3    H113404   3.584   4.102   0.631 -0.0394  0.0047  0.1903
 4466TIP3    H213405   3.498   4.182   0.535  0.9543  0.2705 -0.4883
 4467TIP3   OH213406   1.577   2.213   0.302  0.5979 -0.3026  0.2606
 4467TIP3    H113407   1.627   2.281   0.348 -0.2218 -0.6376  1.6951
 4467TIP3    H213408   1.544   2.156   0.371  0.3513 -1.5513 -0.8469
 4468TIP3   OH213409   2.285   3.143   0.089  0.2647 -0.0184  0.0410
 4468TIP3    H113410   2.225   3.168   0.018  0.5634 -1.0728 -0.6124
 4468TIP3    H213411   2.345   3.217   0.097 -1.4663  1.3372  1.1410
 4469TIP3   OH213412   0.827   4.901   4.551 -0.3554  0.0600  0.6792
 4469TIP3    H113413   0.872   4.985   4.542 -0.8317  0.2956  0.3800
 4469TIP3    H213414   0.846   4.855   4.469 -1.2817  0.4852  0.2015
 4470TIP3   OH213415   4.683   0.463   3.258 -0.3668 -0.2181 -0.3871
 4470TIP3    H113416   4.626   0.395   3.222 -2.0069  0.0268  1.5403
 4470TIP3    H213417   4.705   0.432   3.345  2.4180 -0.2210 -1.0221
 4471TIP3   OH213418   1.094   1.467   2.422  0.4088 -0.3395  0.6620
 4471TIP3    H113419   1.062   1.445   2.510 -1.3648 -0.0577  0.1430
 4471TIP3    H213420   1.026   1.434   2.364  0.6779  1.0563 -0.4944
 4472TIP3   OH213421   5.324   2.351   1.269 -0.1955 -0.6521 -0.1959
 4472TIP3    H113422   5.251   2.294   1.292 -0.3405 -1.4573 -2.3952
 4472TIP3    H213423   5.284   2.422   1.219  0.4038 -0.5411 -0.5239
 4473TIP3   OH213424   2.446   1.244   3.878 -0.5920  0.0689  0.2662
 4473TIP3    H113425   2.532   1.234   3.920 -0.3714  1.5981  0.2356
 4473TIP3    H213426   2.384   1.235   3.950 -0.3695 -0.3748  0.4055
 4474TIP3   OH213427   1.052   3.026   4.883 -0.8125  0.2925  0.8602
 4474TIP3    H113428   1.108   3.081   4.938 -0.7858  1.6379 -0.4353
 4474TIP3    H213429   1.113   2.973   4.832 -0.7094  1.1185  0.0917
 4475TIP3   OH213430   4.366   1.043   1.976  0.4085  0.1990  1.1447
 4475TIP3    H113431   4.298   1.018   2.039 -0.4372 -1.5379 -0.3523
 4475TIP3    H213432   4.436   0.978   1.989  0.4434  0.1327  0.6372
 4476TIP3   OH213433   3.391   2.598   2.064  0.0246 -0.0964  0.5316
 4476TIP3    H113434   3.368   2.684   2.101  1.0428 -0.3457  1.7975
 4476TIP3    H213435   3.447   2.618   1.989  0.4535  0.3461  0.9632
 4477TIP3   OH213436   0.423   3.396   0.020  0.0483 -0.2891 -0.4467
 4477TIP3    H113437   0.409   3.443   0.102 -0.2615  1.0793 -1.2567
 4477TIP3    H213438   0.337   3.359  -0.001  0.3730 -1.5729  0.3727
 4478TIP3   OH213439   1.783   1.639   1.931  0.6718  0.1139 -0.4428
 4478TIP3    H113440   1.860   1.614   1.982 -0.2557 -1.5805  0.2236
 4478TIP3    H213441   1.715   1.654   1.997 -0.3466 -1.3587 -1.1021
 4479TIP3   OH213442   5.945   1.400   2.443  0.0292  0.4299 -0.0896
 4479TIP3    H113443   5.917   1.470   2.384  0.9606 -0.3112 -1.4799
 4479TIP3    H213444   5.953   1.442   2.529  0.2489  1.9470 -0.8191
 4480TIP3   OH213445   1.557   3.814   3.788 -0.1791 -0.4838 -0.0342
 4480TIP3    H113446   1.505   3.736   3.808 -0.6875  0.1204  1.0607
 4480TIP3    H213447   1.492   3.880   3.764  0.2766 -0.5115 -1.4318
 4481TIP3   OH213448   3.587   4.577   3.867  0.2623  0.2001 -0.3685
 4481TIP3    H113449   3.618   4.668   3.859  2.5504 -0.4916 -0.0922
 4481TIP3    H213450   3.540   4.576   3.951 -1.1538  1.4478 -1.0995
 4482TIP3   OH213451   5.726   1.565   0.358  0.0006  0.4743 -0.4292
 4482TIP3    H113452   5.680   1.638   0.399  0.4542  1.3698 -1.4780
 4482TIP3    H213453   5.744   1.505   0.431 -1.2669  0.9112  0.2818
 4483TIP3   OH213454   0.378   2.824   1.529  0.0560 -0.0539  0.1884
 4483TIP3    H113455   0.401   2.734   1.552  0.1078  0.1709  1.0413
 4483TIP3    H213456   0.416   2.838   1.442  1.1717 -0.4257  0.6127
 4484TIP3   OH213457   6.101   4.027   0.045 -0.1492 -0.4614 -0.3272
 4484TIP3    H113458   6.064   3.942   0.023 -0.6537 -0.4485  0.4369
 4484TIP3    H213459   6.025   4.084   0.057  0.1920  0.2799 -1.5005
 4485TIP3   OH213460   3.643   3.379   2.054  0.1936  0.0886 -0.7195
 4485TIP3    H113461   3.552   3.408   2.061  0.8145  2.4315 -1.3726
 4485TIP3    H213462   3.683   3.442   1.995  2.4610 -0.3774  0.2250
 4486TIP3   OH213463   0.841   4.424   0.148  0.2984 -0.2367 -0.1776
 4486TIP3    H113464   0.840   4.440   0.054 -0.1271  0.2661 -0.0893
 4486TIP3    H213465   0.897   4.493   0.184  1.7428 -1.3304 -0.2110
 4487TIP3   OH213466   0.776   0.267   1.084 -0.4018 -0.1555  0.0741
 4487TIP3    H113467   0.712   0.199   1.062 -1.8679  1.3426 -0.4737
 4487TIP3    H213468   0.826   0.279   1.003 -0.0190 -0.6691  0.2237
 4488TIP3   OH213469   6.096   1.164   3.711 -0.2192  0.0090  0.4492
 4488TIP3    H113470   6.151   1.239   3.691  1.8654 -1.0179  1.9996
 4488TIP3    H213471   6.023   1.200   3.762 -0.1317  1.1624 -0.2053
 4489TIP3   OH213472   1.009   2.463   0.203  0.0489  0.1068 -0.4627
 4489TIP3    H113473   0.918   2.488   0.221  0.2866  0.5132  0.1876
 4489TIP3    H213474   1.002   2.392   0.139 -0.8520 -1.6354  1.4601
 4490TIP3   OH213475   1.670   3.537   0.583  0.1692 -0.1560  0.2453
 4490TIP3    H113476   1.644   3.460   0.533  0.4808 -1.3879  1.8774
 4490TIP3    H213477   1.721   3.590   0.522 -0.4863 -0.9919 -1.0540
 4491TIP3   OH213478   2.957   3.927   4.454  0.2019  0.1797 -0.2619
 4491TIP3    H113479   3.007   3.846   4.460 -0.6562 -0.3594 -0.2412
 4491TIP3    H213480   3.018   3.989   4.412  1.3603 -0.0404  1.0203
 4492TIP3   OH213481   6.094   1.288   4.100 -0.1204  0.4740 -0.1713
 4492TIP3    H113482   6.027   1.306   4.034  0.0812 -0.0447 -0.5245
 4492TIP3    H213483   6.171   1.263   4.048  0.0968  0.2535  0.2606
 4493TIP3   OH213484   1.786   3.621   0.980 -0.3590  0.2401 -0.2804
 4493TIP3    H113485   1.857   3.676   1.013 -0.4576  0.0311  0.2845
 4493TIP3    H213486   1.830   3.558   0.923  0.1357 -0.9145  1.3235
 4494TIP3   OH213487   3.739   2.717   3.493 -0.3493 -0.4120  0.0399
 4494TIP3    H113488   3.645   2.719   3.510 -0.4725 -0.6052 -0.5978
 4494TIP3    H213489   3.778   2.764   3.567 -1.3039  4.5611 -2.2261
 4495TIP3   OH213490   5.459   5.111   0.316  0.3115  0.3482  0.3590
 4495TIP3    H113491   5.427   5.117   0.226  0.7056  0.5572  0.2295
 4495TIP3    H213492   5.517   5.187   0.325  0.6328  0.0659  0.6457
 4496TIP3   OH213493   5.926   2.463   4.282 -0.3746  0.1834 -0.0699
 4496TIP3    H113494   5.997   2.521   4.255  1.2628 -1.5638  0.2568
 4496TIP3    H213495   5.942   2.382   4.233 -0.6918 -1.0946  1.8333
 4497TIP3   OH213496   2.476   4.011   1.289  0.1617  0.3417  0.3370
 4497TIP3    H113497   2.386   4.004   1.256  0.3859  0.4071 -0.2876
 4497TIP3    H213498   2.519   3.932   1.258  0.4003  0.4466  0.4027
 4498TIP3   OH213499   5.363   3.242   3.640 -0.1139 -0.0198  0.3288
 4498TIP3    H113500   5.387   3.162   3.686 -1.1396 -3.1624 -3.9415
 4498TIP3    H213501   5.274   3.226   3.608 -0.2692  2.7225 -0.9547
 4499TIP3   OH213502   1.869   4.037   0.294 -0.1784 -0.0077  0.3796
 4499TIP3    H113503   1.963   4.039   0.278 -0.3618  0.7863 -0.7270
 4499TIP3    H213504   1.846   4.128   0.314 -0.8829  0.0341 -0.5393
 4500TIP3   OH213505   3.330   2.871   2.079  0.0513  0.4816 -0.9181
 4500TIP3    H113506   3.313   2.887   2.172 -0.2745 -1.4367 -0.6146
 4500TIP3    H213507   3.405   2.927   2.059 -0.2442  1.3694  0.3426
 4501TIP3   OH213508   2.919   4.731   3.222  0.0210  0.5361  0.1693
 4501TIP3    H113509   2.892   4.644   3.253 -0.4407  1.4453  2.5164
 4501TIP3    H213510   3.005   4.716   3.184  0.4380 -0.8100  1.5220
 4502TIP3   OH213511   5.463   2.750   3.629 -0.2760 -0.2720 -0.4065
 4502TIP3    H113512   5.409   2.671   3.628 -1.7325  0.6281  1.1745
 4502TIP3    H213513   5.470   2.775   3.537 -2.4478 -0.5521 -0.7162
 4503TIP3   OH213514   6.313   3.475   0.403  0.1199 -0.2909  0.3752
 4503TIP3    H113515   6.374   3.407   0.374  1.3879  0.5699  0.9634
 4503TIP3    H213516   6.236   3.463   0.347  1.4068 -0.4518 -1.4494
 4504TIP3   OH213517   0.976   0.814   5.112 -0.4661  0.0623 -0.1097
 4504TIP3    H113518   1.024   0.779   5.037 -0.6044  0.2869 -0.3032
 4504TIP3    H213519   1.044   0.849   5.170 -0.2659 -1.0715  0.3873
 4505TIP3   OH213520   2.654   1.883   2.184 -0.3952  0.0217  0.4889
 4505TIP3    H113521   2.685   1.803   2.226  0.0516  0.0739  0.2653
 4505TIP3    H213522   2.732   1.938   2.176 -0.4284 -0.0448 -0.5360
 4506TIP3   OH213523   0.711   2.727   0.458 -0.8890 -0.1396 -0.2642
 4506TIP3    H113524   0.794   2.699   0.497 -0.8354  1.5874  0.9655
 4506TIP3    H213525   0.736   2.788   0.389 -1.1321  0.9881  0.6235
 4507TIP3   OH213526   2.869   1.812   0.704  0.9379  0.6400 -0.4711
 4507TIP3    H113527   2.782   1.841   0.677  0.2640 -0.6251  0.2704
 4507TIP3    H213528   2.879   1.845   0.793  0.3155 -1.0094  0.2409
 4508TIP3   OH213529   5.302   4.667   2.638  0.2879 -0.1618 -0.6968
 4508TIP3    H113530   5.311   4.602   2.569 -1.6915  0.9315 -2.0643
 4508TIP3    H213531   5.227   4.720   2.613  0.1990  1.0271  1.7157
 4509TIP3   OH213532   1.809   4.646   4.630 -0.2672  0.0034  0.3561
 4509TIP3    H113533   1.770   4.690   4.555 -1.0229 -1.1449  0.0562
 4509TIP3    H213534   1.830   4.558   4.598  1.5219  0.2211  0.8392
 4510TIP3   OH213535   3.364   5.861   0.763 -0.0260 -0.0701 -0.2781
 4510TIP3    H113536   3.335   5.869   0.672  0.5262  1.4660 -0.3449
 4510TIP3    H213537   3.291   5.898   0.814 -0.7062 -1.7006  0.0018
 4511TIP3   OH213538   3.069   1.599   4.331 -0.2957  0.9250 -0.7616
 4511TIP3    H113539   3.061   1.690   4.303  2.3584  1.0462 -1.4545
 4511TIP3    H213540   3.075   1.603   4.427  1.3499  1.7158 -0.8566
 4512TIP3   OH213541   5.366   3.168   1.004  0.1178 -0.3635  0.0537
 4512TIP3    H113542   5.454   3.184   0.968  1.3477 -0.1531  2.8627
 4512TIP3    H213543   5.328   3.255   1.012  1.1528 -0.0434  2.1493
 4513TIP3   OH213544   4.580   2.314   4.659  0.2051 -0.0154  0.1486
 4513TIP3    H113545   4.537   2.230   4.643 -0.5169  0.2904  0.4195
 4513TIP3    H213546   4.554   2.338   4.748  1.8103 -0.3065  0.7251
 4514TIP3   OH213547   0.229   2.380   1.661 -0.3380  0.3880 -0.3864
 4514TIP3    H113548   0.260   2.341   1.743 -0.7547  1.9312  0.5397
 4514TIP3    H213549   0.308   2.414   1.620 -0.3889  1.6568  0.5171
 4515TIP3   OH213550   2.407   4.326   4.290  0.3778  0.3044  0.2148
 4515TIP3    H113551   2.397   4.277   4.208  0.6874 -0.6153  0.7128
 4515TIP3    H213552   2.336   4.295   4.346 -0.5240  1.7528 -0.0723
 4516TIP3   OH213553   1.524   3.083   2.814  0.2240 -0.0600  0.2505
 4516TIP3    H113554   1.504   3.026   2.888  1.5905 -0.7123  0.1517
 4516TIP3    H213555   1.579   3.029   2.756  0.4403  0.9260 -0.4923
 4517TIP3   OH213556   3.899   4.000   0.908 -0.1614  0.3186  0.0599
 4517TIP3    H113557   3.885   4.070   0.844  0.4610  1.1546  0.8163
 4517TIP3    H213558   3.812   3.986   0.946 -0.3878  0.3290 -0.4465
 4518TIP3   OH213559   3.105   3.941   0.437  0.3428  0.2352 -0.0526
 4518TIP3    H113560   3.200   3.926   0.439  0.4965  1.1383 -0.3799
 4518TIP3    H213561   3.079   3.910   0.350  0.1076 -1.2365  0.5041
 4519TIP3   OH213562   5.813   3.509   2.902  0.4529 -0.5189  0.3516
 4519TIP3    H113563   5.790   3.505   2.809  1.4753  0.2746  0.0497
 4519TIP3    H213564   5.789   3.597   2.929 -0.4845 -0.9632  1.0424
 4520TIP3   OH213565   5.102   4.316   4.597 -0.7771  0.6438  0.1793
 4520TIP3    H113566   5.010   4.304   4.574 -1.4211  1.6385  2.0593
 4520TIP3    H213567   5.115   4.411   4.590  0.0689  0.5226  0.0843
 4521TIP3   OH213568   4.998   5.239   3.311 -0.2710  0.1985  0.2576
 4521TIP3    H113569   4.941   5.310   3.283  0.9879  0.9232 -0.5695
 4521TIP3    H213570   5.044   5.273   3.388  1.5568  0.9768 -1.1029
 4522TIP3   OH213571   4.852   5.481   3.175  0.0702  0.7866 -0.2590
 4522TIP3    H113572   4.773   5.430   3.194  0.4408 -0.0419 -0.8372
 4522TIP3    H213573   4.833   5.525   3.092  1.0086 -1.2567 -1.6522
 4523TIP3   OH213574   1.389   0.744   0.076  0.1359 -0.0213 -0.2531
 4523TIP3    H113575   1.300   0.754   0.110  0.6530  1.1068  0.8579
 4523TIP3    H213576   1.388   0.791  -0.008 -0.7465 -1.5214 -1.1336
 4524TIP3   OH213577   2.247   3.047   2.435 -0.1371  0.1022  0.0054
 4524TIP3    H113578   2.273   2.964   2.396 -1.3815 -0.5450  0.4982
 4524TIP3    H213579   2.258   3.034   2.529 -0.4760  0.4410  0.0959
 4525TIP3   OH213580   3.915   4.342   3.382 -0.3227 -0.3894  0.0709
 4525TIP3    H113581   3.986   4.321   3.321  1.0911 -1.4885  1.9727
 4525TIP3    H213582   3.947   4.312   3.467 -3.2382 -1.2819  0.9813
 4526TIP3   OH213583   2.003   3.452   1.986  0.9751  0.0522 -0.1017
 4526TIP3    H113584   1.921   3.495   1.963 -0.2904 -0.9085  2.2214
 4526TIP3    H213585   2.018   3.389   1.915 -0.6071 -0.1256 -0.3207
 4527TIP3   OH213586   0.884   5.760   3.128 -0.0024  0.2152  0.4397
 4527TIP3    H113587   0.807   5.799   3.085  0.6274 -0.1954 -1.1583
 4527TIP3    H213588   0.848   5.685   3.177 -0.5491 -0.6164 -1.1441
 4528TIP3   OH213589   4.193   2.905   1.037  0.0097 -0.1653 -0.3237
 4528TIP3    H113590   4.246   2.907   0.957 -1.3789  0.7503 -1.2567
 4528TIP3    H213591   4.210   2.989   1.079  2.4920 -1.4910  1.6143
 4529TIP3   OH213592   1.351   5.167   0.162  0.4363 -0.4530  0.6754
 4529TIP3    H113593   1.310   5.131   0.084 -1.8130 -0.4230  1.7538
 4529TIP3    H213594   1.433   5.118   0.171  0.2348 -1.1840 -1.0843
 4530TIP3   OH213595   1.903   1.904   0.843  0.4093  0.0749 -0.3003
 4530TIP3    H113596   1.983   1.956   0.853 -0.1930  1.3724 -1.7983
 4530TIP3    H213597   1.934   1.818   0.815  1.3447  0.0479  0.7399
 4531TIP3   OH213598   1.880   4.686   4.036 -0.1294 -0.1457 -0.4012
 4531TIP3    H113599   1.827   4.613   4.003 -0.3490 -0.3548  0.3930
 4531TIP3    H213600   1.880   4.749   3.965  0.0845 -0.9308 -1.1127
 4532TIP3   OH213601   1.944   3.221   1.306 -0.1885  0.1449 -0.3213
 4532TIP3    H113602   2.028   3.219   1.351 -1.0890  0.4646  1.4384
 4532TIP3    H213603   1.906   3.134   1.323 -1.1276  0.7482  0.7290
 4533TIP3   OH213604   2.462   0.188   1.619  0.4294 -0.4672 -0.4024
 4533TIP3    H113605   2.527   0.183   1.689  0.2685  2.8238  0.1228
 4533TIP3    H213606   2.505   0.235   1.548 -0.7831  0.1816 -0.7474
 4534TIP3   OH213607   6.090   3.528   1.347 -0.4305 -0.4491 -0.0095
 4534TIP3    H113608   6.069   3.568   1.431 -0.4955 -1.6520  0.5720
 4534TIP3    H213609   6.060   3.591   1.282  1.0557  1.2254  0.8499
 4535TIP3   OH213610   4.437   4.699   4.056 -0.6157 -0.3247 -0.7368
 4535TIP3    H113611   4.497   4.731   3.989 -0.7135  0.7078 -0.3563
 4535TIP3    H213612   4.352   4.738   4.032 -0.2004  2.0613  1.2483
 4536TIP3   OH213613   5.042   1.292   4.633 -0.2212 -0.3096  0.3930
 4536TIP3    H113614   4.974   1.227   4.650  0.9930 -0.8422  3.8921
 4536TIP3    H213615   5.122   1.253   4.668  1.0337  2.0636  0.3448
 4537TIP3   OH213616   5.374   1.229   2.481 -0.2019 -0.1277  0.6086
 4537TIP3    H113617   5.310   1.166   2.513 -0.9062  1.6611  3.0950
 4537TIP3    H213618   5.433   1.241   2.555  0.9872  0.7865 -0.4540
 4538TIP3   OH213619   0.802   0.988   4.262 -0.3879 -0.3344 -0.4325
 4538TIP3    H113620   0.799   1.043   4.183 -2.2798  0.4869  0.1609
 4538TIP3    H213621   0.714   0.994   4.298  0.3780 -0.8857  1.6283
 4539TIP3   OH213622   6.342   4.078   3.024 -0.9551 -0.1939  0.2127
 4539TIP3    H113623   6.254   4.071   3.061 -1.5693 -1.3811 -1.3579
 4539TIP3    H213624   6.388   4.001   3.057 -0.3648  0.5801  1.2742
 4540TIP3   OH213625   6.173   5.214   1.392 -0.4518 -0.1618  0.1822
 4540TIP3    H113626   6.215   5.289   1.351 -1.6701  0.5938  0.2585
 4540TIP3    H213627   6.165   5.238   1.485  0.2690 -0.9230  0.4638
 4541TIP3   OH213628   2.738   4.726   2.021  0.6175 -0.0110 -0.6298
 4541TIP3    H113629   2.812   4.727   2.083  1.4751  0.1610 -1.6227
 4541TIP3    H213630   2.776   4.756   1.939 -0.5612 -0.0010 -1.1859
 4542TIP3   OH213631   4.645   0.672   4.041  0.4352 -0.5475 -0.0120
 4542TIP3    H113632   4.716   0.736   4.041  1.4636 -1.6654 -0.2414
 4542TIP3    H213633   4.623   0.661   4.134  1.3952 -1.0949  0.1566
 4543TIP3   OH213634   1.136   3.177   4.209 -0.0256 -0.1450 -0.2798
 4543TIP3    H113635   1.162   3.147   4.122  0.9020 -1.7224  0.4921
 4543TIP3    H213636   1.042   3.160   4.213 -0.0030 -0.4434 -0.8433
 4544TIP3   OH213637   3.073   4.021   2.124  0.1621 -0.1471 -0.3075
 4544TIP3    H113638   3.148   4.030   2.183  0.8997 -0.8855 -1.1003
 4544TIP3    H213639   3.022   3.949   2.161 -1.2962  1.6375  1.3732
 4545TIP3   OH213640   1.386   1.685   1.100 -0.0754 -0.0718 -0.6953
 4545TIP3    H113641   1.302   1.703   1.058  0.0321  1.2417 -0.4014
 4545TIP3    H213642   1.366   1.687   1.194  0.0626 -1.0079 -0.6346
 4546TIP3   OH213643   1.600   4.810   0.763 -0.0856 -0.3666  0.1281
 4546TIP3    H113644   1.682   4.808   0.713 -0.8102 -1.3802 -1.0441
 4546TIP3    H213645   1.533   4.832   0.699 -0.7893  0.2687  1.0468
 4547TIP3   OH213646   4.752   3.444   2.050 -0.1518 -0.0189 -0.6942
 4547TIP3    H113647   4.717   3.357   2.068 -3.5513  0.8925 -2.2318
 4547TIP3    H213648   4.801   3.434   1.969 -1.9770 -0.2676 -1.8245
 4548TIP3   OH213649   2.862   1.821   4.996  0.0398 -0.5011 -0.5878
 4548TIP3    H113650   2.862   1.886   4.926  1.1430  0.2848  0.1098
 4548TIP3    H213651   2.799   1.854   5.060  1.8789  0.8799  0.6048
 4549TIP3   OH213652   5.582   0.733   4.400  0.6242 -0.5500  0.2576
 4549TIP3    H113653   5.563   0.807   4.457 -0.9496 -0.3495 -0.4652
 4549TIP3    H213654   5.502   0.723   4.347  0.5271 -3.1786  0.7806
 4550TIP3   OH213655   3.550   0.343   3.429  0.2720 -0.3088  0.6043
 4550TIP3    H113656   3.560   0.414   3.493  2.1019 -0.0839  0.1243
 4550TIP3    H213657   3.625   0.352   3.371 -1.3990 -0.4127 -1.7170
 4551TIP3   OH213658   4.813   2.548   1.448 -0.0402  0.2520 -0.0653
 4551TIP3    H113659   4.770   2.583   1.527  0.9487 -0.7893  0.9759
 4551TIP3    H213660   4.763   2.469   1.428  1.6695 -1.3374  1.5454
 4552TIP3   OH213661   1.375   4.515   2.908  0.5315 -0.2626 -0.3098
 4552TIP3    H113662   1.297   4.568   2.927 -0.2541 -1.8331  1.1887
 4552TIP3    H213663   1.382   4.514   2.813 -1.1665  0.1169 -0.4688
 4553TIP3   OH213664   6.068   4.264   5.054  0.1557 -0.1130 -0.0526
 4553TIP3    H113665   6.013   4.186   5.056 -0.2449  0.1410  2.7574
 4553TIP3    H213666   6.150   4.234   5.015 -0.8096 -1.2994 -1.2828
 4554TIP3   OH213667   0.166   0.382   2.186  0.1332  0.3846 -0.4037
 4554TIP3    H113668   0.186   0.363   2.095  1.0263 -1.6079  0.1604
 4554TIP3    H213669   0.251   0.379   2.230 -0.3758  0.5213  0.6220
 4555TIP3   OH213670   1.283   2.910   3.482  0.3165  0.1517  0.0388
 4555TIP3    H113671   1.259   2.887   3.572  0.0664  2.0255  0.4958
 4555TIP3    H213672   1.356   2.852   3.461 -1.1609 -2.0156  0.5399
 4556TIP3   OH213673   1.772   3.953   3.450  0.5746  0.3398 -0.2134
 4556TIP3    H113674   1.795   3.967   3.358 -1.2931 -0.3078 -0.8289
 4556TIP3    H213675   1.765   3.858   3.459 -0.2020  0.4437  0.3557
 4557TIP3   OH213676   0.628   3.162   4.653 -0.8396 -0.4402  0.2711
 4557TIP3    H113677   0.716   3.151   4.689 -0.8547 -1.1551  0.0991
 4557TIP3    H213678   0.606   3.253   4.672 -0.2679 -0.3988  0.7752
 4558TIP3   OH213679   4.918   4.277   2.575  0.3187 -0.4877 -0.6221
 4558TIP3    H113680   4.930   4.184   2.594 -0.5882 -0.8291 -1.5907
 4558TIP3    H213681   4.906   4.281   2.480  0.8446  0.6837 -0.6586
 4559TIP3   OH213682   4.590   3.224   3.151  0.1763 -0.1457  0.0801
 4559TIP3    H113683   4.615   3.291   3.215  1.2561 -0.2587 -0.1992
 4559TIP3    H213684   4.618   3.142   3.192  0.0945 -0.2970 -0.1693
 4560TIP3   OH213685   5.194   5.836   2.812 -0.0185 -0.1766 -0.4426
 4560TIP3    H113686   5.103   5.811   2.800 -0.7508  2.6078 -1.3283
 4560TIP3    H213687   5.193   5.891   2.890  1.5026 -2.4755  1.3585
 4561TIP3   OH213688   4.936   5.887   1.345 -0.1057 -0.1605  0.0756
 4561TIP3    H113689   4.979   5.970   1.325 -0.4618 -0.1992 -0.8829
 4561TIP3    H213690   4.846   5.911   1.367  0.0707 -0.1975  0.8599
 4562TIP3   OH213691   3.562   2.916   0.888 -0.1241 -0.3701  0.2100
 4562TIP3    H113692   3.578   2.988   0.827 -2.1885 -0.0502 -0.0446
 4562TIP3    H213693   3.576   2.953   0.974 -0.3956  0.1151  0.0467
 4563TIP3   OH213694   4.638   1.468   1.304 -0.3257  0.7414 -0.0144
 4563TIP3    H113695   4.622   1.374   1.311 -0.9397  0.6820 -1.7574
 4563TIP3    H213696   4.576   1.498   1.238  0.5731  2.1876 -0.2415
 4564TIP3   OH213697   4.761   4.601   4.207  0.1151  0.0095 -0.0090
 4564TIP3    H113698   4.802   4.528   4.160 -0.9169 -1.2981  1.0292
 4564TIP3    H213699   4.668   4.595   4.184 -0.1335  0.3651  0.8784
 4565TIP3   OH213700   4.254   4.843   0.035 -0.0651 -0.7916 -0.3790
 4565TIP3    H113701   4.200   4.880   0.105 -1.2049 -1.9663 -0.6081
 4565TIP3    H213702   4.320   4.791   0.081  0.8163  0.5346 -0.1023
 4566TIP3   OH213703   2.421   5.067   0.567 -0.1009  0.2848  0.5939
 4566TIP3    H113704   2.516   5.057   0.579  0.1337 -0.0497 -1.2337
 4566TIP3    H213705   2.412   5.150   0.519 -0.7212  0.2976  0.7282
 4567TIP3   OH213706   2.062   0.665   0.752 -0.0861 -0.5768  0.3321
 4567TIP3    H113707   1.981   0.694   0.794  0.6971  0.2790  1.3385
 4567TIP3    H213708   2.101   0.604   0.815 -0.1690 -1.3531 -0.3558
 4568TIP3   OH213709   5.266   4.175   0.647 -0.0061 -0.3515  0.0238
 4568TIP3    H113710   5.308   4.257   0.672 -0.7345  0.1065 -0.2095
 4568TIP3    H213711   5.217   4.149   0.725 -0.6068 -0.0116 -0.2316
 4569TIP3   OH213712   4.217   4.561   0.468  0.2242  0.0725  0.3057
 4569TIP3    H113713   4.251   4.513   0.393  0.4101 -0.5253  0.7691
 4569TIP3    H213714   4.223   4.653   0.442  0.6641 -0.1076 -0.2519
 4570TIP3   OH213715   2.849   4.062   3.799  0.8432  0.2579  0.3823
 4570TIP3    H113716   2.846   4.157   3.808  1.0144  0.7094 -3.0096
 4570TIP3    H213717   2.767   4.039   3.755  0.5593 -1.2746  1.6167
 4571TIP3   OH213718   4.654   3.669   0.973  0.5517  0.3841 -0.3415
 4571TIP3    H113719   4.569   3.686   1.015 -0.8397  0.3417 -2.9563
 4571TIP3    H213720   4.669   3.745   0.916  2.1492  0.2400 -0.1636
 4572TIP3   OH213721   3.996   2.021   0.896  0.0555 -0.2062 -0.6414
 4572TIP3    H113722   3.940   2.097   0.907  0.5511  0.3273 -1.6018
 4572TIP3    H213723   4.072   2.054   0.847  2.4859 -0.2987  2.6981
 4573TIP3   OH213724   3.093   4.358   3.932 -0.1168 -0.0883  0.0961
 4573TIP3    H113725   3.117   4.450   3.921  1.7478 -0.6806 -1.3158
 4573TIP3    H213726   3.006   4.352   3.892  0.5684  0.7124 -1.6212
 4574TIP3   OH213727   5.976   2.184   2.908  0.4573  0.1568  0.8660
 4574TIP3    H113728   5.895   2.136   2.891  1.6023 -1.9866  1.0851
 4574TIP3    H213729   5.958   2.231   2.990 -1.5143  2.1383 -0.5923
 4575TIP3   OH213730   2.082   2.551   4.264  0.5076  0.3274 -0.1894
 4575TIP3    H113731   2.036   2.590   4.189 -0.9859  0.6607  0.8595
 4575TIP3    H213732   2.090   2.622   4.327  0.9406 -0.1878  0.3463
 4576TIP3   OH213733   0.604   0.423   4.064  0.3004 -0.1710 -0.1463
 4576TIP3    H113734   0.609   0.335   4.102  0.5516 -0.7261 -1.4162
 4576TIP3    H213735   0.576   0.409   3.974 -0.3590  1.1204 -0.1685
 4577TIP3   OH213736   4.933   4.845   1.264  0.0336  0.0780  0.8698
 4577TIP3    H113737   4.929   4.936   1.236 -0.8245  0.4795  2.2188
 4577TIP3    H213738   4.854   4.805   1.228 -0.1426  0.1456  1.1751
 4578TIP3   OH213739   0.756   4.825   3.218 -0.2751 -0.0354 -0.1808
 4578TIP3    H113740   0.843   4.841   3.255  0.4994 -0.1787 -1.8359
 4578TIP3    H213741   0.762   4.737   3.180 -1.3608 -0.3041  0.2277
 4579TIP3   OH213742   4.621   0.563   0.562  0.1126  0.0319 -0.3376
 4579TIP3    H113743   4.559   0.593   0.629  0.0390 -0.2632 -0.2708
 4579TIP3    H213744   4.669   0.492   0.605 -1.6807 -1.9201 -1.4164
 4580TIP3   OH213745   1.901   5.212   2.810 -0.4267 -0.4796 -0.3491
 4580TIP3    H113746   1.982   5.167   2.834  0.0683  0.7124  0.3527
 4580TIP3    H213747   1.927   5.272   2.740 -1.0569 -1.1966 -1.2234
 4581TIP3   OH213748   4.815   4.596   4.948 -0.2347  0.3121 -0.2811
 4581TIP3    H113749   4.871   4.624   4.875 -0.3695  0.7951 -0.1984
 4581TIP3    H213750   4.779   4.677   4.983 -1.8645 -0.0548 -1.0254
 4582TIP3   OH213751   1.409   1.321   4.444 -0.2779 -0.0272 -0.0530
 4582TIP3    H113752   1.368   1.407   4.454 -0.4252 -0.1598  0.5140
 4582TIP3    H213753   1.483   1.337   4.386 -0.0100  0.5850  0.4396
 4583TIP3   OH213754   1.578   0.148   1.597  0.8272  0.3299  0.0113
 4583TIP3    H113755   1.625   0.185   1.672 -0.6625  0.1325  1.0843
 4583TIP3    H213756   1.495   0.197   1.595 -0.0641 -1.1511 -0.1647
 4584TIP3   OH213757   5.820   4.069   4.406  0.0830 -0.0631  0.3477
 4584TIP3    H113758   5.784   4.032   4.325 -0.3303  1.0044  0.0220
 4584TIP3    H213759   5.890   4.009   4.431 -0.0871 -0.6556 -0.5548
 4585TIP3   OH213760   5.349   0.117   4.575 -0.0824  0.5359 -0.2762
 4585TIP3    H113761   5.427   0.172   4.578 -0.7193  1.4369  0.1261
 4585TIP3    H213762   5.286   0.167   4.523 -1.9094  1.8814  2.9521
 4586TIP3   OH213763   4.062   2.572   2.193 -0.2692  0.1070  0.5711
 4586TIP3    H113764   4.035   2.524   2.271  2.3957  1.3045  2.3496
 4586TIP3    H213765   4.151   2.603   2.212  0.7441  0.0219 -3.1526
 4587TIP3   OH213766   3.555   4.643   1.083  0.2461 -0.4277 -0.1405
 4587TIP3    H113767   3.502   4.620   1.007  1.1423 -1.5195 -0.4616
 4587TIP3    H213768   3.522   4.585   1.153  1.9869 -2.2543 -0.7457
 4588TIP3   OH213769   1.654   0.145   3.525  0.1217  0.4934  0.0547
 4588TIP3    H113770   1.601   0.156   3.603  1.0391 -0.1702  0.7924
 4588TIP3    H213771   1.590   0.122   3.456 -0.5766 -0.0869  0.8681
 4589TIP3   OH213772   2.277   5.155   0.814  0.3359 -0.0941 -0.3427
 4589TIP3    H113773   2.354   5.172   0.868  0.7216 -1.9150 -0.2393
 4589TIP3    H213774   2.304   5.178   0.726  1.2718 -1.3620 -0.4125
 4590TIP3   OH213775   1.276   1.777   0.488  0.4349  0.5853  0.3648
 4590TIP3    H113776   1.276   1.731   0.572 -0.3206  0.7039  0.4430
 4590TIP3    H213777   1.336   1.851   0.501  0.7871  0.2623  0.5993
 4591TIP3   OH213778   1.861   0.857   0.863  0.6367  0.1044  0.1771
 4591TIP3    H113779   1.819   0.802   0.930  1.6642 -3.5250 -1.8898
 4591TIP3    H213780   1.794   0.867   0.795  0.7035  0.8781  0.2160
 4592TIP3   OH213781   3.011   3.305   2.896 -0.0764  0.0330 -0.2538
 4592TIP3    H113782   2.996   3.382   2.842  1.2081 -0.5385 -1.4733
 4592TIP3    H213783   3.040   3.341   2.980 -0.7315  0.8965 -0.3810
 4593TIP3   OH213784   4.091   4.833   4.560 -0.6337  0.6343  0.4033
 4593TIP3    H113785   4.024   4.765   4.564  0.2753 -0.3432 -0.3523
 4593TIP3    H213786   4.148   4.814   4.635  0.8268 -0.8124 -0.9692
 4594TIP3   OH213787   6.194   4.838   0.526 -0.1504  0.3021 -0.1499
 4594TIP3    H113788   6.238   4.753   0.528  1.2292  0.7902 -3.3693
 4594TIP3    H213789   6.136   4.832   0.450  0.7898  2.5454 -1.1230
 4595TIP3   OH213790   1.177   4.355   3.335 -0.1465  0.2570  0.2824
 4595TIP3    H113791   1.164   4.444   3.367 -1.3006  0.5259 -0.8516
 4595TIP3    H213792   1.242   4.363   3.266 -1.3046  0.4801 -0.8178
 4596TIP3   OH213793   4.889   4.709   3.456  0.0934  0.2174 -0.5295
 4596TIP3    H113794   4.817   4.721   3.394 -0.5454  1.7209  0.4468
 4596TIP3    H213795   4.966   4.697   3.401 -0.2542  2.6871 -1.7005
 4597TIP3   OH213796   1.047   5.454   3.053 -0.2795 -0.5393  0.0740
 4597TIP3    H113797   1.044   5.544   3.021 -3.9748 -0.9818 -1.2412
 4597TIP3    H213798   1.092   5.405   2.984 -0.1131 -0.0361 -0.1789
 4598TIP3   OH213799   0.972   0.080   3.008  0.6717  0.3420 -0.5617
 4598TIP3    H113800   0.909   0.085   3.080 -1.6883  0.7327 -2.5215
 4598TIP3    H213801   1.038   0.146   3.030 -0.2121  0.7761  0.9986
 4599TIP3   OH213802   0.660   2.930   2.611 -0.0836  0.2302 -0.5092
 4599TIP3    H113803   0.641   2.979   2.691  1.8022  0.0407  0.0975
 4599TIP3    H213804   0.660   2.838   2.638 -1.8526 -0.0456 -1.2806
 4600TIP3   OH213805   3.693   5.712   2.423 -0.4658  0.3276  0.0942
 4600TIP3    H113806   3.757   5.682   2.487  0.0473  1.0029 -0.0900
 4600TIP3    H213807   3.746   5.740   2.348 -0.8145  2.8256  0.7159
 4601TIP3   OH213808   5.357   5.365   1.290 -0.5839 -0.1094  0.1313
 4601TIP3    H113809   5.444   5.341   1.259 -0.7170 -0.2152 -0.1652
 4601TIP3    H213810   5.370   5.386   1.382 -0.1806  0.2074  0.0093
 4602TIP3   OH213811   4.883   5.051   4.725 -0.2045 -0.3226 -0.0235
 4602TIP3    H113812   4.861   4.973   4.675  0.4856 -1.0804  0.8325
 4602TIP3    H213813   4.946   5.097   4.670 -0.8369 -0.1935 -0.6644
 4603TIP3   OH213814   3.520   3.716   4.142  0.3810  0.1431  0.0842
 4603TIP3    H113815   3.494   3.656   4.212  1.5130 -0.4812 -0.0072
 4603TIP3    H213816   3.582   3.777   4.183  0.5459  0.1830 -0.2156
 4604TIP3   OH213817   2.088   3.991   4.942  0.0327 -0.1088 -0.3504
 4604TIP3    H113818   2.090   4.083   4.971 -0.5218 -0.5993  1.3550
 4604TIP3    H213819   2.177   3.974   4.911  0.2324  0.9045 -0.3700
 4605TIP3   OH213820   4.812   1.540   4.820  0.1685  0.0610  0.6980
 4605TIP3    H113821   4.823   1.553   4.726 -1.3228 -0.4767  0.4274
 4605TIP3    H213822   4.899   1.557   4.857  0.6081  0.9678 -0.6879
 4606TIP3   OH213823   2.278   4.788   3.168 -0.1110  0.2685 -0.2354
 4606TIP3    H113824   2.304   4.811   3.257  1.6298 -2.4390  0.0845
 4606TIP3    H213825   2.192   4.748   3.178  0.0960 -0.0668  0.2553
 4607TIP3   OH213826   3.183   1.981   0.320  0.3617  0.0630  0.3941
 4607TIP3    H113827   3.153   1.937   0.399  1.8899 -0.2533  0.8337
 4607TIP3    H213828   3.123   1.951   0.252 -1.2484  0.6709  1.4779
 4608TIP3   OH213829   5.791   5.173   2.935  0.0240  0.5668 -0.0619
 4608TIP3    H113830   5.819   5.117   2.863 -0.4036  1.1440 -0.6938
 4608TIP3    H213831   5.695   5.167   2.934  0.0155  0.4660  0.5606
 4609TIP3   OH213832   2.767   5.557   0.588 -0.2446  0.0352  0.0872
 4609TIP3    H113833   2.747   5.631   0.531  1.3981 -0.3170 -1.0443
 4609TIP3    H213834   2.804   5.491   0.529  2.8152  0.1430  1.6668
 4610TIP3   OH213835   0.474   5.800   3.171  0.0279 -0.1755 -0.7449
 4610TIP3    H113836   0.540   5.835   3.231  0.3172 -3.8610  1.3743
 4610TIP3    H213837   0.395   5.849   3.192  1.0320  1.3407 -0.2672
 4611TIP3   OH213838   0.521   3.087   2.353  0.0420 -0.1111  0.3106
 4611TIP3    H113839   0.455   3.020   2.336  1.2981 -1.2804 -0.1071
 4611TIP3    H213840   0.524   3.138   2.272 -0.2837 -0.0979  0.3039
 4612TIP3   OH213841   3.186   5.719   2.131 -0.3344  0.5886  0.0557
 4612TIP3    H113842   3.279   5.708   2.146 -0.1848  0.4333 -0.9071
 4612TIP3    H213843   3.154   5.630   2.113 -0.4948  0.7562 -0.5018
 4613TIP3   OH213844   2.952   4.195   2.351 -0.0255  0.2797 -0.1418
 4613TIP3    H113845   2.866   4.152   2.352 -0.7817  1.6567 -1.8463
 4613TIP3    H213846   2.998   4.155   2.277  1.0810 -0.8585  1.1020
 4614TIP3   OH213847   0.076   5.110   5.185  0.2280 -0.5358  0.1864
 4614TIP3    H113848   0.110   5.030   5.145 -1.4114 -1.3506  0.3319
 4614TIP3    H213849   0.076   5.174   5.115 -0.6767 -1.3640 -0.6066
 4615TIP3   OH213850   2.678   2.659   4.786 -0.1837  0.2738  0.5271
 4615TIP3    H113851   2.584   2.676   4.778 -0.0851  0.1843 -1.5966
 4615TIP3    H213852   2.686   2.565   4.766  0.4624  0.5929 -0.8090
 4616TIP3   OH213853   1.632   3.221   4.110 -0.8024  0.6773  0.1676
 4616TIP3    H113854   1.646   3.296   4.052  1.4437  0.8691  0.8616
 4616TIP3    H213855   1.591   3.259   4.188  0.0469  1.1371  0.3970
 4617TIP3   OH213856   4.707   4.020   2.252  0.4198  0.5542 -0.2719
 4617TIP3    H113857   4.654   4.005   2.174  0.7077  0.6237 -0.4832
 4617TIP3    H213858   4.789   3.975   2.234  0.1700 -0.1899  0.3632
 4618TIP3   OH213859   2.625   1.513   4.325  0.1380 -0.2164  0.4512
 4618TIP3    H113860   2.671   1.590   4.358  0.5061  0.2364 -1.0472
 4618TIP3    H213861   2.666   1.439   4.370  2.6229  0.1306 -1.0729
 4619TIP3   OH213862   0.062   3.307   4.052  0.0905 -0.1076  0.1303
 4619TIP3    H113863   0.132   3.321   4.116 -0.3239  0.7024  0.4153
 4619TIP3    H213864  -0.015   3.286   4.104  0.2484 -1.6851 -0.2086
 4620TIP3   OH213865   1.825   4.005   1.245  0.1277 -0.2629  0.4847
 4620TIP3    H113866   1.787   3.995   1.158 -0.6949 -1.3481  0.9449
 4620TIP3    H213867   1.823   4.100   1.261  1.9509  0.1497 -1.3588
 4621TIP3   OH213868   2.989   3.715   0.841  0.4416 -0.1031 -0.2153
 4621TIP3    H113869   2.934   3.713   0.763  0.0873  0.2526  0.0164
 4621TIP3    H213870   3.024   3.804   0.842  0.5353 -0.1423 -0.0327
 4622TIP3   OH213871   1.793   5.148   0.925 -0.2020 -0.4061  0.1152
 4622TIP3    H113872   1.856   5.121   0.858  0.4649 -0.5873  0.7963
 4622TIP3    H213873   1.846   5.193   0.991 -1.0510  1.0325 -0.1514
 4623TIP3   OH213874   3.065   0.579   2.521  0.4066 -0.9337 -0.2812
 4623TIP3    H113875   3.142   0.572   2.577  0.5174 -0.0476 -0.3142
 4623TIP3    H213876   2.994   0.602   2.580  0.3321 -0.9312 -0.3715
 4624TIP3   OH213877   3.763   2.174   1.890  0.9550 -0.1971  0.0514
 4624TIP3    H113878   3.817   2.191   1.812  2.5263  0.8085  1.2913
 4624TIP3    H213879   3.809   2.104   1.935  0.1272 -0.6770  0.1569
 4625TIP3   OH213880   1.933   5.364   5.011  0.0262 -0.7780  0.4027
 4625TIP3    H113881   1.890   5.426   5.069 -0.5308 -0.0952 -0.6948
 4625TIP3    H213882   2.010   5.333   5.059  0.4822  1.0012  0.8629
 4626TIP3   OH213883   5.609   1.832   4.278 -0.2355 -0.2731  0.2361
 4626TIP3    H113884   5.688   1.797   4.320  1.3402  1.4523 -1.1201
 4626TIP3    H213885   5.594   1.776   4.203 -1.2990 -1.5568  1.3513
 4627TIP3   OH213886   2.777   5.366   4.362  0.0438  0.0353 -0.1517
 4627TIP3    H113887   2.796   5.394   4.452  1.3277  0.0839 -0.4170
 4627TIP3    H213888   2.682   5.368   4.356 -0.0360  0.7184  0.9898
 4628TIP3   OH213889   6.193   2.391   2.908  0.4141 -0.4190  0.0407
 4628TIP3    H113890   6.126   2.360   2.847 -0.3092  0.7044  0.2221
 4628TIP3    H213891   6.261   2.324   2.905  0.3975 -0.4277 -1.9752
 4629TIP3   OH213892   4.507   4.683   0.102 -0.1245  0.1794 -0.0702
 4629TIP3    H113893   4.557   4.765   0.104  0.8623 -0.4084  0.3763
 4629TIP3    H213894   4.555   4.628   0.040 -0.9836  0.0527 -0.6368
 4630TIP3   OH213895   4.028   2.164   2.159 -0.1844 -0.1436 -0.0859
 4630TIP3    H113896   4.013   2.072   2.138  1.6053 -0.0874 -1.9061
 4630TIP3    H213897   4.037   2.166   2.254  0.0475 -1.8810 -0.0475
 4631TIP3   OH213898   1.206   1.367   0.751 -0.2276  0.1929  0.1256
 4631TIP3    H113899   1.272   1.363   0.820 -0.6588 -2.0017  0.4637
 4631TIP3    H213900   1.244   1.319   0.678 -0.7310  0.4865 -0.3440
 4632TIP3   OH213901   3.359   1.515   4.673  0.6525  0.6912  0.4621
 4632TIP3    H113902   3.308   1.571   4.731 -0.7716 -0.0987  0.0277
 4632TIP3    H213903   3.421   1.470   4.731 -0.8088 -0.1600  1.4330
 4633TIP3   OH213904   0.034   0.276   4.740  0.1625 -0.5769  0.0944
 4633TIP3    H113905   0.048   0.370   4.729 -0.0745 -0.5476  0.0355
 4633TIP3    H213906   0.031   0.242   4.650  1.1364 -0.7777  0.1212
 4634TIP3   OH213907   4.473   3.050   4.244 -0.6049  0.1220  0.9331
 4634TIP3    H113908   4.494   2.959   4.224 -0.4797  0.2578  0.4328
 4634TIP3    H213909   4.518   3.101   4.176 -1.8934  0.4676  0.3030
 4635TIP3   OH213910   4.216   3.379   0.577  0.2425  0.5955 -0.1077
 4635TIP3    H113911   4.304   3.344   0.591  0.8710  2.0841 -0.1719
 4635TIP3    H213912   4.180   3.388   0.665 -0.0594 -0.5171 -0.1092
 4636TIP3   OH213913   5.940   0.515   1.088 -0.1233 -0.3308  0.0520
 4636TIP3    H113914   6.011   0.451   1.096 -0.2338 -0.3328  1.0568
 4636TIP3    H213915   5.939   0.561   1.172 -0.1186  0.9210 -0.6080
 4637TIP3   OH213916   1.394   5.141   4.967  0.5107 -0.0210  0.0376
 4637TIP3    H113917   1.399   5.090   4.886  0.0287  0.4920 -0.3241
 4637TIP3    H213918   1.391   5.075   5.036  0.4505 -0.4751 -0.3924
 4638TIP3   OH213919   5.421   0.897   4.961  0.1496 -0.5129 -0.1440
 4638TIP3    H113920   5.437   0.836   4.889 -0.3134 -1.8993  0.8866
 4638TIP3    H213921   5.326   0.903   4.967  0.1892  0.3024 -0.2164
 4639TIP3   OH213922   2.307   1.212   1.049 -0.5142 -0.7547  0.2665
 4639TIP3    H113923   2.314   1.289   0.992  1.9067 -0.8260  0.3532
 4639TIP3    H213924   2.282   1.141   0.990 -0.0054 -0.4288 -0.3595
 4640TIP3   OH213925   2.767   1.707   4.458 -0.2201 -0.0139 -0.1493
 4640TIP3    H113926   2.829   1.703   4.532  0.3163 -0.3203 -0.6053
 4640TIP3    H213927   2.729   1.795   4.463  0.6001  0.3480 -0.1384
 4641TIP3   OH213928   2.697   4.027   4.528  0.0994 -0.2283  0.6653
 4641TIP3    H113929   2.708   4.110   4.482 -0.2113 -1.0036 -0.8536
 4641TIP3    H213930   2.758   3.968   4.485  0.0682 -0.8885  1.5075
 4642TIP3   OH213931   4.402   5.742   3.254  0.2255 -0.0467 -0.7536
 4642TIP3    H113932   4.427   5.732   3.346 -0.5348 -0.3116 -0.5626
 4642TIP3    H213933   4.315   5.782   3.257  0.0839 -0.2922 -1.3508
 4643TIP3   OH213934   0.970   5.314   5.090  0.5934  0.2478 -0.0419
 4643TIP3    H113935   0.976   5.368   5.169  0.3458  0.3847 -0.1150
 4643TIP3    H213936   1.060   5.308   5.058  0.7146  0.0804  0.3241
 4644TIP3   OH213937   5.295   2.845   5.138  0.4412  0.4912 -0.4283
 4644TIP3    H113938   5.256   2.915   5.190 -0.7523  0.0181 -0.6563
 4644TIP3    H213939   5.282   2.766   5.191 -1.9963 -0.2295 -1.9422
 4645TIP3   OH213940   1.242   0.040   0.511 -0.4143 -0.2384 -0.0085
 4645TIP3    H113941   1.224   0.014   0.420 -0.6041 -0.8571  0.1949
 4645TIP3    H213942   1.308   0.108   0.504  0.7421 -1.3680 -0.5410
 4646TIP3   OH213943   4.356   5.539   4.779 -0.1223  0.4062 -0.1723
 4646TIP3    H113944   4.312   5.504   4.701  0.8283  1.4966 -1.2337
 4646TIP3    H213945   4.390   5.462   4.824 -1.7594 -0.3410 -0.1374
 4647TIP3   OH213946   2.674   0.037   0.111  0.3722 -0.2820 -0.2597
 4647TIP3    H113947   2.747  -0.024   0.097 -0.0328 -0.4709 -1.8868
 4647TIP3    H213948   2.623   0.030   0.030 -0.1707  1.5845 -0.1136
 4648TIP3   OH213949   4.552   3.568   1.645 -0.0300  0.5228  0.2721
 4648TIP3    H113950   4.590   3.482   1.626 -1.0625  0.1609 -0.2680
 4648TIP3    H213951   4.627   3.625   1.663  1.0123  0.5358 -3.4354
 4649TIP3   OH213952   6.335   2.155   4.562  0.7796 -0.4725 -0.2059
 4649TIP3    H113953   6.266   2.203   4.608  0.2521  0.3103 -1.7253
 4649TIP3    H213954   6.292   2.121   4.484  2.3152  1.0228 -1.8078
 4650TIP3   OH213955   4.710   1.885   4.521  0.0046  0.4379  0.0762
 4650TIP3    H113956   4.774   1.901   4.451  0.4025 -1.2080  0.0369
 4650TIP3    H213957   4.743   1.935   4.596  1.1080 -0.0331 -0.0795
 4651TIP3   OH213958   3.135   4.289   4.194 -0.1594  0.2732 -0.3868
 4651TIP3    H113959   3.149   4.324   4.106 -0.1861  0.3777 -0.3499
 4651TIP3    H213960   3.123   4.366   4.249 -1.8318  0.1739 -0.5737
 4652TIP3   OH213961   1.304   5.226   2.942 -0.0537 -0.1435  0.1116
 4652TIP3    H113962   1.293   5.291   2.872 -1.9780  0.4310  0.8953
 4652TIP3    H213963   1.378   5.172   2.912  0.2045  1.0559 -1.5911
 4653TIP3   OH213964   3.982   0.540   0.377  0.3095  0.7676  0.0951
 4653TIP3    H113965   3.903   0.589   0.399 -0.9323 -0.7268 -0.8615
 4653TIP3    H213966   4.054   0.595   0.410 -1.1258  1.8703  1.5441
 4654TIP3   OH213967   2.082   4.317   3.029 -0.2115  0.0688 -0.2276
 4654TIP3    H113968   2.011   4.379   3.010 -0.0957  0.3249  0.1596
 4654TIP3    H213969   2.048   4.232   3.001 -0.8933  0.1026  0.4581
 4655TIP3   OH213970   4.491   5.202   0.407 -0.5636 -0.1648 -0.1681
 4655TIP3    H113971   4.539   5.277   0.442  0.6556 -0.8165 -0.3612
 4655TIP3    H213972   4.542   5.126   0.436 -2.0373 -0.9514  0.4279
 4656TIP3   OH213973   0.042   2.191   4.140  0.4129  0.4037  0.3743
 4656TIP3    H113974   0.001   2.261   4.089 -1.7221 -0.6119  0.5825
 4656TIP3    H213975   0.090   2.139   4.076 -3.0383 -1.4355 -0.9293
 4657TIP3   OH213976   4.473   5.686   1.842  0.2508  0.0527  0.2407
 4657TIP3    H113977   4.490   5.667   1.934  0.1529 -1.0440  0.0482
 4657TIP3    H213978   4.466   5.782   1.838 -0.6588  0.0602  1.5186
 4658TIP3   OH213979   0.200   1.937   0.656  0.2202 -0.3763  0.8423
 4658TIP3    H113980   0.258   1.937   0.731 -1.4340  1.1598  2.1943
 4658TIP3    H213981   0.202   2.027   0.623  0.3066 -0.8361 -0.4719
 4659TIP3   OH213982   5.774   2.667   2.042 -0.0109  0.0828 -0.7532
 4659TIP3    H113983   5.776   2.762   2.058 -1.5327  0.2839 -1.5282
 4659TIP3    H213984   5.813   2.629   2.120 -1.8798  1.2628  0.8825
 4660TIP3   OH213985   0.476   3.487   3.221 -0.1984  0.6688  0.3688
 4660TIP3    H113986   0.486   3.425   3.149 -0.7542  1.0993 -0.0942
 4660TIP3    H213987   0.493   3.436   3.300  2.0086  0.5265 -0.1251
 4661TIP3   OH213988   2.106   5.456   0.578  0.0092  0.3811 -0.1631
 4661TIP3    H113989   2.160   5.515   0.631  1.5615 -1.6822  0.6832
 4661TIP3    H213990   2.057   5.404   0.642 -0.4062 -0.0959 -0.8548
 4662TIP3   OH213991   5.796   3.656   1.560  0.5811  0.5461  0.2946
 4662TIP3    H113992   5.844   3.733   1.590 -0.1262  1.8487 -1.6690
 4662TIP3    H213993   5.810   3.656   1.465  0.7713 -1.9280  0.2751
 4663TIP3   OH213994   5.170   3.163   0.704  0.4189 -0.5364  0.3891
 4663TIP3    H113995   5.188   3.077   0.665  0.8256 -1.8955  3.3150
 4663TIP3    H213996   5.101   3.146   0.768  1.5831  0.9589  2.1475
 4664TIP3   OH213997   5.135   4.483   5.139  0.3157  0.5069  0.5597
 4664TIP3    H113998   5.115   4.411   5.197 -0.6897  1.3787  1.3356
 4664TIP3    H213999   5.075   4.472   5.065  0.3004  0.4398  0.5824
 4665TIP3   OH214000   0.095   0.098   0.853  0.1293  0.0030  0.1612
 4665TIP3    H114001   0.050   0.019   0.882 -2.3192 -0.4754 -4.2115
 4665TIP3    H214002   0.054   0.169   0.903 -1.5419 -0.9975  0.2722
 4666TIP3   OH214003   6.298   2.843   0.108  0.1744 -0.0959  0.4992
 4666TIP3    H114004   6.214   2.798   0.105  0.4716 -0.6081 -1.5246
 4666TIP3    H214005   6.361   2.774   0.131  0.4747 -0.5607 -1.4994
 4667TIP3   OH214006   4.567   4.204   0.815  0.3097 -0.1061 -0.5615
 4667TIP3    H114007   4.525   4.266   0.754 -0.4766 -0.6184 -0.5523
 4667TIP3    H214008   4.656   4.194   0.780  0.8615  1.9299  0.1069
 4668TIP3   OH214009   5.804   4.574   3.165  0.1902 -0.6373  0.2374
 4668TIP3    H114010   5.801   4.566   3.070 -1.2848  1.2504  0.0711
 4668TIP3    H214011   5.715   4.553   3.193  0.4750 -0.6523  1.1585
 4669TIP3   OH214012   2.433   0.765   3.719  0.2427 -0.1051  0.1668
 4669TIP3    H114013   2.409   0.726   3.635  1.7062 -0.3441 -0.1680
 4669TIP3    H214014   2.476   0.848   3.696  0.8748 -0.2871  0.6481
 4670TIP3   OH214015   4.777   2.720   4.520  0.2066 -0.0506 -0.1781
 4670TIP3    H114016   4.781   2.626   4.535 -2.0957 -0.3938 -1.2990
 4670TIP3    H214017   4.687   2.744   4.539  0.7060  1.9167 -0.0932
 4671TIP3   OH214018   0.806   0.274   1.404  0.0207 -0.4277  0.4853
 4671TIP3    H114019   0.765   0.329   1.336  1.8824 -0.8245 -1.0569
 4671TIP3    H214020   0.900   0.285   1.390  0.4695 -3.1292  0.8371
 4672TIP3   OH214021   1.289   4.749   3.889  0.1077 -0.5805  0.0686
 4672TIP3    H114022   1.365   4.796   3.855  0.2814 -0.1237  1.0630
 4672TIP3    H214023   1.218   4.772   3.829  0.7484 -1.0752 -0.9214
 4673TIP3   OH214024   5.740   1.425   2.850 -0.1045 -0.6326 -0.2762
 4673TIP3    H114025   5.701   1.510   2.871  0.4006 -0.8178  1.5887
 4673TIP3    H214026   5.666   1.372   2.819 -1.0609 -0.4508  1.5463
 4674TIP3   OH214027   4.918   3.611   0.905 -0.2499  0.3771  0.2983
 4674TIP3    H114028   4.978   3.675   0.865  2.1102 -1.5828  0.4489
 4674TIP3    H214029   4.841   3.662   0.929  1.4725  3.1598  0.3624
 4675TIP3   OH214030   3.117   4.245   3.550 -0.1273 -0.3579 -0.2778
 4675TIP3    H114031   3.141   4.177   3.488  0.1955 -1.6487  1.2083
 4675TIP3    H214032   3.165   4.223   3.630 -1.1422  0.7926  0.6933
 4676TIP3   OH214033   2.800   0.078   1.624  0.3641  0.0973  0.0027
 4676TIP3    H114034   2.757   0.004   1.581 -1.6481  0.0915  1.8326
 4676TIP3    H214035   2.753   0.155   1.593  0.6873  0.3494  0.1316
 4677TIP3   OH214036   0.701   4.617   4.743  0.8353 -0.9648  0.2574
 4677TIP3    H114037   0.788   4.643   4.712  0.0989  3.5106  1.2590
 4677TIP3    H214038   0.642   4.644   4.673  0.0129 -1.2905  0.8133
 4678TIP3   OH214039   3.615   4.982   2.824  0.2506 -0.1804 -0.7626
 4678TIP3    H114040   3.679   4.928   2.870 -0.4289  1.6927  2.7065
 4678TIP3    H214041   3.662   5.014   2.747  2.7527 -0.6722  0.4503
 4679TIP3   OH214042   5.197   3.896   4.311  0.8896  0.1304 -0.6511
 4679TIP3    H114043   5.106   3.894   4.343  1.0682 -0.4866 -0.1807
 4679TIP3    H214044   5.205   3.818   4.257  1.1885  0.1143 -0.5822
 4680TIP3   OH214045   3.276   3.643   0.533  0.3119 -0.1632  0.0548
 4680TIP3    H114046   3.321   3.702   0.594  0.1340 -0.5649  0.5822
 4680TIP3    H214047   3.300   3.676   0.446  0.4383  0.5138  0.3370
 4681TIP3   OH214048   2.228   2.519   4.576 -0.6094 -0.4895  0.4920
 4681TIP3    H114049   2.168   2.449   4.553  0.4251 -1.2902  0.1595
 4681TIP3    H214050   2.182   2.599   4.550 -1.0275 -1.1502 -0.9266
 4682TIP3   OH214051   2.171   5.266   5.140 -0.0973 -0.1834 -0.0473
 4682TIP3    H114052   2.222   5.224   5.209 -1.0030 -1.7291 -0.2657
 4682TIP3    H214053   2.234   5.285   5.071  0.2146 -2.3003 -0.4272
 4683TIP3   OH214054   4.641   3.885   4.392  0.0184 -0.6837 -0.3744
 4683TIP3    H114055   4.626   3.976   4.418 -1.5790 -1.4346  1.5789
 4683TIP3    H214056   4.689   3.847   4.465  0.0124 -1.6162 -0.8386
 4684TIP3   OH214057   0.612   0.401   5.020  0.2212  0.6374 -0.3242
 4684TIP3    H114058   0.563   0.477   4.989  0.3798  0.7173 -0.3799
 4684TIP3    H214059   0.677   0.436   5.080 -0.8484  0.3611  1.0523
 4685TIP3   OH214060   5.869   3.346   3.403 -0.4326 -0.3295 -0.7453
 4685TIP3    H114061   5.796   3.302   3.446  1.1937 -1.6889  0.7599
 4685TIP3    H214062   5.830   3.385   3.325 -2.8283 -0.6660  0.1775
 4686TIP3   OH214063   4.441   4.878   3.478  0.7748 -0.4592 -0.4098
 4686TIP3    H114064   4.392   4.960   3.470  0.8369 -0.5139 -1.5309
 4686TIP3    H214065   4.522   4.894   3.430  1.2145 -0.8578  0.1937
 4687TIP3   OH214066   4.728   5.167   2.250  0.5852  0.3519  0.0825
 4687TIP3    H114067   4.744   5.109   2.324  0.5666 -0.3441 -0.4371
 4687TIP3    H214068   4.694   5.109   2.182  1.1820  0.8569 -0.6736
 4688TIP3   OH214069   1.272   1.996   2.567  0.0583 -0.0029  0.4494
 4688TIP3    H114070   1.227   1.913   2.549  2.5538 -1.5418  0.8090
 4688TIP3    H214071   1.256   2.012   2.660  0.0601 -0.4073  0.5203
 4689TIP3   OH214072   4.510   0.076   3.540 -0.3819  0.2643 -0.1241
 4689TIP3    H114073   4.461   0.158   3.534 -1.2104 -0.3141 -1.6217
 4689TIP3    H214074   4.443   0.009   3.552 -0.0038 -0.5244 -2.0480
 4690TIP3   OH214075   6.316   0.670   0.315  0.0525  0.1924  0.4035
 4690TIP3    H114076   6.384   0.656   0.380  1.4966 -2.2498 -1.4375
 4690TIP3    H214077   6.339   0.753   0.273  0.1962  0.8231  1.7053
 4691TIP3   OH214078   3.429   1.472   0.440 -0.3989 -0.3564  0.5856
 4691TIP3    H114079   3.460   1.386   0.469 -0.1624  0.3752  2.7008
 4691TIP3    H214080   3.500   1.531   0.462 -0.6848  0.4338 -0.5674
 4692TIP3   OH214081   3.281   3.013   4.059  0.2212 -0.2791 -0.4161
 4692TIP3    H114082   3.353   2.964   4.100 -0.5035 -0.0977  1.1534
 4692TIP3    H214083   3.250   3.072   4.128  0.1812  1.4394 -1.8401
 4693TIP3   OH214084   1.265   5.772   4.832  0.3188 -0.2850 -0.3149
 4693TIP3    H114085   1.236   5.857   4.799 -2.0001 -0.2811  1.4335
 4693TIP3    H214086   1.220   5.708   4.778 -0.5170 -0.3260  0.4108
 4694TIP3   OH214087   0.965   1.080   3.628 -0.4909  0.0060  0.1730
 4694TIP3    H114088   0.965   1.176   3.631 -0.0222  0.2208 -3.2438
 4694TIP3    H214089   1.055   1.055   3.647  0.4154  0.6049 -2.7906
 4695TIP3   OH214090   0.453   0.927   2.130 -0.0198 -0.0409 -0.3982
 4695TIP3    H114091   0.395   0.906   2.056  0.7057  0.2553 -1.0614
 4695TIP3    H214092   0.534   0.881   2.110  0.6086  1.0432 -0.4150
 4696TIP3   OH214093   1.093   4.697   2.716 -0.0689 -0.3891 -0.0333
 4696TIP3    H114094   1.170   4.752   2.730  0.6218 -0.9954 -1.2343
 4696TIP3    H214095   1.035   4.717   2.789  0.3618  1.5618 -0.1704
 4697TIP3   OH214096   2.061   0.437   0.548 -0.3638  0.5982 -0.4542
 4697TIP3    H114097   2.075   0.504   0.616  0.7164  2.5176 -2.4550
 4697TIP3    H214098   1.978   0.396   0.573 -0.0031  1.1829  2.0348
 4698TIP3   OH214099   2.946   4.929   2.030  0.1000 -0.2072  0.3735
 4698TIP3    H114100   3.028   4.915   1.981 -0.2739  0.3472 -0.4461
 4698TIP3    H214101   2.957   4.879   2.110  1.3689  0.0859  0.4121
 4699TIP3   OH214102   2.023   0.310   3.210  0.5415  0.1340 -0.2724
 4699TIP3    H114103   2.093   0.340   3.268  0.2295  0.1561  0.0984
 4699TIP3    H214104   1.942   0.332   3.257  0.2814 -2.6717  0.7981
 4700TIP3   OH214105   6.133   3.490   3.230  0.0553 -0.0204  0.4764
 4700TIP3    H114106   6.104   3.469   3.141  1.4261 -0.1408  0.0306
 4700TIP3    H214107   6.112   3.582   3.241  0.1050  0.0619 -0.0709
 4701TIP3   OH214108   1.673   2.955   0.134 -0.8958 -0.0797  0.7707
 4701TIP3    H114109   1.610   3.022   0.108  0.5529  1.1634  0.3435
 4701TIP3    H214110   1.695   2.976   0.225 -0.9063 -0.3527  0.8381
 4702TIP3   OH214111   1.626   3.991   1.875  0.0556 -0.3218  0.0496
 4702TIP3    H114112   1.594   3.907   1.908  1.8695 -0.8782  0.5324
 4702TIP3    H214113   1.719   3.976   1.856  0.1078  1.2079 -1.1731
 4703TIP3   OH214114   5.091   2.239   4.650 -0.0568 -0.2482  0.4572
 4703TIP3    H114115   5.060   2.203   4.733  0.0054 -0.4702  0.3871
 4703TIP3    H214116   5.131   2.164   4.605 -1.4837 -0.5050 -0.4657
 4704TIP3   OH214117   5.512   5.189   4.851 -0.4684  0.4541  0.5476
 4704TIP3    H114118   5.488   5.273   4.890 -1.0130 -0.3233  1.9946
 4704TIP3    H214119   5.507   5.127   4.924 -0.2302 -0.8657 -0.5168
 4705TIP3   OH214120   3.473   0.765   1.960  0.2389  0.2145  0.2377
 4705TIP3    H114121   3.398   0.716   1.994 -1.9714  1.7060 -2.0712
 4705TIP3    H214122   3.476   0.845   2.013 -0.6368  0.7108 -0.4372
 4706TIP3   OH214123   3.291   1.736   4.513 -0.5139 -0.0003 -0.1212
 4706TIP3    H114124   3.281   1.796   4.587 -2.1786  1.5334 -1.4947
 4706TIP3    H214125   3.354   1.671   4.544  1.7256  2.6182  1.3477
 4707TIP3   OH214126   0.287   5.021   3.303  0.6081  0.1521  0.7630
 4707TIP3    H114127   0.317   4.947   3.249 -0.0903 -0.3410  1.0394
 4707TIP3    H214128   0.241   5.078   3.241 -0.2939 -0.4710  0.8463
 4708TIP3   OH214129   6.068   3.884   0.911 -0.0678 -0.0021  0.0046
 4708TIP3    H114130   6.094   3.957   0.855 -0.1570  0.9384  1.1719
 4708TIP3    H214131   6.120   3.810   0.878  0.9030  0.8462 -0.4426
 4709TIP3   OH214132   5.184   3.528   3.301 -0.1713  0.6213  0.0552
 4709TIP3    H114133   5.273   3.509   3.332  0.2297  3.1307  0.6606
 4709TIP3    H214134   5.167   3.463   3.233  2.1482  0.1095 -0.0975
 4710TIP3   OH214135   5.132   4.667   3.252 -0.1622 -0.6312  0.2936
 4710TIP3    H114136   5.176   4.716   3.183  0.6929 -1.0400  0.5363
 4710TIP3    H214137   5.048   4.641   3.214  0.3567 -0.9597 -0.6336
 4711TIP3   OH214138   2.205   3.933   2.018 -0.3651 -0.1378  0.3026
 4711TIP3    H114139   2.293   3.943   1.981  0.0143 -0.7249  1.0258
 4711TIP3    H214140   2.159   3.876   1.956 -0.4458  0.6359 -0.3844
 4712TIP3   OH214141   2.654   5.008   1.255  0.4284  0.0431 -0.4792
 4712TIP3    H114142   2.708   5.016   1.334 -0.5629 -0.1355  0.2345
 4712TIP3    H214143   2.693   5.070   1.193  2.0630 -0.8212 -0.3533
 4713TIP3   OH214144   3.113   0.441   4.894  0.4867 -0.0086 -0.2130
 4713TIP3    H114145   3.025   0.413   4.869 -0.0482  1.0041  0.4688
 4713TIP3    H214146   3.149   0.482   4.816  0.7933 -1.4140 -0.8339
 4714TIP3   OH214147   4.917   4.097   3.469  0.4299  0.3507 -0.0103
 4714TIP3    H114148   4.880   4.009   3.472  0.1887  0.4688  0.6150
 4714TIP3    H214149   4.845   4.154   3.495  0.4007  0.8023 -1.0208
 4715TIP3   OH214150   3.450   5.630   2.569  0.0525 -0.3251  0.5046
 4715TIP3    H114151   3.527   5.669   2.527  1.3088 -2.7127  0.4057
 4715TIP3    H214152   3.395   5.704   2.593  2.2622  1.4736  0.3303
 4716TIP3   OH214153   0.787   1.532   4.189 -0.4512 -0.0983 -0.5132
 4716TIP3    H114154   0.715   1.472   4.171 -0.0846 -0.5785 -0.4269
 4716TIP3    H214155   0.825   1.499   4.271  0.1015 -0.0840 -0.7575
 4717TIP3   OH214156   3.968   3.848   1.874 -0.0296 -0.3030  0.2389
 4717TIP3    H114157   3.950   3.887   1.789 -0.4188  0.3835  0.6241
 4717TIP3    H214158   3.882   3.841   1.916 -0.2416 -3.1869 -0.4631
 4718TIP3   OH214159   0.552   2.477   4.449 -0.6238  0.3177  0.6503
 4718TIP3    H114160   0.630   2.517   4.487  0.5151 -1.3229  0.1820
 4718TIP3    H214161   0.487   2.547   4.446  0.9516  1.8410  0.7024
 4719TIP3   OH214162   5.786   0.252   0.394  0.3119 -0.6570 -0.1340
 4719TIP3    H114163   5.782   0.321   0.461  1.5045 -0.1917 -0.5037
 4719TIP3    H214164   5.779   0.300   0.311 -0.8914 -1.2034 -0.3729
 4720TIP3   OH214165   0.141   2.522   2.267 -0.0487  0.4268 -0.2701
 4720TIP3    H114166   0.217   2.560   2.310 -0.3908 -0.5634  1.3212
 4720TIP3    H214167   0.088   2.597   2.240  1.1619  1.1059 -0.8041
 4721TIP3   OH214168   5.004   3.714   0.049  0.6582 -0.1208 -0.4661
 4721TIP3    H114169   4.990   3.808   0.034 -0.1751 -0.0868  0.4117
 4721TIP3    H214170   4.961   3.671  -0.025  0.4220  0.1767 -0.5051
 4722TIP3   OH214171   2.348   3.156   2.796  0.4798 -0.0534  0.0734
 4722TIP3    H114172   2.349   3.243   2.837  1.7587  0.4656 -0.9849
 4722TIP3    H214173   2.256   3.141   2.775  0.2286  1.0528  0.2875
 4723TIP3   OH214174   4.325   4.157   1.946  0.3389 -0.3253 -0.1504
 4723TIP3    H114175   4.278   4.207   1.879  0.4489 -3.7092 -3.0716
 4723TIP3    H214176   4.255   4.117   1.998  0.1719  0.2020  0.0347
 4724TIP3   OH214177   0.837   3.059   3.973 -0.2137 -0.2415 -0.0844
 4724TIP3    H114178   0.838   3.034   4.065 -1.7431  2.6340  0.8101
 4724TIP3    H214179   0.753   3.103   3.960  0.1350 -0.1636 -2.7612
 4725TIP3   OH214180   1.574   1.574   3.478 -0.2585  0.1599  0.2192
 4725TIP3    H114181   1.658   1.531   3.464  0.3619  0.4444  2.6387
 4725TIP3    H214182   1.523   1.552   3.400  1.3728 -1.6340 -0.4312
 4726TIP3   OH214183   6.037   5.860   2.502  0.0797  0.3763  0.3628
 4726TIP3    H114184   6.049   5.800   2.576 -1.6847 -1.5638 -0.8075
 4726TIP3    H214185   6.109   5.840   2.442 -0.2155 -0.2330  0.2060
 4727TIP3   OH214186   2.987   3.205   4.860  0.2855 -0.3801  0.3826
 4727TIP3    H114187   2.993   3.264   4.785  0.8518  0.7663  1.2972
 4727TIP3    H214188   3.028   3.124   4.830  1.8459  0.5398 -0.0923
 4728TIP3   OH214189   0.048   4.219   2.576 -0.0222 -0.4249 -0.0911
 4728TIP3    H114190   0.041   4.165   2.497  1.0888 -1.5888  0.5696
 4728TIP3    H214191   0.108   4.290   2.551  1.3027 -1.4629  0.0235
 4729TIP3   OH214192   3.231   1.622   4.899 -0.0108  0.0679  0.0269
 4729TIP3    H114193   3.142   1.586   4.896  0.7079 -1.8771 -3.0806
 4729TIP3    H214194   3.220   1.714   4.875 -1.1165 -0.5910 -2.3237
 4730TIP3   OH214195   5.242   1.778   3.887 -0.4986  0.5958 -0.2359
 4730TIP3    H114196   5.310   1.844   3.901 -1.2531  1.0343  1.5803
 4730TIP3    H214197   5.222   1.745   3.974 -0.4615 -1.7660 -1.0470
 4731TIP3   OH214198   5.041   1.029   2.337 -0.0158 -0.0882 -0.7117
 4731TIP3    H114199   4.951   1.020   2.306 -0.6847  1.7365  0.5361
 4731TIP3    H214200   5.083   1.087   2.273  0.4602 -1.3773 -1.5939
 4732TIP3   OH214201   0.586   5.326   2.127 -0.4645 -0.6566  0.6802
 4732TIP3    H114202   0.649   5.349   2.058 -0.0921 -2.9944  0.1556
 4732TIP3    H214203   0.557   5.410   2.162  1.0281  0.5468 -0.8070
 4733TIP3   OH214204   3.665   5.262   3.604 -0.1380 -0.0963  0.3942
 4733TIP3    H114205   3.634   5.313   3.530  0.4921 -0.8087 -0.3734
 4733TIP3    H214206   3.705   5.184   3.565  0.0632 -0.5593  1.4838
 4734TIP3   OH214207   2.423   4.472   0.882  0.7708  0.3949 -0.0410
 4734TIP3    H114208   2.455   4.544   0.937  0.7241 -0.5388  1.2603
 4734TIP3    H214209   2.340   4.504   0.846  1.7121  1.7272 -1.0916
 4735TIP3   OH214210   1.987   1.248   3.703 -0.1089 -0.6607  0.2243
 4735TIP3    H114211   2.018   1.228   3.791 -3.3151 -0.8923  1.4577
 4735TIP3    H214212   1.941   1.332   3.712  1.1411  0.3116 -1.7176
 4736TIP3   OH214213   0.040   0.765   0.855 -0.0734  0.3179  0.2030
 4736TIP3    H114214   0.025   0.681   0.812  0.5356  0.4519 -0.2883
 4736TIP3    H214215   0.135   0.767   0.870  0.3800  2.1197 -2.3676
 4737TIP3   OH214216   4.231   5.345   1.866  0.2597 -0.0828  0.1727
 4737TIP3    H114217   4.289   5.279   1.903 -0.2531  0.0396  1.2311
 4737TIP3    H214218   4.239   5.420   1.924 -2.5946 -0.8257  1.7382
 4738TIP3   OH214219   1.835   1.804   0.487 -0.2255 -0.2496 -0.0294
 4738TIP3    H114220   1.900   1.761   0.544  0.0649  1.0153  0.6260
 4738TIP3    H214221   1.858   1.775   0.399 -0.2464 -1.6905  0.4088
 4739TIP3   OH214222   5.485   0.733   0.333 -0.0505 -0.0903  0.8173
 4739TIP3    H114223   5.551   0.689   0.387 -1.4803  0.3546  3.0888
 4739TIP3    H214224   5.438   0.789   0.395 -0.5328  2.0166 -1.3184
 4740TIP3   OH214225   4.838   0.633   1.686 -0.0666 -0.0059 -0.1115
 4740TIP3    H114226   4.852   0.569   1.615  0.5717  0.4775 -0.4283
 4740TIP3    H214227   4.908   0.615   1.748  0.2013  0.4748 -0.2707
 4741TIP3   OH214228   1.668   4.087   2.482  0.1456 -0.1607  0.6594
 4741TIP3    H114229   1.721   4.058   2.408 -0.9329 -0.2839 -0.0830
 4741TIP3    H214230   1.670   4.183   2.478  0.1539 -0.1669  0.5311
 4742TIP3   OH214231   2.475   0.930   1.641 -0.0763 -0.1002 -0.0835
 4742TIP3    H114232   2.525   0.908   1.720 -0.9799 -1.6015  0.1088
 4742TIP3    H214233   2.518   0.880   1.571 -1.2206 -1.3524  0.0712
 4743TIP3   OH214234   0.645   0.157   2.233 -0.6470 -0.3840 -0.3103
 4743TIP3    H114235   0.655   0.172   2.327  0.4121  1.0596 -0.6235
 4743TIP3    H214236   0.732   0.131   2.202  0.5334  4.2555 -1.6813
 4744TIP3   OH214237   2.962   0.134   2.369  0.0700 -0.0139 -0.3312
 4744TIP3    H114238   2.938   0.051   2.328 -1.7867  1.1516 -1.8013
 4744TIP3    H214239   3.023   0.110   2.439 -0.0684 -2.5401 -0.9794
 4745TIP3   OH214240   1.747   2.217   4.411 -0.1171 -0.4245  0.3616
 4745TIP3    H114241   1.656   2.229   4.439 -0.0030 -1.4571  1.2137
 4745TIP3    H214242   1.774   2.305   4.383 -0.5111  0.5336  2.7543
 4746TIP3   OH214243   2.382   5.037   2.931 -0.0074  0.0354  0.4721
 4746TIP3    H114244   2.429   5.115   2.960 -0.8027  0.3458  0.9728
 4746TIP3    H214245   2.444   4.991   2.875  0.6448  0.7785  0.5623
 4747TIP3   OH214246   3.178   3.252   0.492  0.0317  0.3433 -0.3668
 4747TIP3    H114247   3.232   3.285   0.563  0.0978  0.7966 -0.6253
 4747TIP3    H214248   3.235   3.194   0.442 -0.1511 -0.3548  0.2237
 4748TIP3   OH214249   5.642   3.023   1.120  0.2071  0.2417 -0.2461
 4748TIP3    H114250   5.692   3.102   1.100  0.2767 -0.0551 -1.3133
 4748TIP3    H214251   5.619   2.987   1.034  1.0536 -1.4458  0.1904
 4749TIP3   OH214252   0.110   3.259   0.308  0.7156  0.4845 -0.8587
 4749TIP3    H114253   0.024   3.234   0.277 -0.1564  0.7096  1.1992
 4749TIP3    H214254   0.169   3.191   0.276 -0.7217 -1.2931  0.1506
 4750TIP3   OH214255   1.845   1.007   4.720 -0.1877 -0.3388 -0.0932
 4750TIP3    H114256   1.769   1.061   4.742  0.2546  0.0329  0.5381
 4750TIP3    H214257   1.823   0.920   4.753 -0.0085 -0.0476  0.8157
 4751TIP3   OH214258   1.345   3.949   5.010 -0.1723  0.2136 -0.6651
 4751TIP3    H114259   1.358   3.919   5.099  1.6505 -1.1331 -1.3338
 4751TIP3    H214260   1.249   3.952   4.999 -0.4088 -0.2003  1.1080
 4752TIP3   OH214261   1.369   4.567   3.348 -0.0733 -0.0217 -0.3867
 4752TIP3    H114262   1.361   4.473   3.362 -0.3192 -0.3658 -2.4400
 4752TIP3    H214263   1.438   4.575   3.282  2.5157  1.5300  2.2876
 4753TIP3   OH214264   0.379   0.547   3.642 -0.3304  0.2328 -0.2544
 4753TIP3    H114265   0.298   0.509   3.610 -0.1692 -0.2516 -0.0979
 4753TIP3    H214266   0.448   0.494   3.602 -0.0927  0.5443 -0.2660
 4754TIP3   OH214267   3.344   0.047   1.124 -0.0469  0.2740 -0.0407
 4754TIP3    H114268   3.257   0.084   1.111 -0.8946 -1.9864 -1.4669
 4754TIP3    H214269   3.335  -0.008   1.202  0.4844  1.0098  0.5547
 4755TIP3   OH214270   1.428   5.528   3.734 -0.2284 -0.1534  0.2371
 4755TIP3    H114271   1.402   5.599   3.793  0.4906 -0.6569  1.1978
 4755TIP3    H214272   1.345   5.492   3.701 -0.6360  0.3448  0.7067
 4756TIP3   OH214273   1.103   3.054   1.581  0.0940 -0.4065  0.2144
 4756TIP3    H114274   1.172   3.082   1.641  0.5857  1.6910 -1.2465
 4756TIP3    H214275   1.148   3.012   1.509 -0.3132 -0.8274  0.1999
 4757TIP3   OH214276   6.148   4.971   1.245  0.1134 -0.0875 -0.0402
 4757TIP3    H114277   6.235   4.943   1.216  0.5764  1.4065 -0.1566
 4757TIP3    H214278   6.162   5.057   1.284 -0.5950 -1.5523  3.9371
 4758TIP3   OH214279   3.154   1.555   0.440 -0.3209  0.0775 -0.5344
 4758TIP3    H114280   3.242   1.578   0.468 -0.7396  0.4179  0.5528
 4758TIP3    H214281   3.150   1.581   0.348  0.2500  1.4152 -0.2028
 4759TIP3   OH214282   0.400   1.781   0.833  0.3416 -0.3303  0.2133
 4759TIP3    H114283   0.310   1.791   0.864  0.0631  0.7029 -0.8715
 4759TIP3    H214284   0.413   1.686   0.829 -0.8353 -0.4927 -0.0152
 4760TIP3   OH214285   4.340   4.241   1.020  0.1745 -0.0703 -0.0586
 4760TIP3    H114286   4.304   4.165   0.975  2.7639 -0.8490 -0.9838
 4760TIP3    H214287   4.296   4.241   1.105 -1.7313 -1.0735 -0.9777
 4761TIP3   OH214288   5.071   3.544   3.558  0.0532 -0.7347  0.0862
 4761TIP3    H114289   5.103   3.522   3.470 -1.9614 -2.0343 -0.4038
 4761TIP3    H214290   5.082   3.638   3.565 -1.8170 -0.2035 -2.5317
 4762TIP3   OH214291   1.586   2.478   2.961 -0.6752 -0.1777 -0.2574
 4762TIP3    H114292   1.663   2.430   2.992 -1.6086 -0.3591  1.9845
 4762TIP3    H214293   1.619   2.535   2.892  1.5370  0.0104  0.8692
 4763TIP3   OH214294   1.970   5.327   1.970 -0.2247  0.4286  0.0628
 4763TIP3    H114295   1.912   5.400   1.992 -0.4520  0.2848 -0.0595
 4763TIP3    H214296   2.055   5.352   2.007 -0.6252  0.1274  1.2089
 4764TIP3   OH214297   2.281   4.967   4.855 -0.3812 -0.6208 -0.1583
 4764TIP3    H114298   2.204   4.994   4.805 -0.7266 -0.4567  0.4540
 4764TIP3    H214299   2.338   5.044   4.855 -0.6305 -0.4328  0.1711
 4765TIP3   OH214300   2.103   5.771   2.182  0.1935 -0.0692 -0.3079
 4765TIP3    H114301   2.127   5.708   2.115  0.7159  1.1643 -1.3354
 4765TIP3    H214302   2.017   5.803   2.155  1.0540  1.5550 -1.3265
 4766TIP3   OH214303   0.992   2.252   0.552 -0.0261  0.0455  0.1333
 4766TIP3    H114304   1.011   2.158   0.557 -2.4803 -0.4574  1.5631
 4766TIP3    H214305   0.974   2.268   0.460 -0.3546 -1.0598 -0.0084
 4767TIP3   OH214306   5.160   2.926   0.244  0.1702 -0.1530 -0.6974
 4767TIP3    H114307   5.191   2.916   0.154  0.9030  0.1821 -0.4898
 4767TIP3    H214308   5.155   3.021   0.257  1.2284 -0.1782 -0.0051
 4768TIP3   OH214309   3.940   4.317   1.442 -0.0769 -0.2852 -0.1610
 4768TIP3    H114310   3.974   4.288   1.357  0.4392 -3.5778  1.0259
 4768TIP3    H214311   3.845   4.323   1.429  0.1212  0.6545 -1.3104
 4769TIP3   OH214312   0.557   4.794   4.585  0.0903 -0.5996  0.1984
 4769TIP3    H114313   0.570   4.766   4.495 -0.9016  2.9830 -1.2255
 4769TIP3    H214314   0.627   4.856   4.602  1.3019 -2.4259  2.6440
 4770TIP3   OH214315   2.049   0.741   1.950  0.4527  0.0510  0.0183
 4770TIP3    H114316   1.980   0.689   1.910  0.9251  0.0999 -0.8907
 4770TIP3    H214317   2.094   0.782   1.876 -0.0647  1.9583  0.7184
 4771TIP3   OH214318   5.571   5.959   1.383 -0.1778 -0.6881  0.2471
 4771TIP3    H114319   5.560   6.019   1.457  2.7147 -0.7723  0.8739
 4771TIP3    H214320   5.591   5.875   1.423  1.7805 -0.6598 -0.5499
 4772TIP3   OH214321   3.142   4.043   3.370  0.4174 -0.1895  0.1466
 4772TIP3    H114322   3.142   4.016   3.278 -0.9212  2.0316 -0.5735
 4772TIP3    H214323   3.145   3.960   3.419 -0.9445 -1.5365 -1.8887
 4773TIP3   OH214324   4.107   4.713   3.205  0.4795 -0.6290  0.1257
 4773TIP3    H114325   4.065   4.774   3.143 -0.3100 -0.9549  0.3248
 4773TIP3    H214326   4.140   4.642   3.150 -0.3658 -1.0007  0.0791
 4774TIP3   OH214327   4.586   0.263   4.449 -0.2511  0.0043 -0.0463
 4774TIP3    H114328   4.658   0.308   4.404 -0.4026 -0.5823 -0.8843
 4774TIP3    H214329   4.522   0.332   4.466  0.2959  0.4428  0.2918
 4775TIP3   OH214330   4.360   5.974   4.592 -0.2155  0.0697 -0.3588
 4775TIP3    H114331   4.366   5.917   4.515  0.0242 -0.0006 -0.2875
 4775TIP3    H214332   4.321   5.919   4.660  0.4216 -0.1401 -0.1607
 4776TIP3   OH214333   0.250   5.987   2.902  0.2182 -0.3857 -0.1746
 4776TIP3    H114334   0.206   6.021   2.823  0.8548  0.8379 -0.0222
 4776TIP3    H214335   0.180   5.941   2.949 -0.4768 -0.0311 -0.8220
 4777TIP3   OH214336   4.952   0.071   3.929 -0.0577 -0.1522  0.0072
 4777TIP3    H114337   4.987   0.011   3.995 -0.0873 -1.9352 -1.5202
 4777TIP3    H214338   5.023   0.133   3.913  0.5104 -0.6289  0.6051
 4778TIP3   OH214339   5.074   1.798   0.632 -0.0312 -0.0990 -0.0723
 4778TIP3    H114340   5.135   1.732   0.666  1.0002  0.9185  0.1264
 4778TIP3    H214341   5.086   1.874   0.690 -0.6635  0.5164 -0.7273
 4779TIP3   OH214342   5.788   2.582   4.633  0.1412  0.0315 -0.2781
 4779TIP3    H114343   5.791   2.509   4.695  0.0336 -0.6739 -1.0852
 4779TIP3    H214344   5.877   2.587   4.598  0.4610  1.0496  0.6041
 4780TIP3   OH214345   1.597   2.865   4.687  0.3626  0.5853  1.1664
 4780TIP3    H114346   1.687   2.868   4.657 -0.4444 -0.8685 -1.8269
 4780TIP3    H214347   1.553   2.935   4.639 -0.6458 -0.6383  0.2315
 4781TIP3   OH214348   0.728   4.995   0.181  0.5841  0.3955  0.1211
 4781TIP3    H114349   0.801   4.955   0.228 -0.1770 -0.2475  0.7995
 4781TIP3    H214350   0.674   5.033   0.250 -0.2358 -0.0231 -0.2747
 4782TIP3   OH214351   0.346   2.505   3.932  0.2504 -0.2652 -0.4444
 4782TIP3    H114352   0.297   2.425   3.912 -0.0359 -0.2104  0.0288
 4782TIP3    H214353   0.311   2.571   3.872 -0.7917 -0.0298  0.4032
 4783TIP3   OH214354   3.143   0.750   2.993  0.3300 -0.0659 -0.1711
 4783TIP3    H114355   3.153   0.816   3.061  1.2024  0.1860 -0.5288
 4783TIP3    H214356   3.088   0.682   3.032 -0.4598  0.7980  0.2511
 4784TIP3   OH214357   2.925   4.649   1.497  0.5087  0.1756 -0.0498
 4784TIP3    H114358   3.000   4.690   1.540 -0.4685 -0.0401  1.9868
 4784TIP3    H214359   2.957   4.624   1.411  2.9952 -0.5634  1.0105
 4785TIP3   OH214360   4.115   3.080   1.509  0.2682 -0.3390  0.3979
 4785TIP3    H114361   4.177   3.007   1.512  0.9115  0.1664 -0.2977
 4785TIP3    H214362   4.158   3.150   1.557  0.9894  0.5523 -1.4539
 4786TIP3   OH214363   5.288   0.150   2.438 -0.1353  0.5039  0.5032
 4786TIP3    H114364   5.383   0.162   2.444 -0.0320 -0.6216  1.3320
 4786TIP3    H214365   5.275   0.104   2.355 -0.0063  0.9657  0.2169
 4787TIP3   OH214366   2.451   5.977   3.085 -0.2674  0.4503  0.0611
 4787TIP3    H114367   2.501   6.003   3.162 -0.0023  2.4218 -0.7169
 4787TIP3    H214368   2.412   5.892   3.109  0.5036  0.5909  2.0074
 4788TIP3   OH214369   5.470   4.452   1.760  0.2317 -0.0617  0.3127
 4788TIP3    H114370   5.506   4.364   1.744 -0.5072 -0.1632 -0.9068
 4788TIP3    H214371   5.408   4.465   1.689  0.0348  1.3005  0.7200
 4789TIP3   OH214372   5.657   1.895   3.365  0.2124 -0.4142 -0.6091
 4789TIP3    H114373   5.672   1.987   3.387 -0.6546 -0.4978  0.3911
 4789TIP3    H214374   5.743   1.855   3.374  1.0900  0.6640 -3.1605
 4790TIP3   OH214375   0.537   5.766   1.623 -0.2217  0.3787 -0.1419
 4790TIP3    H114376   0.461   5.803   1.668 -0.0569  1.4145 -0.6808
 4790TIP3    H214377   0.585   5.719   1.692 -0.4559  1.1558  0.5770
 4791TIP3   OH214378   6.290   4.219   1.685 -0.3921 -0.0263  0.4094
 4791TIP3    H114379   6.271   4.276   1.759 -0.9970 -0.2234  0.4104
 4791TIP3    H214380   6.342   4.273   1.625  0.6600 -0.0621  1.2549
 4792TIP3   OH214381   2.134   2.180   4.917 -0.1518 -0.3053 -0.3029
 4792TIP3    H114382   2.167   2.213   4.833  1.5948  1.2790  0.9180
 4792TIP3    H214383   2.170   2.241   4.982 -1.8657 -1.1864  1.5667
 4793TIP3   OH214384   3.810   1.002   0.923  0.1495 -0.4776  0.6368
 4793TIP3    H114385   3.731   1.027   0.971  0.9810  1.2516  1.2021
 4793TIP3    H214386   3.873   0.978   0.991  1.1413  1.3898  0.4428
 4794TIP3   OH214387   5.925   0.778   1.564 -0.6840 -0.2499  0.1820
 4794TIP3    H114388   5.923   0.870   1.539 -1.3925 -0.6965 -1.5336
 4794TIP3    H214389   5.963   0.778   1.652  0.6024  1.5498 -0.3138
 4795TIP3   OH214390   5.126   3.121   3.478 -0.1867  0.0766  0.0905
 4795TIP3    H114391   5.142   3.166   3.395  0.6387  1.3937  0.9274
 4795TIP3    H214392   5.128   3.028   3.455 -2.0677  0.4139 -1.7167
 4796TIP3   OH214393   2.262   3.123   0.559 -0.1179  0.2203  0.8693
 4796TIP3    H114394   2.230   3.132   0.649 -3.8944  0.6800 -0.3032
 4796TIP3    H214395   2.245   3.032   0.536  1.2552 -0.0171  0.7162
 4797TIP3   OH214396   1.410   0.226   0.379 -0.2008  0.0090  0.4217
 4797TIP3    H114397   1.505   0.220   0.389  0.0084  0.7720 -0.9254
 4797TIP3    H214398   1.391   0.320   0.381 -1.0561 -0.1630  1.6136
 4798TIP3   OH214399   5.685   2.146   0.434  0.3508 -0.3718 -0.4026
 4798TIP3    H114400   5.680   2.176   0.343  0.4278 -0.5463 -0.4639
 4798TIP3    H214401   5.753   2.079   0.434 -0.5158 -1.2687 -0.4712
 4799TIP3   OH214402   2.225   2.128   3.637  0.2873  0.1089 -0.0027
 4799TIP3    H114403   2.166   2.185   3.589  0.5458  0.5025  0.1421
 4799TIP3    H214404   2.246   2.176   3.717 -0.2411 -0.5954  0.5721
 4800TIP3   OH214405   1.294   4.305   3.077  0.0937 -0.2892  0.0021
 4800TIP3    H114406   1.307   4.383   3.022 -0.8903 -0.5180 -0.5834
 4800TIP3    H214407   1.350   4.238   3.037 -0.5208 -0.4181 -0.6740
 4801TIP3   OH214408   5.315   0.494   4.983 -0.2585  0.3461  0.0052
 4801TIP3    H114409   5.356   0.549   5.050  0.4573 -0.9847  0.7121
 4801TIP3    H214410   5.389   0.463   4.930 -0.4100 -1.2857  0.6814
 4802TIP3   OH214411   5.567   1.460   0.134  0.6394  0.4338 -0.5914
 4802TIP3    H114412   5.609   1.489   0.215 -1.6746  1.3017  0.3798
 4802TIP3    H214413   5.637   1.460   0.069  2.0185  2.2376  0.8067
 4803TIP3   OH214414   4.973   5.200   3.817  0.1737  0.1010 -0.4036
 4803TIP3    H114415   4.931   5.177   3.900  1.8050 -0.8019  0.2044
 4803TIP3    H214416   5.064   5.216   3.840  0.5544  0.3247 -1.9664
 4804TIP3   OH214417   4.575   3.663   2.038 -0.2583  0.0238 -0.4215
 4804TIP3    H114418   4.652   3.609   2.054  1.3441  2.1143 -0.6619
 4804TIP3    H214419   4.590   3.703   1.953 -1.9850 -0.0459 -0.8038
 4805TIP3   OH214420   3.082   1.742   1.972 -0.6555  0.4183  0.5739
 4805TIP3    H114421   3.142   1.794   2.026  0.5564  0.0944 -0.4070
 4805TIP3    H214422   3.086   1.655   2.010  0.2038  0.1884 -0.0109
 4806TIP3   OH214423   0.257   4.484   3.217  0.2960 -0.7001  0.3390
 4806TIP3    H114424   0.199   4.558   3.202  0.0762 -0.6530  1.3438
 4806TIP3    H214425   0.199   4.411   3.239  0.6007 -0.4436  2.2133
 4807TIP3   OH214426   2.563   1.197   2.620 -0.5087 -0.1524 -0.2187
 4807TIP3    H114427   2.509   1.215   2.542  0.4397 -2.1166 -1.4252
 4807TIP3    H214428   2.653   1.199   2.588  0.0906  1.3918  1.4073
 4808TIP3   OH214429   0.064   2.855   4.926 -0.2732 -0.3676  0.1293
 4808TIP3    H114430   0.085   2.948   4.925  1.4106 -0.7256 -0.2297
 4808TIP3    H214431  -0.004   2.847   4.993 -2.0513  1.4171 -1.3394
 4809TIP3   OH214432   1.620   1.943   4.797 -0.2902  0.2927 -0.5768
 4809TIP3    H114433   1.698   1.889   4.799 -0.4048  0.1275  1.0015
 4809TIP3    H214434   1.645   2.021   4.747  1.2133  0.6804  0.6968
 4810TIP3   OH214435   6.324   1.456   4.317 -0.7086 -0.1349  0.4047
 4810TIP3    H114436   6.349   1.468   4.408 -1.1318 -1.4067  0.7052
 4810TIP3    H214437   6.242   1.505   4.308 -0.9507 -0.4498  0.8544
 4811TIP3   OH214438   4.517   1.186   5.177 -0.2701  0.3868  0.2980
 4811TIP3    H114439   4.602   1.181   5.134 -1.4836 -0.5687 -2.1950
 4811TIP3    H214440   4.487   1.095   5.180 -0.8971  0.6053  1.9200
 4812TIP3   OH214441   1.578   1.807   2.636 -0.7006  0.4210 -0.2921
 4812TIP3    H114442   1.516   1.874   2.607 -0.7445  0.1895 -0.7440
 4812TIP3    H214443   1.617   1.775   2.555  0.1689  0.7207 -0.0021
 4813TIP3   OH214444   1.374   3.425   3.566  0.1240 -0.5404 -0.2801
 4813TIP3    H114445   1.390   3.381   3.650  0.4666 -2.7019 -1.4101
 4813TIP3    H214446   1.336   3.509   3.591  1.2455 -0.6378  2.0754
 4814TIP3   OH214447   0.575   0.462   1.253  0.5276 -0.6255  0.3814
 4814TIP3    H114448   0.547   0.553   1.257 -3.4220 -1.6325 -0.7361
 4814TIP3    H214449   0.614   0.453   1.165 -0.4800 -0.3207 -0.1122
 4815TIP3   OH214450   2.964   1.580   5.076 -0.8613 -0.3803 -0.2892
 4815TIP3    H114451   3.028   1.630   5.127 -3.0016  0.1873  2.0525
 4815TIP3    H214452   2.914   1.646   5.029 -1.2947 -0.6066 -0.1517
 4816TIP3   OH214453   2.594   1.735   4.699  0.1118 -0.3493 -1.0666
 4816TIP3    H114454   2.502   1.709   4.689  0.4973 -1.9530 -0.7781
 4816TIP3    H214455   2.632   1.666   4.754  0.9908  1.4394  0.6987
 4817TIP3   OH214456   5.934   1.093   1.882 -0.3848  0.1943  0.7707
 4817TIP3    H114457   5.877   1.018   1.894  1.8876 -1.9616 -0.7212
 4817TIP3    H214458   5.896   1.162   1.935 -4.3733 -0.9893 -0.2509
 4818TIP3   OH214459   0.134   3.896   2.609 -0.1235  0.3912  0.2053
 4818TIP3    H114460   0.099   3.935   2.528 -0.4699 -1.7524 -0.7429
 4818TIP3    H214461   0.059   3.850   2.647  0.9920 -2.1614 -0.5176
 4819TIP3   OH214462   4.056   1.156   4.869 -0.0451  0.3645 -0.2800
 4819TIP3    H114463   4.053   1.228   4.932 -0.8818  0.6145 -0.5963
 4819TIP3    H214464   4.143   1.117   4.882  0.8896  2.1297 -0.8879
 4820TIP3   OH214465   0.406   3.945   1.580  0.0645 -0.0540 -0.0763
 4820TIP3    H114466   0.477   3.942   1.644 -0.8979  2.3126  1.2232
 4820TIP3    H214467   0.326   3.952   1.633 -0.8482  0.9051 -1.4969
 4821TIP3   OH214468   2.908   2.661   1.539  0.1178 -0.1380 -0.0356
 4821TIP3    H114469   2.956   2.615   1.608 -0.0695 -1.0531 -0.4984
 4821TIP3    H214470   2.838   2.601   1.514 -0.4034  0.5865 -0.3621
 4822TIP3   OH214471   0.936   3.663   1.805  0.0313  0.0877 -0.2773
 4822TIP3    H114472   0.875   3.623   1.866  1.1108 -1.5055 -0.1952
 4822TIP3    H214473   0.882   3.687   1.729 -0.6408 -1.8307 -0.4641
 4823TIP3   OH214474   5.909   4.781   2.036 -0.2828 -0.3220  0.1109
 4823TIP3    H114475   5.827   4.811   2.075 -1.3094 -0.6217 -1.6856
 4823TIP3    H214476   5.976   4.838   2.074 -1.4681  0.6716  0.7976
 4824TIP3   OH214477   3.199   1.615   0.751 -0.2667 -0.7280  0.0786
 4824TIP3    H114478   3.266   1.672   0.714 -0.7071 -0.5685 -0.4916
 4824TIP3    H214479   3.229   1.527   0.730  0.2717 -0.7053  0.7133
 4825TIP3   OH214480   5.344   2.352   0.592  0.2551  1.0080 -0.2245
 4825TIP3    H114481   5.379   2.283   0.649 -0.1699  1.0670  0.1163
 4825TIP3    H214482   5.255   2.367   0.626  0.1387  1.3119 -0.6659
 4826TIP3   OH214483   6.082   0.978   3.319 -0.2913  0.2294  0.2798
 4826TIP3    H114484   6.069   1.053   3.261  2.3424  0.8746  0.4293
 4826TIP3    H214485   6.041   1.005   3.402 -0.0096  1.2049  0.1146
 4827TIP3   OH214486   2.086   4.566   4.209  0.1964  0.0668 -0.2656
 4827TIP3    H114487   2.159   4.622   4.235  0.5425 -0.5048  0.0281
 4827TIP3    H214488   2.030   4.622   4.155  1.0760  0.3923 -0.8621
 4828TIP3   OH214489   4.771   1.586   2.962  0.5165 -0.3763  0.1785
 4828TIP3    H114490   4.865   1.569   2.974  0.8101 -1.4960 -2.8824
 4828TIP3    H214491   4.750   1.546   2.878 -2.6112  0.4033  0.4772
 4829TIP3   OH214492   4.141   0.571   1.832  0.1034 -0.5828 -0.1142
 4829TIP3    H114493   4.112   0.529   1.913  0.1993  0.2075  0.3419
 4829TIP3    H214494   4.235   0.581   1.842  0.0777 -0.2362 -0.2006
 4830TIP3   OH214495   1.201   1.216   3.540 -1.0469 -0.2198  0.2767
 4830TIP3    H114496   1.230   1.173   3.459 -3.3532 -0.8732 -0.2767
 4830TIP3    H214497   1.282   1.246   3.581  0.3613 -1.6926 -1.2434
 4831TIP3   OH214498   0.972   0.494   4.676 -0.2093 -0.3729  0.2539
 4831TIP3    H114499   1.024   0.554   4.730 -1.1339  0.4056  0.2981
 4831TIP3    H214500   0.906   0.460   4.736 -0.6647 -0.2207 -0.1568
 4832TIP3   OH214501   3.051   2.382   0.977  0.8764 -0.0883  0.1268
 4832TIP3    H114502   3.037   2.476   0.982  1.7354  0.0502 -0.0213
 4832TIP3    H214503   3.146   2.371   0.985  0.9480 -0.8330 -1.4054
 4833TIP3   OH214504   0.202   2.355   3.067  1.1410 -0.5673 -0.6799
 4833TIP3    H114505   0.148   2.433   3.052 -2.0452 -2.8322 -2.0233
 4833TIP3    H214506   0.216   2.318   2.980  3.6698 -0.9095 -0.1882
 4834TIP3   OH214507   1.481   3.651   4.944  0.1462 -0.2413  0.2776
 4834TIP3    H114508   1.527   3.725   4.904  1.0029 -0.1532  1.3554
 4834TIP3    H214509   1.498   3.661   5.038 -0.8684 -1.0465  0.5643
 4835TIP3   OH214510   2.327   5.006   2.611 -0.6866 -0.0175 -0.4094
 4835TIP3    H114511   2.304   5.097   2.630 -0.5322 -0.2364  0.8639
 4835TIP3    H214512   2.305   4.958   2.690  0.7411 -0.8351 -0.4745
 4836TIP3   OH214513   3.607   0.383   4.826  0.0152 -0.3784  0.3869
 4836TIP3    H114514   3.697   0.411   4.813  0.3034 -0.9607  1.0958
 4836TIP3    H214515   3.614   0.295   4.863 -0.8117  0.0132  1.5253
 4837TIP3   OH214516   4.027   1.318   5.064  0.2105 -0.1522 -0.8468
 4837TIP3    H114517   3.941   1.342   5.099  0.4777 -0.2315 -0.1206
 4837TIP3    H214518   4.085   1.387   5.097  0.5848 -0.5895 -0.5905
 4838TIP3   OH214519   4.175   3.624   2.936 -0.4777  0.0337 -0.3296
 4838TIP3    H114520   4.122   3.544   2.937 -1.1518  0.4837  0.7043
 4838TIP3    H214521   4.254   3.602   2.985 -0.9793  0.1979  0.5727
 4839TIP3   OH214522   1.499   2.038   4.375  0.0287 -0.5016  0.3972
 4839TIP3    H114523   1.426   2.067   4.430 -1.2026 -1.8896 -0.4350
 4839TIP3    H214524   1.541   1.969   4.425  0.2010 -0.3470  0.4692
 4840TIP3   OH214525   6.161   3.768   3.252 -0.2371  0.0497 -0.1389
 4840TIP3    H114526   6.080   3.801   3.291 -0.9930 -0.7428 -0.9772
 4840TIP3    H214527   6.231   3.816   3.296 -1.1582  0.6524  0.6971
 4841TIP3   OH214528   3.515   2.549   2.455 -0.1676 -0.0127  0.1158
 4841TIP3    H114529   3.540   2.587   2.371  1.3009 -0.0767  0.5037
 4841TIP3    H214530   3.545   2.612   2.520 -0.2545 -0.5142  0.6485
 4842TIP3   OH214531   5.205   1.038   2.580 -0.0610 -0.4377  0.3499
 4842TIP3    H114532   5.140   1.032   2.511 -0.1652 -1.1014  0.5027
 4842TIP3    H214533   5.223   0.947   2.605  0.8327 -0.2571  0.3924
 4843TIP3   OH214534   3.823   3.700   4.780  0.0813 -0.1915  0.0963
 4843TIP3    H114535   3.813   3.750   4.699 -0.3424  0.0500  0.2986
 4843TIP3    H214536   3.888   3.749   4.830 -0.7361  0.4796  0.5352
 4844TIP3   OH214537   6.074   1.334   1.228  0.3342 -0.5048 -0.2928
 4844TIP3    H114538   6.130   1.261   1.253  0.4951  0.0625  1.1323
 4844TIP3    H214539   6.132   1.409   1.224 -0.0161 -0.2469 -0.6558
 4845TIP3   OH214540   0.418   3.692   2.810 -0.0575  0.0149  0.3581
 4845TIP3    H114541   0.366   3.615   2.834  0.4494  0.2962  2.6192
 4845TIP3    H214542   0.481   3.701   2.882  1.6559  0.9934 -1.1826
 4846TIP3   OH214543   4.865   2.281   1.959 -0.2513  0.0857  0.1968
 4846TIP3    H114544   4.855   2.257   2.051 -2.2015 -1.1866 -0.2821
 4846TIP3    H214545   4.843   2.201   1.911  1.3002  0.5558 -1.3979
 4847TIP3   OH214546   6.179   1.024   1.988 -0.3884  0.0320  0.0819
 4847TIP3    H114547   6.166   0.934   1.959 -0.9918  0.0686  0.2070
 4847TIP3    H214548   6.098   1.069   1.962 -0.6038  0.2472  1.0776
 4848TIP3   OH214549   0.958   5.847   0.636  0.0115 -0.5157  0.1315
 4848TIP3    H114550   1.028   5.853   0.700 -0.7127 -1.3479  1.0168
 4848TIP3    H214551   0.888   5.903   0.671  0.9650  2.1393 -1.8181
 4849TIP3   OH214552   0.983   2.314   3.693 -0.0044 -0.0011 -0.0274
 4849TIP3    H114553   1.040   2.378   3.652 -1.2882  0.9296 -0.4113
 4849TIP3    H214554   0.929   2.280   3.622  0.0597 -0.8791  0.3242
 4850TIP3   OH214555   4.156   4.652   3.969 -0.1748 -0.3921 -0.0383
 4850TIP3    H114556   4.167   4.678   3.877 -1.9573  0.8783  0.0549
 4850TIP3    H214557   4.146   4.735   4.016 -1.0725 -1.0896  1.0334
 4851TIP3   OH214558   3.293   5.537   0.367 -0.1804  0.3584 -1.0322
 4851TIP3    H114559   3.280   5.517   0.274  0.5271 -4.1915 -0.3832
 4851TIP3    H214560   3.205   5.532   0.405 -0.4554  2.1145 -1.3552
 4852TIP3   OH214561   3.584   4.839   4.576  0.0066 -0.7325 -0.4011
 4852TIP3    H114562   3.596   4.759   4.628  0.5434 -0.9484 -0.8439
 4852TIP3    H214563   3.637   4.905   4.621 -1.4205 -0.2760  0.6814
 4853TIP3   OH214564   5.489   1.928   2.080  0.0121  0.5196 -0.0554
 4853TIP3    H114565   5.451   1.843   2.102 -0.0512  0.4285 -0.5146
 4853TIP3    H214566   5.543   1.911   2.003  1.1108  0.6162  0.6596
 4854TIP3   OH214567   2.477   4.006   1.960 -0.5753  0.0009 -0.0243
 4854TIP3    H114568   2.553   3.952   1.981 -1.2378 -0.3081  1.8577
 4854TIP3    H214569   2.510   4.073   1.901  0.7280 -1.2102 -0.7218
 4855TIP3   OH214570   4.006   3.852   2.974 -0.0959  0.1835  0.8480
 4855TIP3    H114571   4.085   3.798   2.964 -0.9832 -0.7670 -1.9668
 4855TIP3    H214572   4.014   3.920   2.907 -0.6886  1.4151  1.9755
 4856TIP3   OH214573   1.893   4.595   2.126 -0.1245  0.8168 -0.2345
 4856TIP3    H114574   1.988   4.586   2.126 -0.0578  1.2951 -1.2397
 4856TIP3    H214575   1.862   4.518   2.077 -0.3872 -0.1921  1.4385
 4857TIP3   OH214576   1.706   4.979   3.634 -0.2231  0.0206  0.5093
 4857TIP3    H114577   1.697   4.971   3.539 -1.4613 -2.9685  0.7726
 4857TIP3    H214578   1.658   5.059   3.655  0.9986  1.3491 -1.4361
 4858TIP3   OH214579   2.557   2.581   0.423 -0.3627  0.5952  0.0490
 4858TIP3    H114580   2.517   2.638   0.358 -0.0114  2.6561  1.5500
 4858TIP3    H214581   2.650   2.604   0.423 -0.4172  0.9587  1.5232
 4859TIP3   OH214582   0.774   2.465   3.356 -0.1699 -0.1041  0.0634
 4859TIP3    H114583   0.759   2.558   3.373 -0.2707  0.1749 -1.4354
 4859TIP3    H214584   0.868   2.458   3.340 -0.3470 -0.0227 -1.0921
 4860TIP3   OH214585   1.997   5.657   4.880 -0.0025  0.2751 -0.0913
 4860TIP3    H114586   2.059   5.707   4.932  1.7660 -4.9807  3.7809
 4860TIP3    H214587   1.918   5.653   4.934 -0.7000  0.2238 -1.0949
 4861TIP3   OH214588   4.546   1.076   1.622  0.0131  0.1685  0.0382
 4861TIP3    H114589   4.591   0.996   1.597 -0.0246  0.5243 -1.2646
 4861TIP3    H214590   4.457   1.048   1.645  0.0742 -0.1934 -0.1670
 4862TIP3   OH214591   6.201   3.636   0.870 -0.3659 -0.2810 -0.4182
 4862TIP3    H114592   6.244   3.626   0.785 -1.2747 -1.0003 -0.8183
 4862TIP3    H214593   6.197   3.547   0.905  0.7316  0.1124  0.7671
 4863TIP3   OH214594   4.437   3.701   1.136 -0.3070  0.0745  0.2878
 4863TIP3    H114595   4.510   3.701   1.198  1.6202  2.8095 -1.7187
 4863TIP3    H214596   4.366   3.747   1.181  0.4323  0.4510  1.0804
 4864TIP3   OH214597   0.370   2.176   0.924  0.0802 -0.4306  0.3869
 4864TIP3    H114598   0.352   2.258   0.971 -0.5918 -1.1305  1.3931
 4864TIP3    H214599   0.284   2.134   0.914  0.3669 -0.8410 -0.4570
 4865TIP3   OH214600   6.106   3.008   3.536 -0.0234 -0.3668  0.6940
 4865TIP3    H114601   6.131   3.092   3.496  0.9263 -0.1300  1.7549
 4865TIP3    H214602   6.010   3.012   3.540 -0.0113  0.5406  0.4573
 4866TIP3   OH214603   1.177   3.781   2.513 -0.7868  0.4359  0.0461
 4866TIP3    H114604   1.179   3.876   2.513  0.3309  0.4461 -1.0769
 4866TIP3    H214605   1.252   3.755   2.458 -1.8274 -1.0429 -0.7731
 4867TIP3   OH214606   2.735   0.340   4.041 -0.0604 -0.0516  0.5330
 4867TIP3    H114607   2.749   0.401   3.969  1.3964  0.4414  1.2010
 4867TIP3    H214608   2.757   0.254   4.005  2.8046  0.4237  0.8889
 4868TIP3   OH214609   1.161   4.641   5.180 -0.0056 -0.3310 -0.5409
 4868TIP3    H114610   1.221   4.599   5.242  0.9175 -0.7776 -1.7095
 4868TIP3    H214611   1.197   4.620   5.094 -1.1312  0.4862 -1.2295
 4869TIP3   OH214612   5.051   2.416   5.073  0.1623  0.8163 -0.4360
 4869TIP3    H114613   5.125   2.472   5.050 -0.5248  1.5568 -0.9176
 4869TIP3    H214614   4.994   2.473   5.126  0.5019 -0.1053  0.9655
 4870TIP3   OH214615   3.090   1.379   3.704 -0.0733  0.2186  0.4431
 4870TIP3    H114616   3.121   1.410   3.789  0.1972 -0.8603  0.7491
 4870TIP3    H214617   3.107   1.453   3.645 -2.0302  1.7444  1.6456
 4871TIP3   OH214618   5.380   3.800   0.950  0.4641 -0.0223 -0.4180
 4871TIP3    H114619   5.332   3.805   0.867  2.7320 -1.6780 -1.9423
 4871TIP3    H214620   5.397   3.891   0.973  0.5336  0.4770 -2.2433
 4872TIP3   OH214621   0.029   2.169   2.904  0.7708  0.8870  0.6673
 4872TIP3    H114622   0.104   2.127   2.947  1.3815  0.8621 -0.3846
 4872TIP3    H214623   0.036   2.143   2.813 -0.7308  0.6251  0.6130
 4873TIP3   OH214624   4.777   1.009   3.797 -0.1162  0.0030 -0.0027
 4873TIP3    H114625   4.750   0.982   3.710 -0.2765 -1.5499  0.5037
 4873TIP3    H214626   4.730   1.091   3.812 -0.6930 -0.1165 -1.0593
 4874TIP3   OH214627   4.678   4.892   3.311  0.2318  0.6386  0.1065
 4874TIP3    H114628   4.754   4.948   3.329  0.2118  0.9774 -0.8049
 4874TIP3    H214629   4.714   4.817   3.263  0.3580 -0.4836  1.8874
 4875TIP3   OH214630   6.093   2.082   0.046 -0.1046 -0.5320 -0.2858
 4875TIP3    H114631   6.154   2.024   0.001  0.9473  0.6016 -0.3843
 4875TIP3    H214632   6.147   2.129   0.110 -1.0492 -0.1284  0.2454
 4876TIP3   OH214633   3.133   0.968   4.855  0.1635 -0.2877 -0.0232
 4876TIP3    H114634   3.070   0.912   4.811 -0.0417  1.2607 -1.8517
 4876TIP3    H214635   3.216   0.953   4.809  0.1962  0.5665 -0.2700
 4877TIP3   OH214636   4.292   5.414   2.723  0.3686 -0.9770  0.2309
 4877TIP3    H114637   4.375   5.449   2.756  0.3017 -0.2375 -0.3533
 4877TIP3    H214638   4.280   5.331   2.770 -0.0385  0.3156  2.5752
 4878TIP3   OH214639   4.076   0.300   0.465 -0.0008 -0.6681 -1.0368
 4878TIP3    H114640   4.072   0.311   0.560  1.9275 -1.3760 -0.8179
 4878TIP3    H214641   4.049   0.385   0.429  1.7271  0.4975  0.2327
 4879TIP3   OH214642   5.595   0.247   4.581 -0.1947 -0.1515  0.1227
 4879TIP3    H114643   5.641   0.320   4.622 -0.1138  0.0440 -0.3133
 4879TIP3    H214644   5.653   0.172   4.594 -0.0422 -0.0335  0.1229
 4880TIP3   OH214645   4.935   3.698   1.944 -0.2313  0.1552 -0.4387
 4880TIP3    H114646   4.986   3.620   1.966 -1.3352 -1.1388 -2.1496
 4880TIP3    H214647   4.999   3.768   1.933  0.7002 -0.1862  2.2406
 4881TIP3   OH214648   3.704   2.913   5.012 -0.2305 -0.2402  0.0679
 4881TIP3    H114649   3.773   2.958   5.061 -1.6564 -0.4007  2.3786
 4881TIP3    H214650   3.669   2.980   4.953  1.1866  0.1242 -0.3998
 4882TIP3   OH214651   3.988   3.945   2.355  0.3230  0.0503 -0.5437
 4882TIP3    H114652   4.002   3.850   2.350  0.8542  0.1372 -0.7499
 4882TIP3    H214653   3.899   3.958   2.322  0.7874 -0.2265 -1.9528
 4883TIP3   OH214654   4.341   0.342   4.209  0.2182 -0.4119  0.2687
 4883TIP3    H114655   4.367   0.256   4.176  0.3418  0.1429 -1.1611
 4883TIP3    H214656   4.424   0.386   4.229  0.1947 -0.3069  0.1384
 4884TIP3   OH214657   0.138   4.225   5.150  0.2119  0.0626 -0.3066
 4884TIP3    H114658   0.053   4.187   5.128  0.9141 -2.4535  1.0696
 4884TIP3    H214659   0.177   4.246   5.065 -1.0836 -0.3393 -1.0253
 4885TIP3   OH214660   6.098   5.525   0.804  0.1669  0.4299  0.6233
 4885TIP3    H114661   6.056   5.581   0.739 -0.0302 -0.0288  0.3475
 4885TIP3    H214662   6.116   5.583   0.878  2.0956  1.3982 -0.5249
 4886TIP3   OH214663   2.551   5.947   4.181 -0.4247  0.3665 -0.6811
 4886TIP3    H114664   2.542   5.890   4.257  1.7839  1.2824  0.3713
 4886TIP3    H214665   2.543   5.889   4.106 -0.0968 -1.0041  0.3057
 4887TIP3   OH214666   0.298   2.754   0.107  0.0355  0.5472 -0.1350
 4887TIP3    H114667   0.302   2.676   0.162  4.5745 -0.2144 -1.1488
 4887TIP3    H214668   0.329   2.825   0.164 -0.0307  0.7618 -0.3661
 4888TIP3   OH214669   0.408   5.486   0.894 -0.0243  0.0018  0.5862
 4888TIP3    H114670   0.494   5.460   0.926  0.0074 -2.0140 -0.9404
 4888TIP3    H214671   0.362   5.403   0.879 -1.3299  0.9596 -0.9843
 4889TIP3   OH214672   2.483   2.171   2.740  0.1083  0.0984  0.1144
 4889TIP3    H114673   2.527   2.175   2.825 -0.8212 -0.5482  0.6438
 4889TIP3    H214674   2.400   2.218   2.754  0.8137  1.7659 -1.0167
 4890TIP3   OH214675   5.018   0.167   4.993  0.1983 -0.8132  0.5226
 4890TIP3    H114676   4.941   0.135   5.039 -0.1232  0.1636  0.6875
 4890TIP3    H214677   5.020   0.261   5.012  1.0569 -0.7088 -0.0202
 4891TIP3   OH214678   2.009   3.393   3.519  0.2277  0.2328 -0.1091
 4891TIP3    H114679   2.044   3.419   3.605  1.6700  0.2227 -0.6742
 4891TIP3    H214680   2.037   3.302   3.509 -1.4121 -0.3221  0.1317
 4892TIP3   OH214681   4.929   1.123   5.125  0.2715 -0.7605 -0.0076
 4892TIP3    H114682   4.884   1.205   5.102  1.2259 -0.3833 -0.5995
 4892TIP3    H214683   4.860   1.057   5.123 -0.0953 -0.3879 -1.9196
 4893TIP3   OH214684   5.249   2.361   4.855 -0.0080  0.0001  0.5518
 4893TIP3    H114685   5.206   2.298   4.798  1.4130  0.5288 -1.2167
 4893TIP3    H214686   5.283   2.309   4.928  1.1840 -1.3676 -0.8931
 4894TIP3   OH214687   2.068   3.760   3.241  0.2350 -0.0776  0.2876
 4894TIP3    H114688   2.092   3.853   3.247 -0.2347  0.0422  0.3072
 4894TIP3    H214689   1.986   3.759   3.193  1.1628 -0.6383 -1.3426
 4895TIP3   OH214690   0.314   1.870   4.145 -0.5738  0.0203 -0.3486
 4895TIP3    H114691   0.362   1.806   4.198  1.6815  0.9406 -1.1326
 4895TIP3    H214692   0.224   1.838   4.145  0.2090 -2.4601  0.2931
 4896TIP3   OH214693   4.284   4.010   0.348  0.3936 -0.4204  0.2949
 4896TIP3    H114694   4.341   3.998   0.272  1.5463 -1.0396  1.2313
 4896TIP3    H214695   4.343   4.030   0.420 -0.6835  0.1927  1.0443
 4897TIP3   OH214696   4.921   4.763   0.763  0.1773 -0.1413 -0.3580
 4897TIP3    H114697   4.992   4.811   0.805 -0.2956 -0.1565  0.4852
 4897TIP3    H214698   4.842   4.812   0.786 -0.0610  0.1739 -1.7078
 4898TIP3   OH214699   2.543   5.271   4.596 -0.5393  0.1170 -0.0162
 4898TIP3    H114700   2.534   5.322   4.515  1.0672  0.1174 -0.2238
 4898TIP3    H214701   2.487   5.195   4.582 -0.3596  0.1621 -1.0956
 4899TIP3   OH214702   5.946   1.281   3.000 -0.2204 -0.6131 -0.1357
 4899TIP3    H114703   6.003   1.245   2.932 -0.3314  0.4264 -0.8117
 4899TIP3    H214704   5.894   1.348   2.955 -3.1695 -2.5881  0.0619
 4900TIP3   OH214705   1.445   2.657   0.525  0.3732  0.3788 -0.2783
 4900TIP3    H114706   1.354   2.671   0.500  0.1093 -1.3254 -0.3905
 4900TIP3    H214707   1.486   2.619   0.447  0.3487 -1.8998  0.7389
 4901TIP3   OH214708   1.366   0.382   1.333  0.2867 -0.3991 -0.0237
 4901TIP3    H114709   1.293   0.327   1.360  0.6326 -1.1032 -0.4935
 4901TIP3    H214710   1.328   0.442   1.269 -0.1591  0.1319  0.7246
 4902TIP3   OH214711   5.261   0.784   2.650  0.3735  0.3822  0.6008
 4902TIP3    H114712   5.258   0.730   2.729  0.8896 -0.2664  0.1935
 4902TIP3    H214713   5.327   0.741   2.594  0.2047  0.9732 -0.0713
 4903TIP3   OH214714   3.720   4.010   0.573 -0.2670  0.0067 -0.6816
 4903TIP3    H114715   3.722   3.928   0.524 -0.7528 -0.4381  0.0100
 4903TIP3    H214716   3.811   4.036   0.581  0.0552 -1.2878  0.3839
 4904TIP3   OH214717   1.263   4.190   0.777  0.1934 -0.1713 -0.1891
 4904TIP3    H114718   1.240   4.098   0.766  0.4005 -0.0954 -1.3915
 4904TIP3    H214719   1.288   4.197   0.869 -1.4233 -0.9417  0.3567
 4905TIP3   OH214720   5.806   3.305   0.347  0.8096 -0.3535 -0.1698
 4905TIP3    H114721   5.822   3.261   0.264 -0.6390  1.3882 -1.4661
 4905TIP3    H214722   5.889   3.349   0.367  1.7247 -2.2100  0.2744
 4906TIP3   OH214723   0.429   2.707   0.831  0.0986  0.1522 -0.2899
 4906TIP3    H114724   0.444   2.699   0.925  2.0892 -1.2108 -0.6767
 4906TIP3    H214725   0.511   2.742   0.796  0.0546 -1.0604 -1.7244
 4907TIP3   OH214726   4.626   3.405   3.361  0.6176  0.2149 -0.0215
 4907TIP3    H114727   4.676   3.486   3.347 -0.0386  0.6158 -0.1108
 4907TIP3    H214728   4.681   3.353   3.419  0.6851  1.0773  0.7179
 4908TIP3   OH214729   2.717   2.872   4.247  0.2037 -0.3324  0.6189
 4908TIP3    H114730   2.736   2.947   4.192 -0.6836 -1.5610 -1.4784
 4908TIP3    H214731   2.756   2.894   4.332 -0.2316  2.5589  0.1751
 4909TIP3   OH214732   0.870   1.433   3.281 -0.1629  0.2244 -0.1509
 4909TIP3    H114733   0.898   1.344   3.303  0.1909 -0.2688 -2.3834
 4909TIP3    H214734   0.937   1.466   3.221 -0.9593  1.5188 -0.3831
 4910TIP3   OH214735   5.589   0.635   1.749 -0.2711 -0.3777  0.8229
 4910TIP3    H114736   5.592   0.728   1.727  0.4908 -0.7347 -0.6993
 4910TIP3    H214737   5.646   0.593   1.684 -1.2490 -2.0069  0.9704
 4911TIP3   OH214738   0.339   3.087   2.072  0.0226 -0.1992 -0.1804
 4911TIP3    H114739   0.364   3.051   1.987  0.2901  1.6691 -0.9412
 4911TIP3    H214740   0.372   3.177   2.071 -0.1407 -0.0643  1.8303
 4912TIP3   OH214741   0.354   3.693   0.518  0.7929  0.3361 -0.0214
 4912TIP3    H114742   0.268   3.733   0.525  0.6165  0.2660 -1.4605
 4912TIP3    H214743   0.340   3.602   0.544  0.7686  0.6737  1.2228
 4913TIP3   OH214744   4.043   4.283   1.171 -0.0710 -0.2974  0.3971
 4913TIP3    H114745   3.965   4.267   1.118  1.1126  1.6118 -2.1407
 4913TIP3    H214746   4.103   4.212   1.149 -0.6597 -1.2095  1.5983
 4914TIP3   OH214747   2.247   0.946   1.239  0.3105 -0.4951  0.3523
 4914TIP3    H114748   2.333   0.982   1.259 -0.0673  1.1510 -0.7149
 4914TIP3    H214749   2.263   0.880   1.172  0.6920  0.5274 -0.6048
 4915TIP3   OH214750   1.319   2.099   1.326 -0.4024 -0.2865  0.3879
 4915TIP3    H114751   1.390   2.035   1.328  1.4097  1.6278  1.5874
 4915TIP3    H214752   1.332   2.148   1.245 -0.7823 -0.3370  0.2901
 4916TIP3   OH214753   5.962   5.198   1.042  0.0762 -0.5224 -0.0288
 4916TIP3    H114754   5.940   5.253   1.117  1.6989  0.8934 -0.5062
 4916TIP3    H214755   6.017   5.129   1.079 -0.3003 -0.6614  0.2819
 4917TIP3   OH214756   2.540   3.738   3.684 -0.1012  0.2017  0.0415
 4917TIP3    H114757   2.590   3.662   3.653  0.2388  0.0780  0.8644
 4917TIP3    H214758   2.452   3.725   3.651  0.4636  0.6036 -1.7627
 4918TIP3   OH214759   0.911   4.755   2.930 -0.4432  0.5072 -0.0162
 4918TIP3    H114760   0.891   4.845   2.956 -3.9035  0.0523 -0.6775
 4918TIP3    H214761   0.894   4.703   3.009  1.9830  0.3567  0.5019
 4919TIP3   OH214762   1.473   5.929   2.141  0.4038 -0.1157  0.3905
 4919TIP3    H114763   1.452   5.874   2.217  0.9096 -0.8399  0.0175
 4919TIP3    H214764   1.505   6.011   2.179  1.7213 -0.8678  0.9900
 4920TIP3   OH214765   4.012   4.908   2.719  0.5495  0.0751 -0.2738
 4920TIP3    H114766   3.947   4.977   2.702  0.4063 -0.0725 -0.3267
 4920TIP3    H214767   4.014   4.857   2.639 -0.1124 -0.6130  0.1343
 4921TIP3   OH214768   6.113   3.020   3.165  0.8410 -0.1574  0.3371
 4921TIP3    H114769   6.114   3.076   3.243  1.0020 -1.1985  1.1121
 4921TIP3    H214770   6.052   3.063   3.106 -0.7321 -0.3022  1.7839
 4922TIP3   OH214771   1.572   0.709   4.659 -0.2848 -0.1717  0.1008
 4922TIP3    H114772   1.647   0.730   4.604  0.7789 -2.4661  0.5444
 4922TIP3    H214773   1.592   0.746   4.744  0.6031 -1.1355  0.3359
 4923TIP3   OH214774   5.785   5.259   1.602 -0.0471  0.6380  0.2837
 4923TIP3    H114775   5.718   5.199   1.570  0.8673  0.4934 -1.4356
 4923TIP3    H214776   5.784   5.332   1.540  0.6361  1.1783  0.8862
 4924TIP3   OH214777   5.742   4.787   4.442  0.4237 -0.0068  0.2164
 4924TIP3    H114778   5.758   4.835   4.361 -0.0743 -0.6501 -0.2809
 4924TIP3    H214779   5.812   4.722   4.446  0.8035  0.4243  0.6244
 4925TIP3   OH214780   1.323   1.300   2.436  0.4890  0.8721  0.4581
 4925TIP3    H114781   1.326   1.270   2.527 -2.5725 -4.0304 -0.6924
 4925TIP3    H214782   1.244   1.354   2.432  1.1586  1.9158  0.7970
 4926TIP3   OH214783   4.888   1.901   2.427 -0.7147  0.1257  0.9035
 4926TIP3    H114784   4.883   1.808   2.448 -1.0331 -0.8184 -2.8217
 4926TIP3    H214785   4.975   1.912   2.390 -1.8155  0.5004 -1.7506
 4927TIP3   OH214786   5.756   1.096   2.479 -0.0812 -0.4105 -0.2311
 4927TIP3    H114787   5.728   1.085   2.570  1.5209 -0.5133  0.2884
 4927TIP3    H214788   5.848   1.123   2.486  0.0765 -0.4528 -1.8276
 4928TIP3   OH214789   0.205   2.453   0.427 -0.0446  0.3573 -0.4116
 4928TIP3    H114790   0.121   2.477   0.466 -0.2543 -2.7543  1.3534
 4928TIP3    H214791   0.270   2.501   0.480 -0.6149  2.1615 -1.2842
 4929TIP3   OH214792   5.518   1.237   2.727 -0.0571 -0.4592 -0.3238
 4929TIP3    H114793   5.571   1.161   2.706  0.1828 -0.7500  1.1956
 4929TIP3    H214794   5.488   1.221   2.817 -2.0960  0.0423 -0.8558
 4930TIP3   OH214795   2.633   2.834   3.553 -0.0371 -0.6678  0.3470
 4930TIP3    H114796   2.554   2.788   3.581  0.1904  0.1602  2.5655
 4930TIP3    H214797   2.624   2.921   3.591  0.8115  0.2682 -1.4740
 4931TIP3   OH214798   0.103   0.420   0.426  0.6441 -0.0064  0.8533
 4931TIP3    H114799   0.157   0.376   0.360 -0.4016  1.3003 -0.9660
 4931TIP3    H214800   0.159   0.491   0.458 -0.1175  1.9155 -1.6816
 4932TIP3   OH214801   6.012   0.963   1.034 -0.2496  0.1703  0.0184
 4932TIP3    H114802   6.074   0.890   1.039 -0.4096 -0.0924 -1.4586
 4932TIP3    H214803   5.926   0.922   1.039 -0.3259  0.3604  0.2551
 4933TIP3   OH214804   0.441   1.573   1.001 -0.4458  0.5764  0.0028
 4933TIP3    H114805   0.416   1.501   1.059 -1.1720  1.0993  0.3570
 4933TIP3    H214806   0.499   1.532   0.936 -1.5904 -0.5356 -0.3741
 4934TIP3   OH214807   2.510   3.335   1.004 -0.0696 -0.2192 -0.6239
 4934TIP3    H114808   2.539   3.297   1.087 -0.7934  1.8482  0.6411
 4934TIP3    H214809   2.419   3.306   0.995 -0.5113  0.8639  0.1657
 4935TIP3   OH214810   5.737   4.904   4.194 -0.3378 -0.0593 -0.4064
 4935TIP3    H114811   5.739   4.964   4.119 -2.1437  2.3040  1.2680
 4935TIP3    H214812   5.659   4.850   4.180 -1.4217  1.2461  0.2673
 4936TIP3   OH214813   6.192   5.037   3.278  0.4506 -0.6488  0.2856
 4936TIP3    H114814   6.126   5.077   3.221  0.6005  0.1559  0.6629
 4936TIP3    H214815   6.142   5.000   3.351  0.5144  1.9703  1.7846
 4937TIP3   OH214816   5.815   0.438   4.325  0.3886 -0.0419 -0.2524
 4937TIP3    H114817   5.900   0.467   4.357  0.1259  1.1872 -0.6185
 4937TIP3    H214818   5.753   0.470   4.391  0.1353 -0.1659 -0.4303
 4938TIP3   OH214819   3.871   0.022   5.070  0.2978 -0.0651  0.1557
 4938TIP3    H114820   3.817   0.057   5.000  1.9602  0.8646 -0.7379
 4938TIP3    H214821   3.851   0.077   5.146 -0.2832  0.0090 -0.0483
 4939TIP3   OH214822   5.688   5.880   0.607  0.4728  0.0371  0.0846
 4939TIP3    H114823   5.733   5.864   0.524  0.6412  0.8588  0.0130
 4939TIP3    H214824   5.610   5.930   0.583  1.6430  2.2451  0.6131
 4940TIP3   OH214825   1.058   0.596   0.814  0.1953  0.2323 -0.1312
 4940TIP3    H114826   1.129   0.632   0.762  0.3580  1.4032  0.8744
 4940TIP3    H214827   1.040   0.511   0.774  1.5473  0.3075 -0.9512
 4941TIP3   OH214828   4.968   4.981   3.330 -0.0746 -0.6916 -0.0809
 4941TIP3    H114829   4.984   4.970   3.423  0.8808  0.0659 -0.1311
 4941TIP3    H214830   4.977   5.076   3.316  0.8927 -0.9116 -1.1093
 4942TIP3   OH214831   5.300   0.433   2.992  0.4378 -0.0052 -0.0338
 4942TIP3    H114832   5.244   0.356   3.001  0.4150 -0.0696 -0.7013
 4942TIP3    H214833   5.387   0.397   2.975  0.6946  0.0936  1.0114
 4943TIP3   OH214834   0.678   4.278   0.347  0.0749 -0.1247 -0.6782
 4943TIP3    H114835   0.724   4.282   0.263  1.4031  0.1856  0.0229
 4943TIP3    H214836   0.604   4.220   0.331 -0.3074  0.7477 -2.3287
 4944TIP3   OH214837   0.941   5.197   3.636  0.3932  0.7290  0.2062
 4944TIP3    H114838   0.875   5.159   3.578 -1.0880  1.2978  1.4446
 4944TIP3    H214839   0.952   5.287   3.605 -1.1326  1.3498  1.3257
 4945TIP3   OH214840   2.591   0.078   2.590 -0.3353  0.4572  0.3593
 4945TIP3    H114841   2.602   0.117   2.677 -0.9120 -0.0585  0.6681
 4945TIP3    H214842   2.553   0.148   2.537 -0.9446  0.4601  0.7929
 4946TIP3   OH214843   5.901   4.019   5.188 -0.8107  0.3750  0.2140
 4946TIP3    H114844   5.869   3.970   5.112  0.9640 -0.7237  0.1141
 4946TIP3    H214845   5.857   4.103   5.183 -0.0369  0.6945 -2.6079
 4947TIP3   OH214846   5.119   5.666   1.581 -0.5553 -0.3869  0.2491
 4947TIP3    H114847   5.070   5.618   1.514  1.8356 -1.3603 -0.9388
 4947TIP3    H214848   5.176   5.725   1.532  0.4215 -0.2676  1.4598
 4948TIP3   OH214849   4.439   3.608   4.409  0.0459 -0.2436 -0.1957
 4948TIP3    H114850   4.526   3.646   4.417  0.4521 -1.2420  0.4004
 4948TIP3    H214851   4.404   3.607   4.499 -1.5724  2.3083 -0.7066
 4949TIP3   OH214852   5.149   3.384   4.730 -0.5779 -0.0729 -0.1434
 4949TIP3    H114853   5.206   3.379   4.806 -0.1513 -0.1872 -0.4653
 4949TIP3    H214854   5.197   3.437   4.667  0.1410 -1.8676 -1.2122
 4950TIP3   OH214855   4.515   0.528   4.798  0.0617 -0.7577  0.1258
 4950TIP3    H114856   4.553   0.604   4.843  0.2916 -1.4356  1.0976
 4950TIP3    H214857   4.588   0.492   4.747 -0.6600  1.2052 -2.5614
 4951TIP3   OH214858   5.556   0.822   1.441  0.3447 -0.6356  0.0923
 4951TIP3    H114859   5.629   0.861   1.392  0.4078  0.4581  1.0048
 4951TIP3    H214860   5.542   0.883   1.514  0.4407 -2.3431  1.5915
 4952TIP3   OH214861   1.641   1.333   3.063 -0.3605 -0.2669  0.5474
 4952TIP3    H114862   1.713   1.362   3.007 -1.1195 -0.3400 -0.5161
 4952TIP3    H214863   1.676   1.260   3.113 -0.2171 -1.6268 -1.4118
 4953TIP3   OH214864   2.976   4.202   1.950 -0.0396  0.1982 -0.3654
 4953TIP3    H114865   3.005   4.137   2.015  0.8556  1.5182  0.6101
 4953TIP3    H214866   3.053   4.218   1.896  0.0470  1.1385  0.0144
 4954TIP3   OH214867   4.320   5.459   0.496  0.3438 -0.0353 -0.3833
 4954TIP3    H114868   4.345   5.417   0.578  0.1976 -1.2078 -0.9205
 4954TIP3    H214869   4.281   5.389   0.444  0.4209  0.6906 -1.4535
 4955TIP3   OH214870   0.829   5.332   3.907 -0.3613 -0.4625  0.5249
 4955TIP3    H114871   0.895   5.360   3.843 -0.2901 -0.0641  0.7668
 4955TIP3    H214872   0.818   5.408   3.964  0.5989 -1.2813  1.8448
 4956TIP3   OH214873   1.796   5.626   1.284 -0.5657 -0.3465  0.6066
 4956TIP3    H114874   1.786   5.700   1.224  0.2431 -0.3956  0.3931
 4956TIP3    H214875   1.881   5.640   1.325 -0.4909 -1.0493  0.7055
 4957TIP3   OH214876   0.318   3.242   3.342  0.1069  0.4809  0.1320
 4957TIP3    H114877   0.293   3.168   3.397 -0.1923  1.9513  2.0818
 4957TIP3    H214878   0.413   3.236   3.336  0.3554  1.2085  2.3235
 4958TIP3   OH214879   0.462   4.748   0.585 -0.0401  0.5678  0.4643
 4958TIP3    H114880   0.555   4.772   0.589  0.2635 -0.5421  0.3998
 4958TIP3    H214881   0.448   4.723   0.493 -0.0535 -0.5759  0.7656
 4959TIP3   OH214882   1.294   0.301   4.369  0.0829 -0.0543 -0.0147
 4959TIP3    H114883   1.220   0.242   4.357 -0.1470  0.4223 -1.0330
 4959TIP3    H214884   1.280   0.371   4.305 -0.2683  1.7290  1.9200
 4960TIP3   OH214885   4.640   4.729   0.875  0.5947  0.1794 -0.2647
 4960TIP3    H114886   4.668   4.820   0.869  0.5378  0.1273 -1.5250
 4960TIP3    H214887   4.551   4.730   0.841  1.1652 -0.6001 -1.8378
 4961TIP3   OH214888   1.954   3.376   2.710  0.2877  0.0794 -0.9714
 4961TIP3    H114889   1.898   3.329   2.647 -1.1011 -1.2002  1.1043
 4961TIP3    H214890   1.895   3.441   2.749  1.1330  0.8483 -0.9498
 4962TIP3   OH214891   5.224   3.290   2.473  0.1229 -0.5277  0.0089
 4962TIP3    H114892   5.251   3.237   2.547  3.4597 -0.0206 -0.6898
 4962TIP3    H214893   5.174   3.362   2.512  1.1038 -0.7159  1.6971
 4963TIP3   OH214894   2.864   3.642   2.792  0.5468 -0.1904  0.4418
 4963TIP3    H114895   2.804   3.715   2.805  1.4839  1.0485 -1.5999
 4963TIP3    H214896   2.854   3.587   2.870 -0.9676  1.5546  1.5377
 4964TIP3   OH214897   3.173   4.601   4.106  0.0948  0.2246 -0.7374
 4964TIP3    H114898   3.184   4.596   4.201  1.0473  1.0313 -0.7845
 4964TIP3    H214899   3.113   4.675   4.093  0.0510  0.1828 -0.7756
 4965TIP3   OH214900   4.563   0.115   3.946 -0.3199  0.0652 -0.5534
 4965TIP3    H114901   4.478   0.133   3.986 -0.6192  1.4122 -1.7142
 4965TIP3    H214902   4.618   0.085   4.019 -0.8779  2.2387  0.8640
 4966TIP3   OH214903   5.497   5.528   3.628  0.2958  0.4283  0.2856
 4966TIP3    H114904   5.406   5.523   3.598  0.5983  1.0808 -0.7892
 4966TIP3    H214905   5.549   5.525   3.548  1.1326  1.9578  0.7249
 4967TIP3   OH214906   0.758   4.730   3.952 -0.1973 -0.2350 -0.1480
 4967TIP3    H114907   0.725   4.654   3.905 -0.3688 -0.6385  0.6099
 4967TIP3    H214908   0.681   4.765   3.998 -0.2671  0.7941 -1.0089
 4968TIP3   OH214909   1.932   0.429   0.897 -0.1482 -0.4349 -0.1853
 4968TIP3    H114910   1.964   0.338   0.900  0.1384 -0.3234  0.3976
 4968TIP3    H214911   1.859   0.430   0.959  0.9854  0.1400  1.2069
 4969TIP3   OH214912   1.886   2.431   3.673 -0.8728 -0.0830  0.0643
 4969TIP3    H114913   1.952   2.496   3.648 -1.6927  0.5691 -0.4414
 4969TIP3    H214914   1.843   2.469   3.750 -0.2608 -0.7895  0.7751
 4970TIP3   OH214915   4.402   3.444   4.860 -0.3278 -0.0884  0.0720
 4970TIP3    H114916   4.488   3.450   4.902 -0.2182  1.5845 -0.3456
 4970TIP3    H214917   4.345   3.499   4.914 -1.2051 -1.2803  0.4206
 4971TIP3   OH214918   5.492   4.139   5.055  0.1974  0.1406 -0.0365
 4971TIP3    H114919   5.441   4.199   5.110  0.5210 -0.2604  0.7134
 4971TIP3    H214920   5.510   4.064   5.112 -0.3401 -0.7527 -1.0043
 4972TIP3   OH214921   1.566   2.761   3.410 -0.4741 -0.4446  0.1417
 4972TIP3    H114922   1.531   2.783   3.324 -0.8129  0.2341  0.4483
 4972TIP3    H214923   1.498   2.705   3.450 -0.9037  0.2898  0.4595
 4973TIP3   OH214924   3.732   1.293   0.263  0.4378  0.3155 -0.5123
 4973TIP3    H114925   3.719   1.199   0.249 -2.3088  0.4863  0.3514
 4973TIP3    H214926   3.644   1.330   0.260  1.1332  2.4474  1.9369
 4974TIP3   OH214927   4.273   4.208   2.808  0.5150 -0.6730  0.0553
 4974TIP3    H114928   4.203   4.245   2.861  1.1566  0.3963  0.1910
 4974TIP3    H214929   4.331   4.282   2.790  0.1723 -0.9225 -2.3819
 4975TIP3   OH214930   5.057   2.000   3.844  0.7348 -0.0091  0.7072
 4975TIP3    H114931   5.104   1.923   3.875  0.2721 -0.3743  0.5218
 4975TIP3    H214932   5.121   2.049   3.792  0.2636 -1.8196 -1.7817
 4976TIP3   OH214933   1.627   4.069   0.995  0.1497 -0.3752  0.4066
 4976TIP3    H114934   1.540   4.107   1.002  0.3238 -0.0614  0.8860
 4976TIP3    H214935   1.684   4.142   0.971  0.2087 -0.6689 -0.3715
 4977TIP3   OH214936   3.547   1.503   0.743  0.2038  0.5038 -0.0159
 4977TIP3    H114937   3.478   1.447   0.779  0.9255  0.5745  1.5676
 4977TIP3    H214938   3.572   1.459   0.662 -1.2018  0.0987 -0.2748
 4978TIP3   OH214939   0.958   2.181   3.180  0.2593  0.7841 -0.0173
 4978TIP3    H114940   0.911   2.100   3.200  1.1908 -0.1502 -1.4025
 4978TIP3    H214941   0.895   2.233   3.131 -0.2104  0.7288  0.5141
 4979TIP3   OH214942   0.640   5.899   2.473  0.4103  0.3243 -0.4886
 4979TIP3    H114943   0.623   5.933   2.385 -1.8131  1.4197  0.2708
 4979TIP3    H214944   0.590   5.958   2.531 -1.1066 -2.4143  1.1961
 4980TIP3   OH214945   1.797   2.113   4.939  0.3147 -0.3465  0.3020
 4980TIP3    H114946   1.824   2.191   4.890  2.2547 -0.0142  1.7943
 4980TIP3    H214947   1.716   2.085   4.896 -0.6969  2.7158 -0.0323
 4981TIP3   OH214948   2.411   2.176   4.451  0.1870  0.3665 -0.2618
 4981TIP3    H114949   2.498   2.140   4.467  0.0138  0.0101 -0.1224
 4981TIP3    H214950   2.369   2.113   4.392 -0.0194  0.4771 -0.2347
 4982TIP3   OH214951   2.981   2.356   2.888 -0.4357 -0.1566 -0.1367
 4982TIP3    H114952   2.977   2.293   2.817 -0.7761  0.1373 -0.3782
 4982TIP3    H214953   3.069   2.394   2.881 -0.0383 -0.9556  0.3227
 4983TIP3   OH214954   1.728   0.972   3.431 -0.7595  0.2068  0.4408
 4983TIP3    H114955   1.700   0.887   3.398 -0.7717  0.5756 -0.5468
 4983TIP3    H214956   1.785   1.006   3.362  0.5779  0.2908  1.5622
 4984TIP3   OH214957   3.807   5.554   2.810 -0.5790  0.4142 -0.0583
 4984TIP3    H114958   3.762   5.638   2.809 -0.4816  0.4729  0.3054
 4984TIP3    H214959   3.899   5.574   2.792 -0.4965  0.4239  0.3712
 4985TIP3   OH214960   4.104   1.489   1.553  0.3474 -0.0364  0.2101
 4985TIP3    H114961   4.126   1.580   1.568  0.2494  0.2420 -1.1498
 4985TIP3    H214962   4.027   1.473   1.607  0.7416  0.5026  0.9349
 4986TIP3   OH214963   2.728   3.360   4.405  0.0901  0.0089  0.0483
 4986TIP3    H114964   2.713   3.303   4.330 -0.3950  1.2874 -0.8650
 4986TIP3    H214965   2.691   3.312   4.479 -0.4384 -0.7954 -0.7129
 4987TIP3   OH214966   5.530   4.699   2.774 -0.1110  0.1004 -0.1654
 4987TIP3    H114967   5.486   4.685   2.690  1.2593 -1.2378 -0.7216
 4987TIP3    H214968   5.507   4.623   2.826  1.4058 -0.5904 -0.4416
 4988TIP3   OH214969  -0.012   4.352   0.350  0.1560  0.0878  0.3396
 4988TIP3    H114970   0.071   4.322   0.385  0.4483  2.5940  2.0388
 4988TIP3    H214971  -0.009   4.327   0.257  2.6594 -0.1389  0.4102
 4989TIP3   OH214972   5.961   2.054   1.825 -0.0720 -0.1803  0.0031
 4989TIP3    H114973   5.997   2.098   1.902 -1.0718  1.4105 -0.3828
 4989TIP3    H214974   6.032   1.997   1.795  1.2116  0.9821  0.6924
 4990TIP3   OH214975   4.077   2.909   2.625 -0.6645  0.5228 -0.4039
 4990TIP3    H114976   4.079   2.847   2.698 -0.0034  2.0363  0.9225
 4990TIP3    H214977   3.984   2.921   2.606 -0.9739  1.4741  1.4658
 4991TIP3   OH214978   5.338  -0.028   1.680  0.7406 -0.0367 -0.1542
 4991TIP3    H114979   5.304   0.060   1.665 -1.3935 -0.7568  0.1133
 4991TIP3    H214980   5.372  -0.026   1.769  0.6877  0.4900 -0.1425
 4992TIP3   OH214981   3.072   2.895   0.280 -0.5907  0.2863  0.0514
 4992TIP3    H114982   3.140   2.962   0.286 -0.1365 -0.2148  0.7126
 4992TIP3    H214983   3.079   2.847   0.362 -1.4949 -0.0208 -0.0378
 4993TIP3   OH214984   6.190   0.106   4.850  0.3777 -0.0779 -0.0741
 4993TIP3    H114985   6.179   0.014   4.827  0.9098 -0.4840  1.2106
 4993TIP3    H214986   6.277   0.129   4.816  1.2854 -0.7560  1.6715
 4994TIP3   OH214987   0.474   4.968   1.610  0.7220  0.3355  0.1299
 4994TIP3    H114988   0.383   4.982   1.636  0.8594  0.7775  0.3818
 4994TIP3    H214989   0.480   5.001   1.521  0.5576  0.0033 -0.0054
 4995TIP3   OH214990   4.213   3.963   2.151 -0.5365 -0.2676  0.0038
 4995TIP3    H114991   4.241   3.893   2.093 -0.5411 -0.3060  0.0477
 4995TIP3    H214992   4.131   3.931   2.190 -1.2132  0.2870 -0.9264
 4996TIP3   OH214993   4.537   5.743   3.751 -0.4792  0.1743  0.2617
 4996TIP3    H114994   4.455   5.737   3.800 -0.1779 -0.4377  0.7145
 4996TIP3    H214995   4.605   5.752   3.818  0.0004 -1.2916  0.0231
 4997TIP3   OH214996   4.441   0.471   0.396 -0.2625  0.2641  0.3035
 4997TIP3    H114997   4.513   0.515   0.441  0.5328 -1.2386  0.5722
 4997TIP3    H214998   4.363   0.522   0.419  0.8039  2.5633 -0.8295
 4998TIP3   OH214999   2.651   5.477   2.030  0.0493  0.1061 -0.0698
 4998TIP3    H115000   2.657   5.450   2.121  1.1128 -3.0474 -0.9472
 4998TIP3    H215001   2.742   5.494   2.005 -0.4240  3.2899 -0.0286
 4999TIP3   OH215002   0.164   3.601   2.455  0.3613 -0.4811  0.1027
 4999TIP3    H115003   0.108   3.679   2.460 -0.5578 -1.1215  0.1917
 4999TIP3    H215004   0.125   3.541   2.519  1.0813 -0.9991  0.0588
 5000TIP3   OH215005   1.823   0.722   3.692 -0.2197 -0.3374 -0.3195
 5000TIP3    H115006   1.822   0.816   3.675 -0.4905 -0.2920 -0.0630
 5000TIP3    H215007   1.763   0.685   3.628 -0.9525 -0.2092  0.2815
 5001TIP3   OH215008   6.242   5.362   2.081  0.6701 -0.6482 -0.2330
 5001TIP3    H115009   6.268   5.453   2.067  0.2155 -0.5614 -0.5300
 5001TIP3    H215010   6.147   5.362   2.069  0.4070 -0.8112  1.5983
 5002TIP3   OH215011   5.671   5.281   0.164  0.0250 -0.2464  0.4246
 5002TIP3    H115012   5.707   5.253   0.080 -2.5300 -1.0773 -0.5046
 5002TIP3    H215013   5.635   5.368   0.147  2.2139  0.9668  1.5725
 5003TIP3   OH215014   2.845   3.585   1.058  0.0098  0.1195 -0.2378
 5003TIP3    H115015   2.753   3.582   1.031 -0.1591  1.2014  0.1852
 5003TIP3    H215016   2.892   3.606   0.978 -0.0633 -0.7208 -0.5190
 5004TIP3   OH215017   3.482   1.785   3.914  0.5779  0.0349 -0.4392
 5004TIP3    H115018   3.518   1.846   3.849  0.2084 -0.1761 -0.8456
 5004TIP3    H215019   3.425   1.839   3.969  1.4460  0.3600  0.1722
 5005TIP3   OH215020   2.350   1.648   1.076 -0.0316 -0.1547  0.0299
 5005TIP3    H115021   2.257   1.629   1.087 -0.4133  1.5138 -0.1255
 5005TIP3    H215022   2.382   1.577   1.019 -1.2513 -0.5890 -0.1497
 5006TIP3   OH215023   2.195   0.193   3.450 -0.1602  0.0922  0.9188
 5006TIP3    H115024   2.260   0.216   3.516 -0.7730  0.9636  1.2317
 5006TIP3    H215025   2.247   0.157   3.377  0.7102  1.1229  1.0067
 5007TIP3   OH215026   5.333   4.493   1.515  0.1367  0.2528 -0.0239
 5007TIP3    H115027   5.247   4.477   1.477  1.0558  1.1577 -2.6691
 5007TIP3    H215028   5.373   4.559   1.459  3.3843 -1.6393 -0.1933
 5008TIP3   OH215029   2.247   0.994   0.889  0.0441  0.0367 -0.0575
 5008TIP3    H115030   2.289   0.976   0.805 -0.9642 -1.1625 -0.3348
 5008TIP3    H215031   2.252   0.911   0.937 -0.7034  0.2824  0.4693
 5009TIP3   OH215032   2.059   4.848   1.950 -0.5645 -0.6434  0.3580
 5009TIP3    H115033   2.108   4.814   2.025  1.6907  0.7422 -0.3556
 5009TIP3    H215034   2.002   4.915   1.987 -0.1712 -0.6344  0.9641
 5010TIP3   OH215035   0.210   2.722   4.357  0.2012 -0.0624 -0.5033
 5010TIP3    H115036   0.275   2.705   4.425 -0.0855  0.0661 -0.1936
 5010TIP3    H215037   0.238   2.806   4.319 -0.3411  0.5004  0.3058
 5011TIP3   OH215038   5.302   0.779   4.442 -0.1034 -0.1747  0.1625
 5011TIP3    H115039   5.319   0.797   4.350  1.2137 -1.8247  0.0348
 5011TIP3    H215040   5.258   0.694   4.442  1.1580 -0.8664  1.0916
 5012TIP3   OH215041   0.607   1.237   3.831  0.0352  0.8833 -0.1292
 5012TIP3    H115042   0.684   1.275   3.788  0.6517 -3.3793 -3.4176
 5012TIP3    H215043   0.534   1.289   3.799  1.0186  1.0429 -2.3151
 5013TIP3   OH215044   4.648   0.150   4.694 -0.2562 -0.2572 -0.0070
 5013TIP3    H115045   4.719   0.190   4.744 -1.1670  0.2712  0.9267
 5013TIP3    H215046   4.640   0.202   4.615  0.2392 -0.1736  0.0004
 5014TIP3   OH215047   3.451   2.255   3.965  0.1424  0.1111  0.3889
 5014TIP3    H115048   3.434   2.195   3.892  1.5749 -0.4787  0.4989
 5014TIP3    H215049   3.370   2.304   3.975 -0.4583 -0.5632 -0.8825
 5015TIP3   OH215050   0.548   1.208   4.571  0.6194  0.1426  0.6340
 5015TIP3    H115051   0.523   1.151   4.499  0.3165 -1.6318  2.0593
 5015TIP3    H215052   0.484   1.188   4.640  1.1278  1.4722  1.5305
 5016TIP3   OH215053   2.783   0.612   5.001 -0.2663 -0.1236  0.0905
 5016TIP3    H115054   2.729   0.667   4.945 -0.9602 -0.5614  0.3137
 5016TIP3    H215055   2.809   0.539   4.945 -1.8396 -1.1186  0.5885
 5017TIP3   OH215056   5.249   3.496   4.322 -0.2903  0.0421  0.6979
 5017TIP3    H115057   5.288   3.412   4.341 -1.0784 -0.5153 -0.0283
 5017TIP3    H215058   5.155   3.479   4.320 -0.4782  0.9884  0.7781
 5018TIP3   OH215059   5.064   0.517   3.267 -0.1716 -0.5861  0.1182
 5018TIP3    H115060   5.149   0.543   3.231  0.6014 -0.2612  2.0604
 5018TIP3    H215061   5.005   0.518   3.191  1.5139 -0.7760 -1.2834
 5019TIP3   OH215062   5.978   4.252   3.450 -0.1703  0.0934 -0.3521
 5019TIP3    H115063   5.887   4.245   3.420 -0.5349  0.2027  0.6832
 5019TIP3    H215064   6.023   4.298   3.380 -0.8531 -0.1900 -0.9954
 5020TIP3   OH215065   0.276   4.340   3.520 -0.2448  0.0775  0.0898
 5020TIP3    H115066   0.296   4.327   3.613  1.8821  0.7955 -0.2201
 5020TIP3    H215067   0.278   4.435   3.508  0.4915 -0.0436 -0.8650
 5021TIP3   OH215068   4.224   5.419   4.043  0.1661  0.4212  0.1618
 5021TIP3    H115069   4.147   5.382   4.000  0.0939  1.4339 -0.6303
 5021TIP3    H215070   4.249   5.354   4.109 -0.0080 -0.9591 -1.0773
 5022TIP3   OH215071   4.826   2.741   1.718  0.2094  0.0837  0.2094
 5022TIP3    H115072   4.875   2.721   1.798 -2.2361 -0.9007  1.5701
 5022TIP3    H215073   4.756   2.676   1.716 -1.4357  1.7795 -1.2615
 5023TIP3   OH215074   6.278   2.746   0.770 -0.0019  0.7596 -0.2988
 5023TIP3    H115075   6.299   2.709   0.685 -0.5724  0.4109 -0.2898
 5023TIP3    H215076   6.281   2.671   0.830  0.0417  0.9416 -0.0714
 5024TIP3   OH215077   3.662   4.352   5.112 -0.2891 -0.3845 -0.3469
 5024TIP3    H115078   3.570   4.323   5.115  0.0495 -1.4092  1.0237
 5024TIP3    H215079   3.710   4.273   5.090  0.4471 -0.3371  1.0179
 5025TIP3   OH215080   3.456   2.931   3.070  0.3257  0.1593  0.5141
 5025TIP3    H115081   3.535   2.899   3.113  0.9429  0.5918 -0.2598
 5025TIP3    H215082   3.435   2.865   3.004  0.5627  0.4508  0.1331
 5026TIP3   OH215083   1.989   1.778   4.262 -0.1984  0.3471  0.2299
 5026TIP3    H115084   2.072   1.820   4.283 -0.2959  0.1738  0.9733
 5026TIP3    H215085   1.944   1.841   4.205  0.7943  0.0777 -0.9077
 5027TIP3   OH215086   2.306   1.539   3.120  0.1919 -0.2573  0.4525
 5027TIP3    H115087   2.279   1.609   3.062 -0.2099 -0.6093  0.2119
 5027TIP3    H215088   2.349   1.583   3.193 -1.0983  0.3189  0.8909
 5028TIP3   OH215089   2.453   4.768   4.990 -0.4838  0.8373 -0.1882
 5028TIP3    H115090   2.532   4.823   4.989 -0.3146  0.6329  0.8588
 5028TIP3    H215091   2.389   4.818   4.940  0.1718  1.2134 -0.6727
 5029TIP3   OH215092   5.965   0.247   3.423  0.1808  0.0443  0.1950
 5029TIP3    H115093   6.000   0.218   3.507  1.1626  1.1448  0.1946
 5029TIP3    H215094   5.992   0.339   3.416  0.8874 -0.2569 -1.6894
 5030TIP3   OH215095   5.441   4.810   4.097  0.2383 -0.2489  0.2258
 5030TIP3    H115096   5.473   4.721   4.109  0.9605  0.1755  1.5865
 5030TIP3    H215097   5.355   4.800   4.055  0.8679 -1.5143 -0.8227
 5031TIP3   OH215098   1.807   0.059   1.386 -0.5470 -0.3866 -0.4395
 5031TIP3    H115099   1.732   0.102   1.345 -0.1721  0.3746 -0.3519
 5031TIP3    H215100   1.770  -0.017   1.430 -1.2966  0.0724 -0.2499
 5032TIP3   OH215101   0.687   5.997   4.625  0.0129  0.2222  0.5125
 5032TIP3    H115102   0.664   5.912   4.663 -1.6118  0.1172 -0.6016
 5032TIP3    H215103   0.683   5.982   4.530 -0.7684  1.6558  0.2982
 5033TIP3   OH215104   0.871   2.705   0.837  0.7341 -0.0486 -0.8303
 5033TIP3    H115105   0.823   2.656   0.904  3.0325 -1.4679 -0.1044
 5033TIP3    H215106   0.876   2.645   0.763  1.0626  0.2094 -1.0206
 5034TIP3   OH215107   5.188   1.064   5.134 -0.0430  0.2337  0.0645
 5034TIP3    H115108   5.215   0.977   5.103  1.0261  0.6086 -0.0816
 5034TIP3    H215109   5.093   1.056   5.144 -0.1507 -0.5677 -1.2198
 5035TIP3   OH215110   1.377   1.173   2.713  0.1737  0.0016  0.5188
 5035TIP3    H115111   1.434   1.105   2.750 -1.0331 -1.0375  0.5675
 5035TIP3    H215112   1.302   1.176   2.773 -0.4132  0.4204 -0.2154
 5036TIP3   OH215113   2.575   1.391   3.268 -0.2532 -0.1696  0.2258
 5036TIP3    H115114   2.634   1.430   3.204 -1.0474  2.4129  0.9149
 5036TIP3    H215115   2.533   1.319   3.222  1.1723 -0.1007 -1.2573
 5037TIP3   OH215116   3.441   5.729   1.790  0.2892  0.0200 -0.2778
 5037TIP3    H115117   3.486   5.737   1.705  0.9606  0.7031  0.1238
 5037TIP3    H215118   3.449   5.637   1.813 -0.2327 -0.2468 -1.1379
 5038TIP3   OH215119   0.197   1.777   4.464  0.1256 -0.0712 -0.4235
 5038TIP3    H115120   0.153   1.769   4.380  1.1906 -0.7059 -0.9378
 5038TIP3    H215121   0.206   1.871   4.479 -1.0622  0.0681 -0.4674
 5039TIP3   OH215122   2.261   3.437   3.655 -0.6363 -0.3104 -0.0732
 5039TIP3    H115123   2.343   3.390   3.640  0.1746  0.3037  2.0678
 5039TIP3    H215124   2.282   3.529   3.635 -0.4508  0.0126  1.4673
 5040TIP3   OH215125   3.204   3.585   1.716 -0.5282 -0.2054  0.2964
 5040TIP3    H115126   3.172   3.675   1.711  0.2833  0.2135  1.9986
 5040TIP3    H215127   3.195   3.551   1.627  0.9045  2.1490 -0.8405
 5041TIP3   OH215128   5.353   2.669   0.464 -0.1786 -0.2324 -0.5535
 5041TIP3    H115129   5.261   2.693   0.457  0.3817  2.0192 -0.9434
 5041TIP3    H215130   5.363   2.595   0.404 -1.9405 -1.3030  0.3974
 5042TIP3   OH215131   1.979   2.187   2.649  0.1962  0.1452  0.1823
 5042TIP3    H115132   2.053   2.126   2.660 -0.9123 -1.3248 -0.1990
 5042TIP3    H215133   2.012   2.270   2.683  2.1131 -0.3959 -0.1900
 5043TIP3   OH215134   2.583   4.043   3.107 -0.5330 -0.2108 -0.5628
 5043TIP3    H115135   2.674   4.037   3.078 -0.2021 -0.5045  0.5221
 5043TIP3    H215136   2.555   4.130   3.078  0.4939  0.4023  0.2108
 5044TIP3   OH215137   1.620   0.429   0.655 -0.4562 -0.1212 -0.0212
 5044TIP3    H115138   1.548   0.477   0.614 -0.6913 -0.8256 -0.4641
 5044TIP3    H215139   1.645   0.482   0.731 -2.2107 -0.4357  0.8172
 5045TIP3   OH215140   5.412   1.526   2.863 -0.0996  0.2316 -0.3450
 5045TIP3    H115141   5.408   1.452   2.923  0.5155  0.0272 -0.5545
 5045TIP3    H215142   5.411   1.603   2.920 -0.3648  0.0600 -0.1132
 5046TIP3   OH215143   2.158   4.406   0.232  0.1608 -0.7750 -0.0301
 5046TIP3    H115144   2.187   4.493   0.203  0.6424 -0.5822  0.9929
 5046TIP3    H215145   2.153   4.354   0.151  3.3320 -0.8305 -0.2962
 5047TIP3   OH215146   5.826   0.888   2.961 -0.1352  0.3072  0.2390
 5047TIP3    H115147   5.834   0.801   2.923  0.7814  0.7716 -0.6646
 5047TIP3    H215148   5.912   0.928   2.949 -1.0464  2.0004 -1.0544
 5048TIP3   OH215149   2.556   2.401   2.113 -0.1773  0.1877 -0.2373
 5048TIP3    H115150   2.485   2.379   2.053 -0.3097  0.2704 -0.1101
 5048TIP3    H215151   2.588   2.317   2.145 -0.4158  0.1646 -0.0629
 5049TIP3   OH215152   4.357   5.413   5.152  0.2342  0.9575  0.7782
 5049TIP3    H115153   4.451   5.428   5.149  0.5293 -0.6957 -2.3521
 5049TIP3    H215154   4.319   5.500   5.165  2.1280  1.7947  1.1207
 5050TIP3   OH215155   5.531   0.415   2.694  0.0172 -0.2518 -0.3865
 5050TIP3    H115156   5.440   0.383   2.699  0.2759 -1.0449 -0.5905
 5050TIP3    H215157   5.559   0.423   2.785 -0.0318 -0.6818 -0.3304
 5051TIP3   OH215158   1.076   3.944   5.007 -0.1630 -0.1742  0.2795
 5051TIP3    H115159   1.056   3.944   5.100 -2.5441 -0.5527 -0.1677
 5051TIP3    H215160   1.014   3.882   4.969  0.4428  0.3053 -1.6158
 5052TIP3   OH215161   3.411   2.054   0.499 -0.1859 -0.0384 -0.6694
 5052TIP3    H115162   3.390   2.128   0.556  1.9511  0.7674 -0.8336
 5052TIP3    H215163   3.418   1.979   0.559 -1.7912 -0.0354 -0.4297
 5053TIP3   OH215164   0.123   4.708   3.853 -0.1343  0.5024 -0.1121
 5053TIP3    H115165   0.146   4.800   3.842  0.0547  0.3271 -1.2466
 5053TIP3    H215166   0.142   4.690   3.945 -1.3816  1.9217  0.4614
 5054TIP3   OH215167   0.000   5.795   2.998  0.2726  0.8258 -0.0084
 5054TIP3    H115168  -0.064   5.775   2.931  2.0053  0.8630 -1.7708
 5054TIP3    H215169   0.075   5.739   2.977  1.0610  1.2159  1.5905
 5055TIP3   OH215170   4.308   4.509   1.681 -0.2405 -0.0535  0.5690
 5055TIP3    H115171   4.340   4.419   1.680 -0.3827 -0.2002 -3.3519
 5055TIP3    H215172   4.365   4.556   1.620 -1.9235  1.8313  0.3313
 5056TIP3   OH215173   2.863   4.529   4.643 -0.4720  0.1409 -0.8173
 5056TIP3    H115174   2.903   4.442   4.639 -1.1033 -0.2671  0.6830
 5056TIP3    H215175   2.932   4.589   4.616  0.2787 -0.7595 -0.9433
 5057TIP3   OH215176   5.721   0.248   3.556  0.0175 -0.1660  0.8350
 5057TIP3    H115177   5.808   0.264   3.521 -0.2621  0.5350  0.4385
 5057TIP3    H215178   5.721   0.291   3.642 -0.1990  0.5804  0.4739
 5058TIP3   OH215179   0.945   5.997   0.915 -0.5163 -0.3849  1.2509
 5058TIP3    H115180   0.859   6.009   0.876  0.6285  0.0970 -1.3276
 5058TIP3    H215181   0.957   5.902   0.919  0.3589 -0.5427 -2.2658
 5059TIP3   OH215182   2.051   2.755   1.314  0.0374 -0.3005 -0.1259
 5059TIP3    H115183   2.024   2.676   1.268  1.4466 -0.7080 -0.2797
 5059TIP3    H215184   2.136   2.777   1.276  0.5312  0.2043  1.2416
 5060TIP3   OH215185   5.262   2.227   2.388 -0.1011 -0.0560  0.1614
 5060TIP3    H115186   5.334   2.241   2.449 -1.6871 -1.8767  2.6645
 5060TIP3    H215187   5.208   2.305   2.395  0.5965  0.4742 -0.2562
 5061TIP3   OH215188   4.742   5.249   0.298 -0.6565  0.0685  0.0087
 5061TIP3    H115189   4.834   5.258   0.323 -0.7935 -0.1856  0.6297
 5061TIP3    H215190   4.715   5.166   0.337 -2.2568  1.9708  3.3441
 5062TIP3   OH215191   5.599   1.381   1.333  0.3419 -0.0660  0.7271
 5062TIP3    H115192   5.573   1.437   1.259  0.9171 -1.2478 -0.4145
 5062TIP3    H215193   5.694   1.391   1.338  0.7629 -2.4752 -0.8753
 5063TIP3   OH215194   4.218   4.488   0.003 -0.0376 -0.2991 -0.1579
 5063TIP3    H115195   4.283   4.419   0.005  0.3506  0.0766  0.7718
 5063TIP3    H215196   4.260   4.562   0.047 -0.8000  0.2028 -0.2562
 5064TIP3   OH215197   3.863   5.477   4.854  0.4380  0.1022 -0.0855
 5064TIP3    H115198   3.774   5.483   4.819  1.8137  0.7770 -3.9450
 5064TIP3    H215199   3.868   5.390   4.892 -1.8996  0.1373  0.4312
 5065TIP3   OH215200   1.312   2.443   4.806 -0.4332 -0.3428 -0.0090
 5065TIP3    H115201   1.356   2.525   4.783 -0.1129 -0.3119  0.7095
 5065TIP3    H215202   1.272   2.415   4.724  1.3411 -0.6205 -0.8395
 5066TIP3   OH215203   0.297   3.154   2.773  0.1873 -0.1063 -0.0562
 5066TIP3    H115204   0.381   3.115   2.797 -0.3882 -1.8142 -0.6467
 5066TIP3    H215205   0.311   3.189   2.685  1.1829  2.6475  1.1052
 5067TIP3   OH215206   1.884   5.744   2.723 -0.1169  0.0488  0.4805
 5067TIP3    H115207   1.966   5.712   2.685  0.4018 -1.8017  2.9608
 5067TIP3    H215208   1.868   5.827   2.677  2.3165 -0.2662 -1.1324
 5068TIP3   OH215209   1.040   3.051   0.732 -0.5328  0.0446 -0.8845
 5068TIP3    H115210   0.994   3.112   0.674 -1.6718 -0.2032 -0.2647
 5068TIP3    H215211   1.055   2.974   0.677 -0.9144  0.1034 -1.0760
 5069TIP3   OH215212   5.102   0.869   1.350  0.5521  0.2668 -0.2020
 5069TIP3    H115213   5.061   0.898   1.269  0.1593  0.5135  0.0779
 5069TIP3    H215214   5.193   0.854   1.327  1.1245  2.9801 -0.1025
 5070TIP3   OH215215   5.834   4.866   1.780 -0.0210  0.2006  0.0988
 5070TIP3    H115216   5.879   4.940   1.740  0.5269  0.1105  0.5244
 5070TIP3    H215217   5.851   4.875   1.874 -1.7596  0.7256  0.3949
 5071TIP3   OH215218   1.464   2.204   1.680  0.4696  0.0688  0.7510
 5071TIP3    H115219   1.388   2.147   1.666  0.1137  0.5315  0.7730
 5071TIP3    H215220   1.533   2.165   1.626 -0.3993  0.8875 -1.0429
 5072TIP3   OH215221   3.392   1.967   4.102  0.7184 -0.6989 -0.0693
 5072TIP3    H115222   3.310   2.016   4.107 -0.0645 -1.9368 -0.4533
 5072TIP3    H215223   3.436   1.986   4.185 -0.2181 -0.4661  0.3866
 5073TIP3   OH215224   3.920   2.071   2.644  0.0605  0.1331 -0.6216
 5073TIP3    H115225   3.907   2.153   2.691  0.5609  0.8948 -1.7861
 5073TIP3    H215226   3.831   2.040   2.625 -0.1246  0.6820 -0.6611
 5074TIP3   OH215227   2.208   5.604   1.045 -0.3064  0.2322 -0.3557
 5074TIP3    H115228   2.200   5.600   1.140 -0.7717  0.6425 -0.3714
 5074TIP3    H215229   2.295   5.568   1.026 -0.4831 -0.4870  0.1670
 5075TIP3   OH215230   3.437   4.059   4.665  0.1375 -0.8766  0.0458
 5075TIP3    H115231   3.502   4.016   4.609  0.1277  0.2757 -0.8865
 5075TIP3    H215232   3.417   3.994   4.732  1.1454 -1.8036 -0.5130
 5076TIP3   OH215233   0.728   4.350   2.926 -0.1774  0.4657 -0.4104
 5076TIP3    H115234   0.633   4.357   2.939 -0.0644 -1.3815  2.1852
 5076TIP3    H215235   0.742   4.258   2.904  0.9255  1.0366 -2.2769
 5077TIP3   OH215236   2.818   0.517   2.044 -0.5982  0.0660  0.1468
 5077TIP3    H115237   2.886   0.466   2.089 -0.0998 -1.9832 -2.6698
 5077TIP3    H215238   2.851   0.528   1.955 -2.1822  2.6645 -0.2356
 5078TIP3   OH215239   3.775   4.809   0.402  0.0440 -0.7598  0.0279
 5078TIP3    H115240   3.795   4.828   0.493  0.8323 -1.2770 -0.0298
 5078TIP3    H215241   3.719   4.731   0.405 -0.1183 -0.6416  0.0783
 5079TIP3   OH215242   0.735   2.957   0.313 -0.0132  0.0957  0.1486
 5079TIP3    H115243   0.717   2.930   0.223  0.7556  0.4331 -0.1149
 5079TIP3    H215244   0.680   3.035   0.326 -0.7325 -0.4197  0.2474
 5080TIP3   OH215245   1.639   5.407   1.158 -0.1172  0.0769  0.7011
 5080TIP3    H115246   1.606   5.447   1.078  0.2795 -0.5660  0.2109
 5080TIP3    H215247   1.684   5.478   1.204  0.1017  0.3193  0.1118
 5081TIP3   OH215248   2.129   3.889   2.859 -0.2249  0.1211  0.1899
 5081TIP3    H115249   2.206   3.871   2.912  0.1193 -0.6702 -0.5477
 5081TIP3    H215250   2.163   3.931   2.780 -0.7469  1.4501  0.6420
 5082TIP3   OH215251   0.828   4.203   0.595 -0.0737  0.1801 -0.2294
 5082TIP3    H115252   0.747   4.227   0.550  0.5439  1.0932 -0.8721
 5082TIP3    H215253   0.888   4.178   0.525  0.9926  1.8871  0.0171
 5083TIP3   OH215254   1.045   3.379   1.533  0.1961  0.1506 -0.1582
 5083TIP3    H115255   1.029   3.455   1.477 -1.4855 -0.1820 -0.1707
 5083TIP3    H215256   1.074   3.310   1.473 -0.2437  0.1946 -0.4198
 5084TIP3   OH215257   1.588   3.580   0.165 -0.3090  0.5597 -0.1545
 5084TIP3    H115258   1.648   3.512   0.196 -0.7879 -1.1653 -2.7108
 5084TIP3    H215259   1.526   3.592   0.237  0.6704 -0.6263  0.9343
 5085TIP3   OH215260   5.376   1.057   3.303 -0.2336  0.0058 -0.3483
 5085TIP3    H115261   5.424   0.978   3.329 -0.6874  0.4800  2.1674
 5085TIP3    H215262   5.285   1.029   3.298 -0.1012 -0.2132 -2.2141
 5086TIP3   OH215263   3.661   5.459   0.235 -0.4761 -0.2342 -0.8975
 5086TIP3    H115264   3.646   5.522   0.306  1.0103 -0.6648 -0.1601
 5086TIP3    H215265   3.597   5.483   0.168  0.1790  2.2287 -0.7454
 5087TIP3   OH215266   0.926   1.167   3.338  0.5410  0.0084 -0.1834
 5087TIP3    H115267   0.970   1.102   3.283 -0.1370 -1.8744  1.4039
 5087TIP3    H215268   0.917   1.125   3.423 -3.0084  0.8263 -0.0060
 5088TIP3   OH215269   2.130   1.901   3.761 -0.0874 -0.4129 -0.1036
 5088TIP3    H115270   2.169   1.986   3.740  2.4525 -1.6663 -0.9713
 5088TIP3    H215271   2.114   1.905   3.855 -0.6150  1.2266 -0.2314
 5089TIP3   OH215272   0.661   2.160   1.033 -0.9483 -0.5308  0.2268
 5089TIP3    H115273   0.607   2.086   1.006 -1.8822 -0.3148  1.4583
 5089TIP3    H215274   0.736   2.157   0.973 -2.1923 -0.9625 -1.3928
 5090TIP3   OH215275   5.136   0.817   4.133 -0.2461  0.3865  0.5461
 5090TIP3    H115276   5.114   0.724   4.130 -0.7694  0.5157 -2.3631
 5090TIP3    H215277   5.061   0.861   4.092  1.2428  1.7718 -0.8570
 5091TIP3   OH215278   5.003   0.361   0.391  0.0447  0.1275  0.3169
 5091TIP3    H115279   4.974   0.399   0.474 -2.5765 -1.7438  0.3686
 5091TIP3    H215280   4.975   0.270   0.395  3.2306 -1.0768 -1.1127
 5092TIP3   OH215281   0.886   1.356   2.267 -0.5355 -0.4021  0.5682
 5092TIP3    H115282   0.881   1.322   2.178  0.2963  1.9583 -0.4497
 5092TIP3    H215283   0.838   1.439   2.264 -0.8715 -0.4699  2.4507
 5093TIP3   OH215284   3.127   1.826   2.256  0.3208  0.0694 -0.1914
 5093TIP3    H115285   3.193   1.756   2.259  1.5064  1.1788  2.2321
 5093TIP3    H215286   3.163   1.890   2.195  0.0782 -0.5926 -1.0522
 5094TIP3   OH215287   0.891   0.579   2.587  0.1128 -0.4223 -0.2096
 5094TIP3    H115288   0.893   0.537   2.502 -1.3594 -1.9493  0.4534
 5094TIP3    H215289   0.843   0.661   2.573 -0.3810 -0.8082 -0.7921
 5095TIP3   OH215290   5.754   2.143   3.482  0.3830 -0.2087 -0.5880
 5095TIP3    H115291   5.841   2.109   3.501  0.0362 -1.1586 -0.6744
 5095TIP3    H215292   5.770   2.224   3.434  1.2310  0.3517  0.5753
 5096TIP3   OH215293   5.638   2.437   1.598 -0.1939 -0.0763 -0.1414
 5096TIP3    H115294   5.564   2.466   1.544 -0.1278  0.2443 -0.0628
 5096TIP3    H215295   5.627   2.484   1.681  0.7347  0.8574 -0.5347
 5097TIP3   OH215296   3.430   4.193   3.054 -0.0161  0.3668 -0.4015
 5097TIP3    H115297   3.443   4.195   3.149 -0.0771  2.7359 -0.3846
 5097TIP3    H215298   3.380   4.113   3.038 -1.6178  0.8504  1.7899
 5098TIP3   OH215299   4.950   3.878   4.377 -0.2692  0.0093 -0.5281
 5098TIP3    H115300   4.884   3.849   4.315  0.5802  0.0572 -1.4914
 5098TIP3    H215301   4.913   3.860   4.463 -0.8104 -1.5618 -1.0642
 5099TIP3   OH215302   5.100   4.023   2.554 -0.4765  0.4953 -0.3228
 5099TIP3    H115303   5.109   4.069   2.638 -1.4128 -1.3457  0.8647
 5099TIP3    H215304   5.181   3.973   2.546  0.0313  1.4084 -1.0239
 5100TIP3   OH215305   5.704   5.361   4.740  0.1839 -0.4232  0.5881
 5100TIP3    H115306   5.678   5.271   4.757  0.9130 -0.5675  0.9829
 5100TIP3    H215307   5.667   5.411   4.812 -2.1900 -0.0106 -0.8041
 5101TIP3   OH215308   5.100   4.727   1.531 -0.1018  0.6026  0.0825
 5101TIP3    H115309   5.023   4.717   1.475 -2.1698 -1.1203  2.9698
 5101TIP3    H215310   5.066   4.722   1.620  3.4721 -1.1913  1.5574
 5102TIP3   OH215311   2.103   5.178   1.720  0.0404  0.0520 -0.2869
 5102TIP3    H115312   2.166   5.122   1.765  1.5049  0.4979 -1.6840
 5102TIP3    H215313   2.068   5.235   1.789  0.6699 -0.6333  0.6239
 5103TIP3   OH215314   1.384   0.750   1.028  0.5166 -0.1518 -0.2154
 5103TIP3    H115315   1.456   0.747   1.092 -0.8698  1.9825  1.6198
 5103TIP3    H215316   1.308   0.717   1.075 -0.2030 -0.2185 -1.3795
 5104TIP3   OH215317   5.393   3.028   1.261 -0.0169 -0.1988  0.2215
 5104TIP3    H115318   5.484   3.057   1.265 -0.0808  0.5283 -1.9162
 5104TIP3    H215319   5.374   3.022   1.167 -1.8129 -1.5411  0.6131
 5105TIP3   OH215320   0.898   3.126   1.935  0.1473 -0.1952  0.0709
 5105TIP3    H115321   0.986   3.092   1.951  0.5462 -0.2621 -2.0307
 5105TIP3    H215322   0.911   3.212   1.897 -0.7363  0.1661  0.5403
 5106TIP3   OH215323   0.179   5.852   4.981 -0.1030  0.3425 -0.4498
 5106TIP3    H115324   0.153   5.775   4.931  0.9422 -1.6646  1.8643
 5106TIP3    H215325   0.273   5.841   4.995  0.4836  3.0552 -1.5554
 5107TIP3   OH215326   2.592   0.563   2.627 -0.3896 -0.5244 -0.2400
 5107TIP3    H115327   2.506   0.603   2.639  0.7197  1.3049  2.6087
 5107TIP3    H215328   2.623   0.595   2.543 -1.6676  0.4675 -0.3462
 5108TIP3   OH215329   3.808   2.712   1.354 -0.6118 -0.2530 -0.4691
 5108TIP3    H115330   3.862   2.643   1.316 -1.2683 -0.9061 -0.2520
 5108TIP3    H215331   3.823   2.706   1.448 -0.2636  0.2541 -0.4924
 5109TIP3   OH215332   4.687   3.327   1.636  0.9065 -0.3710  0.5169
 5109TIP3    H115333   4.727   3.307   1.552 -1.0107 -0.3905 -0.4543
 5109TIP3    H215334   4.639   3.248   1.660  0.7250 -0.0669  1.1940
 5110TIP3   OH215335   0.853   0.980   0.481 -0.1878 -0.1107  0.1140
 5110TIP3    H115336   0.758   0.984   0.490 -0.1057 -1.7225  2.4671
 5110TIP3    H215337   0.886   1.044   0.544  0.2843 -0.4119  0.1786
 5111TIP3   OH215338   1.271   3.040   0.317 -0.4041  0.1692  0.2160
 5111TIP3    H115339   1.321   3.032   0.398  0.5351 -0.0411 -0.3665
 5111TIP3    H215340   1.180   3.036   0.345 -0.1227  1.1897  1.3755
 5112TIP3   OH215341   2.877   3.905   3.454  0.5534  0.6650 -0.1733
 5112TIP3    H115342   2.961   3.926   3.493  1.0664 -0.9682 -0.2996
 5112TIP3    H215343   2.888   3.816   3.419 -1.2584  0.3522 -0.0727
 5113TIP3   OH215344   3.089   0.689   0.867  0.7131  0.2960 -0.0210
 5113TIP3    H115345   3.120   0.680   0.957 -0.4614  2.4813  0.6806
 5113TIP3    H215346   3.165   0.722   0.819  0.9412  0.5919  0.5292
 5114TIP3   OH215347   2.313   1.719   4.950 -0.1570  0.0207 -0.1043
 5114TIP3    H115348   2.395   1.751   4.987  0.0576 -0.4363 -0.1807
 5114TIP3    H215349   2.315   1.625   4.964 -1.7619  0.2193  2.0931
 5115TIP3   OH215350   3.462   5.645   2.176  0.8289 -0.2217 -0.2265
 5115TIP3    H115351   3.502   5.582   2.116 -1.6434 -0.8058 -1.4189
 5115TIP3    H215352   3.447   5.596   2.257  1.2389 -0.4029 -0.2627
 5116TIP3   OH215353   4.424   3.178   0.371  0.3423 -0.5495  0.4007
 5116TIP3    H115354   4.494   3.144   0.427  0.9250  0.0781  0.0546
 5116TIP3    H215355   4.435   3.273   0.373 -0.0421 -0.4883 -0.2567
 5117TIP3   OH215356   3.675   5.791   1.350  0.2872 -0.0036 -0.0097
 5117TIP3    H115357   3.696   5.882   1.326 -0.4846  0.2998  0.4086
 5117TIP3    H215358   3.690   5.788   1.444  3.3707 -1.2029 -0.4367
 5118TIP3   OH215359   3.906   0.711   1.217 -0.2245  0.4708 -0.2382
 5118TIP3    H115360   3.965   0.661   1.273 -0.2170  1.7487  0.9304
 5118TIP3    H215361   3.823   0.711   1.264 -1.0834 -0.9546 -1.6685
 5119TIP3   OH215362   4.754   5.112   2.989 -0.2631 -0.3547 -0.4073
 5119TIP3    H115363   4.740   5.179   3.055 -1.6537 -0.5985 -0.4389
 5119TIP3    H215364   4.667   5.093   2.954  0.3780 -0.5973 -1.9549
 5120TIP3   OH215365   6.320   2.745   3.932 -0.4578  0.5332  0.1081
 5120TIP3    H115366   6.249   2.806   3.914 -1.5481 -1.1321 -1.6380
 5120TIP3    H215367   6.341   2.759   4.024 -1.3747  2.7394  0.0407
 5121TIP3   OH215368   5.526   3.315   1.471 -0.6513  0.6192  0.3074
 5121TIP3    H115369   5.457   3.249   1.481 -1.4690  1.4587  0.2765
 5121TIP3    H215370   5.550   3.339   1.560 -1.4635  1.4069  0.3286
 5122TIP3   OH215371   3.428   2.639   4.448 -0.2978  0.3385  0.0020
 5122TIP3    H115372   3.500   2.579   4.463 -1.2034 -0.7406  0.1059
 5122TIP3    H215373   3.428   2.697   4.525 -2.2449 -2.4452  2.3026
 5123TIP3   OH215374   4.963   2.819   3.665  0.1048  0.3584  0.0443
 5123TIP3    H115375   4.881   2.864   3.686 -0.4384 -0.6619  0.2257
 5123TIP3    H215376   4.940   2.759   3.594  0.9658  0.8267 -0.6524
 5124TIP3   OH215377   5.618   1.659   2.438 -0.0664 -0.0599  0.9362
 5124TIP3    H115378   5.573   1.624   2.515  0.7635  0.4930  1.7051
 5124TIP3    H215379   5.592   1.751   2.435 -1.4288 -0.4534 -0.4658
 5125TIP3   OH215380   1.747   3.366   3.901 -0.1445  0.5450 -0.4183
 5125TIP3    H115381   1.822   3.322   3.861 -1.7718  0.3078 -3.5579
 5125TIP3    H215382   1.781   3.450   3.930  1.5321  0.0751 -0.8878
 5126TIP3   OH215383   2.859   0.369   4.797 -0.0740 -0.2475 -0.0392
 5126TIP3    H115384   2.838   0.366   4.703  0.4170  0.9767 -0.2182
 5126TIP3    H215385   2.786   0.325   4.840 -0.2358 -0.9557 -1.0071
 5127TIP3   OH215386   2.819   4.114   0.235 -0.1127 -0.4969  0.1922
 5127TIP3    H115387   2.735   4.078   0.264 -0.6820 -0.2193 -1.0420
 5127TIP3    H215388   2.849   4.167   0.309  0.0032 -2.2191  1.4516
 5128TIP3   OH215389   5.505   5.442   5.086 -0.2275  0.4028 -0.0926
 5128TIP3    H115390   5.444   5.390   5.137 -0.9807  1.7819  0.4546
 5128TIP3    H215391   5.573   5.468   5.148  1.2050 -1.4530 -0.7801
 5129TIP3   OH215392   3.727   2.159   2.834  0.7030 -0.2596  0.2558
 5129TIP3    H115393   3.764   2.192   2.916 -0.5185  0.8281  0.4027
 5129TIP3    H215394   3.650   2.215   2.818  0.6143 -0.7890 -1.3542
 5130TIP3   OH215395   0.128   2.877   4.580  0.6079  0.0471  1.3104
 5130TIP3    H115396   0.051   2.865   4.636 -0.6836 -0.7046 -0.5274
 5130TIP3    H215397   0.139   2.793   4.536  0.2257  1.1794 -1.1405
 5131TIP3   OH215398   3.638   0.383   2.613 -0.2523  0.4214  0.0008
 5131TIP3    H115399   3.712   0.432   2.577 -1.0969  0.7443 -1.3729
 5131TIP3    H215400   3.631   0.414   2.704  2.7347 -1.3350  0.9910
 5132TIP3   OH215401   6.103   4.715   4.661 -0.6758 -0.4617  0.4391
 5132TIP3    H115402   6.089   4.809   4.661 -1.2791 -0.5126 -1.7156
 5132TIP3    H215403   6.019   4.677   4.637 -0.7674 -1.6633  2.3809
 5133TIP3   OH215404   2.579   3.747   2.415 -0.0133  0.5217 -0.3280
 5133TIP3    H115405   2.586   3.739   2.319 -1.6730  0.8782 -0.5000
 5133TIP3    H215406   2.641   3.816   2.438 -0.2633  1.0717 -1.2646
 5134TIP3   OH215407   3.009   1.472   4.079 -0.4968  0.0200  0.5815
 5134TIP3    H115408   3.029   1.510   4.165 -0.8990  1.2213  0.1724
 5134TIP3    H215409   3.056   1.527   4.017 -2.6853  1.1829 -0.1870
 5135TIP3   OH215410   0.911   4.652   0.709  0.3161 -0.1068  0.4197
 5135TIP3    H115411   0.983   4.702   0.746  2.1222 -1.3052 -1.2177
 5135TIP3    H215412   0.931   4.561   0.732  0.1857 -0.6126 -1.3126
 5136TIP3   OH215413   6.279   5.004   3.730 -0.4469  0.0938  0.2841
 5136TIP3    H115414   6.348   5.005   3.797  0.3015 -0.6568 -0.4634
 5136TIP3    H215415   6.265   4.911   3.712  1.3047  0.2652 -2.5489
 5137TIP3   OH215416   2.064   2.229   1.986 -0.2244  0.3047  0.0245
 5137TIP3    H115417   2.067   2.168   2.060 -0.4275  1.1176  0.7129
 5137TIP3    H215418   2.148   2.275   1.989 -1.0927  1.8913  1.1104
 5138TIP3   OH215419   5.916   4.511   2.776  0.1863 -0.2756  0.1701
 5138TIP3    H115420   5.831   4.466   2.777  0.1176 -0.2027 -1.3956
 5138TIP3    H215421   5.969   4.459   2.716  1.5761 -0.8503  1.8253
 5139TIP3   OH215422   4.281   0.188   0.769 -0.6046  0.3419  0.0127
 5139TIP3    H115423   4.236   0.198   0.852 -1.7705 -1.4678 -0.3581
 5139TIP3    H215424   4.226   0.130   0.718  0.6512  0.5067 -1.6234
 5140TIP3   OH215425   2.299   4.810   0.785  0.0461 -1.1807 -0.4898
 5140TIP3    H115426   2.246   4.881   0.748  0.0014 -0.4403  0.9485
 5140TIP3    H215427   2.252   4.783   0.864  0.8898 -1.7445 -0.1673
 5141TIP3   OH215428   5.884   2.841   3.289 -0.2194  0.1154  0.5918
 5141TIP3    H115429   5.831   2.874   3.217 -0.7586 -0.2321  0.8196
 5141TIP3    H215430   5.960   2.801   3.248 -0.4725  0.0113  0.2226
 5142TIP3   OH215431   2.422   4.585   1.330 -0.0580 -0.1953  0.1737
 5142TIP3    H115432   2.361   4.553   1.263 -0.8980 -1.4568  1.4694
 5142TIP3    H215433   2.440   4.675   1.305 -0.1318 -0.6887 -1.8841
 5143TIP3   OH215434   4.988   2.626   2.654  0.8085 -0.7519  0.1887
 5143TIP3    H115435   5.003   2.558   2.588  0.8704  0.7667 -1.4284
 5143TIP3    H215436   5.056   2.691   2.638  0.9448 -0.4222  1.9110
 5144TIP3   OH215437   2.434   0.093   4.725  0.0781 -0.3326 -0.1529
 5144TIP3    H115438   2.443   0.146   4.646 -0.3609 -0.3225 -0.1972
 5144TIP3    H215439   2.405   0.008   4.694 -0.4923 -0.2100  0.0252
 5145TIP3   OH215440   5.309   5.522   0.651 -0.3509  0.3634 -0.0263
 5145TIP3    H115441   5.318   5.449   0.714  0.2881  0.4474 -0.0127
 5145TIP3    H215442   5.215   5.539   0.648 -0.3122  1.0249  1.6753
 5146TIP3   OH215443   5.060   0.405   4.601 -0.0933  0.4525  0.3322
 5146TIP3    H115444   5.074   0.436   4.690 -2.6147  0.6788  0.7193
 5146TIP3    H215445   5.045   0.311   4.610  0.2794  0.3610  0.0513
 5147TIP3   OH215446   5.365   4.730   0.925 -0.2854 -0.5801 -0.5308
 5147TIP3    H115447   5.437   4.736   0.863 -0.2545  1.0966 -0.3819
 5147TIP3    H215448   5.393   4.665   0.989  0.7605 -0.4939 -0.8913
 5148TIP3   OH215449   5.690   3.710   5.070 -0.0645 -0.3440  0.1292
 5148TIP3    H115450   5.643   3.645   5.123  0.0168  0.8193  1.6777
 5148TIP3    H215451   5.653   3.794   5.096  1.3421  0.4230 -0.2337
 5149TIP3   OH215452   3.055   2.210   0.415  0.4793  0.1413  0.4028
 5149TIP3    H115453   2.978   2.157   0.439  0.1562  0.3042 -0.2367
 5149TIP3    H215454   3.124   2.146   0.401 -0.1911 -0.2503 -1.4459
 5150TIP3   OH215455   5.605   2.531   0.998 -0.2702  0.6348 -0.0137
 5150TIP3    H115456   5.591   2.577   1.081 -1.9746 -0.1026  0.1485
 5150TIP3    H215457   5.540   2.570   0.939 -1.6919 -1.4170  0.1008
 5151TIP3   OH215458   4.573   0.886   1.903 -0.6515 -0.3669  0.3178
 5151TIP3    H115459   4.615   0.942   1.838  2.6066  0.6020  2.9487
 5151TIP3    H215460   4.576   0.798   1.865  0.1834  0.2966 -1.2268
 5152TIP3   OH215461   1.469   2.523   3.819 -0.0655 -0.1386 -0.0239
 5152TIP3    H115462   1.465   2.489   3.908 -0.3604  0.5277  0.2261
 5152TIP3    H215463   1.415   2.463   3.767 -0.2915 -0.2536  0.3422
 5153TIP3   OH215464   0.362   3.874   1.322 -0.2368  0.2429 -0.5509
 5153TIP3    H115465   0.381   3.911   1.408 -1.7707  1.2796 -0.6326
 5153TIP3    H215466   0.447   3.843   1.290  0.6280  1.2982  0.6551
 5154TIP3   OH215467   5.699   1.393   5.100 -0.5640 -0.2435 -0.5398
 5154TIP3    H115468   5.769   1.384   5.036 -0.2739 -1.7712 -0.0602
 5154TIP3    H215469   5.657   1.306   5.102  0.5337 -0.8489  2.5479
 5155TIP3   OH215470   3.414   3.563   4.351  0.1406  0.4490  0.1687
 5155TIP3    H115471   3.494   3.532   4.393  0.5874  1.3601  0.0087
 5155TIP3    H215472   3.345   3.545   4.415  0.1235 -2.1538 -0.4530
 5156TIP3   OH215473   2.234   0.072   2.666  0.2539  0.3704 -0.3445
 5156TIP3    H115474   2.258   0.158   2.632 -0.4951  1.8259  2.5035
 5156TIP3    H215475   2.165   0.041   2.607  1.6560  0.9185 -2.3722
 5157TIP3   OH215476   1.605   4.076   3.628 -0.0159  0.2247  0.5795
 5157TIP3    H115477   1.662   4.020   3.576  0.5319 -0.2236  1.6281
 5157TIP3    H215478   1.518   4.064   3.590  0.3195 -0.3063 -0.0399
 5158TIP3   OH215479   0.648   3.926   4.713 -0.2682 -0.8927  1.1676
 5158TIP3    H115480   0.590   3.852   4.729 -1.2308 -0.3150  0.4140
 5158TIP3    H215481   0.600   4.001   4.747 -0.6835 -0.1847 -0.8637
 5159TIP3   OH215482   5.717   0.230   4.008 -0.4029  0.4402 -0.0520
 5159TIP3    H115483   5.702   0.253   3.916  0.2889  1.9227  0.1670
 5159TIP3    H215484   5.774   0.300   4.040  1.8267 -1.6034  0.7516
 5160TIP3   OH215485   0.030   0.992   4.125  0.3713  0.8776  0.3105
 5160TIP3    H115486   0.039   1.043   4.206 -2.6107  0.8871  0.7308
 5160TIP3    H215487   0.038   1.057   4.056  1.1817  1.1535  0.6500
 5161TIP3   OH215488   0.903   0.914   1.353 -0.3352  0.1980  0.2829
 5161TIP3    H115489   0.890   0.828   1.393 -0.3197 -1.1308 -2.4070
 5161TIP3    H215490   0.814   0.950   1.345 -0.5746 -0.5617 -0.6178
 5162TIP3   OH215491   1.537   4.313   4.537 -0.6749 -0.2482 -0.2585
 5162TIP3    H115492   1.479   4.346   4.468 -0.2271 -0.4247 -0.7318
 5162TIP3    H215493   1.570   4.230   4.503 -0.7370 -0.5238  0.3370
 5163TIP3   OH215494   3.927   5.956   3.878 -0.2654  0.3026 -0.2706
 5163TIP3    H115495   3.919   5.870   3.837  0.1091  0.3362 -0.4132
 5163TIP3    H215496   3.890   6.016   3.813 -1.3908  0.1575  0.2049
 5164TIP3   OH215497   2.215   5.385   2.102  0.3308  0.4087  0.1832
 5164TIP3    H115498   2.263   5.392   2.184  0.2305  0.1634  0.2653
 5164TIP3    H215499   2.217   5.473   2.065 -0.1168  0.6524  0.7258
 5165TIP3   OH215500   5.750   3.100   0.084  0.0697 -0.7600 -0.2041
 5165TIP3    H115501   5.715   3.054   0.008 -2.1033  1.1040 -0.4396
 5165TIP3    H215502   5.769   3.031   0.147 -1.4365 -2.1196 -1.1508
 5166TIP3   OH215503   3.047   5.815   5.163  0.4981 -0.2162 -0.6402
 5166TIP3    H115504   3.046   5.720   5.152  1.9411 -0.2453 -0.6535
 5166TIP3    H215505   3.108   5.831   5.235  0.6462  0.7213 -0.9538
 5167TIP3   OH215506   0.621   0.727   0.053 -1.0664  0.9029 -0.0827
 5167TIP3    H115507   0.660   0.774  -0.021  0.6163 -0.9834 -0.4833
 5167TIP3    H215508   0.687   0.729   0.121 -1.5377  0.3715  0.4066
 5168TIP3   OH215509   5.148   0.655   3.811  0.4415  0.1603 -0.6076
 5168TIP3    H115510   5.178   0.597   3.742  0.1671  0.5193 -1.0390
 5168TIP3    H215511   5.129   0.598   3.885 -0.4636 -0.3753 -1.2408
 5169TIP3   OH215512   5.754   2.360   0.614  0.1415  0.1109  0.1504
 5169TIP3    H115513   5.730   2.338   0.704 -2.0323  0.9985 -0.1420
 5169TIP3    H215514   5.700   2.302   0.560 -0.6476  1.4322 -0.5508
 5170TIP3   OH215515   0.444   3.934   2.509  0.1781 -0.7836 -0.5502
 5170TIP3    H115516   0.463   3.947   2.416  1.7617 -0.9673 -0.2788
 5170TIP3    H215517   0.350   3.918   2.512 -0.5804  2.6083 -1.7460
 5171TIP3   OH215518   4.029   4.792   2.202 -0.2183 -0.3652  0.2504
 5171TIP3    H115519   4.089   4.838   2.144 -0.3253  1.9605  1.8165
 5171TIP3    H215520   3.942   4.820   2.173 -0.4286 -1.5520 -0.2990
 5172TIP3   OH215521   5.851   5.206   1.346  0.1861 -0.3677 -0.7920
 5172TIP3    H115522   5.938   5.230   1.379 -0.4141  1.0026 -0.1400
 5172TIP3    H215523   5.839   5.116   1.376  0.6460  0.0373  0.7036
 5173TIP3   OH215524   0.779   1.138   1.656  0.0220  0.2035 -0.0209
 5173TIP3    H115525   0.769   1.056   1.705  0.5405  0.4461  0.5111
 5173TIP3    H215526   0.855   1.122   1.599 -0.6312 -0.1067 -0.8138
 5174TIP3   OH215527   3.003   1.948   0.128  0.1199  0.1223  0.3609
 5174TIP3    H115528   2.932   2.010   0.139  0.6285  0.7075  0.3798
 5174TIP3    H215529   2.979   1.897   0.051  0.3447  1.2442 -0.4739
 5175TIP3   OH215530   4.596   1.831   0.951 -0.1660 -0.4093 -0.0924
 5175TIP3    H115531   4.534   1.786   0.894  1.2426 -1.1896 -1.0674
 5175TIP3    H215532   4.618   1.911   0.904 -0.3057 -0.2008  0.1900
 5176TIP3   OH215533   5.687   1.984   4.909 -0.1427 -0.1415 -0.5322
 5176TIP3    H115534   5.716   1.905   4.863  0.4334  0.7170 -1.7072
 5176TIP3    H215535   5.759   2.046   4.896 -1.3575  1.1720 -1.2318
 5177TIP3   OH215536   0.533   1.742   1.682  0.1203  0.6032  0.1206
 5177TIP3    H115537   0.478   1.665   1.699 -0.4117  1.4572  2.6213
 5177TIP3    H215538   0.586   1.717   1.606 -1.0738 -1.6614 -0.0501
 5178TIP3   OH215539   0.958   1.494   4.428  0.5663 -0.6427  0.6165
 5178TIP3    H115540   0.899   1.419   4.439 -0.3691 -0.4262 -2.0827
 5178TIP3    H215541   0.907   1.568   4.459 -0.0839 -0.6448 -0.3956
 5179TIP3   OH215542   3.279   1.977   2.094  0.0475  0.4659  0.6524
 5179TIP3    H115543   3.321   2.025   2.023  0.4548 -0.0667  0.5332
 5179TIP3    H215544   3.313   2.018   2.174  1.8978 -0.8537  0.5906
 5180TIP3   OH215545  -0.027   2.481   1.605  0.1702 -0.7307  0.1477
 5180TIP3    H115546   0.056   2.450   1.641  0.5733  1.1128  0.8886
 5180TIP3    H215547  -0.002   2.533   1.528 -0.6520 -4.3107 -2.8245
 5181TIP3   OH215548   2.294   1.889   2.482 -0.3053 -0.2583 -0.5929
 5181TIP3    H115549   2.204   1.877   2.511 -0.0431 -1.9932 -0.3477
 5181TIP3    H215550   2.316   1.806   2.438  1.0640  0.2444 -0.9212
 5182TIP3   OH215551   2.650   3.219   4.673 -0.0548  0.1679  0.0356
 5182TIP3    H115552   2.720   3.209   4.737 -0.5511  0.2067  0.5888
 5182TIP3    H215553   2.639   3.131   4.635  3.0285  0.8658 -3.0104
 5183TIP3   OH215554   5.512   3.376   4.633 -0.0563  0.2890 -0.1282
 5183TIP3    H115555   5.503   3.450   4.694  1.6435  1.2285 -0.9301
 5183TIP3    H215556   5.506   3.299   4.689  0.9064  1.1080  1.1791
 5184TIP3   OH215557   2.287   5.419   4.109  0.0949 -0.0978  0.6030
 5184TIP3    H115558   2.219   5.459   4.164 -2.9927 -1.8265 -1.6464
 5184TIP3    H215559   2.296   5.478   4.034  0.8995 -0.0554  0.7168
 5185TIP3   OH215560   3.759   1.820   0.779 -0.3878  0.8366 -0.0566
 5185TIP3    H115561   3.807   1.902   0.770  2.3699 -0.6938 -0.3301
 5185TIP3    H215562   3.813   1.755   0.734 -0.7090 -1.7607  2.9726
 5186TIP3   OH215563   4.774   4.994   4.436 -0.1531 -0.2226 -0.2469
 5186TIP3    H115564   4.783   4.911   4.484  0.9578  0.5510  0.9315
 5186TIP3    H215565   4.807   4.975   4.348  0.0329 -1.0481 -0.0076
 5187TIP3   OH215566   3.120   3.915   1.110 -0.6219  0.1858 -0.4020
 5187TIP3    H115567   3.109   3.927   1.016 -0.0139  0.6865 -0.4184
 5187TIP3    H215568   3.141   4.003   1.143  0.5376 -0.2145 -0.0112
 5188TIP3   OH215569   2.520   4.546   3.915  0.5434  0.5457  0.0277
 5188TIP3    H115570   2.548   4.548   4.006 -1.1049  1.6562  0.5663
 5188TIP3    H215571   2.446   4.485   3.914  0.3570  0.7716 -0.4845
 5189TIP3   OH215572   2.376   0.844   4.269  0.0433 -0.2804  0.3728
 5189TIP3    H115573   2.298   0.824   4.321  0.0930 -0.8739  0.2270
 5189TIP3    H215574   2.344   0.904   4.201 -0.3164 -0.6168  0.2404
 5190TIP3   OH215575   5.358   0.950   1.944  0.2197 -0.5021  0.3173
 5190TIP3    H115576   5.289   1.016   1.954  0.0070 -0.3673 -1.5894
 5190TIP3    H215577   5.423   0.971   2.011 -1.2457 -0.2081  1.6994
 5191TIP3   OH215578   0.941   4.338   3.894  0.1793 -0.2133 -0.1383
 5191TIP3    H115579   0.952   4.419   3.944 -0.2925  1.2513 -2.2445
 5191TIP3    H215580   0.971   4.269   3.953  0.2179  1.4345  1.9013
 5192TIP3   OH215581   5.541   0.809   3.433 -0.1025  0.1719  0.4743
 5192TIP3    H115582   5.582   0.820   3.518  0.3572  0.2418  0.2481
 5192TIP3    H215583   5.614   0.801   3.372 -0.4196  0.5969  0.0274
 5193TIP3   OH215584   0.957   4.753   4.798 -0.2779 -0.0448  0.6399
 5193TIP3    H115585   0.895   4.788   4.734 -1.0943  0.3534  1.6155
 5193TIP3    H215586   0.973   4.825   4.859 -2.3964 -1.4037  3.0090
 5194TIP3   OH215587   0.306   4.802   3.145  0.5846 -0.0172  0.6551
 5194TIP3    H115588   0.360   4.789   3.068  0.6718  0.4411  0.6416
 5194TIP3    H215589   0.217   4.808   3.111  0.4929 -0.9138  0.6891
 5195TIP3   OH215590   2.868   5.659   4.885  0.4434 -0.2625 -0.2067
 5195TIP3    H115591   2.924   5.647   4.962 -0.6917 -0.7020  0.5725
 5195TIP3    H215592   2.877   5.577   4.836 -1.4602 -1.4411  1.2536
 5196TIP3   OH215593   5.865   0.441   0.638 -0.3476 -0.0741 -0.8691
 5196TIP3    H115594   5.805   0.394   0.695 -0.0010 -0.7211 -1.0228
 5196TIP3    H215595   5.946   0.447   0.689 -0.3154  0.1344 -0.9446
 5197TIP3   OH215596   3.621   5.875   0.818 -0.0259  0.2918 -0.3170
 5197TIP3    H115597   3.527   5.881   0.836  0.2246  1.4091  0.7405
 5197TIP3    H215598   3.638   5.947   0.757  0.4314  1.2396  0.8872
 5198TIP3   OH215599   5.533   5.968   3.653 -0.0773  0.9699 -0.1457
 5198TIP3    H115600   5.615   5.987   3.699 -0.1708  0.7680  0.1068
 5198TIP3    H215601   5.497   5.892   3.699 -0.7226  1.4522  0.1530
 5199TIP3   OH215602   4.577   2.107   2.100  0.1593  0.4710  0.5947
 5199TIP3    H115603   4.489   2.087   2.068 -0.1380 -0.1262  1.7305
 5199TIP3    H215604   4.636   2.064   2.037 -0.3665  0.6413 -0.0154
 5200TIP3   OH215605   5.372   4.903   0.495  0.5015  0.4957 -0.8049
 5200TIP3    H115606   5.444   4.844   0.518  0.0127 -0.6786 -2.1282
 5200TIP3    H215607   5.402   4.950   0.418 -0.0013  0.2516 -1.1580
 5201TIP3   OH215608   2.293   5.181   4.463 -0.1159  0.1819  0.1023
 5201TIP3    H115609   2.247   5.150   4.385 -0.8045 -1.8868  1.2315
 5201TIP3    H215610   2.223   5.212   4.521  0.1924 -0.1752  0.6715
 5202TIP3   OH215611   3.720   0.789   2.972 -0.2210  0.1300 -0.0792
 5202TIP3    H115612   3.667   0.771   3.049 -1.0155  1.7392 -0.2190
 5202TIP3    H215613   3.810   0.796   3.005 -0.4349 -0.0224  0.5491
 5203TIP3   OH215614   4.005   5.723   2.507  0.0724 -0.0467 -0.7053
 5203TIP3    H115615   4.024   5.817   2.507 -0.9445  0.1882 -1.9972
 5203TIP3    H215616   4.032   5.693   2.594  2.2787  1.0319 -0.9725
 5204TIP3   OH215617   1.973   4.555   0.480 -0.9327 -0.6572  0.0495
 5204TIP3    H115618   2.048   4.502   0.453  0.2537 -0.0531  1.9540
 5204TIP3    H215619   1.961   4.616   0.407  0.8836 -0.3226 -0.0333
 5205TIP3   OH215620   5.621   3.380   2.001 -0.3605 -0.5065  0.0592
 5205TIP3    H115621   5.656   3.308   1.950  0.1049 -0.8391  0.8293
 5205TIP3    H215622   5.586   3.441   1.936  0.0409 -1.0066 -0.6362
 5206TIP3   OH215623   3.701   5.812   2.795 -0.3251  0.1004  0.3085
 5206TIP3    H115624   3.608   5.834   2.806 -0.1401  0.8159  0.5033
 5206TIP3    H215625   3.741   5.893   2.762  0.0098 -0.5697 -1.0000
 5207TIP3   OH215626   0.786   5.555   3.377  0.2071  0.3826  0.1435
 5207TIP3    H115627   0.692   5.551   3.359  0.3761  1.6930 -1.1843
 5207TIP3    H215628   0.791   5.591   3.466 -0.5386 -0.5541  0.5900
 5208TIP3   OH215629   5.869   0.200   2.417 -0.2094  0.2475 -0.4419
 5208TIP3    H115630   5.946   0.209   2.360 -1.0339  0.0002 -1.6369
 5208TIP3    H215631   5.798   0.176   2.358 -1.7926  2.8968  0.2093
 5209TIP3   OH215632   1.086   0.057   2.544  0.2854  0.4819  0.8702
 5209TIP3    H115633   0.997   0.026   2.565 -0.4834  2.2275  0.3933
 5209TIP3    H215634   1.109   0.013   2.463 -0.6095  0.8221  0.4182
 5210TIP3   OH215635   3.857   2.259   0.958 -0.0601 -0.3557  0.3205
 5210TIP3    H115636   3.811   2.334   0.920 -0.2574 -1.0109 -0.7512
 5210TIP3    H215637   3.876   2.287   1.048  3.0223  2.4486 -0.9747
 5211TIP3   OH215638   1.804   3.115   3.305  0.3108 -0.7768 -0.0941
 5211TIP3    H115639   1.792   3.076   3.219  0.8251 -1.2707  0.0538
 5211TIP3    H215640   1.844   3.201   3.287  0.2978 -0.8241 -0.3520
 5212TIP3   OH215641   0.207   1.825   3.766  0.0314  0.1421 -0.2575
 5212TIP3    H115642   0.303   1.833   3.772  0.3349 -2.3520 -0.6490
 5212TIP3    H215643   0.174   1.908   3.798  2.3213  0.7484  0.7468
 5213TIP3   OH215644   3.691   1.138   4.457  0.4779  0.2653  0.2334
 5213TIP3    H115645   3.781   1.166   4.469 -0.0020  2.3783 -0.5830
 5213TIP3    H215646   3.641   1.189   4.521 -0.3592  0.7422 -0.7624
 5214TIP3   OH215647   5.711   2.891   1.375  0.2063  0.0899  0.5400
 5214TIP3    H115648   5.680   2.918   1.289  0.2965  1.7879  0.9948
 5214TIP3    H215649   5.788   2.946   1.391 -0.5045  0.6717  2.1834
 5215TIP3   OH215650   6.047   5.256   0.451  0.3447 -1.1754 -0.8152
 5215TIP3    H115651   6.089   5.212   0.377  1.0358 -0.5202 -0.8336
 5215TIP3    H215652   6.053   5.193   0.523  0.7286 -1.3705 -1.0114
 5216TIP3   OH215653   3.268   3.117   1.867 -0.2109  0.0754 -0.6639
 5216TIP3    H115654   3.359   3.144   1.851  1.0654 -1.0179  3.3429
 5216TIP3    H215655   3.223   3.198   1.890 -0.5116  0.7023 -3.1560
 5217TIP3   OH215656   3.509   4.234   0.362 -0.9887  0.1058  0.3526
 5217TIP3    H115657   3.524   4.150   0.319 -3.0650 -1.2418  2.1313
 5217TIP3    H215658   3.481   4.292   0.291 -1.7703 -1.3381 -0.5629
 5218TIP3   OH215659   5.443   3.810   4.525 -0.2086  0.1962  0.1330
 5218TIP3    H115660   5.433   3.826   4.432  0.9318  0.1875 -0.0139
 5218TIP3    H215661   5.444   3.896   4.565 -0.1548  0.2284  0.0631
 5219TIP3   OH215662   3.291   0.760   1.349  0.8844  0.0121 -0.2819
 5219TIP3    H115663   3.338   0.799   1.423 -0.0616 -2.8554  2.0175
 5219TIP3    H215664   3.358   0.714   1.299  1.5440  2.0289 -1.3528
 5220TIP3   OH215665   5.222   3.744   5.042 -0.0471 -0.0233  0.0869
 5220TIP3    H115666   5.149   3.805   5.047  1.0745  1.2664  2.7534
 5220TIP3    H215667   5.267   3.768   4.961 -1.4246  0.5026 -0.5621
 5221TIP3   OH215668   5.379   1.284   4.478 -0.2022  0.0146 -0.3563
 5221TIP3    H115669   5.376   1.304   4.572 -2.3197  1.0437 -0.5708
 5221TIP3    H215670   5.326   1.205   4.469 -0.8766  0.5069 -0.7869
 5222TIP3   OH215671   4.720   4.039   0.346  0.6921 -0.2456  0.2470
 5222TIP3    H115672   4.654   3.981   0.385 -0.7000 -1.0526 -2.9598
 5222TIP3    H215673   4.801   3.989   0.350  0.1171 -1.2135  0.1410
 5223TIP3   OH215674   3.947   5.800   3.004  1.2718  0.4309 -0.1588
 5223TIP3    H115675   3.942   5.754   2.920  0.4587 -0.4339  0.3578
 5223TIP3    H215676   3.935   5.892   2.980  0.0425  0.1057 -0.8983
 5224TIP3   OH215677   1.658   1.093   1.769  0.4427  0.0977  0.2720
 5224TIP3    H115678   1.696   1.181   1.779  1.1065 -0.0807 -0.5693
 5224TIP3    H215679   1.714   1.050   1.704 -0.4015 -0.6449  0.0225
 5225TIP3   OH215680   5.864   0.102   1.314  0.1976  0.2843 -0.5378
 5225TIP3    H115681   5.843   0.196   1.317  2.8276  0.9439 -0.7140
 5225TIP3    H215682   5.959   0.099   1.309  0.1176 -2.3405 -3.4510
 5226TIP3   OH215683   1.961   1.634   3.141  0.7102  0.0903  0.2806
 5226TIP3    H115684   2.055   1.617   3.149  0.6322  0.1639  1.4585
 5226TIP3    H215685   1.922   1.596   3.220 -0.3744 -0.7384 -0.6096
 5227TIP3   OH215686   4.710   0.318   3.486  0.0375  0.3536 -0.8014
 5227TIP3    H115687   4.624   0.354   3.465  0.0381  1.4384  0.8274
 5227TIP3    H215688   4.699   0.284   3.575  1.0360 -0.3820 -0.9517
 5228TIP3   OH215689   4.093   2.842   1.794  0.7140 -0.5300  0.4635
 5228TIP3    H115690   4.066   2.778   1.728 -1.3988  0.6033  0.1522
 5228TIP3    H215691   4.042   2.820   1.871 -1.6860  1.8904 -0.2547
 5229TIP3   OH215692   4.756   4.829   5.077 -0.2534  0.0194  0.6612
 5229TIP3    H115693   4.837   4.844   5.028 -0.2989 -2.7023 -0.4496
 5229TIP3    H215694   4.699   4.902   5.054  0.3083 -0.3256 -2.1873
 5230TIP3   OH215695   3.873   1.738   2.332  0.6426  0.1584 -0.0308
 5230TIP3    H115696   3.878   1.763   2.240 -0.0351  1.9814  0.3915
 5230TIP3    H215697   3.891   1.818   2.380 -0.9636 -0.2832  1.4162
 5231TIP3   OH215698   2.532   5.182   0.875  0.4208 -0.2721  0.5988
 5231TIP3    H115699   2.593   5.201   0.946 -0.1364 -0.4565  1.1320
 5231TIP3    H215700   2.548   5.090   0.854  0.9689 -0.0709  0.1037
 5232TIP3   OH215701   5.402   5.270   4.094 -0.2026 -0.2521  0.4046
 5232TIP3    H115702   5.475   5.266   4.156 -0.3430  1.7221  0.7383
 5232TIP3    H215703   5.406   5.186   4.047  0.9973 -1.0371  1.8311
 5233TIP3   OH215704   2.437   3.900   4.441 -0.0769 -0.0858 -0.0247
 5233TIP3    H115705   2.473   3.878   4.355  0.6758  0.4246  0.1491
 5233TIP3    H215706   2.509   3.943   4.487 -0.0807 -1.4442  1.3190
 5234TIP3   OH215707   0.593   2.252   3.837 -0.5225 -0.5247  0.1526
 5234TIP3    H115708   0.573   2.309   3.911  2.1697 -1.7451  1.9896
 5234TIP3    H215709   0.632   2.310   3.771  1.8403 -0.0650  1.8378
 5235TIP3   OH215710   6.046   3.449   4.367 -0.4203 -0.2017 -0.5497
 5235TIP3    H115711   6.007   3.404   4.292 -0.1889  0.8810 -1.3415
 5235TIP3    H215712   5.976   3.505   4.400 -1.3090 -2.4424  1.5920
 5236TIP3   OH215713   3.047   2.856   4.048 -0.0282  1.0452  0.2759
 5236TIP3    H115714   2.983   2.927   4.056  0.7072  1.7897 -0.2419
 5236TIP3    H215715   3.132   2.900   4.049  0.4276  0.2370 -0.7329
 5237TIP3   OH215716   2.931   4.863   0.333 -0.2158  0.2636 -0.3626
 5237TIP3    H115717   3.002   4.918   0.366 -1.5967  1.2688  1.0699
 5237TIP3    H215718   2.941   4.865   0.238  1.4656  0.6339 -0.1953
 5238TIP3   OH215719   5.896   1.020   3.578  0.1083  0.0373  0.5247
 5238TIP3    H115720   5.850   1.081   3.520  1.4964  1.5196  0.8969
 5238TIP3    H215721   5.964   1.074   3.619  1.4107 -1.7939  0.8632
 5239TIP3   OH215722   3.797   4.454   1.878  0.9013  0.3667  0.6272
 5239TIP3    H115723   3.833   4.372   1.843  0.0922 -0.2186  1.1296
 5239TIP3    H215724   3.785   4.437   1.971  0.1857  0.8501  0.6287
 5240TIP3   OH215725   2.582   1.948   4.544 -0.4747  0.1801  0.3540
 5240TIP3    H115726   2.492   1.917   4.540 -0.4532  0.2218 -1.2212
 5240TIP3    H215727   2.628   1.884   4.599 -0.7192 -1.8819 -1.6990
 5241TIP3   OH215728   4.116   4.394   3.618  0.7044  0.4107  0.3523
 5241TIP3    H115729   4.063   4.413   3.695  0.9295  0.1252  0.5853
 5241TIP3    H215730   4.096   4.464   3.556 -0.1750  0.1373  0.3096
 5242TIP3   OH215731   1.033   1.756   0.190 -0.3861  0.3849  0.1812
 5242TIP3    H115732   0.978   1.769   0.267 -1.4914 -1.2221 -0.2650
 5242TIP3    H215733   1.079   1.674   0.207 -0.0021  0.4543 -0.4899
 5243TIP3   OH215734   2.970   2.624   0.875 -0.2800  0.3074  0.1982
 5243TIP3    H115735   2.974   2.560   0.804  0.9898  0.2815  0.2634
 5243TIP3    H215736   3.034   2.691   0.850 -2.0219  1.9217 -0.1892
 5244TIP3   OH215737   2.581   2.976   0.470  0.2183 -0.0835 -0.2050
 5244TIP3    H115738   2.548   3.063   0.494 -0.6049 -0.6262  0.7559
 5244TIP3    H215739   2.568   2.971   0.375 -2.2267 -0.1109  0.0544
 5245TIP3   OH215740   3.107   5.694   1.728 -0.3576 -0.0151  0.2406
 5245TIP3    H115741   3.146   5.778   1.706  0.2492 -0.2090  0.5480
 5245TIP3    H215742   3.036   5.716   1.789  0.2881  0.2228  0.9297
 5246TIP3   OH215743   3.161   5.808   4.481 -0.1738 -0.1693 -0.2415
 5246TIP3    H115744   3.088   5.755   4.512  1.1804 -1.4884  0.8531
 5246TIP3    H215745   3.168   5.879   4.545 -0.0524 -0.4520  0.0609
 5247TIP3   OH215746   4.495   2.068   0.208 -0.1364 -0.0604  0.1906
 5247TIP3    H115747   4.411   2.071   0.163 -1.2089 -0.2078  2.0751
 5247TIP3    H215748   4.543   2.143   0.175 -2.0465  1.5720  0.9218
 5248TIP3   OH215749   0.965   3.844   0.249 -0.2929 -0.1074 -0.1710
 5248TIP3    H115750   1.026   3.919   0.245 -0.0754 -0.3291 -1.7849
 5248TIP3    H215751   1.003   3.786   0.315 -0.8939  1.5365  1.7030
 5249TIP3   OH215752   1.948   5.346   4.230 -0.2958 -0.3349 -0.0257
 5249TIP3    H115753   1.962   5.260   4.268  2.4173  0.0649  0.1000
 5249TIP3    H215754   2.006   5.348   4.153  0.9282  1.8481  0.8528
 5250TIP3   OH215755   4.419   2.766   3.722  0.4615 -0.0995 -0.5451
 5250TIP3    H115756   4.512   2.747   3.712  0.5729 -0.0675  0.3868
 5250TIP3    H215757   4.376   2.680   3.719  0.3848 -0.0383 -2.1592
 5251TIP3   OH215758   0.411   2.073   3.016  0.6591 -0.1884  0.3045
 5251TIP3    H115759   0.390   2.148   2.961  2.4039 -0.3303 -0.6262
 5251TIP3    H215760   0.395   1.997   2.960  0.7605 -0.4187  0.5867
 5252TIP3   OH215761   3.791   0.086   1.444 -0.2522 -0.2397  1.1477
 5252TIP3    H115762   3.830   0.164   1.404 -0.6646 -0.5269  0.1578
 5252TIP3    H215763   3.867   0.035   1.473  0.0546  0.0933  0.9531
 5253TIP3   OH215764   5.127   2.527   4.291 -0.0234 -0.2401  0.9022
 5253TIP3    H115765   5.173   2.598   4.248  0.1014 -1.1516 -0.5195
 5253TIP3    H215766   5.172   2.447   4.262 -0.7124 -0.9610  1.7454
 5254TIP3   OH215767   0.298   1.345   4.391 -0.5717 -0.0296  0.5822
 5254TIP3    H115768   0.323   1.426   4.434  2.9875 -0.9405  0.5188
 5254TIP3    H215769   0.285   1.282   4.462  2.5396 -0.8123  0.5801
 5255TIP3   OH215770   3.878   1.769   1.546 -0.3823  0.4484  0.2302
 5255TIP3    H115771   3.913   1.804   1.628 -1.7738 -1.0279  1.5248
 5255TIP3    H215772   3.953   1.762   1.488  0.5664  1.9385  1.2080
 5256TIP3   OH215773   5.030   0.883   1.059 -0.8154  0.1094 -0.9388
 5256TIP3    H115774   5.081   0.803   1.068  1.6346  1.5087 -1.5444
 5256TIP3    H215775   4.941   0.853   1.041 -0.3445 -2.4552  0.5205
 5257TIP3   OH215776   3.561   4.259   3.725 -0.4250 -0.1121 -0.0855
 5257TIP3    H115777   3.523   4.334   3.679  0.4775  1.3390  1.4087
 5257TIP3    H215778   3.633   4.231   3.669 -0.7453  0.1661 -0.6510
 5258TIP3   OH215779   3.061   0.001   1.659 -1.0733 -0.1475  0.0923
 5258TIP3    H115780   3.098   0.053   1.587  1.0115 -2.0747 -0.3362
 5258TIP3    H215781   2.967   0.022   1.657 -0.9366  0.6601 -2.5119
 5259TIP3   OH215782   3.251   5.618   2.997  0.0411  0.6312 -0.5158
 5259TIP3    H115783   3.299   5.571   2.928  1.7924  0.4181  0.7817
 5259TIP3    H215784   3.192   5.552   3.033 -1.2608  0.8675 -2.0567
 5260TIP3   OH215785   5.462   1.250   3.487 -0.3424  0.1549  0.1689
 5260TIP3    H115786   5.487   1.314   3.421  1.2300  0.1617  0.7307
 5260TIP3    H215787   5.446   1.169   3.438 -1.4645  0.7227 -0.4438
 5261TIP3   OH215788   5.428   5.681   0.892 -0.3792 -0.4008  0.5334
 5261TIP3    H115789   5.459   5.617   0.956  1.6019 -0.3071 -0.2641
 5261TIP3    H215790   5.430   5.635   0.808  1.8034  0.8550 -0.1706
 5262TIP3   OH215791   1.035   4.422   1.033 -0.2812  0.0524 -0.1531
 5262TIP3    H115792   1.024   4.342   1.084  0.6896  0.3957  0.6286
 5262TIP3    H215793   0.985   4.407   0.953 -0.4068 -1.1876  0.1440
 5263TIP3   OH215794   5.719   5.763   2.099  0.1406  0.4727 -0.0466
 5263TIP3    H115795   5.644   5.766   2.039  1.4227 -0.7315 -1.8113
 5263TIP3    H215796   5.716   5.847   2.145 -3.1286 -0.1087  1.0806
 5264TIP3   OH215797   5.526   0.177   2.560  0.0605  0.6230 -0.5881
 5264TIP3    H115798   5.540   0.128   2.642 -3.0460  1.7985  0.8125
 5264TIP3    H215799   5.503   0.266   2.589 -0.9178  1.1421 -2.7484
 5265TIP3   OH215800   5.228   3.653   3.844 -0.3980 -0.6216  0.1843
 5265TIP3    H115801   5.221   3.738   3.800  0.5104 -0.5331  0.1890
 5265TIP3    H215802   5.240   3.591   3.772 -0.0697 -0.6159  0.2298
 5266TIP3   OH215803   2.705   1.560   4.879 -0.2869 -0.1032 -0.4148
 5266TIP3    H115804   2.700   1.471   4.911  0.1584 -0.5585 -1.5376
 5266TIP3    H215805   2.791   1.566   4.836 -0.1576  0.9686 -0.0484
 5267TIP3   OH215806   1.733   5.059   2.577  0.1698 -0.5343 -0.0596
 5267TIP3    H115807   1.726   4.964   2.583  0.2273 -0.4845  0.9632
 5267TIP3    H215808   1.771   5.086   2.660 -1.3337  0.5323  0.3233
 5268TIP3   OH215809   1.615   2.526   1.466  0.7466 -0.0748  0.3697
 5268TIP3    H115810   1.709   2.533   1.479  0.6695  0.0774  0.8780
 5268TIP3    H215811   1.599   2.434   1.444  1.0625 -0.0034 -0.1663
 5269TIP3   OH215812   2.835   0.072   3.870  0.3321 -0.1141  0.6841
 5269TIP3    H115813   2.914   0.102   3.826  1.3262 -2.5566  0.6556
 5269TIP3    H215814   2.866   0.039   3.954 -1.0819  1.3185  1.8381
 5270TIP3   OH215815   5.588   4.003   4.822  0.2277 -0.2633  0.1756
 5270TIP3    H115816   5.577   4.053   4.741  0.6168  0.0750  0.3287
 5270TIP3    H215817   5.561   4.063   4.892 -0.2320 -0.5984  0.2922
 5271TIP3   OH215818   0.128   1.830   3.396 -0.1396 -0.3280  0.3133
 5271TIP3    H115819   0.106   1.853   3.487 -1.6135  2.1903 -0.5577
 5271TIP3    H215820   0.054   1.863   3.345  0.1114 -2.6896 -1.7448
 5272TIP3   OH215821   0.366   1.358   1.468  0.5912  0.1097  0.2520
 5272TIP3    H115822   0.381   1.304   1.390  1.8829  0.2934  0.3571
 5272TIP3    H215823   0.412   1.313   1.538 -1.5525 -0.6982  1.2170
 5273TIP3   OH215824   4.156   4.902   1.625 -0.3962  0.5262  1.0608
 5273TIP3    H115825   4.120   4.838   1.564  0.0780  0.2555  1.0601
 5273TIP3    H215826   4.203   4.964   1.568  1.9100 -0.9283  1.2760
 5274TIP3   OH215827   5.567   5.686   1.494 -0.5848  0.0165  1.0008
 5274TIP3    H115828   5.534   5.596   1.502 -0.7527  0.0533  0.7107
 5274TIP3    H215829   5.623   5.697   1.571 -0.5528 -0.3417  1.0317
 5275TIP3   OH215830   0.938   2.623   1.976 -0.1644  0.0074 -0.5109
 5275TIP3    H115831   0.961   2.534   1.951 -1.6537 -0.2064 -1.2380
 5275TIP3    H215832   0.929   2.670   1.893 -1.2381  0.3344 -0.2257
 5276TIP3   OH215833   1.230   1.622   1.811  0.0788 -0.0736 -0.0354
 5276TIP3    H115834   1.309   1.589   1.853  0.1696 -1.0089 -0.9124
 5276TIP3    H215835   1.186   1.544   1.777 -2.1989  0.2141  2.0299
 5277TIP3   OH215836   2.515   3.719   4.704 -0.0641  0.0236 -0.2296
 5277TIP3    H115837   2.491   3.774   4.629 -1.2707 -1.2032 -0.7812
 5277TIP3    H215838   2.509   3.629   4.671  0.5405 -0.5033  1.0259
 5278TIP3   OH215839   4.677   1.282   3.861  0.3575 -0.1679 -0.2277
 5278TIP3    H115840   4.703   1.340   3.933  0.4320 -0.8121  0.2735
 5278TIP3    H215841   4.587   1.257   3.882 -0.8047  2.1114 -1.9878
 5279TIP3   OH215842   2.192   5.084   4.234  0.4772 -0.2661  0.3133
 5279TIP3    H115843   2.185   5.154   4.169  1.0830  0.3417  0.8954
 5279TIP3    H215844   2.211   5.005   4.182 -0.2251 -0.0171 -0.3465
 5280TIP3   OH215845   3.528   4.328   2.438 -0.5836  0.0008 -0.1204
 5280TIP3    H115846   3.614   4.307   2.474 -0.3357  0.3345 -0.5126
 5280TIP3    H215847   3.466   4.280   2.494  0.0013 -3.4299 -2.1446
 5281TIP3   OH215848   4.883   3.361   2.562  0.8063  0.8138 -0.6294
 5281TIP3    H115849   4.834   3.316   2.494 -0.9738  0.3458  0.8877
 5281TIP3    H215850   4.929   3.291   2.609  2.2348  1.1577 -1.4316
 5282TIP3   OH215851   5.806   2.118   3.836  0.1185  0.2025 -0.2982
 5282TIP3    H115852   5.741   2.047   3.834  0.8122 -0.5461  1.2959
 5282TIP3    H215853   5.804   2.155   3.748 -2.2317  0.0202 -0.3997
 5283TIP3   OH215854   2.278   5.290   2.613  0.1904  0.3433  0.1834
 5283TIP3    H115855   2.256   5.361   2.673 -1.5785 -1.8181  2.2876
 5283TIP3    H215856   2.206   5.287   2.550 -1.1318 -1.0862  1.6597
 5284TIP3   OH215857   1.961   0.972   1.250  0.1218  0.1841 -0.4927
 5284TIP3    H115858   2.056   0.957   1.246 -0.2355 -2.4647 -1.5247
 5284TIP3    H215859   1.931   0.916   1.321 -0.6705  1.1875 -0.0147
 5285TIP3   OH215860   2.141   5.827   4.296  0.0337  0.3071 -0.3005
 5285TIP3    H115861   2.069   5.865   4.346 -0.4395  0.5284 -1.1335
 5285TIP3    H215862   2.105   5.747   4.258  1.1674 -1.3169  1.8501
 5286TIP3   OH215863   2.473   4.247   4.980 -0.2116  0.3610 -0.0498
 5286TIP3    H115864   2.502   4.189   4.909  2.6868  0.2368  1.1018
 5286TIP3    H215865   2.516   4.331   4.962 -0.5711  0.7432  0.8126
 5287TIP3   OH215866   0.468   5.821   5.013  0.1761 -0.5368 -0.4906
 5287TIP3    H115867   0.530   5.837   4.942 -0.7622 -1.0764 -1.4468
 5287TIP3    H215868   0.492   5.884   5.080  0.7029  0.3856 -1.5228
 5288TIP3   OH215869   4.079   2.390   4.967  0.8835 -0.0737  0.0453
 5288TIP3    H115870   4.175   2.386   4.960  0.8499  0.0078 -0.4696
 5288TIP3    H215871   4.063   2.404   5.061  1.3975  0.5121  0.0556
 5289TIP3   OH215872   4.975   1.295   2.461 -0.2872 -0.3512 -0.0481
 5289TIP3    H115873   4.902   1.311   2.401 -0.3324  1.0044  0.3134
 5289TIP3    H215874   5.052   1.328   2.415  0.0224 -1.2516 -0.1965
 5290TIP3   OH215875   4.912   5.703   1.781 -0.9280  0.5563  0.0777
 5290TIP3    H115876   4.964   5.742   1.711 -0.8448 -0.0674 -0.2106
 5290TIP3    H215877   4.907   5.610   1.759 -0.0704  0.1598  1.4069
 5291TIP3   OH215878   0.737   3.932   2.056 -0.0790 -0.3910  0.6486
 5291TIP3    H115879   0.690   3.875   2.117 -0.1388 -2.2400 -1.0145
 5291TIP3    H215880   0.824   3.942   2.096 -1.0788  1.2097  2.6223
 5292TIP3   OH215881   2.193   4.977   0.417 -0.2507  0.5634  0.4950
 5292TIP3    H115882   2.221   5.025   0.338 -1.8744  1.2564  0.2803
 5292TIP3    H215883   2.267   4.984   0.477  0.1237  2.1271 -0.0805
 5293TIP3   OH215884   1.077   5.210   1.962 -0.5010 -0.7422  0.3411
 5293TIP3    H115885   1.162   5.247   1.987 -1.0851 -0.4597  2.0065
 5293TIP3    H215886   1.042   5.272   1.898  0.7539 -1.1511 -0.8117
 5294TIP3   OH215887   0.232   0.233   4.271  0.7088 -0.0644 -0.3280
 5294TIP3    H115888   0.320   0.201   4.294  0.8837  0.3688 -0.3980
 5294TIP3    H215889   0.198   0.166   4.212  1.7088  0.6429 -1.7868
 5295TIP3   OH215890   4.359   2.219   1.390 -0.5656  0.5652 -0.3299
 5295TIP3    H115891   4.279   2.167   1.382  1.4720 -2.7548 -1.9134
 5295TIP3    H215892   4.394   2.223   1.300  0.1900  3.5440 -0.0044
 5296TIP3   OH215893   0.539   3.724   3.077 -0.0398  0.5473 -0.0941
 5296TIP3    H115894   0.539   3.804   3.130  1.9279 -0.0998  0.9742
 5296TIP3    H215895   0.509   3.656   3.137 -0.8871  0.3136 -0.7603
 5297TIP3   OH215896   4.468   3.517   3.592 -0.2034 -0.0395 -0.5602
 5297TIP3    H115897   4.491   3.506   3.500  0.3327  0.9524 -0.5523
 5297TIP3    H215898   4.403   3.449   3.609  1.2308 -1.6293 -1.1163
 5298TIP3   OH215899   4.395   2.456   0.092  0.4014 -0.6771 -0.4588
 5298TIP3    H115900   4.443   2.534   0.066 -0.1149 -1.0143 -2.5368
 5298TIP3    H215901   4.367   2.416   0.010 -0.6913 -2.2079  0.6092
 5299TIP3   OH215902   4.159   5.246   0.153 -1.1559 -0.7146  0.1981
 5299TIP3    H115903   4.135   5.181   0.086 -1.1686  0.3337 -0.8512
 5299TIP3    H215904   4.082   5.303   0.160 -0.3059  0.6003 -0.6568
 5300TIP3   OH215905   5.191   5.009   1.471 -0.4116 -0.0387  0.2692
 5300TIP3    H115906   5.203   5.068   1.545 -0.3982 -0.8012  0.8938
 5300TIP3    H215907   5.216   4.923   1.505 -0.8637 -0.4810 -0.4813
 5301TIP3   OH215908   3.134   4.749   1.623  0.1630 -0.0438 -0.1891
 5301TIP3    H115909   3.143   4.834   1.579 -0.5310  0.2473  0.2040
 5301TIP3    H215910   3.223   4.725   1.648  0.4314  0.3087 -0.7911
 5302TIP3   OH215911   5.092   2.484   1.466 -0.2845 -0.0778 -0.1545
 5302TIP3    H115912   5.011   2.535   1.459  0.2933  0.8940  0.1300
 5302TIP3    H215913   5.147   2.516   1.395  0.4740  0.4243  0.6467
 5303TIP3   OH215914   5.393   0.302   3.549  0.0250 -0.1596  0.2312
 5303TIP3    H115915   5.364   0.234   3.489 -1.4661 -0.0971  0.8340
 5303TIP3    H215916   5.467   0.344   3.504 -0.7646 -0.3993 -1.3560
 5304TIP3   OH215917   0.177   0.519   1.921 -0.5292 -0.2020 -0.0598
 5304TIP3    H115918   0.258   0.469   1.910  0.6150  1.2942  0.9976
 5304TIP3    H215919   0.206   0.602   1.959 -2.8060 -0.4954  2.6114
 5305TIP3   OH215920   4.914   2.385   2.288  0.5686 -0.3444 -0.1083
 5305TIP3    H115921   4.930   2.295   2.260  1.5595 -1.0082  2.3494
 5305TIP3    H215922   4.950   2.390   2.377 -1.9037  1.6819  0.9300
 5306TIP3   OH215923   3.982   2.770   0.367 -0.3805 -0.9714  0.0188
 5306TIP3    H115924   4.068   2.746   0.333 -0.2573  0.0576 -0.4171
 5306TIP3    H215925   3.966   2.858   0.334 -1.3844 -0.9470  0.5171
 5307TIP3   OH215926   0.774   2.098   4.943 -0.5506  0.6417  0.1960
 5307TIP3    H115927   0.691   2.120   4.986  1.4119  2.6798  3.3374
 5307TIP3    H215928   0.780   2.159   4.870 -0.4188  2.7922  1.9213
 5308TIP3   OH215929   6.050   0.448   0.185  0.2383 -0.1559 -0.4640
 5308TIP3    H115930   6.061   0.511   0.256 -1.0310  2.8794 -2.7699
 5308TIP3    H215931   5.957   0.426   0.186  0.4303 -1.0446 -0.5003
 5309TIP3   OH215932   3.313   3.627   4.943  0.0842 -0.0294 -0.2527
 5309TIP3    H115933   3.282   3.685   4.874  0.9912  1.7595  0.7878
 5309TIP3    H215934   3.405   3.611   4.922 -0.0353 -0.7483 -0.2756
 5310TIP3   OH215935   2.553   1.957   2.565 -0.1696 -0.1874  0.3145
 5310TIP3    H115936   2.474   1.917   2.528 -0.4165 -0.7556  1.3843
 5310TIP3    H215937   2.519   2.021   2.628  0.2281  0.3121  0.0217
 5311TIP3   OH215938   1.200   0.640   3.231  0.2749 -0.0030  1.0875
 5311TIP3    H115939   1.271   0.647   3.294  1.6017  1.1716 -0.4919
 5311TIP3    H215940   1.145   0.716   3.247  0.4627  0.1482  1.0132
 5312TIP3   OH215941   2.470   3.639   3.218 -0.2830  0.5623  0.2827
 5312TIP3    H115942   2.433   3.618   3.303  0.0105  1.1482  0.5661
 5312TIP3    H215943   2.396   3.636   3.158 -0.5281  0.3416  0.5936
 5313TIP3   OH215944   2.540   4.128   0.493 -0.1978 -0.1924  0.3858
 5313TIP3    H115945   2.610   4.090   0.546  0.8912  0.4890 -0.5329
 5313TIP3    H215946   2.460   4.111   0.544  0.3834 -2.5327  0.6203
 5314TIP3   OH215947   0.589   3.265   3.349 -1.1715 -0.8834  0.2753
 5314TIP3    H115948   0.629   3.231   3.429  0.4534 -0.5103 -0.3565
 5314TIP3    H215949   0.662   3.280   3.290 -1.7025  3.5226  0.3965
 5315TIP3   OH215950   6.214   4.441   4.672  0.3491  0.3166  0.0310
 5315TIP3    H115951   6.175   4.528   4.658  1.3105  1.1929  2.2488
 5315TIP3    H215952   6.139   4.385   4.692 -0.1120  1.1705  0.8112
 5316TIP3   OH215953  -0.002   2.934   2.585  0.0854  0.0506  0.4272
 5316TIP3    H115954  -0.059   2.991   2.637  0.6659  0.2381  0.8682
 5316TIP3    H215955   0.081   2.934   2.632  0.5686  0.0724 -0.4007
 5317TIP3   OH215956   1.246   2.149   4.453 -0.5097  0.3605 -0.5639
 5317TIP3    H115957   1.204   2.147   4.539  2.0262  0.9856  0.7717
 5317TIP3    H215958   1.203   2.079   4.404 -2.0413  0.0002  1.1907
 5318TIP3   OH215959   0.731   1.661   1.514  0.1058 -0.3131 -0.1380
 5318TIP3    H115960   0.696   1.629   1.431 -1.5657  1.3240 -0.1476
 5318TIP3    H215961   0.802   1.720   1.488  1.3019 -1.7321 -0.2365
 5319TIP3   OH215962   2.905   2.099   4.341 -0.6764 -0.0175 -0.2790
 5319TIP3    H115963   2.940   2.142   4.420 -1.5279  1.8559 -0.8626
 5319TIP3    H215964   2.969   2.119   4.273 -0.3586 -0.9451 -0.2739
 5320TIP3   OH215965   5.030   5.986   2.539 -0.0352 -0.0021 -0.3747
 5320TIP3    H115966   4.986   5.952   2.617 -0.0664  2.0767  0.5749
 5320TIP3    H215967   4.976   5.956   2.466 -2.4708  1.5333  0.6909
 5321TIP3   OH215968   4.765   2.084   4.713 -0.1296 -0.1097  0.4361
 5321TIP3    H115969   4.845   2.099   4.762 -0.1017 -0.3991  0.4811
 5321TIP3    H215970   4.726   2.171   4.703  1.4260  0.4339 -1.7707
 5322TIP3   OH215971   2.732   2.119   2.938 -0.1288  0.7609  0.2175
 5322TIP3    H115972   2.705   2.211   2.942 -0.4156  0.7058 -0.3886
 5322TIP3    H215973   2.809   2.119   2.881  0.5828  0.7792  1.1509
 5323TIP3   OH215974   1.072   0.241   0.330 -0.5895  0.3460 -0.5327
 5323TIP3    H115975   1.038   0.293   0.257 -1.5588  0.6813  0.1353
 5323TIP3    H215976   1.165   0.230   0.311 -0.9276 -0.0458 -2.0946
 5324TIP3   OH215977   0.642   5.753   0.356  0.3265  0.3333  0.5893
 5324TIP3    H115978   0.600   5.798   0.429  0.9270 -1.2422  1.9528
 5324TIP3    H215979   0.584   5.680   0.335  0.8434 -0.0408  0.4223
 5325TIP3   OH215980   5.516   4.589   3.143  0.1026  0.0363  0.5862
 5325TIP3    H115981   5.471   4.520   3.192 -0.3635  0.2545  0.4717
 5325TIP3    H215982   5.467   4.597   3.061  0.3168  0.3114  0.4816
 5326TIP3   OH215983   3.422   3.119   2.673 -0.7525 -0.0654  0.2646
 5326TIP3    H115984   3.336   3.103   2.711 -0.7711  1.7881  1.1257
 5326TIP3    H215985   3.479   3.138   2.748  0.3682 -1.0339 -0.3038
 5327TIP3   OH215986   4.337   2.628   2.240 -0.1346  0.4200 -0.1348
 5327TIP3    H115987   4.412   2.608   2.184  0.1544 -1.8143  0.9408
 5327TIP3    H215988   4.374   2.677   2.313 -0.1985  1.6441 -0.8949
 5328TIP3   OH215989   5.638   5.873   0.907 -0.9189 -0.0302  0.0262
 5328TIP3    H115990   5.552   5.839   0.928 -1.2464  0.4094 -0.5752
 5328TIP3    H215991   5.661   5.832   0.824 -0.5496 -0.1413  0.1806
 5329TIP3   OH215992   5.587   0.092   0.147 -0.6827  0.2561  0.0473
 5329TIP3    H115993   5.643   0.113   0.221  1.8213 -2.4723 -0.8982
 5329TIP3    H215994   5.547   0.176   0.123  2.1766  2.1756  1.4281
 5330TIP3   OH215995   2.264   1.468   1.517 -0.1871  0.2554  0.0984
 5330TIP3    H115996   2.279   1.495   1.608 -2.8258  0.7248  0.4957
 5330TIP3    H215997   2.308   1.535   1.464 -0.2370  1.0870  1.0661
 5331TIP3   OH215998   1.574   4.267   3.833  0.4817 -0.2678 -0.8347
 5331TIP3    H115999   1.578   4.203   3.762 -1.5739  2.1825 -3.4301
 5331TIP3    H216000   1.493   4.245   3.880  0.0107  0.1204 -1.4486
 5332TIP3   OH216001   0.649   3.482   2.673  0.0285  0.4189 -0.1560
 5332TIP3    H116002   0.558   3.512   2.667 -0.0438 -0.0308 -1.9394
 5332TIP3    H216003   0.658   3.417   2.604  1.3541 -0.5673  0.8843
 5333TIP3   OH216004   3.183   3.183   4.500  1.0904 -0.5018  0.0787
 5333TIP3    H116005   3.230   3.260   4.531  2.3031 -1.0886 -0.2353
 5333TIP3    H216006   3.186   3.122   4.574 -3.7563  1.2218  2.1253
 5334TIP3   OH216007   2.844   3.161   1.910  0.0440  0.3202 -0.0956
 5334TIP3    H116008   2.859   3.172   1.816  3.1591  0.6024  0.2945
 5334TIP3    H216009   2.752   3.140   1.918 -0.6816  1.7695 -3.0886
 5335TIP3   OH216010   4.371   4.854   1.293  1.1386  0.6873 -0.2594
 5335TIP3    H116011   4.289   4.839   1.246  1.7343 -0.3193 -0.9985
 5335TIP3    H216012   4.359   4.940   1.333 -0.8750 -0.0556  0.9065
 5336TIP3   OH216013   1.782   1.468   0.245 -0.1285 -0.1941  0.1314
 5336TIP3    H116014   1.715   1.461   0.313 -0.2756  1.2600  0.1724
 5336TIP3    H216015   1.740   1.517   0.175  0.1774 -1.2700 -0.8259
 5337TIP3   OH216016   3.274   4.972   1.457  0.2477  0.0618 -0.3459
 5337TIP3    H116017   3.347   4.984   1.517  0.0949 -0.7258  0.0006
 5337TIP3    H216018   3.221   5.051   1.468 -0.4584 -0.6190  1.5105
 5338TIP3   OH216019   2.039   1.572   4.665 -0.3881 -0.2104 -0.6319
 5338TIP3    H116020   2.054   1.528   4.748  1.1631 -0.3281 -0.9439
 5338TIP3    H216021   2.083   1.518   4.600  1.5573  1.7004 -1.0296
 5339TIP3   OH216022   2.552   2.799   0.701 -0.4580 -0.1099  0.2225
 5339TIP3    H116023   2.621   2.846   0.748  0.3934  0.0037 -1.0831
 5339TIP3    H216024   2.562   2.827   0.610 -1.3346 -1.1626 -0.2204
 5340TIP3   OH216025   3.386   4.768   2.053  0.2536 -0.1445  0.1785
 5340TIP3    H116026   3.341   4.728   2.128  0.7507  1.2468  1.2754
 5340TIP3    H216027   3.437   4.697   2.014 -1.6413 -1.3967 -0.1586
 5341TIP3   OH216028   1.575   0.559   0.211 -0.3732  0.5581 -0.4134
 5341TIP3    H116029   1.572   0.599   0.298 -0.6591 -1.3372  0.5140
 5341TIP3    H216030   1.496   0.592   0.166 -1.2454  0.1136  0.7450
 5342TIP3   OH216031   1.292   5.196   1.097  0.2435  0.4817 -0.5046
 5342TIP3    H116032   1.387   5.185   1.094  0.1654 -0.2204 -0.4317
 5342TIP3    H216033   1.258   5.136   1.030 -0.1623  0.6266 -0.4346
 5343TIP3   OH216034   2.101   5.041   2.185 -0.0540 -0.0609 -0.0091
 5343TIP3    H116035   2.124   4.952   2.214  0.6710  0.4703  1.1229
 5343TIP3    H216036   2.175   5.095   2.213 -1.7210  1.3860  1.9670
 5344TIP3   OH216037   5.897   1.316   2.064  0.8468 -0.1093  0.0890
 5344TIP3    H116038   5.939   1.335   2.148  1.4261 -0.1950 -0.1752
 5344TIP3    H216039   5.829   1.382   2.055  0.8452 -0.0466  0.5870
 5345TIP3   OH216040   4.774   2.286   3.450 -0.5559  0.2137  0.6709
 5345TIP3    H116041   4.743   2.362   3.402 -0.4707  0.0331  0.3292
 5345TIP3    H216042   4.775   2.314   3.542  1.2880  1.2561  0.3699
 5346TIP3   OH216043   4.151   1.636   4.827  0.2971 -0.5441 -0.3600
 5346TIP3    H116044   4.207   1.701   4.869  0.6104  0.1220 -1.7419
 5346TIP3    H216045   4.179   1.636   4.735  0.9026 -3.2738 -0.2684
 5347TIP3   OH216046   2.877   1.241   2.844 -0.4291 -0.1536 -0.1842
 5347TIP3    H116047   2.951   1.241   2.784  0.2993 -1.4732  0.6826
 5347TIP3    H216048   2.912   1.274   2.927 -0.9976 -0.0282  0.0126
 5348TIP3   OH216049   2.077   3.893   0.708  0.1318  0.3486 -0.2683
 5348TIP3    H116050   2.002   3.948   0.685 -0.6321 -0.8016 -0.6113
 5348TIP3    H216051   2.117   3.938   0.783 -0.5180  1.3106 -0.4718
 5349TIP3   OH216052   4.960   4.558   0.544 -0.0402 -0.8063 -0.3232
 5349TIP3    H116053   4.864   4.559   0.536 -0.0886  0.6658  0.2126
 5349TIP3    H216054   4.977   4.604   0.626  1.2146  0.5116 -1.2943
 5350TIP3   OH216055   3.872   3.046   1.948 -0.3989  0.6644  0.0817
 5350TIP3    H116056   3.912   2.960   1.961  0.6105  1.0808 -0.1987
 5350TIP3    H216057   3.778   3.029   1.956 -0.3614 -0.8133 -1.8628
 5351TIP3   OH216058   6.209   3.184   4.162 -0.5103  0.2337 -0.3337
 5351TIP3    H116059   6.218   3.111   4.223 -1.3143 -0.4828 -1.0393
 5351TIP3    H216060   6.114   3.194   4.150 -0.4125  1.3372 -0.3255
 5352TIP3   OH216061   1.682   3.150   0.917  0.1348  0.2283 -0.3588
 5352TIP3    H116062   1.718   3.231   0.952  0.8996  0.1292 -0.8922
 5352TIP3    H216063   1.707   3.083   0.979  0.6216  0.2074 -0.5727
 5353TIP3   OH216064   4.900   0.421   5.065  0.4219 -0.1731 -0.2459
 5353TIP3    H116065   4.808   0.412   5.090  0.3203 -0.6896 -0.7854
 5353TIP3    H216066   4.937   0.479   5.131 -0.3010  0.0676 -0.0421
 5354TIP3   OH216067   0.911   0.231   0.864 -0.4511  0.7350  0.4699
 5354TIP3    H116068   0.987   0.220   0.921  0.8123  2.6216 -0.7533
 5354TIP3    H216069   0.931   0.179   0.786 -0.0688  1.7777 -0.1444
 5355TIP3   OH216070   4.421   2.083   4.654  0.1992  0.3164  0.4882
 5355TIP3    H116071   4.462   2.026   4.719 -1.1243 -0.9949  0.2440
 5355TIP3    H216072   4.342   2.036   4.627  0.3048  1.1607 -1.5245
 5356TIP3   OH216073   0.471   1.064   0.193 -0.3638 -0.1105 -0.3088
 5356TIP3    H116074   0.462   1.053   0.099 -2.0703  0.7195 -0.2756
 5356TIP3    H216075   0.555   1.109   0.205 -0.4835  0.4369 -1.4739
 5357TIP3   OH216076   1.816   2.122   1.495 -0.0145  0.0381  0.6727
 5357TIP3    H116077   1.852   2.142   1.582  0.4486 -1.1565  0.7807
 5357TIP3    H216078   1.866   2.045   1.466  0.3200  0.8406 -0.9608
 5358TIP3   OH216079   2.516   3.289   2.235  1.0380 -1.2922 -0.2676
 5358TIP3    H116080   2.519   3.245   2.320 -2.5774  0.0467  0.7437
 5358TIP3    H216081   2.499   3.381   2.256 -2.2340 -1.2551 -2.2752
 5359TIP3   OH216082   1.478   5.867   4.712  0.3865 -0.2821  0.1360
 5359TIP3    H116083   1.456   5.851   4.620 -0.3234  0.9133  0.0825
 5359TIP3    H216084   1.414   5.815   4.761 -1.0180  1.1740 -0.0502
 5360TIP3   OH216085   0.881   1.798   2.985  0.4588  0.3311  0.2822
 5360TIP3    H116086   0.857   1.815   3.075 -0.5881  0.1289  0.0499
 5360TIP3    H216087   0.949   1.863   2.966 -0.3398  1.3458  0.7657
 5361TIP3   OH216088   4.386   4.664   0.751 -0.2523  0.5017 -0.1197
 5361TIP3    H116089   4.351   4.687   0.665  2.2904 -0.9945 -1.6888
 5361TIP3    H216090   4.339   4.584   0.775  1.7519 -1.4495 -2.1640
 5362TIP3   OH216091   5.330   4.593   1.953  0.4479  0.2374  0.2207
 5362TIP3    H116092   5.277   4.515   1.971 -1.2091  1.2379 -0.1896
 5362TIP3    H216093   5.386   4.566   1.880  0.3403 -0.7619  0.4829
 5363TIP3   OH216094   4.954   4.471   3.622  0.0643  0.4176 -0.3509
 5363TIP3    H116095   4.884   4.471   3.688 -1.0826 -0.9958 -1.4843
 5363TIP3    H216096   4.928   4.539   3.559  0.0937  0.3947 -0.3878
 5364TIP3   OH216097   0.848   4.861   2.612  0.2867 -0.0193 -0.0281
 5364TIP3    H116098   0.935   4.895   2.590  1.4859 -3.1556 -0.6672
 5364TIP3    H216099   0.851   4.769   2.586 -3.4564 -0.1408 -0.5661
 5365TIP3   OH216100   5.940   1.652   1.301 -0.4247  0.6190 -0.0630
 5365TIP3    H116101   5.850   1.675   1.326 -0.8185  0.4214 -1.2298
 5365TIP3    H216102   5.950   1.561   1.331 -0.1888  1.0163  1.1250
 5366TIP3   OH216103   5.195   5.017   4.204  0.0109 -0.3292 -0.2579
 5366TIP3    H116104   5.239   4.985   4.282 -1.7608 -0.4767  0.7401
 5366TIP3    H216105   5.217   4.953   4.136  2.4378  0.3762 -0.2120
 5367TIP3   OH216106   2.102   2.579   3.592  0.5353 -0.1104  0.2694
 5367TIP3    H116107   2.182   2.559   3.640  0.4742  0.2854  0.5371
 5367TIP3    H216108   2.132   2.604   3.504  0.7126  0.1913  0.4171
 5368TIP3   OH216109   2.585   3.477   2.048 -0.3306  0.2581  0.0411
 5368TIP3    H116110   2.676   3.460   2.075 -0.1621 -0.6682 -1.0115
 5368TIP3    H216111   2.536   3.406   2.089 -0.1410 -0.8832 -1.6234
 5369TIP3   OH216112   4.491   5.873   4.355  0.2970 -0.4231 -0.6740
 5369TIP3    H116113   4.484   5.854   4.261  0.0196  1.0489 -0.9722
 5369TIP3    H216114   4.585   5.873   4.372  0.3930  0.2050 -1.1646
 5370TIP3   OH216115   4.249   3.667   3.420  0.0983 -0.4660  0.2060
 5370TIP3    H116116   4.336   3.667   3.380 -0.3017  0.6102 -0.7129
 5370TIP3    H216117   4.263   3.704   3.508  0.3775  1.0227 -0.4352
 5371TIP3   OH216118   2.981   2.107   2.734 -0.2563  0.0510  0.0339
 5371TIP3    H116119   2.989   2.096   2.639  1.8640  1.1719  0.0354
 5371TIP3    H216120   2.994   2.019   2.769  1.2102 -0.0217 -0.6266
 5372TIP3   OH216121   1.422   2.155   4.139  0.3096  0.5257  0.7111
 5372TIP3    H116122   1.419   2.075   4.085 -1.1045 -0.2348  1.8608
 5372TIP3    H216123   1.448   2.124   4.226 -0.1084  1.3412  1.1315
 5373TIP3   OH216124   0.088   5.814   3.565  0.5376 -0.1960  0.1403
 5373TIP3    H116125   0.092   5.905   3.596  1.2570 -0.2183  0.1150
 5373TIP3    H216126   0.110   5.820   3.472 -0.1705 -0.3126 -0.0464
 5374TIP3   OH216127   4.428   4.256   3.964 -0.1419 -0.1312  0.3623
 5374TIP3    H116128   4.336   4.238   3.981 -0.5186  0.9056 -0.4959
 5374TIP3    H216129   4.451   4.198   3.891  0.2170 -1.1833  1.2630
 5375TIP3   OH216130   6.319   0.456   1.432 -0.0068  0.0402 -0.2893
 5375TIP3    H116131   6.271   0.387   1.479 -1.3890  0.7030 -0.6909
 5375TIP3    H216132   6.410   0.444   1.460 -0.3624 -1.3434  0.3875
 5376TIP3   OH216133   1.677   0.170   0.394  0.1834 -0.8081  0.0396
 5376TIP3    H116134   1.717   0.229   0.330 -1.1175 -0.2450 -0.2737
 5376TIP3    H216135   1.704   0.206   0.479  2.1908 -1.7492 -0.1365
 5377TIP3   OH216136   0.246   2.995   3.466 -0.1076 -0.3767  0.2185
 5377TIP3    H116137   0.301   2.947   3.528  0.3469  1.1598  1.0651
 5377TIP3    H216138   0.162   3.004   3.511 -0.3499 -0.8111 -0.1463
 5378TIP3   OH216139   3.637   3.579   1.647  0.9686  0.5428 -0.4488
 5378TIP3    H116140   3.691   3.569   1.726  0.7936  0.6675 -0.3126
 5378TIP3    H216141   3.547   3.566   1.678  1.0623 -2.5173 -1.1425
 5379TIP3   OH216142   3.123   5.464   2.134 -0.0360  0.4716  0.2045
 5379TIP3    H116143   3.082   5.379   2.152 -0.9264  0.7691 -0.3891
 5379TIP3    H216144   3.187   5.474   2.204 -0.3584 -0.4066  0.6441
 5380TIP3   OH216145   5.358   0.470   4.618 -0.4003  0.3084 -0.1869
 5380TIP3    H116146   5.385   0.414   4.692 -0.3325 -0.0440 -0.4743
 5380TIP3    H216147   5.302   0.414   4.565  0.2433  0.2832 -0.8565
 5381TIP3   OH216148   2.341   4.605   5.184 -0.0454 -0.0042 -0.2326
 5381TIP3    H116149   2.298   4.681   5.222  0.8644  0.8096 -0.7572
 5381TIP3    H216150   2.407   4.642   5.125 -0.4991 -1.1993 -1.5644
 5382TIP3   OH216151   1.922   1.919   1.348  0.4531 -0.0432  0.4073
 5382TIP3    H116152   1.859   1.849   1.365  1.4524 -0.6697  1.7960
 5382TIP3    H216153   1.939   1.915   1.254 -1.1213 -0.2360  0.1115
 5383TIP3   OH216154   2.994   2.331   4.552 -0.2584  0.3858  0.6486
 5383TIP3    H116155   2.997   2.405   4.492 -0.5286 -1.2272 -1.4891
 5383TIP3    H216156   3.085   2.311   4.571 -0.2059  2.0642  2.3583
 5384TIP3   OH216157   1.310   0.274   3.911  0.4169 -0.0028 -0.1149
 5384TIP3    H116158   1.220   0.242   3.910  0.6235 -0.6472 -2.3188
 5384TIP3    H216159   1.303   0.361   3.950 -1.0888 -0.1959  0.1242
 5385TIP3   OH216160   4.164   4.260   4.098  0.7125  0.0423  0.5257
 5385TIP3    H116161   4.122   4.175   4.087  0.2316  0.3432 -0.0611
 5385TIP3    H216162   4.118   4.317   4.036  0.3314  0.9800  1.6341
 5386TIP3   OH216163   5.529   2.019   0.003  0.1073  0.1015 -0.0881
 5386TIP3    H116164   5.598   1.957   0.029 -0.0357 -1.0475 -2.2385
 5386TIP3    H216165   5.447   1.971   0.018 -0.2509  1.1812  1.7163
 5387TIP3   OH216166   3.518   0.063   0.294 -0.3071  0.3484  0.0442
 5387TIP3    H116167   3.492   0.043   0.204 -0.3278 -0.3543  0.2021
 5387TIP3    H216168   3.602   0.018   0.306 -1.1514 -1.0825  0.9309
 5388TIP3   OH216169   0.572   3.560   5.050  0.0487  0.3670 -0.8271
 5388TIP3    H116170   0.538   3.483   5.004 -1.6556  0.7553 -0.2668
 5388TIP3    H216171   0.651   3.583   5.001  1.3621 -2.4468 -0.2758
 5389TIP3   OH216172   6.226   1.304   2.268 -0.0132  0.0265  0.4026
 5389TIP3    H116173   6.192   1.343   2.188 -1.3730  0.2348  1.0599
 5389TIP3    H216174   6.229   1.210   2.249 -1.1825 -0.0213  0.4027
 5390TIP3   OH216175   4.359   0.869   2.215  0.1431 -0.3226 -0.4516
 5390TIP3    H116176   4.337   0.877   2.308  2.4634  0.9022  0.0631
 5390TIP3    H216177   4.277   0.842   2.174 -1.5609  1.2988  1.6140
 5391TIP3   OH216178   1.172   0.990   3.801  0.0441 -0.1281 -0.7281
 5391TIP3    H116179   1.123   1.066   3.832  0.2476  0.2028 -1.1950
 5391TIP3    H216180   1.106   0.921   3.790 -0.0550 -0.2007  0.2485
 5392TIP3   OH216181   6.160   2.179   1.581  0.0363  0.1579  0.2481
 5392TIP3    H116182   6.087   2.228   1.618 -0.6911 -0.0639 -0.8247
 5392TIP3    H216183   6.127   2.147   1.496  1.4807  0.3224 -0.4096
 5393TIP3   OH216184   1.313   4.226   3.625 -0.1609 -0.1287 -0.0462
 5393TIP3    H116185   1.219   4.245   3.624  0.1708  2.3079  2.5288
 5393TIP3    H216186   1.354   4.305   3.590  0.9632 -0.7401 -0.1400
 5394TIP3   OH216187   0.447   2.100   4.743  0.0875 -0.4817 -0.2281
 5394TIP3    H116188   0.452   2.160   4.669  1.8605  0.0196  0.2625
 5394TIP3    H216189   0.512   2.033   4.725 -0.1675 -0.9136  0.4056
 5395TIP3   OH216190   2.414   2.830   2.412  0.8833 -0.2449 -0.7599
 5395TIP3    H116191   2.504   2.854   2.390  1.5330  0.0808  1.8876
 5395TIP3    H216192   2.412   2.735   2.405  1.0885 -0.1856 -1.8503
 5396TIP3   OH216193   1.049   5.691   2.273  0.3512  0.8460  0.1580
 5396TIP3    H116194   0.995   5.770   2.266  2.0504  2.0350 -0.3763
 5396TIP3    H216195   1.088   5.682   2.186  0.7646 -0.1502  0.4406
 5397TIP3   OH216196   5.202   0.888   0.387 -0.4301  0.1341  0.3583
 5397TIP3    H116197   5.206   0.796   0.413  0.6546 -0.2507 -1.0663
 5397TIP3    H216198   5.128   0.924   0.437 -0.6925 -1.4266  1.1494
 5398TIP3   OH216199   6.332   0.570   2.686  0.0495 -0.0103  0.4334
 5398TIP3    H116200   6.425   0.555   2.666  0.2673 -1.5501  2.3583
 5398TIP3    H216201   6.290   0.577   2.600  1.6245 -1.4442 -0.5140
 5399TIP3   OH216202   3.531   0.973   5.075  0.8821 -0.1789 -0.7297
 5399TIP3    H116203   3.488   0.978   4.990 -1.9313  1.0101  0.5859
 5399TIP3    H216204   3.472   0.918   5.128  0.9604  1.4256  1.1663
 5400TIP3   OH216205   0.339   4.673   0.844 -0.0063  0.2070  0.2492
 5400TIP3    H116206   0.385   4.590   0.857 -0.2571  0.2733  1.7839
 5400TIP3    H216207   0.383   4.714   0.769  0.2526 -1.2097 -0.3970
 5401TIP3   OH216208   3.420   2.130   2.262 -0.5878  0.5507  0.5424
 5401TIP3    H116209   3.398   2.223   2.266 -0.4191  0.5720  1.0774
 5401TIP3    H216210   3.509   2.125   2.296  0.3887  0.5040 -1.8106
 5402TIP3   OH216211   4.235   5.661   5.170 -0.5787 -0.6216 -0.0358
 5402TIP3    H116212   4.277   5.747   5.169 -1.1708 -0.3304 -0.3024
 5402TIP3    H216213   4.181   5.660   5.091 -0.7759 -1.1368  0.1060
 5403TIP3   OH216214   4.532   5.395   2.140 -0.5931 -0.2285  0.0257
 5403TIP3    H116215   4.573   5.356   2.217 -0.8666  0.0491  0.3133
 5403TIP3    H216216   4.599   5.452   2.103 -1.0703  1.1167  1.1446
 5404TIP3   OH216217   0.123   0.467   3.322 -0.3573 -0.1534 -0.2683
 5404TIP3    H116218   0.120   0.548   3.271  0.2248  0.6128  0.8653
 5404TIP3    H216219   0.120   0.496   3.414  3.5996 -1.0795  0.3379
 5405TIP3   OH216220   3.296   3.084   0.031  0.0383  0.2439  0.0097
 5405TIP3    H116221   3.245   3.132   0.097  0.8529  1.2178 -0.0439
 5405TIP3    H216222   3.280   3.132  -0.050 -1.4895 -1.3320 -0.6803
 5406TIP3   OH216223   4.537   3.025   1.632 -0.0561  0.1035 -0.0397
 5406TIP3    H116224   4.502   3.014   1.544 -1.7480  2.7679  0.1844
 5406TIP3    H216225   4.477   2.975   1.688 -0.5360  0.5475 -0.1514
 5407TIP3   OH216226   6.275   3.471   4.550 -0.1895  0.1178 -0.8679
 5407TIP3    H116227   6.211   3.426   4.494 -0.1854  0.2204 -0.9558
 5407TIP3    H216228   6.265   3.431   4.636  0.6410 -0.8907 -1.2211
 5408TIP3   OH216229   6.125   3.989   1.543  0.2234  0.4643  0.1763
 5408TIP3    H116230   6.200   3.982   1.483  0.2720 -0.9275  0.3710
 5408TIP3    H216231   6.134   4.076   1.582  1.6443  0.3994  0.0609
 5409TIP3   OH216232   2.308   0.552   0.425 -0.1650  0.3557  0.4818
 5409TIP3    H116233   2.266   0.629   0.387  1.4589  0.1461 -1.9992
 5409TIP3    H216234   2.236   0.499   0.461 -1.5887  1.6476 -0.3812
 5410TIP3   OH216235   3.119   1.972   3.786  0.1590 -0.2389 -0.0290
 5410TIP3    H116236   3.057   1.966   3.859 -1.0567  0.3058 -1.0034
 5410TIP3    H216237   3.077   1.924   3.715  1.3828 -0.8487 -0.3730
 5411TIP3   OH216238   4.256   5.714   4.174  0.3813  0.0530  0.0506
 5411TIP3    H116239   4.213   5.637   4.137 -2.0226  0.2454  2.1518
 5411TIP3    H216240   4.266   5.693   4.267  1.8239  1.3916  0.2236
 5412TIP3   OH216241   1.885   4.048   4.210 -0.4886 -0.4141  0.8597
 5412TIP3    H116242   1.929   3.973   4.251 -0.5020 -0.2613  1.1544
 5412TIP3    H216243   1.945   4.121   4.223  0.1914 -0.6488 -0.6662
 5413TIP3   OH216244   5.646  -0.025   4.067 -0.4447  0.0301  0.0141
 5413TIP3    H116245   5.696   0.058   4.066 -0.7758  0.2625  1.1554
 5413TIP3    H216246   5.611  -0.030   4.156 -1.3334 -0.8122 -0.3722
 5414TIP3   OH216247   0.173   3.965   0.303 -0.0224 -0.3548 -0.1250
 5414TIP3    H116248   0.140   3.941   0.390 -1.9988  0.1092 -0.7147
 5414TIP3    H216249   0.118   4.038   0.275  1.7042  0.6584 -1.0756
 5415TIP3   OH216250   5.090   0.500   0.180  0.0147  0.3174 -1.0422
 5415TIP3    H116251   5.062   0.432   0.242  0.8957 -0.2283 -1.2239
 5415TIP3    H216252   5.071   0.582   0.225  2.4277 -0.0390  0.8394
 5416TIP3   OH216253   1.865   1.138   3.272  0.4185 -0.0127 -0.3334
 5416TIP3    H116254   1.879   1.103   3.183  2.6483 -0.4189  0.1111
 5416TIP3    H216255   1.930   1.093   3.325  1.9578  3.1638  0.7215
 5417TIP3   OH216256   3.810   3.340   4.616  0.0914  0.4835  0.6965
 5417TIP3    H116257   3.763   3.396   4.678  0.6423  1.8353 -0.0720
 5417TIP3    H216258   3.899   3.376   4.613  0.5271 -0.5774  0.3481
 5418TIP3   OH216259   4.189   5.556   3.435 -0.1612 -0.1925  0.0169
 5418TIP3    H116260   4.259   5.493   3.416 -0.9863 -0.7333 -1.4093
 5418TIP3    H216261   4.113   5.501   3.456  0.2226  0.3808  3.4040
 5419TIP3   OH216262   1.063   5.437   1.025 -0.1379  0.3063  0.0988
 5419TIP3    H116263   1.068   5.415   0.932  2.2929  0.6028  0.0896
 5419TIP3    H216264   1.093   5.359   1.070 -0.1165  0.5738  0.5534
 5420TIP3   OH216265   2.155   4.542   4.865 -0.1409 -0.1290  0.0430
 5420TIP3    H116266   2.138   4.460   4.818  1.7508 -1.1822  1.0606
 5420TIP3    H216267   2.088   4.545   4.933  0.0719 -1.1204  0.3203
 5421TIP3   OH216268   2.835   4.596   0.741  0.7197  0.0221 -0.0309
 5421TIP3    H116269   2.782   4.656   0.687  0.2901  1.5183  1.9350
 5421TIP3    H216270   2.798   4.510   0.724  0.4017  0.4658 -1.8578
 5422TIP3   OH216271   0.464   4.239   2.439 -0.0922  0.4354  0.4539
 5422TIP3    H116272   0.486   4.305   2.373  3.0056 -1.6073 -0.8343
 5422TIP3    H216273   0.372   4.219   2.423  0.2196  0.8620 -2.5742
 5423TIP3   OH216274   0.355   2.388   5.156 -0.8573 -0.0705 -0.0715
 5423TIP3    H116275   0.273   2.340   5.142 -1.0779  0.4760 -0.7171
 5423TIP3    H216276   0.340   2.437   5.237 -1.1940  0.0594 -0.2081
 5424TIP3   OH216277   4.058   2.808   3.198  0.0734  0.1633  0.1421
 5424TIP3    H116278   4.076   2.878   3.260  0.4740  0.9419 -0.8405
 5424TIP3    H216279   4.141   2.792   3.153 -0.2457 -0.2834 -0.3099
 5425TIP3   OH216280   0.710   0.664   3.970 -0.3163  0.2327 -0.0731
 5425TIP3    H116281   0.687   0.574   3.995 -2.3404  1.5457  3.5510
 5425TIP3    H216282   0.774   0.692   4.035  0.7556  1.3133 -1.5066
 5426TIP3   OH216283   3.349   3.606   3.584  0.0612  0.4056  0.1937
 5426TIP3    H116284   3.400   3.607   3.665 -0.3808 -1.3971  0.5344
 5426TIP3    H216285   3.309   3.519   3.582  0.2388  0.3096 -2.0698
 5427TIP3   OH216286   4.236   1.810   0.026 -0.0904  0.3021 -0.2551
 5427TIP3    H116287   4.305   1.762   0.070 -1.5733  0.2349  2.1619
 5427TIP3    H216288   4.170   1.744   0.004 -0.9303  0.8116  0.6433
 5428TIP3   OH216289   5.030   0.744   4.685 -0.5435 -0.1977 -0.1079
 5428TIP3    H116290   5.028   0.757   4.591 -1.9673  1.2151  0.0770
 5428TIP3    H216291   5.008   0.651   4.697 -0.6815 -0.3088 -1.1453
 5429TIP3   OH216292   3.373   2.822   0.340 -0.2051  0.1493 -0.0448
 5429TIP3    H116293   3.340   2.740   0.303 -1.5557  0.4588  0.4403
 5429TIP3    H216294   3.412   2.795   0.424 -0.2456 -0.0587 -0.0913
 5430TIP3   OH216295   6.179   0.390   1.209  0.0979  0.2855 -0.1477
 5430TIP3    H116296   6.222   0.445   1.274 -0.9027  1.5610 -0.5152
 5430TIP3    H216297   6.234   0.396   1.131 -0.1491  1.0156 -0.2730
 5431TIP3   OH216298   2.789   5.201   4.036  0.7740 -0.0665  0.0773
 5431TIP3    H116299   2.702   5.193   4.075  0.8815 -0.0826  0.3106
 5431TIP3    H216300   2.807   5.114   3.999  1.4888 -0.6276  1.6786
 5432TIP3   OH216301   1.741   1.737   1.414 -0.0900 -0.0765 -0.0365
 5432TIP3    H116302   1.791   1.758   1.493  0.4035 -1.1544 -0.0504
 5432TIP3    H216303   1.685   1.664   1.440  0.3117 -0.6601 -0.7575
 5433TIP3   OH216304   2.454   5.404   4.364 -0.2311  0.0262 -0.0698
 5433TIP3    H116305   2.393   5.341   4.402 -1.0506  0.9174  0.1362
 5433TIP3    H216306   2.407   5.440   4.288 -0.1281  0.9891  0.3058
 5434TIP3   OH216307   3.171   5.104   3.688  0.2489  0.3550  0.3583
 5434TIP3    H116308   3.159   5.055   3.607 -0.0373 -0.3832  0.8345
 5434TIP3    H216309   3.124   5.186   3.674 -1.1006 -0.3940  0.3298
 5435TIP3   OH216310   5.128   3.737   0.325 -0.0146  0.0321  0.0112
 5435TIP3    H116311   5.223   3.746   0.317  0.6045 -2.4472  2.7132
 5435TIP3    H216312   5.095   3.743   0.235  2.4343  2.5796 -0.8710
 5436TIP3   OH216313   1.724   4.941   1.763  0.0585  0.4356 -0.2267
 5436TIP3    H116314   1.724   5.008   1.694  0.1045  0.9687  0.2823
 5436TIP3    H216315   1.755   4.987   1.841 -2.7612  0.6363  0.9091
 5437TIP3   OH216316   0.664   4.156   3.749  0.0655  0.4837  0.0773
 5437TIP3    H116317   0.629   4.094   3.686  0.5510 -0.4963  0.7374
 5437TIP3    H216318   0.759   4.156   3.733  0.1371  0.5872  0.4737
 5438TIP3   OH216319   4.072   5.232   0.433  0.0288 -0.1420 -0.1727
 5438TIP3    H116320   4.032   5.146   0.448  1.1417 -0.7103 -0.2999
 5438TIP3    H216321   4.086   5.236   0.338 -1.0907  0.6994 -0.3237
 5439TIP3   OH216322   4.573   1.628   2.440  0.8001  0.2878 -0.4045
 5439TIP3    H116323   4.633   1.629   2.515 -0.6116  1.4140  0.7886
 5439TIP3    H216324   4.520   1.549   2.453  0.6401  0.4152 -0.2744
 5440TIP3   OH216325   5.168   1.370   0.307  0.0314 -0.1674  0.6699
 5440TIP3    H116326   5.200   1.360   0.217 -0.2028 -0.4836  0.6206
 5440TIP3    H216327   5.225   1.437   0.345 -0.5455  0.7456 -0.0340
 5441TIP3   OH216328   4.903   2.865   3.142  0.4487 -0.2277 -0.3375
 5441TIP3    H116329   4.922   2.790   3.086  0.7083  0.2624 -0.9236
 5441TIP3    H216330   4.978   2.871   3.201  1.3776  0.6907 -1.5409
 5442TIP3   OH216331   3.793   5.057   3.484  0.2873  0.1063 -0.0347
 5442TIP3    H116332   3.754   4.982   3.528 -0.0112 -0.0724 -0.5923
 5442TIP3    H216333   3.879   5.027   3.456  0.9230  0.5570  1.3587
 5443TIP3   OH216334   6.271   3.114   4.680 -0.2943  0.6243 -0.2908
 5443TIP3    H116335   6.357   3.132   4.719 -0.2312 -0.1164 -0.0717
 5443TIP3    H216336   6.237   3.040   4.730 -1.4306  1.4333  0.1517
 5444TIP3   OH216337   1.204   2.643   2.399 -0.2147  0.2595 -0.9034
 5444TIP3    H116338   1.260   2.569   2.374 -0.2456  0.4045 -1.4179
 5444TIP3    H216339   1.124   2.630   2.348 -0.0624  0.8649 -1.3066
 5445TIP3   OH216340   3.026   3.855   0.203 -0.3737 -0.0022  0.1413
 5445TIP3    H116341   3.022   3.922   0.135 -0.6844  0.7653  0.9012
 5445TIP3    H216342   3.088   3.790   0.169 -1.5982 -0.3679 -1.5000
 5446TIP3   OH216343   0.845   3.096   1.644  0.0264 -0.4623  0.7789
 5446TIP3    H116344   0.845   3.185   1.679 -0.9857 -0.3517  0.5455
 5446TIP3    H216345   0.937   3.071   1.640  0.5140  1.3030 -0.9784
 5447TIP3   OH216346   0.647   0.042   4.425 -0.0697  0.9051  0.4301
 5447TIP3    H116347   0.582  -0.027   4.437 -0.1423  0.5254 -1.6268
 5447TIP3    H216348   0.731  -0.005   4.426  0.1360  1.2663  2.1759
 5448TIP3   OH216349   4.168   0.780   5.018  0.1358 -0.2914  0.3656
 5448TIP3    H116350   4.252   0.735   5.024  0.2978  0.1890  2.2598
 5448TIP3    H216351   4.186   0.857   4.963  0.8657 -0.3148  0.5627
 5449TIP3   OH216352   5.130   5.699   0.480  0.4894  0.3950  0.2246
 5449TIP3    H116353   5.106   5.708   0.572 -3.3467 -1.6547 -0.3373
 5449TIP3    H216354   5.181   5.618   0.477 -0.5945 -0.3245  0.4599
 5450TIP3   OH216355   0.256   5.096   2.259  0.1218  0.2596  0.2363
 5450TIP3    H116356   0.210   5.169   2.217  1.6457  1.1673  0.0846
 5450TIP3    H216357   0.208   5.018   2.231 -2.3003  1.2233  1.3765
 5451TIP3   OH216358   0.607   5.230   1.653  0.3459 -0.2284 -0.4205
 5451TIP3    H116359   0.660   5.250   1.575  1.0633 -4.2323 -1.1598
 5451TIP3    H216360   0.538   5.172   1.621 -1.2086  0.4647  1.4916
 5452TIP3   OH216361   1.752   3.377   0.294  0.5402  0.3620  0.0032
 5452TIP3    H116362   1.832   3.325   0.292  1.6300  1.8757  1.6834
 5452TIP3    H216363   1.695   3.330   0.355  0.5122 -0.2193 -0.4684
 5453TIP3   OH216364   1.298   4.791   0.258 -0.2953  0.3620 -0.1238
 5453TIP3    H116365   1.337   4.825   0.177 -0.4668 -0.3793 -0.5183
 5453TIP3    H216366   1.277   4.700   0.239 -1.2903  0.4644  0.4213
 5454TIP3   OH216367   4.019   3.975   0.386 -0.0784 -0.1502 -0.2698
 5454TIP3    H116368   4.106   4.014   0.381  0.0821 -0.2800  1.1164
 5454TIP3    H216369   4.034   3.883   0.407 -0.5412 -0.0628  0.5148
 5455TIP3   OH216370   3.842   4.523   4.333  0.3117 -0.1934 -0.1247
 5455TIP3    H116371   3.831   4.581   4.258  3.1544  0.2554 -0.3119
 5455TIP3    H216372   3.768   4.462   4.328 -0.7628  1.1793 -1.9946
 5456TIP3   OH216373   0.801   5.908   0.184 -0.5080 -0.1837 -0.3720
 5456TIP3    H116374   0.854   5.950   0.252 -0.5373 -2.1249  0.9449
 5456TIP3    H216375   0.740   5.853   0.232 -2.6291  0.6952 -1.9300
 5457TIP3   OH216376   0.397   5.051   2.011 -0.2522  0.3760 -0.0089
 5457TIP3    H116377   0.306   5.021   2.019 -0.5814  1.7392  2.0593
 5457TIP3    H216378   0.417   5.091   2.095  1.5600  2.0730 -1.1512
 5458TIP3   OH216379   3.293   1.495   1.340 -0.3649 -0.0992 -0.1386
 5458TIP3    H116380   3.303   1.404   1.310  0.5009  0.3200 -1.2007
 5458TIP3    H216381   3.280   1.545   1.260  1.5515  1.0035  0.1806
 5459TIP3   OH216382   4.086   3.257   4.949  0.1346  0.2528  0.2380
 5459TIP3    H116383   4.139   3.291   4.876  2.8305 -1.0600  1.4354
 5459TIP3    H216384   4.105   3.163   4.950 -1.1567 -0.0208  1.6410
 5460TIP3   OH216385   3.757   2.487   1.845  0.2154  0.0951  0.0407
 5460TIP3    H116386   3.693   2.429   1.804  0.6320 -0.2582 -0.1098
 5460TIP3    H216387   3.800   2.433   1.911  1.4154 -0.1275 -0.8834
 5461TIP3   OH216388   5.852   5.906   3.098  0.8782  0.2904 -0.0512
 5461TIP3    H116389   5.850   5.955   3.017 -1.5889 -0.5561 -0.5990
 5461TIP3    H216390   5.903   5.828   3.078 -1.0397 -0.7138 -1.3892
 5462TIP3   OH216391   1.244   3.675   0.798  0.1959 -0.2055  0.3425
 5462TIP3    H116392   1.333   3.697   0.771  0.2991 -0.1714  0.7029
 5462TIP3    H216393   1.249   3.583   0.824 -0.2323 -0.6739 -1.1502
 5463TIP3   OH216394   5.316   1.696   0.745  0.4194 -0.1186 -0.0429
 5463TIP3    H116395   5.398   1.648   0.749  0.5727  0.1724  0.3981
 5463TIP3    H216396   5.341   1.788   0.744  0.0906  0.0454  1.8827
 5464TIP3   OH216397   4.955   2.196   4.003  0.1041  0.2870  1.0002
 5464TIP3    H116398   4.870   2.166   4.035  0.1786  0.6487  1.5539
 5464TIP3    H216399   5.002   2.115   3.981 -0.3600  0.0846  0.7449
 5465TIP3   OH216400   0.071   2.481   4.595 -0.3292  0.2091 -0.3789
 5465TIP3    H116401   0.030   2.395   4.584  0.0106  0.1263 -1.1020
 5465TIP3    H216402   0.086   2.511   4.506  0.8561  0.3846 -0.1363
 5466TIP3   OH216403   2.522   3.251   3.567 -0.3514  0.0327  0.2109
 5466TIP3    H116404   2.516   3.204   3.484 -0.4960 -1.1903  0.8852
 5466TIP3    H216405   2.503   3.185   3.633 -1.5910  1.2809  1.1575
 5467TIP3   OH216406   2.836   3.523   1.767 -0.3685  0.0344  0.0158
 5467TIP3    H116407   2.837   3.618   1.759  0.7308 -0.1010 -2.0789
 5467TIP3    H216408   2.770   3.494   1.704 -0.7432 -0.6302  0.6808
 5468TIP3   OH216409   1.342   1.878   1.908  0.2948  0.4934  0.1595
 5468TIP3    H116410   1.396   1.864   1.986  2.4035 -1.9719 -1.5938
 5468TIP3    H216411   1.321   1.790   1.877 -1.1365  1.4033 -1.6527
 5469TIP3   OH216412   0.150   5.629   2.836  0.0264  0.2148 -0.4768
 5469TIP3    H116413   0.209   5.560   2.806  0.8043  0.9096 -0.5746
 5469TIP3    H216414   0.063   5.589   2.831  0.5901 -1.3455  1.1182
 5470TIP3   OH216415   1.546   4.567   3.115 -0.2719 -0.0710  0.2026
 5470TIP3    H116416   1.548   4.653   3.073 -0.6205  0.3074  0.9418
 5470TIP3    H216417   1.490   4.513   3.059 -1.3812  0.6489  0.5923
 5471TIP3   OH216418   1.028   1.827   1.726  0.1596  0.0153  0.4608
 5471TIP3    H116419   1.078   1.745   1.730 -1.4022 -0.9918 -0.0596
 5471TIP3    H216420   0.937   1.801   1.730 -0.3756  1.8329  1.4083
 5472TIP3   OH216421   1.002   1.383   3.573  0.2193 -0.1177  0.3216
 5472TIP3    H116422   1.083   1.332   3.563  0.8541  0.7224  1.0170
 5472TIP3    H216423   1.024   1.470   3.540 -0.4301  0.0998  0.4472
 5473TIP3   OH216424   3.128   5.621   4.229 -0.2357 -0.3342 -0.3117
 5473TIP3    H116425   3.114   5.616   4.134 -1.5791 -0.1570 -0.1439
 5473TIP3    H216426   3.094   5.707   4.254 -2.2850 -1.3480  0.6615
 5474TIP3   OH216427   0.953   4.790   2.113  0.0444  0.0885  0.0411
 5474TIP3    H116428   0.933   4.873   2.156  2.2496  0.1925  1.0065
 5474TIP3    H216429   0.894   4.787   2.037 -0.7793  2.0421  0.5432
 5475TIP3   OH216430   1.628   0.597   0.880 -0.6716  0.1038  0.5417
 5475TIP3    H116431   1.565   0.567   0.945 -1.1382  1.0343  0.5314
 5475TIP3    H216432   1.605   0.689   0.865 -0.7244 -0.1485 -1.0971
 5476TIP3   OH216433   0.807   0.835   0.250 -0.1815  0.5229  0.1539
 5476TIP3    H116434   0.818   0.747   0.285 -1.0781  0.0393 -0.7435
 5476TIP3    H216435   0.822   0.893   0.326  0.6123 -0.3726  0.7045
 5477TIP3   OH216436   4.564   5.509   1.665 -0.1987 -0.3398  0.0024
 5477TIP3    H116437   4.522   5.577   1.718 -1.1300 -0.3367 -0.7053
 5477TIP3    H216438   4.641   5.483   1.715  0.6013  1.7541 -0.0405
 5478TIP3   OH216439   3.733   4.747   1.334  0.3796 -0.0339 -0.3845
 5478TIP3    H116440   3.826   4.760   1.352  0.1839  0.1164  0.5505
 5478TIP3    H216441   3.707   4.676   1.393 -0.3440  0.6559  0.1417
 5479TIP3   OH216442   3.312   1.143   4.959 -0.9065  0.5662 -0.2351
 5479TIP3    H116443   3.247   1.075   4.944 -2.9195  2.2917  0.2099
 5479TIP3    H216444   3.297   1.172   5.049 -0.4856  1.9328 -0.5717
 5480TIP3   OH216445   5.442   5.516   3.934 -0.7562  0.1593 -0.1772
 5480TIP3    H116446   5.426   5.466   3.854 -0.3343 -1.2486  0.5626
 5480TIP3    H216447   5.442   5.449   4.003  1.4401  0.9362  0.6789
 5481TIP3   OH216448   2.307   1.539   2.136  0.3798 -0.1919  0.6002
 5481TIP3    H116449   2.352   1.458   2.158  0.0967 -0.5297 -0.0434
 5481TIP3    H216450   2.364   1.581   2.071 -0.2525 -0.6624 -0.2809
 5482TIP3   OH216451   3.927   0.249   4.294 -0.4224  0.0862 -0.0821
 5482TIP3    H116452   4.008   0.297   4.312 -0.5575 -0.2599  1.6432
 5482TIP3    H216453   3.949   0.157   4.310 -0.9646 -0.0919 -0.3283
 5483TIP3   OH216454   2.045   5.715   1.417  0.0441 -0.8346 -0.1498
 5483TIP3    H116455   2.139   5.724   1.402  0.1583 -3.4044 -1.5860
 5483TIP3    H216456   2.038   5.659   1.494 -0.3587  0.1281  0.5338
 5484TIP3   OH216457   4.427   5.844   1.350  0.2207  0.1747  0.0628
 5484TIP3    H116458   4.483   5.891   1.413  0.6046  1.1685 -0.9841
 5484TIP3    H216459   4.436   5.893   1.269 -1.5269 -0.1373 -0.3652
 5485TIP3   OH216460   2.505   0.562   4.696  0.2461 -0.0810 -0.0157
 5485TIP3    H116461   2.489   0.548   4.603  0.0224 -1.3666  0.1989
 5485TIP3    H216462   2.427   0.527   4.739  1.4619 -1.9780  0.7856
 5486TIP3   OH216463   1.835   2.014   3.173  0.0986  0.2170  0.1723
 5486TIP3    H116464   1.826   2.059   3.089  1.7661  0.4217  0.0689
 5486TIP3    H216465   1.764   1.950   3.174 -0.0770  0.3579 -1.3074
 5487TIP3   OH216466   3.206   2.806   0.052 -0.2400  0.2927 -0.4000
 5487TIP3    H116467   3.301   2.800   0.046 -0.2637  0.3916 -0.9546
 5487TIP3    H216468   3.189   2.834   0.142  0.1424 -2.1049  0.4749
 5488TIP3   OH216469   4.929   3.005   0.563 -0.0878  0.2048 -0.3780
 5488TIP3    H116470   5.019   2.980   0.543 -0.0077  1.9120 -2.4947
 5488TIP3    H216471   4.923   2.999   0.658  2.5758  0.9717 -0.0729
 5489TIP3   OH216472   6.046   2.124   1.348 -0.3005 -0.5849  0.1175
 5489TIP3    H116473   5.963   2.155   1.310 -1.0794 -0.3411  1.9309
 5489TIP3    H216474   6.059   2.038   1.307  0.4639  0.8296 -2.8878
 5490TIP3   OH216475   1.010   3.093   3.762  0.2005  0.4956  0.0806
 5490TIP3    H116476   0.969   3.051   3.686  0.0418  1.2277 -0.2578
 5490TIP3    H216477   0.939   3.101   3.826  0.6591 -1.3758  0.8748
 5491TIP3   OH216478   3.645   5.329   2.236  0.0751  0.1423 -0.3543
 5491TIP3    H116479   3.644   5.364   2.147 -0.7016 -1.6447 -1.0922
 5491TIP3    H216480   3.697   5.249   2.229  0.3063  0.1694  0.8878
 5492TIP3   OH216481   2.515   4.653   3.104 -0.2652 -0.4502 -0.0659
 5492TIP3    H116482   2.444   4.687   3.158  0.1493 -1.5194  1.2162
 5492TIP3    H216483   2.497   4.687   3.016 -0.3553  2.2622  0.9017
 5493TIP3   OH216484   3.804   1.344   2.490  0.3745 -0.3482 -0.0220
 5493TIP3    H116485   3.819   1.290   2.569  1.0489  0.6321  0.5391
 5493TIP3    H216486   3.734   1.404   2.515 -1.7253 -2.1346 -1.2665
 5494TIP3   OH216487   2.808   0.747   1.553 -0.5556 -0.0299 -0.0682
 5494TIP3    H116488   2.895   0.754   1.515 -0.4345  0.8967  0.3437
 5494TIP3    H216489   2.751   0.723   1.480  0.1193 -1.2032 -0.2307
 5495TIP3   OH216490   4.358   3.264   3.362  0.1189 -0.3699 -0.0402
 5495TIP3    H116491   4.344   3.268   3.268 -0.3819 -0.1505  0.0402
 5495TIP3    H216492   4.447   3.294   3.374 -0.9936  3.4962 -0.1307
 5496TIP3   OH216493   2.751   0.732   2.426  0.1689 -0.6154 -0.2707
 5496TIP3    H116494   2.844   0.739   2.404  0.5230 -1.6784  0.7611
 5496TIP3    H216495   2.741   0.787   2.503  0.0449 -0.8535 -0.1157
 5497TIP3   OH216496   0.690   5.363   3.660 -0.1140 -0.0415  0.3409
 5497TIP3    H116497   0.714   5.455   3.669 -0.9311  0.0007  3.0983
 5497TIP3    H216498   0.739   5.319   3.730  1.7261 -2.0814 -2.0552
 5498TIP3   OH216499   4.540   2.667   0.307 -1.0041 -0.0654  0.3207
 5498TIP3    H116500   4.476   2.703   0.245 -0.6539 -1.4224 -0.8853
 5498TIP3    H216501   4.489   2.647   0.385 -2.1965 -1.4434 -0.7316
 5499TIP3   OH216502   4.145   1.014   2.744 -0.2109  0.1577  0.5257
 5499TIP3    H116503   4.187   1.090   2.785 -1.4312  0.4668  1.2657
 5499TIP3    H216504   4.203   0.941   2.765  0.9461  0.8524 -0.1273
 5500TIP3   OH216505   3.917   1.985   0.569  0.2872 -0.0556 -0.2044
 5500TIP3    H116506   3.923   2.063   0.514 -0.0745  0.0329 -0.1229
 5500TIP3    H216507   4.005   1.974   0.604 -0.0676  1.4616  1.3165
 5501TIP3   OH216508   1.435   2.669   2.005 -0.2146  0.1876 -0.5322
 5501TIP3    H116509   1.385   2.663   1.923 -0.0352 -0.2051 -0.6129
 5501TIP3    H216510   1.523   2.694   1.977  0.4361 -2.0183 -0.6798
 5502TIP3   OH216511   2.825   2.544   2.670  0.8992 -0.2744  0.1637
 5502TIP3    H116512   2.862   2.514   2.753  0.1097 -1.3467  0.1602
 5502TIP3    H216513   2.756   2.606   2.695  0.2212 -1.0882  0.3598
 5503TIP3   OH216514   1.039   4.366   4.321  0.0217 -0.1104 -0.5155
 5503TIP3    H116515   0.990   4.309   4.380 -0.6604 -0.6457 -1.5587
 5503TIP3    H216516   1.095   4.306   4.271 -0.1045  0.2154 -1.0603
 5504TIP3   OH216517   4.494   5.890   0.225  0.1184 -0.1401 -0.0045
 5504TIP3    H116518   4.494   5.810   0.276 -0.5685 -0.2192 -0.1221
 5504TIP3    H216519   4.414   5.885   0.172  1.8032 -1.1194 -2.7279
 5505TIP3   OH216520   0.550   5.465   4.749 -0.1319 -0.4007  0.4610
 5505TIP3    H116521   0.620   5.442   4.810 -0.0988 -0.1915  0.5046
 5505TIP3    H216522   0.529   5.383   4.704 -1.9673 -1.1982  2.6071
 5506TIP3   OH216523   2.226   3.621   3.054 -0.0638 -0.0545  0.0190
 5506TIP3    H116524   2.190   3.627   2.966  1.9329  2.1880 -0.7671
 5506TIP3    H216525   2.184   3.693   3.102 -0.3499 -0.5893  0.5762
 5507TIP3   OH216526   0.182   2.840   3.255 -0.4720 -0.5209 -0.3109
 5507TIP3    H116527   0.180   2.877   3.166 -1.7621 -0.9588 -0.4854
 5507TIP3    H216528   0.195   2.916   3.311 -1.5572  0.0359 -0.7702
 5508TIP3   OH216529   4.675   5.272   3.206 -0.1899  0.5413 -0.1680
 5508TIP3    H116530   4.589   5.229   3.205 -0.6840  1.5165 -0.4523
 5508TIP3    H216531   4.702   5.269   3.298 -1.2390  1.5785  0.1991
 5509TIP3   OH216532   0.268   2.653   4.966 -0.0849  0.8353  0.6750
 5509TIP3    H116533   0.252   2.577   4.910  0.6957  0.7220  0.6005
 5509TIP3    H216534   0.228   2.726   4.919  0.4708  0.7215  0.0122
 5510TIP3   OH216535   3.116   4.104   0.023 -0.6184  0.1015  0.0358
 5510TIP3    H116536   3.191   4.153  -0.009 -1.2427 -0.2604 -2.1591
 5510TIP3    H216537   3.069   4.165   0.080 -1.0006  1.8873 -2.0481
 5511TIP3   OH216538   3.049  -0.007   5.160  0.5352 -0.2005 -0.2328
 5511TIP3    H116539   3.005  -0.004   5.074 -0.7590 -0.8834  0.3728
 5511TIP3    H216540   3.035   0.080   5.197 -0.4424 -0.4531  0.0079
 5512TIP3   OH216541   2.606   5.486   0.263  0.0077 -0.4026 -0.4548
 5512TIP3    H116542   2.646   5.538   0.333 -0.5733  3.3798 -2.6757
 5512TIP3    H216543   2.663   5.499   0.187 -1.7692 -0.5525 -1.8902
 5513TIP3   OH216544   4.645   0.648   2.409 -0.0694 -0.5445 -0.1056
 5513TIP3    H116545   4.705   0.573   2.413 -0.7588 -1.1160 -0.1752
 5513TIP3    H216546   4.654   0.682   2.320  0.4459 -0.3757  0.0096
 5514TIP3   OH216547   5.621   0.922   2.302 -0.4231  0.0043 -0.6351
 5514TIP3    H116548   5.675   0.971   2.364 -0.8240  1.0018 -1.0571
 5514TIP3    H216549   5.675   0.846   2.278 -0.4148 -0.6296  1.2038
 5515TIP3   OH216550   2.145   4.512   0.730 -0.0564  0.2785  0.6342
 5515TIP3    H116551   2.144   4.504   0.635  0.7587  2.1091  0.4231
 5515TIP3    H216552   2.100   4.434   0.762 -0.6422 -0.1951 -1.2570
 5516TIP3   OH216553   1.231   2.893   5.102  0.2031  0.5805 -0.1342
 5516TIP3    H116554   1.263   2.971   5.147  2.2789 -0.4532  0.3129
 5516TIP3    H216555   1.281   2.891   5.021  0.1475 -0.2683 -0.1494
 5517TIP3   OH216556   5.891   2.966   4.104 -0.3427  0.0017 -0.5577
 5517TIP3    H116557   5.803   2.999   4.087 -0.4280  0.0936  0.0272
 5517TIP3    H216558   5.877   2.878   4.140 -0.4089  1.1291  2.5056
 5518TIP3   OH216559   4.228   4.943   4.090 -0.2552 -0.0141 -0.1527
 5518TIP3    H116560   4.282   5.003   4.141  1.4249 -1.8218  0.3498
 5518TIP3    H216561   4.182   4.890   4.156 -0.5938 -0.2355 -0.5579
 5519TIP3   OH216562   2.145   5.489   3.674  0.2360 -0.1878  0.2485
 5519TIP3    H116563   2.122   5.416   3.617  0.0299  0.3173 -0.3306
 5519TIP3    H216564   2.066   5.543   3.677  0.7314  0.5906 -0.2508
 5520TIP3   OH216565   4.566   3.204   2.165 -0.0375 -0.0590  0.3182
 5520TIP3    H116566   4.526   3.122   2.194  0.3849  0.0371  1.2079
 5520TIP3    H216567   4.493   3.257   2.133 -0.2211 -1.0969 -1.1123
 5521TIP3   OH216568   1.013   4.115   4.068 -0.2297  0.2888  0.5515
 5521TIP3    H116569   0.952   4.071   4.126 -1.4908 -0.7157 -1.4103
 5521TIP3    H216570   1.024   4.054   3.994 -0.0024  2.1393 -1.0368
 5522TIP3   OH216571   5.437   1.282   3.928 -0.2976 -0.1272 -0.4092
 5522TIP3    H116572   5.458   1.209   3.870 -1.2216 -1.0417  0.3887
 5522TIP3    H216573   5.359   1.322   3.889 -0.6637 -0.4774 -0.0428
 5523TIP3   OH216574   3.865   2.454   1.511 -0.1393  0.4428 -0.0853
 5523TIP3    H116575   3.848   2.395   1.584  1.0480  0.4946  0.2582
 5523TIP3    H216576   3.779   2.480   1.480 -0.6609  0.5240  1.3744
 5524TIP3   OH216577   2.393   5.443   5.090 -0.2056  0.3779  0.3994
 5524TIP3    H116578   2.408   5.407   5.178  0.0202  0.9297  0.5895
 5524TIP3    H216579   2.367   5.534   5.105  0.0921  0.5503 -0.1169
 5525TIP3   OH216580   6.211   1.953   0.451  0.0560 -0.5272 -0.4647
 5525TIP3    H116581   6.214   1.867   0.410  0.4158 -0.3626 -0.7931
 5525TIP3    H216582   6.120   1.966   0.475 -0.3146 -0.3233 -1.8790
 5526TIP3   OH216583   0.666   0.021   4.844 -0.3580  0.3153  0.0977
 5526TIP3    H116584   0.593   0.030   4.783  0.0541 -2.2135 -0.8950
 5526TIP3    H216585   0.625   0.020   4.930 -1.5046 -0.7035 -0.4257
 5527TIP3   OH216586   5.946   5.813   0.142  0.1456  0.9555  0.0327
 5527TIP3    H116587   5.916   5.727   0.168  0.3599  1.3888  1.8596
 5527TIP3    H216588   5.908   5.827   0.055 -1.1156 -0.3495  0.3438
 5528TIP3   OH216589   0.249   4.223   3.866  0.1287 -0.6544  0.4681
 5528TIP3    H116590   0.271   4.261   3.951 -1.2270 -1.0138  1.0027
 5528TIP3    H216591   0.189   4.287   3.826 -1.1529 -1.5816  0.8355
 5529TIP3   OH216592   2.415   1.687   0.045  0.2492  0.2580  1.4418
 5529TIP3    H116593   2.342   1.713   0.103 -0.0367  0.2471  1.0906
 5529TIP3    H216594   2.403   1.593   0.032 -1.7442  0.7779 -1.4023
 5530TIP3   OH216595   0.640   3.125   2.089  0.2631  0.5585  0.2724
 5530TIP3    H116596   0.731   3.121   2.059 -0.4248  2.6786 -2.5427
 5530TIP3    H216597   0.608   3.035   2.080  1.6185  0.1092 -0.3172
 5531TIP3   OH216598   2.230   1.955   3.391 -0.1678  0.1006  0.0750
 5531TIP3    H116599   2.143   1.937   3.426  0.1784 -1.4202  0.1933
 5531TIP3    H216600   2.285   1.965   3.469  0.1999 -1.2645  0.0174
 5532TIP3   OH216601   5.778   4.947   1.397 -0.2583  0.7636  0.6233
 5532TIP3    H116602   5.710   4.895   1.441  0.5855 -0.4866  0.4804
 5532TIP3    H216603   5.860   4.906   1.423  0.2880 -0.1761 -2.2618
 5533TIP3   OH216604   1.452   1.847   4.050  0.2928  0.0735  0.3127
 5533TIP3    H116605   1.381   1.843   4.114  1.0176  0.6623  1.1761
 5533TIP3    H216606   1.466   1.756   4.024 -0.0270 -0.1737  0.9853
 5534TIP3   OH216607   2.748   5.695   1.261  0.1686 -0.0445 -0.6270
 5534TIP3    H116608   2.805   5.618   1.269 -0.7746 -0.9464 -2.0198
 5534TIP3    H216609   2.778   5.739   1.182  1.9031  2.1516  1.1088
 5535TIP3   OH216610   5.228   3.700   4.107 -0.6265 -0.3490 -0.4953
 5535TIP3    H116611   5.225   3.672   4.015 -1.0399  1.3693 -1.0295
 5535TIP3    H216612   5.250   3.620   4.155 -0.1532 -1.2343 -2.1033
 5536TIP3   OH216613   3.881   3.626   5.167 -0.3899  0.1884 -0.4573
 5536TIP3    H116614   3.871   3.561   5.097 -0.1629 -0.8574  0.4470
 5536TIP3    H216615   3.830   3.590   5.240  0.6097  0.4886  0.4198
 5537TIP3   OH216616   3.784   3.644   0.144 -0.0598 -0.2530  0.8337
 5537TIP3    H116617   3.841   3.671   0.216 -1.9384 -1.1521  2.7658
 5537TIP3    H216618   3.839   3.587   0.090  1.5494  0.8431  1.2550
 5538TIP3   OH216619   1.771   5.581   2.029 -0.8142 -0.1638  0.0811
 5538TIP3    H116620   1.777   5.612   1.939 -0.9954 -0.1796  0.0634
 5538TIP3    H216621   1.746   5.659   2.080 -3.1376 -0.6546 -0.2225
 5539TIP3   OH216622   2.266   0.299   0.847  0.7402 -0.2448 -0.1533
 5539TIP3    H116623   2.242   0.275   0.757 -0.2551  2.4168 -0.7009
 5539TIP3    H216624   2.243   0.223   0.899 -0.6581 -1.0863 -1.8894
 5540TIP3   OH216625   4.623   0.551   3.791 -0.5878  0.4425 -0.1099
 5540TIP3    H116626   4.714   0.534   3.766 -0.7312 -1.0334  0.2700
 5540TIP3    H216627   4.627   0.566   3.886 -1.0733 -3.1648  0.6309
 5541TIP3   OH216628   5.661   5.145   4.482  0.3268  0.1883 -0.3754
 5541TIP3    H116629   5.582   5.178   4.523  0.2489  1.5402 -1.5199
 5541TIP3    H216630   5.636   5.127   4.391  0.6777 -1.9970 -0.1001
 5542TIP3   OH216631   5.331   2.171   0.794  0.6588  0.1491  0.1054
 5542TIP3    H116632   5.303   2.248   0.843  0.1280 -0.9547  1.6088
 5542TIP3    H216633   5.265   2.105   0.814  2.0785 -1.2380  0.3348
 5543TIP3   OH216634   6.337   0.369   3.903  0.4053  0.0517 -0.4130
 5543TIP3    H116635   6.367   0.460   3.910 -2.0555  0.8547  0.4975
 5543TIP3    H216636   6.280   0.356   3.979  1.0472 -2.4363 -0.2654
 5544TIP3   OH216637   0.079   1.694   4.759  0.2030  0.9721  0.3218
 5544TIP3    H116638   0.059   1.658   4.673  1.2463 -0.6102  0.6994
 5544TIP3    H216639   0.162   1.740   4.747  0.3934  0.6756  0.5012
 5545TIP3   OH216640   3.965   5.550   2.241 -0.1937 -0.7012 -0.1960
 5545TIP3    H116641   4.020   5.472   2.237  0.9035  0.0867 -1.4953
 5545TIP3    H216642   3.937   5.555   2.332  0.3789 -2.1547  0.0801
 5546TIP3   OH216643   0.192   3.483   3.180 -0.2943 -0.6427 -0.6896
 5546TIP3    H116644   0.277   3.455   3.213  0.0326  0.6911 -0.3635
 5546TIP3    H216645   0.132   3.472   3.254  0.3245  1.7934  0.2694
 5547TIP3   OH216646   0.139   4.820   0.701  0.4665  0.1930 -0.0502
 5547TIP3    H116647   0.186   4.769   0.768 -0.4659 -2.1551 -1.0895
 5547TIP3    H216648   0.050   4.786   0.704 -0.4272  2.3584 -0.3056
 5548TIP3   OH216649   2.119   2.493   0.999  0.3299 -0.3989  0.4202
 5548TIP3    H116650   2.083   2.492   0.910  0.5464 -0.3043  0.3313
 5548TIP3    H216651   2.200   2.443   0.993 -0.4511 -1.8111  0.9121
 5549TIP3   OH216652   2.312   3.322   3.964 -0.2536  0.2023 -0.4067
 5549TIP3    H116653   2.402   3.343   3.986 -0.1181  2.2505 -2.5568
 5549TIP3    H216654   2.263   3.340   4.045  1.0588  0.2801  0.3978
 5550TIP3   OH216655   6.179   4.928   0.924 -0.2012  0.0739 -0.6969
 5550TIP3    H116656   6.156   4.917   1.016 -0.8788  1.9510 -0.5861
 5550TIP3    H216657   6.158   4.844   0.883  0.2062 -0.8104  0.8616
 5551TIP3   OH216658   2.478   1.538   2.653  0.0091 -0.1331 -0.0885
 5551TIP3    H116659   2.463   1.565   2.563 -0.9299 -0.9521 -0.1925
 5551TIP3    H216660   2.483   1.442   2.650 -0.8637 -0.2300  0.8269
 5552TIP3   OH216661   4.229   1.192   3.153 -0.2956 -0.0180  0.1374
 5552TIP3    H116662   4.257   1.226   3.068 -0.4091 -1.1992 -0.3996
 5552TIP3    H216663   4.229   1.268   3.211  0.7133  0.6360 -0.6847
 5553TIP3   OH216664   5.947   2.506   2.196 -0.0602  0.1961 -0.3910
 5553TIP3    H116665   6.017   2.455   2.154  1.4852 -0.8327  3.0883
 5553TIP3    H216666   5.980   2.596   2.194  0.0306  0.1548 -1.2295
 5554TIP3   OH216667   3.732   0.951   3.786  0.2363 -0.2861 -0.3872
 5554TIP3    H116668   3.794   0.994   3.728  0.1648 -0.8327 -0.8802
 5554TIP3    H216669   3.751   0.858   3.778 -0.8206 -0.4911 -0.7727
 5555TIP3   OH216670   1.308   4.152   4.839  0.4949  0.2044 -0.3527
 5555TIP3    H116671   1.363   4.226   4.864  0.5915 -0.1828  0.6515
 5555TIP3    H216672   1.326   4.085   4.906 -3.1317  1.0182  1.7034
 5556TIP3   OH216673   4.206   4.053   1.529  0.3555 -0.4087  0.1936
 5556TIP3    H116674   4.124   4.005   1.533  0.2086 -0.2737 -0.8764
 5556TIP3    H216675   4.255   4.026   1.607  0.2169 -2.1620 -0.3033
 5557TIP3   OH216676   2.132   4.301   1.668  0.3351 -0.5464  0.9479
 5557TIP3    H116677   2.207   4.350   1.702  0.3954  0.5929 -0.7038
 5557TIP3    H216678   2.136   4.314   1.573 -1.3651 -1.3195  0.7372
 5558TIP3   OH216679   0.778   0.827   2.466 -0.1290  0.3119  0.7462
 5558TIP3    H116680   0.794   0.902   2.409  0.8111  1.8311  2.8825
 5558TIP3    H216681   0.709   0.856   2.525 -0.8406 -1.0945  0.6487
 5559TIP3   OH216682   3.575   2.851   0.610  0.3934 -0.2160  0.7386
 5559TIP3    H116683   3.664   2.820   0.592  1.0973  0.7389  2.3547
 5559TIP3    H216684   3.571   2.859   0.705 -1.0736  0.7511  0.6299
 5560TIP3   OH216685   6.045   4.184   2.327  0.2180 -0.2817 -0.0800
 5560TIP3    H116686   6.033   4.112   2.390 -1.8524 -0.3385 -0.4589
 5560TIP3    H216687   6.063   4.261   2.381 -2.4026 -0.1498  0.7136
 5561TIP3   OH216688   4.081   0.790   2.166 -0.6675  0.1364  0.0057
 5561TIP3    H116689   4.066   0.839   2.247 -1.6095 -0.0404 -0.0423
 5561TIP3    H216690   4.052   0.849   2.096 -1.1268 -0.2038 -0.0992
 5562TIP3   OH216691   1.411   3.854   2.380  0.0793  0.2980 -0.1991
 5562TIP3    H116692   1.467   3.923   2.416  1.4035 -0.4565 -0.7429
 5562TIP3    H216693   1.471   3.783   2.357 -1.1690 -0.7942 -0.2666
 5563TIP3   OH216694   2.702   3.900   2.059  0.2365 -0.5355  0.1819
 5563TIP3    H116695   2.791   3.868   2.073  0.5131  0.2247  0.1807
 5563TIP3    H216696   2.647   3.833   2.100  0.9098  0.1572  2.4171
 5564TIP3   OH216697   5.781   0.447   2.536  0.4523  0.1180  0.6246
 5564TIP3    H116698   5.801   0.360   2.500 -0.5533  0.4313 -0.7901
 5564TIP3    H216699   5.704   0.433   2.590  0.7641 -0.0069  1.0369
 5565TIP3   OH216700   3.527   3.582   3.799  0.0357 -0.3431 -0.0377
 5565TIP3    H116701   3.513   3.547   3.887  1.0989 -0.6958  0.0098
 5565TIP3    H216702   3.591   3.522   3.760 -1.1677 -0.7968 -1.4224
 5566TIP3   OH216703   3.950   3.280   0.607 -0.2266  0.2825  0.2255
 5566TIP3    H116704   3.911   3.351   0.659 -0.2127 -0.4661  1.2800
 5566TIP3    H216705   4.025   3.322   0.564 -0.8023  1.1524  0.0232
 5567TIP3   OH216706   2.147   2.721   3.148 -0.6794  0.3187 -0.4848
 5567TIP3    H116707   2.165   2.627   3.142 -0.6638  0.2795  0.1527
 5567TIP3    H216708   2.204   2.752   3.218 -0.8635  0.7649 -0.5299
 5568TIP3   OH216709   1.120   4.687   1.431 -0.1389 -0.0482  0.0048
 5568TIP3    H116710   1.188   4.632   1.390  2.4524  2.2454  0.8676
 5568TIP3    H216711   1.069   4.627   1.485  0.5542 -2.0508 -1.4428
 5569TIP3   OH216712   5.331   5.831   1.453 -0.4603  0.1450  0.4338
 5569TIP3    H116713   5.422   5.801   1.445  0.7960  3.7747 -0.5871
 5569TIP3    H216714   5.303   5.846   1.363 -0.4907  3.0982  0.8565
 5570TIP3   OH216715   2.618   1.866   0.525 -0.4148 -0.5185  0.1849
 5570TIP3    H116716   2.524   1.846   0.523 -0.3024 -1.4025  1.7966
 5570TIP3    H216717   2.657   1.808   0.460 -0.6344 -2.5223  1.7480
 5571TIP3   OH216718   5.283   0.607   0.765  0.8983 -0.4857 -0.4442
 5571TIP3    H116719   5.244   0.522   0.746 -1.5011  0.4200  0.1647
 5571TIP3    H216720   5.278   0.655   0.683  0.2993 -0.2212 -0.2578
 5572TIP3   OH216721   2.554   3.770   2.897 -0.1451 -0.0169  0.3375
 5572TIP3    H116722   2.542   3.683   2.859  0.8391  0.3815 -0.9311
 5572TIP3    H216723   2.475   3.783   2.950 -0.8152 -1.2493 -0.3011
 5573TIP3   OH216724   1.371   5.020   4.075  0.2538 -0.0259 -0.0982
 5573TIP3    H116725   1.413   5.098   4.109  1.2179  0.3276 -1.9674
 5573TIP3    H216726   1.435   4.982   4.015 -2.6099  1.8310 -4.9860
 5574TIP3   OH216727   2.872   2.069   2.202 -0.1771  0.0264 -0.0352
 5574TIP3    H116728   2.893   2.155   2.167 -1.3156 -0.2133 -1.3819
 5574TIP3    H216729   2.957   2.028   2.217  0.3671  0.8358 -0.7976
 5575TIP3   OH216730   2.713   3.062   5.085  0.2941 -0.5569  0.3372
 5575TIP3    H116731   2.665   3.005   5.145  2.5171 -1.7587  1.0856
 5575TIP3    H216732   2.801   3.025   5.081  0.8181  0.6922 -2.0902
 5576TIP3   OH216733   3.880   1.164   2.675  0.1666  0.1843  0.2773
 5576TIP3    H116734   3.961   1.129   2.639  0.9742 -0.0676  2.1970
 5576TIP3    H216735   3.826   1.087   2.693 -1.4413  0.4133 -2.8180
 5577TIP3   OH216736   1.865   2.942   1.370  0.2614 -0.3805  0.1806
 5577TIP3    H116737   1.799   2.905   1.311 -0.5529  2.2235 -0.6927
 5577TIP3    H216738   1.931   2.874   1.379 -1.7396 -2.4840 -0.2407
 5578TIP3   OH216739   5.669   4.462   0.564 -0.5401  0.4852  0.4714
 5578TIP3    H116740   5.743   4.522   0.573 -0.0650  0.3851 -2.0330
 5578TIP3    H216741   5.597   4.517   0.534 -0.7173  0.1479  0.2701
 5579TIP3   OH216742   0.290   3.472   0.896 -0.0299 -0.2057  0.1615
 5579TIP3    H116743   0.256   3.445   0.981 -0.0671 -1.4392 -0.2359
 5579TIP3    H216744   0.280   3.568   0.896  1.1850 -0.0220  2.0507
 5580TIP3   OH216745   1.038   5.758   0.912  0.2450 -0.4230  0.8670
 5580TIP3    H116746   0.984   5.695   0.960  2.2222 -0.8032  2.7458
 5580TIP3    H216747   1.103   5.704   0.867 -0.3871  0.0716 -0.6866
 5581TIP3   OH216748   0.781   2.239   3.508 -0.0667 -0.1095  0.4032
 5581TIP3    H116749   0.756   2.302   3.440  1.1734  0.7758  0.7434
 5581TIP3    H216750   0.728   2.161   3.489  0.3303  0.0737 -1.6255
 5582TIP3   OH216751   1.965   1.017   4.458  0.2808  0.5609  0.6436
 5582TIP3    H116752   1.948   0.998   4.550  0.8830 -2.0711  0.2699
 5582TIP3    H216753   1.886   0.990   4.412 -0.5181  3.0121  0.4304
 5583TIP3   OH216754   2.530   1.327   0.454  0.1567 -0.4135  0.0250
 5583TIP3    H116755   2.604   1.268   0.438 -1.2201 -1.9824 -0.9135
 5583TIP3    H216756   2.533   1.389   0.381  1.7118  0.8467  1.1037
 5584TIP3   OH216757   5.876   5.742   3.394 -0.3451  0.2642  0.5668
 5584TIP3    H116758   5.948   5.801   3.371  0.4173 -0.1873  1.6927
 5584TIP3    H216759   5.905   5.655   3.367 -0.7492  0.1652  0.4355
 5585TIP3   OH216760   0.398   4.957   4.753  0.1348  0.0427  0.1583
 5585TIP3    H116761   0.447   4.884   4.714  0.2718  0.2620 -0.0830
 5585TIP3    H216762   0.422   5.033   4.700  0.0134  0.2690  0.4261
 5586TIP3   OH216763   0.904   5.095   2.163  0.6595 -0.0269 -0.1925
 5586TIP3    H116764   0.960   5.140   2.100  0.7531  0.6884  0.3891
 5586TIP3    H216765   0.818   5.093   2.121  0.9563 -0.4963 -0.7872
 5587TIP3   OH216766   6.208   4.883   4.023 -1.1570  0.4076 -0.3586
 5587TIP3    H116767   6.197   4.847   4.111 -0.8117  0.6461 -0.2138
 5587TIP3    H216768   6.264   4.819   3.978  1.0481  1.6423  0.4906
 5588TIP3   OH216769   0.289   0.396   0.173  0.2662 -0.4086 -0.7957
 5588TIP3    H116770   0.366   0.340   0.181  0.8890  0.6586  1.7350
 5588TIP3    H216771   0.310   0.457   0.102  0.2656 -2.2474 -2.4447
 5589TIP3   OH216772   1.273   2.363   0.978  0.0756  0.2089 -0.2223
 5589TIP3    H116773   1.210   2.292   0.993 -1.5010  1.4686 -0.5733
 5589TIP3    H216774   1.253   2.427   1.047  0.2260  1.1023 -0.9853
 5590TIP3   OH216775   4.773   0.381   4.279 -0.1214  0.3260 -0.6569
 5590TIP3    H116776   4.787   0.288   4.295  0.1597  0.4503 -0.1415
 5590TIP3    H216777   4.803   0.395   4.189 -0.5093 -0.1493 -0.8637
 5591TIP3   OH216778   1.611   1.706   0.930 -0.6987 -0.6197  0.5520
 5591TIP3    H116779   1.652   1.790   0.951  0.8634 -1.2019  0.0095
 5591TIP3    H216780   1.538   1.698   0.991 -0.3915  0.7757  1.1334
 5592TIP3   OH216781   6.108   3.232   3.359  0.6126  0.0690 -0.0124
 5592TIP3    H116782   6.026   3.278   3.378  0.1122  0.3710 -2.5517
 5592TIP3    H216783   6.158   3.294   3.307  2.0680 -0.4885  0.6890
 5593TIP3   OH216784   2.891   1.945   3.173  0.0795 -0.6944  0.1081
 5593TIP3    H116785   2.827   1.977   3.236  0.7610 -0.1293  0.5190
 5593TIP3    H216786   2.957   1.901   3.226  0.6320 -0.2605 -0.2173
 5594TIP3   OH216787   6.182   2.746   1.808 -0.2286 -0.1016 -0.3999
 5594TIP3    H116788   6.114   2.709   1.752 -0.7447  1.2540 -0.7162
 5594TIP3    H216789   6.264   2.709   1.775 -0.7265 -1.0851 -0.5619
 5595TIP3   OH216790   4.383   1.302   4.935 -0.3897  0.0095 -0.1033
 5595TIP3    H116791   4.369   1.396   4.946 -0.2867  0.2834 -2.0490
 5595TIP3    H216792   4.461   1.283   4.988 -1.3603  0.6684  1.6309
 5596TIP3   OH216793   3.065   5.237   1.002  0.1704  0.3753  0.0159
 5596TIP3    H116794   3.151   5.222   0.963 -0.2410 -2.2731 -0.0509
 5596TIP3    H216795   3.033   5.316   0.958  1.0489 -0.6648 -2.7454
 5597TIP3   OH216796   0.930   1.555   4.893  0.3462  0.1569  0.0589
 5597TIP3    H116797   0.875   1.496   4.842  0.0923  0.8216 -0.4642
 5597TIP3    H216798   0.977   1.607   4.828  0.1085  0.9388  0.4923
 5598TIP3   OH216799   1.802   1.939   4.549 -0.3364  0.3202  0.7839
 5598TIP3    H116800   1.895   1.922   4.565 -0.3282 -2.6341 -1.5737
 5598TIP3    H216801   1.799   2.032   4.525  1.8781  0.6534  1.5631
 5599TIP3   OH216802   1.292   3.856   4.461 -0.0985  0.1610 -0.7899
 5599TIP3    H116803   1.298   3.880   4.554 -0.1199 -0.4606 -0.6251
 5599TIP3    H216804   1.356   3.913   4.418 -0.1138  0.4782 -0.4013
 5600TIP3   OH216805   3.424   3.426   1.365  0.0735 -0.2326 -0.5784
 5600TIP3    H116806   3.341   3.385   1.388 -0.1197  0.2365 -0.4227
 5600TIP3    H216807   3.487   3.354   1.364  0.3949 -0.1665  2.8544
 5601TIP3   OH216808   1.959   0.491   1.263 -0.0217 -0.3770 -0.1160
 5601TIP3    H116809   1.985   0.401   1.243 -1.5593 -1.4761  2.3914
 5601TIP3    H216810   1.997   0.509   1.348 -1.6629  0.4534  0.4807
 5602TIP3   OH216811   5.520   1.676   4.710 -0.0748 -0.1869 -0.0188
 5602TIP3    H116812   5.445   1.647   4.762 -0.3752 -1.3965 -1.0830
 5602TIP3    H216813   5.522   1.617   4.635  1.6529  0.1297 -0.2746
 5603TIP3   OH216814   1.775   5.488   0.754 -0.7085 -0.2725  0.4187
 5603TIP3    H116815   1.747   5.399   0.733  1.3735 -0.5396 -1.5878
 5603TIP3    H216816   1.852   5.477   0.810 -0.9282  0.3133  0.8573
 5604TIP3   OH216817   4.838   4.414   2.063  0.0049  0.1484  0.3864
 5604TIP3    H116818   4.886   4.447   1.986  0.4364 -0.2732  0.4709
 5604TIP3    H216819   4.826   4.321   2.045  0.6222 -0.0802  1.0845
 5605TIP3   OH216820   1.536   0.592   5.071 -0.4671 -0.4712  0.7073
 5605TIP3    H116821   1.613   0.575   5.126  0.0965  0.3529  0.1862
 5605TIP3    H216822   1.545   0.531   4.998  0.0829  0.1078  0.2785
 5606TIP3   OH216823   0.103   1.553   1.044 -0.2254 -0.0700  0.0742
 5606TIP3    H116824   0.196   1.528   1.047 -0.4002 -0.6177  1.8112
 5606TIP3    H216825   0.104   1.642   1.009  0.9504 -0.1112 -0.0434
 5607TIP3   OH216826   1.470   1.475   1.831 -0.0081  0.4669  0.2983
 5607TIP3    H116827   1.492   1.389   1.869 -0.3222  0.4724  0.4945
 5607TIP3    H216828   1.554   1.508   1.799 -0.2083 -0.8546 -1.7559
 5608TIP3   OH216829   0.995   1.728   2.251  0.3959 -0.2391  0.6501
 5608TIP3    H116830   1.012   1.773   2.168  1.0106 -0.0795  0.8622
 5608TIP3    H216831   0.907   1.692   2.240 -0.2430  1.2461  0.5703
 5609TIP3   OH216832   4.668   5.795   0.762 -0.7375  0.0116 -0.3115
 5609TIP3    H116833   4.633   5.713   0.797 -0.9771  0.2877  0.1024
 5609TIP3    H216834   4.757   5.773   0.735 -0.9013 -0.4612 -0.4973
 5610TIP3   OH216835   1.675   1.555   2.812 -0.3174  0.2440  0.2240
 5610TIP3    H116836   1.637   1.590   2.892 -1.1571 -1.5576  0.6601
 5610TIP3    H216837   1.627   1.597   2.741 -0.2032  1.1470  0.6739
 5611TIP3   OH216838   5.340   3.865   0.676  0.5117 -0.2487  0.4913
 5611TIP3    H116839   5.423   3.909   0.692 -0.0329  0.4211  1.5818
 5611TIP3    H216840   5.286   3.931   0.633  1.2703 -1.3970 -2.4794
 5612TIP3   OH216841   5.446   0.799   3.125 -0.5519 -0.1130 -0.1082
 5612TIP3    H116842   5.537   0.794   3.155 -0.7657  2.1696  1.1835
 5612TIP3    H216843   5.403   0.725   3.169  0.2280  0.1309  1.1276
 5613TIP3   OH216844   1.665   1.301   1.449 -0.3335  0.2617  0.1118
 5613TIP3    H116845   1.704   1.329   1.366 -0.1146 -1.7735 -0.5373
 5613TIP3    H216846   1.740   1.285   1.507 -0.4574  1.0955  0.5108
 5614TIP3   OH216847   3.854   2.681   1.674  0.1128 -0.0374  0.3862
 5614TIP3    H116848   3.811   2.651   1.754 -2.5464 -0.4031 -1.0789
 5614TIP3    H216849   3.897   2.603   1.639  0.2028 -0.1683  0.7829
 5615TIP3   OH216850   5.810   3.066   3.781 -0.8028  0.1567  0.1434
 5615TIP3    H116851   5.772   2.991   3.826 -3.5180  1.3008 -0.0557
 5615TIP3    H216852   5.808   3.043   3.689  2.4605 -1.1726  0.2496
 5616TIP3   OH216853   5.197   4.401   4.301 -0.5717  0.2816  0.5258
 5616TIP3    H116854   5.291   4.415   4.317 -0.6799  0.6667  0.8152
 5616TIP3    H216855   5.168   4.348   4.375 -0.1157 -1.7530 -0.6690
 5617TIP3   OH216856   5.172   2.678   2.100 -0.2734 -0.4026 -0.5180
 5617TIP3    H116857   5.213   2.606   2.148 -1.5620 -0.5371  0.4365
 5617TIP3    H216858   5.221   2.684   2.019  1.6198 -0.5454  0.5661
 5618TIP3   OH216859   5.674   4.667  -0.006  0.2539  0.0668 -0.2853
 5618TIP3    H116860   5.630   4.652   0.078 -0.5728  1.1605 -0.4996
 5618TIP3    H216861   5.739   4.734   0.013 -0.6361  1.0797 -0.7067
 5619TIP3   OH216862   4.668   2.062   2.400  0.0195 -0.1279  0.4229
 5619TIP3    H116863   4.670   2.078   2.494 -0.4998 -0.8368  0.5603
 5619TIP3    H216864   4.747   2.010   2.383  0.8086  1.0939  0.2462
 5620TIP3   OH216865   1.408   3.591   2.664  0.4230 -0.1538  0.0098
 5620TIP3    H116866   1.341   3.628   2.722  0.0244 -4.1372  2.4457
 5620TIP3    H216867   1.358   3.546   2.596  0.6217 -1.3363  0.6184
 5621TIP3   OH216868   1.557   5.974   1.014 -0.2836 -0.3496  0.3629
 5621TIP3    H116869   1.481   5.922   1.039 -1.2130  0.3623 -0.8459
 5621TIP3    H216870   1.520   6.059   0.989  0.9265  0.0749 -0.0325
 5622TIP3   OH216871   1.805   3.974   3.153  0.4608 -0.1566  0.3264
 5622TIP3    H116872   1.804   3.879   3.138 -0.4043 -0.0980 -0.0147
 5622TIP3    H216873   1.870   4.008   3.091  2.7338 -0.7854  2.1946
 5623TIP3   OH216874   5.589   4.101   4.575 -0.5832 -0.0602  0.5697
 5623TIP3    H116875   5.642   4.110   4.496 -0.1895  0.9998  0.9389
 5623TIP3    H216876   5.499   4.110   4.545 -0.5152 -0.9609  0.0682
 5624TIP3   OH216877   1.673   2.913   1.048  0.2944 -0.4883 -0.1851
 5624TIP3    H116878   1.699   2.826   1.018 -0.5438 -1.1819  1.0222
 5624TIP3    H216879   1.648   2.901   1.140 -1.1654  0.7489 -0.3772
 5625TIP3   OH216880   3.089   0.548   3.879 -0.0471 -0.3293  0.9763
 5625TIP3    H116881   3.135   0.629   3.898  0.3574 -0.5606  0.9771
 5625TIP3    H216882   3.097   0.496   3.958  0.0297 -0.5308  0.8350
 5626TIP3   OH216883   4.005   0.258   1.930  0.0992  0.5939 -0.3803
 5626TIP3    H116884   3.966   0.327   1.983 -1.3211 -1.4084  1.3644
 5626TIP3    H216885   4.089   0.240   1.973  0.5582  1.3346 -0.9511
 5627TIP3   OH216886   1.062   0.390   4.196 -0.5246  0.0990  0.0443
 5627TIP3    H116887   0.984   0.418   4.245 -0.2446  1.5129 -0.2805
 5627TIP3    H216888   1.027   0.360   4.112 -0.7622  0.2338  0.0922
 5628TIP3   OH216889   2.214   0.824   5.090 -0.0756 -0.3330  0.1468
 5628TIP3    H116890   2.270   0.819   5.167 -0.3096 -1.7516  0.2342
 5628TIP3    H216891   2.209   0.918   5.071  1.7322 -0.1118  0.5709
 5629TIP3   OH216892   5.586   3.118   2.635 -0.0876  0.2521  0.3038
 5629TIP3    H116893   5.681   3.129   2.631 -0.3713  3.1986 -1.0355
 5629TIP3    H216894   5.556   3.185   2.697 -1.3674  0.1014 -0.1108
 5630TIP3   OH216895   3.970   1.002   1.973 -0.1521  0.2080  0.2217
 5630TIP3    H116896   3.886   1.035   2.006  0.5595  0.3938  1.9746
 5630TIP3    H216897   3.946   0.941   1.904 -1.6813  0.9942  0.0006
 5631TIP3   OH216898   5.599   1.413   4.073 -0.2610  0.0052  0.2613
 5631TIP3    H116899   5.537   1.365   4.019 -0.4084  0.9459 -0.4318
 5631TIP3    H216900   5.567   1.401   4.163 -0.8452 -0.3728  0.0054
 5632TIP3   OH216901   0.326   1.009   1.542  0.5035  0.1740  0.0177
 5632TIP3    H116902   0.397   0.948   1.559 -0.3426 -0.3844  1.9642
 5632TIP3    H216903   0.349   1.088   1.592 -0.3846 -0.1785  1.0556
 5633TIP3   OH216904   6.088   4.456   0.396 -0.3487 -0.2246  0.0466
 5633TIP3    H116905   6.078   4.479   0.303  1.6478  2.0079  0.2575
 5633TIP3    H216906   6.171   4.408   0.400 -1.4158 -2.1306  0.4816
 5634TIP3   OH216907   1.627   4.718   4.409 -0.9396 -0.3967  0.2199
 5634TIP3    H116908   1.599   4.798   4.365 -1.5383 -0.1382  1.0433
 5634TIP3    H216909   1.631   4.652   4.339 -1.9101 -0.0118 -0.2166
 5635TIP3   OH216910   3.662   2.601   2.208 -0.0130 -0.3710  0.4198
 5635TIP3    H116911   3.749   2.565   2.190  0.5825  1.7525 -1.3855
 5635TIP3    H216912   3.605   2.558   2.144  0.4908  0.9018 -0.9704
 5636TIP3   OH216913   3.691   1.551   4.835 -0.3355 -0.3927 -0.5752
 5636TIP3    H116914   3.728   1.479   4.783 -0.9945 -2.2349  1.3548
 5636TIP3    H216915   3.615   1.512   4.878 -0.1539  1.1890  1.3162
 5637TIP3   OH216916   2.622   5.496   2.901 -0.1413  0.1266 -0.1093
 5637TIP3    H116917   2.593   5.506   2.992 -0.4215 -1.5436  0.0214
 5637TIP3    H216918   2.711   5.530   2.900  0.5256 -1.4461  1.2405
 5638TIP3   OH216919   0.869   2.426   2.916 -0.3899 -0.1901 -0.0858
 5638TIP3    H116920   0.822   2.342   2.915 -0.0355 -0.4017  0.5584
 5638TIP3    H216921   0.806   2.487   2.954 -1.0701  0.1100 -1.6156
 5639TIP3   OH216922   2.476   2.730   0.209 -0.0574 -0.7438 -0.2120
 5639TIP3    H116923   2.387   2.696   0.204 -0.1699 -0.9293  1.9359
 5639TIP3    H216924   2.467   2.824   0.198 -0.4704 -0.8169 -0.5019
 5640TIP3   OH216925   1.950   1.878   2.321  0.2244  0.3280 -0.4835
 5640TIP3    H116926   2.007   1.938   2.271 -1.8077  2.5213 -0.3803
 5640TIP3    H216927   1.865   1.923   2.323 -0.6003 -1.1570  2.3256
 5641TIP3   OH216928   0.779   0.570   4.890 -0.7823 -0.1979 -0.4284
 5641TIP3    H116929   0.742   0.608   4.969 -2.3326  1.2780 -1.7810
 5641TIP3    H216930   0.809   0.645   4.838  1.6110 -1.2028 -0.6321
 5642TIP3   OH216931   2.227   0.093   1.042  0.1349  0.1221  0.9474
 5642TIP3    H116932   2.283   0.114   1.116  0.8663  0.2699  0.3617
 5642TIP3    H216933   2.267   0.015   1.003 -0.7665 -0.5024  1.2458
 5643TIP3   OH216934   3.430   5.876   5.024 -0.2968  0.1154  0.2951
 5643TIP3    H116935   3.514   5.874   4.978 -0.4843  1.9143 -0.2201
 5643TIP3    H216936   3.375   5.815   4.977  0.0903  0.5123 -0.6909
 5644TIP3   OH216937   0.780   2.874   1.103 -0.0574 -0.2882  0.0032
 5644TIP3    H116938   0.736   2.798   1.065 -0.7709  0.0642  0.1092
 5644TIP3    H216939   0.770   2.943   1.037 -1.1166  0.2642  0.7084
 5645TIP3   OH216940   5.750   5.733   2.647 -0.4250  0.3549  0.0387
 5645TIP3    H116941   5.729   5.649   2.688  1.5288  0.1100  0.6269
 5645TIP3    H216942   5.796   5.709   2.567 -1.6938  0.8791 -0.8795
 5646TIP3   OH216943   5.436   1.368   1.090 -0.1848 -0.1336  0.2332
 5646TIP3    H116944   5.436   1.273   1.079  0.7621  0.0134 -1.2810
 5646TIP3    H216945   5.521   1.396   1.056 -1.5167  1.4999 -1.9832
 5647TIP3   OH216946   0.245   0.180   3.715  0.3191  0.2458  0.5904
 5647TIP3    H116947   0.297   0.144   3.788 -0.5574 -1.0744  0.5995
 5647TIP3    H216948   0.214   0.103   3.668  1.6018  1.0577 -1.7625
 5648TIP3   OH216949   0.714   2.721   2.959 -0.1961  0.0348  0.2660
 5648TIP3    H116950   0.648   2.672   3.010  0.9112 -1.6146  0.1808
 5648TIP3    H216951   0.687   2.710   2.868 -0.2490  0.0430  0.2805
 5649TIP3   OH216952   2.292   0.770   1.035  0.3797 -0.3714 -0.0653
 5649TIP3    H116953   2.231   0.699   1.017 -0.8405  0.5499  0.3489
 5649TIP3    H216954   2.379   0.730   1.027 -0.2604 -1.5761 -1.1387
 5650TIP3   OH216955   5.938   1.655   3.271 -0.1127 -0.1676  0.6029
 5650TIP3    H116956   5.919   1.594   3.342 -0.7937  2.1908  2.5403
 5650TIP3    H216957   5.862   1.648   3.213 -1.2693  0.4325  1.9976
 5651TIP3   OH216958   3.378   1.787   3.179  0.4990  0.2633  0.2174
 5651TIP3    H116959   3.388   1.707   3.127  1.2216 -0.8930  2.0383
 5651TIP3    H216960   3.337   1.758   3.261 -2.1630  2.2795 -0.2763
 5652TIP3   OH216961   2.328   3.951   3.475 -0.0883  0.3950 -0.2423
 5652TIP3    H116962   2.324   4.046   3.489 -1.0710  0.1944  1.0647
 5652TIP3    H216963   2.420   3.933   3.456  0.4846  1.3969  1.3643
 5653TIP3   OH216964   3.756   1.668   0.179 -0.1011  0.4628  0.5485
 5653TIP3    H116965   3.821   1.738   0.192  0.3873  0.4128 -1.3061
 5653TIP3    H216966   3.807   1.587   0.182  0.3802  0.5053 -2.8572
 5654TIP3   OH216967   5.536   0.831   0.947 -0.0845 -0.0019  0.2514
 5654TIP3    H116968   5.525   0.926   0.937 -1.9248 -0.2057  0.0974
 5654TIP3    H216969   5.554   0.800   0.859  0.7106  0.1961  0.3288
 5655TIP3   OH216970   5.477   3.366   3.974  0.2832 -0.2653 -0.2471
 5655TIP3    H116971   5.382   3.356   3.976  0.2118 -0.2646 -1.9631
 5655TIP3    H216972   5.492   3.459   3.994 -0.1430 -0.0539 -0.8925
 5656TIP3   OH216973   1.443   5.897   4.300  0.0171 -0.0297 -0.3028
 5656TIP3    H116974   1.452   5.834   4.228 -2.6741 -3.0695  1.7152
 5656TIP3    H216975   1.367   5.950   4.276  0.6980  0.7241 -0.8266
 5657TIP3   OH216976   2.050   2.776   3.766  0.6456 -0.1773 -0.1561
 5657TIP3    H116977   2.135   2.795   3.806  0.3471 -0.9401  0.8839
 5657TIP3    H216978   2.069   2.706   3.704  1.0129  0.6386 -0.9981
 5658TIP3   OH216979   5.001   3.362   4.353  0.4811 -0.6349  0.2193
 5658TIP3    H116980   4.972   3.275   4.380  0.4175 -0.7286 -0.1466
 5658TIP3    H216981   4.921   3.414   4.347  0.2371 -1.1898 -1.8721
 5659TIP3   OH216982   4.728   0.953   4.256 -0.1436 -0.1846 -0.5520
 5659TIP3    H116983   4.791   0.919   4.193 -1.3852  0.9105 -2.4697
 5659TIP3    H216984   4.642   0.935   4.218 -0.9937 -0.4904  1.3844
 5660TIP3   OH216985   0.414   0.246   4.908  0.4044  0.1311  0.3180
 5660TIP3    H116986   0.447   0.220   4.822  1.3188  0.1877  0.6506
 5660TIP3    H216987   0.489   0.286   4.952 -0.0461  0.0601  1.1627
 5661TIP3   OH216988   5.012   5.753   3.495  0.9706 -0.2893 -0.2152
 5661TIP3    H116989   5.072   5.827   3.502  0.4834  0.1874 -0.9555
 5661TIP3    H216990   5.037   5.709   3.413  0.5086 -0.2609 -0.3767
 5662TIP3   OH216991   6.332   2.518   1.945  0.1337  0.0324  0.3189
 5662TIP3    H116992   6.247   2.488   1.913  0.3895 -2.0876  1.4374
 5662TIP3    H216993   6.312   2.587   2.007 -0.6850  0.2732 -0.1985
 5663TIP3   OH216994   2.229   3.263   3.241  0.2572 -0.6238  0.2100
 5663TIP3    H116995   2.153   3.222   3.283  0.2098 -2.2913 -1.3681
 5663TIP3    H216996   2.242   3.345   3.289 -1.8336 -0.8371  1.2488
 5664TIP3   OH216997   0.434   2.713   4.518 -0.2264  0.1295 -0.5209
 5664TIP3    H116998   0.465   2.701   4.608  0.9921 -1.9790 -1.1557
 5664TIP3    H216999   0.498   2.770   4.477 -0.0271 -0.0206 -0.4185
 5665TIP3   OH217000   5.717   3.811   4.650 -0.4679  0.2588 -0.0067
 5665TIP3    H117001   5.680   3.889   4.610 -0.3962 -0.0377 -0.6649
 5665TIP3    H217002   5.792   3.842   4.700 -0.4601  0.6164 -0.2421
 5666TIP3   OH217003   2.998   1.850   4.580  0.1655  0.0469 -0.1065
 5666TIP3    H117004   2.995   1.888   4.669  0.0995 -0.9377  0.3197
 5666TIP3    H217005   3.064   1.903   4.535 -0.3632  1.0777  0.2733
 5667TIP3   OH217006   1.145   2.796   4.724  0.3119  0.4117  0.0944
 5667TIP3    H117007   1.141   2.847   4.644  0.0567  0.1482 -0.0620
 5667TIP3    H217008   1.232   2.756   4.723  0.0710 -0.1027 -0.3674
 5668TIP3   OH217009   3.430   4.027   1.927  0.3888  0.2610 -0.7300
 5668TIP3    H117010   3.387   4.072   1.855  0.8747  0.6915 -0.7585
 5668TIP3    H217011   3.468   4.097   1.980  1.7180 -0.1192 -1.1307
 5669TIP3   OH217012   5.478   0.479   4.335 -0.3320  0.0742 -0.5058
 5669TIP3    H117013   5.468   0.511   4.424  0.0188 -1.0403 -0.0584
 5669TIP3    H217014   5.572   0.485   4.318 -0.5021  1.2054 -1.1682
 5670TIP3   OH217015   3.929   0.185   3.849  0.3186  0.9100 -0.3998
 5670TIP3    H117016   3.844   0.228   3.845  0.1676  0.7144  0.4035
 5670TIP3    H217017   3.983   0.242   3.903  0.6583  0.9629 -0.7886
 5671TIP3   OH217018   4.176   1.886   0.719  0.3740  0.4315 -0.2333
 5671TIP3    H117019   4.121   1.821   0.762  0.5674  0.8689  0.7076
 5671TIP3    H217020   4.247   1.836   0.679  0.9208  0.1215  1.0961
 5672TIP3   OH217021   4.960   4.994   2.006 -0.3483  0.5485 -0.0340
 5672TIP3    H117022   4.911   4.912   2.017  1.4870 -1.0666 -2.8960
 5672TIP3    H217023   4.976   5.023   2.096 -0.4809 -2.6109  1.1518
 5673TIP3   OH217024   0.069   5.491   4.360  0.0071  0.2520 -0.5056
 5673TIP3    H117025   0.047   5.477   4.268 -1.3590  1.0033 -0.3162
 5673TIP3    H217026   0.030   5.576   4.381 -3.1136 -1.5808  1.7797
 5674TIP3   OH217027   5.470   5.484   3.131  0.1993  0.2780 -0.1803
 5674TIP3    H117028   5.414   5.558   3.153 -2.1294 -0.9897 -1.4415
 5674TIP3    H217029   5.418   5.432   3.069  3.5809 -0.0008 -3.0360
 5675TIP3   OH217030   0.899   3.554   3.523  1.0903 -0.2054 -0.4003
 5675TIP3    H117031   0.864   3.516   3.604  1.0680  1.3339  0.3584
 5675TIP3    H217032   0.892   3.484   3.459 -1.7888 -0.5311  0.1264
 5676TIP3   OH217033   2.567   2.372   3.713  0.1672 -0.1112 -0.0145
 5676TIP3    H117034   2.614   2.416   3.784  1.7458 -1.3257 -0.2563
 5676TIP3    H217035   2.496   2.325   3.756  1.4873 -1.3596  0.8746
 5677TIP3   OH217036   1.097   2.825   3.171 -0.1516  0.4810  0.6648
 5677TIP3    H117037   1.082   2.888   3.241  0.7686  1.7244 -0.2046
 5677TIP3    H217038   1.174   2.859   3.125  0.2160 -1.1556  0.0108
 5678TIP3   OH217039   5.445   1.052   2.997 -0.0159  0.2791 -0.1281
 5678TIP3    H117040   5.541   1.053   2.994  0.0200  0.3150  0.7822
 5678TIP3    H217041   5.424   0.980   3.058 -0.6404 -1.7428 -2.5421
 5679TIP3   OH217042   1.310   2.734   1.776  0.0325  0.3237 -0.2636
 5679TIP3    H117043   1.243   2.750   1.709 -0.1015  0.5264 -0.0863
 5679TIP3    H217044   1.355   2.818   1.785 -1.7153  1.1229  1.8100
 5680TIP3   OH217045   4.111   2.461   0.631  0.2709 -0.0144 -0.6373
 5680TIP3    H117046   4.154   2.546   0.626 -0.4433  0.5440  1.4064
 5680TIP3    H217047   4.107   2.430   0.541  1.2144  1.7697 -1.3426
 5681TIP3   OH217048   0.160   0.190  -0.008 -0.2540 -0.5796 -0.4579
 5681TIP3    H117049   0.133   0.271  -0.051  1.6103 -0.2198 -1.0440
 5681TIP3    H217050   0.213   0.218   0.067 -0.6704 -1.2478  0.1015
 5682TIP3   OH217051   2.186   0.981   0.262 -0.0534 -0.3950 -0.2195
 5682TIP3    H117052   2.161   0.896   0.299  1.5047 -1.6377 -1.8494
 5682TIP3    H217053   2.176   1.043   0.334 -3.0117 -1.5898  0.5378
 5683TIP3   OH217054   5.171   2.607   1.239 -0.0358  0.1734 -0.1604
 5683TIP3    H117055   5.224   2.681   1.268  0.4798  0.3626 -1.5073
 5683TIP3    H217056   5.145   2.629   1.149  1.8494 -2.1338 -1.3929
 5684TIP3   OH217057   4.044   5.684   4.955  0.0125  0.5363  0.4545
 5684TIP3    H117058   3.971   5.719   5.007 -0.6875  2.6047 -1.7476
 5684TIP3    H217059   4.003   5.622   4.895  0.4433  0.0306  0.6681
 5685TIP3   OH217060   2.990   2.331   5.183 -0.5500  0.0113  0.4133
 5685TIP3    H117061   3.050   2.364   5.117  1.1027  0.2024  1.9238
 5685TIP3    H217062   2.908   2.316   5.136 -0.0777  2.0946 -1.2276
 5686TIP3   OH217063   3.008   1.294   0.648 -0.4487 -0.1061 -0.7441
 5686TIP3    H117064   3.005   1.363   0.713  0.4903 -1.8745  1.2966
 5686TIP3    H217065   2.983   1.215   0.695 -0.9617 -1.2822 -2.8565
 5687TIP3   OH217066   3.000   2.888   0.765 -0.1471 -0.6990 -0.5073
 5687TIP3    H117067   2.927   2.867   0.706 -0.7293  0.5617 -0.2660
 5687TIP3    H217068   2.989   2.981   0.783  0.3105 -0.9625  1.2199
 5688TIP3   OH217069   4.667   4.103   1.064  0.0063  0.2639 -0.3870
 5688TIP3    H117070   4.731   4.174   1.059 -0.6970  1.0075  0.8222
 5688TIP3    H217071   4.604   4.123   0.995  0.1211  0.4958 -0.4253
 5689TIP3   OH217072   3.660   4.294   4.223  0.0236  0.6716  0.1985
 5689TIP3    H117073   3.742   4.270   4.180  0.2843  1.5575  0.1764
 5689TIP3    H217074   3.595   4.295   4.152 -0.1640 -0.7071  0.3327
 5690TIP3   OH217075   6.135   2.592   3.102 -0.1068 -0.1395 -0.2004
 5690TIP3    H117076   6.164   2.529   3.035  0.6056 -1.2446  1.0909
 5690TIP3    H217077   6.195   2.577   3.175 -1.1064  0.7758  0.8215
 5691TIP3   OH217078   1.232   5.643   5.075 -0.0685  0.0498  0.1816
 5691TIP3    H117079   1.293   5.693   5.021 -0.4760  0.6421  0.2623
 5691TIP3    H217080   1.246   5.552   5.049  0.2687  0.2613 -0.3883
 5692TIP3   OH217081   4.187   4.246   1.712 -0.4421  0.4065  0.0147
 5692TIP3    H117082   4.097   4.250   1.745 -0.3544 -0.0652  0.3234
 5692TIP3    H217083   4.179   4.212   1.623 -0.5435  0.0490  0.1599
 5693TIP3   OH217084   0.333   0.673   2.646  0.3813 -0.2538  0.2877
 5693TIP3    H117085   0.375   0.707   2.724  1.1539 -0.6393  0.0491
 5693TIP3    H217086   0.338   0.745   2.583  0.2329 -0.1268  0.4204
 5694TIP3   OH217087   0.459   2.545   2.335 -0.2687  0.4661  0.2124
 5694TIP3    H117088   0.541   2.595   2.333 -0.1999  0.4087  1.1132
 5694TIP3    H217089   0.486   2.455   2.320 -0.4194  0.7040 -1.6574
 5695TIP3   OH217090   3.960   4.235   0.373  0.2524  0.0331 -0.1862
 5695TIP3    H117091   3.981   4.143   0.387  0.4014 -0.0016 -0.6303
 5695TIP3    H217092   3.957   4.245   0.278  0.8032  0.6177 -0.1500
 5696TIP3   OH217093   3.358   5.615   4.535  0.3453  0.0155  0.9668
 5696TIP3    H117094   3.298   5.684   4.505 -0.4889 -1.7358 -1.6996
 5696TIP3    H217095   3.365   5.555   4.461  3.0715 -1.4618  2.2732
 5697TIP3   OH217096   1.340   3.649   3.790 -0.1730  0.5595 -0.1248
 5697TIP3    H117097   1.303   3.574   3.837  2.1438 -0.4401  0.2232
 5697TIP3    H217098   1.266   3.686   3.742 -2.1428  0.2399  2.4732
 5698TIP3   OH217099   3.903   1.470   3.359  0.2181  0.6876  0.1318
 5698TIP3    H117100   3.950   1.490   3.440  2.0610  0.6280 -0.8625
 5698TIP3    H217101   3.920   1.377   3.343 -0.5260  0.5832 -0.0903
 5699TIP3   OH217102   6.261   0.006   1.554  0.4460  0.0541  0.1787
 5699TIP3    H117103   6.198  -0.007   1.625 -0.3909 -1.0715 -0.7349
 5699TIP3    H217104   6.335   0.050   1.596 -1.0247  1.6393  1.2401
 5700TIP3   OH217105   3.355   3.101   0.360  0.2057  0.0299  0.0981
 5700TIP3    H117106   3.410   3.113   0.283 -1.3570 -1.5950 -1.3514
 5700TIP3    H217107   3.355   3.007   0.375 -0.7912  0.1779  1.1209
 5701TIP3   OH217108   0.250   3.069   3.067 -0.0877 -0.0824 -0.5221
 5701TIP3    H117109   0.163   3.108   3.072 -0.3513 -0.6948 -0.1722
 5701TIP3    H217110   0.311   3.143   3.071 -0.5848  0.3150 -0.2570
 5702TIP3   OH217111   2.465   0.523   1.477  0.2681 -0.1718  0.2507
 5702TIP3    H117112   2.526   0.449   1.487 -0.5554 -0.8939  0.0234
 5702TIP3    H217113   2.409   0.498   1.404  0.0762  0.7628  0.0670
 5703TIP3   OH217114   1.122   1.630   3.828  0.1187 -0.6746 -0.1328
 5703TIP3    H117115   1.110   1.663   3.917  0.3882 -0.5896 -0.1269
 5703TIP3    H217116   1.081   1.696   3.772  1.6268  0.2471 -0.1996
 5704TIP3   OH217117   3.233   4.660   2.847 -0.2023  0.1128 -0.2719
 5704TIP3    H117118   3.299   4.718   2.811  1.4515 -0.0270  2.2872
 5704TIP3    H217119   3.272   4.573   2.844 -2.5511 -1.0349 -3.8165
 5705TIP3   OH217120   4.188   2.632   4.333  0.6268  0.9023  0.3672
 5705TIP3    H117121   4.181   2.539   4.313 -1.9195  1.4143 -1.7528
 5705TIP3    H217122   4.189   2.637   4.428  1.4182 -1.2934  0.5151
 5706TIP3   OH217123   5.170   5.169   0.466  0.2095 -0.0059 -0.4907
 5706TIP3    H117124   5.155   5.092   0.521 -0.6755  0.8029  0.4134
 5706TIP3    H217125   5.262   5.160   0.438  1.2877  0.4598  2.5634
 5707TIP3   OH217126   1.687   0.916   3.937 -0.1352  0.0614  1.2871
 5707TIP3    H117127   1.762   0.922   3.879 -1.0504 -0.9050 -0.0510
 5707TIP3    H217128   1.611   0.923   3.879 -1.0784  0.1074  2.4920
 5708TIP3   OH217129   3.199   3.879   1.904 -0.0417 -0.0750 -0.2435
 5708TIP3    H117130   3.152   3.938   1.962 -0.3365 -1.7230  1.2586
 5708TIP3    H217131   3.292   3.903   1.914 -0.0824 -0.3593  0.9716
 5709TIP3   OH217132   5.120   2.014   1.131 -0.1801 -0.1294  0.3771
 5709TIP3    H117133   5.057   1.964   1.184 -0.9923  0.7502  0.2676
 5709TIP3    H217134   5.140   2.091   1.185 -0.5549  0.4698 -0.3246
 5710TIP3   OH217135   2.330   2.287   4.687  0.8604  0.4596  0.0177
 5710TIP3    H117136   2.361   2.238   4.611 -0.0348 -0.5222  0.2594
 5710TIP3    H217137   2.311   2.374   4.653  0.5516  0.0600 -0.8816
 5711TIP3   OH217138   0.128   0.011   1.958 -0.1995 -0.0461  0.5654
 5711TIP3    H117139   0.171  -0.057   2.010  1.1722  0.8650  0.6618
 5711TIP3    H217140   0.096   0.074   2.022  1.2625  0.9474  0.3496
 5712TIP3   OH217141   1.500   5.239   0.594 -0.1269 -0.4375  0.0141
 5712TIP3    H117142   1.467   5.194   0.672  0.3215  0.4585  0.7370
 5712TIP3    H217143   1.595   5.232   0.600 -0.0688  0.1824 -0.1105
 5713TIP3   OH217144   1.267   2.894   2.915  0.7929 -0.1010  0.1581
 5713TIP3    H117145   1.361   2.899   2.933  0.8640  1.0904 -0.4290
 5713TIP3    H217146   1.259   2.823   2.850  1.5783  1.1605 -1.3924
 5714TIP3   OH217147   0.093   5.631   3.218 -0.0462 -0.1774 -0.4769
 5714TIP3    H117148   0.133   5.714   3.243  0.2933 -0.5097  0.1157
 5714TIP3    H217149   0.003   5.653   3.195  0.2355  0.4519 -0.9889
 5715TIP3   OH217150   1.267   4.601   1.035 -0.7767  0.1706  0.3239
 5715TIP3    H117151   1.330   4.557   0.977 -0.6580  0.9229 -0.1238
 5715TIP3    H217152   1.194   4.539   1.042 -0.4299 -0.2790  0.0408
 5716TIP3   OH217153   5.583   0.764   2.663  0.5707  0.6678  0.5129
 5716TIP3    H117154   5.548   0.740   2.577  2.2549 -1.9900  0.4686
 5716TIP3    H217155   5.513   0.741   2.724  0.2484  0.3928  0.0524
 5717TIP3   OH217156   1.188   4.422   2.120 -0.4338 -0.0620  0.1288
 5717TIP3    H117157   1.106   4.442   2.075  1.1371  0.6876 -2.6332
 5717TIP3    H217158   1.216   4.338   2.084  0.3294  0.0039  0.5390
 5718TIP3   OH217159   1.031   2.473   4.373  0.7595  0.5272 -0.1492
 5718TIP3    H117160   1.000   2.402   4.430 -0.0318  0.1842 -0.9718
 5718TIP3    H217161   1.065   2.428   4.295  1.5649  1.0015 -0.0821
 5719TIP3   OH217162   5.183   1.661   1.009  0.8151 -0.3176  0.2209
 5719TIP3    H117163   5.224   1.672   0.923  1.0999 -0.9625  0.2742
 5719TIP3    H217164   5.091   1.644   0.989  0.5413  1.1428  0.1040
 5720TIP3   OH217165   2.503   0.460   2.895  0.3053  0.0734 -0.0378
 5720TIP3    H117166   2.547   0.474   2.812 -0.1583  0.0657 -0.2848
 5720TIP3    H217167   2.568   0.484   2.961  0.2854  1.1957 -0.4128
 5721TIP3   OH217168   4.404   2.104   3.090 -0.0529 -0.2777  0.4045
 5721TIP3    H117169   4.391   2.020   3.046  1.6860 -1.1742  1.4688
 5721TIP3    H217170   4.424   2.080   3.181 -1.8349  1.4308  1.3156
 5722TIP3   OH217171   2.959   3.433   2.318  0.6504 -0.1663  0.1868
 5722TIP3    H117172   2.885   3.437   2.379  0.3799 -1.1195 -0.0562
 5722TIP3    H217173   2.919   3.441   2.231  1.0159  1.0140  0.1139
 5723TIP3   OH217174   4.947   3.884   2.247 -0.2672  0.1877  0.1511
 5723TIP3    H117175   4.966   3.916   2.335  0.8297 -0.1387  0.0449
 5723TIP3    H217176   4.957   3.789   2.253 -0.5383  0.1313 -0.2454
 5724TIP3   OH217177   1.715   3.946   1.565 -0.7859  0.1505 -0.4196
 5724TIP3    H117178   1.637   4.001   1.561 -1.4668 -0.7501 -0.0404
 5724TIP3    H217179   1.764   3.979   1.640 -1.6062 -0.2657  0.3247
 5725TIP3   OH217180   3.135   2.882   2.909  0.4548 -0.2782 -0.6744
 5725TIP3    H117181   3.084   2.801   2.917 -1.6971  0.8517 -1.9064
 5725TIP3    H217182   3.226   2.853   2.910 -0.2220 -2.6500 -0.5522
 5726TIP3   OH217183   6.021   5.194   2.571 -0.0426 -0.3755 -0.2358
 5726TIP3    H117184   6.094   5.140   2.600 -0.5145 -1.0627 -0.2889
 5726TIP3    H217185   5.944   5.152   2.609 -0.4171  0.2797 -0.2579
 5727TIP3   OH217186   5.007   1.312   1.231 -0.5718  0.0437  0.2772
 5727TIP3    H117187   4.968   1.395   1.258 -0.6731 -0.4106  1.6405
 5727TIP3    H217188   5.071   1.293   1.300  1.5628  0.3925 -1.5025
 5728TIP3   OH217189   4.396   0.279   1.864 -0.6765  0.1606  0.1898
 5728TIP3    H117190   4.396   0.325   1.947  1.0518 -0.3989  0.5438
 5728TIP3    H217191   4.401   0.348   1.798  1.1747  0.5449  0.6828
 5729TIP3   OH217192   6.228   0.095   5.141  0.2371  0.1197  0.1175
 5729TIP3    H117193   6.204   0.112   5.050  0.3446  1.7085  0.3577
 5729TIP3    H217194   6.303   0.037   5.136  1.0999  1.2766 -0.8652
 5730TIP3   OH217195   3.297   2.542   0.272  0.3580  0.0523 -0.2978
 5730TIP3    H117196   3.354   2.537   0.349  0.2766  0.1404 -0.2303
 5730TIP3    H217197   3.354   2.523   0.198  0.1116 -1.6224 -0.0804
 5731TIP3   OH217198   1.718   2.001   0.164 -0.5177 -0.0964 -0.3450
 5731TIP3    H117199   1.662   1.928   0.190  0.6365 -0.6494  0.6909
 5731TIP3    H217200   1.675   2.078   0.203 -1.5424 -0.2451 -1.1338
 5732TIP3   OH217201   3.260   4.258   2.250 -0.0283 -0.3930 -0.0974
 5732TIP3    H117202   3.251   4.171   2.289  0.6379 -0.5369 -0.2392
 5732TIP3    H217203   3.189   4.309   2.288  1.6223  0.0005  2.7536
 5733TIP3   OH217204   3.877   5.292   0.181 -0.1145  0.1607 -0.5722
 5733TIP3    H117205   3.829   5.209   0.191 -0.3775  0.4995  1.3006
 5733TIP3    H217206   3.808   5.358   0.175  0.1152  0.3941 -0.6372
 5734TIP3   OH217207   2.544   3.167   1.905 -0.2195  0.2358  0.4022
 5734TIP3    H117208   2.537   3.260   1.925  0.7530  0.4102 -0.0443
 5734TIP3    H217209   2.528   3.161   1.811 -1.6302 -0.2228  0.6403
 5735TIP3   OH217210   3.089   5.998   4.274 -0.0453  0.1264 -0.3266
 5735TIP3    H117211   3.158   5.934   4.292  0.2786  0.7746  0.8863
 5735TIP3    H217212   3.037   5.959   4.204  0.6547 -1.0667 -0.2052
 5736TIP3   OH217213   3.953   5.701   0.350 -0.6713  0.2035 -0.0616
 5736TIP3    H117214   3.937   5.696   0.256  3.0693 -0.5341 -0.8249
 5736TIP3    H217215   3.950   5.610   0.380  0.0793  0.2123  0.0774
 5737TIP3   OH217216   5.574   2.056   0.979  0.1766 -0.2867  0.2727
 5737TIP3    H117217   5.637   1.995   0.940 -1.3153 -2.5062  1.1243
 5737TIP3    H217218   5.568   2.029   1.070 -0.9883  0.7833  0.5427
 5738TIP3   OH217219   4.066   0.864   3.825  0.1208  0.1080  0.9354
 5738TIP3    H117220   4.134   0.801   3.800 -0.7525 -0.6957  0.5648
 5738TIP3    H217221   3.984   0.824   3.796 -0.4909  1.2005  1.1248
 5739TIP3   OH217222   5.086   4.576   4.100  0.0345 -0.6415 -0.0957
 5739TIP3    H117223   5.004   4.571   4.149 -0.4449 -0.4707 -0.8553
 5739TIP3    H217224   5.145   4.517   4.145 -0.5737 -0.9225  0.3438
 5740TIP3   OH217225   5.359   3.861   2.985  0.4664 -0.3409  0.0216
 5740TIP3    H117226   5.304   3.877   3.061 -0.7216  0.0831 -0.8902
 5740TIP3    H217227   5.308   3.799   2.932  2.0709 -2.0741  0.3917
 5741TIP3   OH217228   1.838   3.444   4.593 -0.1278  0.3746 -0.0084
 5741TIP3    H117229   1.825   3.353   4.570  0.7650  0.0282  0.7624
 5741TIP3    H217230   1.752   3.475   4.621 -0.1090 -0.7207  1.3422
 5742TIP3   OH217231   2.281   1.732   4.035 -0.6592  0.3361  0.1958
 5742TIP3    H117232   2.280   1.824   4.061 -0.0880  0.4552 -0.1623
 5742TIP3    H217233   2.373   1.705   4.045 -0.2195  0.6238 -2.3853
 5743TIP3   OH217234   1.738   3.071   3.046  0.3633 -0.1624  0.5682
 5743TIP3    H117235   1.727   3.163   3.023  0.0212  0.0702  1.5997
 5743TIP3    H217236   1.651   3.032   3.035  0.4153 -0.2687  0.5253
 5744TIP3   OH217237   5.137   2.862   3.269  0.0017 -0.2346  0.2343
 5744TIP3    H117238   5.160   2.773   3.296  0.6939  0.3077  1.5319
 5744TIP3    H217239   5.193   2.880   3.194 -1.3205 -1.4669 -1.1030
 5745TIP3   OH217240   3.726   1.495   3.135  0.6354 -0.0492  0.7553
 5745TIP3    H117241   3.787   1.561   3.103  2.1669 -0.2190  3.0755
 5745TIP3    H217242   3.758   1.473   3.223 -2.7642 -0.1504  2.1294
 5746TIP3   OH217243   1.790   2.498   4.321 -0.4366 -0.2526  0.1411
 5746TIP3    H117244   1.740   2.550   4.258  1.0982 -0.8360 -1.6634
 5746TIP3    H217245   1.811   2.559   4.392  0.7914  1.5078 -1.6193
 5747TIP3   OH217246   1.049   2.094   1.401 -0.0935  0.6303 -0.4470
 5747TIP3    H117247   1.044   2.144   1.483  0.1723  0.3678 -0.2693
 5747TIP3    H217248   1.143   2.082   1.386 -0.1317 -1.6681  0.6596
 5748TIP3   OH217249   3.312   5.794   3.284  0.2513 -0.0912  0.4410
 5748TIP3    H117250   3.224   5.809   3.251  0.7619  0.7625 -0.5705
 5748TIP3    H217251   3.312   5.701   3.309 -1.1137  0.0465  1.0891
 5749TIP3   OH217252   0.585   3.167   4.945  0.7785  0.0423  0.4535
 5749TIP3    H117253   0.558   3.229   4.878  0.9086 -1.0827 -0.6787
 5749TIP3    H217254   0.673   3.194   4.970  1.4120 -0.5207 -1.0900
 5750TIP3   OH217255   0.716   4.500   3.815  0.3983 -0.6347 -0.3098
 5750TIP3    H117256   0.777   4.434   3.848  0.0417 -0.3958  0.8983
 5750TIP3    H217257   0.667   4.455   3.746 -0.0844 -1.7658  0.7215
 5751TIP3   OH217258   1.927   5.064   0.357  0.0542 -0.2042  0.3201
 5751TIP3    H117259   1.961   5.154   0.348 -0.7382  0.1648  0.9193
 5751TIP3    H217260   2.002   5.013   0.387  1.1862 -0.2660 -2.3427
 5752TIP3   OH217261   2.061   2.159   1.132 -0.2522 -0.2275 -0.1672
 5752TIP3    H117262   2.044   2.208   1.212 -2.0664  1.5435 -1.5465
 5752TIP3    H217263   1.996   2.191   1.069 -0.6431 -3.4103 -1.6208
 5753TIP3   OH217264   3.184   3.796   4.080  0.1048 -0.2077  0.5032
 5753TIP3    H117265   3.248   3.733   4.047 -0.7235  0.0803 -1.8705
 5753TIP3    H217266   3.219   3.824   4.164  1.3432 -2.5683  0.8617
 5754TIP3   OH217267   2.228   2.255   4.106 -0.0592 -0.6101 -1.1415
 5754TIP3    H117268   2.244   2.183   4.168 -0.1689  0.1435 -0.2096
 5754TIP3    H217269   2.133   2.263   4.102 -0.0611  0.8288  0.4245
 5755TIP3   OH217270   5.591   1.713   4.032 -0.7003  0.5001 -0.0386
 5755TIP3    H117271   5.686   1.705   4.040 -0.3320  1.7524 -2.2147
 5755TIP3    H217272   5.556   1.630   4.064  1.1356 -0.0868  0.5351
 5756TIP3   OH217273   1.326   2.395   2.940 -0.3088  0.4947 -0.2477
 5756TIP3    H117274   1.408   2.442   2.920  0.1238 -0.4640 -0.7715
 5756TIP3    H217275   1.354   2.306   2.961 -1.0363  0.6833  1.6802
 5757TIP3   OH217276   6.049   5.193   2.303  0.0502  0.3409 -0.0575
 5757TIP3    H117277   6.019   5.276   2.266  1.7035  0.6282 -0.8189
 5757TIP3    H217278   6.024   5.197   2.395  1.1253  2.2051  0.1842
 5758TIP3   OH217279   0.270   5.977   0.731 -0.7271  0.2591 -0.2912
 5758TIP3    H117280   0.234   6.060   0.699 -0.7383 -0.5384 -2.5337
 5758TIP3    H217281   0.196   5.916   0.727 -1.2777  0.5182  3.2933
 5759TIP3   OH217282   6.343   3.467   2.624 -0.0693  0.3981  0.1592
 5759TIP3    H117283   6.252   3.441   2.613 -0.1067  0.3617  0.5340
 5759TIP3    H217284   6.376   3.408   2.693 -0.3812  1.8817  1.6462
 5760TIP3   OH217285   2.951   5.646   3.536 -0.0676  0.1366  0.3612
 5760TIP3    H117286   2.869   5.659   3.583  0.8641  0.7786  1.8807
 5760TIP3    H217287   2.928   5.591   3.461 -1.7054 -0.4250  1.2469
 5761TIP3   OH217288   6.277   2.186   3.792 -0.1181  0.5470  0.0951
 5761TIP3    H117289   6.220   2.139   3.854 -1.6442 -0.4707 -1.9464
 5761TIP3    H217290   6.233   2.269   3.778  0.7945  1.2406  1.1054
 5762TIP3   OH217291   0.167   3.884   3.117  0.3474 -0.3975  0.1911
 5762TIP3    H117292   0.221   3.961   3.100 -1.1910  0.5042 -0.7844
 5762TIP3    H217293   0.163   3.838   3.033 -0.9498 -0.0638  0.0424
 5763TIP3   OH217294   4.906   0.136   0.045 -0.3609 -0.1864 -0.4755
 5763TIP3    H117295   4.994   0.163   0.022 -0.6586 -0.3998 -1.9654
 5763TIP3    H217296   4.866   0.109  -0.038 -2.1448  0.8123 -0.0063
 5764TIP3   OH217297   5.393   0.709   4.184 -0.4617  0.2481 -0.5196
 5764TIP3    H117298   5.360   0.619   4.190  0.6369 -0.0944  0.6619
 5764TIP3    H217299   5.335   0.750   4.119 -2.0642 -0.8195  0.1448
 5765TIP3   OH217300   5.467   3.053   3.339 -0.0924  0.6110  0.1931
 5765TIP3    H117301   5.475   2.958   3.334  0.6516  0.6270  0.9651
 5765TIP3    H217302   5.437   3.079   3.252 -0.0428 -0.2984 -0.1052
 5766TIP3   OH217303   1.779   5.725   5.032  0.3538 -0.2951 -0.6943
 5766TIP3    H117304   1.785   5.821   5.027 -0.6137 -0.0893  1.1297
 5766TIP3    H217305   1.784   5.706   5.126  0.5683 -2.0548 -1.0303
 5767TIP3   OH217306   3.725   4.389   0.360  0.2814 -0.3529  0.1788
 5767TIP3    H117307   3.652   4.328   0.374  0.5378 -0.3377  1.8466
 5767TIP3    H217308   3.803   4.333   0.357  0.2029 -0.4389 -2.3014
 5768TIP3   OH217309   0.901   1.866   1.465 -0.3239  0.0616  0.2580
 5768TIP3    H117310   0.950   1.916   1.400 -1.7013 -0.7168 -1.4520
 5768TIP3    H217311   0.967   1.840   1.530  1.8650 -1.9476 -2.5102
 5769TIP3   OH217312   1.137   1.337   3.113 -0.5810 -0.0983 -0.2843
 5769TIP3    H117313   1.202   1.267   3.109  1.6313  1.8740 -0.5035
 5769TIP3    H217314   1.143   1.370   3.202 -2.0078 -0.4597 -0.0180
 5770TIP3   OH217315   1.138   1.782   2.475  0.0524 -0.1928 -0.2745
 5770TIP3    H117316   1.092   1.755   2.396  2.1186 -2.3764 -0.8648
 5770TIP3    H217317   1.079   1.759   2.547 -0.6020 -0.9972 -1.0534
 5771TIP3   OH217318   0.221   0.371   1.499  0.3760  0.0251  0.9622
 5771TIP3    H117319   0.255   0.460   1.507 -2.6270  1.2320  1.8620
 5771TIP3    H217320   0.255   0.325   1.575 -0.5967  1.4195  2.2939
 5772TIP3   OH217321   2.973   2.685   4.332  0.4913  0.7689  0.0924
 5772TIP3    H117322   3.036   2.616   4.309  0.2614  1.6078 -3.7774
 5772TIP3    H217323   2.908   2.682   4.261 -3.4013  0.6314  3.3376
 5773TIP3   OH217324   3.159   0.472   4.161  0.1365  0.6244  0.8070
 5773TIP3    H117325   3.214   0.547   4.183  1.1862  0.0434  0.2700
 5773TIP3    H217326   3.091   0.471   4.229 -0.7423  2.8416  0.0595
 5774TIP3   OH217327   1.406   1.088   1.877 -0.4814  0.9009 -0.0076
 5774TIP3    H117328   1.407   1.160   1.940  0.6422 -0.7187  1.9370
 5774TIP3    H217329   1.493   1.089   1.837 -0.5813  0.8140 -0.2316
 5775TIP3   OH217330   4.166   4.577   2.331  0.3615 -0.3070 -0.0411
 5775TIP3    H117331   4.257   4.584   2.303  0.6441  1.2692  1.1567
 5775TIP3    H217332   4.120   4.643   2.279  0.1443 -0.2054  0.2786
 5776TIP3   OH217333   0.728   1.611   2.239 -0.0670  0.5832  0.2419
 5776TIP3    H117334   0.719   1.605   2.144 -0.8617 -1.0930  0.3738
 5776TIP3    H217335   0.640   1.634   2.270  0.4107  2.1244  0.5449
 5777TIP3   OH217336   2.110   4.300   4.288 -0.5009  0.6766 -0.0692
 5777TIP3    H117337   2.161   4.258   4.218  0.0366  0.7547  0.2732
 5777TIP3    H217338   2.106   4.392   4.262 -0.3409  0.6975 -0.0221
 5778TIP3   OH217339   2.414   3.456   1.574 -0.4572 -0.3553 -0.8277
 5778TIP3    H117340   2.436   3.517   1.645 -0.9010 -1.1157 -0.0203
 5778TIP3    H217341   2.479   3.474   1.506 -0.6370  1.0791 -0.6455
 5779TIP3   OH217342   5.413   4.533   4.074  0.4020 -0.1762  0.4106
 5779TIP3    H117343   5.420   4.453   4.021  0.3863 -0.5210  0.9261
 5779TIP3    H217344   5.358   4.508   4.148 -3.2574  1.3818 -1.5126
 5780TIP3   OH217345   3.748   5.771   1.604  0.1479  0.1263 -0.1451
 5780TIP3    H117346   3.836   5.750   1.571  0.0446 -1.7067  0.6012
 5780TIP3    H217347   3.763   5.800   1.694  0.1872  2.4898 -0.8544
 5781TIP3   OH217348   3.653   0.828   3.235  0.0951 -0.3246 -0.1244
 5781TIP3    H117349   3.690   0.752   3.280  0.7874  1.3428  2.3162
 5781TIP3    H217350   3.565   0.837   3.271 -0.8834 -1.2375 -2.1176
 5782TIP3   OH217351   0.683   5.790   1.895  0.2526  0.6252  0.5792
 5782TIP3    H117352   0.778   5.777   1.900  0.0409 -1.0774  0.9173
 5782TIP3    H217353   0.654   5.787   1.987 -0.0848  1.7044  0.5235
 5783TIP3   OH217354   5.485   1.114   3.716  0.2147  0.0759 -0.2177
 5783TIP3    H117355   5.555   1.050   3.702 -1.1459 -1.8203  1.1102
 5783TIP3    H217356   5.481   1.163   3.634  0.0134 -2.9104 -2.1380
 5784TIP3   OH217357   5.904   1.374   0.176  0.5839  0.1710  0.0192
 5784TIP3    H117358   5.874   1.448   0.123  1.4414 -0.7725 -1.8930
 5784TIP3    H217359   5.854   1.380   0.257 -1.6487  1.0675 -1.3352
 5785TIP3   OH217360   3.486   2.285   4.956 -0.2865 -0.2333 -0.1839
 5785TIP3    H117361   3.392   2.273   4.940 -0.5647  1.4728 -0.0649
 5785TIP3    H217362   3.492   2.372   4.997  1.4738  0.3290 -1.5162
 5786TIP3   OH217363   5.152   0.553   4.401 -0.0309 -0.0096  0.0131
 5786TIP3    H117364   5.193   0.490   4.342 -2.9039 -0.3788 -1.7589
 5786TIP3    H217365   5.122   0.500   4.475  0.1879 -0.1884 -0.0249
 5787TIP3   OH217366   0.966   3.441   1.005 -0.0816 -0.2228  0.4076
 5787TIP3    H117367   1.028   3.480   1.067 -1.1855 -0.7597  1.9065
 5787TIP3    H217368   1.020   3.414   0.931  1.1318  1.4183  0.6270
 5788TIP3   OH217369   3.551   0.488   3.657 -0.3210  0.0635 -0.0055
 5788TIP3    H117370   3.526   0.578   3.677  0.3736  0.2075  0.2727
 5788TIP3    H217371   3.646   0.492   3.646  0.0064 -0.9569  1.9150
 5789TIP3   OH217372   3.970   4.894   2.996 -0.0708  0.5493 -0.0531
 5789TIP3    H117373   3.992   4.872   2.905 -0.4958  2.7735 -0.7662
 5789TIP3    H217374   3.890   4.844   3.014 -1.2464  1.6935 -1.7246
 5790TIP3   OH217375   2.612   3.528   3.487  0.1646  0.0158 -0.4238
 5790TIP3    H117376   2.598   3.440   3.523 -0.1904  0.7555  1.3216
 5790TIP3    H217377   2.692   3.519   3.434  0.2937 -1.2872 -0.0496
 5791TIP3   OH217378   4.251   4.528   3.007 -0.2823 -0.1780 -0.1405
 5791TIP3    H117379   4.269   4.545   2.915  1.6059 -1.0073  0.0450
 5791TIP3    H217380   4.337   4.519   3.048 -0.9858  1.9435  2.0836
 5792TIP3   OH217381   4.255   3.017   4.021 -0.4856  0.1351 -0.3851
 5792TIP3    H117382   4.261   2.929   4.057 -0.0553 -0.0930 -0.9988
 5792TIP3    H217383   4.277   3.075   4.094  0.3596 -0.3200 -0.2645
 5793TIP3   OH217384   2.985   2.301   0.686  0.5283 -1.0336  0.1420
 5793TIP3    H117385   3.051   2.324   0.751  0.7645  3.4216 -1.3594
 5793TIP3    H217386   3.035   2.265   0.613  0.9931 -0.3128  0.0970
 5794TIP3   OH217387   3.299   0.787   5.106 -0.5336  0.5846 -0.1365
 5794TIP3    H117388   3.344   0.749   5.031 -1.2103  0.5460 -0.5303
 5794TIP3    H217389   3.246   0.715   5.141 -0.4019  0.6650  0.2369
 5795TIP3   OH217390   1.443   4.815   4.726 -0.3564 -0.5894  0.0470
 5795TIP3    H117391   1.361   4.863   4.739 -0.4640 -1.1885  1.9785
 5795TIP3    H217392   1.416   4.730   4.692 -0.3303 -0.0816 -1.3230
 5796TIP3   OH217393   4.132   1.055   4.200 -0.1462 -0.1284  0.4294
 5796TIP3    H117394   4.037   1.057   4.211 -0.2674 -0.1940 -0.5132
 5796TIP3    H217395   4.164   1.009   4.277 -1.0504 -1.8598 -0.1869
 5797TIP3   OH217396   1.187   5.047   3.510  0.3844 -1.0941 -0.0914
 5797TIP3    H117397   1.135   5.058   3.589  0.5772 -2.9497  0.3325
 5797TIP3    H217398   1.125   5.063   3.439  0.0006 -0.2607  0.4211
 5798TIP3   OH217399   4.274   4.835   0.428 -0.6715 -0.3236 -0.0214
 5798TIP3    H117400   4.241   4.857   0.515 -0.7105 -0.3611 -0.0263
 5798TIP3    H217401   4.222   4.890   0.368 -0.2024  0.1785  0.0239
 5799TIP3   OH217402   3.547   5.449   0.961  0.0267 -0.5314 -0.1318
 5799TIP3    H117403   3.541   5.506   0.885  0.2897 -0.3461 -0.0144
 5799TIP3    H217404   3.590   5.502   1.028  1.0074 -1.1188 -0.2704
 5800TIP3   OH217405   4.173   0.236   4.665  0.7923  0.2537  0.5106
 5800TIP3    H117406   4.211   0.296   4.729 -1.7866  3.7010 -0.8842
 5800TIP3    H217407   4.161   0.289   4.587 -0.4824 -2.5180 -1.3360
 5801TIP3   OH217408   3.752   4.978   4.745 -0.4013  0.1602 -0.2473
 5801TIP3    H117409   3.729   4.966   4.837  0.7422 -1.1020 -0.0997
 5801TIP3    H217410   3.775   5.070   4.738  0.5019  0.0470  0.9657
 5802TIP3   OH217411   2.366   1.274   3.075  0.2293 -0.1882 -0.3833
 5802TIP3    H117412   2.362   1.253   2.981 -1.5359  1.9866 -0.8784
 5802TIP3    H217413   2.351   1.368   3.079  0.6779 -0.1631  2.0939
 5803TIP3   OH217414   3.575   5.124   0.533  0.0982  0.1362 -0.1275
 5803TIP3    H117415   3.637   5.119   0.606  1.5540  2.8852 -1.0465
 5803TIP3    H217416   3.537   5.211   0.540 -0.4659  0.0814 -2.0822
 5804TIP3   OH217417   0.267   0.622   1.524 -0.4908 -0.0999 -0.1006
 5804TIP3    H117418   0.291   0.664   1.442  0.7531  0.3731  0.4739
 5804TIP3    H217419   0.314   0.672   1.591 -2.4435  0.3221  1.0470
 5805TIP3   OH217420   3.837   4.500   0.795 -0.5414 -0.3244 -0.0002
 5805TIP3    H117421   3.889   4.468   0.722  0.9333  1.4400  0.2076
 5805TIP3    H217422   3.747   4.499   0.763  0.0091 -0.1300 -1.6227
 5806TIP3   OH217423   6.268   2.173   0.258 -0.1038  0.2063 -0.3076
 5806TIP3    H117424   6.252   2.099   0.317 -2.0251 -0.0840 -1.1186
 5806TIP3    H217425   6.346   2.148   0.209  0.4931 -0.3242  0.8505
 5807TIP3   OH217426   2.623   1.691   0.896 -0.2863 -0.1681 -0.1503
 5807TIP3    H117427   2.667   1.618   0.852  1.3677  0.3822  0.4828
 5807TIP3    H217428   2.629   1.669   0.989 -1.1252  0.0748 -0.0308
 5808TIP3   OH217429   1.933   4.070   2.935 -0.0646  0.7960 -0.3915
 5808TIP3    H117430   1.920   4.136   2.867 -3.4638  0.2074 -0.4801
 5808TIP3    H217431   1.998   4.011   2.897 -0.1917  1.7187 -2.1965
 5809TIP3   OH217432   2.453   4.842   1.263 -0.9575 -0.0262 -0.2667
 5809TIP3    H117433   2.379   4.899   1.285 -0.7571  0.0698  0.1765
 5809TIP3    H217434   2.529   4.901   1.260 -0.7973 -0.2199 -0.0910
 5810TIP3   OH217435   1.935   4.485   3.440  0.3339  0.0968  0.8684
 5810TIP3    H117436   1.925   4.470   3.534 -0.8286 -1.1638  0.5831
 5810TIP3    H217437   1.845   4.498   3.408  0.8537  2.7039  0.2274
 5811TIP3   OH217438   2.834   1.878   2.535 -0.7720  0.3839  0.5143
 5811TIP3    H117439   2.750   1.923   2.525 -0.5029  1.0583  1.1834
 5811TIP3    H217440   2.900   1.947   2.525 -0.3372  0.0622  1.0936
 5812TIP3   OH217441   2.800   1.171   2.495 -0.7508  0.1233 -0.2690
 5812TIP3    H117442   2.877   1.193   2.548 -1.6688  1.4382  0.5646
 5812TIP3    H217443   2.836   1.121   2.422  0.6830 -0.8781  1.0325
 5813TIP3   OH217444   1.978   1.271   1.164 -0.6204 -0.8286  1.0114
 5813TIP3    H117445   1.983   1.196   1.104  1.4588 -0.1162  0.2107
 5813TIP3    H217446   2.033   1.245   1.238 -0.6150 -0.4419  1.1415
 5814TIP3   OH217447   0.854   2.926   2.399 -0.1678  0.0437 -0.3480
 5814TIP3    H117448   0.891   3.008   2.367 -0.8944  0.6373  0.3070
 5814TIP3    H217449   0.796   2.951   2.471  1.9394 -1.2760  2.0079
 5815TIP3   OH217450   4.465   1.947   4.115  0.0450  0.2365  0.0177
 5815TIP3    H117451   4.510   1.883   4.061 -1.3945  0.5644 -1.6667
 5815TIP3    H217452   4.384   1.902   4.143  0.6867  0.1194  1.8446
 5816TIP3   OH217453   5.810   4.184   0.647 -0.0404 -0.2307  0.0767
 5816TIP3    H117454   5.789   4.258   0.589  1.3542  0.1089 -0.0444
 5816TIP3    H217455   5.802   4.220   0.735  0.0664 -0.0849  0.0284
 5817TIP3   OH217456   3.838   2.950   2.529 -0.1830 -0.3826  0.0379
 5817TIP3    H117457   3.813   3.042   2.522 -1.1269 -0.6565 -0.3508
 5817TIP3    H217458   3.770   2.903   2.481  0.5380 -1.2511 -0.1639
 5818TIP3   OH217459   1.716   5.656   4.651 -0.3491  0.1793 -0.1130
 5818TIP3    H117460   1.628   5.684   4.676 -0.8374 -0.1193 -1.4131
 5818TIP3    H217461   1.755   5.733   4.610  0.2173  0.4786  0.9508
 5819TIP3   OH217462   4.012   1.056   0.416  0.0835 -0.1620 -0.1785
 5819TIP3    H117463   4.002   1.132   0.473  0.4071 -1.0725  1.1515
 5819TIP3    H217464   4.018   1.092   0.328 -1.0551  1.2554  0.2951
 5820TIP3   OH217465   4.273   3.510   0.906 -0.0898  0.0904  0.1811
 5820TIP3    H117466   4.239   3.593   0.941  0.3529  0.2603  0.2122
 5820TIP3    H217467   4.332   3.478   0.973  0.6423  0.3366 -0.3394
 5821TIP3   OH217468   1.484   1.345   0.873 -0.0107 -0.7392 -0.4378
 5821TIP3    H117469   1.506   1.398   0.950 -1.0481 -1.3241  0.2822
 5821TIP3    H217470   1.538   1.267   0.882 -0.3785 -0.9598 -0.1129
 5822TIP3   OH217471   4.865   0.849   3.988 -0.0699 -0.3317 -0.6621
 5822TIP3    H117472   4.834   0.917   3.929  0.7544 -0.7580 -1.6098
 5822TIP3    H217473   4.910   0.786   3.931  1.5326 -0.3060  0.5264
 5823TIP3   OH217474   1.481   3.745   0.675 -0.4536  0.2731 -0.0656
 5823TIP3    H117475   1.537   3.786   0.741 -1.8048  0.8475  0.7477
 5823TIP3    H217476   1.528   3.665   0.650  0.7195  0.7343  0.5912
 5824TIP3   OH217477   3.862   3.011   1.599  0.2960  0.1240 -0.0394
 5824TIP3    H117478   3.953   3.033   1.576  1.0213  0.1533  2.5399
 5824TIP3    H217479   3.869   2.927   1.644 -0.9698  0.1737  0.2734
 5825TIP3   OH217480   6.287   2.016   3.200  0.3692  0.2535  0.5327
 5825TIP3    H117481   6.367   1.995   3.151  0.8198  0.7426  1.0466
 5825TIP3    H217482   6.239   1.933   3.203  1.6781 -0.5046  1.7207
 5826TIP3   OH217483   2.623   0.467   5.189 -0.2454 -0.1457  0.0836
 5826TIP3    H117484   2.682   0.413   5.241 -0.3940  0.9458  1.4266
 5826TIP3    H217485   2.679   0.503   5.120 -0.0861 -1.7438 -0.6751
 5827TIP3   OH217486   1.337   5.810   1.009  0.2480  0.1633 -0.0107
 5827TIP3    H117487   1.314   5.728   1.053  1.4237 -0.9264 -1.3211
 5827TIP3    H217488   1.277   5.875   1.046 -2.6685 -1.8021 -0.8955
 5828TIP3   OH217489   3.565   3.412   5.067  0.2445 -0.3719  0.6260
 5828TIP3    H117490   3.589   3.501   5.043  0.7827 -0.4704  0.7678
 5828TIP3    H217491   3.514   3.380   4.993  0.4043 -0.0861  0.3902
 5829TIP3   OH217492   1.264   3.934   2.773 -0.3319  0.7640  0.0191
 5829TIP3    H117493   1.330   3.970   2.715  0.2149  0.0906  0.2039
 5829TIP3    H217494   1.183   3.979   2.749 -0.2468  0.1064 -1.6717
 5830TIP3   OH217495   5.455   1.134   4.793 -0.6531 -0.0670  0.1359
 5830TIP3    H117496   5.468   1.073   4.865 -0.7558  0.1177  0.3099
 5830TIP3    H217497   5.519   1.204   4.809 -0.7412  0.0214  0.0979
 5831TIP3   OH217498   4.542   1.047   0.462 -0.9608  0.4034 -0.0533
 5831TIP3    H117499   4.550   1.092   0.546  1.7939  1.5991 -0.8229
 5831TIP3    H217500   4.564   0.956   0.482  0.9598  0.9129  0.4109
 5832TIP3   OH217501   2.183   3.527   3.346  0.0050  0.2039 -0.0351
 5832TIP3    H117502   2.133   3.519   3.427 -1.7236 -2.6271 -1.2515
 5832TIP3    H217503   2.130   3.584   3.290  0.5461  1.0670  0.3043
 5833TIP3   OH217504   0.572   0.909   3.280 -0.0968  0.4645  0.3167
 5833TIP3    H117505   0.497   0.856   3.308  1.8625 -2.1754  1.0327
 5833TIP3    H217506   0.571   0.985   3.337 -1.6538 -0.0334  0.9902
 5834TIP3   OH217507   4.737   4.865   3.671 -0.3198  0.3161  0.5488
 5834TIP3    H117508   4.780   4.789   3.632 -2.2507  0.0207 -1.2041
 5834TIP3    H217509   4.771   4.940   3.621 -0.5401  0.2669  0.3194
 5835TIP3   OH217510   3.271   5.345   3.115  0.3015 -0.1521 -0.4820
 5835TIP3    H117511   3.271   5.354   3.210 -0.6648 -1.4921 -0.3128
 5835TIP3    H217512   3.311   5.259   3.100  0.1344 -0.0968 -1.2596
 5836TIP3   OH217513   3.336   1.043   0.671  0.0690  0.9811  0.2207
 5836TIP3    H117514   3.261   1.015   0.724  0.2610  0.9111  0.4598
 5836TIP3    H217515   3.323   1.002   0.586  1.4264 -1.6230  1.1729
 5837TIP3   OH217516   4.820   3.093   1.200  0.3207 -0.0286  0.9595
 5837TIP3    H117517   4.742   3.044   1.175  1.5239 -0.5532 -2.2396
 5837TIP3    H217518   4.876   3.028   1.244 -0.7946  0.2552  2.8938
 5838TIP3   OH217519   1.460   4.814   0.030  0.1389  0.3938  0.2369
 5838TIP3    H117520   1.528   4.792   0.093  0.1876 -0.6524 -0.1732
 5838TIP3    H217521   1.500   4.882  -0.025  0.9038 -0.2864 -0.0720
 5839TIP3   OH217522   2.830   3.550   3.051 -0.2715  0.0243  0.1482
 5839TIP3    H117523   2.750   3.497   3.042  0.0235 -0.9723  2.6275
 5839TIP3    H217524   2.803   3.625   3.105  0.9631 -1.8884  3.7475
 5840TIP3   OH217525   5.051   6.001   1.990 -0.6020 -0.0444 -0.6806
 5840TIP3    H117526   4.980   5.937   1.993  1.3676 -2.3763 -0.4279
 5840TIP3    H217527   5.063   6.019   1.897  0.2143 -1.8168 -0.9667
 5841TIP3   OH217528   3.556   3.307   2.531  0.4405  0.6156  0.5500
 5841TIP3    H117529   3.496   3.248   2.578 -0.7706  0.9372 -0.5318
 5841TIP3    H217530   3.504   3.386   2.516  1.0744  0.8385 -0.5666
 5842TIP3   OH217531   3.573   4.137   0.949 -0.1758  0.6290  0.0058
 5842TIP3    H117532   3.488   4.177   0.965 -0.4963 -0.2055  0.4729
 5842TIP3    H217533   3.554   4.063   0.890  0.0225 -0.3185  1.0876
 5843TIP3   OH217534   1.608   2.255   1.386 -0.4087  0.0203  0.0065
 5843TIP3    H117535   1.689   2.208   1.406 -0.3522 -0.6101 -1.5230
 5843TIP3    H217536   1.555   2.190   1.339 -1.6194  0.5638  0.6073
 5844TIP3   OH217537   4.525   4.698   0.392 -0.1547  0.0214  0.1816
 5844TIP3    H117538   4.512   4.649   0.311  0.3564  1.0947 -0.5792
 5844TIP3    H217539   4.438   4.730   0.415 -1.0942 -3.4918  2.2772
 5845TIP3   OH217540   2.981   2.607  -0.027 -0.3998 -0.3751  0.0571
 5845TIP3    H117541   2.901   2.633   0.020  0.8028 -0.3881  2.2342
 5845TIP3    H217542   3.051   2.658   0.015  1.0421 -1.9863 -0.2808
 5846TIP3   OH217543   0.730   2.497   0.186 -0.0254 -0.1760  0.0191
 5846TIP3    H117544   0.652   2.448   0.159 -0.3150  1.4267 -2.4284
 5846TIP3    H217545   0.696   2.570   0.237  0.0012 -0.1559  0.0081
 5847TIP3   OH217546   4.405   2.897   1.423 -0.0411  0.1584  0.4335
 5847TIP3    H117547   4.447   2.813   1.407 -0.0820 -0.1152  1.6853
 5847TIP3    H217548   4.314   2.884   1.398  0.1939  0.1761 -0.4508
 5848TIP3   OH217549   5.986   5.691   0.588  0.5656  0.0170 -0.0301
 5848TIP3    H117550   6.024   5.778   0.575  0.8172 -0.2037 -0.7952
 5848TIP3    H217551   5.998   5.647   0.504 -2.4964  0.3597 -0.7542
 5849TIP3   OH217552   2.866   3.851   1.253 -0.1412 -0.1449 -0.2742
 5849TIP3    H117553   2.896   3.826   1.340 -0.5573  0.9107  0.1949
 5849TIP3    H217554   2.943   3.839   1.197  0.2161 -0.5463  0.2878
 5850TIP3   OH217555   1.532   2.127   2.773 -0.5550  1.0280 -0.3735
 5850TIP3    H117556   1.447   2.083   2.768  0.0837 -0.2328 -0.5472
 5850TIP3    H217557   1.529   2.175   2.856 -0.7390 -0.5734  0.5996
 5851TIP3   OH217558   2.501   2.255   4.937 -0.6143 -0.6000  0.1950
 5851TIP3    H117559   2.432   2.232   4.874 -0.3589 -1.5478  0.2466
 5851TIP3    H217560   2.456   2.306   5.004 -0.8123  0.7773 -0.9462
 5852TIP3   OH217561   3.420   4.035   1.608 -0.1399  0.0528 -0.2712
 5852TIP3    H117562   3.513   4.013   1.614 -0.4618 -1.1673  0.7823
 5852TIP3    H217563   3.387   3.981   1.537 -0.2413 -0.3273  0.0578
 5853TIP3   OH217564   2.842   0.280   0.628 -0.0769  0.1654 -0.5250
 5853TIP3    H117565   2.751   0.308   0.628 -0.1769 -0.1387 -1.7510
 5853TIP3    H217566   2.871   0.291   0.538  0.8857 -0.4343 -0.3026
 5854TIP3   OH217567   0.997   4.820   1.208 -0.2375 -0.4991  0.3462
 5854TIP3    H117568   0.936   4.750   1.184  1.0484 -1.4707 -0.2466
 5854TIP3    H217569   1.043   4.785   1.284 -0.4917  0.2711  0.8600
 5855TIP3   OH217570   5.137   0.020   3.442  0.1715 -0.6100  0.5570
 5855TIP3    H117571   5.215   0.009   3.497  0.4397  0.7972  0.4903
 5855TIP3    H217572   5.064   0.009   3.502  0.4615  1.4425  1.3560
 5856TIP3   OH217573   2.791   1.519   2.796  0.5230 -0.7509  0.4416
 5856TIP3    H117574   2.814   1.430   2.821  2.2627 -0.0965  1.3495
 5856TIP3    H217575   2.734   1.550   2.866 -0.7587 -1.3940 -0.2911
 5857TIP3   OH217576   0.835   4.754   3.559 -0.1494  0.7191  0.2292
 5857TIP3    H117577   0.741   4.761   3.543  0.1091  0.2928 -1.7912
 5857TIP3    H217578   0.860   4.671   3.518  0.9477  0.2443  1.7379
 5858TIP3   OH217579   4.116   2.660   4.594 -0.4978 -0.0256  0.1331
 5858TIP3    H117580   4.075   2.588   4.642 -1.5396 -0.9855 -2.0548
 5858TIP3    H217581   4.045   2.721   4.576 -0.2660  0.0059 -0.7230
 5859TIP3   OH217582   5.522   3.645   3.985  0.2463  0.4820  1.3467
 5859TIP3    H117583   5.484   3.681   3.905  1.8708  0.9057  0.7233
 5859TIP3    H217584   5.511   3.714   4.050 -0.1355  0.5538  1.2101
 5860TIP3   OH217585   5.768   3.823   4.207 -0.0288  0.3665 -0.0174
 5860TIP3    H117586   5.696   3.768   4.238 -0.4324  1.4775  1.0982
 5860TIP3    H217587   5.793   3.785   4.123 -1.7876 -0.1802 -0.3318
 5861TIP3   OH217588   5.016   2.713   5.133 -0.5491  0.7344 -0.3113
 5861TIP3    H117589   5.079   2.775   5.171  0.3430  0.3258 -1.0877
 5861TIP3    H217590   4.985   2.756   5.053 -1.9821  1.3385  0.5385
 5862TIP3   OH217591   3.526   1.261   2.283  0.3016  0.0943 -0.3324
 5862TIP3    H117592   3.575   1.343   2.289  0.2848  0.0457  0.7746
 5862TIP3    H217593   3.465   1.274   2.211  0.8604  0.7443 -0.6999
 5863TIP3   OH217594   0.978   2.715   2.266 -0.0657  0.0606  0.3653
 5863TIP3    H117595   0.956   2.807   2.280  0.8762  0.1452  1.5186
 5863TIP3    H217596   0.997   2.708   2.173  1.0365  1.3293  0.4624
 5864TIP3   OH217597   0.638   0.860   0.935 -0.1134  0.6547  0.0904
 5864TIP3    H117598   0.607   0.902   0.855  0.6811 -2.4316 -2.0567
 5864TIP3    H217599   0.733   0.856   0.925 -0.0880 -0.6926  0.6392
 5865TIP3   OH217600   3.839   0.554   4.003 -0.2247  0.2235  0.2020
 5865TIP3    H117601   3.758   0.513   4.033  0.0930 -0.5384  0.0488
 5865TIP3    H217602   3.902   0.482   3.997  0.5867  0.8673  0.7324
 5866TIP3   OH217603   4.935   3.848   0.493  0.2759 -0.3189 -0.1164
 5866TIP3    H117604   4.954   3.941   0.481  0.3039 -0.2762  0.2338
 5866TIP3    H217605   4.999   3.802   0.437  1.3784 -0.1748  0.9820
 5867TIP3   OH217606   5.131   3.164   1.342  0.0542 -0.1807  0.1631
 5867TIP3    H117607   5.140   3.259   1.332 -1.0976 -0.0846 -0.0535
 5867TIP3    H217608   5.201   3.127   1.288 -1.8060  0.4658 -2.9115
 5868TIP3   OH217609   3.134   0.235   1.042 -0.3543 -0.5114  0.4052
 5868TIP3    H117610   3.089   0.283   0.973 -0.3779  0.5994  1.1756
 5868TIP3    H217611   3.106   0.144   1.029  1.6426 -0.8674 -2.6580
 5869TIP3   OH217612   2.013   0.578   3.875 -0.0761  0.6031  0.5189
 5869TIP3    H117613   2.001   0.483   3.884  1.1584  0.4828  1.0384
 5869TIP3    H217614   2.045   0.606   3.961 -2.4397  1.8486  1.0597
 5870TIP3   OH217615   1.014   1.360   0.942 -0.6330  1.0409 -0.2612
 5870TIP3    H117616   1.056   1.334   0.861 -2.5713  0.2418 -1.0784
 5870TIP3    H217617   1.046   1.449   0.957  0.5859  0.8162 -1.3032
 5871TIP3   OH217618   4.732   1.316   5.051  0.3325 -0.1193  0.2155
 5871TIP3    H117619   4.691   1.402   5.061  0.4697 -0.0900  0.5356
 5871TIP3    H217620   4.766   1.316   4.962 -0.9371 -0.3935 -0.2913
 5872TIP3   OH217621   3.147   1.646   0.169 -0.4752  0.1900  0.0882
 5872TIP3    H117622   3.183   1.707   0.105 -0.9141  1.2653  0.8341
 5872TIP3    H217623   3.128   1.567   0.118  0.2112  0.6193 -0.8788
 5873TIP3   OH217624   4.427   3.790   2.877  0.1937  0.1564  0.1396
 5873TIP3    H117625   4.405   3.711   2.926 -1.3716  0.5892  0.1938
 5873TIP3    H217626   4.411   3.767   2.785  0.6852  0.1177  0.0615
 5874TIP3   OH217627   3.334   0.343   0.878 -0.1075  0.3446  0.1927
 5874TIP3    H117628   3.281   0.402   0.823  0.3153  0.4619 -0.0992
 5874TIP3    H217629   3.271   0.301   0.936 -0.5124  0.5371 -0.0991
 5875TIP3   OH217630   6.195   3.481   0.106 -0.2691 -0.0415 -0.4052
 5875TIP3    H117631   6.227   3.562   0.146  0.7883 -0.6246 -0.0241
 5875TIP3    H217632   6.237   3.479   0.020 -1.2346  0.3908 -0.8982
 5876TIP3   OH217633   3.225   5.557   3.672 -0.0713  0.1902 -0.0216
 5876TIP3    H117634   3.307   5.605   3.665  0.9289 -1.3155  0.8727
 5876TIP3    H217635   3.166   5.601   3.611  1.0458  1.9866  0.1173
 5877TIP3   OH217636   0.624   1.679   4.677 -0.1117  0.6768  0.0438
 5877TIP3    H117637   0.658   1.763   4.647  0.3858  0.8636  1.1111
 5877TIP3    H217638   0.700   1.621   4.678 -0.5444  0.0495 -1.1836
 5878TIP3   OH217639   1.814   5.674   2.976  0.4471  0.2579 -0.1949
 5878TIP3    H117640   1.828   5.705   2.886  1.3260  2.1123  0.5153
 5878TIP3    H217641   1.811   5.579   2.968 -0.8449  0.3932 -2.3456
 5879TIP3   OH217642   1.287   1.443   1.291 -0.2741 -0.3451 -0.2317
 5879TIP3    H117643   1.314   1.383   1.361  1.0033  0.3663 -0.0776
 5879TIP3    H217644   1.227   1.391   1.238  0.5620 -1.6898  0.0631
 5880TIP3   OH217645   2.939   5.402   3.915  0.3027  0.3163  0.4739
 5880TIP3    H117646   2.891   5.338   3.967 -0.5272  0.6645  0.1496
 5880TIP3    H217647   2.894   5.403   3.831  1.6602 -0.2831 -0.2984
 5881TIP3   OH217648   2.718   1.488   2.101  0.6450 -0.3688  0.1028
 5881TIP3    H117649   2.775   1.542   2.156 -0.3761 -1.2876  2.2112
 5881TIP3    H217650   2.777   1.426   2.059  1.5386  0.7882 -0.4200
 5882TIP3   OH217651   0.997   1.936   4.924 -0.1818  0.1701 -0.0812
 5882TIP3    H117652   0.914   1.984   4.924 -1.0353 -1.1350 -2.1565
 5882TIP3    H217653   0.989   1.874   4.997 -0.4532  0.9255  0.5481
 5883TIP3   OH217654   3.262   4.190   3.802  0.1160  0.0117 -0.3437
 5883TIP3    H117655   3.354   4.208   3.824  0.1184 -1.1916  0.7624
 5883TIP3    H217656   3.212   4.254   3.852  0.3512  1.2537 -1.6285
 5884TIP3   OH217657   3.725   1.546   1.510 -0.6889 -0.0410  0.6936
 5884TIP3    H117658   3.780   1.624   1.498  2.3967 -2.4499 -3.0730
 5884TIP3    H217659   3.761   1.503   1.587  1.5244 -0.5431 -0.5466
 5885TIP3   OH217660   1.158   4.726   4.122  0.1385 -0.2255  0.1360
 5885TIP3    H117661   1.200   4.766   4.198 -0.5650  1.3909 -0.2972
 5885TIP3    H217662   1.215   4.750   4.048 -0.7759  0.8128 -0.2572
 5886TIP3   OH217663   1.608   2.953   4.116  0.2192  0.0909  0.1448
 5886TIP3    H117664   1.626   3.046   4.117 -0.2910  0.2247 -1.3629
 5886TIP3    H217665   1.632   2.923   4.204  0.4934  1.6037  0.6095
 5887TIP3   OH217666   4.248   0.070   1.998 -0.0709  0.4205  0.4290
 5887TIP3    H117667   4.278   0.139   1.938 -1.0233  0.5395  0.0678
 5887TIP3    H217668   4.231   0.116   2.080  2.7842 -0.0003  1.3459
 5888TIP3   OH217669   1.061   0.153   4.474  0.1505 -0.0922  0.1593
 5888TIP3    H117670   1.015   0.133   4.556 -1.0156 -3.0987 -1.0810
 5888TIP3    H217671   1.006   0.219   4.432 -0.0248  0.3987  1.1262
 5889TIP3   OH217672   0.326   3.017   4.713  0.0297  0.3177 -0.0452
 5889TIP3    H117673   0.269   2.955   4.668  0.8505 -1.3192  1.0576
 5889TIP3    H217674   0.368   2.965   4.782  0.2617  2.2753  1.3640
 5890TIP3   OH217675   4.914   0.132   0.516 -0.6981  0.0827  0.0573
 5890TIP3    H117676   4.906   0.052   0.464 -2.0271  0.3122 -0.1187
 5890TIP3    H217677   4.936   0.101   0.604  2.2865 -0.2798 -0.6896
 5891TIP3   OH217678   1.001   1.353   0.534 -0.0803 -0.4892 -0.2470
 5891TIP3    H117679   1.076   1.328   0.480  0.1399 -0.1894 -0.0895
 5891TIP3    H217680   0.993   1.282   0.598  0.4014 -0.2741  0.0626
 5892TIP3   OH217681   0.371   0.665   0.979 -0.0705 -0.0648 -0.7117
 5892TIP3    H117682   0.397   0.579   0.947 -2.3269 -1.2890  0.4980
 5892TIP3    H217683   0.432   0.726   0.937  1.7656 -2.2416 -1.4098
 5893TIP3   OH217684   4.125   3.140   2.777  0.0320  0.3015 -0.1813
 5893TIP3    H117685   4.163   3.207   2.720 -0.5423  1.4873  0.7747
 5893TIP3    H217686   4.134   3.059   2.728  4.8459  0.1820  0.3949
 5894TIP3   OH217687   0.023   1.510   3.083 -0.0345 -0.1336  0.5281
 5894TIP3    H117688  -0.020   1.479   3.163 -0.3393 -1.7885 -0.2389
 5894TIP3    H217689   0.114   1.482   3.094  0.1269  0.4485  0.6916
 5895TIP3   OH217690   1.157   0.510   1.696 -0.0959  0.2501  0.3433
 5895TIP3    H117691   1.164   0.576   1.628 -0.8644  0.5125  0.5025
 5895TIP3    H217692   1.240   0.515   1.744  0.9127 -0.6839 -1.2072
 5896TIP3   OH217693   5.748   3.483   4.072 -0.0894 -0.1856  0.1233
 5896TIP3    H117694   5.673   3.490   4.012 -0.7038 -2.9010  0.4480
 5896TIP3    H217695   5.807   3.553   4.045 -1.4541  0.2290 -2.0375
 5897TIP3   OH217696   1.247   4.999   4.723  0.0538  0.1335 -0.3339
 5897TIP3    H117697   1.179   5.066   4.729  0.7843  0.9866 -1.2309
 5897TIP3    H217698   1.220   4.944   4.649 -0.1945 -0.1690 -0.0237
 5898TIP3   OH217699   2.531   2.341   4.194 -0.0528 -0.5536 -0.3124
 5898TIP3    H117700   2.442   2.336   4.160  0.1362  0.8686 -1.0671
 5898TIP3    H217701   2.523   2.387   4.278 -0.0201 -0.3735 -0.4082
 5899TIP3   OH217702   3.015   5.534   3.222  0.1373 -0.2822 -0.5701
 5899TIP3    H117703   2.956   5.466   3.189 -0.3737  0.7241 -1.8248
 5899TIP3    H217704   2.958   5.607   3.244  0.9151  0.9833 -2.5148
 5900TIP3   OH217705   6.108   1.153   0.099 -0.2221  0.1993  0.2652
 5900TIP3    H117706   6.175   1.216   0.124  0.0473 -0.6192  1.6619
 5900TIP3    H217707   6.033   1.173   0.155 -0.3981 -0.2583  0.2000
 5901TIP3   OH217708   0.610   4.173   2.677 -0.2372  0.8556 -0.4417
 5901TIP3    H117709   0.567   4.188   2.592 -0.7851  0.1918 -0.3007
 5901TIP3    H217710   0.539   4.141   2.733  0.4997 -0.6335 -0.3006
 5902TIP3   OH217711   6.208   5.664   3.675  0.4098 -0.4218 -0.0774
 5902TIP3    H117712   6.158   5.741   3.701 -0.8000 -1.5440  1.0983
 5902TIP3    H217713   6.142   5.597   3.659  1.4681 -1.4509 -0.2825
 5903TIP3   OH217714   4.487   0.999   2.963  0.2798 -1.1276 -0.3767
 5903TIP3    H117715   4.566   1.047   2.985 -0.6179 -0.6890  2.2390
 5903TIP3    H217716   4.435   1.060   2.911  1.2902 -1.1562 -1.4638
 5904TIP3   OH217717   4.909   4.241   1.059 -0.0370  0.0715 -0.0035
 5904TIP3    H117718   4.971   4.206   0.995  0.1599  0.8848 -0.2682
 5904TIP3    H217719   4.896   4.333   1.033 -1.8806 -0.2546 -0.3577
 5905TIP3   OH217720   0.420   4.304   4.616 -0.3676 -0.2060 -0.3670
 5905TIP3    H117721   0.483   4.296   4.687 -0.9896 -0.9031  0.1230
 5905TIP3    H217722   0.467   4.351   4.547  0.6632 -0.6749 -0.0005
 5906TIP3   OH217723   2.734   4.234   0.964  0.4281 -1.0358 -0.0591
 5906TIP3    H117724   2.727   4.278   0.880  1.1712  0.0331  0.4122
 5906TIP3    H217725   2.678   4.157   0.956 -1.0061  0.0396 -0.8795
 5907TIP3   OH217726   5.982   2.680   1.404 -0.3956  0.2004  0.1563
 5907TIP3    H117727   6.039   2.727   1.343 -0.9874 -0.2224 -0.7395
 5907TIP3    H217728   5.911   2.646   1.349 -0.7736 -0.4554  1.0310
 5908TIP3   OH217729   1.931   2.863   5.092  0.1006 -0.0756 -0.0536
 5908TIP3    H117730   2.019   2.878   5.126  0.5918 -0.6635 -1.0077
 5908TIP3    H217731   1.930   2.907   5.007 -1.1410  1.4745  0.7150
 5909TIP3   OH217732   3.019   4.154   1.569 -0.3879  0.0933 -0.4030
 5909TIP3    H117733   3.036   4.141   1.476  1.5704 -0.0345 -0.0609
 5909TIP3    H217734   2.987   4.244   1.576 -1.0777 -0.0743 -1.2417
 5910TIP3   OH217735   5.210   3.115   2.696  0.5218 -0.3654  0.1463
 5910TIP3    H117736   5.118   3.094   2.681  0.4153  1.2128 -1.8106
 5910TIP3    H217737   5.258   3.042   2.658  0.0772  0.3373 -1.9136
 5911TIP3   OH217738   5.704   4.804   1.166  0.0292  0.4772 -0.5371
 5911TIP3    H117739   5.753   4.826   1.245  0.1829  1.4983 -0.8913
 5911TIP3    H217740   5.615   4.836   1.183 -0.1190  0.0450 -0.4977
 5912TIP3   OH217741   6.266   5.675   4.600  0.2533 -0.5550 -0.1812
 5912TIP3    H117742   6.187   5.723   4.627 -0.2563  0.2047 -2.7860
 5912TIP3    H217743   6.335   5.741   4.602 -0.3002  0.2307 -3.0314
 5913TIP3   OH217744   4.574   2.420   5.142 -0.0287 -0.1539 -0.4198
 5913TIP3    H117745   4.528   2.383   5.067 -0.0570  0.4675 -0.7193
 5913TIP3    H217746   4.633   2.351   5.172 -1.3682 -1.0695  0.1555
 5914TIP3   OH217747   6.124   2.394   1.800 -0.2746  0.2889  0.0425
 5914TIP3    H117748   6.043   2.383   1.752 -0.2873 -0.8250  0.3032
 5914TIP3    H217749   6.193   2.395   1.733 -0.3884 -0.0746 -0.0776
 5915TIP3   OH217750   5.261   3.345   2.190  0.1163 -0.1951  0.1188
 5915TIP3    H117751   5.298   3.260   2.166  0.6516 -0.3011  1.2615
 5915TIP3    H217752   5.224   3.332   2.277  0.6776  0.8732  0.5334
 5916TIP3   OH217753   3.450   4.253   3.357 -0.0445 -0.1613 -0.0648
 5916TIP3    H117754   3.435   4.264   3.451 -0.3867 -0.2621 -0.1064
 5916TIP3    H217755   3.514   4.320   3.336  0.2280 -0.3053  0.2907
 5917TIP3   OH217756   2.349   4.655   0.515  0.2182  0.3388 -1.0035
 5917TIP3    H117757   2.394   4.575   0.540  0.4608  0.8361  0.2377
 5917TIP3    H217758   2.332   4.700   0.598  1.0828  2.0976 -1.7307
 5918TIP3   OH217759   3.800   4.734   4.134 -0.6505  0.0754  0.7778
 5918TIP3    H117760   3.751   4.778   4.064 -1.0036  0.0482  1.0041
 5918TIP3    H217761   3.843   4.805   4.181 -1.4968  0.2228  1.3539
 5919TIP3   OH217762   4.459   5.664   0.389 -0.0862  0.4172 -0.2906
 5919TIP3    H117763   4.405   5.601   0.436  0.1280  0.5773  0.1750
 5919TIP3    H217764   4.507   5.611   0.325 -0.6772  0.2572 -0.6092
 5920TIP3   OH217765   2.841   1.657   3.890 -0.1055 -0.5436  0.1929
 5920TIP3    H117766   2.863   1.564   3.879  0.7510 -0.3349  0.0374
 5920TIP3    H217767   2.874   1.678   3.978 -0.6238 -0.4680  0.3746
 5921TIP3   OH217768   6.216   4.471   2.391 -0.0834 -0.0771 -0.0427
 5921TIP3    H117769   6.148   4.509   2.336  0.5186 -0.7205 -1.2767
 5921TIP3    H217770   6.279   4.435   2.329  0.2284 -1.5399  1.0712
 5922TIP3   OH217771   2.019   5.117   1.476  0.3171 -0.0346 -0.1242
 5922TIP3    H117772   1.997   5.026   1.498 -0.4654  0.5780  1.8117
 5922TIP3    H217773   2.038   5.158   1.560 -2.5478  2.4287 -0.5041
 5923TIP3   OH217774   6.313   1.961   4.769  0.5160 -0.6849  0.0569
 5923TIP3    H117775   6.360   1.878   4.774  0.3197 -0.9862 -2.2623
 5923TIP3    H217776   6.323   1.989   4.679  1.5397  2.4320  1.0225
 5924TIP3   OH217777   5.212   3.204   0.134 -0.2578 -0.2461  0.4998
 5924TIP3    H117778   5.251   3.251   0.208 -0.6428  0.2859  0.3676
 5924TIP3    H217779   5.265   3.230   0.059 -0.0519 -0.5564  0.5331
 5925TIP3   OH217780   1.503   4.282   2.288 -0.3397 -0.5054  0.5375
 5925TIP3    H117781   1.545   4.255   2.206  0.5181  1.2907  0.3259
 5925TIP3    H217782   1.438   4.214   2.305  1.0121 -2.1209 -0.4105
 5926TIP3   OH217783   0.158   1.128   5.044  0.0515 -0.2449  0.8309
 5926TIP3    H117784   0.237   1.182   5.038  0.4601 -0.9264 -0.4597
 5926TIP3    H217785   0.091   1.178   4.996 -0.4690  0.5600  2.3368
 5927TIP3   OH217786   4.566   0.862   1.266  0.2446  0.3970 -0.1208
 5927TIP3    H117787   4.482   0.899   1.240 -0.0342 -0.9889 -1.3035
 5927TIP3    H217788   4.631   0.926   1.237 -0.2535  0.2477 -1.6166
 5928TIP3   OH217789   2.575   0.278   2.381 -0.0496 -0.3217 -0.4319
 5928TIP3    H117790   2.645   0.322   2.430 -0.7913  1.3724 -0.8137
 5928TIP3    H217791   2.498   0.334   2.395 -1.1687 -1.7914 -0.5611
 5929TIP3   OH217792   4.641   0.746   4.992  0.1844  0.3584 -0.4664
 5929TIP3    H117793   4.676   0.767   4.905 -0.2178  2.3665 -0.1945
 5929TIP3    H217794   4.705   0.783   5.053  0.0708 -0.3519  0.0940
 5930TIP3   OH217795   4.491   1.029   3.690  0.0919  0.2259  0.2735
 5930TIP3    H117796   4.437   1.087   3.636 -1.0554 -0.7651  0.3228
 5930TIP3    H217797   4.473   1.057   3.780 -1.5062 -1.0079  0.3888
 5931TIP3   OH217798   2.114   5.895   1.796 -0.7979 -0.1837  0.3961
 5931TIP3    H117799   2.141   5.937   1.877  0.5191 -1.6091  0.7529
 5931TIP3    H217800   2.019   5.884   1.804 -1.1405  2.3412  0.4007
 5932TIP3   OH217801   6.165   4.045   3.413  0.5956 -0.1819 -0.2896
 5932TIP3    H117802   6.254   4.038   3.447 -0.2014 -0.5553  1.9334
 5932TIP3    H217803   6.128   4.121   3.459 -0.2432 -0.0528 -1.1510
 5933TIP3   OH217804   5.903   2.062   4.603 -0.0673 -0.1030  0.0197
 5933TIP3    H117805   5.901   1.973   4.567  0.3963 -0.9676  1.9685
 5933TIP3    H217806   5.996   2.087   4.598 -0.1238  0.0816 -0.0973
 5934TIP3   OH217807   4.484   0.938   4.754  0.3745  0.6220 -0.4597
 5934TIP3    H117808   4.530   0.970   4.676  2.4094 -0.7794  0.0898
 5934TIP3    H217809   4.518   0.850   4.768 -0.8198  0.3905  1.3432
 5935TIP3   OH217810   0.113   1.179   1.064  0.3811  0.6269 -0.5581
 5935TIP3    H117811   0.090   1.210   0.976 -1.0817  0.2583 -0.3217
 5935TIP3    H217812   0.161   1.097   1.049  2.6670  1.9684 -1.1042
 5936TIP3   OH217813   1.519   0.313   2.087 -0.0860 -0.1070  0.1287
 5936TIP3    H117814   1.511   0.408   2.098 -0.7862 -0.1337 -0.1590
 5936TIP3    H217815   1.591   0.289   2.146  2.2303  1.0128 -2.0396
 5937TIP3   OH217816   4.251   0.412   1.529  0.3473 -0.1662  0.5309
 5937TIP3    H117817   4.209   0.341   1.577 -0.1448 -0.3677 -0.1828
 5937TIP3    H217818   4.338   0.420   1.569 -0.1957 -0.0195  1.7616
 5938TIP3   OH217819   4.193   3.522   0.099 -0.2826 -0.1186  0.1368
 5938TIP3    H117820   4.266   3.515   0.038  0.0873  0.0931  0.5484
 5938TIP3    H217821   4.223   3.584   0.165 -1.5320  1.4372 -0.6864
 5939TIP3   OH217822   0.430   4.399   0.802 -0.0399 -0.5594 -0.1847
 5939TIP3    H117823   0.459   4.350   0.878  1.0744  1.1466  0.5459
 5939TIP3    H217824   0.491   4.374   0.732  1.2884  0.6286  0.5035
 5940TIP3   OH217825   2.162   0.218   4.605 -0.0415 -0.4372  0.1152
 5940TIP3    H117826   2.165   0.167   4.686  0.9489  0.7818  0.8727
 5940TIP3    H217827   2.117   0.298   4.628 -1.4832 -0.8599 -1.0426
 5941TIP3   OH217828   1.036   3.725   0.017 -0.4439  0.3045 -0.0886
 5941TIP3    H117829   1.012   3.735   0.110 -0.0151 -2.0101  0.3386
 5941TIP3    H217830   1.126   3.755   0.013  0.2409 -1.4561  0.7521
 5942TIP3   OH217831   4.126   2.980   2.137 -0.0720 -0.3034 -0.0531
 5942TIP3    H117832   4.074   3.015   2.209  0.7198 -0.4979  0.6297
 5942TIP3    H217833   4.109   2.886   2.138  0.6585 -0.4428  0.5002
 5943TIP3   OH217834   1.139   0.887   4.775  1.1963 -0.2884 -0.5958
 5943TIP3    H117835   1.219   0.895   4.722  1.4228 -1.7386 -0.5032
 5943TIP3    H217836   1.168   0.849   4.858  0.4969 -0.2662 -0.3330
 5944TIP3   OH217837   3.711   5.081   2.386  0.1572  0.1733 -0.0557
 5944TIP3    H117838   3.714   5.009   2.449  1.1538  1.0460  0.9299
 5944TIP3    H217839   3.792   5.131   2.402 -1.7231  3.0778  1.1884
 5945TIP3   OH217840   4.419   4.664   4.324 -0.7630 -0.3628  0.1109
 5945TIP3    H117841   4.441   4.692   4.235 -0.1327 -2.7045 -0.5609
 5945TIP3    H217842   4.334   4.622   4.316 -0.2407 -1.5220  0.3546
 5946TIP3   OH217843   3.811   5.646   4.049 -0.0574  0.4031 -0.2897
 5946TIP3    H117844   3.886   5.603   4.008 -0.0558 -0.0212  0.1484
 5946TIP3    H217845   3.754   5.669   3.976  0.0445 -0.1520 -0.5492
 5947TIP3   OH217846   5.331   1.288   0.110 -0.1926 -0.0208  0.1068
 5947TIP3    H117847   5.283   1.295   0.027 -0.1157 -2.0506 -0.1774
 5947TIP3    H217848   5.406   1.346   0.099 -0.1116 -0.3544 -1.3249
 5948TIP3   OH217849   3.037   4.357   0.092 -0.3194  0.3393  0.4086
 5948TIP3    H117850   2.973   4.428   0.104 -1.5228 -0.6525  0.0817
 5948TIP3    H217851   3.101   4.392   0.030 -1.8206  0.5782 -1.0787
 5949TIP3   OH217852   4.349   4.022   3.002 -0.0091  0.0357  0.1721
 5949TIP3    H117853   4.365   3.943   2.950  0.0728  0.2796 -0.1742
 5949TIP3    H217854   4.320   4.087   2.939 -0.9622  0.0273  0.5804
 5950TIP3   OH217855   5.294   3.103   1.797 -0.1656 -0.4071  0.2498
 5950TIP3    H117856   5.264   3.018   1.828 -0.0889 -1.1782 -1.6501
 5950TIP3    H217857   5.333   3.085   1.712 -0.1293  1.5438 -0.1969
 5951TIP3   OH217858   5.833   2.487   3.911 -0.1904 -0.2254  0.1016
 5951TIP3    H117859   5.887   2.566   3.917 -0.5130 -0.0442  0.7165
 5951TIP3    H217860   5.888   2.425   3.864  0.9976 -0.3874  1.6028
 5952TIP3   OH217861   2.385   0.103   5.081  0.2627 -0.1221 -0.3742
 5952TIP3    H117862   2.359   0.017   5.049  0.3637 -0.6135  0.8386
 5952TIP3    H217863   2.396   0.092   5.175 -0.7047  1.4665 -0.0385
 5953TIP3   OH217864   0.886   2.585   4.052 -0.1858  0.7353  0.1885
 5953TIP3    H117865   0.924   2.513   4.002 -1.1801  0.3145  0.0179
 5953TIP3    H217866   0.802   2.552   4.083 -1.0153  2.0815 -0.5338
 5954TIP3   OH217867   4.679   5.675   3.995  0.0754  0.7051  0.3129
 5954TIP3    H117868   4.623   5.598   4.004 -0.3990  0.7953 -1.4981
 5954TIP3    H217869   4.665   5.724   4.076  0.5818 -1.1899  1.6190
 5955TIP3   OH217870   2.592   2.873   2.029  0.0543  0.4052 -0.4849
 5955TIP3    H117871   2.541   2.954   2.027  1.7693  1.5226 -1.4033
 5955TIP3    H217872   2.539   2.813   2.081 -1.5980  1.8780 -0.3576
 5956TIP3   OH217873   3.218   5.278   1.509 -0.1246 -0.5913  0.0955
 5956TIP3    H117874   3.253   5.363   1.537 -0.2257 -0.9626  1.3657
 5956TIP3    H217875   3.125   5.282   1.530  0.1450 -1.5831  1.6347
 5957TIP3   OH217876   5.017   1.019   4.448  0.2034  0.0289  0.6624
 5957TIP3    H117877   5.098   1.032   4.498 -0.5272 -2.1735  2.6138
 5957TIP3    H217878   4.955   1.082   4.485  1.1180  2.2523 -1.3460
 5958TIP3   OH217879   6.066   0.721   2.622  0.6227 -0.3107  0.7809
 5958TIP3    H117880   6.111   0.802   2.644 -1.1756  1.2510 -1.0021
 5958TIP3    H217881   6.009   0.704   2.698  0.2002  0.7200  0.7078
 5959TIP3   OH217882   1.453   3.035   0.526 -0.2451 -0.5115  0.0640
 5959TIP3    H117883   1.453   3.043   0.621 -2.8129 -0.1954  0.1167
 5959TIP3    H217884   1.530   2.981   0.506 -0.0583 -1.1999  2.3640
 5960TIP3   OH217885   4.335   1.956   1.965  0.7075 -0.1907 -0.0068
 5960TIP3    H117886   4.273   1.974   2.035 -0.5181  1.5183 -1.4433
 5960TIP3    H217887   4.306   1.874   1.926 -0.6153  0.5274 -0.5798
 5961TIP3   OH217888   4.527   0.242   1.184  0.1849 -0.2518 -0.0418
 5961TIP3    H117889   4.582   0.167   1.162 -0.7073 -0.5128 -1.5171
 5961TIP3    H217890   4.439   0.216   1.158 -0.4682  0.6143  1.1642
 5962TIP3   OH217891   3.171   0.323   2.873 -0.3692  0.2275 -0.3147
 5962TIP3    H117892   3.085   0.300   2.838 -0.0370 -1.6466 -0.0370
 5962TIP3    H217893   3.233   0.273   2.819  0.4359  0.5131  0.3202
 5963TIP3   OH217894   5.342   3.954   1.369 -0.5584 -0.1486 -0.5998
 5963TIP3    H117895   5.340   4.039   1.324  2.1495  0.3013 -0.0283
 5963TIP3    H217896   5.402   3.901   1.318 -1.9620 -1.6842 -0.7411
 5964TIP3   OH217897   5.979   4.024   4.126  0.3407 -0.1043 -0.7882
 5964TIP3    H117898   5.922   3.960   4.168 -1.1115  0.7742 -1.3427
 5964TIP3    H217899   6.023   4.069   4.199 -2.4323  1.6749 -0.0500
 5965TIP3   OH217900   1.814   3.758   3.709  0.2597 -0.6695 -0.1277
 5965TIP3    H117901   1.800   3.721   3.622  1.0402 -0.1790 -0.4722
 5965TIP3    H217902   1.733   3.804   3.729 -1.0118 -3.0723  0.5982
 5966TIP3   OH217903   1.744   3.536   1.881  0.4898 -0.6712  0.0096
 5966TIP3    H117904   1.721   3.559   1.792  0.4197 -1.0093 -0.0594
 5966TIP3    H217905   1.669   3.489   1.915  0.4430 -0.3888  0.3090
 5967TIP3   OH217906   3.398   4.547   0.834 -0.5471 -0.2788 -0.0869
 5967TIP3    H117907   3.385   4.465   0.881  0.3155 -0.2857  0.1625
 5967TIP3    H217908   3.310   4.578   0.813 -0.8796 -1.2217 -0.1074
 5968TIP3   OH217909   2.477   5.857   3.702 -0.6607  0.2965  0.2003
 5968TIP3    H117910   2.420   5.802   3.648 -1.4886 -0.0361  1.3662
 5968TIP3    H217911   2.459   5.946   3.673  2.0135 -0.0059 -2.9880
 5969TIP3   OH217912   0.405   4.614   1.439 -0.1394 -0.2745  0.0474
 5969TIP3    H117913   0.475   4.549   1.436 -0.5011 -0.6402 -2.4885
 5969TIP3    H217914   0.441   4.690   1.392 -1.1165 -0.1543 -0.5342
 5970TIP3   OH217915   5.653   4.125   2.995 -0.5142 -0.4201 -0.1096
 5970TIP3    H117916   5.613   4.065   3.059 -0.3570 -0.9375 -0.4963
 5970TIP3    H217917   5.723   4.074   2.955  0.5932  0.4850  0.5898
 5971TIP3   OH217918   5.980   3.870   4.509  0.2947 -0.2687 -0.0177
 5971TIP3    H117919   6.049   3.854   4.574  1.9714 -1.1116 -1.8949
 5971TIP3    H217920   5.926   3.791   4.511 -0.3314  0.1600  1.0633
 5972TIP3   OH217921   1.796   4.374   1.974  0.0124  0.7339 -0.5993
 5972TIP3    H117922   1.723   4.346   2.030  0.5974  1.2693  0.4516
 5972TIP3    H217923   1.766   4.355   1.885  0.4835 -3.5371 -0.0329
 5973TIP3   OH217924   1.455   3.137   0.126  0.5096 -0.6066 -0.0646
 5973TIP3    H117925   1.437   3.220   0.080 -0.0044 -1.0318 -0.6474
 5973TIP3    H217926   1.376   3.120   0.176  0.5033 -0.8894 -0.1698
 5974TIP3   OH217927   1.652   5.930   2.952 -0.2473  0.8246 -0.2540
 5974TIP3    H117928   1.689   5.847   2.982  1.1997  1.5439  0.0489
 5974TIP3    H217929   1.636   5.916   2.859 -0.4146  0.0729 -0.1214
 5975TIP3   OH217930   3.653   4.979   3.220 -0.3638 -0.1506  0.6605
 5975TIP3    H117931   3.704   4.982   3.301  0.7604 -1.8683  0.0733
 5975TIP3    H217932   3.665   4.890   3.188  1.0720  1.0876 -2.5851
 5976TIP3   OH217933   3.374   4.915   0.520  0.9752 -0.5357 -0.3706
 5976TIP3    H117934   3.396   4.854   0.590  1.3152  0.4263  0.3918
 5976TIP3    H217935   3.447   4.977   0.519  1.2244 -0.8287 -1.9357
 5977TIP3   OH217936   2.999   4.584   4.880  0.8955 -0.1995  0.2294
 5977TIP3    H117937   2.946   4.571   4.801  0.3999  0.7999  0.3811
 5977TIP3    H217938   3.044   4.667   4.865  1.6924 -0.5736  0.5147
 5978TIP3   OH217939   4.982   3.499   3.839 -0.1992  0.5276 -0.0672
 5978TIP3    H117940   5.022   3.483   3.753 -0.5080 -3.9584  0.3889
 5978TIP3    H217941   5.051   3.479   3.902 -0.9702  0.1697  0.6855
 5979TIP3   OH217942   1.031   4.943   0.017  0.2095 -0.6125  0.2433
 5979TIP3    H117943   1.050   4.863   0.065 -0.5802 -0.8775  0.1350
 5979TIP3    H217944   1.116   4.986   0.006  0.3187 -0.0061  2.7873
 5980TIP3   OH217945   0.038   5.239   4.651  0.4552  0.3232 -0.3501
 5980TIP3    H117946  -0.030   5.297   4.615 -1.2876 -0.9006  0.8251
 5980TIP3    H217947   0.060   5.278   4.735  1.7497  1.0766 -1.0051
 5981TIP3   OH217948   4.647   4.664   2.375 -0.8448 -0.2634 -0.4058
 5981TIP3    H117949   4.603   4.612   2.308  0.4858 -0.2088 -1.3549
 5981TIP3    H217950   4.740   4.641   2.368 -0.8128 -1.7096  2.7135
 5982TIP3   OH217951   4.095   5.634   2.747  0.0111 -0.1143  0.2523
 5982TIP3    H117952   4.157   5.673   2.809 -0.2083  0.0896  0.3455
 5982TIP3    H217953   4.129   5.547   2.730 -2.9189 -2.6359  5.1370
 5983TIP3   OH217954   3.578   0.902   4.792  0.6672 -0.0552 -0.4213
 5983TIP3    H117955   3.673   0.907   4.784  1.0756  0.3399  3.0262
 5983TIP3    H217956   3.548   0.990   4.773  1.0609 -0.0040 -0.8256
 5984TIP3   OH217957   5.518   5.178   2.911  0.1994  0.0205 -0.3399
 5984TIP3    H117958   5.477   5.096   2.885  0.8895 -0.2042 -0.7109
 5984TIP3    H217959   5.464   5.209   2.984  0.1352 -0.9289  0.0223
 5985TIP3   OH217960   3.786   4.255   2.525  0.2187 -0.6439 -0.4501
 5985TIP3    H117961   3.873   4.239   2.489  0.2889  0.5275 -0.8558
 5985TIP3    H217962   3.764   4.175   2.573  1.1870 -1.2506 -0.9948
 5986TIP3   OH217963   1.180   4.599   3.591  0.4994  0.1624 -0.1608
 5986TIP3    H117964   1.144   4.513   3.611 -0.2190  0.6452  0.6805
 5986TIP3    H217965   1.124   4.660   3.639  1.7047  1.0248  0.1799
 5987TIP3   OH217966   3.880   1.446   1.745 -0.2744 -0.7490  0.5922
 5987TIP3    H117967   3.962   1.422   1.788  1.0768  1.9019 -0.2808
 5987TIP3    H217968   3.836   1.503   1.808 -0.4782 -0.5584  0.2779
 5988TIP3   OH217969   0.928   5.405   0.323  0.0050 -0.2297  0.3151
 5988TIP3    H117970   1.021   5.407   0.299 -0.1125  2.9431 -0.4239
 5988TIP3    H217971   0.921   5.469   0.394 -1.5305 -0.8624  0.7639
 5989TIP3   OH217972   0.642   2.924   4.535  0.3592 -0.1580 -0.4423
 5989TIP3    H117973   0.733   2.949   4.519  0.1585  0.4093 -0.7140
 5989TIP3    H217974   0.604   2.999   4.580 -0.4040  0.3097 -1.7833
 5990TIP3   OH217975   3.973   2.890   0.048 -0.3683  0.0630  0.2915
 5990TIP3    H117976   4.037   2.820   0.037 -0.6361 -0.0906 -0.3429
 5990TIP3    H217977   4.025   2.964   0.079  0.2174  0.0726 -0.6462
 5991TIP3   OH217978   0.617   1.965   2.036  0.0042 -0.7842  0.1519
 5991TIP3    H117979   0.674   2.016   2.094 -0.9448  0.7690 -0.2401
 5991TIP3    H217980   0.540   1.947   2.089  0.1716 -1.5187  0.1600
 5992TIP3   OH217981   2.460   3.811   0.493  0.0050  0.1410  0.2524
 5992TIP3    H117982   2.426   3.725   0.472  0.2711  0.3555 -1.1061
 5992TIP3    H217983   2.519   3.833   0.421 -1.2105  2.0927 -0.2520
 5993TIP3   OH217984   2.753   3.163   0.190 -0.2465 -0.2077  0.4623
 5993TIP3    H117985   2.773   3.256   0.190  1.0299 -0.4667  0.4301
 5993TIP3    H217986   2.759   3.137   0.282  1.6189 -0.6762  0.2566
 5994TIP3   OH217987   1.287   5.849   3.666  0.3754  0.3942 -0.3336
 5994TIP3    H117988   1.330   5.880   3.586 -1.7885  1.6490 -1.1114
 5994TIP3    H217989   1.219   5.789   3.635 -0.0756  0.4035  0.6001
 5995TIP3   OH217990   0.090   3.453   1.552 -0.0910  0.0601  0.4440
 5995TIP3    H117991   0.046   3.515   1.610 -2.4540 -0.6460 -0.4861
 5995TIP3    H217992   0.080   3.368   1.596  0.9075 -0.0379  0.5011
 5996TIP3   OH217993   1.605   3.669   2.309 -0.0994 -0.5281  0.3830
 5996TIP3    H117994   1.585   3.582   2.277  1.2809 -1.8273  2.7830
 5996TIP3    H217995   1.685   3.695   2.262  0.4764 -1.3292  0.8995
 5997TIP3   OH217996   2.810   5.712   1.838 -0.0357  0.2079  0.6978
 5997TIP3    H117997   2.840   5.653   1.907  0.5657  0.5155  0.7136
 5997TIP3    H217998   2.716   5.718   1.850 -0.2973 -1.7411 -0.1057
 5998TIP3   OH217999   4.130   2.533   1.488  0.1229 -0.0361 -0.4974
 5998TIP3    H118000   4.178   2.495   1.562  2.2304 -1.1775 -2.3167
 5998TIP3    H218001   4.043   2.495   1.493  0.6086 -1.0527  0.6884
 5999TIP3   OH218002   1.418   1.718   3.684 -0.2634  0.2981  0.2173
 5999TIP3    H118003   1.335   1.674   3.669 -0.4187 -0.0765  1.9147
 5999TIP3    H218004   1.475   1.687   3.614 -0.1879 -3.1430  1.6104
 6000TIP3   OH218005   2.924   3.972   4.055 -0.2853 -0.0073 -0.0909
 6000TIP3    H118006   3.012   3.936   4.056 -0.4803 -0.5891  2.4855
 6000TIP3    H218007   2.912   4.003   3.965  2.5653  0.2166 -0.4899
 6001TIP3   OH218008   4.082   1.245   2.040  0.0684  0.0838 -0.0138
 6001TIP3    H118009   4.046   1.167   1.998 -0.8092 -0.5350  1.7557
 6001TIP3    H218010   4.007   1.286   2.082  0.8714  0.6960  0.8739
 6002TIP3   OH218011   2.720   4.017   2.322  0.2676 -0.6582  0.2824
 6002TIP3    H118012   2.777   3.941   2.308  0.8068 -0.7986  2.9123
 6002TIP3    H218013   2.730   4.069   2.242  3.6921 -0.9192  0.3930
 6003TIP3   OH218014   1.308   3.549   3.212 -0.2727  0.3321 -0.0458
 6003TIP3    H118015   1.397   3.582   3.197 -0.4795  1.6388  1.3782
 6003TIP3    H218016   1.265   3.559   3.127  1.0190 -0.6368 -0.8412
 6004TIP3   OH218017   5.160   3.874   1.944  0.2451 -0.2921 -0.5977
 6004TIP3    H118018   5.176   3.819   2.022 -1.8206 -1.3830 -0.8606
 6004TIP3    H218019   5.203   3.957   1.964  1.1355 -1.0850  1.0179
 6005TIP3   OH218020   5.620   2.000   2.661  0.7549 -0.1308 -0.7604
 6005TIP3    H118021   5.579   2.075   2.617  1.9440  0.0352 -1.6423
 6005TIP3    H218022   5.550   1.935   2.667 -0.4652  1.2392  0.5622
 6006TIP3   OH218023   6.330   1.350   4.953 -0.5459  0.4089 -0.2119
 6006TIP3    H118024   6.287   1.433   4.930  0.1892  0.8244 -0.1395
 6006TIP3    H218025   6.291   1.286   4.894 -1.1614  0.7967 -0.2402
 6007TIP3   OH218026   1.806   5.410   4.770 -0.3131 -0.1009 -0.2400
 6007TIP3    H118027   1.850   5.416   4.855 -1.8997  0.7934  0.5494
 6007TIP3    H218028   1.810   5.499   4.734  1.1717 -0.6616 -1.5667
 6008TIP3   OH218029   4.694   5.628   2.085  0.4738 -0.8429  0.3134
 6008TIP3    H118030   4.737   5.626   2.170  0.0910  0.3943  0.5569
 6008TIP3    H218031   4.757   5.587   2.025  1.4300 -0.2514  0.8982
 6009TIP3   OH218032   5.340   3.611   2.455  0.1373 -0.0721  0.1503
 6009TIP3    H118033   5.263   3.565   2.490 -0.7180  1.0052 -0.2568
 6009TIP3    H218034   5.363   3.674   2.524 -1.5103  2.0108 -1.0801
 6010TIP3   OH218035   3.732   0.771   5.126  0.1293  0.0293  0.1827
 6010TIP3    H118036   3.661   0.777   5.190 -0.4487 -0.1975 -0.4199
 6010TIP3    H218037   3.723   0.851   5.073  0.7917  0.3665  0.5667
 6011TIP3   OH218038   2.254   2.992   4.556 -0.1891  0.4446  0.6884
 6011TIP3    H118039   2.348   2.987   4.539 -0.2392 -0.9340  0.6703
 6011TIP3    H218040   2.232   3.085   4.547  1.2123  0.8189  0.9576
 6012TIP3   OH218041   2.351   3.944   4.825  0.0117  0.3409 -0.2387
 6012TIP3    H118042   2.415   4.015   4.825 -0.0007  0.4196 -2.1916
 6012TIP3    H218043   2.400   3.867   4.798 -0.4565  0.1265 -0.4949
 6013TIP3   OH218044   1.298   0.824   0.614  0.1429  0.4047  0.0448
 6013TIP3    H118045   1.210   0.787   0.627  0.7381 -0.5479  1.6161
 6013TIP3    H218046   1.301   0.898   0.674  0.1208  0.9757 -0.6537
 6014TIP3   OH218047   5.918   0.172   1.989 -0.4395  0.0038 -0.0101
 6014TIP3    H118048   5.899   0.174   1.895  0.9688  0.6720 -0.3047
 6014TIP3    H218049   5.838   0.203   2.030 -0.2600  2.1463 -1.1568
 6015TIP3   OH218050   6.195   1.058   1.288  0.4567 -0.4161  0.1717
 6015TIP3    H118051   6.175   0.992   1.222 -0.0516  0.8735 -1.0309
 6015TIP3    H218052   6.290   1.058   1.295  0.4749 -1.0536 -0.0209
 6016TIP3   OH218053   3.779   4.900   0.098  0.1377  0.0350 -0.1427
 6016TIP3    H118054   3.760   4.845   0.174  0.4079  0.0981 -0.0307
 6016TIP3    H218055   3.726   4.979   0.112  0.8001  0.4021  0.3926
 6017TIP3   OH218056   2.472   2.084   2.257  0.1854  0.1408  0.3955
 6017TIP3    H118057   2.516   2.042   2.330 -0.6425  1.1152  1.4850
 6017TIP3    H218058   2.489   2.026   2.182  0.1790 -1.4157  1.5622
 6018TIP3   OH218059   0.367   3.069   0.976  0.5190 -0.5213  0.2903
 6018TIP3    H118060   0.428   3.064   0.903  1.5909 -1.9553  1.2305
 6018TIP3    H218061   0.410   3.125   1.040 -0.4152  0.7310 -0.1416
 6019TIP3   OH218062   3.084   0.490   1.165  0.3077 -0.5373  0.5700
 6019TIP3    H118063   3.069   0.396   1.154  1.9973 -1.5613  4.9214
 6019TIP3    H218064   3.170   0.505   1.124 -0.1267 -0.7529 -0.4539
 6020TIP3   OH218065   3.047   1.234   2.612 -0.0188  0.0473 -0.0684
 6020TIP3    H118066   3.100   1.303   2.654  1.0228 -1.0612  0.4857
 6020TIP3    H218067   3.099   1.155   2.622 -1.1161 -0.7962 -0.8802
 6021TIP3   OH218068   3.137   3.116   2.754  0.1765 -0.0567  0.0198
 6021TIP3    H118069   3.086   3.176   2.808  2.5184  1.3102  0.8711
 6021TIP3    H218070   3.150   3.038   2.809 -1.3673 -0.6483 -0.4102
 6022TIP3   OH218071   4.916   0.756   0.724 -0.5901  0.2313  0.0895
 6022TIP3    H118072   4.921   0.673   0.676  0.0633 -0.1228  0.7572
 6022TIP3    H218073   4.994   0.804   0.696  0.1687 -0.2610  1.2955
 6023TIP3   OH218074   4.667   3.771   0.183 -0.1109  0.4600 -0.2184
 6023TIP3    H118075   4.722   3.724   0.245 -0.1757  0.3321 -0.2578
 6023TIP3    H218076   4.653   3.710   0.111 -1.0811  0.1352  0.2194
 6024TIP3   OH218077   0.825   3.804   3.433  0.5341  0.7541 -0.5411
 6024TIP3    H118078   0.834   3.711   3.453 -1.0719  0.5810 -0.4971
 6024TIP3    H218079   0.862   3.812   3.345 -0.3552 -0.1751 -1.0306
 6025TIP3   OH218080   5.085   3.562   2.554 -0.5246 -0.0091  0.4180
 6025TIP3    H118081   5.053   3.649   2.531  2.3532  0.8590 -0.7969
 6025TIP3    H218082   5.013   3.503   2.531 -0.8479  1.6029 -3.5280
 6026TIP3   OH218083   5.189   3.318   3.935  0.7866  0.0257  0.0850
 6026TIP3    H118084   5.182   3.242   3.878  2.7722  1.0712 -1.6801
 6026TIP3    H218085   5.186   3.282   4.024  1.5245 -2.0672 -0.6853
 6027TIP3   OH218086   2.956   1.560   0.873 -0.6515  0.2441 -0.2314
 6027TIP3    H118087   3.027   1.583   0.813 -0.3165 -0.4819 -0.1132
 6027TIP3    H218088   2.879   1.603   0.835  0.0522  2.0323  0.2770
 6028TIP3   OH218089   4.873   2.694   3.438  0.2341 -0.2264 -0.7523
 6028TIP3    H118090   4.852   2.601   3.430 -2.1822 -0.0543  1.7257
 6028TIP3    H218091   4.817   2.737   3.373  0.2875 -0.4184 -0.9260
 6029TIP3   OH218092   1.096   2.588   3.531 -0.0951 -0.0173 -0.3817
 6029TIP3    H118093   1.190   2.601   3.536 -0.3753  1.8925  1.6444
 6029TIP3    H218094   1.074   2.601   3.439  1.7068 -1.6359 -1.1047
 6030TIP3   OH218095   4.581   2.664   1.293  0.8358 -0.3460 -0.3366
 6030TIP3    H118096   4.603   2.642   1.202 -1.9512 -0.2449 -1.1239
 6030TIP3    H218097   4.624   2.596   1.345  1.9983 -0.7563 -1.7421
 6031TIP3   OH218098   1.050   3.088   2.957  0.3679  0.0698 -0.7267
 6031TIP3    H118099   1.087   3.112   3.042 -1.3765 -1.3662  0.5111
 6031TIP3    H218100   1.084   3.000   2.941  0.9167  0.4423 -1.6990
 6032TIP3   OH218101   4.798   4.767   4.591 -0.1170  0.0805  0.1317
 6032TIP3    H118102   4.704   4.785   4.601 -0.2530 -0.8684  0.7501
 6032TIP3    H218103   4.801   4.677   4.557  0.5308  0.9268 -2.2289
 6033TIP3   OH218104   2.322   5.786   1.426 -0.0650 -0.0090 -0.0338
 6033TIP3    H118105   2.391   5.766   1.363  2.4897  1.2246  2.1688
 6033TIP3    H218106   2.308   5.881   1.417  0.9440  0.3455  1.7418
 6034TIP3   OH218107   5.196   2.580   3.640  0.0462 -0.6755  0.1073
 6034TIP3    H118108   5.140   2.656   3.656  1.4919  0.5698 -0.5782
 6034TIP3    H218109   5.135   2.507   3.629 -1.3623  0.3195  1.0184
 6035TIP3   OH218110   4.389   3.267   1.880  0.0373 -0.9092 -0.0238
 6035TIP3    H118111   4.459   3.211   1.914 -0.1608 -0.3824  1.3297
 6035TIP3    H218112   4.309   3.228   1.915 -0.3233 -1.2662 -1.2200
 6036TIP3   OH218113   5.020   5.755   0.717  0.3099 -0.2774 -0.0651
 6036TIP3    H118114   4.985   5.751   0.806  0.5119  0.9424  0.0861
 6036TIP3    H218115   5.014   5.847   0.693  2.8370 -0.1049 -0.2753
 6037TIP3   OH218116   5.258   4.705   0.106  0.2825  0.1336  0.0782
 6037TIP3    H118117   5.226   4.792   0.084  1.3493  0.5922  0.2595
 6037TIP3    H218118   5.240   4.696   0.200 -3.8492 -1.6414 -0.6791
 6038TIP3   OH218119   6.101   2.626   4.160  0.2118 -0.1172  0.0200
 6038TIP3    H118120   6.144   2.708   4.183 -0.1491  0.2268 -0.5244
 6038TIP3    H218121   6.025   2.652   4.108 -0.7734 -0.7008  1.1144
 6039TIP3   OH218122   1.916   2.483   0.110  0.0858  0.7711 -0.4967
 6039TIP3    H118123   1.923   2.404   0.057  0.5546 -0.1935  0.9327
 6039TIP3    H218124   1.996   2.533   0.091  1.6125 -0.8481  1.2150
 6040TIP3   OH218125   4.422   0.803   4.439  0.0556 -0.2659  0.0956
 6040TIP3    H118126   4.357   0.870   4.462 -2.1955 -2.3444  0.2209
 6040TIP3    H218127   4.399   0.779   4.349 -0.5741 -2.2763  0.7472
 6041TIP3   OH218128   3.277   5.825   2.643 -0.3074  0.5940 -0.3106
 6041TIP3    H118129   3.301   5.889   2.575 -0.7821 -0.9787 -2.0489
 6041TIP3    H218130   3.260   5.878   2.720  1.4527  2.3841 -1.0438
 6042TIP3   OH218131   4.255   5.160   2.827  0.2240  0.0474  0.6808
 6042TIP3    H118132   4.296   5.083   2.789  0.1128  0.4512 -0.2995
 6042TIP3    H218133   4.196   5.126   2.895  1.0968 -0.6251  1.1134
 6043TIP3   OH218134   0.097   2.344   0.782 -0.1480  0.3729  0.4431
 6043TIP3    H118135   0.034   2.291   0.733  1.4053  1.1677 -2.6765
 6043TIP3    H218136   0.174   2.288   0.791  0.1065  0.7578  0.6928
 6044TIP3   OH218137   1.626   1.184   0.200  0.2360  0.4044 -0.0154
 6044TIP3    H118138   1.710   1.154   0.164  0.2603  3.0922 -2.5707
 6044TIP3    H218139   1.643   1.197   0.293  2.4959  0.2590 -0.3554
 6045TIP3   OH218140   0.393   1.157   3.482 -0.1916  0.6525  0.8314
 6045TIP3    H118141   0.458   1.212   3.526 -2.5368  2.9691  1.6770
 6045TIP3    H218142   0.375   1.086   3.543 -0.4221  1.5440  1.8284
 6046TIP3   OH218143   0.876   5.610   1.087  0.2680 -0.0637  0.1022
 6046TIP3    H118144   0.789   5.572   1.079  0.5489 -0.4470 -1.5370
 6046TIP3    H218145   0.934   5.535   1.102  0.3742  0.1445  0.7713
 6047TIP3   OH218146   3.188   5.321   4.047  0.2959 -0.7127  0.9183
 6047TIP3    H118147   3.167   5.232   4.020  1.4723 -0.8403  0.3702
 6047TIP3    H218148   3.129   5.376   3.996 -0.5753 -1.1637  1.3975
 6048TIP3   OH218149   4.767   1.546   1.886 -0.0154  0.4901 -0.3266
 6048TIP3    H118150   4.739   1.456   1.867  1.1824 -0.4742  2.0551
 6048TIP3    H218151   4.862   1.541   1.891  0.0248  1.7300  0.5063
 6049TIP3   OH218152   4.453   3.814   4.982 -0.6631  0.3077  0.8885
 6049TIP3    H118153   4.527   3.831   5.041 -0.2378 -1.8707  1.0505
 6049TIP3    H218154   4.376   3.841   5.032 -0.1663  0.2313  1.7196
 6050TIP3   OH218155   1.392   3.004   4.909 -0.0726 -0.2458  0.2985
 6050TIP3    H118156   1.373   3.083   4.857 -0.4729 -0.2371  0.4481
 6050TIP3    H218157   1.477   3.021   4.948 -0.8831  0.8655  1.7007
 6051TIP3   OH218158   2.401   4.531   3.408  0.5091  0.0371 -0.5285
 6051TIP3    H118159   2.332   4.494   3.353 -0.2997  0.7101  0.0047
 6051TIP3    H218160   2.482   4.514   3.360 -0.1362  0.2521 -1.7305
 6052TIP3   OH218161   5.497   2.063   5.122  0.8899 -0.1263  0.4480
 6052TIP3    H118162   5.551   2.007   5.065 -1.0547  0.0308 -1.7023
 6052TIP3    H218163   5.468   2.134   5.064 -1.5802 -0.2051  1.4900
 6053TIP3   OH218164   0.788   3.403   3.736 -0.0768  0.1050 -0.4154
 6053TIP3    H118165   0.756   3.456   3.809 -0.7354 -0.3914 -0.3333
 6053TIP3    H218166   0.714   3.346   3.714  0.5125 -0.5563 -0.7121
 6054TIP3   OH218167   0.131   3.192   2.310  0.1091 -0.5683  0.3791
 6054TIP3    H118168   0.188   3.170   2.236  0.0638  0.0938  0.1380
 6054TIP3    H218169   0.190   3.203   2.384  0.4221  1.0825 -0.0823
 6055TIP3   OH218170   6.289   0.157   4.483 -0.3497  0.2461 -0.1601
 6055TIP3    H118171   6.354   0.104   4.530 -0.0977  0.0966 -0.6671
 6055TIP3    H218172   6.259   0.100   4.411 -2.6136 -0.5010  1.2791
 6056TIP3   OH218173   0.878   5.477   2.354  0.1975 -0.1212  0.2469
 6056TIP3    H118174   0.941   5.539   2.390 -0.1545  0.0621  0.5561
 6056TIP3    H218175   0.922   5.440   2.277  0.2681  0.7824 -0.1576
 6057TIP3   OH218176   3.959   4.185   0.701  0.0164  0.4726 -0.7372
 6057TIP3    H118177   4.052   4.164   0.707 -0.3149 -0.9409 -0.2840
 6057TIP3    H218178   3.957   4.270   0.655  1.4426 -0.1192 -1.9849
 6058TIP3   OH218179   0.365   4.212   1.491  0.9396 -0.4348 -0.7098
 6058TIP3    H118180   0.411   4.135   1.524  0.9045 -1.1585 -2.2692
 6058TIP3    H218181   0.395   4.221   1.401  0.5739  1.1066 -0.6970
 6059TIP3   OH218182   0.356   3.942   3.968 -0.6640 -0.2823 -0.3576
 6059TIP3    H118183   0.294   3.963   4.037 -0.0537  0.5910 -0.0450
 6059TIP3    H218184   0.376   3.850   3.979  0.0018  0.0166  1.1283
 6060TIP3   OH218185   4.008   0.529   4.779  0.5931  0.5208 -0.0575
 6060TIP3    H118186   3.979   0.571   4.861 -0.5796  0.8817 -0.6347
 6060TIP3    H218187   3.967   0.443   4.781  0.0018  0.7828 -0.5664
 6061TIP3   OH218188   3.969   5.312   1.778 -0.1304  0.4786 -0.3016
 6061TIP3    H118189   3.979   5.274   1.691 -0.9346  2.1467 -1.1797
 6061TIP3    H218190   4.052   5.356   1.795  0.2848 -0.4375  0.1041
 6062TIP3   OH218191   2.667   1.067   2.927  0.0875  0.2905 -0.3191
 6062TIP3    H118192   2.687   1.135   2.863  0.5734 -1.1127 -1.7091
 6062TIP3    H218193   2.669   0.986   2.877 -0.1566 -0.7930  1.3659
 6063TIP3   OH218194   1.681   1.981   0.981  0.2087  0.4450 -0.3874
 6063TIP3    H118195   1.622   2.032   0.924 -0.8515  0.1755  0.4519
 6063TIP3    H218196   1.750   1.952   0.922 -1.0532 -0.1444 -1.6557
 6064TIP3   OH218197   4.237   0.742   1.233 -0.3565  0.5297 -0.5939
 6064TIP3    H118198   4.316   0.696   1.261 -0.2485  0.4570 -1.0130
 6064TIP3    H218199   4.174   0.727   1.304 -0.7150 -1.2724 -1.2294
 6065TIP3   OH218200   4.106   4.506   4.315  0.0107 -0.1297  0.1404
 6065TIP3    H118201   4.016   4.533   4.336  0.2248  1.2257 -0.5900
 6065TIP3    H218202   4.095   4.423   4.268 -0.8749  0.1274 -0.1298
 6066TIP3   OH218203   1.043   1.715   4.700  0.3367  0.5580  0.2955
 6066TIP3    H118204   1.025   1.713   4.606 -0.5577 -2.1382  0.4334
 6066TIP3    H218205   1.042   1.808   4.723  0.6176  1.2933 -2.3438
 6067TIP3   OH218206   0.899   2.528   2.667  0.1570 -0.1307  0.1715
 6067TIP3    H118207   0.894   2.480   2.749  0.4527  0.0291  0.2856
 6067TIP3    H218208   0.989   2.513   2.636  1.2126  2.6181  1.6128
 6068TIP3   OH218209   4.984   0.470   0.632  0.7206 -0.0601 -0.3714
 6068TIP3    H118210   5.060   0.420   0.660  0.0486 -0.8959 -0.0089
 6068TIP3    H218211   4.913   0.443   0.690  0.4477  1.7078  0.2014
 6069TIP3   OH218212   1.173   3.753   3.338 -0.7891  0.2216 -0.2479
 6069TIP3    H118213   1.216   3.672   3.311  1.4829  1.2364  0.0841
 6069TIP3    H218214   1.106   3.769   3.271  1.0804 -0.1226 -2.2933
 6070TIP3   OH218215   1.858   4.486   0.048 -0.4130  0.5240 -1.3767
 6070TIP3    H118216   1.798   4.554   0.017 -0.6247  0.3969 -1.2458
 6070TIP3    H218217   1.944   4.528   0.048 -0.5136  0.7308 -1.4866
 6071TIP3   OH218218   5.663   1.073   0.869  0.1881  0.6510  0.9762
 6071TIP3    H118219   5.738   1.069   0.810 -0.0750 -2.2179  0.6818
 6071TIP3    H218220   5.696   1.115   0.948  1.8603  0.3008  0.5045
 6072TIP3   OH218221   5.514   2.234   0.209 -0.2386 -0.0017 -0.4989
 6072TIP3    H118222   5.423   2.208   0.224  0.7652 -2.5255  2.2282
 6072TIP3    H218223   5.542   2.181   0.135 -0.3728 -1.0674  0.1845
 6073TIP3   OH218224   4.366   2.871   1.797  0.1678  0.8012 -0.0201
 6073TIP3    H118225   4.387   2.781   1.823  1.4630  0.5805 -1.6470
 6073TIP3    H218226   4.270   2.873   1.792  0.0786 -0.2132  0.9108
 6074TIP3   OH218227   2.965   3.893   3.135 -0.1105 -0.0655 -0.2252
 6074TIP3    H118228   2.928   3.906   3.048 -0.6857 -2.5522 -0.4292
 6074TIP3    H218229   2.900   3.840   3.182 -0.4095  2.2357  2.2111
 6075TIP3   OH218230   6.217   4.092   0.550  0.5870 -0.2601 -0.0604
 6075TIP3    H118231   6.240   4.102   0.458 -0.0391 -0.9263 -0.3045
 6075TIP3    H218232   6.274   4.022   0.581 -0.1065 -0.9477 -0.2999
 6076TIP3   OH218233   3.732   4.984   5.008 -0.2990 -0.1966  0.3007
 6076TIP3    H118234   3.691   5.070   5.022 -0.6505 -0.4384  0.7920
 6076TIP3    H218235   3.710   4.934   5.087  0.0294 -0.6907  0.0842
 6077TIP3   OH218236   1.093   0.419   3.070  0.2874 -0.2996 -0.0716
 6077TIP3    H118237   1.090   0.501   3.118 -0.9942 -0.2607 -0.1956
 6077TIP3    H218238   1.047   0.437   2.988 -0.0149 -1.1477 -0.0986
 6078TIP3   OH218239   0.457   4.740   2.931  0.1769 -0.3164 -0.0897
 6078TIP3    H118240   0.534   4.683   2.936  1.1479  0.8861 -0.8214
 6078TIP3    H218241   0.482   4.809   2.870 -1.5167  0.0789 -0.3819
 6079TIP3   OH218242   0.157   0.094   1.701 -0.2206 -0.5379  0.2623
 6079TIP3    H118243   0.247   0.125   1.713  0.1922 -1.8554  0.8105
 6079TIP3    H218244   0.133   0.058   1.787 -1.2858 -0.1780  0.1239
 6080TIP3   OH218245   3.295   5.514   1.589 -0.1449 -0.4864  0.1678
 6080TIP3    H118246   3.316   5.591   1.535 -0.1685 -0.8543 -0.3705
 6080TIP3    H218247   3.211   5.537   1.630  0.4676  0.3025  1.0298
 6081TIP3   OH218248   2.399   4.840   3.412  0.3786  0.4449  0.0968
 6081TIP3    H118249   2.387   4.892   3.491 -0.1855 -1.5585  1.4151
 6081TIP3    H218250   2.454   4.767   3.439 -2.1758 -1.8805 -0.5213
 6082TIP3   OH218251   3.202   4.076   5.004 -0.4353  0.1711 -0.3320
 6082TIP3    H118252   3.141   4.030   5.062 -0.6416  0.1493 -0.5652
 6082TIP3    H218253   3.146   4.121   4.941 -0.1928 -0.3779 -0.9428
 6083TIP3   OH218254   6.341   0.731   2.907  0.3715  0.1774 -0.1103
 6083TIP3    H118255   6.342   0.669   2.834  2.0658  0.4478 -0.3505
 6083TIP3    H218256   6.367   0.814   2.868  0.3213  0.5398  0.6266
 6084TIP3   OH218257   2.085   5.909   0.748  0.2616  0.0423 -0.0375
 6084TIP3    H118258   2.158   5.915   0.810  0.0532 -1.3019  0.3736
 6084TIP3    H218259   2.123   5.933   0.664  0.6561  1.4763  0.5271
 6085TIP3   OH218260   1.839   1.769   4.867 -0.4701  0.5007  0.9309
 6085TIP3    H118261   1.928   1.800   4.851 -0.3384 -0.1402  0.3653
 6085TIP3    H218262   1.839   1.743   4.959  0.3168 -0.7187  0.6092
 6086TIP3   OH218263   0.808   4.321   3.294 -0.4410 -0.3428 -0.3820
 6086TIP3    H118264   0.723   4.332   3.336 -0.0558  1.3170  0.0184
 6086TIP3    H218265   0.804   4.234   3.254 -2.0956 -0.5250  0.1229
 6087TIP3   OH218266   2.374   5.241   4.854  0.2732 -0.2358  0.4740
 6087TIP3    H118267   2.318   5.298   4.803 -2.0542 -1.7444  1.1908
 6087TIP3    H218268   2.414   5.298   4.920  0.8404  1.1319 -0.9957
 6088TIP3   OH218269   3.345   5.434   4.307 -0.1383 -0.1883  0.2076
 6088TIP3    H118270   3.272   5.478   4.263  0.1377 -1.3903 -1.5250
 6088TIP3    H218271   3.423   5.466   4.262  0.1296 -1.7296 -0.4787
 6089TIP3   OH218272   1.879   3.640   4.374  0.2716 -0.1193  0.2883
 6089TIP3    H118273   1.792   3.653   4.336  0.6448 -0.5308 -0.7378
 6089TIP3    H218274   1.862   3.613   4.464 -0.6509  0.3850  0.2778
 6090TIP3   OH218275   4.810   4.511   0.915 -0.3004  0.3412 -0.0826
 6090TIP3    H118276   4.727   4.467   0.929  0.0522 -0.1657  0.4397
 6090TIP3    H218277   4.788   4.587   0.860 -1.2646  0.7729  0.8585
 6091TIP3   OH218278   1.606   5.058   0.158 -0.1270 -0.0478 -0.9524
 6091TIP3    H118279   1.675   5.120   0.182 -0.4682  0.2255 -0.6793
 6091TIP3    H218280   1.633   4.976   0.198 -0.2035  0.1772 -0.4314
 6092TIP3   OH218281   3.965   3.937   1.564 -0.4774 -0.2616 -0.0024
 6092TIP3    H118282   3.999   3.855   1.528 -0.0987 -0.4586  0.7945
 6092TIP3    H218283   3.884   3.953   1.515 -0.5875 -1.1398 -0.1198
 6093TIP3   OH218284   1.835   4.182   2.691  0.1987 -0.3272 -0.1519
 6093TIP3    H118285   1.796   4.237   2.623  2.3244 -0.0919 -1.2705
 6093TIP3    H218286   1.776   4.108   2.699 -0.8657  0.3742 -1.1795
 6094TIP3   OH218287   6.261   1.949   4.148 -0.3211 -0.1429  0.4898
 6094TIP3    H118288   6.294   2.038   4.136 -1.6732  0.2663 -0.4067
 6094TIP3    H218289   6.236   1.945   4.241 -1.7021  0.9470  0.1904
 6095TIP3   OH218290   0.281   5.553   2.445 -0.1319  0.1565 -0.1008
 6095TIP3    H118291   0.224   5.513   2.511 -0.4486 -1.0466 -1.0697
 6095TIP3    H218292   0.369   5.547   2.483 -0.3760  0.0290  0.4586
 6096TIP3   OH218293   1.408   4.070   2.606  0.2569 -0.2955  0.5220
 6096TIP3    H118294   1.498   4.063   2.573  0.0379  1.2704 -0.5634
 6096TIP3    H218295   1.391   4.164   2.606 -0.8281 -0.4607  2.3372
 6097TIP3   OH218296   0.841   3.795   3.779 -0.0841  0.2214  0.0476
 6097TIP3    H118297   0.846   3.735   3.705 -1.3740  0.2412 -0.0754
 6097TIP3    H218298   0.751   3.825   3.780  0.2716  1.3403  0.7660
 6098TIP3   OH218299   4.326   3.555   1.846  0.1004  0.8148  0.0243
 6098TIP3    H118300   4.317   3.463   1.871  0.2466  1.9315  5.4332
 6098TIP3    H218301   4.414   3.562   1.811 -0.2957 -1.1996 -1.5386
 6099TIP3   OH218302   1.712   2.176   2.583 -0.0222 -0.0334 -0.1338
 6099TIP3    H118303   1.664   2.149   2.661  0.5694  1.1872  0.6848
 6099TIP3    H218304   1.801   2.191   2.613  0.1839  0.5916 -1.0108
 6100TIP3   OH218305   5.235   4.647   0.686  0.3001  0.0288  0.1564
 6100TIP3    H118306   5.239   4.674   0.778  0.8124 -0.4529  0.2767
 6100TIP3    H218307   5.286   4.567   0.682  0.1174 -0.0588 -0.5165
 6101TIP3   OH218308   4.648   3.475   2.625  0.6103 -0.2196 -0.3719
 6101TIP3    H118309   4.713   3.416   2.588  1.9464  1.0061 -0.0708
 6101TIP3    H218310   4.698   3.550   2.656 -1.0247  1.0868 -0.7241
 6102TIP3   OH218311   4.437   1.513   0.424 -0.0410  0.4752 -0.7066
 6102TIP3    H118312   4.462   1.431   0.382  2.1556  0.7827 -0.1641
 6102TIP3    H218313   4.502   1.524   0.495 -2.7304  0.6500  1.9280
 6103TIP3   OH218314   3.942   5.654   4.644  0.8662  0.5885  0.6822
 6103TIP3    H118315   3.903   5.616   4.566  1.6925  0.2844  0.4072
 6103TIP3    H218316   3.912   5.597   4.715 -0.2232  1.1056  0.6624
 6104TIP3   OH218317   4.266   1.349   2.213 -0.0487 -0.0905 -0.1723
 6104TIP3    H118318   4.254   1.443   2.199 -1.3564 -0.1908  0.1564
 6104TIP3    H218319   4.197   1.308   2.162 -0.0249 -0.8313  0.3736
 6105TIP3   OH218320   1.974   3.284   4.855 -0.1207 -0.0985  0.1393
 6105TIP3    H118321   1.947   3.339   4.928  0.4626 -1.0663  1.1248
 6105TIP3    H218322   1.912   3.211   4.856  0.1293 -0.3163 -0.0798
 6106TIP3   OH218323   4.487   4.732   4.932 -0.1558  0.2375  0.1611
 6106TIP3    H118324   4.460   4.641   4.942 -2.8970  1.1301  1.9565
 6106TIP3    H218325   4.564   4.741   4.988  1.1673 -1.2867 -1.3102
 6107TIP3   OH218326   2.953   0.858   1.795  0.3370 -0.4163  0.6946
 6107TIP3    H118327   3.044   0.888   1.793 -0.4248  2.2740  1.6369
 6107TIP3    H218328   2.956   0.771   1.757  3.1988 -0.1425  0.0333
 6108TIP3   OH218329   4.898   5.124   0.664  0.4402  0.0645 -0.1528
 6108TIP3    H118330   4.915   5.043   0.616 -0.5962  0.8167 -1.8378
 6108TIP3    H218331   4.971   5.182   0.640  0.3939  0.1497 -0.0894
 6109TIP3   OH218332   4.702   4.219   2.974 -0.4072 -0.2337  0.2670
 6109TIP3    H118333   4.615   4.233   3.010  0.1994  0.7018  1.4227
 6109TIP3    H218334   4.717   4.296   2.918  0.1145  0.1719  0.9601
 6110TIP3   OH218335   2.698   1.862   3.802  0.0934 -0.0204 -0.8196
 6110TIP3    H118336   2.758   1.934   3.822  2.0287 -0.5985 -3.8973
 6110TIP3    H218337   2.741   1.784   3.838  0.6179 -0.2761 -1.9719
 6111TIP3   OH218338   1.597   1.398   4.233  0.2430  0.2640 -0.0069
 6111TIP3    H118339   1.666   1.461   4.258 -0.7841  0.5301  2.4321
 6111TIP3    H218340   1.521   1.453   4.214 -1.0696 -0.0819  3.4335
 6112TIP3   OH218341   1.417   2.595   1.150  0.2779 -0.3838  0.3470
 6112TIP3    H118342   1.390   2.679   1.113 -0.1721 -0.2607  0.9318
 6112TIP3    H218343   1.334   2.550   1.168  0.4614 -0.2454  1.6270
 6113TIP3   OH218344   2.012   4.680   2.830  0.0441  0.0047  0.1694
 6113TIP3    H118345   1.977   4.615   2.891 -0.1153 -0.5069 -0.4506
 6113TIP3    H218346   1.993   4.644   2.744  0.6251  0.5230 -0.1846
 6114TIP3   OH218347   4.508   3.130   2.539 -0.3681 -0.3130  0.2165
 6114TIP3    H118348   4.423   3.092   2.519  0.3546 -0.9583 -1.8639
 6114TIP3    H218349   4.498   3.223   2.519 -1.0538 -0.0239  1.7231
 6115TIP3   OH218350   3.237   0.255   5.073  0.1943  0.0994  0.3216
 6115TIP3    H118351   3.202   0.290   4.992  2.1814 -0.7703 -0.9941
 6115TIP3    H218352   3.318   0.304   5.089  0.9165 -1.1110  0.6006
 6116TIP3   OH218353   4.000   4.643   1.822  0.0139 -0.0156  0.5356
 6116TIP3    H118354   3.918   4.597   1.839  0.5964 -1.0156  0.7247
 6116TIP3    H218355   4.041   4.593   1.751 -0.0217  1.1081 -0.3095
 6117TIP3   OH218356   5.730   5.183   2.091  0.5139 -0.4237 -0.4055
 6117TIP3    H118357   5.728   5.251   2.023 -1.2194  0.6043  0.5704
 6117TIP3    H218358   5.692   5.106   2.049 -0.4289  0.1644 -0.6859
 6118TIP3   OH218359   0.148   4.662   0.113 -0.6504 -0.1625  0.1492
 6118TIP3    H118360   0.212   4.592   0.095 -0.0919 -0.0277  1.4882
 6118TIP3    H218361   0.196   4.724   0.169 -1.3509  0.9551 -0.4664
 6119TIP3   OH218362   2.856   2.848   1.994 -0.7148 -0.6907  0.4902
 6119TIP3    H118363   2.871   2.941   2.011 -0.6254  0.3375 -3.8715
 6119TIP3    H218364   2.761   2.838   1.998 -0.6270 -1.2267  3.7021
 6120TIP3   OH218365   2.048   1.178   0.402  0.7061  0.2558  0.3146
 6120TIP3    H118366   2.111   1.203   0.470 -0.6377  2.1030  0.9720
 6120TIP3    H218367   1.982   1.127   0.448  1.1189 -0.7319 -0.1577
 6121TIP3   OH218368   2.265   4.335   5.147  0.2755 -0.3708  0.1097
 6121TIP3    H118369   2.283   4.428   5.137 -0.2120 -0.1784  0.9080
 6121TIP3    H218370   2.325   4.292   5.087 -0.2446  0.5111 -1.0819
 6122TIP3   OH218371   0.593   4.405   1.432 -0.6522 -0.1013  0.5098
 6122TIP3    H118372   0.534   4.352   1.379  2.8777 -2.2330 -1.6726
 6122TIP3    H218373   0.676   4.404   1.384  1.2561  2.5944  3.3704
 6123TIP3   OH218374   1.558   0.875   0.846  0.3696 -0.3592  0.7462
 6123TIP3    H118375   1.489   0.857   0.910  0.5588 -0.8353  0.8201
 6123TIP3    H218376   1.572   0.969   0.852  1.0839 -0.5258  2.1272
 6124TIP3   OH218377   1.902   3.707   0.435  0.4840 -0.1801 -0.2927
 6124TIP3    H118378   1.974   3.769   0.424 -0.2355  0.7804  0.1890
 6124TIP3    H218379   1.883   3.675   0.347 -0.5528  1.9782 -0.9217
 6125TIP3   OH218380   1.394   3.533   4.183 -0.0271 -0.3482  0.9125
 6125TIP3    H118381   1.465   3.597   4.184  0.7560 -1.1963  0.6859
 6125TIP3    H218382   1.384   3.509   4.091 -1.1194  0.2928  0.8404
 6126TIP3   OH218383   2.156   4.272   1.349 -0.8258 -0.2126  0.1857
 6126TIP3    H118384   2.139   4.240   1.260 -1.0909 -0.7893  0.4367
 6126TIP3    H218385   2.110   4.210   1.406  1.6875 -1.6186  0.8953
 6127TIP3   OH218386   5.776   5.480   2.407  0.1130 -0.1909 -0.0359
 6127TIP3    H118387   5.864   5.466   2.442  0.0534 -3.4094 -0.8198
 6127TIP3    H218388   5.720   5.426   2.461 -0.8748 -0.5955 -1.4026
 6128TIP3   OH218389   3.080   1.747   1.275  0.3982 -0.1667  0.2279
 6128TIP3    H118390   3.014   1.688   1.241 -0.4183  0.8423  0.0005
 6128TIP3    H218391   3.054   1.764   1.366  0.8033 -0.3937  0.3912
 6129TIP3   OH218392   1.134   4.634   1.922  0.1540 -0.2619  0.3085
 6129TIP3    H118393   1.113   4.726   1.939 -0.8985 -0.2126 -1.0633
 6129TIP3    H218394   1.222   4.622   1.959  1.1159  1.8147 -1.0887
 6130TIP3   OH218395   6.139   4.162   0.819  0.2131 -0.0594 -0.0692
 6130TIP3    H118396   6.116   4.255   0.818 -3.1145 -0.7640 -0.5694
 6130TIP3    H218397   6.152   4.139   0.727 -0.8904 -0.4738 -0.1287
 6131TIP3   OH218398   2.298   2.451   2.700  0.6545 -0.4257  0.1517
 6131TIP3    H118399   2.318   2.447   2.606 -0.7675  0.6356 -0.2349
 6131TIP3    H218400   2.351   2.523   2.733  0.0993  0.1297 -0.1479
 6132TIP3   OH218401   0.163   1.932   3.088 -0.0979 -0.0288  0.6477
 6132TIP3    H118402   0.173   1.837   3.082  0.7548  0.0751  0.2175
 6132TIP3    H218403   0.242   1.962   3.133 -0.0054  0.5435  0.1264
 6133TIP3   OH218404   3.711   3.369   3.769  0.3926 -0.0149 -0.8932
 6133TIP3    H118405   3.710   3.274   3.753  1.0659  0.0444 -1.3487
 6133TIP3    H218406   3.728   3.377   3.863  2.0886 -0.3467 -1.1425
 6134TIP3   OH218407   2.457   1.124   1.925  0.5486 -0.2390 -0.1257
 6134TIP3    H118408   2.399   1.158   1.857 -0.9730 -0.3936  1.0467
 6134TIP3    H218409   2.546   1.138   1.890 -0.1635 -1.6591 -2.7858
 6135TIP3   OH218410   2.203   5.357   3.286 -0.3905 -0.2266 -0.2306
 6135TIP3    H118411   2.236   5.344   3.375 -2.2903  0.9654  0.7056
 6135TIP3    H218412   2.256   5.297   3.233  0.6486 -1.1469  1.7033
 6136TIP3   OH218413   1.924   0.886   1.670 -0.2069 -0.3333 -0.4796
 6136TIP3    H118414   1.975   0.836   1.607 -0.2288  1.7293 -2.2480
 6136TIP3    H218415   1.836   0.848   1.666  0.0178 -0.8074 -1.0221
 6137TIP3   OH218416   0.577   3.518   4.468  0.4419 -0.1859  0.6607
 6137TIP3    H118417   0.547   3.485   4.553  1.1796  0.0067  1.0049
 6137TIP3    H218418   0.571   3.613   4.475  0.0611 -0.1807  0.3216
 6138TIP3   OH218419   4.607   1.415   4.108  0.1908  0.1779  0.2189
 6138TIP3    H118420   4.656   1.401   4.189 -0.7481  1.4731  1.0407
 6138TIP3    H218421   4.518   1.385   4.128 -0.1753  0.9952 -0.1404
 6139TIP3   OH218422   4.914   5.669   3.852  0.6735  0.6442 -0.2363
 6139TIP3    H118423   4.972   5.601   3.886 -0.3047 -1.2226 -2.0539
 6139TIP3    H218424   4.830   5.653   3.895  0.7002  1.4427  0.1441
 6140TIP3   OH218425   5.780   4.779   2.828  0.2503  0.0558 -0.2661
 6140TIP3    H118426   5.689   4.772   2.798 -0.0481  0.4146  0.5350
 6140TIP3    H218427   5.816   4.691   2.816 -0.6347 -0.4716  0.7420
 6141TIP3   OH218428   0.432   3.941   2.227 -0.3189  0.2303 -0.2571
 6141TIP3    H118429   0.430   4.032   2.198 -2.0564  0.6535  1.0403
 6141TIP3    H218430   0.400   3.891   2.151  2.0182  0.4629 -1.4973
 6142TIP3   OH218431   5.531   2.468   3.882 -0.2793 -0.4498  0.3148
 6142TIP3    H118432   5.607   2.419   3.912 -0.7833 -0.7307  1.1379
 6142TIP3    H218433   5.528   2.545   3.939 -0.6613 -0.4841  0.3408
 6143TIP3   OH218434   3.950   4.454   2.797 -0.0195 -0.2460  0.7146
 6143TIP3    H118435   3.988   4.405   2.723 -0.9524 -2.6538  1.7472
 6143TIP3    H218436   3.989   4.414   2.875  0.1136  1.5258  1.6081
 6144TIP3   OH218437   5.301   0.775   1.610  0.5373 -0.3296 -0.5525
 6144TIP3    H118438   5.377   0.833   1.602 -0.6544  2.1316  3.1063
 6144TIP3    H218439   5.230   0.821   1.566  0.0432  0.1204  0.6483
 6145TIP3   OH218440   2.834   5.760   2.204  0.5018  0.1506  0.0869
 6145TIP3    H118441   2.926   5.782   2.192  0.1703  2.4074  1.2192
 6145TIP3    H218442   2.835   5.672   2.243  2.2016  0.3933  0.6562
 6146TIP3   OH218443   0.268   3.612   4.191  0.1389 -0.1279 -0.4698
 6146TIP3    H118444   0.242   3.564   4.269  0.5169  0.0476 -0.2335
 6146TIP3    H218445   0.192   3.664   4.168 -0.0917 -0.4361 -0.4186
 6147TIP3   OH218446   1.811   2.159   0.686  0.0461  0.1106  0.4887
 6147TIP3    H118447   1.847   2.075   0.714  1.9033  0.4633 -0.6792
 6147TIP3    H218448   1.831   2.218   0.759 -0.5708 -0.2758  0.9806
 6148TIP3   OH218449   5.801   3.784   0.720  0.1525  0.1372  0.0663
 6148TIP3    H118450   5.859   3.841   0.671 -0.2785  0.3694 -0.1815
 6148TIP3    H218451   5.749   3.739   0.654 -1.2745  1.3441  0.2996
 6149TIP3   OH218452   4.561   1.685   4.191 -0.0189 -0.0794  0.4087
 6149TIP3    H118453   4.630   1.734   4.147 -0.8929  0.7298 -0.1244
 6149TIP3    H218454   4.571   1.595   4.160  0.7161  0.0557  0.2520
 6150TIP3   OH218455   3.465   2.588   0.483 -0.0194  0.1394  0.6467
 6150TIP3    H118456   3.392   2.592   0.545 -0.8906  2.0745 -0.3906
 6150TIP3    H218457   3.541   2.614   0.535 -0.9952  3.4107  0.6776
 6151TIP3   OH218458   2.849   4.568   0.151  0.5200  0.5419 -0.3707
 6151TIP3    H118459   2.872   4.660   0.162  2.6009  0.1435 -0.8719
 6151TIP3    H218460   2.799   4.564   0.070 -2.5779  1.6064  1.3186
 6152TIP3   OH218461   1.168   2.358   2.703 -0.3243  0.8833 -0.3798
 6152TIP3    H118462   1.122   2.276   2.685 -0.2940  1.1959 -2.0423
 6152TIP3    H218463   1.225   2.338   2.778  0.4064 -0.9064 -1.3470
 6153TIP3   OH218464   4.132   1.664   3.832 -0.1785 -0.1130  0.3743
 6153TIP3    H118465   4.115   1.575   3.801  1.4154 -0.6556  0.9224
 6153TIP3    H218466   4.206   1.654   3.893  0.2490  1.6282  0.1874
 6154TIP3   OH218467   3.104   5.938   3.176  0.4191 -0.0175 -0.4566
 6154TIP3    H118468   3.012   5.937   3.148  0.5839 -0.2124 -1.0131
 6154TIP3    H218469   3.101   5.962   3.268 -0.1583  0.4389 -0.5899
 6155TIP3   OH218470   5.328   3.280   0.477 -0.2230  0.2779 -0.1145
 6155TIP3    H118471   5.273   3.337   0.424 -0.0147  0.2712 -0.3432
 6155TIP3    H218472   5.283   3.273   0.561 -1.6616 -1.3679 -0.9445
 6156TIP3   OH218473   4.887   3.149   4.481  0.2825  0.0936  0.3268
 6156TIP3    H118474   4.834   3.184   4.552  0.1542  0.1286  0.2148
 6156TIP3    H218475   4.824   3.102   4.425  0.1200  1.3481 -0.5872
 6157TIP3   OH218476   5.330   0.470   4.050 -0.7246  0.0404  0.2594
 6157TIP3    H118477   5.404   0.487   3.992 -0.1634  1.1698  1.2635
 6157TIP3    H218478   5.338   0.377   4.073 -0.2778 -0.1205 -0.5228
 6158TIP3   OH218479   2.930   2.251   3.136  0.1321  0.1638  0.2914
 6158TIP3    H118480   2.939   2.299   3.054 -0.0688  1.5070  1.0225
 6158TIP3    H218481   2.943   2.159   3.112 -1.0700  0.3923 -1.4341
 6159TIP3   OH218482   3.277   3.763   0.150  0.0097 -0.0500 -0.0331
 6159TIP3    H118483   3.351   3.704   0.164  0.4007  0.5582  0.5228
 6159TIP3    H218484   3.317   3.849   0.134 -0.5625  0.4473  1.0625
 6160TIP3   OH218485   3.003   2.795   3.209  0.5200  0.0743 -0.2476
 6160TIP3    H118486   3.088   2.753   3.197  0.4198  0.2304 -1.6663
 6160TIP3    H218487   3.017   2.859   3.279  1.3417 -0.5025  0.1246
 6161TIP3   OH218488   1.431   5.211   1.803 -0.2926 -0.0508 -0.5544
 6161TIP3    H118489   1.450   5.118   1.815 -1.6750 -0.1711  0.8201
 6161TIP3    H218490   1.485   5.255   1.868 -1.2073 -0.0573  0.2202
 6162TIP3   OH218491   4.625   2.792   1.943  0.2532 -0.0657  0.2012
 6162TIP3    H118492   4.557   2.842   1.899  0.3179  1.3436  1.6350
 6162TIP3    H218493   4.706   2.817   1.897  0.1584  0.4128  0.2890
 6163TIP3   OH218494   4.827   5.344   2.062  0.9530  0.6276  0.1834
 6163TIP3    H118495   4.781   5.289   2.126 -0.5636  0.1773 -1.2068
 6163TIP3    H218496   4.919   5.332   2.083  0.9729 -4.3818 -1.3447
 6164TIP3   OH218497   1.409   0.646   3.407 -0.4619 -0.3185 -0.1793
 6164TIP3    H118498   1.416   0.551   3.414 -0.2313 -0.3360 -0.5923
 6164TIP3    H218499   1.415   0.677   3.497 -1.5491 -0.7571  0.0559
 6165TIP3   OH218500   2.507   0.792   2.814 -0.1091  0.0479  0.2776
 6165TIP3    H118501   2.585   0.738   2.800  1.5842  1.9264  1.8356
 6165TIP3    H218502   2.502   0.802   2.909 -2.7085 -0.5543  0.2785
 6166TIP3   OH218503   1.400   2.290   0.546  0.1003  0.1050 -0.2374
 6166TIP3    H118504   1.455   2.361   0.513 -0.1744  0.4392  0.0227
 6166TIP3    H218505   1.342   2.269   0.472  0.6260 -0.3089 -0.5423
 6167TIP3   OH218506   1.619   1.987   3.903 -0.0550 -0.3031  0.5130
 6167TIP3    H118507   1.678   1.941   3.843  0.9015 -1.2268  2.0756
 6167TIP3    H218508   1.561   1.918   3.936  1.1954 -0.4078  2.6584
 6168TIP3   OH218509   6.030   4.218   4.678  0.0780 -0.3430 -0.3689
 6168TIP3    H118510   5.938   4.204   4.655 -0.2278  0.8267  0.0523
 6168TIP3    H218511   6.051   4.145   4.736 -1.1229  0.3032  0.9387
 6169TIP3   OH218512   5.545   0.429   0.527  0.4867 -0.0747 -0.1807
 6169TIP3    H118513   5.519   0.516   0.557 -2.6656 -0.3350 -1.7678
 6169TIP3    H218514   5.519   0.370   0.598  2.5107  0.1696  0.8407
 6170TIP3   OH218515   6.010   3.410   3.729 -0.2292 -0.0327  0.4897
 6170TIP3    H118516   6.065   3.488   3.736  0.2381 -0.3398  0.2948
 6170TIP3    H218517   6.063   3.348   3.680 -1.1188 -0.0193 -0.5066
 6171TIP3   OH218518   0.151   1.564   3.792 -0.1898  0.1662 -0.2979
 6171TIP3    H118519   0.112   1.542   3.876  1.6331  0.8413  0.7939
 6171TIP3    H218520   0.176   1.656   3.801  0.2320  0.1861 -1.5017
 6172TIP3   OH218521   0.213   1.412   1.916 -0.5707 -0.2749  0.0087
 6172TIP3    H118522   0.130   1.401   1.869 -0.0460  0.3777 -1.1054
 6172TIP3    H218523   0.188   1.424   2.007 -1.7375  0.5882 -0.4129
 6173TIP3   OH218524   0.028   0.521   2.395  0.1139  0.8249  0.3550
 6173TIP3    H118525  -0.053   0.474   2.378 -0.3347  1.6888  0.0510
 6173TIP3    H218526   0.087   0.496   2.324 -0.6915  1.9943 -0.7830
 6174TIP3   OH218527   4.816   4.204   0.122  0.1651  0.2750  0.4636
 6174TIP3    H118528   4.849   4.294   0.132  2.1244 -0.3332 -0.1230
 6174TIP3    H218529   4.798   4.175   0.211  0.2137  0.9888  0.7176
 6175TIP3   OH218530   5.559   4.701   3.528 -0.5141 -0.4369  0.0191
 6175TIP3    H118531   5.581   4.642   3.600  1.1483  1.2867  1.0359
 6175TIP3    H218532   5.467   4.682   3.508 -1.2448 -0.5449  3.0303
 6176TIP3   OH218533   4.865   0.487   3.728 -0.2025 -0.0606 -0.1760
 6176TIP3    H118534   4.949   0.441   3.736  0.3555  0.8366 -0.7395
 6176TIP3    H218535   4.887   0.571   3.688 -1.0994  1.0088  1.4733
 6177TIP3   OH218536   3.073   1.998   3.438 -0.3288  0.4823  0.2038
 6177TIP3    H118537   3.030   2.072   3.480 -0.7043  0.5457 -0.2846
 6177TIP3    H218538   3.164   2.025   3.428  0.2100 -0.2076  2.5776
 6178TIP3   OH218539   5.763   1.863   0.922 -0.4290  0.5017  0.1886
 6178TIP3    H118540   5.769   1.770   0.944 -0.2409  0.8566  1.7735
 6178TIP3    H218541   5.854   1.894   0.923 -0.4808  0.6720 -0.4451
 6179TIP3   OH218542   2.359   0.556   0.134 -0.1571  0.0705 -0.4073
 6179TIP3    H118543   2.426   0.496   0.100 -1.1533 -2.2110  1.3817
 6179TIP3    H218544   2.355   0.537   0.228 -1.9427  1.5546 -0.1258
 6180TIP3   OH218545   4.982   3.585   5.064 -0.6458 -0.0346 -0.0185
 6180TIP3    H118546   5.045   3.653   5.040  0.8135 -0.8622  1.2768
 6180TIP3    H218547   4.958   3.545   4.980 -0.8772  1.5048 -0.7036
 6181TIP3   OH218548   4.894   4.627   3.899 -0.0703 -0.4951 -0.2731
 6181TIP3    H118549   4.965   4.598   3.956 -0.6567 -0.9162  0.2543
 6181TIP3    H218550   4.841   4.684   3.953 -1.6988 -2.3894  0.2405
 6182TIP3   OH218551   1.484   2.411   4.069 -0.3482  0.0228 -0.3369
 6182TIP3    H118552   1.550   2.364   4.018 -0.7953 -0.2318 -0.6889
 6182TIP3    H218553   1.453   2.347   4.132 -0.3648  0.0976 -0.2689
 6183TIP3   OH218554   1.140   2.168   0.777  0.4864  0.1624 -0.0620
 6183TIP3    H118555   1.181   2.085   0.750 -0.7782 -0.2734 -0.7504
 6183TIP3    H218556   1.112   2.208   0.695 -0.3331  0.4975  0.3670
 6184TIP3   OH218557   1.109   4.866   4.482 -0.1184 -0.1603 -0.2427
 6184TIP3    H118558   1.076   4.945   4.440  1.5928  0.4071 -0.5784
 6184TIP3    H218559   1.196   4.852   4.443 -0.2537 -2.0286  0.0393
 6185TIP3   OH218560   4.682   4.388   5.067  0.3918 -0.2311  0.4284
 6185TIP3    H118561   4.756   4.362   5.122  2.3274  1.2338 -1.3251
 6185TIP3    H218562   4.719   4.451   5.005 -2.6635  1.7658  0.4165
 6186TIP3   OH218563   4.562   0.601   0.886 -0.0040  0.0255  0.4793
 6186TIP3    H118564   4.511   0.618   0.965 -0.7373 -0.8130  0.1913
 6186TIP3    H218565   4.527   0.662   0.821 -1.3531 -1.2261 -0.0083
 6187TIP3   OH218566   4.730   1.879   0.223  0.0073  0.8048 -0.2582
 6187TIP3    H118567   4.682   1.957   0.196  0.8273  1.2832 -0.3807
 6187TIP3    H218568   4.672   1.835   0.286  0.0068  2.1397  0.7251
 6188TIP3   OH218569   1.018   4.164   0.424  0.5734  0.1278  0.0786
 6188TIP3    H118570   1.006   4.211   0.341  0.5680 -2.9964 -1.8823
 6188TIP3    H218571   1.097   4.112   0.411  0.6893 -0.2908  2.1353
 6189TIP3   OH218572   1.062   3.744   0.473  0.4686  0.5183  0.1899
 6189TIP3    H118573   1.138   3.793   0.506  0.8093 -0.8206  1.4813
 6189TIP3    H218574   1.021   3.708   0.551  0.4646 -1.5760 -0.7112
 6190TIP3   OH218575   5.335   4.135   4.420 -0.0581 -0.1701  0.2676
 6190TIP3    H118576   5.267   4.069   4.409 -1.1158  1.1065 -1.5034
 6190TIP3    H218577   5.386   4.130   4.339 -1.0557  2.0671 -0.6000
 6191TIP3   OH218578   5.299   0.159   0.927  0.1081 -0.7956 -0.1747
 6191TIP3    H118579   5.334   0.071   0.946  1.8146 -0.1196  0.0065
 6191TIP3    H218580   5.218   0.164   0.978  1.0762 -1.5153  1.5291
 6192TIP3   OH218581   4.559   1.812   1.461  0.3496  0.6936 -0.3688
 6192TIP3    H118582   4.644   1.790   1.501  0.3160  0.2273 -0.5474
 6192TIP3    H218583   4.498   1.751   1.500  0.0580  1.1539 -0.1041
 6193TIP3   OH218584   0.637   0.467   1.585  0.7858  0.3673 -0.0650
 6193TIP3    H118585   0.731   0.465   1.602  0.9344  0.3334 -0.8556
 6193TIP3    H218586   0.629   0.455   1.491 -0.1173 -1.7791  0.2246
 6194TIP3   OH218587   4.856   4.555   1.450 -0.3586 -0.2990 -0.4302
 6194TIP3    H118588   4.807   4.532   1.371 -0.7331  0.7377 -0.5187
 6194TIP3    H218589   4.847   4.479   1.507 -2.8288  0.1656 -0.0947
 6195TIP3   OH218590   5.985   1.825   3.771 -0.1910  0.1867 -0.1856
 6195TIP3    H118591   6.013   1.746   3.817  0.4965  1.3127  1.3943
 6195TIP3    H218592   5.893   1.809   3.750  0.3392 -1.6740 -1.3415
 6196TIP3   OH218593   1.900   2.120   3.768 -0.0415 -0.5608  0.0038
 6196TIP3    H118594   1.935   2.034   3.746  1.5864 -0.3448  1.4977
 6196TIP3    H218595   1.952   2.149   3.843  0.0422  2.1141 -0.9735
 6197TIP3   OH218596   5.696   5.113   3.277 -0.5900 -0.0525  0.1207
 6197TIP3    H118597   5.653   5.028   3.268 -1.3355  0.2438  0.8285
 6197TIP3    H218598   5.784   5.098   3.242 -0.3485 -1.4093  1.2070
 6198TIP3   OH218599   4.659   2.552   0.632  0.0046 -0.7044  0.2189
 6198TIP3    H118600   4.732   2.601   0.594 -1.0040  0.6879  0.0193
 6198TIP3    H218601   4.623   2.611   0.699 -2.3091 -0.3967 -1.2095
 6199TIP3   OH218602   0.528   1.489   2.528  0.0328  0.0620 -0.5342
 6199TIP3    H118603   0.508   1.448   2.444  0.3049 -0.0817 -0.5327
 6199TIP3    H218604   0.527   1.583   2.510  1.6441  0.0186 -1.0891
 6200TIP3   OH218605   0.877   2.895   3.561  0.0570 -0.3217  0.0625
 6200TIP3    H118606   0.943   2.922   3.498  0.0316  0.7456  0.4633
 6200TIP3    H218607   0.860   2.803   3.541 -1.5534  0.4891 -2.9252
 6201TIP3   OH218608   6.159   4.856   1.808 -0.3589  0.1388  0.2695
 6201TIP3    H118609   6.093   4.835   1.743 -0.4703 -0.4207  0.5653
 6201TIP3    H218610   6.140   4.947   1.833 -0.2165  0.4193 -0.5868
 6202TIP3   OH218611   4.254   5.080   1.425  0.0875 -0.3799 -0.4289
 6202TIP3    H118612   4.267   5.167   1.385 -0.1106 -0.2168 -0.1422
 6202TIP3    H218613   4.175   5.090   1.478 -0.2263 -0.8798 -0.7922
 6203TIP3   OH218614   3.918   2.204   1.668 -0.3064  0.1228  0.5155
 6203TIP3    H118615   3.960   2.120   1.682  1.0807  0.9647  1.7617
 6203TIP3    H218616   3.912   2.212   1.573  1.7026 -0.3988  0.2892
 6204TIP3   OH218617   4.652   3.868   0.558  0.0306  0.0709 -0.0921
 6204TIP3    H118618   4.737   3.825   0.559 -0.4128 -0.8218  0.5872
 6204TIP3    H218619   4.595   3.810   0.608  0.0307  2.6302  3.2799
 6205TIP3   OH218620   2.028   1.351   0.204  0.2194 -0.2681  0.6493
 6205TIP3    H118621   2.046   1.269   0.250  0.8040 -0.7330 -0.3818
 6205TIP3    H218622   1.939   1.374   0.231 -0.3983 -1.8509  0.0732
 6206TIP3   OH218623   3.974   1.831   5.185 -0.0135  0.0020 -0.3290
 6206TIP3    H118624   3.952   1.766   5.117 -0.4660 -1.2135  0.9285
 6206TIP3    H218625   4.068   1.845   5.174 -0.0969 -0.0900 -1.2758
 6207TIP3   OH218626   2.148   1.245   1.419 -0.1603 -0.1465  0.1718
 6207TIP3    H118627   2.228   1.198   1.400  0.3491  0.4185  0.8739
 6207TIP3    H218628   2.177   1.331   1.450 -0.9821 -0.3819  1.7106
 6208TIP3   OH218629   4.641   5.530   0.240  0.1779  0.3710  0.6372
 6208TIP3    H118630   4.664   5.448   0.284 -2.0915 -0.5501  0.2706
 6208TIP3    H218631   4.715   5.549   0.183  0.2948 -2.0905 -0.1471
 6209TIP3   OH218632   5.926   4.469   4.939 -0.1752  0.3121 -0.3584
 6209TIP3    H118633   5.968   4.414   5.004 -0.5087  0.6496  0.1499
 6209TIP3    H218634   5.873   4.408   4.887 -0.7304  0.1814  0.3524
 6210TIP3   OH218635   4.169   0.395   3.765 -0.3455  0.0259  0.0858
 6210TIP3    H118636   4.253   0.361   3.796 -0.4154 -0.9797 -0.7622
 6210TIP3    H218637   4.184   0.488   3.750  0.8998 -0.3189 -0.9607
 6211TIP3   OH218638   2.795   0.850   1.239 -0.2961 -0.1586 -0.3679
 6211TIP3    H118639   2.881   0.874   1.274 -0.1053 -0.6006 -0.5297
 6211TIP3    H218640   2.813   0.812   1.154 -0.7479  0.7668 -0.9006
 6212TIP3   OH218641   4.097   5.969   0.285  0.3486  0.3017  0.6481
 6212TIP3    H118642   4.021   5.912   0.295  1.0229 -0.8127 -0.2773
 6212TIP3    H218643   4.120   5.994   0.374  0.2811 -1.2510  1.1368
 6213TIP3   OH218644   3.392   1.579   4.260  0.2036 -0.2224 -0.4757
 6213TIP3    H118645   3.453   1.607   4.329 -0.3308 -1.2028  0.4361
 6213TIP3    H218646   3.310   1.625   4.280  0.8603  1.8770 -2.2868
 6214TIP3   OH218647   0.582   4.445   4.449 -0.2814  0.4633 -0.6918
 6214TIP3    H118648   0.647   4.480   4.387  1.5439  0.0316  0.8640
 6214TIP3    H218649   0.628   4.375   4.494 -0.9738  1.7001  2.1731
 6215TIP3   OH218650   0.325   1.792   2.615  0.2109  0.5095  0.4783
 6215TIP3    H118651   0.280   1.733   2.556 -0.3663  0.9126  0.5065
 6215TIP3    H218652   0.363   1.735   2.682 -0.3737  0.1755  0.5293
 6216TIP3   OH218653   0.458   2.169   1.357  0.1318 -0.3738  0.2268
 6216TIP3    H118654   0.435   2.125   1.439  3.5124  0.2934  1.7202
 6216TIP3    H218655   0.519   2.109   1.314 -1.2514 -0.5140 -1.6662
 6217TIP3   OH218656   5.988   1.100   4.916  0.3389 -1.0500  0.1589
 6217TIP3    H118657   6.045   1.032   4.952  0.9823 -1.4954 -1.6169
 6217TIP3    H218658   5.951   1.062   4.837  0.2119  0.4284 -0.5358
 6218TIP3   OH218659   1.808   2.878   3.765 -0.4975  0.0573  0.5356
 6218TIP3    H118660   1.798   2.958   3.714 -0.3766  1.0652  2.0074
 6218TIP3    H218661   1.900   2.855   3.757 -0.1793  0.9789  1.3511
 6219TIP3   OH218662   3.375   0.303   1.221 -0.2729 -0.5287 -0.5452
 6219TIP3    H118663   3.408   0.235   1.162 -0.5704 -1.2354  0.0862
 6219TIP3    H218664   3.280   0.300   1.211 -0.3276 -0.6833 -0.0034
 6220TIP3   OH218665   5.602   3.921   3.205  0.0290 -0.2243  0.1881
 6220TIP3    H118666   5.650   3.963   3.276 -0.3297  0.5974 -0.0371
 6220TIP3    H218667   5.512   3.915   3.238  0.1382 -1.1611  0.3555
 6221TIP3   OH218668   0.369   2.039   2.486 -0.2184  0.1887  0.3408
 6221TIP3    H118669   0.294   2.095   2.508 -0.6200  0.0144 -0.5301
 6221TIP3    H218670   0.341   1.951   2.512 -0.5893  0.0232 -0.5749
 6222TIP3   OH218671   5.573   2.875   0.242  0.4634 -0.4074 -0.7654
 6222TIP3    H118672   5.545   2.952   0.291 -0.6796 -0.4606 -1.2946
 6222TIP3    H218673   5.505   2.863   0.175 -0.9984 -3.4899  1.0115
 6223TIP3   OH218674   2.530   2.577   3.188 -0.1928  0.6787  0.5210
 6223TIP3    H118675   2.605   2.526   3.158 -1.7641 -2.1601  1.1225
 6223TIP3    H218676   2.482   2.600   3.108 -1.1322 -1.6045  0.3686
 6224TIP3   OH218677   1.504   4.249   0.676  0.0528 -0.0305 -0.0784
 6224TIP3    H118678   1.506   4.235   0.581  0.8484  0.5502 -0.1634
 6224TIP3    H218679   1.414   4.232   0.701  0.1079 -1.4054 -0.7435
 6225TIP3   OH218680   5.379   0.374   1.266  0.6943  0.1696  0.5769
 6225TIP3    H118681   5.292   0.412   1.282  0.7043 -0.0301  1.1357
 6225TIP3    H218682   5.435   0.417   1.331  1.3469  1.4395 -0.7712
 6226TIP3   OH218683   5.437   5.925   3.360  0.2201  0.5167 -0.2124
 6226TIP3    H118684   5.512   5.934   3.420  0.4713  1.2943 -0.6257
 6226TIP3    H218685   5.471   5.954   3.275 -0.2228 -0.2789 -0.6680
 6227TIP3   OH218686   4.380   5.957   3.566  0.0503  0.1073 -0.1453
 6227TIP3    H118687   4.445   5.919   3.507 -1.3433  0.2059 -1.8523
 6227TIP3    H218688   4.327   5.882   3.596 -1.1891  0.3546 -1.5838
 6228TIP3   OH218689   2.213   4.191   4.497  0.2147  0.6932 -0.2642
 6228TIP3    H118690   2.160   4.245   4.556 -1.6458  0.9729 -2.0729
 6228TIP3    H218691   2.172   4.202   4.411  0.5556 -2.5862 -0.9825
 6229TIP3   OH218692   5.537   1.560   0.764  0.0636  0.1088 -0.3487
 6229TIP3    H118693   5.586   1.552   0.846 -0.2011  0.4562 -0.1531
 6229TIP3    H218694   5.527   1.470   0.732  1.8705  0.1049 -1.0160
 6230TIP3   OH218695   6.330   3.814   2.358  0.1195 -0.0498 -0.6188
 6230TIP3    H118696   6.381   3.778   2.284 -1.8478  0.0972 -2.1243
 6230TIP3    H218697   6.302   3.900   2.328 -0.1208  0.3208  0.6303
 6231TIP3   OH218698   2.665   5.805   4.972  0.3290 -0.0402 -0.1332
 6231TIP3    H118699   2.607   5.777   4.901 -0.4308  0.7737  0.1396
 6231TIP3    H218700   2.742   5.749   4.964 -0.6465 -1.4240 -0.2823
 6232TIP3   OH218701   5.698   1.113   3.019  0.0969  0.0907  0.5017
 6232TIP3    H118702   5.743   1.030   3.001 -1.6501 -0.7945  0.0360
 6232TIP3    H218703   5.769   1.176   3.032  1.4661 -1.5475  1.2964
 6233TIP3   OH218704   5.628   4.234   1.745  0.1852 -0.1837  0.1236
 6233TIP3    H118705   5.716   4.270   1.757  0.0911  0.6283 -1.3530
 6233TIP3    H218706   5.639   4.166   1.679 -0.2007 -0.4963  0.3809
 6234TIP3   OH218707   1.310   5.589   4.002  0.5424 -0.4285 -0.3745
 6234TIP3    H118708   1.283   5.497   3.994  0.0837 -0.6994  2.7861
 6234TIP3    H218709   1.234   5.633   4.038  0.7082  1.2900 -1.9993
 6235TIP3   OH218710   0.201   5.065   1.610  0.4399  0.4036 -0.4824
 6235TIP3    H118711   0.187   5.160   1.610 -0.2114  0.3200  0.2772
 6235TIP3    H218712   0.170   5.036   1.696  1.8697 -0.3326 -0.1809
 6236TIP3   OH218713   1.651   0.977   2.190  0.8548 -0.0834 -0.4049
 6236TIP3    H118714   1.696   1.052   2.151  3.6111 -1.6555 -0.4987
 6236TIP3    H218715   1.627   1.006   2.278 -1.4364  2.0098 -1.5708
 6237TIP3   OH218716   0.502   5.196   2.362 -0.5544  0.0497 -0.5748
 6237TIP3    H118717   0.434   5.132   2.345  0.6799 -1.2273 -0.8610
 6237TIP3    H218718   0.521   5.235   2.277  0.3852 -0.9679 -0.8475
 6238TIP3   OH218719   0.465   4.862   2.574  0.7032 -0.2626  0.5351
 6238TIP3    H118720   0.514   4.911   2.640  0.9739 -0.2447  0.3240
 6238TIP3    H218721   0.506   4.775   2.573 -1.5058 -1.4359  2.8573
 6239TIP3   OH218722   2.021   1.463   1.732  0.2248 -0.5340  0.3342
 6239TIP3    H118723   2.103   1.417   1.715  1.4571  1.6660 -0.0424
 6239TIP3    H218724   2.042   1.528   1.799 -0.6970  1.2587 -1.0000
 6240TIP3   OH218725   6.036   3.685   1.103 -0.6295 -0.2760 -0.3307
 6240TIP3    H118726   6.130   3.669   1.109 -0.8773 -2.1853 -0.6092
 6240TIP3    H218727   6.028   3.776   1.075  1.0748  0.4038  1.2075
 6241TIP3   OH218728   1.375   3.213   1.604  0.3710  0.0709  0.5136
 6241TIP3    H118729   1.376   3.275   1.532  0.1014  0.2396  0.6498
 6241TIP3    H218730   1.423   3.137   1.572  0.0497  0.0487  0.0722
 6242TIP3   OH218731   2.082   2.016   4.011 -0.1898 -0.2346  0.4304
 6242TIP3    H118732   2.130   1.993   4.090 -2.2914 -0.5681  1.6559
 6242TIP3    H218733   2.012   2.075   4.040  0.6817  2.0154 -1.6081
 6243TIP3   OH218734   2.800   5.363   3.127 -0.0711  0.0749  0.1775
 6243TIP3    H118735   2.834   5.308   3.057 -0.1990  0.9417 -0.5883
 6243TIP3    H218736   2.734   5.308   3.170 -0.4533 -0.2550 -0.7913
 6244TIP3   OH218737   2.592   3.775   1.210 -0.0531 -0.0082  0.5221
 6244TIP3    H118738   2.589   3.728   1.127 -1.6582  2.8012 -1.1519
 6244TIP3    H218739   2.684   3.767   1.238  0.6950 -0.5403 -1.8239
 6245TIP3   OH218740   5.894   0.611   1.861 -0.1406 -0.6556 -0.2285
 6245TIP3    H118741   5.988   0.611   1.881  0.3244  0.9840 -2.0944
 6245TIP3    H218742   5.861   0.693   1.896  0.0897  0.8389 -3.1653
 6246TIP3   OH218743   4.092   1.430   3.586  0.2277 -0.4270 -0.4556
 6246TIP3    H118744   4.028   1.436   3.658  0.2934  2.4947 -0.5205
 6246TIP3    H218745   4.141   1.350   3.605 -1.2190 -0.9464  1.4935
 6247TIP3   OH218746   5.857   1.207   1.080 -0.2420  0.5323  0.1257
 6247TIP3    H118747   5.904   1.127   1.059 -1.8160 -0.5727  0.5886
 6247TIP3    H218748   5.921   1.262   1.126  1.0068 -0.2192 -0.6640
 6248TIP3   OH218749   4.289   0.388   3.499 -0.0508 -0.1660  0.5017
 6248TIP3    H118750   4.359   0.452   3.514  0.0043 -0.0765 -0.1171
 6248TIP3    H218751   4.255   0.369   3.586  0.6393 -0.0849  0.7926
 6249TIP3   OH218752   3.471   0.866   1.033  0.2269  0.4010 -0.2154
 6249TIP3    H118753   3.489   0.959   1.021 -1.6296  0.8265 -0.0277
 6249TIP3    H218754   3.499   0.848   1.123  0.7096  0.7482 -0.2926
 6250TIP3   OH218755   4.514   5.451   4.009  0.5161  0.3361  0.3975
 6250TIP3    H118756   4.486   5.359   4.002 -1.1228  0.9024 -1.3975
 6250TIP3    H218757   4.435   5.498   4.036  1.4525  1.2113  1.7376
 6251TIP3   OH218758   3.913   1.093   3.573  0.1910 -0.4889 -0.9481
 6251TIP3    H118759   3.987   1.151   3.589 -0.4155  0.4810 -1.5755
 6251TIP3    H218760   3.910   1.084   3.478 -0.0006 -1.1950 -0.8825
 6252TIP3   OH218761   2.930   5.762   0.780  0.2066 -0.1780  0.0453
 6252TIP3    H118762   2.964   5.785   0.694  0.5601 -0.2247  0.1720
 6252TIP3    H218763   2.907   5.669   0.773 -0.2652 -0.0476 -0.1580
 6253TIP3   OH218764   0.352   5.604   5.152  0.5622  0.7900  0.2943
 6253TIP3    H118765   0.408   5.678   5.130  1.4048  0.3193  0.8236
 6253TIP3    H218766   0.406   5.527   5.137 -0.0282  0.3119  0.5708
 6254TIP3   OH218767   1.819   3.059   4.908 -0.1127 -0.3226 -0.7107
 6254TIP3    H118768   1.743   3.025   4.955 -0.9068  3.3330  1.0191
 6254TIP3    H218769   1.801   3.041   4.816 -0.4365 -4.1541 -0.0554
 6255TIP3   OH218770   6.186   4.712   1.519 -0.5955  0.0038 -0.3398
 6255TIP3    H118771   6.243   4.651   1.473 -1.8711 -1.3502 -0.1792
 6255TIP3    H218772   6.237   4.793   1.525  1.1059 -1.0202 -0.6019
 6256TIP3   OH218773   4.257   0.341   2.098  0.1956 -0.3244  0.1888
 6256TIP3    H118774   4.291   0.296   2.175 -0.0210 -1.8904 -0.6031
 6256TIP3    H218775   4.278   0.433   2.114 -0.0498 -0.5630  2.2106
 6257TIP3   OH218776   0.816   4.396   0.834 -0.4038  0.0840  0.4207
 6257TIP3    H118777   0.827   4.350   0.751  1.2149 -0.3057  0.8257
 6257TIP3    H218778   0.741   4.353   0.875 -0.1585 -0.8604 -0.0869
 6258TIP3   OH218779   0.740   2.406   1.655 -0.2106 -0.2114 -0.1254
 6258TIP3    H118780   0.794   2.483   1.634  1.3577 -1.6750 -1.8134
 6258TIP3    H218781   0.650   2.437   1.642  0.4079  1.1145 -1.7569
 6259TIP3   OH218782   6.168   0.297   3.069 -0.3182  0.8767 -0.5590
 6259TIP3    H118783   6.085   0.251   3.064  0.5134 -0.8389  0.5768
 6259TIP3    H218784   6.185   0.325   2.979 -2.1046  1.2836 -0.8074
 6260TIP3   OH218785   0.465   4.221   2.042 -0.3488 -0.3998  1.0042
 6260TIP3    H118786   0.414   4.214   1.961 -0.5299  2.1342  0.8317
 6260TIP3    H218787   0.499   4.310   2.041  1.8060 -1.1294  2.4908
 6261TIP3   OH218788   5.660   0.485   1.964 -0.3177  0.8084  0.0869
 6261TIP3    H118789   5.613   0.528   1.892 -0.3750 -0.1054 -0.4351
 6261TIP3    H218790   5.753   0.502   1.944 -0.3539  1.0886  0.1452
 6262TIP3   OH218791   0.035   1.023   1.648 -0.1920  0.1955  0.0030
 6262TIP3    H118792   0.125   1.013   1.616 -0.6216 -1.6513 -0.7366
 6262TIP3    H218793  -0.007   0.940   1.627 -1.4203  0.1031  2.5436
 6263TIP3   OH218794   2.719   3.375   3.716 -0.6912  0.4958  0.0326
 6263TIP3    H118795   2.665   3.323   3.658 -1.0628  2.0656 -1.1041
 6263TIP3    H218796   2.666   3.388   3.795 -0.4007 -1.1815  0.5430
 6264TIP3   OH218797   4.811   5.300   0.978 -0.3374  0.6597 -0.0646
 6264TIP3    H118798   4.820   5.216   1.023  1.4995 -0.8359 -2.9362
 6264TIP3    H218799   4.777   5.359   1.045  1.1145 -1.6265  2.9418
 6265TIP3   OH218800   3.916   4.193   1.752 -0.5052  0.0908 -0.1273
 6265TIP3    H118801   3.860   4.175   1.828  0.0500 -0.1649  0.2232
 6265TIP3    H218802   3.872   4.148   1.680 -0.5690 -0.4172  0.2188
 6266TIP3   OH218803   4.294   1.109   1.725  0.2966 -0.6736  0.1478
 6266TIP3    H118804   4.317   1.201   1.711 -0.3851 -0.5260 -0.0755
 6266TIP3    H218805   4.290   1.099   1.820 -2.4432  0.2929  0.2123
 6267TIP3   OH218806   5.012   2.912   4.859 -0.0007  0.2345  0.3907
 6267TIP3    H118807   5.039   2.822   4.840 -0.0502  0.2722  0.1387
 6267TIP3    H218808   5.028   2.960   4.778  1.8467  0.8923  1.0996
 6268TIP3   OH218809   6.297   0.542   1.773  0.0942 -0.1761  0.4261
 6268TIP3    H118810   6.293   0.453   1.738 -1.1986  0.3440 -0.8415
 6268TIP3    H218811   6.375   0.542   1.828 -1.1623 -2.7877  2.4495
 6269TIP3   OH218812   5.513   0.334   2.143 -0.2227  0.0822 -0.3560
 6269TIP3    H118813   5.552   0.417   2.117 -1.6673  0.7858 -0.3748
 6269TIP3    H218814   5.426   0.357   2.175 -0.8042 -1.4612 -0.7198
 6270TIP3   OH218815   1.177   1.455   2.862  0.2393  0.4130  0.1603
 6270TIP3    H118816   1.114   1.448   2.790  1.2619  0.3680 -0.7631
 6270TIP3    H218817   1.136   1.409   2.935 -0.6493  0.1023 -0.5222
 6271TIP3   OH218818   4.095   2.653   1.177 -0.6004  0.3695 -0.4327
 6271TIP3    H118819   4.183   2.623   1.199 -0.3492 -0.6071 -2.4443
 6271TIP3    H218820   4.100   2.672   1.083 -2.3543  0.9738 -0.4326
 6272TIP3   OH218821   1.172   3.632   2.956  0.6178  0.0288 -0.0557
 6272TIP3    H118822   1.100   3.645   2.893 -0.0111 -2.2497  0.1135
 6272TIP3    H218823   1.198   3.721   2.981 -0.7364  0.9508 -1.6984
 6273TIP3   OH218824   1.632   0.463   4.802 -0.3712  0.1593 -0.2253
 6273TIP3    H118825   1.619   0.503   4.716 -3.7385 -2.4555 -1.1482
 6273TIP3    H218826   1.705   0.402   4.789 -0.7631 -0.1200 -1.1895
 6274TIP3   OH218827   1.597   4.564   0.514  0.0719  0.7010 -0.2696
 6274TIP3    H118828   1.538   4.500   0.554 -1.9846  2.8082  0.2862
 6274TIP3    H218829   1.606   4.534   0.424 -1.0386 -0.2469 -0.0995
 6275TIP3   OH218830   2.526   5.442   1.212  0.3647  0.2896  0.6739
 6275TIP3    H118831   2.452   5.455   1.271  2.1925  2.9090  2.6276
 6275TIP3    H218832   2.600   5.424   1.269  1.7010  0.1163 -1.0246
 6276TIP3   OH218833   0.253   4.730   1.908 -0.0914 -0.1553 -0.2573
 6276TIP3    H118834   0.331   4.721   1.855  0.0356 -1.6281  0.1193
 6276TIP3    H218835   0.194   4.662   1.876 -0.6167 -0.0535  0.4540
 6277TIP3   OH218836   0.603   0.769   1.531  0.0765 -0.0689  0.0028
 6277TIP3    H118837   0.597   0.849   1.477 -0.1926  0.4489  0.7854
 6277TIP3    H218838   0.540   0.784   1.602 -0.2065 -1.1218 -0.0156
 6278TIP3   OH218839   5.498   2.134   1.547  0.3426 -0.0848  0.2106
 6278TIP3    H118840   5.456   2.198   1.604  0.7065  0.2983  0.0500
 6278TIP3    H218841   5.579   2.111   1.593  0.4859 -0.0087 -0.0021
 6279TIP3   OH218842   0.452   4.070   4.862 -0.6128 -0.4100  0.1261
 6279TIP3    H118843   0.360   4.081   4.888 -0.1290  1.9346  1.0380
 6279TIP3    H218844   0.483   4.159   4.846  1.1831 -1.2521 -1.4578
 6280TIP3   OH218845   0.303   0.948   0.764  0.5744  0.5903  0.0541
 6280TIP3    H118846   0.218   0.979   0.731 -1.2445 -3.5755  0.2440
 6280TIP3    H218847   0.360   0.948   0.687 -1.4083 -1.9344 -1.5782
 6281TIP3   OH218848   5.594   0.609   1.111 -0.0575 -0.4145 -0.1538
 6281TIP3    H118849   5.577   0.524   1.069  0.8608 -0.2308 -0.9330
 6281TIP3    H218850   5.548   0.672   1.055  0.5115 -0.2505 -0.4437
 6282TIP3   OH218851   3.600   1.757   4.674 -0.2857  0.1959  0.3673
 6282TIP3    H118852   3.592   1.841   4.720  0.0969  0.6146 -0.2991
 6282TIP3    H218853   3.640   1.698   4.738 -2.5935 -0.1357  1.5893
 6283TIP3   OH218854   5.735   1.866   0.087 -0.2493  0.4123  0.0339
 6283TIP3    H118855   5.799   1.863   0.015 -0.6112  0.9004 -0.3114
 6283TIP3    H218856   5.783   1.906   0.159 -0.0018  0.2838 -0.0557
 6284TIP3   OH218857   1.963   2.643   2.937 -0.1394  0.6622 -0.0202
 6284TIP3    H118858   1.989   2.642   3.029 -0.7853 -0.1582  0.1671
 6284TIP3    H218859   1.977   2.734   2.909 -0.9675  1.1955  1.1956
 6285TIP3   OH218860   4.792   1.746   0.612 -0.4219 -0.7009 -0.8720
 6285TIP3    H118861   4.885   1.733   0.626 -0.8430 -1.0213  2.5117
 6285TIP3    H218862   4.776   1.837   0.636 -1.0655 -0.8538 -0.6743
 6286TIP3   OH218863   4.579   5.794   3.486 -0.3081  0.0918  0.6397
 6286TIP3    H118864   4.566   5.772   3.578  0.7966  1.2030  1.0899
 6286TIP3    H218865   4.639   5.868   3.487 -1.7292  1.3305 -0.9139
 6287TIP3   OH218866   0.575   4.773   4.284 -0.3967  0.5858  0.4659
 6287TIP3    H118867   0.628   4.695   4.271 -2.7033 -1.1713  0.8950
 6287TIP3    H218868   0.549   4.799   4.195  0.4824  0.9756  0.3134
 6288TIP3   OH218869   3.629   0.918   1.540 -0.1133 -0.0240 -0.1515
 6288TIP3    H118870   3.718   0.926   1.575 -0.4662 -1.8408  1.3341
 6288TIP3    H218871   3.636   0.853   1.470 -0.4813 -1.4021  1.0377
 6289TIP3   OH218872   6.337   4.241   0.075  0.8873  0.4073 -0.1174
 6289TIP3    H118873   6.278   4.246  -0.001  0.2230 -0.8174  0.2911
 6289TIP3    H218874   6.420   4.211   0.038  0.4691 -0.5232 -0.3256
 6290TIP3   OH218875   1.077   3.422   4.872 -0.2292 -0.0123 -0.4412
 6290TIP3    H118876   1.046   3.491   4.931  0.3108 -1.2707  1.4220
 6290TIP3    H218877   1.150   3.461   4.824  0.7653  0.4502  1.3613
 6291TIP3   OH218878   3.578   3.105   0.177  0.0665 -0.2099 -0.5551
 6291TIP3    H118879   3.506   3.085   0.116 -0.8566 -0.4139  0.5659
 6291TIP3    H218880   3.656   3.110   0.121 -0.7864 -0.1361 -1.7853
 6292TIP3   OH218881   2.076   4.379   2.715 -0.1237 -0.3463 -0.4721
 6292TIP3    H118882   2.010   4.323   2.674 -0.3230 -0.5537  0.1209
 6292TIP3    H218883   2.137   4.400   2.644  0.6170 -2.2580 -0.4849
 6293TIP3   OH218884   6.166   3.696   3.879  0.6544  0.1110 -0.3172
 6293TIP3    H118885   6.201   3.751   3.809  1.1286  0.7473  0.3877
 6293TIP3    H218886   6.244   3.671   3.930  0.5239 -1.7479 -0.9654
 6294TIP3   OH218887   6.385   4.141   1.028 -0.2105 -0.0891  0.0131
 6294TIP3    H118888   6.342   4.071   1.076 -1.0586  0.4023 -0.0020
 6294TIP3    H218889   6.317   4.177   0.971 -0.1478  1.5365  0.9044
 6295TIP3   OH218890   5.377   4.832   2.158 -0.0982  0.3032  0.3266
 6295TIP3    H118891   5.370   4.739   2.135  1.8704 -0.0437  0.8665
 6295TIP3    H218892   5.299   4.850   2.210  0.0756 -1.3950  1.2592
 6296TIP3   OH218893   3.766   4.846   2.128  0.4323 -0.6970  1.0013
 6296TIP3    H118894   3.732   4.809   2.046 -3.1965 -0.1770  2.0985
 6296TIP3    H218895   3.760   4.941   2.117  2.2634 -0.5358  1.0506
 6297TIP3   OH218896   5.378   4.252   0.357 -0.1484  0.1845 -0.1131
 6297TIP3    H118897   5.415   4.173   0.317 -0.0561 -0.3999  1.0946
 6297TIP3    H218898   5.397   4.243   0.450  0.9703  2.2126 -0.0682
 6298TIP3   OH218899   1.363   2.688   4.316 -0.0035 -0.1700  0.6211
 6298TIP3    H118900   1.438   2.678   4.257  0.4038  1.8495  0.7095
 6298TIP3    H218901   1.388   2.639   4.395  3.0877  3.4002  2.2056
 6299TIP3   OH218902   0.746   1.711   0.242  0.1573  0.7004  0.6637
 6299TIP3    H118903   0.656   1.681   0.252 -0.6069  1.4543 -2.8118
 6299TIP3    H218904   0.794   1.634   0.212  0.3415  0.7032  0.9412
 6300TIP3   OH218905   2.273   5.849   0.923 -0.2700 -0.4084  0.3518
 6300TIP3    H118906   2.359   5.841   0.882 -0.5862 -0.3783 -0.3293
 6300TIP3    H218907   2.254   5.761   0.955 -0.7375 -0.8278 -1.0381
 6301TIP3   OH218908   0.479   2.385   1.073 -0.6230  0.4670 -0.4771
 6301TIP3    H118909   0.533   2.408   1.149 -2.1652 -1.0960  1.1883
 6301TIP3    H218910   0.522   2.307   1.037 -1.1043 -0.1047  0.1614
 6302TIP3   OH218911   3.698   0.991   1.173  0.4224 -0.5381 -0.5772
 6302TIP3    H118912   3.675   0.919   1.230 -0.5421  0.9159  0.9619
 6302TIP3    H218913   3.759   1.044   1.224 -0.1680  0.6035 -1.0084
 6303TIP3   OH218914   3.716   0.385   1.767 -0.4406 -0.3493  0.4275
 6303TIP3    H118915   3.811   0.395   1.758 -0.1792 -1.5335  1.5241
 6303TIP3    H218916   3.685   0.473   1.789  0.7567 -0.3770  2.5078
 6304TIP3   OH218917   3.877   2.707   0.803 -0.3071  0.9005 -0.2021
 6304TIP3    H118918   3.927   2.641   0.851 -0.0988  1.3529  0.2042
 6304TIP3    H218919   3.875   2.783   0.860  0.3075  1.6046 -1.0914
 6305TIP3   OH218920   3.176   2.481   5.003 -0.0779  0.2775  0.3016
 6305TIP3    H118921   3.121   2.556   4.980 -1.3866 -0.3264  1.3590
 6305TIP3    H218922   3.227   2.512   5.078 -0.7777  0.0529  0.8773
 6306TIP3   OH218923   4.763   1.092   2.942  0.2524  0.4674  0.2665
 6306TIP3    H118924   4.817   1.016   2.964  0.1440  0.5546  0.8595
 6306TIP3    H218925   4.811   1.137   2.872  0.1483 -0.3278 -0.3326
 6307TIP3   OH218926   4.475   0.474   1.676 -0.1319 -0.0919  0.8318
 6307TIP3    H118927   4.486   0.531   1.600  1.0514 -3.0809 -1.4466
 6307TIP3    H218928   4.536   0.509   1.741 -0.8316  2.2872  0.2994
 6308TIP3   OH218929   3.360   2.713   0.865 -0.5527  0.3643  0.3692
 6308TIP3    H118930   3.291   2.772   0.892 -0.7677  0.3808 -0.1932
 6308TIP3    H218931   3.441   2.760   0.883 -0.7016  0.5287  0.6110
 6309TIP3   OH218932   1.468   4.303   3.311  0.3842  0.5823 -0.4344
 6309TIP3    H118933   1.555   4.291   3.273 -0.0560  0.4980 -1.4586
 6309TIP3    H218934   1.429   4.216   3.311  1.0053  0.2486  1.8969
 6310TIP3   OH218935   6.026   3.162   0.682 -0.2358  0.3247  0.0059
 6310TIP3    H118936   5.981   3.094   0.731  0.0711 -1.6887 -2.3582
 6310TIP3    H218937   5.961   3.232   0.674 -1.2325 -0.4625  0.8245
 6311TIP3   OH218938   2.172   1.425   4.451  0.1311  0.1551 -0.4884
 6311TIP3    H118939   2.188   1.471   4.369  1.5600  1.4027  0.4321
 6311TIP3    H218940   2.246   1.449   4.506 -2.4043  2.0794  2.3763
 6312TIP3   OH218941   4.566   2.774   4.251  0.2665 -0.3690  0.0439
 6312TIP3    H118942   4.580   2.707   4.319  1.7680 -3.1919 -2.7974
 6312TIP3    H218943   4.483   2.749   4.210  0.6951 -0.3426 -0.8584
 6313TIP3   OH218944   2.223   1.246   1.769 -0.4291 -0.7646  0.0912
 6313TIP3    H118945   2.296   1.275   1.715 -1.0574  0.7753  0.0318
 6313TIP3    H218946   2.178   1.181   1.714 -0.3407 -0.1229 -0.7644
 6314TIP3   OH218947   1.901   5.363   1.392 -0.0584  0.2040  0.2241
 6314TIP3    H118948   1.966   5.292   1.400 -0.3586 -0.4530 -2.2479
 6314TIP3    H218949   1.954   5.441   1.373  0.1026 -0.4020 -2.1791
 6315TIP3   OH218950   0.736   2.200   2.969 -0.0810 -0.0524  0.3822
 6315TIP3    H118951   0.675   2.201   3.043  0.0117  0.2290  0.4536
 6315TIP3    H218952   0.732   2.110   2.937 -1.2777  0.1979 -0.2218
 6316TIP3   OH218953   4.590   5.741   4.683 -0.0064  0.1263 -0.1482
 6316TIP3    H118954   4.659   5.694   4.730  0.2364  1.1616  0.5499
 6316TIP3    H218955   4.526   5.764   4.750  1.1113  3.0314  0.0732
 6317TIP3   OH218956   1.712   1.563   2.384 -0.4389  0.1660 -0.3215
 6317TIP3    H118957   1.647   1.514   2.334  0.4945 -0.6943 -0.7249
 6317TIP3    H218958   1.713   1.520   2.470 -0.1268 -0.0769 -0.4449
 6318TIP3   OH218959   1.629   1.520   0.722  0.6774 -0.4721 -0.5839
 6318TIP3    H118960   1.576   1.470   0.783 -3.7084  3.0779 -0.9941
 6318TIP3    H218961   1.628   1.609   0.756  1.4540  0.8788 -3.7075
 6319TIP3   OH218962   1.904   3.148   4.174  0.1496  0.0073  0.0019
 6319TIP3    H118963   1.826   3.189   4.137  0.2757 -0.5200 -0.8972
 6319TIP3    H218964   1.970   3.217   4.172 -0.6973  0.9843  2.3589
 6320TIP3   OH218965   2.550   3.735   3.977 -0.4993 -0.0247  0.3475
 6320TIP3    H118966   2.486   3.685   4.027  1.0025 -3.0566 -0.4995
 6320TIP3    H218967   2.540   3.705   3.887  0.9047  0.7403 -0.1030
 6321TIP3   OH218968   5.746   1.688   3.725  0.7376 -0.2027  0.2814
 6321TIP3    H118969   5.748   1.611   3.782 -1.4350 -0.8297 -0.3994
 6321TIP3    H218970   5.656   1.693   3.694  1.0970  1.9844 -0.6001
 6322TIP3   OH218971   1.433   2.165   3.046  0.3994  0.6459  0.1009
 6322TIP3    H118972   1.475   2.190   3.129 -0.5251 -1.5189  1.3270
 6322TIP3    H218973   1.402   2.076   3.062 -1.1553  0.7297 -2.0986
 6323TIP3   OH218974   3.700   2.000   1.587  0.1929 -0.4820 -0.5402
 6323TIP3    H118975   3.680   1.971   1.676  0.8054  0.1401 -0.1866
 6323TIP3    H218976   3.713   1.919   1.538  2.0545 -0.8698  0.4680
 6324TIP3   OH218977   5.154   3.672   2.245  0.1592 -0.6042  0.1290
 6324TIP3    H118978   5.223   3.662   2.310  1.0464  1.4298 -0.4317
 6324TIP3    H218979   5.198   3.657   2.161 -0.3320 -0.3895 -0.1716
 6325TIP3   OH218980   1.949   3.838   2.429 -0.1781 -0.6154 -0.5445
 6325TIP3    H118981   1.942   3.908   2.365  0.6905 -0.7988 -0.8567
 6325TIP3    H218982   2.039   3.805   2.419  0.6181  0.5111  1.9437
 6326TIP3   OH218983   1.707   0.890   2.543 -0.2326 -0.2686  0.0729
 6326TIP3    H118984   1.742   0.923   2.625 -0.4489 -0.0494  0.0777
 6326TIP3    H218985   1.784   0.857   2.496  0.2957  1.9073 -0.7187
 6327TIP3   OH218986   2.403   4.177   0.232 -0.0682 -0.1687  0.0602
 6327TIP3    H118987   2.461   4.245   0.199  1.4096 -1.3158  0.1935
 6327TIP3    H218988   2.444   4.147   0.313 -0.1923 -1.8248 -0.4523
 6328TIP3   OH218989   4.485   4.447   3.677  0.4099  0.2461 -0.0798
 6328TIP3    H118990   4.557   4.410   3.728  1.0741  0.9090 -0.5189
 6328TIP3    H218991   4.413   4.455   3.740  1.1366  0.8192  0.7137
 6329TIP3   OH218992   6.273   1.785   3.934  1.2155  0.1729  0.1526
 6329TIP3    H118993   6.195   1.729   3.933  1.3102  0.0367 -0.6963
 6329TIP3    H218994   6.256   1.850   4.001  1.7861 -1.8295  2.3557
 6330TIP3   OH218995   4.262   5.823   0.070 -0.0161 -0.0069 -0.5900
 6330TIP3    H118996   4.206   5.845   0.144  0.0683  1.3638 -0.8938
 6330TIP3    H218997   4.239   5.733   0.047 -0.5178 -0.2080  0.6627
 6331TIP3   OH218998   5.143   2.785   4.065 -0.2738 -0.2661  0.2235
 6331TIP3    H118999   5.079   2.803   4.134  0.0920  0.2211  0.4501
 6331TIP3    H219000   5.106   2.824   3.986  0.9533  2.5666  0.9006
 6332TIP3   OH219001   3.623   1.742   4.391 -0.6409 -0.1921  0.0487
 6332TIP3    H119002   3.631   1.756   4.485  0.0800 -1.7687  0.2535
 6332TIP3    H219003   3.611   1.830   4.354  0.1202  0.5568  1.5038
 6333TIP3   OH219004   3.464   1.930   5.088 -0.2885 -0.4891  0.4931
 6333TIP3    H119005   3.468   1.837   5.108 -0.0220 -0.4287  0.7209
 6333TIP3    H219006   3.489   1.974   5.169 -2.3081 -0.1574  0.9793
 6334TIP3   OH219007   5.528   0.021   0.495  0.4394  0.1750 -0.3783
 6334TIP3    H119008   5.557  -0.048   0.435  0.4615 -0.6113  0.5077
 6334TIP3    H219009   5.605   0.037   0.550  0.6568  1.4096 -1.0046
 6335TIP3   OH219010   4.203   5.531   0.041  0.7835 -0.0265 -0.6421
 6335TIP3    H119011   4.235   5.451   0.082  1.6892 -0.1708 -1.6003
 6335TIP3    H219012   4.116   5.508   0.008 -0.5948  0.4580  2.2477
 6336TIP3   OH219013   1.484   5.447   2.635  0.3074 -0.3005  0.8255
 6336TIP3    H119014   1.551   5.492   2.584 -1.1524 -0.2203 -1.0912
 6336TIP3    H219015   1.534   5.394   2.697  2.1079  0.9824  0.5568
 6337TIP3   OH219016   2.920   3.147   0.802 -0.5749  0.3413  0.2336
 6337TIP3    H119017   2.960   3.200   0.872  0.3581 -0.2084  0.1352
 6337TIP3    H219018   2.873   3.211   0.749  3.8003  1.9390 -2.2808
 6338TIP3   OH219019   2.387   0.575   2.423 -0.2652 -0.3840  0.3090
 6338TIP3    H119020   2.442   0.599   2.349 -0.4813 -2.1605 -0.4814
 6338TIP3    H219021   2.315   0.638   2.421  1.7960  2.2217  1.5826
 6339TIP3   OH219022   0.297   2.945   4.184  0.3872 -0.4442 -0.5311
 6339TIP3    H119023   0.285   2.980   4.095  1.3917 -0.4171 -0.6598
 6339TIP3    H219024   0.262   3.014   4.241 -0.8583 -0.7315 -0.9139
 6340TIP3   OH219025   0.310   5.633   0.130  0.5663  0.3901 -0.4746
 6340TIP3    H119026   0.290   5.580   0.207 -0.3919  1.4793  0.0673
 6340TIP3    H219027   0.343   5.571   0.065 -1.6862 -1.0887 -0.3032
 6341TIP3   OH219028   5.249   1.483   2.396  0.2975 -0.1837 -0.2573
 6341TIP3    H119029   5.280   1.526   2.476  2.1930  0.8606 -1.4630
 6341TIP3    H219030   5.302   1.404   2.388 -1.2692 -1.3717  0.4984
 6342TIP3   OH219031   3.922   3.040   0.356 -0.0062 -0.1883 -0.1838
 6342TIP3    H119032   3.860   3.112   0.340 -0.1578 -0.4205 -0.6582
 6342TIP3    H219033   4.001   3.084   0.387 -0.5632  0.0785  0.9240
 6343TIP3   OH219034   0.459   5.030   4.388 -0.0658  0.0549 -0.7037
 6343TIP3    H119035   0.412   5.072   4.316  1.2148  1.3586 -0.8103
 6343TIP3    H219036   0.478   4.942   4.356 -1.0246  0.0331 -1.2584
 6344TIP3   OH219037   2.891   1.497   3.494 -0.4077 -0.4139 -0.2891
 6344TIP3    H119038   2.838   1.417   3.496 -0.1375 -0.5891 -0.0610
 6344TIP3    H219039   2.827   1.567   3.483 -1.0293 -0.3304  2.9028
 6345TIP3   OH219040   0.245   0.693   2.202 -0.4675 -0.2653  0.0409
 6345TIP3    H119041   0.287   0.615   2.238  0.0065  0.4138  0.9942
 6345TIP3    H219042   0.222   0.746   2.278 -2.0527 -0.0991 -0.5129
 6346TIP3   OH219043   1.832   5.177   4.636 -0.0250 -0.2683  0.4481
 6346TIP3    H119044   1.834   5.255   4.692  1.2996 -2.1380  3.2071
 6346TIP3    H219045   1.771   5.118   4.679  0.6106 -1.5697 -0.3846
 6347TIP3   OH219046   5.755   4.057   1.196  0.3460  0.5439 -0.2840
 6347TIP3    H119047   5.747   4.026   1.106 -2.5688  1.1078 -0.3124
 6347TIP3    H219048   5.706   3.993   1.248  0.4852  1.1766  0.6580
 6348TIP3   OH219049   4.058   2.699   5.060  0.1974 -0.2712 -0.0395
 6348TIP3    H119050   3.984   2.733   5.010  1.0341  2.3185  0.3428
 6348TIP3    H219051   4.022   2.625   5.109 -1.6353 -0.2749 -1.3081
 6349TIP3   OH219052   4.051   4.022   3.991  0.4977 -0.3860 -0.1069
 6349TIP3    H119053   4.112   4.034   3.918 -2.0415 -2.8098 -2.8540
 6349TIP3    H219054   4.088   3.948   4.040  1.0226 -0.2411 -0.2703
 6350TIP3   OH219055   4.824   2.471   3.009  0.2037 -0.4236  0.0879
 6350TIP3    H119056   4.729   2.460   3.001  0.0228  1.0004 -0.0874
 6350TIP3    H219057   4.861   2.416   2.940 -0.5299 -0.4266 -0.3124
 6351TIP3   OH219058   4.182   0.457   1.265  0.3221  0.1174  0.1517
 6351TIP3    H119059   4.267   0.490   1.236  0.5093  0.7623  1.3638
 6351TIP3    H219060   4.201   0.409   1.346 -0.1521 -1.7816 -0.7966
 6352TIP3   OH219061   4.486   1.248   0.308  0.0763 -0.6096  1.1649
 6352TIP3    H119062   4.547   1.245   0.235 -0.4666  0.0393  0.6684
 6352TIP3    H219063   4.515   1.178   0.366  1.7944  0.2020  1.3590
 6353TIP3   OH219064   1.259   0.353   4.644  0.6232  0.2658  0.2412
 6353TIP3    H119065   1.270   0.349   4.549  0.2649  0.9215  0.1620
 6353TIP3    H219066   1.171   0.388   4.656  0.3627 -0.5564  0.8258
 6354TIP3   OH219067   2.412   2.800   4.393  0.0826 -0.1566 -0.7430
 6354TIP3    H119068   2.316   2.791   4.389  0.1092 -0.8273 -0.1638
 6354TIP3    H219069   2.444   2.735   4.330  0.1488  0.6220 -1.5273
 6355TIP3   OH219070   2.465   3.943   0.117 -0.4733  0.4299 -0.8795
 6355TIP3    H119071   2.447   4.028   0.156 -0.6637  0.5023 -1.1229
 6355TIP3    H219072   2.411   3.940   0.038  0.9938  0.8972 -1.9446
 6356TIP3   OH219073   2.592   3.975   0.976 -0.3975 -0.1963  0.2886
 6356TIP3    H119074   2.606   3.927   1.057 -1.4543 -0.8421  0.1106
 6356TIP3    H219075   2.550   3.911   0.917  0.1516  0.3195 -0.6903
 6357TIP3   OH219076   4.497   4.273   1.735 -0.2915  0.3587  0.3276
 6357TIP3    H119077   4.462   4.185   1.751  1.3625 -0.2740  0.6550
 6357TIP3    H219078   4.505   4.279   1.640 -0.2659  0.0857  0.3102
 6358TIP3   OH219079   0.975   1.806   0.884 -0.3377  0.4395  0.3196
 6358TIP3    H119080   1.005   1.774   0.969 -0.2891  0.7859  0.4339
 6358TIP3    H219081   0.979   1.729   0.827 -1.6820 -0.1273  0.9596
 6359TIP3   OH219082   1.217   1.050   1.017  0.0931  0.4432 -0.3870
 6359TIP3    H119083   1.301   1.074   1.056 -0.6128  1.6772  0.4252
 6359TIP3    H219084   1.177   0.991   1.082  0.3386 -0.1963 -0.8028
 6360TIP3   OH219085   4.459   2.378   4.891  0.1411  0.0772 -0.1368
 6360TIP3    H119086   4.422   2.292   4.910  0.7937  0.1409  1.6742
 6360TIP3    H219087   4.384   2.437   4.888 -0.5073 -0.7202 -3.0265
 6361TIP3   OH219088   5.356   1.912   4.275 -0.2542 -0.1808  0.0680
 6361TIP3    H119089   5.323   1.830   4.239 -0.9297  1.2960 -3.0301
 6361TIP3    H219090   5.447   1.893   4.299 -0.2491 -1.7139 -1.0191
 6362TIP3   OH219091   0.930   0.164   3.310 -0.5960  0.3792  0.3831
 6362TIP3    H119092   1.011   0.202   3.341  0.3535 -0.8691 -0.4381
 6362TIP3    H219093   0.877   0.238   3.281  0.5386  1.1614  0.2789
 6363TIP3   OH219094   4.921   0.041   1.275 -0.0803  0.5150  0.5045
 6363TIP3    H119095   4.890   0.132   1.274 -0.6571  0.3895 -2.4557
 6363TIP3    H219096   4.843  -0.011   1.290 -0.5102  0.4087 -1.8019
 6364TIP3   OH219097   1.540   4.272   4.865 -0.6505  0.1707  0.3131
 6364TIP3    H119098   1.596   4.196   4.851  1.0718  1.3160  0.6991
 6364TIP3    H219099   1.537   4.316   4.780 -1.0490  0.0587  0.2686
 6365TIP3   OH219100   4.692   5.302   0.607 -0.2380  0.4772  0.3038
 6365TIP3    H119101   4.746   5.371   0.568  0.4587 -0.9084 -1.3632
 6365TIP3    H219102   4.755   5.235   0.634 -1.0139 -0.5787 -0.4129
 6366TIP3   OH219103   0.504   4.386   3.126  0.1460  0.0363 -0.2430
 6366TIP3    H119104   0.470   4.344   3.047 -0.6650  0.5133 -0.1596
 6366TIP3    H219105   0.428   4.430   3.165  0.4232 -0.5859  1.0672
 6367TIP3   OH219106   4.018   5.170   1.534  0.1904 -0.1387 -0.1086
 6367TIP3    H119107   3.946   5.114   1.563 -0.8168  0.6873 -0.9353
 6367TIP3    H219108   3.978   5.230   1.471  1.2378  1.4946  0.7084
 6368TIP3   OH219109   4.287   1.086   3.417 -0.0799  0.7498  0.2872
 6368TIP3    H119110   4.266   1.172   3.380 -0.6802  0.8212  0.7759
 6368TIP3    H219111   4.360   1.054   3.364 -0.7843  0.9348 -0.8252
 6369TIP3   OH219112   0.610   1.940   1.361 -0.4902  0.3506  0.7946
 6369TIP3    H119113   0.610   1.853   1.320 -0.2144  0.1170  1.2887
 6369TIP3    H219114   0.690   1.941   1.413  1.9453  2.4820 -2.5677
 6370TIP3   OH219115   5.283   5.714   4.001 -0.5329 -0.2213 -0.0757
 6370TIP3    H119116   5.236   5.670   3.931  0.3916  0.7931 -1.3748
 6370TIP3    H219117   5.352   5.653   4.026  1.1447  0.6230 -2.3014
 6371TIP3   OH219118   0.750   5.217   3.441  0.2784 -0.0241 -0.0116
 6371TIP3    H119119   0.797   5.279   3.386  0.7256  0.1404  0.5585
 6371TIP3    H219120   0.701   5.271   3.502  0.6086 -0.2312  0.4355
 6372TIP3   OH219121   2.494   3.913   0.716 -0.1356 -0.1473  0.1272
 6372TIP3    H119122   2.467   3.883   0.630 -1.6854  0.6323  0.3166
 6372TIP3    H219123   2.584   3.943   0.704  0.1175 -1.2621 -0.9031
 6373TIP3   OH219124   5.966   4.540   1.926 -0.0832 -0.0497  0.4302
 6373TIP3    H119125   6.002   4.572   2.008 -1.9057  0.1001  1.2147
 6373TIP3    H219126   5.918   4.615   1.890  0.6273 -0.1358 -0.7479
 6374TIP3   OH219127   3.330   1.778   3.472  0.0381 -0.4994  0.6072
 6374TIP3    H119128   3.321   1.864   3.512 -0.5514 -0.3691  0.2028
 6374TIP3    H219129   3.419   1.750   3.495 -0.1154 -0.2182  1.5808
 6375TIP3   OH219130   4.777   2.949   4.323 -0.3287 -1.2546 -0.3107
 6375TIP3    H119131   4.844   2.881   4.326 -1.3977 -2.4069 -1.0671
 6375TIP3    H219132   4.694   2.900   4.326 -1.1368  0.1097  0.5489
 6376TIP3   OH219133   4.616   5.581   3.304  0.0379  0.7581  0.1691
 6376TIP3    H119134   4.648   5.622   3.385  0.7354  0.7116 -0.0785
 6376TIP3    H219135   4.547   5.639   3.273 -0.8743  0.3128  1.2767
 6377TIP3   OH219136   4.088   5.337   4.278  0.5296  0.4707  0.1448
 6377TIP3    H119137   4.025   5.381   4.334 -0.6004 -0.6257 -0.1944
 6377TIP3    H219138   4.042   5.327   4.194  0.9239 -0.8259  0.0537
 6378TIP3   OH219139   4.680   4.469   3.394 -0.0084  0.0287  0.0014
 6378TIP3    H119140   4.761   4.447   3.349 -1.0524 -1.5234 -1.2344
 6378TIP3    H219141   4.687   4.426   3.479  0.0928 -0.9236 -0.4703
 6379TIP3   OH219142   0.799   2.618   4.455  0.0555 -0.2786 -0.2897
 6379TIP3    H119143   0.840   2.646   4.537 -0.3715  1.8774 -0.7587
 6379TIP3    H219144   0.867   2.568   4.410  0.3286 -1.4008  1.2915
 6380TIP3   OH219145   5.446   2.183   3.147 -0.5406 -0.1119 -0.5441
 6380TIP3    H119146   5.414   2.243   3.215 -1.5798  0.0290 -1.1363
 6380TIP3    H219147   5.508   2.235   3.096  0.2120 -0.2062  0.2587
 6381TIP3   OH219148   3.160   0.998   2.369 -0.3811  1.0857  0.9969
 6381TIP3    H119149   3.117   0.916   2.346 -0.0240  0.8842  1.0458
 6381TIP3    H219150   3.142   1.055   2.294 -0.0365  0.7384  0.6442
 6382TIP3   OH219151   4.136   0.366   2.719 -0.6251  0.0788  0.1336
 6382TIP3    H119152   4.161   0.276   2.741  1.6917  0.2465 -1.4189
 6382TIP3    H219153   4.205   0.420   2.759 -0.4286  0.9070 -1.2562
 6383TIP3   OH219154   2.529   4.180   1.755  0.6802  0.1322 -0.3226
 6383TIP3    H119155   2.473   4.186   1.677  0.8390 -2.0127 -0.6759
 6383TIP3    H219156   2.560   4.269   1.769 -1.4669  1.0919 -1.1164
 6384TIP3   OH219157   1.969   5.948   3.958 -0.0969  0.0920 -0.1637
 6384TIP3    H119158   1.947   5.862   3.994  0.1585 -0.0899 -0.4406
 6384TIP3    H219159   1.885   5.983   3.928 -0.2319  0.0272  0.1394
 6385TIP3   OH219160   2.435   5.450   1.892 -0.2509 -0.1898 -0.0423
 6385TIP3    H119161   2.459   5.357   1.886 -0.1598 -0.1992  0.4496
 6385TIP3    H219162   2.509   5.491   1.937 -0.4516  0.0581  0.0619
 6386TIP3   OH219163   1.818   4.240   0.848  0.1046 -0.0727 -1.0534
 6386TIP3    H119164   1.816   4.320   0.796 -0.9127  0.3992 -0.3296
 6386TIP3    H219165   1.859   4.175   0.791  0.8240  0.9167 -1.7081
 6387TIP3   OH219166   1.629   4.687   2.154 -0.5644  0.1992  0.6496
 6387TIP3    H119167   1.616   4.780   2.134  1.2134  0.1868 -0.8108
 6387TIP3    H219168   1.724   4.676   2.154 -0.7484 -1.6556  0.6884
 6388TIP3   OH219169   5.555   2.854   1.966  0.6145  0.2256 -0.1721
 6388TIP3    H119170   5.501   2.777   1.950  0.0017  0.6422 -0.1599
 6388TIP3    H219171   5.533   2.879   2.056 -0.0637  1.0805 -0.5581
 6389TIP3   OH219172   5.029   2.133   4.890 -0.1944 -0.0635 -0.2965
 6389TIP3    H119173   5.003   2.193   4.959 -0.7354  0.7248 -1.1583
 6389TIP3    H219174   5.029   2.047   4.932  2.4870  0.6681  1.4851
 6390TIP3   OH219175   2.659   5.082   3.750  0.5334 -0.1261 -0.3127
 6390TIP3    H119176   2.570   5.059   3.725  0.6001 -0.3051 -0.3935
 6390TIP3    H219177   2.668   5.175   3.729  0.7408 -0.3849 -1.4177
 6391TIP3   OH219178   2.635   1.310   0.947 -0.0517 -0.6056  0.4700
 6391TIP3    H119179   2.658   1.274   0.862 -0.7355 -1.7770  0.7516
 6391TIP3    H219180   2.562   1.370   0.929 -1.2118 -1.9985  0.3860
 6392TIP3   OH219181   0.720   2.222   2.195 -0.3601 -0.1801 -0.2752
 6392TIP3    H119182   0.713   2.304   2.146  0.5360 -0.1475 -0.3720
 6392TIP3    H219183   0.672   2.238   2.276 -3.6128 -0.9011 -1.9069
 6393TIP3   OH219184   0.443   5.189   4.611  0.1394 -0.3992  0.0677
 6393TIP3    H119185   0.479   5.138   4.539 -0.3341 -1.1253  0.3394
 6393TIP3    H219186   0.368   5.235   4.573 -0.3326 -1.0656  0.1741
 6394TIP3   OH219187   4.064   3.424   4.695  0.5795  0.2179  0.2962
 6394TIP3    H119188   4.069   3.483   4.620  0.5677 -0.3483 -0.1565
 6394TIP3    H219189   4.117   3.467   4.762  2.1898 -0.1761 -0.6689
 6395TIP3   OH219190   2.673   0.535   3.090 -0.2360 -0.0278  0.2933
 6395TIP3    H119191   2.713   0.448   3.095 -2.9670 -1.5584 -1.5059
 6395TIP3    H219192   2.650   0.556   3.181 -1.1718 -2.1239  0.6051
 6396TIP3   OH219193   2.755   1.044   1.577  0.2759 -0.1093  0.2756
 6396TIP3    H119194   2.721   0.955   1.584  1.9125 -1.0944 -2.5945
 6396TIP3    H219195   2.848   1.033   1.555  0.4518  2.2914 -0.5547
 6397TIP3   OH219196   1.291   5.850   3.383  0.5308  0.3542 -0.5367
 6397TIP3    H119197   1.365   5.843   3.322 -0.3711  2.1025 -1.9131
 6397TIP3    H219198   1.261   5.940   3.375 -0.4495  0.2881  1.5878
 6398TIP3   OH219199   0.596   3.665   0.690 -0.2258  0.0848  0.4652
 6398TIP3    H119200   0.649   3.676   0.610 -0.3616 -1.1819  0.1904
 6398TIP3    H219201   0.507   3.686   0.662 -0.1554  0.4293  0.4886
 6399TIP3   OH219202   0.135   4.925   3.510 -0.1069  0.3618  0.2007
 6399TIP3    H119203   0.049   4.915   3.470  0.6474 -1.0296 -1.1449
 6399TIP3    H219204   0.193   4.950   3.438  0.7284  0.7276  0.9770
 6400TIP3   OH219205   5.211   5.081   4.894  0.3071  0.0769 -0.2814
 6400TIP3    H119206   5.176   5.169   4.882 -0.0194  0.1211  0.9056
 6400TIP3    H219207   5.134   5.025   4.900  0.5001 -0.5896 -2.7798
 6401TIP3   OH219208   0.334   1.411   4.090 -0.4607  0.0697 -0.1087
 6401TIP3    H119209   0.328   1.387   4.182  0.9782  1.2181  0.3146
 6401TIP3    H219210   0.422   1.383   4.063 -0.6395  0.3012 -0.9677
 6402TIP3   OH219211   0.594   4.351   4.872 -0.5836  0.0104  0.3428
 6402TIP3    H119212   0.653   4.399   4.813 -2.0964  1.4261 -0.0897
 6402TIP3    H219213   0.653   4.304   4.931  0.9863 -0.5235 -1.5302
 6403TIP3   OH219214   5.069   5.698   4.198  0.5659  0.5925 -0.0449
 6403TIP3    H119215   5.061   5.606   4.173 -0.0677  0.2765  1.2684
 6403TIP3    H219216   5.147   5.728   4.151  0.9342 -0.6795 -0.2936
 6404TIP3   OH219217   6.198   5.745   3.252 -0.0407  0.2989 -0.3989
 6404TIP3    H119218   6.141   5.812   3.289 -0.6919  1.1154 -2.7058
 6404TIP3    H219219   6.241   5.789   3.178  1.9703 -0.9321 -0.0426
 6405TIP3   OH219220   5.641   5.569   0.235 -0.3548 -0.6174 -0.4140
 6405TIP3    H119221   5.714   5.532   0.283  0.1115 -0.3216 -0.8803
 6405TIP3    H219222   5.563   5.546   0.286  0.0609 -0.9674  0.0604
 6406TIP3   OH219223   1.838   0.884  -0.009 -0.5664 -0.0101  0.1587
 6406TIP3    H119224   1.799   0.796  -0.010 -0.3645 -0.1288  1.3701
 6406TIP3    H219225   1.825   0.915   0.081  1.3446  0.2985  0.3645
 6407TIP3   OH219226   0.490   1.646   2.060  0.2148 -0.0168  0.2170
 6407TIP3    H119227   0.463   1.668   1.971  0.9514 -1.6205 -0.4384
 6407TIP3    H219228   0.429   1.695   2.116 -0.7890  0.3733 -1.1605
 6408TIP3   OH219229   4.169   1.738   1.641  0.4939  0.2364  0.3780
 6408TIP3    H119230   4.213   1.811   1.597  0.5321  0.2329  0.4111
 6408TIP3    H219231   4.231   1.708   1.707  0.1473  0.7122  0.9293
 6409TIP3   OH219232   6.042   1.588   2.644 -0.3872  0.0330 -0.4152
 6409TIP3    H119233   6.087   1.512   2.608 -0.7132  0.2392 -1.2883
 6409TIP3    H219234   6.111   1.641   2.683 -0.1804 -0.8025  0.3797
 6410TIP3   OH219235   0.705   1.696   1.132  0.2803 -0.2137 -0.6666
 6410TIP3    H119236   0.615   1.674   1.156  0.2244 -0.5216 -1.1383
 6410TIP3    H219237   0.758   1.635   1.183  0.1835 -0.5257 -0.9288
 6411TIP3   OH219238   4.926   2.742   0.984  0.0320  0.0047 -0.2200
 6411TIP3    H119239   5.021   2.748   0.989 -0.0539  1.9061 -0.3665
 6411TIP3    H219240   4.897   2.726   1.074  0.4843 -1.1259 -0.2525
 6412TIP3   OH219241   1.406   0.870   2.404  0.2090 -0.4466 -0.4838
 6412TIP3    H119242   1.368   0.850   2.318  1.0541 -2.0288 -0.5284
 6412TIP3    H219243   1.498   0.848   2.395  0.3006 -0.6580  0.8495
 6413TIP3   OH219244   5.466   0.222   1.858 -0.1913  0.0889  0.2078
 6413TIP3    H119245   5.519   0.257   1.930  0.3669  0.3674 -0.3317
 6413TIP3    H219246   5.527   0.213   1.785 -0.9855  0.8770 -0.5742
 6414TIP3   OH219247   4.277   4.439   1.344 -0.1088 -0.2620  0.1749
 6414TIP3    H119248   4.254   4.489   1.266  1.7752 -0.5951 -0.6525
 6414TIP3    H219249   4.255   4.348   1.322 -1.3750 -0.1259  0.7983
 6415TIP3   OH219250   2.163   2.933   0.231  0.2021 -0.2399 -0.2410
 6415TIP3    H119251   2.221   3.007   0.209 -0.1803  0.1519  0.0657
 6415TIP3    H219252   2.077   2.959   0.197  0.4014 -1.2835 -1.6644
 6416TIP3   OH219253   0.671   2.173   0.131 -0.5586  0.0139 -0.3724
 6416TIP3    H119254   0.722   2.093   0.118 -0.2238  0.1037  0.2988
 6416TIP3    H219255   0.673   2.217   0.047  0.0074 -0.2610 -0.5108
 6417TIP3   OH219256   0.368   1.302   5.066 -0.3824  0.0685  0.5093
 6417TIP3    H119257   0.453   1.295   5.022 -1.0607  0.2959 -0.8745
 6417TIP3    H219258   0.390   1.332   5.154  0.9721  0.1313  0.1793
 6418TIP3   OH219259   5.350   4.009   1.657  0.2181 -0.2440  0.4068
 6418TIP3    H119260   5.429   3.956   1.646  0.6998  0.5938 -0.2948
 6418TIP3    H219261   5.327   4.036   1.568 -1.3273 -1.1188  0.5066
 6419TIP3   OH219262   2.330   5.894   2.260  0.0524 -0.3480 -0.4244
 6419TIP3    H119263   2.378   5.876   2.180 -0.7222 -0.8802 -0.7855
 6419TIP3    H219264   2.247   5.846   2.250 -1.5747  2.3341 -0.8458
 6420TIP3   OH219265   3.202   1.011   0.428 -0.2380  0.2315  0.1011
 6420TIP3    H119266   3.130   0.970   0.476 -0.1586 -0.9477 -0.7578
 6420TIP3    H219267   3.178   1.104   0.424 -1.5899 -0.0962  0.0514
 6421TIP3   OH219268   3.413   2.634   1.263  0.8821  0.5871  0.3990
 6421TIP3    H119269   3.387   2.661   1.351  1.6648  2.4137  0.1077
 6421TIP3    H219270   3.478   2.565   1.278 -0.9768 -1.0728  1.1689
 6422TIP3   OH219271   2.963   0.563   3.122  0.0296 -0.0020 -0.0182
 6422TIP3    H119272   2.871   0.573   3.096 -0.7088  0.2401  2.4693
 6422TIP3    H219273   2.961   0.566   3.217  2.4199 -1.9483  0.1629
 6423TIP3   OH219274   4.665   3.194   2.764  0.0175 -0.4026  0.1041
 6423TIP3    H119275   4.642   3.286   2.759 -0.8017 -0.5539  0.9337
 6423TIP3    H219276   4.624   3.155   2.686  0.4258 -0.0609 -0.2848
 6424TIP3   OH219277   3.806   0.403   2.332  0.5784  0.0031  1.0833
 6424TIP3    H119278   3.788   0.493   2.306  0.2250 -0.0652  1.0916
 6424TIP3    H219279   3.885   0.409   2.386  1.0180  0.2068  0.4281
 6425TIP3   OH219280   4.803   0.407   4.740 -0.1346 -0.0682  0.5263
 6425TIP3    H119281   4.858   0.455   4.802  1.4861 -1.8931  0.6050
 6425TIP3    H219282   4.834   0.436   4.654  1.8668 -1.8807  0.5401
 6426TIP3   OH219283   2.476   0.609   1.752 -0.1054  0.1535  0.0860
 6426TIP3    H119284   2.451   0.581   1.664  0.3408  1.3380 -0.4413
 6426TIP3    H219285   2.566   0.640   1.742 -1.0268  3.1607  0.2610
 6427TIP3   OH219286   4.004   3.293   3.268  0.2056 -0.2678  0.2556
 6427TIP3    H119287   3.952   3.300   3.188  1.1491 -1.6861 -0.5094
 6427TIP3    H219288   4.080   3.240   3.244  1.2888  0.5286  1.7130
 6428TIP3   OH219289   3.230   2.272   4.825  0.2333  0.1526 -0.4887
 6428TIP3    H119290   3.209   2.357   4.863  2.6909  1.3299 -1.4928
 6428TIP3    H219291   3.202   2.208   4.890 -1.0437  1.7595  0.5970
 6429TIP3   OH219292   1.458   2.594   2.261  0.1987  0.1186 -0.0564
 6429TIP3    H119293   1.445   2.632   2.174 -0.7900  1.1429  0.5218
 6429TIP3    H219294   1.515   2.518   2.245 -1.8190 -1.1278 -1.9455
 6430TIP3   OH219295   0.314   1.373   0.591  0.4794  0.1519 -0.2810
 6430TIP3    H119296   0.381   1.353   0.526  0.8040  1.6147 -0.4407
 6430TIP3    H219297   0.362   1.378   0.674  0.5783  1.1709 -0.3908
 6431TIP3   OH219298   2.752   1.126   4.712 -0.1461 -0.1669  0.0664
 6431TIP3    H119299   2.714   1.153   4.796 -0.1962  1.2019 -0.3748
 6431TIP3    H219300   2.846   1.125   4.727 -0.2181 -1.2274  0.4993
 6432TIP3   OH219301   5.094   1.999   0.830  0.2509 -0.2585  0.0551
 6432TIP3    H119302   5.104   2.025   0.921  0.7219  1.5532 -0.4800
 6432TIP3    H219303   5.026   2.057   0.795  2.2080  1.2828 -1.4982
 6433TIP3   OH219304   4.940   4.093   1.298  0.1538 -0.2124  0.6902
 6433TIP3    H119305   4.989   4.023   1.255 -0.1396 -0.9737  1.5735
 6433TIP3    H219306   4.938   4.164   1.234 -0.0682 -1.2350 -0.4569
 6434TIP3   OH219307   3.005   5.014   1.134  0.0064 -0.0675 -0.3617
 6434TIP3    H119308   3.012   5.097   1.088 -1.8933  0.1218 -0.3692
 6434TIP3    H219309   2.985   4.950   1.065  2.6853 -0.8124 -0.5474
 6435TIP3   OH219310   2.964   1.628   1.717 -0.3188  0.4033 -0.3113
 6435TIP3    H119311   2.873   1.613   1.742  0.0149  0.0892  0.7973
 6435TIP3    H219312   3.009   1.642   1.801  0.2028  3.1680 -0.9657
 6436TIP3   OH219313   5.056   2.767   4.490 -0.2702 -0.1191  0.2527
 6436TIP3    H119314   5.082   2.684   4.529 -0.3577 -0.4138 -0.3062
 6436TIP3    H219315   4.960   2.767   4.497 -0.2998 -0.2561 -0.1159
 6437TIP3   OH219316   1.682   2.450   2.018  0.2374 -0.0689 -0.0448
 6437TIP3    H119317   1.726   2.411   1.943  0.5913 -2.1511  1.1787
 6437TIP3    H219318   1.598   2.404   2.023  0.2958 -0.0820  0.9329
 6438TIP3   OH219319   2.998   5.209   3.290 -0.8989 -0.4387 -0.3078
 6438TIP3    H119320   3.005   5.178   3.200 -1.6272  0.1953 -0.5927
 6438TIP3    H219321   2.909   5.184   3.318 -0.2122 -1.8811  0.7309
 6439TIP3   OH219322   4.199   1.386   3.332  0.5837  0.1547 -0.5281
 6439TIP3    H119323   4.259   1.456   3.305  0.7506  0.0510 -0.4297
 6439TIP3    H219324   4.151   1.422   3.406 -1.0220  1.0428 -1.9145
 6440TIP3   OH219325   1.302   3.213   1.148 -0.0223 -0.0091 -0.0394
 6440TIP3    H119326   1.312   3.198   1.054 -0.7849 -0.5996 -0.0396
 6440TIP3    H219327   1.391   3.202   1.184  0.0357 -1.2395 -0.5058
 6441TIP3   OH219328   1.206   5.016   0.402  0.5397  0.4355 -0.3963
 6441TIP3    H119329   1.231   5.089   0.345 -0.8228 -0.2427 -1.9822
 6441TIP3    H219330   1.241   4.938   0.358 -1.1246 -0.1692 -0.7358
 6442TIP3   OH219331   4.182   1.916   4.130  0.3821  0.2769 -0.2760
 6442TIP3    H119332   4.089   1.913   4.149 -0.0057 -0.6495 -2.0383
 6442TIP3    H219333   4.193   1.992   4.072  0.9958  1.2331  1.0389
 6443TIP3   OH219334   0.634   1.125   0.531  0.1523  0.0929 -0.0428
 6443TIP3    H119335   0.570   1.069   0.488 -0.0700 -0.5389  1.0519
 6443TIP3    H219336   0.617   1.213   0.497 -1.1179 -0.1111  0.0094
 6444TIP3   OH219337   1.272   0.329   0.095  0.1347  0.2645 -0.2749
 6444TIP3    H119338   1.240   0.265   0.030  4.0990 -2.2947 -0.0393
 6444TIP3    H219339   1.330   0.387   0.045  1.7801 -0.5792  0.5898
 6445TIP3   OH219340   3.656   3.862   1.891  0.1422  0.2150  0.3114
 6445TIP3    H119341   3.583   3.922   1.905 -1.8531 -1.6797 -1.2828
 6445TIP3    H219342   3.644   3.794   1.957  0.0635 -0.4420 -0.3699
 6446TIP3   OH219343   0.945   4.517   3.441  0.1125 -0.2181  0.6402
 6446TIP3    H119344   0.906   4.453   3.380 -0.5125 -0.2113  1.0207
 6446TIP3    H219345   0.948   4.471   3.524  2.9198 -0.9801  0.2070
 6447TIP3   OH219346   1.615   5.280   2.814  0.2994 -0.4671 -0.7574
 6447TIP3    H119347   1.591   5.331   2.892 -1.2298  2.3855 -2.8698
 6447TIP3    H219348   1.708   5.260   2.826  0.7296  1.9719  0.7709
 6448TIP3   OH219349   3.203   2.068   5.010 -0.1061 -0.3445 -0.1945
 6448TIP3    H119350   3.288   2.029   5.031 -0.1961  0.8842  2.8901
 6448TIP3    H219351   3.140   2.015   5.059 -1.0894 -0.6499 -1.6995
 6449TIP3   OH219352   4.106   1.404   2.624 -0.0125 -0.4351 -0.0192
 6449TIP3    H119353   4.096   1.409   2.719 -2.1650 -0.1473 -0.2228
 6449TIP3    H219354   4.184   1.457   2.606 -0.4633  0.8122  1.4536
 6450TIP3   OH219355   1.922   5.674   3.693 -0.0564  0.3339 -0.6943
 6450TIP3    H119356   1.851   5.614   3.716  1.1526 -1.7353 -2.1313
 6450TIP3    H219357   1.888   5.724   3.619 -1.1550  1.6796  0.6562
 6451TIP3   OH219358   3.286   4.750   0.054  0.6037 -0.1038 -0.3269
 6451TIP3    H119359   3.296   4.845   0.060  1.7215 -0.1742 -0.8805
 6451TIP3    H219360   3.317   4.717   0.138  2.1048 -0.0988 -0.8591
 6452TIP3   OH219361   4.365   3.360   1.137  0.6381 -0.6711  0.3837
 6452TIP3    H119362   4.316   3.424   1.190  0.2478 -1.4069  0.9218
 6452TIP3    H219363   4.442   3.409   1.107 -1.0730  0.9849 -1.7023
 6453TIP3   OH219364   5.312   2.853   4.331  0.0451 -0.2490 -0.6976
 6453TIP3    H119365   5.320   2.770   4.377 -1.4996 -0.6904 -1.1527
 6453TIP3    H219366   5.228   2.889   4.361 -0.1055  0.3377 -1.7550
 6454TIP3   OH219367   2.383   1.443   4.977  1.0592 -0.0195 -0.0108
 6454TIP3    H119368   2.339   1.363   5.005  1.2575 -0.6464 -1.4071
 6454TIP3    H219369   2.438   1.416   4.904  1.5030  1.3125 -0.1997
 6455TIP3   OH219370   4.802   4.178   0.680 -0.1523 -0.0299  0.3241
 6455TIP3    H119371   4.882   4.215   0.643  0.0431 -0.0502  0.7234
 6455TIP3    H219372   4.765   4.125   0.610  0.8019 -0.9770  0.5197
 6456TIP3   OH219373   4.325   4.850   2.088 -0.4191  0.4841 -0.2156
 6456TIP3    H119374   4.377   4.770   2.085 -0.5486  0.3192  1.3772
 6456TIP3    H219375   4.288   4.858   2.000  0.6945 -0.4623 -0.7861
 6457TIP3   OH219376   3.602   4.451   0.670 -0.4153 -0.1877 -0.5450
 6457TIP3    H119377   3.601   4.357   0.654  0.8455 -0.5546  1.1878
 6457TIP3    H219378   3.519   4.470   0.713 -0.1978 -0.7473  0.1433
 6458TIP3   OH219379   3.757   1.417   5.117 -0.2795  0.1115  0.2212
 6458TIP3    H119380   3.742   1.323   5.128 -0.6576  0.2868  1.3535
 6458TIP3    H219381   3.674   1.450   5.081  0.2139 -0.1370 -1.1769
 6459TIP3   OH219382   1.926   1.324   3.988  0.3763 -0.1219 -0.2908
 6459TIP3    H119383   1.946   1.319   4.082  0.6014  1.0077 -0.2763
 6459TIP3    H219384   1.834   1.295   3.983  0.6349 -1.0951  0.1490
 6460TIP3   OH219385   6.188   3.815   4.680  0.4239 -0.2292 -0.2799
 6460TIP3    H119386   6.210   3.737   4.731 -0.7737 -0.6800 -0.4103
 6460TIP3    H219387   6.237   3.805   4.599 -1.0812 -1.7879 -1.0539
 6461TIP3   OH219388   6.000   4.973   3.872  0.1538  0.1448 -0.4309
 6461TIP3    H119389   5.979   5.049   3.926  0.1985  0.9546 -1.5046
 6461TIP3    H219390   6.084   4.941   3.905 -0.8705 -0.7650  1.4129
 6462TIP3   OH219391   2.578   3.028   3.747 -0.0330  0.1297 -0.3875
 6462TIP3    H119392   2.627   3.068   3.818  0.4292 -0.4110 -0.3976
 6462TIP3    H219393   2.554   2.942   3.780  0.0084 -0.0482 -0.8117
 6463TIP3   OH219394   5.607   4.342   3.737  0.0645  0.3181  0.4226
 6463TIP3    H119395   5.616   4.429   3.776 -1.9993  1.0536 -0.5601
 6463TIP3    H219396   5.539   4.300   3.790 -1.5638  0.7113 -1.2469
 6464TIP3   OH219397   2.956   2.141   1.052 -0.1527 -0.1808 -0.5924
 6464TIP3    H119398   2.905   2.154   1.132 -0.3061 -0.5864 -0.6239
 6464TIP3    H219399   2.980   2.230   1.024  1.1421 -0.0802  0.6879
 6465TIP3   OH219400   1.909   3.486   5.038  0.1683 -0.0382  0.5543
 6465TIP3    H119401   1.863   3.546   4.979  2.6322  0.6042 -0.8359
 6465TIP3    H219402   1.888   3.519   5.126  1.6506  3.1409 -0.1436
 6466TIP3   OH219403   5.102   5.263   4.256  0.2284 -0.1215  0.2144
 6466TIP3    H119404   5.150   5.184   4.230  0.1636  0.1255 -0.7137
 6466TIP3    H219405   5.010   5.240   4.244  0.2263  0.2853 -0.7163
 6467TIP3   OH219406   3.683   5.343   4.325  0.5835  0.2176  0.2939
 6467TIP3    H119407   3.632   5.405   4.272  0.1137 -0.0780  0.3865
 6467TIP3    H219408   3.653   5.257   4.294  1.7028  0.0246 -0.2953
 6468TIP3   OH219409   2.916   3.175   0.442  0.0052 -0.2927  0.1376
 6468TIP3    H119410   2.869   3.251   0.477 -0.8985 -0.2591 -1.0516
 6468TIP3    H219411   3.007   3.204   0.436 -0.4108  0.9236 -0.8024
 6469TIP3   OH219412   0.931   0.446   2.322 -0.8970  0.4271  0.0479
 6469TIP3    H119413   0.998   0.399   2.273 -0.4553  0.7751  0.3146
 6469TIP3    H219414   0.888   0.378   2.374  0.5495  0.4740  1.3672
 6470TIP3   OH219415   2.873   0.061   4.948 -0.4248 -0.2400  0.4770
 6470TIP3    H119416   2.855  -0.032   4.934 -3.0005  0.4313 -1.4853
 6470TIP3    H219417   2.786   0.103   4.945  0.5730  2.1610  2.1051
 6471TIP3   OH219418   1.815   0.466   2.990  0.0079 -0.4569 -0.0896
 6471TIP3    H119419   1.825   0.519   2.911 -0.8536  0.2384  0.2569
 6471TIP3    H219420   1.905   0.443   3.014  0.2776 -0.9493 -1.4280
 6472TIP3   OH219421   0.435   5.959   2.003  0.4267  0.3098 -0.1932
 6472TIP3    H119422   0.424   5.877   1.956 -1.2107  0.3334  0.0797
 6472TIP3    H219423   0.353   5.970   2.051  0.5994  2.0933 -0.2255
 6473TIP3   OH219424   1.135   0.224   1.822 -0.4337 -0.6360 -0.1753
 6473TIP3    H119425   1.043   0.251   1.818  0.0175  1.2435  0.7930
 6473TIP3    H219426   1.178   0.293   1.873  1.8824 -0.5102 -2.1426
 6474TIP3   OH219427   0.132   4.281   2.887 -0.1586 -0.0473 -0.1921
 6474TIP3    H119428   0.151   4.231   2.808  0.5475 -0.3706  0.1745
 6474TIP3    H219429   0.082   4.221   2.943  1.4780 -0.7174  0.6386
 6475TIP3   OH219430   1.551   4.647   4.157  0.7001  0.0969 -0.0636
 6475TIP3    H119431   1.534   4.733   4.119  0.7728  0.4808  0.7562
 6475TIP3    H219432   1.580   4.594   4.084  2.2377  1.2092 -0.3012
 6476TIP3   OH219433   2.101   0.733   3.300 -0.1534 -0.0311  0.2881
 6476TIP3    H119434   2.027   0.763   3.247  0.1420 -3.5235 -2.4596
 6476TIP3    H219435   2.174   0.728   3.239  0.6303 -2.7834  1.3126
 6477TIP3   OH219436   5.366   2.637   4.496  0.0335  0.3182  0.4671
 6477TIP3    H119437   5.300   2.617   4.563  1.6089 -1.3078  1.6628
 6477TIP3    H219438   5.375   2.555   4.447 -1.1761  1.5270 -1.8749
 6478TIP3   OH219439   4.311   4.158   1.289  0.0154 -0.0771  0.1651
 6478TIP3    H119440   4.265   4.104   1.354 -2.9008 -0.8217 -2.2531
 6478TIP3    H219441   4.372   4.097   1.247  0.8435  0.0345  1.1641
 6479TIP3   OH219442   0.228   5.411   2.052  0.2440  0.5471  0.3946
 6479TIP3    H119443   0.149   5.426   2.104  0.5013 -1.5325  1.5319
 6479TIP3    H219444   0.209   5.331   2.002  0.9555  1.0811 -0.7633
 6480TIP3   OH219445   6.046   5.452   2.446  0.5304 -0.5390  0.3169
 6480TIP3    H119446   6.057   5.367   2.489 -1.7145 -0.3875  1.3197
 6480TIP3    H219447   6.117   5.506   2.480  1.6893 -1.8125  0.0570
 6481TIP3   OH219448   3.804   2.604   4.776 -0.4178 -0.6424  0.1382
 6481TIP3    H119449   3.849   2.524   4.751 -0.0002 -0.7398  1.1439
 6481TIP3    H219450   3.874   2.669   4.786 -0.7222 -0.2314 -0.3884
 6482TIP3   OH219451   4.540   0.109   0.029  0.4323  0.3066 -0.1109
 6482TIP3    H119452   4.547   0.030  -0.025  1.3300  0.5382 -0.3496
 6482TIP3    H219453   4.459   0.098   0.078  0.7668 -0.9682  0.1777
 6483TIP3   OH219454   3.333   5.209   1.265 -0.1227 -0.3287 -0.6511
 6483TIP3    H119455   3.284   5.223   1.346 -1.2690 -0.4972 -1.2996
 6483TIP3    H219456   3.372   5.122   1.275 -1.4934 -0.9902 -0.8838
 6484TIP3   OH219457   4.285   4.459   0.863  0.5238  0.0111 -0.0003
 6484TIP3    H119458   4.319   4.396   0.927  1.5686  2.9768  2.6094
 6484TIP3    H219459   4.203   4.490   0.900  0.9372  1.4857 -0.2508
 6485TIP3   OH219460   5.943   5.738   1.909  0.1445 -0.1019  0.3273
 6485TIP3    H119461   5.856   5.772   1.933  0.1867  0.4576 -0.3069
 6485TIP3    H219462   5.924   5.659   1.858 -0.1430  1.6251 -2.4765
 6486TIP3   OH219463   2.761   4.172   2.109 -0.0274  0.0506  0.2053
 6486TIP3    H119464   2.828   4.160   2.042  2.1264 -0.5142  2.3067
 6486TIP3    H219465   2.713   4.250   2.081  1.6209  0.5913 -1.3474
 6487TIP3   OH219466   1.257   4.432   3.922 -0.6917  0.3761 -0.3090
 6487TIP3    H119467   1.286   4.521   3.937 -1.6984  0.7545 -0.5154
 6487TIP3    H219468   1.237   4.428   3.829 -0.0814 -0.2504 -0.4282
 6488TIP3   OH219469   6.007   3.356   2.434 -0.5104 -0.5934  0.1129
 6488TIP3    H119470   6.008   3.261   2.447 -0.6830 -0.2410  4.1458
 6488TIP3    H219471   6.085   3.374   2.381  0.4446 -2.8685  0.6118
 6489TIP3   OH219472   6.192   5.681   1.629  0.3909  0.3320  0.4715
 6489TIP3    H119473   6.115   5.648   1.676 -1.1380  0.1708 -1.9517
 6489TIP3    H219474   6.233   5.603   1.593  0.9017  0.5440  0.5821
 6490TIP3   OH219475   2.582   3.153   2.974 -0.6345 -0.0097 -0.5663
 6490TIP3    H119476   2.579   3.248   2.987 -1.4222  0.0189 -0.9107
 6490TIP3    H219477   2.491   3.125   2.979 -0.2893 -1.0022  1.2737
 6491TIP3   OH219478   1.367   5.142   0.831  0.1591 -0.5232  0.0096
 6491TIP3    H119479   1.329   5.055   0.825 -0.5343 -0.2156 -0.2356
 6491TIP3    H219480   1.442   5.132   0.890 -1.3656 -0.7949  2.0225
 6492TIP3   OH219481   5.462   1.625   2.140  0.1906  0.5125 -0.1134
 6492TIP3    H119482   5.459   1.569   2.063 -0.8442  0.7615 -0.2818
 6492TIP3    H219483   5.520   1.580   2.201  2.2481  1.0380 -1.5753
 6493TIP3   OH219484   0.752   4.588   3.127  0.0906 -0.4378  0.0927
 6493TIP3    H119485   0.816   4.517   3.137 -0.6459 -1.2499 -0.6951
 6493TIP3    H219486   0.669   4.542   3.112 -0.2912  0.5915 -1.1273
 6494TIP3   OH219487   4.191   1.188   3.654  0.3821 -0.0224 -0.4312
 6494TIP3    H119488   4.205   1.131   3.729 -2.4194  0.2138  0.3978
 6494TIP3    H219489   4.197   1.130   3.578  1.2715 -0.6670  0.1244
 6495TIP3   OH219490   0.313   3.399   3.864 -0.1768  0.1694 -0.8425
 6495TIP3    H119491   0.234   3.447   3.840 -0.3503 -0.0641 -0.7379
 6495TIP3    H219492   0.285   3.337   3.931  0.2601  0.6785 -0.1631
 6496TIP3   OH219493   4.607   0.083   1.801 -0.3363 -0.0361  0.0089
 6496TIP3    H119494   4.536   0.133   1.843 -0.6071 -0.9249  0.6296
 6496TIP3    H219495   4.596   0.102   1.707 -0.2159  1.3316  0.2454
 6497TIP3   OH219496   0.581   3.039   1.588  0.3264  0.0155  0.2821
 6497TIP3    H119497   0.675   3.035   1.607  0.0256 -1.1495  1.7236
 6497TIP3    H219498   0.554   2.948   1.581 -0.8800  0.3027  0.9474
 6498TIP3   OH219499   5.958   5.675   2.977  0.2111  0.2489  0.0200
 6498TIP3    H119500   5.881   5.622   2.999  0.2919 -0.0088 -0.3084
 6498TIP3    H219501   6.032   5.620   3.002  0.3459 -0.7343 -2.3356
 6499TIP3   OH219502   1.095   0.443   5.138  0.4317 -0.3669  0.1738
 6499TIP3    H119503   1.118   0.356   5.104  0.7489 -0.4069  0.4809
 6499TIP3    H219504   1.101   0.434   5.234  0.2597 -0.0643  0.2149
 6500TIP3   OH219505   4.845   3.253   4.027 -0.5500  0.1530  0.2095
 6500TIP3    H119506   4.761   3.209   4.038  0.0399 -1.0293  0.1379
 6500TIP3    H219507   4.846   3.320   4.095 -1.2333 -0.3255  0.7083
 6501TIP3   OH219508   3.423   1.340   4.470  0.4436 -0.4831  0.5183
 6501TIP3    H119509   3.509   1.376   4.448 -0.1053  0.3723 -0.3201
 6501TIP3    H219510   3.384   1.405   4.528 -0.0649 -0.3051 -0.0085
 6502TIP3   OH219511   1.036   2.100   2.932  0.1478 -0.2224  0.2063
 6502TIP3    H119512   0.993   2.152   2.864  1.6485  0.5045 -0.2192
 6502TIP3    H219513   1.021   2.150   3.013  0.8883  0.4771 -0.0734
 6503TIP3   OH219514   6.160   1.780   3.197  0.2970  0.4765  1.0790
 6503TIP3    H119515   6.095   1.725   3.241  0.2259 -0.5546 -0.2561
 6503TIP3    H219516   6.146   1.765   3.104  1.9124  0.8490  0.7377
 6504TIP3   OH219517   5.984   5.824   1.500  0.2918  0.2168  0.1315
 6504TIP3    H119518   5.899   5.806   1.542 -0.0680 -1.5790 -1.2368
 6504TIP3    H219519   6.046   5.771   1.550  0.3076  0.1373  0.0264
 6505TIP3   OH219520   1.616   1.143   2.429 -0.3048 -0.1127  0.3203
 6505TIP3    H119521   1.530   1.173   2.457 -0.9054 -1.4904  0.0311
 6505TIP3    H219522   1.632   1.064   2.479  0.8890  0.2173  0.4995
 6506TIP3   OH219523   0.027   1.771   1.449 -0.1251  0.1339 -0.2345
 6506TIP3    H119524   0.075   1.689   1.461 -0.2394  0.1484  0.3243
 6506TIP3    H219525   0.095   1.838   1.443 -0.0682  0.1401  0.4419
 6507TIP3   OH219526   4.377   1.528   3.134  0.7056  0.3327 -0.1502
 6507TIP3    H119527   4.424   1.611   3.125 -0.3535  0.8061 -2.0302
 6507TIP3    H219528   4.443   1.461   3.118  0.6699  1.0031 -4.0048
 6508TIP3   OH219529   4.973   3.213   1.025  0.8768 -0.5410  0.3631
 6508TIP3    H119530   5.019   3.130   1.032 -1.1234 -1.7171  0.1808
 6508TIP3    H219531   4.882   3.192   1.046 -0.3266  0.9287 -2.8313
 6509TIP3   OH219532   2.104   1.595   3.422 -0.3348 -0.7215 -0.1097
 6509TIP3    H119533   2.182   1.649   3.433 -0.0400 -1.1150 -0.2621
 6509TIP3    H219534   2.138   1.507   3.402 -0.8281 -0.6304 -1.4051
 6510TIP3   OH219535   0.577   2.189   3.196 -0.1328 -0.5955 -1.2455
 6510TIP3    H119536   0.500   2.153   3.153 -0.7480 -0.1443 -0.5593
 6510TIP3    H219537   0.554   2.280   3.214  0.7117 -0.3468 -1.3675
 6511TIP3   OH219538   6.346   3.551   3.419  0.3314 -0.7695 -0.3039
 6511TIP3    H119539   6.262   3.535   3.376 -1.3784  1.4935  1.8999
 6511TIP3    H219540   6.369   3.641   3.394  0.6249 -0.3607  1.3502
 6512TIP3   OH219541   4.446   5.076   4.510 -0.0212 -0.3161 -0.5561
 6512TIP3    H119542   4.353   5.081   4.531  0.2235  0.2700  0.4579
 6512TIP3    H219543   4.490   5.079   4.595  0.8911 -1.6601 -0.9574
 6513TIP3   OH219544   5.409   4.079   0.996  0.1356 -0.3525 -0.5730
 6513TIP3    H119545   5.397   4.107   1.087 -0.8887  0.0417 -0.8242
 6513TIP3    H219546   5.500   4.101   0.977 -0.6097  3.0547 -0.8247
 6514TIP3   OH219547   2.829   4.455   3.275 -0.2124 -0.2931  0.7602
 6514TIP3    H119548   2.737   4.436   3.256  0.2091 -0.4964 -1.2664
 6514TIP3    H219549   2.850   4.400   3.350 -0.9777 -2.4704 -0.5460
 6515TIP3   OH219550   4.665   5.300   3.793  0.0575  0.5268 -0.1848
 6515TIP3    H119551   4.754   5.283   3.823  0.0212  1.3467  0.4095
 6515TIP3    H219552   4.638   5.379   3.839 -0.5475  0.9693 -1.2622
 6516TIP3   OH219553   0.429   4.236   1.229  0.1879  0.0604  0.0171
 6516TIP3    H119554   0.391   4.322   1.209 -1.3842 -0.3726  0.9896
 6516TIP3    H219555   0.418   4.185   1.149 -0.1111  0.3446 -0.1242
 6517TIP3   OH219556   4.445   2.369   0.627  0.0525  0.2457 -0.0702
 6517TIP3    H119557   4.387   2.407   0.561  1.5518 -0.6730 -2.0078
 6517TIP3    H219558   4.515   2.434   0.637 -0.2946  0.4943  0.8335
 6518TIP3   OH219559   2.356   4.772   2.052 -0.3864 -0.0548  0.0546
 6518TIP3    H119560   2.430   4.781   2.112 -0.9528 -0.6945  0.8628
 6518TIP3    H219561   2.397   4.755   1.967  0.4057 -0.2714  0.4679
 6519TIP3   OH219562   4.175   5.835   4.759  0.0745 -0.2318  0.1472
 6519TIP3    H119563   4.161   5.776   4.833  0.7277 -0.2984  0.2278
 6519TIP3    H219564   4.103   5.816   4.699 -0.7940  0.2359  1.0127
 6520TIP3   OH219565   0.318   5.884   2.416 -0.9906 -0.2254  0.2164
 6520TIP3    H119566   0.328   5.797   2.453 -1.3460  0.4545  2.0170
 6520TIP3    H219567   0.363   5.942   2.477 -0.0536  0.8022 -1.3631
 6521TIP3   OH219568   2.556   5.641   4.200 -0.2055  0.1475  0.0607
 6521TIP3    H119569   2.516   5.680   4.123 -1.3621 -2.1480 -0.6022
 6521TIP3    H219570   2.483   5.632   4.263  0.0184 -0.7930  0.2132
 6522TIP3   OH219571   5.671   1.440   2.104 -0.0158  0.0524  0.0868
 6522TIP3    H119572   5.643   1.380   2.174  1.2502  0.7276  1.2254
 6522TIP3    H219573   5.593   1.450   2.049 -1.2802  0.0078  1.7658
 6523TIP3   OH219574   0.635   2.021   2.683 -0.1047  0.4251 -0.2221
 6523TIP3    H119575   0.542   2.045   2.680 -0.2773 -0.2293 -0.2696
 6523TIP3    H219576   0.663   2.024   2.592 -0.0319  0.7906 -0.1896
 6524TIP3   OH219577   5.136   4.853   2.312  0.0631 -0.2054 -0.4948
 6524TIP3    H119578   5.119   4.945   2.291  2.3978  0.3597 -0.1508
 6524TIP3    H219579   5.073   4.833   2.381  0.3765  1.5334  0.3538
 6525TIP3   OH219580   4.751   5.528   4.319 -0.2368 -0.2028  0.7210
 6525TIP3    H119581   4.670   5.506   4.365  0.6406 -0.9214  1.9887
 6525TIP3    H219582   4.769   5.451   4.265 -0.9344  0.3832 -0.3633
 6526TIP3   OH219583   5.103   2.469   0.355 -0.3584 -0.3003  0.1068
 6526TIP3    H119584   5.035   2.470   0.287  0.7671 -2.6691 -1.2103
 6526TIP3    H219585   5.179   2.429   0.312  1.6674  1.5320  1.7365
 6527TIP3   OH219586   4.926   1.172   2.060 -0.1944  0.3586  0.5202
 6527TIP3    H119587   4.844   1.199   2.102 -1.9605 -0.5326 -2.0924
 6527TIP3    H219588   4.899   1.108   1.995  2.3849  1.2875 -1.6252
 6528TIP3   OH219589   5.216   0.331   0.699 -0.4440 -0.1489  0.2542
 6528TIP3    H119590   5.231   0.286   0.782  2.5199  0.2710  0.0851
 6528TIP3    H219591   5.248   0.270   0.632 -1.8347 -0.0692 -0.5241
 6529TIP3   OH219592   4.303   5.792   3.907  0.2461  0.6236  0.1823
 6529TIP3    H119593   4.277   5.882   3.886  0.3962  0.8381  0.8930
 6529TIP3    H219594   4.266   5.776   3.994 -0.9163 -0.4765 -0.4985
 6530TIP3   OH219595   0.151   0.411   3.599 -0.3243 -0.1583 -0.3639
 6530TIP3    H119596   0.058   0.416   3.623 -0.4833  0.5329 -1.0514
 6530TIP3    H219597   0.180   0.326   3.632 -0.9233  0.0667  0.8165
 6531TIP3   OH219598   0.103   2.608   5.173  0.0373  0.5211  0.5036
 6531TIP3    H119599   0.044   2.644   5.107  0.8149 -0.0237 -0.5214
 6531TIP3    H219600   0.185   2.594   5.126  0.5750  0.0028  1.5681
 6532TIP3   OH219601   1.120   0.865   0.148 -0.5277 -0.5728  0.2236
 6532TIP3    H119602   1.041   0.881   0.097 -0.6784 -1.7660  0.0532
 6532TIP3    H219603   1.152   0.952   0.171 -2.1437 -0.0771  0.7137
 6533TIP3   OH219604   1.627   5.087   3.387  0.1432  0.4760 -0.1111
 6533TIP3    H119605   1.556   5.140   3.350 -1.3651 -0.6253  1.0517
 6533TIP3    H219606   1.604   4.997   3.365  0.9572  0.0606  0.6724
 6534TIP3   OH219607   3.680   2.213   5.128 -0.9548 -0.0283  0.2265
 6534TIP3    H119608   3.760   2.184   5.084  0.2502  0.8281  1.7646
 6534TIP3    H219609   3.613   2.212   5.059  0.1485 -1.6492 -0.8798
 6535TIP3   OH219610   4.663   1.287   2.115  0.8006  0.3094  0.0752
 6535TIP3    H119611   4.628   1.300   2.203  1.6464 -1.0143  0.6358
 6535TIP3    H219612   4.586   1.295   2.058 -0.6876 -3.1359  1.3147
 6536TIP3   OH219613   0.790   2.122   1.590 -0.7000  0.0865  0.1983
 6536TIP3    H119614   0.827   2.047   1.543  2.3139  0.9690  0.9840
 6536TIP3    H219615   0.742   2.171   1.523 -0.4699 -1.1330 -0.8925
 6537TIP3   OH219616   5.573   1.976   1.317  0.2303  0.2578  0.3745
 6537TIP3    H119617   5.480   1.963   1.296 -0.3197 -1.0770  3.2270
 6537TIP3    H219618   5.573   2.048   1.380  0.9928 -0.4565  1.2067
 6538TIP3   OH219619   4.628   3.770   3.637  0.5592  0.9409 -0.1170
 6538TIP3    H119620   4.645   3.755   3.730  0.6792 -0.2468 -0.3088
 6538TIP3    H219621   4.577   3.693   3.609  0.2547  1.4293 -0.9601
 6539TIP3   OH219622   1.933   5.084   4.370  0.4358 -0.5562 -0.4077
 6539TIP3    H119623   2.025   5.061   4.360 -0.0794 -3.0638  0.0129
 6539TIP3    H219624   1.920   5.097   4.464  0.2811 -0.4680 -0.4389
 6540TIP3   OH219625   3.026   1.886   2.889  0.2346 -0.4962  0.3282
 6540TIP3    H119626   2.952   1.899   2.948  1.0967 -0.6999  1.4944
 6540TIP3    H219627   3.010   1.801   2.849 -0.2415 -0.4601  0.4358
 6541TIP3   OH219628   4.428   2.947   2.229 -0.1010  0.7015  0.3370
 6541TIP3    H119629   4.375   2.924   2.152  0.5809  2.3437 -0.6917
 6541TIP3    H219630   4.364   2.972   2.295 -0.6871 -0.0114  0.0499
 6542TIP3   OH219631   2.141   1.961   2.745 -0.0661 -0.5185  0.1898
 6542TIP3    H119632   2.121   1.917   2.662  1.9223 -3.2570  1.0259
 6542TIP3    H219633   2.084   1.920   2.809 -1.2027  1.2094  0.3563
 6543TIP3   OH219634   2.705   1.657   0.370  0.1074  0.2266 -0.4924
 6543TIP3    H119635   2.700   1.640   0.275  0.8414  0.0146 -0.4990
 6543TIP3    H219636   2.797   1.640   0.392 -0.1817 -0.2806  0.3606
 6544TIP3   OH219637   1.087   1.612   1.395  0.0508  0.0219 -0.6523
 6544TIP3    H119638   1.166   1.574   1.357  0.0533  0.6737 -1.3254
 6544TIP3    H219639   1.093   1.592   1.488  0.2743 -1.2074 -0.9137
 6545TIP3   OH219640   4.814   2.969   1.581 -0.2610  0.3104 -0.0863
 6545TIP3    H119641   4.719   2.981   1.584 -0.4515 -1.0148 -0.2359
 6545TIP3    H219642   4.829   2.888   1.631  0.6498 -0.1892 -1.1274
 6546TIP3   OH219643   5.106   0.323   3.846  0.2873  0.2981  0.1984
 6546TIP3    H119644   5.141   0.356   3.764 -1.5133  2.4752  0.2167
 6546TIP3    H219645   5.181   0.283   3.890  1.8354  1.2825 -1.4308
 6547TIP3   OH219646   6.153   2.050   2.038 -1.3252  0.3228 -0.0977
 6547TIP3    H119647   6.147   2.008   2.124 -1.5819  0.3292 -0.1097
 6547TIP3    H219648   6.185   1.981   1.980  2.0751  1.1596  0.5940
 6548TIP3   OH219649   5.004   1.280   3.835 -0.0485 -0.0122  0.4923
 6548TIP3    H119650   4.960   1.196   3.851 -1.7483  1.0723  1.9137
 6548TIP3    H219651   5.080   1.257   3.782 -1.0024 -2.3197 -0.0218
 6549TIP3   OH219652   3.685   1.980   2.543 -0.2552 -0.0250 -0.2618
 6549TIP3    H119653   3.668   1.886   2.550  2.5453 -0.5647  0.5683
 6549TIP3    H219654   3.702   1.995   2.450 -0.1303 -0.4541 -0.3083
 6550TIP3   OH219655   5.291   0.247   1.599 -0.2193 -0.1936 -1.2048
 6550TIP3    H119656   5.244   0.196   1.533 -0.6933  2.0252 -2.6894
 6550TIP3    H219657   5.259   0.336   1.587 -0.3031  0.3199  2.0649
 6551TIP3   OH219658   1.811   4.023   2.255 -0.3530 -0.3650 -0.1315
 6551TIP3    H119659   1.881   4.059   2.201 -0.0113  2.9014  2.1817
 6551TIP3    H219660   1.804   3.932   2.228  3.4511 -0.3456 -1.8098
 6552TIP3   OH219661   2.898   3.499   1.354 -0.8287  0.2747 -0.0641
 6552TIP3    H119662   2.903   3.509   1.258 -0.1875 -1.0960 -0.2012
 6552TIP3    H219663   2.921   3.585   1.388  1.5028  0.1786 -1.1464
 6553TIP3   OH219664   3.855   3.427   4.896 -0.6104 -0.0464  0.4380
 6553TIP3    H119665   3.844   3.512   4.853 -1.1015 -1.2392 -1.9632
 6553TIP3    H219666   3.934   3.391   4.858  1.1142  0.3175  3.3544
 6554TIP3   OH219667   1.249   0.896   3.333  0.8208  0.3015 -0.4079
 6554TIP3    H119668   1.329   0.950   3.338 -0.3205  2.0030  0.8723
 6554TIP3    H219669   1.250   0.845   3.414 -0.0477  1.3936  0.3259
 6555TIP3   OH219670   3.706   3.833   1.533 -0.1123  0.2286 -0.1543
 6555TIP3    H119671   3.632   3.819   1.475 -0.1649  0.7077 -0.2074
 6555TIP3    H219672   3.702   3.760   1.595 -0.9795  0.5727  0.2125
 6556TIP3   OH219673   3.900   0.102   0.478 -0.2193  0.2442  0.1716
 6556TIP3    H119674   3.837   0.133   0.543  1.0599  2.6595  0.3342
 6556TIP3    H219675   3.945   0.180   0.448  1.1964 -1.1523 -1.5791
 6557TIP3   OH219676   4.880   2.131   2.964 -0.0380  0.3011  0.0436
 6557TIP3    H119677   4.855   2.198   2.900  0.0187  1.1571  0.8885
 6557TIP3    H219678   4.841   2.161   3.046  1.5736  0.3006  0.8427
 6558TIP3   OH219679   5.924   5.208   4.038 -0.1754 -0.0654  0.0861
 6558TIP3    H119680   5.902   5.294   4.001 -0.7098 -0.1200  0.2705
 6558TIP3    H219681   5.939   5.225   4.131  0.4310 -0.0534 -0.0124
 6559TIP3   OH219682   5.168   1.063   2.955 -0.0196 -0.0296 -0.4040
 6559TIP3    H119683   5.168   1.122   2.879 -2.4374 -1.4615 -1.6806
 6559TIP3    H219684   5.260   1.041   2.968  0.5690  0.9426 -2.3993
 6560TIP3   OH219685   0.888   0.395   4.426 -0.3040 -0.1949 -0.6303
 6560TIP3    H119686   0.920   0.402   4.515 -1.1973 -3.1914  0.0293
 6560TIP3    H219687   0.796   0.420   4.432 -0.5285 -1.0082 -0.5514
 6561TIP3   OH219688   4.224   5.883   1.019 -0.0865  1.0777  0.5303
 6561TIP3    H119689   4.190   5.803   0.979 -1.2216  1.5427  0.5572
 6561TIP3    H219690   4.191   5.881   1.109  0.2576  1.3645  0.6684
 6562TIP3   OH219691   2.312   5.612   2.523  0.1868  0.4889 -0.1406
 6562TIP3    H119692   2.401   5.576   2.517 -1.0025 -2.9495  0.5437
 6562TIP3    H219693   2.277   5.601   2.434  0.2970  1.5015 -0.3171
 6563TIP3   OH219694   6.105   5.159   4.486  0.5738  0.3716  0.1382
 6563TIP3    H119695   6.105   5.175   4.391 -0.8181  0.5052  0.1423
 6563TIP3    H219696   6.115   5.246   4.525  0.4502  0.3984  0.1116
 6564TIP3   OH219697   2.524   0.345   0.047  0.1042  0.6219  0.0706
 6564TIP3    H119698   2.459   0.275   0.045  1.6585 -0.8484 -0.7273
 6564TIP3    H219699   2.586   0.319   0.115  0.3697  1.5522  0.2014
 6565TIP3   OH219700   2.822   1.075   3.431 -0.1631  0.1106 -0.0838
 6565TIP3    H119701   2.819   1.070   3.335 -1.1503 -0.0290 -0.0528
 6565TIP3    H219702   2.915   1.087   3.451  0.1018 -0.2481 -1.0389
 6566TIP3   OH219703   3.083   5.436   0.627 -0.0840  0.2925 -0.2487
 6566TIP3    H119704   3.007   5.445   0.569  0.5359  0.1004 -1.1114
 6566TIP3    H219705   3.080   5.344   0.655 -0.0255  0.2218 -0.4773
 6567TIP3   OH219706   4.129   3.573   4.484  0.1964 -0.0836 -0.1086
 6567TIP3    H119707   4.137   3.518   4.406 -0.3883  0.5151 -0.5944
 6567TIP3    H219708   4.096   3.657   4.452 -0.5490  0.0088  0.8490
 6568TIP3   OH219709   6.090   2.077   3.375  0.7228 -0.4168  0.1265
 6568TIP3    H119710   6.038   2.011   3.329  2.3145 -1.9901  0.4437
 6568TIP3    H219711   6.051   2.083   3.462 -1.6716  1.8205 -0.9686
 6569TIP3   OH219712   4.465   3.311   1.433 -0.2345 -0.1075 -0.0626
 6569TIP3    H119713   4.438   3.366   1.359  0.6219  0.3018 -0.0792
 6569TIP3    H219714   4.509   3.236   1.393 -1.1463 -0.6880 -0.0248
 6570TIP3   OH219715   4.145   4.042   1.019  0.0818  0.2544 -0.0752
 6570TIP3    H119716   4.206   3.986   0.972  0.0025 -0.4437  0.6378
 6570TIP3    H219717   4.063   4.036   0.970  0.0781 -0.2489 -0.0066
 6571TIP3   OH219718   2.978   1.957   4.012  0.5307  0.0142 -0.4867
 6571TIP3    H119719   3.022   2.022   4.067  1.7872 -0.6061 -0.7169
 6571TIP3    H219720   2.932   1.900   4.073  1.6764 -0.4971 -0.0655
 6572TIP3   OH219721   5.303   1.639   3.325 -0.3053  0.4964 -0.4719
 6572TIP3    H119722   5.340   1.641   3.413  2.9818  1.8304 -1.7006
 6572TIP3    H219723   5.263   1.553   3.317 -1.7473  0.7381  2.6223
 6573TIP3   OH219724   6.341   5.278   2.418  0.0277 -0.4551 -0.4385
 6573TIP3    H119725   6.319   5.193   2.379 -0.4349  0.4320 -2.2408
 6573TIP3    H219726   6.315   5.342   2.352  1.7035  1.0396  0.2624
 6574TIP3   OH219727   2.125   0.887   0.587  0.5335  0.4371  0.5670
 6574TIP3    H119728   2.106   0.817   0.649 -0.0336  0.0638 -0.0264
 6574TIP3    H219729   2.215   0.914   0.609 -0.0863  1.2071  2.4129
 6575TIP3   OH219730   1.459   5.685   1.978  0.6591  0.0044  0.5513
 6575TIP3    H119731   1.467   5.753   2.046 -0.9116  0.5702  0.2238
 6575TIP3    H219732   1.508   5.721   1.904 -0.9946  1.3332  0.0241
 6576TIP3   OH219733   2.884   4.906   3.440 -0.3291 -0.5390 -0.3393
 6576TIP3    H119734   2.893   4.838   3.374 -1.3330  0.2213 -1.3003
 6576TIP3    H219735   2.964   4.958   3.433 -0.1831 -0.7942 -0.5723
 6577TIP3   OH219736   5.824   3.639   2.452 -0.1184  0.0122 -0.0762
 6577TIP3    H119737   5.918   3.659   2.443 -0.2819  0.1812 -1.6827
 6577TIP3    H219738   5.784   3.722   2.476  0.0924  0.0179  0.2660
 6578TIP3   OH219739   1.685   4.758   2.549  0.1225  0.3558  0.2768
 6578TIP3    H119740   1.746   4.719   2.487  0.4821  1.2424  0.0580
 6578TIP3    H219741   1.696   4.706   2.629 -0.1905 -0.6593 -0.3185
 6579TIP3   OH219742   4.937   1.673   0.096  0.5399 -0.4478 -0.0253
 6579TIP3    H119743   5.016   1.629   0.066  1.4644  0.7216  0.5966
 6579TIP3    H219744   4.963   1.716   0.178 -0.5561  0.4976 -0.1440
 6580TIP3   OH219745   1.410   3.867   1.202 -0.2842  0.1490  0.1593
 6580TIP3    H119746   1.331   3.875   1.149  0.2366  2.2583 -0.4091
 6580TIP3    H219747   1.464   3.803   1.156 -0.3704  1.0156 -1.1915
 6581TIP3   OH219748   5.266   5.299   0.214  0.3243 -0.0402 -0.8926
 6581TIP3    H119749   5.242   5.207   0.205 -0.1707 -0.1397  1.0181
 6581TIP3    H219750   5.221   5.343   0.142  0.1722 -1.2257 -1.5348
 6582TIP3   OH219751   5.910   5.688   1.249 -0.1355  0.2203  0.1527
 6582TIP3    H119752   5.934   5.732   1.330  0.5930  0.1010  0.0079
 6582TIP3    H219753   5.882   5.758   1.190 -1.2778  0.2508  0.7005
 6583TIP3   OH219754   3.837   3.380   1.211  0.4725 -0.3738  0.1429
 6583TIP3    H119755   3.841   3.470   1.243  0.0952 -0.3944  0.2484
 6583TIP3    H219756   3.771   3.382   1.142 -1.3116 -1.0615  1.7566
 6584TIP3   OH219757   0.826   4.338   1.292 -0.3318  0.0395  0.0404
 6584TIP3    H119758   0.866   4.344   1.378 -3.2702 -1.8900  1.7087
 6584TIP3    H219759   0.886   4.283   1.241  0.3234 -0.7633  1.6269
 6585TIP3   OH219760   0.285   4.137   3.125 -0.1692  0.3155  0.0508
 6585TIP3    H119761   0.318   4.103   3.208  3.1314 -1.6970 -1.9033
 6585TIP3    H219762   0.355   4.193   3.091 -1.9551  2.1270 -0.9097
 6586TIP3   OH219763   5.293   1.789   2.345  0.2656  0.7918  0.2148
 6586TIP3    H119764   5.367   1.843   2.373 -1.3282  1.6510  3.2664
 6586TIP3    H219765   5.333   1.710   2.309  2.6752  1.5379  1.0556
 6587TIP3   OH219766   0.649   1.184   3.276  0.0623  0.0678  0.4959
 6587TIP3    H119767   0.732   1.145   3.301 -0.1638 -0.9186 -0.2460
 6587TIP3    H219768   0.656   1.196   3.181 -0.0468  1.4337  0.6417
 6588TIP3   OH219769   6.266   2.707   4.654  0.4537  0.3447 -0.5419
 6588TIP3    H119770   6.200   2.701   4.723  1.7843  1.9503  0.9775
 6588TIP3    H219771   6.322   2.631   4.668  0.5818  0.5379  0.0188
 6589TIP3   OH219772   4.744   5.177   0.024 -0.5977  0.2747 -0.5299
 6589TIP3    H119773   4.742   5.257  -0.028 -1.1784  0.5010 -0.1753
 6589TIP3    H219774   4.738   5.207   0.114  3.7985  0.1031 -0.0039
 6590TIP3   OH219775   1.841   5.099   1.980 -0.2337 -0.4272 -0.0967
 6590TIP3    H119776   1.869   5.190   1.977  1.0320 -0.7798  0.1397
 6590TIP3    H219777   1.755   5.101   2.022 -0.0610  0.6193  0.2332
 6591TIP3   OH219778   5.761   4.991   4.685 -0.4300 -0.4682  0.1628
 6591TIP3    H119779   5.747   4.925   4.617  1.2631  2.3785 -3.2778
 6591TIP3    H219780   5.746   5.075   4.641 -0.0228  1.5876  3.5745
 6592TIP3   OH219781   0.780   4.245   5.087  0.0324 -0.4633 -0.0527
 6592TIP3    H119782   0.762   4.201   5.170  0.0629 -0.0890  0.1514
 6592TIP3    H219783   0.824   4.326   5.111 -1.4125  0.4296 -0.3300
 6593TIP3   OH219784   6.332   5.600   2.003  0.5410 -0.2458 -0.1448
 6593TIP3    H119785   6.332   5.646   2.086  1.7609  1.0235 -0.8085
 6593TIP3    H219786   6.360   5.665   1.939 -2.7237 -0.4308 -2.0352
 6594TIP3   OH219787   6.254   2.852   3.023  0.0944 -0.5615 -0.2401
 6594TIP3    H119788   6.227   2.764   3.046  1.7364 -0.4872  2.3881
 6594TIP3    H219789   6.212   2.908   3.089 -1.8084  0.8640 -2.4800
 6595TIP3   OH219790   4.537   1.978   3.592  0.1349 -0.4375 -0.1211
 6595TIP3    H119791   4.626   1.962   3.622 -0.3541 -1.2700  0.9840
 6595TIP3    H219792   4.482   1.922   3.649 -1.1273  0.4530 -0.4138
 6596TIP3   OH219793   4.308   2.078   2.587 -0.5754 -0.3451 -0.2093
 6596TIP3    H119794   4.354   2.016   2.644 -0.3008  0.5110  0.5263
 6596TIP3    H219795   4.266   2.139   2.648  0.9435  1.4774 -0.8899
 6597TIP3   OH219796   0.673   4.993   0.792  0.7795  0.8981  0.1964
 6597TIP3    H119797   0.714   4.909   0.813  1.0004  1.1188  0.6472
 6597TIP3    H219798   0.666   5.038   0.876 -1.5428  0.3587  0.3634
 6598TIP3   OH219799   1.014   3.208   2.586  0.0309  0.4576 -0.2009
 6598TIP3    H119800   1.071   3.151   2.638  0.6813  2.2829  1.1685
 6598TIP3    H219801   1.009   3.165   2.501  1.4764 -1.0143  0.4092
 6599TIP3   OH219802   1.167   1.332   2.003 -0.6068  0.1145 -0.3123
 6599TIP3    H119803   1.211   1.257   2.041  1.3217  1.2784 -0.1284
 6599TIP3    H219804   1.194   1.407   2.057 -0.3336  1.3288 -2.0235
 6600TIP3   OH219805   2.053   2.621   1.736  0.0222 -1.3426  0.1235
 6600TIP3    H119806   2.033   2.582   1.820 -3.3822  0.0545  0.1348
 6600TIP3    H219807   2.136   2.667   1.749  0.0136 -1.8937  2.4138
 6601TIP3   OH219808   4.816   5.582   2.347 -0.6787 -0.6364  0.4097
 6601TIP3    H119809   4.748   5.573   2.414 -1.1985  0.0832 -0.0002
 6601TIP3    H219810   4.871   5.504   2.357  0.4169  0.3380  2.9685
 6602TIP3   OH219811   0.288   2.111   4.972  0.0308 -0.1373  0.1100
 6602TIP3    H119812   0.341   2.111   4.892  0.4883 -0.0956  0.4125
 6602TIP3    H219813   0.292   2.201   5.004 -2.2616  0.5076 -1.1957
 6603TIP3   OH219814   2.931   1.804   3.664  0.5915 -0.1203  0.1481
 6603TIP3    H119815   2.848   1.851   3.659  1.0162  0.5298 -1.7911
 6603TIP3    H219816   2.914   1.731   3.723 -0.8496  0.9564  1.1383
 6604TIP3   OH219817   3.692   5.624   3.577  0.8116 -0.0313 -0.2447
 6604TIP3    H119818   3.711   5.710   3.540 -0.4181  0.3173 -0.1100
 6604TIP3    H219819   3.628   5.586   3.517  0.5548 -0.4189  0.2655
 6605TIP3   OH219820   0.590   3.342   0.593 -0.3396 -0.5087  0.5256
 6605TIP3    H119821   0.662   3.393   0.631 -1.2475 -0.5640  2.4153
 6605TIP3    H219822   0.515   3.401   0.597 -0.7995 -1.0705  0.2297
 6606TIP3   OH219823   1.590   2.370   4.843  0.6855  0.0171 -0.0995
 6606TIP3    H119824   1.671   2.402   4.804  0.4754 -0.1360 -0.6722
 6606TIP3    H219825   1.524   2.434   4.818  0.7418  0.5131  0.9458
 6607TIP3   OH219826   5.588   2.306   1.328  0.6648  0.1022  0.3106
 6607TIP3    H119827   5.590   2.272   1.417  1.0256 -4.0898 -1.0911
 6607TIP3    H219828   5.495   2.309   1.305  0.5864  0.9417  0.7086
 6608TIP3   OH219829   2.756   5.115   2.044 -0.1352 -0.0454 -0.5285
 6608TIP3    H119830   2.677   5.098   1.993 -0.6404  1.2141 -0.2139
 6608TIP3    H219831   2.808   5.035   2.036 -1.3850 -0.8570 -0.8408
 6609TIP3   OH219832   1.332   4.879   3.155  0.1329 -0.2089 -0.0491
 6609TIP3    H119833   1.276   4.952   3.178 -0.0173 -0.0222 -0.9544
 6609TIP3    H219834   1.275   4.820   3.105  1.3089  1.3247 -3.5516
 6610TIP3   OH219835   3.593   3.066   2.044  0.3569 -0.1186  0.2442
 6610TIP3    H119836   3.550   3.075   2.129  1.6160 -0.4315  0.9532
 6610TIP3    H219837   3.579   3.150   2.001 -2.5081 -0.7946 -0.3705
 6611TIP3   OH219838   0.138   3.942   4.605 -0.1388  0.2192 -0.0618
 6611TIP3    H119839   0.198   4.002   4.561  0.5488 -0.2343  0.2374
 6611TIP3    H219840   0.095   3.894   4.534  0.2325  0.1850 -0.2659
 6612TIP3   OH219841   2.660   0.198   4.879  0.0047 -0.1770 -0.2773
 6612TIP3    H119842   2.591   0.263   4.867 -1.0448 -1.0957  0.5310
 6612TIP3    H219843   2.626   0.119   4.836  0.8162 -0.4791 -0.3830
 6613TIP3   OH219844   5.988   1.591   4.598 -0.2790  0.1737  0.4092
 6613TIP3    H119845   5.989   1.662   4.534  0.6536 -0.5630 -0.4275
 6613TIP3    H219846   5.929   1.526   4.562 -0.7288  0.2951  0.9202
 6614TIP3   OH219847   1.372   1.904   4.626  0.7110 -0.2310  0.0598
 6614TIP3    H119848   1.432   1.854   4.571  0.9796 -0.2058  0.3298
 6614TIP3    H219849   1.426   1.973   4.664  0.0202  1.3716 -1.6694
 6615TIP3   OH219850   6.065   0.437   3.681 -0.1195  0.0910  0.2039
 6615TIP3    H119851   6.019   0.514   3.715 -1.0200 -0.1155 -0.4984
 6615TIP3    H219852   6.129   0.472   3.620  1.1854  0.4316  1.7212
 6616TIP3   OH219853   1.335   5.968   2.640 -0.3519  0.4349 -0.0461
 6616TIP3    H119854   1.299   5.882   2.620  1.5963 -0.2944 -0.6572
 6616TIP3    H219855   1.353   6.007   2.554 -0.3967  1.0774  0.2309
 6617TIP3   OH219856   6.097   4.777   0.277 -0.1906 -0.8449 -0.0976
 6617TIP3    H119857   6.088   4.770   0.182  1.0336 -0.4817 -0.2579
 6617TIP3    H219858   6.022   4.729   0.312 -0.4634 -1.2848 -1.2404
 6618TIP3   OH219859   0.364   1.209   4.795  0.5990  0.1366 -0.1666
 6618TIP3    H119860   0.411   1.128   4.817 -0.9763 -0.6096  0.5618
 6618TIP3    H219861   0.368   1.262   4.874  0.9710  0.4635 -0.3981
 6619TIP3   OH219862   5.901   1.900   0.536  0.1108 -0.6049 -0.6447
 6619TIP3    H119863   5.876   1.959   0.607  0.4626  0.7133 -1.5824
 6619TIP3    H219864   5.822   1.846   0.521 -0.2838 -0.2425  0.0999
 6620TIP3   OH219865   0.371   3.521   2.587 -0.1920  0.4909 -0.5297
 6620TIP3    H119866   0.368   3.585   2.659  0.6350  1.0893 -1.0106
 6620TIP3    H219867   0.319   3.561   2.518  0.7897  0.9109 -1.0351
 6621TIP3   OH219868   1.325   4.577   4.940 -0.1808  0.2188  0.0838
 6621TIP3    H119869   1.237   4.578   4.901  0.3673  0.7428 -1.1972
 6621TIP3    H219870   1.368   4.502   4.899 -0.2543 -0.5031  1.2756
 6622TIP3   OH219871   2.230   0.594   4.949  0.3525 -0.0744 -0.0712
 6622TIP3    H119872   2.276   0.528   5.001  0.2072  0.1715  0.3740
 6622TIP3    H219873   2.247   0.677   4.994 -1.3593 -0.1017  0.7149
 6623TIP3   OH219874   4.570   2.887   0.746 -0.5467 -0.2683  0.6999
 6623TIP3    H119875   4.494   2.939   0.770 -0.3674  0.5081 -0.3004
 6623TIP3    H219876   4.566   2.809   0.802 -1.7859  0.0007  1.0088
 6624TIP3   OH219877   4.007   2.482   0.292 -0.6789 -0.2298 -0.8103
 6624TIP3    H119878   3.991   2.555   0.351 -0.5948 -1.8043  1.3023
 6624TIP3    H219879   3.921   2.443   0.277 -0.5281 -0.6898 -0.5188
 6625TIP3   OH219880   1.495   0.121   4.265 -0.2915  0.5778 -0.0473
 6625TIP3    H119881   1.566   0.182   4.243  1.0126 -1.4628 -1.9740
 6625TIP3    H219882   1.446   0.165   4.334  2.4286  2.4060  0.8949
 6626TIP3   OH219883   1.237   0.519   4.042 -0.1565 -0.2111 -0.1388
 6626TIP3    H119884   1.184   0.472   4.105 -0.0947 -1.4151 -0.9424
 6626TIP3    H219885   1.181   0.591   4.011 -0.2172  0.3282  1.1766
 6627TIP3   OH219886   4.648   3.460   2.955 -0.0392 -0.2221  0.1796
 6627TIP3    H119887   4.723   3.501   2.998 -0.1864  1.6702 -1.2518
 6627TIP3    H219888   4.637   3.377   3.001  0.7132  1.0010  2.8025
 6628TIP3   OH219889   4.793   4.168   1.935  0.1422  0.0644 -0.2513
 6628TIP3    H119890   4.816   4.130   1.850  1.9999 -1.0552  0.6985
 6628TIP3    H219891   4.725   4.111   1.970  1.0219 -0.8649 -0.0051
 6629TIP3   OH219892   2.127   3.827   0.319  0.3015  0.3805  0.7182
 6629TIP3    H119893   2.199   3.765   0.315 -0.0923 -0.0475  0.0179
 6629TIP3    H219894   2.163   3.908   0.282  0.3155  0.0527 -0.0035
 6630TIP3   OH219895   3.437   5.188   4.168 -0.1691 -0.7035 -0.2610
 6630TIP3    H119896   3.395   5.137   4.099 -1.5961 -0.6946  0.5483
 6630TIP3    H219897   3.365   5.236   4.210  0.4205 -1.6788  2.0370
 6631TIP3   OH219898   5.912   2.688   2.748  0.1042 -0.1128 -0.1706
 6631TIP3    H119899   5.934   2.608   2.702 -2.6060 -1.1028  0.0882
 6631TIP3    H219900   5.967   2.755   2.708 -0.0313 -1.4652 -2.7889
 6632TIP3   OH219901   5.265   0.361   2.601  0.3233  0.3104 -0.0000
 6632TIP3    H119902   5.190   0.342   2.658  0.5492  1.1926  0.6106
 6632TIP3    H219903   5.271   0.285   2.544 -0.4502 -0.2046  0.5778
 6633TIP3   OH219904   5.873   4.815   0.906  0.4273 -0.6432 -0.1676
 6633TIP3    H119905   5.831   4.826   0.991  2.3388  0.5643  0.6921
 6633TIP3    H219906   5.841   4.888   0.853  1.4166  0.3096  0.5040
 6634TIP3   OH219907   0.782   4.367   2.123  0.6639 -0.2010  0.2270
 6634TIP3    H119908   0.689   4.387   2.117  0.8138  0.1347 -2.7051
 6634TIP3    H219909   0.817   4.430   2.186 -0.8361  0.7792  0.1306
 6635TIP3   OH219910   5.086   2.234   1.348  0.3767 -0.7103  0.1796
 6635TIP3    H119911   5.060   2.170   1.415  2.7968 -0.8550  1.0913
 6635TIP3    H219912   5.070   2.319   1.389  0.5402 -0.7822  0.3943
 6636TIP3   OH219913   3.400   3.438   4.051  0.0841 -0.3230 -0.3509
 6636TIP3    H119914   3.413   3.389   4.132  0.1067  0.1876 -0.0404
 6636TIP3    H219915   3.307   3.425   4.030  0.0825 -0.4707 -0.2499
 6637TIP3   OH219916   4.269   1.898   2.929  0.5274  0.0656 -0.1016
 6637TIP3    H119917   4.352   1.895   2.880  0.8453 -0.4007  0.4502
 6637TIP3    H219918   4.203   1.871   2.865  0.9935 -0.9552 -0.1832
 6638TIP3   OH219919   4.544   4.448   4.099 -0.7689  0.2000 -0.2986
 6638TIP3    H119920   4.512   4.532   4.067 -0.4158  1.1479  1.6842
 6638TIP3    H219921   4.508   4.383   4.039 -1.1603  1.7532 -1.7877
 6639TIP3   OH219922   2.215   1.159   4.421  0.0506 -0.5537  0.0563
 6639TIP3    H119923   2.181   1.244   4.447 -0.7746 -1.1425  0.9688
 6639TIP3    H219924   2.139   1.101   4.424  0.8129 -1.5543  0.5223
 6640TIP3   OH219925   0.262   1.753   1.919 -0.5578 -0.4642  0.2491
 6640TIP3    H119926   0.200   1.817   1.953  1.2313  0.9697  1.0458
 6640TIP3    H219927   0.209   1.677   1.895 -2.5165  0.4996  1.3026
 6641TIP3   OH219928   0.664   0.530   4.595  0.1435 -0.0975 -0.6304
 6641TIP3    H119929   0.716   0.463   4.638 -1.5285  0.4756  2.6043
 6641TIP3    H219930   0.590   0.483   4.557 -1.4488 -0.1743  2.3173
 6642TIP3   OH219931   2.804   2.906   4.771  0.4896  0.1277 -0.0978
 6642TIP3    H119932   2.811   2.939   4.860  0.7149  0.5341 -0.2622
 6642TIP3    H219933   2.741   2.834   4.776  0.0841  0.5077  0.2848
 6643TIP3   OH219934   1.215   0.256   2.720  0.0341 -0.6615 -0.2733
 6643TIP3    H119935   1.172   0.241   2.636  0.0680 -0.2864 -0.3623
 6643TIP3    H219936   1.268   0.178   2.734  1.5129  0.0572 -1.5222
 6644TIP3   OH219937   3.498   0.926   0.024  0.3199 -0.3585  0.1018
 6644TIP3    H119938   3.419   0.908   0.074  0.6913 -1.4372  0.3225
 6644TIP3    H219939   3.559   0.964   0.087 -0.1988  1.0062 -0.1927
 6645TIP3   OH219940   0.056   5.551   3.475  0.4833 -0.4381  0.2971
 6645TIP3    H119941   0.066   5.458   3.456  0.9826 -0.2913 -0.1674
 6645TIP3    H219942   0.066   5.595   3.391 -0.9153 -0.0348  0.3170
   6.35096   5.98775   5.18555   0.00000   0.00000  -2.11699   0.00000  -2.11699  -2.99387
