Title t= 484.00000 step= 242000
19942
    1ASP      N    1   1.216   1.900   3.493
    1ASP    HT1    2   1.174   1.978   3.438
    1ASP    HT2    3   1.231   1.942   3.587
    1ASP    HT3    4   1.152   1.818   3.487
    1ASP     CA    5   1.340   1.841   3.443
    1ASP     HA    6   1.417   1.899   3.490
    1ASP     CB    7   1.346   1.688   3.481
    1ASP    HB1    8   1.301   1.628   3.398
    1ASP    HB2    9   1.289   1.663   3.573
    1ASP     CG   10   1.488   1.649   3.481
    1ASP    OD1   11   1.510   1.528   3.467
    1ASP    OD2   12   1.582   1.736   3.483
    1ASP      C   13   1.352   1.869   3.294
    1ASP      O   14   1.255   1.897   3.225
    2ALA      N   15   1.469   1.854   3.237
    2ALA     HN   16   1.541   1.828   3.301
    2ALA     CA   17   1.500   1.889   3.101
    2ALA     HA   18   1.461   1.987   3.080
    2ALA     CB   19   1.655   1.886   3.084
    2ALA    HB1   20   1.700   1.785   3.073
    2ALA    HB2   21   1.709   1.935   3.167
    2ALA    HB3   22   1.686   1.939   2.992
    2ALA      C   23   1.436   1.796   3.004
    2ALA      O   24   1.406   1.682   3.037
    3ASP      N   25   1.410   1.834   2.881
    3ASP     HN   26   1.428   1.931   2.867
    3ASP     CA   27   1.357   1.757   2.772
    3ASP     HA   28   1.269   1.704   2.806
    3ASP     CB   29   1.312   1.864   2.661
    3ASP    HB1   30   1.296   1.812   2.564
    3ASP    HB2   31   1.395   1.939   2.657
    3ASP     CG   32   1.181   1.933   2.688
    3ASP    OD1   33   1.140   2.009   2.595
    3ASP    OD2   34   1.108   1.919   2.795
    3ASP      C   35   1.466   1.663   2.722
    3ASP      O   36   1.583   1.697   2.723
    4GLY      N   37   1.427   1.544   2.673
    4GLY     HN   38   1.333   1.514   2.684
    4GLY     CA   39   1.523   1.453   2.618
    4GLY    HA1   40   1.472   1.358   2.607
    4GLY    HA2   41   1.600   1.435   2.691
    4GLY      C   42   1.578   1.510   2.483
    4GLY      O   43   1.554   1.623   2.447
    5PRO      N   44   1.662   1.433   2.414
    5PRO     CD   45   1.698   1.292   2.454
    5PRO    HD1   46   1.602   1.235   2.453
    5PRO    HD2   47   1.731   1.293   2.559
    5PRO     CA   48   1.727   1.474   2.290
    5PRO     HA   49   1.807   1.534   2.330
    5PRO     CB   50   1.760   1.332   2.233
    5PRO    HB1   51   1.839   1.331   2.155
    5PRO    HB2   52   1.668   1.289   2.188
    5PRO     CG   53   1.810   1.256   2.357
    5PRO    HG1   54   1.834   1.149   2.341
    5PRO    HG2   55   1.894   1.317   2.397
    5PRO      C   56   1.663   1.556   2.189
    5PRO      O   57   1.551   1.522   2.150
    6GLY      N   58   1.721   1.661   2.134
    6GLY     HN   59   1.817   1.682   2.152
    6GLY     CA   60   1.664   1.729   2.020
    6GLY    HA1   61   1.691   1.834   2.011
    6GLY    HA2   62   1.557   1.722   2.014
    6GLY      C   63   1.710   1.676   1.884
    6GLY      O   64   1.637   1.683   1.784
    7ASP      N   65   1.835   1.625   1.873
    7ASP     HN   66   1.902   1.634   1.947
    7ASP     CA   67   1.882   1.550   1.748
    7ASP     HA   68   1.852   1.618   1.669
    7ASP     CB   69   2.039   1.534   1.752
    7ASP    HB1   70   2.076   1.478   1.663
    7ASP    HB2   71   2.059   1.477   1.845
    7ASP     CG   72   2.104   1.670   1.751
    7ASP    OD1   73   2.057   1.781   1.726
    7ASP    OD2   74   2.229   1.653   1.761
    7ASP      C   75   1.799   1.422   1.722
    7ASP      O   76   1.766   1.354   1.821
    8PRO      N   77   1.771   1.387   1.595
    8PRO     CD   78   1.833   1.446   1.479
    8PRO    HD1   79   1.944   1.442   1.485
    8PRO    HD2   80   1.797   1.551   1.468
    8PRO     CA   81   1.655   1.305   1.567
    8PRO     HA   82   1.569   1.336   1.625
    8PRO     CB   83   1.628   1.327   1.415
    8PRO    HB1   84   1.560   1.416   1.417
    8PRO    HB2   85   1.580   1.247   1.355
    8PRO     CG   86   1.770   1.372   1.361
    8PRO    HG1   87   1.830   1.282   1.335
    8PRO    HG2   88   1.763   1.440   1.273
    8PRO      C   89   1.667   1.161   1.610
    8PRO      O   90   1.559   1.104   1.638
    9ASP      N   91   1.787   1.107   1.608
    9ASP     HN   92   1.867   1.165   1.596
    9ASP     CA   93   1.811   0.967   1.646
    9ASP     HA   94   1.716   0.918   1.662
    9ASP     CB   95   1.890   0.899   1.534
    9ASP    HB1   96   1.940   0.804   1.563
    9ASP    HB2   97   1.966   0.974   1.503
    9ASP     CG   98   1.810   0.843   1.420
    9ASP    OD1   99   1.848   0.835   1.301
    9ASP    OD2  100   1.697   0.787   1.448
    9ASP      C  101   1.898   0.960   1.774
    9ASP      O  102   1.925   0.848   1.820
   10ALA      N  103   1.936   1.072   1.831
   10ALA     HN  104   1.905   1.161   1.800
   10ALA     CA  105   2.022   1.079   1.949
   10ALA     HA  106   2.114   1.024   1.940
   10ALA     CB  107   2.060   1.235   1.986
   10ALA    HB1  108   2.122   1.270   1.900
   10ALA    HB2  109   2.108   1.241   2.087
   10ALA    HB3  110   1.965   1.293   1.984
   10ALA      C  111   1.969   1.007   2.076
   10ALA      O  112   1.850   0.986   2.091
   11GLY      N  113   2.053   0.961   2.168
   11GLY     HN  114   2.149   0.988   2.177
   11GLY     CA  115   2.008   0.864   2.258
   11GLY    HA1  116   1.905   0.879   2.287
   11GLY    HA2  117   2.070   0.874   2.346
   11GLY      C  118   2.030   0.718   2.223
   11GLY    OT1  119   2.083   0.636   2.301
   11GLY    OT2  120   1.982   0.676   2.115
   12LIT    LIT  121   4.846   5.340   1.869
   13LIT    LIT  122   3.188   5.184   5.190
   14LIT    LIT  123   2.451   5.496   4.397
   15LIT    LIT  124   3.085   5.553   4.247
   16LIT    LIT  125   4.691   5.186   4.659
   17LIT    LIT  126   4.855   0.198   2.729
   18LIT    LIT  127   1.960   1.968   4.019
   19LIT    LIT  128   5.174   4.876   2.484
   20LIT    LIT  129   2.227   1.531   3.880
   21LIT    LIT  130   4.144   4.180   0.757
   22LIT    LIT  131   5.600   4.764   3.928
   23LIT    LIT  132   0.605   3.140   1.953
   24LIT    LIT  133   0.298   3.933   5.083
   25LIT    LIT  134   0.096   4.640   2.874
   26LIT    LIT  135   3.736   1.425   5.039
   27LIT    LIT  136   1.656   0.514   4.079
   28LIT    LIT  137   1.640   1.509   3.337
   29LIT    LIT  138   3.978   0.065   3.948
   30LIT    LIT  139   5.112   3.849   1.164
   31LIT    LIT  140   5.125   3.119   3.278
   32LIT    LIT  141   4.096   5.692   1.745
   33LIT    LIT  142   5.068   3.474   4.865
   34CLA    CLA  143   1.229   3.672   3.287
   35CLA    CLA  144   5.123   4.916   2.249
   36CLA    CLA  145   5.253   2.842   2.960
   37CLA    CLA  146   4.698   0.175   3.394
   38CLA    CLA  147   2.358   1.422   4.030
   39CLA    CLA  148   2.361   0.824   2.621
   40CLA    CLA  149   1.556   3.284   0.100
   41CLA    CLA  150   2.686   5.837   4.627
   42CLA    CLA  151   3.173   3.102   5.046
   43CLA    CLA  152   1.682   2.001   4.375
   44CLA    CLA  153   1.442   5.595   0.356
   45CLA    CLA  154   2.182   1.938   3.638
   46CLA    CLA  155   5.280   1.358   2.482
   47CLA    CLA  156   6.098   4.395   0.203
   48CLA    CLA  157   4.364   4.838   0.373
   49CLA    CLA  158   3.179   0.609   2.987
   50CLA    CLA  159   3.015   5.617   0.836
   51CLA    CLA  160   2.507   3.295   4.713
   52TIP3   OH2  161   3.362   2.573   5.146
   52TIP3    H1  162   3.386   2.664   5.164
   52TIP3    H2  163   3.434   2.522   5.181
   53TIP3   OH2  164   1.315   0.509   0.818
   53TIP3    H1  165   1.320   0.601   0.842
   53TIP3    H2  166   1.277   0.466   0.894
   54TIP3   OH2  167   0.290   1.830   3.262
   54TIP3    H1  168   0.311   1.768   3.192
   54TIP3    H2  169   0.246   1.778   3.329
   55TIP3   OH2  170   1.463   0.882   1.485
   55TIP3    H1  171   1.504   0.942   1.548
   55TIP3    H2  172   1.534   0.855   1.428
   56TIP3   OH2  173   3.534   0.954   0.126
   56TIP3    H1  174   3.483   1.029   0.097
   56TIP3    H2  175   3.604   0.992   0.180
   57TIP3   OH2  176   1.682   0.123   3.223
   57TIP3    H1  177   1.675   0.030   3.247
   57TIP3    H2  178   1.763   0.153   3.262
   58TIP3   OH2  179   1.924   4.392   1.737
   58TIP3    H1  180   1.834   4.380   1.767
   58TIP3    H2  181   1.969   4.431   1.811
   59TIP3   OH2  182   1.084   3.455   0.737
   59TIP3    H1  183   1.153   3.499   0.788
   59TIP3    H2  184   1.129   3.384   0.692
   60TIP3   OH2  185   4.542   2.859   1.273
   60TIP3    H1  186   4.446   2.856   1.275
   60TIP3    H2  187   4.563   2.953   1.273
   61TIP3   OH2  188   0.113   0.429   1.172
   61TIP3    H1  189   0.097   0.350   1.121
   61TIP3    H2  190   0.034   0.441   1.224
   62TIP3   OH2  191   4.123   3.398   1.291
   62TIP3    H1  192   4.193   3.334   1.296
   62TIP3    H2  193   4.165   3.481   1.313
   63TIP3   OH2  194   1.276   4.695   5.048
   63TIP3    H1  195   1.321   4.748   4.983
   63TIP3    H2  196   1.211   4.754   5.086
   64TIP3   OH2  197   3.608   1.288   3.704
   64TIP3    H1  198   3.683   1.230   3.689
   64TIP3    H2  199   3.535   1.229   3.720
   65TIP3   OH2  200   1.792   1.928   2.294
   65TIP3    H1  201   1.753   1.883   2.369
   65TIP3    H2  202   1.879   1.954   2.323
   66TIP3   OH2  203   0.316   2.072   0.118
   66TIP3    H1  204   0.356   2.059   0.204
   66TIP3    H2  205   0.235   2.120   0.136
   67TIP3   OH2  206   2.493   2.787   3.775
   67TIP3    H1  207   2.554   2.802   3.847
   67TIP3    H2  208   2.510   2.697   3.747
   68TIP3   OH2  209   4.369   1.880   4.956
   68TIP3    H1  210   4.408   1.945   4.898
   68TIP3    H2  211   4.378   1.797   4.909
   69TIP3   OH2  212   5.252   1.944   4.761
   69TIP3    H1  213   5.218   2.030   4.786
   69TIP3    H2  214   5.248   1.892   4.841
   70TIP3   OH2  215   4.792   0.905   2.454
   70TIP3    H1  216   4.857   0.976   2.450
   70TIP3    H2  217   4.708   0.949   2.446
   71TIP3   OH2  218   5.075   0.776   1.209
   71TIP3    H1  219   5.032   0.810   1.287
   71TIP3    H2  220   5.003   0.745   1.153
   72TIP3   OH2  221   3.098   1.938   4.841
   72TIP3    H1  222   3.160   1.998   4.882
   72TIP3    H2  223   3.045   1.905   4.914
   73TIP3   OH2  224   2.345   1.439   0.791
   73TIP3    H1  225   2.361   1.387   0.712
   73TIP3    H2  226   2.255   1.419   0.815
   74TIP3   OH2  227   4.877   3.295   2.901
   74TIP3    H1  228   4.892   3.389   2.888
   74TIP3    H2  229   4.964   3.257   2.907
   75TIP3   OH2  230   3.960   2.666   0.597
   75TIP3    H1  231   3.979   2.575   0.572
   75TIP3    H2  232   3.958   2.714   0.515
   76TIP3   OH2  233   2.431   2.854   4.909
   76TIP3    H1  234   2.338   2.837   4.901
   76TIP3    H2  235   2.437   2.933   4.962
   77TIP3   OH2  236   2.464   1.771   4.330
   77TIP3    H1  237   2.406   1.706   4.368
   77TIP3    H2  238   2.527   1.791   4.399
   78TIP3   OH2  239   1.007   1.865   4.703
   78TIP3    H1  240   0.916   1.881   4.680
   78TIP3    H2  241   1.004   1.791   4.764
   79TIP3   OH2  242   4.812   1.276   4.684
   79TIP3    H1  243   4.757   1.283   4.762
   79TIP3    H2  244   4.868   1.353   4.687
   80TIP3   OH2  245   5.159   1.613   3.978
   80TIP3    H1  246   5.174   1.525   3.944
   80TIP3    H2  247   5.229   1.627   4.042
   81TIP3   OH2  248   5.293   1.089   0.587
   81TIP3    H1  249   5.376   1.101   0.634
   81TIP3    H2  250   5.308   1.011   0.533
   82TIP3   OH2  251   1.300   1.213   3.155
   82TIP3    H1  252   1.272   1.226   3.245
   82TIP3    H2  253   1.271   1.292   3.109
   83TIP3   OH2  254   0.874   3.278   2.196
   83TIP3    H1  255   0.933   3.321   2.133
   83TIP3    H2  256   0.932   3.226   2.251
   84TIP3   OH2  257   3.406   1.237   1.981
   84TIP3    H1  258   3.314   1.261   1.987
   84TIP3    H2  259   3.418   1.208   1.891
   85TIP3   OH2  260   0.421   0.853   2.199
   85TIP3    H1  261   0.458   0.800   2.129
   85TIP3    H2  262   0.375   0.791   2.255
   86TIP3   OH2  263   3.583   4.627   1.665
   86TIP3    H1  264   3.575   4.532   1.675
   86TIP3    H2  265   3.527   4.648   1.591
   87TIP3   OH2  266   5.033   4.167   1.673
   87TIP3    H1  267   5.026   4.074   1.651
   87TIP3    H2  268   4.966   4.181   1.739
   88TIP3   OH2  269   2.062   1.285   1.159
   88TIP3    H1  270   2.029   1.198   1.181
   88TIP3    H2  271   1.997   1.321   1.099
   89TIP3   OH2  272   5.148   5.937   2.432
   89TIP3    H1  273   5.183   5.851   2.410
   89TIP3    H2  274   5.219   5.998   2.414
   90TIP3   OH2  275   5.087   5.771   2.761
   90TIP3    H1  276   5.135   5.757   2.842
   90TIP3    H2  277   5.055   5.861   2.767
   91TIP3   OH2  278   2.543   5.694   2.021
   91TIP3    H1  279   2.480   5.670   1.952
   91TIP3    H2  280   2.492   5.745   2.083
   92TIP3   OH2  281   2.042   3.190   0.967
   92TIP3    H1  282   2.125   3.144   0.980
   92TIP3    H2  283   1.985   3.154   1.036
   93TIP3   OH2  284   2.481   4.007   2.793
   93TIP3    H1  285   2.558   4.060   2.814
   93TIP3    H2  286   2.415   4.070   2.766
   94TIP3   OH2  287   5.341   4.850   4.163
   94TIP3    H1  288   5.297   4.924   4.205
   94TIP3    H2  289   5.273   4.812   4.107
   95TIP3   OH2  290   3.340   4.795   1.377
   95TIP3    H1  291   3.322   4.711   1.418
   95TIP3    H2  292   3.321   4.860   1.445
   96TIP3   OH2  293   5.969   5.067   0.468
   96TIP3    H1  294   5.979   5.009   0.393
   96TIP3    H2  295   6.041   5.130   0.459
   97TIP3   OH2  296   1.263   4.282   0.308
   97TIP3    H1  297   1.263   4.194   0.344
   97TIP3    H2  298   1.225   4.273   0.221
   98TIP3   OH2  299   0.163   5.949   0.379
   98TIP3    H1  300   0.110   6.028   0.381
   98TIP3    H2  301   0.191   5.936   0.469
   99TIP3   OH2  302   2.610   1.682   3.270
   99TIP3    H1  303   2.543   1.735   3.314
   99TIP3    H2  304   2.603   1.707   3.177
  100TIP3   OH2  305   6.221   4.500   4.337
  100TIP3    H1  306   6.150   4.437   4.354
  100TIP3    H2  307   6.277   4.495   4.414
  101TIP3   OH2  308   1.366   0.738   0.979
  101TIP3    H1  309   1.436   0.784   0.932
  101TIP3    H2  310   1.413   0.683   1.042
  102TIP3   OH2  311   3.928   3.435   4.863
  102TIP3    H1  312   3.866   3.488   4.912
  102TIP3    H2  313   3.991   3.404   4.928
  103TIP3   OH2  314   1.593   5.385   2.751
  103TIP3    H1  315   1.609   5.411   2.660
  103TIP3    H2  316   1.656   5.436   2.802
  104TIP3   OH2  317   2.126   5.116   3.646
  104TIP3    H1  318   2.173   5.046   3.691
  104TIP3    H2  319   2.040   5.117   3.687
  105TIP3   OH2  320   4.288   1.783   2.181
  105TIP3    H1  321   4.364   1.842   2.186
  105TIP3    H2  322   4.320   1.707   2.134
  106TIP3   OH2  323   6.242   4.725   1.372
  106TIP3    H1  324   6.254   4.799   1.431
  106TIP3    H2  325   6.198   4.658   1.425
  107TIP3   OH2  326   5.682   1.667   4.227
  107TIP3    H1  327   5.604   1.677   4.171
  107TIP3    H2  328   5.653   1.609   4.298
  108TIP3   OH2  329   4.752   2.128   1.623
  108TIP3    H1  330   4.736   2.045   1.668
  108TIP3    H2  331   4.772   2.190   1.693
  109TIP3   OH2  332   3.201   5.675   1.594
  109TIP3    H1  333   3.217   5.608   1.527
  109TIP3    H2  334   3.126   5.724   1.561
  110TIP3   OH2  335   0.469   3.696   0.279
  110TIP3    H1  336   0.556   3.734   0.265
  110TIP3    H2  337   0.441   3.731   0.364
  111TIP3   OH2  338   0.580   4.387   1.562
  111TIP3    H1  339   0.675   4.383   1.567
  111TIP3    H2  340   0.552   4.413   1.650
  112TIP3   OH2  341   2.489   4.426   4.663
  112TIP3    H1  342   2.493   4.397   4.754
  112TIP3    H2  343   2.483   4.345   4.612
  113TIP3   OH2  344   5.897   5.630   1.803
  113TIP3    H1  345   5.975   5.686   1.798
  113TIP3    H2  346   5.912   5.562   1.737
  114TIP3   OH2  347   3.674   1.519   0.507
  114TIP3    H1  348   3.608   1.533   0.439
  114TIP3    H2  349   3.645   1.573   0.580
  115TIP3   OH2  350   4.453   3.392   4.041
  115TIP3    H1  351   4.450   3.407   3.946
  115TIP3    H2  352   4.439   3.479   4.079
  116TIP3   OH2  353   2.659   5.294   0.800
  116TIP3    H1  354   2.661   5.374   0.747
  116TIP3    H2  355   2.628   5.323   0.886
  117TIP3   OH2  356   6.159   2.069   0.662
  117TIP3    H1  357   6.108   2.089   0.741
  117TIP3    H2  358   6.206   1.989   0.684
  118TIP3   OH2  359   1.988   0.447   3.307
  118TIP3    H1  360   1.951   0.461   3.220
  118TIP3    H2  361   2.077   0.482   3.300
  119TIP3   OH2  362   0.176   5.432   2.948
  119TIP3    H1  363   0.257   5.383   2.931
  119TIP3    H2  364   0.179   5.505   2.886
  120TIP3   OH2  365   5.794   2.770   2.167
  120TIP3    H1  366   5.861   2.739   2.228
  120TIP3    H2  367   5.730   2.699   2.163
  121TIP3   OH2  368   0.575   0.641   2.382
  121TIP3    H1  369   0.594   0.727   2.421
  121TIP3    H2  370   0.479   0.637   2.381
  122TIP3   OH2  371   5.157   5.657   1.182
  122TIP3    H1  372   5.226   5.611   1.134
  122TIP3    H2  373   5.078   5.643   1.130
  123TIP3   OH2  374   3.635   5.870   0.138
  123TIP3    H1  375   3.718   5.917   0.125
  123TIP3    H2  376   3.661   5.778   0.141
  124TIP3   OH2  377   0.254   4.926   2.295
  124TIP3    H1  378   0.336   4.927   2.247
  124TIP3    H2  379   0.205   4.853   2.258
  125TIP3   OH2  380   2.854   4.184   1.302
  125TIP3    H1  381   2.854   4.203   1.396
  125TIP3    H2  382   2.936   4.223   1.270
  126TIP3   OH2  383   0.332   5.970   3.759
  126TIP3    H1  384   0.398   6.002   3.698
  126TIP3    H2  385   0.381   5.948   3.838
  127TIP3   OH2  386   0.070   4.908   4.146
  127TIP3    H1  387   0.022   4.989   4.131
  127TIP3    H2  388   0.003   4.844   4.171
  128TIP3   OH2  389   2.215   2.463   0.885
  128TIP3    H1  390   2.199   2.557   0.879
  128TIP3    H2  391   2.306   2.456   0.914
  129TIP3   OH2  392   1.143   5.258   2.703
  129TIP3    H1  393   1.058   5.215   2.697
  129TIP3    H2  394   1.122   5.352   2.708
  130TIP3   OH2  395   5.636   2.421   3.875
  130TIP3    H1  396   5.663   2.336   3.910
  130TIP3    H2  397   5.550   2.404   3.836
  131TIP3   OH2  398   0.698   3.875   5.078
  131TIP3    H1  399   0.655   3.960   5.070
  131TIP3    H2  400   0.762   3.873   5.008
  132TIP3   OH2  401   0.850   5.481   4.822
  132TIP3    H1  402   0.919   5.466   4.757
  132TIP3    H2  403   0.876   5.427   4.897
  133TIP3   OH2  404   1.443   1.854   2.344
  133TIP3    H1  405   1.484   1.770   2.363
  133TIP3    H2  406   1.490   1.917   2.399
  134TIP3   OH2  407   5.672   0.457   1.525
  134TIP3    H1  408   5.703   0.378   1.479
  134TIP3    H2  409   5.709   0.449   1.613
  135TIP3   OH2  410   2.819   0.375   2.653
  135TIP3    H1  411   2.786   0.390   2.742
  135TIP3    H2  412   2.748   0.403   2.596
  136TIP3   OH2  413   5.990   2.171   4.323
  136TIP3    H1  414   5.939   2.090   4.329
  136TIP3    H2  415   6.050   2.167   4.398
  137TIP3   OH2  416   2.638   3.302   3.317
  137TIP3    H1  417   2.654   3.236   3.384
  137TIP3    H2  418   2.718   3.302   3.265
  138TIP3   OH2  419   3.344   4.266   0.420
  138TIP3    H1  420   3.248   4.268   0.420
  138TIP3    H2  421   3.370   4.358   0.412
  139TIP3   OH2  422   6.063   0.349   2.593
  139TIP3    H1  423   5.976   0.357   2.633
  139TIP3    H2  424   6.045   0.326   2.502
  140TIP3   OH2  425   1.772   0.448   1.049
  140TIP3    H1  426   1.701   0.423   0.990
  140TIP3    H2  427   1.728   0.470   1.131
  141TIP3   OH2  428   4.900   5.013   3.023
  141TIP3    H1  429   4.881   5.082   3.086
  141TIP3    H2  430   4.967   5.050   2.965
  142TIP3   OH2  431   3.436   1.062   0.432
  142TIP3    H1  432   3.491   0.989   0.402
  142TIP3    H2  433   3.433   1.122   0.358
  143TIP3   OH2  434   2.752   5.989   0.913
  143TIP3    H1  435   2.659   6.010   0.918
  143TIP3    H2  436   2.764   5.951   0.826
  144TIP3   OH2  437   0.158   5.568   3.463
  144TIP3    H1  438   0.082   5.603   3.417
  144TIP3    H2  439   0.208   5.644   3.491
  145TIP3   OH2  440   3.790   0.622   5.030
  145TIP3    H1  441   3.859   0.558   5.017
  145TIP3    H2  442   3.749   0.631   4.944
  146TIP3   OH2  443   4.813   4.601   0.711
  146TIP3    H1  444   4.862   4.661   0.654
  146TIP3    H2  445   4.725   4.597   0.672
  147TIP3   OH2  446   6.280   2.092   3.756
  147TIP3    H1  447   6.220   2.142   3.700
  147TIP3    H2  448   6.305   2.153   3.825
  148TIP3   OH2  449   6.171   4.397   2.387
  148TIP3    H1  450   6.216   4.374   2.469
  148TIP3    H2  451   6.230   4.366   2.319
  149TIP3   OH2  452   5.503   1.366   4.107
  149TIP3    H1  453   5.573   1.347   4.168
  149TIP3    H2  454   5.461   1.281   4.091
  150TIP3   OH2  455   5.942   5.468   4.128
  150TIP3    H1  456   5.863   5.422   4.155
  150TIP3    H2  457   5.919   5.561   4.133
  151TIP3   OH2  458   3.784   0.614   1.646
  151TIP3    H1  459   3.767   0.708   1.658
  151TIP3    H2  460   3.700   0.578   1.617
  152TIP3   OH2  461   1.150   1.229   0.840
  152TIP3    H1  462   1.056   1.232   0.822
  152TIP3    H2  463   1.187   1.296   0.783
  153TIP3   OH2  464   1.099   5.235   0.911
  153TIP3    H1  465   1.093   5.331   0.914
  153TIP3    H2  466   1.175   5.217   0.855
  154TIP3   OH2  467   5.193   3.402   0.024
  154TIP3    H1  468   5.286   3.420   0.023
  154TIP3    H2  469   5.181   3.339   0.096
  155TIP3   OH2  470   3.775   4.381   0.150
  155TIP3    H1  471   3.837   4.455   0.146
  155TIP3    H2  472   3.761   4.366   0.244
  156TIP3   OH2  473   0.206   4.634   2.722
  156TIP3    H1  474   0.162   4.678   2.650
  156TIP3    H2  475   0.258   4.565   2.681
  157TIP3   OH2  476   1.816   2.964   2.391
  157TIP3    H1  477   1.829   2.876   2.424
  157TIP3    H2  478   1.897   3.011   2.414
  158TIP3   OH2  479   4.279   3.546   0.406
  158TIP3    H1  480   4.332   3.504   0.338
  158TIP3    H2  481   4.284   3.639   0.387
  159TIP3   OH2  482   5.663   0.812   2.834
  159TIP3    H1  483   5.745   0.763   2.833
  159TIP3    H2  484   5.650   0.838   2.743
  160TIP3   OH2  485   0.249   4.057   0.811
  160TIP3    H1  486   0.223   4.128   0.869
  160TIP3    H2  487   0.182   3.990   0.823
  161TIP3   OH2  488   2.232   0.390   2.783
  161TIP3    H1  489   2.139   0.396   2.763
  161TIP3    H2  490   2.275   0.391   2.697
  162TIP3   OH2  491   6.190   1.641   2.331
  162TIP3    H1  492   6.103   1.602   2.325
  162TIP3    H2  493   6.175   1.729   2.363
  163TIP3   OH2  494   2.909   2.353   2.268
  163TIP3    H1  495   2.934   2.367   2.359
  163TIP3    H2  496   2.979   2.298   2.233
  164TIP3   OH2  497   1.536   0.625   4.192
  164TIP3    H1  498   1.562   0.675   4.269
  164TIP3    H2  499   1.440   0.624   4.195
  165TIP3   OH2  500   0.507   5.631   2.468
  165TIP3    H1  501   0.558   5.638   2.387
  165TIP3    H2  502   0.489   5.721   2.493
  166TIP3   OH2  503   4.499   0.215   4.240
  166TIP3    H1  504   4.473   0.293   4.290
  166TIP3    H2  505   4.577   0.182   4.285
  167TIP3   OH2  506   4.702   0.830   2.102
  167TIP3    H1  507   4.797   0.822   2.109
  167TIP3    H2  508   4.671   0.837   2.192
  168TIP3   OH2  509   0.158   4.967   0.018
  168TIP3    H1  510   0.161   4.908  -0.057
  168TIP3    H2  511   0.233   4.943   0.071
  169TIP3   OH2  512   3.363   5.957   2.868
  169TIP3    H1  513   3.359   5.963   2.963
  169TIP3    H2  514   3.317   5.875   2.847
  170TIP3   OH2  515   0.049   4.416   4.153
  170TIP3    H1  516  -0.008   4.480   4.197
  170TIP3    H2  517   0.133   4.461   4.145
  171TIP3   OH2  518   3.082   4.217   0.421
  171TIP3    H1  519   3.083   4.202   0.327
  171TIP3    H2  520   3.008   4.276   0.435
  172TIP3   OH2  521   3.363   4.914   3.388
  172TIP3    H1  522   3.309   4.847   3.347
  172TIP3    H2  523   3.443   4.915   3.335
  173TIP3   OH2  524   1.715   0.766   0.098
  173TIP3    H1  525   1.760   0.764   0.013
  173TIP3    H2  526   1.719   0.857   0.126
  174TIP3   OH2  527   5.696   3.548   4.757
  174TIP3    H1  528   5.627   3.566   4.821
  174TIP3    H2  529   5.656   3.485   4.697
  175TIP3   OH2  530   3.626   2.408   3.563
  175TIP3    H1  531   3.604   2.427   3.472
  175TIP3    H2  532   3.715   2.373   3.560
  176TIP3   OH2  533   3.505   2.665   0.269
  176TIP3    H1  534   3.464   2.583   0.244
  176TIP3    H2  535   3.543   2.648   0.355
  177TIP3   OH2  536   3.880   4.357   1.065
  177TIP3    H1  537   3.815   4.366   0.996
  177TIP3    H2  538   3.839   4.297   1.128
  178TIP3   OH2  539   1.322   2.792   5.142
  178TIP3    H1  540   1.398   2.798   5.200
  178TIP3    H2  541   1.347   2.725   5.078
  179TIP3   OH2  542   6.216   4.932   2.681
  179TIP3    H1  543   6.263   5.006   2.642
  179TIP3    H2  544   6.195   4.960   2.770
  180TIP3   OH2  545   5.017   2.398   4.249
  180TIP3    H1  546   5.022   2.398   4.153
  180TIP3    H2  547   5.006   2.307   4.273
  181TIP3   OH2  548   4.301   3.877   2.511
  181TIP3    H1  549   4.368   3.811   2.529
  181TIP3    H2  550   4.339   3.933   2.444
  182TIP3   OH2  551   3.524   2.326   4.839
  182TIP3    H1  552   3.573   2.408   4.836
  182TIP3    H2  553   3.565   2.271   4.773
  183TIP3   OH2  554   3.668   2.163   4.658
  183TIP3    H1  555   3.701   2.074   4.664
  183TIP3    H2  556   3.719   2.203   4.587
  184TIP3   OH2  557   4.312   0.425   4.717
  184TIP3    H1  558   4.348   0.407   4.804
  184TIP3    H2  559   4.221   0.395   4.723
  185TIP3   OH2  560   3.918   5.431   0.867
  185TIP3    H1  561   3.997   5.462   0.911
  185TIP3    H2  562   3.851   5.427   0.936
  186TIP3   OH2  563   3.451   4.744   1.900
  186TIP3    H1  564   3.507   4.800   1.954
  186TIP3    H2  565   3.512   4.687   1.854
  187TIP3   OH2  566   0.696   3.236   5.096
  187TIP3    H1  567   0.777   3.196   5.128
  187TIP3    H2  568   0.661   3.173   5.033
  188TIP3   OH2  569   1.521   3.466   3.061
  188TIP3    H1  570   1.583   3.481   2.989
  188TIP3    H2  571   1.573   3.424   3.129
  189TIP3   OH2  572   1.320   2.205   1.198
  189TIP3    H1  573   1.240   2.241   1.236
  189TIP3    H2  574   1.315   2.111   1.214
  190TIP3   OH2  575   2.566   5.942   0.195
  190TIP3    H1  576   2.617   5.897   0.129
  190TIP3    H2  577   2.507   5.999   0.146
  191TIP3   OH2  578   5.906   1.929   3.134
  191TIP3    H1  579   5.915   1.844   3.090
  191TIP3    H2  580   5.995   1.963   3.141
  192TIP3   OH2  581   5.995   0.629   3.410
  192TIP3    H1  582   5.950   0.566   3.466
  192TIP3    H2  583   6.082   0.638   3.448
  193TIP3   OH2  584   2.230   2.870   0.154
  193TIP3    H1  585   2.193   2.786   0.125
  193TIP3    H2  586   2.177   2.936   0.110
  194TIP3   OH2  587   0.215   1.605   1.994
  194TIP3    H1  588   0.262   1.595   2.077
  194TIP3    H2  589   0.255   1.540   1.937
  195TIP3   OH2  590   4.301   2.808   0.117
  195TIP3    H1  591   4.365   2.879   0.109
  195TIP3    H2  592   4.216   2.853   0.123
  196TIP3   OH2  593   5.798   5.574   3.333
  196TIP3    H1  594   5.749   5.509   3.284
  196TIP3    H2  595   5.848   5.524   3.396
  197TIP3   OH2  596   3.306   5.362   0.895
  197TIP3    H1  597   3.373   5.302   0.861
  197TIP3    H2  598   3.223   5.327   0.862
  198TIP3   OH2  599   5.969   0.904   1.276
  198TIP3    H1  600   5.929   0.972   1.222
  198TIP3    H2  601   5.905   0.887   1.345
  199TIP3   OH2  602   3.015   4.085   3.419
  199TIP3    H1  603   2.996   3.991   3.413
  199TIP3    H2  604   3.093   4.090   3.474
  200TIP3   OH2  605   4.924   4.413   1.257
  200TIP3    H1  606   4.999   4.375   1.301
  200TIP3    H2  607   4.916   4.362   1.176
  201TIP3   OH2  608   0.000   3.355   2.871
  201TIP3    H1  609   0.004   3.451   2.870
  201TIP3    H2  610   0.085   3.328   2.837
  202TIP3   OH2  611   2.291   5.683   2.770
  202TIP3    H1  612   2.295   5.734   2.689
  202TIP3    H2  613   2.213   5.629   2.759
  203TIP3   OH2  614   1.792   3.610   4.237
  203TIP3    H1  615   1.879   3.620   4.199
  203TIP3    H2  616   1.783   3.685   4.295
  204TIP3   OH2  617   0.587   5.871   2.847
  204TIP3    H1  618   0.542   5.954   2.863
  204TIP3    H2  619   0.679   5.890   2.866
  205TIP3   OH2  620   3.957   1.339   2.937
  205TIP3    H1  621   3.957   1.361   3.030
  205TIP3    H2  622   3.909   1.410   2.895
  206TIP3   OH2  623   1.901   1.816   3.449
  206TIP3    H1  624   1.986   1.840   3.487
  206TIP3    H2  625   1.847   1.894   3.459
  207TIP3   OH2  626   0.808   2.364   0.647
  207TIP3    H1  627   0.800   2.270   0.627
  207TIP3    H2  628   0.835   2.366   0.739
  208TIP3   OH2  629   4.579   1.523   2.961
  208TIP3    H1  630   4.603   1.564   3.044
  208TIP3    H2  631   4.586   1.593   2.897
  209TIP3   OH2  632   4.602   3.811   4.961
  209TIP3    H1  633   4.537   3.836   5.026
  209TIP3    H2  634   4.574   3.856   4.881
  210TIP3   OH2  635   5.281   4.838   3.575
  210TIP3    H1  636   5.198   4.833   3.527
  210TIP3    H2  637   5.330   4.907   3.530
  211TIP3   OH2  638   6.329   2.211   0.502
  211TIP3    H1  639   6.291   2.164   0.577
  211TIP3    H2  640   6.309   2.155   0.427
  212TIP3   OH2  641   0.239   0.013   4.947
  212TIP3    H1  642   0.309   0.066   4.909
  212TIP3    H2  643   0.262   0.006   5.040
  213TIP3   OH2  644   1.969   1.139   4.492
  213TIP3    H1  645   2.013   1.069   4.540
  213TIP3    H2  646   1.879   1.108   4.481
  214TIP3   OH2  647   2.662   2.458   3.215
  214TIP3    H1  648   2.758   2.457   3.222
  214TIP3    H2  649   2.642   2.385   3.156
  215TIP3   OH2  650   1.064   2.688   3.494
  215TIP3    H1  651   1.056   2.763   3.553
  215TIP3    H2  652   1.002   2.707   3.423
  216TIP3   OH2  653   0.173   2.805   4.402
  216TIP3    H1  654   0.195   2.718   4.369
  216TIP3    H2  655   0.253   2.856   4.388
  217TIP3   OH2  656   5.585   2.999   0.813
  217TIP3    H1  657   5.638   3.078   0.829
  217TIP3    H2  658   5.607   2.973   0.724
  218TIP3   OH2  659   1.781   2.627   2.969
  218TIP3    H1  660   1.814   2.608   3.057
  218TIP3    H2  661   1.721   2.555   2.950
  219TIP3   OH2  662   3.789   3.586   2.014
  219TIP3    H1  663   3.781   3.561   2.106
  219TIP3    H2  664   3.722   3.536   1.969
  220TIP3   OH2  665   6.313   4.453   4.588
  220TIP3    H1  666   6.339   4.484   4.675
  220TIP3    H2  667   6.394   4.420   4.549
  221TIP3   OH2  668   3.992   4.703   1.012
  221TIP3    H1  669   3.943   4.652   0.947
  221TIP3    H2  670   3.926   4.758   1.054
  222TIP3   OH2  671   6.179   4.673   0.885
  222TIP3    H1  672   6.086   4.668   0.906
  222TIP3    H2  673   6.205   4.761   0.913
  223TIP3   OH2  674   1.388   4.522   0.405
  223TIP3    H1  675   1.463   4.478   0.445
  223TIP3    H2  676   1.336   4.452   0.366
  224TIP3   OH2  677   2.955   1.874   1.122
  224TIP3    H1  678   2.893   1.881   1.195
  224TIP3    H2  679   2.912   1.816   1.059
  225TIP3   OH2  680   1.716   0.599   5.138
  225TIP3    H1  681   1.728   0.506   5.155
  225TIP3    H2  682   1.669   0.602   5.054
  226TIP3   OH2  683   2.595   3.545   0.760
  226TIP3    H1  684   2.526   3.602   0.726
  226TIP3    H2  685   2.639   3.597   0.827
  227TIP3   OH2  686   1.927   2.788   2.829
  227TIP3    H1  687   1.937   2.859   2.893
  227TIP3    H2  688   1.856   2.734   2.864
  228TIP3   OH2  689   2.577   5.849   3.664
  228TIP3    H1  690   2.526   5.795   3.724
  228TIP3    H2  691   2.551   5.939   3.682
  229TIP3   OH2  692   2.611   2.597   1.764
  229TIP3    H1  693   2.673   2.524   1.757
  229TIP3    H2  694   2.665   2.675   1.767
  230TIP3   OH2  695   0.560   3.163   1.036
  230TIP3    H1  696   0.592   3.217   0.963
  230TIP3    H2  697   0.628   3.096   1.047
  231TIP3   OH2  698   4.892   5.694   3.544
  231TIP3    H1  699   4.865   5.742   3.465
  231TIP3    H2  700   4.860   5.747   3.617
  232TIP3   OH2  701   3.507   1.915   0.804
  232TIP3    H1  702   3.570   1.892   0.736
  232TIP3    H2  703   3.529   1.858   0.878
  233TIP3   OH2  704   5.310   5.459   1.287
  233TIP3    H1  705   5.222   5.497   1.286
  233TIP3    H2  706   5.341   5.469   1.197
  234TIP3   OH2  707   0.666   1.709   0.797
  234TIP3    H1  708   0.589   1.716   0.853
  234TIP3    H2  709   0.633   1.725   0.709
  235TIP3   OH2  710   4.048   1.612   0.197
  235TIP3    H1  711   4.111   1.643   0.133
  235TIP3    H2  712   4.040   1.518   0.181
  236TIP3   OH2  713   4.468   0.545   1.241
  236TIP3    H1  714   4.419   0.627   1.247
  236TIP3    H2  715   4.535   0.563   1.175
  237TIP3   OH2  716   4.884   0.310   0.901
  237TIP3    H1  717   4.833   0.343   0.827
  237TIP3    H2  718   4.819   0.282   0.965
  238TIP3   OH2  719   4.295   4.177   2.357
  238TIP3    H1  720   4.317   4.145   2.444
  238TIP3    H2  721   4.356   4.249   2.342
  239TIP3   OH2  722   0.144   3.751   4.391
  239TIP3    H1  723   0.050   3.763   4.400
  239TIP3    H2  724   0.177   3.748   4.481
  240TIP3   OH2  725   2.391   2.454   1.752
  240TIP3    H1  726   2.345   2.472   1.670
  240TIP3    H2  727   2.467   2.511   1.750
  241TIP3   OH2  728   3.384   4.554   2.963
  241TIP3    H1  729   3.380   4.646   2.939
  241TIP3    H2  730   3.316   4.512   2.911
  242TIP3   OH2  731   1.905   4.262   2.875
  242TIP3    H1  732   1.900   4.307   2.791
  242TIP3    H2  733   1.963   4.187   2.858
  243TIP3   OH2  734   4.173   4.568   1.875
  243TIP3    H1  735   4.078   4.583   1.880
  243TIP3    H2  736   4.209   4.617   1.949
  244TIP3   OH2  737   4.906   3.543   2.799
  244TIP3    H1  738   4.979   3.542   2.736
  244TIP3    H2  739   4.918   3.624   2.849
  245TIP3   OH2  740   4.419   1.705   4.543
  245TIP3    H1  741   4.348   1.725   4.482
  245TIP3    H2  742   4.475   1.784   4.542
  246TIP3   OH2  743   0.028   4.637   4.797
  246TIP3    H1  744   0.104   4.687   4.826
  246TIP3    H2  745  -0.040   4.703   4.783
  247TIP3   OH2  746   3.208   2.981   1.659
  247TIP3    H1  747   3.120   3.018   1.665
  247TIP3    H2  748   3.196   2.888   1.678
  248TIP3   OH2  749   3.517   4.231   1.963
  248TIP3    H1  750   3.579   4.260   1.897
  248TIP3    H2  751   3.529   4.136   1.967
  249TIP3   OH2  752   5.139   0.219   2.397
  249TIP3    H1  753   5.134   0.310   2.367
  249TIP3    H2  754   5.233   0.202   2.405
  250TIP3   OH2  755   3.079   5.846   0.659
  250TIP3    H1  756   3.048   5.810   0.741
  250TIP3    H2  757   3.126   5.774   0.617
  251TIP3   OH2  758   6.316   0.024   1.709
  251TIP3    H1  759   6.245   0.065   1.758
  251TIP3    H2  760   6.303   0.053   1.619
  252TIP3   OH2  761   5.099   4.312   3.247
  252TIP3    H1  762   5.045   4.237   3.275
  252TIP3    H2  763   5.172   4.313   3.308
  253TIP3   OH2  764   2.847   5.572   4.626
  253TIP3    H1  765   2.883   5.581   4.715
  253TIP3    H2  766   2.790   5.648   4.616
  254TIP3   OH2  767   2.115   4.931   1.461
  254TIP3    H1  768   2.166   4.874   1.517
  254TIP3    H2  769   2.070   4.990   1.521
  255TIP3   OH2  770   2.867   3.184   3.162
  255TIP3    H1  771   2.923   3.232   3.222
  255TIP3    H2  772   2.887   3.221   3.076
  256TIP3   OH2  773   2.935   1.828   3.796
  256TIP3    H1  774   2.899   1.807   3.710
  256TIP3    H2  775   3.029   1.842   3.780
  257TIP3   OH2  776   0.100   3.092   3.066
  257TIP3    H1  777   0.063   3.134   2.988
  257TIP3    H2  778   0.028   3.037   3.098
  258TIP3   OH2  779   5.642   1.652   1.073
  258TIP3    H1  780   5.667   1.682   1.160
  258TIP3    H2  781   5.546   1.650   1.074
  259TIP3   OH2  782   2.909   5.702   3.078
  259TIP3    H1  783   2.823   5.684   3.041
  259TIP3    H2  784   2.928   5.793   3.054
  260TIP3   OH2  785   0.705   1.057   4.107
  260TIP3    H1  786   0.730   1.096   4.190
  260TIP3    H2  787   0.615   1.085   4.092
  261TIP3   OH2  788   2.533   4.842   3.031
  261TIP3    H1  789   2.504   4.777   3.095
  261TIP3    H2  790   2.591   4.792   2.972
  262TIP3   OH2  791   2.807   4.859   3.521
  262TIP3    H1  792   2.873   4.790   3.515
  262TIP3    H2  793   2.757   4.838   3.599
  263TIP3   OH2  794   4.908   4.239   2.518
  263TIP3    H1  795   4.907   4.221   2.424
  263TIP3    H2  796   4.849   4.313   2.529
  264TIP3   OH2  797   1.033   3.882   0.659
  264TIP3    H1  798   0.993   3.846   0.580
  264TIP3    H2  799   0.975   3.953   0.686
  265TIP3   OH2  800   3.426   2.411   0.756
  265TIP3    H1  801   3.334   2.394   0.732
  265TIP3    H2  802   3.462   2.325   0.776
  266TIP3   OH2  803   2.623   4.652   4.696
  266TIP3    H1  804   2.601   4.663   4.789
  266TIP3    H2  805   2.595   4.563   4.676
  267TIP3   OH2  806   4.284   0.364   1.311
  267TIP3    H1  807   4.358   0.421   1.289
  267TIP3    H2  808   4.322   0.277   1.319
  268TIP3   OH2  809   4.019   1.199   4.735
  268TIP3    H1  810   4.080   1.175   4.805
  268TIP3    H2  811   3.941   1.232   4.780
  269TIP3   OH2  812   2.268   5.899   3.550
  269TIP3    H1  813   2.275   5.831   3.484
  269TIP3    H2  814   2.288   5.980   3.503
  270TIP3   OH2  815   4.597   4.913   3.938
  270TIP3    H1  816   4.640   4.827   3.939
  270TIP3    H2  817   4.544   4.914   4.018
  271TIP3   OH2  818   2.907   5.661   0.322
  271TIP3    H1  819   2.852   5.667   0.244
  271TIP3    H2  820   2.983   5.715   0.301
  272TIP3   OH2  821   0.899   4.922   3.900
  272TIP3    H1  822   0.905   5.014   3.926
  272TIP3    H2  823   0.961   4.877   3.958
  273TIP3   OH2  824   0.586   1.702   5.100
  273TIP3    H1  825   0.573   1.654   5.019
  273TIP3    H2  826   0.680   1.697   5.116
  274TIP3   OH2  827   1.043   5.450   4.013
  274TIP3    H1  828   0.962   5.426   4.058
  274TIP3    H2  829   1.041   5.546   4.010
  275TIP3   OH2  830   5.090   4.149   0.007
  275TIP3    H1  831   5.040   4.089  -0.048
  275TIP3    H2  832   5.028   4.177   0.075
  276TIP3   OH2  833   3.721   4.037   2.249
  276TIP3    H1  834   3.764   4.122   2.243
  276TIP3    H2  835   3.706   4.011   2.158
  277TIP3   OH2  836   0.342   5.383   5.045
  277TIP3    H1  837   0.397   5.462   5.045
  277TIP3    H2  838   0.269   5.405   4.988
  278TIP3   OH2  839   0.376   4.695   0.506
  278TIP3    H1  840   0.317   4.688   0.581
  278TIP3    H2  841   0.318   4.692   0.430
  279TIP3   OH2  842   2.074   5.338   2.439
  279TIP3    H1  843   2.071   5.433   2.427
  279TIP3    H2  844   1.984   5.309   2.424
  280TIP3   OH2  845   0.665   0.968   1.981
  280TIP3    H1  846   0.578   0.936   2.004
  280TIP3    H2  847   0.650   1.027   1.907
  281TIP3   OH2  848   2.275   1.818  -0.007
  281TIP3    H1  849   2.360   1.860   0.008
  281TIP3    H2  850   2.212   1.877   0.034
  282TIP3   OH2  851   1.824   2.872   4.547
  282TIP3    H1  852   1.797   2.946   4.492
  282TIP3    H2  853   1.832   2.799   4.486
  283TIP3   OH2  854   5.907   2.380   4.841
  283TIP3    H1  855   5.853   2.330   4.902
  283TIP3    H2  856   5.995   2.375   4.877
  284TIP3   OH2  857   2.783   4.221   5.050
  284TIP3    H1  858   2.728   4.144   5.038
  284TIP3    H2  859   2.807   4.220   5.142
  285TIP3   OH2  860   5.720   4.067   3.332
  285TIP3    H1  861   5.672   3.994   3.292
  285TIP3    H2  862   5.803   4.070   3.284
  286TIP3   OH2  863   4.683   2.695   2.693
  286TIP3    H1  864   4.771   2.682   2.727
  286TIP3    H2  865   4.629   2.630   2.738
  287TIP3   OH2  866   6.216   5.976   3.251
  287TIP3    H1  867   6.132   5.942   3.221
  287TIP3    H2  868   6.260   5.901   3.290
  288TIP3   OH2  869   5.731   1.727   0.811
  288TIP3    H1  870   5.728   1.702   0.904
  288TIP3    H2  871   5.720   1.822   0.812
  289TIP3   OH2  872   5.255   1.971   1.861
  289TIP3    H1  873   5.184   1.988   1.800
  289TIP3    H2  874   5.312   1.909   1.816
  290TIP3   OH2  875   0.282   2.091   3.079
  290TIP3    H1  876   0.311   2.019   3.134
  290TIP3    H2  877   0.330   2.078   2.996
  291TIP3   OH2  878   3.599   2.945   3.598
  291TIP3    H1  879   3.593   3.039   3.612
  291TIP3    H2  880   3.689   2.932   3.566
  292TIP3   OH2  881   5.179   4.509   1.081
  292TIP3    H1  882   5.093   4.496   1.040
  292TIP3    H2  883   5.234   4.441   1.042
  293TIP3   OH2  884   0.969   2.418   4.738
  293TIP3    H1  885   0.901   2.404   4.803
  293TIP3    H2  886   1.036   2.470   4.784
  294TIP3   OH2  887   4.805   5.552   1.876
  294TIP3    H1  888   4.846   5.638   1.874
  294TIP3    H2  889   4.735   5.558   1.811
  295TIP3   OH2  890   1.374   0.271   4.071
  295TIP3    H1  891   1.321   0.321   4.132
  295TIP3    H2  892   1.321   0.194   4.050
  296TIP3   OH2  893   6.368   3.181   4.379
  296TIP3    H1  894   6.292   3.217   4.424
  296TIP3    H2  895   6.391   3.102   4.428
  297TIP3   OH2  896   1.581   2.741   0.634
  297TIP3    H1  897   1.525   2.775   0.564
  297TIP3    H2  898   1.538   2.661   0.663
  298TIP3   OH2  899   1.458   1.797   0.393
  298TIP3    H1  900   1.482   1.832   0.479
  298TIP3    H2  901   1.514   1.720   0.382
  299TIP3   OH2  902   1.888   4.749   2.829
  299TIP3    H1  903   1.979   4.745   2.860
  299TIP3    H2  904   1.861   4.840   2.846
  300TIP3   OH2  905   2.527   3.502   1.910
  300TIP3    H1  906   2.553   3.453   1.833
  300TIP3    H2  907   2.444   3.543   1.887
  301TIP3   OH2  908   2.390   5.415   2.435
  301TIP3    H1  909   2.343   5.445   2.357
  301TIP3    H2  910   2.336   5.343   2.469
  302TIP3   OH2  911   4.443   5.240   1.740
  302TIP3    H1  912   4.523   5.261   1.788
  302TIP3    H2  913   4.416   5.155   1.775
  303TIP3   OH2  914   1.089   5.182   3.926
  303TIP3    H1  915   1.130   5.124   3.990
  303TIP3    H2  916   1.062   5.258   3.976
  304TIP3   OH2  917   2.226   5.817   4.558
  304TIP3    H1  918   2.243   5.902   4.599
  304TIP3    H2  919   2.203   5.760   4.631
  305TIP3   OH2  920   3.821   3.073   1.430
  305TIP3    H1  921   3.823   3.059   1.525
  305TIP3    H2  922   3.751   3.017   1.399
  306TIP3   OH2  923   0.032   5.391   2.482
  306TIP3    H1  924   0.008   5.451   2.553
  306TIP3    H2  925   0.120   5.417   2.457
  307TIP3   OH2  926   5.398   5.607   0.427
  307TIP3    H1  927   5.357   5.556   0.497
  307TIP3    H2  928   5.361   5.571   0.346
  308TIP3   OH2  929   3.226   5.098   3.227
  308TIP3    H1  930   3.283   5.076   3.301
  308TIP3    H2  931   3.139   5.070   3.255
  309TIP3   OH2  932   4.446   5.872   3.837
  309TIP3    H1  933   4.440   5.828   3.922
  309TIP3    H2  934   4.354   5.882   3.809
  310TIP3   OH2  935   0.365   0.094   4.204
  310TIP3    H1  936   0.364   0.128   4.293
  310TIP3    H2  937   0.438   0.138   4.161
  311TIP3   OH2  938   1.620   0.584   1.592
  311TIP3    H1  939   1.531   0.601   1.622
  311TIP3    H2  940   1.645   0.663   1.544
  312TIP3   OH2  941   0.706   5.360   0.857
  312TIP3    H1  942   0.650   5.433   0.884
  312TIP3    H2  943   0.701   5.360   0.761
  313TIP3   OH2  944   4.125   0.921   3.390
  313TIP3    H1  945   4.105   0.982   3.319
  313TIP3    H2  946   4.221   0.921   3.396
  314TIP3   OH2  947   0.406   0.246   1.801
  314TIP3    H1  948   0.449   0.161   1.803
  314TIP3    H2  949   0.460   0.302   1.858
  315TIP3   OH2  950   3.128   5.324   5.060
  315TIP3    H1  951   3.067   5.391   5.092
  315TIP3    H2  952   3.179   5.367   4.992
  316TIP3   OH2  953   1.999   3.632   0.441
  316TIP3    H1  954   1.959   3.638   0.528
  316TIP3    H2  955   1.933   3.669   0.382
  317TIP3   OH2  956   2.318   2.266   0.184
  317TIP3    H1  957   2.307   2.187   0.131
  317TIP3    H2  958   2.403   2.301   0.157
  318TIP3   OH2  959   2.317   5.186   3.162
  318TIP3    H1  960   2.297   5.106   3.113
  318TIP3    H2  961   2.280   5.256   3.108
  319TIP3   OH2  962   5.688   5.447   2.703
  319TIP3    H1  963   5.733   5.366   2.724
  319TIP3    H2  964   5.706   5.461   2.610
  320TIP3   OH2  965   2.061   2.724   4.774
  320TIP3    H1  966   2.131   2.674   4.732
  320TIP3    H2  967   1.980   2.680   4.745
  321TIP3   OH2  968   0.228   0.831   3.954
  321TIP3    H1  969   0.231   0.907   3.896
  321TIP3    H2  970   0.305   0.779   3.929
  322TIP3   OH2  971   3.007   0.565   0.520
  322TIP3    H1  972   2.921   0.606   0.513
  322TIP3    H2  973   3.067   0.629   0.483
  323TIP3   OH2  974   1.627   1.657   5.122
  323TIP3    H1  975   1.549   1.668   5.176
  323TIP3    H2  976   1.612   1.713   5.045
  324TIP3   OH2  977   5.345   4.791   0.334
  324TIP3    H1  978   5.280   4.862   0.330
  324TIP3    H2  979   5.428   4.833   0.313
  325TIP3   OH2  980   4.663   3.956   0.034
  325TIP3    H1  981   4.750   3.973  -0.001
  325TIP3    H2  982   4.660   4.003   0.117
  326TIP3   OH2  983   0.983   2.356   4.112
  326TIP3    H1  984   0.891   2.358   4.136
  326TIP3    H2  985   1.023   2.297   4.175
  327TIP3   OH2  986   2.649   3.300   4.108
  327TIP3    H1  987   2.632   3.221   4.160
  327TIP3    H2  988   2.566   3.317   4.063
  328TIP3   OH2  989   5.339   0.396   0.712
  328TIP3    H1  990   5.382   0.311   0.712
  328TIP3    H2  991   5.255   0.381   0.668
  329TIP3   OH2  992   2.939   2.871   1.131
  329TIP3    H1  993   2.956   2.859   1.224
  329TIP3    H2  994   2.969   2.960   1.113
  330TIP3   OH2  995   3.577   3.726   4.697
  330TIP3    H1  996   3.659   3.696   4.734
  330TIP3    H2  997   3.517   3.652   4.709
  331TIP3   OH2  998   4.128   4.610   4.823
  331TIP3    H1  999   4.059   4.672   4.845
  331TIP3    H2 1000   4.135   4.553   4.900
  332TIP3   OH2 1001   2.065   4.017   0.602
  332TIP3    H1 1002   2.039   4.103   0.636
  332TIP3    H2 1003   1.999   3.997   0.535
  333TIP3   OH2 1004   4.879   0.502   1.380
  333TIP3    H1 1005   4.971   0.486   1.401
  333TIP3    H2 1006   4.835   0.419   1.400
  334TIP3   OH2 1007   0.671   4.466   0.777
  334TIP3    H1 1008   0.702   4.500   0.861
  334TIP3    H2 1009   0.610   4.532   0.746
  335TIP3   OH2 1010   0.596   5.922   1.782
  335TIP3    H1 1011   0.568   5.976   1.855
  335TIP3    H2 1012   0.524   5.928   1.719
  336TIP3   OH2 1013   4.482   4.149   3.047
  336TIP3    H1 1014   4.499   4.168   2.955
  336TIP3    H2 1015   4.513   4.059   3.060
  337TIP3   OH2 1016   1.803   3.453   0.053
  337TIP3    H1 1017   1.723   3.401   0.062
  337TIP3    H2 1018   1.838   3.458   0.142
  338TIP3   OH2 1019   5.168   3.038   4.548
  338TIP3    H1 1020   5.180   3.097   4.474
  338TIP3    H2 1021   5.076   3.012   4.543
  339TIP3   OH2 1022   1.847   5.027   2.828
  339TIP3    H1 1023   1.888   5.089   2.889
  339TIP3    H2 1024   1.753   5.040   2.841
  340TIP3   OH2 1025   4.796   5.343   3.142
  340TIP3    H1 1026   4.877   5.383   3.110
  340TIP3    H2 1027   4.792   5.367   3.235
  341TIP3   OH2 1028   4.116   1.274   3.421
  341TIP3    H1 1029   4.160   1.214   3.360
  341TIP3    H2 1030   4.023   1.256   3.409
  342TIP3   OH2 1031   4.826   5.945   3.837
  342TIP3    H1 1032   4.826   5.919   3.929
  342TIP3    H2 1033   4.788   5.870   3.792
  343TIP3   OH2 1034   4.282   0.250   4.029
  343TIP3    H1 1035   4.365   0.289   4.057
  343TIP3    H2 1036   4.259   0.299   3.950
  344TIP3   OH2 1037   0.026   3.018   2.685
  344TIP3    H1 1038   0.101   3.047   2.738
  344TIP3    H2 1039   0.023   2.924   2.697
  345TIP3   OH2 1040   6.065   3.561   4.013
  345TIP3    H1 1041   6.160   3.559   4.010
  345TIP3    H2 1042   6.040   3.611   3.935
  346TIP3   OH2 1043   5.703   3.614   2.149
  346TIP3    H1 1044   5.652   3.665   2.211
  346TIP3    H2 1045   5.723   3.532   2.194
  347TIP3   OH2 1046   5.192   5.415   4.166
  347TIP3    H1 1047   5.133   5.413   4.091
  347TIP3    H2 1048   5.264   5.357   4.141
  348TIP3   OH2 1049   2.456   5.690   3.843
  348TIP3    H1 1050   2.535   5.690   3.898
  348TIP3    H2 1051   2.393   5.638   3.893
  349TIP3   OH2 1052   5.647   4.652   0.408
  349TIP3    H1 1053   5.631   4.736   0.365
  349TIP3    H2 1054   5.742   4.641   0.405
  350TIP3   OH2 1055   0.701   5.093   1.816
  350TIP3    H1 1056   0.733   5.013   1.858
  350TIP3    H2 1057   0.674   5.149   1.888
  351TIP3   OH2 1058   4.024   4.829   0.645
  351TIP3    H1 1059   4.086   4.815   0.717
  351TIP3    H2 1060   4.012   4.924   0.642
  352TIP3   OH2 1061   0.016   1.075   0.712
  352TIP3    H1 1062   0.051   1.077   0.801
  352TIP3    H2 1063   0.058   1.149   0.669
  353TIP3   OH2 1064   2.156   5.936   2.497
  353TIP3    H1 1065   2.206   5.855   2.495
  353TIP3    H2 1066   2.190   5.984   2.572
  354TIP3   OH2 1067   4.213   5.208   3.828
  354TIP3    H1 1068   4.169   5.178   3.908
  354TIP3    H2 1069   4.160   5.282   3.798
  355TIP3   OH2 1070   3.148   3.929   2.972
  355TIP3    H1 1071   3.063   3.936   3.015
  355TIP3    H2 1072   3.207   3.898   3.041
  356TIP3   OH2 1073   0.858   5.449   2.357
  356TIP3    H1 1074   0.865   5.375   2.418
  356TIP3    H2 1075   0.914   5.425   2.284
  357TIP3   OH2 1076   3.255   0.038   2.138
  357TIP3    H1 1077   3.218   0.124   2.119
  357TIP3    H2 1078   3.179  -0.020   2.141
  358TIP3   OH2 1079   2.675   4.510   1.405
  358TIP3    H1 1080   2.658   4.566   1.329
  358TIP3    H2 1081   2.604   4.445   1.403
  359TIP3   OH2 1082   6.014   1.540   2.749
  359TIP3    H1 1083   5.973   1.543   2.663
  359TIP3    H2 1084   6.106   1.562   2.733
  360TIP3   OH2 1085   3.204   0.049   1.144
  360TIP3    H1 1086   3.285   0.100   1.132
  360TIP3    H2 1087   3.229  -0.040   1.119
  361TIP3   OH2 1088   3.878   1.586   0.902
  361TIP3    H1 1089   3.877   1.505   0.852
  361TIP3    H2 1090   3.947   1.639   0.862
  362TIP3   OH2 1091   3.921   2.214   1.008
  362TIP3    H1 1092   4.007   2.252   1.027
  362TIP3    H2 1093   3.860   2.262   1.063
  363TIP3   OH2 1094   5.282   1.189   4.839
  363TIP3    H1 1095   5.233   1.189   4.757
  363TIP3    H2 1096   5.352   1.125   4.826
  364TIP3   OH2 1097   2.880   1.276   2.849
  364TIP3    H1 1098   2.877   1.195   2.901
  364TIP3    H2 1099   2.874   1.346   2.913
  365TIP3   OH2 1100   0.056   3.178   0.269
  365TIP3    H1 1101   0.017   3.091   0.275
  365TIP3    H2 1102  -0.020   3.237   0.263
  366TIP3   OH2 1103   2.190   4.205   1.143
  366TIP3    H1 1104   2.158   4.120   1.174
  366TIP3    H2 1105   2.136   4.269   1.190
  367TIP3   OH2 1106   0.741   0.783   3.320
  367TIP3    H1 1107   0.743   0.717   3.389
  367TIP3    H2 1108   0.832   0.815   3.315
  368TIP3   OH2 1109   2.407   2.149   3.644
  368TIP3    H1 1110   2.435   2.162   3.735
  368TIP3    H2 1111   2.342   2.079   3.649
  369TIP3   OH2 1112   5.872   5.138   0.116
  369TIP3    H1 1113   5.931   5.063   0.127
  369TIP3    H2 1114   5.861   5.147   0.022
  370TIP3   OH2 1115   5.172   5.460   5.003
  370TIP3    H1 1116   5.208   5.538   5.043
  370TIP3    H2 1117   5.230   5.441   4.930
  371TIP3   OH2 1118   2.855   0.427   3.741
  371TIP3    H1 1119   2.853   0.481   3.662
  371TIP3    H2 1120   2.945   0.435   3.773
  372TIP3   OH2 1121   5.609   0.522   2.775
  372TIP3    H1 1122   5.605   0.615   2.752
  372TIP3    H2 1123   5.613   0.522   2.871
  373TIP3   OH2 1124   1.751   1.642   0.738
  373TIP3    H1 1125   1.799   1.564   0.764
  373TIP3    H2 1126   1.805   1.683   0.671
  374TIP3   OH2 1127   1.283   2.511   1.548
  374TIP3    H1 1128   1.331   2.445   1.597
  374TIP3    H2 1129   1.344   2.584   1.539
  375TIP3   OH2 1130   6.080   1.225   0.153
  375TIP3    H1 1131   6.100   1.312   0.187
  375TIP3    H2 1132   6.138   1.166   0.202
  376TIP3   OH2 1133   3.059   0.235   4.060
  376TIP3    H1 1134   3.052   0.285   3.979
  376TIP3    H2 1135   3.118   0.286   4.115
  377TIP3   OH2 1136   4.158   1.747   5.113
  377TIP3    H1 1137   4.211   1.791   5.046
  377TIP3    H2 1138   4.218   1.684   5.153
  378TIP3   OH2 1139  -0.030   3.702   4.069
  378TIP3    H1 1140   0.052   3.671   4.108
  378TIP3    H2 1141  -0.018   3.796   4.058
  379TIP3   OH2 1142   4.845   3.776   0.179
  379TIP3    H1 1143   4.930   3.740   0.155
  379TIP3    H2 1144   4.812   3.815   0.098
  380TIP3   OH2 1145   2.021   0.998   1.195
  380TIP3    H1 1146   1.957   0.934   1.226
  380TIP3    H2 1147   2.104   0.950   1.196
  381TIP3   OH2 1148   5.873   0.738   0.617
  381TIP3    H1 1149   5.939   0.777   0.674
  381TIP3    H2 1150   5.806   0.705   0.677
  382TIP3   OH2 1151   2.935   5.491   1.627
  382TIP3    H1 1152   2.917   5.418   1.686
  382TIP3    H2 1153   2.966   5.449   1.546
  383TIP3   OH2 1154   2.622   0.989   2.715
  383TIP3    H1 1155   2.657   0.922   2.774
  383TIP3    H2 1156   2.543   0.950   2.678
  384TIP3   OH2 1157   1.137   0.089   2.521
  384TIP3    H1 1158   1.091   0.172   2.511
  384TIP3    H2 1159   1.213   0.096   2.464
  385TIP3   OH2 1160   4.301   2.377   4.795
  385TIP3    H1 1161   4.260   2.421   4.869
  385TIP3    H2 1162   4.349   2.446   4.749
  386TIP3   OH2 1163   4.941   2.860   0.764
  386TIP3    H1 1164   5.036   2.849   0.757
  386TIP3    H2 1165   4.924   2.857   0.858
  387TIP3   OH2 1166   2.765   3.716   4.631
  387TIP3    H1 1167   2.818   3.753   4.561
  387TIP3    H2 1168   2.719   3.642   4.590
  388TIP3   OH2 1169   2.224   5.553   0.317
  388TIP3    H1 1170   2.173   5.609   0.259
  388TIP3    H2 1171   2.314   5.558   0.283
  389TIP3   OH2 1172   2.709   3.962   3.674
  389TIP3    H1 1173   2.801   3.944   3.693
  389TIP3    H2 1174   2.662   3.930   3.751
  390TIP3   OH2 1175   3.035   0.954   0.174
  390TIP3    H1 1176   2.998   1.040   0.190
  390TIP3    H2 1177   3.129   0.969   0.164
  391TIP3   OH2 1178   1.845   5.645   1.579
  391TIP3    H1 1179   1.850   5.741   1.584
  391TIP3    H2 1180   1.789   5.628   1.504
  392TIP3   OH2 1181   2.156   4.434   2.720
  392TIP3    H1 1182   2.072   4.463   2.682
  392TIP3    H2 1183   2.156   4.471   2.808
  393TIP3   OH2 1184   0.609   1.805   1.928
  393TIP3    H1 1185   0.646   1.750   1.858
  393TIP3    H2 1186   0.518   1.817   1.902
  394TIP3   OH2 1187   0.407   2.751   2.790
  394TIP3    H1 1188   0.393   2.660   2.764
  394TIP3    H2 1189   0.502   2.761   2.793
  395TIP3   OH2 1190   4.852   4.262   4.376
  395TIP3    H1 1191   4.947   4.258   4.382
  395TIP3    H2 1192   4.822   4.258   4.467
  396TIP3   OH2 1193   1.109   1.628   0.549
  396TIP3    H1 1194   1.032   1.632   0.607
  396TIP3    H2 1195   1.089   1.556   0.489
  397TIP3   OH2 1196   6.219   5.555   3.762
  397TIP3    H1 1197   6.236   5.628   3.821
  397TIP3    H2 1198   6.207   5.479   3.820
  398TIP3   OH2 1199   1.551   1.361   4.079
  398TIP3    H1 1200   1.473   1.370   4.025
  398TIP3    H2 1201   1.523   1.305   4.152
  399TIP3   OH2 1202   2.406   5.175   5.057
  399TIP3    H1 1203   2.463   5.148   5.129
  399TIP3    H2 1204   2.444   5.257   5.026
  400TIP3   OH2 1205   4.434   3.659   2.031
  400TIP3    H1 1206   4.384   3.597   1.979
  400TIP3    H2 1207   4.397   3.745   2.008
  401TIP3   OH2 1208   2.850   1.512   4.023
  401TIP3    H1 1209   2.783   1.464   3.974
  401TIP3    H2 1210   2.812   1.599   4.037
  402TIP3   OH2 1211   3.942   0.263   0.273
  402TIP3    H1 1212   3.981   0.274   0.359
  402TIP3    H2 1213   3.873   0.329   0.269
  403TIP3   OH2 1214   3.916   1.311   0.991
  403TIP3    H1 1215   3.950   1.226   0.964
  403TIP3    H2 1216   3.993   1.362   1.016
  404TIP3   OH2 1217   1.535   5.921   3.109
  404TIP3    H1 1218   1.564   5.879   3.028
  404TIP3    H2 1219   1.452   5.877   3.130
  405TIP3   OH2 1220   3.734   3.568   4.985
  405TIP3    H1 1221   3.643   3.572   4.957
  405TIP3    H2 1222   3.731   3.520   5.068
  406TIP3   OH2 1223   1.049   3.405   4.550
  406TIP3    H1 1224   1.014   3.410   4.639
  406TIP3    H2 1225   0.975   3.425   4.493
  407TIP3   OH2 1226   5.421   5.273   3.005
  407TIP3    H1 1227   5.450   5.360   3.034
  407TIP3    H2 1228   5.487   5.213   3.039
  408TIP3   OH2 1229   1.932   0.919   2.750
  408TIP3    H1 1230   1.872   0.950   2.818
  408TIP3    H2 1231   1.881   0.857   2.699
  409TIP3   OH2 1232   1.769   2.342   4.813
  409TIP3    H1 1233   1.838   2.370   4.753
  409TIP3    H2 1234   1.703   2.411   4.808
  410TIP3   OH2 1235   5.804   3.394   3.192
  410TIP3    H1 1236   5.775   3.311   3.155
  410TIP3    H2 1237   5.763   3.397   3.279
  411TIP3   OH2 1238   6.024   0.317   2.302
  411TIP3    H1 1239   6.103   0.353   2.261
  411TIP3    H2 1240   5.999   0.245   2.245
  412TIP3   OH2 1241   1.316   4.351   1.182
  412TIP3    H1 1242   1.244   4.373   1.123
  412TIP3    H2 1243   1.337   4.260   1.161
  413TIP3   OH2 1244   5.648   2.887   0.581
  413TIP3    H1 1245   5.562   2.898   0.542
  413TIP3    H2 1246   5.659   2.793   0.591
  414TIP3   OH2 1247   0.757   0.531   3.768
  414TIP3    H1 1248   0.814   0.607   3.758
  414TIP3    H2 1249   0.711   0.524   3.685
  415TIP3   OH2 1250   1.692   3.337   0.376
  415TIP3    H1 1251   1.778   3.357   0.340
  415TIP3    H2 1252   1.637   3.320   0.300
  416TIP3   OH2 1253   4.660   2.554   4.494
  416TIP3    H1 1254   4.699   2.531   4.410
  416TIP3    H2 1255   4.693   2.488   4.555
  417TIP3   OH2 1256   3.573   1.805   4.734
  417TIP3    H1 1257   3.605   1.877   4.681
  417TIP3    H2 1258   3.565   1.732   4.673
  418TIP3   OH2 1259   2.489   1.425   4.309
  418TIP3    H1 1260   2.574   1.382   4.300
  418TIP3    H2 1261   2.453   1.424   4.220
  419TIP3   OH2 1262   3.285   3.264   4.432
  419TIP3    H1 1263   3.266   3.245   4.524
  419TIP3    H2 1264   3.294   3.359   4.429
  420TIP3   OH2 1265   1.331   1.254   1.074
  420TIP3    H1 1266   1.349   1.168   1.111
  420TIP3    H2 1267   1.245   1.244   1.032
  421TIP3   OH2 1268   2.489   1.092   4.570
  421TIP3    H1 1269   2.481   1.105   4.475
  421TIP3    H2 1270   2.517   1.177   4.603
  422TIP3   OH2 1271   6.215   0.476   2.218
  422TIP3    H1 1272   6.301   0.517   2.206
  422TIP3    H2 1273   6.155   0.528   2.164
  423TIP3   OH2 1274   4.506   2.163   1.522
  423TIP3    H1 1275   4.442   2.122   1.579
  423TIP3    H2 1276   4.590   2.144   1.563
  424TIP3   OH2 1277   5.318   4.574   2.283
  424TIP3    H1 1278   5.368   4.594   2.204
  424TIP3    H2 1279   5.228   4.564   2.251
  425TIP3   OH2 1280   2.923   1.524   3.527
  425TIP3    H1 1281   2.967   1.442   3.549
  425TIP3    H2 1282   2.883   1.553   3.609
  426TIP3   OH2 1283   0.333   0.661   4.400
  426TIP3    H1 1284   0.298   0.749   4.382
  426TIP3    H2 1285   0.256   0.605   4.402
  427TIP3   OH2 1286   4.872   0.335   3.786
  427TIP3    H1 1287   4.839   0.417   3.748
  427TIP3    H2 1288   4.960   0.324   3.749
  428TIP3   OH2 1289   0.498   0.438   3.729
  428TIP3    H1 1290   0.567   0.484   3.776
  428TIP3    H2 1291   0.527   0.347   3.726
  429TIP3   OH2 1292   3.523   3.364   2.849
  429TIP3    H1 1293   3.460   3.431   2.877
  429TIP3    H2 1294   3.607   3.410   2.847
  430TIP3   OH2 1295   0.148   5.534   2.024
  430TIP3    H1 1296   0.210   5.512   2.093
  430TIP3    H2 1297   0.063   5.538   2.069
  431TIP3   OH2 1298   2.968   0.873   0.709
  431TIP3    H1 1299   3.024   0.851   0.783
  431TIP3    H2 1300   3.018   0.937   0.658
  432TIP3   OH2 1301   1.606   4.223   1.099
  432TIP3    H1 1302   1.578   4.137   1.130
  432TIP3    H2 1303   1.559   4.236   1.017
  433TIP3   OH2 1304   4.925   3.241   5.167
  433TIP3    H1 1305   4.832   3.236   5.145
  433TIP3    H2 1306   4.967   3.279   5.089
  434TIP3   OH2 1307   4.662   0.369   0.698
  434TIP3    H1 1308   4.670   0.278   0.725
  434TIP3    H2 1309   4.681   0.368   0.604
  435TIP3   OH2 1310   5.552   3.914   0.835
  435TIP3    H1 1311   5.610   3.959   0.774
  435TIP3    H2 1312   5.537   3.828   0.796
  436TIP3   OH2 1313   0.009   5.644   0.545
  436TIP3    H1 1314   0.040   5.568   0.495
  436TIP3    H2 1315   0.089   5.692   0.566
  437TIP3   OH2 1316   5.033   0.990   4.426
  437TIP3    H1 1317   4.960   0.931   4.444
  437TIP3    H2 1318   5.105   0.932   4.402
  438TIP3   OH2 1319   2.225   5.438   2.006
  438TIP3    H1 1320   2.223   5.347   1.976
  438TIP3    H2 1321   2.153   5.444   2.069
  439TIP3   OH2 1322   1.879   5.513   3.655
  439TIP3    H1 1323   1.937   5.504   3.580
  439TIP3    H2 1324   1.794   5.482   3.624
  440TIP3   OH2 1325   1.981   4.842   1.159
  440TIP3    H1 1326   1.953   4.762   1.206
  440TIP3    H2 1327   2.048   4.880   1.215
  441TIP3   OH2 1328   5.946   0.576   1.672
  441TIP3    H1 1329   5.914   0.621   1.750
  441TIP3    H2 1330   5.883   0.598   1.604
  442TIP3   OH2 1331   3.778   2.430   3.301
  442TIP3    H1 1332   3.847   2.464   3.244
  442TIP3    H2 1333   3.739   2.507   3.341
  443TIP3   OH2 1334   4.205   0.062  -0.021
  443TIP3    H1 1335   4.114   0.086  -0.042
  443TIP3    H2 1336   4.205   0.048   0.074
  444TIP3   OH2 1337   3.468   2.901   1.831
  444TIP3    H1 1338   3.392   2.942   1.873
  444TIP3    H2 1339   3.441   2.810   1.816
  445TIP3   OH2 1340   5.580   2.488   0.989
  445TIP3    H1 1341   5.648   2.478   0.923
  445TIP3    H2 1342   5.533   2.405   0.988
  446TIP3   OH2 1343   5.544   4.332   4.897
  446TIP3    H1 1344   5.634   4.363   4.886
  446TIP3    H2 1345   5.511   4.379   4.974
  447TIP3   OH2 1346   1.129   5.678   3.722
  447TIP3    H1 1347   1.162   5.590   3.705
  447TIP3    H2 1348   1.035   5.666   3.738
  448TIP3   OH2 1349   6.065   1.275   5.138
  448TIP3    H1 1350   6.058   1.227   5.055
  448TIP3    H2 1351   5.975   1.296   5.162
  449TIP3   OH2 1352   3.477   0.701   3.095
  449TIP3    H1 1353   3.393   0.661   3.071
  449TIP3    H2 1354   3.538   0.669   3.029
  450TIP3   OH2 1355   0.181   1.796   4.860
  450TIP3    H1 1356   0.167   1.710   4.820
  450TIP3    H2 1357   0.240   1.779   4.934
  451TIP3   OH2 1358   2.724   4.419   1.024
  451TIP3    H1 1359   2.798   4.479   1.037
  451TIP3    H2 1360   2.721   4.403   0.930
  452TIP3   OH2 1361   2.682   4.603   2.252
  452TIP3    H1 1362   2.710   4.690   2.221
  452TIP3    H2 1363   2.616   4.575   2.190
  453TIP3   OH2 1364   2.888   4.804   4.749
  453TIP3    H1 1365   2.911   4.893   4.776
  453TIP3    H2 1366   2.804   4.813   4.704
  454TIP3   OH2 1367   5.326   4.700   0.008
  454TIP3    H1 1368   5.371   4.783  -0.006
  454TIP3    H2 1369   5.238   4.724   0.036
  455TIP3   OH2 1370   2.851   4.145   0.631
  455TIP3    H1 1371   2.775   4.195   0.602
  455TIP3    H2 1372   2.860   4.075   0.566
  456TIP3   OH2 1373   4.448   3.726   1.437
  456TIP3    H1 1374   4.443   3.732   1.533
  456TIP3    H2 1375   4.467   3.634   1.420
  457TIP3   OH2 1376   5.785   1.045   1.111
  457TIP3    H1 1377   5.729   1.122   1.121
  457TIP3    H2 1378   5.724   0.971   1.114
  458TIP3   OH2 1379   1.979   4.958   2.613
  458TIP3    H1 1380   1.937   4.975   2.697
  458TIP3    H2 1381   2.045   4.891   2.633
  459TIP3   OH2 1382   3.373   1.195   0.188
  459TIP3    H1 1383   3.304   1.246   0.231
  459TIP3    H2 1384   3.445   1.257   0.177
  460TIP3   OH2 1385   2.416   3.091   2.113
  460TIP3    H1 1386   2.403   3.032   2.039
  460TIP3    H2 1387   2.390   3.177   2.080
  461TIP3   OH2 1388   1.271   0.883   4.327
  461TIP3    H1 1389   1.253   0.793   4.301
  461TIP3    H2 1390   1.185   0.921   4.346
  462TIP3   OH2 1391   0.551   5.521   0.162
  462TIP3    H1 1392   0.557   5.615   0.147
  462TIP3    H2 1393   0.559   5.482   0.075
  463TIP3   OH2 1394   4.795   4.272   4.664
  463TIP3    H1 1395   4.800   4.366   4.642
  463TIP3    H2 1396   4.726   4.266   4.730
  464TIP3   OH2 1397   6.226   0.373   3.344
  464TIP3    H1 1398   6.303   0.427   3.360
  464TIP3    H2 1399   6.161   0.433   3.306
  465TIP3   OH2 1400   5.306   0.304   1.862
  465TIP3    H1 1401   5.359   0.248   1.919
  465TIP3    H2 1402   5.363   0.378   1.841
  466TIP3   OH2 1403   2.604   5.971   4.890
  466TIP3    H1 1404   2.527   5.914   4.892
  466TIP3    H2 1405   2.664   5.929   4.829
  467TIP3   OH2 1406   1.856   0.488   2.381
  467TIP3    H1 1407   1.790   0.519   2.320
  467TIP3    H2 1408   1.935   0.536   2.358
  468TIP3   OH2 1409   5.967   2.888   4.601
  468TIP3    H1 1410   5.932   2.922   4.684
  468TIP3    H2 1411   5.891   2.883   4.544
  469TIP3   OH2 1412   1.909   4.610   1.272
  469TIP3    H1 1413   1.898   4.611   1.367
  469TIP3    H2 1414   1.854   4.537   1.242
  470TIP3   OH2 1415   1.628   4.540   0.753
  470TIP3    H1 1416   1.646   4.559   0.845
  470TIP3    H2 1417   1.631   4.444   0.747
  471TIP3   OH2 1418   4.532   1.583   1.353
  471TIP3    H1 1419   4.437   1.576   1.349
  471TIP3    H2 1420   4.561   1.566   1.264
  472TIP3   OH2 1421   1.829   1.033   0.605
  472TIP3    H1 1422   1.756   0.972   0.594
  472TIP3    H2 1423   1.845   1.035   0.699
  473TIP3   OH2 1424   4.706   2.506   4.207
  473TIP3    H1 1425   4.801   2.503   4.193
  473TIP3    H2 1426   4.672   2.434   4.155
  474TIP3   OH2 1427   0.561   4.161   3.561
  474TIP3    H1 1428   0.583   4.230   3.624
  474TIP3    H2 1429   0.468   4.175   3.542
  475TIP3   OH2 1430   1.529   2.366   2.348
  475TIP3    H1 1431   1.610   2.403   2.384
  475TIP3    H2 1432   1.536   2.381   2.254
  476TIP3   OH2 1433   2.286   4.743   5.182
  476TIP3    H1 1434   2.204   4.792   5.171
  476TIP3    H2 1435   2.265   4.655   5.150
  477TIP3   OH2 1436   4.425   5.633   1.254
  477TIP3    H1 1437   4.342   5.672   1.282
  477TIP3    H2 1438   4.412   5.539   1.264
  478TIP3   OH2 1439   1.051   2.234   1.894
  478TIP3    H1 1440   1.021   2.297   1.828
  478TIP3    H2 1441   1.110   2.285   1.950
  479TIP3   OH2 1442   0.246   4.114   5.156
  479TIP3    H1 1443   0.273   4.181   5.093
  479TIP3    H2 1444   0.191   4.161   5.219
  480TIP3   OH2 1445   0.122   5.803   4.162
  480TIP3    H1 1446   0.072   5.731   4.122
  480TIP3    H2 1447   0.119   5.785   4.256
  481TIP3   OH2 1448   4.674   5.018   3.371
  481TIP3    H1 1449   4.670   4.937   3.321
  481TIP3    H2 1450   4.622   5.080   3.320
  482TIP3   OH2 1451   1.783   0.503   3.509
  482TIP3    H1 1452   1.854   0.450   3.473
  482TIP3    H2 1453   1.743   0.545   3.432
  483TIP3   OH2 1454   4.282   5.740   1.693
  483TIP3    H1 1455   4.367   5.697   1.691
  483TIP3    H2 1456   4.301   5.832   1.713
  484TIP3   OH2 1457   5.914   1.182   3.410
  484TIP3    H1 1458   6.004   1.190   3.443
  484TIP3    H2 1459   5.902   1.087   3.398
  485TIP3   OH2 1460   1.655   1.234   0.756
  485TIP3    H1 1461   1.646   1.228   0.851
  485TIP3    H2 1462   1.612   1.155   0.723
  486TIP3   OH2 1463   4.593   2.155   0.385
  486TIP3    H1 1464   4.618   2.235   0.431
  486TIP3    H2 1465   4.663   2.093   0.403
  487TIP3   OH2 1466   1.059   0.440   1.436
  487TIP3    H1 1467   0.995   0.439   1.507
  487TIP3    H2 1468   1.009   0.467   1.359
  488TIP3   OH2 1469   1.328   2.781   3.641
  488TIP3    H1 1470   1.274   2.717   3.688
  488TIP3    H2 1471   1.274   2.807   3.566
  489TIP3   OH2 1472   2.090   4.550   3.505
  489TIP3    H1 1473   2.054   4.522   3.589
  489TIP3    H2 1474   2.058   4.639   3.493
  490TIP3   OH2 1475   1.870   3.326   2.545
  490TIP3    H1 1476   1.920   3.247   2.526
  490TIP3    H2 1477   1.935   3.396   2.551
  491TIP3   OH2 1478   0.308   4.276   3.985
  491TIP3    H1 1479   0.251   4.335   3.936
  491TIP3    H2 1480   0.393   4.319   3.984
  492TIP3   OH2 1481   5.272   5.242   2.415
  492TIP3    H1 1482   5.220   5.287   2.481
  492TIP3    H2 1483   5.287   5.307   2.347
  493TIP3   OH2 1484   5.265   0.002   4.177
  493TIP3    H1 1485   5.206  -0.047   4.119
  493TIP3    H2 1486   5.303   0.070   4.121
  494TIP3   OH2 1487   0.810   4.454   2.881
  494TIP3    H1 1488   0.813   4.414   2.968
  494TIP3    H2 1489   0.840   4.544   2.895
  495TIP3   OH2 1490   3.173   4.877   3.055
  495TIP3    H1 1491   3.250   4.847   3.006
  495TIP3    H2 1492   3.199   4.962   3.091
  496TIP3   OH2 1493   3.720   4.056   0.613
  496TIP3    H1 1494   3.669   4.137   0.614
  496TIP3    H2 1495   3.689   4.007   0.690
  497TIP3   OH2 1496   1.759   1.796   2.536
  497TIP3    H1 1497   1.774   1.875   2.588
  497TIP3    H2 1498   1.701   1.743   2.591
  498TIP3   OH2 1499   5.023   0.275   3.544
  498TIP3    H1 1500   5.053   0.366   3.533
  498TIP3    H2 1501   4.947   0.268   3.486
  499TIP3   OH2 1502   0.246   1.718   2.805
  499TIP3    H1 1503   0.336   1.726   2.774
  499TIP3    H2 1504   0.197   1.782   2.753
  500TIP3   OH2 1505   4.347   4.534   3.484
  500TIP3    H1 1506   4.326   4.441   3.498
  500TIP3    H2 1507   4.404   4.557   3.557
  501TIP3   OH2 1508   0.622   2.965   4.140
  501TIP3    H1 1509   0.583   2.889   4.096
  501TIP3    H2 1510   0.663   3.015   4.069
  502TIP3   OH2 1511   3.789   0.338   4.753
  502TIP3    H1 1512   3.726   0.355   4.823
  502TIP3    H2 1513   3.737   0.300   4.682
  503TIP3   OH2 1514   3.620   5.708   0.729
  503TIP3    H1 1515   3.550   5.718   0.794
  503TIP3    H2 1516   3.665   5.792   0.729
  504TIP3   OH2 1517   6.130   0.806   0.147
  504TIP3    H1 1518   6.115   0.721   0.189
  504TIP3    H2 1519   6.108   0.870   0.215
  505TIP3   OH2 1520   6.179   5.753   5.122
  505TIP3    H1 1521   6.262   5.706   5.136
  505TIP3    H2 1522   6.189   5.793   5.036
  506TIP3   OH2 1523   0.570   0.930   1.440
  506TIP3    H1 1524   0.592   0.999   1.377
  506TIP3    H2 1525   0.603   0.850   1.399
  507TIP3   OH2 1526   4.010   1.018   1.626
  507TIP3    H1 1527   3.997   1.042   1.718
  507TIP3    H2 1528   4.056   0.935   1.628
  508TIP3   OH2 1529   4.354   3.144   4.084
  508TIP3    H1 1530   4.376   3.234   4.060
  508TIP3    H2 1531   4.279   3.153   4.143
  509TIP3   OH2 1532   3.491   3.465   3.308
  509TIP3    H1 1533   3.473   3.546   3.356
  509TIP3    H2 1534   3.581   3.476   3.276
  510TIP3   OH2 1535   4.042   5.032   2.776
  510TIP3    H1 1536   4.097   5.056   2.850
  510TIP3    H2 1537   3.994   5.112   2.756
  511TIP3   OH2 1538   2.548   3.980   2.030
  511TIP3    H1 1539   2.553   4.052   1.967
  511TIP3    H2 1540   2.636   3.944   2.032
  512TIP3   OH2 1541   0.266   4.696   0.232
  512TIP3    H1 1542   0.347   4.736   0.199
  512TIP3    H2 1543   0.212   4.771   0.259
  513TIP3   OH2 1544   0.837   5.216   2.486
  513TIP3    H1 1545   0.745   5.206   2.513
  513TIP3    H2 1546   0.865   5.128   2.462
  514TIP3   OH2 1547   0.788   1.123   2.180
  514TIP3    H1 1548   0.777   1.057   2.111
  514TIP3    H2 1549   0.699   1.142   2.209
  515TIP3   OH2 1550   4.327   3.868   0.348
  515TIP3    H1 1551   4.399   3.822   0.306
  515TIP3    H2 1552   4.362   3.955   0.368
  516TIP3   OH2 1553   0.228   3.749   0.106
  516TIP3    H1 1554   0.282   3.725   0.182
  516TIP3    H2 1555   0.176   3.824   0.136
  517TIP3   OH2 1556   2.155   1.371   0.562
  517TIP3    H1 1557   2.086   1.353   0.498
  517TIP3    H2 1558   2.144   1.304   0.629
  518TIP3   OH2 1559   4.180   2.853   0.449
  518TIP3    H1 1560   4.119   2.890   0.513
  518TIP3    H2 1561   4.131   2.852   0.366
  519TIP3   OH2 1562   3.221   1.868   2.499
  519TIP3    H1 1563   3.261   1.783   2.521
  519TIP3    H2 1564   3.212   1.913   2.583
  520TIP3   OH2 1565   3.277   2.020   0.651
  520TIP3    H1 1566   3.208   1.989   0.710
  520TIP3    H2 1567   3.357   1.982   0.687
  521TIP3   OH2 1568   5.914   3.498   1.854
  521TIP3    H1 1569   5.998   3.478   1.813
  521TIP3    H2 1570   5.933   3.507   1.947
  522TIP3   OH2 1571   0.777   2.554   3.915
  522TIP3    H1 1572   0.821   2.566   3.999
  522TIP3    H2 1573   0.841   2.511   3.859
  523TIP3   OH2 1574   3.097   0.494   0.822
  523TIP3    H1 1575   3.063   0.502   0.732
  523TIP3    H2 1576   3.190   0.476   0.811
  524TIP3   OH2 1577   3.628   0.082   4.130
  524TIP3    H1 1578   3.632  -0.012   4.150
  524TIP3    H2 1579   3.626   0.086   4.034
  525TIP3   OH2 1580   2.875   3.329   1.722
  525TIP3    H1 1581   2.782   3.331   1.743
  525TIP3    H2 1582   2.878   3.324   1.626
  526TIP3   OH2 1583   5.319   1.628   2.300
  526TIP3    H1 1584   5.330   1.541   2.338
  526TIP3    H2 1585   5.406   1.668   2.308
  527TIP3   OH2 1586   2.147   3.802   3.695
  527TIP3    H1 1587   2.157   3.765   3.608
  527TIP3    H2 1588   2.054   3.826   3.701
  528TIP3   OH2 1589   3.091   1.693   1.405
  528TIP3    H1 1590   3.167   1.741   1.436
  528TIP3    H2 1591   3.120   1.601   1.403
  529TIP3   OH2 1592   4.376   3.597   2.608
  529TIP3    H1 1593   4.464   3.561   2.618
  529TIP3    H2 1594   4.365   3.608   2.513
  530TIP3   OH2 1595   4.918   2.841   4.836
  530TIP3    H1 1596   4.832   2.826   4.795
  530TIP3    H2 1597   4.919   2.780   4.910
  531TIP3   OH2 1598   5.988   5.379   3.147
  531TIP3    H1 1599   6.044   5.456   3.140
  531TIP3    H2 1600   5.995   5.336   3.062
  532TIP3   OH2 1601   3.826   3.209   3.750
  532TIP3    H1 1602   3.778   3.257   3.817
  532TIP3    H2 1603   3.768   3.208   3.674
  533TIP3   OH2 1604   0.428   3.033   3.473
  533TIP3    H1 1605   0.385   2.987   3.401
  533TIP3    H2 1606   0.508   2.983   3.490
  534TIP3   OH2 1607   5.826   3.029   2.678
  534TIP3    H1 1608   5.850   3.045   2.586
  534TIP3    H2 1609   5.908   3.036   2.726
  535TIP3   OH2 1610   0.521   0.798   3.946
  535TIP3    H1 1611   0.541   0.730   4.010
  535TIP3    H2 1612   0.594   0.797   3.885
  536TIP3   OH2 1613   2.232   4.541   5.011
  536TIP3    H1 1614   2.265   4.604   4.948
  536TIP3    H2 1615   2.300   4.474   5.015
  537TIP3   OH2 1616   0.318   5.503   4.629
  537TIP3    H1 1617   0.237   5.481   4.584
  537TIP3    H2 1618   0.292   5.515   4.721
  538TIP3   OH2 1619   4.454   3.056   0.218
  538TIP3    H1 1620   4.508   3.004   0.279
  538TIP3    H2 1621   4.512   3.074   0.144
  539TIP3   OH2 1622   4.657   3.101   1.637
  539TIP3    H1 1623   4.601   3.029   1.609
  539TIP3    H2 1624   4.721   3.111   1.566
  540TIP3   OH2 1625   1.624   1.147   4.749
  540TIP3    H1 1626   1.610   1.068   4.801
  540TIP3    H2 1627   1.684   1.199   4.802
  541TIP3   OH2 1628   0.608   5.602   3.980
  541TIP3    H1 1629   0.563   5.525   4.014
  541TIP3    H2 1630   0.605   5.666   4.051
  542TIP3   OH2 1631   0.970   0.603   1.980
  542TIP3    H1 1632   1.044   0.661   1.996
  542TIP3    H2 1633   0.909   0.620   2.051
  543TIP3   OH2 1634   4.006   1.500   1.299
  543TIP3    H1 1635   4.094   1.536   1.289
  543TIP3    H2 1636   3.954   1.546   1.232
  544TIP3   OH2 1637   5.323   2.688   3.866
  544TIP3    H1 1638   5.300   2.732   3.948
  544TIP3    H2 1639   5.287   2.600   3.875
  545TIP3   OH2 1640   5.914   4.938   2.033
  545TIP3    H1 1641   5.847   5.006   2.041
  545TIP3    H2 1642   5.866   4.856   2.026
  546TIP3   OH2 1643   2.933   5.481   5.161
  546TIP3    H1 1644   2.850   5.436   5.178
  546TIP3    H2 1645   2.928   5.560   5.214
  547TIP3   OH2 1646   3.762   3.168   0.751
  547TIP3    H1 1647   3.704   3.113   0.803
  547TIP3    H2 1648   3.818   3.212   0.815
  548TIP3   OH2 1649   5.746   1.418   4.260
  548TIP3    H1 1650   5.750   1.502   4.214
  548TIP3    H2 1651   5.730   1.441   4.351
  549TIP3   OH2 1652   5.094   3.275   0.256
  549TIP3    H1 1653   5.124   3.208   0.317
  549TIP3    H2 1654   5.002   3.254   0.240
  550TIP3   OH2 1655   2.755   5.877   1.791
  550TIP3    H1 1656   2.826   5.813   1.787
  550TIP3    H2 1657   2.734   5.896   1.700
  551TIP3   OH2 1658   5.623   4.405   2.070
  551TIP3    H1 1659   5.580   4.357   2.141
  551TIP3    H2 1660   5.581   4.371   1.990
  552TIP3   OH2 1661   4.443   0.514   2.165
  552TIP3    H1 1662   4.465   0.465   2.086
  552TIP3    H2 1663   4.462   0.453   2.237
  553TIP3   OH2 1664   2.679   2.792   3.987
  553TIP3    H1 1665   2.630   2.728   4.039
  553TIP3    H2 1666   2.706   2.859   4.049
  554TIP3   OH2 1667   0.890   3.528   3.763
  554TIP3    H1 1668   0.949   3.576   3.704
  554TIP3    H2 1669   0.830   3.482   3.704
  555TIP3   OH2 1670   1.846   5.433   2.241
  555TIP3    H1 1671   1.809   5.462   2.157
  555TIP3    H2 1672   1.845   5.338   2.235
  556TIP3   OH2 1673   5.106   2.600   0.029
  556TIP3    H1 1674   5.083   2.655  -0.046
  556TIP3    H2 1675   5.028   2.602   0.085
  557TIP3   OH2 1676   1.013   2.474   1.722
  557TIP3    H1 1677   1.006   2.549   1.781
  557TIP3    H2 1678   1.100   2.483   1.681
  558TIP3   OH2 1679   3.986   4.831   4.945
  558TIP3    H1 1680   4.003   4.846   5.038
  558TIP3    H2 1681   4.050   4.886   4.900
  559TIP3   OH2 1682   3.702   0.889   1.709
  559TIP3    H1 1683   3.633   0.878   1.644
  559TIP3    H2 1684   3.663   0.947   1.775
  560TIP3   OH2 1685   3.432   3.254   4.154
  560TIP3    H1 1686   3.436   3.160   4.169
  560TIP3    H2 1687   3.348   3.281   4.191
  561TIP3   OH2 1688   5.278   0.682   2.593
  561TIP3    H1 1689   5.370   0.689   2.569
  561TIP3    H2 1690   5.269   0.738   2.670
  562TIP3   OH2 1691   3.708   2.527   4.857
  562TIP3    H1 1692   3.649   2.602   4.870
  562TIP3    H2 1693   3.708   2.482   4.941
  563TIP3   OH2 1694   5.195   5.286   3.184
  563TIP3    H1 1695   5.179   5.351   3.115
  563TIP3    H2 1696   5.230   5.210   3.136
  564TIP3   OH2 1697   4.177   1.428   0.990
  564TIP3    H1 1698   4.266   1.426   1.026
  564TIP3    H2 1699   4.184   1.483   0.912
  565TIP3   OH2 1700   3.089   3.698   5.147
  565TIP3    H1 1701   3.028   3.719   5.076
  565TIP3    H2 1702   3.102   3.604   5.140
  566TIP3   OH2 1703   0.244   3.123   4.678
  566TIP3    H1 1704   0.180   3.129   4.749
  566TIP3    H2 1705   0.197   3.083   4.606
  567TIP3   OH2 1706   5.217   2.820   0.693
  567TIP3    H1 1707   5.281   2.762   0.734
  567TIP3    H2 1708   5.247   2.908   0.714
  568TIP3   OH2 1709   5.975   3.855   1.579
  568TIP3    H1 1710   5.986   3.776   1.526
  568TIP3    H2 1711   6.045   3.850   1.644
  569TIP3   OH2 1712   6.295   4.136   4.881
  569TIP3    H1 1713   6.248   4.114   4.800
  569TIP3    H2 1714   6.237   4.198   4.926
  570TIP3   OH2 1715   5.872   3.760   0.749
  570TIP3    H1 1716   5.957   3.758   0.705
  570TIP3    H2 1717   5.848   3.668   0.758
  571TIP3   OH2 1718   1.505   4.959   1.817
  571TIP3    H1 1719   1.474   4.884   1.868
  571TIP3    H2 1720   1.425   4.996   1.778
  572TIP3   OH2 1721   3.623   2.022   4.329
  572TIP3    H1 1722   3.631   2.117   4.338
  572TIP3    H2 1723   3.703   1.987   4.368
  573TIP3   OH2 1724   6.212   0.467   0.061
  573TIP3    H1 1725   6.217   0.439  -0.031
  573TIP3    H2 1726   6.119   0.483   0.077
  574TIP3   OH2 1727   0.825   0.428   4.785
  574TIP3    H1 1728   0.743   0.478   4.783
  574TIP3    H2 1729   0.880   0.477   4.846
  575TIP3   OH2 1730   4.064   1.101   3.180
  575TIP3    H1 1731   4.112   1.038   3.125
  575TIP3    H2 1732   3.972   1.087   3.158
  576TIP3   OH2 1733   6.295   5.269   2.749
  576TIP3    H1 1734   6.315   5.362   2.761
  576TIP3    H2 1735   6.357   5.240   2.682
  577TIP3   OH2 1736   2.573   5.488   3.658
  577TIP3    H1 1737   2.603   5.445   3.739
  577TIP3    H2 1738   2.526   5.565   3.688
  578TIP3   OH2 1739   4.074   2.269   1.740
  578TIP3    H1 1740   4.008   2.210   1.778
  578TIP3    H2 1741   4.151   2.258   1.796
  579TIP3   OH2 1742   2.584   2.851   2.256
  579TIP3    H1 1743   2.661   2.907   2.260
  579TIP3    H2 1744   2.531   2.887   2.185
  580TIP3   OH2 1745   3.135   5.230   2.756
  580TIP3    H1 1746   3.171   5.305   2.709
  580TIP3    H2 1747   3.050   5.214   2.716
  581TIP3   OH2 1748   1.556   5.151   3.412
  581TIP3    H1 1749   1.504   5.073   3.428
  581TIP3    H2 1750   1.514   5.219   3.465
  582TIP3   OH2 1751   1.065   4.860   5.186
  582TIP3    H1 1752   1.085   4.953   5.201
  582TIP3    H2 1753   0.970   4.858   5.177
  583TIP3   OH2 1754   2.223   3.619   2.278
  583TIP3    H1 1755   2.216   3.527   2.303
  583TIP3    H2 1756   2.236   3.665   2.361
  584TIP3   OH2 1757   1.462   2.612   4.998
  584TIP3    H1 1758   1.497   2.586   5.083
  584TIP3    H2 1759   1.539   2.638   4.947
  585TIP3   OH2 1760   5.469   1.304   3.086
  585TIP3    H1 1761   5.476   1.218   3.044
  585TIP3    H2 1762   5.511   1.293   3.171
  586TIP3   OH2 1763   1.647   1.226   0.375
  586TIP3    H1 1764   1.558   1.230   0.341
  586TIP3    H2 1765   1.638   1.190   0.463
  587TIP3   OH2 1766   0.590   4.096   3.968
  587TIP3    H1 1767   0.594   4.089   4.063
  587TIP3    H2 1768   0.558   4.010   3.939
  588TIP3   OH2 1769   5.298   0.252   3.107
  588TIP3    H1 1770   5.261   0.176   3.063
  588TIP3    H2 1771   5.222   0.305   3.131
  589TIP3   OH2 1772   3.792   1.674   0.006
  589TIP3    H1 1773   3.698   1.692   0.012
  589TIP3    H2 1774   3.833   1.742   0.059
  590TIP3   OH2 1775   1.572   2.575   1.810
  590TIP3    H1 1776   1.660   2.536   1.807
  590TIP3    H2 1777   1.586   2.661   1.850
  591TIP3   OH2 1778   4.944   5.176   4.253
  591TIP3    H1 1779   4.980   5.134   4.175
  591TIP3    H2 1780   5.004   5.152   4.324
  592TIP3   OH2 1781   4.902   4.078   0.259
  592TIP3    H1 1782   4.962   4.028   0.315
  592TIP3    H2 1783   4.931   4.169   0.269
  593TIP3   OH2 1784   3.399   1.028   3.503
  593TIP3    H1 1785   3.369   1.118   3.509
  593TIP3    H2 1786   3.421   1.016   3.410
  594TIP3   OH2 1787   3.038   5.863   3.937
  594TIP3    H1 1788   2.976   5.929   3.905
  594TIP3    H2 1789   3.094   5.845   3.861
  595TIP3   OH2 1790   4.873   3.482   4.826
  595TIP3    H1 1791   4.880   3.566   4.782
  595TIP3    H2 1792   4.801   3.437   4.783
  596TIP3   OH2 1793   5.149   2.033   4.045
  596TIP3    H1 1794   5.116   2.039   4.135
  596TIP3    H2 1795   5.211   2.105   4.038
  597TIP3   OH2 1796   1.459   0.088   2.040
  597TIP3    H1 1797   1.505   0.159   1.996
  597TIP3    H2 1798   1.529   0.040   2.086
  598TIP3   OH2 1799   1.119   3.409   3.143
  598TIP3    H1 1800   1.175   3.470   3.191
  598TIP3    H2 1801   1.175   3.332   3.129
  599TIP3   OH2 1802   0.372   2.734   1.108
  599TIP3    H1 1803   0.327   2.687   1.038
  599TIP3    H2 1804   0.303   2.757   1.170
  600TIP3   OH2 1805   5.303   1.330   3.683
  600TIP3    H1 1806   5.254   1.374   3.614
  600TIP3    H2 1807   5.281   1.378   3.763
  601TIP3   OH2 1808   3.458   3.832   1.943
  601TIP3    H1 1809   3.429   3.763   1.883
  601TIP3    H2 1810   3.385   3.893   1.947
  602TIP3   OH2 1811   5.511   3.485   0.639
  602TIP3    H1 1812   5.503   3.421   0.709
  602TIP3    H2 1813   5.499   3.570   0.683
  603TIP3   OH2 1814   3.844   1.114   2.821
  603TIP3    H1 1815   3.815   1.152   2.738
  603TIP3    H2 1816   3.896   1.184   2.862
  604TIP3   OH2 1817   1.382   3.542   4.515
  604TIP3    H1 1818   1.409   3.454   4.488
  604TIP3    H2 1819   1.459   3.596   4.498
  605TIP3   OH2 1820   6.051   2.854   2.250
  605TIP3    H1 1821   6.017   2.867   2.162
  605TIP3    H2 1822   6.047   2.759   2.264
  606TIP3   OH2 1823   5.945   1.891   1.977
  606TIP3    H1 1824   6.027   1.907   2.023
  606TIP3    H2 1825   5.925   1.798   1.993
  607TIP3   OH2 1826   1.807   2.371   4.087
  607TIP3    H1 1827   1.766   2.444   4.132
  607TIP3    H2 1828   1.891   2.405   4.057
  608TIP3   OH2 1829   3.977   5.220   2.530
  608TIP3    H1 1830   3.940   5.285   2.470
  608TIP3    H2 1831   3.923   5.142   2.517
  609TIP3   OH2 1832   6.344   0.761   2.759
  609TIP3    H1 1833   6.328   0.847   2.722
  609TIP3    H2 1834   6.268   0.709   2.733
  610TIP3   OH2 1835   6.256   2.796   1.417
  610TIP3    H1 1836   6.295   2.718   1.457
  610TIP3    H2 1837   6.177   2.763   1.374
  611TIP3   OH2 1838   2.276   5.679   4.168
  611TIP3    H1 1839   2.210   5.616   4.140
  611TIP3    H2 1840   2.227   5.747   4.213
  612TIP3   OH2 1841   1.452   0.648   1.972
  612TIP3    H1 1842   1.543   0.673   1.952
  612TIP3    H2 1843   1.420   0.719   2.027
  613TIP3   OH2 1844   3.564   2.910   3.897
  613TIP3    H1 1845   3.561   2.871   3.809
  613TIP3    H2 1846   3.629   2.857   3.944
  614TIP3   OH2 1847   4.549   2.188   2.990
  614TIP3    H1 1848   4.601   2.267   3.004
  614TIP3    H2 1849   4.549   2.143   3.075
  615TIP3   OH2 1850   4.060   4.890   1.790
  615TIP3    H1 1851   4.069   4.823   1.858
  615TIP3    H2 1852   4.038   4.840   1.711
  616TIP3   OH2 1853   5.166   0.141   4.402
  616TIP3    H1 1854   5.180   0.071   4.338
  616TIP3    H2 1855   5.083   0.181   4.376
  617TIP3   OH2 1856   6.125   2.326   4.999
  617TIP3    H1 1857   6.145   2.362   5.085
  617TIP3    H2 1858   6.123   2.231   5.013
  618TIP3   OH2 1859   3.746   4.646   4.649
  618TIP3    H1 1860   3.800   4.704   4.702
  618TIP3    H2 1861   3.681   4.610   4.710
  619TIP3   OH2 1862   6.272   1.932   4.149
  619TIP3    H1 1863   6.299   1.846   4.180
  619TIP3    H2 1864   6.186   1.918   4.110
  620TIP3   OH2 1865   6.119   0.174   4.200
  620TIP3    H1 1866   6.101   0.185   4.106
  620TIP3    H2 1867   6.190   0.235   4.218
  621TIP3   OH2 1868   2.012   0.342   1.078
  621TIP3    H1 1869   2.063   0.398   1.136
  621TIP3    H2 1870   1.922   0.374   1.086
  622TIP3   OH2 1871   0.161   1.388   2.630
  622TIP3    H1 1872   0.253   1.415   2.634
  622TIP3    H2 1873   0.154   1.315   2.691
  623TIP3   OH2 1874   3.336   3.314   3.487
  623TIP3    H1 1875   3.313   3.250   3.419
  623TIP3    H2 1876   3.364   3.392   3.438
  624TIP3   OH2 1877   1.781   4.530   3.116
  624TIP3    H1 1878   1.727   4.599   3.155
  624TIP3    H2 1879   1.836   4.576   3.053
  625TIP3   OH2 1880   0.395   4.448   2.646
  625TIP3    H1 1881   0.417   4.363   2.685
  625TIP3    H2 1882   0.409   4.436   2.552
  626TIP3   OH2 1883   5.842   4.008   0.426
  626TIP3    H1 1884   5.765   4.003   0.370
  626TIP3    H2 1885   5.916   3.999   0.366
  627TIP3   OH2 1886   1.203   4.172   2.321
  627TIP3    H1 1887   1.208   4.161   2.416
  627TIP3    H2 1888   1.113   4.148   2.298
  628TIP3   OH2 1889   3.330   5.967   4.420
  628TIP3    H1 1890   3.263   5.991   4.356
  628TIP3    H2 1891   3.293   5.893   4.468
  629TIP3   OH2 1892   0.268   4.466   2.126
  629TIP3    H1 1893   0.237   4.521   2.055
  629TIP3    H2 1894   0.290   4.383   2.085
  630TIP3   OH2 1895   5.123   4.336   4.005
  630TIP3    H1 1896   5.159   4.422   4.027
  630TIP3    H2 1897   5.035   4.336   4.042
  631TIP3   OH2 1898   3.314   1.430   4.809
  631TIP3    H1 1899   3.336   1.368   4.878
  631TIP3    H2 1900   3.335   1.516   4.846
  632TIP3   OH2 1901   3.203   1.881   3.357
  632TIP3    H1 1902   3.243   1.958   3.398
  632TIP3    H2 1903   3.274   1.839   3.309
  633TIP3   OH2 1904   1.135   1.950   0.164
  633TIP3    H1 1905   1.147   1.896   0.241
  633TIP3    H2 1906   1.213   1.934   0.110
  634TIP3   OH2 1907   4.745   5.404   1.256
  634TIP3    H1 1908   4.657   5.375   1.280
  634TIP3    H2 1909   4.775   5.338   1.192
  635TIP3   OH2 1910   0.298   5.532   0.922
  635TIP3    H1 1911   0.203   5.546   0.913
  635TIP3    H2 1912   0.308   5.437   0.915
  636TIP3   OH2 1913   3.684   2.761   0.956
  636TIP3    H1 1914   3.681   2.708   0.877
  636TIP3    H2 1915   3.626   2.715   1.018
  637TIP3   OH2 1916   0.078   5.192   0.283
  637TIP3    H1 1917   0.131   5.185   0.204
  637TIP3    H2 1918   0.013   5.260   0.264
  638TIP3   OH2 1919   0.051   1.571   0.367
  638TIP3    H1 1920   0.069   1.510   0.296
  638TIP3    H2 1921   0.109   1.646   0.350
  639TIP3   OH2 1922   3.481   5.449   3.037
  639TIP3    H1 1923   3.457   5.358   3.054
  639TIP3    H2 1924   3.573   5.455   3.063
  640TIP3   OH2 1925   5.696   4.677   3.494
  640TIP3    H1 1926   5.676   4.583   3.487
  640TIP3    H2 1927   5.783   4.686   3.456
  641TIP3   OH2 1928   3.882   0.200   1.574
  641TIP3    H1 1929   3.932   0.273   1.610
  641TIP3    H2 1930   3.948   0.141   1.537
  642TIP3   OH2 1931   4.665   4.977   0.317
  642TIP3    H1 1932   4.706   4.923   0.250
  642TIP3    H2 1933   4.577   4.941   0.327
  643TIP3   OH2 1934   0.858   2.945   0.422
  643TIP3    H1 1935   0.796   2.917   0.490
  643TIP3    H2 1936   0.901   3.022   0.459
  644TIP3   OH2 1937   4.851   3.398   1.696
  644TIP3    H1 1938   4.883   3.452   1.768
  644TIP3    H2 1939   4.898   3.316   1.705
  645TIP3   OH2 1940   2.977   2.478   3.245
  645TIP3    H1 1941   2.950   2.445   3.331
  645TIP3    H2 1942   3.057   2.527   3.262
  646TIP3   OH2 1943   0.011   1.865   0.787
  646TIP3    H1 1944   0.105   1.853   0.797
  646TIP3    H2 1945  -0.026   1.778   0.798
  647TIP3   OH2 1946   3.506   1.534   4.615
  647TIP3    H1 1947   3.434   1.502   4.670
  647TIP3    H2 1948   3.462   1.568   4.537
  648TIP3   OH2 1949   0.513   5.313   0.346
  648TIP3    H1 1950   0.536   5.391   0.296
  648TIP3    H2 1951   0.446   5.269   0.293
  649TIP3   OH2 1952   1.331   3.836   1.415
  649TIP3    H1 1953   1.270   3.909   1.428
  649TIP3    H2 1954   1.416   3.879   1.400
  650TIP3   OH2 1955   0.498   0.683   2.718
  650TIP3    H1 1956   0.561   0.690   2.790
  650TIP3    H2 1957   0.522   0.753   2.658
  651TIP3   OH2 1958   0.313   1.755   2.419
  651TIP3    H1 1959   0.407   1.752   2.400
  651TIP3    H2 1960   0.282   1.667   2.397
  652TIP3   OH2 1961   0.383   2.043   0.837
  652TIP3    H1 1962   0.363   1.964   0.787
  652TIP3    H2 1963   0.477   2.040   0.850
  653TIP3   OH2 1964   3.784   0.475   1.992
  653TIP3    H1 1965   3.843   0.476   1.916
  653TIP3    H2 1966   3.791   0.563   2.028
  654TIP3   OH2 1967   1.589   3.367   4.818
  654TIP3    H1 1968   1.557   3.315   4.744
  654TIP3    H2 1969   1.545   3.451   4.809
  655TIP3   OH2 1970   1.054   0.777   0.907
  655TIP3    H1 1971   1.020   0.748   0.992
  655TIP3    H2 1972   1.147   0.794   0.923
  656TIP3   OH2 1973   3.189   2.941   0.849
  656TIP3    H1 1974   3.172   2.847   0.851
  656TIP3    H2 1975   3.285   2.948   0.846
  657TIP3   OH2 1976   3.431   1.814   2.105
  657TIP3    H1 1977   3.414   1.903   2.138
  657TIP3    H2 1978   3.351   1.790   2.059
  658TIP3   OH2 1979   0.938   4.959   2.503
  658TIP3    H1 1980   1.031   4.942   2.519
  658TIP3    H2 1981   0.896   4.943   2.588
  659TIP3   OH2 1982   5.118   3.041   4.835
  659TIP3    H1 1983   5.168   3.046   4.753
  659TIP3    H2 1984   5.061   2.965   4.823
  660TIP3   OH2 1985   3.783   3.120   0.490
  660TIP3    H1 1986   3.755   3.144   0.578
  660TIP3    H2 1987   3.731   3.176   0.432
  661TIP3   OH2 1988   1.148   4.618   2.048
  661TIP3    H1 1989   1.154   4.629   2.143
  661TIP3    H2 1990   1.110   4.531   2.037
  662TIP3   OH2 1991   1.030   0.645   1.170
  662TIP3    H1 1992   1.078   0.570   1.133
  662TIP3    H2 1993   0.940   0.614   1.179
  663TIP3   OH2 1994   3.705   5.597   2.708
  663TIP3    H1 1995   3.696   5.685   2.745
  663TIP3    H2 1996   3.668   5.539   2.775
  664TIP3   OH2 1997   4.292   1.773   4.248
  664TIP3    H1 1998   4.256   1.697   4.294
  664TIP3    H2 1999   4.281   1.752   4.155
  665TIP3   OH2 2000   1.176   4.592   1.301
  665TIP3    H1 2001   1.091   4.618   1.267
  665TIP3    H2 2002   1.185   4.500   1.276
  666TIP3   OH2 2003   3.928   3.985   1.382
  666TIP3    H1 2004   3.997   3.962   1.443
  666TIP3    H2 2005   3.852   3.934   1.411
  667TIP3   OH2 2006   4.299   3.774   0.861
  667TIP3    H1 2007   4.374   3.772   0.921
  667TIP3    H2 2008   4.222   3.776   0.919
  668TIP3   OH2 2009   4.516  -0.007   3.134
  668TIP3    H1 2010   4.587  -0.067   3.157
  668TIP3    H2 2011   4.551   0.080   3.155
  669TIP3   OH2 2012   4.007   3.509   0.317
  669TIP3    H1 2013   4.094   3.507   0.357
  669TIP3    H2 2014   4.019   3.561   0.238
  670TIP3   OH2 2015   5.620   1.089   4.336
  670TIP3    H1 2016   5.675   1.167   4.329
  670TIP3    H2 2017   5.680   1.019   4.359
  671TIP3   OH2 2018   4.561   4.815   0.623
  671TIP3    H1 2019   4.504   4.825   0.699
  671TIP3    H2 2020   4.502   4.812   0.548
  672TIP3   OH2 2021   5.036   3.918   4.300
  672TIP3    H1 2022   5.083   3.859   4.241
  672TIP3    H2 2023   5.016   3.994   4.246
  673TIP3   OH2 2024   1.372   0.033   2.355
  673TIP3    H1 2025   1.313   0.032   2.279
  673TIP3    H2 2026   1.459   0.045   2.318
  674TIP3   OH2 2027   1.106   2.198   3.890
  674TIP3    H1 2028   1.088   2.279   3.937
  674TIP3    H2 2029   1.141   2.138   3.956
  675TIP3   OH2 2030   1.250   1.803   0.731
  675TIP3    H1 2031   1.328   1.784   0.679
  675TIP3    H2 2032   1.233   1.896   0.716
  676TIP3   OH2 2033   3.534   2.842   3.182
  676TIP3    H1 2034   3.528   2.931   3.147
  676TIP3    H2 2035   3.470   2.840   3.253
  677TIP3   OH2 2036   1.705   5.806   3.325
  677TIP3    H1 2037   1.730   5.748   3.253
  677TIP3    H2 2038   1.636   5.862   3.288
  678TIP3   OH2 2039   1.607   0.277   2.626
  678TIP3    H1 2040   1.683   0.230   2.659
  678TIP3    H2 2041   1.623   0.285   2.532
  679TIP3   OH2 2042   4.110   3.723   4.533
  679TIP3    H1 2043   4.135   3.650   4.476
  679TIP3    H2 2044   4.055   3.683   4.600
  680TIP3   OH2 2045   5.538   1.641   3.986
  680TIP3    H1 2046   5.528   1.555   4.028
  680TIP3    H2 2047   5.507   1.628   3.897
  681TIP3   OH2 2048   1.602   2.415   2.888
  681TIP3    H1 2049   1.533   2.379   2.944
  681TIP3    H2 2050   1.556   2.466   2.822
  682TIP3   OH2 2051   0.289   2.077   3.427
  682TIP3    H1 2052   0.372   2.042   3.395
  682TIP3    H2 2053   0.225   2.009   3.406
  683TIP3   OH2 2054   5.240   2.905   5.092
  683TIP3    H1 2055   5.166   2.941   5.141
  683TIP3    H2 2056   5.245   2.960   5.014
  684TIP3   OH2 2057   4.992   4.899   1.725
  684TIP3    H1 2058   5.046   4.946   1.788
  684TIP3    H2 2059   5.043   4.898   1.644
  685TIP3   OH2 2060   0.316   0.061   3.531
  685TIP3    H1 2061   0.251  -0.002   3.563
  685TIP3    H2 2062   0.266   0.123   3.479
  686TIP3   OH2 2063   2.736   1.093   4.089
  686TIP3    H1 2064   2.647   1.114   4.060
  686TIP3    H2 2065   2.793   1.124   4.019
  687TIP3   OH2 2066   2.210   4.820   4.177
  687TIP3    H1 2067   2.299   4.821   4.144
  687TIP3    H2 2068   2.206   4.743   4.233
  688TIP3   OH2 2069   2.678   2.758   0.358
  688TIP3    H1 2070   2.671   2.792   0.448
  688TIP3    H2 2071   2.671   2.836   0.303
  689TIP3   OH2 2072   1.542   3.172   4.104
  689TIP3    H1 2073   1.497   3.164   4.020
  689TIP3    H2 2074   1.479   3.139   4.168
  690TIP3   OH2 2075   1.577   5.795   4.178
  690TIP3    H1 2076   1.601   5.748   4.098
  690TIP3    H2 2077   1.487   5.768   4.196
  691TIP3   OH2 2078   2.081   2.405   4.112
  691TIP3    H1 2079   2.077   2.369   4.200
  691TIP3    H2 2080   2.098   2.499   4.125
  692TIP3   OH2 2081   4.441   2.931   1.566
  692TIP3    H1 2082   4.395   2.862   1.614
  692TIP3    H2 2083   4.373   2.975   1.515
  693TIP3   OH2 2084   3.580   5.263   1.113
  693TIP3    H1 2085   3.507   5.310   1.154
  693TIP3    H2 2086   3.585   5.299   1.025
  694TIP3   OH2 2087   0.688   4.532   1.864
  694TIP3    H1 2088   0.686   4.436   1.869
  694TIP3    H2 2089   0.669   4.561   1.953
  695TIP3   OH2 2090   0.437   1.789   4.330
  695TIP3    H1 2091   0.362   1.847   4.338
  695TIP3    H2 2092   0.418   1.735   4.253
  696TIP3   OH2 2093   5.719   3.205   3.686
  696TIP3    H1 2094   5.739   3.268   3.756
  696TIP3    H2 2095   5.722   3.120   3.729
  697TIP3   OH2 2096   2.481   5.968   0.968
  697TIP3    H1 2097   2.512   5.897   1.024
  697TIP3    H2 2098   2.408   5.929   0.918
  698TIP3   OH2 2099   1.957   3.233   3.656
  698TIP3    H1 2100   2.030   3.294   3.650
  698TIP3    H2 2101   1.992   3.157   3.702
  699TIP3   OH2 2102   2.881   2.831   4.400
  699TIP3    H1 2103   2.875   2.737   4.383
  699TIP3    H2 2104   2.829   2.870   4.330
  700TIP3   OH2 2105   1.469   5.204   0.664
  700TIP3    H1 2106   1.511   5.155   0.593
  700TIP3    H2 2107   1.376   5.201   0.643
  701TIP3   OH2 2108   5.000   3.484   3.581
  701TIP3    H1 2109   4.970   3.394   3.580
  701TIP3    H2 2110   4.997   3.512   3.489
  702TIP3   OH2 2111   3.830   1.546   2.802
  702TIP3    H1 2112   3.799   1.632   2.829
  702TIP3    H2 2113   3.829   1.549   2.706
  703TIP3   OH2 2114   3.270   2.799   0.215
  703TIP3    H1 2115   3.352   2.751   0.231
  703TIP3    H2 2116   3.294   2.891   0.226
  704TIP3   OH2 2117   2.352   4.048   2.404
  704TIP3    H1 2118   2.279   4.024   2.461
  704TIP3    H2 2119   2.376   4.136   2.431
  705TIP3   OH2 2120   4.023   3.039   0.623
  705TIP3    H1 2121   3.985   3.015   0.708
  705TIP3    H2 2122   3.950   3.074   0.573
  706TIP3   OH2 2123   5.601   2.727   3.876
  706TIP3    H1 2124   5.506   2.739   3.871
  706TIP3    H2 2125   5.613   2.636   3.903
  707TIP3   OH2 2126   4.759   4.765   0.163
  707TIP3    H1 2127   4.692   4.703   0.191
  707TIP3    H2 2128   4.722   4.807   0.085
  708TIP3   OH2 2129   4.066   0.483   2.573
  708TIP3    H1 2130   3.973   0.460   2.580
  708TIP3    H2 2131   4.110   0.425   2.635
  709TIP3   OH2 2132   0.863   3.318   3.300
  709TIP3    H1 2133   0.937   3.353   3.250
  709TIP3    H2 2134   0.815   3.265   3.237
  710TIP3   OH2 2135   2.731   1.763   4.844
  710TIP3    H1 2136   2.713   1.853   4.819
  710TIP3    H2 2137   2.652   1.715   4.819
  711TIP3   OH2 2138   2.423   0.572   1.536
  711TIP3    H1 2139   2.485   0.566   1.609
  711TIP3    H2 2140   2.352   0.628   1.569
  712TIP3   OH2 2141   1.749   3.646   1.965
  712TIP3    H1 2142   1.839   3.677   1.964
  712TIP3    H2 2143   1.721   3.655   2.056
  713TIP3   OH2 2144   5.862   2.210   0.956
  713TIP3    H1 2145   5.810   2.225   1.035
  713TIP3    H2 2146   5.940   2.264   0.968
  714TIP3   OH2 2147   1.744   1.599   2.924
  714TIP3    H1 2148   1.659   1.622   2.888
  714TIP3    H2 2149   1.786   1.546   2.856
  715TIP3   OH2 2150   2.285   0.712   0.316
  715TIP3    H1 2151   2.224   0.770   0.362
  715TIP3    H2 2152   2.352   0.770   0.282
  716TIP3   OH2 2153   5.320   2.788   4.665
  716TIP3    H1 2154   5.271   2.814   4.742
  716TIP3    H2 2155   5.305   2.858   4.602
  717TIP3   OH2 2156   2.129   2.666   4.086
  717TIP3    H1 2157   2.198   2.684   4.022
  717TIP3    H2 2158   2.129   2.743   4.143
  718TIP3   OH2 2159   3.204   1.964   3.725
  718TIP3    H1 2160   3.239   1.887   3.681
  718TIP3    H2 2161   3.238   1.959   3.814
  719TIP3   OH2 2162   2.211   2.261   1.119
  719TIP3    H1 2163   2.216   2.270   1.024
  719TIP3    H2 2164   2.136   2.202   1.133
  720TIP3   OH2 2165   3.472   4.482   3.778
  720TIP3    H1 2166   3.525   4.470   3.700
  720TIP3    H2 2167   3.443   4.573   3.773
  721TIP3   OH2 2168   3.024   4.091   4.293
  721TIP3    H1 2169   3.018   4.181   4.326
  721TIP3    H2 2170   2.972   4.092   4.213
  722TIP3   OH2 2171   2.126   2.528   1.193
  722TIP3    H1 2172   2.177   2.587   1.138
  722TIP3    H2 2173   2.169   2.443   1.183
  723TIP3   OH2 2174   2.634   0.612   0.744
  723TIP3    H1 2175   2.579   0.611   0.822
  723TIP3    H2 2176   2.591   0.674   0.685
  724TIP3   OH2 2177   0.129   4.466   3.833
  724TIP3    H1 2178   0.048   4.464   3.883
  724TIP3    H2 2179   0.158   4.557   3.837
  725TIP3   OH2 2180   0.115   3.433   3.303
  725TIP3    H1 2181   0.182   3.369   3.279
  725TIP3    H2 2182   0.039   3.381   3.327
  726TIP3   OH2 2183   2.450   2.954   0.013
  726TIP3    H1 2184   2.528   2.960   0.068
  726TIP3    H2 2185   2.382   2.920   0.071
  727TIP3   OH2 2186   4.054   1.855   4.821
  727TIP3    H1 2187   3.999   1.862   4.899
  727TIP3    H2 2188   4.044   1.765   4.792
  728TIP3   OH2 2189   5.039   4.009   2.569
  728TIP3    H1 2190   4.962   4.057   2.540
  728TIP3    H2 2191   5.099   4.077   2.599
  729TIP3   OH2 2192   1.160   1.421   3.038
  729TIP3    H1 2193   1.071   1.407   3.008
  729TIP3    H2 2194   1.164   1.515   3.058
  730TIP3   OH2 2195   2.107   0.123   2.312
  730TIP3    H1 2196   2.085   0.151   2.400
  730TIP3    H2 2197   2.121   0.205   2.264
  731TIP3   OH2 2198   4.692   4.753   3.288
  731TIP3    H1 2199   4.621   4.735   3.227
  731TIP3    H2 2200   4.760   4.689   3.266
  732TIP3   OH2 2201   2.843   3.067   4.522
  732TIP3    H1 2202   2.833   3.069   4.618
  732TIP3    H2 2203   2.885   2.983   4.505
  733TIP3   OH2 2204   0.100   2.697   2.191
  733TIP3    H1 2205   0.075   2.627   2.251
  733TIP3    H2 2206   0.083   2.777   2.240
  734TIP3   OH2 2207   5.184   4.213   1.222
  734TIP3    H1 2208   5.127   4.174   1.157
  734TIP3    H2 2209   5.270   4.215   1.180
  735TIP3   OH2 2210   4.692   1.160   2.921
  735TIP3    H1 2211   4.761   1.097   2.898
  735TIP3    H2 2212   4.684   1.216   2.844
  736TIP3   OH2 2213   0.668   1.192   1.762
  736TIP3    H1 2214   0.713   1.206   1.678
  736TIP3    H2 2215   0.702   1.260   1.820
  737TIP3   OH2 2216   2.223   4.840   2.008
  737TIP3    H1 2217   2.129   4.857   2.009
  737TIP3    H2 2218   2.235   4.771   1.942
  738TIP3   OH2 2219   5.419   3.751   0.650
  738TIP3    H1 2220   5.442   3.773   0.559
  738TIP3    H2 2221   5.324   3.757   0.652
  739TIP3   OH2 2222   1.953   5.189   0.537
  739TIP3    H1 2223   1.905   5.155   0.613
  739TIP3    H2 2224   2.045   5.188   0.565
  740TIP3   OH2 2225   3.582   4.930   3.198
  740TIP3    H1 2226   3.563   5.023   3.212
  740TIP3    H2 2227   3.675   4.921   3.219
  741TIP3   OH2 2228   3.757   1.281   2.077
  741TIP3    H1 2229   3.845   1.287   2.113
  741TIP3    H2 2230   3.705   1.340   2.133
  742TIP3   OH2 2231   3.841   4.980   4.369
  742TIP3    H1 2232   3.815   5.026   4.289
  742TIP3    H2 2233   3.937   4.988   4.371
  743TIP3   OH2 2234   6.213   4.254   0.719
  743TIP3    H1 2235   6.179   4.263   0.630
  743TIP3    H2 2236   6.276   4.326   0.728
  744TIP3   OH2 2237   0.909   4.594   1.230
  744TIP3    H1 2238   0.841   4.616   1.167
  744TIP3    H2 2239   0.897   4.500   1.245
  745TIP3   OH2 2240   5.758   0.636   2.121
  745TIP3    H1 2241   5.697   0.577   2.164
  745TIP3    H2 2242   5.703   0.697   2.072
  746TIP3   OH2 2243   1.731   3.629   3.271
  746TIP3    H1 2244   1.653   3.616   3.324
  746TIP3    H2 2245   1.706   3.695   3.207
  747TIP3   OH2 2246   1.781   2.244   1.576
  747TIP3    H1 2247   1.846   2.262   1.644
  747TIP3    H2 2248   1.758   2.331   1.542
  748TIP3   OH2 2249   1.794   1.321   3.665
  748TIP3    H1 2250   1.724   1.380   3.691
  748TIP3    H2 2251   1.874   1.374   3.668
  749TIP3   OH2 2252   2.730   1.336   4.238
  749TIP3    H1 2253   2.775   1.368   4.159
  749TIP3    H2 2254   2.748   1.242   4.239
  750TIP3   OH2 2255   3.806   3.548   2.287
  750TIP3    H1 2256   3.827   3.636   2.319
  750TIP3    H2 2257   3.866   3.491   2.334
  751TIP3   OH2 2258   2.182   5.129   0.130
  751TIP3    H1 2259   2.206   5.221   0.121
  751TIP3    H2 2260   2.087   5.127   0.122
  752TIP3   OH2 2261   4.550   3.649   0.308
  752TIP3    H1 2262   4.644   3.661   0.319
  752TIP3    H2 2263   4.530   3.574   0.365
  753TIP3   OH2 2264   4.657   1.078   4.084
  753TIP3    H1 2265   4.752   1.075   4.077
  753TIP3    H2 2266   4.639   1.160   4.131
  754TIP3   OH2 2267   5.677   3.374   1.163
  754TIP3    H1 2268   5.624   3.295   1.175
  754TIP3    H2 2269   5.756   3.343   1.120
  755TIP3   OH2 2270   1.609   5.156   2.407
  755TIP3    H1 2271   1.597   5.213   2.331
  755TIP3    H2 2272   1.542   5.185   2.469
  756TIP3   OH2 2273   6.120   4.218   1.125
  756TIP3    H1 2274   6.083   4.191   1.041
  756TIP3    H2 2275   6.117   4.314   1.123
  757TIP3   OH2 2276   4.226   3.696   2.884
  757TIP3    H1 2277   4.181   3.757   2.826
  757TIP3    H2 2278   4.289   3.651   2.828
  758TIP3   OH2 2279   4.405   4.471   1.439
  758TIP3    H1 2280   4.445   4.427   1.514
  758TIP3    H2 2281   4.473   4.469   1.371
  759TIP3   OH2 2282   0.122   0.456   2.076
  759TIP3    H1 2283   0.211   0.436   2.105
  759TIP3    H2 2284   0.108   0.547   2.103
  760TIP3   OH2 2285   5.892   1.075   0.696
  760TIP3    H1 2286   5.903   1.006   0.761
  760TIP3    H2 2287   5.978   1.081   0.653
  761TIP3   OH2 2288   1.887   2.828   4.143
  761TIP3    H1 2289   1.975   2.862   4.160
  761TIP3    H2 2290   1.859   2.872   4.063
  762TIP3   OH2 2291   1.689   5.969   3.882
  762TIP3    H1 2292   1.643   5.886   3.897
  762TIP3    H2 2293   1.682   5.982   3.787
  763TIP3   OH2 2294   4.335   3.524   3.079
  763TIP3    H1 2295   4.291   3.589   3.025
  763TIP3    H2 2296   4.425   3.524   3.047
  764TIP3   OH2 2297   5.919   1.192   2.320
  764TIP3    H1 2298   6.012   1.179   2.301
  764TIP3    H2 2299   5.879   1.106   2.307
  765TIP3   OH2 2300   5.310   2.706   2.685
  765TIP3    H1 2301   5.312   2.773   2.616
  765TIP3    H2 2302   5.319   2.755   2.767
  766TIP3   OH2 2303   1.113   2.933   2.382
  766TIP3    H1 2304   1.112   2.839   2.365
  766TIP3    H2 2305   1.202   2.950   2.414
  767TIP3   OH2 2306   5.957   3.110   1.205
  767TIP3    H1 2307   6.037   3.104   1.257
  767TIP3    H2 2308   5.890   3.071   1.260
  768TIP3   OH2 2309   2.457   5.193   3.800
  768TIP3    H1 2310   2.374   5.234   3.775
  768TIP3    H2 2311   2.511   5.197   3.721
  769TIP3   OH2 2312   5.137   0.210   4.681
  769TIP3    H1 2313   5.148   0.174   4.593
  769TIP3    H2 2314   5.223   0.246   4.703
  770TIP3   OH2 2315   1.497   4.339   1.687
  770TIP3    H1 2316   1.551   4.284   1.630
  770TIP3    H2 2317   1.560   4.392   1.736
  771TIP3   OH2 2318   1.629   2.021   1.438
  771TIP3    H1 2319   1.644   2.013   1.532
  771TIP3    H2 2320   1.662   1.939   1.401
  772TIP3   OH2 2321   2.790   0.757   3.356
  772TIP3    H1 2322   2.838   0.839   3.347
  772TIP3    H2 2323   2.710   0.770   3.305
  773TIP3   OH2 2324   4.356   4.559   3.102
  773TIP3    H1 2325   4.369   4.475   3.148
  773TIP3    H2 2326   4.359   4.625   3.172
  774TIP3   OH2 2327   1.508   4.066   0.558
  774TIP3    H1 2328   1.439   4.028   0.612
  774TIP3    H2 2329   1.572   4.099   0.620
  775TIP3   OH2 2330   6.172   3.186   3.966
  775TIP3    H1 2331   6.091   3.136   3.975
  775TIP3    H2 2332   6.195   3.176   3.874
  776TIP3   OH2 2333   6.272   4.451   1.451
  776TIP3    H1 2334   6.299   4.476   1.539
  776TIP3    H2 2335   6.338   4.490   1.393
  777TIP3   OH2 2336   6.297   2.930   0.262
  777TIP3    H1 2337   6.354   2.888   0.198
  777TIP3    H2 2338   6.212   2.888   0.249
  778TIP3   OH2 2339   4.781   3.090   0.743
  778TIP3    H1 2340   4.811   3.001   0.761
  778TIP3    H2 2341   4.833   3.146   0.801
  779TIP3   OH2 2342   1.024   4.371   0.024
  779TIP3    H1 2343   1.002   4.353   0.115
  779TIP3    H2 2344   1.003   4.463   0.011
  780TIP3   OH2 2345   3.884   5.388   3.294
  780TIP3    H1 2346   3.859   5.438   3.372
  780TIP3    H2 2347   3.972   5.357   3.313
  781TIP3   OH2 2348   5.209   1.358   3.945
  781TIP3    H1 2349   5.128   1.343   3.993
  781TIP3    H2 2350   5.265   1.285   3.970
  782TIP3   OH2 2351   5.729   5.160   4.010
  782TIP3    H1 2352   5.712   5.183   4.102
  782TIP3    H2 2353   5.682   5.228   3.960
  783TIP3   OH2 2354   1.784   3.332   1.128
  783TIP3    H1 2355   1.806   3.287   1.210
  783TIP3    H2 2356   1.765   3.261   1.066
  784TIP3   OH2 2357   5.710   5.031   4.566
  784TIP3    H1 2358   5.692   4.973   4.491
  784TIP3    H2 2359   5.623   5.058   4.595
  785TIP3   OH2 2360   4.266   5.772   0.383
  785TIP3    H1 2361   4.190   5.716   0.371
  785TIP3    H2 2362   4.232   5.861   0.384
  786TIP3   OH2 2363   3.370   5.536   3.800
  786TIP3    H1 2364   3.345   5.624   3.771
  786TIP3    H2 2365   3.302   5.479   3.764
  787TIP3   OH2 2366   3.188   4.735   5.078
  787TIP3    H1 2367   3.244   4.768   5.008
  787TIP3    H2 2368   3.104   4.719   5.036
  788TIP3   OH2 2369   3.929   5.137   0.282
  788TIP3    H1 2370   3.901   5.103   0.367
  788TIP3    H2 2371   3.987   5.210   0.304
  789TIP3   OH2 2372   0.597   3.648   2.458
  789TIP3    H1 2373   0.672   3.606   2.415
  789TIP3    H2 2374   0.636   3.720   2.508
  790TIP3   OH2 2375   3.359   5.657   2.524
  790TIP3    H1 2376   3.348   5.584   2.585
  790TIP3    H2 2377   3.442   5.698   2.551
  791TIP3   OH2 2378   4.742   3.611   1.061
  791TIP3    H1 2379   4.722   3.648   1.147
  791TIP3    H2 2380   4.687   3.659   1.000
  792TIP3   OH2 2381   4.241   5.701   4.358
  792TIP3    H1 2382   4.213   5.669   4.443
  792TIP3    H2 2383   4.172   5.763   4.332
  793TIP3   OH2 2384   2.429   0.495   3.874
  793TIP3    H1 2385   2.430   0.411   3.829
  793TIP3    H2 2386   2.414   0.559   3.804
  794TIP3   OH2 2387   5.013   2.543   3.009
  794TIP3    H1 2388   5.053   2.468   3.053
  794TIP3    H2 2389   5.059   2.619   3.046
  795TIP3   OH2 2390   0.517   5.979   1.345
  795TIP3    H1 2391   0.427   5.985   1.316
  795TIP3    H2 2392   0.565   5.946   1.269
  796TIP3   OH2 2393   1.203   5.152   2.956
  796TIP3    H1 2394   1.271   5.087   2.942
  796TIP3    H2 2395   1.197   5.199   2.873
  797TIP3   OH2 2396   6.007   5.877   3.865
  797TIP3    H1 2397   5.940   5.943   3.881
  797TIP3    H2 2398   5.960   5.805   3.822
  798TIP3   OH2 2399   1.391   4.097   3.269
  798TIP3    H1 2400   1.370   4.185   3.237
  798TIP3    H2 2401   1.344   4.089   3.351
  799TIP3   OH2 2402   3.900   2.975   0.249
  799TIP3    H1 2403   3.875   3.053   0.299
  799TIP3    H2 2404   3.994   2.984   0.236
  800TIP3   OH2 2405   3.227   1.461   4.266
  800TIP3    H1 2406   3.168   1.481   4.193
  800TIP3    H2 2407   3.180   1.488   4.344
  801TIP3   OH2 2408   0.164   4.957   0.719
  801TIP3    H1 2409   0.088   4.916   0.677
  801TIP3    H2 2410   0.157   5.050   0.695
  802TIP3   OH2 2411   2.234   5.086   0.634
  802TIP3    H1 2412   2.278   5.091   0.549
  802TIP3    H2 2413   2.304   5.100   0.698
  803TIP3   OH2 2414   5.683   3.640   2.567
  803TIP3    H1 2415   5.634   3.562   2.594
  803TIP3    H2 2416   5.621   3.690   2.513
  804TIP3   OH2 2417   2.406   0.469   0.526
  804TIP3    H1 2418   2.440   0.520   0.453
  804TIP3    H2 2419   2.466   0.489   0.598
  805TIP3   OH2 2420   5.072   0.583   5.190
  805TIP3    H1 2421   5.143   0.628   5.235
  805TIP3    H2 2422   5.069   0.624   5.103
  806TIP3   OH2 2423   1.219   2.392   2.078
  806TIP3    H1 2424   1.231   2.377   2.172
  806TIP3    H2 2425   1.297   2.440   2.051
  807TIP3   OH2 2426   4.203   2.284   3.149
  807TIP3    H1 2427   4.225   2.216   3.086
  807TIP3    H2 2428   4.116   2.261   3.179
  808TIP3   OH2 2429   4.850   5.720   3.140
  808TIP3    H1 2430   4.776   5.768   3.103
  808TIP3    H2 2431   4.810   5.657   3.201
  809TIP3   OH2 2432   3.198   4.086   3.913
  809TIP3    H1 2433   3.201   4.161   3.972
  809TIP3    H2 2434   3.236   4.014   3.963
  810TIP3   OH2 2435   2.708   3.617   1.241
  810TIP3    H1 2436   2.736   3.540   1.192
  810TIP3    H2 2437   2.623   3.641   1.203
  811TIP3   OH2 2438   4.428   0.613   3.445
  811TIP3    H1 2439   4.471   0.682   3.495
  811TIP3    H2 2440   4.492   0.587   3.379
  812TIP3   OH2 2441   3.888   3.792   2.342
  812TIP3    H1 2442   3.858   3.880   2.318
  812TIP3    H2 2443   3.982   3.793   2.327
  813TIP3   OH2 2444   0.356   2.935   2.989
  813TIP3    H1 2445   0.347   2.863   2.926
  813TIP3    H2 2446   0.300   3.004   2.954
  814TIP3   OH2 2447   3.659   4.321   0.622
  814TIP3    H1 2448   3.594   4.367   0.675
  814TIP3    H2 2449   3.669   4.375   0.544
  815TIP3   OH2 2450   4.689   3.768   1.343
  815TIP3    H1 2451   4.594   3.773   1.352
  815TIP3    H2 2452   4.718   3.859   1.351
  816TIP3   OH2 2453   2.079   1.229   1.595
  816TIP3    H1 2454   2.100   1.196   1.683
  816TIP3    H2 2455   2.160   1.219   1.546
  817TIP3   OH2 2456   4.938   1.418   0.562
  817TIP3    H1 2457   4.924   1.326   0.584
  817TIP3    H2 2458   5.033   1.430   0.571
  818TIP3   OH2 2459   4.707   1.371   4.153
  818TIP3    H1 2460   4.640   1.437   4.135
  818TIP3    H2 2461   4.710   1.365   4.249
  819TIP3   OH2 2462   5.789   5.012   3.630
  819TIP3    H1 2463   5.707   5.048   3.595
  819TIP3    H2 2464   5.853   5.081   3.618
  820TIP3   OH2 2465   2.121   1.740   4.564
  820TIP3    H1 2466   2.082   1.793   4.495
  820TIP3    H2 2467   2.160   1.666   4.518
  821TIP3   OH2 2468   6.017   4.164   0.868
  821TIP3    H1 2469   6.102   4.178   0.826
  821TIP3    H2 2470   5.962   4.130   0.797
  822TIP3   OH2 2471   1.363   3.456   2.585
  822TIP3    H1 2472   1.439   3.402   2.603
  822TIP3    H2 2473   1.352   3.510   2.663
  823TIP3   OH2 2474   1.369   2.991   3.826
  823TIP3    H1 2475   1.357   2.917   3.767
  823TIP3    H2 2476   1.405   3.061   3.771
  824TIP3   OH2 2477   6.276   4.642   2.785
  824TIP3    H1 2478   6.297   4.695   2.709
  824TIP3    H2 2479   6.184   4.619   2.774
  825TIP3   OH2 2480   4.633   4.295   0.865
  825TIP3    H1 2481   4.575   4.368   0.841
  825TIP3    H2 2482   4.692   4.286   0.790
  826TIP3   OH2 2483   3.924   4.074   2.623
  826TIP3    H1 2484   3.877   4.127   2.687
  826TIP3    H2 2485   3.855   4.027   2.575
  827TIP3   OH2 2486   0.534   4.313   2.827
  827TIP3    H1 2487   0.630   4.306   2.826
  827TIP3    H2 2488   0.506   4.233   2.872
  828TIP3   OH2 2489   0.373   4.544   4.593
  828TIP3    H1 2490   0.413   4.483   4.656
  828TIP3    H2 2491   0.443   4.605   4.571
  829TIP3   OH2 2492   4.147   1.052   4.459
  829TIP3    H1 2493   4.221   1.112   4.454
  829TIP3    H2 2494   4.120   1.055   4.551
  830TIP3   OH2 2495   2.833   0.688   4.668
  830TIP3    H1 2496   2.810   0.745   4.742
  830TIP3    H2 2497   2.753   0.685   4.615
  831TIP3   OH2 2498   2.468   3.247   1.468
  831TIP3    H1 2499   2.439   3.164   1.430
  831TIP3    H2 2500   2.390   3.303   1.465
  832TIP3   OH2 2501   4.838   4.872   1.206
  832TIP3    H1 2502   4.888   4.947   1.236
  832TIP3    H2 2503   4.875   4.797   1.253
  833TIP3   OH2 2504   0.332   0.134   3.863
  833TIP3    H1 2505   0.270   0.195   3.821
  833TIP3    H2 2506   0.301   0.047   3.837
  834TIP3   OH2 2507   2.364   2.535   0.048
  834TIP3    H1 2508   2.418   2.558   0.124
  834TIP3    H2 2509   2.287   2.591   0.057
  835TIP3   OH2 2510   5.126   4.465   1.788
  835TIP3    H1 2511   5.194   4.531   1.802
  835TIP3    H2 2512   5.171   4.391   1.748
  836TIP3   OH2 2513   1.274   3.471   0.534
  836TIP3    H1 2514   1.337   3.402   0.557
  836TIP3    H2 2515   1.305   3.548   0.582
  837TIP3   OH2 2516   5.296   4.662   1.734
  837TIP3    H1 2517   5.312   4.685   1.826
  837TIP3    H2 2518   5.363   4.710   1.686
  838TIP3   OH2 2519   3.074   4.644   1.690
  838TIP3    H1 2520   3.094   4.698   1.766
  838TIP3    H2 2521   3.111   4.558   1.710
  839TIP3   OH2 2522   3.108   5.252   0.218
  839TIP3    H1 2523   3.077   5.298   0.140
  839TIP3    H2 2524   3.149   5.320   0.271
  840TIP3   OH2 2525   2.428   0.657   3.635
  840TIP3    H1 2526   2.429   0.733   3.577
  840TIP3    H2 2527   2.487   0.594   3.593
  841TIP3   OH2 2528   2.159   0.486   1.265
  841TIP3    H1 2529   2.101   0.495   1.341
  841TIP3    H2 2530   2.198   0.573   1.254
  842TIP3   OH2 2531   0.308   2.092   1.287
  842TIP3    H1 2532   0.346   2.174   1.257
  842TIP3    H2 2533   0.321   2.092   1.382
  843TIP3   OH2 2534   2.495   4.864   1.762
  843TIP3    H1 2535   2.469   4.952   1.790
  843TIP3    H2 2536   2.413   4.818   1.748
  844TIP3   OH2 2537   2.461   1.952   1.769
  844TIP3    H1 2538   2.428   1.913   1.688
  844TIP3    H2 2539   2.554   1.927   1.771
  845TIP3   OH2 2540   6.054   3.800   0.217
  845TIP3    H1 2541   6.122   3.806   0.150
  845TIP3    H2 2542   6.089   3.849   0.291
  846TIP3   OH2 2543   0.701   3.617   5.130
  846TIP3    H1 2544   0.672   3.600   5.219
  846TIP3    H2 2545   0.695   3.713   5.120
  847TIP3   OH2 2546   3.141   1.487   3.989
  847TIP3    H1 2547   3.181   1.459   3.907
  847TIP3    H2 2548   3.047   1.479   3.974
  848TIP3   OH2 2549   4.142   4.950   4.675
  848TIP3    H1 2550   4.210   4.903   4.724
  848TIP3    H2 2551   4.187   5.026   4.639
  849TIP3   OH2 2552   6.092   2.239   1.485
  849TIP3    H1 2553   6.168   2.181   1.483
  849TIP3    H2 2554   6.031   2.200   1.422
  850TIP3   OH2 2555   1.806   1.585   0.443
  850TIP3    H1 2556   1.811   1.508   0.499
  850TIP3    H2 2557   1.713   1.594   0.421
  851TIP3   OH2 2558   5.667   2.175   0.313
  851TIP3    H1 2559   5.705   2.231   0.380
  851TIP3    H2 2560   5.694   2.086   0.338
  852TIP3   OH2 2561   6.296   1.042   1.497
  852TIP3    H1 2562   6.238   1.059   1.423
  852TIP3    H2 2563   6.306   0.946   1.498
  853TIP3   OH2 2564   2.610   3.276   1.734
  853TIP3    H1 2565   2.538   3.271   1.670
  853TIP3    H2 2566   2.596   3.201   1.791
  854TIP3   OH2 2567   6.264   0.524   4.676
  854TIP3    H1 2568   6.285   0.431   4.690
  854TIP3    H2 2569   6.281   0.539   4.583
  855TIP3   OH2 2570   1.743   5.280   0.396
  855TIP3    H1 2571   1.805   5.249   0.462
  855TIP3    H2 2572   1.723   5.370   0.422
  856TIP3   OH2 2573   1.409   2.153   4.422
  856TIP3    H1 2574   1.395   2.198   4.339
  856TIP3    H2 2575   1.489   2.103   4.408
  857TIP3   OH2 2576   5.937   3.543   2.707
  857TIP3    H1 2577   5.913   3.544   2.614
  857TIP3    H2 2578   5.886   3.471   2.744
  858TIP3   OH2 2579   2.066   0.241   2.018
  858TIP3    H1 2580   2.062   0.328   1.980
  858TIP3    H2 2581   2.160   0.221   2.023
  859TIP3   OH2 2582   2.508   0.945   0.401
  859TIP3    H1 2583   2.581   0.979   0.452
  859TIP3    H2 2584   2.548   0.913   0.320
  860TIP3   OH2 2585   4.692   0.236   1.086
  860TIP3    H1 2586   4.774   0.190   1.104
  860TIP3    H2 2587   4.637   0.172   1.042
  861TIP3   OH2 2588   0.843   1.343   1.955
  861TIP3    H1 2589   0.938   1.332   1.951
  861TIP3    H2 2590   0.821   1.335   2.048
  862TIP3   OH2 2591   0.353   5.366   2.145
  862TIP3    H1 2592   0.433   5.394   2.099
  862TIP3    H2 2593   0.328   5.284   2.102
  863TIP3   OH2 2594   5.472   0.809   0.023
  863TIP3    H1 2595   5.417   0.780  -0.050
  863TIP3    H2 2596   5.448   0.901   0.036
  864TIP3   OH2 2597   0.903   4.149   4.230
  864TIP3    H1 2598   0.810   4.134   4.211
  864TIP3    H2 2599   0.941   4.062   4.239
  865TIP3   OH2 2600   1.043   0.486   3.016
  865TIP3    H1 2601   0.968   0.426   3.016
  865TIP3    H2 2602   1.047   0.521   2.927
  866TIP3   OH2 2603   5.736   1.804   2.857
  866TIP3    H1 2604   5.790   1.786   2.935
  866TIP3    H2 2605   5.646   1.801   2.890
  867TIP3   OH2 2606   4.378   2.247   5.178
  867TIP3    H1 2607   4.380   2.153   5.164
  867TIP3    H2 2608   4.317   2.281   5.113
  868TIP3   OH2 2609   6.070   2.533   3.182
  868TIP3    H1 2610   6.156   2.529   3.141
  868TIP3    H2 2611   6.069   2.460   3.244
  869TIP3   OH2 2612   1.269   2.485   2.799
  869TIP3    H1 2613   1.322   2.544   2.745
  869TIP3    H2 2614   1.272   2.402   2.752
  870TIP3   OH2 2615   3.539   3.799   2.831
  870TIP3    H1 2616   3.496   3.742   2.894
  870TIP3    H2 2617   3.509   3.767   2.745
  871TIP3   OH2 2618   1.381   0.466   2.964
  871TIP3    H1 2619   1.317   0.407   2.925
  871TIP3    H2 2620   1.424   0.415   3.032
  872TIP3   OH2 2621   1.393   5.622   4.445
  872TIP3    H1 2622   1.414   5.623   4.351
  872TIP3    H2 2623   1.302   5.651   4.449
  873TIP3   OH2 2624   0.404   5.273   3.926
  873TIP3    H1 2625   0.492   5.242   3.946
  873TIP3    H2 2626   0.417   5.345   3.864
  874TIP3   OH2 2627   3.580   0.725   3.979
  874TIP3    H1 2628   3.516   0.750   3.913
  874TIP3    H2 2629   3.532   0.668   4.039
  875TIP3   OH2 2630   2.705   5.211   4.219
  875TIP3    H1 2631   2.629   5.195   4.164
  875TIP3    H2 2632   2.671   5.205   4.309
  876TIP3   OH2 2633   3.605   5.179   3.607
  876TIP3    H1 2634   3.690   5.145   3.579
  876TIP3    H2 2635   3.570   5.223   3.528
  877TIP3   OH2 2636   1.244   5.674   2.176
  877TIP3    H1 2637   1.250   5.748   2.115
  877TIP3    H2 2638   1.150   5.664   2.192
  878TIP3   OH2 2639   0.464   1.299   4.294
  878TIP3    H1 2640   0.453   1.205   4.306
  878TIP3    H2 2641   0.409   1.338   4.363
  879TIP3   OH2 2642   5.834   3.685   0.093
  879TIP3    H1 2643   5.900   3.748   0.122
  879TIP3    H2 2644   5.856   3.668   0.001
  880TIP3   OH2 2645   2.612   4.797   3.716
  880TIP3    H1 2646   2.545   4.737   3.749
  880TIP3    H2 2647   2.693   4.767   3.757
  881TIP3   OH2 2648   2.974   5.859   1.049
  881TIP3    H1 2649   2.973   5.773   1.006
  881TIP3    H2 2650   2.906   5.909   1.005
  882TIP3   OH2 2651   3.161   2.643   0.900
  882TIP3    H1 2652   3.132   2.602   0.982
  882TIP3    H2 2653   3.150   2.576   0.834
  883TIP3   OH2 2654   0.149   2.794   2.846
  883TIP3    H1 2655   0.237   2.783   2.810
  883TIP3    H2 2656   0.102   2.715   2.818
  884TIP3   OH2 2657   6.120   5.536   0.495
  884TIP3    H1 2658   6.086   5.624   0.513
  884TIP3    H2 2659   6.215   5.546   0.498
  885TIP3   OH2 2660   5.012   1.300   2.338
  885TIP3    H1 2661   5.089   1.303   2.396
  885TIP3    H2 2662   5.041   1.347   2.259
  886TIP3   OH2 2663   1.824   2.292   5.109
  886TIP3    H1 2664   1.864   2.332   5.032
  886TIP3    H2 2665   1.730   2.290   5.089
  887TIP3   OH2 2666   3.817   3.333   0.222
  887TIP3    H1 2667   3.745   3.350   0.283
  887TIP3    H2 2668   3.878   3.406   0.237
  888TIP3   OH2 2669   3.684   0.885   0.587
  888TIP3    H1 2670   3.780   0.884   0.587
  888TIP3    H2 2671   3.659   0.798   0.617
  889TIP3   OH2 2672   0.380   5.846   4.397
  889TIP3    H1 2673   0.391   5.917   4.460
  889TIP3    H2 2674   0.305   5.797   4.429
  890TIP3   OH2 2675   0.402   2.346   0.234
  890TIP3    H1 2676   0.458   2.365   0.310
  890TIP3    H2 2677   0.349   2.271   0.261
  891TIP3   OH2 2678   2.306   1.951   4.576
  891TIP3    H1 2679   2.253   1.885   4.532
  891TIP3    H2 2680   2.246   1.993   4.637
  892TIP3   OH2 2681   5.317   4.130   3.716
  892TIP3    H1 2682   5.373   4.205   3.734
  892TIP3    H2 2683   5.229   4.166   3.710
  893TIP3   OH2 2684   2.757   1.208   4.567
  893TIP3    H1 2685   2.845   1.207   4.605
  893TIP3    H2 2686   2.761   1.142   4.497
  894TIP3   OH2 2687   4.972   5.895   4.456
  894TIP3    H1 2688   5.007   5.839   4.526
  894TIP3    H2 2689   4.919   5.837   4.403
  895TIP3   OH2 2690   0.241   4.360   5.016
  895TIP3    H1 2691   0.158   4.374   5.062
  895TIP3    H2 2692   0.283   4.446   5.016
  896TIP3   OH2 2693   4.458   5.412   3.507
  896TIP3    H1 2694   4.552   5.395   3.518
  896TIP3    H2 2695   4.444   5.407   3.412
  897TIP3   OH2 2696   3.398   3.689   0.108
  897TIP3    H1 2697   3.327   3.753   0.110
  897TIP3    H2 2698   3.440   3.696   0.194
  898TIP3   OH2 2699   3.647   1.579   1.544
  898TIP3    H1 2700   3.700   1.505   1.515
  898TIP3    H2 2701   3.608   1.614   1.464
  899TIP3   OH2 2702   0.120   5.422   0.459
  899TIP3    H1 2703   0.201   5.473   0.466
  899TIP3    H2 2704   0.131   5.371   0.378
  900TIP3   OH2 2705   3.550   5.970   4.257
  900TIP3    H1 2706   3.459   5.960   4.285
  900TIP3    H2 2707   3.593   5.890   4.285
  901TIP3   OH2 2708   0.221   5.687   2.382
  901TIP3    H1 2709   0.147   5.735   2.346
  901TIP3    H2 2710   0.207   5.688   2.476
  902TIP3   OH2 2711   5.280   2.894   4.063
  902TIP3    H1 2712   5.223   2.868   4.135
  902TIP3    H2 2713   5.347   2.949   4.104
  903TIP3   OH2 2714   2.189   3.520   4.365
  903TIP3    H1 2715   2.134   3.450   4.330
  903TIP3    H2 2716   2.133   3.566   4.428
  904TIP3   OH2 2717   5.994   1.777   1.462
  904TIP3    H1 2718   6.020   1.842   1.527
  904TIP3    H2 2719   6.068   1.773   1.402
  905TIP3   OH2 2720   4.474   3.740   0.651
  905TIP3    H1 2721   4.431   3.726   0.566
  905TIP3    H2 2722   4.404   3.732   0.715
  906TIP3   OH2 2723   1.725   4.687   1.056
  906TIP3    H1 2724   1.662   4.615   1.068
  906TIP3    H2 2725   1.733   4.725   1.144
  907TIP3   OH2 2726   2.911   2.421   2.595
  907TIP3    H1 2727   2.819   2.440   2.612
  907TIP3    H2 2728   2.945   2.385   2.677
  908TIP3   OH2 2729   2.256   1.581   2.004
  908TIP3    H1 2730   2.326   1.630   2.047
  908TIP3    H2 2731   2.264   1.603   1.911
  909TIP3   OH2 2732   3.797   3.885   2.900
  909TIP3    H1 2733   3.723   3.847   2.852
  909TIP3    H2 2734   3.849   3.809   2.927
  910TIP3   OH2 2735   5.810   0.638   3.149
  910TIP3    H1 2736   5.856   0.555   3.148
  910TIP3    H2 2737   5.834   0.679   3.232
  911TIP3   OH2 2738   3.796   2.406   1.722
  911TIP3    H1 2739   3.814   2.327   1.671
  911TIP3    H2 2740   3.838   2.391   1.806
  912TIP3   OH2 2741   3.525   1.022   3.818
  912TIP3    H1 2742   3.596   1.023   3.754
  912TIP3    H2 2743   3.446   1.006   3.766
  913TIP3   OH2 2744   0.451   4.044   0.640
  913TIP3    H1 2745   0.368   4.058   0.685
  913TIP3    H2 2746   0.487   4.132   0.630
  914TIP3   OH2 2747   5.412   0.267   4.701
  914TIP3    H1 2748   5.421   0.282   4.607
  914TIP3    H2 2749   5.477   0.200   4.721
  915TIP3   OH2 2750   1.553   2.068   0.496
  915TIP3    H1 2751   1.464   2.061   0.462
  915TIP3    H2 2752   1.548   2.136   0.563
  916TIP3   OH2 2753   4.081   0.083   0.618
  916TIP3    H1 2754   4.125   0.003   0.649
  916TIP3    H2 2755   4.061   0.131   0.698
  917TIP3   OH2 2756   3.396   1.725   2.953
  917TIP3    H1 2757   3.318   1.739   3.007
  917TIP3    H2 2758   3.399   1.802   2.895
  918TIP3   OH2 2759   0.644   0.395   1.406
  918TIP3    H1 2760   0.629   0.403   1.500
  918TIP3    H2 2761   0.586   0.324   1.378
  919TIP3   OH2 2762   0.133   0.263   4.719
  919TIP3    H1 2763   0.144   0.188   4.778
  919TIP3    H2 2764   0.171   0.234   4.636
  920TIP3   OH2 2765   4.732   1.759   0.737
  920TIP3    H1 2766   4.744   1.664   0.749
  920TIP3    H2 2767   4.750   1.796   0.823
  921TIP3   OH2 2768   4.776   2.174   0.802
  921TIP3    H1 2769   4.854   2.217   0.767
  921TIP3    H2 2770   4.720   2.159   0.726
  922TIP3   OH2 2771   5.097   1.782   2.069
  922TIP3    H1 2772   5.156   1.747   2.136
  922TIP3    H2 2773   5.146   1.855   2.031
  923TIP3   OH2 2774   5.871   4.719   4.010
  923TIP3    H1 2775   5.853   4.632   4.045
  923TIP3    H2 2776   5.907   4.768   4.083
  924TIP3   OH2 2777   1.443   4.033   2.526
  924TIP3    H1 2778   1.413   4.113   2.569
  924TIP3    H2 2779   1.364   3.979   2.521
  925TIP3   OH2 2780   2.673   1.936   1.103
  925TIP3    H1 2781   2.689   1.886   1.183
  925TIP3    H2 2782   2.578   1.934   1.092
  926TIP3   OH2 2783   5.566   4.429   3.544
  926TIP3    H1 2784   5.490   4.423   3.486
  926TIP3    H2 2785   5.614   4.348   3.529
  927TIP3   OH2 2786   1.873   1.836   0.024
  927TIP3    H1 2787   1.859   1.769   0.091
  927TIP3    H2 2788   1.910   1.911   0.071
  928TIP3   OH2 2789   4.557   2.843   0.349
  928TIP3    H1 2790   4.632   2.844   0.409
  928TIP3    H2 2791   4.490   2.793   0.396
  929TIP3   OH2 2792   2.884   3.051   1.960
  929TIP3    H1 2793   2.848   3.027   2.045
  929TIP3    H2 2794   2.840   3.133   1.938
  930TIP3   OH2 2795   0.469   3.008   2.494
  930TIP3    H1 2796   0.522   3.046   2.425
  930TIP3    H2 2797   0.526   3.009   2.571
  931TIP3   OH2 2798   5.441   3.312   3.569
  931TIP3    H1 2799   5.500   3.337   3.641
  931TIP3    H2 2800   5.373   3.379   3.570
  932TIP3   OH2 2801   3.729   1.043   3.609
  932TIP3    H1 2802   3.809   0.996   3.632
  932TIP3    H2 2803   3.711   1.017   3.518
  933TIP3   OH2 2804   5.151   2.791   4.285
  933TIP3    H1 2805   5.090   2.747   4.345
  933TIP3    H2 2806   5.238   2.766   4.317
  934TIP3   OH2 2807   3.106   4.814   4.438
  934TIP3    H1 2808   3.081   4.898   4.477
  934TIP3    H2 2809   3.119   4.756   4.513
  935TIP3   OH2 2810   6.230   5.216   0.495
  935TIP3    H1 2811   6.221   5.311   0.490
  935TIP3    H2 2812   6.286   5.193   0.421
  936TIP3   OH2 2813   0.325   1.024   1.862
  936TIP3    H1 2814   0.354   1.103   1.817
  936TIP3    H2 2815   0.321   0.957   1.794
  937TIP3   OH2 2816   1.460   0.322   1.871
  937TIP3    H1 2817   1.388   0.341   1.931
  937TIP3    H2 2818   1.422   0.332   1.784
  938TIP3   OH2 2819   4.322   0.863   3.854
  938TIP3    H1 2820   4.314   0.807   3.777
  938TIP3    H2 2821   4.265   0.938   3.835
  939TIP3   OH2 2822   0.363   5.962   5.197
  939TIP3    H1 2823   0.384   5.890   5.256
  939TIP3    H2 2824   0.385   5.929   5.110
  940TIP3   OH2 2825   6.026   3.509   3.077
  940TIP3    H1 2826   6.064   3.429   3.040
  940TIP3    H2 2827   5.954   3.478   3.131
  941TIP3   OH2 2828   5.179   3.528   0.839
  941TIP3    H1 2829   5.186   3.591   0.767
  941TIP3    H2 2830   5.085   3.517   0.852
  942TIP3   OH2 2831   0.850   5.580   0.591
  942TIP3    H1 2832   0.882   5.667   0.571
  942TIP3    H2 2833   0.770   5.571   0.540
  943TIP3   OH2 2834   5.984   1.797   5.047
  943TIP3    H1 2835   6.019   1.753   5.124
  943TIP3    H2 2836   5.913   1.852   5.080
  944TIP3   OH2 2837   0.314   0.634   4.788
  944TIP3    H1 2838   0.240   0.670   4.739
  944TIP3    H2 2839   0.277   0.558   4.833
  945TIP3   OH2 2840   2.744   2.663   4.673
  945TIP3    H1 2841   2.741   2.573   4.642
  945TIP3    H2 2842   2.722   2.716   4.597
  946TIP3   OH2 2843   5.650   1.266   3.318
  946TIP3    H1 2844   5.652   1.352   3.358
  946TIP3    H2 2845   5.735   1.227   3.338
  947TIP3   OH2 2846   1.217   2.919   4.817
  947TIP3    H1 2847   1.223   3.015   4.820
  947TIP3    H2 2848   1.297   2.889   4.859
  948TIP3   OH2 2849   6.079   5.123   1.113
  948TIP3    H1 2850   6.153   5.150   1.167
  948TIP3    H2 2851   6.084   5.027   1.113
  949TIP3   OH2 2852   4.982   2.169   4.623
  949TIP3    H1 2853   4.991   2.076   4.645
  949TIP3    H2 2854   4.929   2.206   4.693
  950TIP3   OH2 2855   0.905   0.798   3.072
  950TIP3    H1 2856   0.871   0.758   3.152
  950TIP3    H2 2857   0.978   0.852   3.101
  951TIP3   OH2 2858   6.041   1.258   1.076
  951TIP3    H1 2859   5.966   1.227   1.024
  951TIP3    H2 2860   6.116   1.251   1.017
  952TIP3   OH2 2861   3.927   4.716   2.224
  952TIP3    H1 2862   3.926   4.811   2.213
  952TIP3    H2 2863   3.857   4.698   2.287
  953TIP3   OH2 2864   5.816   3.455   4.119
  953TIP3    H1 2865   5.901   3.495   4.101
  953TIP3    H2 2866   5.811   3.451   4.214
  954TIP3   OH2 2867   2.123   5.182   1.965
  954TIP3    H1 2868   2.071   5.165   1.886
  954TIP3    H2 2869   2.090   5.119   2.029
  955TIP3   OH2 2870   6.232   2.104   2.042
  955TIP3    H1 2871   6.207   2.012   2.045
  955TIP3    H2 2872   6.223   2.135   2.132
  956TIP3   OH2 2873   5.460   3.642   4.943
  956TIP3    H1 2874   5.417   3.674   5.022
  956TIP3    H2 2875   5.430   3.701   4.874
  957TIP3   OH2 2876   0.527   0.100   4.513
  957TIP3    H1 2877   0.553   0.017   4.474
  957TIP3    H2 2878   0.547   0.090   4.606
  958TIP3   OH2 2879   2.079   5.226   1.223
  958TIP3    H1 2880   2.160   5.267   1.254
  958TIP3    H2 2881   2.108   5.160   1.159
  959TIP3   OH2 2882   3.117   5.454   1.146
  959TIP3    H1 2883   3.097   5.396   1.072
  959TIP3    H2 2884   3.136   5.538   1.106
  960TIP3   OH2 2885   3.488   0.168   2.985
  960TIP3    H1 2886   3.452   0.251   2.954
  960TIP3    H2 2887   3.411   0.116   3.008
  961TIP3   OH2 2888   1.578   5.630   1.863
  961TIP3    H1 2889   1.530   5.652   1.783
  961TIP3    H2 2890   1.609   5.714   1.896
  962TIP3   OH2 2891   0.364   2.451   4.946
  962TIP3    H1 2892   0.275   2.415   4.950
  962TIP3    H2 2893   0.362   2.513   4.873
  963TIP3   OH2 2894   3.624   3.227   3.530
  963TIP3    H1 2895   3.538   3.233   3.488
  963TIP3    H2 2896   3.676   3.296   3.488
  964TIP3   OH2 2897   6.121   1.157   1.973
  964TIP3    H1 2898   6.145   1.182   1.883
  964TIP3    H2 2899   6.188   1.197   2.028
  965TIP3   OH2 2900   5.201   0.694   3.235
  965TIP3    H1 2901   5.139   0.766   3.221
  965TIP3    H2 2902   5.223   0.664   3.146
  966TIP3   OH2 2903   2.360   0.926   2.072
  966TIP3    H1 2904   2.383   1.018   2.071
  966TIP3    H2 2905   2.435   0.882   2.112
  967TIP3   OH2 2906   5.067   1.606   3.134
  967TIP3    H1 2907   5.000   1.607   3.066
  967TIP3    H2 2908   5.095   1.515   3.139
  968TIP3   OH2 2909   2.357   4.093   4.307
  968TIP3    H1 2910   2.434   4.038   4.323
  968TIP3    H2 2911   2.367   4.122   4.216
  969TIP3   OH2 2912   3.723   1.940   4.960
  969TIP3    H1 2913   3.697   1.873   4.896
  969TIP3    H2 2914   3.761   1.890   5.032
  970TIP3   OH2 2915   2.496   0.115   4.522
  970TIP3    H1 2916   2.586   0.148   4.521
  970TIP3    H2 2917   2.447   0.178   4.469
  971TIP3   OH2 2918   1.310   1.388   3.980
  971TIP3    H1 2919   1.251   1.445   4.030
  971TIP3    H2 2920   1.251   1.327   3.935
  972TIP3   OH2 2921   3.341   0.248   4.789
  972TIP3    H1 2922   3.415   0.297   4.824
  972TIP3    H2 2923   3.303   0.204   4.865
  973TIP3   OH2 2924   1.408   3.101   1.769
  973TIP3    H1 2925   1.367   3.186   1.786
  973TIP3    H2 2926   1.479   3.095   1.832
  974TIP3   OH2 2927   1.722   0.973   2.967
  974TIP3    H1 2928   1.635   0.933   2.967
  974TIP3    H2 2929   1.712   1.052   2.914
  975TIP3   OH2 2930   5.186   4.411   3.002
  975TIP3    H1 2931   5.160   4.364   3.082
  975TIP3    H2 2932   5.103   4.434   2.961
  976TIP3   OH2 2933   6.123   2.854   3.673
  976TIP3    H1 2934   6.037   2.827   3.705
  976TIP3    H2 2935   6.153   2.780   3.620
  977TIP3   OH2 2936   1.032   1.607   2.114
  977TIP3    H1 2937   1.119   1.571   2.132
  977TIP3    H2 2938   1.035   1.696   2.150
  978TIP3   OH2 2939   1.570   1.561   0.293
  978TIP3    H1 2940   1.482   1.543   0.260
  978TIP3    H2 2941   1.623   1.488   0.261
  979TIP3   OH2 2942   2.869   1.852   0.052
  979TIP3    H1 2943   2.910   1.796  -0.014
  979TIP3    H2 2944   2.851   1.794   0.126
  980TIP3   OH2 2945   6.176   2.354   2.981
  980TIP3    H1 2946   6.201   2.264   2.963
  980TIP3    H2 2947   6.081   2.356   2.969
  981TIP3   OH2 2948   1.391   3.955   4.934
  981TIP3    H1 2949   1.430   3.995   4.856
  981TIP3    H2 2950   1.462   3.956   4.999
  982TIP3   OH2 2951   4.327   2.891   0.962
  982TIP3    H1 2952   4.329   2.833   0.886
  982TIP3    H2 2953   4.363   2.974   0.930
  983TIP3   OH2 2954   1.165   0.763   3.971
  983TIP3    H1 2955   1.259   0.769   3.955
  983TIP3    H2 2956   1.138   0.852   3.994
  984TIP3   OH2 2957   1.784   4.178   0.252
  984TIP3    H1 2958   1.761   4.141   0.167
  984TIP3    H2 2959   1.812   4.267   0.233
  985TIP3   OH2 2960   5.944   0.135   2.118
  985TIP3    H1 2961   5.901   0.057   2.082
  985TIP3    H2 2962   5.892   0.208   2.086
  986TIP3   OH2 2963   5.126   1.894   1.631
  986TIP3    H1 2964   5.201   1.836   1.625
  986TIP3    H2 2965   5.136   1.955   1.558
  987TIP3   OH2 2966   3.550   3.304   2.409
  987TIP3    H1 2967   3.542   3.394   2.378
  987TIP3    H2 2968   3.611   3.263   2.347
  988TIP3   OH2 2969   2.650   4.295   0.087
  988TIP3    H1 2970   2.579   4.329   0.033
  988TIP3    H2 2971   2.669   4.209   0.050
  989TIP3   OH2 2972   2.468   4.889   4.673
  989TIP3    H1 2973   2.480   4.948   4.598
  989TIP3    H2 2974   2.496   4.804   4.640
  990TIP3   OH2 2975   0.759   2.941   0.976
  990TIP3    H1 2976   0.842   2.964   1.018
  990TIP3    H2 2977   0.780   2.941   0.882
  991TIP3   OH2 2978   4.800   5.308   3.810
  991TIP3    H1 2979   4.801   5.295   3.715
  991TIP3    H2 2980   4.825   5.224   3.846
  992TIP3   OH2 2981   3.089   2.180   2.168
  992TIP3    H1 2982   3.126   2.098   2.134
  992TIP3    H2 2983   3.157   2.216   2.225
  993TIP3   OH2 2984   1.782   1.729   1.113
  993TIP3    H1 2985   1.859   1.777   1.082
  993TIP3    H2 2986   1.716   1.746   1.045
  994TIP3   OH2 2987   2.540   1.821   3.712
  994TIP3    H1 2988   2.449   1.848   3.724
  994TIP3    H2 2989   2.573   1.879   3.643
  995TIP3   OH2 2990   0.557   3.395   3.809
  995TIP3    H1 2991   0.551   3.315   3.861
  995TIP3    H2 2992   0.497   3.381   3.736
  996TIP3   OH2 2993   1.507   0.857   2.840
  996TIP3    H1 2994   1.437   0.841   2.903
  996TIP3    H2 2995   1.503   0.951   2.822
  997TIP3   OH2 2996   0.105   0.731   3.302
  997TIP3    H1 2997   0.075   0.693   3.220
  997TIP3    H2 2998   0.160   0.805   3.276
  998TIP3   OH2 2999   5.540   4.489   1.362
  998TIP3    H1 3000   5.629   4.520   1.345
  998TIP3    H2 3001   5.484   4.549   1.312
  999TIP3   OH2 3002   1.367   2.357   1.766
  999TIP3    H1 3003   1.462   2.344   1.775
  999TIP3    H2 3004   1.329   2.275   1.795
 1000TIP3   OH2 3005   2.955   3.981   2.226
 1000TIP3    H1 3006   2.983   3.902   2.180
 1000TIP3    H2 3007   2.860   3.979   2.223
 1001TIP3   OH2 3008   5.508   4.264   3.207
 1001TIP3    H1 3009   5.448   4.212   3.260
 1001TIP3    H2 3010   5.584   4.278   3.262
 1002TIP3   OH2 3011   3.483   1.367   4.171
 1002TIP3    H1 3012   3.539   1.433   4.212
 1002TIP3    H2 3013   3.396   1.383   4.208
 1003TIP3   OH2 3014   4.245   1.721   1.031
 1003TIP3    H1 3015   4.153   1.736   1.051
 1003TIP3    H2 3016   4.246   1.688   0.942
 1004TIP3   OH2 3017   3.083   3.452   1.236
 1004TIP3    H1 3018   3.142   3.385   1.272
 1004TIP3    H2 3019   2.999   3.436   1.279
 1005TIP3   OH2 3020   2.384   0.253   3.757
 1005TIP3    H1 3021   2.416   0.167   3.784
 1005TIP3    H2 3022   2.297   0.236   3.721
 1006TIP3   OH2 3023   2.546   0.100   2.042
 1006TIP3    H1 3024   2.641   0.095   2.056
 1006TIP3    H2 3025   2.511   0.024   2.089
 1007TIP3   OH2 3026   2.968   5.853   4.445
 1007TIP3    H1 3027   2.883   5.840   4.487
 1007TIP3    H2 3028   3.000   5.936   4.480
 1008TIP3   OH2 3029   3.500   2.559   1.016
 1008TIP3    H1 3030   3.433   2.563   0.948
 1008TIP3    H2 3031   3.451   2.559   1.098
 1009TIP3   OH2 3032   1.577   2.106   2.438
 1009TIP3    H1 3033   1.544   2.190   2.406
 1009TIP3    H2 3034   1.652   2.087   2.383
 1010TIP3   OH2 3035   2.867   4.344   4.036
 1010TIP3    H1 3036   2.915   4.266   4.062
 1010TIP3    H2 3037   2.858   4.395   4.117
 1011TIP3   OH2 3038   5.783   1.417   4.809
 1011TIP3    H1 3039   5.837   1.423   4.730
 1011TIP3    H2 3040   5.743   1.504   4.817
 1012TIP3   OH2 3041   4.870   2.733   1.929
 1012TIP3    H1 3042   4.865   2.814   1.878
 1012TIP3    H2 3043   4.817   2.749   2.006
 1013TIP3   OH2 3044   2.204   2.849   1.204
 1013TIP3    H1 3045   2.261   2.807   1.140
 1013TIP3    H2 3046   2.118   2.853   1.162
 1014TIP3   OH2 3047   5.888   2.744   3.795
 1014TIP3    H1 3048   5.803   2.709   3.770
 1014TIP3    H2 3049   5.933   2.671   3.837
 1015TIP3   OH2 3050   4.169   4.768   3.037
 1015TIP3    H1 3051   4.246   4.714   3.019
 1015TIP3    H2 3052   4.165   4.771   3.133
 1016TIP3   OH2 3053   2.370   2.675   1.045
 1016TIP3    H1 3054   2.445   2.698   1.100
 1016TIP3    H2 3055   2.397   2.696   0.956
 1017TIP3   OH2 3056   6.268   3.550   1.405
 1017TIP3    H1 3057   6.284   3.561   1.311
 1017TIP3    H2 3058   6.243   3.637   1.436
 1018TIP3   OH2 3059   5.894   5.987   2.513
 1018TIP3    H1 3060   5.885   5.981   2.418
 1018TIP3    H2 3061   5.807   5.964   2.546
 1019TIP3   OH2 3062   2.745   2.947   3.272
 1019TIP3    H1 3063   2.818   3.000   3.239
 1019TIP3    H2 3064   2.728   2.981   3.360
 1020TIP3   OH2 3065   5.752   3.148   1.730
 1020TIP3    H1 3066   5.687   3.181   1.791
 1020TIP3    H2 3067   5.766   3.057   1.757
 1021TIP3   OH2 3068   6.209   1.800   1.307
 1021TIP3    H1 3069   6.296   1.776   1.338
 1021TIP3    H2 3070   6.223   1.833   1.218
 1022TIP3   OH2 3071   2.422   2.865   3.352
 1022TIP3    H1 3072   2.474   2.798   3.396
 1022TIP3    H2 3073   2.416   2.835   3.262
 1023TIP3   OH2 3074   1.680   0.920   1.119
 1023TIP3    H1 3075   1.712   0.852   1.059
 1023TIP3    H2 3076   1.724   0.903   1.202
 1024TIP3   OH2 3077   3.426   3.201   5.218
 1024TIP3    H1 3078   3.339   3.168   5.193
 1024TIP3    H2 3079   3.459   3.245   5.140
 1025TIP3   OH2 3080   5.079   0.930   3.464
 1025TIP3    H1 3081   5.122   0.947   3.380
 1025TIP3    H2 3082   5.108   1.001   3.520
 1026TIP3   OH2 3083   0.097   5.859   1.340
 1026TIP3    H1 3084   0.130   5.940   1.299
 1026TIP3    H2 3085   0.044   5.818   1.272
 1027TIP3   OH2 3086   5.506   1.012   0.753
 1027TIP3    H1 3087   5.534   1.088   0.803
 1027TIP3    H2 3088   5.536   0.937   0.806
 1028TIP3   OH2 3089   0.683   3.969   0.515
 1028TIP3    H1 3090   0.658   3.931   0.430
 1028TIP3    H2 3091   0.600   3.982   0.561
 1029TIP3   OH2 3092   3.381   4.149   0.868
 1029TIP3    H1 3093   3.335   4.095   0.804
 1029TIP3    H2 3094   3.350   4.238   0.851
 1030TIP3   OH2 3095   0.404   3.806   3.390
 1030TIP3    H1 3096   0.350   3.877   3.426
 1030TIP3    H2 3097   0.476   3.796   3.453
 1031TIP3   OH2 3098   0.297   5.794   3.377
 1031TIP3    H1 3099   0.352   5.828   3.307
 1031TIP3    H2 3100   0.270   5.872   3.426
 1032TIP3   OH2 3101   0.940   3.984   1.764
 1032TIP3    H1 3102   0.862   3.928   1.770
 1032TIP3    H2 3103   1.008   3.935   1.811
 1033TIP3   OH2 3104   4.208   2.053   3.023
 1033TIP3    H1 3105   4.146   2.038   2.952
 1033TIP3    H2 3106   4.181   1.992   3.092
 1034TIP3   OH2 3107   5.878   4.148   4.484
 1034TIP3    H1 3108   5.960   4.191   4.461
 1034TIP3    H2 3109   5.901   4.091   4.558
 1035TIP3   OH2 3110   1.840   2.071   4.117
 1035TIP3    H1 3111   1.770   2.054   4.180
 1035TIP3    H2 3112   1.821   2.159   4.084
 1036TIP3   OH2 3113   0.493   2.273   2.832
 1036TIP3    H1 3114   0.461   2.189   2.866
 1036TIP3    H2 3115   0.584   2.256   2.808
 1037TIP3   OH2 3116   1.650   4.531   3.439
 1037TIP3    H1 3117   1.723   4.471   3.454
 1037TIP3    H2 3118   1.571   4.477   3.449
 1038TIP3   OH2 3119   0.077   5.298   4.114
 1038TIP3    H1 3120  -0.002   5.249   4.091
 1038TIP3    H2 3121   0.137   5.232   4.150
 1039TIP3   OH2 3122   6.087   0.551   3.685
 1039TIP3    H1 3123   6.170   0.583   3.649
 1039TIP3    H2 3124   6.081   0.460   3.655
 1040TIP3   OH2 3125   0.981   0.712   3.749
 1040TIP3    H1 3126   1.038   0.744   3.820
 1040TIP3    H2 3127   1.025   0.740   3.669
 1041TIP3   OH2 3128   3.061   1.578   4.927
 1041TIP3    H1 3129   3.070   1.484   4.944
 1041TIP3    H2 3130   2.991   1.584   4.862
 1042TIP3   OH2 3131   5.830  -0.011   3.068
 1042TIP3    H1 3132   5.811   0.057   3.133
 1042TIP3    H2 3133   5.916   0.011   3.034
 1043TIP3   OH2 3134   1.999   2.923   1.926
 1043TIP3    H1 3135   1.939   2.925   1.852
 1043TIP3    H2 3136   2.002   2.831   1.952
 1044TIP3   OH2 3137   4.428   0.091   3.740
 1044TIP3    H1 3138   4.518   0.121   3.732
 1044TIP3    H2 3139   4.426   0.007   3.694
 1045TIP3   OH2 3140   5.130   4.240   4.417
 1045TIP3    H1 3141   5.206   4.198   4.375
 1045TIP3    H2 3142   5.168   4.292   4.488
 1046TIP3   OH2 3143   3.965   1.193   0.646
 1046TIP3    H1 3144   3.893   1.230   0.595
 1046TIP3    H2 3145   4.029   1.264   0.653
 1047TIP3   OH2 3146   0.454   0.699   3.324
 1047TIP3    H1 3147   0.530   0.746   3.289
 1047TIP3    H2 3148   0.464   0.707   3.419
 1048TIP3   OH2 3149   6.187   5.838   4.293
 1048TIP3    H1 3150   6.270   5.836   4.340
 1048TIP3    H2 3151   6.208   5.875   4.208
 1049TIP3   OH2 3152   4.980   4.236   1.031
 1049TIP3    H1 3153   4.956   4.165   0.971
 1049TIP3    H2 3154   4.992   4.312   0.975
 1050TIP3   OH2 3155   2.770   0.096   3.748
 1050TIP3    H1 3156   2.762   0.158   3.820
 1050TIP3    H2 3157   2.858   0.111   3.713
 1051TIP3   OH2 3158   0.431   5.109   0.527
 1051TIP3    H1 3159   0.449   5.182   0.467
 1051TIP3    H2 3160   0.374   5.146   0.594
 1052TIP3   OH2 3161   4.027   4.037   2.046
 1052TIP3    H1 3162   4.033   4.028   2.141
 1052TIP3    H2 3163   3.957   3.977   2.021
 1053TIP3   OH2 3164   0.729   4.001   1.476
 1053TIP3    H1 3165   0.713   4.052   1.555
 1053TIP3    H2 3166   0.692   3.914   1.496
 1054TIP3   OH2 3167   3.128   0.233   4.382
 1054TIP3    H1 3168   3.040   0.237   4.345
 1054TIP3    H2 3169   3.122   0.285   4.463
 1055TIP3   OH2 3170   1.138   1.833   2.390
 1055TIP3    H1 3171   1.230   1.816   2.369
 1055TIP3    H2 3172   1.141   1.898   2.460
 1056TIP3   OH2 3173   4.582   5.239   2.914
 1056TIP3    H1 3174   4.581   5.219   2.820
 1056TIP3    H2 3175   4.610   5.157   2.955
 1057TIP3   OH2 3176   4.530   5.284   4.573
 1057TIP3    H1 3177   4.570   5.297   4.487
 1057TIP3    H2 3178   4.490   5.369   4.594
 1058TIP3   OH2 3179   1.698   4.234   1.504
 1058TIP3    H1 3180   1.761   4.268   1.441
 1058TIP3    H2 3181   1.621   4.213   1.452
 1059TIP3   OH2 3182   6.014   0.858   3.010
 1059TIP3    H1 3183   6.051   0.917   3.076
 1059TIP3    H2 3184   5.969   0.915   2.949
 1060TIP3   OH2 3185   0.281   3.289   2.421
 1060TIP3    H1 3186   0.200   3.316   2.379
 1060TIP3    H2 3187   0.295   3.199   2.392
 1061TIP3   OH2 3188   0.839   5.673   2.587
 1061TIP3    H1 3189   0.828   5.768   2.600
 1061TIP3    H2 3190   0.795   5.655   2.505
 1062TIP3   OH2 3191   2.559   4.054   4.997
 1062TIP3    H1 3192   2.590   4.024   4.911
 1062TIP3    H2 3193   2.553   3.973   5.049
 1063TIP3   OH2 3194   1.208   3.042   1.077
 1063TIP3    H1 3195   1.123   3.051   1.121
 1063TIP3    H2 3196   1.206   3.109   1.008
 1064TIP3   OH2 3197   2.237   4.327   4.401
 1064TIP3    H1 3198   2.293   4.250   4.395
 1064TIP3    H2 3199   2.227   4.343   4.495
 1065TIP3   OH2 3200   5.914   3.284   0.242
 1065TIP3    H1 3201   5.882   3.234   0.318
 1065TIP3    H2 3202   5.848   3.353   0.230
 1066TIP3   OH2 3203   4.434   2.906   3.996
 1066TIP3    H1 3204   4.526   2.919   3.977
 1066TIP3    H2 3205   4.405   2.987   4.037
 1067TIP3   OH2 3206   1.372   4.884   3.716
 1067TIP3    H1 3207   1.396   4.843   3.633
 1067TIP3    H2 3208   1.286   4.848   3.737
 1068TIP3   OH2 3209   2.707   2.991   0.179
 1068TIP3    H1 3210   2.779   3.016   0.121
 1068TIP3    H2 3211   2.749   2.971   0.262
 1069TIP3   OH2 3212   4.034   2.910   2.321
 1069TIP3    H1 3213   4.002   2.895   2.232
 1069TIP3    H2 3214   4.039   3.006   2.329
 1070TIP3   OH2 3215   0.447   3.678   4.299
 1070TIP3    H1 3216   0.420   3.663   4.389
 1070TIP3    H2 3217   0.480   3.593   4.269
 1071TIP3   OH2 3218   1.153   2.154   3.374
 1071TIP3    H1 3219   1.075   2.142   3.321
 1071TIP3    H2 3220   1.170   2.248   3.372
 1072TIP3   OH2 3221   5.486   0.042   3.861
 1072TIP3    H1 3222   5.398   0.069   3.887
 1072TIP3    H2 3223   5.534   0.034   3.943
 1073TIP3   OH2 3224   5.468   2.767   1.884
 1073TIP3    H1 3225   5.393   2.824   1.865
 1073TIP3    H2 3226   5.438   2.680   1.856
 1074TIP3   OH2 3227   6.153   4.886   5.094
 1074TIP3    H1 3228   6.182   4.890   5.184
 1074TIP3    H2 3229   6.127   4.975   5.072
 1075TIP3   OH2 3230   3.048   4.337   3.203
 1075TIP3    H1 3231   3.035   4.354   3.110
 1075TIP3    H2 3232   3.014   4.249   3.217
 1076TIP3   OH2 3233   4.021   2.951   3.232
 1076TIP3    H1 3234   4.076   3.021   3.198
 1076TIP3    H2 3235   3.950   2.942   3.167
 1077TIP3   OH2 3236   5.923   4.127   0.174
 1077TIP3    H1 3237   5.958   4.072   0.104
 1077TIP3    H2 3238   5.970   4.210   0.165
 1078TIP3   OH2 3239   5.306   2.528   2.195
 1078TIP3    H1 3240   5.229   2.533   2.139
 1078TIP3    H2 3241   5.279   2.570   2.277
 1079TIP3   OH2 3242   5.010   1.734   2.709
 1079TIP3    H1 3243   4.977   1.667   2.649
 1079TIP3    H2 3244   4.995   1.697   2.796
 1080TIP3   OH2 3245   6.281   5.137   2.433
 1080TIP3    H1 3246   6.329   5.109   2.355
 1080TIP3    H2 3247   6.322   5.219   2.459
 1081TIP3   OH2 3248   3.988   2.613   4.332
 1081TIP3    H1 3249   3.896   2.600   4.308
 1081TIP3    H2 3250   4.004   2.547   4.400
 1082TIP3   OH2 3251   0.341   5.375   1.631
 1082TIP3    H1 3252   0.390   5.356   1.551
 1082TIP3    H2 3253   0.250   5.380   1.603
 1083TIP3   OH2 3254   0.333   4.287   1.473
 1083TIP3    H1 3255   0.273   4.353   1.437
 1083TIP3    H2 3256   0.411   4.337   1.499
 1084TIP3   OH2 3257   3.209   2.274   4.555
 1084TIP3    H1 3258   3.235   2.361   4.525
 1084TIP3    H2 3259   3.132   2.289   4.609
 1085TIP3   OH2 3260   5.042   5.079   4.005
 1085TIP3    H1 3261   5.126   5.039   3.982
 1085TIP3    H2 3262   4.984   5.055   3.932
 1086TIP3   OH2 3263   5.096   4.261   3.585
 1086TIP3    H1 3264   5.028   4.212   3.538
 1086TIP3    H2 3265   5.048   4.323   3.640
 1087TIP3   OH2 3266   3.242   4.399   0.780
 1087TIP3    H1 3267   3.176   4.335   0.807
 1087TIP3    H2 3268   3.200   4.484   0.790
 1088TIP3   OH2 3269   1.288   5.758   3.930
 1088TIP3    H1 3270   1.224   5.745   3.860
 1088TIP3    H2 3271   1.341   5.678   3.929
 1089TIP3   OH2 3272   4.375   0.858   3.134
 1089TIP3    H1 3273   4.358   0.893   3.222
 1089TIP3    H2 3274   4.343   0.768   3.136
 1090TIP3   OH2 3275   0.360   1.667   4.104
 1090TIP3    H1 3276   0.363   1.574   4.082
 1090TIP3    H2 3277   0.368   1.712   4.020
 1091TIP3   OH2 3278   1.987   1.643   2.563
 1091TIP3    H1 3279   1.906   1.689   2.540
 1091TIP3    H2 3280   2.044   1.711   2.600
 1092TIP3   OH2 3281   4.005   2.385   5.108
 1092TIP3    H1 3282   4.042   2.454   5.053
 1092TIP3    H2 3283   3.972   2.320   5.046
 1093TIP3   OH2 3284   0.575   5.066   4.200
 1093TIP3    H1 3285   0.615   5.133   4.144
 1093TIP3    H2 3286   0.637   5.055   4.272
 1094TIP3   OH2 3287   3.844   5.270   4.850
 1094TIP3    H1 3288   3.929   5.313   4.864
 1094TIP3    H2 3289   3.853   5.228   4.764
 1095TIP3   OH2 3290   4.600   4.194   2.411
 1095TIP3    H1 3291   4.633   4.170   2.324
 1095TIP3    H2 3292   4.599   4.290   2.410
 1096TIP3   OH2 3293   3.256   4.334   4.574
 1096TIP3    H1 3294   3.183   4.312   4.516
 1096TIP3    H2 3295   3.331   4.345   4.516
 1097TIP3   OH2 3296   5.350   5.557   3.878
 1097TIP3    H1 3297   5.257   5.534   3.879
 1097TIP3    H2 3298   5.378   5.538   3.788
 1098TIP3   OH2 3299   3.398   1.104   4.533
 1098TIP3    H1 3300   3.334   1.111   4.461
 1098TIP3    H2 3301   3.422   1.012   4.534
 1099TIP3   OH2 3302   2.140   1.483   4.920
 1099TIP3    H1 3303   2.205   1.451   4.859
 1099TIP3    H2 3304   2.060   1.491   4.868
 1100TIP3   OH2 3305   4.626   0.673   4.628
 1100TIP3    H1 3306   4.633   0.658   4.723
 1100TIP3    H2 3307   4.609   0.586   4.592
 1101TIP3   OH2 3308   5.318   1.043   1.691
 1101TIP3    H1 3309   5.241   1.005   1.732
 1101TIP3    H2 3310   5.391   0.988   1.720
 1102TIP3   OH2 3311   1.957   3.396   0.321
 1102TIP3    H1 3312   2.002   3.475   0.352
 1102TIP3    H2 3313   2.012   3.324   0.352
 1103TIP3   OH2 3314   0.189   5.834   0.666
 1103TIP3    H1 3315   0.259   5.771   0.679
 1103TIP3    H2 3316   0.211   5.907   0.724
 1104TIP3   OH2 3317   5.461   4.207   1.181
 1104TIP3    H1 3318   5.474   4.250   1.265
 1104TIP3    H2 3319   5.501   4.121   1.192
 1105TIP3   OH2 3320   4.102   0.669   2.900
 1105TIP3    H1 3321   4.088   0.759   2.927
 1105TIP3    H2 3322   4.154   0.676   2.820
 1106TIP3   OH2 3323   0.247   4.354   1.119
 1106TIP3    H1 3324   0.194   4.306   1.056
 1106TIP3    H2 3325   0.332   4.311   1.117
 1107TIP3   OH2 3326   5.522   2.970   4.164
 1107TIP3    H1 3327   5.540   3.032   4.094
 1107TIP3    H2 3328   5.600   2.915   4.169
 1108TIP3   OH2 3329   1.583   0.984   2.434
 1108TIP3    H1 3330   1.493   1.009   2.453
 1108TIP3    H2 3331   1.619   0.956   2.518
 1109TIP3   OH2 3332   6.312   5.536   2.711
 1109TIP3    H1 3333   6.372   5.610   2.708
 1109TIP3    H2 3334   6.231   5.571   2.748
 1110TIP3   OH2 3335   3.743   0.233   1.344
 1110TIP3    H1 3336   3.661   0.187   1.360
 1110TIP3    H2 3337   3.793   0.221   1.426
 1111TIP3   OH2 3338   0.670   1.796   4.173
 1111TIP3    H1 3339   0.581   1.768   4.195
 1111TIP3    H2 3340   0.663   1.829   4.084
 1112TIP3   OH2 3341   5.500   4.066   1.582
 1112TIP3    H1 3342   5.555   4.031   1.512
 1112TIP3    H2 3343   5.525   4.017   1.660
 1113TIP3   OH2 3344   5.741   2.874   3.311
 1113TIP3    H1 3345   5.747   2.881   3.406
 1113TIP3    H2 3346   5.832   2.869   3.282
 1114TIP3   OH2 3347   3.737   0.120   2.863
 1114TIP3    H1 3348   3.686   0.117   2.782
 1114TIP3    H2 3349   3.671   0.119   2.933
 1115TIP3   OH2 3350   3.554   4.479   5.077
 1115TIP3    H1 3351   3.576   4.387   5.066
 1115TIP3    H2 3352   3.513   4.484   5.163
 1116TIP3   OH2 3353   3.010   2.095   3.577
 1116TIP3    H1 3354   3.083   2.080   3.637
 1116TIP3    H2 3355   3.022   2.031   3.507
 1117TIP3   OH2 3356   3.006   1.417   1.290
 1117TIP3    H1 3357   2.960   1.336   1.311
 1117TIP3    H2 3358   3.077   1.423   1.354
 1118TIP3   OH2 3359   1.723   0.387   0.340
 1118TIP3    H1 3360   1.655   0.322   0.355
 1118TIP3    H2 3361   1.676   0.470   0.333
 1119TIP3   OH2 3362   0.083   3.094   1.083
 1119TIP3    H1 3363   0.157   3.111   1.142
 1119TIP3    H2 3364   0.024   3.168   1.097
 1120TIP3   OH2 3365   5.281   5.720   2.932
 1120TIP3    H1 3366   5.356   5.665   2.909
 1120TIP3    H2 3367   5.320   5.801   2.965
 1121TIP3   OH2 3368   3.988   3.848   3.488
 1121TIP3    H1 3369   4.083   3.840   3.493
 1121TIP3    H2 3370   3.968   3.932   3.530
 1122TIP3   OH2 3371   1.425   2.906   4.393
 1122TIP3    H1 3372   1.462   2.868   4.314
 1122TIP3    H2 3373   1.331   2.893   4.384
 1123TIP3   OH2 3374   5.959   2.165   2.825
 1123TIP3    H1 3375   5.937   2.161   2.918
 1123TIP3    H2 3376   5.905   2.236   2.791
 1124TIP3   OH2 3377   0.090   2.962   0.671
 1124TIP3    H1 3378   0.176   2.997   0.694
 1124TIP3    H2 3379   0.101   2.867   0.674
 1125TIP3   OH2 3380   0.822   2.058   4.226
 1125TIP3    H1 3381   0.805   2.077   4.133
 1125TIP3    H2 3382   0.768   1.982   4.245
 1126TIP3   OH2 3383   1.276   2.236   2.707
 1126TIP3    H1 3384   1.348   2.181   2.736
 1126TIP3    H2 3385   1.208   2.174   2.681
 1127TIP3   OH2 3386   4.752   5.009   4.635
 1127TIP3    H1 3387   4.847   4.999   4.643
 1127TIP3    H2 3388   4.722   4.924   4.602
 1128TIP3   OH2 3389   0.585   4.017   4.545
 1128TIP3    H1 3390   0.571   3.931   4.586
 1128TIP3    H2 3391   0.499   4.057   4.541
 1129TIP3   OH2 3392   0.359   0.979   1.137
 1129TIP3    H1 3393   0.431   1.023   1.183
 1129TIP3    H2 3394   0.327   0.914   1.199
 1130TIP3   OH2 3395   0.439   2.943   4.593
 1130TIP3    H1 3396   0.419   2.954   4.500
 1130TIP3    H2 3397   0.380   3.003   4.637
 1131TIP3   OH2 3398   6.106   0.307   3.581
 1131TIP3    H1 3399   6.153   0.307   3.498
 1131TIP3    H2 3400   6.023   0.264   3.563
 1132TIP3   OH2 3401   3.474   0.942   1.876
 1132TIP3    H1 3402   3.458   1.019   1.822
 1132TIP3    H2 3403   3.543   0.969   1.937
 1133TIP3   OH2 3404   4.815   0.950   0.987
 1133TIP3    H1 3405   4.776   0.936   0.901
 1133TIP3    H2 3406   4.891   1.006   0.971
 1134TIP3   OH2 3407   1.737   1.775   1.374
 1134TIP3    H1 3408   1.825   1.786   1.409
 1134TIP3    H2 3409   1.751   1.762   1.280
 1135TIP3   OH2 3410   0.405   4.928   0.161
 1135TIP3    H1 3411   0.452   4.988   0.103
 1135TIP3    H2 3412   0.472   4.866   0.191
 1136TIP3   OH2 3413   3.606   1.372   2.409
 1136TIP3    H1 3414   3.536   1.420   2.366
 1136TIP3    H2 3415   3.586   1.280   2.392
 1137TIP3   OH2 3416   6.293   1.210   2.849
 1137TIP3    H1 3417   6.372   1.159   2.868
 1137TIP3    H2 3418   6.250   1.219   2.934
 1138TIP3   OH2 3419   2.053   3.482   2.801
 1138TIP3    H1 3420   2.058   3.423   2.876
 1138TIP3    H2 3421   2.000   3.555   2.832
 1139TIP3   OH2 3422   6.029   2.512   1.232
 1139TIP3    H1 3423   5.997   2.470   1.312
 1139TIP3    H2 3424   5.997   2.455   1.161
 1140TIP3   OH2 3425   0.683   3.390   4.843
 1140TIP3    H1 3426   0.599   3.434   4.831
 1140TIP3    H2 3427   0.667   3.326   4.912
 1141TIP3   OH2 3428   0.324   1.750   0.250
 1141TIP3    H1 3429   0.276   1.812   0.195
 1141TIP3    H2 3430   0.404   1.796   0.273
 1142TIP3   OH2 3431   4.567   5.141   3.642
 1142TIP3    H1 3432   4.661   5.135   3.629
 1142TIP3    H2 3433   4.529   5.116   3.558
 1143TIP3   OH2 3434   1.873   3.959   0.391
 1143TIP3    H1 3435   1.823   4.030   0.351
 1143TIP3    H2 3436   1.957   3.959   0.344
 1144TIP3   OH2 3437   0.400   5.708   3.058
 1144TIP3    H1 3438   0.478   5.758   3.080
 1144TIP3    H2 3439   0.430   5.617   3.050
 1145TIP3   OH2 3440   5.933   1.420   4.563
 1145TIP3    H1 3441   5.956   1.508   4.535
 1145TIP3    H2 3442   5.942   1.366   4.485
 1146TIP3   OH2 3443   1.854   3.151   2.843
 1146TIP3    H1 3444   1.806   3.231   2.822
 1146TIP3    H2 3445   1.868   3.154   2.937
 1147TIP3   OH2 3446   1.613   2.785   0.954
 1147TIP3    H1 3447   1.617   2.765   1.048
 1147TIP3    H2 3448   1.538   2.844   0.945
 1148TIP3   OH2 3449   0.933   1.977   3.649
 1148TIP3    H1 3450   0.881   2.049   3.684
 1148TIP3    H2 3451   0.898   1.899   3.692
 1149TIP3   OH2 3452   0.465   4.191   2.148
 1149TIP3    H1 3453   0.484   4.115   2.202
 1149TIP3    H2 3454   0.474   4.160   2.058
 1150TIP3   OH2 3455   0.981   1.345   0.153
 1150TIP3    H1 3456   0.922   1.420   0.143
 1150TIP3    H2 3457   0.923   1.270   0.159
 1151TIP3   OH2 3458   1.341   2.273   4.175
 1151TIP3    H1 3459   1.404   2.305   4.111
 1151TIP3    H2 3460   1.286   2.211   4.126
 1152TIP3   OH2 3461   0.379   1.407   1.877
 1152TIP3    H1 3462   0.470   1.418   1.903
 1152TIP3    H2 3463   0.378   1.423   1.782
 1153TIP3   OH2 3464   3.236   4.935   4.653
 1153TIP3    H1 3465   3.305   4.951   4.718
 1153TIP3    H2 3466   3.214   4.843   4.665
 1154TIP3   OH2 3467   0.329   2.100   5.179
 1154TIP3    H1 3468   0.336   2.195   5.171
 1154TIP3    H2 3469   0.236   2.082   5.164
 1155TIP3   OH2 3470   5.466   4.924   1.348
 1155TIP3    H1 3471   5.532   4.974   1.299
 1155TIP3    H2 3472   5.448   4.848   1.293
 1156TIP3   OH2 3473   3.706   4.210   4.132
 1156TIP3    H1 3474   3.626   4.230   4.181
 1156TIP3    H2 3475   3.713   4.115   4.138
 1157TIP3   OH2 3476   1.768   0.210   5.091
 1157TIP3    H1 3477   1.677   0.195   5.064
 1157TIP3    H2 3478   1.818   0.208   5.009
 1158TIP3   OH2 3479   1.265   3.355   2.335
 1158TIP3    H1 3480   1.319   3.359   2.414
 1158TIP3    H2 3481   1.181   3.322   2.365
 1159TIP3   OH2 3482   1.237   0.316   4.900
 1159TIP3    H1 3483   1.164   0.324   4.961
 1159TIP3    H2 3484   1.214   0.239   4.847
 1160TIP3   OH2 3485   1.176   2.184   4.550
 1160TIP3    H1 3486   1.113   2.204   4.481
 1160TIP3    H2 3487   1.248   2.140   4.505
 1161TIP3   OH2 3488   1.089   3.056   2.092
 1161TIP3    H1 3489   1.124   3.141   2.068
 1161TIP3    H2 3490   1.149   2.993   2.052
 1162TIP3   OH2 3491   1.676   4.458   1.874
 1162TIP3    H1 3492   1.613   4.500   1.933
 1162TIP3    H2 3493   1.695   4.526   1.808
 1163TIP3   OH2 3494   5.402   5.593   2.020
 1163TIP3    H1 3495   5.401   5.576   1.926
 1163TIP3    H2 3496   5.493   5.581   2.045
 1164TIP3   OH2 3497   1.208   0.867   2.385
 1164TIP3    H1 3498   1.251   0.951   2.400
 1164TIP3    H2 3499   1.280   0.803   2.384
 1165TIP3   OH2 3500   4.849   0.922   1.336
 1165TIP3    H1 3501   4.754   0.926   1.344
 1165TIP3    H2 3502   4.874   1.008   1.302
 1166TIP3   OH2 3503   2.601   0.191   1.555
 1166TIP3    H1 3504   2.567   0.110   1.517
 1166TIP3    H2 3505   2.562   0.260   1.501
 1167TIP3   OH2 3506   2.803   2.377   4.641
 1167TIP3    H1 3507   2.804   2.296   4.591
 1167TIP3    H2 3508   2.892   2.384   4.677
 1168TIP3   OH2 3509   5.744   4.958   0.930
 1168TIP3    H1 3510   5.719   4.931   0.842
 1168TIP3    H2 3511   5.716   5.049   0.937
 1169TIP3   OH2 3512   0.945   2.902   2.617
 1169TIP3    H1 3513   1.006   2.959   2.663
 1169TIP3    H2 3514   0.980   2.895   2.528
 1170TIP3   OH2 3515  -0.008   2.557   1.170
 1170TIP3    H1 3516  -0.012   2.474   1.217
 1170TIP3    H2 3517   0.060   2.607   1.217
 1171TIP3   OH2 3518   4.092   4.500   3.309
 1171TIP3    H1 3519   4.174   4.545   3.325
 1171TIP3    H2 3520   4.118   4.416   3.271
 1172TIP3   OH2 3521   6.283   0.998   3.329
 1172TIP3    H1 3522   6.333   0.921   3.302
 1172TIP3    H2 3523   6.329   1.072   3.289
 1173TIP3   OH2 3524   2.093   3.365   5.014
 1173TIP3    H1 3525   2.172   3.380   4.963
 1173TIP3    H2 3526   2.030   3.329   4.951
 1174TIP3   OH2 3527   2.129   3.039   2.840
 1174TIP3    H1 3528   2.040   3.074   2.833
 1174TIP3    H2 3529   2.151   3.048   2.933
 1175TIP3   OH2 3530   0.001   4.148   2.172
 1175TIP3    H1 3531   0.044   4.192   2.099
 1175TIP3    H2 3532   0.069   4.140   2.239
 1176TIP3   OH2 3533   1.580   3.675   4.861
 1176TIP3    H1 3534   1.560   3.641   4.949
 1176TIP3    H2 3535   1.520   3.748   4.849
 1177TIP3   OH2 3536   6.289   2.415   3.688
 1177TIP3    H1 3537   6.219   2.356   3.714
 1177TIP3    H2 3538   6.263   2.446   3.601
 1178TIP3   OH2 3539   0.352   1.787   1.842
 1178TIP3    H1 3540   0.334   1.806   1.750
 1178TIP3    H2 3541   0.279   1.731   1.869
 1179TIP3   OH2 3542   6.047   4.267   2.677
 1179TIP3    H1 3543   5.986   4.275   2.750
 1179TIP3    H2 3544   6.070   4.357   2.655
 1180TIP3   OH2 3545   3.728   1.005   4.842
 1180TIP3    H1 3546   3.651   0.953   4.817
 1180TIP3    H2 3547   3.801   0.962   4.797
 1181TIP3   OH2 3548   3.962   3.670   3.288
 1181TIP3    H1 3549   3.948   3.720   3.369
 1181TIP3    H2 3550   4.052   3.639   3.294
 1182TIP3   OH2 3551   5.425   2.316   4.750
 1182TIP3    H1 3552   5.423   2.412   4.748
 1182TIP3    H2 3553   5.516   2.293   4.733
 1183TIP3   OH2 3554   3.873   1.999   0.486
 1183TIP3    H1 3555   3.958   2.011   0.528
 1183TIP3    H2 3556   3.819   2.071   0.519
 1184TIP3   OH2 3557   3.043   2.422   4.742
 1184TIP3    H1 3558   3.011   2.511   4.757
 1184TIP3    H2 3559   3.119   2.414   4.800
 1185TIP3   OH2 3560   3.373   0.096   2.711
 1185TIP3    H1 3561   3.426   0.077   2.633
 1185TIP3    H2 3562   3.385   0.020   2.768
 1186TIP3   OH2 3563   1.036   1.721   1.806
 1186TIP3    H1 3564   1.131   1.726   1.807
 1186TIP3    H2 3565   1.007   1.807   1.837
 1187TIP3   OH2 3566   5.516   3.476   1.432
 1187TIP3    H1 3567   5.512   3.563   1.473
 1187TIP3    H2 3568   5.535   3.494   1.340
 1188TIP3   OH2 3569   5.910   2.754   1.539
 1188TIP3    H1 3570   5.896   2.660   1.550
 1188TIP3    H2 3571   5.874   2.774   1.453
 1189TIP3   OH2 3572   1.200   0.450   2.637
 1189TIP3    H1 3573   1.246   0.533   2.628
 1189TIP3    H2 3574   1.118   0.472   2.682
 1190TIP3   OH2 3575   4.381   5.113   1.111
 1190TIP3    H1 3576   4.451   5.061   1.149
 1190TIP3    H2 3577   4.301   5.074   1.145
 1191TIP3   OH2 3578   1.504   5.837   0.567
 1191TIP3    H1 3579   1.567   5.899   0.531
 1191TIP3    H2 3580   1.497   5.768   0.500
 1192TIP3   OH2 3581   5.042   5.058   1.285
 1192TIP3    H1 3582   5.080   5.015   1.362
 1192TIP3    H2 3583   5.047   5.152   1.306
 1193TIP3   OH2 3584   2.223   4.563   0.665
 1193TIP3    H1 3585   2.230   4.527   0.753
 1193TIP3    H2 3586   2.130   4.584   0.655
 1194TIP3   OH2 3587   1.071   0.867   5.166
 1194TIP3    H1 3588   1.131   0.941   5.158
 1194TIP3    H2 3589   1.006   0.881   5.097
 1195TIP3   OH2 3590   5.376   4.105   4.206
 1195TIP3    H1 3591   5.301   4.121   4.149
 1195TIP3    H2 3592   5.389   4.010   4.203
 1196TIP3   OH2 3593   5.055   0.110   1.756
 1196TIP3    H1 3594   5.005   0.030   1.770
 1196TIP3    H2 3595   5.133   0.083   1.709
 1197TIP3   OH2 3596   5.139   3.112   2.897
 1197TIP3    H1 3597   5.165   3.021   2.910
 1197TIP3    H2 3598   5.213   3.163   2.930
 1198TIP3   OH2 3599   3.874   5.372   1.626
 1198TIP3    H1 3600   3.822   5.445   1.659
 1198TIP3    H2 3601   3.815   5.327   1.565
 1199TIP3   OH2 3602   3.247   1.917   1.511
 1199TIP3    H1 3603   3.336   1.951   1.505
 1199TIP3    H2 3604   3.204   1.974   1.574
 1200TIP3   OH2 3605   0.840   5.295   1.689
 1200TIP3    H1 3606   0.789   5.377   1.697
 1200TIP3    H2 3607   0.798   5.235   1.751
 1201TIP3   OH2 3608   1.571   0.114   3.851
 1201TIP3    H1 3609   1.605   0.199   3.823
 1201TIP3    H2 3610   1.539   0.074   3.770
 1202TIP3   OH2 3611   5.898   1.019   1.640
 1202TIP3    H1 3612   5.826   1.061   1.687
 1202TIP3    H2 3613   5.859   0.989   1.558
 1203TIP3   OH2 3614   4.470   2.594   2.904
 1203TIP3    H1 3615   4.544   2.538   2.927
 1203TIP3    H2 3616   4.392   2.543   2.927
 1204TIP3   OH2 3617   6.244   4.273   3.704
 1204TIP3    H1 3618   6.214   4.329   3.775
 1204TIP3    H2 3619   6.285   4.332   3.641
 1205TIP3   OH2 3620   0.144   2.764   1.279
 1205TIP3    H1 3621   0.148   2.715   1.361
 1205TIP3    H2 3622   0.065   2.817   1.286
 1206TIP3   OH2 3623   5.520   2.230   1.845
 1206TIP3    H1 3624   5.608   2.197   1.867
 1206TIP3    H2 3625   5.470   2.153   1.822
 1207TIP3   OH2 3626   1.901   1.465   4.780
 1207TIP3    H1 3627   1.893   1.464   4.685
 1207TIP3    H2 3628   1.902   1.558   4.803
 1208TIP3   OH2 3629   6.049   2.776   1.195
 1208TIP3    H1 3630   6.067   2.683   1.205
 1208TIP3    H2 3631   6.109   2.806   1.126
 1209TIP3   OH2 3632   1.994   2.570   1.464
 1209TIP3    H1 3633   2.015   2.561   1.370
 1209TIP3    H2 3634   1.903   2.542   1.471
 1210TIP3   OH2 3635   5.538   3.003   2.395
 1210TIP3    H1 3636   5.537   2.926   2.339
 1210TIP3    H2 3637   5.599   3.063   2.353
 1211TIP3   OH2 3638   0.722   1.130   2.745
 1211TIP3    H1 3639   0.713   1.036   2.758
 1211TIP3    H2 3640   0.791   1.156   2.805
 1212TIP3   OH2 3641   4.553   5.250   0.318
 1212TIP3    H1 3642   4.617   5.249   0.389
 1212TIP3    H2 3643   4.603   5.221   0.241
 1213TIP3   OH2 3644   2.463   4.483   0.455
 1213TIP3    H1 3645   2.426   4.507   0.540
 1213TIP3    H2 3646   2.544   4.535   0.448
 1214TIP3   OH2 3647   5.908   1.922   3.826
 1214TIP3    H1 3648   5.818   1.895   3.812
 1214TIP3    H2 3649   5.949   1.916   3.739
 1215TIP3   OH2 3650   4.057   0.066   4.546
 1215TIP3    H1 3651   4.134   0.079   4.603
 1215TIP3    H2 3652   4.066  -0.024   4.515
 1216TIP3   OH2 3653   5.803   2.586   1.872
 1216TIP3    H1 3654   5.892   2.562   1.846
 1216TIP3    H2 3655   5.789   2.672   1.833
 1217TIP3   OH2 3656   2.200   2.736   3.071
 1217TIP3    H1 3657   2.126   2.691   3.111
 1217TIP3    H2 3658   2.277   2.688   3.101
 1218TIP3   OH2 3659   3.788   2.113   3.578
 1218TIP3    H1 3660   3.838   2.195   3.578
 1218TIP3    H2 3661   3.843   2.052   3.627
 1219TIP3   OH2 3662   3.520   1.454   2.140
 1219TIP3    H1 3663   3.527   1.367   2.101
 1219TIP3    H2 3664   3.444   1.494   2.098
 1220TIP3   OH2 3665   3.035   4.236   0.894
 1220TIP3    H1 3666   2.961   4.178   0.878
 1220TIP3    H2 3667   3.053   4.227   0.988
 1221TIP3   OH2 3668   4.589   1.024   4.380
 1221TIP3    H1 3669   4.500   0.989   4.375
 1221TIP3    H2 3670   4.644   0.952   4.349
 1222TIP3   OH2 3671   4.189   0.751   4.632
 1222TIP3    H1 3672   4.196   0.705   4.548
 1222TIP3    H2 3673   4.268   0.805   4.635
 1223TIP3   OH2 3674   1.772   1.647   3.300
 1223TIP3    H1 3675   1.849   1.634   3.244
 1223TIP3    H2 3676   1.795   1.722   3.355
 1224TIP3   OH2 3677   0.995   2.803   4.714
 1224TIP3    H1 3678   0.976   2.802   4.620
 1224TIP3    H2 3679   1.071   2.860   4.722
 1225TIP3   OH2 3680   2.094   0.931   3.522
 1225TIP3    H1 3681   2.084   0.957   3.430
 1225TIP3    H2 3682   2.040   0.993   3.571
 1226TIP3   OH2 3683   4.903   1.651   2.214
 1226TIP3    H1 3684   4.920   1.582   2.149
 1226TIP3    H2 3685   4.956   1.725   2.184
 1227TIP3   OH2 3686   0.968   1.464   1.245
 1227TIP3    H1 3687   1.062   1.446   1.240
 1227TIP3    H2 3688   0.955   1.536   1.183
 1228TIP3   OH2 3689   4.777   2.939   2.825
 1228TIP3    H1 3690   4.739   2.856   2.795
 1228TIP3    H2 3691   4.867   2.938   2.790
 1229TIP3   OH2 3692   2.238   3.107   1.681
 1229TIP3    H1 3693   2.175   3.041   1.711
 1229TIP3    H2 3694   2.323   3.064   1.689
 1230TIP3   OH2 3695   3.875   5.591   4.618
 1230TIP3    H1 3696   3.816   5.538   4.564
 1230TIP3    H2 3697   3.821   5.619   4.692
 1231TIP3   OH2 3698   5.224   0.085   3.589
 1231TIP3    H1 3699   5.158   0.154   3.582
 1231TIP3    H2 3700   5.174   0.003   3.583
 1232TIP3   OH2 3701   2.168   3.218   0.398
 1232TIP3    H1 3702   2.154   3.125   0.381
 1232TIP3    H2 3703   2.239   3.243   0.339
 1233TIP3   OH2 3704   2.934   3.240   2.190
 1233TIP3    H1 3705   2.944   3.191   2.271
 1233TIP3    H2 3706   2.840   3.241   2.174
 1234TIP3   OH2 3707   4.154   4.860   3.582
 1234TIP3    H1 3708   4.234   4.856   3.635
 1234TIP3    H2 3709   4.083   4.868   3.645
 1235TIP3   OH2 3710   2.504   0.192   3.378
 1235TIP3    H1 3711   2.569   0.213   3.445
 1235TIP3    H2 3712   2.457   0.116   3.412
 1236TIP3   OH2 3713   3.188   2.461   1.836
 1236TIP3    H1 3714   3.219   2.449   1.746
 1236TIP3    H2 3715   3.095   2.440   1.833
 1237TIP3   OH2 3716   0.877   2.085   2.570
 1237TIP3    H1 3717   0.947   2.027   2.598
 1237TIP3    H2 3718   0.875   2.076   2.474
 1238TIP3   OH2 3719   3.556   5.681   4.586
 1238TIP3    H1 3720   3.470   5.704   4.550
 1238TIP3    H2 3721   3.555   5.585   4.590
 1239TIP3   OH2 3722   4.777   4.000   4.340
 1239TIP3    H1 3723   4.803   4.091   4.335
 1239TIP3    H2 3724   4.859   3.951   4.336
 1240TIP3   OH2 3725   1.790   4.294   2.064
 1240TIP3    H1 3726   1.724   4.329   2.003
 1240TIP3    H2 3727   1.815   4.369   2.117
 1241TIP3   OH2 3728   3.692   2.672   4.337
 1241TIP3    H1 3729   3.628   2.665   4.408
 1241TIP3    H2 3730   3.640   2.661   4.257
 1242TIP3   OH2 3731   1.004   4.729   0.870
 1242TIP3    H1 3732   1.067   4.796   0.843
 1242TIP3    H2 3733   1.048   4.681   0.940
 1243TIP3   OH2 3734   6.141   5.502   1.327
 1243TIP3    H1 3735   6.219   5.555   1.311
 1243TIP3    H2 3736   6.072   5.546   1.279
 1244TIP3   OH2 3737   0.185   0.930   3.681
 1244TIP3    H1 3738   0.091   0.915   3.678
 1244TIP3    H2 3739   0.195   1.023   3.658
 1245TIP3   OH2 3740   4.727   0.535   2.284
 1245TIP3    H1 3741   4.713   0.456   2.232
 1245TIP3    H2 3742   4.813   0.567   2.256
 1246TIP3   OH2 3743   5.544   2.012   3.067
 1246TIP3    H1 3744   5.475   1.968   3.017
 1246TIP3    H2 3745   5.573   2.084   3.010
 1247TIP3   OH2 3746   1.584   4.523   4.597
 1247TIP3    H1 3747   1.594   4.476   4.679
 1247TIP3    H2 3748   1.532   4.464   4.542
 1248TIP3   OH2 3749   0.207   3.407   1.913
 1248TIP3    H1 3750   0.194   3.350   1.837
 1248TIP3    H2 3751   0.127   3.459   1.918
 1249TIP3   OH2 3752   4.759   3.684   0.688
 1249TIP3    H1 3753   4.670   3.711   0.711
 1249TIP3    H2 3754   4.776   3.729   0.605
 1250TIP3   OH2 3755   2.458   5.217   4.080
 1250TIP3    H1 3756   2.368   5.189   4.093
 1250TIP3    H2 3757   2.472   5.206   3.985
 1251TIP3   OH2 3758   2.933   2.755   4.826
 1251TIP3    H1 3759   2.888   2.770   4.910
 1251TIP3    H2 3760   2.866   2.714   4.770
 1252TIP3   OH2 3761   3.066   5.425   4.110
 1252TIP3    H1 3762   3.053   5.441   4.017
 1252TIP3    H2 3763   3.037   5.335   4.123
 1253TIP3   OH2 3764   4.577   5.726   1.684
 1253TIP3    H1 3765   4.630   5.789   1.635
 1253TIP3    H2 3766   4.568   5.766   1.771
 1254TIP3   OH2 3767   3.218   1.361   0.705
 1254TIP3    H1 3768   3.313   1.373   0.710
 1254TIP3    H2 3769   3.190   1.347   0.795
 1255TIP3   OH2 3770   1.171   3.684   0.891
 1255TIP3    H1 3771   1.106   3.744   0.856
 1255TIP3    H2 3772   1.156   3.685   0.986
 1256TIP3   OH2 3773   1.739   2.881   1.472
 1256TIP3    H1 3774   1.706   2.971   1.481
 1256TIP3    H2 3775   1.829   2.892   1.442
 1257TIP3   OH2 3776   0.070   2.312   4.363
 1257TIP3    H1 3777   0.094   2.297   4.454
 1257TIP3    H2 3778   0.013   2.239   4.340
 1258TIP3   OH2 3779   6.345   1.920   1.722
 1258TIP3    H1 3780   6.249   1.928   1.723
 1258TIP3    H2 3781   6.363   1.867   1.645
 1259TIP3   OH2 3782   0.052   3.849   0.864
 1259TIP3    H1 3783   0.004   3.767   0.854
 1259TIP3    H2 3784   0.033   3.876   0.954
 1260TIP3   OH2 3785   4.283   5.148   2.582
 1260TIP3    H1 3786   4.194   5.172   2.559
 1260TIP3    H2 3787   4.274   5.095   2.662
 1261TIP3   OH2 3788   0.351   2.113   0.398
 1261TIP3    H1 3789   0.377   2.185   0.456
 1261TIP3    H2 3790   0.305   2.051   0.455
 1262TIP3   OH2 3791   4.735   1.270   4.427
 1262TIP3    H1 3792   4.686   1.189   4.411
 1262TIP3    H2 3793   4.771   1.260   4.515
 1263TIP3   OH2 3794   3.599   2.396   3.082
 1263TIP3    H1 3795   3.524   2.338   3.096
 1263TIP3    H2 3796   3.655   2.383   3.158
 1264TIP3   OH2 3797   1.672   5.391   0.694
 1264TIP3    H1 3798   1.734   5.351   0.754
 1264TIP3    H2 3799   1.602   5.326   0.684
 1265TIP3   OH2 3800   3.244   3.702   1.822
 1265TIP3    H1 3801   3.185   3.657   1.762
 1265TIP3    H2 3802   3.321   3.724   1.770
 1266TIP3   OH2 3803   5.503   3.614   3.410
 1266TIP3    H1 3804   5.527   3.522   3.421
 1266TIP3    H2 3805   5.436   3.629   3.477
 1267TIP3   OH2 3806   4.956   5.274   0.275
 1267TIP3    H1 3807   4.913   5.359   0.268
 1267TIP3    H2 3808   4.915   5.232   0.350
 1268TIP3   OH2 3809   3.611   2.169   5.069
 1268TIP3    H1 3810   3.560   2.205   4.997
 1268TIP3    H2 3811   3.649   2.088   5.034
 1269TIP3   OH2 3812   3.004   4.210   2.632
 1269TIP3    H1 3813   3.015   4.122   2.596
 1269TIP3    H2 3814   2.954   4.257   2.566
 1270TIP3   OH2 3815   4.826   2.322   3.357
 1270TIP3    H1 3816   4.754   2.348   3.414
 1270TIP3    H2 3817   4.831   2.392   3.292
 1271TIP3   OH2 3818   2.711   2.820   1.423
 1271TIP3    H1 3819   2.802   2.805   1.446
 1271TIP3    H2 3820   2.685   2.742   1.373
 1272TIP3   OH2 3821   0.134   2.228   2.304
 1272TIP3    H1 3822   0.112   2.285   2.231
 1272TIP3    H2 3823   0.094   2.144   2.282
 1273TIP3   OH2 3824   4.192   3.389   4.804
 1273TIP3    H1 3825   4.234   3.475   4.811
 1273TIP3    H2 3826   4.099   3.409   4.799
 1274TIP3   OH2 3827   2.413   1.111   4.297
 1274TIP3    H1 3828   2.339   1.171   4.299
 1274TIP3    H2 3829   2.417   1.079   4.207
 1275TIP3   OH2 3830   2.952   0.024   0.084
 1275TIP3    H1 3831   2.911  -0.002   0.167
 1275TIP3    H2 3832   2.896   0.094   0.050
 1276TIP3   OH2 3833   2.280   0.688   4.711
 1276TIP3    H1 3834   2.238   0.655   4.791
 1276TIP3    H2 3835   2.345   0.751   4.741
 1277TIP3   OH2 3836   6.243   5.956   3.611
 1277TIP3    H1 3837   6.167   5.914   3.571
 1277TIP3    H2 3838   6.295   5.884   3.647
 1278TIP3   OH2 3839   2.566   2.009   4.791
 1278TIP3    H1 3840   2.544   2.026   4.700
 1278TIP3    H2 3841   2.499   2.055   4.842
 1279TIP3   OH2 3842   4.729   3.280   3.122
 1279TIP3    H1 3843   4.752   3.238   3.206
 1279TIP3    H2 3844   4.807   3.269   3.068
 1280TIP3   OH2 3845   3.194   5.746   2.788
 1280TIP3    H1 3846   3.236   5.670   2.747
 1280TIP3    H2 3847   3.138   5.708   2.856
 1281TIP3   OH2 3848   2.272   5.708   3.355
 1281TIP3    H1 3849   2.359   5.671   3.369
 1281TIP3    H2 3850   2.255   5.696   3.262
 1282TIP3   OH2 3851   5.030   4.082   2.917
 1282TIP3    H1 3852   4.948   4.100   2.963
 1282TIP3    H2 3853   5.040   4.156   2.856
 1283TIP3   OH2 3854   2.174   5.252   3.416
 1283TIP3    H1 3855   2.186   5.198   3.494
 1283TIP3    H2 3856   2.250   5.232   3.361
 1284TIP3   OH2 3857   0.085   5.397   1.493
 1284TIP3    H1 3858   0.028   5.420   1.567
 1284TIP3    H2 3859   0.025   5.365   1.426
 1285TIP3   OH2 3860   3.522   0.586   1.550
 1285TIP3    H1 3861   3.481   0.605   1.634
 1285TIP3    H2 3862   3.529   0.671   1.507
 1286TIP3   OH2 3863   4.860   3.499   2.009
 1286TIP3    H1 3864   4.898   3.412   1.998
 1286TIP3    H2 3865   4.812   3.495   2.092
 1287TIP3   OH2 3866   6.136   1.732   3.277
 1287TIP3    H1 3867   6.068   1.695   3.334
 1287TIP3    H2 3868   6.172   1.805   3.328
 1288TIP3   OH2 3869   5.566   0.182   5.111
 1288TIP3    H1 3870   5.639   0.224   5.156
 1288TIP3    H2 3871   5.488   0.229   5.141
 1289TIP3   OH2 3872   0.443   2.579   1.588
 1289TIP3    H1 3873   0.516   2.592   1.528
 1289TIP3    H2 3874   0.462   2.635   1.663
 1290TIP3   OH2 3875   1.044   3.670   1.779
 1290TIP3    H1 3876   1.041   3.635   1.690
 1290TIP3    H2 3877   1.126   3.719   1.782
 1291TIP3   OH2 3878   1.088   4.861   4.176
 1291TIP3    H1 3879   1.041   4.939   4.206
 1291TIP3    H2 3880   1.175   4.869   4.213
 1292TIP3   OH2 3881   2.696   5.141   1.586
 1292TIP3    H1 3882   2.752   5.217   1.600
 1292TIP3    H2 3883   2.755   5.066   1.591
 1293TIP3   OH2 3884   5.221   4.712   3.031
 1293TIP3    H1 3885   5.246   4.643   3.093
 1293TIP3    H2 3886   5.186   4.665   2.955
 1294TIP3   OH2 3887   3.859   5.985   4.745
 1294TIP3    H1 3888   3.865   6.033   4.827
 1294TIP3    H2 3889   3.804   5.910   4.765
 1295TIP3   OH2 3890   0.791   3.643   4.856
 1295TIP3    H1 3891   0.756   3.619   4.943
 1295TIP3    H2 3892   0.752   3.578   4.797
 1296TIP3   OH2 3893   2.668   0.458   1.288
 1296TIP3    H1 3894   2.581   0.419   1.301
 1296TIP3    H2 3895   2.722   0.385   1.258
 1297TIP3   OH2 3896   4.314   3.230   2.878
 1297TIP3    H1 3897   4.294   3.149   2.833
 1297TIP3    H2 3898   4.410   3.235   2.877
 1298TIP3   OH2 3899   0.130   3.926   4.973
 1298TIP3    H1 3900   0.055   3.986   4.974
 1298TIP3    H2 3901   0.094   3.843   4.941
 1299TIP3   OH2 3902   5.469   4.037   2.193
 1299TIP3    H1 3903   5.536   4.063   2.257
 1299TIP3    H2 3904   5.391   4.086   2.219
 1300TIP3   OH2 3905   3.474   2.911   4.197
 1300TIP3    H1 3906   3.490   2.817   4.209
 1300TIP3    H2 3907   3.476   2.923   4.102
 1301TIP3   OH2 3908   3.151   2.378   0.718
 1301TIP3    H1 3909   3.064   2.416   0.736
 1301TIP3    H2 3910   3.137   2.320   0.643
 1302TIP3   OH2 3911   1.985   5.670   4.347
 1302TIP3    H1 3912   2.021   5.582   4.333
 1302TIP3    H2 3913   2.058   5.728   4.327
 1303TIP3   OH2 3914   6.351   2.344   1.337
 1303TIP3    H1 3915   6.357   2.254   1.368
 1303TIP3    H2 3916   6.340   2.397   1.416
 1304TIP3   OH2 3917   3.478   5.362   4.140
 1304TIP3    H1 3918   3.492   5.450   4.104
 1304TIP3    H2 3919   3.439   5.313   4.067
 1305TIP3   OH2 3920   3.710  -0.009   4.555
 1305TIP3    H1 3921   3.680   0.082   4.547
 1305TIP3    H2 3922   3.780  -0.017   4.489
 1306TIP3   OH2 3923   2.399   2.765   0.519
 1306TIP3    H1 3924   2.342   2.692   0.494
 1306TIP3    H2 3925   2.348   2.843   0.497
 1307TIP3   OH2 3926   4.412   1.301   1.941
 1307TIP3    H1 3927   4.484   1.259   1.988
 1307TIP3    H2 3928   4.453   1.337   1.862
 1308TIP3   OH2 3929   4.436   0.946   0.405
 1308TIP3    H1 3930   4.530   0.937   0.422
 1308TIP3    H2 3931   4.399   0.972   0.489
 1309TIP3   OH2 3932   0.292   5.371   0.174
 1309TIP3    H1 3933   0.236   5.349   0.100
 1309TIP3    H2 3934   0.348   5.442   0.142
 1310TIP3   OH2 3935   3.205   3.049   2.626
 1310TIP3    H1 3936   3.281   3.106   2.631
 1310TIP3    H2 3937   3.141   3.099   2.575
 1311TIP3   OH2 3938   0.056   0.349   0.585
 1311TIP3    H1 3939  -0.005   0.336   0.512
 1311TIP3    H2 3940   0.008   0.315   0.661
 1312TIP3   OH2 3941   0.955   3.955   5.218
 1312TIP3    H1 3942   0.930   4.012   5.146
 1312TIP3    H2 3943   0.964   3.868   5.179
 1313TIP3   OH2 3944   6.207   5.456   0.939
 1313TIP3    H1 3945   6.120   5.494   0.922
 1313TIP3    H2 3946   6.190   5.380   0.995
 1314TIP3   OH2 3947   0.700   3.267   2.686
 1314TIP3    H1 3948   0.645   3.191   2.704
 1314TIP3    H2 3949   0.638   3.335   2.659
 1315TIP3   OH2 3950   2.474   2.644   0.760
 1315TIP3    H1 3951   2.510   2.563   0.725
 1315TIP3    H2 3952   2.447   2.694   0.683
 1316TIP3   OH2 3953   2.627   0.319   3.590
 1316TIP3    H1 3954   2.700   0.345   3.646
 1316TIP3    H2 3955   2.550   0.324   3.647
 1317TIP3   OH2 3956   5.464   5.534   3.109
 1317TIP3    H1 3957   5.409   5.595   3.158
 1317TIP3    H2 3958   5.519   5.493   3.176
 1318TIP3   OH2 3959   4.283   0.207   1.652
 1318TIP3    H1 3960   4.273   0.127   1.600
 1318TIP3    H2 3961   4.378   0.220   1.656
 1319TIP3   OH2 3962   4.508   0.836   4.046
 1319TIP3    H1 3963   4.431   0.849   3.990
 1319TIP3    H2 3964   4.552   0.921   4.046
 1320TIP3   OH2 3965   5.398   0.629   5.125
 1320TIP3    H1 3966   5.423   0.606   5.036
 1320TIP3    H2 3967   5.475   0.610   5.178
 1321TIP3   OH2 3968   5.977   1.938   1.190
 1321TIP3    H1 3969   6.012   1.856   1.223
 1321TIP3    H2 3970   6.005   1.942   1.098
 1322TIP3   OH2 3971  -0.010   0.728   3.730
 1322TIP3    H1 3972   0.083   0.715   3.749
 1322TIP3    H2 3973  -0.052   0.731   3.816
 1323TIP3   OH2 3974   2.121   0.558   3.940
 1323TIP3    H1 3975   2.149   0.598   3.857
 1323TIP3    H2 3976   2.031   0.586   3.951
 1324TIP3   OH2 3977   6.089   5.642   3.085
 1324TIP3    H1 3978   6.083   5.692   3.003
 1324TIP3    H2 3979   6.170   5.592   3.076
 1325TIP3   OH2 3980   0.171   3.906   4.119
 1325TIP3    H1 3981   0.161   3.893   4.213
 1325TIP3    H2 3982   0.220   3.830   4.089
 1326TIP3   OH2 3983   6.313   4.265   2.624
 1326TIP3    H1 3984   6.234   4.242   2.674
 1326TIP3    H2 3985   6.385   4.243   2.683
 1327TIP3   OH2 3986   3.805   4.078   3.536
 1327TIP3    H1 3987   3.732   4.016   3.537
 1327TIP3    H2 3988   3.777   4.150   3.592
 1328TIP3   OH2 3989   5.886   2.143   3.561
 1328TIP3    H1 3990   5.794   2.116   3.569
 1328TIP3    H2 3991   5.932   2.062   3.537
 1329TIP3   OH2 3992   0.975   0.931   3.411
 1329TIP3    H1 3993   1.068   0.907   3.411
 1329TIP3    H2 3994   0.960   0.969   3.497
 1330TIP3   OH2 3995   3.646   5.879   1.090
 1330TIP3    H1 3996   3.568   5.829   1.114
 1330TIP3    H2 3997   3.702   5.815   1.046
 1331TIP3   OH2 3998   2.249   1.637   0.998
 1331TIP3    H1 3999   2.318   1.630   0.932
 1331TIP3    H2 4000   2.184   1.572   0.972
 1332TIP3   OH2 4001   1.487   1.268   3.742
 1332TIP3    H1 4002   1.516   1.359   3.732
 1332TIP3    H2 4003   1.393   1.274   3.759
 1333TIP3   OH2 4004   0.709   4.255   1.932
 1333TIP3    H1 4005   0.647   4.185   1.913
 1333TIP3    H2 4006   0.782   4.211   1.975
 1334TIP3   OH2 4007   6.066   1.363   4.086
 1334TIP3    H1 4008   6.069   1.454   4.056
 1334TIP3    H2 4009   5.974   1.346   4.101
 1335TIP3   OH2 4010   3.057   0.686   1.135
 1335TIP3    H1 4011   3.032   0.647   1.051
 1335TIP3    H2 4012   3.152   0.676   1.138
 1336TIP3   OH2 4013   4.675   4.549   1.023
 1336TIP3    H1 4014   4.726   4.502   0.958
 1336TIP3    H2 4015   4.696   4.642   1.008
 1337TIP3   OH2 4016   3.716   3.630   3.200
 1337TIP3    H1 4017   3.681   3.705   3.152
 1337TIP3    H2 4018   3.805   3.655   3.223
 1338TIP3   OH2 4019   4.175   1.055   3.735
 1338TIP3    H1 4020   4.151   1.126   3.795
 1338TIP3    H2 4021   4.249   1.090   3.685
 1339TIP3   OH2 4022   2.711   4.256   0.374
 1339TIP3    H1 4023   2.704   4.267   0.279
 1339TIP3    H2 4024   2.698   4.344   0.410
 1340TIP3   OH2 4025   4.186   3.156   4.324
 1340TIP3    H1 4026   4.146   3.070   4.316
 1340TIP3    H2 4027   4.240   3.150   4.403
 1341TIP3   OH2 4028   3.490   0.210   4.354
 1341TIP3    H1 4029   3.559   0.170   4.301
 1341TIP3    H2 4030   3.410   0.201   4.302
 1342TIP3   OH2 4031   5.224   1.723   0.491
 1342TIP3    H1 4032   5.283   1.797   0.475
 1342TIP3    H2 4033   5.136   1.762   0.490
 1343TIP3   OH2 4034   3.323   4.114   1.162
 1343TIP3    H1 4035   3.391   4.058   1.199
 1343TIP3    H2 4036   3.348   4.124   1.070
 1344TIP3   OH2 4037   5.398   3.695   1.523
 1344TIP3    H1 4038   5.335   3.684   1.595
 1344TIP3    H2 4039   5.447   3.774   1.546
 1345TIP3   OH2 4040   4.662   3.126   5.072
 1345TIP3    H1 4041   4.581   3.155   5.113
 1345TIP3    H2 4042   4.694   3.056   5.128
 1346TIP3   OH2 4043   1.565   0.053   1.499
 1346TIP3    H1 4044   1.634   0.022   1.557
 1346TIP3    H2 4045   1.607   0.065   1.414
 1347TIP3   OH2 4046   4.967   5.966   1.545
 1347TIP3    H1 4047   5.007   5.940   1.462
 1347TIP3    H2 4048   5.034   5.949   1.611
 1348TIP3   OH2 4049   5.331   4.352   0.934
 1348TIP3    H1 4050   5.421   4.360   0.966
 1348TIP3    H2 4051   5.310   4.259   0.944
 1349TIP3   OH2 4052   2.850   3.527   3.206
 1349TIP3    H1 4053   2.771   3.560   3.248
 1349TIP3    H2 4054   2.918   3.591   3.229
 1350TIP3   OH2 4055   5.530   5.985   1.296
 1350TIP3    H1 4056   5.487   5.941   1.369
 1350TIP3    H2 4057   5.464   5.987   1.226
 1351TIP3   OH2 4058   5.056   4.600   2.214
 1351TIP3    H1 4059   4.992   4.606   2.143
 1351TIP3    H2 4060   5.072   4.690   2.241
 1352TIP3   OH2 4061   2.725   3.597   3.816
 1352TIP3    H1 4062   2.816   3.595   3.785
 1352TIP3    H2 4063   2.716   3.515   3.866
 1353TIP3   OH2 4064   0.108   1.645   1.044
 1353TIP3    H1 4065   0.133   1.727   1.001
 1353TIP3    H2 4066   0.013   1.645   1.041
 1354TIP3   OH2 4067   1.020   3.175   3.874
 1354TIP3    H1 4068   1.070   3.254   3.855
 1354TIP3    H2 4069   1.069   3.132   3.945
 1355TIP3   OH2 4070   2.964   5.106   0.540
 1355TIP3    H1 4071   2.924   5.037   0.487
 1355TIP3    H2 4072   2.949   5.078   0.631
 1356TIP3   OH2 4073   1.364   5.338   4.873
 1356TIP3    H1 4074   1.278   5.295   4.873
 1356TIP3    H2 4075   1.401   5.319   4.787
 1357TIP3   OH2 4076   2.141   3.366   2.337
 1357TIP3    H1 4077   2.174   3.376   2.427
 1357TIP3    H2 4078   2.172   3.279   2.311
 1358TIP3   OH2 4079   0.912   1.251   2.937
 1358TIP3    H1 4080   0.917   1.236   3.032
 1358TIP3    H2 4081   0.984   1.199   2.901
 1359TIP3   OH2 4082   1.095   1.916   5.069
 1359TIP3    H1 4083   1.148   1.847   5.028
 1359TIP3    H2 4084   1.009   1.908   5.028
 1360TIP3   OH2 4085   1.963   1.724   4.801
 1360TIP3    H1 4086   2.005   1.731   4.715
 1360TIP3    H2 4087   1.979   1.809   4.842
 1361TIP3   OH2 4088   1.665   3.575   4.498
 1361TIP3    H1 4089   1.689   3.505   4.438
 1361TIP3    H2 4090   1.739   3.582   4.558
 1362TIP3   OH2 4091   1.308   1.885   1.495
 1362TIP3    H1 4092   1.385   1.830   1.486
 1362TIP3    H2 4093   1.330   1.948   1.564
 1363TIP3   OH2 4094   4.091   5.088   4.056
 1363TIP3    H1 4095   4.024   5.039   4.103
 1363TIP3    H2 4096   4.174   5.049   4.084
 1364TIP3   OH2 4097   4.555   3.249   0.855
 1364TIP3    H1 4098   4.509   3.303   0.790
 1364TIP3    H2 4099   4.619   3.199   0.804
 1365TIP3   OH2 4100   2.688   2.885   5.149
 1365TIP3    H1 4101   2.621   2.936   5.104
 1365TIP3    H2 4102   2.744   2.950   5.191
 1366TIP3   OH2 4103   5.278   5.455   0.655
 1366TIP3    H1 4104   5.230   5.425   0.578
 1366TIP3    H2 4105   5.228   5.419   0.729
 1367TIP3   OH2 4106   1.887   5.462   2.907
 1367TIP3    H1 4107   1.896   5.545   2.860
 1367TIP3    H2 4108   1.926   5.397   2.848
 1368TIP3   OH2 4109   3.424   3.708   2.170
 1368TIP3    H1 4110   3.448   3.737   2.082
 1368TIP3    H2 4111   3.352   3.765   2.196
 1369TIP3   OH2 4112   0.060   3.054   4.893
 1369TIP3    H1 4113   0.026   2.974   4.852
 1369TIP3    H2 4114   0.003   3.069   4.968
 1370TIP3   OH2 4115   5.813   3.421   3.817
 1370TIP3    H1 4116   5.908   3.438   3.817
 1370TIP3    H2 4117   5.788   3.429   3.909
 1371TIP3   OH2 4118   0.394   2.969   4.298
 1371TIP3    H1 4119   0.479   2.950   4.258
 1371TIP3    H2 4120   0.337   2.993   4.226
 1372TIP3   OH2 4121   1.010   2.838   3.783
 1372TIP3    H1 4122   1.057   2.916   3.814
 1372TIP3    H2 4123   1.028   2.772   3.851
 1373TIP3   OH2 4124   6.253   0.465   1.326
 1373TIP3    H1 4125   6.219   0.545   1.287
 1373TIP3    H2 4126   6.189   0.442   1.393
 1374TIP3   OH2 4127   3.775   0.511   1.326
 1374TIP3    H1 4128   3.780   0.425   1.368
 1374TIP3    H2 4129   3.752   0.571   1.398
 1375TIP3   OH2 4130   5.949   0.837   0.867
 1375TIP3    H1 4131   6.037   0.876   0.867
 1375TIP3    H2 4132   5.931   0.819   0.959
 1376TIP3   OH2 4133   0.460   2.756   1.825
 1376TIP3    H1 4134   0.443   2.681   1.882
 1376TIP3    H2 4135   0.389   2.817   1.845
 1377TIP3   OH2 4136   5.917   2.351   4.148
 1377TIP3    H1 4137   5.875   2.295   4.082
 1377TIP3    H2 4138   5.924   2.295   4.225
 1378TIP3   OH2 4139   2.612   1.462   0.099
 1378TIP3    H1 4140   2.531   1.498   0.062
 1378TIP3    H2 4141   2.636   1.524   0.168
 1379TIP3   OH2 4142   1.104   0.321   2.395
 1379TIP3    H1 4143   1.137   0.362   2.475
 1379TIP3    H2 4144   1.183   0.295   2.347
 1380TIP3   OH2 4145   1.289   5.879   1.995
 1380TIP3    H1 4146   1.301   5.899   1.902
 1380TIP3    H2 4147   1.219   5.938   2.023
 1381TIP3   OH2 4148   3.914   4.671   4.083
 1381TIP3    H1 4149   3.867   4.642   4.005
 1381TIP3    H2 4150   3.870   4.627   4.156
 1382TIP3   OH2 4151   6.242   0.161   1.489
 1382TIP3    H1 4152   6.159   0.194   1.521
 1382TIP3    H2 4153   6.297   0.239   1.477
 1383TIP3   OH2 4154   4.905   2.703   2.222
 1383TIP3    H1 4155   4.921   2.630   2.281
 1383TIP3    H2 4156   4.813   2.694   2.197
 1384TIP3   OH2 4157   5.242   5.023   2.583
 1384TIP3    H1 4158   5.250   5.099   2.525
 1384TIP3    H2 4159   5.296   5.045   2.659
 1385TIP3   OH2 4160   0.402   1.092   2.502
 1385TIP3    H1 4161   0.311   1.090   2.471
 1385TIP3    H2 4162   0.410   1.178   2.545
 1386TIP3   OH2 4163   0.527   3.804   3.124
 1386TIP3    H1 4164   0.508   3.896   3.141
 1386TIP3    H2 4165   0.533   3.764   3.211
 1387TIP3   OH2 4166   3.287   4.384   2.707
 1387TIP3    H1 4167   3.355   4.340   2.655
 1387TIP3    H2 4168   3.248   4.448   2.647
 1388TIP3   OH2 4169   2.441   0.607   2.081
 1388TIP3    H1 4170   2.439   0.620   2.176
 1388TIP3    H2 4171   2.350   0.619   2.053
 1389TIP3   OH2 4172   2.300   3.531   2.970
 1389TIP3    H1 4173   2.217   3.490   2.995
 1389TIP3    H2 4174   2.292   3.621   3.001
 1390TIP3   OH2 4175   1.521   5.730   0.085
 1390TIP3    H1 4176   1.480   5.717   0.171
 1390TIP3    H2 4177   1.495   5.653   0.034
 1391TIP3   OH2 4178   0.538   0.098   2.242
 1391TIP3    H1 4179   0.620   0.053   2.219
 1391TIP3    H2 4180   0.555   0.190   2.221
 1392TIP3   OH2 4181   2.675   3.242   2.109
 1392TIP3    H1 4182   2.636   3.312   2.161
 1392TIP3    H2 4183   2.604   3.181   2.093
 1393TIP3   OH2 4184   2.075   5.071   3.989
 1393TIP3    H1 4185   2.120   5.031   3.915
 1393TIP3    H2 4186   2.022   5.140   3.950
 1394TIP3   OH2 4187   1.202   3.423   3.467
 1394TIP3    H1 4188   1.209   3.488   3.397
 1394TIP3    H2 4189   1.110   3.398   3.468
 1395TIP3   OH2 4190   1.817   1.520   4.070
 1395TIP3    H1 4191   1.735   1.475   4.052
 1395TIP3    H2 4192   1.854   1.474   4.146
 1396TIP3   OH2 4193   2.654   0.276   2.252
 1396TIP3    H1 4194   2.730   0.223   2.228
 1396TIP3    H2 4195   2.579   0.218   2.237
 1397TIP3   OH2 4196   2.030   3.110   2.500
 1397TIP3    H1 4197   2.035   3.022   2.537
 1397TIP3    H2 4198   2.101   3.113   2.436
 1398TIP3   OH2 4199   3.266   3.998   0.663
 1398TIP3    H1 4200   3.219   3.921   0.632
 1398TIP3    H2 4201   3.257   4.062   0.592
 1399TIP3   OH2 4202   0.866   2.129   1.347
 1399TIP3    H1 4203   0.927   2.106   1.278
 1399TIP3    H2 4204   0.876   2.061   1.413
 1400TIP3   OH2 4205   1.302   4.713   2.328
 1400TIP3    H1 4206   1.395   4.729   2.340
 1400TIP3    H2 4207   1.296   4.619   2.309
 1401TIP3   OH2 4208   5.545   0.910   1.757
 1401TIP3    H1 4209   5.599   0.959   1.695
 1401TIP3    H2 4210   5.590   0.920   1.841
 1402TIP3   OH2 4211   3.533   4.726   0.540
 1402TIP3    H1 4212   3.501   4.726   0.449
 1402TIP3    H2 4213   3.516   4.815   0.571
 1403TIP3   OH2 4214   2.249   5.806   1.473
 1403TIP3    H1 4215   2.294   5.829   1.392
 1403TIP3    H2 4216   2.319   5.797   1.538
 1404TIP3   OH2 4217   2.529   1.572   5.142
 1404TIP3    H1 4218   2.446   1.538   5.176
 1404TIP3    H2 4219   2.540   1.656   5.186
 1405TIP3   OH2 4220   4.206   1.083   2.706
 1405TIP3    H1 4221   4.291   1.043   2.685
 1405TIP3    H2 4222   4.149   1.057   2.635
 1406TIP3   OH2 4223   0.963   0.984   1.551
 1406TIP3    H1 4224   0.957   1.079   1.540
 1406TIP3    H2 4225   1.018   0.972   1.628
 1407TIP3   OH2 4226   3.952   0.718   3.499
 1407TIP3    H1 4227   4.005   0.785   3.455
 1407TIP3    H2 4228   3.866   0.724   3.457
 1408TIP3   OH2 4229   4.363   2.059   0.496
 1408TIP3    H1 4230   4.419   2.126   0.457
 1408TIP3    H2 4231   4.419   2.017   0.561
 1409TIP3   OH2 4232   1.839   0.103   0.799
 1409TIP3    H1 4233   1.916   0.056   0.766
 1409TIP3    H2 4234   1.802   0.145   0.721
 1410TIP3   OH2 4235   2.212   4.609   4.333
 1410TIP3    H1 4236   2.242   4.518   4.323
 1410TIP3    H2 4237   2.171   4.611   4.419
 1411TIP3   OH2 4238   0.527   5.133   2.586
 1411TIP3    H1 4239   0.554   5.100   2.672
 1411TIP3    H2 4240   0.509   5.055   2.535
 1412TIP3   OH2 4241   3.711   0.865   2.322
 1412TIP3    H1 4242   3.747   0.810   2.252
 1412TIP3    H2 4243   3.739   0.823   2.403
 1413TIP3   OH2 4244   1.393   4.797   0.461
 1413TIP3    H1 4245   1.428   4.718   0.419
 1413TIP3    H2 4246   1.386   4.774   0.554
 1414TIP3   OH2 4247   2.670   4.580   0.143
 1414TIP3    H1 4248   2.645   4.614   0.057
 1414TIP3    H2 4249   2.664   4.485   0.134
 1415TIP3   OH2 4250   0.629   4.308   3.791
 1415TIP3    H1 4251   0.616   4.373   3.860
 1415TIP3    H2 4252   0.619   4.224   3.836
 1416TIP3   OH2 4253   5.543   1.802   2.346
 1416TIP3    H1 4254   5.632   1.821   2.318
 1416TIP3    H2 4255   5.489   1.860   2.292
 1417TIP3   OH2 4256   0.553   0.080   3.208
 1417TIP3    H1 4257   0.483   0.144   3.220
 1417TIP3    H2 4258   0.551   0.059   3.115
 1418TIP3   OH2 4259   5.301   3.254   5.138
 1418TIP3    H1 4260   5.334   3.173   5.177
 1418TIP3    H2 4261   5.274   3.307   5.213
 1419TIP3   OH2 4262   4.748   1.755   4.748
 1419TIP3    H1 4263   4.735   1.818   4.819
 1419TIP3    H2 4264   4.678   1.776   4.685
 1420TIP3   OH2 4265   3.891   4.975   2.177
 1420TIP3    H1 4266   3.872   4.994   2.085
 1420TIP3    H2 4267   3.958   5.039   2.201
 1421TIP3   OH2 4268   0.248   4.092   1.672
 1421TIP3    H1 4269   0.284   4.062   1.588
 1421TIP3    H2 4270   0.263   4.186   1.672
 1422TIP3   OH2 4271   5.329   4.519   4.425
 1422TIP3    H1 4272   5.268   4.491   4.493
 1422TIP3    H2 4273   5.382   4.441   4.406
 1423TIP3   OH2 4274   3.109   5.644   2.361
 1423TIP3    H1 4275   3.052   5.709   2.402
 1423TIP3    H2 4276   3.185   5.640   2.419
 1424TIP3   OH2 4277   4.546   0.157   1.634
 1424TIP3    H1 4278   4.520   0.065   1.630
 1424TIP3    H2 4279   4.621   0.159   1.694
 1425TIP3   OH2 4280   3.954   2.208   4.276
 1425TIP3    H1 4281   4.029   2.252   4.238
 1425TIP3    H2 4282   3.884   2.218   4.212
 1426TIP3   OH2 4283   4.657   5.049   1.647
 1426TIP3    H1 4284   4.574   5.033   1.603
 1426TIP3    H2 4285   4.693   4.961   1.663
 1427TIP3   OH2 4286   0.721   5.740   4.848
 1427TIP3    H1 4287   0.756   5.651   4.841
 1427TIP3    H2 4288   0.643   5.740   4.793
 1428TIP3   OH2 4289   4.158   5.724   1.000
 1428TIP3    H1 4290   4.195   5.635   0.999
 1428TIP3    H2 4291   4.102   5.727   0.923
 1429TIP3   OH2 4292   3.616   1.295   4.656
 1429TIP3    H1 4293   3.579   1.383   4.653
 1429TIP3    H2 4294   3.550   1.240   4.616
 1430TIP3   OH2 4295   4.815   2.966   4.293
 1430TIP3    H1 4296   4.890   2.963   4.353
 1430TIP3    H2 4297   4.741   2.933   4.344
 1431TIP3   OH2 4298   6.297   0.644   3.984
 1431TIP3    H1 4299   6.287   0.713   4.049
 1431TIP3    H2 4300   6.384   0.609   3.999
 1432TIP3   OH2 4301   1.640   0.528   4.575
 1432TIP3    H1 4302   1.646   0.623   4.571
 1432TIP3    H2 4303   1.564   0.511   4.629
 1433TIP3   OH2 4304   1.927   5.095   1.782
 1433TIP3    H1 4305   1.929   5.122   1.690
 1433TIP3    H2 4306   1.841   5.123   1.814
 1434TIP3   OH2 4307   0.061   1.320   1.493
 1434TIP3    H1 4308   0.096   1.291   1.409
 1434TIP3    H2 4309  -0.031   1.338   1.476
 1435TIP3   OH2 4310   0.637   4.820   2.990
 1435TIP3    H1 4311   0.558   4.778   2.957
 1435TIP3    H2 4312   0.681   4.751   3.041
 1436TIP3   OH2 4313   3.343   4.933   3.969
 1436TIP3    H1 4314   3.250   4.938   3.990
 1436TIP3    H2 4315   3.346   4.895   3.881
 1437TIP3   OH2 4316   1.820   3.976   0.002
 1437TIP3    H1 4317   1.896   3.978   0.061
 1437TIP3    H2 4318   1.819   3.887  -0.032
 1438TIP3   OH2 4319   5.644   4.619   1.755
 1438TIP3    H1 4320   5.602   4.535   1.736
 1438TIP3    H2 4321   5.614   4.677   1.685
 1439TIP3   OH2 4322   5.071   2.514   2.046
 1439TIP3    H1 4323   5.012   2.582   2.080
 1439TIP3    H2 4324   5.068   2.525   1.951
 1440TIP3   OH2 4325   2.948   2.850   3.913
 1440TIP3    H1 4326   2.928   2.813   3.999
 1440TIP3    H2 4327   3.029   2.805   3.887
 1441TIP3   OH2 4328   2.832   4.642   3.826
 1441TIP3    H1 4329   2.909   4.597   3.863
 1441TIP3    H2 4330   2.804   4.585   3.754
 1442TIP3   OH2 4331   5.390   5.279   4.467
 1442TIP3    H1 4332   5.331   5.341   4.425
 1442TIP3    H2 4333   5.474   5.324   4.470
 1443TIP3   OH2 4334   3.748   5.540   1.106
 1443TIP3    H1 4335   3.834   5.546   1.147
 1443TIP3    H2 4336   3.686   5.547   1.179
 1444TIP3   OH2 4337   0.754   1.680   1.728
 1444TIP3    H1 4338   0.760   1.647   1.639
 1444TIP3    H2 4339   0.844   1.682   1.759
 1445TIP3   OH2 4340  -0.005   0.778   1.518
 1445TIP3    H1 4341  -0.060   0.740   1.587
 1445TIP3    H2 4342   0.079   0.734   1.528
 1446TIP3   OH2 4343   0.094   2.217   0.203
 1446TIP3    H1 4344   0.036   2.161   0.255
 1446TIP3    H2 4345   0.080   2.305   0.238
 1447TIP3   OH2 4346   4.012   5.015   3.408
 1447TIP3    H1 4347   3.969   5.074   3.470
 1447TIP3    H2 4348   4.046   4.943   3.462
 1448TIP3   OH2 4349   4.701   3.889   2.464
 1448TIP3    H1 4350   4.725   3.947   2.392
 1448TIP3    H2 4351   4.760   3.814   2.455
 1449TIP3   OH2 4352   5.049   1.126   3.665
 1449TIP3    H1 4353   4.984   1.168   3.722
 1449TIP3    H2 4354   5.125   1.112   3.722
 1450TIP3   OH2 4355   4.983   0.880   3.162
 1450TIP3    H1 4356   5.058   0.940   3.161
 1450TIP3    H2 4357   4.910   0.934   3.191
 1451TIP3   OH2 4358   2.924   2.130   0.620
 1451TIP3    H1 4359   2.911   2.208   0.674
 1451TIP3    H2 4360   2.943   2.061   0.683
 1452TIP3   OH2 4361   3.907   1.485   4.999
 1452TIP3    H1 4362   3.934   1.522   4.915
 1452TIP3    H2 4363   3.989   1.462   5.042
 1453TIP3   OH2 4364   5.670   1.324   0.337
 1453TIP3    H1 4365   5.578   1.308   0.317
 1453TIP3    H2 4366   5.718   1.256   0.290
 1454TIP3   OH2 4367   1.408   0.773   3.823
 1454TIP3    H1 4368   1.405   0.687   3.780
 1454TIP3    H2 4369   1.484   0.816   3.784
 1455TIP3   OH2 4370   0.275   3.017   4.064
 1455TIP3    H1 4371   0.201   3.077   4.069
 1455TIP3    H2 4372   0.248   2.950   4.002
 1456TIP3   OH2 4373   4.523   1.164   5.066
 1456TIP3    H1 4374   4.615   1.188   5.059
 1456TIP3    H2 4375   4.506   1.157   5.160
 1457TIP3   OH2 4376   2.509   4.236   2.543
 1457TIP3    H1 4377   2.564   4.312   2.560
 1457TIP3    H2 4378   2.569   4.171   2.506
 1458TIP3   OH2 4379   5.727   4.634   0.765
 1458TIP3    H1 4380   5.673   4.647   0.687
 1458TIP3    H2 4381   5.791   4.568   0.739
 1459TIP3   OH2 4382   5.439   2.338   1.362
 1459TIP3    H1 4383   5.491   2.417   1.377
 1459TIP3    H2 4384   5.389   2.326   1.443
 1460TIP3   OH2 4385   0.909   2.402   5.190
 1460TIP3    H1 4386   0.895   2.474   5.129
 1460TIP3    H2 4387   0.838   2.341   5.173
 1461TIP3   OH2 4388   3.702   2.733   4.048
 1461TIP3    H1 4389   3.725   2.642   4.029
 1461TIP3    H2 4390   3.783   2.771   4.082
 1462TIP3   OH2 4391   4.788   3.216   1.412
 1462TIP3    H1 4392   4.821   3.300   1.445
 1462TIP3    H2 4393   4.849   3.192   1.343
 1463TIP3   OH2 4394   4.165   2.368   0.242
 1463TIP3    H1 4395   4.204   2.280   0.245
 1463TIP3    H2 4396   4.240   2.427   0.243
 1464TIP3   OH2 4397   5.131   0.164   4.974
 1464TIP3    H1 4398   5.116   0.258   4.970
 1464TIP3    H2 4399   5.114   0.134   4.884
 1465TIP3   OH2 4400   5.424   0.906   0.409
 1465TIP3    H1 4401   5.514   0.935   0.425
 1465TIP3    H2 4402   5.423   0.814   0.433
 1466TIP3   OH2 4403   5.765   4.175   5.138
 1466TIP3    H1 4404   5.810   4.098   5.173
 1466TIP3    H2 4405   5.832   4.242   5.133
 1467TIP3   OH2 4406   1.107   3.393   1.101
 1467TIP3    H1 4407   1.024   3.385   1.148
 1467TIP3    H2 4408   1.157   3.458   1.151
 1468TIP3   OH2 4409   0.433   2.930   0.943
 1468TIP3    H1 4410   0.470   3.004   0.991
 1468TIP3    H2 4411   0.409   2.867   1.011
 1469TIP3   OH2 4412   3.746   0.732   2.059
 1469TIP3    H1 4413   3.725   0.825   2.065
 1469TIP3    H2 4414   3.820   0.727   1.999
 1470TIP3   OH2 4415   2.347   3.270   1.882
 1470TIP3    H1 4416   2.369   3.351   1.836
 1470TIP3    H2 4417   2.295   3.220   1.819
 1471TIP3   OH2 4418   5.365   2.073   2.459
 1471TIP3    H1 4419   5.419   2.069   2.538
 1471TIP3    H2 4420   5.282   2.032   2.484
 1472TIP3   OH2 4421   1.132   1.225   2.561
 1472TIP3    H1 4422   1.145   1.316   2.590
 1472TIP3    H2 4423   1.061   1.193   2.617
 1473TIP3   OH2 4424   4.218   3.030   2.671
 1473TIP3    H1 4425   4.142   3.005   2.618
 1473TIP3    H2 4426   4.268   2.950   2.682
 1474TIP3   OH2 4427   5.893   0.165   4.996
 1474TIP3    H1 4428   5.940   0.111   5.059
 1474TIP3    H2 4429   5.846   0.229   5.051
 1475TIP3   OH2 4430   5.441   3.387   0.884
 1475TIP3    H1 4431   5.355   3.426   0.866
 1475TIP3    H2 4432   5.428   3.340   0.966
 1476TIP3   OH2 4433   0.292   5.430   2.433
 1476TIP3    H1 4434   0.299   5.391   2.345
 1476TIP3    H2 4435   0.335   5.515   2.425
 1477TIP3   OH2 4436   2.040   4.103   2.511
 1477TIP3    H1 4437   2.037   4.013   2.478
 1477TIP3    H2 4438   2.065   4.094   2.603
 1478TIP3   OH2 4439   4.182   4.569   3.757
 1478TIP3    H1 4440   4.185   4.589   3.664
 1478TIP3    H2 4441   4.210   4.477   3.762
 1479TIP3   OH2 4442   4.631   1.736   3.110
 1479TIP3    H1 4443   4.567   1.802   3.083
 1479TIP3    H2 4444   4.699   1.786   3.156
 1480TIP3   OH2 4445   2.273   2.528   1.514
 1480TIP3    H1 4446   2.303   2.480   1.436
 1480TIP3    H2 4447   2.178   2.518   1.513
 1481TIP3   OH2 4448   5.592   0.235   3.440
 1481TIP3    H1 4449   5.686   0.230   3.454
 1481TIP3    H2 4450   5.564   0.144   3.430
 1482TIP3   OH2 4451   2.407   0.741   3.056
 1482TIP3    H1 4452   2.439   0.713   2.971
 1482TIP3    H2 4453   2.348   0.671   3.084
 1483TIP3   OH2 4454   5.060   2.570   4.690
 1483TIP3    H1 4455   5.138   2.578   4.635
 1483TIP3    H2 4456   5.086   2.608   4.774
 1484TIP3   OH2 4457   5.026   5.256   1.838
 1484TIP3    H1 4458   5.035   5.166   1.868
 1484TIP3    H2 4459   5.111   5.296   1.854
 1485TIP3   OH2 4460   3.776   4.218   1.276
 1485TIP3    H1 4461   3.819   4.157   1.336
 1485TIP3    H2 4462   3.683   4.212   1.300
 1486TIP3   OH2 4463   1.895   1.905   0.571
 1486TIP3    H1 4464   1.960   1.836   0.563
 1486TIP3    H2 4465   1.867   1.923   0.481
 1487TIP3   OH2 4466   3.606   3.624   0.762
 1487TIP3    H1 4467   3.578   3.699   0.710
 1487TIP3    H2 4468   3.697   3.611   0.739
 1488TIP3   OH2 4469   4.245   5.923   3.622
 1488TIP3    H1 4470   4.300   5.846   3.613
 1488TIP3    H2 4471   4.215   5.942   3.533
 1489TIP3   OH2 4472   4.765   4.816   0.947
 1489TIP3    H1 4473   4.833   4.831   0.881
 1489TIP3    H2 4474   4.806   4.837   1.030
 1490TIP3   OH2 4475   4.133   5.641   4.622
 1490TIP3    H1 4476   4.040   5.630   4.602
 1490TIP3    H2 4477   4.136   5.712   4.687
 1491TIP3   OH2 4478   4.809   2.790   3.279
 1491TIP3    H1 4479   4.779   2.860   3.221
 1491TIP3    H2 4480   4.904   2.797   3.278
 1492TIP3   OH2 4481   0.828   1.529   0.626
 1492TIP3    H1 4482   0.862   1.454   0.675
 1492TIP3    H2 4483   0.767   1.571   0.686
 1493TIP3   OH2 4484   0.142   4.143   2.792
 1493TIP3    H1 4485   0.141   4.051   2.768
 1493TIP3    H2 4486   0.212   4.151   2.857
 1494TIP3   OH2 4487   3.974   0.701   1.921
 1494TIP3    H1 4488   3.994   0.793   1.934
 1494TIP3    H2 4489   3.977   0.689   1.826
 1495TIP3   OH2 4490   2.205   4.488   0.934
 1495TIP3    H1 4491   2.231   4.400   0.961
 1495TIP3    H2 4492   2.111   4.492   0.953
 1496TIP3   OH2 4493   1.883   0.218   3.363
 1496TIP3    H1 4494   1.929   0.301   3.357
 1496TIP3    H2 4495   1.952   0.152   3.354
 1497TIP3   OH2 4496   0.627   3.550   4.017
 1497TIP3    H1 4497   0.571   3.517   4.087
 1497TIP3    H2 4498   0.602   3.499   3.940
 1498TIP3   OH2 4499   1.394   0.950   1.906
 1498TIP3    H1 4500   1.328   0.955   1.837
 1498TIP3    H2 4501   1.464   1.009   1.878
 1499TIP3   OH2 4502   3.218   2.347   2.344
 1499TIP3    H1 4503   3.292   2.338   2.284
 1499TIP3    H2 4504   3.179   2.431   2.323
 1500TIP3   OH2 4505   0.101   2.318   5.003
 1500TIP3    H1 4506   0.033   2.347   4.942
 1500TIP3    H2 4507   0.112   2.225   4.985
 1501TIP3   OH2 4508   3.679   0.137   0.110
 1501TIP3    H1 4509   3.671   0.229   0.085
 1501TIP3    H2 4510   3.672   0.089   0.027
 1502TIP3   OH2 4511   2.425   0.462   5.160
 1502TIP3    H1 4512   2.448   0.532   5.099
 1502TIP3    H2 4513   2.388   0.393   5.104
 1503TIP3   OH2 4514   4.082   2.434   4.499
 1503TIP3    H1 4515   4.152   2.372   4.478
 1503TIP3    H2 4516   4.048   2.404   4.583
 1504TIP3   OH2 4517   2.647   0.509   3.167
 1504TIP3    H1 4518   2.573   0.513   3.228
 1504TIP3    H2 4519   2.677   0.600   3.159
 1505TIP3   OH2 4520   1.496   1.121   2.765
 1505TIP3    H1 4521   1.426   1.175   2.802
 1505TIP3    H2 4522   1.576   1.165   2.792
 1506TIP3   OH2 4523   4.755   2.287   4.012
 1506TIP3    H1 4524   4.714   2.296   3.926
 1506TIP3    H2 4525   4.812   2.211   4.003
 1507TIP3   OH2 4526   4.895   2.228   1.365
 1507TIP3    H1 4527   4.824   2.248   1.304
 1507TIP3    H2 4528   4.851   2.189   1.441
 1508TIP3   OH2 4529   6.096   3.259   2.875
 1508TIP3    H1 4530   6.187   3.287   2.882
 1508TIP3    H2 4531   6.098   3.189   2.810
 1509TIP3   OH2 4532   0.141   3.895   2.694
 1509TIP3    H1 4533   0.055   3.852   2.696
 1509TIP3    H2 4534   0.168   3.889   2.602
 1510TIP3   OH2 4535   2.987   5.488   0.540
 1510TIP3    H1 4536   3.009   5.533   0.622
 1510TIP3    H2 4537   2.940   5.554   0.489
 1511TIP3   OH2 4538   1.577   4.942   2.227
 1511TIP3    H1 4539   1.560   4.857   2.267
 1511TIP3    H2 4540   1.613   4.995   2.298
 1512TIP3   OH2 4541   1.309   5.447   1.514
 1512TIP3    H1 4542   1.264   5.476   1.594
 1512TIP3    H2 4543   1.264   5.366   1.489
 1513TIP3   OH2 4544   3.621   0.591   2.884
 1513TIP3    H1 4545   3.609   0.644   2.805
 1513TIP3    H2 4546   3.715   0.589   2.897
 1514TIP3   OH2 4547   2.712   0.209   4.001
 1514TIP3    H1 4548   2.746   0.294   4.029
 1514TIP3    H2 4549   2.629   0.200   4.048
 1515TIP3   OH2 4550   6.057   0.907   4.655
 1515TIP3    H1 4551   6.049   0.998   4.685
 1515TIP3    H2 4552   5.973   0.867   4.677
 1516TIP3   OH2 4553   4.513   1.537   4.053
 1516TIP3    H1 4554   4.434   1.569   4.010
 1516TIP3    H2 4555   4.550   1.615   4.095
 1517TIP3   OH2 4556   2.238   3.706   4.163
 1517TIP3    H1 4557   2.148   3.738   4.154
 1517TIP3    H2 4558   2.234   3.641   4.233
 1518TIP3   OH2 4559   4.732   5.780   2.766
 1518TIP3    H1 4560   4.709   5.818   2.681
 1518TIP3    H2 4561   4.650   5.782   2.816
 1519TIP3   OH2 4562   5.282   3.873   1.247
 1519TIP3    H1 4563   5.305   3.836   1.332
 1519TIP3    H2 4564   5.363   3.913   1.215
 1520TIP3   OH2 4565   3.877   2.734   1.339
 1520TIP3    H1 4566   3.796   2.768   1.301
 1520TIP3    H2 4567   3.891   2.650   1.296
 1521TIP3   OH2 4568   3.729   2.294   0.525
 1521TIP3    H1 4569   3.814   2.333   0.506
 1521TIP3    H2 4570   3.737   2.264   0.616
 1522TIP3   OH2 4571   4.212   0.702   3.621
 1522TIP3    H1 4572   4.119   0.702   3.596
 1522TIP3    H2 4573   4.259   0.679   3.541
 1523TIP3   OH2 4574   0.995   4.296   2.734
 1523TIP3    H1 4575   0.916   4.280   2.682
 1523TIP3    H2 4576   0.964   4.347   2.809
 1524TIP3   OH2 4577   2.397   5.867   2.170
 1524TIP3    H1 4578   2.313   5.894   2.135
 1524TIP3    H2 4579   2.412   5.925   2.245
 1525TIP3   OH2 4580   4.904   0.197   4.343
 1525TIP3    H1 4581   4.850   0.205   4.422
 1525TIP3    H2 4582   4.877   0.271   4.289
 1526TIP3   OH2 4583   0.061   0.457   0.241
 1526TIP3    H1 4584   0.009   0.383   0.273
 1526TIP3    H2 4585   0.013   0.488   0.164
 1527TIP3   OH2 4586   5.730   4.755   4.383
 1527TIP3    H1 4587   5.819   4.758   4.418
 1527TIP3    H2 4588   5.705   4.663   4.390
 1528TIP3   OH2 4589   3.940   5.010   0.026
 1528TIP3    H1 4590   3.961   5.038   0.115
 1528TIP3    H2 4591   3.934   5.092  -0.024
 1529TIP3   OH2 4592   5.176   2.604   0.533
 1529TIP3    H1 4593   5.242   2.572   0.472
 1529TIP3    H2 4594   5.208   2.691   0.558
 1530TIP3   OH2 4595   4.683   2.683   3.707
 1530TIP3    H1 4596   4.742   2.741   3.754
 1530TIP3    H2 4597   4.630   2.741   3.653
 1531TIP3   OH2 4598   1.629   5.372   4.974
 1531TIP3    H1 4599   1.548   5.374   4.922
 1531TIP3    H2 4600   1.627   5.287   5.018
 1532TIP3   OH2 4601   2.063   2.862   2.591
 1532TIP3    H1 4602   2.143   2.876   2.641
 1532TIP3    H2 4603   2.002   2.821   2.652
 1533TIP3   OH2 4604   0.444   1.408   0.695
 1533TIP3    H1 4605   0.508   1.352   0.739
 1533TIP3    H2 4606   0.423   1.361   0.614
 1534TIP3   OH2 4607   4.709   1.735   3.793
 1534TIP3    H1 4608   4.800   1.706   3.791
 1534TIP3    H2 4609   4.658   1.660   3.761
 1535TIP3   OH2 4610   1.257   4.199   1.697
 1535TIP3    H1 4611   1.336   4.242   1.665
 1535TIP3    H2 4612   1.273   4.184   1.790
 1536TIP3   OH2 4613   5.100   3.897   0.972
 1536TIP3    H1 4614   5.167   3.908   0.906
 1536TIP3    H2 4615   5.028   3.953   0.944
 1537TIP3   OH2 4616   5.470   1.994   1.311
 1537TIP3    H1 4617   5.468   2.076   1.359
 1537TIP3    H2 4618   5.544   2.002   1.251
 1538TIP3   OH2 4619   5.316   5.675   3.587
 1538TIP3    H1 4620   5.366   5.640   3.514
 1538TIP3    H2 4621   5.333   5.769   3.586
 1539TIP3   OH2 4622   3.595   3.326   5.011
 1539TIP3    H1 4623   3.638   3.254   4.964
 1539TIP3    H2 4624   3.645   3.336   5.092
 1540TIP3   OH2 4625   1.005   1.462   3.997
 1540TIP3    H1 4626   0.933   1.496   4.051
 1540TIP3    H2 4627   1.033   1.537   3.945
 1541TIP3   OH2 4628   6.163   3.953   2.928
 1541TIP3    H1 4629   6.217   3.937   3.006
 1541TIP3    H2 4630   6.104   3.878   2.923
 1542TIP3   OH2 4631   3.728   4.844   1.735
 1542TIP3    H1 4632   3.669   4.775   1.706
 1542TIP3    H2 4633   3.815   4.813   1.709
 1543TIP3   OH2 4634   4.254   0.642   3.115
 1543TIP3    H1 4635   4.202   0.632   3.035
 1543TIP3    H2 4636   4.262   0.553   3.149
 1544TIP3   OH2 4637   0.295   2.511   2.063
 1544TIP3    H1 4638   0.251   2.448   2.007
 1544TIP3    H2 4639   0.226   2.572   2.090
 1545TIP3   OH2 4640   3.888   1.767   4.399
 1545TIP3    H1 4641   3.934   1.845   4.368
 1545TIP3    H2 4642   3.958   1.704   4.417
 1546TIP3   OH2 4643   4.572   2.826   3.490
 1546TIP3    H1 4644   4.655   2.863   3.461
 1546TIP3    H2 4645   4.508   2.896   3.477
 1547TIP3   OH2 4646   5.775   2.868   4.124
 1547TIP3    H1 4647   5.832   2.841   4.196
 1547TIP3    H2 4648   5.835   2.901   4.057
 1548TIP3   OH2 4649   3.878   1.601   2.261
 1548TIP3    H1 4650   3.907   1.676   2.209
 1548TIP3    H2 4651   3.786   1.619   2.280
 1549TIP3   OH2 4652   4.213   2.679   4.557
 1549TIP3    H1 4653   4.159   2.733   4.615
 1549TIP3    H2 4654   4.164   2.597   4.549
 1550TIP3   OH2 4655   3.337   2.325   2.611
 1550TIP3    H1 4656   3.370   2.412   2.633
 1550TIP3    H2 4657   3.279   2.341   2.536
 1551TIP3   OH2 4658   2.189   5.353   5.086
 1551TIP3    H1 4659   2.247   5.277   5.088
 1551TIP3    H2 4660   2.149   5.355   5.173
 1552TIP3   OH2 4661   2.124   4.550   2.967
 1552TIP3    H1 4662   2.152   4.641   2.979
 1552TIP3    H2 4663   2.089   4.524   3.052
 1553TIP3   OH2 4664   2.837   5.193   2.597
 1553TIP3    H1 4665   2.824   5.286   2.579
 1553TIP3    H2 4666   2.778   5.174   2.670
 1554TIP3   OH2 4667   0.520   3.565   2.831
 1554TIP3    H1 4668   0.441   3.537   2.876
 1554TIP3    H2 4669   0.504   3.546   2.739
 1555TIP3   OH2 4670   4.267   0.686   2.713
 1555TIP3    H1 4671   4.244   0.631   2.638
 1555TIP3    H2 4672   4.353   0.722   2.690
 1556TIP3   OH2 4673   3.267   1.062   2.984
 1556TIP3    H1 4674   3.191   1.023   3.028
 1556TIP3    H2 4675   3.231   1.131   2.929
 1557TIP3   OH2 4676   1.886   1.971   0.280
 1557TIP3    H1 4677   1.902   2.065   0.292
 1557TIP3    H2 4678   1.971   1.930   0.294
 1558TIP3   OH2 4679   0.532   2.828   0.284
 1558TIP3    H1 4680   0.526   2.915   0.323
 1558TIP3    H2 4681   0.441   2.798   0.281
 1559TIP3   OH2 4682   1.551   1.839   4.604
 1559TIP3    H1 4683   1.600   1.886   4.536
 1559TIP3    H2 4684   1.459   1.852   4.580
 1560TIP3   OH2 4685   5.063   1.344   3.263
 1560TIP3    H1 4686   5.060   1.256   3.225
 1560TIP3    H2 4687   5.001   1.341   3.335
 1561TIP3   OH2 4688   1.885   5.244   5.136
 1561TIP3    H1 4689   1.885   5.333   5.100
 1561TIP3    H2 4690   1.883   5.256   5.230
 1562TIP3   OH2 4691   5.040   1.773   3.367
 1562TIP3    H1 4692   5.071   1.754   3.278
 1562TIP3    H2 4693   5.011   1.689   3.401
 1563TIP3   OH2 4694   1.113   3.989   3.648
 1563TIP3    H1 4695   1.043   4.008   3.710
 1563TIP3    H2 4696   1.164   3.920   3.689
 1564TIP3   OH2 4697   3.311   4.107   0.005
 1564TIP3    H1 4698   3.373   4.099   0.077
 1564TIP3    H2 4699   3.361   4.147  -0.066
 1565TIP3   OH2 4700   3.622   5.263   0.475
 1565TIP3    H1 4701   3.630   5.281   0.381
 1565TIP3    H2 4702   3.636   5.348   0.517
 1566TIP3   OH2 4703   0.215   0.535   3.702
 1566TIP3    H1 4704   0.163   0.464   3.738
 1566TIP3    H2 4705   0.301   0.496   3.684
 1567TIP3   OH2 4706   2.496   5.850   4.166
 1567TIP3    H1 4707   2.451   5.766   4.172
 1567TIP3    H2 4708   2.428   5.911   4.138
 1568TIP3   OH2 4709   3.721   1.357   3.132
 1568TIP3    H1 4710   3.683   1.373   3.219
 1568TIP3    H2 4711   3.675   1.419   3.075
 1569TIP3   OH2 4712   3.194   3.407   2.275
 1569TIP3    H1 4713   3.177   3.486   2.327
 1569TIP3    H2 4714   3.122   3.402   2.213
 1570TIP3   OH2 4715   4.879   2.040   3.908
 1570TIP3    H1 4716   4.959   2.045   3.961
 1570TIP3    H2 4717   4.910   2.024   3.819
 1571TIP3   OH2 4718   1.741   5.455   1.993
 1571TIP3    H1 4719   1.813   5.438   1.932
 1571TIP3    H2 4720   1.688   5.522   1.950
 1572TIP3   OH2 4721   5.931   2.133   2.437
 1572TIP3    H1 4722   5.850   2.159   2.394
 1572TIP3    H2 4723   5.907   2.054   2.486
 1573TIP3   OH2 4724   3.770   5.349   0.212
 1573TIP3    H1 4725   3.751   5.288   0.140
 1573TIP3    H2 4726   3.817   5.296   0.276
 1574TIP3   OH2 4727   0.433   4.963   3.441
 1574TIP3    H1 4728   0.461   4.911   3.516
 1574TIP3    H2 4729   0.422   5.051   3.475
 1575TIP3   OH2 4730   3.549   3.065   2.190
 1575TIP3    H1 4731   3.472   3.112   2.222
 1575TIP3    H2 4732   3.541   2.977   2.227
 1576TIP3   OH2 4733   4.729   0.119   1.866
 1576TIP3    H1 4734   4.776   0.044   1.829
 1576TIP3    H2 4735   4.787   0.153   1.934
 1577TIP3   OH2 4736   0.792   3.305   4.390
 1577TIP3    H1 4737   0.778   3.211   4.406
 1577TIP3    H2 4738   0.867   3.308   4.330
 1578TIP3   OH2 4739   2.135   1.079   2.656
 1578TIP3    H1 4740   2.054   1.035   2.682
 1578TIP3    H2 4741   2.202   1.011   2.665
 1579TIP3   OH2 4742   1.719   3.143   0.575
 1579TIP3    H1 4743   1.791   3.087   0.546
 1579TIP3    H2 4744   1.717   3.214   0.512
 1580TIP3   OH2 4745   2.013   2.386   2.072
 1580TIP3    H1 4746   1.971   2.300   2.076
 1580TIP3    H2 4747   2.090   2.378   2.128
 1581TIP3   OH2 4748   3.026   0.521   2.526
 1581TIP3    H1 4749   2.998   0.443   2.575
 1581TIP3    H2 4750   2.955   0.583   2.537
 1582TIP3   OH2 4751   2.210   2.559   4.599
 1582TIP3    H1 4752   2.193   2.496   4.528
 1582TIP3    H2 4753   2.260   2.629   4.557
 1583TIP3   OH2 4754   1.012   5.334   2.174
 1583TIP3    H1 4755   1.072   5.298   2.239
 1583TIP3    H2 4756   1.063   5.335   2.093
 1584TIP3   OH2 4757   0.980   3.881   1.413
 1584TIP3    H1 4758   1.056   3.939   1.425
 1584TIP3    H2 4759   0.906   3.933   1.443
 1585TIP3   OH2 4760   5.220   3.315   1.835
 1585TIP3    H1 4761   5.235   3.342   1.744
 1585TIP3    H2 4762   5.292   3.357   1.884
 1586TIP3   OH2 4763   2.127   3.963   4.315
 1586TIP3    H1 4764   2.172   3.912   4.383
 1586TIP3    H2 4765   2.183   4.039   4.302
 1587TIP3   OH2 4766   3.451   2.381   2.197
 1587TIP3    H1 4767   3.541   2.362   2.224
 1587TIP3    H2 4768   3.443   2.476   2.206
 1588TIP3   OH2 4769   1.819   2.659   0.218
 1588TIP3    H1 4770   1.807   2.564   0.224
 1588TIP3    H2 4771   1.877   2.681   0.291
 1589TIP3   OH2 4772   5.504   5.087   0.394
 1589TIP3    H1 4773   5.509   5.129   0.308
 1589TIP3    H2 4774   5.564   5.136   0.449
 1590TIP3   OH2 4775   1.628   0.575   3.263
 1590TIP3    H1 4776   1.556   0.592   3.203
 1590TIP3    H2 4777   1.702   0.553   3.206
 1591TIP3   OH2 4778   2.789   4.503   4.272
 1591TIP3    H1 4779   2.879   4.535   4.275
 1591TIP3    H2 4780   2.752   4.529   4.356
 1592TIP3   OH2 4781   0.039   2.479   0.273
 1592TIP3    H1 4782  -0.036   2.522   0.231
 1592TIP3    H2 4783   0.063   2.537   0.345
 1593TIP3   OH2 4784   0.969   5.399   0.173
 1593TIP3    H1 4785   0.985   5.491   0.148
 1593TIP3    H2 4786   0.989   5.396   0.266
 1594TIP3   OH2 4787   4.318   1.988   3.351
 1594TIP3    H1 4788   4.253   1.944   3.295
 1594TIP3    H2 4789   4.268   2.052   3.400
 1595TIP3   OH2 4790   4.408   0.362   0.611
 1595TIP3    H1 4791   4.495   0.386   0.642
 1595TIP3    H2 4792   4.365   0.324   0.687
 1596TIP3   OH2 4793   2.915   4.687   5.031
 1596TIP3    H1 4794   2.883   4.602   5.059
 1596TIP3    H2 4795   2.837   4.734   5.001
 1597TIP3   OH2 4796   0.949   4.994   0.108
 1597TIP3    H1 4797   0.945   4.992   0.204
 1597TIP3    H2 4798   0.901   4.916   0.081
 1598TIP3   OH2 4799   3.052   3.813   1.980
 1598TIP3    H1 4800   3.122   3.772   1.929
 1598TIP3    H2 4801   2.990   3.742   1.997
 1599TIP3   OH2 4802   3.451   2.711   3.601
 1599TIP3    H1 4803   3.514   2.779   3.625
 1599TIP3    H2 4804   3.459   2.645   3.670
 1600TIP3   OH2 4805   6.028   5.526   2.251
 1600TIP3    H1 4806   5.989   5.501   2.168
 1600TIP3    H2 4807   6.109   5.475   2.256
 1601TIP3   OH2 4808   4.474   1.454   0.815
 1601TIP3    H1 4809   4.456   1.391   0.745
 1601TIP3    H2 4810   4.557   1.495   0.790
 1602TIP3   OH2 4811   2.648   5.048   3.935
 1602TIP3    H1 4812   2.735   5.073   3.902
 1602TIP3    H2 4813   2.587   5.082   3.869
 1603TIP3   OH2 4814   1.639   4.059   3.904
 1603TIP3    H1 4815   1.560   4.113   3.899
 1603TIP3    H2 4816   1.669   4.069   3.995
 1604TIP3   OH2 4817   4.831   4.710   3.614
 1604TIP3    H1 4818   4.903   4.764   3.582
 1604TIP3    H2 4819   4.755   4.737   3.562
 1605TIP3   OH2 4820   3.935   1.959   3.786
 1605TIP3    H1 4821   3.902   1.912   3.863
 1605TIP3    H2 4822   3.992   1.896   3.741
 1606TIP3   OH2 4823   3.847   0.449   3.789
 1606TIP3    H1 4824   3.881   0.438   3.700
 1606TIP3    H2 4825   3.849   0.544   3.803
 1607TIP3   OH2 4826   5.676   5.711   1.602
 1607TIP3    H1 4827   5.653   5.804   1.603
 1607TIP3    H2 4828   5.770   5.709   1.581
 1608TIP3   OH2 4829   3.812   1.557   4.133
 1608TIP3    H1 4830   3.905   1.541   4.117
 1608TIP3    H2 4831   3.788   1.493   4.200
 1609TIP3   OH2 4832   3.832   5.762   0.453
 1609TIP3    H1 4833   3.877   5.712   0.521
 1609TIP3    H2 4834   3.867   5.850   0.460
 1610TIP3   OH2 4835   4.051   3.714   3.793
 1610TIP3    H1 4836   4.073   3.804   3.815
 1610TIP3    H2 4837   4.031   3.673   3.876
 1611TIP3   OH2 4838   4.921   1.499   3.580
 1611TIP3    H1 4839   4.920   1.574   3.640
 1611TIP3    H2 4840   4.895   1.425   3.635
 1612TIP3   OH2 4841   3.759   3.346   1.827
 1612TIP3    H1 4842   3.788   3.302   1.747
 1612TIP3    H2 4843   3.700   3.283   1.869
 1613TIP3   OH2 4844   5.705   2.342   3.328
 1613TIP3    H1 4845   5.744   2.281   3.266
 1613TIP3    H2 4846   5.777   2.370   3.384
 1614TIP3   OH2 4847   2.662   3.097   3.484
 1614TIP3    H1 4848   2.678   3.162   3.552
 1614TIP3    H2 4849   2.590   3.044   3.518
 1615TIP3   OH2 4850   4.068   0.582   4.201
 1615TIP3    H1 4851   4.049   0.675   4.217
 1615TIP3    H2 4852   4.086   0.578   4.107
 1616TIP3   OH2 4853   0.957   2.459   3.713
 1616TIP3    H1 4854   0.905   2.510   3.651
 1616TIP3    H2 4855   0.960   2.371   3.675
 1617TIP3   OH2 4856   3.525   2.394   4.382
 1617TIP3    H1 4857   3.457   2.417   4.445
 1617TIP3    H2 4858   3.477   2.352   4.310
 1618TIP3   OH2 4859   1.872   4.211   4.937
 1618TIP3    H1 4860   1.952   4.251   4.973
 1618TIP3    H2 4861   1.833   4.165   5.012
 1619TIP3   OH2 4862   5.277   4.061   4.702
 1619TIP3    H1 4863   5.258   4.154   4.687
 1619TIP3    H2 4864   5.218   4.014   4.643
 1620TIP3   OH2 4865   3.691   2.055   3.273
 1620TIP3    H1 4866   3.724   2.047   3.362
 1620TIP3    H2 4867   3.714   1.973   3.230
 1621TIP3   OH2 4868   5.113   0.968   0.288
 1621TIP3    H1 4869   5.142   0.879   0.308
 1621TIP3    H2 4870   5.130   0.977   0.194
 1622TIP3   OH2 4871   6.052   4.596   2.239
 1622TIP3    H1 4872   6.040   4.661   2.309
 1622TIP3    H2 4873   6.090   4.520   2.283
 1623TIP3   OH2 4874   5.243   0.475   2.218
 1623TIP3    H1 4875   5.205   0.529   2.287
 1623TIP3    H2 4876   5.236   0.529   2.139
 1624TIP3   OH2 4877   4.626   5.662   0.884
 1624TIP3    H1 4878   4.569   5.726   0.928
 1624TIP3    H2 4879   4.707   5.664   0.933
 1625TIP3   OH2 4880   2.790   3.006   4.161
 1625TIP3    H1 4881   2.839   3.086   4.142
 1625TIP3    H2 4882   2.719   3.034   4.218
 1626TIP3   OH2 4883   0.037   4.983   3.339
 1626TIP3    H1 4884   0.085   4.965   3.420
 1626TIP3    H2 4885   0.105   4.998   3.273
 1627TIP3   OH2 4886   4.400   0.321   2.396
 1627TIP3    H1 4887   4.437   0.242   2.436
 1627TIP3    H2 4888   4.409   0.389   2.463
 1628TIP3   OH2 4889   5.139   3.692   0.583
 1628TIP3    H1 4890   5.056   3.729   0.615
 1628TIP3    H2 4891   5.116   3.646   0.503
 1629TIP3   OH2 4892   0.873   5.271   3.009
 1629TIP3    H1 4893   0.868   5.329   2.933
 1629TIP3    H2 4894   0.901   5.186   2.974
 1630TIP3   OH2 4895   4.953   1.741   1.798
 1630TIP3    H1 4896   5.009   1.793   1.740
 1630TIP3    H2 4897   4.996   1.745   1.883
 1631TIP3   OH2 4898   1.865   4.167   3.796
 1631TIP3    H1 4899   1.795   4.166   3.862
 1631TIP3    H2 4900   1.932   4.223   3.833
 1632TIP3   OH2 4901   1.307   0.201   3.622
 1632TIP3    H1 4902   1.389   0.167   3.587
 1632TIP3    H2 4903   1.248   0.125   3.624
 1633TIP3   OH2 4904   6.364   4.466   1.735
 1633TIP3    H1 4905   6.328   4.383   1.767
 1633TIP3    H2 4906   6.349   4.527   1.807
 1634TIP3   OH2 4907   4.482   5.302   5.046
 1634TIP3    H1 4908   4.575   5.316   5.033
 1634TIP3    H2 4909   4.461   5.348   5.127
 1635TIP3   OH2 4910   4.024   3.910   0.187
 1635TIP3    H1 4911   3.937   3.871   0.192
 1635TIP3    H2 4912   4.012   3.999   0.220
 1636TIP3   OH2 4913   1.302   4.126   1.962
 1636TIP3    H1 4914   1.249   4.092   2.034
 1636TIP3    H2 4915   1.349   4.201   2.000
 1637TIP3   OH2 4916   1.352   5.743   2.422
 1637TIP3    H1 4917   1.283   5.789   2.469
 1637TIP3    H2 4918   1.328   5.749   2.330
 1638TIP3   OH2 4919   5.421   5.860   4.592
 1638TIP3    H1 4920   5.515   5.873   4.595
 1638TIP3    H2 4921   5.392   5.910   4.515
 1639TIP3   OH2 4922   6.003   3.748   3.770
 1639TIP3    H1 4923   5.979   3.782   3.684
 1639TIP3    H2 4924   6.087   3.704   3.757
 1640TIP3   OH2 4925   1.320   1.741   1.793
 1640TIP3    H1 4926   1.336   1.831   1.767
 1640TIP3    H2 4927   1.400   1.695   1.771
 1641TIP3   OH2 4928   3.521   1.411   2.711
 1641TIP3    H1 4929   3.562   1.446   2.632
 1641TIP3    H2 4930   3.555   1.322   2.718
 1642TIP3   OH2 4931   0.548   1.697   1.201
 1642TIP3    H1 4932   0.612   1.626   1.199
 1642TIP3    H2 4933   0.600   1.777   1.201
 1643TIP3   OH2 4934   5.952   3.537   4.891
 1643TIP3    H1 4935   5.867   3.534   4.847
 1643TIP3    H2 4936   6.004   3.599   4.839
 1644TIP3   OH2 4937   1.467   5.593   3.678
 1644TIP3    H1 4938   1.395   5.538   3.709
 1644TIP3    H2 4939   1.425   5.661   3.626
 1645TIP3   OH2 4940   1.710   1.039   4.498
 1645TIP3    H1 4941   1.756   0.970   4.547
 1645TIP3    H2 4942   1.667   1.092   4.565
 1646TIP3   OH2 4943   2.754   4.564   0.462
 1646TIP3    H1 4944   2.799   4.617   0.396
 1646TIP3    H2 4945   2.782   4.601   0.546
 1647TIP3   OH2 4946   5.929   1.172   4.675
 1647TIP3    H1 4947   5.951   1.254   4.630
 1647TIP3    H2 4948   5.836   1.180   4.695
 1648TIP3   OH2 4949   2.163   5.880   4.290
 1648TIP3    H1 4950   2.179   5.900   4.382
 1648TIP3    H2 4951   2.167   5.965   4.246
 1649TIP3   OH2 4952   1.171   5.982   3.052
 1649TIP3    H1 4953   1.161   5.916   2.983
 1649TIP3    H2 4954   1.128   6.060   3.016
 1650TIP3   OH2 4955   4.476   5.901   2.596
 1650TIP3    H1 4956   4.418   5.938   2.529
 1650TIP3    H2 4957   4.558   5.886   2.550
 1651TIP3   OH2 4958   4.037   2.946   1.246
 1651TIP3    H1 4959   3.979   2.875   1.271
 1651TIP3    H2 4960   4.009   3.021   1.299
 1652TIP3   OH2 4961   0.501   4.634   2.841
 1652TIP3    H1 4962   0.547   4.558   2.877
 1652TIP3    H2 4963   0.450   4.599   2.768
 1653TIP3   OH2 4964   3.975   3.240   2.828
 1653TIP3    H1 4965   3.996   3.193   2.748
 1653TIP3    H2 4966   3.999   3.331   2.810
 1654TIP3   OH2 4967   0.566   0.161   3.646
 1654TIP3    H1 4968   0.599   0.104   3.716
 1654TIP3    H2 4969   0.474   0.138   3.637
 1655TIP3   OH2 4970   0.945   4.642   4.060
 1655TIP3    H1 4971   0.994   4.701   4.118
 1655TIP3    H2 4972   0.960   4.555   4.097
 1656TIP3   OH2 4973   0.403   2.142   4.626
 1656TIP3    H1 4974   0.444   2.174   4.706
 1656TIP3    H2 4975   0.468   2.159   4.557
 1657TIP3   OH2 4976   5.130   3.561   4.047
 1657TIP3    H1 4977   5.085   3.477   4.042
 1657TIP3    H2 4978   5.161   3.577   3.958
 1658TIP3   OH2 4979   4.583   4.893   2.576
 1658TIP3    H1 4980   4.617   4.907   2.488
 1658TIP3    H2 4981   4.540   4.975   2.599
 1659TIP3   OH2 4982   5.920   5.357   0.574
 1659TIP3    H1 4983   5.978   5.428   0.547
 1659TIP3    H2 4984   5.865   5.396   0.642
 1660TIP3   OH2 4985   4.435   3.091   3.404
 1660TIP3    H1 4986   4.350   3.134   3.406
 1660TIP3    H2 4987   4.453   3.079   3.311
 1661TIP3   OH2 4988   6.148   2.146   2.621
 1661TIP3    H1 4989   6.099   2.167   2.701
 1661TIP3    H2 4990   6.081   2.136   2.554
 1662TIP3   OH2 4991   5.772   0.838   4.755
 1662TIP3    H1 4992   5.778   0.744   4.739
 1662TIP3    H2 4993   5.772   0.847   4.850
 1663TIP3   OH2 4994   6.025   0.994   3.230
 1663TIP3    H1 4995   6.113   1.009   3.264
 1663TIP3    H2 4996   5.995   1.080   3.202
 1664TIP3   OH2 4997   0.773   3.320   3.560
 1664TIP3    H1 4998   0.796   3.311   3.467
 1664TIP3    H2 4999   0.678   3.308   3.562
 1665TIP3   OH2 5000   3.941   0.911   3.700
 1665TIP3    H1 5001   3.956   0.838   3.640
 1665TIP3    H2 5002   4.024   0.959   3.701
 1666TIP3   OH2 5003   1.107   4.886   2.244
 1666TIP3    H1 5004   1.145   4.972   2.261
 1666TIP3    H2 5005   1.175   4.824   2.271
 1667TIP3   OH2 5006   5.067   1.034   0.946
 1667TIP3    H1 5007   5.102   0.946   0.937
 1667TIP3    H2 5008   5.123   1.088   0.890
 1668TIP3   OH2 5009   3.486   2.585   1.977
 1668TIP3    H1 5010   3.477   2.493   2.001
 1668TIP3    H2 5011   3.482   2.632   2.061
 1669TIP3   OH2 5012   2.339   0.291   2.004
 1669TIP3    H1 5013   2.331   0.318   1.913
 1669TIP3    H2 5014   2.419   0.238   2.006
 1670TIP3   OH2 5015   4.769   4.801   2.754
 1670TIP3    H1 5016   4.802   4.889   2.771
 1670TIP3    H2 5017   4.698   4.814   2.691
 1671TIP3   OH2 5018   2.824   0.167   4.764
 1671TIP3    H1 5019   2.832   0.260   4.789
 1671TIP3    H2 5020   2.840   0.166   4.670
 1672TIP3   OH2 5021  -0.002   3.624   1.127
 1672TIP3    H1 5022   0.079   3.667   1.102
 1672TIP3    H2 5023  -0.059   3.632   1.051
 1673TIP3   OH2 5024   1.874   2.765   0.667
 1673TIP3    H1 5025   1.785   2.731   0.669
 1673TIP3    H2 5026   1.924   2.707   0.724
 1674TIP3   OH2 5027   2.709   2.892   0.608
 1674TIP3    H1 5028   2.736   2.967   0.555
 1674TIP3    H2 5029   2.667   2.931   0.685
 1675TIP3   OH2 5030   2.148   3.096   3.118
 1675TIP3    H1 5031   2.088   3.030   3.152
 1675TIP3    H2 5032   2.213   3.108   3.188
 1676TIP3   OH2 5033   4.771   4.137   2.170
 1676TIP3    H1 5034   4.860   4.171   2.177
 1676TIP3    H2 5035   4.735   4.180   2.092
 1677TIP3   OH2 5036   1.930   5.132   3.353
 1677TIP3    H1 5037   1.881   5.125   3.435
 1677TIP3    H2 5038   2.012   5.174   3.378
 1678TIP3   OH2 5039   2.486   5.758   0.394
 1678TIP3    H1 5040   2.499   5.826   0.328
 1678TIP3    H2 5041   2.521   5.678   0.354
 1679TIP3   OH2 5042   3.713   4.873   1.369
 1679TIP3    H1 5043   3.649   4.911   1.429
 1679TIP3    H2 5044   3.687   4.905   1.283
 1680TIP3   OH2 5045   1.188   1.820   0.391
 1680TIP3    H1 5046   1.148   1.747   0.439
 1680TIP3    H2 5047   1.282   1.803   0.394
 1681TIP3   OH2 5048   2.770   3.203   2.853
 1681TIP3    H1 5049   2.819   3.122   2.869
 1681TIP3    H2 5050   2.816   3.269   2.904
 1682TIP3   OH2 5051   3.795   5.749   3.166
 1682TIP3    H1 5052   3.878   5.757   3.120
 1682TIP3    H2 5053   3.748   5.830   3.145
 1683TIP3   OH2 5054   4.644   0.600   0.351
 1683TIP3    H1 5055   4.558   0.635   0.376
 1683TIP3    H2 5056   4.639   0.507   0.371
 1684TIP3   OH2 5057   0.343   0.520   5.133
 1684TIP3    H1 5058   0.306   0.448   5.083
 1684TIP3    H2 5059   0.279   0.591   5.123
 1685TIP3   OH2 5060   6.276   2.629   0.916
 1685TIP3    H1 5061   6.214   2.694   0.948
 1685TIP3    H2 5062   6.309   2.586   0.995
 1686TIP3   OH2 5063   5.272   3.507   3.644
 1686TIP3    H1 5064   5.178   3.511   3.657
 1686TIP3    H2 5065   5.309   3.551   3.720
 1687TIP3   OH2 5066   4.475   4.420   1.693
 1687TIP3    H1 5067   4.384   4.405   1.718
 1687TIP3    H2 5068   4.498   4.503   1.736
 1688TIP3   OH2 5069   5.547   4.933   3.520
 1688TIP3    H1 5070   5.512   4.918   3.432
 1688TIP3    H2 5071   5.590   4.851   3.544
 1689TIP3   OH2 5072   4.714   0.118   3.689
 1689TIP3    H1 5073   4.766   0.192   3.720
 1689TIP3    H2 5074   4.696   0.138   3.597
 1690TIP3   OH2 5075   0.425   4.610   0.945
 1690TIP3    H1 5076   0.431   4.518   0.972
 1690TIP3    H2 5077   0.447   4.659   1.024
 1691TIP3   OH2 5078   6.026   3.394   4.554
 1691TIP3    H1 5079   6.056   3.321   4.607
 1691TIP3    H2 5080   6.072   3.384   4.471
 1692TIP3   OH2 5081   6.131   3.363   3.670
 1692TIP3    H1 5082   6.190   3.427   3.710
 1692TIP3    H2 5083   6.183   3.284   3.662
 1693TIP3   OH2 5084   0.833   4.846   3.652
 1693TIP3    H1 5085   0.833   4.935   3.616
 1693TIP3    H2 5086   0.851   4.858   3.745
 1694TIP3   OH2 5087   0.428   4.075   0.326
 1694TIP3    H1 5088   0.449   4.081   0.233
 1694TIP3    H2 5089   0.403   3.983   0.338
 1695TIP3   OH2 5090   3.549   3.738   5.166
 1695TIP3    H1 5091   3.644   3.744   5.165
 1695TIP3    H2 5092   3.530   3.666   5.227
 1696TIP3   OH2 5093   0.493   1.414   2.868
 1696TIP3    H1 5094   0.586   1.425   2.847
 1696TIP3    H2 5095   0.489   1.330   2.914
 1697TIP3   OH2 5096   2.217   3.416   2.594
 1697TIP3    H1 5097   2.181   3.453   2.674
 1697TIP3    H2 5098   2.250   3.330   2.620
 1698TIP3   OH2 5099   5.336   5.468   3.401
 1698TIP3    H1 5100   5.308   5.538   3.341
 1698TIP3    H2 5101   5.312   5.388   3.355
 1699TIP3   OH2 5102   1.852   4.622   5.164
 1699TIP3    H1 5103   1.921   4.685   5.184
 1699TIP3    H2 5104   1.873   4.590   5.076
 1700TIP3   OH2 5105   5.549   1.208   3.686
 1700TIP3    H1 5106   5.473   1.263   3.704
 1700TIP3    H2 5107   5.607   1.264   3.634
 1701TIP3   OH2 5108   2.489   4.736   0.749
 1701TIP3    H1 5109   2.465   4.750   0.657
 1701TIP3    H2 5110   2.488   4.641   0.760
 1702TIP3   OH2 5111   2.482   2.670   1.304
 1702TIP3    H1 5112   2.414   2.700   1.364
 1702TIP3    H2 5113   2.462   2.577   1.290
 1703TIP3   OH2 5114   3.935   0.910   0.659
 1703TIP3    H1 5115   4.026   0.916   0.688
 1703TIP3    H2 5116   3.905   1.001   0.655
 1704TIP3   OH2 5117   3.399   0.688   3.354
 1704TIP3    H1 5118   3.424   0.695   3.262
 1704TIP3    H2 5119   3.315   0.733   3.359
 1705TIP3   OH2 5120   4.026   3.859   4.023
 1705TIP3    H1 5121   3.993   3.770   4.021
 1705TIP3    H2 5122   3.990   3.897   4.103
 1706TIP3   OH2 5123   2.808   4.300   1.532
 1706TIP3    H1 5124   2.834   4.324   1.622
 1706TIP3    H2 5125   2.750   4.371   1.505
 1707TIP3   OH2 5126   0.869   2.581   0.514
 1707TIP3    H1 5127   0.948   2.613   0.558
 1707TIP3    H2 5128   0.841   2.506   0.568
 1708TIP3   OH2 5129   3.672   4.440   4.460
 1708TIP3    H1 5130   3.732   4.436   4.385
 1708TIP3    H2 5131   3.719   4.491   4.526
 1709TIP3   OH2 5132   1.835   4.718   3.380
 1709TIP3    H1 5133   1.786   4.646   3.419
 1709TIP3    H2 5134   1.878   4.761   3.454
 1710TIP3   OH2 5135   3.035   3.650   4.671
 1710TIP3    H1 5136   3.112   3.696   4.638
 1710TIP3    H2 5137   2.993   3.615   4.592
 1711TIP3   OH2 5138   2.167   4.045   4.624
 1711TIP3    H1 5139   2.234   4.095   4.670
 1711TIP3    H2 5140   2.212   3.965   4.596
 1712TIP3   OH2 5141   1.863   0.308   0.603
 1712TIP3    H1 5142   1.950   0.311   0.643
 1712TIP3    H2 5143   1.877   0.339   0.514
 1713TIP3   OH2 5144   2.583   5.055   4.444
 1713TIP3    H1 5145   2.637   5.002   4.385
 1713TIP3    H2 5146   2.500   5.067   4.397
 1714TIP3   OH2 5147   5.452   2.278   2.164
 1714TIP3    H1 5148   5.489   2.278   2.076
 1714TIP3    H2 5149   5.387   2.348   2.162
 1715TIP3   OH2 5150   5.494   4.311   0.469
 1715TIP3    H1 5151   5.588   4.292   0.469
 1715TIP3    H2 5152   5.486   4.391   0.520
 1716TIP3   OH2 5153   4.527   5.312   1.485
 1716TIP3    H1 5154   4.501   5.343   1.572
 1716TIP3    H2 5155   4.506   5.219   1.485
 1717TIP3   OH2 5156   5.114   4.077   4.060
 1717TIP3    H1 5157   5.041   4.054   4.002
 1717TIP3    H2 5158   5.148   4.159   4.024
 1718TIP3   OH2 5159   4.472   5.165   4.141
 1718TIP3    H1 5160   4.502   5.197   4.056
 1718TIP3    H2 5161   4.504   5.075   4.145
 1719TIP3   OH2 5162   1.208   4.821   2.579
 1719TIP3    H1 5163   1.231   4.740   2.533
 1719TIP3    H2 5164   1.256   4.889   2.532
 1720TIP3   OH2 5165   3.992   2.471   2.784
 1720TIP3    H1 5166   4.003   2.401   2.719
 1720TIP3    H2 5167   3.952   2.543   2.736
 1721TIP3   OH2 5168   2.619   5.382   1.433
 1721TIP3    H1 5169   2.690   5.413   1.376
 1721TIP3    H2 5170   2.645   5.293   1.455
 1722TIP3   OH2 5171   4.165   1.379   0.640
 1722TIP3    H1 5172   4.224   1.382   0.565
 1722TIP3    H2 5173   4.188   1.457   0.691
 1723TIP3   OH2 5174   5.131   5.319   0.915
 1723TIP3    H1 5175   5.069   5.317   0.842
 1723TIP3    H2 5176   5.087   5.274   0.986
 1724TIP3   OH2 5177   6.304   2.441   1.611
 1724TIP3    H1 5178   6.257   2.367   1.651
 1724TIP3    H2 5179   6.273   2.518   1.660
 1725TIP3   OH2 5180   4.316   2.448   2.603
 1725TIP3    H1 5181   4.227   2.413   2.599
 1725TIP3    H2 5182   4.358   2.397   2.672
 1726TIP3   OH2 5183   6.005   5.118   3.938
 1726TIP3    H1 5184   6.025   5.025   3.923
 1726TIP3    H2 5185   5.920   5.118   3.980
 1727TIP3   OH2 5186   5.558   0.787   2.566
 1727TIP3    H1 5187   5.646   0.789   2.529
 1727TIP3    H2 5188   5.520   0.871   2.542
 1728TIP3   OH2 5189   1.186   5.411   4.629
 1728TIP3    H1 5190   1.229   5.418   4.715
 1728TIP3    H2 5191   1.205   5.495   4.586
 1729TIP3   OH2 5192   4.313   3.243   1.012
 1729TIP3    H1 5193   4.391   3.232   0.957
 1729TIP3    H2 5194   4.245   3.191   0.968
 1730TIP3   OH2 5195   3.163   2.359   1.571
 1730TIP3    H1 5196   3.139   2.293   1.636
 1730TIP3    H2 5197   3.251   2.333   1.542
 1731TIP3   OH2 5198   3.315   1.234   2.537
 1731TIP3    H1 5199   3.382   1.301   2.546
 1731TIP3    H2 5200   3.303   1.224   2.443
 1732TIP3   OH2 5201   4.990   4.842   3.221
 1732TIP3    H1 5202   5.077   4.815   3.192
 1732TIP3    H2 5203   4.952   4.886   3.145
 1733TIP3   OH2 5204   3.173   4.384   1.728
 1733TIP3    H1 5205   3.163   4.345   1.815
 1733TIP3    H2 5206   3.248   4.339   1.690
 1734TIP3   OH2 5207   4.265   4.638   0.566
 1734TIP3    H1 5208   4.277   4.696   0.490
 1734TIP3    H2 5209   4.170   4.625   0.571
 1735TIP3   OH2 5210   6.191   2.000   3.398
 1735TIP3    H1 5211   6.237   2.076   3.434
 1735TIP3    H2 5212   6.179   2.020   3.305
 1736TIP3   OH2 5213   2.374   1.196   0.421
 1736TIP3    H1 5214   2.418   1.120   0.382
 1736TIP3    H2 5215   2.355   1.168   0.511
 1737TIP3   OH2 5216   4.862   0.935   3.763
 1737TIP3    H1 5217   4.919   0.999   3.721
 1737TIP3    H2 5218   4.780   0.983   3.778
 1738TIP3   OH2 5219   1.150   2.593   3.872
 1738TIP3    H1 5220   1.093   2.549   3.808
 1738TIP3    H2 5221   1.234   2.549   3.862
 1739TIP3   OH2 5222   5.622   5.847   0.146
 1739TIP3    H1 5223   5.683   5.897   0.201
 1739TIP3    H2 5224   5.678   5.790   0.093
 1740TIP3   OH2 5225   5.082   2.497   3.979
 1740TIP3    H1 5226   5.034   2.488   3.897
 1740TIP3    H2 5227   5.056   2.582   4.013
 1741TIP3   OH2 5228   1.054   2.678   2.806
 1741TIP3    H1 5229   1.114   2.604   2.804
 1741TIP3    H2 5230   0.996   2.663   2.732
 1742TIP3   OH2 5231   3.300   3.015   3.885
 1742TIP3    H1 5232   3.262   2.928   3.874
 1742TIP3    H2 5233   3.392   2.999   3.908
 1743TIP3   OH2 5234   1.160   4.730   3.832
 1743TIP3    H1 5235   1.067   4.746   3.816
 1743TIP3    H2 5236   1.162   4.687   3.918
 1744TIP3   OH2 5237   3.429   0.720   2.567
 1744TIP3    H1 5238   3.367   0.680   2.627
 1744TIP3    H2 5239   3.421   0.814   2.583
 1745TIP3   OH2 5240   1.292   4.851   4.822
 1745TIP3    H1 5241   1.371   4.825   4.774
 1745TIP3    H2 5242   1.307   4.943   4.843
 1746TIP3   OH2 5243   1.568   3.825   4.443
 1746TIP3    H1 5244   1.515   3.796   4.369
 1746TIP3    H2 5245   1.636   3.758   4.453
 1747TIP3   OH2 5246   2.192   0.566   2.550
 1747TIP3    H1 5247   2.243   0.645   2.566
 1747TIP3    H2 5248   2.147   0.582   2.467
 1748TIP3   OH2 5249   5.104   2.524   0.842
 1748TIP3    H1 5250   5.177   2.571   0.801
 1748TIP3    H2 5251   5.143   2.482   0.920
 1749TIP3   OH2 5252   4.262   0.036   3.069
 1749TIP3    H1 5253   4.351   0.037   3.103
 1749TIP3    H2 5254   4.217  -0.030   3.122
 1750TIP3   OH2 5255   5.023   5.099   1.006
 1750TIP3    H1 5256   5.092   5.051   0.960
 1750TIP3    H2 5257   5.028   5.067   1.096
 1751TIP3   OH2 5258   0.823   5.642   1.127
 1751TIP3    H1 5259   0.892   5.652   1.193
 1751TIP3    H2 5260   0.787   5.555   1.143
 1752TIP3   OH2 5261   1.909   2.958   3.207
 1752TIP3    H1 5262   1.910   2.864   3.188
 1752TIP3    H2 5263   1.900   2.963   3.302
 1753TIP3   OH2 5264   6.263   0.143   0.714
 1753TIP3    H1 5265   6.177   0.183   0.728
 1753TIP3    H2 5266   6.245   0.049   0.711
 1754TIP3   OH2 5267   1.317   1.741   4.901
 1754TIP3    H1 5268   1.300   1.661   4.850
 1754TIP3    H2 5269   1.300   1.812   4.840
 1755TIP3   OH2 5270   1.770   1.216   2.835
 1755TIP3    H1 5271   1.795   1.222   2.927
 1755TIP3    H2 5272   1.822   1.284   2.792
 1756TIP3   OH2 5273   1.020   0.905   4.805
 1756TIP3    H1 5274   0.925   0.909   4.806
 1756TIP3    H2 5275   1.041   0.813   4.819
 1757TIP3   OH2 5276   3.689   5.911   2.391
 1757TIP3    H1 5277   3.743   5.884   2.317
 1757TIP3    H2 5278   3.741   5.887   2.468
 1758TIP3   OH2 5279   2.058   3.659   2.059
 1758TIP3    H1 5280   2.001   3.665   2.136
 1758TIP3    H2 5281   2.147   3.660   2.094
 1759TIP3   OH2 5282   2.134   4.335   4.032
 1759TIP3    H1 5283   2.072   4.387   4.082
 1759TIP3    H2 5284   2.093   4.248   4.025
 1760TIP3   OH2 5285   3.410   1.961   4.892
 1760TIP3    H1 5286   3.372   2.010   4.820
 1760TIP3    H2 5287   3.476   1.905   4.851
 1761TIP3   OH2 5288   0.482   1.118   2.900
 1761TIP3    H1 5289   0.557   1.131   2.842
 1761TIP3    H2 5290   0.515   1.060   2.969
 1762TIP3   OH2 5291   1.540   1.762   0.989
 1762TIP3    H1 5292   1.489   1.681   0.988
 1762TIP3    H2 5293   1.495   1.819   1.051
 1763TIP3   OH2 5294   1.102   5.932   3.639
 1763TIP3    H1 5295   1.191   5.968   3.639
 1763TIP3    H2 5296   1.115   5.837   3.637
 1764TIP3   OH2 5297   0.651   2.024   3.390
 1764TIP3    H1 5298   0.640   2.082   3.315
 1764TIP3    H2 5299   0.733   1.979   3.374
 1765TIP3   OH2 5300   0.312   1.403   4.048
 1765TIP3    H1 5301   0.360   1.327   4.014
 1765TIP3    H2 5302   0.318   1.393   4.143
 1766TIP3   OH2 5303   2.210   1.790   2.946
 1766TIP3    H1 5304   2.249   1.702   2.941
 1766TIP3    H2 5305   2.116   1.774   2.957
 1767TIP3   OH2 5306   5.232   1.294   1.131
 1767TIP3    H1 5307   5.230   1.316   1.038
 1767TIP3    H2 5308   5.299   1.225   1.138
 1768TIP3   OH2 5309   2.367   5.106   1.847
 1768TIP3    H1 5310   2.288   5.138   1.890
 1768TIP3    H2 5311   2.339   5.088   1.757
 1769TIP3   OH2 5312   0.900   1.989   2.956
 1769TIP3    H1 5313   0.828   2.030   2.908
 1769TIP3    H2 5314   0.963   1.964   2.889
 1770TIP3   OH2 5315   2.627   4.800   0.311
 1770TIP3    H1 5316   2.532   4.809   0.319
 1770TIP3    H2 5317   2.639   4.729   0.247
 1771TIP3   OH2 5318   0.957   5.374   1.464
 1771TIP3    H1 5319   0.907   5.348   1.541
 1771TIP3    H2 5320   1.030   5.313   1.460
 1772TIP3   OH2 5321   3.487   2.944   4.665
 1772TIP3    H1 5322   3.450   2.960   4.578
 1772TIP3    H2 5323   3.444   3.008   4.721
 1773TIP3   OH2 5324   4.137   1.922   1.833
 1773TIP3    H1 5325   4.096   1.837   1.846
 1773TIP3    H2 5326   4.099   1.978   1.901
 1774TIP3   OH2 5327   0.188   4.374   4.467
 1774TIP3    H1 5328   0.245   4.443   4.500
 1774TIP3    H2 5329   0.242   4.327   4.403
 1775TIP3   OH2 5330   2.164   5.910   1.025
 1775TIP3    H1 5331   2.236   5.863   1.066
 1775TIP3    H2 5332   2.190   5.919   0.933
 1776TIP3   OH2 5333   0.746   0.885   2.837
 1776TIP3    H1 5334   0.806   0.867   2.909
 1776TIP3    H2 5335   0.748   0.805   2.784
 1777TIP3   OH2 5336   0.832   4.948   4.739
 1777TIP3    H1 5337   0.877   5.018   4.786
 1777TIP3    H2 5338   0.889   4.871   4.749
 1778TIP3   OH2 5339   5.684   4.674   3.776
 1778TIP3    H1 5340   5.670   4.689   3.683
 1778TIP3    H2 5341   5.759   4.615   3.780
 1779TIP3   OH2 5342   0.779   0.699   2.120
 1779TIP3    H1 5343   0.726   0.692   2.199
 1779TIP3    H2 5344   0.754   0.784   2.082
 1780TIP3   OH2 5345   0.511   2.339   1.145
 1780TIP3    H1 5346   0.556   2.406   1.197
 1780TIP3    H2 5347   0.418   2.356   1.161
 1781TIP3   OH2 5348   2.388   2.430   3.810
 1781TIP3    H1 5349   2.470   2.463   3.773
 1781TIP3    H2 5350   2.398   2.335   3.809
 1782TIP3   OH2 5351   3.442   5.430   1.755
 1782TIP3    H1 5352   3.433   5.343   1.715
 1782TIP3    H2 5353   3.353   5.457   1.775
 1783TIP3   OH2 5354   2.018   0.733   4.213
 1783TIP3    H1 5355   2.062   0.796   4.270
 1783TIP3    H2 5356   1.932   0.773   4.196
 1784TIP3   OH2 5357   4.358   4.115   0.932
 1784TIP3    H1 5358   4.449   4.137   0.953
 1784TIP3    H2 5359   4.306   4.166   0.994
 1785TIP3   OH2 5360   0.809   3.416   0.622
 1785TIP3    H1 5361   0.786   3.507   0.600
 1785TIP3    H2 5362   0.892   3.401   0.577
 1786TIP3   OH2 5363   5.410   0.927   4.776
 1786TIP3    H1 5364   5.422   0.837   4.808
 1786TIP3    H2 5365   5.345   0.918   4.706
 1787TIP3   OH2 5366   5.651   1.842   3.749
 1787TIP3    H1 5367   5.572   1.791   3.767
 1787TIP3    H2 5368   5.639   1.873   3.659
 1788TIP3   OH2 5369   5.264   1.102   2.335
 1788TIP3    H1 5370   5.252   1.183   2.385
 1788TIP3    H2 5371   5.326   1.051   2.387
 1789TIP3   OH2 5372   0.554   0.638   0.226
 1789TIP3    H1 5373   0.562   0.625   0.321
 1789TIP3    H2 5374   0.635   0.681   0.200
 1790TIP3   OH2 5375   2.422   3.337   4.317
 1790TIP3    H1 5376   2.382   3.393   4.383
 1790TIP3    H2 5377   2.386   3.367   4.234
 1791TIP3   OH2 5378   3.040   0.910   1.994
 1791TIP3    H1 5379   3.069   0.823   1.967
 1791TIP3    H2 5380   3.007   0.898   2.083
 1792TIP3   OH2 5381   4.646   2.503   0.308
 1792TIP3    H1 5382   4.612   2.433   0.252
 1792TIP3    H2 5383   4.644   2.465   0.396
 1793TIP3   OH2 5384   1.907   1.972   1.838
 1793TIP3    H1 5385   1.924   1.891   1.789
 1793TIP3    H2 5386   1.951   1.959   1.922
 1794TIP3   OH2 5387   6.038   2.001   0.905
 1794TIP3    H1 5388   6.024   1.916   0.864
 1794TIP3    H2 5389   5.949   2.036   0.918
 1795TIP3   OH2 5390   6.292   5.682   0.027
 1795TIP3    H1 5391   6.217   5.691  -0.031
 1795TIP3    H2 5392   6.260   5.712   0.112
 1796TIP3   OH2 5393   5.687   5.944   4.291
 1796TIP3    H1 5394   5.621   6.006   4.324
 1796TIP3    H2 5395   5.652   5.858   4.314
 1797TIP3   OH2 5396   5.259   2.148   0.842
 1797TIP3    H1 5397   5.269   2.190   0.927
 1797TIP3    H2 5398   5.344   2.107   0.825
 1798TIP3   OH2 5399   5.083   0.438   3.211
 1798TIP3    H1 5400   5.133   0.511   3.246
 1798TIP3    H2 5401   4.992   0.467   3.214
 1799TIP3   OH2 5402   4.516   2.410   2.418
 1799TIP3    H1 5403   4.566   2.355   2.477
 1799TIP3    H2 5404   4.443   2.443   2.471
 1800TIP3   OH2 5405   0.638   4.928   1.184
 1800TIP3    H1 5406   0.567   4.885   1.136
 1800TIP3    H2 5407   0.686   4.976   1.118
 1801TIP3   OH2 5408   4.138   3.910   1.525
 1801TIP3    H1 5409   4.145   3.834   1.584
 1801TIP3    H2 5410   4.129   3.985   1.583
 1802TIP3   OH2 5411   1.410   0.997   1.118
 1802TIP3    H1 5412   1.347   0.942   1.165
 1802TIP3    H2 5413   1.495   0.956   1.135
 1803TIP3   OH2 5414   1.539   4.854   4.070
 1803TIP3    H1 5415   1.529   4.944   4.040
 1803TIP3    H2 5416   1.634   4.840   4.073
 1804TIP3   OH2 5417   4.372   4.934   3.762
 1804TIP3    H1 5418   4.312   5.009   3.766
 1804TIP3    H2 5419   4.449   4.963   3.810
 1805TIP3   OH2 5420   4.083   2.073   2.063
 1805TIP3    H1 5421   4.053   1.994   2.108
 1805TIP3    H2 5422   4.004   2.125   2.049
 1806TIP3   OH2 5423   1.875   0.931   4.809
 1806TIP3    H1 5424   1.889   0.882   4.890
 1806TIP3    H2 5425   1.881   1.023   4.836
 1807TIP3   OH2 5426   3.783   0.512   0.965
 1807TIP3    H1 5427   3.841   0.442   0.994
 1807TIP3    H2 5428   3.796   0.516   0.870
 1808TIP3   OH2 5429   5.941   1.068   2.819
 1808TIP3    H1 5430   5.905   1.142   2.770
 1808TIP3    H2 5431   6.002   1.026   2.759
 1809TIP3   OH2 5432   4.052   1.678   2.569
 1809TIP3    H1 5433   3.960   1.668   2.545
 1809TIP3    H2 5434   4.077   1.764   2.535
 1810TIP3   OH2 5435   4.771   5.853   4.726
 1810TIP3    H1 5436   4.782   5.865   4.820
 1810TIP3    H2 5437   4.858   5.827   4.695
 1811TIP3   OH2 5438   4.069   3.167   1.825
 1811TIP3    H1 5439   4.150   3.176   1.774
 1811TIP3    H2 5440   4.000   3.159   1.758
 1812TIP3   OH2 5441   5.341   0.351   3.680
 1812TIP3    H1 5442   5.293   0.276   3.715
 1812TIP3    H2 5443   5.284   0.386   3.611
 1813TIP3   OH2 5444   6.116   2.129   4.550
 1813TIP3    H1 5445   6.197   2.092   4.516
 1813TIP3    H2 5446   6.132   2.223   4.555
 1814TIP3   OH2 5447   3.057   1.905   0.798
 1814TIP3    H1 5448   3.101   1.823   0.774
 1814TIP3    H2 5449   2.974   1.877   0.836
 1815TIP3   OH2 5450   1.537   2.468   2.085
 1815TIP3    H1 5451   1.528   2.519   2.005
 1815TIP3    H2 5452   1.585   2.389   2.059
 1816TIP3   OH2 5453   0.212   1.054   1.432
 1816TIP3    H1 5454   0.117   1.062   1.440
 1816TIP3    H2 5455   0.246   1.084   1.516
 1817TIP3   OH2 5456   2.375   0.061   0.851
 1817TIP3    H1 5457   2.374   0.126   0.921
 1817TIP3    H2 5458   2.440   0.094   0.788
 1818TIP3   OH2 5459   4.156   1.716   3.167
 1818TIP3    H1 5460   4.091   1.773   3.207
 1818TIP3    H2 5461   4.141   1.630   3.207
 1819TIP3   OH2 5462   1.799   5.247   0.863
 1819TIP3    H1 5463   1.859   5.179   0.891
 1819TIP3    H2 5464   1.777   5.294   0.943
 1820TIP3   OH2 5465   4.400   3.608   4.192
 1820TIP3    H1 5466   4.473   3.598   4.253
 1820TIP3    H2 5467   4.434   3.667   4.125
 1821TIP3   OH2 5468   3.189   2.332   0.238
 1821TIP3    H1 5469   3.158   2.419   0.260
 1821TIP3    H2 5470   3.222   2.296   0.321
 1822TIP3   OH2 5471   2.054   3.460   0.926
 1822TIP3    H1 5472   2.064   3.460   0.831
 1822TIP3    H2 5473   2.050   3.367   0.950
 1823TIP3   OH2 5474   4.128   4.165   0.322
 1823TIP3    H1 5475   4.217   4.153   0.357
 1823TIP3    H2 5476   4.123   4.259   0.304
 1824TIP3   OH2 5477   5.002   1.090   0.612
 1824TIP3    H1 5478   5.096   1.095   0.595
 1824TIP3    H2 5479   4.981   0.997   0.606
 1825TIP3   OH2 5480   3.879   3.668   2.630
 1825TIP3    H1 5481   3.900   3.589   2.580
 1825TIP3    H2 5482   3.964   3.710   2.644
 1826TIP3   OH2 5483   3.307   0.547   2.041
 1826TIP3    H1 5484   3.334   0.469   1.993
 1826TIP3    H2 5485   3.375   0.559   2.108
 1827TIP3   OH2 5486   4.357   4.747   3.313
 1827TIP3    H1 5487   4.344   4.831   3.356
 1827TIP3    H2 5488   4.362   4.683   3.384
 1828TIP3   OH2 5489   4.407   3.852   4.020
 1828TIP3    H1 5490   4.467   3.911   3.974
 1828TIP3    H2 5491   4.348   3.910   4.068
 1829TIP3   OH2 5492   2.121   2.602   2.497
 1829TIP3    H1 5493   2.160   2.527   2.543
 1829TIP3    H2 5494   2.146   2.678   2.549
 1830TIP3   OH2 5495   6.388   0.905   0.194
 1830TIP3    H1 5496   6.317   0.842   0.185
 1830TIP3    H2 5497   6.347   0.984   0.230
 1831TIP3   OH2 5498   5.667   3.147   4.812
 1831TIP3    H1 5499   5.662   3.211   4.741
 1831TIP3    H2 5500   5.576   3.130   4.835
 1832TIP3   OH2 5501   1.825   3.957   5.119
 1832TIP3    H1 5502   1.736   3.992   5.129
 1832TIP3    H2 5503   1.833   3.893   5.190
 1833TIP3   OH2 5504   3.860   2.706   0.333
 1833TIP3    H1 5505   3.782   2.700   0.387
 1833TIP3    H2 5506   3.859   2.795   0.297
 1834TIP3   OH2 5507   2.891   4.899   0.362
 1834TIP3    H1 5508   2.942   4.884   0.283
 1834TIP3    H2 5509   2.812   4.846   0.350
 1835TIP3   OH2 5510   2.156   5.557   1.533
 1835TIP3    H1 5511   2.182   5.645   1.505
 1835TIP3    H2 5512   2.075   5.571   1.582
 1836TIP3   OH2 5513   2.389   3.338   0.857
 1836TIP3    H1 5514   2.319   3.364   0.797
 1836TIP3    H2 5515   2.470   3.358   0.810
 1837TIP3   OH2 5516   4.096   3.150   3.067
 1837TIP3    H1 5517   4.169   3.191   3.022
 1837TIP3    H2 5518   4.022   3.158   3.006
 1838TIP3   OH2 5519   3.666   5.111   2.920
 1838TIP3    H1 5520   3.681   5.016   2.917
 1838TIP3    H2 5521   3.752   5.148   2.941
 1839TIP3   OH2 5522   4.073   0.644   1.384
 1839TIP3    H1 5523   4.005   0.709   1.399
 1839TIP3    H2 5524   4.027   0.560   1.381
 1840TIP3   OH2 5525   0.384   5.838   3.991
 1840TIP3    H1 5526   0.390   5.742   3.991
 1840TIP3    H2 5527   0.321   5.858   4.060
 1841TIP3   OH2 5528   3.410   1.781   1.714
 1841TIP3    H1 5529   3.440   1.761   1.626
 1841TIP3    H2 5530   3.417   1.876   1.722
 1842TIP3   OH2 5531   1.838   0.059   1.118
 1842TIP3    H1 5532   1.809   0.123   1.053
 1842TIP3    H2 5533   1.840  -0.024   1.071
 1843TIP3   OH2 5534   2.018   2.017   2.415
 1843TIP3    H1 5535   2.013   2.011   2.511
 1843TIP3    H2 5536   2.096   2.069   2.398
 1844TIP3   OH2 5537   5.482   1.246   0.902
 1844TIP3    H1 5538   5.515   1.238   0.992
 1844TIP3    H2 5539   5.524   1.325   0.868
 1845TIP3   OH2 5540   4.032   3.209   2.309
 1845TIP3    H1 5541   3.945   3.222   2.271
 1845TIP3    H2 5542   4.076   3.294   2.299
 1846TIP3   OH2 5543   4.868   4.345   4.113
 1846TIP3    H1 5544   4.863   4.283   4.187
 1846TIP3    H2 5545   4.903   4.425   4.152
 1847TIP3   OH2 5546   5.899   4.525   1.866
 1847TIP3    H1 5547   5.865   4.600   1.914
 1847TIP3    H2 5548   5.832   4.505   1.801
 1848TIP3   OH2 5549   1.871   3.406   3.249
 1848TIP3    H1 5550   1.818   3.342   3.297
 1848TIP3    H2 5551   1.819   3.486   3.252
 1849TIP3   OH2 5552   4.149   5.055   3.020
 1849TIP3    H1 5553   4.161   4.960   3.026
 1849TIP3    H2 5554   4.069   5.072   3.070
 1850TIP3   OH2 5555   4.732   3.025   1.884
 1850TIP3    H1 5556   4.709   3.057   1.797
 1850TIP3    H2 5557   4.814   3.070   1.905
 1851TIP3   OH2 5558   4.835   0.655   2.527
 1851TIP3    H1 5559   4.755   0.606   2.507
 1851TIP3    H2 5560   4.811   0.747   2.511
 1852TIP3   OH2 5561   3.828   1.297   3.432
 1852TIP3    H1 5562   3.804   1.212   3.469
 1852TIP3    H2 5563   3.748   1.328   3.389
 1853TIP3   OH2 5564   5.279   4.270   1.661
 1853TIP3    H1 5565   5.190   4.235   1.657
 1853TIP3    H2 5566   5.329   4.213   1.602
 1854TIP3   OH2 5567   4.196   2.097   1.221
 1854TIP3    H1 5568   4.208   2.030   1.288
 1854TIP3    H2 5569   4.134   2.159   1.260
 1855TIP3   OH2 5570   4.440   2.159   4.881
 1855TIP3    H1 5571   4.521   2.159   4.831
 1855TIP3    H2 5572   4.393   2.237   4.850
 1856TIP3   OH2 5573   3.220   2.022   3.071
 1856TIP3    H1 5574   3.211   1.932   3.102
 1856TIP3    H2 5575   3.149   2.070   3.115
 1857TIP3   OH2 5576   1.230   3.193   4.892
 1857TIP3    H1 5577   1.282   3.154   4.962
 1857TIP3    H2 5578   1.239   3.287   4.905
 1858TIP3   OH2 5579   2.507   5.602   3.382
 1858TIP3    H1 5580   2.534   5.561   3.464
 1858TIP3    H2 5581   2.552   5.686   3.381
 1859TIP3   OH2 5582   3.290   4.825   2.175
 1859TIP3    H1 5583   3.221   4.886   2.204
 1859TIP3    H2 5584   3.245   4.741   2.165
 1860TIP3   OH2 5585   1.558   2.737   0.169
 1860TIP3    H1 5586   1.636   2.720   0.222
 1860TIP3    H2 5587   1.513   2.653   0.165
 1861TIP3   OH2 5588   4.276   3.907   1.979
 1861TIP3    H1 5589   4.351   3.962   2.000
 1861TIP3    H2 5590   4.203   3.949   2.025
 1862TIP3   OH2 5591   4.737   4.032   1.386
 1862TIP3    H1 5592   4.679   4.077   1.325
 1862TIP3    H2 5593   4.709   4.063   1.473
 1863TIP3   OH2 5594   4.862   2.342   1.774
 1863TIP3    H1 5595   4.916   2.420   1.759
 1863TIP3    H2 5596   4.873   2.323   1.868
 1864TIP3   OH2 5597   5.984   1.765   0.752
 1864TIP3    H1 5598   5.890   1.749   0.756
 1864TIP3    H2 5599   6.011   1.729   0.668
 1865TIP3   OH2 5600   3.898   1.781   5.086
 1865TIP3    H1 5601   3.988   1.797   5.114
 1865TIP3    H2 5602   3.876   1.696   5.124
 1866TIP3   OH2 5603   4.852   0.465   4.886
 1866TIP3    H1 5604   4.821   0.392   4.941
 1866TIP3    H2 5605   4.772   0.515   4.867
 1867TIP3   OH2 5606   5.531   0.702   4.406
 1867TIP3    H1 5607   5.621   0.729   4.389
 1867TIP3    H2 5608   5.489   0.781   4.439
 1868TIP3   OH2 5609   5.568   4.279   2.312
 1868TIP3    H1 5610   5.659   4.281   2.340
 1868TIP3    H2 5611   5.518   4.272   2.393
 1869TIP3   OH2 5612   4.846   0.634   1.118
 1869TIP3    H1 5613   4.763   0.680   1.125
 1869TIP3    H2 5614   4.844   0.568   1.187
 1870TIP3   OH2 5615   6.183   3.468   0.493
 1870TIP3    H1 5616   6.271   3.431   0.493
 1870TIP3    H2 5617   6.128   3.401   0.533
 1871TIP3   OH2 5618   4.494   5.571   4.326
 1871TIP3    H1 5619   4.413   5.622   4.325
 1871TIP3    H2 5620   4.477   5.497   4.269
 1872TIP3   OH2 5621   1.141   2.423   3.403
 1872TIP3    H1 5622   1.057   2.390   3.436
 1872TIP3    H2 5623   1.151   2.508   3.445
 1873TIP3   OH2 5624   2.150   3.948   3.952
 1873TIP3    H1 5625   2.097   4.026   3.966
 1873TIP3    H2 5626   2.161   3.943   3.857
 1874TIP3   OH2 5627   2.283   5.338   1.364
 1874TIP3    H1 5628   2.376   5.327   1.381
 1874TIP3    H2 5629   2.251   5.390   1.438
 1875TIP3   OH2 5630   3.938   2.662   3.171
 1875TIP3    H1 5631   3.955   2.662   3.077
 1875TIP3    H2 5632   3.910   2.751   3.191
 1876TIP3   OH2 5633   2.212   1.960   1.863
 1876TIP3    H1 5634   2.173   1.888   1.814
 1876TIP3    H2 5635   2.306   1.955   1.843
 1877TIP3   OH2 5636   5.930   3.923   3.963
 1877TIP3    H1 5637   5.938   3.869   3.884
 1877TIP3    H2 5638   6.020   3.949   3.983
 1878TIP3   OH2 5639   2.035   5.576  -0.025
 1878TIP3    H1 5640   2.080   5.624   0.044
 1878TIP3    H2 5641   2.023   5.488   0.011
 1879TIP3   OH2 5642   3.375   1.294   1.243
 1879TIP3    H1 5643   3.326   1.358   1.191
 1879TIP3    H2 5644   3.464   1.299   1.208
 1880TIP3   OH2 5645   0.155   2.245   4.620
 1880TIP3    H1 5646   0.098   2.174   4.650
 1880TIP3    H2 5647   0.242   2.206   4.617
 1881TIP3   OH2 5648   4.148   1.237   1.294
 1881TIP3    H1 5649   4.138   1.307   1.228
 1881TIP3    H2 5650   4.169   1.283   1.375
 1882TIP3   OH2 5651   0.524   2.922   3.814
 1882TIP3    H1 5652   0.601   2.867   3.828
 1882TIP3    H2 5653   0.559   3.011   3.806
 1883TIP3   OH2 5654   2.941   1.206   0.186
 1883TIP3    H1 5655   3.003   1.258   0.238
 1883TIP3    H2 5656   2.973   1.214   0.096
 1884TIP3   OH2 5657   0.745   5.393   1.238
 1884TIP3    H1 5658   0.797   5.379   1.318
 1884TIP3    H2 5659   0.745   5.308   1.195
 1885TIP3   OH2 5660   5.829   0.244   3.192
 1885TIP3    H1 5661   5.742   0.282   3.209
 1885TIP3    H2 5662   5.864   0.226   3.279
 1886TIP3   OH2 5663   5.216   0.436   2.866
 1886TIP3    H1 5664   5.276   0.490   2.918
 1886TIP3    H2 5665   5.154   0.499   2.828
 1887TIP3   OH2 5666   2.625   0.089   0.725
 1887TIP3    H1 5667   2.664   0.108   0.810
 1887TIP3    H2 5668   2.686   0.028   0.684
 1888TIP3   OH2 5669   1.619   1.561   4.601
 1888TIP3    H1 5670   1.619   1.650   4.635
 1888TIP3    H2 5671   1.690   1.560   4.537
 1889TIP3   OH2 5672   3.420   5.848   1.503
 1889TIP3    H1 5673   3.364   5.798   1.563
 1889TIP3    H2 5674   3.407   5.806   1.418
 1890TIP3   OH2 5675   2.020   4.192   1.609
 1890TIP3    H1 5676   2.099   4.182   1.662
 1890TIP3    H2 5677   1.976   4.268   1.647
 1891TIP3   OH2 5678   6.231   0.210   0.160
 1891TIP3    H1 5679   6.227   0.295   0.115
 1891TIP3    H2 5680   6.294   0.159   0.109
 1892TIP3   OH2 5681   0.902   5.195   4.989
 1892TIP3    H1 5682   0.939   5.153   5.066
 1892TIP3    H2 5683   0.808   5.202   5.008
 1893TIP3   OH2 5684   2.724   1.953   0.818
 1893TIP3    H1 5685   2.634   1.971   0.791
 1893TIP3    H2 5686   2.721   1.956   0.914
 1894TIP3   OH2 5687   4.613   0.503   3.281
 1894TIP3    H1 5688   4.635   0.498   3.188
 1894TIP3    H2 5689   4.612   0.412   3.310
 1895TIP3   OH2 5690   5.692   3.370   2.274
 1895TIP3    H1 5691   5.724   3.287   2.237
 1895TIP3    H2 5692   5.602   3.352   2.300
 1896TIP3   OH2 5693   3.498   3.967   4.574
 1896TIP3    H1 5694   3.443   3.995   4.647
 1896TIP3    H2 5695   3.520   3.876   4.595
 1897TIP3   OH2 5696   0.001   1.399   2.379
 1897TIP3    H1 5697  -0.034   1.486   2.361
 1897TIP3    H2 5698   0.051   1.410   2.460
 1898TIP3   OH2 5699   2.675   5.065   2.768
 1898TIP3    H1 5700   2.678   4.980   2.724
 1898TIP3    H2 5701   2.585   5.095   2.756
 1899TIP3   OH2 5702   4.493   5.247   3.881
 1899TIP3    H1 5703   4.398   5.253   3.878
 1899TIP3    H2 5704   4.518   5.220   3.792
 1900TIP3   OH2 5705   2.878   4.285   1.812
 1900TIP3    H1 5706   2.916   4.198   1.814
 1900TIP3    H2 5707   2.947   4.342   1.779
 1901TIP3   OH2 5708   4.869   4.178   5.014
 1901TIP3    H1 5709   4.798   4.197   4.953
 1901TIP3    H2 5710   4.826   4.164   5.098
 1902TIP3   OH2 5711   1.350   0.659   1.567
 1902TIP3    H1 5712   1.333   0.626   1.479
 1902TIP3    H2 5713   1.361   0.754   1.555
 1903TIP3   OH2 5714   1.597   0.092   4.784
 1903TIP3    H1 5715   1.550   0.141   4.851
 1903TIP3    H2 5716   1.673   0.146   4.764
 1904TIP3   OH2 5717   4.809   5.947   1.088
 1904TIP3    H1 5718   4.775   5.927   1.000
 1904TIP3    H2 5719   4.765   5.885   1.145
 1905TIP3   OH2 5720   2.481   0.352   1.756
 1905TIP3    H1 5721   2.561   0.312   1.723
 1905TIP3    H2 5722   2.508   0.440   1.783
 1906TIP3   OH2 5723   3.664   4.481   0.403
 1906TIP3    H1 5724   3.573   4.494   0.376
 1906TIP3    H2 5725   3.687   4.563   0.447
 1907TIP3   OH2 5726   3.912   2.371   3.655
 1907TIP3    H1 5727   3.952   2.386   3.740
 1907TIP3    H2 5728   3.964   2.425   3.594
 1908TIP3   OH2 5729   6.332   2.238   1.078
 1908TIP3    H1 5730   6.356   2.145   1.088
 1908TIP3    H2 5731   6.325   2.270   1.168
 1909TIP3   OH2 5732   1.244   2.443   2.335
 1909TIP3    H1 5733   1.338   2.429   2.347
 1909TIP3    H2 5734   1.203   2.375   2.388
 1910TIP3   OH2 5735   3.750   4.722   4.377
 1910TIP3    H1 5736   3.752   4.706   4.471
 1910TIP3    H2 5737   3.799   4.803   4.366
 1911TIP3   OH2 5738   6.027   4.435   0.997
 1911TIP3    H1 5739   5.942   4.472   1.020
 1911TIP3    H2 5740   6.007   4.370   0.929
 1912TIP3   OH2 5741   4.476   3.676   1.705
 1912TIP3    H1 5742   4.553   3.672   1.760
 1912TIP3    H2 5743   4.442   3.586   1.704
 1913TIP3   OH2 5744   5.942   5.361   0.270
 1913TIP3    H1 5745   5.928   5.347   0.364
 1913TIP3    H2 5746   5.911   5.280   0.229
 1914TIP3   OH2 5747   5.798   1.947   0.548
 1914TIP3    H1 5748   5.751   1.973   0.627
 1914TIP3    H2 5749   5.763   1.861   0.526
 1915TIP3   OH2 5750   2.803   3.495   5.111
 1915TIP3    H1 5751   2.743   3.473   5.040
 1915TIP3    H2 5752   2.890   3.488   5.073
 1916TIP3   OH2 5753   1.483   3.267   3.855
 1916TIP3    H1 5754   1.576   3.286   3.869
 1916TIP3    H2 5755   1.457   3.328   3.786
 1917TIP3   OH2 5756   0.617   0.965   3.096
 1917TIP3    H1 5757   0.624   0.914   3.015
 1917TIP3    H2 5758   0.638   0.902   3.165
 1918TIP3   OH2 5759   4.434   5.796   1.020
 1918TIP3    H1 5760   4.348   5.778   0.980
 1918TIP3    H2 5761   4.438   5.737   1.095
 1919TIP3   OH2 5762   2.341   1.095   1.081
 1919TIP3    H1 5763   2.256   1.138   1.088
 1919TIP3    H2 5764   2.338   1.025   1.146
 1920TIP3   OH2 5765   5.540   3.239   0.311
 1920TIP3    H1 5766   5.597   3.218   0.237
 1920TIP3    H2 5767   5.532   3.334   0.310
 1921TIP3   OH2 5768   5.265   4.992   3.079
 1921TIP3    H1 5769   5.227   4.905   3.064
 1921TIP3    H2 5770   5.322   5.006   3.004
 1922TIP3   OH2 5771   0.920   2.141   2.278
 1922TIP3    H1 5772   0.858   2.196   2.230
 1922TIP3    H2 5773   0.952   2.078   2.213
 1923TIP3   OH2 5774   5.132   1.441   4.829
 1923TIP3    H1 5775   5.199   1.372   4.833
 1923TIP3    H2 5776   5.081   1.428   4.909
 1924TIP3   OH2 5777   2.630   5.844   3.397
 1924TIP3    H1 5778   2.600   5.833   3.487
 1924TIP3    H2 5779   2.626   5.938   3.381
 1925TIP3   OH2 5780   4.408   3.561   4.651
 1925TIP3    H1 5781   4.343   3.531   4.587
 1925TIP3    H2 5782   4.491   3.556   4.605
 1926TIP3   OH2 5783   2.391   4.397   0.181
 1926TIP3    H1 5784   2.442   4.393   0.262
 1926TIP3    H2 5785   2.368   4.489   0.172
 1927TIP3   OH2 5786   3.451   5.427   1.356
 1927TIP3    H1 5787   3.356   5.436   1.365
 1927TIP3    H2 5788   3.472   5.348   1.405
 1928TIP3   OH2 5789   3.268   2.388   4.889
 1928TIP3    H1 5790   3.339   2.352   4.836
 1928TIP3    H2 5791   3.305   2.467   4.928
 1929TIP3   OH2 5792   3.803   0.726   3.818
 1929TIP3    H1 5793   3.719   0.717   3.862
 1929TIP3    H2 5794   3.818   0.820   3.811
 1930TIP3   OH2 5795   5.749   5.819   1.236
 1930TIP3    H1 5796   5.721   5.807   1.145
 1930TIP3    H2 5797   5.690   5.887   1.270
 1931TIP3   OH2 5798   5.171   3.500   4.687
 1931TIP3    H1 5799   5.227   3.424   4.669
 1931TIP3    H2 5800   5.205   3.569   4.628
 1932TIP3   OH2 5801   2.896   3.507   4.298
 1932TIP3    H1 5802   2.902   3.511   4.202
 1932TIP3    H2 5803   2.942   3.426   4.321
 1933TIP3   OH2 5804   2.529   3.839   2.376
 1933TIP3    H1 5805   2.508   3.780   2.448
 1933TIP3    H2 5806   2.473   3.915   2.390
 1934TIP3   OH2 5807   5.061   2.817   3.593
 1934TIP3    H1 5808   5.110   2.742   3.627
 1934TIP3    H2 5809   5.014   2.851   3.669
 1935TIP3   OH2 5810   2.270   5.355   3.682
 1935TIP3    H1 5811   2.288   5.389   3.594
 1935TIP3    H2 5812   2.180   5.323   3.678
 1936TIP3   OH2 5813   1.344   2.136   1.954
 1936TIP3    H1 5814   1.397   2.079   2.010
 1936TIP3    H2 5815   1.316   2.207   2.011
 1937TIP3   OH2 5816   5.411   0.328   2.725
 1937TIP3    H1 5817   5.336   0.351   2.780
 1937TIP3    H2 5818   5.480   0.389   2.752
 1938TIP3   OH2 5819   0.741   4.800   0.070
 1938TIP3    H1 5820   0.687   4.770  -0.002
 1938TIP3    H2 5821   0.701   4.760   0.148
 1939TIP3   OH2 5822   1.049   3.261   1.701
 1939TIP3    H1 5823   1.116   3.293   1.761
 1939TIP3    H2 5824   1.094   3.253   1.617
 1940TIP3   OH2 5825   2.704   1.448   3.362
 1940TIP3    H1 5826   2.650   1.515   3.318
 1940TIP3    H2 5827   2.697   1.469   3.455
 1941TIP3   OH2 5828   0.090   1.360   0.076
 1941TIP3    H1 5829   0.168   1.315   0.111
 1941TIP3    H2 5830   0.070   1.314  -0.005
 1942TIP3   OH2 5831   2.228   3.459   4.782
 1942TIP3    H1 5832   2.317   3.438   4.753
 1942TIP3    H2 5833   2.238   3.540   4.831
 1943TIP3   OH2 5834   0.645   1.970   0.862
 1943TIP3    H1 5835   0.665   2.028   0.936
 1943TIP3    H2 5836   0.710   1.899   0.869
 1944TIP3   OH2 5837   4.921   0.373   4.645
 1944TIP3    H1 5838   4.904   0.416   4.729
 1944TIP3    H2 5839   4.997   0.317   4.662
 1945TIP3   OH2 5840   5.582   2.351   4.211
 1945TIP3    H1 5841   5.656   2.368   4.152
 1945TIP3    H2 5842   5.507   2.391   4.167
 1946TIP3   OH2 5843   4.802   3.427   0.411
 1946TIP3    H1 5844   4.730   3.452   0.469
 1946TIP3    H2 5845   4.761   3.414   0.326
 1947TIP3   OH2 5846   5.016   0.640   4.226
 1947TIP3    H1 5847   5.061   0.557   4.211
 1947TIP3    H2 5848   5.016   0.650   4.321
 1948TIP3   OH2 5849   1.316   3.294   2.960
 1948TIP3    H1 5850   1.385   3.359   2.977
 1948TIP3    H2 5851   1.313   3.241   3.040
 1949TIP3   OH2 5852   4.576   4.831   3.586
 1949TIP3    H1 5853   4.590   4.865   3.498
 1949TIP3    H2 5854   4.503   4.882   3.621
 1950TIP3   OH2 5855   4.347   5.938   4.733
 1950TIP3    H1 5856   4.376   5.929   4.824
 1950TIP3    H2 5857   4.412   5.891   4.682
 1951TIP3   OH2 5858   1.737   0.742   0.633
 1951TIP3    H1 5859   1.743   0.708   0.544
 1951TIP3    H2 5860   1.797   0.688   0.684
 1952TIP3   OH2 5861   3.054   0.308   1.842
 1952TIP3    H1 5862   2.971   0.325   1.797
 1952TIP3    H2 5863   3.113   0.276   1.774
 1953TIP3   OH2 5864   1.238   0.129   0.289
 1953TIP3    H1 5865   1.295   0.171   0.225
 1953TIP3    H2 5866   1.154   0.176   0.280
 1954TIP3   OH2 5867   1.141   0.607   0.278
 1954TIP3    H1 5868   1.059   0.565   0.255
 1954TIP3    H2 5869   1.115   0.692   0.314
 1955TIP3   OH2 5870   2.376   3.108   4.008
 1955TIP3    H1 5871   2.428   3.110   3.927
 1955TIP3    H2 5872   2.308   3.173   3.994
 1956TIP3   OH2 5873   2.195   1.651   3.505
 1956TIP3    H1 5874   2.103   1.640   3.482
 1956TIP3    H2 5875   2.199   1.738   3.546
 1957TIP3   OH2 5876   2.400   2.771   4.461
 1957TIP3    H1 5877   2.340   2.819   4.405
 1957TIP3    H2 5878   2.462   2.837   4.492
 1958TIP3   OH2 5879   1.018   1.698   3.453
 1958TIP3    H1 5880   0.938   1.732   3.412
 1958TIP3    H2 5881   1.006   1.603   3.452
 1959TIP3   OH2 5882   1.742   3.848   0.594
 1959TIP3    H1 5883   1.682   3.790   0.547
 1959TIP3    H2 5884   1.787   3.896   0.525
 1960TIP3   OH2 5885   1.864   1.448   2.733
 1960TIP3    H1 5886   1.891   1.522   2.679
 1960TIP3    H2 5887   1.946   1.402   2.752
 1961TIP3   OH2 5888   0.015   4.450   5.114
 1961TIP3    H1 5889   0.019   4.393   5.191
 1961TIP3    H2 5890   0.003   4.538   5.151
 1962TIP3   OH2 5891   3.591   4.914   4.634
 1962TIP3    H1 5892   3.677   4.946   4.604
 1962TIP3    H2 5893   3.611   4.856   4.707
 1963TIP3   OH2 5894   5.292   0.901   5.136
 1963TIP3    H1 5895   5.246   0.865   5.060
 1963TIP3    H2 5896   5.334   0.825   5.176
 1964TIP3   OH2 5897   1.544   0.457   3.943
 1964TIP3    H1 5898   1.567   0.457   3.850
 1964TIP3    H2 5899   1.483   0.384   3.952
 1965TIP3   OH2 5900   1.053   2.176   4.309
 1965TIP3    H1 5901   0.977   2.120   4.291
 1965TIP3    H2 5902   1.123   2.139   4.254
 1966TIP3   OH2 5903   6.054   2.836   2.949
 1966TIP3    H1 5904   5.960   2.821   2.964
 1966TIP3    H2 5905   6.072   2.793   2.866
 1967TIP3   OH2 5906   3.293   4.085   2.469
 1967TIP3    H1 5907   3.251   4.071   2.554
 1967TIP3    H2 5908   3.386   4.071   2.485
 1968TIP3   OH2 5909   2.972   3.192   3.477
 1968TIP3    H1 5910   3.019   3.274   3.488
 1968TIP3    H2 5911   2.888   3.205   3.520
 1969TIP3   OH2 5912   3.118   0.871   2.810
 1969TIP3    H1 5913   3.138   0.779   2.828
 1969TIP3    H2 5914   3.203   0.915   2.813
 1970TIP3   OH2 5915   5.225   5.044   0.379
 1970TIP3    H1 5916   5.314   5.078   0.388
 1970TIP3    H2 5917   5.182   5.070   0.460
 1971TIP3   OH2 5918   3.847   2.752   3.693
 1971TIP3    H1 5919   3.873   2.822   3.753
 1971TIP3    H2 5920   3.924   2.737   3.638
 1972TIP3   OH2 5921   1.880   2.406   0.742
 1972TIP3    H1 5922   1.831   2.442   0.816
 1972TIP3    H2 5923   1.868   2.312   0.748
 1973TIP3   OH2 5924   4.438   5.405   2.321
 1973TIP3    H1 5925   4.439   5.413   2.416
 1973TIP3    H2 5926   4.393   5.483   2.290
 1974TIP3   OH2 5927   4.303   0.605   0.992
 1974TIP3    H1 5928   4.386   0.557   0.993
 1974TIP3    H2 5929   4.307   0.663   1.068
 1975TIP3   OH2 5930   4.453   2.215   1.227
 1975TIP3    H1 5931   4.360   2.194   1.231
 1975TIP3    H2 5932   4.483   2.212   1.318
 1976TIP3   OH2 5933   6.264   5.386   0.194
 1976TIP3    H1 5934   6.195   5.358   0.133
 1976TIP3    H2 5935   6.288   5.474   0.164
 1977TIP3   OH2 5936   4.911   4.681   1.906
 1977TIP3    H1 5937   4.936   4.755   1.851
 1977TIP3    H2 5938   4.943   4.604   1.859
 1978TIP3   OH2 5939   0.566   3.057   0.667
 1978TIP3    H1 5940   0.583   3.074   0.575
 1978TIP3    H2 5941   0.486   3.005   0.669
 1979TIP3   OH2 5942   1.380   3.071   5.084
 1979TIP3    H1 5943   1.377   3.000   5.148
 1979TIP3    H2 5944   1.405   3.148   5.135
 1980TIP3   OH2 5945   3.209   5.448   0.373
 1980TIP3    H1 5946   3.122   5.478   0.400
 1980TIP3    H2 5947   3.266   5.474   0.446
 1981TIP3   OH2 5948   1.037   0.883   2.621
 1981TIP3    H1 5949   1.086   0.859   2.542
 1981TIP3    H2 5950   0.948   0.898   2.591
 1982TIP3   OH2 5951   0.878   2.165   4.672
 1982TIP3    H1 5952   0.962   2.119   4.671
 1982TIP3    H2 5953   0.902   2.257   4.660
 1983TIP3   OH2 5954   1.576   4.050   5.125
 1983TIP3    H1 5955   1.496   4.090   5.160
 1983TIP3    H2 5956   1.585   4.087   5.037
 1984TIP3   OH2 5957   1.245   0.803   1.260
 1984TIP3    H1 5958   1.317   0.740   1.263
 1984TIP3    H2 5959   1.169   0.752   1.231
 1985TIP3   OH2 5960   2.654   2.461   2.730
 1985TIP3    H1 5961   2.572   2.490   2.771
 1985TIP3    H2 5962   2.722   2.489   2.791
 1986TIP3   OH2 5963   4.702   5.700   0.108
 1986TIP3    H1 5964   4.739   5.765   0.049
 1986TIP3    H2 5965   4.616   5.680   0.071
 1987TIP3   OH2 5966   2.187   0.128   3.284
 1987TIP3    H1 5967   2.126   0.067   3.242
 1987TIP3    H2 5968   2.214   0.187   3.213
 1988TIP3   OH2 5969   0.657   3.278   0.803
 1988TIP3    H1 5970   0.610   3.227   0.737
 1988TIP3    H2 5971   0.727   3.322   0.754
 1989TIP3   OH2 5972   0.845   2.511   3.266
 1989TIP3    H1 5973   0.830   2.599   3.231
 1989TIP3    H2 5974   0.914   2.475   3.210
 1990TIP3   OH2 5975   5.140   5.752   2.165
 1990TIP3    H1 5976   5.217   5.717   2.120
 1990TIP3    H2 5977   5.086   5.675   2.184
 1991TIP3   OH2 5978   5.513   3.514   0.378
 1991TIP3    H1 5979   5.494   3.607   0.366
 1991TIP3    H2 5980   5.503   3.499   0.472
 1992TIP3   OH2 5981   3.518   4.602   4.822
 1992TIP3    H1 5982   3.529   4.560   4.907
 1992TIP3    H2 5983   3.438   4.564   4.786
 1993TIP3   OH2 5984   3.756   1.068   0.257
 1993TIP3    H1 5985   3.807   1.011   0.315
 1993TIP3    H2 5986   3.772   1.156   0.290
 1994TIP3   OH2 5987   3.778   2.679   2.792
 1994TIP3    H1 5988   3.705   2.662   2.852
 1994TIP3    H2 5989   3.851   2.702   2.849
 1995TIP3   OH2 5990   0.236   0.800   1.323
 1995TIP3    H1 5991   0.248   0.729   1.386
 1995TIP3    H2 5992   0.231   0.879   1.377
 1996TIP3   OH2 5993   4.725   0.875   0.418
 1996TIP3    H1 5994   4.758   0.906   0.334
 1996TIP3    H2 5995   4.796   0.823   0.454
 1997TIP3   OH2 5996   6.189   1.103   1.236
 1997TIP3    H1 5997   6.127   1.031   1.247
 1997TIP3    H2 5998   6.142   1.168   1.183
 1998TIP3   OH2 5999   3.679   5.789   4.808
 1998TIP3    H1 6000   3.662   5.712   4.862
 1998TIP3    H2 6001   3.616   5.783   4.736
 1999TIP3   OH2 6002   0.266   1.189   0.186
 1999TIP3    H1 6003   0.259   1.094   0.183
 1999TIP3    H2 6004   0.360   1.206   0.179
 2000TIP3   OH2 6005   3.626   2.632   3.405
 2000TIP3    H1 6006   3.563   2.655   3.472
 2000TIP3    H2 6007   3.624   2.705   3.344
 2001TIP3   OH2 6008   1.524   1.830   0.641
 2001TIP3    H1 6009   1.595   1.783   0.686
 2001TIP3    H2 6010   1.556   1.920   0.633
 2002TIP3   OH2 6011   5.697   5.202   0.508
 2002TIP3    H1 6012   5.790   5.182   0.508
 2002TIP3    H2 6013   5.691   5.289   0.547
 2003TIP3   OH2 6014   3.128   5.239   4.428
 2003TIP3    H1 6015   3.215   5.206   4.404
 2003TIP3    H2 6016   3.082   5.161   4.461
 2004TIP3   OH2 6017   3.527   1.621   1.296
 2004TIP3    H1 6018   3.464   1.595   1.229
 2004TIP3    H2 6019   3.612   1.612   1.254
 2005TIP3   OH2 6020   1.232   3.585   1.551
 2005TIP3    H1 6021   1.266   3.675   1.554
 2005TIP3    H2 6022   1.308   3.532   1.526
 2006TIP3   OH2 6023   3.693   3.956   1.986
 2006TIP3    H1 6024   3.756   3.886   1.970
 2006TIP3    H2 6025   3.608   3.914   1.981
 2007TIP3   OH2 6026   5.490   3.721   2.916
 2007TIP3    H1 6027   5.472   3.637   2.959
 2007TIP3    H2 6028   5.573   3.750   2.953
 2008TIP3   OH2 6029   2.336   2.007   3.069
 2008TIP3    H1 6030   2.270   1.942   3.045
 2008TIP3    H2 6031   2.364   2.045   2.986
 2009TIP3   OH2 6032   1.007   5.212   4.553
 2009TIP3    H1 6033   1.079   5.275   4.556
 2009TIP3    H2 6034   1.049   5.127   4.564
 2010TIP3   OH2 6035   2.449   3.433   3.701
 2010TIP3    H1 6036   2.468   3.520   3.665
 2010TIP3    H2 6037   2.514   3.375   3.663
 2011TIP3   OH2 6038   4.472   0.361   2.776
 2011TIP3    H1 6039   4.384   0.398   2.785
 2011TIP3    H2 6040   4.514   0.380   2.860
 2012TIP3   OH2 6041   2.734   4.479   3.322
 2012TIP3    H1 6042   2.816   4.528   3.313
 2012TIP3    H2 6043   2.696   4.481   3.234
 2013TIP3   OH2 6044   5.679   5.517   1.925
 2013TIP3    H1 6045   5.718   5.593   1.883
 2013TIP3    H2 6046   5.708   5.442   1.873
 2014TIP3   OH2 6047   5.633   3.994   2.461
 2014TIP3    H1 6048   5.723   3.980   2.432
 2014TIP3    H2 6049   5.641   4.038   2.545
 2015TIP3   OH2 6050   0.147   1.156   2.453
 2015TIP3    H1 6051   0.179   1.247   2.457
 2015TIP3    H2 6052   0.110   1.148   2.365
 2016TIP3   OH2 6053   3.049   1.014   2.585
 2016TIP3    H1 6054   3.108   1.081   2.618
 2016TIP3    H2 6055   3.046   0.948   2.655
 2017TIP3   OH2 6056   4.954   4.599   2.525
 2017TIP3    H1 6057   4.872   4.558   2.497
 2017TIP3    H2 6058   5.018   4.573   2.459
 2018TIP3   OH2 6059   0.956   3.346   4.797
 2018TIP3    H1 6060   0.956   3.253   4.822
 2018TIP3    H2 6061   0.864   3.372   4.799
 2019TIP3   OH2 6062   2.587   1.955   1.478
 2019TIP3    H1 6063   2.533   2.006   1.418
 2019TIP3    H2 6064   2.535   1.877   1.497
 2020TIP3   OH2 6065   4.717   2.276   2.590
 2020TIP3    H1 6066   4.697   2.215   2.661
 2020TIP3    H2 6067   4.795   2.323   2.620
 2021TIP3   OH2 6068   3.483   5.735   3.056
 2021TIP3    H1 6069   3.484   5.640   3.066
 2021TIP3    H2 6070   3.547   5.752   2.987
 2022TIP3   OH2 6071   4.767   2.113   5.194
 2022TIP3    H1 6072   4.731   2.173   5.128
 2022TIP3    H2 6073   4.844   2.158   5.228
 2023TIP3   OH2 6074   1.924   1.052   0.887
 2023TIP3    H1 6075   1.926   1.104   0.967
 2023TIP3    H2 6076   2.002   0.997   0.891
 2024TIP3   OH2 6077   2.564   3.476   0.278
 2024TIP3    H1 6078   2.616   3.515   0.350
 2024TIP3    H2 6079   2.627   3.422   0.230
 2025TIP3   OH2 6080   3.404   5.698   1.836
 2025TIP3    H1 6081   3.317   5.657   1.841
 2025TIP3    H2 6082   3.464   5.626   1.855
 2026TIP3   OH2 6083   5.340   3.373   4.402
 2026TIP3    H1 6084   5.255   3.416   4.404
 2026TIP3    H2 6085   5.374   3.384   4.490
 2027TIP3   OH2 6086   1.634   0.069   4.121
 2027TIP3    H1 6087   1.573   0.018   4.173
 2027TIP3    H2 6088   1.579   0.112   4.055
 2028TIP3   OH2 6089   0.208   3.807   1.339
 2028TIP3    H1 6090   0.273   3.840   1.402
 2028TIP3    H2 6091   0.260   3.773   1.267
 2029TIP3   OH2 6092   3.440   2.626   3.920
 2029TIP3    H1 6093   3.525   2.612   3.879
 2029TIP3    H2 6094   3.461   2.642   4.012
 2030TIP3   OH2 6095   5.339   4.825   4.475
 2030TIP3    H1 6096   5.380   4.748   4.434
 2030TIP3    H2 6097   5.297   4.790   4.554
 2031TIP3   OH2 6098   3.462   1.971   4.112
 2031TIP3    H1 6099   3.464   2.023   4.193
 2031TIP3    H2 6100   3.505   1.889   4.136
 2032TIP3   OH2 6101   3.703   4.243   3.866
 2032TIP3    H1 6102   3.703   4.234   3.962
 2032TIP3    H2 6103   3.710   4.338   3.852
 2033TIP3   OH2 6104   0.348   2.660   4.741
 2033TIP3    H1 6105   0.269   2.700   4.777
 2033TIP3    H2 6106   0.390   2.729   4.691
 2034TIP3   OH2 6107   2.916   5.097   3.882
 2034TIP3    H1 6108   2.987   5.056   3.832
 2034TIP3    H2 6109   2.946   5.094   3.973
 2035TIP3   OH2 6110   0.026   1.197   3.161
 2035TIP3    H1 6111  -0.021   1.277   3.184
 2035TIP3    H2 6112   0.111   1.228   3.131
 2036TIP3   OH2 6113   5.368   3.963   2.502
 2036TIP3    H1 6114   5.388   3.886   2.555
 2036TIP3    H2 6115   5.454   3.998   2.478
 2037TIP3   OH2 6116   4.365   3.784   1.157
 2037TIP3    H1 6117   4.274   3.799   1.179
 2037TIP3    H2 6118   4.375   3.688   1.160
 2038TIP3   OH2 6119   1.000   1.676   2.840
 2038TIP3    H1 6120   0.977   1.686   2.932
 2038TIP3    H2 6121   1.038   1.760   2.816
 2039TIP3   OH2 6122   4.313   5.343   0.247
 2039TIP3    H1 6123   4.408   5.344   0.262
 2039TIP3    H2 6124   4.284   5.260   0.286
 2040TIP3   OH2 6125   0.044   2.738   2.479
 2040TIP3    H1 6126   0.112   2.801   2.503
 2040TIP3    H2 6127   0.088   2.653   2.481
 2041TIP3   OH2 6128   1.668   3.988   4.168
 2041TIP3    H1 6129   1.705   3.980   4.256
 2041TIP3    H2 6130   1.583   4.030   4.182
 2042TIP3   OH2 6131   1.216   0.689   1.851
 2042TIP3    H1 6132   1.299   0.669   1.895
 2042TIP3    H2 6133   1.237   0.690   1.758
 2043TIP3   OH2 6134   3.573   2.645   2.971
 2043TIP3    H1 6135   3.562   2.701   3.048
 2043TIP3    H2 6136   3.583   2.557   3.007
 2044TIP3   OH2 6137   4.106   0.762   1.665
 2044TIP3    H1 6138   4.119   0.720   1.580
 2044TIP3    H2 6139   4.165   0.714   1.724
 2045TIP3   OH2 6140   2.093   4.124   0.257
 2045TIP3    H1 6141   2.030   4.192   0.233
 2045TIP3    H2 6142   2.158   4.169   0.310
 2046TIP3   OH2 6143   1.287   0.738   0.611
 2046TIP3    H1 6144   1.377   0.733   0.579
 2046TIP3    H2 6145   1.259   0.647   0.618
 2047TIP3   OH2 6146   2.047   1.067   5.021
 2047TIP3    H1 6147   2.117   1.095   5.081
 2047TIP3    H2 6148   1.999   1.001   5.071
 2048TIP3   OH2 6149   5.118   4.650   1.524
 2048TIP3    H1 6150   5.160   4.578   1.479
 2048TIP3    H2 6151   5.167   4.658   1.606
 2049TIP3   OH2 6152   6.313   4.927   4.882
 2049TIP3    H1 6153   6.364   4.995   4.926
 2049TIP3    H2 6154   6.255   4.892   4.950
 2050TIP3   OH2 6155   4.772   5.315   1.689
 2050TIP3    H1 6156   4.739   5.229   1.664
 2050TIP3    H2 6157   4.748   5.372   1.615
 2051TIP3   OH2 6158   3.503   5.188   3.137
 2051TIP3    H1 6159   3.545   5.174   3.052
 2051TIP3    H2 6160   3.412   5.162   3.123
 2052TIP3   OH2 6161   1.049   2.830   5.193
 2052TIP3    H1 6162   1.143   2.840   5.176
 2052TIP3    H2 6163   1.016   2.781   5.118
 2053TIP3   OH2 6164   0.875   1.712   3.762
 2053TIP3    H1 6165   0.795   1.744   3.805
 2053TIP3    H2 6166   0.845   1.680   3.677
 2054TIP3   OH2 6167   0.713   2.080   0.566
 2054TIP3    H1 6168   0.795   2.035   0.584
 2054TIP3    H2 6169   0.653   2.048   0.633
 2055TIP3   OH2 6170   5.119   2.243   0.466
 2055TIP3    H1 6171   5.096   2.275   0.553
 2055TIP3    H2 6172   5.196   2.294   0.441
 2056TIP3   OH2 6173   1.252   2.800   0.013
 2056TIP3    H1 6174   1.234   2.864   0.082
 2056TIP3    H2 6175   1.266   2.853  -0.065
 2057TIP3   OH2 6176   6.061   3.242   0.576
 2057TIP3    H1 6177   5.973   3.238   0.538
 2057TIP3    H2 6178   6.105   3.165   0.542
 2058TIP3   OH2 6179   5.686   4.603   2.554
 2058TIP3    H1 6180   5.688   4.688   2.598
 2058TIP3    H2 6181   5.610   4.559   2.591
 2059TIP3   OH2 6182   0.720   3.603   3.064
 2059TIP3    H1 6183   0.646   3.661   3.082
 2059TIP3    H2 6184   0.680   3.521   3.035
 2060TIP3   OH2 6185   2.896   2.580   4.053
 2060TIP3    H1 6186   2.802   2.574   4.033
 2060TIP3    H2 6187   2.937   2.511   4.001
 2061TIP3   OH2 6188   2.781   1.585   4.414
 2061TIP3    H1 6189   2.858   1.528   4.423
 2061TIP3    H2 6190   2.714   1.528   4.377
 2062TIP3   OH2 6191   4.412   4.579   4.755
 2062TIP3    H1 6192   4.324   4.598   4.785
 2062TIP3    H2 6193   4.448   4.519   4.821
 2063TIP3   OH2 6194   3.376   3.700   1.326
 2063TIP3    H1 6195   3.288   3.726   1.356
 2063TIP3    H2 6196   3.399   3.624   1.379
 2064TIP3   OH2 6197   4.323   1.238   3.603
 2064TIP3    H1 6198   4.250   1.260   3.545
 2064TIP3    H2 6199   4.396   1.222   3.544
 2065TIP3   OH2 6200   3.165   0.097   0.441
 2065TIP3    H1 6201   3.152   0.184   0.479
 2065TIP3    H2 6202   3.253   0.071   0.468
 2066TIP3   OH2 6203   3.630   1.643   0.832
 2066TIP3    H1 6204   3.579   1.689   0.899
 2066TIP3    H2 6205   3.710   1.616   0.878
 2067TIP3   OH2 6206   4.462   3.140   2.559
 2067TIP3    H1 6207   4.522   3.166   2.630
 2067TIP3    H2 6208   4.396   3.087   2.602
 2068TIP3   OH2 6209   5.028   0.949   4.920
 2068TIP3    H1 6210   4.971   0.950   4.843
 2068TIP3    H2 6211   5.037   1.041   4.945
 2069TIP3   OH2 6212   2.828   1.814   3.528
 2069TIP3    H1 6213   2.738   1.842   3.512
 2069TIP3    H2 6214   2.822   1.721   3.547
 2070TIP3   OH2 6215   2.095   1.807   0.324
 2070TIP3    H1 6216   2.125   1.755   0.398
 2070TIP3    H2 6217   2.049   1.745   0.267
 2071TIP3   OH2 6218   4.964   1.426   4.367
 2071TIP3    H1 6219   4.881   1.385   4.393
 2071TIP3    H2 6220   5.000   1.462   4.448
 2072TIP3   OH2 6221   3.325   5.475   2.717
 2072TIP3    H1 6222   3.405   5.436   2.753
 2072TIP3    H2 6223   3.265   5.478   2.792
 2073TIP3   OH2 6224   1.701   2.489   1.431
 2073TIP3    H1 6225   1.744   2.496   1.345
 2073TIP3    H2 6226   1.621   2.440   1.414
 2074TIP3   OH2 6227   4.808   5.143   0.456
 2074TIP3    H1 6228   4.809   5.108   0.545
 2074TIP3    H2 6229   4.759   5.077   0.406
 2075TIP3   OH2 6230   1.261   2.479   4.862
 2075TIP3    H1 6231   1.249   2.394   4.905
 2075TIP3    H2 6232   1.335   2.518   4.907
 2076TIP3   OH2 6233   5.540   1.369   2.321
 2076TIP3    H1 6234   5.455   1.346   2.358
 2076TIP3    H2 6235   5.603   1.327   2.379
 2077TIP3   OH2 6236   4.781   1.468   1.789
 2077TIP3    H1 6237   4.876   1.472   1.793
 2077TIP3    H2 6238   4.753   1.557   1.769
 2078TIP3   OH2 6239   5.231   3.869   3.871
 2078TIP3    H1 6240   5.271   3.931   3.810
 2078TIP3    H2 6241   5.138   3.871   3.849
 2079TIP3   OH2 6242   6.101   3.701   0.596
 2079TIP3    H1 6243   6.140   3.615   0.579
 2079TIP3    H2 6244   6.025   3.704   0.539
 2080TIP3   OH2 6245   1.206   5.149   0.646
 2080TIP3    H1 6246   1.186   5.239   0.622
 2080TIP3    H2 6247   1.167   5.096   0.576
 2081TIP3   OH2 6248   2.467   5.494   4.209
 2081TIP3    H1 6249   2.458   5.418   4.152
 2081TIP3    H2 6250   2.406   5.558   4.173
 2082TIP3   OH2 6251   3.013   3.960   1.258
 2082TIP3    H1 6252   3.100   3.991   1.231
 2082TIP3    H2 6253   2.957   4.037   1.254
 2083TIP3   OH2 6254   3.147   1.236   2.812
 2083TIP3    H1 6255   3.061   1.271   2.835
 2083TIP3    H2 6256   3.202   1.313   2.801
 2084TIP3   OH2 6257   1.544   0.567   4.899
 2084TIP3    H1 6258   1.487   0.517   4.840
 2084TIP3    H2 6259   1.563   0.647   4.850
 2085TIP3   OH2 6260   5.057   2.287   0.717
 2085TIP3    H1 6261   5.124   2.244   0.769
 2085TIP3    H2 6262   5.050   2.375   0.755
 2086TIP3   OH2 6263   2.509   2.531   0.297
 2086TIP3    H1 6264   2.467   2.510   0.381
 2086TIP3    H2 6265   2.544   2.620   0.310
 2087TIP3   OH2 6266   3.852   0.392   2.696
 2087TIP3    H1 6267   3.766   0.353   2.707
 2087TIP3    H2 6268   3.863   0.448   2.772
 2088TIP3   OH2 6269   4.673   2.024   1.184
 2088TIP3    H1 6270   4.710   1.962   1.248
 2088TIP3    H2 6271   4.581   2.032   1.208
 2089TIP3   OH2 6272   5.891   0.168   3.479
 2089TIP3    H1 6273   5.852   0.135   3.560
 2089TIP3    H2 6274   5.949   0.098   3.450
 2090TIP3   OH2 6275   0.865   3.167   2.905
 2090TIP3    H1 6276   0.946   3.217   2.891
 2090TIP3    H2 6277   0.802   3.207   2.846
 2091TIP3   OH2 6278   4.038   2.822   2.617
 2091TIP3    H1 6279   3.976   2.848   2.549
 2091TIP3    H2 6280   4.101   2.766   2.572
 2092TIP3   OH2 6281   3.992   2.397   0.492
 2092TIP3    H1 6282   4.043   2.371   0.415
 2092TIP3    H2 6283   4.047   2.372   0.566
 2093TIP3   OH2 6284   3.656   0.338   3.185
 2093TIP3    H1 6285   3.628   0.304   3.100
 2093TIP3    H2 6286   3.732   0.284   3.208
 2094TIP3   OH2 6287   0.401   0.663   0.728
 2094TIP3    H1 6288   0.414   0.719   0.804
 2094TIP3    H2 6289   0.323   0.699   0.684
 2095TIP3   OH2 6290   4.118   4.461   5.042
 2095TIP3    H1 6291   4.035   4.496   5.073
 2095TIP3    H2 6292   4.170   4.450   5.122
 2096TIP3   OH2 6293   0.722   5.700   2.293
 2096TIP3    H1 6294   0.790   5.633   2.285
 2096TIP3    H2 6295   0.739   5.759   2.219
 2097TIP3   OH2 6296   3.212   0.623   2.673
 2097TIP3    H1 6297   3.148   0.571   2.624
 2097TIP3    H2 6298   3.192   0.605   2.765
 2098TIP3   OH2 6299   5.336   5.940   2.779
 2098TIP3    H1 6300   5.301   5.852   2.763
 2098TIP3    H2 6301   5.346   5.978   2.692
 2099TIP3   OH2 6302   3.602   4.490   3.544
 2099TIP3    H1 6303   3.558   4.421   3.493
 2099TIP3    H2 6304   3.652   4.540   3.479
 2100TIP3   OH2 6305   1.359   4.201   5.194
 2100TIP3    H1 6306   1.282   4.203   5.137
 2100TIP3    H2 6307   1.378   4.294   5.211
 2101TIP3   OH2 6308   5.649   0.120   2.489
 2101TIP3    H1 6309   5.700   0.040   2.480
 2101TIP3    H2 6310   5.629   0.126   2.582
 2102TIP3   OH2 6311   0.461   5.848   0.416
 2102TIP3    H1 6312   0.432   5.938   0.399
 2102TIP3    H2 6313   0.523   5.856   0.488
 2103TIP3   OH2 6314   2.616   3.125   4.330
 2103TIP3    H1 6315   2.563   3.201   4.355
 2103TIP3    H2 6316   2.645   3.088   4.413
 2104TIP3   OH2 6317   4.851   3.496   1.415
 2104TIP3    H1 6318   4.810   3.583   1.419
 2104TIP3    H2 6319   4.905   3.492   1.494
 2105TIP3   OH2 6320   5.620   3.220   1.450
 2105TIP3    H1 6321   5.595   3.310   1.430
 2105TIP3    H2 6322   5.704   3.227   1.494
 2106TIP3   OH2 6323   3.207   4.233   2.262
 2106TIP3    H1 6324   3.120   4.272   2.272
 2106TIP3    H2 6325   3.228   4.200   2.350
 2107TIP3   OH2 6326   4.857   3.087   0.241
 2107TIP3    H1 6327   4.913   3.021   0.283
 2107TIP3    H2 6328   4.789   3.105   0.306
 2108TIP3   OH2 6329   5.145   3.054   2.446
 2108TIP3    H1 6330   5.221   3.047   2.504
 2108TIP3    H2 6331   5.112   2.964   2.438
 2109TIP3   OH2 6332   2.286   1.499   3.698
 2109TIP3    H1 6333   2.327   1.415   3.679
 2109TIP3    H2 6334   2.286   1.545   3.615
 2110TIP3   OH2 6335   2.843   5.093   0.792
 2110TIP3    H1 6336   2.776   5.161   0.788
 2110TIP3    H2 6337   2.805   5.027   0.850
 2111TIP3   OH2 6338   1.563   4.178   4.888
 2111TIP3    H1 6339   1.570   4.273   4.898
 2111TIP3    H2 6340   1.608   4.159   4.806
 2112TIP3   OH2 6341   4.202   3.905   4.707
 2112TIP3    H1 6342   4.149   3.858   4.644
 2112TIP3    H2 6343   4.146   3.977   4.736
 2113TIP3   OH2 6344   2.409   3.139   3.274
 2113TIP3    H1 6345   2.429   3.046   3.286
 2113TIP3    H2 6346   2.487   3.185   3.306
 2114TIP3   OH2 6347   5.276   3.051   1.895
 2114TIP3    H1 6348   5.195   3.012   1.930
 2114TIP3    H2 6349   5.256   3.144   1.886
 2115TIP3   OH2 6350   1.019   1.656   4.867
 2115TIP3    H1 6351   1.029   1.655   4.962
 2115TIP3    H2 6352   1.052   1.571   4.839
 2116TIP3   OH2 6353   1.703   3.951   2.428
 2116TIP3    H1 6354   1.609   3.965   2.423
 2116TIP3    H2 6355   1.722   3.954   2.522
 2117TIP3   OH2 6356   0.378   3.521   3.355
 2117TIP3    H1 6357   0.388   3.617   3.356
 2117TIP3    H2 6358   0.287   3.506   3.382
 2118TIP3   OH2 6359   1.245   3.054   4.075
 2118TIP3    H1 6360   1.199   2.975   4.102
 2118TIP3    H2 6361   1.287   3.030   3.992
 2119TIP3   OH2 6362   5.855   5.635   3.767
 2119TIP3    H1 6363   5.868   5.540   3.762
 2119TIP3    H2 6364   5.780   5.646   3.824
 2120TIP3   OH2 6365   5.114   2.736   1.499
 2120TIP3    H1 6366   5.080   2.650   1.472
 2120TIP3    H2 6367   5.036   2.792   1.502
 2121TIP3   OH2 6368   1.378   4.779   1.358
 2121TIP3    H1 6369   1.325   4.849   1.395
 2121TIP3    H2 6370   1.315   4.710   1.336
 2122TIP3   OH2 6371   1.762   2.997   3.932
 2122TIP3    H1 6372   1.687   2.944   3.959
 2122TIP3    H2 6373   1.726   3.084   3.915
 2123TIP3   OH2 6374   0.154  -0.028   3.156
 2123TIP3    H1 6375   0.102   0.045   3.121
 2123TIP3    H2 6376   0.185   0.004   3.241
 2124TIP3   OH2 6377   1.178   4.544   2.743
 2124TIP3    H1 6378   1.223   4.624   2.718
 2124TIP3    H2 6379   1.107   4.535   2.680
 2125TIP3   OH2 6380   2.015   2.696   0.418
 2125TIP3    H1 6381   2.028   2.602   0.429
 2125TIP3    H2 6382   1.983   2.725   0.504
 2126TIP3   OH2 6383   2.746   2.103   3.669
 2126TIP3    H1 6384   2.743   2.191   3.707
 2126TIP3    H2 6385   2.839   2.090   3.649
 2127TIP3   OH2 6386   3.096   1.546   1.019
 2127TIP3    H1 6387   3.076   1.576   1.107
 2127TIP3    H2 6388   3.010   1.535   0.978
 2128TIP3   OH2 6389   2.644   2.233   3.041
 2128TIP3    H1 6390   2.704   2.164   3.067
 2128TIP3    H2 6391   2.582   2.190   2.981
 2129TIP3   OH2 6392   4.134   5.284   1.890
 2129TIP3    H1 6393   4.108   5.215   1.952
 2129TIP3    H2 6394   4.200   5.242   1.834
 2130TIP3   OH2 6395   2.149   1.649   1.399
 2130TIP3    H1 6396   2.207   1.725   1.409
 2130TIP3    H2 6397   2.063   1.687   1.379
 2131TIP3   OH2 6398   6.205   1.484   5.030
 2131TIP3    H1 6399   6.141   1.520   5.090
 2131TIP3    H2 6400   6.202   1.390   5.045
 2132TIP3   OH2 6401   6.007   1.803   4.086
 2132TIP3    H1 6402   5.987   1.848   4.004
 2132TIP3    H2 6403   5.944   1.839   4.148
 2133TIP3   OH2 6404   1.781   4.576   2.140
 2133TIP3    H1 6405   1.770   4.629   2.061
 2133TIP3    H2 6406   1.703   4.596   2.193
 2134TIP3   OH2 6407   3.670   1.971   1.931
 2134TIP3    H1 6408   3.693   1.879   1.938
 2134TIP3    H2 6409   3.666   2.002   2.022
 2135TIP3   OH2 6410   1.986   5.518   3.180
 2135TIP3    H1 6411   2.013   5.444   3.235
 2135TIP3    H2 6412   1.953   5.477   3.100
 2136TIP3   OH2 6413   3.690   5.508   0.542
 2136TIP3    H1 6414   3.737   5.589   0.523
 2136TIP3    H2 6415   3.617   5.535   0.598
 2137TIP3   OH2 6416   0.442   0.620   4.154
 2137TIP3    H1 6417   0.399   0.617   4.240
 2137TIP3    H2 6418   0.520   0.567   4.164
 2138TIP3   OH2 6419   2.629   1.522   1.813
 2138TIP3    H1 6420   2.575   1.443   1.815
 2138TIP3    H2 6421   2.569   1.592   1.839
 2139TIP3   OH2 6422   1.030   4.697   3.289
 2139TIP3    H1 6423   1.099   4.671   3.350
 2139TIP3    H2 6424   1.063   4.668   3.203
 2140TIP3   OH2 6425   5.051   1.974   0.624
 2140TIP3    H1 6426   5.113   1.930   0.682
 2140TIP3    H2 6427   5.089   2.060   0.608
 2141TIP3   OH2 6428   4.925   0.365   0.248
 2141TIP3    H1 6429   5.002   0.311   0.231
 2141TIP3    H2 6430   4.870   0.313   0.306
 2142TIP3   OH2 6431   5.799   4.223   1.891
 2142TIP3    H1 6432   5.782   4.265   1.806
 2142TIP3    H2 6433   5.766   4.285   1.956
 2143TIP3   OH2 6434   0.879   1.914   1.518
 2143TIP3    H1 6435   0.897   1.964   1.598
 2143TIP3    H2 6436   0.939   1.840   1.523
 2144TIP3   OH2 6437   4.669   3.852   2.117
 2144TIP3    H1 6438   4.635   3.902   2.042
 2144TIP3    H2 6439   4.764   3.860   2.111
 2145TIP3   OH2 6440   3.802   1.302   0.434
 2145TIP3    H1 6441   3.739   1.259   0.492
 2145TIP3    H2 6442   3.786   1.396   0.447
 2146TIP3   OH2 6443   2.566   0.904   3.244
 2146TIP3    H1 6444   2.591   0.956   3.168
 2146TIP3    H2 6445   2.514   0.832   3.208
 2147TIP3   OH2 6446   2.331   3.373   0.192
 2147TIP3    H1 6447   2.332   3.399   0.100
 2147TIP3    H2 6448   2.411   3.411   0.229
 2148TIP3   OH2 6449   3.161   1.012   0.524
 2148TIP3    H1 6450   3.154   0.922   0.491
 2148TIP3    H2 6451   3.250   1.038   0.503
 2149TIP3   OH2 6452   5.629   1.521   4.467
 2149TIP3    H1 6453   5.566   1.449   4.474
 2149TIP3    H2 6454   5.615   1.573   4.547
 2150TIP3   OH2 6455   6.054   4.457   4.698
 2150TIP3    H1 6456   6.143   4.454   4.663
 2150TIP3    H2 6457   6.065   4.490   4.787
 2151TIP3   OH2 6458   4.110   3.454   2.231
 2151TIP3    H1 6459   4.078   3.474   2.143
 2151TIP3    H2 6460   4.138   3.538   2.266
 2152TIP3   OH2 6461   3.614   1.758   4.207
 2152TIP3    H1 6462   3.677   1.696   4.172
 2152TIP3    H2 6463   3.666   1.820   4.258
 2153TIP3   OH2 6464   5.434   3.040   3.729
 2153TIP3    H1 6465   5.461   3.105   3.664
 2153TIP3    H2 6466   5.500   3.047   3.798
 2154TIP3   OH2 6467   5.494   4.442   1.630
 2154TIP3    H1 6468   5.441   4.364   1.643
 2154TIP3    H2 6469   5.498   4.452   1.535
 2155TIP3   OH2 6470   6.244   3.626   0.846
 2155TIP3    H1 6471   6.215   3.535   0.841
 2155TIP3    H2 6472   6.233   3.660   0.756
 2156TIP3   OH2 6473   0.414   4.679   2.262
 2156TIP3    H1 6474   0.345   4.642   2.207
 2156TIP3    H2 6475   0.406   4.633   2.346
 2157TIP3   OH2 6476   3.857   0.155   4.349
 2157TIP3    H1 6477   3.938   0.131   4.396
 2157TIP3    H2 6478   3.846   0.086   4.284
 2158TIP3   OH2 6479   0.452   4.992   1.623
 2158TIP3    H1 6480   0.541   5.003   1.659
 2158TIP3    H2 6481   0.458   5.026   1.534
 2159TIP3   OH2 6482   0.491   0.845   0.939
 2159TIP3    H1 6483   0.505   0.785   1.012
 2159TIP3    H2 6484   0.445   0.920   0.978
 2160TIP3   OH2 6485   3.886   0.398   4.206
 2160TIP3    H1 6486   3.909   0.324   4.261
 2160TIP3    H2 6487   3.951   0.465   4.227
 2161TIP3   OH2 6488   2.401   1.239   3.663
 2161TIP3    H1 6489   2.395   1.257   3.570
 2161TIP3    H2 6490   2.396   1.143   3.669
 2162TIP3   OH2 6491   3.986   1.534   1.570
 2162TIP3    H1 6492   4.000   1.440   1.580
 2162TIP3    H2 6493   3.977   1.548   1.476
 2163TIP3   OH2 6494   1.395   1.143   0.332
 2163TIP3    H1 6495   1.348   1.179   0.257
 2163TIP3    H2 6496   1.405   1.050   0.311
 2164TIP3   OH2 6497   1.160   5.784   2.866
 2164TIP3    H1 6498   1.230   5.723   2.888
 2164TIP3    H2 6499   1.080   5.732   2.874
 2165TIP3   OH2 6500   3.158   0.728   4.037
 2165TIP3    H1 6501   3.209   0.726   3.956
 2165TIP3    H2 6502   3.136   0.821   4.049
 2166TIP3   OH2 6503   1.944   1.799   4.132
 2166TIP3    H1 6504   1.966   1.799   4.225
 2166TIP3    H2 6505   1.919   1.709   4.113
 2167TIP3   OH2 6506   1.222   1.177   0.108
 2167TIP3    H1 6507   1.143   1.230   0.118
 2167TIP3    H2 6508   1.194   1.101   0.058
 2168TIP3   OH2 6509   0.908   1.700   0.178
 2168TIP3    H1 6510   0.965   1.683   0.103
 2168TIP3    H2 6511   0.908   1.795   0.188
 2169TIP3   OH2 6512   4.336   1.086   4.143
 2169TIP3    H1 6513   4.285   1.150   4.192
 2169TIP3    H2 6514   4.358   1.129   4.061
 2170TIP3   OH2 6515   1.897   4.503   2.670
 2170TIP3    H1 6516   1.804   4.482   2.661
 2170TIP3    H2 6517   1.898   4.596   2.695
 2171TIP3   OH2 6518   1.494   5.924   5.025
 2171TIP3    H1 6519   1.420   5.938   4.965
 2171TIP3    H2 6520   1.571   5.943   4.972
 2172TIP3   OH2 6521   2.351   2.482   2.859
 2172TIP3    H1 6522   2.362   2.487   2.954
 2172TIP3    H2 6523   2.260   2.455   2.847
 2173TIP3   OH2 6524   0.060   2.244   3.176
 2173TIP3    H1 6525   0.133   2.189   3.203
 2173TIP3    H2 6526   0.047   2.222   3.084
 2174TIP3   OH2 6527   3.584   1.375   5.159
 2174TIP3    H1 6528   3.566   1.281   5.162
 2174TIP3    H2 6529   3.507   1.416   5.199
 2175TIP3   OH2 6530   4.804   2.433   5.094
 2175TIP3    H1 6531   4.858   2.368   5.049
 2175TIP3    H2 6532   4.730   2.448   5.034
 2176TIP3   OH2 6533   6.162   2.685   0.593
 2176TIP3    H1 6534   6.153   2.699   0.687
 2176TIP3    H2 6535   6.080   2.720   0.556
 2177TIP3   OH2 6536   4.103   5.921   2.586
 2177TIP3    H1 6537   4.176   5.953   2.534
 2177TIP3    H2 6538   4.109   5.970   2.668
 2178TIP3   OH2 6539   5.009   5.476   3.921
 2178TIP3    H1 6540   5.047   5.468   3.834
 2178TIP3    H2 6541   4.939   5.411   3.924
 2179TIP3   OH2 6542   4.777   5.239   2.021
 2179TIP3    H1 6543   4.843   5.246   2.091
 2179TIP3    H2 6544   4.695   5.223   2.068
 2180TIP3   OH2 6545   4.642   2.794   1.733
 2180TIP3    H1 6546   4.663   2.783   1.826
 2180TIP3    H2 6547   4.567   2.853   1.733
 2181TIP3   OH2 6548   4.792   0.093   0.442
 2181TIP3    H1 6549   4.886   0.079   0.431
 2181TIP3    H2 6550   4.752   0.034   0.378
 2182TIP3   OH2 6551   0.073   1.194   1.236
 2182TIP3    H1 6552   0.130   1.119   1.255
 2182TIP3    H2 6553  -0.014   1.155   1.225
 2183TIP3   OH2 6554   4.155   0.765   5.122
 2183TIP3    H1 6555   4.169   0.673   5.147
 2183TIP3    H2 6556   4.224   0.783   5.058
 2184TIP3   OH2 6557   5.061   3.196   1.617
 2184TIP3    H1 6558   5.086   3.230   1.531
 2184TIP3    H2 6559   5.145   3.182   1.663
 2185TIP3   OH2 6560   2.437   0.595   2.808
 2185TIP3    H1 6561   2.430   0.670   2.748
 2185TIP3    H2 6562   2.361   0.541   2.786
 2186TIP3   OH2 6563   3.968   1.461   3.601
 2186TIP3    H1 6564   3.883   1.435   3.565
 2186TIP3    H2 6565   4.029   1.452   3.528
 2187TIP3   OH2 6566   5.811   0.521   5.009
 2187TIP3    H1 6567   5.897   0.503   4.970
 2187TIP3    H2 6568   5.820   0.492   5.100
 2188TIP3   OH2 6569   2.620   4.253   1.205
 2188TIP3    H1 6570   2.640   4.325   1.146
 2188TIP3    H2 6571   2.705   4.223   1.236
 2189TIP3   OH2 6572   1.032   1.213   2.278
 2189TIP3    H1 6573   0.939   1.190   2.287
 2189TIP3    H2 6574   1.058   1.240   2.366
 2190TIP3   OH2 6575   4.216   4.702   1.536
 2190TIP3    H1 6576   4.216   4.676   1.444
 2190TIP3    H2 6577   4.308   4.712   1.558
 2191TIP3   OH2 6578   0.714   3.212   3.116
 2191TIP3    H1 6579   0.635   3.257   3.085
 2191TIP3    H2 6580   0.760   3.187   3.036
 2192TIP3   OH2 6581   2.168   2.056   1.455
 2192TIP3    H1 6582   2.238   2.068   1.391
 2192TIP3    H2 6583   2.195   2.109   1.530
 2193TIP3   OH2 6584   3.346   1.101   1.454
 2193TIP3    H1 6585   3.373   1.158   1.383
 2193TIP3    H2 6586   3.278   1.045   1.416
 2194TIP3   OH2 6587   2.788   2.240   4.184
 2194TIP3    H1 6588   2.878   2.267   4.164
 2194TIP3    H2 6589   2.783   2.149   4.156
 2195TIP3   OH2 6590   4.724   3.506   4.151
 2195TIP3    H1 6591   4.752   3.532   4.238
 2195TIP3    H2 6592   4.777   3.428   4.132
 2196TIP3   OH2 6593   0.111   3.076   2.402
 2196TIP3    H1 6594   0.098   3.076   2.497
 2196TIP3    H2 6595   0.026   3.099   2.366
 2197TIP3   OH2 6596   3.418   4.943   3.662
 2197TIP3    H1 6597   3.410   4.933   3.567
 2197TIP3    H2 6598   3.479   5.016   3.673
 2198TIP3   OH2 6599   5.436   1.730   1.407
 2198TIP3    H1 6600   5.518   1.711   1.361
 2198TIP3    H2 6601   5.409   1.816   1.374
 2199TIP3   OH2 6602   2.707   1.800   4.194
 2199TIP3    H1 6603   2.642   1.762   4.135
 2199TIP3    H2 6604   2.671   1.785   4.281
 2200TIP3   OH2 6605   0.976   0.551   4.968
 2200TIP3    H1 6606   1.042   0.497   5.013
 2200TIP3    H2 6607   0.912   0.572   5.036
 2201TIP3   OH2 6608   4.854   3.650   2.455
 2201TIP3    H1 6609   4.933   3.660   2.509
 2201TIP3    H2 6610   4.879   3.587   2.388
 2202TIP3   OH2 6611   3.237   3.656   3.478
 2202TIP3    H1 6612   3.325   3.692   3.462
 2202TIP3    H2 6613   3.179   3.732   3.474
 2203TIP3   OH2 6614   3.058   3.317   4.123
 2203TIP3    H1 6615   3.022   3.277   4.202
 2203TIP3    H2 6616   3.071   3.245   4.062
 2204TIP3   OH2 6617   6.064   2.265   3.747
 2204TIP3    H1 6618   6.022   2.199   3.692
 2204TIP3    H2 6619   6.002   2.338   3.748
 2205TIP3   OH2 6620   2.900   4.831   0.930
 2205TIP3    H1 6621   2.902   4.747   0.976
 2205TIP3    H2 6622   2.986   4.869   0.945
 2206TIP3   OH2 6623   4.414   1.960   0.094
 2206TIP3    H1 6624   4.450   1.943   0.006
 2206TIP3    H2 6625   4.490   1.956   0.151
 2207TIP3   OH2 6626   5.726   2.338   0.553
 2207TIP3    H1 6627   5.763   2.351   0.640
 2207TIP3    H2 6628   5.785   2.386   0.495
 2208TIP3   OH2 6629   3.916   5.825   3.814
 2208TIP3    H1 6630   3.981   5.756   3.798
 2208TIP3    H2 6631   3.932   5.852   3.905
 2209TIP3   OH2 6632   4.354   2.568   0.223
 2209TIP3    H1 6633   4.344   2.646   0.169
 2209TIP3    H2 6634   4.439   2.531   0.197
 2210TIP3   OH2 6635   4.258   2.119   0.237
 2210TIP3    H1 6636   4.295   2.050   0.181
 2210TIP3    H2 6637   4.283   2.093   0.326
 2211TIP3   OH2 6638   4.274   1.586   3.472
 2211TIP3    H1 6639   4.336   1.660   3.468
 2211TIP3    H2 6640   4.274   1.550   3.384
 2212TIP3   OH2 6641   0.731   0.557   3.502
 2212TIP3    H1 6642   0.814   0.511   3.486
 2212TIP3    H2 6643   0.664   0.490   3.492
 2213TIP3   OH2 6644   2.622   3.500   4.527
 2213TIP3    H1 6645   2.571   3.448   4.589
 2213TIP3    H2 6646   2.679   3.438   4.483
 2214TIP3   OH2 6647   0.358   4.858   2.927
 2214TIP3    H1 6648   0.319   4.921   2.865
 2214TIP3    H2 6649   0.392   4.788   2.871
 2215TIP3   OH2 6650   4.819   5.896   5.020
 2215TIP3    H1 6651   4.898   5.948   5.032
 2215TIP3    H2 6652   4.758   5.929   5.086
 2216TIP3   OH2 6653   1.799   3.592   1.014
 2216TIP3    H1 6654   1.779   3.507   1.055
 2216TIP3    H2 6655   1.876   3.575   0.961
 2217TIP3   OH2 6656   3.192   4.647   4.012
 2217TIP3    H1 6657   3.214   4.732   4.050
 2217TIP3    H2 6658   3.252   4.637   3.939
 2218TIP3   OH2 6659   2.672   0.484   2.092
 2218TIP3    H1 6660   2.584   0.520   2.085
 2218TIP3    H2 6661   2.662   0.403   2.142
 2219TIP3   OH2 6662   2.018   4.425   0.174
 2219TIP3    H1 6663   2.028   4.405   0.081
 2219TIP3    H2 6664   2.105   4.410   0.211
 2220TIP3   OH2 6665   4.724   1.939   4.956
 2220TIP3    H1 6666   4.655   1.964   5.018
 2220TIP3    H2 6667   4.777   1.875   5.003
 2221TIP3   OH2 6668   1.598   3.996   3.457
 2221TIP3    H1 6669   1.586   4.081   3.417
 2221TIP3    H2 6670   1.635   3.941   3.388
 2222TIP3   OH2 6671   0.711   2.666   0.136
 2222TIP3    H1 6672   0.623   2.680   0.170
 2222TIP3    H2 6673   0.748   2.754   0.127
 2223TIP3   OH2 6674   1.633   5.248   3.134
 2223TIP3    H1 6675   1.598   5.244   3.223
 2223TIP3    H2 6676   1.587   5.321   3.093
 2224TIP3   OH2 6677   4.451   3.845   3.598
 2224TIP3    H1 6678   4.471   3.905   3.669
 2224TIP3    H2 6679   4.436   3.902   3.522
 2225TIP3   OH2 6680   3.511   4.366   0.048
 2225TIP3    H1 6681   3.537   4.296  -0.011
 2225TIP3    H2 6682   3.590   4.385   0.099
 2226TIP3   OH2 6683   0.203   0.170   0.260
 2226TIP3    H1 6684   0.237   0.256   0.236
 2226TIP3    H2 6685   0.199   0.122   0.177
 2227TIP3   OH2 6686   2.394   3.889   4.046
 2227TIP3    H1 6687   2.315   3.922   4.003
 2227TIP3    H2 6688   2.360   3.838   4.120
 2228TIP3   OH2 6689   2.298   3.694   1.507
 2228TIP3    H1 6690   2.281   3.786   1.527
 2228TIP3    H2 6691   2.214   3.650   1.522
 2229TIP3   OH2 6692   3.506   3.522   0.999
 2229TIP3    H1 6693   3.536   3.568   0.920
 2229TIP3    H2 6694   3.413   3.545   1.006
 2230TIP3   OH2 6695   4.153   4.356   1.543
 2230TIP3    H1 6696   4.209   4.402   1.481
 2230TIP3    H2 6697   4.095   4.423   1.579
 2231TIP3   OH2 6698   2.054   2.717   0.908
 2231TIP3    H1 6699   2.110   2.794   0.900
 2231TIP3    H2 6700   1.976   2.749   0.953
 2232TIP3   OH2 6701   4.884   3.515   0.859
 2232TIP3    H1 6702   4.840   3.545   0.939
 2232TIP3    H2 6703   4.840   3.563   0.789
 2233TIP3   OH2 6704   2.532   4.955   4.179
 2233TIP3    H1 6705   2.561   4.992   4.096
 2233TIP3    H2 6706   2.548   4.861   4.170
 2234TIP3   OH2 6707   4.816   0.644   4.045
 2234TIP3    H1 6708   4.902   0.675   4.076
 2234TIP3    H2 6709   4.828   0.634   3.950
 2235TIP3   OH2 6710   2.151   0.886   0.919
 2235TIP3    H1 6711   2.089   0.839   0.975
 2235TIP3    H2 6712   2.226   0.905   0.977
 2236TIP3   OH2 6713   4.727   0.345   2.677
 2236TIP3    H1 6714   4.632   0.347   2.688
 2236TIP3    H2 6715   4.757   0.430   2.709
 2237TIP3   OH2 6716   2.423   5.193   2.721
 2237TIP3    H1 6717   2.393   5.188   2.630
 2237TIP3    H2 6718   2.478   5.272   2.723
 2238TIP3   OH2 6719   0.644   2.267   1.693
 2238TIP3    H1 6720   0.681   2.202   1.753
 2238TIP3    H2 6721   0.719   2.298   1.642
 2239TIP3   OH2 6722   3.587   1.387   3.357
 2239TIP3    H1 6723   3.501   1.347   3.348
 2239TIP3    H2 6724   3.583   1.436   3.439
 2240TIP3   OH2 6725   0.138   5.786   1.015
 2240TIP3    H1 6726   0.230   5.759   1.018
 2240TIP3    H2 6727   0.137   5.857   0.951
 2241TIP3   OH2 6728   4.607   0.884   1.867
 2241TIP3    H1 6729   4.634   0.819   1.802
 2241TIP3    H2 6730   4.634   0.848   1.951
 2242TIP3   OH2 6731   1.626   3.645   0.432
 2242TIP3    H1 6732   1.632   3.681   0.343
 2242TIP3    H2 6733   1.591   3.557   0.420
 2243TIP3   OH2 6734   0.094   4.711   3.512
 2243TIP3    H1 6735   0.182   4.674   3.499
 2243TIP3    H2 6736   0.111   4.794   3.556
 2244TIP3   OH2 6737   5.584   0.591   0.173
 2244TIP3    H1 6738   5.609   0.623   0.259
 2244TIP3    H2 6739   5.528   0.659   0.137
 2245TIP3   OH2 6740   4.364   3.386   0.717
 2245TIP3    H1 6741   4.307   3.411   0.789
 2245TIP3    H2 6742   4.309   3.331   0.661
 2246TIP3   OH2 6743   4.184   5.919   3.951
 2246TIP3    H1 6744   4.153   5.994   3.901
 2246TIP3    H2 6745   4.220   5.957   4.031
 2247TIP3   OH2 6746   2.177   4.237   4.969
 2247TIP3    H1 6747   2.239   4.203   4.905
 2247TIP3    H2 6748   2.163   4.164   5.029
 2248TIP3   OH2 6749   3.514   4.654   4.246
 2248TIP3    H1 6750   3.601   4.687   4.270
 2248TIP3    H2 6751   3.457   4.686   4.316
 2249TIP3   OH2 6752   0.741   2.425   4.193
 2249TIP3    H1 6753   0.720   2.465   4.277
 2249TIP3    H2 6754   0.659   2.430   4.143
 2250TIP3   OH2 6755   2.429   0.774   0.600
 2250TIP3    H1 6756   2.360   0.710   0.582
 2250TIP3    H2 6757   2.450   0.812   0.515
 2251TIP3   OH2 6758   3.127   4.661   4.678
 2251TIP3    H1 6759   3.037   4.678   4.708
 2251TIP3    H2 6760   3.141   4.568   4.696
 2252TIP3   OH2 6761   4.688   3.675   1.894
 2252TIP3    H1 6762   4.634   3.688   1.972
 2252TIP3    H2 6763   4.754   3.611   1.920
 2253TIP3   OH2 6764   3.770   3.429   3.400
 2253TIP3    H1 6765   3.767   3.482   3.320
 2253TIP3    H2 6766   3.789   3.492   3.469
 2254TIP3   OH2 6767   5.365   4.108   0.063
 2254TIP3    H1 6768   5.395   4.171   0.129
 2254TIP3    H2 6769   5.274   4.131   0.047
 2255TIP3   OH2 6770   4.158   3.672   0.123
 2255TIP3    H1 6771   4.246   3.705   0.105
 2255TIP3    H2 6772   4.114   3.745   0.167
 2256TIP3   OH2 6773   0.150   4.298   3.333
 2256TIP3    H1 6774   0.182   4.351   3.260
 2256TIP3    H2 6775   0.081   4.351   3.372
 2257TIP3   OH2 6776   2.003   0.305   2.550
 2257TIP3    H1 6777   1.958   0.365   2.492
 2257TIP3    H2 6778   2.066   0.359   2.597
 2258TIP3   OH2 6779   3.777   4.563   1.404
 2258TIP3    H1 6780   3.763   4.658   1.395
 2258TIP3    H2 6781   3.750   4.527   1.319
 2259TIP3   OH2 6782   1.550   2.042   3.832
 2259TIP3    H1 6783   1.475   2.076   3.783
 2259TIP3    H2 6784   1.622   2.101   3.809
 2260TIP3   OH2 6785   5.976   4.344   2.935
 2260TIP3    H1 6786   6.004   4.435   2.934
 2260TIP3    H2 6787   5.886   4.347   2.968
 2261TIP3   OH2 6788   4.488   1.195   3.380
 2261TIP3    H1 6789   4.464   1.199   3.287
 2261TIP3    H2 6790   4.558   1.260   3.389
 2262TIP3   OH2 6791   2.194   0.535   3.069
 2262TIP3    H1 6792   2.148   0.509   2.989
 2262TIP3    H2 6793   2.223   0.453   3.109
 2263TIP3   OH2 6794   3.791   1.802   1.616
 2263TIP3    H1 6795   3.744   1.721   1.597
 2263TIP3    H2 6796   3.843   1.782   1.694
 2264TIP3   OH2 6797   5.962   5.849   3.294
 2264TIP3    H1 6798   5.976   5.775   3.235
 2264TIP3    H2 6799   5.958   5.810   3.381
 2265TIP3   OH2 6800   1.510   1.014   0.605
 2265TIP3    H1 6801   1.461   0.999   0.686
 2265TIP3    H2 6802   1.443   1.015   0.537
 2266TIP3   OH2 6803   2.405   5.807   4.971
 2266TIP3    H1 6804   2.326   5.753   4.971
 2266TIP3    H2 6805   2.477   5.744   4.959
 2267TIP3   OH2 6806   2.968   3.937   3.741
 2267TIP3    H1 6807   3.042   3.962   3.685
 2267TIP3    H2 6808   2.987   3.979   3.825
 2268TIP3   OH2 6809   1.639   3.703   2.664
 2268TIP3    H1 6810   1.588   3.695   2.745
 2268TIP3    H2 6811   1.690   3.783   2.676
 2269TIP3   OH2 6812   5.944   2.464   1.487
 2269TIP3    H1 6813   5.864   2.416   1.507
 2269TIP3    H2 6814   6.015   2.406   1.514
 2270TIP3   OH2 6815   3.452   2.415   0.167
 2270TIP3    H1 6816   3.368   2.373   0.187
 2270TIP3    H2 6817   3.518   2.351   0.192
 2271TIP3   OH2 6818   1.238   1.856   2.064
 2271TIP3    H1 6819   1.276   1.800   1.996
 2271TIP3    H2 6820   1.237   1.800   2.142
 2272TIP3   OH2 6821   6.148   2.712   4.657
 2272TIP3    H1 6822   6.091   2.788   4.643
 2272TIP3    H2 6823   6.088   2.637   4.652
 2273TIP3   OH2 6824   1.417   2.495   0.195
 2273TIP3    H1 6825   1.397   2.504   0.102
 2273TIP3    H2 6826   1.500   2.446   0.197
 2274TIP3   OH2 6827   0.610   2.805   1.265
 2274TIP3    H1 6828   0.689   2.779   1.218
 2274TIP3    H2 6829   0.540   2.754   1.224
 2275TIP3   OH2 6830   0.968   2.807   2.098
 2275TIP3    H1 6831   0.981   2.901   2.111
 2275TIP3    H2 6832   1.041   2.766   2.145
 2276TIP3   OH2 6833   1.312   5.450   3.946
 2276TIP3    H1 6834   1.311   5.377   3.884
 2276TIP3    H2 6835   1.235   5.437   4.000
 2277TIP3   OH2 6836   1.661   5.676   0.857
 2277TIP3    H1 6837   1.723   5.669   0.784
 2277TIP3    H2 6838   1.715   5.706   0.931
 2278TIP3   OH2 6839   0.151   5.818   3.097
 2278TIP3    H1 6840   0.161   5.830   3.191
 2278TIP3    H2 6841   0.201   5.739   3.077
 2279TIP3   OH2 6842   1.000   2.312   2.885
 2279TIP3    H1 6843   1.058   2.241   2.856
 2279TIP3    H2 6844   1.056   2.366   2.941
 2280TIP3   OH2 6845   1.016   3.039   4.520
 2280TIP3    H1 6846   0.975   3.054   4.606
 2280TIP3    H2 6847   0.949   3.064   4.457
 2281TIP3   OH2 6848   0.766   3.039   4.380
 2281TIP3    H1 6849   0.771   2.960   4.434
 2281TIP3    H2 6850   0.691   3.023   4.323
 2282TIP3   OH2 6851   0.928   4.131   2.096
 2282TIP3    H1 6852   0.955   4.040   2.084
 2282TIP3    H2 6853   0.875   4.130   2.176
 2283TIP3   OH2 6854   3.029   2.997   0.139
 2283TIP3    H1 6855   3.098   3.064   0.146
 2283TIP3    H2 6856   3.073   2.915   0.160
 2284TIP3   OH2 6857   0.165   0.546   4.138
 2284TIP3    H1 6858   0.178   0.492   4.216
 2284TIP3    H2 6859   0.252   0.582   4.119
 2285TIP3   OH2 6860   1.917   5.449   1.765
 2285TIP3    H1 6861   1.897   5.525   1.710
 2285TIP3    H2 6862   1.927   5.377   1.704
 2286TIP3   OH2 6863   5.823   1.037   3.659
 2286TIP3    H1 6864   5.827   0.989   3.576
 2286TIP3    H2 6865   5.808   1.128   3.633
 2287TIP3   OH2 6866   6.072   4.042   2.478
 2287TIP3    H1 6867   6.162   4.048   2.445
 2287TIP3    H2 6868   6.064   4.116   2.538
 2288TIP3   OH2 6869   3.883   1.594   3.111
 2288TIP3    H1 6870   3.977   1.599   3.127
 2288TIP3    H2 6871   3.853   1.525   3.171
 2289TIP3   OH2 6872   4.466   4.169   2.679
 2289TIP3    H1 6873   4.495   4.197   2.592
 2289TIP3    H2 6874   4.457   4.251   2.728
 2290TIP3   OH2 6875   2.083   0.089   5.020
 2290TIP3    H1 6876   2.011   0.027   5.033
 2290TIP3    H2 6877   2.059   0.137   4.941
 2291TIP3   OH2 6878   4.543   1.011   2.461
 2291TIP3    H1 6879   4.558   1.105   2.474
 2291TIP3    H2 6880   4.453   1.005   2.431
 2292TIP3   OH2 6881   2.303   2.691   2.132
 2292TIP3    H1 6882   2.317   2.634   2.208
 2292TIP3    H2 6883   2.245   2.760   2.165
 2293TIP3   OH2 6884   2.560   5.169   3.292
 2293TIP3    H1 6885   2.481   5.187   3.242
 2293TIP3    H2 6886   2.621   5.131   3.229
 2294TIP3   OH2 6887   2.455   5.587   0.108
 2294TIP3    H1 6888   2.548   5.569   0.103
 2294TIP3    H2 6889   2.429   5.611   0.019
 2295TIP3   OH2 6890   3.734   5.870   4.485
 2295TIP3    H1 6891   3.787   5.908   4.555
 2295TIP3    H2 6892   3.682   5.801   4.528
 2296TIP3   OH2 6893   2.010   2.058   1.218
 2296TIP3    H1 6894   2.053   2.056   1.304
 2296TIP3    H2 6895   1.931   2.110   1.232
 2297TIP3   OH2 6896   3.272   3.904   4.098
 2297TIP3    H1 6897   3.183   3.890   4.132
 2297TIP3    H2 6898   3.328   3.901   4.176
 2298TIP3   OH2 6899   0.655   2.474   1.914
 2298TIP3    H1 6900   0.695   2.556   1.888
 2298TIP3    H2 6901   0.643   2.426   1.832
 2299TIP3   OH2 6902   5.527   1.035   1.409
 2299TIP3    H1 6903   5.481   1.115   1.435
 2299TIP3    H2 6904   5.464   0.965   1.422
 2300TIP3   OH2 6905   5.707   2.344   1.569
 2300TIP3    H1 6906   5.641   2.303   1.625
 2300TIP3    H2 6907   5.658   2.409   1.518
 2301TIP3   OH2 6908   1.940   2.676   3.214
 2301TIP3    H1 6909   1.996   2.609   3.253
 2301TIP3    H2 6910   1.853   2.658   3.249
 2302TIP3   OH2 6911   3.613   3.139   1.937
 2302TIP3    H1 6912   3.576   3.097   2.014
 2302TIP3    H2 6913   3.537   3.168   1.886
 2303TIP3   OH2 6914   4.555   3.816   0.953
 2303TIP3    H1 6915   4.491   3.827   1.023
 2303TIP3    H2 6916   4.595   3.903   0.943
 2304TIP3   OH2 6917   1.795   0.899   4.089
 2304TIP3    H1 6918   1.881   0.942   4.083
 2304TIP3    H2 6919   1.733   0.971   4.096
 2305TIP3   OH2 6920   6.026   5.702   3.545
 2305TIP3    H1 6921   6.061   5.616   3.567
 2305TIP3    H2 6922   5.963   5.721   3.614
 2306TIP3   OH2 6923   3.998   1.079   0.086
 2306TIP3    H1 6924   3.921   1.053   0.138
 2306TIP3    H2 6925   4.027   0.998   0.043
 2307TIP3   OH2 6926   0.588   5.416   4.825
 2307TIP3    H1 6927   0.680   5.438   4.810
 2307TIP3    H2 6928   0.568   5.452   4.912
 2308TIP3   OH2 6929   3.879  -0.007   1.254
 2308TIP3    H1 6930   3.970   0.018   1.240
 2308TIP3    H2 6931   3.833   0.075   1.271
 2309TIP3   OH2 6932   4.596   2.263   4.579
 2309TIP3    H1 6933   4.682   2.293   4.610
 2309TIP3    H2 6934   4.616   2.187   4.525
 2310TIP3   OH2 6935   4.450   0.357   4.999
 2310TIP3    H1 6936   4.397   0.281   5.021
 2310TIP3    H2 6937   4.476   0.394   5.084
 2311TIP3   OH2 6938  -0.012   2.072   1.444
 2311TIP3    H1 6939   0.023   1.997   1.397
 2311TIP3    H2 6940   0.056   2.093   1.508
 2312TIP3   OH2 6941   4.386   5.556   3.800
 2312TIP3    H1 6942   4.376   5.480   3.742
 2312TIP3    H2 6943   4.465   5.538   3.850
 2313TIP3   OH2 6944   4.578   1.926   4.592
 2313TIP3    H1 6945   4.610   1.967   4.511
 2313TIP3    H2 6946   4.503   1.979   4.617
 2314TIP3   OH2 6947   0.825   0.764   0.199
 2314TIP3    H1 6948   0.882   0.731   0.130
 2314TIP3    H2 6949   0.881   0.771   0.276
 2315TIP3   OH2 6950   2.351   4.268   2.020
 2315TIP3    H1 6951   2.445   4.274   2.008
 2315TIP3    H2 6952   2.316   4.253   1.933
 2316TIP3   OH2 6953   4.672   5.222   4.323
 2316TIP3    H1 6954   4.618   5.169   4.265
 2316TIP3    H2 6955   4.761   5.189   4.308
 2317TIP3   OH2 6956   0.568   2.360   0.030
 2317TIP3    H1 6957   0.517   2.393  -0.044
 2317TIP3    H2 6958   0.509   2.369   0.105
 2318TIP3   OH2 6959   0.973   1.519   4.378
 2318TIP3    H1 6960   0.937   1.490   4.462
 2318TIP3    H2 6961   1.067   1.520   4.391
 2319TIP3   OH2 6962   0.203   4.655   1.923
 2319TIP3    H1 6963   0.268   4.706   1.873
 2319TIP3    H2 6964   0.119   4.693   1.898
 2320TIP3   OH2 6965   5.599   5.180   4.902
 2320TIP3    H1 6966   5.575   5.270   4.920
 2320TIP3    H2 6967   5.672   5.186   4.840
 2321TIP3   OH2 6968   6.367   0.965   1.801
 2321TIP3    H1 6969   6.313   0.918   1.865
 2321TIP3    H2 6970   6.304   1.000   1.738
 2322TIP3   OH2 6971   1.228   1.402   3.684
 2322TIP3    H1 6972   1.167   1.333   3.713
 2322TIP3    H2 6973   1.195   1.481   3.726
 2323TIP3   OH2 6974   6.152   5.147   3.566
 2323TIP3    H1 6975   6.102   5.108   3.494
 2323TIP3    H2 6976   6.227   5.088   3.578
 2324TIP3   OH2 6977   0.753   1.266   1.521
 2324TIP3    H1 6978   0.748   1.229   1.433
 2324TIP3    H2 6979   0.846   1.278   1.537
 2325TIP3   OH2 6980   0.056   3.806   3.562
 2325TIP3    H1 6981   0.144   3.794   3.598
 2325TIP3    H2 6982   0.045   3.901   3.556
 2326TIP3   OH2 6983   0.784   5.019   0.333
 2326TIP3    H1 6984   0.765   4.944   0.390
 2326TIP3    H2 6985   0.822   5.084   0.391
 2327TIP3   OH2 6986   6.041   0.118   1.751
 2327TIP3    H1 6987   5.958   0.102   1.706
 2327TIP3    H2 6988   6.031   0.205   1.789
 2328TIP3   OH2 6989   5.347   5.731   3.281
 2328TIP3    H1 6990   5.408   5.796   3.246
 2328TIP3    H2 6991   5.262   5.775   3.280
 2329TIP3   OH2 6992   2.028   0.099   4.708
 2329TIP3    H1 6993   2.041   0.105   4.613
 2329TIP3    H2 6994   2.116   0.110   4.744
 2330TIP3   OH2 6995   4.715   0.811   3.273
 2330TIP3    H1 6996   4.620   0.821   3.282
 2330TIP3    H2 6997   4.750   0.897   3.297
 2331TIP3   OH2 6998   2.353   2.304   4.494
 2331TIP3    H1 6999   2.366   2.359   4.571
 2331TIP3    H2 7000   2.429   2.245   4.493
 2332TIP3   OH2 7001   0.419   1.029   4.060
 2332TIP3    H1 7002   0.421   1.079   3.979
 2332TIP3    H2 7003   0.425   0.938   4.032
 2333TIP3   OH2 7004   0.336   2.492   2.773
 2333TIP3    H1 7005   0.268   2.442   2.728
 2333TIP3    H2 7006   0.403   2.427   2.796
 2334TIP3   OH2 7007   0.019   0.694   2.163
 2334TIP3    H1 7008   0.045   0.737   2.245
 2334TIP3    H2 7009  -0.024   0.763   2.112
 2335TIP3   OH2 7010   3.818   5.203   1.418
 2335TIP3    H1 7011   3.902   5.243   1.442
 2335TIP3    H2 7012   3.834   5.161   1.334
 2336TIP3   OH2 7013   5.917   3.534   1.300
 2336TIP3    H1 7014   5.978   3.607   1.297
 2336TIP3    H2 7015   5.965   3.461   1.261
 2337TIP3   OH2 7016   2.162   0.880   4.415
 2337TIP3    H1 7017   2.169   0.910   4.505
 2337TIP3    H2 7018   2.250   0.849   4.393
 2338TIP3   OH2 7019   2.191   3.079   5.183
 2338TIP3    H1 7020   2.213   3.104   5.093
 2338TIP3    H2 7021   2.154   2.991   5.175
 2339TIP3   OH2 7022   3.969   5.050   0.921
 2339TIP3    H1 7023   4.012   4.966   0.933
 2339TIP3    H2 7024   4.016   5.091   0.848
 2340TIP3   OH2 7025   2.873   0.003   1.480
 2340TIP3    H1 7026   2.785  -0.026   1.456
 2340TIP3    H2 7027   2.870   0.099   1.471
 2341TIP3   OH2 7028   6.221   3.296   1.589
 2341TIP3    H1 7029   6.127   3.307   1.573
 2341TIP3    H2 7030   6.242   3.212   1.549
 2342TIP3   OH2 7031   0.284   3.630   2.648
 2342TIP3    H1 7032   0.373   3.646   2.616
 2342TIP3    H2 7033   0.269   3.701   2.711
 2343TIP3   OH2 7034   1.673   2.999   2.666
 2343TIP3    H1 7035   1.638   3.010   2.754
 2343TIP3    H2 7036   1.761   3.035   2.670
 2344TIP3   OH2 7037   1.359   0.346   1.618
 2344TIP3    H1 7038   1.382   0.398   1.541
 2344TIP3    H2 7039   1.313   0.269   1.583
 2345TIP3   OH2 7040   5.736   5.032   1.568
 2345TIP3    H1 7041   5.734   5.091   1.493
 2345TIP3    H2 7042   5.798   4.963   1.544
 2346TIP3   OH2 7043   5.327   2.889   1.565
 2346TIP3    H1 7044   5.345   2.932   1.482
 2346TIP3    H2 7045   5.253   2.832   1.548
 2347TIP3   OH2 7046   3.504   2.136   2.475
 2347TIP3    H1 7047   3.469   2.213   2.519
 2347TIP3    H2 7048   3.522   2.074   2.547
 2348TIP3   OH2 7049   2.697   5.559   0.813
 2348TIP3    H1 7050   2.670   5.622   0.746
 2348TIP3    H2 7051   2.793   5.556   0.806
 2349TIP3   OH2 7052   5.778   4.511   1.120
 2349TIP3    H1 7053   5.812   4.514   1.209
 2349TIP3    H2 7054   5.737   4.597   1.107
 2350TIP3   OH2 7055   0.722   1.251   0.188
 2350TIP3    H1 7056   0.702   1.286   0.275
 2350TIP3    H2 7057   0.705   1.157   0.196
 2351TIP3   OH2 7058   6.028   0.346   1.947
 2351TIP3    H1 7059   6.053   0.424   1.997
 2351TIP3    H2 7060   6.101   0.286   1.958
 2352TIP3   OH2 7061   3.396   0.489   0.190
 2352TIP3    H1 7062   3.425   0.578   0.210
 2352TIP3    H2 7063   3.402   0.483   0.094
 2353TIP3   OH2 7064   0.570   3.408   4.261
 2353TIP3    H1 7065   0.527   3.357   4.192
 2353TIP3    H2 7066   0.644   3.353   4.288
 2354TIP3   OH2 7067   1.843   5.075   1.148
 2354TIP3    H1 7068   1.902   5.137   1.191
 2354TIP3    H2 7069   1.885   4.989   1.160
 2355TIP3   OH2 7070   3.161   5.027   5.091
 2355TIP3    H1 7071   3.212   5.022   5.010
 2355TIP3    H2 7072   3.114   4.943   5.096
 2356TIP3   OH2 7073   6.152   2.067   5.095
 2356TIP3    H1 7074   6.181   2.094   5.182
 2356TIP3    H2 7075   6.174   1.974   5.090
 2357TIP3   OH2 7076   1.486   4.603   3.983
 2357TIP3    H1 7077   1.492   4.699   3.985
 2357TIP3    H2 7078   1.557   4.576   3.924
 2358TIP3   OH2 7079   4.187   4.746   4.188
 2358TIP3    H1 7080   4.244   4.727   4.114
 2358TIP3    H2 7081   4.099   4.722   4.157
 2359TIP3   OH2 7082   0.378   1.429   3.575
 2359TIP3    H1 7083   0.331   1.360   3.622
 2359TIP3    H2 7084   0.455   1.447   3.630
 2360TIP3   OH2 7085   4.878   4.522   3.284
 2360TIP3    H1 7086   4.971   4.538   3.303
 2360TIP3    H2 7087   4.876   4.502   3.190
 2361TIP3   OH2 7088   1.439   2.153   0.179
 2361TIP3    H1 7089   1.491   2.074   0.175
 2361TIP3    H2 7090   1.380   2.140   0.253
 2362TIP3   OH2 7091   1.768   2.195   1.208
 2362TIP3    H1 7092   1.738   2.279   1.173
 2362TIP3    H2 7093   1.715   2.181   1.286
 2363TIP3   OH2 7094   1.768   4.258   2.486
 2363TIP3    H1 7095   1.752   4.167   2.460
 2363TIP3    H2 7096   1.860   4.260   2.509
 2364TIP3   OH2 7097   4.448   1.991   2.178
 2364TIP3    H1 7098   4.453   1.985   2.082
 2364TIP3    H2 7099   4.429   2.083   2.196
 2365TIP3   OH2 7100   6.217   1.453   2.998
 2365TIP3    H1 7101   6.213   1.498   2.914
 2365TIP3    H2 7102   6.156   1.380   2.988
 2366TIP3   OH2 7103   0.706   2.835   2.710
 2366TIP3    H1 7104   0.689   2.745   2.736
 2366TIP3    H2 7105   0.796   2.834   2.678
 2367TIP3   OH2 7106   1.234   0.091   5.196
 2367TIP3    H1 7107   1.330   0.096   5.197
 2367TIP3    H2 7108   1.215   0.009   5.151
 2368TIP3   OH2 7109   1.503   4.984   1.135
 2368TIP3    H1 7110   1.525   5.004   1.045
 2368TIP3    H2 7111   1.471   4.894   1.133
 2369TIP3   OH2 7112   0.631   5.775   2.006
 2369TIP3    H1 7113   0.609   5.782   1.913
 2369TIP3    H2 7114   0.547   5.784   2.051
 2370TIP3   OH2 7115   2.415   3.157   2.514
 2370TIP3    H1 7116   2.395   3.174   2.606
 2370TIP3    H2 7117   2.343   3.101   2.484
 2371TIP3   OH2 7118   4.099   1.273   1.576
 2371TIP3    H1 7119   4.190   1.251   1.594
 2371TIP3    H2 7120   4.052   1.190   1.583
 2372TIP3   OH2 7121   3.806   4.713   0.482
 2372TIP3    H1 7122   3.878   4.773   0.504
 2372TIP3    H2 7123   3.727   4.761   0.506
 2373TIP3   OH2 7124   2.818   5.343   1.800
 2373TIP3    H1 7125   2.767   5.419   1.829
 2373TIP3    H2 7126   2.763   5.268   1.823
 2374TIP3   OH2 7127   0.077   5.299   1.901
 2374TIP3    H1 7128   0.165   5.262   1.912
 2374TIP3    H2 7129   0.089   5.393   1.915
 2375TIP3   OH2 7130   4.236   1.900   3.773
 2375TIP3    H1 7131   4.214   1.865   3.687
 2375TIP3    H2 7132   4.196   1.987   3.775
 2376TIP3   OH2 7133   0.925   4.106   4.990
 2376TIP3    H1 7134   0.891   4.058   4.915
 2376TIP3    H2 7135   1.004   4.149   4.957
 2377TIP3   OH2 7136   6.251   4.970   3.065
 2377TIP3    H1 7137   6.308   5.046   3.054
 2377TIP3    H2 7138   6.232   4.968   3.159
 2378TIP3   OH2 7139   3.667   5.831   2.844
 2378TIP3    H1 7140   3.744   5.873   2.805
 2378TIP3    H2 7141   3.645   5.886   2.919
 2379TIP3   OH2 7142   4.506   5.714   4.967
 2379TIP3    H1 7143   4.518   5.807   4.947
 2379TIP3    H2 7144   4.439   5.712   5.035
 2380TIP3   OH2 7145   5.001   5.241   2.184
 2380TIP3    H1 7146   5.094   5.243   2.164
 2380TIP3    H2 7147   4.995   5.191   2.265
 2381TIP3   OH2 7148   3.352   5.143   2.442
 2381TIP3    H1 7149   3.342   5.168   2.350
 2381TIP3    H2 7150   3.322   5.220   2.491
 2382TIP3   OH2 7151   0.941   2.927   3.449
 2382TIP3    H1 7152   0.855   2.940   3.489
 2382TIP3    H2 7153   1.000   2.982   3.500
 2383TIP3   OH2 7154   1.082   4.488   2.493
 2383TIP3    H1 7155   1.025   4.466   2.419
 2383TIP3    H2 7156   1.156   4.429   2.485
 2384TIP3   OH2 7157   0.811   1.899   4.968
 2384TIP3    H1 7158   0.762   1.861   4.895
 2384TIP3    H2 7159   0.744   1.936   5.026
 2385TIP3   OH2 7160   0.997   4.321   4.712
 2385TIP3    H1 7161   0.962   4.253   4.654
 2385TIP3    H2 7162   1.090   4.325   4.691
 2386TIP3   OH2 7163   4.086   4.373   0.103
 2386TIP3    H1 7164   4.047   4.380   0.015
 2386TIP3    H2 7165   4.124   4.459   0.119
 2387TIP3   OH2 7166   2.832   1.448   2.011
 2387TIP3    H1 7167   2.797   1.361   2.033
 2387TIP3    H2 7168   2.789   1.472   1.929
 2388TIP3   OH2 7169   6.126   4.255   4.488
 2388TIP3    H1 7170   6.180   4.318   4.535
 2388TIP3    H2 7171   6.147   4.171   4.529
 2389TIP3   OH2 7172   6.286   0.995   3.590
 2389TIP3    H1 7173   6.278   0.968   3.498
 2389TIP3    H2 7174   6.219   0.944   3.636
 2390TIP3   OH2 7175   4.402   5.424   3.227
 2390TIP3    H1 7176   4.370   5.510   3.254
 2390TIP3    H2 7177   4.443   5.439   3.142
 2391TIP3   OH2 7178   1.794   2.051   2.692
 2391TIP3    H1 7179   1.824   2.068   2.782
 2391TIP3    H2 7180   1.787   2.138   2.653
 2392TIP3   OH2 7181   5.422   0.876   4.072
 2392TIP3    H1 7182   5.359   0.832   4.014
 2392TIP3    H2 7183   5.501   0.822   4.066
 2393TIP3   OH2 7184   1.585   4.286   4.076
 2393TIP3    H1 7185   1.519   4.342   4.036
 2393TIP3    H2 7186   1.536   4.232   4.139
 2394TIP3   OH2 7187   2.944   4.029   1.824
 2394TIP3    H1 7188   2.863   3.983   1.804
 2394TIP3    H2 7189   3.000   3.962   1.864
 2395TIP3   OH2 7190   5.736   3.377   3.458
 2395TIP3    H1 7191   5.814   3.417   3.496
 2395TIP3    H2 7192   5.715   3.305   3.516
 2396TIP3   OH2 7193   0.928   2.911   2.997
 2396TIP3    H1 7194   0.891   2.997   2.979
 2396TIP3    H2 7195   0.938   2.871   2.910
 2397TIP3   OH2 7196   3.819   3.977   4.501
 2397TIP3    H1 7197   3.865   4.058   4.523
 2397TIP3    H2 7198   3.738   3.981   4.551
 2398TIP3   OH2 7199   1.387   4.140   0.846
 2398TIP3    H1 7200   1.344   4.056   0.829
 2398TIP3    H2 7201   1.318   4.206   0.831
 2399TIP3   OH2 7202   1.700   3.415   2.255
 2399TIP3    H1 7203   1.710   3.374   2.341
 2399TIP3    H2 7204   1.687   3.508   2.274
 2400TIP3   OH2 7205   3.313   2.226   0.464
 2400TIP3    H1 7206   3.394   2.192   0.427
 2400TIP3    H2 7207   3.287   2.161   0.528
 2401TIP3   OH2 7208   4.414   4.115   1.669
 2401TIP3    H1 7209   4.399   4.109   1.574
 2401TIP3    H2 7210   4.430   4.207   1.685
 2402TIP3   OH2 7211   5.874   1.439   0.078
 2402TIP3    H1 7212   5.871   1.343   0.086
 2402TIP3    H2 7213   5.957   1.456   0.034
 2403TIP3   OH2 7214   2.357   1.467   0.332
 2403TIP3    H1 7215   2.278   1.477   0.385
 2403TIP3    H2 7216   2.383   1.376   0.343
 2404TIP3   OH2 7217   1.255   0.956   3.703
 2404TIP3    H1 7218   1.256   0.899   3.626
 2404TIP3    H2 7219   1.305   0.908   3.769
 2405TIP3   OH2 7220   1.073   2.497   3.124
 2405TIP3    H1 7221   1.135   2.472   3.193
 2405TIP3    H2 7222   1.116   2.569   3.078
 2406TIP3   OH2 7223   2.902   2.022   2.719
 2406TIP3    H1 7224   2.827   2.082   2.730
 2406TIP3    H2 7225   2.915   2.019   2.624
 2407TIP3   OH2 7226   5.369   0.676   4.777
 2407TIP3    H1 7227   5.341   0.622   4.703
 2407TIP3    H2 7228   5.432   0.621   4.824
 2408TIP3   OH2 7229   5.197   1.575   1.401
 2408TIP3    H1 7230   5.234   1.548   1.485
 2408TIP3    H2 7231   5.263   1.634   1.364
 2409TIP3   OH2 7232   2.655   1.673   2.474
 2409TIP3    H1 7233   2.714   1.634   2.538
 2409TIP3    H2 7234   2.682   1.636   2.390
 2410TIP3   OH2 7235   4.417   1.285   2.461
 2410TIP3    H1 7236   4.401   1.358   2.521
 2410TIP3    H2 7237   4.341   1.284   2.404
 2411TIP3   OH2 7238   0.530   1.414   1.537
 2411TIP3    H1 7239   0.625   1.421   1.528
 2411TIP3    H2 7240   0.515   1.323   1.560
 2412TIP3   OH2 7241   0.585   4.053   1.240
 2412TIP3    H1 7242   0.643   4.042   1.315
 2412TIP3    H2 7243   0.620   3.995   1.173
 2413TIP3   OH2 7244   4.159   2.351   1.067
 2413TIP3    H1 7245   4.189   2.377   1.155
 2413TIP3    H2 7246   4.236   2.358   1.012
 2414TIP3   OH2 7247   4.330   1.352   0.352
 2414TIP3    H1 7248   4.303   1.261   0.343
 2414TIP3    H2 7249   4.358   1.378   0.264
 2415TIP3   OH2 7250   5.834   5.730   2.322
 2415TIP3    H1 7251   5.904   5.670   2.296
 2415TIP3    H2 7252   5.827   5.718   2.417
 2416TIP3   OH2 7253   5.934   4.140   2.172
 2416TIP3    H1 7254   5.907   4.139   2.080
 2416TIP3    H2 7255   5.904   4.224   2.206
 2417TIP3   OH2 7256   1.366   0.545   0.141
 2417TIP3    H1 7257   1.415   0.553   0.223
 2417TIP3    H2 7258   1.274   0.556   0.166
 2418TIP3   OH2 7259   4.859   3.807   0.464
 2418TIP3    H1 7260   4.854   3.816   0.369
 2418TIP3    H2 7261   4.928   3.867   0.490
 2419TIP3   OH2 7262   5.620   2.195   0.048
 2419TIP3    H1 7263   5.592   2.281   0.017
 2419TIP3    H2 7264   5.640   2.207   0.141
 2420TIP3   OH2 7265   6.354   4.206   0.258
 2420TIP3    H1 7266   6.272   4.239   0.222
 2420TIP3    H2 7267   6.412   4.283   0.260
 2421TIP3   OH2 7268   0.352   3.426   1.542
 2421TIP3    H1 7269   0.335   3.446   1.450
 2421TIP3    H2 7270   0.311   3.498   1.590
 2422TIP3   OH2 7271   0.379   5.620   2.807
 2422TIP3    H1 7272   0.463   5.607   2.762
 2422TIP3    H2 7273   0.402   5.669   2.886
 2423TIP3   OH2 7274   1.928   5.212   3.086
 2423TIP3    H1 7275   1.948   5.170   3.169
 2423TIP3    H2 7276   1.839   5.245   3.097
 2424TIP3   OH2 7277   0.779   4.815   2.741
 2424TIP3    H1 7278   0.806   4.731   2.704
 2424TIP3    H2 7279   0.718   4.791   2.811
 2425TIP3   OH2 7280   1.340   1.110   4.179
 2425TIP3    H1 7281   1.334   1.025   4.223
 2425TIP3    H2 7282   1.320   1.174   4.248
 2426TIP3   OH2 7283   0.744   2.255   2.110
 2426TIP3    H1 7284   0.662   2.284   2.152
 2426TIP3    H2 7285   0.765   2.325   2.048
 2427TIP3   OH2 7286   2.586   3.950   4.392
 2427TIP3    H1 7287   2.525   3.878   4.373
 2427TIP3    H2 7288   2.673   3.910   4.385
 2428TIP3   OH2 7289   0.805   3.489   2.364
 2428TIP3    H1 7290   0.896   3.487   2.391
 2428TIP3    H2 7291   0.796   3.416   2.303
 2429TIP3   OH2 7292   4.756   1.130   0.737
 2429TIP3    H1 7293   4.840   1.114   0.695
 2429TIP3    H2 7294   4.773   1.198   0.802
 2430TIP3   OH2 7295   3.057   3.799   2.736
 2430TIP3    H1 7296   3.057   3.850   2.654
 2430TIP3    H2 7297   3.073   3.865   2.804
 2431TIP3   OH2 7298   5.842   4.038   0.706
 2431TIP3    H1 7299   5.829   4.034   0.611
 2431TIP3    H2 7300   5.839   3.946   0.734
 2432TIP3   OH2 7301   4.668   2.779   2.422
 2432TIP3    H1 7302   4.675   2.745   2.511
 2432TIP3    H2 7303   4.689   2.872   2.430
 2433TIP3   OH2 7304   1.068   0.301   3.631
 2433TIP3    H1 7305   1.160   0.279   3.619
 2433TIP3    H2 7306   1.036   0.319   3.543
 2434TIP3   OH2 7307   2.465   3.046   3.722
 2434TIP3    H1 7308   2.388   3.044   3.665
 2434TIP3    H2 7309   2.473   2.956   3.755
 2435TIP3   OH2 7310   5.258   1.875   3.517
 2435TIP3    H1 7311   5.195   1.820   3.471
 2435TIP3    H2 7312   5.305   1.921   3.447
 2436TIP3   OH2 7313   2.949   5.037   3.292
 2436TIP3    H1 7314   2.893   5.010   3.364
 2436TIP3    H2 7315   2.936   4.970   3.225
 2437TIP3   OH2 7316   0.952   5.091   4.261
 2437TIP3    H1 7317   1.040   5.126   4.253
 2437TIP3    H2 7318   0.921   5.122   4.346
 2438TIP3   OH2 7319   2.474   1.092   3.399
 2438TIP3    H1 7320   2.495   1.046   3.317
 2438TIP3    H2 7321   2.509   1.180   3.386
 2439TIP3   OH2 7322   2.656   2.839   2.817
 2439TIP3    H1 7323   2.594   2.866   2.750
 2439TIP3    H2 7324   2.740   2.833   2.771
 2440TIP3   OH2 7325   2.416   4.302   0.968
 2440TIP3    H1 7326   2.400   4.230   0.906
 2440TIP3    H2 7327   2.405   4.263   1.054
 2441TIP3   OH2 7328   0.252   3.197   1.691
 2441TIP3    H1 7329   0.287   3.253   1.622
 2441TIP3    H2 7330   0.322   3.134   1.709
 2442TIP3   OH2 7331   4.723   2.991   3.087
 2442TIP3    H1 7332   4.668   3.069   3.089
 2442TIP3    H2 7333   4.729   2.968   2.994
 2443TIP3   OH2 7334   5.369   3.306   4.683
 2443TIP3    H1 7335   5.365   3.214   4.707
 2443TIP3    H2 7336   5.458   3.318   4.650
 2444TIP3   OH2 7337   2.565   2.627   3.425
 2444TIP3    H1 7338   2.618   2.604   3.501
 2444TIP3    H2 7339   2.613   2.590   3.351
 2445TIP3   OH2 7340   5.201   3.108   3.862
 2445TIP3    H1 7341   5.276   3.085   3.806
 2445TIP3    H2 7342   5.225   3.076   3.949
 2446TIP3   OH2 7343   1.707   1.341   3.382
 2446TIP3    H1 7344   1.681   1.255   3.347
 2446TIP3    H2 7345   1.736   1.322   3.471
 2447TIP3   OH2 7346   3.013   5.349   3.271
 2447TIP3    H1 7347   2.965   5.428   3.294
 2447TIP3    H2 7348   2.945   5.286   3.248
 2448TIP3   OH2 7349   1.112   5.621   4.433
 2448TIP3    H1 7350   1.019   5.605   4.444
 2448TIP3    H2 7351   1.118   5.697   4.376
 2449TIP3   OH2 7352   0.156   3.040   3.605
 2449TIP3    H1 7353   0.248   3.046   3.579
 2449TIP3    H2 7354   0.135   2.946   3.600
 2450TIP3   OH2 7355   3.574   0.482   1.125
 2450TIP3    H1 7356   3.601   0.509   1.037
 2450TIP3    H2 7357   3.653   0.486   1.178
 2451TIP3   OH2 7358   2.849   5.872   2.794
 2451TIP3    H1 7359   2.775   5.902   2.846
 2451TIP3    H2 7360   2.895   5.953   2.769
 2452TIP3   OH2 7361   3.282   1.908   1.209
 2452TIP3    H1 7362   3.274   1.896   1.303
 2452TIP3    H2 7363   3.194   1.887   1.175
 2453TIP3   OH2 7364   0.947   2.017   1.771
 2453TIP3    H1 7365   0.858   2.028   1.804
 2453TIP3    H2 7366   0.998   2.084   1.816
 2454TIP3   OH2 7367   5.639   1.138   2.138
 2454TIP3    H1 7368   5.586   1.215   2.160
 2454TIP3    H2 7369   5.720   1.174   2.104
 2455TIP3   OH2 7370   0.578   1.884   0.286
 2455TIP3    H1 7371   0.627   1.825   0.344
 2455TIP3    H2 7372   0.620   1.969   0.297
 2456TIP3   OH2 7373   3.011   4.691   2.334
 2456TIP3    H1 7374   2.953   4.746   2.282
 2456TIP3    H2 7375   2.970   4.605   2.333
 2457TIP3   OH2 7376   5.095   3.172   0.630
 2457TIP3    H1 7377   5.040   3.109   0.583
 2457TIP3    H2 7378   5.175   3.125   0.651
 2458TIP3   OH2 7379   3.812   0.857   4.445
 2458TIP3    H1 7380   3.784   0.811   4.524
 2458TIP3    H2 7381   3.733   0.863   4.391
 2459TIP3   OH2 7382   1.981   4.580   4.918
 2459TIP3    H1 7383   2.063   4.542   4.948
 2459TIP3    H2 7384   2.007   4.658   4.870
 2460TIP3   OH2 7385   4.444   1.812   3.491
 2460TIP3    H1 7386   4.526   1.861   3.484
 2460TIP3    H2 7387   4.376   1.877   3.472
 2461TIP3   OH2 7388   0.325   3.224   0.594
 2461TIP3    H1 7389   0.416   3.252   0.596
 2461TIP3    H2 7390   0.310   3.184   0.680
 2462TIP3   OH2 7391   5.436   5.065   4.624
 2462TIP3    H1 7392   5.448   5.134   4.559
 2462TIP3    H2 7393   5.394   4.994   4.577
 2463TIP3   OH2 7394   5.189   1.829   3.012
 2463TIP3    H1 7395   5.120   1.893   2.996
 2463TIP3    H2 7396   5.143   1.753   3.049
 2464TIP3   OH2 7397   2.611   1.148   1.226
 2464TIP3    H1 7398   2.549   1.160   1.298
 2464TIP3    H2 7399   2.585   1.213   1.161
 2465TIP3   OH2 7400   5.756   0.131   1.700
 2465TIP3    H1 7401   5.688   0.078   1.742
 2465TIP3    H2 7402   5.751   0.216   1.744
 2466TIP3   OH2 7403   2.259   2.779   2.779
 2466TIP3    H1 7404   2.220   2.833   2.848
 2466TIP3    H2 7405   2.293   2.702   2.825
 2467TIP3   OH2 7406   1.933   1.567   3.631
 2467TIP3    H1 7407   1.989   1.578   3.707
 2467TIP3    H2 7408   1.846   1.590   3.662
 2468TIP3   OH2 7409   1.635   0.522   2.765
 2468TIP3    H1 7410   1.550   0.532   2.806
 2468TIP3    H2 7411   1.629   0.440   2.716
 2469TIP3   OH2 7412   2.550   5.169   1.235
 2469TIP3    H1 7413   2.629   5.123   1.262
 2469TIP3    H2 7414   2.479   5.107   1.252
 2470TIP3   OH2 7415   0.054   0.309   3.798
 2470TIP3    H1 7416   0.024   0.230   3.753
 2470TIP3    H2 7417   0.029   0.296   3.889
 2471TIP3   OH2 7418   5.687   2.214   2.298
 2471TIP3    H1 7419   5.733   2.267   2.232
 2471TIP3    H2 7420   5.595   2.220   2.273
 2472TIP3   OH2 7421   6.047   2.844   0.183
 2472TIP3    H1 7422   5.972   2.867   0.237
 2472TIP3    H2 7423   6.038   2.899   0.105
 2473TIP3   OH2 7424   2.192   2.825   3.524
 2473TIP3    H1 7425   2.199   2.730   3.511
 2473TIP3    H2 7426   2.246   2.863   3.455
 2474TIP3   OH2 7427   2.576   2.606   4.967
 2474TIP3    H1 7428   2.587   2.579   4.876
 2474TIP3    H2 7429   2.556   2.699   4.962
 2475TIP3   OH2 7430   6.212   2.730   4.034
 2475TIP3    H1 7431   6.274   2.673   4.080
 2475TIP3    H2 7432   6.233   2.718   3.942
 2476TIP3   OH2 7433   4.518   2.319   0.124
 2476TIP3    H1 7434   4.440   2.263   0.126
 2476TIP3    H2 7435   4.542   2.324   0.031
 2477TIP3   OH2 7436   0.453   5.394   4.282
 2477TIP3    H1 7437   0.389   5.325   4.265
 2477TIP3    H2 7438   0.531   5.368   4.234
 2478TIP3   OH2 7439   5.640   0.759   3.938
 2478TIP3    H1 7440   5.695   0.712   3.876
 2478TIP3    H2 7441   5.643   0.850   3.908
 2479TIP3   OH2 7442   0.604   0.280   3.404
 2479TIP3    H1 7443   0.617   0.238   3.489
 2479TIP3    H2 7444   0.602   0.208   3.341
 2480TIP3   OH2 7445   3.082   5.848   0.257
 2480TIP3    H1 7446   3.150   5.889   0.310
 2480TIP3    H2 7447   3.121   5.842   0.169
 2481TIP3   OH2 7448   5.852   0.855   3.389
 2481TIP3    H1 7449   5.902   0.783   3.426
 2481TIP3    H2 7450   5.907   0.888   3.317
 2482TIP3   OH2 7451   1.967   4.603   0.591
 2482TIP3    H1 7452   1.935   4.572   0.507
 2482TIP3    H2 7453   1.909   4.676   0.613
 2483TIP3   OH2 7454   1.257   0.118   0.604
 2483TIP3    H1 7455   1.282   0.150   0.517
 2483TIP3    H2 7456   1.224   0.030   0.588
 2484TIP3   OH2 7457   4.634   2.430   3.522
 2484TIP3    H1 7458   4.664   2.503   3.576
 2484TIP3    H2 7459   4.584   2.471   3.451
 2485TIP3   OH2 7460   0.955   2.528   1.102
 2485TIP3    H1 7461   1.027   2.570   1.148
 2485TIP3    H2 7462   0.883   2.591   1.107
 2486TIP3   OH2 7463   5.461   2.803   0.391
 2486TIP3    H1 7464   5.463   2.829   0.299
 2486TIP3    H2 7465   5.542   2.753   0.403
 2487TIP3   OH2 7466   6.302   2.240   3.463
 2487TIP3    H1 7467   6.350   2.262   3.383
 2487TIP3    H2 7468   6.364   2.257   3.534
 2488TIP3   OH2 7469   0.101   4.811   2.979
 2488TIP3    H1 7470   0.046   4.881   3.015
 2488TIP3    H2 7471   0.191   4.838   2.998
 2489TIP3   OH2 7472   0.420   5.124   5.012
 2489TIP3    H1 7473   0.358   5.088   4.949
 2489TIP3    H2 7474   0.399   5.217   5.016
 2490TIP3   OH2 7475   0.857   4.114   3.890
 2490TIP3    H1 7476   0.847   4.080   3.801
 2490TIP3    H2 7477   0.774   4.094   3.933
 2491TIP3   OH2 7478   4.870   1.185   3.454
 2491TIP3    H1 7479   4.828   1.256   3.504
 2491TIP3    H2 7480   4.927   1.142   3.516
 2492TIP3   OH2 7481   1.584   3.854   3.718
 2492TIP3    H1 7482   1.557   3.940   3.750
 2492TIP3    H2 7483   1.597   3.866   3.624
 2493TIP3   OH2 7484   1.891   2.154   0.031
 2493TIP3    H1 7485   1.902   2.232   0.086
 2493TIP3    H2 7486   1.965   2.156  -0.029
 2494TIP3   OH2 7487   2.378   4.508   2.574
 2494TIP3    H1 7488   2.304   4.475   2.625
 2494TIP3    H2 7489   2.339   4.540   2.493
 2495TIP3   OH2 7490   2.216   5.007   4.660
 2495TIP3    H1 7491   2.219   5.085   4.716
 2495TIP3    H2 7492   2.289   4.953   4.691
 2496TIP3   OH2 7493   4.556   5.189   2.159
 2496TIP3    H1 7494   4.512   5.259   2.208
 2496TIP3    H2 7495   4.492   5.118   2.157
 2497TIP3   OH2 7496   4.781   1.834   1.336
 2497TIP3    H1 7497   4.830   1.793   1.407
 2497TIP3    H2 7498   4.700   1.783   1.331
 2498TIP3   OH2 7499   0.681   2.729   1.531
 2498TIP3    H1 7500   0.666   2.823   1.544
 2498TIP3    H2 7501   0.689   2.719   1.436
 2499TIP3   OH2 7502   5.046   0.110   0.307
 2499TIP3    H1 7503   5.066   0.017   0.299
 2499TIP3    H2 7504   5.114   0.153   0.256
 2500TIP3   OH2 7505   5.855   2.646   4.980
 2500TIP3    H1 7506   5.871   2.559   4.942
 2500TIP3    H2 7507   5.943   2.683   4.991
 2501TIP3   OH2 7508   2.619   3.955   1.737
 2501TIP3    H1 7509   2.626   4.010   1.659
 2501TIP3    H2 7510   2.684   3.886   1.724
 2502TIP3   OH2 7511   0.324   1.881   1.598
 2502TIP3    H1 7512   0.302   1.836   1.517
 2502TIP3    H2 7513   0.418   1.899   1.590
 2503TIP3   OH2 7514   2.408   0.037   1.183
 2503TIP3    H1 7515   2.337   0.051   1.120
 2503TIP3    H2 7516   2.466   0.113   1.171
 2504TIP3   OH2 7517   0.218   3.378   4.026
 2504TIP3    H1 7518   0.204   3.419   4.112
 2504TIP3    H2 7519   0.159   3.303   4.026
 2505TIP3   OH2 7520   0.581   3.078   0.403
 2505TIP3    H1 7521   0.496   3.117   0.381
 2505TIP3    H2 7522   0.646   3.139   0.368
 2506TIP3   OH2 7523   3.190   2.531   4.185
 2506TIP3    H1 7524   3.161   2.442   4.206
 2506TIP3    H2 7525   3.134   2.558   4.112
 2507TIP3   OH2 7526   0.458   1.130   3.288
 2507TIP3    H1 7527   0.516   1.092   3.223
 2507TIP3    H2 7528   0.506   1.122   3.371
 2508TIP3   OH2 7529   2.206   0.097   4.187
 2508TIP3    H1 7530   2.215   0.156   4.112
 2508TIP3    H2 7531   2.229   0.011   4.153
 2509TIP3   OH2 7532   0.906   1.338   4.904
 2509TIP3    H1 7533   1.000   1.336   4.920
 2509TIP3    H2 7534   0.871   1.266   4.957
 2510TIP3   OH2 7535   4.378   3.624   3.881
 2510TIP3    H1 7536   4.382   3.703   3.934
 2510TIP3    H2 7537   4.299   3.635   3.828
 2511TIP3   OH2 7538   4.354   1.253   4.377
 2511TIP3    H1 7539   4.428   1.208   4.335
 2511TIP3    H2 7540   4.393   1.330   4.417
 2512TIP3   OH2 7541   1.176   4.494   0.972
 2512TIP3    H1 7542   1.236   4.525   0.905
 2512TIP3    H2 7543   1.104   4.453   0.923
 2513TIP3   OH2 7544   3.152   2.616   2.289
 2513TIP3    H1 7545   3.070   2.594   2.246
 2513TIP3    H2 7546   3.144   2.710   2.309
 2514TIP3   OH2 7547   3.793   1.397   0.030
 2514TIP3    H1 7548   3.876   1.369   0.068
 2514TIP3    H2 7549   3.801   1.492   0.021
 2515TIP3   OH2 7550   3.343   5.226   3.959
 2515TIP3    H1 7551   3.328   5.157   3.894
 2515TIP3    H2 7552   3.256   5.263   3.974
 2516TIP3   OH2 7553   0.684   3.298   1.330
 2516TIP3    H1 7554   0.680   3.204   1.344
 2516TIP3    H2 7555   0.644   3.312   1.244
 2517TIP3   OH2 7556   6.013   3.090   0.939
 2517TIP3    H1 7557   6.022   3.098   1.034
 2517TIP3    H2 7558   5.939   3.147   0.917
 2518TIP3   OH2 7559   3.849   5.724   0.906
 2518TIP3    H1 7560   3.803   5.657   0.856
 2518TIP3    H2 7561   3.862   5.685   0.993
 2519TIP3   OH2 7562   5.777   1.313   2.757
 2519TIP3    H1 7563   5.696   1.308   2.809
 2519TIP3    H2 7564   5.837   1.362   2.813
 2520TIP3   OH2 7565   2.682   0.644   5.054
 2520TIP3    H1 7566   2.744   0.692   5.109
 2520TIP3    H2 7567   2.732   0.571   5.018
 2521TIP3   OH2 7568   6.183   3.945   2.189
 2521TIP3    H1 7569   6.106   3.999   2.173
 2521TIP3    H2 7570   6.255   4.007   2.197
 2522TIP3   OH2 7571   1.636   3.103   2.019
 2522TIP3    H1 7572   1.564   3.143   2.069
 2522TIP3    H2 7573   1.708   3.166   2.026
 2523TIP3   OH2 7574   5.008   5.656   4.616
 2523TIP3    H1 7575   5.046   5.597   4.551
 2523TIP3    H2 7576   5.000   5.603   4.695
 2524TIP3   OH2 7577   0.309   5.156   4.174
 2524TIP3    H1 7578   0.390   5.109   4.192
 2524TIP3    H2 7579   0.322   5.194   4.086
 2525TIP3   OH2 7580   2.593   0.135   2.850
 2525TIP3    H1 7581   2.636   0.213   2.815
 2525TIP3    H2 7582   2.571   0.159   2.940
 2526TIP3   OH2 7583   4.607   2.834   4.433
 2526TIP3    H1 7584   4.522   2.818   4.392
 2526TIP3    H2 7585   4.621   2.758   4.490
 2527TIP3   OH2 7586   0.763   0.416   2.990
 2527TIP3    H1 7587   0.704   0.347   2.959
 2527TIP3    H2 7588   0.716   0.458   3.062
 2528TIP3   OH2 7589   1.679   5.166   1.844
 2528TIP3    H1 7590   1.613   5.234   1.862
 2528TIP3    H2 7591   1.629   5.094   1.806
 2529TIP3   OH2 7592   4.939   0.767   0.573
 2529TIP3    H1 7593   5.025   0.725   0.582
 2529TIP3    H2 7594   4.886   0.727   0.642
 2530TIP3   OH2 7595   0.975   0.114   4.420
 2530TIP3    H1 7596   0.908   0.052   4.451
 2530TIP3    H2 7597   0.938   0.201   4.440
 2531TIP3   OH2 7598   4.521   4.444   1.212
 2531TIP3    H1 7599   4.584   4.490   1.156
 2531TIP3    H2 7600   4.522   4.354   1.179
 2532TIP3   OH2 7601   2.949   2.737   1.934
 2532TIP3    H1 7602   2.884   2.703   1.997
 2532TIP3    H2 7603   2.898   2.794   1.876
 2533TIP3   OH2 7604   2.664   4.009   4.712
 2533TIP3    H1 7605   2.756   4.024   4.736
 2533TIP3    H2 7606   2.659   3.915   4.696
 2534TIP3   OH2 7607   5.026   4.733   0.095
 2534TIP3    H1 7608   5.028   4.810   0.152
 2534TIP3    H2 7609   4.933   4.720   0.075
 2535TIP3   OH2 7610   4.376   3.482   1.150
 2535TIP3    H1 7611   4.437   3.471   1.223
 2535TIP3    H2 7612   4.336   3.395   1.139
 2536TIP3   OH2 7613   5.576   5.222   0.926
 2536TIP3    H1 7614   5.509   5.178   0.979
 2536TIP3    H2 7615   5.527   5.262   0.854
 2537TIP3   OH2 7616   4.738   4.358   1.905
 2537TIP3    H1 7617   4.782   4.276   1.884
 2537TIP3    H2 7618   4.782   4.424   1.851
 2538TIP3   OH2 7619   2.043   0.674   0.550
 2538TIP3    H1 7620   2.024   0.703   0.639
 2538TIP3    H2 7621   2.056   0.755   0.500
 2539TIP3   OH2 7622   3.308   1.304   3.779
 2539TIP3    H1 7623   3.383   1.359   3.803
 2539TIP3    H2 7624   3.318   1.226   3.833
 2540TIP3   OH2 7625   3.300   2.049   2.286
 2540TIP3    H1 7626   3.270   1.978   2.342
 2540TIP3    H2 7627   3.380   2.081   2.329
 2541TIP3   OH2 7628   5.694   3.262   0.822
 2541TIP3    H1 7629   5.762   3.328   0.807
 2541TIP3    H2 7630   5.626   3.309   0.871
 2542TIP3   OH2 7631   2.068   3.084   4.437
 2542TIP3    H1 7632   2.121   3.123   4.506
 2542TIP3    H2 7633   1.980   3.076   4.475
 2543TIP3   OH2 7634   2.644   0.442   4.542
 2543TIP3    H1 7635   2.589   0.442   4.463
 2543TIP3    H2 7636   2.625   0.526   4.584
 2544TIP3   OH2 7637   2.705   0.968   0.816
 2544TIP3    H1 7638   2.786   0.949   0.767
 2544TIP3    H2 7639   2.720   1.056   0.852
 2545TIP3   OH2 7640   1.953   1.184   0.410
 2545TIP3    H1 7641   2.006   1.120   0.361
 2545TIP3    H2 7642   1.892   1.130   0.460
 2546TIP3   OH2 7643   5.645   3.574   1.772
 2546TIP3    H1 7644   5.667   3.541   1.685
 2546TIP3    H2 7645   5.724   3.558   1.824
 2547TIP3   OH2 7646   3.234   3.135   0.332
 2547TIP3    H1 7647   3.250   3.157   0.424
 2547TIP3    H2 7648   3.315   3.095   0.301
 2548TIP3   OH2 7649   4.151   0.053   1.199
 2548TIP3    H1 7650   4.150   0.141   1.162
 2548TIP3    H2 7651   4.207   0.002   1.140
 2549TIP3   OH2 7652   5.383   4.096   4.945
 2549TIP3    H1 7653   5.427   4.181   4.942
 2549TIP3    H2 7654   5.332   4.093   4.864
 2550TIP3   OH2 7655   5.307   3.070   0.768
 2550TIP3    H1 7656   5.385   3.111   0.805
 2550TIP3    H2 7657   5.253   3.048   0.844
 2551TIP3   OH2 7658   6.131   3.369   0.793
 2551TIP3    H1 7659   6.098   3.307   0.728
 2551TIP3    H2 7660   6.147   3.316   0.871
 2552TIP3   OH2 7661   3.103   2.379   1.117
 2552TIP3    H1 7662   3.083   2.300   1.067
 2552TIP3    H2 7663   3.061   2.365   1.202
 2553TIP3   OH2 7664   5.292   0.561   0.393
 2553TIP3    H1 7665   5.388   0.562   0.397
 2553TIP3    H2 7666   5.273   0.549   0.300
 2554TIP3   OH2 7667   5.173   0.796   0.842
 2554TIP3    H1 7668   5.180   0.769   0.750
 2554TIP3    H2 7669   5.262   0.795   0.875
 2555TIP3   OH2 7670   4.281   0.764   1.242
 2555TIP3    H1 7671   4.295   0.820   1.318
 2555TIP3    H2 7672   4.204   0.712   1.264
 2556TIP3   OH2 7673   2.785   3.360   1.446
 2556TIP3    H1 7674   2.799   3.283   1.391
 2556TIP3    H2 7675   2.692   3.380   1.436
 2557TIP3   OH2 7676   5.087   3.972   1.933
 2557TIP3    H1 7677   5.172   3.983   1.890
 2557TIP3    H2 7678   5.108   3.966   2.026
 2558TIP3   OH2 7679   0.883   0.411   2.240
 2558TIP3    H1 7680   0.866   0.500   2.271
 2558TIP3    H2 7681   0.950   0.378   2.301
 2559TIP3   OH2 7682   5.069   0.366   1.694
 2559TIP3    H1 7683   5.153   0.375   1.739
 2559TIP3    H2 7684   5.046   0.273   1.704
 2560TIP3   OH2 7685   4.080   1.793   1.511
 2560TIP3    H1 7686   3.994   1.834   1.502
 2560TIP3    H2 7687   4.061   1.705   1.542
 2561TIP3   OH2 7688   4.656   3.585   5.115
 2561TIP3    H1 7689   4.630   3.619   5.029
 2561TIP3    H2 7690   4.586   3.525   5.139
 2562TIP3   OH2 7691   0.907   0.593   0.771
 2562TIP3    H1 7692   0.855   0.570   0.848
 2562TIP3    H2 7693   0.973   0.654   0.804
 2563TIP3   OH2 7694   2.245   4.515   3.816
 2563TIP3    H1 7695   2.246   4.420   3.827
 2563TIP3    H2 7696   2.170   4.531   3.759
 2564TIP3   OH2 7697   1.971   5.802   3.584
 2564TIP3    H1 7698   2.054   5.810   3.631
 2564TIP3    H2 7699   1.945   5.711   3.596
 2565TIP3   OH2 7700   3.161   3.018   1.959
 2565TIP3    H1 7701   3.066   3.029   1.967
 2565TIP3    H2 7702   3.172   2.961   1.883
 2566TIP3   OH2 7703   5.637   5.917   0.433
 2566TIP3    H1 7704   5.645   5.826   0.406
 2566TIP3    H2 7705   5.561   5.950   0.384
 2567TIP3   OH2 7706   1.942   4.875   3.195
 2567TIP3    H1 7707   1.909   4.815   3.261
 2567TIP3    H2 7708   1.910   4.961   3.222
 2568TIP3   OH2 7709   3.140   0.286   3.453
 2568TIP3    H1 7710   3.116   0.364   3.402
 2568TIP3    H2 7711   3.217   0.251   3.409
 2569TIP3   OH2 7712   5.724   1.225   2.508
 2569TIP3    H1 7713   5.764   1.256   2.590
 2569TIP3    H2 7714   5.798   1.216   2.448
 2570TIP3   OH2 7715   1.284   0.705   5.021
 2570TIP3    H1 7716   1.353   0.658   5.069
 2570TIP3    H2 7717   1.222   0.731   5.089
 2571TIP3   OH2 7718   0.114   1.045   0.964
 2571TIP3    H1 7719   0.201   1.058   1.001
 2571TIP3    H2 7720   0.093   0.953   0.982
 2572TIP3   OH2 7721   3.877   5.050   1.921
 2572TIP3    H1 7722   3.947   5.043   1.856
 2572TIP3    H2 7723   3.818   4.977   1.900
 2573TIP3   OH2 7724   4.907   3.192   2.638
 2573TIP3    H1 7725   4.987   3.141   2.646
 2573TIP3    H2 7726   4.889   3.222   2.727
 2574TIP3   OH2 7727   0.967   0.096   1.295
 2574TIP3    H1 7728   0.932   0.010   1.317
 2574TIP3    H2 7729   0.909   0.128   1.226
 2575TIP3   OH2 7730   2.149   0.539   0.152
 2575TIP3    H1 7731   2.112   0.480   0.217
 2575TIP3    H2 7732   2.205   0.598   0.203
 2576TIP3   OH2 7733   2.156   2.034   3.974
 2576TIP3    H1 7734   2.216   2.025   4.047
 2576TIP3    H2 7735   2.195   2.102   3.919
 2577TIP3   OH2 7736   1.195   3.329   2.064
 2577TIP3    H1 7737   1.209   3.415   2.025
 2577TIP3    H2 7738   1.216   3.340   2.157
 2578TIP3   OH2 7739   4.694   5.726   3.765
 2578TIP3    H1 7740   4.687   5.636   3.795
 2578TIP3    H2 7741   4.607   5.763   3.777
 2579TIP3   OH2 7742   4.062   2.560   4.894
 2579TIP3    H1 7743   4.022   2.534   4.811
 2579TIP3    H2 7744   4.028   2.649   4.910
 2580TIP3   OH2 7745   6.261   4.677   3.811
 2580TIP3    H1 7746   6.251   4.589   3.846
 2580TIP3    H2 7747   6.342   4.710   3.850
 2581TIP3   OH2 7748   1.937   0.835   3.141
 2581TIP3    H1 7749   1.860   0.859   3.088
 2581TIP3    H2 7750   1.987   0.777   3.085
 2582TIP3   OH2 7751   5.525   0.503   4.909
 2582TIP3    H1 7752   5.494   0.416   4.884
 2582TIP3    H2 7753   5.619   0.493   4.920
 2583TIP3   OH2 7754   1.935   1.211   3.922
 2583TIP3    H1 7755   1.886   1.164   3.854
 2583TIP3    H2 7756   1.885   1.197   4.002
 2584TIP3   OH2 7757   2.901   0.446   4.769
 2584TIP3    H1 7758   2.901   0.538   4.742
 2584TIP3    H2 7759   2.880   0.448   4.862
 2585TIP3   OH2 7760   5.315   1.249   1.381
 2585TIP3    H1 7761   5.258   1.172   1.384
 2585TIP3    H2 7762   5.280   1.301   1.309
 2586TIP3   OH2 7763   0.176   2.039   1.892
 2586TIP3    H1 7764   0.234   1.979   1.846
 2586TIP3    H2 7765   0.091   2.030   1.849
 2587TIP3   OH2 7766   5.574   5.485   1.459
 2587TIP3    H1 7767   5.620   5.559   1.499
 2587TIP3    H2 7768   5.482   5.508   1.464
 2588TIP3   OH2 7769   1.045   0.635   2.785
 2588TIP3    H1 7770   1.095   0.712   2.759
 2588TIP3    H2 7771   0.962   0.669   2.818
 2589TIP3   OH2 7772   3.384   1.508   1.073
 2589TIP3    H1 7773   3.308   1.562   1.051
 2589TIP3    H2 7774   3.448   1.529   1.006
 2590TIP3   OH2 7775   2.892   5.453   1.337
 2590TIP3    H1 7776   2.920   5.510   1.265
 2590TIP3    H2 7777   2.923   5.366   1.311
 2591TIP3   OH2 7778   2.154   3.615   3.905
 2591TIP3    H1 7779   2.181   3.675   3.974
 2591TIP3    H2 7780   2.189   3.653   3.824
 2592TIP3   OH2 7781   5.932   3.335   1.054
 2592TIP3    H1 7782   6.025   3.358   1.057
 2592TIP3    H2 7783   5.926   3.251   1.101
 2593TIP3   OH2 7784   1.019   2.560   4.499
 2593TIP3    H1 7785   1.104   2.541   4.540
 2593TIP3    H2 7786   0.955   2.516   4.556
 2594TIP3   OH2 7787   2.767   0.388   0.605
 2594TIP3    H1 7788   2.780   0.477   0.574
 2594TIP3    H2 7789   2.730   0.397   0.693
 2595TIP3   OH2 7790   6.038   5.183   1.720
 2595TIP3    H1 7791   6.066   5.179   1.629
 2595TIP3    H2 7792   6.089   5.255   1.758
 2596TIP3   OH2 7793   1.183   5.558   1.739
 2596TIP3    H1 7794   1.147   5.644   1.757
 2596TIP3    H2 7795   1.242   5.540   1.813
 2597TIP3   OH2 7796   2.557   3.191   0.395
 2597TIP3    H1 7797   2.637   3.175   0.346
 2597TIP3    H2 7798   2.574   3.271   0.444
 2598TIP3   OH2 7799   3.550   1.399   0.199
 2598TIP3    H1 7800   3.634   1.400   0.153
 2598TIP3    H2 7801   3.546   1.484   0.244
 2599TIP3   OH2 7802   3.148   5.049   2.021
 2599TIP3    H1 7803   3.085   5.120   2.032
 2599TIP3    H2 7804   3.192   5.042   2.106
 2600TIP3   OH2 7805   1.111   4.563   3.540
 2600TIP3    H1 7806   1.033   4.563   3.596
 2600TIP3    H2 7807   1.173   4.620   3.585
 2601TIP3   OH2 7808   1.005   0.219   2.032
 2601TIP3    H1 7809   1.002   0.285   2.101
 2601TIP3    H2 7810   1.062   0.256   1.965
 2602TIP3   OH2 7811   4.034   3.430   1.956
 2602TIP3    H1 7812   3.940   3.442   1.951
 2602TIP3    H2 7813   4.049   3.342   1.920
 2603TIP3   OH2 7814   2.641   5.445   4.461
 2603TIP3    H1 7815   2.726   5.483   4.440
 2603TIP3    H2 7816   2.643   5.432   4.556
 2604TIP3   OH2 7817   2.442   2.576   3.086
 2604TIP3    H1 7818   2.488   2.652   3.051
 2604TIP3    H2 7819   2.505   2.533   3.143
 2605TIP3   OH2 7820   5.851   4.441   3.749
 2605TIP3    H1 7821   5.838   4.384   3.673
 2605TIP3    H2 7822   5.833   4.385   3.824
 2606TIP3   OH2 7823   2.816   3.760   1.741
 2606TIP3    H1 7824   2.813   3.693   1.673
 2606TIP3    H2 7825   2.808   3.712   1.823
 2607TIP3   OH2 7826   0.768   4.311   2.568
 2607TIP3    H1 7827   0.765   4.312   2.472
 2607TIP3    H2 7828   0.710   4.240   2.594
 2608TIP3   OH2 7829   3.074   0.508   2.252
 2608TIP3    H1 7830   3.015   0.514   2.328
 2608TIP3    H2 7831   3.145   0.569   2.272
 2609TIP3   OH2 7832   0.776   2.774   4.495
 2609TIP3    H1 7833   0.711   2.740   4.434
 2609TIP3    H2 7834   0.835   2.700   4.512
 2610TIP3   OH2 7835   2.202   3.375   0.630
 2610TIP3    H1 7836   2.215   3.459   0.586
 2610TIP3    H2 7837   2.161   3.319   0.563
 2611TIP3   OH2 7838   5.648   2.003   4.501
 2611TIP3    H1 7839   5.578   1.951   4.540
 2611TIP3    H2 7840   5.612   2.033   4.418
 2612TIP3   OH2 7841   3.326   0.724   3.820
 2612TIP3    H1 7842   3.304   0.679   3.738
 2612TIP3    H2 7843   3.311   0.816   3.801
 2613TIP3   OH2 7844   4.055   5.445   0.138
 2613TIP3    H1 7845   4.012   5.393   0.071
 2613TIP3    H2 7846   4.132   5.394   0.163
 2614TIP3   OH2 7847   3.866   5.152   1.148
 2614TIP3    H1 7848   3.891   5.139   1.057
 2614TIP3    H2 7849   3.789   5.209   1.143
 2615TIP3   OH2 7850   2.576   1.937   2.481
 2615TIP3    H1 7851   2.602   1.846   2.471
 2615TIP3    H2 7852   2.621   1.983   2.410
 2616TIP3   OH2 7853   3.274   0.676   2.328
 2616TIP3    H1 7854   3.335   0.672   2.402
 2616TIP3    H2 7855   3.325   0.714   2.256
 2617TIP3   OH2 7856   1.972   1.702   3.052
 2617TIP3    H1 7857   1.906   1.656   3.000
 2617TIP3    H2 7858   2.015   1.634   3.103
 2618TIP3   OH2 7859   0.377   1.879   3.920
 2618TIP3    H1 7860   0.328   1.946   3.967
 2618TIP3    H2 7861   0.340   1.881   3.831
 2619TIP3   OH2 7862   3.791   2.162   0.778
 2619TIP3    H1 7863   3.711   2.164   0.830
 2619TIP3    H2 7864   3.856   2.206   0.832
 2620TIP3   OH2 7865   5.430   0.582   4.158
 2620TIP3    H1 7866   5.488   0.598   4.232
 2620TIP3    H2 7867   5.485   0.600   4.081
 2621TIP3   OH2 7868   1.986   5.170   1.536
 2621TIP3    H1 7869   1.898   5.205   1.552
 2621TIP3    H2 7870   2.012   5.209   1.452
 2622TIP3   OH2 7871   3.050   4.746   0.522
 2622TIP3    H1 7872   3.091   4.732   0.437
 2622TIP3    H2 7873   2.973   4.801   0.503
 2623TIP3   OH2 7874   0.378   0.747   3.593
 2623TIP3    H1 7875   0.365   0.692   3.670
 2623TIP3    H2 7876   0.302   0.804   3.590
 2624TIP3   OH2 7877   4.562   5.122   0.891
 2624TIP3    H1 7878   4.573   5.033   0.857
 2624TIP3    H2 7879   4.481   5.119   0.942
 2625TIP3   OH2 7880   4.101   2.867   4.303
 2625TIP3    H1 7881   4.056   2.793   4.343
 2625TIP3    H2 7882   4.087   2.857   4.209
 2626TIP3   OH2 7883   1.868   4.822   3.750
 2626TIP3    H1 7884   1.783   4.865   3.734
 2626TIP3    H2 7885   1.867   4.802   3.843
 2627TIP3   OH2 7886   0.790   0.063   3.993
 2627TIP3    H1 7887   0.816   0.032   3.906
 2627TIP3    H2 7888   0.787   0.158   3.985
 2628TIP3   OH2 7889   2.968   0.002   1.832
 2628TIP3    H1 7890   2.967   0.090   1.796
 2628TIP3    H2 7891   2.900  -0.045   1.784
 2629TIP3   OH2 7892   5.813   4.228   2.468
 2629TIP3    H1 7893   5.877   4.293   2.439
 2629TIP3    H2 7894   5.841   4.204   2.556
 2630TIP3   OH2 7895   3.580   5.651   1.301
 2630TIP3    H1 7896   3.536   5.571   1.328
 2630TIP3    H2 7897   3.509   5.713   1.282
 2631TIP3   OH2 7898   2.969   5.175   4.142
 2631TIP3    H1 7899   2.877   5.200   4.147
 2631TIP3    H2 7900   2.990   5.141   4.229
 2632TIP3   OH2 7901   3.017   3.443   2.046
 2632TIP3    H1 7902   2.973   3.376   2.098
 2632TIP3    H2 7903   2.946   3.496   2.011
 2633TIP3   OH2 7904   4.553   0.793   2.658
 2633TIP3    H1 7905   4.548   0.866   2.595
 2633TIP3    H2 7906   4.573   0.717   2.603
 2634TIP3   OH2 7907   3.153   4.509   3.590
 2634TIP3    H1 7908   3.178   4.428   3.546
 2634TIP3    H2 7909   3.105   4.480   3.668
 2635TIP3   OH2 7910   0.706   2.086   1.869
 2635TIP3    H1 7911   0.731   2.152   1.934
 2635TIP3    H2 7912   0.669   2.015   1.921
 2636TIP3   OH2 7913   1.549   4.044   2.892
 2636TIP3    H1 7914   1.596   4.120   2.928
 2636TIP3    H2 7915   1.502   4.007   2.967
 2637TIP3   OH2 7916   0.752   1.890   1.239
 2637TIP3    H1 7917   0.773   1.900   1.332
 2637TIP3    H2 7918   0.827   1.927   1.193
 2638TIP3   OH2 7919   0.115   0.065   4.128
 2638TIP3    H1 7920   0.085   0.038   4.215
 2638TIP3    H2 7921   0.209   0.079   4.138
 2639TIP3   OH2 7922   5.479   5.543   2.840
 2639TIP3    H1 7923   5.484   5.526   2.934
 2639TIP3    H2 7924   5.546   5.487   2.802
 2640TIP3   OH2 7925   0.223   2.536   3.435
 2640TIP3    H1 7926   0.137   2.542   3.394
 2640TIP3    H2 7927   0.285   2.545   3.363
 2641TIP3   OH2 7928   0.783   0.222   1.700
 2641TIP3    H1 7929   0.849   0.166   1.741
 2641TIP3    H2 7930   0.741   0.166   1.635
 2642TIP3   OH2 7931   2.427   4.711   2.159
 2642TIP3    H1 7932   2.351   4.753   2.120
 2642TIP3    H2 7933   2.499   4.773   2.145
 2643TIP3   OH2 7934   2.573   1.723   2.059
 2643TIP3    H1 7935   2.497   1.763   2.101
 2643TIP3    H2 7936   2.595   1.649   2.115
 2644TIP3   OH2 7937   1.455   0.981   3.125
 2644TIP3    H1 7938   1.400   1.058   3.136
 2644TIP3    H2 7939   1.398   0.908   3.151
 2645TIP3   OH2 7940   5.812   4.573   1.374
 2645TIP3    H1 7941   5.887   4.513   1.380
 2645TIP3    H2 7942   5.843   4.654   1.414
 2646TIP3   OH2 7943   0.312   1.324   2.134
 2646TIP3    H1 7944   0.281   1.236   2.110
 2646TIP3    H2 7945   0.309   1.373   2.051
 2647TIP3   OH2 7946   3.826   2.873   0.019
 2647TIP3    H1 7947   3.846   2.885   0.112
 2647TIP3    H2 7948   3.901   2.825  -0.015
 2648TIP3   OH2 7949   1.565   4.719   2.376
 2648TIP3    H1 7950   1.647   4.761   2.401
 2648TIP3    H2 7951   1.582   4.625   2.383
 2649TIP3   OH2 7952   1.719   3.827   3.046
 2649TIP3    H1 7953   1.624   3.841   3.038
 2649TIP3    H2 7954   1.750   3.901   3.098
 2650TIP3   OH2 7955   2.304   5.664   1.866
 2650TIP3    H1 7956   2.265   5.594   1.920
 2650TIP3    H2 7957   2.241   5.736   1.871
 2651TIP3   OH2 7958   4.420   5.708   3.533
 2651TIP3    H1 7959   4.440   5.625   3.576
 2651TIP3    H2 7960   4.459   5.699   3.446
 2652TIP3   OH2 7961   3.738   5.384   2.242
 2652TIP3    H1 7962   3.670   5.402   2.177
 2652TIP3    H2 7963   3.815   5.360   2.189
 2653TIP3   OH2 7964   4.486   4.148   1.216
 2653TIP3    H1 7965   4.416   4.202   1.181
 2653TIP3    H2 7966   4.443   4.088   1.277
 2654TIP3   OH2 7967   6.089   0.958   4.135
 2654TIP3    H1 7968   6.169   0.932   4.090
 2654TIP3    H2 7969   6.107   0.943   4.228
 2655TIP3   OH2 7970   2.614   4.203   1.882
 2655TIP3    H1 7971   2.576   4.246   1.805
 2655TIP3    H2 7972   2.705   4.187   1.858
 2656TIP3   OH2 7973   2.927   5.826   2.454
 2656TIP3    H1 7974   2.904   5.888   2.524
 2656TIP3    H2 7975   2.859   5.839   2.388
 2657TIP3   OH2 7976   4.646   1.076   1.601
 2657TIP3    H1 7977   4.615   1.039   1.519
 2657TIP3    H2 7978   4.742   1.073   1.594
 2658TIP3   OH2 7979   0.910   4.242   0.235
 2658TIP3    H1 7980   0.821   4.233   0.269
 2658TIP3    H2 7981   0.965   4.206   0.305
 2659TIP3   OH2 7982   1.356   2.190   0.909
 2659TIP3    H1 7983   1.399   2.265   0.868
 2659TIP3    H2 7984   1.356   2.210   1.003
 2660TIP3   OH2 7985   3.972   4.846   3.777
 2660TIP3    H1 7986   3.922   4.774   3.817
 2660TIP3    H2 7987   3.930   4.925   3.810
 2661TIP3   OH2 7988   1.906   0.728   3.383
 2661TIP3    H1 7989   1.917   0.766   3.296
 2661TIP3    H2 7990   1.987   0.679   3.397
 2662TIP3   OH2 7991   5.783   2.439   0.808
 2662TIP3    H1 7992   5.818   2.378   0.873
 2662TIP3    H2 7993   5.848   2.510   0.805
 2663TIP3   OH2 7994   0.085   5.811   3.771
 2663TIP3    H1 7995   0.146   5.885   3.772
 2663TIP3    H2 7996   0.138   5.736   3.795
 2664TIP3   OH2 7997   2.848   4.489   2.730
 2664TIP3    H1 7998   2.867   4.431   2.656
 2664TIP3    H2 7999   2.753   4.501   2.726
 2665TIP3   OH2 8000   0.440   1.347   2.600
 2665TIP3    H1 8001   0.450   1.379   2.689
 2665TIP3    H2 8002   0.521   1.372   2.555
 2666TIP3   OH2 8003   5.618   4.043   0.260
 2666TIP3    H1 8004   5.563   4.121   0.252
 2666TIP3    H2 8005   5.676   4.048   0.184
 2667TIP3   OH2 8006   4.219   2.604   2.193
 2667TIP3    H1 8007   4.245   2.688   2.155
 2667TIP3    H2 8008   4.262   2.538   2.138
 2668TIP3   OH2 8009   6.057   4.906   1.795
 2668TIP3    H1 8010   6.017   4.904   1.882
 2668TIP3    H2 8011   6.050   4.997   1.767
 2669TIP3   OH2 8012   6.205   0.909   0.847
 2669TIP3    H1 8013   6.241   0.968   0.781
 2669TIP3    H2 8014   6.270   0.908   0.917
 2670TIP3   OH2 8015   1.205   4.211   2.586
 2670TIP3    H1 8016   1.126   4.223   2.639
 2670TIP3    H2 8017   1.268   4.272   2.623
 2671TIP3   OH2 8018   4.906   2.895   1.033
 2671TIP3    H1 8019   4.874   2.975   1.076
 2671TIP3    H2 8020   4.854   2.825   1.073
 2672TIP3   OH2 8021   0.615   1.352   4.072
 2672TIP3    H1 8022   0.562   1.327   4.147
 2672TIP3    H2 8023   0.682   1.410   4.108
 2673TIP3   OH2 8024   3.940   3.801   1.945
 2673TIP3    H1 8025   3.890   3.720   1.945
 2673TIP3    H2 8026   4.027   3.776   1.912
 2674TIP3   OH2 8027   4.419   3.884   5.137
 2674TIP3    H1 8028   4.461   3.857   5.219
 2674TIP3    H2 8029   4.336   3.836   5.135
 2675TIP3   OH2 8030   2.565   5.636   2.834
 2675TIP3    H1 8031   2.584   5.630   2.928
 2675TIP3    H2 8032   2.469   5.631   2.829
 2676TIP3   OH2 8033   1.483   0.308   0.251
 2676TIP3    H1 8034   1.421   0.317   0.323
 2676TIP3    H2 8035   1.429   0.315   0.172
 2677TIP3   OH2 8036   1.064   3.998   4.042
 2677TIP3    H1 8037   1.061   3.903   4.052
 2677TIP3    H2 8038   0.987   4.020   3.989
 2678TIP3   OH2 8039   0.778   1.209   4.378
 2678TIP3    H1 8040   0.783   1.285   4.436
 2678TIP3    H2 8041   0.735   1.141   4.431
 2679TIP3   OH2 8042   3.934   5.689   3.518
 2679TIP3    H1 8043   3.874   5.615   3.508
 2679TIP3    H2 8044   3.909   5.728   3.602
 2680TIP3   OH2 8045   5.375   5.200   1.314
 2680TIP3    H1 8046   5.327   5.279   1.341
 2680TIP3    H2 8047   5.467   5.227   1.313
 2681TIP3   OH2 8048   2.395   4.072   3.762
 2681TIP3    H1 8049   2.455   4.059   3.835
 2681TIP3    H2 8050   2.418   4.003   3.700
 2682TIP3   OH2 8051   3.914   4.802   2.665
 2682TIP3    H1 8052   3.835   4.817   2.612
 2682TIP3    H2 8053   3.960   4.885   2.664
 2683TIP3   OH2 8054   4.133   4.825   2.448
 2683TIP3    H1 8055   4.061   4.786   2.399
 2683TIP3    H2 8056   4.092   4.865   2.524
 2684TIP3   OH2 8057   2.385   4.721   3.913
 2684TIP3    H1 8058   2.339   4.647   3.873
 2684TIP3    H2 8059   2.418   4.687   3.996
 2685TIP3   OH2 8060   4.511   1.033   4.737
 2685TIP3    H1 8061   4.472   0.977   4.670
 2685TIP3    H2 8062   4.570   0.976   4.785
 2686TIP3   OH2 8063   4.418   0.153   3.450
 2686TIP3    H1 8064   4.508   0.176   3.426
 2686TIP3    H2 8065   4.378   0.237   3.472
 2687TIP3   OH2 8066   3.893   1.831   4.026
 2687TIP3    H1 8067   3.973   1.847   4.076
 2687TIP3    H2 8068   3.857   1.751   4.065
 2688TIP3   OH2 8069   3.210   4.049   3.605
 2688TIP3    H1 8070   3.270   3.985   3.642
 2688TIP3    H2 8071   3.234   4.132   3.647
 2689TIP3   OH2 8072   2.681   1.199   4.968
 2689TIP3    H1 8073   2.591   1.207   5.000
 2689TIP3    H2 8074   2.684   1.255   4.891
 2690TIP3   OH2 8075   4.768   5.028   0.695
 2690TIP3    H1 8076   4.769   5.025   0.791
 2690TIP3    H2 8077   4.725   4.946   0.669
 2691TIP3   OH2 8078   4.822   1.379   3.111
 2691TIP3    H1 8079   4.735   1.397   3.075
 2691TIP3    H2 8080   4.877   1.359   3.035
 2692TIP3   OH2 8081   4.065   0.306   4.725
 2692TIP3    H1 8082   4.068   0.233   4.664
 2692TIP3    H2 8083   3.973   0.329   4.731
 2693TIP3   OH2 8084   0.830   3.016   0.723
 2693TIP3    H1 8085   0.855   3.100   0.762
 2693TIP3    H2 8086   0.735   3.021   0.712
 2694TIP3   OH2 8087   1.224   2.218   4.975
 2694TIP3    H1 8088   1.217   2.170   5.058
 2694TIP3    H2 8089   1.222   2.150   4.908
 2695TIP3   OH2 8090   1.886   3.713   0.200
 2695TIP3    H1 8091   1.915   3.729   0.111
 2695TIP3    H2 8092   1.796   3.745   0.202
 2696TIP3   OH2 8093   0.791   4.850   5.148
 2696TIP3    H1 8094   0.709   4.895   5.129
 2696TIP3    H2 8095   0.791   4.776   5.088
 2697TIP3   OH2 8096   0.002   0.887   4.099
 2697TIP3    H1 8097   0.081   0.844   4.067
 2697TIP3    H2 8098   0.035   0.964   4.146
 2698TIP3   OH2 8099   2.047   3.324   0.011
 2698TIP3    H1 8100   1.963   3.363  -0.012
 2698TIP3    H2 8101   2.095   3.394   0.055
 2699TIP3   OH2 8102   5.505   1.303   2.714
 2699TIP3    H1 8103   5.461   1.276   2.633
 2699TIP3    H2 8104   5.502   1.399   2.712
 2700TIP3   OH2 8105   4.427   0.848   4.564
 2700TIP3    H1 8106   4.433   0.870   4.471
 2700TIP3    H2 8107   4.499   0.788   4.580
 2701TIP3   OH2 8108   5.554   3.421   5.083
 2701TIP3    H1 8109   5.528   3.329   5.088
 2701TIP3    H2 8110   5.487   3.462   5.028
 2702TIP3   OH2 8111   4.974   3.806   2.160
 2702TIP3    H1 8112   4.985   3.716   2.128
 2702TIP3    H2 8113   5.061   3.830   2.193
 2703TIP3   OH2 8114   6.012   1.231   1.452
 2703TIP3    H1 8115   6.028   1.323   1.476
 2703TIP3    H2 8116   6.016   1.184   1.536
 2704TIP3   OH2 8117   4.872   4.112   1.871
 2704TIP3    H1 8118   4.791   4.066   1.893
 2704TIP3    H2 8119   4.941   4.050   1.893
 2705TIP3   OH2 8120   3.953   3.426   2.516
 2705TIP3    H1 8121   4.037   3.424   2.563
 2705TIP3    H2 8122   3.903   3.354   2.552
 2706TIP3   OH2 8123   3.629   4.887   5.118
 2706TIP3    H1 8124   3.658   4.972   5.083
 2706TIP3    H2 8125   3.667   4.883   5.206
 2707TIP3   OH2 8126   4.965   3.001   1.418
 2707TIP3    H1 8127   4.961   3.052   1.499
 2707TIP3    H2 8128   4.884   2.949   1.419
 2708TIP3   OH2 8129   1.698   3.134   0.908
 2708TIP3    H1 8130   1.632   3.113   0.842
 2708TIP3    H2 8131   1.770   3.174   0.858
 2709TIP3   OH2 8132   5.196   2.681   4.909
 2709TIP3    H1 8133   5.262   2.613   4.916
 2709TIP3    H2 8134   5.195   2.723   4.995
 2710TIP3   OH2 8135   4.451   1.560   3.230
 2710TIP3    H1 8136   4.388   1.532   3.163
 2710TIP3    H2 8137   4.489   1.640   3.195
 2711TIP3   OH2 8138   4.362   0.920   1.744
 2711TIP3    H1 8139   4.341   0.827   1.758
 2711TIP3    H2 8140   4.454   0.927   1.770
 2712TIP3   OH2 8141   0.684   0.181   4.747
 2712TIP3    H1 8142   0.763   0.235   4.743
 2712TIP3    H2 8143   0.715   0.094   4.772
 2713TIP3   OH2 8144   1.139   5.866   5.073
 2713TIP3    H1 8145   1.160   5.915   4.994
 2713TIP3    H2 8146   1.045   5.878   5.084
 2714TIP3   OH2 8147   2.226   4.411   4.659
 2714TIP3    H1 8148   2.320   4.426   4.665
 2714TIP3    H2 8149   2.189   4.495   4.631
 2715TIP3   OH2 8150   0.754   5.247   0.105
 2715TIP3    H1 8151   0.828   5.299   0.136
 2715TIP3    H2 8152   0.757   5.167   0.157
 2716TIP3   OH2 8153   0.800   5.751   3.131
 2716TIP3    H1 8154   0.723   5.803   3.154
 2716TIP3    H2 8155   0.850   5.746   3.213
 2717TIP3   OH2 8156   0.675   0.374   0.677
 2717TIP3    H1 8157   0.731   0.300   0.655
 2717TIP3    H2 8158   0.704   0.400   0.765
 2718TIP3   OH2 8159   2.193   2.655   1.862
 2718TIP3    H1 8160   2.252   2.582   1.841
 2718TIP3    H2 8161   2.224   2.686   1.948
 2719TIP3   OH2 8162   2.601   5.243   2.204
 2719TIP3    H1 8163   2.661   5.183   2.248
 2719TIP3    H2 8164   2.515   5.203   2.214
 2720TIP3   OH2 8165   0.200   5.696   0.133
 2720TIP3    H1 8166   0.106   5.716   0.132
 2720TIP3    H2 8167   0.234   5.735   0.052
 2721TIP3   OH2 8168   2.150   0.910   0.459
 2721TIP3    H1 8169   2.145   0.950   0.373
 2721TIP3    H2 8170   2.195   0.975   0.513
 2722TIP3   OH2 8171   3.600   3.475   4.241
 2722TIP3    H1 8172   3.631   3.453   4.328
 2722TIP3    H2 8173   3.522   3.421   4.228
 2723TIP3   OH2 8174   6.192   5.294   4.801
 2723TIP3    H1 8175   6.184   5.284   4.707
 2723TIP3    H2 8176   6.167   5.385   4.818
 2724TIP3   OH2 8177   1.437   3.333   5.131
 2724TIP3    H1 8178   1.440   3.402   5.197
 2724TIP3    H2 8179   1.413   3.378   5.050
 2725TIP3   OH2 8180   4.932   2.251   2.834
 2725TIP3    H1 8181   4.961   2.162   2.820
 2725TIP3    H2 8182   4.997   2.306   2.789
 2726TIP3   OH2 8183   6.327   0.768   2.427
 2726TIP3    H1 8184   6.284   0.724   2.500
 2726TIP3    H2 8185   6.279   0.850   2.415
 2727TIP3   OH2 8186   2.816   1.374   1.066
 2727TIP3    H1 8187   2.871   1.394   1.141
 2727TIP3    H2 8188   2.759   1.450   1.056
 2728TIP3   OH2 8189   1.371   3.500   0.222
 2728TIP3    H1 8190   1.342   3.462   0.305
 2728TIP3    H2 8191   1.415   3.428   0.177
 2729TIP3   OH2 8192   2.751   3.865   1.151
 2729TIP3    H1 8193   2.845   3.862   1.139
 2729TIP3    H2 8194   2.731   3.791   1.208
 2730TIP3   OH2 8195   0.098   0.473   1.767
 2730TIP3    H1 8196   0.104   0.422   1.848
 2730TIP3    H2 8197   0.087   0.564   1.796
 2731TIP3   OH2 8198   2.609   1.964   3.500
 2731TIP3    H1 8199   2.666   2.030   3.540
 2731TIP3    H2 8200   2.536   2.014   3.465
 2732TIP3   OH2 8201   3.283   5.202   0.587
 2732TIP3    H1 8202   3.191   5.175   0.588
 2732TIP3    H2 8203   3.279   5.296   0.607
 2733TIP3   OH2 8204   2.614   5.373   2.700
 2733TIP3    H1 8205   2.640   5.396   2.611
 2733TIP3    H2 8206   2.587   5.457   2.739
 2734TIP3   OH2 8207   1.797   0.229   2.929
 2734TIP3    H1 8208   1.838   0.200   2.848
 2734TIP3    H2 8209   1.799   0.153   2.986
 2735TIP3   OH2 8210   5.442   4.414   2.859
 2735TIP3    H1 8211   5.361   4.400   2.908
 2735TIP3    H2 8212   5.436   4.505   2.829
 2736TIP3   OH2 8213   4.449   4.398   2.263
 2736TIP3    H1 8214   4.409   4.481   2.287
 2736TIP3    H2 8215   4.490   4.415   2.178
 2737TIP3   OH2 8216   4.815   1.074   3.214
 2737TIP3    H1 8217   4.827   1.128   3.292
 2737TIP3    H2 8218   4.784   1.136   3.148
 2738TIP3   OH2 8219   2.924   2.675   0.191
 2738TIP3    H1 8220   2.996   2.662   0.252
 2738TIP3    H2 8221   2.848   2.689   0.246
 2739TIP3   OH2 8222   1.159   5.892   3.314
 2739TIP3    H1 8223   1.162   5.930   3.226
 2739TIP3    H2 8224   1.066   5.890   3.337
 2740TIP3   OH2 8225   0.290   2.799   3.877
 2740TIP3    H1 8226   0.257   2.800   3.787
 2740TIP3    H2 8227   0.379   2.833   3.869
 2741TIP3   OH2 8228   3.709   3.830   1.403
 2741TIP3    H1 8229   3.695   3.754   1.459
 2741TIP3    H2 8230   3.716   3.794   1.315
 2742TIP3   OH2 8231   6.085   0.628   2.686
 2742TIP3    H1 8232   6.011   0.641   2.745
 2742TIP3    H2 8233   6.076   0.539   2.655
 2743TIP3   OH2 8234   3.127   3.479   3.837
 2743TIP3    H1 8235   3.088   3.416   3.776
 2743TIP3    H2 8236   3.221   3.475   3.818
 2744TIP3   OH2 8237   2.049   2.710   5.053
 2744TIP3    H1 8238   2.083   2.718   4.964
 2744TIP3    H2 8239   2.088   2.630   5.087
 2745TIP3   OH2 8240   0.723   2.689   1.033
 2745TIP3    H1 8241   0.744   2.780   1.012
 2745TIP3    H2 8242   0.669   2.658   0.960
 2746TIP3   OH2 8243   3.017   4.342   4.405
 2746TIP3    H1 8244   2.960   4.339   4.481
 2746TIP3    H2 8245   3.013   4.433   4.376
 2747TIP3   OH2 8246   2.641   5.374   1.089
 2747TIP3    H1 8247   2.622   5.302   1.148
 2747TIP3    H2 8248   2.555   5.404   1.058
 2748TIP3   OH2 8249   5.747   3.189   4.122
 2748TIP3    H1 8250   5.781   3.278   4.127
 2748TIP3    H2 8251   5.654   3.199   4.104
 2749TIP3   OH2 8252   5.012   1.315   0.045
 2749TIP3    H1 8253   5.095   1.278   0.016
 2749TIP3    H2 8254   5.010   1.298   0.139
 2750TIP3   OH2 8255   3.867   2.482   0.145
 2750TIP3    H1 8256   3.961   2.501   0.138
 2750TIP3    H2 8257   3.838   2.537   0.217
 2751TIP3   OH2 8258   2.105   1.510   2.355
 2751TIP3    H1 8259   2.059   1.538   2.434
 2751TIP3    H2 8260   2.160   1.437   2.384
 2752TIP3   OH2 8261   1.068   5.634   3.150
 2752TIP3    H1 8262   1.050   5.722   3.184
 2752TIP3    H2 8263   1.001   5.620   3.084
 2753TIP3   OH2 8264   0.013   5.036   1.785
 2753TIP3    H1 8265   0.020   5.129   1.804
 2753TIP3    H2 8266   0.100   5.001   1.807
 2754TIP3   OH2 8267   4.919   3.479   3.311
 2754TIP3    H1 8268   4.860   3.531   3.257
 2754TIP3    H2 8269   4.887   3.389   3.302
 2755TIP3   OH2 8270   0.553   5.873   4.688
 2755TIP3    H1 8271   0.629   5.864   4.630
 2755TIP3    H2 8272   0.552   5.966   4.712
 2756TIP3   OH2 8273   3.887   5.262   2.790
 2756TIP3    H1 8274   3.930   5.332   2.839
 2756TIP3    H2 8275   3.912   5.277   2.699
 2757TIP3   OH2 8276   2.782   5.570   1.981
 2757TIP3    H1 8277   2.702   5.621   1.987
 2757TIP3    H2 8278   2.793   5.532   2.068
 2758TIP3   OH2 8279   2.880   5.520   2.251
 2758TIP3    H1 8280   2.953   5.580   2.262
 2758TIP3    H2 8281   2.871   5.478   2.336
 2759TIP3   OH2 8282   2.310   4.001   0.452
 2759TIP3    H1 8283   2.326   4.094   0.436
 2759TIP3    H2 8284   2.224   3.998   0.493
 2760TIP3   OH2 8285   4.925   2.554   3.766
 2760TIP3    H1 8286   4.893   2.641   3.787
 2760TIP3    H2 8287   4.847   2.499   3.767
 2761TIP3   OH2 8288   2.793   4.812   4.055
 2761TIP3    H1 8289   2.818   4.748   3.988
 2761TIP3    H2 8290   2.775   4.892   4.005
 2762TIP3   OH2 8291   2.545   5.726   1.093
 2762TIP3    H1 8292   2.462   5.683   1.070
 2762TIP3    H2 8293   2.612   5.663   1.068
 2763TIP3   OH2 8294   6.248   4.921   0.161
 2763TIP3    H1 8295   6.263   4.842   0.109
 2763TIP3    H2 8296   6.336   4.954   0.181
 2764TIP3   OH2 8297   2.758   4.147   2.758
 2764TIP3    H1 8298   2.848   4.157   2.726
 2764TIP3    H2 8299   2.763   4.169   2.851
 2765TIP3   OH2 8300   3.711   2.270   4.161
 2765TIP3    H1 8301   3.714   2.338   4.093
 2765TIP3    H2 8302   3.620   2.242   4.162
 2766TIP3   OH2 8303   4.326   5.320   4.314
 2766TIP3    H1 8304   4.372   5.246   4.276
 2766TIP3    H2 8305   4.243   5.323   4.268
 2767TIP3   OH2 8306   3.153   1.316   1.933
 2767TIP3    H1 8307   3.082   1.271   1.978
 2767TIP3    H2 8308   3.136   1.302   1.840
 2768TIP3   OH2 8309   1.285   1.365   3.389
 2768TIP3    H1 8310   1.352   1.392   3.452
 2768TIP3    H2 8311   1.202   1.380   3.434
 2769TIP3   OH2 8312   1.146   4.945   1.472
 2769TIP3    H1 8313   1.064   4.910   1.437
 2769TIP3    H2 8314   1.126   4.968   1.563
 2770TIP3   OH2 8315   0.331   4.712   3.285
 2770TIP3    H1 8316   0.338   4.793   3.335
 2770TIP3    H2 8317   0.415   4.704   3.239
 2771TIP3   OH2 8318   1.556   3.006   2.897
 2771TIP3    H1 8319   1.544   2.921   2.941
 2771TIP3    H2 8320   1.571   3.067   2.969
 2772TIP3   OH2 8321   0.869   3.993   2.707
 2772TIP3    H1 8322   0.803   3.978   2.775
 2772TIP3    H2 8323   0.948   4.015   2.756
 2773TIP3   OH2 8324   1.284   4.064   4.523
 2773TIP3    H1 8325   1.236   4.146   4.523
 2773TIP3    H2 8326   1.282   4.034   4.432
 2774TIP3   OH2 8327   1.865   2.130   0.710
 2774TIP3    H1 8328   1.889   2.068   0.641
 2774TIP3    H2 8329   1.810   2.078   0.770
 2775TIP3   OH2 8330   5.882   4.832   1.414
 2775TIP3    H1 8331   5.821   4.866   1.349
 2775TIP3    H2 8332   5.967   4.867   1.388
 2776TIP3   OH2 8333   3.053   5.187   3.511
 2776TIP3    H1 8334   3.031   5.143   3.429
 2776TIP3    H2 8335   2.972   5.187   3.562
 2777TIP3   OH2 8336   4.660   0.323   0.430
 2777TIP3    H1 8337   4.573   0.315   0.393
 2777TIP3    H2 8338   4.693   0.233   0.434
 2778TIP3   OH2 8339   4.616   1.023   3.813
 2778TIP3    H1 8340   4.597   1.066   3.897
 2778TIP3    H2 8341   4.530   0.999   3.778
 2779TIP3   OH2 8342   6.018   1.904   3.585
 2779TIP3    H1 8343   6.071   1.931   3.510
 2779TIP3    H2 8344   6.005   1.810   3.573
 2780TIP3   OH2 8345   0.715   5.539   1.720
 2780TIP3    H1 8346   0.711   5.605   1.650
 2780TIP3    H2 8347   0.627   5.538   1.756
 2781TIP3   OH2 8348   5.179   3.408   1.073
 2781TIP3    H1 8349   5.204   3.474   1.009
 2781TIP3    H2 8350   5.093   3.378   1.046
 2782TIP3   OH2 8351   0.919   0.050   0.803
 2782TIP3    H1 8352   0.895  -0.041   0.783
 2782TIP3    H2 8353   0.872   0.102   0.738
 2783TIP3   OH2 8354   5.476   5.927   3.123
 2783TIP3    H1 8355   5.507   5.955   3.037
 2783TIP3    H2 8356   5.463   6.009   3.172
 2784TIP3   OH2 8357   0.214   3.462   0.075
 2784TIP3    H1 8358   0.296   3.444   0.121
 2784TIP3    H2 8359   0.213   3.557   0.064
 2785TIP3   OH2 8360   3.079   5.499   2.869
 2785TIP3    H1 8361   3.054   5.502   2.961
 2785TIP3    H2 8362   3.008   5.543   2.823
 2786TIP3   OH2 8363   1.819   4.656   4.619
 2786TIP3    H1 8364   1.737   4.615   4.593
 2786TIP3    H2 8365   1.795   4.715   4.690
 2787TIP3   OH2 8366   3.048   0.637   1.909
 2787TIP3    H1 8367   3.089   0.585   1.978
 2787TIP3    H2 8368   2.987   0.577   1.866
 2788TIP3   OH2 8369   1.758   5.549   4.136
 2788TIP3    H1 8370   1.819   5.585   4.072
 2788TIP3    H2 8371   1.794   5.463   4.157
 2789TIP3   OH2 8372   0.202   5.222   0.635
 2789TIP3    H1 8373   0.154   5.291   0.681
 2789TIP3    H2 8374   0.169   5.226   0.545
 2790TIP3   OH2 8375   4.145   5.696   3.796
 2790TIP3    H1 8376   4.158   5.779   3.841
 2790TIP3    H2 8377   4.232   5.657   3.790
 2791TIP3   OH2 8378   5.132   2.245   1.713
 2791TIP3    H1 8379   5.150   2.234   1.806
 2791TIP3    H2 8380   5.045   2.284   1.710
 2792TIP3   OH2 8381   5.681   1.588   2.646
 2792TIP3    H1 8382   5.738   1.657   2.680
 2792TIP3    H2 8383   5.655   1.537   2.723
 2793TIP3   OH2 8384   4.821   3.618   4.423
 2793TIP3    H1 8385   4.839   3.707   4.452
 2793TIP3    H2 8386   4.754   3.586   4.484
 2794TIP3   OH2 8387   5.942   2.027   4.743
 2794TIP3    H1 8388   5.978   1.938   4.741
 2794TIP3    H2 8389   5.983   2.071   4.668
 2795TIP3   OH2 8390   1.501   5.060   5.027
 2795TIP3    H1 8391   1.560   4.999   5.071
 2795TIP3    H2 8392   1.446   5.095   5.097
 2796TIP3   OH2 8393   3.296   0.742   0.752
 2796TIP3    H1 8394   3.355   0.817   0.765
 2796TIP3    H2 8395   3.226   0.756   0.816
 2797TIP3   OH2 8396   0.663   0.288   5.066
 2797TIP3    H1 8397   0.705   0.204   5.085
 2797TIP3    H2 8398   0.628   0.277   4.977
 2798TIP3   OH2 8399   3.666   0.397   0.349
 2798TIP3    H1 8400   3.630   0.379   0.262
 2798TIP3    H2 8401   3.627   0.331   0.406
 2799TIP3   OH2 8402   2.780   5.937   4.158
 2799TIP3    H1 8403   2.711   5.871   4.167
 2799TIP3    H2 8404   2.769   5.994   4.235
 2800TIP3   OH2 8405   3.482   3.009   0.264
 2800TIP3    H1 8406   3.556   2.951   0.279
 2800TIP3    H2 8407   3.508   3.062   0.188
 2801TIP3   OH2 8408   5.146   4.192   5.081
 2801TIP3    H1 8409   5.053   4.196   5.055
 2801TIP3    H2 8410   5.183   4.124   5.025
 2802TIP3   OH2 8411   4.992   2.431   2.310
 2802TIP3    H1 8412   5.039   2.445   2.228
 2802TIP3    H2 8413   5.039   2.360   2.354
 2803TIP3   OH2 8414   5.065   5.258   0.001
 2803TIP3    H1 8415   5.069   5.269   0.096
 2803TIP3    H2 8416   5.036   5.343  -0.032
 2804TIP3   OH2 8417   2.804   0.452   1.854
 2804TIP3    H1 8418   2.757   0.470   1.935
 2804TIP3    H2 8419   2.754   0.498   1.787
 2805TIP3   OH2 8420   5.706   0.331   0.834
 2805TIP3    H1 8421   5.667   0.331   0.922
 2805TIP3    H2 8422   5.648   0.276   0.782
 2806TIP3   OH2 8423   4.860   0.579   2.789
 2806TIP3    H1 8424   4.882   0.619   2.705
 2806TIP3    H2 8425   4.817   0.650   2.838
 2807TIP3   OH2 8426   4.564   3.513   3.288
 2807TIP3    H1 8427   4.592   3.448   3.352
 2807TIP3    H2 8428   4.528   3.461   3.216
 2808TIP3   OH2 8429   4.454   0.851   5.024
 2808TIP3    H1 8430   4.471   0.818   5.112
 2808TIP3    H2 8431   4.509   0.929   5.017
 2809TIP3   OH2 8432   0.098   4.074   3.902
 2809TIP3    H1 8433   0.154   4.147   3.932
 2809TIP3    H2 8434   0.103   4.010   3.973
 2810TIP3   OH2 8435   4.953   1.985   2.775
 2810TIP3    H1 8436   4.937   1.955   2.865
 2810TIP3    H2 8437   4.994   1.909   2.733
 2811TIP3   OH2 8438   0.118   1.381   3.870
 2811TIP3    H1 8439   0.055   1.311   3.889
 2811TIP3    H2 8440   0.173   1.386   3.948
 2812TIP3   OH2 8441   2.192   0.219   0.261
 2812TIP3    H1 8442   2.103   0.207   0.229
 2812TIP3    H2 8443   2.188   0.295   0.318
 2813TIP3   OH2 8444   6.028   2.824   3.258
 2813TIP3    H1 8445   6.061   2.834   3.169
 2813TIP3    H2 8446   6.021   2.730   3.271
 2814TIP3   OH2 8447   4.580   5.905   2.184
 2814TIP3    H1 8448   4.640   5.831   2.173
 2814TIP3    H2 8449   4.638   5.979   2.205
 2815TIP3   OH2 8450   2.190   1.303   4.547
 2815TIP3    H1 8451   2.229   1.236   4.604
 2815TIP3    H2 8452   2.106   1.264   4.519
 2816TIP3   OH2 8453   1.786   2.673   5.081
 2816TIP3    H1 8454   1.742   2.690   4.997
 2816TIP3    H2 8455   1.879   2.679   5.061
 2817TIP3   OH2 8456   1.167   0.664   4.785
 2817TIP3    H1 8457   1.111   0.596   4.824
 2817TIP3    H2 8458   1.234   0.680   4.852
 2818TIP3   OH2 8459   0.140   1.248   4.910
 2818TIP3    H1 8460   0.171   1.249   5.001
 2818TIP3    H2 8461   0.069   1.185   4.909
 2819TIP3   OH2 8462   6.027   0.488   4.832
 2819TIP3    H1 8463   6.022   0.397   4.803
 2819TIP3    H2 8464   6.115   0.517   4.806
 2820TIP3   OH2 8465   2.850   4.767   1.577
 2820TIP3    H1 8466   2.915   4.704   1.609
 2820TIP3    H2 8467   2.892   4.806   1.500
 2821TIP3   OH2 8468   4.770   0.365   4.140
 2821TIP3    H1 8469   4.703   0.333   4.080
 2821TIP3    H2 8470   4.779   0.458   4.118
 2822TIP3   OH2 8471   5.998   1.801   2.460
 2822TIP3    H1 8472   5.969   1.835   2.545
 2822TIP3    H2 8473   5.988   1.707   2.466
 2823TIP3   OH2 8474   2.185   5.687   3.051
 2823TIP3    H1 8475   2.095   5.669   3.078
 2823TIP3    H2 8476   2.186   5.666   2.957
 2824TIP3   OH2 8477   4.008   2.870   4.610
 2824TIP3    H1 8478   4.029   2.917   4.529
 2824TIP3    H2 8479   3.918   2.895   4.629
 2825TIP3   OH2 8480   3.338   1.713   3.767
 2825TIP3    H1 8481   3.431   1.720   3.787
 2825TIP3    H2 8482   3.295   1.726   3.851
 2826TIP3   OH2 8483   6.295   1.267   0.968
 2826TIP3    H1 8484   6.334   1.186   1.001
 2826TIP3    H2 8485   6.370   1.322   0.945
 2827TIP3   OH2 8486   5.606   5.412   2.360
 2827TIP3    H1 8487   5.527   5.434   2.409
 2827TIP3    H2 8488   5.644   5.497   2.337
 2828TIP3   OH2 8489   2.664   4.073   2.307
 2828TIP3    H1 8490   2.631   4.139   2.245
 2828TIP3    H2 8491   2.613   3.995   2.287
 2829TIP3   OH2 8492   0.478   0.355   0.956
 2829TIP3    H1 8493   0.429   0.323   0.880
 2829TIP3    H2 8494   0.511   0.276   0.998
 2830TIP3   OH2 8495   1.837   2.508   2.707
 2830TIP3    H1 8496   1.785   2.457   2.769
 2830TIP3    H2 8497   1.784   2.587   2.692
 2831TIP3   OH2 8498   4.045   1.975   3.259
 2831TIP3    H1 8499   3.998   2.059   3.263
 2831TIP3    H2 8500   3.979   1.911   3.285
 2832TIP3   OH2 8501   0.686   5.191   3.807
 2832TIP3    H1 8502   0.705   5.249   3.733
 2832TIP3    H2 8503   0.722   5.106   3.781
 2833TIP3   OH2 8504   0.880   2.619   2.395
 2833TIP3    H1 8505   0.805   2.622   2.336
 2833TIP3    H2 8506   0.941   2.683   2.358
 2834TIP3   OH2 8507   2.049   5.485   3.446
 2834TIP3    H1 8508   2.106   5.558   3.422
 2834TIP3    H2 8509   2.099   5.407   3.421
 2835TIP3   OH2 8510   2.127   2.436   3.228
 2835TIP3    H1 8511   2.126   2.391   3.312
 2835TIP3    H2 8512   2.207   2.489   3.230
 2836TIP3   OH2 8513   3.247   4.317   2.000
 2836TIP3    H1 8514   3.228   4.280   2.086
 2836TIP3    H2 8515   3.341   4.301   1.987
 2837TIP3   OH2 8516   5.387   0.025   0.377
 2837TIP3    H1 8517   5.453  -0.010   0.436
 2837TIP3    H2 8518   5.423   0.107   0.345
 2838TIP3   OH2 8519   1.318   5.447   5.119
 2838TIP3    H1 8520   1.280   5.516   5.064
 2838TIP3    H2 8521   1.365   5.390   5.058
 2839TIP3   OH2 8522   2.644   3.588   4.128
 2839TIP3    H1 8523   2.581   3.573   4.057
 2839TIP3    H2 8524   2.678   3.501   4.149
 2840TIP3   OH2 8525   5.217   2.281   2.368
 2840TIP3    H1 8526   5.282   2.345   2.339
 2840TIP3    H2 8527   5.267   2.215   2.415
 2841TIP3   OH2 8528   4.378   4.910   4.430
 2841TIP3    H1 8529   4.363   4.995   4.472
 2841TIP3    H2 8530   4.410   4.854   4.501
 2842TIP3   OH2 8531   5.959   5.435   2.013
 2842TIP3    H1 8532   6.046   5.432   1.974
 2842TIP3    H2 8533   5.917   5.511   1.973
 2843TIP3   OH2 8534   4.988   1.660   4.223
 2843TIP3    H1 8535   5.045   1.656   4.146
 2843TIP3    H2 8536   4.978   1.569   4.251
 2844TIP3   OH2 8537   2.390   2.412   1.305
 2844TIP3    H1 8538   2.339   2.361   1.242
 2844TIP3    H2 8539   2.480   2.386   1.288
 2845TIP3   OH2 8540   5.788   1.375   5.098
 2845TIP3    H1 8541   5.696   1.364   5.122
 2845TIP3    H2 8542   5.789   1.379   5.003
 2846TIP3   OH2 8543   2.977   4.625   2.034
 2846TIP3    H1 8544   2.929   4.688   2.087
 2846TIP3    H2 8545   3.065   4.623   2.073
 2847TIP3   OH2 8546   4.629   3.038   4.786
 2847TIP3    H1 8547   4.615   3.076   4.873
 2847TIP3    H2 8548   4.695   2.970   4.800
 2848TIP3   OH2 8549   0.809   3.719   0.532
 2848TIP3    H1 8550   0.830   3.730   0.439
 2848TIP3    H2 8551   0.761   3.799   0.555
 2849TIP3   OH2 8552   1.604   2.897   2.231
 2849TIP3    H1 8553   1.618   2.977   2.180
 2849TIP3    H2 8554   1.686   2.887   2.280
 2850TIP3   OH2 8555   2.475   2.140   3.264
 2850TIP3    H1 8556   2.460   2.077   3.194
 2850TIP3    H2 8557   2.532   2.206   3.224
 2851TIP3   OH2 8558   2.670   1.117   3.072
 2851TIP3    H1 8559   2.747   1.083   3.026
 2851TIP3    H2 8560   2.616   1.155   3.003
 2852TIP3   OH2 8561   3.730   3.573   1.635
 2852TIP3    H1 8562   3.730   3.505   1.702
 2852TIP3    H2 8563   3.819   3.574   1.601
 2853TIP3   OH2 8564   6.146   0.578   3.178
 2853TIP3    H1 8565   6.100   0.529   3.109
 2853TIP3    H2 8566   6.076   0.610   3.234
 2854TIP3   OH2 8567   1.873   0.596   1.678
 2854TIP3    H1 8568   1.868   0.675   1.732
 2854TIP3    H2 8569   1.783   0.580   1.651
 2855TIP3   OH2 8570   4.228   0.638   0.009
 2855TIP3    H1 8571   4.200   0.553   0.043
 2855TIP3    H2 8572   4.262   0.684   0.085
 2856TIP3   OH2 8573   0.636   2.721   0.533
 2856TIP3    H1 8574   0.597   2.757   0.454
 2856TIP3    H2 8575   0.710   2.668   0.502
 2857TIP3   OH2 8576   1.696   2.235   2.149
 2857TIP3    H1 8577   1.631   2.166   2.141
 2857TIP3    H2 8578   1.776   2.197   2.113
 2858TIP3   OH2 8579   3.396   3.564   3.018
 2858TIP3    H1 8580   3.432   3.498   3.076
 2858TIP3    H2 8581   3.373   3.637   3.075
 2859TIP3   OH2 8582   3.620   2.844   1.273
 2859TIP3    H1 8583   3.569   2.821   1.350
 2859TIP3    H2 8584   3.555   2.861   1.205
 2860TIP3   OH2 8585   1.126   4.894   2.863
 2860TIP3    H1 8586   1.182   4.870   2.937
 2860TIP3    H2 8587   1.171   4.858   2.787
 2861TIP3   OH2 8588   3.456   3.625   2.629
 2861TIP3    H1 8589   3.528   3.594   2.574
 2861TIP3    H2 8590   3.377   3.608   2.577
 2862TIP3   OH2 8591   5.785   5.422   0.962
 2862TIP3    H1 8592   5.853   5.368   0.921
 2862TIP3    H2 8593   5.705   5.372   0.952
 2863TIP3   OH2 8594   1.032   5.012   1.985
 2863TIP3    H1 8595   1.054   4.948   2.053
 2863TIP3    H2 8596   1.114   5.057   1.966
 2864TIP3   OH2 8597   2.063   5.410   4.635
 2864TIP3    H1 8598   2.086   5.349   4.705
 2864TIP3    H2 8599   2.112   5.490   4.656
 2865TIP3   OH2 8600   2.494   3.494   2.195
 2865TIP3    H1 8601   2.503   3.493   2.100
 2865TIP3    H2 8602   2.439   3.570   2.213
 2866TIP3   OH2 8603   5.695   2.170   4.733
 2866TIP3    H1 8604   5.675   2.113   4.659
 2866TIP3    H2 8605   5.780   2.139   4.764
 2867TIP3   OH2 8606   6.321   2.871   3.059
 2867TIP3    H1 8607   6.390   2.861   2.993
 2867TIP3    H2 8608   6.244   2.828   3.020
 2868TIP3   OH2 8609   3.594   3.958   0.851
 2868TIP3    H1 8610   3.630   3.927   0.935
 2868TIP3    H2 8611   3.505   3.986   0.872
 2869TIP3   OH2 8612   1.305   5.516   2.788
 2869TIP3    H1 8613   1.248   5.526   2.712
 2869TIP3    H2 8614   1.392   5.501   2.752
 2870TIP3   OH2 8615   0.376   4.404   2.360
 2870TIP3    H1 8616   0.411   4.328   2.315
 2870TIP3    H2 8617   0.324   4.449   2.294
 2871TIP3   OH2 8618   5.931   0.460   4.142
 2871TIP3    H1 8619   5.881   0.541   4.150
 2871TIP3    H2 8620   5.969   0.464   4.054
 2872TIP3   OH2 8621   3.545   2.006   1.512
 2872TIP3    H1 8622   3.552   1.999   1.608
 2872TIP3    H2 8623   3.623   1.962   1.479
 2873TIP3   OH2 8624   0.317   3.119   0.343
 2873TIP3    H1 8625   0.308   3.171   0.423
 2873TIP3    H2 8626   0.247   3.151   0.285
 2874TIP3   OH2 8627   6.211   3.881   5.142
 2874TIP3    H1 8628   6.196   3.862   5.049
 2874TIP3    H2 8629   6.255   3.802   5.174
 2875TIP3   OH2 8630   0.311   1.797   1.273
 2875TIP3    H1 8631   0.390   1.745   1.256
 2875TIP3    H2 8632   0.342   1.887   1.280
 2876TIP3   OH2 8633   1.840   5.524   5.020
 2876TIP3    H1 8634   1.834   5.612   4.983
 2876TIP3    H2 8635   1.764   5.477   4.985
 2877TIP3   OH2 8636   2.825   5.331   0.396
 2877TIP3    H1 8637   2.842   5.242   0.425
 2877TIP3    H2 8638   2.892   5.384   0.440
 2878TIP3   OH2 8639   0.413   2.570   3.216
 2878TIP3    H1 8640   0.336   2.603   3.171
 2878TIP3    H2 8641   0.473   2.544   3.146
 2879TIP3   OH2 8642   2.824   0.937   5.098
 2879TIP3    H1 8643   2.788   0.930   5.010
 2879TIP3    H2 8644   2.908   0.891   5.095
 2880TIP3   OH2 8645   4.627   0.703   1.652
 2880TIP3    H1 8646   4.717   0.695   1.621
 2880TIP3    H2 8647   4.579   0.737   1.576
 2881TIP3   OH2 8648   0.085   3.826   3.058
 2881TIP3    H1 8649   0.099   3.918   3.083
 2881TIP3    H2 8650   0.083   3.779   3.142
 2882TIP3   OH2 8651   4.643   3.128   0.450
 2882TIP3    H1 8652   4.678   3.065   0.513
 2882TIP3    H2 8653   4.622   3.205   0.503
 2883TIP3   OH2 8654   5.208   2.233   2.675
 2883TIP3    H1 8655   5.247   2.171   2.737
 2883TIP3    H2 8656   5.280   2.290   2.649
 2884TIP3   OH2 8657   3.653   0.620   4.571
 2884TIP3    H1 8658   3.624   0.570   4.495
 2884TIP3    H2 8659   3.711   0.561   4.618
 2885TIP3   OH2 8660   0.891   3.052   4.768
 2885TIP3    H1 8661   0.925   2.967   4.798
 2885TIP3    H2 8662   0.797   3.037   4.756
 2886TIP3   OH2 8663   4.486   1.857   2.450
 2886TIP3    H1 8664   4.434   1.866   2.530
 2886TIP3    H2 8665   4.473   1.940   2.403
 2887TIP3   OH2 8666   4.972   1.794   0.214
 2887TIP3    H1 8667   4.980   1.798   0.119
 2887TIP3    H2 8668   4.996   1.882   0.244
 2888TIP3   OH2 8669   2.343   2.430   2.528
 2888TIP3    H1 8670   2.390   2.366   2.582
 2888TIP3    H2 8671   2.410   2.490   2.498
 2889TIP3   OH2 8672   1.381   0.284   1.137
 2889TIP3    H1 8673   1.471   0.267   1.109
 2889TIP3    H2 8674   1.332   0.209   1.105
 2890TIP3   OH2 8675   6.192   5.877   4.872
 2890TIP3    H1 8676   6.249   5.812   4.831
 2890TIP3    H2 8677   6.198   5.954   4.815
 2891TIP3   OH2 8678   1.112   4.990   0.447
 2891TIP3    H1 8679   1.053   4.940   0.503
 2891TIP3    H2 8680   1.195   4.942   0.450
 2892TIP3   OH2 8681   3.357   5.087   2.874
 2892TIP3    H1 8682   3.416   5.142   2.823
 2892TIP3    H2 8683   3.274   5.135   2.874
 2893TIP3   OH2 8684   0.437   1.518   4.675
 2893TIP3    H1 8685   0.500   1.452   4.648
 2893TIP3    H2 8686   0.477   1.601   4.648
 2894TIP3   OH2 8687   1.890   5.976   4.125
 2894TIP3    H1 8688   1.872   5.892   4.166
 2894TIP3    H2 8689   1.956   6.016   4.180
 2895TIP3   OH2 8690   5.935   5.775   1.437
 2895TIP3    H1 8691   5.876   5.785   1.362
 2895TIP3    H2 8692   5.993   5.851   1.433
 2896TIP3   OH2 8693   3.862   4.140   0.356
 2896TIP3    H1 8694   3.958   4.144   0.359
 2896TIP3    H2 8695   3.839   4.067   0.413
 2897TIP3   OH2 8696   6.206   3.962   3.972
 2897TIP3    H1 8697   6.241   4.013   3.899
 2897TIP3    H2 8698   6.238   4.006   4.050
 2898TIP3   OH2 8699   3.776   4.613   3.836
 2898TIP3    H1 8700   3.727   4.687   3.872
 2898TIP3    H2 8701   3.736   4.598   3.751
 2899TIP3   OH2 8702   2.595   5.085   3.584
 2899TIP3    H1 8703   2.639   5.001   3.572
 2899TIP3    H2 8704   2.579   5.117   3.495
 2900TIP3   OH2 8705   1.239   5.121   4.184
 2900TIP3    H1 8706   1.331   5.094   4.184
 2900TIP3    H2 8707   1.242   5.212   4.214
 2901TIP3   OH2 8708   0.693   1.467   1.144
 2901TIP3    H1 8709   0.752   1.438   1.213
 2901TIP3    H2 8710   0.746   1.522   1.087
 2902TIP3   OH2 8711   5.653   3.923   4.565
 2902TIP3    H1 8712   5.657   3.879   4.480
 2902TIP3    H2 8713   5.622   4.011   4.545
 2903TIP3   OH2 8714   2.354   0.037   2.732
 2903TIP3    H1 8715   2.427   0.069   2.786
 2903TIP3    H2 8716   2.336   0.109   2.671
 2904TIP3   OH2 8717   2.591   2.433   2.255
 2904TIP3    H1 8718   2.593   2.494   2.328
 2904TIP3    H2 8719   2.672   2.383   2.263
 2905TIP3   OH2 8720   5.744   2.414   2.092
 2905TIP3    H1 8721   5.686   2.483   2.126
 2905TIP3    H2 8722   5.764   2.441   2.003
 2906TIP3   OH2 8723   6.086   0.978   0.365
 2906TIP3    H1 8724   6.132   1.025   0.434
 2906TIP3    H2 8725   6.095   0.885   0.389
 2907TIP3   OH2 8726   5.683   4.872   2.726
 2907TIP3    H1 8727   5.762   4.854   2.776
 2907TIP3    H2 8728   5.713   4.925   2.652
 2908TIP3   OH2 8729   1.957   5.002   4.278
 2908TIP3    H1 8730   1.997   4.972   4.360
 2908TIP3    H2 8731   2.023   4.985   4.211
 2909TIP3   OH2 8732   1.651   4.907   1.365
 2909TIP3    H1 8733   1.655   5.001   1.343
 2909TIP3    H2 8734   1.568   4.878   1.327
 2910TIP3   OH2 8735   0.240   3.571   0.830
 2910TIP3    H1 8736   0.333   3.551   0.827
 2910TIP3    H2 8737   0.214   3.580   0.738
 2911TIP3   OH2 8738   2.771   3.270   2.548
 2911TIP3    H1 8739   2.741   3.281   2.638
 2911TIP3    H2 8740   2.734   3.345   2.501
 2912TIP3   OH2 8741   4.390   2.709   0.743
 2912TIP3    H1 8742   4.379   2.687   0.651
 2912TIP3    H2 8743   4.415   2.626   0.785
 2913TIP3   OH2 8744   5.348   1.537   2.741
 2913TIP3    H1 8745   5.293   1.499   2.808
 2913TIP3    H2 8746   5.309   1.510   2.658
 2914TIP3   OH2 8747   2.128   2.149   4.463
 2914TIP3    H1 8748   2.209   2.197   4.483
 2914TIP3    H2 8749   2.081   2.146   4.546
 2915TIP3   OH2 8750   5.381   3.097   4.363
 2915TIP3    H1 8751   5.432   3.055   4.294
 2915TIP3    H2 8752   5.355   3.182   4.325
 2916TIP3   OH2 8753   4.577   0.803   0.031
 2916TIP3    H1 8754   4.636   0.781   0.102
 2916TIP3    H2 8755   4.519   0.728   0.023
 2917TIP3   OH2 8756   2.419   3.436   1.098
 2917TIP3    H1 8757   2.511   3.446   1.120
 2917TIP3    H2 8758   2.418   3.425   1.002
 2918TIP3   OH2 8759   4.999   3.926   1.294
 2918TIP3    H1 8760   4.922   3.981   1.307
 2918TIP3    H2 8761   5.013   3.883   1.378
 2919TIP3   OH2 8762   0.705   3.837   0.271
 2919TIP3    H1 8763   0.697   3.916   0.217
 2919TIP3    H2 8764   0.786   3.795   0.241
 2920TIP3   OH2 8765   1.632   2.358   0.537
 2920TIP3    H1 8766   1.560   2.407   0.577
 2920TIP3    H2 8767   1.703   2.365   0.601
 2921TIP3   OH2 8768   5.016   1.994   1.299
 2921TIP3    H1 8769   4.941   1.936   1.310
 2921TIP3    H2 8770   4.982   2.081   1.320
 2922TIP3   OH2 8771   5.589   0.811   3.325
 2922TIP3    H1 8772   5.666   0.830   3.378
 2922TIP3    H2 8773   5.571   0.718   3.339
 2923TIP3   OH2 8774   0.066   4.087   4.433
 2923TIP3    H1 8775   0.110   4.172   4.424
 2923TIP3    H2 8776   0.135   4.028   4.465
 2924TIP3   OH2 8777   3.417   3.218   2.618
 2924TIP3    H1 8778   3.467   3.226   2.537
 2924TIP3    H2 8779   3.460   3.277   2.679
 2925TIP3   OH2 8780   3.130   1.567   2.852
 2925TIP3    H1 8781   3.181   1.599   2.777
 2925TIP3    H2 8782   3.196   1.548   2.919
 2926TIP3   OH2 8783   2.518   5.471   5.030
 2926TIP3    H1 8784   2.565   5.539   4.982
 2926TIP3    H2 8785   2.444   5.516   5.071
 2927TIP3   OH2 8786   3.311   1.152   2.262
 2927TIP3    H1 8787   3.304   1.166   2.167
 2927TIP3    H2 8788   3.380   1.086   2.271
 2928TIP3   OH2 8789   3.428   1.778   3.276
 2928TIP3    H1 8790   3.486   1.782   3.200
 2928TIP3    H2 8791   3.485   1.759   3.350
 2929TIP3   OH2 8792   0.387   4.971   0.883
 2929TIP3    H1 8793   0.360   4.920   0.960
 2929TIP3    H2 8794   0.311   4.970   0.825
 2930TIP3   OH2 8795   5.115   3.621   4.975
 2930TIP3    H1 8796   5.188   3.669   5.015
 2930TIP3    H2 8797   5.040   3.641   5.030
 2931TIP3   OH2 8798   3.500   0.033   3.645
 2931TIP3    H1 8799   3.505   0.048   3.550
 2931TIP3    H2 8800   3.565  -0.035   3.661
 2932TIP3   OH2 8801   6.096   2.394   0.955
 2932TIP3    H1 8802   6.143   2.329   1.008
 2932TIP3    H2 8803   6.161   2.463   0.940
 2933TIP3   OH2 8804   2.171   4.241   3.702
 2933TIP3    H1 8805   2.173   4.279   3.614
 2933TIP3    H2 8806   2.256   4.198   3.711
 2934TIP3   OH2 8807   5.278   5.394   4.701
 2934TIP3    H1 8808   5.339   5.360   4.635
 2934TIP3    H2 8809   5.308   5.484   4.717
 2935TIP3   OH2 8810   6.197   4.729   4.167
 2935TIP3    H1 8811   6.108   4.758   4.187
 2935TIP3    H2 8812   6.188   4.638   4.140
 2936TIP3   OH2 8813   3.212   4.068   2.743
 2936TIP3    H1 8814   3.140   4.131   2.733
 2936TIP3    H2 8815   3.204   4.038   2.834
 2937TIP3   OH2 8816   1.479   5.046   3.005
 2937TIP3    H1 8817   1.542   5.089   3.063
 2937TIP3    H2 8818   1.512   5.063   2.917
 2938TIP3   OH2 8819   3.780   3.515   2.835
 2938TIP3    H1 8820   3.845   3.539   2.901
 2938TIP3    H2 8821   3.799   3.572   2.761
 2939TIP3   OH2 8822   5.132   0.307   0.507
 2939TIP3    H1 8823   5.093   0.242   0.448
 2939TIP3    H2 8824   5.195   0.354   0.452
 2940TIP3   OH2 8825   3.993   4.529   0.538
 2940TIP3    H1 8826   3.938   4.593   0.492
 2940TIP3    H2 8827   4.045   4.488   0.468
 2941TIP3   OH2 8828   3.362   5.800   1.214
 2941TIP3    H1 8829   3.322   5.747   1.146
 2941TIP3    H2 8830   3.298   5.869   1.232
 2942TIP3   OH2 8831   3.845   3.868   0.460
 2942TIP3    H1 8832   3.793   3.930   0.512
 2942TIP3    H2 8833   3.790   3.790   0.454
 2943TIP3   OH2 8834   3.938   5.933   0.713
 2943TIP3    H1 8835   3.863   5.978   0.754
 2943TIP3    H2 8836   3.937   5.846   0.752
 2944TIP3   OH2 8837   5.027   2.924   2.730
 2944TIP3    H1 8838   5.049   2.832   2.746
 2944TIP3    H2 8839   5.104   2.973   2.758
 2945TIP3   OH2 8840   1.919   3.705   3.467
 2945TIP3    H1 8841   1.867   3.722   3.545
 2945TIP3    H2 8842   1.855   3.677   3.401
 2946TIP3   OH2 8843   5.221   2.122   3.066
 2946TIP3    H1 8844   5.253   2.194   3.013
 2946TIP3    H2 8845   5.154   2.161   3.122
 2947TIP3   OH2 8846   5.362   0.187   2.148
 2947TIP3    H1 8847   5.390   0.112   2.202
 2947TIP3    H2 8848   5.367   0.262   2.207
 2948TIP3   OH2 8849   5.623   0.952   3.091
 2948TIP3    H1 8850   5.653   0.898   3.017
 2948TIP3    H2 8851   5.596   0.889   3.157
 2949TIP3   OH2 8852   5.318   2.677   3.380
 2949TIP3    H1 8853   5.340   2.740   3.449
 2949TIP3    H2 8854   5.393   2.680   3.321
 2950TIP3   OH2 8855   3.197   3.176   0.626
 2950TIP3    H1 8856   3.158   3.101   0.670
 2950TIP3    H2 8857   3.251   3.219   0.693
 2951TIP3   OH2 8858   0.265   4.636   1.592
 2951TIP3    H1 8859   0.259   4.591   1.507
 2951TIP3    H2 8860   0.174   4.651   1.617
 2952TIP3   OH2 8861   3.747   5.112   4.126
 2952TIP3    H1 8862   3.670   5.067   4.161
 2952TIP3    H2 8863   3.750   5.195   4.174
 2953TIP3   OH2 8864   5.810   5.688   2.612
 2953TIP3    H1 8865   5.764   5.766   2.642
 2953TIP3    H2 8866   5.771   5.616   2.661
 2954TIP3   OH2 8867   4.913   0.579   1.776
 2954TIP3    H1 8868   4.937   0.495   1.736
 2954TIP3    H2 8869   4.918   0.642   1.704
 2955TIP3   OH2 8870   0.271   4.050   3.444
 2955TIP3    H1 8871   0.230   4.054   3.531
 2955TIP3    H2 8872   0.223   4.115   3.392
 2956TIP3   OH2 8873   5.752   5.611   4.772
 2956TIP3    H1 8874   5.789   5.617   4.684
 2956TIP3    H2 8875   5.801   5.675   4.823
 2957TIP3   OH2 8876   0.264   5.723   1.839
 2957TIP3    H1 8877   0.206   5.671   1.894
 2957TIP3    H2 8878   0.208   5.756   1.769
 2958TIP3   OH2 8879   1.306   1.324   2.822
 2958TIP3    H1 8880   1.300   1.404   2.874
 2958TIP3    H2 8881   1.250   1.261   2.867
 2959TIP3   OH2 8882   1.016   4.398   3.363
 2959TIP3    H1 8883   1.069   4.462   3.410
 2959TIP3    H2 8884   0.981   4.341   3.431
 2960TIP3   OH2 8885   3.836   0.945   5.126
 2960TIP3    H1 8886   3.914   1.001   5.132
 2960TIP3    H2 8887   3.829   0.924   5.033
 2961TIP3   OH2 8888   5.037   1.492   1.198
 2961TIP3    H1 8889   5.089   1.500   1.278
 2961TIP3    H2 8890   5.097   1.455   1.133
 2962TIP3   OH2 8891   4.377   2.589   4.992
 2962TIP3    H1 8892   4.321   2.654   4.950
 2962TIP3    H2 8893   4.349   2.590   5.084
 2963TIP3   OH2 8894   4.835   4.085   3.711
 2963TIP3    H1 8895   4.798   4.172   3.730
 2963TIP3    H2 8896   4.874   4.094   3.624
 2964TIP3   OH2 8897   3.034   4.835   1.296
 2964TIP3    H1 8898   2.987   4.916   1.315
 2964TIP3    H2 8899   3.097   4.826   1.368
 2965TIP3   OH2 8900   3.427   4.379   4.356
 2965TIP3    H1 8901   3.424   4.424   4.271
 2965TIP3    H2 8902   3.511   4.407   4.394
 2966TIP3   OH2 8903   3.363   3.005   4.429
 2966TIP3    H1 8904   3.389   2.971   4.344
 2966TIP3    H2 8905   3.360   3.100   4.417
 2967TIP3   OH2 8906   3.798  -0.011   4.844
 2967TIP3    H1 8907   3.847   0.063   4.879
 2967TIP3    H2 8908   3.767   0.018   4.758
 2968TIP3   OH2 8909   3.684   1.677   1.951
 2968TIP3    H1 8910   3.634   1.649   2.028
 2968TIP3    H2 8911   3.656   1.617   1.881
 2969TIP3   OH2 8912   1.003   1.063   3.642
 2969TIP3    H1 8913   1.097   1.055   3.659
 2969TIP3    H2 8914   0.981   1.151   3.671
 2970TIP3   OH2 8915   2.614   2.536   4.081
 2970TIP3    H1 8916   2.571   2.550   4.165
 2970TIP3    H2 8917   2.575   2.455   4.047
 2971TIP3   OH2 8918   0.846   5.239   0.505
 2971TIP3    H1 8919   0.812   5.305   0.565
 2971TIP3    H2 8920   0.931   5.273   0.477
 2972TIP3   OH2 8921   3.099   0.880   3.144
 2972TIP3    H1 8922   3.125   0.800   3.099
 2972TIP3    H2 8923   3.127   0.867   3.235
 2973TIP3   OH2 8924   4.130   5.048   1.219
 2973TIP3    H1 8925   4.087   4.984   1.276
 2973TIP3    H2 8926   4.061   5.081   1.162
 2974TIP3   OH2 8927   1.229   0.635   4.218
 2974TIP3    H1 8928   1.206   0.674   4.133
 2974TIP3    H2 8929   1.204   0.543   4.210
 2975TIP3   OH2 8930   6.041   3.484   3.448
 2975TIP3    H1 8931   6.057   3.463   3.541
 2975TIP3    H2 8932   6.080   3.571   3.436
 2976TIP3   OH2 8933   3.191   3.339   1.024
 2976TIP3    H1 8934   3.171   3.409   1.087
 2976TIP3    H2 8935   3.154   3.370   0.942
 2977TIP3   OH2 8936   4.430   0.401   0.212
 2977TIP3    H1 8937   4.339   0.396   0.185
 2977TIP3    H2 8938   4.452   0.494   0.204
 2978TIP3   OH2 8939   3.809   4.887   2.941
 2978TIP3    H1 8940   3.860   4.870   3.020
 2978TIP3    H2 8941   3.874   4.899   2.872
 2979TIP3   OH2 8942   2.628   3.766   4.910
 2979TIP3    H1 8943   2.668   3.772   4.823
 2979TIP3    H2 8944   2.594   3.677   4.914
 2980TIP3   OH2 8945   2.704   0.716   4.176
 2980TIP3    H1 8946   2.649   0.743   4.103
 2980TIP3    H2 8947   2.776   0.779   4.177
 2981TIP3   OH2 8948   3.083   2.551   5.224
 2981TIP3    H1 8949   3.160   2.576   5.172
 2981TIP3    H2 8950   3.009   2.559   5.163
 2982TIP3   OH2 8951   5.770   5.294   1.773
 2982TIP3    H1 8952   5.734   5.232   1.710
 2982TIP3    H2 8953   5.863   5.297   1.754
 2983TIP3   OH2 8954   6.227   1.254   1.724
 2983TIP3    H1 8955   6.270   1.197   1.661
 2983TIP3    H2 8956   6.259   1.342   1.702
 2984TIP3   OH2 8957   4.082   5.357   4.199
 2984TIP3    H1 8958   4.097   5.432   4.142
 2984TIP3    H2 8959   4.124   5.284   4.154
 2985TIP3   OH2 8960   0.458   3.423   0.234
 2985TIP3    H1 8961   0.514   3.402   0.159
 2985TIP3    H2 8962   0.468   3.517   0.246
 2986TIP3   OH2 8963   1.053   2.973   1.522
 2986TIP3    H1 8964   1.144   2.949   1.540
 2986TIP3    H2 8965   1.060   3.052   1.467
 2987TIP3   OH2 8966   3.174   3.823   4.419
 2987TIP3    H1 8967   3.254   3.872   4.437
 2987TIP3    H2 8968   3.104   3.887   4.431
 2988TIP3   OH2 8969   0.790   1.535   2.177
 2988TIP3    H1 8970   0.879   1.547   2.143
 2988TIP3    H2 8971   0.735   1.589   2.121
 2989TIP3   OH2 8972   5.810   5.876   2.875
 2989TIP3    H1 8973   5.833   5.850   2.964
 2989TIP3    H2 8974   5.892   5.871   2.826
 2990TIP3   OH2 8975   0.148   5.328   3.576
 2990TIP3    H1 8976   0.120   5.408   3.531
 2990TIP3    H2 8977   0.183   5.272   3.506
 2991TIP3   OH2 8978   1.914   0.604   0.801
 2991TIP3    H1 8979   1.985   0.620   0.862
 2991TIP3    H2 8980   1.880   0.518   0.825
 2992TIP3   OH2 8981   3.574   0.253   4.604
 2992TIP3    H1 8982   3.521   0.240   4.525
 2992TIP3    H2 8983   3.517   0.304   4.662
 2993TIP3   OH2 8984   5.925   5.254   3.702
 2993TIP3    H1 8985   5.948   5.215   3.786
 2993TIP3    H2 8986   6.005   5.250   3.651
 2994TIP3   OH2 8987   2.683   3.772   0.909
 2994TIP3    H1 8988   2.721   3.797   0.993
 2994TIP3    H2 8989   2.593   3.807   0.912
 2995TIP3   OH2 8990   3.302   0.943   2.088
 2995TIP3    H1 8991   3.222   0.973   2.045
 2995TIP3    H2 8992   3.358   0.913   2.017
 2996TIP3   OH2 8993   1.625   3.806   0.178
 2996TIP3    H1 8994   1.634   3.896   0.147
 2996TIP3    H2 8995   1.540   3.777   0.144
 2997TIP3   OH2 8996   3.178   1.579   2.024
 2997TIP3    H1 8997   3.107   1.555   2.083
 2997TIP3    H2 8998   3.205   1.497   1.983
 2998TIP3   OH2 8999   3.686   3.110   4.885
 2998TIP3    H1 9000   3.625   3.133   4.815
 2998TIP3    H2 9001   3.732   3.033   4.853
 2999TIP3   OH2 9002   4.774   0.055   2.864
 2999TIP3    H1 9003   4.690   0.008   2.858
 2999TIP3    H2 9004   4.773   0.095   2.951
 3000TIP3   OH2 9005   3.741   1.535   1.129
 3000TIP3    H1 9006   3.751   1.440   1.133
 3000TIP3    H2 9007   3.794   1.562   1.054
 3001TIP3   OH2 9008   1.787   0.299   4.732
 3001TIP3    H1 9009   1.807   0.393   4.737
 3001TIP3    H2 9010   1.873   0.257   4.729
 3002TIP3   OH2 9011   1.455   4.238   3.806
 3002TIP3    H1 9012   1.360   4.243   3.821
 3002TIP3    H2 9013   1.478   4.322   3.768
 3003TIP3   OH2 9014   1.082   4.113   0.931
 3003TIP3    H1 9015   1.118   4.040   0.981
 3003TIP3    H2 9016   1.011   4.074   0.880
 3004TIP3   OH2 9017   3.995   0.446   3.564
 3004TIP3    H1 9018   4.066   0.394   3.528
 3004TIP3    H2 9019   3.983   0.517   3.501
 3005TIP3   OH2 9020   3.907   3.631   4.659
 3005TIP3    H1 9021   3.897   3.603   4.750
 3005TIP3    H2 9022   3.863   3.562   4.608
 3006TIP3   OH2 9023   3.646   5.454   4.758
 3006TIP3    H1 9024   3.601   5.377   4.723
 3006TIP3    H2 9025   3.721   5.419   4.806
 3007TIP3   OH2 9026   5.457   5.393   3.626
 3007TIP3    H1 9027   5.542   5.359   3.599
 3007TIP3    H2 9028   5.413   5.416   3.544
 3008TIP3   OH2 9029   0.601   2.119   4.820
 3008TIP3    H1 9030   0.661   2.061   4.772
 3008TIP3    H2 9031   0.606   2.089   4.911
 3009TIP3   OH2 9032   3.014   0.151   0.759
 3009TIP3    H1 9033   3.015   0.222   0.694
 3009TIP3    H2 9034   3.106   0.127   0.769
 3010TIP3   OH2 9035   2.513   2.409   0.652
 3010TIP3    H1 9036   2.556   2.374   0.730
 3010TIP3    H2 9037   2.496   2.333   0.597
 3011TIP3   OH2 9038   3.079   2.107   1.015
 3011TIP3    H1 9039   3.113   2.049   0.946
 3011TIP3    H2 9040   2.997   2.065   1.042
 3012TIP3   OH2 9041   2.774   2.816   2.553
 3012TIP3    H1 9042   2.817   2.799   2.469
 3012TIP3    H2 9043   2.706   2.880   2.532
 3013TIP3   OH2 9044   1.642   5.768   1.340
 3013TIP3    H1 9045   1.688   5.848   1.313
 3013TIP3    H2 9046   1.639   5.715   1.260
 3014TIP3   OH2 9047   2.173   2.916   0.417
 3014TIP3    H1 9048   2.139   2.827   0.414
 3014TIP3    H2 9049   2.218   2.927   0.333
 3015TIP3   OH2 9050   1.804   2.328   3.134
 3015TIP3    H1 9051   1.831   2.285   3.052
 3015TIP3    H2 9052   1.878   2.313   3.193
 3016TIP3   OH2 9053   3.106   5.298   2.349
 3016TIP3    H1 9054   3.063   5.350   2.417
 3016TIP3    H2 9055   3.157   5.362   2.299
 3017TIP3   OH2 9056   0.751   5.914   4.486
 3017TIP3    H1 9057   0.755   6.004   4.451
 3017TIP3    H2 9058   0.809   5.864   4.429
 3018TIP3   OH2 9059   2.404   0.796   4.339
 3018TIP3    H1 9060   2.419   0.719   4.284
 3018TIP3    H2 9061   2.445   0.868   4.292
 3019TIP3   OH2 9062   3.083   3.095   1.077
 3019TIP3    H1 9063   3.145   3.058   1.015
 3019TIP3    H2 9064   3.077   3.188   1.053
 3020TIP3   OH2 9065   3.235   4.667   2.508
 3020TIP3    H1 9066   3.265   4.756   2.524
 3020TIP3    H2 9067   3.181   4.674   2.429
 3021TIP3   OH2 9068   0.476   4.186   1.025
 3021TIP3    H1 9069   0.508   4.161   1.112
 3021TIP3    H2 9070   0.457   4.103   0.981
 3022TIP3   OH2 9071   6.104   0.897   1.770
 3022TIP3    H1 9072   6.057   0.968   1.726
 3022TIP3    H2 9073   6.118   0.832   1.701
 3023TIP3   OH2 9074   6.258   5.212   3.224
 3023TIP3    H1 9075   6.169   5.180   3.211
 3023TIP3    H2 9076   6.301   5.143   3.275
 3024TIP3   OH2 9077   1.682   3.137   1.498
 3024TIP3    H1 9078   1.746   3.181   1.555
 3024TIP3    H2 9079   1.634   3.209   1.456
 3025TIP3   OH2 9080   1.135   2.222   2.440
 3025TIP3    H1 9081   1.059   2.199   2.387
 3025TIP3    H2 9082   1.153   2.144   2.492
 3026TIP3   OH2 9083   1.108   2.940   3.193
 3026TIP3    H1 9084   1.051   2.964   3.267
 3026TIP3    H2 9085   1.060   2.967   3.116
 3027TIP3   OH2 9086   1.988   0.732   1.085
 3027TIP3    H1 9087   1.938   0.782   1.149
 3027TIP3    H2 9088   1.990   0.643   1.120
 3028TIP3   OH2 9089   0.624   1.838   3.842
 3028TIP3    H1 9090   0.641   1.910   3.781
 3028TIP3    H2 9091   0.551   1.869   3.895
 3029TIP3   OH2 9092   5.423   1.527   0.218
 3029TIP3    H1 9093   5.361   1.464   0.180
 3029TIP3    H2 9094   5.503   1.515   0.167
 3030TIP3   OH2 9095   4.620   0.162   4.690
 3030TIP3    H1 9096   4.617   0.090   4.754
 3030TIP3    H2 9097   4.709   0.158   4.654
 3031TIP3   OH2 9098   5.277   1.541   0.853
 3031TIP3    H1 9099   5.216   1.486   0.803
 3031TIP3    H2 9100   5.363   1.508   0.829
 3032TIP3   OH2 9101   3.444   2.572   2.737
 3032TIP3    H1 9102   3.497   2.592   2.815
 3032TIP3    H2 9103   3.425   2.657   2.699
 3033TIP3   OH2 9104   3.368   2.846   5.109
 3033TIP3    H1 9105   3.313   2.922   5.089
 3033TIP3    H2 9106   3.400   2.862   5.198
 3034TIP3   OH2 9107   3.321   1.962   5.159
 3034TIP3    H1 9108   3.246   2.013   5.129
 3034TIP3    H2 9109   3.378   1.956   5.083
 3035TIP3   OH2 9110   3.511   1.813   1.055
 3035TIP3    H1 9111   3.424   1.836   1.088
 3035TIP3    H2 9112   3.564   1.802   1.134
 3036TIP3   OH2 9113   1.979   4.285   4.320
 3036TIP3    H1 9114   2.073   4.297   4.335
 3036TIP3    H2 9115   1.941   4.282   4.408
 3037TIP3   OH2 9116   2.085   4.436   1.948
 3037TIP3    H1 9117   2.160   4.494   1.939
 3037TIP3    H2 9118   2.116   4.365   2.005
 3038TIP3   OH2 9119   3.485   4.920   0.296
 3038TIP3    H1 9120   3.534   4.974   0.234
 3038TIP3    H2 9121   3.394   4.943   0.280
 3039TIP3   OH2 9122   1.819   4.885   0.846
 3039TIP3    H1 9123   1.880   4.955   0.868
 3039TIP3    H2 9124   1.826   4.824   0.919
 3040TIP3   OH2 9125   1.425   2.181   3.419
 3040TIP3    H1 9126   1.365   2.148   3.352
 3040TIP3    H2 9127   1.512   2.170   3.379
 3041TIP3   OH2 9128   0.593   2.040   5.114
 3041TIP3    H1 9129   0.509   2.081   5.136
 3041TIP3    H2 9130   0.658   2.091   5.163
 3042TIP3   OH2 9131   4.116   3.687   1.343
 3042TIP3    H1 9132   4.045   3.635   1.381
 3042TIP3    H2 9133   4.142   3.747   1.413
 3043TIP3   OH2 9134   0.689   5.034   4.511
 3043TIP3    H1 9135   0.740   4.993   4.581
 3043TIP3    H2 9136   0.605   5.055   4.551
 3044TIP3   OH2 9137   4.172   3.712   2.319
 3044TIP3    H1 9138   4.192   3.778   2.386
 3044TIP3    H2 9139   4.257   3.674   2.297
 3045TIP3   OH2 9140   2.742   3.837   0.460
 3045TIP3    H1 9141   2.648   3.836   0.477
 3045TIP3    H2 9142   2.781   3.802   0.540
 3046TIP3   OH2 9143   2.343   4.760   0.500
 3046TIP3    H1 9144   2.308   4.678   0.535
 3046TIP3    H2 9145   2.276   4.825   0.518
 3047TIP3   OH2 9146   5.882   5.540   1.186
 3047TIP3    H1 9147   5.857   5.509   1.099
 3047TIP3    H2 9148   5.819   5.609   1.206
 3048TIP3   OH2 9149   0.713   1.492   0.042
 3048TIP3    H1 9150   0.706   1.407   0.085
 3048TIP3    H2 9151   0.664   1.552   0.097
 3049TIP3   OH2 9152   3.119   5.765   2.059
 3049TIP3    H1 9153   3.207   5.768   2.024
 3049TIP3    H2 9154   3.063   5.745   1.983
 3050TIP3   OH2 9155   0.337   4.110   4.562
 3050TIP3    H1 9156   0.299   4.156   4.637
 3050TIP3    H2 9157   0.356   4.179   4.499
 3051TIP3   OH2 9158   0.580   0.635   1.750
 3051TIP3    H1 9159   0.537   0.571   1.694
 3051TIP3    H2 9160   0.672   0.631   1.726
 3052TIP3   OH2 9161   2.108   0.325   0.776
 3052TIP3    H1 9162   2.106   0.342   0.870
 3052TIP3    H2 9163   2.142   0.406   0.737
 3053TIP3   OH2 9164   4.669   1.667   1.559
 3053TIP3    H1 9165   4.615   1.647   1.483
 3053TIP3    H2 9166   4.750   1.618   1.545
 3054TIP3   OH2 9167   2.157   0.774   2.840
 3054TIP3    H1 9168   2.093   0.828   2.793
 3054TIP3    H2 9169   2.240   0.790   2.795
 3055TIP3   OH2 9170   3.739   3.436   4.465
 3055TIP3    H1 9171   3.742   3.352   4.419
 3055TIP3    H2 9172   3.697   3.417   4.548
 3056TIP3   OH2 9173   1.267   4.494   1.763
 3056TIP3    H1 9174   1.317   4.416   1.738
 3056TIP3    H2 9175   1.322   4.540   1.826
 3057TIP3   OH2 9176   2.747   1.098   0.566
 3057TIP3    H1 9177   2.823   1.156   0.564
 3057TIP3    H2 9178   2.724   1.090   0.658
 3058TIP3   OH2 9179   5.686   1.766   0.118
 3058TIP3    H1 9180   5.712   1.706   0.188
 3058TIP3    H2 9181   5.595   1.788   0.138
 3059TIP3   OH2 9182   1.130   3.747   2.784
 3059TIP3    H1 9183   1.086   3.675   2.829
 3059TIP3    H2 9184   1.080   3.824   2.808
 3060TIP3   OH2 9185   2.427   2.873   1.937
 3060TIP3    H1 9186   2.400   2.795   1.986
 3060TIP3    H2 9187   2.442   2.842   1.848
 3061TIP3   OH2 9188   4.013   2.796   4.037
 3061TIP3    H1 9189   4.095   2.749   4.024
 3061TIP3    H2 9190   3.977   2.807   3.949
 3062TIP3   OH2 9191   1.105   1.041   1.264
 3062TIP3    H1 9192   1.123   1.077   1.351
 3062TIP3    H2 9193   1.132   0.950   1.270
 3063TIP3   OH2 9194   0.950   0.634   2.356
 3063TIP3    H1 9195   0.927   0.719   2.319
 3063TIP3    H2 9196   1.030   0.608   2.311
 3064TIP3   OH2 9197   2.693   3.078   1.494
 3064TIP3    H1 9198   2.683   2.987   1.468
 3064TIP3    H2 9199   2.610   3.120   1.470
 3065TIP3   OH2 9200   4.218   0.658   0.729
 3065TIP3    H1 9201   4.212   0.747   0.763
 3065TIP3    H2 9202   4.248   0.605   0.803
 3066TIP3   OH2 9203   1.832   1.181   4.167
 3066TIP3    H1 9204   1.898   1.247   4.187
 3066TIP3    H2 9205   1.752   1.215   4.207
 3067TIP3   OH2 9206   0.795   5.389   3.634
 3067TIP3    H1 9207   0.874   5.345   3.604
 3067TIP3    H2 9208   0.826   5.456   3.694
 3068TIP3   OH2 9209   0.474   1.804   4.640
 3068TIP3    H1 9210   0.440   1.881   4.685
 3068TIP3    H2 9211   0.457   1.820   4.547
 3069TIP3   OH2 9212   0.118   1.325   0.644
 3069TIP3    H1 9213   0.128   1.364   0.730
 3069TIP3    H2 9214   0.183   1.369   0.589
 3070TIP3   OH2 9215   4.102   4.288   0.916
 3070TIP3    H1 9216   4.168   4.329   0.973
 3070TIP3    H2 9217   4.019   4.306   0.959
 3071TIP3   OH2 9218   1.679   0.840   2.238
 3071TIP3    H1 9219   1.659   0.893   2.315
 3071TIP3    H2 9220   1.741   0.892   2.188
 3072TIP3   OH2 9221   1.337   5.188   3.780
 3072TIP3    H1 9222   1.250   5.174   3.818
 3072TIP3    H2 9223   1.345   5.121   3.712
 3073TIP3   OH2 9224   0.144   3.152   0.011
 3073TIP3    H1 9225   0.196   3.076   0.037
 3073TIP3    H2 9226   0.125   3.197   0.093
 3074TIP3   OH2 9227   5.447   4.949   2.860
 3074TIP3    H1 9228   5.531   4.978   2.824
 3074TIP3    H2 9229   5.471   4.884   2.927
 3075TIP3   OH2 9230   1.006   1.206   4.254
 3075TIP3    H1 9231   0.921   1.210   4.299
 3075TIP3    H2 9232   1.065   1.258   4.308
 3076TIP3   OH2 9233   3.653   3.058   1.034
 3076TIP3    H1 9234   3.649   3.128   1.100
 3076TIP3    H2 9235   3.713   2.994   1.072
 3077TIP3   OH2 9236   2.451   1.564   1.291
 3077TIP3    H1 9237   2.504   1.596   1.364
 3077TIP3    H2 9238   2.374   1.524   1.333
 3078TIP3   OH2 9239   3.008   1.217   0.588
 3078TIP3    H1 9240   3.052   1.135   0.567
 3078TIP3    H2 9241   3.079   1.281   0.595
 3079TIP3   OH2 9242   4.561   0.948   0.828
 3079TIP3    H1 9243   4.620   1.011   0.786
 3079TIP3    H2 9244   4.476   0.991   0.829
 3080TIP3   OH2 9245   4.928   0.091   2.339
 3080TIP3    H1 9246   5.005   0.145   2.359
 3080TIP3    H2 9247   4.948   0.051   2.255
 3081TIP3   OH2 9248   3.301   5.713   0.503
 3081TIP3    H1 9249   3.356   5.641   0.535
 3081TIP3    H2 9250   3.327   5.723   0.411
 3082TIP3   OH2 9251   3.220   5.479   2.158
 3082TIP3    H1 9252   3.176   5.557   2.193
 3082TIP3    H2 9253   3.242   5.503   2.068
 3083TIP3   OH2 9254   0.596   4.847   4.822
 3083TIP3    H1 9255   0.670   4.895   4.785
 3083TIP3    H2 9256   0.625   4.756   4.827
 3084TIP3   OH2 9257   4.916   3.660   5.158
 3084TIP3    H1 9258   4.894   3.752   5.172
 3084TIP3    H2 9259   4.832   3.614   5.164
 3085TIP3   OH2 9260   0.686   2.052   3.688
 3085TIP3    H1 9261   0.655   2.027   3.601
 3085TIP3    H2 9262   0.633   2.128   3.711
 3086TIP3   OH2 9263   4.512   1.553   2.548
 3086TIP3    H1 9264   4.585   1.560   2.487
 3086TIP3    H2 9265   4.528   1.620   2.613
 3087TIP3   OH2 9266   5.096   1.224   5.044
 3087TIP3    H1 9267   5.126   1.282   5.114
 3087TIP3    H2 9268   5.177   1.187   5.008
 3088TIP3   OH2 9269   2.449   0.552   4.174
 3088TIP3    H1 9270   2.424   0.538   4.082
 3088TIP3    H2 9271   2.536   0.592   4.169
 3089TIP3   OH2 9272   1.309   2.129   3.672
 3089TIP3    H1 9273   1.238   2.192   3.681
 3089TIP3    H2 9274   1.364   2.165   3.601
 3090TIP3   OH2 9275   2.161   2.295   3.879
 3090TIP3    H1 9276   2.129   2.328   3.963
 3090TIP3    H2 9277   2.219   2.363   3.847
 3091TIP3   OH2 9278   4.720   1.725   4.255
 3091TIP3    H1 9279   4.689   1.779   4.181
 3091TIP3    H2 9280   4.813   1.711   4.236
 3092TIP3   OH2 9281   1.733   2.886   3.691
 3092TIP3    H1 9282   1.732   2.915   3.782
 3092TIP3    H2 9283   1.662   2.822   3.685
 3093TIP3   OH2 9284   4.787   0.230   1.418
 3093TIP3    H1 9285   4.768   0.158   1.479
 3093TIP3    H2 9286   4.781   0.189   1.332
 3094TIP3   OH2 9287   4.975   0.084   3.938
 3094TIP3    H1 9288   4.932   0.169   3.950
 3094TIP3    H2 9289   4.947   0.031   4.013
 3095TIP3   OH2 9290   4.741   2.129   2.347
 3095TIP3    H1 9291   4.716   2.165   2.432
 3095TIP3    H2 9292   4.686   2.175   2.284
 3096TIP3   OH2 9293   0.545   1.748   3.477
 3096TIP3    H1 9294   0.481   1.790   3.535
 3096TIP3    H2 9295   0.589   1.822   3.434
 3097TIP3   OH2 9296   2.833   4.003   0.894
 3097TIP3    H1 9297   2.755   3.951   0.871
 3097TIP3    H2 9298   2.869   4.031   0.809
 3098TIP3   OH2 9299   3.687   3.864   2.581
 3098TIP3    H1 9300   3.624   3.827   2.644
 3098TIP3    H2 9301   3.752   3.795   2.569
 3099TIP3   OH2 9302   5.530   3.588   4.480
 3099TIP3    H1 9303   5.444   3.630   4.476
 3099TIP3    H2 9304   5.591   3.655   4.450
 3100TIP3   OH2 9305   4.913   0.103   1.198
 3100TIP3    H1 9306   4.983   0.119   1.134
 3100TIP3    H2 9307   4.924   0.011   1.223
 3101TIP3   OH2 9308   0.268   1.593   3.048
 3101TIP3    H1 9309   0.274   1.645   2.968
 3101TIP3    H2 9310   0.175   1.597   3.073
 3102TIP3   OH2 9311   2.327   0.017   3.507
 3102TIP3    H1 9312   2.293   0.042   3.593
 3102TIP3    H2 9313   2.257   0.038   3.446
 3103TIP3   OH2 9314   1.480   0.271   3.397
 3103TIP3    H1 9315   1.520   0.217   3.328
 3103TIP3    H2 9316   1.543   0.342   3.411
 3104TIP3   OH2 9317   2.584   3.172   1.190
 3104TIP3    H1 9318   2.574   3.120   1.270
 3104TIP3    H2 9319   2.501   3.159   1.143
 3105TIP3   OH2 9320   1.944   1.902   3.835
 3105TIP3    H1 9321   1.869   1.868   3.786
 3105TIP3    H2 9322   2.010   1.921   3.768
 3106TIP3   OH2 9323   5.690   0.113   4.516
 3106TIP3    H1 9324   5.599   0.099   4.489
 3106TIP3    H2 9325   5.737   0.036   4.482
 3107TIP3   OH2 9326   5.939   4.191   4.843
 3107TIP3    H1 9327   5.889   4.245   4.783
 3107TIP3    H2 9328   5.986   4.253   4.899
 3108TIP3   OH2 9329   0.097   0.003   2.121
 3108TIP3    H1 9330   0.175  -0.025   2.168
 3108TIP3    H2 9331   0.130   0.042   2.040
 3109TIP3   OH2 9332   5.654   0.269   2.062
 3109TIP3    H1 9333   5.562   0.267   2.087
 3109TIP3    H2 9334   5.701   0.292   2.142
 3110TIP3   OH2 9335   4.708   4.378   0.419
 3110TIP3    H1 9336   4.662   4.446   0.369
 3110TIP3    H2 9337   4.766   4.337   0.355
 3111TIP3   OH2 9338   1.708   5.819   1.988
 3111TIP3    H1 9339   1.651   5.837   2.064
 3111TIP3    H2 9340   1.774   5.888   1.991
 3112TIP3   OH2 9341   1.661   0.351   3.724
 3112TIP3    H1 9342   1.676   0.397   3.641
 3112TIP3    H2 9343   1.749   0.336   3.759
 3113TIP3   OH2 9344   4.769   5.914   3.411
 3113TIP3    H1 9345   4.776   5.948   3.322
 3113TIP3    H2 9346   4.712   5.976   3.456
 3114TIP3   OH2 9347   0.727   3.827   1.802
 3114TIP3    H1 9348   0.709   3.765   1.731
 3114TIP3    H2 9349   0.763   3.773   1.872
 3115TIP3   OH2 9350   5.825   2.514   3.046
 3115TIP3    H1 9351   5.775   2.444   3.089
 3115TIP3    H2 9352   5.911   2.512   3.088
 3116TIP3   OH2 9353   3.382   0.199   1.490
 3116TIP3    H1 9354   3.440   0.137   1.446
 3116TIP3    H2 9355   3.367   0.268   1.425
 3117TIP3   OH2 9356   0.256   2.823   0.348
 3117TIP3    H1 9357   0.233   2.890   0.413
 3117TIP3    H2 9358   0.194   2.752   0.364
 3118TIP3   OH2 9359   3.177   2.770   1.815
 3118TIP3    H1 9360   3.236   2.704   1.852
 3118TIP3    H2 9361   3.096   2.761   1.865
 3119TIP3   OH2 9362   0.033   2.872   3.335
 3119TIP3    H1 9363   0.006   2.873   3.243
 3119TIP3    H2 9364  -0.035   2.921   3.380
 3120TIP3   OH2 9365   3.538   3.685   0.326
 3120TIP3    H1 9366   3.590   3.624   0.377
 3120TIP3    H2 9367   3.520   3.758   0.385
 3121TIP3   OH2 9368   4.551   4.932   1.247
 3121TIP3    H1 9369   4.526   4.848   1.208
 3121TIP3    H2 9370   4.645   4.937   1.233
 3122TIP3   OH2 9371   5.125   1.010   1.444
 3122TIP3    H1 9372   5.079   1.034   1.364
 3122TIP3    H2 9373   5.070   1.045   1.515
 3123TIP3   OH2 9374   4.991   0.388   2.133
 3123TIP3    H1 9375   5.082   0.417   2.120
 3123TIP3    H2 9376   4.991   0.297   2.106
 3124TIP3   OH2 9377   5.298   1.038   3.764
 3124TIP3    H1 9378   5.315   1.055   3.856
 3124TIP3    H2 9379   5.345   1.107   3.717
 3125TIP3   OH2 9380   4.383   0.109   2.681
 3125TIP3    H1 9381   4.400   0.202   2.699
 3125TIP3    H2 9382   4.437   0.063   2.745
 3126TIP3   OH2 9383   2.584   1.695   3.984
 3126TIP3    H1 9384   2.579   1.726   3.894
 3126TIP3    H2 9385   2.522   1.622   3.987
 3127TIP3   OH2 9386   2.174   5.316   2.945
 3127TIP3    H1 9387   2.083   5.315   2.973
 3127TIP3    H2 9388   2.176   5.257   2.869
 3128TIP3   OH2 9389   1.867   5.273   4.196
 3128TIP3    H1 9390   1.897   5.184   4.210
 3128TIP3    H2 9391   1.771   5.266   4.192
 3129TIP3   OH2 9392   1.405   0.454   4.706
 3129TIP3    H1 9393   1.393   0.425   4.615
 3129TIP3    H2 9394   1.334   0.412   4.754
 3130TIP3   OH2 9395   5.185   3.294   3.349
 3130TIP3    H1 9396   5.156   3.385   3.343
 3130TIP3    H2 9397   5.280   3.300   3.356
 3131TIP3   OH2 9398   2.528   2.168   2.236
 3131TIP3    H1 9399   2.620   2.142   2.238
 3131TIP3    H2 9400   2.530   2.264   2.236
 3132TIP3   OH2 9401   4.544   3.864   4.276
 3132TIP3    H1 9402   4.497   3.886   4.196
 3132TIP3    H2 9403   4.611   3.932   4.283
 3133TIP3   OH2 9404   0.870   0.480   4.186
 3133TIP3    H1 9405   0.852   0.423   4.111
 3133TIP3    H2 9406   0.787   0.525   4.202
 3134TIP3   OH2 9407   1.944   4.890   4.536
 3134TIP3    H1 9408   1.875   4.825   4.549
 3134TIP3    H2 9409   1.916   4.965   4.587
 3135TIP3   OH2 9410   0.932   5.096   1.182
 3135TIP3    H1 9411   1.001   5.163   1.182
 3135TIP3    H2 9412   0.974   5.017   1.215
 3136TIP3   OH2 9413   4.644   2.008   2.775
 3136TIP3    H1 9414   4.614   2.050   2.856
 3136TIP3    H2 9415   4.739   2.018   2.776
 3137TIP3   OH2 9416   2.739   5.958   1.508
 3137TIP3    H1 9417   2.750   5.898   1.434
 3137TIP3    H2 9418   2.817   6.012   1.507
 3138TIP3   OH2 9419   5.493   3.569   1.159
 3138TIP3    H1 9420   5.525   3.659   1.159
 3138TIP3    H2 9421   5.565   3.518   1.122
 3139TIP3   OH2 9422   3.352   2.159   1.122
 3139TIP3    H1 9423   3.261   2.183   1.105
 3139TIP3    H2 9424   3.347   2.071   1.159
 3140TIP3   OH2 9425   2.469   4.158   4.532
 3140TIP3    H1 9426   2.552   4.111   4.542
 3140TIP3    H2 9427   2.434   4.126   4.448
 3141TIP3   OH2 9428   1.107   1.463   1.743
 3141TIP3    H1 9429   1.058   1.539   1.772
 3141TIP3    H2 9430   1.101   1.401   1.815
 3142TIP3   OH2 9431   5.706   4.623   2.271
 3142TIP3    H1 9432   5.703   4.640   2.366
 3142TIP3    H2 9433   5.661   4.539   2.261
 3143TIP3   OH2 9434   1.159   0.643   3.248
 3143TIP3    H1 9435   1.194   0.563   3.288
 3143TIP3    H2 9436   1.109   0.611   3.172
 3144TIP3   OH2 9437   5.524   3.570   4.103
 3144TIP3    H1 9438   5.613   3.536   4.112
 3144TIP3    H2 9439   5.490   3.573   4.192
 3145TIP3   OH2 9440   4.959   3.866   3.811
 3145TIP3    H1 9441   4.935   3.919   3.735
 3145TIP3    H2 9442   4.877   3.858   3.861
 3146TIP3   OH2 9443   6.174   4.014   1.303
 3146TIP3    H1 9444   6.129   4.060   1.374
 3146TIP3    H2 9445   6.158   4.069   1.225
 3147TIP3   OH2 9446   4.081   3.326   3.871
 3147TIP3    H1 9447   4.016   3.311   3.803
 3147TIP3    H2 9448   4.133   3.245   3.872
 3148TIP3   OH2 9449   3.119   3.405   5.093
 3148TIP3    H1 9450   3.159   3.419   5.007
 3148TIP3    H2 9451   3.129   3.311   5.109
 3149TIP3   OH2 9452   4.286   5.694   3.234
 3149TIP3    H1 9453   4.225   5.716   3.305
 3149TIP3    H2 9454   4.304   5.778   3.191
 3150TIP3   OH2 9455   1.180   4.951   0.844
 3150TIP3    H1 9456   1.159   5.005   0.768
 3150TIP3    H2 9457   1.172   5.010   0.918
 3151TIP3   OH2 9458   1.729   4.789   0.623
 3151TIP3    H1 9459   1.772   4.829   0.699
 3151TIP3    H2 9460   1.720   4.697   0.647
 3152TIP3   OH2 9461   1.463   4.280   2.728
 3152TIP3    H1 9462   1.524   4.224   2.681
 3152TIP3    H2 9463   1.487   4.268   2.820
 3153TIP3   OH2 9464   5.106   4.678   5.067
 3153TIP3    H1 9465   5.131   4.586   5.069
 3153TIP3    H2 9466   5.185   4.724   5.040
 3154TIP3   OH2 9467   1.677   1.368   0.025
 3154TIP3    H1 9468   1.599   1.315   0.045
 3154TIP3    H2 9469   1.662   1.399  -0.064
 3155TIP3   OH2 9470   5.804   2.934   5.090
 3155TIP3    H1 9471   5.857   2.865   5.130
 3155TIP3    H2 9472   5.716   2.899   5.086
 3156TIP3   OH2 9473   0.588   2.030   1.559
 3156TIP3    H1 9474   0.650   1.970   1.600
 3156TIP3    H2 9475   0.619   2.117   1.584
 3157TIP3   OH2 9476   1.138   1.505   2.672
 3157TIP3    H1 9477   1.073   1.520   2.603
 3157TIP3    H2 9478   1.118   1.571   2.738
 3158TIP3   OH2 9479   5.960   5.372   3.434
 3158TIP3    H1 9480   6.047   5.392   3.469
 3158TIP3    H2 9481   5.969   5.381   3.339
 3159TIP3   OH2 9482   1.079   1.750   4.213
 3159TIP3    H1 9483   1.030   1.679   4.255
 3159TIP3    H2 9484   1.163   1.712   4.190
 3160TIP3   OH2 9485   1.229   5.381   4.245
 3160TIP3    H1 9486   1.171   5.456   4.257
 3160TIP3    H2 9487   1.318   5.417   4.253
 3161TIP3   OH2 9488   0.437   4.054   3.186
 3161TIP3    H1 9489   0.475   4.142   3.185
 3161TIP3    H2 9490   0.413   4.039   3.277
 3162TIP3   OH2 9491   5.771   4.310   0.457
 3162TIP3    H1 9492   5.823   4.235   0.429
 3162TIP3    H2 9493   5.806   4.384   0.406
 3163TIP3   OH2 9494   0.657   3.586   3.351
 3163TIP3    H1 9495   0.578   3.533   3.362
 3163TIP3    H2 9496   0.719   3.529   3.306
 3164TIP3   OH2 9497   4.318   5.518   0.000
 3164TIP3    H1 9498   4.395   5.559   0.041
 3164TIP3    H2 9499   4.311   5.433   0.042
 3165TIP3   OH2 9500   0.944   3.805   4.488
 3165TIP3    H1 9501   1.019   3.746   4.501
 3165TIP3    H2 9502   0.868   3.752   4.513
 3166TIP3   OH2 9503   6.034   4.120   1.514
 3166TIP3    H1 9504   5.980   4.046   1.539
 3166TIP3    H2 9505   6.037   4.175   1.592
 3167TIP3   OH2 9506   3.590   5.006   1.165
 3167TIP3    H1 9507   3.607   5.099   1.149
 3167TIP3    H2 9508   3.498   4.993   1.141
 3168TIP3   OH2 9509   2.199   1.828   4.973
 3168TIP3    H1 9510   2.228   1.762   4.909
 3168TIP3    H2 9511   2.104   1.813   4.980
 3169TIP3   OH2 9512   5.561   0.663   0.469
 3169TIP3    H1 9513   5.601   0.737   0.515
 3169TIP3    H2 9514   5.624   0.591   0.481
 3170TIP3   OH2 9515   0.490   3.401   3.103
 3170TIP3    H1 9516   0.402   3.363   3.099
 3170TIP3    H2 9517   0.492   3.449   3.185
 3171TIP3   OH2 9518   4.953   1.143   1.616
 3171TIP3    H1 9519   4.968   1.187   1.700
 3171TIP3    H2 9520   4.915   1.210   1.560
 3172TIP3   OH2 9521   1.601   5.943   0.298
 3172TIP3    H1 9522   1.604   5.994   0.217
 3172TIP3    H2 9523   1.509   5.943   0.323
 3173TIP3   OH2 9524   4.837   0.992   4.733
 3173TIP3    H1 9525   4.792   1.071   4.704
 3173TIP3    H2 9526   4.858   0.945   4.652
 3174TIP3   OH2 9527   2.295   5.727   2.467
 3174TIP3    H1 9528   2.387   5.729   2.494
 3174TIP3    H2 9529   2.293   5.673   2.389
 3175TIP3   OH2 9530   5.251   1.960   1.142
 3175TIP3    H1 9531   5.318   2.021   1.172
 3175TIP3    H2 9532   5.183   1.965   1.209
 3176TIP3   OH2 9533   4.925   0.883   1.743
 3176TIP3    H1 9534   4.903   0.818   1.676
 3176TIP3    H2 9535   4.915   0.967   1.699
 3177TIP3   OH2 9536   1.143   3.917   2.114
 3177TIP3    H1 9537   1.130   3.898   2.207
 3177TIP3    H2 9538   1.187   3.838   2.080
 3178TIP3   OH2 9539   2.332   5.020   1.321
 3178TIP3    H1 9540   2.363   5.063   1.401
 3178TIP3    H2 9541   2.244   4.989   1.344
 3179TIP3   OH2 9542   3.088   0.503   4.173
 3179TIP3    H1 9543   3.165   0.505   4.230
 3179TIP3    H2 9544   3.103   0.573   4.109
 3180TIP3   OH2 9545   2.182   3.375   4.049
 3180TIP3    H1 9546   2.121   3.342   4.115
 3180TIP3    H2 9547   2.146   3.460   4.023
 3181TIP3   OH2 9548   1.480   2.746   3.031
 3181TIP3    H1 9549   1.386   2.730   3.036
 3181TIP3    H2 9550   1.520   2.659   3.040
 3182TIP3   OH2 9551   5.583   2.805   4.634
 3182TIP3    H1 9552   5.495   2.772   4.652
 3182TIP3    H2 9553   5.632   2.789   4.715
 3183TIP3   OH2 9554   3.824   2.294   1.243
 3183TIP3    H1 9555   3.850   2.386   1.242
 3183TIP3    H2 9556   3.734   2.295   1.274
 3184TIP3   OH2 9557   2.954   1.103   1.608
 3184TIP3    H1 9558   2.870   1.075   1.571
 3184TIP3    H2 9559   2.935   1.120   1.700
 3185TIP3   OH2 9560   5.901   3.040   2.411
 3185TIP3    H1 9561   5.957   2.967   2.387
 3185TIP3    H2 9562   5.895   3.093   2.332
 3186TIP3   OH2 9563   5.680   4.953   0.656
 3186TIP3    H1 9564   5.659   5.030   0.603
 3186TIP3    H2 9565   5.767   4.926   0.625
 3187TIP3   OH2 9566   5.949   5.517   1.567
 3187TIP3    H1 9567   5.981   5.456   1.500
 3187TIP3    H2 9568   5.954   5.603   1.525
 3188TIP3   OH2 9569   6.250   1.385   4.377
 3188TIP3    H1 9570   6.196   1.461   4.357
 3188TIP3    H2 9571   6.240   1.328   4.300
 3189TIP3   OH2 9572   0.532   1.003   4.440
 3189TIP3    H1 9573   0.520   0.955   4.522
 3189TIP3    H2 9574   0.574   0.940   4.382
 3190TIP3   OH2 9575   0.784   0.082   2.826
 3190TIP3    H1 9576   0.786   0.160   2.770
 3190TIP3    H2 9577   0.696   0.083   2.864
 3191TIP3   OH2 9578   5.389   2.497   5.057
 3191TIP3    H1 9579   5.430   2.505   5.143
 3191TIP3    H2 9580   5.396   2.404   5.036
 3192TIP3   OH2 9581   5.736   1.901   1.576
 3192TIP3    H1 9582   5.666   1.875   1.516
 3192TIP3    H2 9583   5.812   1.849   1.548
 3193TIP3   OH2 9584   4.979   0.122   2.030
 3193TIP3    H1 9585   4.983   0.036   2.073
 3193TIP3    H2 9586   5.046   0.118   1.962
 3194TIP3   OH2 9587   0.631   4.243   0.352
 3194TIP3    H1 9588   0.646   4.249   0.446
 3194TIP3    H2 9589   0.569   4.171   0.341
 3195TIP3   OH2 9590   0.984   5.872   4.306
 3195TIP3    H1 9591   1.039   5.944   4.275
 3195TIP3    H2 9592   0.966   5.820   4.227
 3196TIP3   OH2 9593   4.405   1.190   3.891
 3196TIP3    H1 9594   4.497   1.200   3.865
 3196TIP3    H2 9595   4.355   1.225   3.817
 3197TIP3   OH2 9596   3.908   1.035   1.247
 3197TIP3    H1 9597   3.962   1.109   1.275
 3197TIP3    H2 9598   3.927   1.025   1.154
 3198TIP3   OH2 9599   4.220   3.502   4.396
 3198TIP3    H1 9600   4.259   3.535   4.315
 3198TIP3    H2 9601   4.171   3.425   4.370
 3199TIP3   OH2 9602   5.505   3.170   1.938
 3199TIP3    H1 9603   5.455   3.093   1.967
 3199TIP3    H2 9604   5.491   3.173   1.843
 3200TIP3   OH2 9605   5.882   5.238   2.647
 3200TIP3    H1 9606   5.849   5.148   2.642
 3200TIP3    H2 9607   5.874   5.271   2.558
 3201TIP3   OH2 9608   3.365   2.348   3.909
 3201TIP3    H1 9609   3.366   2.439   3.938
 3201TIP3    H2 9610   3.371   2.353   3.814
 3202TIP3   OH2 9611   5.481   1.067   5.015
 3202TIP3    H1 9612   5.487   1.001   4.946
 3202TIP3    H2 9613   5.412   1.035   5.073
 3203TIP3   OH2 9614   3.194   3.222   4.694
 3203TIP3    H1 9615   3.160   3.294   4.747
 3203TIP3    H2 9616   3.134   3.150   4.711
 3204TIP3   OH2 9617   6.213   0.347   0.406
 3204TIP3    H1 9618   6.225   0.263   0.363
 3204TIP3    H2 9619   6.122   0.345   0.437
 3205TIP3   OH2 9620   2.635   3.691   0.091
 3205TIP3    H1 9621   2.598   3.652   0.171
 3205TIP3    H2 9622   2.571   3.670   0.023
 3206TIP3   OH2 9623   4.919   4.597   4.252
 3206TIP3    H1 9624   4.839   4.641   4.222
 3206TIP3    H2 9625   4.970   4.666   4.294
 3207TIP3   OH2 9626   2.264   3.663   1.848
 3207TIP3    H1 9627   2.180   3.627   1.875
 3207TIP3    H2 9628   2.296   3.712   1.924
 3208TIP3   OH2 9629   2.093   5.329   0.815
 3208TIP3    H1 9630   2.086   5.236   0.834
 3208TIP3    H2 9631   2.127   5.333   0.725
 3209TIP3   OH2 9632   6.012   2.071   0.401
 3209TIP3    H1 9633   6.060   2.086   0.482
 3209TIP3    H2 9634   5.928   2.033   0.429
 3210TIP3   OH2 9635   0.484   2.230   4.291
 3210TIP3    H1 9636   0.442   2.145   4.279
 3210TIP3    H2 9637   0.534   2.221   4.371
 3211TIP3   OH2 9638   5.075   2.264   1.063
 3211TIP3    H1 9639   5.054   2.181   1.020
 3211TIP3    H2 9640   4.990   2.298   1.092
 3212TIP3   OH2 9641   5.539   5.441   4.915
 3212TIP3    H1 9642   5.540   5.506   4.986
 3212TIP3    H2 9643   5.568   5.490   4.838
 3213TIP3   OH2 9644   1.818   3.513   1.427
 3213TIP3    H1 9645   1.911   3.490   1.431
 3213TIP3    H2 9646   1.817   3.609   1.433
 3214TIP3   OH2 9647   1.476   1.376   4.777
 3214TIP3    H1 9648   1.527   1.444   4.733
 3214TIP3    H2 9649   1.520   1.294   4.753
 3215TIP3   OH2 9650   2.073   5.441   4.245
 3215TIP3    H1 9651   2.136   5.369   4.239
 3215TIP3    H2 9652   1.988   5.399   4.233
 3216TIP3   OH2 9653   1.666   2.055   1.731
 3216TIP3    H1 9654   1.715   2.123   1.684
 3216TIP3    H2 9655   1.731   2.014   1.787
 3217TIP3   OH2 9656   1.784   0.629   3.986
 3217TIP3    H1 9657   1.812   0.627   3.895
 3217TIP3    H2 9658   1.787   0.722   4.010
 3218TIP3   OH2 9659   0.654   5.978   4.962
 3218TIP3    H1 9660   0.685   6.042   4.898
 3218TIP3    H2 9661   0.694   5.895   4.934
 3219TIP3   OH2 9662   0.204   5.588   4.871
 3219TIP3    H1 9663   0.246   5.668   4.902
 3219TIP3    H2 9664   0.129   5.576   4.930
 3220TIP3   OH2 9665   0.539   3.797   4.767
 3220TIP3    H1 9666   0.516   3.713   4.807
 3220TIP3    H2 9667   0.634   3.798   4.765
 3221TIP3   OH2 9668   2.249   3.897   4.945
 3221TIP3    H1 9669   2.264   3.957   4.872
 3221TIP3    H2 9670   2.181   3.941   4.997
 3222TIP3   OH2 9671   3.098   0.265   2.106
 3222TIP3    H1 9672   3.086   0.278   2.012
 3222TIP3    H2 9673   3.089   0.352   2.144
 3223TIP3   OH2 9674   2.840   1.068   3.331
 3223TIP3    H1 9675   2.877   1.156   3.322
 3223TIP3    H2 9676   2.754   1.074   3.290
 3224TIP3   OH2 9677   2.643   5.060   0.244
 3224TIP3    H1 9678   2.586   5.026   0.175
 3224TIP3    H2 9679   2.658   4.984   0.301
 3225TIP3   OH2 9680   6.092   4.335   1.756
 3225TIP3    H1 9681   6.107   4.384   1.676
 3225TIP3    H2 9682   6.030   4.388   1.806
 3226TIP3   OH2 9683   4.224   5.593   2.853
 3226TIP3    H1 9684   4.196   5.503   2.869
 3226TIP3    H2 9685   4.161   5.627   2.789
 3227TIP3   OH2 9686   5.911   1.495   1.504
 3227TIP3    H1 9687   5.927   1.590   1.512
 3227TIP3    H2 9688   5.825   1.489   1.463
 3228TIP3   OH2 9689   5.811   2.210   3.103
 3228TIP3    H1 9690   5.844   2.120   3.108
 3228TIP3    H2 9691   5.746   2.208   3.033
 3229TIP3   OH2 9692   6.214   3.362   1.086
 3229TIP3    H1 9693   6.249   3.344   1.173
 3229TIP3    H2 9694   6.289   3.391   1.035
 3230TIP3   OH2 9695   1.276   3.578   1.202
 3230TIP3    H1 9696   1.308   3.651   1.255
 3230TIP3    H2 9697   1.352   3.521   1.190
 3231TIP3   OH2 9698   2.717   1.586   3.698
 3231TIP3    H1 9699   2.661   1.663   3.709
 3231TIP3    H2 9700   2.682   1.521   3.758
 3232TIP3   OH2 9701   1.376   1.283   2.060
 3232TIP3    H1 9702   1.431   1.207   2.042
 3232TIP3    H2 9703   1.436   1.349   2.094
 3233TIP3   OH2 9704   5.346   5.125   1.582
 3233TIP3    H1 9705   5.387   5.132   1.496
 3233TIP3    H2 9706   5.253   5.111   1.564
 3234TIP3   OH2 9707   0.559   5.917   3.217
 3234TIP3    H1 9708   0.609   5.962   3.286
 3234TIP3    H2 9709   0.504   5.985   3.179
 3235TIP3   OH2 9710   2.391   1.973   4.167
 3235TIP3    H1 9711   2.395   1.897   4.226
 3235TIP3    H2 9712   2.471   1.967   4.114
 3236TIP3   OH2 9713   0.769   2.207   2.787
 3236TIP3    H1 9714   0.811   2.190   2.703
 3236TIP3    H2 9715   0.833   2.259   2.836
 3237TIP3   OH2 9716   3.926   1.670   3.770
 3237TIP3    H1 9717   3.951   1.586   3.731
 3237TIP3    H2 9718   3.985   1.679   3.845
 3238TIP3   OH2 9719   4.930   2.131   4.317
 3238TIP3    H1 9720   4.964   2.175   4.395
 3238TIP3    H2 9721   4.965   2.042   4.323
 3239TIP3   OH2 9722   1.246   2.439   4.597
 3239TIP3    H1 9723   1.246   2.455   4.692
 3239TIP3    H2 9724   1.223   2.347   4.589
 3240TIP3   OH2 9725   5.257   4.468   5.151
 3240TIP3    H1 9726   5.348   4.498   5.155
 3240TIP3    H2 9727   5.264   4.373   5.141
 3241TIP3   OH2 9728   6.190   2.274   1.797
 3241TIP3    H1 9729   6.103   2.241   1.773
 3241TIP3    H2 9730   6.215   2.221   1.874
 3242TIP3   OH2 9731   4.967   4.325   0.244
 3242TIP3    H1 9732   4.925   4.348   0.161
 3242TIP3    H2 9733   5.048   4.376   0.245
 3243TIP3   OH2 9734   3.384   0.343   0.808
 3243TIP3    H1 9735   3.474   0.311   0.813
 3243TIP3    H2 9736   3.336   0.274   0.764
 3244TIP3   OH2 9737   6.260   3.826   1.698
 3244TIP3    H1 9738   6.249   3.911   1.741
 3244TIP3    H2 9739   6.305   3.847   1.616
 3245TIP3   OH2 9740   6.157   2.464   0.429
 3245TIP3    H1 9741   6.244   2.424   0.435
 3245TIP3    H2 9742   6.167   2.550   0.469
 3246TIP3   OH2 9743   2.952   1.906   2.450
 3246TIP3    H1 9744   3.038   1.911   2.491
 3246TIP3    H2 9745   2.945   1.815   2.421
 3247TIP3   OH2 9746   5.262   5.179   2.120
 3247TIP3    H1 9747   5.335   5.159   2.061
 3247TIP3    H2 9748   5.259   5.106   2.181
 3248TIP3   OH2 9749   0.436   2.355   0.530
 3248TIP3    H1 9750   0.349   2.391   0.513
 3248TIP3    H2 9751   0.439   2.341   0.624
 3249TIP3   OH2 9752   2.233   4.823   2.691
 3249TIP3    H1 9753   2.245   4.737   2.731
 3249TIP3    H2 9754   2.254   4.885   2.760
 3250TIP3   OH2 9755   5.808   0.583   4.682
 3250TIP3    H1 9756   5.896   0.565   4.716
 3250TIP3    H2 9757   5.768   0.496   4.672
 3251TIP3   OH2 9758   0.759   2.412   0.293
 3251TIP3    H1 9759   0.764   2.446   0.383
 3251TIP3    H2 9760   0.734   2.487   0.240
 3252TIP3   OH2 9761   2.507   1.442   1.041
 3252TIP3    H1 9762   2.417   1.432   1.009
 3252TIP3    H2 9763   2.497   1.481   1.128
 3253TIP3   OH2 9764   4.862   4.728   4.882
 3253TIP3    H1 9765   4.884   4.811   4.925
 3253TIP3    H2 9766   4.910   4.662   4.933
 3254TIP3   OH2 9767   3.990   4.884   1.393
 3254TIP3    H1 9768   4.005   4.815   1.457
 3254TIP3    H2 9769   3.901   4.914   1.411
 3255TIP3   OH2 9770   5.058   0.466   1.015
 3255TIP3    H1 9771   4.984   0.422   0.975
 3255TIP3    H2 9772   5.020   0.544   1.056
 3256TIP3   OH2 9773   0.494   0.193   1.306
 3256TIP3    H1 9774   0.515   0.125   1.242
 3256TIP3    H2 9775   0.406   0.170   1.336
 3257TIP3   OH2 9776   0.741   5.839   3.625
 3257TIP3    H1 9777   0.673   5.805   3.567
 3257TIP3    H2 9778   0.696   5.902   3.681
 3258TIP3   OH2 9779   1.397   4.801   0.778
 3258TIP3    H1 9780   1.328   4.863   0.801
 3258TIP3    H2 9781   1.477   4.853   0.775
 3259TIP3   OH2 9782   4.718   4.455   2.451
 3259TIP3    H1 9783   4.735   4.495   2.365
 3259TIP3    H2 9784   4.632   4.490   2.476
 3260TIP3   OH2 9785   3.850   0.971   4.108
 3260TIP3    H1 9786   3.911   0.929   4.168
 3260TIP3    H2 9787   3.776   0.910   4.103
 3261TIP3   OH2 9788   6.037   0.267   4.659
 3261TIP3    H1 9789   6.005   0.187   4.700
 3261TIP3    H2 9790   5.992   0.271   4.574
 3262TIP3   OH2 9791   2.880   1.676   0.263
 3262TIP3    H1 9792   2.797   1.628   0.261
 3262TIP3    H2 9793   2.863   1.751   0.320
 3263TIP3   OH2 9794   0.889   5.005   2.924
 3263TIP3    H1 9795   0.968   4.966   2.886
 3263TIP3    H2 9796   0.818   4.950   2.890
 3264TIP3   OH2 9797   4.091   0.417   3.278
 3264TIP3    H1 9798   4.000   0.429   3.305
 3264TIP3    H2 9799   4.086   0.373   3.194
 3265TIP3   OH2 9800   2.393   2.255   4.929
 3265TIP3    H1 9801   2.327   2.325   4.937
 3265TIP3    H2 9802   2.354   2.180   4.974
 3266TIP3   OH2 9803   2.301   3.207   2.753
 3266TIP3    H1 9804   2.242   3.138   2.784
 3266TIP3    H2 9805   2.371   3.209   2.818
 3267TIP3   OH2 9806   6.307   1.135   3.851
 3267TIP3    H1 9807   6.321   1.086   3.770
 3267TIP3    H2 9808   6.215   1.119   3.873
 3268TIP3   OH2 9809   1.025   5.292   3.478
 3268TIP3    H1 9810   1.018   5.323   3.388
 3268TIP3    H2 9811   1.079   5.358   3.522
 3269TIP3   OH2 9812   2.224   0.282   1.717
 3269TIP3    H1 9813   2.218   0.189   1.741
 3269TIP3    H2 9814   2.317   0.303   1.731
 3270TIP3   OH2 9815   2.468   0.899   4.764
 3270TIP3    H1 9816   2.452   0.969   4.701
 3270TIP3    H2 9817   2.402   0.913   4.832
 3271TIP3   OH2 9818   3.426   5.992   1.823
 3271TIP3    H1 9819   3.407   5.898   1.818
 3271TIP3    H2 9820   3.367   6.032   1.759
 3272TIP3   OH2 9821   4.166   4.864   0.893
 3272TIP3    H1 9822   4.257   4.840   0.876
 3272TIP3    H2 9823   4.129   4.788   0.938
 3273TIP3   OH2 9824   3.441   4.839   2.966
 3273TIP3    H1 9825   3.514   4.867   3.022
 3273TIP3    H2 9826   3.419   4.916   2.914
 3274TIP3   OH2 9827   5.478   0.141   1.435
 3274TIP3    H1 9828   5.484   0.147   1.340
 3274TIP3    H2 9829   5.517   0.055   1.456
 3275TIP3   OH2 9830   0.205   2.257   2.661
 3275TIP3    H1 9831   0.280   2.245   2.602
 3275TIP3    H2 9832   0.159   2.173   2.660
 3276TIP3   OH2 9833   5.479   4.651   0.917
 3276TIP3    H1 9834   5.564   4.643   0.873
 3276TIP3    H2 9835   5.435   4.567   0.901
 3277TIP3   OH2 9836   3.446   2.924   0.578
 3277TIP3    H1 9837   3.460   2.962   0.491
 3277TIP3    H2 9838   3.442   2.999   0.637
 3278TIP3   OH2 9839   3.799   3.018   1.735
 3278TIP3    H1 9840   3.828   2.947   1.791
 3278TIP3    H2 9841   3.766   3.085   1.796
 3279TIP3   OH2 9842   1.581   4.715   2.836
 3279TIP3    H1 9843   1.570   4.643   2.774
 3279TIP3    H2 9844   1.675   4.721   2.849
 3280TIP3   OH2 9845   6.359   3.597   1.831
 3280TIP3    H1 9846   6.323   3.664   1.774
 3280TIP3    H2 9847   6.380   3.644   1.912
 3281TIP3   OH2 9848   2.098   3.708   5.147
 3281TIP3    H1 9849   2.036   3.660   5.201
 3281TIP3    H2 9850   2.045   3.775   5.103
 3282TIP3   OH2 9851   1.589   3.552   3.819
 3282TIP3    H1 9852   1.500   3.559   3.853
 3282TIP3    H2 9853   1.634   3.629   3.853
 3283TIP3   OH2 9854   1.351   2.522   0.657
 3283TIP3    H1 9855   1.287   2.497   0.723
 3283TIP3    H2 9856   1.311   2.499   0.574
 3284TIP3   OH2 9857   2.783   0.733   0.539
 3284TIP3    H1 9858   2.811   0.802   0.479
 3284TIP3    H2 9859   2.834   0.749   0.618
 3285TIP3   OH2 9860   1.248   1.453   0.732
 3285TIP3    H1 9861   1.203   1.520   0.681
 3285TIP3    H2 9862   1.336   1.488   0.746
 3286TIP3   OH2 9863   3.555   1.859   2.626
 3286TIP3    H1 9864   3.612   1.858   2.549
 3286TIP3    H2 9865   3.478   1.807   2.599
 3287TIP3   OH2 9866   2.716   4.933   1.955
 3287TIP3    H1 9867   2.672   4.893   1.880
 3287TIP3    H2 9868   2.688   5.025   1.952
 3288TIP3   OH2 9869   1.391   2.014   1.716
 3288TIP3    H1 9870   1.486   2.011   1.705
 3288TIP3    H2 9871   1.378   2.066   1.795
 3289TIP3   OH2 9872   4.202   5.513   2.108
 3289TIP3    H1 9873   4.150   5.481   2.182
 3289TIP3    H2 9874   4.186   5.448   2.039
 3290TIP3   OH2 9875   4.033   3.917   4.294
 3290TIP3    H1 9876   4.074   3.854   4.355
 3290TIP3    H2 9877   3.960   3.954   4.343
 3291TIP3   OH2 9878   3.426   0.683   1.798
 3291TIP3    H1 9879   3.461   0.771   1.808
 3291TIP3    H2 9880   3.377   0.668   1.879
 3292TIP3   OH2 9881   2.345   1.558  -0.008
 3292TIP3    H1 9882   2.283   1.504   0.041
 3292TIP3    H2 9883   2.313   1.648   0.005
 3293TIP3   OH2 9884   3.744   3.733   4.384
 3293TIP3    H1 9885   3.777   3.814   4.424
 3293TIP3    H2 9886   3.763   3.665   4.449
 3294TIP3   OH2 9887   5.023   1.955   3.678
 3294TIP3    H1 9888   5.102   1.920   3.636
 3294TIP3    H2 9889   4.977   2.001   3.608
 3295TIP3   OH2 9890   0.814   2.945   0.128
 3295TIP3    H1 9891   0.730   2.981   0.098
 3295TIP3    H2 9892   0.812   2.957   0.223
 3296TIP3   OH2 9893   0.326   1.957   2.603
 3296TIP3    H1 9894   0.323   1.888   2.536
 3296TIP3    H2 9895   0.359   2.034   2.557
 3297TIP3   OH2 9896   4.449   2.198   0.968
 3297TIP3    H1 9897   4.455   2.224   1.060
 3297TIP3    H2 9898   4.391   2.122   0.968
 3298TIP3   OH2 9899   2.295   5.386   4.430
 3298TIP3    H1 9900   2.284   5.298   4.393
 3298TIP3    H2 9901   2.221   5.397   4.489
 3299TIP3   OH2 9902  -0.011   1.154   0.290
 3299TIP3    H1 9903  -0.027   1.207   0.368
 3299TIP3    H2 9904   0.078   1.177   0.263
 3300TIP3   OH2 9905   5.757   4.210   3.548
 3300TIP3    H1 9906   5.738   4.164   3.466
 3300TIP3    H2 9907   5.852   4.215   3.551
 3301TIP3   OH2 9908   0.059   3.708   3.295
 3301TIP3    H1 9909   0.070   3.613   3.297
 3301TIP3    H2 9910   0.047   3.732   3.387
 3302TIP3   OH2 9911   4.093   1.949   4.220
 3302TIP3    H1 9912   4.071   2.000   4.298
 3302TIP3    H2 9913   4.170   1.898   4.246
 3303TIP3   OH2 9914   0.325   1.073   4.759
 3303TIP3    H1 9915   0.292   1.127   4.831
 3303TIP3    H2 9916   0.258   1.081   4.691
 3304TIP3   OH2 9917   6.327   4.561   0.374
 3304TIP3    H1 9918   6.306   4.520   0.290
 3304TIP3    H2 9919   6.276   4.511   0.438
 3305TIP3   OH2 9920   4.425   4.150   2.076
 3305TIP3    H1 9921   4.362   4.193   2.018
 3305TIP3    H2 9922   4.439   4.213   2.147
 3306TIP3   OH2 9923   4.969   1.906   4.639
 3306TIP3    H1 9924   4.982   1.885   4.546
 3306TIP3    H2 9925   4.879   1.879   4.658
 3307TIP3   OH2 9926   1.935   3.663   0.705
 3307TIP3    H1 9927   1.857   3.607   0.703
 3307TIP3    H2 9928   1.901   3.750   0.729
 3308TIP3   OH2 9929   4.429   3.065   3.095
 3308TIP3    H1 9930   4.461   2.993   3.041
 3308TIP3    H2 9931   4.380   3.120   3.034
 3309TIP3   OH2 9932   1.093   1.699   1.508
 3309TIP3    H1 9933   1.126   1.633   1.569
 3309TIP3    H2 9934   1.157   1.770   1.514
 3310TIP3   OH2 9935   3.416   2.080   3.347
 3310TIP3    H1 9936   3.438   2.054   3.436
 3310TIP3    H2 9937   3.498   2.071   3.299
 3311TIP3   OH2 9938   0.548   2.358   5.145
 3311TIP3    H1 9939   0.502   2.392   5.068
 3311TIP3    H2 9940   0.604   2.431   5.173
 3312TIP3   OH2 9941   5.185   5.207   5.088
 3312TIP3    H1 9942   5.236   5.155   5.025
 3312TIP3    H2 9943   5.185   5.295   5.051
 3313TIP3   OH2 9944   3.382   5.188   5.171
 3313TIP3    H1 9945   3.440   5.170   5.244
 3313TIP3    H2 9946   3.440   5.206   5.097
 3314TIP3   OH2 9947   5.015   5.502   3.038
 3314TIP3    H1 9948   4.974   5.585   3.063
 3314TIP3    H2 9949   5.043   5.515   2.948
 3315TIP3   OH2 9950   2.032   3.322   4.258
 3315TIP3    H1 9951   2.063   3.242   4.302
 3315TIP3    H2 9952   1.949   3.296   4.218
 3316TIP3   OH2 9953   3.771   0.820   2.796
 3316TIP3    H1 9954   3.791   0.893   2.738
 3316TIP3    H2 9955   3.804   0.848   2.882
 3317TIP3   OH2 9956   5.950   2.592   3.487
 3317TIP3    H1 9957   5.928   2.535   3.561
 3317TIP3    H2 9958   5.868   2.637   3.467
 3318TIP3   OH2 9959   3.347   4.020   4.798
 3318TIP3    H1 9960   3.280   3.953   4.813
 3318TIP3    H2 9961   3.339   4.079   4.873
 3319TIP3   OH2 9962   0.144   1.800   4.357
 3319TIP3    H1 9963   0.098   1.754   4.287
 3319TIP3    H2 9964   0.148   1.736   4.428
 3320TIP3   OH2 9965   6.338   1.922   4.678
 3320TIP3    H1 9966   6.414   1.885   4.723
 3320TIP3    H2 9967   6.305   1.989   4.738
 3321TIP3   OH2 9968   5.542   1.341   4.688
 3321TIP3    H1 9969   5.603   1.267   4.688
 3321TIP3    H2 9970   5.594   1.415   4.718
 3322TIP3   OH2 9971   0.580   5.559   4.533
 3322TIP3    H1 9972   0.503   5.571   4.587
 3322TIP3    H2 9973   0.580   5.466   4.511
 3323TIP3   OH2 9974   2.367   4.117   0.766
 3323TIP3    H1 9975   2.275   4.132   0.746
 3323TIP3    H2 9976   2.413   4.135   0.683
 3324TIP3   OH2 9977   5.521   3.505   3.101
 3324TIP3    H1 9978   5.496   3.495   3.193
 3324TIP3    H2 9979   5.616   3.516   3.103
 3325TIP3   OH2 9980   5.802   0.624   3.792
 3325TIP3    H1 9981   5.870   0.584   3.738
 3325TIP3    H2 9982   5.764   0.551   3.841
 3326TIP3   OH2 9983   1.603   1.934   0.199
 3326TIP3    H1 9984   1.698   1.922   0.193
 3326TIP3    H2 9985   1.579   1.894   0.282
 3327TIP3   OH2 9986   4.102   2.128   4.741
 3327TIP3    H1 9987   4.166   2.188   4.778
 3327TIP3    H2 9988   4.109   2.049   4.794
 3328TIP3   OH2 9989   1.010   5.638   1.334
 3328TIP3    H1 9990   0.992   5.698   1.406
 3328TIP3    H2 9991   0.978   5.553   1.365
 3329TIP3   OH2 9992   3.387   0.985   2.664
 3329TIP3    H1 9993   3.350   1.070   2.638
 3329TIP3    H2 9994   3.456   1.007   2.726
 3330TIP3   OH2 9995   5.637   0.479   4.007
 3330TIP3    H1 9996   5.629   0.410   3.940
 3330TIP3    H2 9997   5.658   0.432   4.087
 3331TIP3   OH2 9998   4.469   2.537   1.432
 3331TIP3    H1 9999   4.562   2.531   1.455
 3331TIP3    H210000   4.445   2.627   1.453
 3332TIP3   OH210001   3.401   2.673   4.737
 3332TIP3    H110002   3.327   2.712   4.784
 3332TIP3    H210003   3.454   2.749   4.712
 3333TIP3   OH210004   5.354   2.025   2.809
 3333TIP3    H110005   5.308   1.991   2.887
 3333TIP3    H210006   5.388   1.947   2.765
 3334TIP3   OH210007   2.904   3.733   0.674
 3334TIP3    H110008   2.984   3.764   0.630
 3334TIP3    H210009   2.936   3.675   0.743
 3335TIP3   OH210010   4.679   3.301   4.703
 3335TIP3    H110011   4.683   3.206   4.713
 3335TIP3    H210012   4.632   3.331   4.781
 3336TIP3   OH210013   4.203   3.730   5.143
 3336TIP3    H110014   4.226   3.693   5.058
 3336TIP3    H210015   4.196   3.654   5.201
 3337TIP3   OH210016   5.732   3.717   1.251
 3337TIP3    H110017   5.778   3.636   1.274
 3337TIP3    H210018   5.772   3.745   1.169
 3338TIP3   OH210019   0.025   4.086   3.181
 3338TIP3    H110020   0.003   4.101   3.089
 3338TIP3    H210021   0.065   4.168   3.210
 3339TIP3   OH210022   3.984   5.758   5.157
 3339TIP3    H110023   3.968   5.720   5.243
 3339TIP3    H210024   3.898   5.755   5.113
 3340TIP3   OH210025   4.942   0.992   4.047
 3340TIP3    H110026   4.929   0.952   3.961
 3340TIP3    H210027   5.003   0.933   4.092
 3341TIP3   OH210028   3.964   5.531   2.717
 3341TIP3    H110029   3.870   5.548   2.725
 3341TIP3    H210030   3.985   5.553   2.627
 3342TIP3   OH210031   0.055   5.853   4.440
 3342TIP3    H110032   0.023   5.816   4.522
 3342TIP3    H210033   0.021   5.942   4.438
 3343TIP3   OH210034   3.834   4.285   2.279
 3343TIP3    H110035   3.782   4.316   2.205
 3343TIP3    H210036   3.924   4.286   2.247
 3344TIP3   OH210037   2.117   5.740   0.179
 3344TIP3    H110038   2.022   5.746   0.191
 3344TIP3    H210039   2.149   5.827   0.201
 3345TIP3   OH210040   5.615   4.789   4.127
 3345TIP3    H110041   5.649   4.760   4.212
 3345TIP3    H210042   5.525   4.814   4.144
 3346TIP3   OH210043   0.171   4.975   1.415
 3346TIP3    H110044   0.200   5.013   1.332
 3346TIP3    H210045   0.238   4.910   1.437
 3347TIP3   OH210046   5.194   0.720   1.729
 3347TIP3    H110047   5.172   0.804   1.769
 3347TIP3    H210048   5.111   0.686   1.696
 3348TIP3   OH210049   2.420   2.018   0.088
 3348TIP3    H110050   2.493   2.052   0.037
 3348TIP3    H210051   2.457   1.999   0.174
 3349TIP3   OH210052   3.438   2.646   2.242
 3349TIP3    H110053   3.492   2.706   2.293
 3349TIP3    H210054   3.348   2.666   2.267
 3350TIP3   OH210055   2.452   2.273   4.166
 3350TIP3    H110056   2.407   2.190   4.182
 3350TIP3    H210057   2.517   2.279   4.236
 3351TIP3   OH210058   6.162   2.576   0.111
 3351TIP3    H110059   6.173   2.588   0.017
 3351TIP3    H210060   6.100   2.644   0.137
 3352TIP3   OH210061   1.884   2.903   3.460
 3352TIP3    H110062   1.963   2.851   3.478
 3352TIP3    H210063   1.825   2.882   3.532
 3353TIP3   OH210064   4.167   3.419   2.692
 3353TIP3    H110065   4.229   3.492   2.698
 3353TIP3    H210066   4.218   3.343   2.719
 3354TIP3   OH210067   0.634   4.902   0.840
 3354TIP3    H110068   0.538   4.901   0.841
 3354TIP3    H210069   0.656   4.984   0.796
 3355TIP3   OH210070   6.058   4.042   1.890
 3355TIP3    H110071   6.008   4.119   1.861
 3355TIP3    H210072   6.148   4.061   1.865
 3356TIP3   OH210073   3.300   0.346   2.589
 3356TIP3    H110074   3.319   0.265   2.635
 3356TIP3    H210075   3.268   0.405   2.656
 3357TIP3   OH210076   5.519   0.303   1.066
 3357TIP3    H110077   5.514   0.368   1.136
 3357TIP3    H210078   5.428   0.289   1.040
 3358TIP3   OH210079   4.102   2.011   0.624
 3358TIP3    H110080   4.124   1.928   0.582
 3358TIP3    H210081   4.183   2.062   0.621
 3359TIP3   OH210082   5.572   3.067   3.242
 3359TIP3    H110083   5.630   2.992   3.261
 3359TIP3    H210084   5.589   3.087   3.150
 3360TIP3   OH210085   1.489   4.723   0.036
 3360TIP3    H110086   1.409   4.698   0.082
 3360TIP3    H210087   1.471   4.810   0.002
 3361TIP3   OH210088   3.873   5.924   3.376
 3361TIP3    H110089   3.909   5.844   3.413
 3361TIP3    H210090   3.824   5.895   3.299
 3362TIP3   OH210091   1.528   4.089   0.090
 3362TIP3    H110092   1.523   4.184   0.088
 3362TIP3    H210093   1.504   4.061   0.001
 3363TIP3   OH210094   2.933   0.046   2.330
 3363TIP3    H110095   2.985   0.120   2.361
 3363TIP3    H210096   2.970  -0.030   2.375
 3364TIP3   OH210097   3.748   2.868   2.585
 3364TIP3    H110098   3.783   2.788   2.625
 3364TIP3    H210099   3.685   2.902   2.649
 3365TIP3   OH210100   0.309   4.341   0.618
 3365TIP3    H110101   0.280   4.264   0.569
 3365TIP3    H210102   0.232   4.398   0.621
 3366TIP3   OH210103   5.830   5.695   0.057
 3366TIP3    H110104   5.843   5.614   0.008
 3366TIP3    H210105   5.867   5.678   0.143
 3367TIP3   OH210106   0.876   1.346   4.602
 3367TIP3    H110107   0.871   1.342   4.697
 3367TIP3    H210108   0.939   1.278   4.578
 3368TIP3   OH210109   3.428   0.767   0.297
 3368TIP3    H110110   3.450   0.836   0.234
 3368TIP3    H210111   3.512   0.733   0.326
 3369TIP3   OH210112   5.300   0.444   3.931
 3369TIP3    H110113   5.282   0.538   3.936
 3369TIP3    H210114   5.336   0.432   3.843
 3370TIP3   OH210115   2.548   0.990   1.647
 3370TIP3    H110116   2.623   0.948   1.605
 3370TIP3    H210117   2.489   1.012   1.576
 3371TIP3   OH210118   4.094   5.966   4.583
 3371TIP3    H110119   4.036   6.000   4.652
 3371TIP3    H210120   4.179   5.957   4.627
 3372TIP3   OH210121   0.615   3.334   1.594
 3372TIP3    H110122   0.646   3.333   1.503
 3372TIP3    H210123   0.520   3.330   1.587
 3373TIP3   OH210124   5.183   4.721   0.595
 3373TIP3    H110125   5.240   4.796   0.613
 3373TIP3    H210126   5.124   4.753   0.526
 3374TIP3   OH210127   5.593   1.533   2.983
 3374TIP3    H110128   5.565   1.624   3.000
 3374TIP3    H210129   5.518   1.480   3.010
 3375TIP3   OH210130   2.467   2.887   2.627
 3375TIP3    H110131   2.448   2.981   2.625
 3375TIP3    H210132   2.391   2.848   2.670
 3376TIP3   OH210133   2.751   3.510   2.739
 3376TIP3    H110134   2.688   3.485   2.808
 3376TIP3    H210135   2.834   3.521   2.785
 3377TIP3   OH210136   0.225   2.850   2.010
 3377TIP3    H110137   0.194   2.788   2.076
 3377TIP3    H210138   0.259   2.924   2.061
 3378TIP3   OH210139   3.520   4.952   4.190
 3378TIP3    H110140   3.456   4.944   4.120
 3378TIP3    H210141   3.507   4.874   4.244
 3379TIP3   OH210142   0.078   1.115   4.327
 3379TIP3    H110143   0.026   1.136   4.250
 3379TIP3    H210144   0.122   1.197   4.349
 3380TIP3   OH210145   0.652   5.298   4.077
 3380TIP3    H110146   0.728   5.344   4.114
 3380TIP3    H210147   0.682   5.268   3.991
 3381TIP3   OH210148   3.950   4.312   2.000
 3381TIP3    H110149   4.039   4.344   2.010
 3381TIP3    H210150   3.960   4.217   1.995
 3382TIP3   OH210151   1.371   1.053   0.830
 3382TIP3    H110152   1.305   1.121   0.823
 3382TIP3    H210153   1.354   1.011   0.914
 3383TIP3   OH210154   5.900   3.856   1.002
 3383TIP3    H110155   5.916   3.828   0.912
 3383TIP3    H210156   5.857   3.941   0.993
 3384TIP3   OH210157   0.410   5.286   0.860
 3384TIP3    H110158   0.499   5.311   0.887
 3384TIP3    H210159   0.413   5.190   0.854
 3385TIP3   OH210160   2.267   2.226   1.684
 3385TIP3    H110161   2.298   2.303   1.730
 3385TIP3    H210162   2.331   2.158   1.704
 3386TIP3   OH210163   0.179   1.459   1.229
 3386TIP3    H110164   0.171   1.521   1.157
 3386TIP3    H210165   0.111   1.394   1.213
 3387TIP3   OH210166   0.795   5.522   3.406
 3387TIP3    H110167   0.759   5.489   3.488
 3387TIP3    H210168   0.799   5.445   3.349
 3388TIP3   OH210169   5.336   0.544   4.546
 3388TIP3    H110170   5.408   0.586   4.500
 3388TIP3    H210171   5.331   0.456   4.508
 3389TIP3   OH210172   6.312   1.188   4.106
 3389TIP3    H110173   6.317   1.159   4.015
 3389TIP3    H210174   6.223   1.219   4.116
 3390TIP3   OH210175   5.431   5.941   3.825
 3390TIP3    H110176   5.492   5.908   3.759
 3390TIP3    H210177   5.350   5.955   3.777
 3391TIP3   OH210178   1.281   2.628   1.027
 3391TIP3    H110179   1.310   2.654   1.114
 3391TIP3    H210180   1.280   2.709   0.977
 3392TIP3   OH210181   4.200   1.105   0.326
 3392TIP3    H110182   4.116   1.066   0.303
 3392TIP3    H210183   4.256   1.031   0.349
 3393TIP3   OH210184   2.750   3.572   3.529
 3393TIP3    H110185   2.772   3.640   3.592
 3393TIP3    H210186   2.667   3.601   3.490
 3394TIP3   OH210187   5.826   1.548   0.340
 3394TIP3    H110188   5.856   1.562   0.250
 3394TIP3    H210189   5.782   1.463   0.337
 3395TIP3   OH210190   3.884   0.508   2.934
 3395TIP3    H110191   3.962   0.558   2.957
 3395TIP3    H210192   3.834   0.501   3.015
 3396TIP3   OH210193   4.694   2.430   2.937
 3396TIP3    H110194   4.780   2.396   2.912
 3396TIP3    H210195   4.707   2.469   3.023
 3397TIP3   OH210196   3.784   5.505   3.983
 3397TIP3    H110197   3.796   5.573   4.050
 3397TIP3    H210198   3.757   5.428   4.032
 3398TIP3   OH210199   3.094   4.528   2.861
 3398TIP3    H110200   3.004   4.522   2.829
 3398TIP3    H210201   3.135   4.447   2.831
 3399TIP3   OH210202   3.766   5.682   1.944
 3399TIP3    H110203   3.741   5.667   1.853
 3399TIP3    H210204   3.726   5.767   1.967
 3400TIP3   OH210205   2.683   5.076   3.073
 3400TIP3    H110206   2.755   5.081   3.010
 3400TIP3    H210207   2.644   4.990   3.058
 3401TIP3   OH210208   2.521   4.018   3.441
 3401TIP3    H110209   2.571   3.990   3.517
 3401TIP3    H210210   2.579   4.080   3.396
 3402TIP3   OH210211   3.869   3.419   1.157
 3402TIP3    H110212   3.891   3.392   1.067
 3402TIP3    H210213   3.946   3.395   1.209
 3403TIP3   OH210214   5.740   2.692   0.321
 3403TIP3    H110215   5.788   2.614   0.349
 3403TIP3    H210216   5.741   2.687   0.225
 3404TIP3   OH210217   2.156   2.018   3.349
 3404TIP3    H110218   2.154   1.997   3.442
 3404TIP3    H210219   2.210   2.096   3.343
 3405TIP3   OH210220   5.839   2.462   0.041
 3405TIP3    H110221   5.863   2.453  -0.051
 3405TIP3    H210222   5.784   2.540   0.044
 3406TIP3   OH210223   1.806   4.848   2.433
 3406TIP3    H110224   1.876   4.792   2.400
 3406TIP3    H210225   1.850   4.908   2.493
 3407TIP3   OH210226   6.221   2.911   0.989
 3407TIP3    H110227   6.164   2.971   0.941
 3407TIP3    H210228   6.305   2.957   0.993
 3408TIP3   OH210229   1.168   1.186   0.531
 3408TIP3    H110230   1.168   1.127   0.606
 3408TIP3    H210231   1.260   1.196   0.507
 3409TIP3   OH210232   5.249   5.012   3.796
 3409TIP3    H110233   5.246   5.088   3.737
 3409TIP3    H210234   5.248   4.936   3.737
 3410TIP3   OH210235   1.988   2.442   0.498
 3410TIP3    H110236   1.939   2.447   0.580
 3410TIP3    H210237   2.052   2.372   0.512
 3411TIP3   OH210238   2.643   4.745   1.093
 3411TIP3    H110239   2.718   4.686   1.080
 3411TIP3    H210240   2.568   4.687   1.096
 3412TIP3   OH210241   6.204   5.419   3.534
 3412TIP3    H110242   6.228   5.457   3.618
 3412TIP3    H210243   6.207   5.324   3.548
 3413TIP3   OH210244   4.213   5.182   5.017
 3413TIP3    H110245   4.189   5.222   4.934
 3413TIP3    H210246   4.287   5.233   5.049
 3414TIP3   OH210247   3.796   0.271   5.136
 3414TIP3    H110248   3.858   0.332   5.096
 3414TIP3    H210249   3.771   0.313   5.218
 3415TIP3   OH210250   3.155   0.220   2.386
 3415TIP3    H110251   3.158   0.274   2.306
 3415TIP3    H210252   3.205   0.270   2.450
 3416TIP3   OH210253   5.330   3.805   3.503
 3416TIP3    H110254   5.273   3.837   3.573
 3416TIP3    H210255   5.271   3.766   3.439
 3417TIP3   OH210256   2.656   0.443   2.868
 3417TIP3    H110257   2.577   0.497   2.859
 3417TIP3    H210258   2.678   0.449   2.962
 3418TIP3   OH210259   6.043   2.942   3.979
 3418TIP3    H110260   6.114   2.890   4.015
 3418TIP3    H210261   6.025   2.902   3.893
 3419TIP3   OH210262   3.924   2.210   3.214
 3419TIP3    H110263   3.852   2.264   3.248
 3419TIP3    H210264   3.918   2.219   3.119
 3420TIP3   OH210265   4.391   4.675   3.898
 3420TIP3    H110266   4.386   4.768   3.875
 3420TIP3    H210267   4.314   4.636   3.858
 3421TIP3   OH210268   1.949   4.031   3.454
 3421TIP3    H110269   1.936   3.979   3.533
 3421TIP3    H210270   2.041   4.054   3.455
 3422TIP3   OH210271   2.767   2.856   1.752
 3422TIP3    H110272   2.800   2.934   1.797
 3422TIP3    H210273   2.750   2.886   1.663
 3423TIP3   OH210274   5.149   1.150   4.212
 3423TIP3    H110275   5.112   1.083   4.269
 3423TIP3    H210276   5.115   1.233   4.246
 3424TIP3   OH210277   3.530   0.607   2.246
 3424TIP3    H110278   3.599   0.603   2.180
 3424TIP3    H210279   3.558   0.545   2.314
 3425TIP3   OH210280   2.787   2.040   2.292
 3425TIP3    H110281   2.865   2.027   2.345
 3425TIP3    H210282   2.804   1.990   2.212
 3426TIP3   OH210283   0.387   0.856   4.989
 3426TIP3    H110284   0.293   0.852   5.001
 3426TIP3    H210285   0.401   0.831   4.897
 3427TIP3   OH210286   5.997   3.779   2.561
 3427TIP3    H110287   5.936   3.716   2.522
 3427TIP3    H210288   5.998   3.853   2.499
 3428TIP3   OH210289   2.222   3.775   2.509
 3428TIP3    H110290   2.211   3.751   2.601
 3428TIP3    H210291   2.134   3.800   2.480
 3429TIP3   OH210292   3.284   3.960   3.357
 3429TIP3    H110293   3.280   4.051   3.328
 3429TIP3    H210294   3.259   3.963   3.450
 3430TIP3   OH210295   4.422   4.486   0.759
 3430TIP3    H110296   4.399   4.556   0.699
 3430TIP3    H210297   4.368   4.503   0.837
 3431TIP3   OH210298   2.204   0.731   1.938
 3431TIP3    H110299   2.120   0.710   1.978
 3431TIP3    H210300   2.242   0.798   1.995
 3432TIP3   OH210301   5.655   5.785   0.979
 3432TIP3    H110302   5.636   5.737   0.899
 3432TIP3    H210303   5.569   5.818   1.007
 3433TIP3   OH210304   5.780   5.020   2.504
 3433TIP3    H110305   5.862   4.986   2.468
 3433TIP3    H210306   5.740   5.068   2.432
 3434TIP3   OH210307   2.859   5.958   3.656
 3434TIP3    H110308   2.777   5.911   3.672
 3434TIP3    H210309   2.844   6.044   3.696
 3435TIP3   OH210310   0.572   2.697   4.305
 3435TIP3    H110311   0.483   2.666   4.327
 3435TIP3    H210312   0.573   2.699   4.209
 3436TIP3   OH210313   4.300   0.736   0.255
 3436TIP3    H110314   4.349   0.811   0.289
 3436TIP3    H210315   4.284   0.681   0.332
 3437TIP3   OH210316   0.434   1.322   0.427
 3437TIP3    H110317   0.528   1.305   0.435
 3437TIP3    H210318   0.397   1.241   0.393
 3438TIP3   OH210319   5.811   1.305   1.258
 3438TIP3    H110320   5.867   1.279   1.331
 3438TIP3    H210321   5.872   1.333   1.190
 3439TIP3   OH210322   4.781   5.967   2.955
 3439TIP3    H110323   4.827   5.897   2.909
 3439TIP3    H210324   4.697   5.927   2.981
 3440TIP3   OH210325   6.139   3.735   3.498
 3440TIP3    H110326   6.221   3.739   3.548
 3440TIP3    H210327   6.127   3.825   3.466
 3441TIP3   OH210328   3.136   0.218   2.966
 3441TIP3    H110329   3.142   0.216   2.871
 3441TIP3    H210330   3.147   0.310   2.989
 3442TIP3   OH210331   2.116   4.811   2.957
 3442TIP3    H110332   2.056   4.844   3.024
 3442TIP3    H210333   2.184   4.877   2.950
 3443TIP3   OH210334   4.246   2.678   3.923
 3443TIP3    H110335   4.296   2.659   3.843
 3443TIP3    H210336   4.304   2.733   3.976
 3444TIP3   OH210337   1.007   3.458   5.053
 3444TIP3    H110338   0.963   3.424   4.975
 3444TIP3    H210339   1.004   3.385   5.115
 3445TIP3   OH210340   1.524   5.616   2.616
 3445TIP3    H110341   1.457   5.645   2.554
 3445TIP3    H210342   1.607   5.636   2.573
 3446TIP3   OH210343   4.927   2.031   3.052
 3446TIP3    H110344   4.896   2.003   3.138
 3446TIP3    H210345   4.945   2.124   3.062
 3447TIP3   OH210346   3.412   2.271   1.475
 3447TIP3    H110347   3.481   2.298   1.415
 3447TIP3    H210348   3.429   2.178   1.490
 3448TIP3   OH210349   2.650   4.253   3.911
 3448TIP3    H110350   2.660   4.291   3.824
 3448TIP3    H210351   2.728   4.282   3.959
 3449TIP3   OH210352   0.818   5.583   4.414
 3449TIP3    H110353   0.774   5.650   4.466
 3449TIP3    H210354   0.783   5.500   4.448
 3450TIP3   OH210355   5.691   3.884   1.458
 3450TIP3    H110356   5.770   3.883   1.513
 3450TIP3    H210357   5.710   3.822   1.388
 3451TIP3   OH210358   4.259   2.819   1.212
 3451TIP3    H110359   4.190   2.885   1.222
 3451TIP3    H210360   4.285   2.825   1.120
 3452TIP3   OH210361   2.635   2.852   1.002
 3452TIP3    H110362   2.718   2.875   1.043
 3452TIP3    H210363   2.620   2.921   0.938
 3453TIP3   OH210364   1.536   2.307   5.086
 3453TIP3    H110365   1.486   2.270   5.014
 3453TIP3    H210366   1.474   2.315   5.158
 3454TIP3   OH210367   4.653   0.154   2.308
 3454TIP3    H110368   4.643   0.184   2.217
 3454TIP3    H210369   4.744   0.127   2.314
 3455TIP3   OH210370   3.876   1.143   3.861
 3455TIP3    H110371   3.847   1.105   3.944
 3455TIP3    H210372   3.866   1.073   3.797
 3456TIP3   OH210373   5.711   3.448   0.168
 3456TIP3    H110374   5.746   3.535   0.148
 3456TIP3    H210375   5.643   3.464   0.234
 3457TIP3   OH210376   5.803   0.355   2.695
 3457TIP3    H110377   5.729   0.407   2.728
 3457TIP3    H210378   5.789   0.268   2.731
 3458TIP3   OH210379   2.728   3.286   0.797
 3458TIP3    H110380   2.679   3.367   0.791
 3458TIP3    H210381   2.809   3.303   0.750
 3459TIP3   OH210382   2.745   1.323   2.421
 3459TIP3    H110383   2.675   1.322   2.485
 3459TIP3    H210384   2.824   1.342   2.471
 3460TIP3   OH210385   1.252   5.751   0.666
 3460TIP3    H110386   1.318   5.787   0.607
 3460TIP3    H210387   1.231   5.823   0.725
 3461TIP3   OH210388   3.881   5.792   2.249
 3461TIP3    H110389   3.941   5.842   2.194
 3461TIP3    H210390   3.806   5.774   2.193
 3462TIP3   OH210391   3.625   1.182   0.610
 3462TIP3    H110392   3.542   1.183   0.562
 3462TIP3    H210393   3.652   1.091   0.609
 3463TIP3   OH210394   4.800   5.741   2.199
 3463TIP3    H110395   4.834   5.673   2.256
 3463TIP3    H210396   4.843   5.726   2.114
 3464TIP3   OH210397   5.592   2.557   1.437
 3464TIP3    H110398   5.544   2.597   1.364
 3464TIP3    H210399   5.610   2.630   1.496
 3465TIP3   OH210400   2.398   2.967   4.237
 3465TIP3    H110401   2.389   3.025   4.161
 3465TIP3    H210402   2.464   3.010   4.292
 3466TIP3   OH210403   4.813   3.676   3.595
 3466TIP3    H110404   4.878   3.609   3.615
 3466TIP3    H210405   4.741   3.658   3.655
 3467TIP3   OH210406   1.160   3.655   4.630
 3467TIP3    H110407   1.252   3.642   4.604
 3467TIP3    H210408   1.121   3.568   4.619
 3468TIP3   OH210409   3.163   0.107   1.643
 3468TIP3    H110410   3.133   0.022   1.610
 3468TIP3    H210411   3.229   0.136   1.580
 3469TIP3   OH210412   0.087   2.777   0.053
 3469TIP3    H110413   0.133   2.696   0.075
 3469TIP3    H210414   0.154   2.845   0.061
 3470TIP3   OH210415   4.884   1.314   0.927
 3470TIP3    H110416   4.900   1.408   0.936
 3470TIP3    H210417   4.960   1.280   0.880
 3471TIP3   OH210418   0.522   0.694   2.007
 3471TIP3    H110419   0.582   0.632   2.049
 3471TIP3    H210420   0.539   0.683   1.913
 3472TIP3   OH210421   3.482   1.176   1.735
 3472TIP3    H110422   3.518   1.264   1.726
 3472TIP3    H210423   3.432   1.162   1.654
 3473TIP3   OH210424   3.909   5.156   3.107
 3473TIP3    H110425   3.925   5.233   3.161
 3473TIP3    H210426   3.852   5.101   3.160
 3474TIP3   OH210427   0.121   0.377   2.914
 3474TIP3    H110428   0.153   0.305   2.860
 3474TIP3    H210429   0.160   0.455   2.876
 3475TIP3   OH210430   1.480   4.533   1.084
 3475TIP3    H110431   1.446   4.451   1.117
 3475TIP3    H210432   1.404   4.580   1.051
 3476TIP3   OH210433   0.759   1.600   3.546
 3476TIP3    H110434   0.791   1.525   3.497
 3476TIP3    H210435   0.678   1.625   3.503
 3477TIP3   OH210436   2.645   5.594   3.082
 3477TIP3    H110437   2.598   5.602   3.165
 3477TIP3    H210438   2.628   5.505   3.053
 3478TIP3   OH210439   4.104   4.984   4.312
 3478TIP3    H110440   4.186   5.013   4.352
 3478TIP3    H210441   4.127   4.902   4.267
 3479TIP3   OH210442   4.651   3.333   1.098
 3479TIP3    H110443   4.644   3.307   1.007
 3479TIP3    H210444   4.648   3.429   1.096
 3480TIP3   OH210445   5.648   2.297   2.568
 3480TIP3    H110446   5.660   2.256   2.483
 3480TIP3    H210447   5.712   2.368   2.569
 3481TIP3   OH210448   3.894   5.194   3.582
 3481TIP3    H110449   3.890   5.195   3.678
 3481TIP3    H210450   3.930   5.280   3.559
 3482TIP3   OH210451   0.525   4.015   0.058
 3482TIP3    H110452   0.619   4.022   0.041
 3482TIP3    H210453   0.495   3.948  -0.004
 3483TIP3   OH210454   3.096   3.668   3.210
 3483TIP3    H110455   3.188   3.653   3.232
 3483TIP3    H210456   3.093   3.663   3.114
 3484TIP3   OH210457   4.079   3.080   1.005
 3484TIP3    H110458   4.032   3.019   0.949
 3484TIP3    H210459   4.086   3.035   1.089
 3485TIP3   OH210460   3.261   4.020   1.974
 3485TIP3    H110461   3.245   4.114   1.964
 3485TIP3    H210462   3.189   3.988   2.028
 3486TIP3   OH210463   4.964   2.731   4.088
 3486TIP3    H110464   4.882   2.736   4.138
 3486TIP3    H210465   5.031   2.763   4.149
 3487TIP3   OH210466   0.227   1.152   2.808
 3487TIP3    H110467   0.252   1.070   2.766
 3487TIP3    H210468   0.297   1.169   2.871
 3488TIP3   OH210469   1.447   3.667   0.660
 3488TIP3    H110470   1.501   3.674   0.738
 3488TIP3    H210471   1.509   3.650   0.589
 3489TIP3   OH210472   1.637   3.098   3.175
 3489TIP3    H110473   1.608   3.179   3.216
 3489TIP3    H210474   1.732   3.097   3.189
 3490TIP3   OH210475   5.429   4.540   4.755
 3490TIP3    H110476   5.485   4.482   4.806
 3490TIP3    H210477   5.479   4.621   4.746
 3491TIP3   OH210478   4.627   5.508   3.918
 3491TIP3    H110479   4.654   5.416   3.906
 3491TIP3    H210480   4.681   5.539   3.990
 3492TIP3   OH210481   4.674   0.414   3.010
 3492TIP3    H110482   4.734   0.480   3.045
 3492TIP3    H210483   4.720   0.331   3.023
 3493TIP3   OH210484   2.856   3.639   1.489
 3493TIP3    H110485   2.847   3.543   1.493
 3493TIP3    H210486   2.795   3.666   1.421
 3494TIP3   OH210487   4.350   3.998   1.409
 3494TIP3    H110488   4.409   3.922   1.413
 3494TIP3    H210489   4.266   3.965   1.442
 3495TIP3   OH210490   5.680   3.953   4.096
 3495TIP3    H110491   5.604   3.988   4.051
 3495TIP3    H210492   5.751   3.959   4.033
 3496TIP3   OH210493   0.918   5.782   0.854
 3496TIP3    H110494   0.885   5.706   0.806
 3496TIP3    H210495   0.954   5.745   0.935
 3497TIP3   OH210496   0.194   4.154   0.459
 3497TIP3    H110497   0.124   4.165   0.395
 3497TIP3    H210498   0.272   4.135   0.406
 3498TIP3   OH210499   3.672   5.616   2.425
 3498TIP3    H110500   3.699   5.538   2.377
 3498TIP3    H210501   3.682   5.592   2.518
 3499TIP3   OH210502   1.510   0.570   0.369
 3499TIP3    H110503   1.463   0.509   0.425
 3499TIP3    H210504   1.588   0.593   0.418
 3500TIP3   OH210505   0.833   4.571   5.071
 3500TIP3    H110506   0.835   4.479   5.099
 3500TIP3    H210507   0.923   4.590   5.045
 3501TIP3   OH210508   5.326   5.163   4.031
 3501TIP3    H110509   5.400   5.204   3.986
 3501TIP3    H210510   5.282   5.113   3.963
 3502TIP3   OH210511   5.353   2.392   3.799
 3502TIP3    H110512   5.280   2.420   3.743
 3502TIP3    H210513   5.351   2.297   3.795
 3503TIP3   OH210514   0.238   2.558   0.115
 3503TIP3    H110515   0.147   2.538   0.138
 3503TIP3    H210516   0.289   2.487   0.153
 3504TIP3   OH210517   2.657   2.053   0.447
 3504TIP3    H110518   2.707   1.974   0.469
 3504TIP3    H210519   2.719   2.125   0.459
 3505TIP3   OH210520   5.520   0.740   0.835
 3505TIP3    H110521   5.598   0.696   0.801
 3505TIP3    H210522   5.483   0.677   0.898
 3506TIP3   OH210523   4.478   1.986   4.172
 3506TIP3    H110524   4.436   1.908   4.208
 3506TIP3    H210525   4.532   1.952   4.100
 3507TIP3   OH210526   0.796   2.463   1.577
 3507TIP3    H110527   0.774   2.555   1.561
 3507TIP3    H210528   0.887   2.465   1.607
 3508TIP3   OH210529   0.463   4.549   4.955
 3508TIP3    H110530   0.529   4.534   4.887
 3508TIP3    H210531   0.515   4.565   5.034
 3509TIP3   OH210532   0.990   3.301   4.206
 3509TIP3    H110533   0.958   3.338   4.123
 3509TIP3    H210534   1.083   3.323   4.208
 3510TIP3   OH210535   5.251   1.847   3.815
 3510TIP3    H110536   5.224   1.937   3.835
 3510TIP3    H210537   5.232   1.799   3.895
 3511TIP3   OH210538   0.945   0.712   4.355
 3511TIP3    H110539   0.928   0.646   4.289
 3511TIP3    H210540   1.007   0.671   4.415
 3512TIP3   OH210541   4.580   5.740   3.024
 3512TIP3    H110542   4.508   5.775   2.972
 3512TIP3    H210543   4.573   5.645   3.014
 3513TIP3   OH210544   3.746   5.481   3.520
 3513TIP3    H110545   3.684   5.410   3.504
 3513TIP3    H210546   3.730   5.508   3.610
 3514TIP3   OH210547   2.470   2.860   1.631
 3514TIP3    H110548   2.538   2.837   1.568
 3514TIP3    H210549   2.401   2.794   1.616
 3515TIP3   OH210550   6.107   3.101   4.497
 3515TIP3    H110551   6.054   3.138   4.427
 3515TIP3    H210552   6.064   3.018   4.518
 3516TIP3   OH210553   5.095   1.125   2.651
 3516TIP3    H110554   5.015   1.172   2.627
 3516TIP3    H210555   5.166   1.184   2.628
 3517TIP3   OH210556   0.809   1.581   1.474
 3517TIP3    H110557   0.808   1.661   1.421
 3517TIP3    H210558   0.889   1.535   1.447
 3518TIP3   OH210559   3.363   5.974   3.438
 3518TIP3    H110560   3.422   5.945   3.507
 3518TIP3    H210561   3.280   5.992   3.483
 3519TIP3   OH210562   5.070   4.009   0.490
 3519TIP3    H110563   5.076   4.104   0.498
 3519TIP3    H210564   5.157   3.978   0.513
 3520TIP3   OH210565   5.711   1.616   3.339
 3520TIP3    H110566   5.618   1.600   3.356
 3520TIP3    H210567   5.719   1.711   3.337
 3521TIP3   OH210568   0.714   0.837   5.031
 3521TIP3    H110569   0.647   0.845   4.964
 3521TIP3    H210570   0.703   0.748   5.065
 3522TIP3   OH210571   0.207   5.560   3.786
 3522TIP3    H110572   0.303   5.557   3.779
 3522TIP3    H210573   0.176   5.506   3.714
 3523TIP3   OH210574   6.266   3.617   3.810
 3523TIP3    H110575   6.356   3.597   3.783
 3523TIP3    H210576   6.277   3.668   3.891
 3524TIP3   OH210577   2.396   4.590   3.541
 3524TIP3    H110578   2.366   4.518   3.485
 3524TIP3    H210579   2.485   4.566   3.565
 3525TIP3   OH210580   1.629   4.316   2.957
 3525TIP3    H110581   1.719   4.325   2.926
 3525TIP3    H210582   1.620   4.382   3.025
 3526TIP3   OH210583   3.018   1.414   2.245
 3526TIP3    H110584   3.017   1.319   2.254
 3526TIP3    H210585   2.947   1.433   2.183
 3527TIP3   OH210586   0.798   4.679   4.510
 3527TIP3    H110587   0.712   4.719   4.501
 3527TIP3    H210588   0.858   4.754   4.520
 3528TIP3   OH210589   4.162   0.409   0.127
 3528TIP3    H110590   4.100   0.426   0.198
 3528TIP3    H210591   4.156   0.315   0.112
 3529TIP3   OH210592   3.731   3.653   1.197
 3529TIP3    H110593   3.775   3.568   1.206
 3529TIP3    H210594   3.643   3.631   1.167
 3530TIP3   OH210595   1.893   1.345   0.183
 3530TIP3    H110596   1.806   1.342   0.142
 3530TIP3    H210597   1.887   1.285   0.257
 3531TIP3   OH210598   0.968   5.918   3.915
 3531TIP3    H110599   0.997   5.934   3.826
 3531TIP3    H210600   0.896   5.980   3.929
 3532TIP3   OH210601   4.112   5.285   1.351
 3532TIP3    H110602   4.192   5.334   1.335
 3532TIP3    H210603   4.121   5.205   1.299
 3533TIP3   OH210604   1.867   5.154   4.592
 3533TIP3    H110605   1.911   5.228   4.549
 3533TIP3    H210606   1.883   5.167   4.685
 3534TIP3   OH210607   3.218   3.893   2.287
 3534TIP3    H110608   3.130   3.926   2.268
 3534TIP3    H210609   3.250   3.951   2.356
 3535TIP3   OH210610   5.486   2.967   1.344
 3535TIP3    H110611   5.566   2.920   1.322
 3535TIP3    H210612   5.516   3.045   1.391
 3536TIP3   OH210613   3.641   1.811   3.476
 3536TIP3    H110614   3.584   1.877   3.516
 3536TIP3    H210615   3.620   1.730   3.523
 3537TIP3   OH210616   4.413   3.590   2.329
 3537TIP3    H110617   4.450   3.511   2.367
 3537TIP3    H210618   4.435   3.585   2.236
 3538TIP3   OH210619   3.086   5.300   0.762
 3538TIP3    H110620   3.018   5.233   0.768
 3538TIP3    H210621   3.038   5.383   0.763
 3539TIP3   OH210622   3.708   0.997   1.996
 3539TIP3    H110623   3.686   1.079   2.040
 3539TIP3    H210624   3.796   1.012   1.961
 3540TIP3   OH210625   2.005   4.272   1.341
 3540TIP3    H110626   2.060   4.342   1.375
 3540TIP3    H210627   1.971   4.228   1.419
 3541TIP3   OH210628   1.711   0.332   1.510
 3541TIP3    H110629   1.680   0.412   1.553
 3541TIP3    H210630   1.642   0.268   1.527
 3542TIP3   OH210631   3.408   0.364   3.278
 3542TIP3    H110632   3.436   0.280   3.313
 3542TIP3    H210633   3.489   0.415   3.269
 3543TIP3   OH210634   4.247   5.121   0.395
 3543TIP3    H110635   4.226   5.040   0.349
 3543TIP3    H210636   4.283   5.092   0.479
 3544TIP3   OH210637   2.270   4.964   3.840
 3544TIP3    H110638   2.334   5.035   3.848
 3544TIP3    H210639   2.319   4.885   3.863
 3545TIP3   OH210640   1.248   3.093   3.463
 3545TIP3    H110641   1.168   3.119   3.508
 3545TIP3    H210642   1.319   3.124   3.521
 3546TIP3   OH210643   2.630   5.665   4.896
 3546TIP3    H110644   2.627   5.701   4.807
 3546TIP3    H210645   2.722   5.645   4.910
 3547TIP3   OH210646   2.823   5.129   2.315
 3547TIP3    H110647   2.831   5.139   2.410
 3547TIP3    H210648   2.914   5.131   2.284
 3548TIP3   OH210649   4.013   4.302   2.971
 3548TIP3    H110650   4.008   4.397   2.969
 3548TIP3    H210651   3.937   4.272   2.921
 3549TIP3   OH210652   5.580   2.597   4.873
 3549TIP3    H110653   5.510   2.582   4.937
 3549TIP3    H210654   5.653   2.633   4.925
 3550TIP3   OH210655   6.205   3.524   2.485
 3550TIP3    H110656   6.113   3.537   2.461
 3550TIP3    H210657   6.201   3.485   2.572
 3551TIP3   OH210658   0.589   4.486   4.317
 3551TIP3    H110659   0.633   4.556   4.364
 3551TIP3    H210660   0.602   4.408   4.371
 3552TIP3   OH210661   0.039   5.198   0.934
 3552TIP3    H110662   0.077   5.270   0.885
 3552TIP3    H210663  -0.026   5.159   0.875
 3553TIP3   OH210664   6.355   3.496   4.950
 3553TIP3    H110665   6.307   3.548   5.014
 3553TIP3    H210666   6.291   3.431   4.919
 3554TIP3   OH210667   2.916   1.499   2.984
 3554TIP3    H110668   2.978   1.546   2.930
 3554TIP3    H210669   2.940   1.522   3.074
 3555TIP3   OH210670   5.456   0.357   0.172
 3555TIP3    H110671   5.518   0.289   0.198
 3555TIP3    H210672   5.511   0.432   0.150
 3556TIP3   OH210673   4.818   3.906   5.166
 3556TIP3    H110674   4.777   3.985   5.201
 3556TIP3    H210675   4.764   3.882   5.090
 3557TIP3   OH210676   2.126   1.024   3.263
 3557TIP3    H110677   2.057   1.000   3.200
 3557TIP3    H210678   2.200   1.050   3.208
 3558TIP3   OH210679   5.677   0.889   2.010
 3558TIP3    H110680   5.595   0.845   2.031
 3558TIP3    H210681   5.668   0.976   2.050
 3559TIP3   OH210682   2.090   4.209   0.802
 3559TIP3    H110683   2.058   4.292   0.837
 3559TIP3    H210684   2.043   4.142   0.851
 3560TIP3   OH210685   5.528   0.344   3.207
 3560TIP3    H110686   5.538   0.313   3.297
 3560TIP3    H210687   5.439   0.319   3.182
 3561TIP3   OH210688   2.193   3.772   2.795
 3561TIP3    H110689   2.129   3.719   2.842
 3561TIP3    H210690   2.263   3.788   2.859
 3562TIP3   OH210691   0.088   1.379   3.411
 3562TIP3    H110692   0.126   1.354   3.327
 3562TIP3    H210693   0.076   1.474   3.404
 3563TIP3   OH210694   5.665   3.003   3.871
 3563TIP3    H110695   5.692   3.040   3.955
 3563TIP3    H210696   5.649   2.911   3.889
 3564TIP3   OH210697   5.623   5.369   3.268
 3564TIP3    H110698   5.621   5.343   3.360
 3564TIP3    H210699   5.616   5.287   3.219
 3565TIP3   OH210700   4.643   3.828   4.531
 3565TIP3    H110701   4.674   3.892   4.467
 3565TIP3    H210702   4.567   3.788   4.490
 3566TIP3   OH210703   3.680   0.741   3.410
 3566TIP3    H110704   3.593   0.761   3.444
 3566TIP3    H210705   3.707   0.821   3.365
 3567TIP3   OH210706   3.217   5.672   3.559
 3567TIP3    H110707   3.302   5.715   3.577
 3567TIP3    H210708   3.200   5.691   3.467
 3568TIP3   OH210709   2.815   0.532   3.486
 3568TIP3    H110710   2.780   0.452   3.446
 3568TIP3    H210711   2.791   0.602   3.425
 3569TIP3   OH210712   1.177   0.183   1.467
 3569TIP3    H110713   1.118   0.157   1.397
 3569TIP3    H210714   1.150   0.272   1.489
 3570TIP3   OH210715   4.661   2.008   3.673
 3570TIP3    H110716   4.701   1.930   3.712
 3570TIP3    H210717   4.571   2.007   3.706
 3571TIP3   OH210718   1.356   2.344   3.016
 3571TIP3    H110719   1.306   2.262   3.012
 3571TIP3    H210720   1.309   2.402   2.956
 3572TIP3   OH210721   5.895   5.304   4.613
 3572TIP3    H110722   5.975   5.270   4.573
 3572TIP3    H210723   5.903   5.399   4.607
 3573TIP3   OH210724   2.574   5.124   4.835
 3573TIP3    H110725   2.534   5.051   4.786
 3573TIP3    H210726   2.581   5.091   4.925
 3574TIP3   OH210727   0.122   0.185   3.375
 3574TIP3    H110728   0.157   0.214   3.291
 3574TIP3    H210729   0.082   0.264   3.412
 3575TIP3   OH210730   2.375   5.068   2.192
 3575TIP3    H110731   2.382   5.013   2.114
 3575TIP3    H210732   2.280   5.082   2.202
 3576TIP3   OH210733   4.279   5.134   4.538
 3576TIP3    H110734   4.359   5.186   4.545
 3576TIP3    H210735   4.210   5.198   4.521
 3577TIP3   OH210736   3.379   1.628   4.999
 3577TIP3    H110737   3.299   1.643   5.050
 3577TIP3    H210738   3.445   1.680   5.044
 3578TIP3   OH210739   1.997   5.887   3.332
 3578TIP3    H110740   2.021   5.838   3.411
 3578TIP3    H210741   1.926   5.837   3.293
 3579TIP3   OH210742   5.195   0.649   2.016
 3579TIP3    H110743   5.186   0.663   1.922
 3579TIP3    H210744   5.111   0.676   2.053
 3580TIP3   OH210745   1.279   3.397   4.149
 3580TIP3    H110746   1.272   3.390   4.054
 3580TIP3    H210747   1.372   3.413   4.165
 3581TIP3   OH210748   2.032   1.480   3.899
 3581TIP3    H110749   1.960   1.514   3.952
 3581TIP3    H210750   2.020   1.385   3.900
 3582TIP3   OH210751   0.360   5.871   4.946
 3582TIP3    H110752   0.448   5.895   4.916
 3582TIP3    H210753   0.301   5.906   4.880
 3583TIP3   OH210754   5.830   1.135   0.200
 3583TIP3    H110755   5.824   1.075   0.126
 3583TIP3    H210756   5.923   1.139   0.221
 3584TIP3   OH210757   1.809   3.178   4.576
 3584TIP3    H110758   1.716   3.196   4.566
 3584TIP3    H210759   1.842   3.249   4.631
 3585TIP3   OH210760   2.002   6.008   1.472
 3585TIP3    H110761   2.010   6.019   1.377
 3585TIP3    H210762   2.040   5.922   1.490
 3586TIP3   OH210763   5.364   2.795   3.615
 3586TIP3    H110764   5.343   2.744   3.694
 3586TIP3    H210765   5.394   2.879   3.648
 3587TIP3   OH210766   2.381   4.128   4.791
 3587TIP3    H110767   2.441   4.147   4.719
 3587TIP3    H210768   2.434   4.142   4.870
 3588TIP3   OH210769   2.807   2.166   4.454
 3588TIP3    H110770   2.712   2.163   4.466
 3588TIP3    H210771   2.820   2.230   4.385
 3589TIP3   OH210772   3.476   2.475   0.481
 3589TIP3    H110773   3.414   2.421   0.529
 3589TIP3    H210774   3.558   2.425   0.482
 3590TIP3   OH210775   1.156   4.970   4.549
 3590TIP3    H110776   1.167   4.876   4.556
 3590TIP3    H210777   1.238   5.001   4.510
 3591TIP3   OH210778   1.754   3.369   5.101
 3591TIP3    H110779   1.785   3.279   5.115
 3591TIP3    H210780   1.725   3.370   5.010
 3592TIP3   OH210781   2.071   1.483   3.187
 3592TIP3    H110782   2.057   1.434   3.268
 3592TIP3    H210783   2.152   1.447   3.151
 3593TIP3   OH210784   2.345   0.311   2.543
 3593TIP3    H110785   2.321   0.347   2.458
 3593TIP3    H210786   2.441   0.320   2.547
 3594TIP3   OH210787   3.879   4.567   1.962
 3594TIP3    H110788   3.836   4.594   2.043
 3594TIP3    H210789   3.864   4.473   1.957
 3595TIP3   OH210790   4.928   1.602   0.972
 3595TIP3    H110791   4.895   1.681   0.928
 3595TIP3    H210792   4.971   1.636   1.051
 3596TIP3   OH210793   3.768   2.452   3.964
 3596TIP3    H110794   3.861   2.474   3.952
 3596TIP3    H210795   3.729   2.464   3.878
 3597TIP3   OH210796   1.164   2.876   4.344
 3597TIP3    H110797   1.132   2.963   4.369
 3597TIP3    H210798   1.092   2.838   4.293
 3598TIP3   OH210799   1.409   4.124   4.172
 3598TIP3    H110800   1.345   4.181   4.130
 3598TIP3    H210801   1.356   4.054   4.212
 3599TIP3   OH210802   0.434   0.576   1.098
 3599TIP3    H110803   0.365   0.608   1.040
 3599TIP3    H210804   0.466   0.497   1.055
 3600TIP3   OH210805   3.046   3.443   3.526
 3600TIP3    H110806   3.128   3.480   3.493
 3600TIP3    H210807   3.001   3.517   3.568
 3601TIP3   OH210808   6.090   0.458   3.928
 3601TIP3    H110809   6.084   0.494   3.840
 3601TIP3    H210810   6.167   0.500   3.966
 3602TIP3   OH210811   2.042   5.692   4.762
 3602TIP3    H110812   2.082   5.715   4.846
 3602TIP3    H210813   1.948   5.698   4.778
 3603TIP3   OH210814   2.440   2.141   0.568
 3603TIP3    H110815   2.514   2.097   0.525
 3603TIP3    H210816   2.426   2.091   0.649
 3604TIP3   OH210817   0.552   5.712   3.467
 3604TIP3    H110818   0.540   5.629   3.419
 3604TIP3    H210819   0.497   5.775   3.419
 3605TIP3   OH210820   2.849   5.864   2.159
 3605TIP3    H110821   2.798   5.788   2.129
 3605TIP3    H210822   2.939   5.844   2.134
 3606TIP3   OH210823   0.642   3.421   2.047
 3606TIP3    H110824   0.634   3.348   2.109
 3606TIP3    H210825   0.575   3.484   2.075
 3607TIP3   OH210826   4.484   3.329   2.379
 3607TIP3    H110827   4.472   3.264   2.449
 3607TIP3    H210828   4.420   3.304   2.312
 3608TIP3   OH210829   2.273   5.648   1.137
 3608TIP3    H110830   2.209   5.589   1.096
 3608TIP3    H210831   2.262   5.633   1.231
 3609TIP3   OH210832   0.178   5.724   2.657
 3609TIP3    H110833   0.177   5.814   2.688
 3609TIP3    H210834   0.255   5.685   2.698
 3610TIP3   OH210835   3.315   2.792   2.631
 3610TIP3    H110836   3.270   2.872   2.605
 3610TIP3    H210837   3.247   2.725   2.635
 3611TIP3   OH210838   1.551   5.465   1.617
 3611TIP3    H110839   1.465   5.477   1.578
 3611TIP3    H210840   1.576   5.552   1.648
 3612TIP3   OH210841   0.983   3.168   5.083
 3612TIP3    H110842   1.027   3.105   5.141
 3612TIP3    H210843   1.053   3.206   5.031
 3613TIP3   OH210844   5.771   2.845   1.254
 3613TIP3    H110845   5.861   2.842   1.220
 3613TIP3    H210846   5.718   2.807   1.183
 3614TIP3   OH210847   3.513   4.337   2.551
 3614TIP3    H110848   3.534   4.245   2.534
 3614TIP3    H210849   3.598   4.379   2.562
 3615TIP3   OH210850   5.797   4.221   3.920
 3615TIP3    H110851   5.793   4.143   3.865
 3615TIP3    H210852   5.733   4.205   3.990
 3616TIP3   OH210853   1.366   4.530   0.791
 3616TIP3    H110854   1.354   4.625   0.789
 3616TIP3    H210855   1.456   4.517   0.762
 3617TIP3   OH210856   1.425   0.840   2.180
 3617TIP3    H110857   1.520   0.835   2.182
 3617TIP3    H210858   1.405   0.905   2.112
 3618TIP3   OH210859   2.051   0.663   4.556
 3618TIP3    H110860   2.081   0.706   4.476
 3618TIP3    H210861   2.125   0.670   4.616
 3619TIP3   OH210862   6.053   2.928   1.685
 3619TIP3    H110863   6.009   2.859   1.636
 3619TIP3    H210864   6.047   3.005   1.628
 3620TIP3   OH210865   5.672   2.455   4.666
 3620TIP3    H110866   5.621   2.529   4.699
 3620TIP3    H210867   5.709   2.414   4.745
 3621TIP3   OH210868   3.578   4.099   0.334
 3621TIP3    H110869   3.509   4.166   0.337
 3621TIP3    H210870   3.659   4.147   0.345
 3622TIP3   OH210871   5.534   3.421   2.652
 3622TIP3    H110872   5.489   3.374   2.582
 3622TIP3    H210873   5.552   3.353   2.717
 3623TIP3   OH210874   5.544   1.493   0.779
 3623TIP3    H110875   5.555   1.488   0.684
 3623TIP3    H210876   5.594   1.571   0.805
 3624TIP3   OH210877   3.251   5.146   3.716
 3624TIP3    H110878   3.221   5.234   3.693
 3624TIP3    H210879   3.198   5.088   3.662
 3625TIP3   OH210880   0.727   4.279   4.831
 3625TIP3    H110881   0.814   4.283   4.792
 3625TIP3    H210882   0.741   4.236   4.915
 3626TIP3   OH210883   0.103   0.490   3.454
 3626TIP3    H110884   0.106   0.581   3.422
 3626TIP3    H210885   0.130   0.496   3.545
 3627TIP3   OH210886   3.044   2.203   3.190
 3627TIP3    H110887   2.999   2.130   3.233
 3627TIP3    H210888   2.982   2.275   3.193
 3628TIP3   OH210889   2.514   2.647   2.441
 3628TIP3    H110890   2.525   2.688   2.527
 3628TIP3    H210891   2.522   2.720   2.379
 3629TIP3   OH210892   0.223   5.039   2.778
 3629TIP3    H110893   0.240   5.128   2.747
 3629TIP3    H210894   0.246   4.983   2.703
 3630TIP3   OH210895   4.244   1.214   0.062
 3630TIP3    H110896   4.194   1.153   0.007
 3630TIP3    H210897   4.224   1.187   0.152
 3631TIP3   OH210898   0.015   5.639   1.236
 3631TIP3    H110899   0.041   5.674   1.150
 3631TIP3    H210900   0.093   5.594   1.267
 3632TIP3   OH210901   5.920   0.919   2.190
 3632TIP3    H110902   5.925   0.868   2.271
 3632TIP3    H210903   5.839   0.891   2.148
 3633TIP3   OH210904   1.850   4.397   4.019
 3633TIP3    H110905   1.787   4.336   4.059
 3633TIP3    H210906   1.808   4.483   4.028
 3634TIP3   OH210907   5.033   2.942   2.059
 3634TIP3    H110908   4.957   2.890   2.085
 3634TIP3    H210909   5.104   2.910   2.114
 3635TIP3   OH210910   0.813   5.833   0.347
 3635TIP3    H110911   0.735   5.843   0.402
 3635TIP3    H210912   0.885   5.828   0.409
 3636TIP3   OH210913   1.744   5.306   1.530
 3636TIP3    H110914   1.702   5.287   1.446
 3636TIP3    H210915   1.675   5.349   1.581
 3637TIP3   OH210916   6.211   1.260   3.489
 3637TIP3    H110917   6.239   1.174   3.520
 3637TIP3    H210918   6.291   1.313   3.488
 3638TIP3   OH210919   2.348   0.854   3.442
 3638TIP3    H110920   2.402   0.923   3.405
 3638TIP3    H210921   2.261   0.893   3.452
 3639TIP3   OH210922   5.544   1.625   2.083
 3639TIP3    H110923   5.558   1.659   2.172
 3639TIP3    H210924   5.485   1.551   2.095
 3640TIP3   OH210925   2.782   0.194   5.180
 3640TIP3    H110926   2.778   0.124   5.115
 3640TIP3    H210927   2.755   0.153   5.262
 3641TIP3   OH210928   3.970   1.694   1.891
 3641TIP3    H110929   4.016   1.610   1.883
 3641TIP3    H210930   3.878   1.670   1.902
 3642TIP3   OH210931   1.770   0.677   0.364
 3642TIP3    H110932   1.722   0.696   0.284
 3642TIP3    H210933   1.862   0.694   0.342
 3643TIP3   OH210934   1.627   3.416   1.838
 3643TIP3    H110935   1.637   3.355   1.911
 3643TIP3    H210936   1.679   3.492   1.863
 3644TIP3   OH210937   4.965   5.429   2.544
 3644TIP3    H110938   4.939   5.521   2.548
 3644TIP3    H210939   5.025   5.418   2.617
 3645TIP3   OH210940   3.429   3.246   1.764
 3645TIP3    H110941   3.377   3.225   1.687
 3645TIP3    H210942   3.379   3.313   1.811
 3646TIP3   OH210943   4.264   2.769   3.049
 3646TIP3    H110944   4.259   2.681   3.012
 3646TIP3    H210945   4.324   2.816   2.991
 3647TIP3   OH210946   0.634   4.677   3.782
 3647TIP3    H110947   0.621   4.637   3.696
 3647TIP3    H210948   0.706   4.739   3.768
 3648TIP3   OH210949   4.129   0.056   3.822
 3648TIP3    H110950   4.198  -0.009   3.811
 3648TIP3    H210951   4.129   0.106   3.741
 3649TIP3   OH210952   4.666   0.105   0.696
 3649TIP3    H110953   4.686   0.068   0.610
 3649TIP3    H210954   4.626   0.033   0.744
 3650TIP3   OH210955   3.979   1.932   0.893
 3650TIP3    H110956   3.987   1.910   0.800
 3650TIP3    H210957   3.901   1.988   0.898
 3651TIP3   OH210958   4.217   1.108   4.899
 3651TIP3    H110959   4.280   1.160   4.949
 3651TIP3    H210960   4.264   1.027   4.880
 3652TIP3   OH210961   0.526   4.876   5.073
 3652TIP3    H110962   0.495   4.965   5.089
 3652TIP3    H210963   0.542   4.874   4.978
 3653TIP3   OH210964   2.008   2.197   3.698
 3653TIP3    H110965   2.048   2.116   3.666
 3653TIP3    H210966   2.073   2.235   3.756
 3654TIP3   OH210967   1.034   2.638   4.251
 3654TIP3    H110968   1.045   2.561   4.196
 3654TIP3    H210969   1.036   2.604   4.341
 3655TIP3   OH210970   0.540   3.718   3.627
 3655TIP3    H110971   0.582   3.631   3.627
 3655TIP3    H210972   0.605   3.775   3.587
 3656TIP3   OH210973   6.017   4.209   3.548
 3656TIP3    H110974   6.056   4.137   3.499
 3656TIP3    H210975   6.087   4.238   3.607
 3657TIP3   OH210976   0.957   3.593   1.440
 3657TIP3    H110977   1.045   3.586   1.477
 3657TIP3    H210978   0.945   3.687   1.423
 3658TIP3   OH210979   5.225   0.301   1.186
 3658TIP3    H110980   5.179   0.319   1.268
 3658TIP3    H210981   5.178   0.353   1.121
 3659TIP3   OH210982   3.685   5.555   1.716
 3659TIP3    H110983   3.597   5.519   1.723
 3659TIP3    H210984   3.675   5.634   1.664
 3660TIP3   OH210985   2.117   0.420   0.438
 3660TIP3    H110986   2.068   0.485   0.488
 3660TIP3    H210987   2.205   0.421   0.477
 3661TIP3   OH210988   0.784   4.944   1.574
 3661TIP3    H110989   0.864   4.972   1.620
 3661TIP3    H210990   0.770   4.854   1.603
 3662TIP3   OH210991   2.215   2.279   0.420
 3662TIP3    H110992   2.266   2.227   0.482
 3662TIP3    H210993   2.256   2.263   0.335
 3663TIP3   OH210994   1.287   5.823   4.198
 3663TIP3    H110995   1.231   5.892   4.232
 3663TIP3    H210996   1.260   5.812   4.106
 3664TIP3   OH210997   3.851   0.410   0.702
 3664TIP3    H110998   3.904   0.483   0.670
 3664TIP3    H210999   3.895   0.331   0.670
 3665TIP3   OH211000   2.672   1.518   2.239
 3665TIP3    H111001   2.736   1.511   2.169
 3665TIP3    H211002   2.690   1.443   2.296
 3666TIP3   OH211003   6.334   3.749   4.822
 3666TIP3    H111004   6.252   3.763   4.775
 3666TIP3    H211005   6.333   3.656   4.845
 3667TIP3   OH211006   3.740   2.355   2.689
 3667TIP3    H111007   3.672   2.315   2.743
 3667TIP3    H211008   3.720   2.449   2.691
 3668TIP3   OH211009   2.902   1.799   2.901
 3668TIP3    H111010   2.812   1.781   2.929
 3668TIP3    H211011   2.894   1.870   2.837
 3669TIP3   OH211012   2.055   3.594   1.613
 3669TIP3    H111013   2.035   3.521   1.671
 3669TIP3    H211014   1.994   3.663   1.639
 3670TIP3   OH211015   0.824   0.932   4.513
 3670TIP3    H111016   0.793   0.891   4.594
 3670TIP3    H211017   0.853   0.859   4.458
 3671TIP3   OH211018   3.791   0.072   0.932
 3671TIP3    H111019   3.828  -0.016   0.928
 3671TIP3    H211020   3.857   0.123   0.980
 3672TIP3   OH211021   5.271   3.322   2.552
 3672TIP3    H111022   5.224   3.358   2.626
 3672TIP3    H211023   5.224   3.241   2.531
 3673TIP3   OH211024   0.738   1.680   0.420
 3673TIP3    H111025   0.781   1.671   0.334
 3673TIP3    H211026   0.800   1.642   0.482
 3674TIP3   OH211027   5.227   0.842   4.267
 3674TIP3    H111028   5.151   0.787   4.246
 3674TIP3    H211029   5.295   0.813   4.207
 3675TIP3   OH211030   6.205   1.410   0.462
 3675TIP3    H111031   6.291   1.453   0.464
 3675TIP3    H211032   6.170   1.430   0.375
 3676TIP3   OH211033   6.304   5.897   2.011
 3676TIP3    H111034   6.260   5.977   2.037
 3676TIP3    H211035   6.383   5.927   1.965
 3677TIP3   OH211036   3.558   2.331   1.248
 3677TIP3    H111037   3.554   2.394   1.176
 3677TIP3    H211038   3.510   2.255   1.216
 3678TIP3   OH211039   1.449   4.772   4.611
 3678TIP3    H111040   1.369   4.728   4.583
 3678TIP3    H211041   1.511   4.702   4.629
 3679TIP3   OH211042   5.321   2.389   0.066
 3679TIP3    H111043   5.391   2.445   0.033
 3679TIP3    H211044   5.241   2.441   0.052
 3680TIP3   OH211045   0.985   5.804   0.566
 3680TIP3    H111046   1.010   5.824   0.656
 3680TIP3    H211047   1.068   5.787   0.521
 3681TIP3   OH211048   5.415   2.121   4.351
 3681TIP3    H111049   5.458   2.195   4.308
 3681TIP3    H211050   5.340   2.161   4.397
 3682TIP3   OH211051   1.189   2.030   4.114
 3682TIP3    H111052   1.137   1.951   4.124
 3682TIP3    H211053   1.280   2.000   4.113
 3683TIP3   OH211054   0.939   3.037   4.156
 3683TIP3    H111055   0.957   3.129   4.138
 3683TIP3    H211056   0.916   3.034   4.248
 3684TIP3   OH211057   1.113   1.310   1.991
 3684TIP3    H111058   1.095   1.281   2.080
 3684TIP3    H211059   1.208   1.312   1.984
 3685TIP3   OH211060   5.893   5.277   2.343
 3685TIP3    H111061   5.809   5.275   2.296
 3685TIP3    H211062   5.924   5.367   2.333
 3686TIP3   OH211063   5.318   2.195   5.162
 3686TIP3    H111064   5.258   2.257   5.204
 3686TIP3    H211065   5.279   2.109   5.178
 3687TIP3   OH211066   6.056   2.010   0.129
 3687TIP3    H111067   6.035   2.017   0.222
 3687TIP3    H211068   6.024   2.091   0.090
 3688TIP3   OH211069   4.371   4.962   4.895
 3688TIP3    H111070   4.406   4.903   4.962
 3688TIP3    H211071   4.323   5.028   4.945
 3689TIP3   OH211072   4.624   4.159   4.875
 3689TIP3    H111073   4.568   4.094   4.832
 3689TIP3    H211074   4.563   4.226   4.905
 3690TIP3   OH211075   4.339   1.578   1.998
 3690TIP3    H111076   4.385   1.494   2.002
 3690TIP3    H211077   4.348   1.606   1.907
 3691TIP3   OH211078   0.733   0.571   5.118
 3691TIP3    H111079   0.671   0.595   5.186
 3691TIP3    H211080   0.708   0.483   5.092
 3692TIP3   OH211081   5.680   2.034   1.143
 3692TIP3    H111082   5.732   1.955   1.154
 3692TIP3    H211083   5.613   2.010   1.079
 3693TIP3   OH211084   5.303   1.823   4.279
 3693TIP3    H111085   5.379   1.877   4.300
 3693TIP3    H211086   5.328   1.734   4.305
 3694TIP3   OH211087   4.317   0.591   0.494
 3694TIP3    H111088   4.331   0.501   0.524
 3694TIP3    H211089   4.294   0.639   0.574
 3695TIP3   OH211090   2.211   1.261   2.475
 3695TIP3    H111091   2.299   1.241   2.444
 3695TIP3    H211092   2.180   1.179   2.514
 3696TIP3   OH211093   5.201   3.433   2.786
 3696TIP3    H111094   5.269   3.376   2.824
 3696TIP3    H211095   5.149   3.462   2.861
 3697TIP3   OH211096   3.412   4.839   4.432
 3697TIP3    H111097   3.335   4.859   4.485
 3697TIP3    H211098   3.486   4.873   4.482
 3698TIP3   OH211099   1.951   3.238   0.719
 3698TIP3    H111100   1.910   3.171   0.665
 3698TIP3    H211101   2.012   3.190   0.775
 3699TIP3   OH211102   3.181   1.946   2.794
 3699TIP3    H111103   3.086   1.953   2.782
 3699TIP3    H211104   3.198   1.995   2.875
 3700TIP3   OH211105   3.264   1.415   3.056
 3700TIP3    H111106   3.238   1.458   3.138
 3700TIP3    H211107   3.356   1.439   3.045
 3701TIP3   OH211108   1.370   4.793   2.987
 3701TIP3    H111109   1.397   4.881   3.014
 3701TIP3    H211110   1.439   4.764   2.927
 3702TIP3   OH211111   0.378   0.411   0.262
 3702TIP3    H111112   0.345   0.417   0.351
 3702TIP3    H211113   0.423   0.495   0.248
 3703TIP3   OH211114   5.014   1.975   0.909
 3703TIP3    H111115   5.098   1.952   0.947
 3703TIP3    H211116   5.031   1.982   0.815
 3704TIP3   OH211117   3.045   4.458   3.854
 3704TIP3    H111118   2.979   4.417   3.910
 3704TIP3    H211119   3.101   4.507   3.915
 3705TIP3   OH211120   6.060   2.647   2.704
 3705TIP3    H111121   6.120   2.573   2.712
 3705TIP3    H211122   6.091   2.696   2.629
 3706TIP3   OH211123   1.139   0.609   4.522
 3706TIP3    H111124   1.144   0.625   4.616
 3706TIP3    H211125   1.160   0.516   4.512
 3707TIP3   OH211126   4.238   1.530   1.732
 3707TIP3    H111127   4.207   1.479   1.808
 3707TIP3    H211128   4.162   1.536   1.675
 3708TIP3   OH211129   0.893   0.075   3.714
 3708TIP3    H111130   0.925   0.158   3.680
 3708TIP3    H211131   0.807   0.064   3.673
 3709TIP3   OH211132   4.098   0.358   1.536
 3709TIP3    H111133   4.155   0.287   1.563
 3709TIP3    H211134   4.145   0.402   1.465
 3710TIP3   OH211135   1.394   6.003   1.343
 3710TIP3    H111136   1.343   5.946   1.401
 3710TIP3    H211137   1.429   5.944   1.276
 3711TIP3   OH211138   5.348   5.026   1.845
 3711TIP3    H111139   5.441   5.006   1.847
 3711TIP3    H211140   5.331   5.051   1.754
 3712TIP3   OH211141   2.284   4.183   1.758
 3712TIP3    H111142   2.365   4.208   1.713
 3712TIP3    H211143   2.287   4.088   1.761
 3713TIP3   OH211144   2.702   5.391   3.395
 3713TIP3    H111145   2.677   5.371   3.485
 3713TIP3    H211146   2.653   5.328   3.342
 3714TIP3   OH211147   5.408   2.709   4.317
 3714TIP3    H111148   5.478   2.771   4.298
 3714TIP3    H211149   5.450   2.638   4.366
 3715TIP3   OH211150   2.355   1.024   0.701
 3715TIP3    H111151   2.387   0.941   0.666
 3715TIP3    H211152   2.428   1.057   0.755
 3716TIP3   OH211153   2.464   0.272   1.018
 3716TIP3    H111154   2.461   0.368   1.020
 3716TIP3    H211155   2.557   0.252   1.030
 3717TIP3   OH211156   3.523   1.901   0.374
 3717TIP3    H111157   3.439   1.891   0.329
 3717TIP3    H211158   3.583   1.931   0.306
 3718TIP3   OH211159   3.756   1.367   4.309
 3718TIP3    H111160   3.702   1.293   4.337
 3718TIP3    H211161   3.846   1.336   4.316
 3719TIP3   OH211162   2.333   1.158   0.018
 3719TIP3    H111163   2.311   1.076  -0.025
 3719TIP3    H211164   2.429   1.163   0.014
 3720TIP3   OH211165   5.973   0.396   3.005
 3720TIP3    H111166   5.929   0.328   3.055
 3720TIP3    H211167   6.039   0.350   2.955
 3721TIP3   OH211168   1.635   3.357   3.613
 3721TIP3    H111169   1.696   3.294   3.650
 3721TIP3    H211170   1.628   3.426   3.679
 3722TIP3   OH211171   0.280   4.394   1.775
 3722TIP3    H111172   0.332   4.472   1.756
 3722TIP3    H211173   0.189   4.421   1.761
 3723TIP3   OH211174   6.135   3.321   4.947
 3723TIP3    H111175   6.105   3.302   5.036
 3723TIP3    H211176   6.070   3.383   4.913
 3724TIP3   OH211177   2.610   0.636   0.325
 3724TIP3    H111178   2.687   0.580   0.315
 3724TIP3    H211179   2.636   0.702   0.390
 3725TIP3   OH211180   0.855   1.346   0.856
 3725TIP3    H111181   0.835   1.273   0.915
 3725TIP3    H211182   0.826   1.424   0.904
 3726TIP3   OH211183   1.230   3.935   4.281
 3726TIP3    H111184   1.261   3.845   4.293
 3726TIP3    H211185   1.195   3.937   4.192
 3727TIP3   OH211186   2.217   2.163   2.039
 3727TIP3    H111187   2.206   2.103   1.966
 3727TIP3    H211188   2.299   2.209   2.021
 3728TIP3   OH211189   1.284   4.461   2.260
 3728TIP3    H111190   1.367   4.415   2.243
 3728TIP3    H211191   1.217   4.397   2.236
 3729TIP3   OH211192   3.526   5.154   4.937
 3729TIP3    H111193   3.557   5.181   4.851
 3729TIP3    H211194   3.588   5.192   4.999
 3730TIP3   OH211195   0.918   4.676   2.991
 3730TIP3    H111196   0.895   4.733   3.065
 3730TIP3    H211197   0.951   4.737   2.925
 3731TIP3   OH211198   0.374   2.442   4.565
 3731TIP3    H111199   0.297   2.387   4.583
 3731TIP3    H211200   0.361   2.519   4.620
 3732TIP3   OH211201   1.121   0.137   4.013
 3732TIP3    H111202   1.027   0.116   4.009
 3732TIP3    H211203   1.164   0.058   3.981
 3733TIP3   OH211204   3.141   2.145   1.725
 3733TIP3    H111205   3.090   2.163   1.804
 3733TIP3    H211206   3.224   2.110   1.758
 3734TIP3   OH211207   0.259   3.560   5.164
 3734TIP3    H111208   0.173   3.546   5.124
 3734TIP3    H211209   0.303   3.475   5.154
 3735TIP3   OH211210   6.223   4.427   3.950
 3735TIP3    H111211   6.274   4.408   4.029
 3735TIP3    H211212   6.133   4.435   3.981
 3736TIP3   OH211213   3.646   3.589   3.737
 3736TIP3    H111214   3.673   3.590   3.829
 3736TIP3    H211215   3.724   3.562   3.690
 3737TIP3   OH211216   3.267   5.128   1.344
 3737TIP3    H111217   3.316   5.108   1.423
 3737TIP3    H211218   3.328   5.108   1.272
 3738TIP3   OH211219   6.146   0.730   0.448
 3738TIP3    H111220   6.096   0.651   0.427
 3738TIP3    H211221   6.229   0.698   0.482
 3739TIP3   OH211222   1.202   1.446   4.808
 3739TIP3    H111223   1.260   1.370   4.805
 3739TIP3    H211224   1.189   1.470   4.716
 3740TIP3   OH211225   5.332   2.453   4.125
 3740TIP3    H111226   5.323   2.544   4.154
 3740TIP3    H211227   5.256   2.437   4.069
 3741TIP3   OH211228   4.733   3.713   3.941
 3741TIP3    H111229   4.690   3.644   3.891
 3741TIP3    H211230   4.762   3.670   4.022
 3742TIP3   OH211231   2.134   2.914   4.234
 3742TIP3    H111232   2.217   2.959   4.214
 3742TIP3    H211233   2.096   2.964   4.306
 3743TIP3   OH211234   4.885   5.626   1.096
 3743TIP3    H111235   4.863   5.535   1.119
 3743TIP3    H211236   4.813   5.678   1.132
 3744TIP3   OH211237   3.039   4.609   4.253
 3744TIP3    H111238   3.081   4.610   4.167
 3744TIP3    H211239   3.084   4.678   4.302
 3745TIP3   OH211240   0.386   5.009   4.516
 3745TIP3    H111241   0.390   5.104   4.509
 3745TIP3    H211242   0.349   4.981   4.432
 3746TIP3   OH211243   4.375   1.248   1.472
 3746TIP3    H111244   4.452   1.223   1.420
 3746TIP3    H211245   4.412   1.296   1.546
 3747TIP3   OH211246   1.279   2.108   0.399
 3747TIP3    H111247   1.209   2.173   0.407
 3747TIP3    H211248   1.235   2.027   0.374
 3748TIP3   OH211249   1.429   0.679   3.528
 3748TIP3    H111250   1.475   0.669   3.444
 3748TIP3    H211251   1.457   0.603   3.579
 3749TIP3   OH211252   5.409   0.978   4.472
 3749TIP3    H111253   5.457   1.059   4.455
 3749TIP3    H211254   5.353   0.967   4.395
 3750TIP3   OH211255   4.019   0.997   1.975
 3750TIP3    H111256   4.046   1.069   1.918
 3750TIP3    H211257   4.080   1.000   2.048
 3751TIP3   OH211258   2.243   3.923   3.330
 3751TIP3    H111259   2.328   3.966   3.336
 3751TIP3    H211260   2.242   3.859   3.401
 3752TIP3   OH211261   2.679   0.729   2.806
 3752TIP3    H111262   2.726   0.703   2.885
 3752TIP3    H211263   2.601   0.673   2.805
 3753TIP3   OH211264   0.264   1.467   1.617
 3753TIP3    H111265   0.214   1.395   1.579
 3753TIP3    H211266   0.355   1.447   1.596
 3754TIP3   OH211267   5.396   1.724   3.236
 3754TIP3    H111268   5.394   1.817   3.260
 3754TIP3    H211269   5.323   1.715   3.175
 3755TIP3   OH211270   5.546   3.949   1.173
 3755TIP3    H111271   5.590   3.953   1.088
 3755TIP3    H211272   5.608   3.904   1.230
 3756TIP3   OH211273   1.586   0.352   0.615
 3756TIP3    H111274   1.545   0.290   0.555
 3756TIP3    H211275   1.676   0.321   0.623
 3757TIP3   OH211276   0.760   5.324   4.463
 3757TIP3    H111277   0.694   5.258   4.482
 3757TIP3    H211278   0.833   5.303   4.521
 3758TIP3   OH211279   3.023   0.637   0.118
 3758TIP3    H111280   3.022   0.719   0.167
 3758TIP3    H211281   2.938   0.634   0.074
 3759TIP3   OH211282   6.299   3.273   3.412
 3759TIP3    H111283   6.210   3.295   3.440
 3759TIP3    H211284   6.293   3.184   3.378
 3760TIP3   OH211285   2.713   1.856   1.770
 3760TIP3    H111286   2.728   1.818   1.857
 3760TIP3    H211287   2.781   1.819   1.715
 3761TIP3   OH211288   5.224   1.506   1.895
 3761TIP3    H111289   5.275   1.426   1.886
 3761TIP3    H211290   5.269   1.570   1.840
 3762TIP3   OH211291   1.782   0.234   2.114
 3762TIP3    H111292   1.756   0.315   2.069
 3762TIP3    H211293   1.874   0.223   2.092
 3763TIP3   OH211294   1.476   3.117   3.591
 3763TIP3    H111295   1.529   3.061   3.534
 3763TIP3    H211296   1.530   3.195   3.605
 3764TIP3   OH211297   3.170   2.685   3.034
 3764TIP3    H111298   3.103   2.752   3.049
 3764TIP3    H211299   3.155   2.619   3.102
 3765TIP3   OH211300   2.075   2.414   4.408
 3765TIP3    H111301   2.117   2.329   4.400
 3765TIP3    H211302   1.985   2.394   4.435
 3766TIP3   OH211303   5.201   5.706   5.145
 3766TIP3    H111304   5.250   5.699   5.227
 3766TIP3    H211305   5.118   5.747   5.170
 3767TIP3   OH211306   5.863   5.834   4.892
 3767TIP3    H111307   5.904   5.837   4.979
 3767TIP3    H211308   5.877   5.922   4.856
 3768TIP3   OH211309   0.594   5.615   0.445
 3768TIP3    H111310   0.600   5.569   0.362
 3768TIP3    H211311   0.531   5.686   0.429
 3769TIP3   OH211312   2.231   1.396   1.356
 3769TIP3    H111313   2.199   1.485   1.372
 3769TIP3    H211314   2.168   1.359   1.293
 3770TIP3   OH211315   0.736   1.814   3.195
 3770TIP3    H111316   0.811   1.783   3.144
 3770TIP3    H211317   0.664   1.818   3.133
 3771TIP3   OH211318   6.043   4.668   1.581
 3771TIP3    H111319   6.073   4.685   1.671
 3771TIP3    H211320   5.976   4.734   1.566
 3772TIP3   OH211321   0.084   4.243   0.924
 3772TIP3    H111322   0.044   4.186   0.858
 3772TIP3    H211323   0.037   4.326   0.916
 3773TIP3   OH211324   0.684   2.331   1.362
 3773TIP3    H111325   0.726   2.380   1.433
 3773TIP3    H211326   0.727   2.245   1.363
 3774TIP3   OH211327   2.201   4.110   2.151
 3774TIP3    H111328   2.260   4.060   2.209
 3774TIP3    H211329   2.260   4.168   2.103
 3775TIP3   OH211330   3.603   1.076   5.101
 3775TIP3    H111331   3.677   1.018   5.113
 3775TIP3    H211332   3.572   1.058   5.012
 3776TIP3   OH211333   2.317   4.601   1.901
 3776TIP3    H111334   2.392   4.576   1.954
 3776TIP3    H211335   2.343   4.580   1.811
 3777TIP3   OH211336   6.278   5.823   0.303
 3777TIP3    H111337   6.237   5.796   0.385
 3777TIP3    H211338   6.363   5.858   0.330
 3778TIP3   OH211339   2.701   4.450   1.991
 3778TIP3    H111340   2.711   4.362   1.953
 3778TIP3    H211341   2.791   4.482   1.999
 3779TIP3   OH211342   1.890   2.683   2.376
 3779TIP3    H111343   1.855   2.596   2.355
 3779TIP3    H211344   1.966   2.666   2.432
 3780TIP3   OH211345   5.398   5.750   2.320
 3780TIP3    H111346   5.323   5.789   2.275
 3780TIP3    H211347   5.461   5.731   2.250
 3781TIP3   OH211348   5.865   3.907   2.326
 3781TIP3    H111349   5.942   3.964   2.320
 3781TIP3    H211350   5.810   3.932   2.253
 3782TIP3   OH211351   5.703   1.991   0.803
 3782TIP3    H111352   5.738   2.063   0.856
 3782TIP3    H211353   5.617   2.021   0.775
 3783TIP3   OH211354   0.905   1.135   0.626
 3783TIP3    H111355   0.924   1.048   0.663
 3783TIP3    H211356   0.959   1.140   0.548
 3784TIP3   OH211357   3.669   2.793   4.983
 3784TIP3    H111358   3.704   2.765   5.067
 3784TIP3    H211359   3.578   2.818   5.001
 3785TIP3   OH211360   5.380   1.998   2.214
 3785TIP3    H111361   5.374   2.037   2.301
 3785TIP3    H211362   5.373   2.072   2.153
 3786TIP3   OH211363   4.965   1.703   1.502
 3786TIP3    H111364   5.011   1.759   1.565
 3786TIP3    H211365   5.034   1.651   1.462
 3787TIP3   OH211366   3.153   4.534   1.073
 3787TIP3    H111367   3.170   4.560   0.983
 3787TIP3    H211368   3.225   4.571   1.123
 3788TIP3   OH211369   4.076   3.841   2.688
 3788TIP3    H111370   4.026   3.921   2.672
 3788TIP3    H211371   4.156   3.852   2.636
 3789TIP3   OH211372   0.184   2.314   1.904
 3789TIP3    H111373   0.237   2.325   1.825
 3789TIP3    H211374   0.195   2.222   1.928
 3790TIP3   OH211375   0.359   4.068   2.422
 3790TIP3    H111376   0.272   4.106   2.406
 3790TIP3    H211377   0.368   4.000   2.355
 3791TIP3   OH211378   0.474   5.266   4.583
 3791TIP3    H111379   0.521   5.301   4.659
 3791TIP3    H211380   0.410   5.333   4.561
 3792TIP3   OH211381   5.264   4.346   4.690
 3792TIP3    H111382   5.178   4.384   4.674
 3792TIP3    H211383   5.313   4.415   4.736
 3793TIP3   OH211384   3.274   2.131   0.068
 3793TIP3    H111385   3.237   2.193   0.131
 3793TIP3    H211386   3.207   2.124  -0.001
 3794TIP3   OH211387   4.604   2.487   4.912
 3794TIP3    H111388   4.576   2.458   4.825
 3794TIP3    H211389   4.525   2.525   4.951
 3795TIP3   OH211390   0.216   3.509   4.789
 3795TIP3    H111391   0.141   3.505   4.849
 3795TIP3    H211392   0.189   3.455   4.715
 3796TIP3   OH211393   4.854   1.288   3.762
 3796TIP3    H111394   4.908   1.293   3.841
 3796TIP3    H211395   4.764   1.300   3.793
 3797TIP3   OH211396   1.267   5.633   4.927
 3797TIP3    H111397   1.215   5.711   4.944
 3797TIP3    H211398   1.347   5.666   4.885
 3798TIP3   OH211399   0.037   0.617   0.520
 3798TIP3    H111400   0.064   0.583   0.435
 3798TIP3    H211401   0.048   0.544   0.580
 3799TIP3   OH211402   3.143   0.643   4.832
 3799TIP3    H111403   3.155   0.553   4.803
 3799TIP3    H211404   3.109   0.689   4.755
 3800TIP3   OH211405   5.806   0.762   0.336
 3800TIP3    H111406   5.832   0.717   0.416
 3800TIP3    H211407   5.770   0.846   0.367
 3801TIP3   OH211408   3.892   2.902   0.858
 3801TIP3    H111409   3.800   2.886   0.880
 3801TIP3    H211410   3.926   2.816   0.832
 3802TIP3   OH211411   4.095   5.349   4.501
 3802TIP3    H111412   4.159   5.421   4.511
 3802TIP3    H211413   4.057   5.363   4.414
 3803TIP3   OH211414   2.292   5.608   2.210
 3803TIP3    H111415   2.323   5.687   2.166
 3803TIP3    H211416   2.293   5.540   2.143
 3804TIP3   OH211417   2.954   5.005   1.814
 3804TIP3    H111418   3.022   5.014   1.880
 3804TIP3    H211419   2.881   4.962   1.860
 3805TIP3   OH211420   3.994   5.418   2.317
 3805TIP3    H111421   3.988   5.491   2.378
 3805TIP3    H211422   3.937   5.443   2.244
 3806TIP3   OH211423   2.156   1.368   0.048
 3806TIP3    H111424   2.082   1.350   0.106
 3806TIP3    H211425   2.209   1.288   0.051
 3807TIP3   OH211426   0.401   5.821   2.174
 3807TIP3    H111427   0.338   5.780   2.234
 3807TIP3    H211428   0.451   5.880   2.230
 3808TIP3   OH211429   2.922   1.627   3.246
 3808TIP3    H111430   2.826   1.632   3.244
 3808TIP3    H211431   2.943   1.621   3.339
 3809TIP3   OH211432   5.357   2.003   3.285
 3809TIP3    H111433   5.397   2.084   3.316
 3809TIP3    H211434   5.348   2.015   3.191
 3810TIP3   OH211435   4.592   2.096   3.310
 3810TIP3    H111436   4.574   2.187   3.331
 3810TIP3    H211437   4.506   2.054   3.309
 3811TIP3   OH211438   1.872   5.150   2.389
 3811TIP3    H111439   1.906   5.127   2.475
 3811TIP3    H211440   1.778   5.162   2.403
 3812TIP3   OH211441   5.830   4.708   4.815
 3812TIP3    H111442   5.845   4.798   4.788
 3812TIP3    H211443   5.898   4.691   4.880
 3813TIP3   OH211444   4.759   3.027   2.459
 3813TIP3    H111445   4.709   3.059   2.383
 3813TIP3    H211446   4.773   3.105   2.513
 3814TIP3   OH211447   2.048   3.076   0.126
 3814TIP3    H111448   1.958   3.064   0.157
 3814TIP3    H211449   2.050   3.164   0.090
 3815TIP3   OH211450   4.492   4.606   2.549
 3815TIP3    H111451   4.403   4.587   2.578
 3815TIP3    H211452   4.506   4.697   2.575
 3816TIP3   OH211453   5.281   3.389   1.566
 3816TIP3    H111454   5.244   3.424   1.485
 3816TIP3    H211455   5.374   3.375   1.547
 3817TIP3   OH211456   4.942   5.695   2.528
 3817TIP3    H111457   4.869   5.752   2.505
 3817TIP3    H211458   4.990   5.743   2.596
 3818TIP3   OH211459   4.750   2.514   3.190
 3818TIP3    H111460   4.675   2.567   3.217
 3818TIP3    H211461   4.822   2.577   3.182
 3819TIP3   OH211462   4.313   5.035   3.470
 3819TIP3    H111463   4.237   4.981   3.493
 3819TIP3    H211464   4.278   5.122   3.454
 3820TIP3   OH211465   4.641   4.011   0.359
 3820TIP3    H111466   4.635   4.001   0.454
 3820TIP3    H211467   4.725   4.054   0.344
 3821TIP3   OH211468   5.229   2.195   4.904
 3821TIP3    H111469   5.256   2.208   4.995
 3821TIP3    H211470   5.310   2.200   4.853
 3822TIP3   OH211471   0.325   1.486   5.095
 3822TIP3    H111472   0.266   1.412   5.109
 3822TIP3    H211473   0.301   1.549   5.164
 3823TIP3   OH211474   5.914   5.161   4.332
 3823TIP3    H111475   5.879   5.230   4.277
 3823TIP3    H211476   5.852   5.153   4.404
 3824TIP3   OH211477   6.005   4.675   3.063
 3824TIP3    H111478   6.072   4.736   3.033
 3824TIP3    H211479   6.054   4.599   3.095
 3825TIP3   OH211480   4.639   1.411   3.367
 3825TIP3    H111481   4.562   1.450   3.325
 3825TIP3    H211482   4.705   1.406   3.298
 3826TIP3   OH211483   1.766   5.785   2.741
 3826TIP3    H111484   1.838   5.842   2.768
 3826TIP3    H211485   1.725   5.831   2.667
 3827TIP3   OH211486   1.386   5.221   2.554
 3827TIP3    H111487   1.317   5.190   2.612
 3827TIP3    H211488   1.357   5.306   2.524
 3828TIP3   OH211489   2.494   0.852   4.014
 3828TIP3    H111490   2.460   0.939   4.036
 3828TIP3    H211491   2.517   0.858   3.921
 3829TIP3   OH211492   4.067   1.420   1.941
 3829TIP3    H111493   4.095   1.329   1.945
 3829TIP3    H211494   4.053   1.445   2.032
 3830TIP3   OH211495   0.602   0.875   2.531
 3830TIP3    H111496   0.528   0.934   2.514
 3830TIP3    H211497   0.677   0.918   2.491
 3831TIP3   OH211498   6.202   4.025   4.613
 3831TIP3    H111499   6.274   4.022   4.551
 3831TIP3    H211500   6.165   3.936   4.611
 3832TIP3   OH211501   4.283   4.323   1.929
 3832TIP3    H111502   4.348   4.390   1.952
 3832TIP3    H211503   4.214   4.370   1.883
 3833TIP3   OH211504   1.094   3.139   2.662
 3833TIP3    H111505   1.066   3.205   2.725
 3833TIP3    H211506   1.189   3.133   2.674
 3834TIP3   OH211507   1.957   3.943   2.105
 3834TIP3    H111508   1.999   4.016   2.150
 3834TIP3    H211509   2.030   3.892   2.070
 3835TIP3   OH211510   4.911   5.541   0.553
 3835TIP3    H111511   4.823   5.572   0.574
 3835TIP3    H211512   4.917   5.548   0.458
 3836TIP3   OH211513   5.582   1.811   1.827
 3836TIP3    H111514   5.587   1.775   1.915
 3836TIP3    H211515   5.652   1.875   1.823
 3837TIP3   OH211516   1.653   2.360   0.161
 3837TIP3    H111517   1.586   2.292   0.153
 3837TIP3    H211518   1.718   2.322   0.220
 3838TIP3   OH211519   6.175   4.502   3.163
 3838TIP3    H111520   6.212   4.442   3.099
 3838TIP3    H211521   6.246   4.563   3.183
 3839TIP3   OH211522   0.174   3.520   3.777
 3839TIP3    H111523   0.181   3.478   3.863
 3839TIP3    H211524   0.170   3.447   3.715
 3840TIP3   OH211525   6.100   5.947   2.963
 3840TIP3    H111526   6.104   5.906   2.876
 3840TIP3    H211527   6.191   5.966   2.985
 3841TIP3   OH211528   3.897   2.408   4.710
 3841TIP3    H111529   3.856   2.380   4.629
 3841TIP3    H211530   3.825   2.443   4.763
 3842TIP3   OH211531   4.443   2.603   4.679
 3842TIP3    H111532   4.361   2.649   4.661
 3842TIP3    H211533   4.474   2.574   4.594
 3843TIP3   OH211534   4.885   0.807   4.532
 3843TIP3    H111535   4.810   0.781   4.478
 3843TIP3    H211536   4.934   0.725   4.545
 3844TIP3   OH211537   0.767   0.596   2.789
 3844TIP3    H111538   0.780   0.564   2.700
 3844TIP3    H211539   0.778   0.518   2.844
 3845TIP3   OH211540   0.202   0.574   0.966
 3845TIP3    H111541   0.189   0.535   0.880
 3845TIP3    H211542   0.169   0.509   1.028
 3846TIP3   OH211543   3.585   3.123   3.140
 3846TIP3    H111544   3.603   3.120   3.046
 3846TIP3    H211545   3.637   3.197   3.172
 3847TIP3   OH211546   3.521   5.004   1.693
 3847TIP3    H111547   3.600   4.949   1.695
 3847TIP3    H211548   3.508   5.030   1.784
 3848TIP3   OH211549   0.895   4.419   4.413
 3848TIP3    H111550   0.822   4.360   4.430
 3848TIP3    H211551   0.863   4.506   4.438
 3849TIP3   OH211552   1.594   4.001   2.169
 3849TIP3    H111553   1.654   4.005   2.244
 3849TIP3    H211554   1.648   3.973   2.096
 3850TIP3   OH211555   3.534   1.093   2.891
 3850TIP3    H111556   3.596   1.096   2.963
 3850TIP3    H211557   3.449   1.109   2.932
 3851TIP3   OH211558   5.329   3.836   0.150
 3851TIP3    H111559   5.329   3.931   0.138
 3851TIP3    H211560   5.241   3.809   0.124
 3852TIP3   OH211561   3.477   5.389   4.423
 3852TIP3    H111562   3.486   5.379   4.329
 3852TIP3    H211563   3.518   5.311   4.460
 3853TIP3   OH211564   5.075   3.626   0.129
 3853TIP3    H111565   5.073   3.615   0.224
 3853TIP3    H211566   5.091   3.539   0.095
 3854TIP3   OH211567   3.230   5.713   4.525
 3854TIP3    H111568   3.219   5.645   4.591
 3854TIP3    H211569   3.143   5.750   4.513
 3855TIP3   OH211570   1.661   4.784   4.846
 3855TIP3    H111571   1.671   4.774   4.941
 3855TIP3    H211572   1.670   4.878   4.830
 3856TIP3   OH211573   3.304   1.294   3.446
 3856TIP3    H111574   3.268   1.373   3.486
 3856TIP3    H211575   3.234   1.264   3.388
 3857TIP3   OH211576   0.688   2.274   3.234
 3857TIP3    H111577   0.726   2.355   3.267
 3857TIP3    H211578   0.607   2.301   3.191
 3858TIP3   OH211579   4.978   1.490   5.088
 3858TIP3    H111580   4.952   1.485   5.180
 3858TIP3    H211581   4.954   1.578   5.061
 3859TIP3   OH211582   1.337   5.216   1.172
 3859TIP3    H111583   1.360   5.123   1.168
 3859TIP3    H211584   1.356   5.249   1.084
 3860TIP3   OH211585   5.650   5.387   4.494
 3860TIP3    H111586   5.704   5.333   4.552
 3860TIP3    H211587   5.684   5.476   4.505
 3861TIP3   OH211588   0.420   0.840   1.673
 3861TIP3    H111589   0.477   0.846   1.596
 3861TIP3    H211590   0.460   0.774   1.728
 3862TIP3   OH211591   6.200   1.017   2.332
 3862TIP3    H111592   6.169   0.950   2.271
 3862TIP3    H211593   6.228   1.090   2.277
 3863TIP3   OH211594   3.589   2.591   1.727
 3863TIP3    H111595   3.554   2.576   1.815
 3863TIP3    H211596   3.667   2.535   1.722
 3864TIP3   OH211597   0.192   0.772   1.842
 3864TIP3    H111598   0.119   0.829   1.816
 3864TIP3    H211599   0.234   0.819   1.914
 3865TIP3   OH211600   0.165   0.209   2.660
 3865TIP3    H111601   0.109   0.266   2.609
 3865TIP3    H211602   0.241   0.193   2.604
 3866TIP3   OH211603   2.543   1.707   2.760
 3866TIP3    H111604   2.558   1.738   2.671
 3866TIP3    H211605   2.553   1.612   2.754
 3867TIP3   OH211606   1.240   4.327   0.595
 3867TIP3    H111607   1.303   4.325   0.523
 3867TIP3    H211608   1.278   4.387   0.659
 3868TIP3   OH211609   3.539   3.569   2.367
 3868TIP3    H111610   3.476   3.619   2.314
 3868TIP3    H211611   3.621   3.573   2.317
 3869TIP3   OH211612   3.621   1.756   2.334
 3869TIP3    H111613   3.693   1.819   2.330
 3869TIP3    H211614   3.570   1.773   2.254
 3870TIP3   OH211615   4.729   0.818   2.861
 3870TIP3    H111616   4.659   0.798   2.800
 3870TIP3    H211617   4.687   0.813   2.948
 3871TIP3   OH211618   2.500   4.687   4.162
 3871TIP3    H111619   2.450   4.629   4.220
 3871TIP3    H211620   2.591   4.668   4.181
 3872TIP3   OH211621   4.079   2.652   1.842
 3872TIP3    H111622   4.101   2.728   1.896
 3872TIP3    H211623   4.030   2.689   1.769
 3873TIP3   OH211624   4.626   1.640   2.216
 3873TIP3    H111625   4.708   1.645   2.265
 3873TIP3    H211626   4.589   1.728   2.223
 3874TIP3   OH211627   0.899   4.859   0.585
 3874TIP3    H111628   0.832   4.926   0.596
 3874TIP3    H211629   0.862   4.782   0.628
 3875TIP3   OH211630   1.579   1.192   4.313
 3875TIP3    H111631   1.491   1.154   4.314
 3875TIP3    H211632   1.630   1.134   4.370
 3876TIP3   OH211633   5.611   4.030   3.808
 3876TIP3    H111634   5.614   3.954   3.749
 3876TIP3    H211635   5.597   4.105   3.749
 3877TIP3   OH211636   3.027   5.992   3.120
 3877TIP3    H111637   3.001   5.973   3.210
 3877TIP3    H211638   3.123   5.984   3.121
 3878TIP3   OH211639   1.336   5.720   3.467
 3878TIP3    H111640   1.398   5.668   3.416
 3878TIP3    H211641   1.284   5.766   3.401
 3879TIP3   OH211642   4.652   1.147   1.876
 3879TIP3    H111643   4.612   1.061   1.890
 3879TIP3    H211644   4.668   1.151   1.781
 3880TIP3   OH211645   3.667   1.409   1.816
 3880TIP3    H111646   3.745   1.405   1.762
 3880TIP3    H211647   3.687   1.353   1.891
 3881TIP3   OH211648   2.918   5.963   3.363
 3881TIP3    H111649   2.914   6.031   3.430
 3881TIP3    H211650   2.833   5.920   3.368
 3882TIP3   OH211651   5.105   3.426   2.158
 3882TIP3    H111652   5.116   3.490   2.228
 3882TIP3    H211653   5.193   3.413   2.123
 3883TIP3   OH211654   3.830   2.777   2.143
 3883TIP3    H111655   3.881   2.822   2.075
 3883TIP3    H211656   3.758   2.735   2.096
 3884TIP3   OH211657   5.914   3.897   4.835
 3884TIP3    H111658   5.937   3.990   4.827
 3884TIP3    H211659   5.832   3.897   4.884
 3885TIP3   OH211660   6.257   0.672   3.492
 3885TIP3    H111661   6.305   0.716   3.422
 3885TIP3    H211662   6.306   0.695   3.572
 3886TIP3   OH211663   0.781   3.529   2.755
 3886TIP3    H111664   0.794   3.447   2.801
 3886TIP3    H211665   0.692   3.557   2.780
 3887TIP3   OH211666   3.393   2.086   4.650
 3887TIP3    H111667   3.330   2.151   4.619
 3887TIP3    H211668   3.479   2.126   4.633
 3888TIP3   OH211669   1.480   5.883   1.116
 3888TIP3    H111670   1.508   5.939   1.044
 3888TIP3    H211671   1.479   5.795   1.079
 3889TIP3   OH211672   1.271   3.856   1.780
 3889TIP3    H111673   1.337   3.793   1.808
 3889TIP3    H211674   1.320   3.934   1.756
 3890TIP3   OH211675   0.589   0.086   0.554
 3890TIP3    H111676   0.584   0.077   0.459
 3890TIP3    H211677   0.556   0.175   0.572
 3891TIP3   OH211678   1.876   5.949   2.499
 3891TIP3    H111679   1.879   6.016   2.566
 3891TIP3    H211680   1.967   5.935   2.474
 3892TIP3   OH211681   4.306   5.015   1.861
 3892TIP3    H111682   4.217   4.981   1.856
 3892TIP3    H211683   4.351   4.955   1.921
 3893TIP3   OH211684   4.339   3.976   4.441
 3893TIP3    H111685   4.289   3.917   4.497
 3893TIP3    H211686   4.384   3.918   4.379
 3894TIP3   OH211687   0.305   2.554   3.997
 3894TIP3    H111688   0.257   2.483   3.955
 3894TIP3    H211689   0.266   2.634   3.962
 3895TIP3   OH211690   1.485   3.254   2.169
 3895TIP3    H111691   1.557   3.303   2.209
 3895TIP3    H211692   1.408   3.278   2.222
 3896TIP3   OH211693   5.763   0.596   0.820
 3896TIP3    H111694   5.760   0.503   0.796
 3896TIP3    H211695   5.796   0.596   0.910
 3897TIP3   OH211696   0.892   5.961   5.179
 3897TIP3    H111697   0.854   6.043   5.212
 3897TIP3    H211698   0.819   5.899   5.179
 3898TIP3   OH211699   3.471   2.949   0.876
 3898TIP3    H111700   3.421   2.901   0.942
 3898TIP3    H211701   3.554   2.970   0.919
 3899TIP3   OH211702   1.921   1.963   4.943
 3899TIP3    H111703   1.921   1.995   5.033
 3899TIP3    H211704   1.829   1.970   4.916
 3900TIP3   OH211705   6.347   0.271   2.348
 3900TIP3    H111706   6.296   0.334   2.297
 3900TIP3    H211707   6.416   0.324   2.390
 3901TIP3   OH211708   6.138   0.586   0.758
 3901TIP3    H111709   6.183   0.510   0.795
 3901TIP3    H211710   6.139   0.651   0.827
 3902TIP3   OH211711   1.728   5.622   3.116
 3902TIP3    H111712   1.690   5.650   3.033
 3902TIP3    H211713   1.788   5.551   3.092
 3903TIP3   OH211714   1.473   2.441   1.061
 3903TIP3    H111715   1.441   2.389   1.135
 3903TIP3    H211716   1.399   2.495   1.035
 3904TIP3   OH211717   3.078   2.457   3.741
 3904TIP3    H111718   3.159   2.425   3.703
 3904TIP3    H211719   3.063   2.541   3.698
 3905TIP3   OH211720   3.033   2.834   0.512
 3905TIP3    H111721   2.979   2.829   0.591
 3905TIP3    H211722   3.104   2.771   0.527
 3906TIP3   OH211723   4.027   3.366   3.257
 3906TIP3    H111724   3.946   3.365   3.308
 3906TIP3    H211725   4.019   3.291   3.198
 3907TIP3   OH211726   4.233   0.998   2.155
 3907TIP3    H111727   4.308   1.009   2.215
 3907TIP3    H211728   4.250   0.915   2.110
 3908TIP3   OH211729   6.298   3.209   4.684
 3908TIP3    H111730   6.244   3.158   4.623
 3908TIP3    H211731   6.315   3.150   4.757
 3909TIP3   OH211732   6.289   2.016   0.301
 3909TIP3    H111733   6.225   2.021   0.230
 3909TIP3    H211734   6.297   1.922   0.318
 3910TIP3   OH211735   6.197   1.466   0.177
 3910TIP3    H111736   6.271   1.417   0.140
 3910TIP3    H211737   6.169   1.524   0.106
 3911TIP3   OH211738   1.878   1.226   3.103
 3911TIP3    H111739   1.889   1.298   3.165
 3911TIP3    H211740   1.810   1.171   3.142
 3912TIP3   OH211741   4.115   0.257   0.835
 3912TIP3    H111742   4.100   0.291   0.923
 3912TIP3    H211743   4.208   0.233   0.835
 3913TIP3   OH211744   0.014   3.648   2.862
 3913TIP3    H111745  -0.032   3.689   2.788
 3913TIP3    H211746   0.026   3.719   2.925
 3914TIP3   OH211747   2.059   0.386   4.459
 3914TIP3    H111748   2.008   0.451   4.507
 3914TIP3    H211749   2.088   0.431   4.380
 3915TIP3   OH211750   0.667   4.590   2.139
 3915TIP3    H111751   0.723   4.657   2.179
 3915TIP3    H211752   0.578   4.615   2.166
 3916TIP3   OH211753   0.415   0.195   4.830
 3916TIP3    H111754   0.506   0.199   4.801
 3916TIP3    H211755   0.388   0.286   4.839
 3917TIP3   OH211756   0.614   3.519   1.800
 3917TIP3    H111757   0.623   3.453   1.731
 3917TIP3    H211758   0.635   3.472   1.881
 3918TIP3   OH211759   1.734   4.556   0.034
 3918TIP3    H111760   1.683   4.486  -0.007
 3918TIP3    H211761   1.669   4.609   0.080
 3919TIP3   OH211762   1.956   2.325   2.552
 3919TIP3    H111763   1.913   2.400   2.594
 3919TIP3    H211764   2.014   2.290   2.620
 3920TIP3   OH211765   2.753   2.695   0.786
 3920TIP3    H111766   2.744   2.744   0.704
 3920TIP3    H211767   2.705   2.748   0.850
 3921TIP3   OH211768   4.471   2.344   3.253
 3921TIP3    H111769   4.381   2.355   3.222
 3921TIP3    H211770   4.511   2.430   3.241
 3922TIP3   OH211771   3.505   0.839   4.868
 3922TIP3    H111772   3.427   0.889   4.846
 3922TIP3    H211773   3.485   0.798   4.952
 3923TIP3   OH211774   0.153   4.601  -0.006
 3923TIP3    H111775   0.159   4.619   0.088
 3923TIP3    H211776   0.229   4.545  -0.025
 3924TIP3   OH211777   1.375   4.069   1.176
 3924TIP3    H111778   1.355   4.009   1.105
 3924TIP3    H211779   1.416   4.014   1.243
 3925TIP3   OH211780   1.944   5.603   0.826
 3925TIP3    H111781   1.886   5.546   0.876
 3925TIP3    H211782   2.021   5.548   0.810
 3926TIP3   OH211783   3.699   4.638   2.911
 3926TIP3    H111784   3.607   4.623   2.890
 3926TIP3    H211785   3.707   4.733   2.918
 3927TIP3   OH211786   0.739   3.134   2.430
 3927TIP3    H111787   0.806   3.080   2.472
 3927TIP3    H211788   0.735   3.214   2.483
 3928TIP3   OH211789   0.492   0.789   0.026
 3928TIP3    H111790   0.501   0.704   0.069
 3928TIP3    H211791   0.506   0.771  -0.067
 3929TIP3   OH211792   4.722   2.534   0.851
 3929TIP3    H111793   4.815   2.540   0.869
 3929TIP3    H211794   4.692   2.625   0.851
 3930TIP3   OH211795   3.549   3.441   2.084
 3930TIP3    H111796   3.489   3.446   2.158
 3930TIP3    H211797   3.492   3.432   2.007
 3931TIP3   OH211798   1.108   4.235   4.422
 3931TIP3    H111799   1.064   4.176   4.361
 3931TIP3    H211800   1.044   4.305   4.438
 3932TIP3   OH211801   2.735   2.512   1.340
 3932TIP3    H111802   2.795   2.438   1.334
 3932TIP3    H211803   2.749   2.561   1.259
 3933TIP3   OH211804   5.852   2.464   3.705
 3933TIP3    H111805   5.774   2.414   3.729
 3933TIP3    H211806   5.875   2.512   3.785
 3934TIP3   OH211807   2.739   3.775   2.627
 3934TIP3    H111808   2.739   3.686   2.662
 3934TIP3    H211809   2.651   3.807   2.643
 3935TIP3   OH211810   3.119   3.786   0.247
 3935TIP3    H111811   3.149   3.809   0.159
 3935TIP3    H211812   3.030   3.823   0.252
 3936TIP3   OH211813   0.440   1.160   1.607
 3936TIP3    H111814   0.525   1.163   1.650
 3936TIP3    H211815   0.445   1.086   1.547
 3937TIP3   OH211816   1.933   2.503   4.655
 3937TIP3    H111817   2.019   2.516   4.616
 3937TIP3    H211818   1.871   2.531   4.588
 3938TIP3   OH211819   4.548   4.699   1.838
 3938TIP3    H111820   4.526   4.772   1.896
 3938TIP3    H211821   4.600   4.738   1.768
 3939TIP3   OH211822   1.930   4.418   0.922
 3939TIP3    H111823   1.896   4.456   1.004
 3939TIP3    H211824   1.871   4.450   0.854
 3940TIP3   OH211825   0.855   4.087   0.690
 3940TIP3    H111826   0.775   4.067   0.641
 3940TIP3    H211827   0.825   4.103   0.779
 3941TIP3   OH211828   0.618   3.840   1.083
 3941TIP3    H111829   0.650   3.763   1.132
 3941TIP3    H211830   0.606   3.808   0.994
 3942TIP3   OH211831   2.268   3.785   3.078
 3942TIP3    H111832   2.203   3.787   3.148
 3942TIP3    H211833   2.349   3.815   3.119
 3943TIP3   OH211834   3.021   2.889   1.419
 3943TIP3    H111835   3.020   2.940   1.500
 3943TIP3    H211836   3.095   2.830   1.427
 3944TIP3   OH211837   1.577   5.656   2.888
 3944TIP3    H111838   1.653   5.695   2.845
 3944TIP3    H211839   1.508   5.661   2.823
 3945TIP3   OH211840   4.817   5.032   3.845
 3945TIP3    H111841   4.801   4.999   3.756
 3945TIP3    H211842   4.742   5.003   3.896
 3946TIP3   OH211843   0.077   5.141   4.472
 3946TIP3    H111844   0.021   5.064   4.485
 3946TIP3    H211845   0.107   5.134   4.382
 3947TIP3   OH211846   1.811   3.246   4.146
 3947TIP3    H111847   1.804   3.299   4.067
 3947TIP3    H211848   1.734   3.189   4.143
 3948TIP3   OH211849   5.402   0.249   2.480
 3948TIP3    H111850   5.396   0.284   2.569
 3948TIP3    H211851   5.489   0.209   2.477
 3949TIP3   OH211852   1.344   5.517   1.959
 3949TIP3    H111853   1.306   5.565   2.032
 3949TIP3    H211854   1.420   5.568   1.933
 3950TIP3   OH211855   3.944   3.128   2.557
 3950TIP3    H111856   3.885   3.053   2.561
 3950TIP3    H211857   3.973   3.132   2.466
 3951TIP3   OH211858   3.734   1.275   4.916
 3951TIP3    H111859   3.736   1.183   4.939
 3951TIP3    H211860   3.697   1.277   4.827
 3952TIP3   OH211861   0.035   5.506   5.073
 3952TIP3    H111862   0.093   5.513   5.149
 3952TIP3    H211863  -0.015   5.426   5.089
 3953TIP3   OH211864   6.215   0.632   1.711
 3953TIP3    H111865   6.130   0.610   1.673
 3953TIP3    H211866   6.265   0.551   1.708
 3954TIP3   OH211867   0.564   1.699   2.790
 3954TIP3    H111868   0.645   1.722   2.744
 3954TIP3    H211869   0.553   1.605   2.775
 3955TIP3   OH211870   5.440   2.496   1.858
 3955TIP3    H111871   5.523   2.536   1.882
 3955TIP3    H211872   5.460   2.402   1.851
 3956TIP3   OH211873   6.227   2.731   1.747
 3956TIP3    H111874   6.315   2.766   1.734
 3956TIP3    H211875   6.169   2.802   1.721
 3957TIP3   OH211876   2.753   4.961   1.308
 3957TIP3    H111877   2.713   4.907   1.376
 3957TIP3    H211878   2.751   4.906   1.229
 3958TIP3   OH211879   4.084   4.750   4.489
 3958TIP3    H111880   4.067   4.788   4.576
 3958TIP3    H211881   4.158   4.801   4.455
 3959TIP3   OH211882   3.147   0.343   0.501
 3959TIP3    H111883   3.089   0.414   0.473
 3959TIP3    H211884   3.225   0.387   0.534
 3960TIP3   OH211885   4.733   0.258   5.013
 3960TIP3    H111886   4.644   0.291   5.007
 3960TIP3    H211887   4.739   0.191   4.945
 3961TIP3   OH211888   5.391   4.686   1.193
 3961TIP3    H111889   5.308   4.653   1.158
 3961TIP3    H211890   5.445   4.699   1.115
 3962TIP3   OH211891   6.062   5.540   4.771
 3962TIP3    H111892   6.050   5.619   4.823
 3962TIP3    H211893   6.108   5.570   4.692
 3963TIP3   OH211894   3.880   2.303   2.963
 3963TIP3    H111895   3.891   2.387   2.917
 3963TIP3    H211896   3.790   2.278   2.945
 3964TIP3   OH211897   0.678   4.355   2.296
 3964TIP3    H111898   0.622   4.288   2.256
 3964TIP3    H211899   0.676   4.427   2.233
 3965TIP3   OH211900   3.645   5.009   0.115
 3965TIP3    H111901   3.635   4.933   0.057
 3965TIP3    H211902   3.740   5.016   0.128
 3966TIP3   OH211903   1.837   0.105   2.683
 3966TIP3    H111904   1.782   0.044   2.633
 3966TIP3    H211905   1.896   0.142   2.618
 3967TIP3   OH211906   5.709   0.802   5.028
 3967TIP3    H111907   5.650   0.804   5.103
 3967TIP3    H211908   5.747   0.714   5.030
 3968TIP3   OH211909   2.813   4.409   0.772
 3968TIP3    H111910   2.895   4.375   0.737
 3968TIP3    H211911   2.804   4.496   0.733
 3969TIP3   OH211912   0.472   2.500   2.431
 3969TIP3    H111913   0.500   2.591   2.440
 3969TIP3    H211914   0.531   2.451   2.488
 3970TIP3   OH211915   1.831   4.309   3.497
 3970TIP3    H111916   1.825   4.230   3.443
 3970TIP3    H211917   1.857   4.278   3.583
 3971TIP3   OH211918   2.102   5.048   2.267
 3971TIP3    H111919   2.134   4.966   2.304
 3971TIP3    H211920   2.024   5.069   2.319
 3972TIP3   OH211921   0.283   1.783   0.771
 3972TIP3    H111922   0.317   1.748   0.854
 3972TIP3    H211923   0.342   1.748   0.705
 3973TIP3   OH211924   2.161   2.250   3.014
 3973TIP3    H111925   2.159   2.312   3.087
 3973TIP3    H211926   2.173   2.164   3.055
 3974TIP3   OH211927   0.980   2.276   0.170
 3974TIP3    H111928   0.991   2.261   0.264
 3974TIP3    H211929   0.892   2.314   0.163
 3975TIP3   OH211930   0.704   5.172   1.047
 3975TIP3    H111931   0.792   5.156   1.080
 3975TIP3    H211932   0.713   5.251   0.993
 3976TIP3   OH211933   6.290   1.943   1.061
 3976TIP3    H111934   6.258   1.949   0.971
 3976TIP3    H211935   6.383   1.921   1.052
 3977TIP3   OH211936   5.038   1.116   1.213
 3977TIP3    H111937   5.019   1.088   1.123
 3977TIP3    H211938   5.091   1.195   1.203
 3978TIP3   OH211939   6.230   0.173   2.755
 3978TIP3    H111940   6.320   0.171   2.723
 3978TIP3    H211941   6.189   0.246   2.707
 3979TIP3   OH211942   5.410   3.730   2.650
 3979TIP3    H111943   5.465   3.757   2.723
 3979TIP3    H211944   5.426   3.636   2.642
 3980TIP3   OH211945   0.992   3.741   5.062
 3980TIP3    H111946   1.053   3.767   4.992
 3980TIP3    H211947   0.982   3.647   5.052
 3981TIP3   OH211948   6.070   1.432   2.061
 3981TIP3    H111949   6.142   1.463   2.006
 3981TIP3    H211950   6.106   1.356   2.108
 3982TIP3   OH211951   2.004   3.632   4.524
 3982TIP3    H111952   1.950   3.591   4.591
 3982TIP3    H211953   1.948   3.700   4.486
 3983TIP3   OH211954   5.622   5.896   2.585
 3983TIP3    H111955   5.610   5.923   2.494
 3983TIP3    H211956   5.557   5.947   2.634
 3984TIP3   OH211957   2.168   3.194   4.664
 3984TIP3    H111958   2.249   3.241   4.646
 3984TIP3    H211959   2.101   3.262   4.668
 3985TIP3   OH211960   4.542   4.904   4.195
 3985TIP3    H111961   4.467   4.910   4.254
 3985TIP3    H211962   4.588   4.825   4.223
 3986TIP3   OH211963   4.958   0.675   3.823
 3986TIP3    H111964   4.925   0.618   3.754
 3986TIP3    H211965   4.936   0.763   3.793
 3987TIP3   OH211966   2.562   4.268   3.619
 3987TIP3    H111967   2.593   4.203   3.556
 3987TIP3    H211968   2.507   4.217   3.679
 3988TIP3   OH211969   3.384   5.249   2.157
 3988TIP3    H111970   3.320   5.320   2.168
 3988TIP3    H211971   3.451   5.287   2.100
 3989TIP3   OH211972   3.561   1.509   2.989
 3989TIP3    H111973   3.576   1.478   2.899
 3989TIP3    H211974   3.515   1.593   2.978
 3990TIP3   OH211975   0.541   3.523   1.026
 3990TIP3    H111976   0.608   3.574   1.071
 3990TIP3    H211977   0.589   3.454   0.982
 3991TIP3   OH211978   3.108   3.601   2.941
 3991TIP3    H111979   3.204   3.607   2.941
 3991TIP3    H211980   3.082   3.638   2.857
 3992TIP3   OH211981   5.902   4.563   0.419
 3992TIP3    H111982   5.968   4.524   0.362
 3992TIP3    H211983   5.924   4.532   0.507
 3993TIP3   OH211984   6.044   2.903   0.717
 3993TIP3    H111985   6.104   2.954   0.662
 3993TIP3    H211986   6.037   2.953   0.799
 3994TIP3   OH211987   5.010   4.866   3.500
 3994TIP3    H111988   4.973   4.943   3.544
 3994TIP3    H211989   4.986   4.877   3.409
 3995TIP3   OH211990   4.351   4.954   2.313
 3995TIP3    H111991   4.427   4.943   2.371
 3995TIP3    H211992   4.280   4.909   2.359
 3996TIP3   OH211993   1.324   0.381   0.486
 3996TIP3    H111994   1.374   0.393   0.568
 3996TIP3    H211995   1.233   0.390   0.512
 3997TIP3   OH211996   1.219   5.417   3.658
 3997TIP3    H111997   1.270   5.421   3.577
 3997TIP3    H211998   1.235   5.328   3.692
 3998TIP3   OH211999   5.515   0.638   1.768
 3998TIP3    H112000   5.458   0.647   1.845
 3998TIP3    H212001   5.557   0.724   1.760
 3999TIP3   OH212002   0.976   4.352   3.884
 3999TIP3    H112003   0.986   4.381   3.975
 3999TIP3    H212004   0.923   4.273   3.890
 4000TIP3   OH212005   2.420   1.224   5.077
 4000TIP3    H112006   2.360   1.237   5.151
 4000TIP3    H212007   2.411   1.303   5.025
 4001TIP3   OH212008   5.065   3.529   0.372
 4001TIP3    H112009   4.975   3.512   0.400
 4001TIP3    H212010   5.098   3.443   0.345
 4002TIP3   OH212011   4.961   2.228   4.933
 4002TIP3    H112012   4.949   2.152   4.991
 4002TIP3    H212013   5.049   2.215   4.896
 4003TIP3   OH212014   0.565   0.516   4.767
 4003TIP3    H112015   0.485   0.541   4.814
 4003TIP3    H212016   0.581   0.588   4.707
 4004TIP3   OH212017   3.133   0.420   3.864
 4004TIP3    H112018   3.170   0.491   3.813
 4004TIP3    H212019   3.207   0.383   3.912
 4005TIP3   OH212020   2.430   4.567   1.096
 4005TIP3    H112021   2.471   4.483   1.077
 4005TIP3    H212022   2.351   4.568   1.042
 4006TIP3   OH212023   1.522   3.661   2.419
 4006TIP3    H112024   1.458   3.592   2.439
 4006TIP3    H212025   1.556   3.688   2.504
 4007TIP3   OH212026   5.955   3.798   1.972
 4007TIP3    H112027   6.007   3.876   1.956
 4007TIP3    H212028   5.875   3.812   1.922
 4008TIP3   OH212029   1.320   6.012   3.900
 4008TIP3    H112030   1.334   5.918   3.908
 4008TIP3    H212031   1.339   6.032   3.808
 4009TIP3   OH212032   1.197   4.347   3.724
 4009TIP3    H112033   1.138   4.354   3.798
 4009TIP3    H212034   1.144   4.309   3.654
 4010TIP3   OH212035   1.993   4.602   1.548
 4010TIP3    H112036   1.949   4.676   1.589
 4010TIP3    H212037   1.973   4.527   1.605
 4011TIP3   OH212038   5.599   4.338   0.986
 4011TIP3    H112039   5.661   4.386   1.040
 4011TIP3    H212040   5.629   4.352   0.896
 4012TIP3   OH212041   5.297   5.420   2.207
 4012TIP3    H112042   5.309   5.347   2.147
 4012TIP3    H212043   5.312   5.498   2.154
 4013TIP3   OH212044   5.827   2.399   2.806
 4013TIP3    H112045   5.798   2.430   2.720
 4013TIP3    H212046   5.815   2.475   2.863
 4014TIP3   OH212047   4.922   4.140   3.448
 4014TIP3    H112048   4.895   4.049   3.433
 4014TIP3    H212049   4.852   4.192   3.409
 4015TIP3   OH212050   2.109   1.014   0.221
 4015TIP3    H112051   2.053   0.997   0.146
 4015TIP3    H212052   2.152   1.097   0.202
 4016TIP3   OH212053   4.332   5.152   0.676
 4016TIP3    H112054   4.376   5.237   0.684
 4016TIP3    H212055   4.393   5.090   0.715
 4017TIP3   OH212056   5.432   4.577   3.232
 4017TIP3    H112057   5.406   4.486   3.218
 4017TIP3    H212058   5.494   4.573   3.305
 4018TIP3   OH212059   5.343   1.963   0.447
 4018TIP3    H112060   5.306   2.046   0.418
 4018TIP3    H212061   5.380   1.925   0.367
 4019TIP3   OH212062   6.026   5.992   0.197
 4019TIP3    H112063   6.020   5.999   0.102
 4019TIP3    H212064   6.057   5.902   0.213
 4020TIP3   OH212065   3.849   4.579   5.041
 4020TIP3    H112066   3.880   4.669   5.034
 4020TIP3    H212067   3.755   4.587   5.057
 4021TIP3   OH212068   2.552   0.070   4.212
 4021TIP3    H112069   2.521   0.107   4.295
 4021TIP3    H212070   2.545  -0.025   4.225
 4022TIP3   OH212071   0.256   3.678   4.019
 4022TIP3    H112072   0.300   3.599   4.050
 4022TIP3    H212073   0.215   3.652   3.936
 4023TIP3   OH212074   5.107   5.890   4.780
 4023TIP3    H112075   5.136   5.806   4.743
 4023TIP3    H212076   5.177   5.914   4.841
 4024TIP3   OH212077   4.785   4.707   3.925
 4024TIP3    H112078   4.767   4.613   3.929
 4024TIP3    H212079   4.810   4.723   3.833
 4025TIP3   OH212080   3.868   0.154   3.208
 4025TIP3    H112081   3.832   0.067   3.190
 4025TIP3    H212082   3.868   0.161   3.303
 4026TIP3   OH212083   5.682   5.961   4.579
 4026TIP3    H112084   5.680   6.023   4.652
 4026TIP3    H212085   5.772   5.927   4.579
 4027TIP3   OH212086   0.256   1.361   4.444
 4027TIP3    H112087   0.213   1.442   4.471
 4027TIP3    H212088   0.273   1.314   4.526
 4028TIP3   OH212089   5.362   1.126   4.017
 4028TIP3    H112090   5.420   1.051   4.033
 4028TIP3    H212091   5.289   1.114   4.076
 4029TIP3   OH212092   1.462   2.477   3.481
 4029TIP3    H112093   1.498   2.512   3.399
 4029TIP3    H212094   1.458   2.382   3.467
 4030TIP3   OH212095   2.440   3.466   3.992
 4030TIP3    H112096   2.345   3.466   4.005
 4030TIP3    H212097   2.451   3.460   3.897
 4031TIP3   OH212098   3.522   5.073   1.985
 4031TIP3    H112099   3.454   5.124   2.028
 4031TIP3    H212100   3.548   5.007   2.050
 4032TIP3   OH212101   1.576   5.118   2.761
 4032TIP3    H112102   1.544   5.090   2.675
 4032TIP3    H212103   1.581   5.213   2.755
 4033TIP3   OH212104   0.194   3.620   2.132
 4033TIP3    H112105   0.116   3.670   2.109
 4033TIP3    H212106   0.160   3.541   2.174
 4034TIP3   OH212107   5.440   3.161   1.669
 4034TIP3    H112108   5.477   3.172   1.582
 4034TIP3    H212109   5.386   3.082   1.663
 4035TIP3   OH212110   5.627   5.017   5.161
 4035TIP3    H112111   5.559   5.074   5.197
 4035TIP3    H212112   5.645   5.053   5.074
 4036TIP3   OH212113   3.008   5.015   1.545
 4036TIP3    H112114   2.983   4.996   1.635
 4036TIP3    H212115   3.104   5.007   1.544
 4037TIP3   OH212116   4.547   0.413   4.563
 4037TIP3    H112117   4.464   0.442   4.602
 4037TIP3    H212118   4.556   0.321   4.591
 4038TIP3   OH212119   2.619   4.970   5.093
 4038TIP3    H112120   2.556   4.986   5.163
 4038TIP3    H212121   2.698   5.018   5.120
 4039TIP3   OH212122   3.666   3.622   4.022
 4039TIP3    H112123   3.599   3.690   4.015
 4039TIP3    H212124   3.637   3.567   4.095
 4040TIP3   OH212125   4.399   4.396   2.849
 4040TIP3    H112126   4.483   4.442   2.842
 4040TIP3    H212127   4.351   4.443   2.917
 4041TIP3   OH212128   0.678   0.045   2.536
 4041TIP3    H112129   0.711   0.119   2.587
 4041TIP3    H212130   0.756   0.007   2.496
 4042TIP3   OH212131   2.091   4.198   3.219
 4042TIP3    H112132   1.996   4.207   3.222
 4042TIP3    H212133   2.106   4.119   3.168
 4043TIP3   OH212134   0.122   5.813   1.613
 4043TIP3    H112135   0.049   5.869   1.641
 4043TIP3    H212136   0.137   5.838   1.521
 4044TIP3   OH212137   0.614   1.178   0.654
 4044TIP3    H112138   0.684   1.162   0.717
 4044TIP3    H212139   0.539   1.129   0.689
 4045TIP3   OH212140   5.142   0.525   3.563
 4045TIP3    H112141   5.217   0.584   3.565
 4045TIP3    H212142   5.073   0.575   3.519
 4046TIP3   OH212143   5.304   4.263   2.099
 4046TIP3    H112144   5.316   4.181   2.052
 4046TIP3    H212145   5.357   4.327   2.051
 4047TIP3   OH212146   0.619   0.713   1.240
 4047TIP3    H112147   0.669   0.655   1.296
 4047TIP3    H212148   0.549   0.659   1.205
 4048TIP3   OH212149   2.277   1.549   4.434
 4048TIP3    H112150   2.362   1.523   4.399
 4048TIP3    H212151   2.248   1.473   4.485
 4049TIP3   OH212152   4.542   5.918   0.469
 4049TIP3    H112153   4.590   5.993   0.435
 4049TIP3    H212154   4.501   5.879   0.392
 4050TIP3   OH212155   0.359   3.812   2.905
 4050TIP3    H112156   0.404   3.790   2.987
 4050TIP3    H212157   0.274   3.768   2.911
 4051TIP3   OH212158   0.860   4.576   2.646
 4051TIP3    H112159   0.944   4.547   2.609
 4051TIP3    H212160   0.812   4.495   2.664
 4052TIP3   OH212161   4.638   2.098   4.374
 4052TIP3    H112162   4.605   2.048   4.299
 4052TIP3    H212163   4.733   2.090   4.368
 4053TIP3   OH212164   2.404   3.469   1.662
 4053TIP3    H112165   2.348   3.546   1.654
 4053TIP3    H212166   2.482   3.491   1.611
 4054TIP3   OH212167   4.240   2.193   4.018
 4054TIP3    H112168   4.324   2.229   3.989
 4054TIP3    H212169   4.263   2.134   4.089
 4055TIP3   OH212170   3.058   1.627   0.722
 4055TIP3    H112171   2.970   1.589   0.727
 4055TIP3    H212172   3.116   1.559   0.755
 4056TIP3   OH212173   4.889   2.847   3.823
 4056TIP3    H112174   4.850   2.933   3.837
 4056TIP3    H212175   4.928   2.824   3.908
 4057TIP3   OH212176   6.190   5.476   4.282
 4057TIP3    H112177   6.252   5.480   4.209
 4057TIP3    H212178   6.106   5.456   4.242
 4058TIP3   OH212179   0.493   4.818   1.942
 4058TIP3    H112180   0.510   4.871   2.020
 4058TIP3    H212181   0.576   4.819   1.894
 4059TIP3   OH212182   0.285   3.777   3.715
 4059TIP3    H112183   0.243   3.691   3.716
 4059TIP3    H212184   0.377   3.759   3.695
 4060TIP3   OH212185   6.226   3.102   3.712
 4060TIP3    H112186   6.300   3.092   3.653
 4060TIP3    H212187   6.181   3.018   3.709
 4061TIP3   OH212188   4.883   0.620   0.191
 4061TIP3    H112189   4.800   0.641   0.234
 4061TIP3    H212190   4.907   0.534   0.225
 4062TIP3   OH212191   5.289   0.751   2.945
 4062TIP3    H112192   5.376   0.791   2.948
 4062TIP3    H212193   5.239   0.807   2.885
 4063TIP3   OH212194   5.324   1.817   0.762
 4063TIP3    H112195   5.360   1.737   0.801
 4063TIP3    H212196   5.290   1.788   0.677
 4064TIP3   OH212197   2.029   5.840   0.725
 4064TIP3    H112198   2.008   5.793   0.644
 4064TIP3    H212199   1.988   5.787   0.794
 4065TIP3   OH212200   3.747   3.370   3.093
 4065TIP3    H112201   3.772   3.335   3.008
 4065TIP3    H212202   3.771   3.463   3.088
 4066TIP3   OH212203   1.340   2.500   4.349
 4066TIP3    H112204   1.304   2.422   4.305
 4066TIP3    H212205   1.316   2.489   4.441
 4067TIP3   OH212206   1.245   4.343   3.190
 4067TIP3    H112207   1.218   4.319   3.101
 4067TIP3    H212208   1.163   4.350   3.239
 4068TIP3   OH212209   6.097   3.050   2.695
 4068TIP3    H112210   6.070   2.994   2.622
 4068TIP3    H212211   6.192   3.040   2.698
 4069TIP3   OH212212   5.523   2.809   5.121
 4069TIP3    H112213   5.540   2.793   5.214
 4069TIP3    H212214   5.433   2.842   5.118
 4070TIP3   OH212215   3.082   2.971   3.534
 4070TIP3    H112216   3.026   3.036   3.494
 4070TIP3    H212217   3.103   3.007   3.621
 4071TIP3   OH212218   6.144   4.826   4.711
 4071TIP3    H112219   6.057   4.867   4.716
 4071TIP3    H212220   6.197   4.874   4.774
 4072TIP3   OH212221   0.148  -0.016   0.680
 4072TIP3    H112222   0.084   0.049   0.649
 4072TIP3    H212223   0.210  -0.024   0.607
 4073TIP3   OH212224   0.255   0.112   1.379
 4073TIP3    H112225   0.221   0.193   1.417
 4073TIP3    H212226   0.192   0.091   1.309
 4074TIP3   OH212227   5.550   5.182   0.115
 4074TIP3    H112228   5.625   5.184   0.056
 4074TIP3    H212229   5.501   5.104   0.088
 4075TIP3   OH212230   4.217   2.842   4.845
 4075TIP3    H112231   4.170   2.854   4.763
 4075TIP3    H212232   4.249   2.929   4.869
 4076TIP3   OH212233   5.394   4.864   3.283
 4076TIP3    H112234   5.336   4.909   3.222
 4076TIP3    H212235   5.396   4.774   3.252
 4077TIP3   OH212236   2.758   0.861   1.531
 4077TIP3    H112237   2.759   0.823   1.444
 4077TIP3    H212238   2.814   0.804   1.583
 4078TIP3   OH212239   1.312   4.156   3.543
 4078TIP3    H112240   1.225   4.129   3.570
 4078TIP3    H212241   1.370   4.125   3.612
 4079TIP3   OH212242   5.052   5.783   0.769
 4079TIP3    H112243   5.061   5.771   0.675
 4079TIP3    H212244   4.961   5.809   0.781
 4080TIP3   OH212245   0.301   5.288   2.735
 4080TIP3    H112246   0.319   5.314   2.644
 4080TIP3    H212247   0.382   5.308   2.782
 4081TIP3   OH212248   3.965   0.933   0.372
 4081TIP3    H112249   3.980   0.905   0.463
 4081TIP3    H212250   3.945   0.853   0.325
 4082TIP3   OH212251   5.793   4.358   3.273
 4082TIP3    H112252   5.860   4.420   3.302
 4082TIP3    H212253   5.838   4.273   3.274
 4083TIP3   OH212254   5.828   3.440   1.548
 4083TIP3    H112255   5.823   3.497   1.471
 4083TIP3    H212256   5.866   3.496   1.616
 4084TIP3   OH212257   0.597   0.555   0.486
 4084TIP3    H112258   0.507   0.532   0.509
 4084TIP3    H212259   0.638   0.579   0.569
 4085TIP3   OH212260   5.142   0.699   4.936
 4085TIP3    H112261   5.086   0.777   4.934
 4085TIP3    H212262   5.219   0.723   4.884
 4086TIP3   OH212263   0.598   4.090   4.241
 4086TIP3    H112264   0.507   4.094   4.272
 4086TIP3    H212265   0.629   4.004   4.269
 4087TIP3   OH212266   2.394   3.955   0.194
 4087TIP3    H112267   2.372   3.974   0.285
 4087TIP3    H212268   2.405   3.859   0.192
 4088TIP3   OH212269   3.050   3.606   4.054
 4088TIP3    H112270   3.142   3.598   4.079
 4088TIP3    H212271   3.042   3.555   3.974
 4089TIP3   OH212272   1.234   0.221   3.101
 4089TIP3    H112273   1.324   0.210   3.070
 4089TIP3    H212274   1.181   0.216   3.021
 4090TIP3   OH212275   1.886   0.678   3.716
 4090TIP3    H112276   1.976   0.697   3.692
 4090TIP3    H212277   1.856   0.616   3.649
 4091TIP3   OH212278   1.313   3.356   1.776
 4091TIP3    H112279   1.319   3.430   1.716
 4091TIP3    H212280   1.331   3.394   1.862
 4092TIP3   OH212281   5.429   3.251   2.325
 4092TIP3    H112282   5.448   3.166   2.363
 4092TIP3    H212283   5.377   3.297   2.392
 4093TIP3   OH212284   3.062   3.302   0.168
 4093TIP3    H112285   3.045   3.380   0.221
 4093TIP3    H212286   3.130   3.254   0.216
 4094TIP3   OH212287   2.372   1.451   2.674
 4094TIP3    H112288   2.325   1.435   2.592
 4094TIP3    H212289   2.446   1.391   2.671
 4095TIP3   OH212290   2.480   5.910   1.282
 4095TIP3    H112291   2.490   5.838   1.221
 4095TIP3    H212292   2.547   5.895   1.349
 4096TIP3   OH212293   5.137   0.418   4.945
 4096TIP3    H112294   5.046   0.436   4.924
 4096TIP3    H212295   5.185   0.493   4.910
 4097TIP3   OH212296   2.278   0.864   1.204
 4097TIP3    H112297   2.281   0.890   1.295
 4097TIP3    H212298   2.343   0.794   1.196
 4098TIP3   OH212299   4.074   2.502   3.455
 4098TIP3    H112300   4.037   2.422   3.417
 4098TIP3    H212301   4.101   2.553   3.379
 4099TIP3   OH212302   1.436   2.712   4.204
 4099TIP3    H112303   1.348   2.746   4.188
 4099TIP3    H212304   1.423   2.639   4.264
 4100TIP3   OH212305   0.790   0.272   2.628
 4100TIP3    H112306   0.742   0.355   2.620
 4100TIP3    H212307   0.879   0.294   2.597
 4101TIP3   OH212308   4.371   5.367   1.258
 4101TIP3    H112309   4.436   5.353   1.326
 4101TIP3    H212310   4.396   5.307   1.188
 4102TIP3   OH212311   1.928   3.190   1.343
 4102TIP3    H112312   1.973   3.250   1.403
 4102TIP3    H212313   1.934   3.105   1.385
 4103TIP3   OH212314   1.445   4.492   4.898
 4103TIP3    H112315   1.400   4.500   4.982
 4103TIP3    H212316   1.533   4.527   4.914
 4104TIP3   OH212317   4.808   5.210   1.074
 4104TIP3    H112318   4.745   5.155   1.028
 4104TIP3    H212319   4.891   5.196   1.028
 4105TIP3   OH212320   3.910   2.719   1.628
 4105TIP3    H112321   3.901   2.767   1.545
 4105TIP3    H212322   3.880   2.631   1.608
 4106TIP3   OH212323   5.447   1.067   2.847
 4106TIP3    H112324   5.527   1.044   2.894
 4106TIP3    H212325   5.465   1.154   2.811
 4107TIP3   OH212326   3.825   4.303   4.918
 4107TIP3    H112327   3.797   4.277   4.831
 4107TIP3    H212328   3.857   4.393   4.908
 4108TIP3   OH212329   0.063   5.440   0.767
 4108TIP3    H112330   0.045   5.490   0.688
 4108TIP3    H212331  -0.015   5.453   0.822
 4109TIP3   OH212332   4.105   5.146   2.221
 4109TIP3    H112333   4.194   5.124   2.249
 4109TIP3    H212334   4.089   5.233   2.257
 4110TIP3   OH212335   1.050   4.777   4.772
 4110TIP3    H112336   1.134   4.820   4.786
 4110TIP3    H212337   1.057   4.694   4.818
 4111TIP3   OH212338   3.174   2.590   0.346
 4111TIP3    H112339   3.196   2.670   0.299
 4111TIP3    H212340   3.213   2.601   0.433
 4112TIP3   OH212341   2.781   4.677   0.725
 4112TIP3    H112342   2.832   4.743   0.772
 4112TIP3    H212343   2.690   4.695   0.750
 4113TIP3   OH212344   4.214   4.277   4.858
 4113TIP3    H112345   4.194   4.336   4.785
 4113TIP3    H212346   4.183   4.323   4.936
 4114TIP3   OH212347   4.153   1.887   2.419
 4114TIP3    H112348   4.213   1.839   2.363
 4114TIP3    H212349   4.170   1.979   2.400
 4115TIP3   OH212350   6.230   0.750   4.827
 4115TIP3    H112351   6.262   0.680   4.770
 4115TIP3    H212352   6.181   0.808   4.769
 4116TIP3   OH212353   5.752   2.307   5.083
 4116TIP3    H112354   5.689   2.237   5.097
 4116TIP3    H212355   5.809   2.302   5.160
 4117TIP3   OH212356   2.287   1.136   1.759
 4117TIP3    H112357   2.313   1.046   1.777
 4117TIP3    H212358   2.348   1.189   1.811
 4118TIP3   OH212359   1.329   5.434   2.363
 4118TIP3    H112360   1.349   5.526   2.381
 4118TIP3    H212361   1.372   5.416   2.279
 4119TIP3   OH212362   0.392   4.005   1.448
 4119TIP3    H112363   0.408   4.097   1.470
 4119TIP3    H212364   0.461   3.984   1.385
 4120TIP3   OH212365   0.798   4.041   3.650
 4120TIP3    H112366   0.717   4.087   3.628
 4120TIP3    H212367   0.786   3.952   3.617
 4121TIP3   OH212368   3.583   3.316   0.364
 4121TIP3    H112369   3.501   3.340   0.321
 4121TIP3    H212370   3.567   3.329   0.457
 4122TIP3   OH212371   0.552   4.413   4.041
 4122TIP3    H112372   0.568   4.502   4.072
 4122TIP3    H212373   0.554   4.360   4.121
 4123TIP3   OH212374   2.474   3.478   3.216
 4123TIP3    H112375   2.388   3.458   3.253
 4123TIP3    H212376   2.525   3.399   3.230
 4124TIP3   OH212377   1.287   4.836   1.948
 4124TIP3    H112378   1.236   4.893   1.891
 4124TIP3    H212379   1.233   4.757   1.957
 4125TIP3   OH212380   4.160   1.032   1.118
 4125TIP3    H112381   4.184   0.943   1.144
 4125TIP3    H212382   4.158   1.082   1.200
 4126TIP3   OH212383   3.985   0.637   0.607
 4126TIP3    H112384   3.961   0.727   0.630
 4126TIP3    H212385   4.070   0.624   0.648
 4127TIP3   OH212386   3.912   0.207   3.480
 4127TIP3    H112387   3.995   0.161   3.495
 4127TIP3    H212388   3.915   0.282   3.540
 4128TIP3   OH212389   2.888   2.552   4.325
 4128TIP3    H112390   2.893   2.579   4.233
 4128TIP3    H212391   2.834   2.473   4.323
 4129TIP3   OH212392   4.212   4.560   0.924
 4129TIP3    H112393   4.161   4.593   0.997
 4129TIP3    H212394   4.148   4.513   0.870
 4130TIP3   OH212395   6.012   3.237   3.324
 4130TIP3    H112396   6.021   3.319   3.372
 4130TIP3    H212397   5.944   3.189   3.371
 4131TIP3   OH212398   5.061   5.208   2.875
 4131TIP3    H112399   5.047   5.302   2.873
 4131TIP3    H212400   5.149   5.196   2.837
 4132TIP3   OH212401   2.941   4.063   4.729
 4132TIP3    H112402   3.021   4.036   4.773
 4132TIP3    H212403   2.951   4.030   4.639
 4133TIP3   OH212404   4.947   3.260   0.869
 4133TIP3    H112405   4.983   3.231   0.785
 4133TIP3    H212406   4.930   3.354   0.856
 4134TIP3   OH212407   4.370   3.145   1.779
 4134TIP3    H112408   4.370   3.049   1.778
 4134TIP3    H212409   4.449   3.169   1.827
 4135TIP3   OH212410   0.726   1.763   4.751
 4135TIP3    H112411   0.646   1.759   4.697
 4135TIP3    H212412   0.740   1.672   4.778
 4136TIP3   OH212413   4.356   2.326   4.469
 4136TIP3    H112414   4.445   2.295   4.488
 4136TIP3    H212415   4.364   2.373   4.386
 4137TIP3   OH212416   2.188   0.119   0.616
 4137TIP3    H112417   2.144   0.183   0.673
 4137TIP3    H212418   2.137   0.039   0.627
 4138TIP3   OH212419   5.032   2.419   2.609
 4138TIP3    H112420   5.027   2.430   2.514
 4138TIP3    H212421   5.100   2.353   2.622
 4139TIP3   OH212422   3.630   5.895   2.045
 4139TIP3    H112423   3.582   5.928   2.121
 4139TIP3    H212424   3.577   5.921   1.970
 4140TIP3   OH212425   2.953   0.732   2.199
 4140TIP3    H112426   2.969   0.720   2.293
 4140TIP3    H212427   2.985   0.651   2.159
 4141TIP3   OH212428   2.008   5.650   2.738
 4141TIP3    H112429   2.018   5.730   2.790
 4141TIP3    H212430   1.952   5.675   2.665
 4142TIP3   OH212431   5.021   1.309   1.834
 4142TIP3    H112432   5.016   1.285   1.927
 4142TIP3    H212433   5.085   1.380   1.832
 4143TIP3   OH212434   3.581   1.557   3.614
 4143TIP3    H112435   3.604   1.467   3.638
 4143TIP3    H212436   3.558   1.599   3.697
 4144TIP3   OH212437   2.432   1.940   0.781
 4144TIP3    H112438   2.342   1.940   0.812
 4144TIP3    H212439   2.447   1.852   0.748
 4145TIP3   OH212440   2.219   5.503   3.894
 4145TIP3    H112441   2.262   5.435   3.843
 4145TIP3    H212442   2.152   5.458   3.945
 4146TIP3   OH212443   0.270   3.903   2.167
 4146TIP3    H112444   0.279   3.903   2.072
 4146TIP3    H212445   0.218   3.826   2.187
 4147TIP3   OH212446   2.587   1.643   0.303
 4147TIP3    H112447   2.514   1.588   0.332
 4147TIP3    H212448   2.558   1.732   0.322
 4148TIP3   OH212449   0.276   0.483   3.243
 4148TIP3    H112450   0.323   0.557   3.281
 4148TIP3    H212451   0.205   0.465   3.304
 4149TIP3   OH212452   1.053   1.015   4.059
 4149TIP3    H112453   0.963   0.984   4.051
 4149TIP3    H212454   1.046   1.093   4.114
 4150TIP3   OH212455   5.883   1.931   2.675
 4150TIP3    H112456   5.911   2.008   2.725
 4150TIP3    H212457   5.808   1.897   2.724
 4151TIP3   OH212458   3.833   1.900   4.629
 4151TIP3    H112459   3.921   1.933   4.647
 4151TIP3    H212460   3.840   1.860   4.542
 4152TIP3   OH212461   4.614   0.638   3.849
 4152TIP3    H112462   4.602   0.546   3.874
 4152TIP3    H212463   4.637   0.682   3.930
 4153TIP3   OH212464   0.797   0.164   1.071
 4153TIP3    H112465   0.859   0.154   0.999
 4153TIP3    H212466   0.728   0.100   1.053
 4154TIP3   OH212467   4.340   0.924   1.461
 4154TIP3    H112468   4.331   0.919   1.556
 4154TIP3    H212469   4.305   1.010   1.438
 4155TIP3   OH212470   4.860   1.560   0.326
 4155TIP3    H112471   4.910   1.502   0.383
 4155TIP3    H212472   4.920   1.632   0.305
 4156TIP3   OH212473   0.286   2.824   2.555
 4156TIP3    H112474   0.339   2.782   2.623
 4156TIP3    H212475   0.321   2.913   2.550
 4157TIP3   OH212476   2.102   1.273   3.397
 4157TIP3    H112477   2.121   1.190   3.354
 4157TIP3    H212478   2.046   1.250   3.471
 4158TIP3   OH212479   3.120   1.064   1.167
 4158TIP3    H112480   3.162   1.012   1.235
 4158TIP3    H212481   3.027   1.063   1.189
 4159TIP3   OH212482   3.482   4.089   2.805
 4159TIP3    H112483   3.505   3.996   2.804
 4159TIP3    H212484   3.398   4.093   2.759
 4160TIP3   OH212485   5.896   3.076   3.514
 4160TIP3    H112486   5.839   3.134   3.564
 4160TIP3    H212487   5.921   3.007   3.576
 4161TIP3   OH212488   1.712   2.636   4.181
 4161TIP3    H112489   1.785   2.691   4.154
 4161TIP3    H212490   1.636   2.695   4.181
 4162TIP3   OH212491   5.358   5.595   4.486
 4162TIP3    H112492   5.270   5.574   4.456
 4162TIP3    H212493   5.347   5.670   4.544
 4163TIP3   OH212494   1.079   2.282   0.462
 4163TIP3    H112495   1.127   2.364   0.472
 4163TIP3    H212496   0.987   2.307   0.476
 4164TIP3   OH212497   2.316   2.508   0.505
 4164TIP3    H112498   2.277   2.435   0.457
 4164TIP3    H212499   2.355   2.467   0.583
 4165TIP3   OH212500   3.497   5.908   0.503
 4165TIP3    H112501   3.575   5.865   0.467
 4165TIP3    H212502   3.433   5.838   0.513
 4166TIP3   OH212503   4.984   3.196   3.629
 4166TIP3    H112504   5.045   3.191   3.703
 4166TIP3    H212505   4.905   3.234   3.666
 4167TIP3   OH212506   3.573   0.878   4.274
 4167TIP3    H112507   3.508   0.939   4.238
 4167TIP3    H212508   3.594   0.820   4.201
 4168TIP3   OH212509   3.414   0.016   1.756
 4168TIP3    H112510   3.348   0.006   1.688
 4168TIP3    H212511   3.483   0.068   1.715
 4169TIP3   OH212512   4.586   0.879   1.386
 4169TIP3    H112513   4.562   0.855   1.297
 4169TIP3    H212514   4.503   0.895   1.430
 4170TIP3   OH212515   0.594   4.154   5.093
 4170TIP3    H112516   0.655   4.223   5.119
 4170TIP3    H212517   0.532   4.148   5.166
 4171TIP3   OH212518   2.349   5.392   1.670
 4171TIP3    H112519   2.298   5.463   1.631
 4171TIP3    H212520   2.346   5.409   1.764
 4172TIP3   OH212521   6.082   1.587   4.305
 4172TIP3    H112522   6.141   1.644   4.355
 4172TIP3    H212523   6.003   1.638   4.294
 4173TIP3   OH212524   4.702   3.493   2.275
 4173TIP3    H112525   4.656   3.575   2.252
 4173TIP3    H212526   4.663   3.466   2.358
 4174TIP3   OH212527   1.854   2.553   1.846
 4174TIP3    H112528   1.876   2.464   1.821
 4174TIP3    H212529   1.896   2.566   1.931
 4175TIP3   OH212530   6.045   1.763   4.773
 4175TIP3    H112531   6.022   1.770   4.866
 4175TIP3    H212532   6.108   1.691   4.770
 4176TIP3   OH212533   0.083   1.079   4.629
 4176TIP3    H112534   0.065   1.097   4.537
 4176TIP3    H212535   0.007   1.114   4.676
 4177TIP3   OH212536   3.729   4.803   1.028
 4177TIP3    H112537   3.687   4.883   1.059
 4177TIP3    H212538   3.752   4.821   0.937
 4178TIP3   OH212539   0.632   0.981   0.161
 4178TIP3    H112540   0.717   0.939   0.168
 4178TIP3    H212541   0.577   0.916   0.117
 4179TIP3   OH212542   4.497   1.326   0.567
 4179TIP3    H112543   4.535   1.239   0.555
 4179TIP3    H212544   4.466   1.351   0.480
 4180TIP3   OH212545   0.019   1.599   1.672
 4180TIP3    H112546   0.011   1.620   1.579
 4180TIP3    H212547   0.113   1.585   1.685
 4181TIP3   OH212548   4.996   4.932   0.264
 4181TIP3    H112549   4.945   4.998   0.218
 4181TIP3    H212550   5.067   4.981   0.305
 4182TIP3   OH212551   3.926   1.745   0.648
 4182TIP3    H112552   3.841   1.758   0.607
 4182TIP3    H212553   3.987   1.735   0.576
 4183TIP3   OH212554   3.590   3.298   1.203
 4183TIP3    H112555   3.663   3.358   1.219
 4183TIP3    H212556   3.563   3.316   1.113
 4184TIP3   OH212557   4.124   4.334   2.210
 4184TIP3    H112558   4.175   4.405   2.249
 4184TIP3    H212559   4.166   4.254   2.241
 4185TIP3   OH212560   1.571   4.998   0.858
 4185TIP3    H112561   1.664   4.980   0.869
 4185TIP3    H212562   1.567   5.080   0.809
 4186TIP3   OH212563   2.133   3.923   1.170
 4186TIP3    H112564   2.228   3.930   1.157
 4186TIP3    H212565   2.113   3.833   1.142
 4187TIP3   OH212566   1.925   1.609   0.191
 4187TIP3    H112567   1.904   1.534   0.135
 4187TIP3    H212568   1.886   1.587   0.276
 4188TIP3   OH212569   1.087   1.416   0.395
 4188TIP3    H112570   1.039   1.385   0.319
 4188TIP3    H212571   1.118   1.336   0.438
 4189TIP3   OH212572   2.794   2.218   4.921
 4189TIP3    H112573   2.781   2.183   5.008
 4189TIP3    H212574   2.742   2.162   4.864
 4190TIP3   OH212575   1.687   2.513   0.911
 4190TIP3    H112576   1.659   2.605   0.906
 4190TIP3    H212577   1.615   2.469   0.956
 4191TIP3   OH212578   0.930   4.846   1.317
 4191TIP3    H112579   0.913   4.756   1.290
 4191TIP3    H212580   0.848   4.875   1.357
 4192TIP3   OH212581   5.982   5.597   0.884
 4192TIP3    H112582   5.908   5.551   0.924
 4192TIP3    H212583   5.942   5.662   0.826
 4193TIP3   OH212584   3.656   2.581   3.761
 4193TIP3    H112585   3.731   2.639   3.745
 4193TIP3    H212586   3.645   2.534   3.679
 4194TIP3   OH212587   3.766   5.550   5.094
 4194TIP3    H112588   3.672   5.563   5.099
 4194TIP3    H212589   3.786   5.490   5.166
 4195TIP3   OH212590   0.240   0.657   1.580
 4195TIP3    H112591   0.282   0.581   1.619
 4195TIP3    H212592   0.262   0.730   1.638
 4196TIP3   OH212593   1.316   5.939   4.777
 4196TIP3    H112594   1.355   5.869   4.725
 4196TIP3    H212595   1.253   5.980   4.719
 4197TIP3   OH212596   2.818   3.347   3.897
 4197TIP3    H112597   2.762   3.322   3.971
 4197TIP3    H212598   2.900   3.299   3.912
 4198TIP3   OH212599   5.345   0.365   5.147
 4198TIP3    H112600   5.328   0.459   5.152
 4198TIP3    H212601   5.301   0.336   5.068
 4199TIP3   OH212602   3.650   4.800   2.514
 4199TIP3    H112603   3.598   4.769   2.588
 4199TIP3    H212604   3.642   4.732   2.448
 4200TIP3   OH212605   1.468   5.740   4.672
 4200TIP3    H112606   1.457   5.675   4.603
 4200TIP3    H212607   1.509   5.815   4.630
 4201TIP3   OH212608   4.164   5.327   3.359
 4201TIP3    H112609   4.243   5.362   3.317
 4201TIP3    H212610   4.142   5.391   3.426
 4202TIP3   OH212611   2.726   5.676   3.923
 4202TIP3    H112612   2.760   5.738   3.987
 4202TIP3    H212613   2.790   5.680   3.851
 4203TIP3   OH212614   6.126   1.237   4.862
 4203TIP3    H112615   6.044   1.224   4.814
 4203TIP3    H212616   6.194   1.235   4.794
 4204TIP3   OH212617   2.581   1.612   1.535
 4204TIP3    H112618   2.508   1.563   1.572
 4204TIP3    H212619   2.643   1.619   1.607
 4205TIP3   OH212620   3.384   4.887   4.902
 4205TIP3    H112621   3.434   4.817   4.945
 4205TIP3    H212622   3.436   4.966   4.918
 4206TIP3   OH212623   2.489   4.304   1.636
 4206TIP3    H112624   2.498   4.251   1.557
 4206TIP3    H212625   2.479   4.393   1.604
 4207TIP3   OH212626   1.257   3.488   4.959
 4207TIP3    H112627   1.166   3.477   4.985
 4207TIP3    H212628   1.257   3.566   4.903
 4208TIP3   OH212629   3.849   0.763   1.131
 4208TIP3    H112630   3.832   0.674   1.100
 4208TIP3    H212631   3.885   0.751   1.219
 4209TIP3   OH212632   0.038   4.745   2.521
 4209TIP3    H112633   0.023   4.839   2.530
 4209TIP3    H212634   0.028   4.728   2.427
 4210TIP3   OH212635   4.406   0.935   3.410
 4210TIP3    H112636   4.443   1.023   3.402
 4210TIP3    H212637   4.465   0.890   3.471
 4211TIP3   OH212638   5.809   5.599   4.505
 4211TIP3    H112639   5.881   5.657   4.481
 4211TIP3    H212640   5.735   5.630   4.454
 4212TIP3   OH212641   3.940   2.546   2.233
 4212TIP3    H112642   4.035   2.553   2.222
 4212TIP3    H212643   3.907   2.630   2.201
 4213TIP3   OH212644   6.038   0.185   3.953
 4213TIP3    H112645   6.085   0.147   3.879
 4213TIP3    H212646   6.058   0.279   3.950
 4214TIP3   OH212647   0.426   1.599   3.817
 4214TIP3    H112648   0.336   1.623   3.794
 4214TIP3    H212649   0.469   1.682   3.838
 4215TIP3   OH212650   0.675   3.834   4.289
 4215TIP3    H112651   0.729   3.802   4.361
 4215TIP3    H212652   0.602   3.773   4.285
 4216TIP3   OH212653   5.768   4.837   3.189
 4216TIP3    H112654   5.835   4.778   3.155
 4216TIP3    H212655   5.806   4.870   3.271
 4217TIP3   OH212656   2.417   1.680   0.668
 4217TIP3    H112657   2.396   1.675   0.574
 4217TIP3    H212658   2.384   1.597   0.704
 4218TIP3   OH212659   1.235   1.398   1.300
 4218TIP3    H112660   1.285   1.324   1.264
 4218TIP3    H212661   1.269   1.409   1.388
 4219TIP3   OH212662   1.496   1.971   4.126
 4219TIP3    H112663   1.553   1.984   4.202
 4219TIP3    H212664   1.549   2.003   4.052
 4220TIP3   OH212665   5.092   4.764   3.978
 4220TIP3    H112666   4.997   4.753   3.974
 4220TIP3    H212667   5.125   4.725   3.897
 4221TIP3   OH212668   5.440   5.572   2.520
 4221TIP3    H112669   5.428   5.615   2.605
 4221TIP3    H212670   5.418   5.639   2.456
 4222TIP3   OH212671   1.230   4.200   4.949
 4222TIP3    H112672   1.247   4.246   4.867
 4222TIP3    H212673   1.276   4.116   4.939
 4223TIP3   OH212674   0.524   4.049   1.927
 4223TIP3    H112675   0.602   3.998   1.906
 4223TIP3    H212676   0.455   3.983   1.941
 4224TIP3   OH212677   3.249   4.387   4.829
 4224TIP3    H112678   3.163   4.358   4.859
 4224TIP3    H212679   3.268   4.332   4.753
 4225TIP3   OH212680   1.833   4.851   1.553
 4225TIP3    H112681   1.908   4.864   1.495
 4225TIP3    H212682   1.757   4.867   1.497
 4226TIP3   OH212683   0.312   4.830   4.775
 4226TIP3    H112684   0.396   4.791   4.752
 4226TIP3    H212685   0.319   4.921   4.745
 4227TIP3   OH212686   0.748   2.567   2.745
 4227TIP3    H112687   0.727   2.528   2.660
 4227TIP3    H212688   0.839   2.542   2.761
 4228TIP3   OH212689   6.028   4.569   2.679
 4228TIP3    H112690   5.946   4.588   2.723
 4228TIP3    H212691   6.023   4.618   2.597
 4229TIP3   OH212692   6.293   1.223   2.175
 4229TIP3    H112693   6.322   1.283   2.244
 4229TIP3    H212694   6.369   1.213   2.118
 4230TIP3   OH212695   0.702   0.905   4.751
 4230TIP3    H112696   0.617   0.871   4.723
 4230TIP3    H212697   0.681   0.976   4.811
 4231TIP3   OH212698   2.517   1.204   0.894
 4231TIP3    H112699   2.513   1.292   0.931
 4231TIP3    H212700   2.460   1.151   0.950
 4232TIP3   OH212701   4.301   3.191   1.283
 4232TIP3    H112702   4.393   3.162   1.283
 4232TIP3    H212703   4.275   3.187   1.191
 4233TIP3   OH212704   2.361   0.302   4.356
 4233TIP3    H112705   2.292   0.369   4.361
 4233TIP3    H212706   2.339   0.252   4.278
 4234TIP3   OH212707   3.398   0.409   2.904
 4234TIP3    H112708   3.483   0.449   2.921
 4234TIP3    H212709   3.335   0.465   2.949
 4235TIP3   OH212710   6.285   5.464   3.078
 4235TIP3    H112711   6.275   5.385   3.131
 4235TIP3    H212712   6.377   5.464   3.052
 4236TIP3   OH212713   5.408   3.185   1.122
 4236TIP3    H112714   5.432   3.121   1.190
 4236TIP3    H212715   5.326   3.223   1.153
 4237TIP3   OH212716   2.902   2.457   0.751
 4237TIP3    H112717   2.831   2.407   0.792
 4237TIP3    H212718   2.874   2.548   0.757
 4238TIP3   OH212719   3.648   4.375   0.908
 4238TIP3    H112720   3.588   4.438   0.868
 4238TIP3    H212721   3.623   4.290   0.870
 4239TIP3   OH212722   2.056   4.709   3.967
 4239TIP3    H112723   2.120   4.650   3.928
 4239TIP3    H212724   2.100   4.747   4.043
 4240TIP3   OH212725   1.366   0.261   2.742
 4240TIP3    H112726   1.309   0.332   2.713
 4240TIP3    H212727   1.450   0.280   2.700
 4241TIP3   OH212728   1.950   3.720   2.946
 4241TIP3    H112729   1.856   3.734   2.963
 4241TIP3    H212730   1.992   3.737   3.031
 4242TIP3   OH212731   5.010   1.549   2.482
 4242TIP3    H112732   4.949   1.554   2.409
 4242TIP3    H212733   5.090   1.511   2.445
 4243TIP3   OH212734   5.622   3.209   2.805
 4243TIP3    H112735   5.704   3.180   2.767
 4243TIP3    H212736   5.589   3.134   2.853
 4244TIP3   OH212737   3.067   0.713   4.530
 4244TIP3    H112738   3.081   0.794   4.579
 4244TIP3    H212739   2.977   0.687   4.552
 4245TIP3   OH212740   3.448   0.618   4.183
 4245TIP3    H112741   3.372   0.636   4.238
 4245TIP3    H212742   3.507   0.568   4.240
 4246TIP3   OH212743   3.393   0.302   3.690
 4246TIP3    H112744   3.404   0.299   3.785
 4246TIP3    H212745   3.417   0.215   3.660
 4247TIP3   OH212746   1.644   4.957   3.744
 4247TIP3    H112747   1.555   4.925   3.757
 4247TIP3    H212748   1.653   5.030   3.806
 4248TIP3   OH212749   0.732   0.518   0.970
 4248TIP3    H112750   0.642   0.487   0.970
 4248TIP3    H212751   0.760   0.511   1.061
 4249TIP3   OH212752   6.003   0.259   1.087
 4249TIP3    H112753   6.014   0.353   1.100
 4249TIP3    H212754   5.913   0.241   1.115
 4250TIP3   OH212755   1.537   4.538   2.652
 4250TIP3    H112756   1.516   4.535   2.559
 4250TIP3    H212757   1.493   4.462   2.689
 4251TIP3   OH212758   0.669   2.375   2.559
 4251TIP3    H112759   0.662   2.312   2.630
 4251TIP3    H212760   0.757   2.362   2.524
 4252TIP3   OH212761   2.376   3.688   0.241
 4252TIP3    H112762   2.363   3.600   0.205
 4252TIP3    H212763   2.379   3.675   0.336
 4253TIP3   OH212764   1.406   4.717   3.486
 4253TIP3    H112765   1.402   4.655   3.560
 4253TIP3    H212766   1.418   4.662   3.409
 4254TIP3   OH212767   2.589   0.732   4.553
 4254TIP3    H112768   2.560   0.770   4.470
 4254TIP3    H212769   2.561   0.794   4.620
 4255TIP3   OH212770   2.613   2.364   0.898
 4255TIP3    H112771   2.583   2.454   0.912
 4255TIP3    H212772   2.589   2.318   0.979
 4256TIP3   OH212773   0.468   5.405   1.359
 4256TIP3    H112774   0.446   5.346   1.287
 4256TIP3    H212775   0.552   5.443   1.335
 4257TIP3   OH212776   3.987   0.053   1.946
 4257TIP3    H112777   3.992   0.076   2.039
 4257TIP3    H212778   4.016   0.132   1.900
 4258TIP3   OH212779   2.629   4.198   3.126
 4258TIP3    H112780   2.655   4.285   3.096
 4258TIP3    H212781   2.627   4.205   3.222
 4259TIP3   OH212782   6.003   2.915   1.952
 4259TIP3    H112783   6.040   2.896   1.866
 4259TIP3    H212784   5.990   3.010   1.952
 4260TIP3   OH212785   0.126   1.663   3.748
 4260TIP3    H112786   0.123   1.574   3.782
 4260TIP3    H212787   0.035   1.684   3.726
 4261TIP3   OH212788   6.161   3.415   4.335
 4261TIP3    H112789   6.251   3.384   4.336
 4261TIP3    H212790   6.137   3.415   4.242
 4262TIP3   OH212791   0.558   4.279   0.629
 4262TIP3    H112792   0.605   4.344   0.681
 4262TIP3    H212793   0.469   4.313   0.623
 4263TIP3   OH212794   4.941   2.626   2.746
 4263TIP3    H112795   4.946   2.595   2.837
 4263TIP3    H212796   4.958   2.547   2.694
 4264TIP3   OH212797   4.107   4.204   1.308
 4264TIP3    H112798   4.115   4.238   1.397
 4264TIP3    H212799   4.070   4.116   1.319
 4265TIP3   OH212800   4.808   3.851   3.397
 4265TIP3    H112801   4.724   3.853   3.352
 4265TIP3    H212802   4.798   3.783   3.463
 4266TIP3   OH212803   2.023   5.923   2.855
 4266TIP3    H112804   2.020   6.015   2.830
 4266TIP3    H212805   2.078   5.921   2.934
 4267TIP3   OH212806   5.263   4.555   4.146
 4267TIP3    H112807   5.296   4.566   4.235
 4267TIP3    H212808   5.172   4.584   4.151
 4268TIP3   OH212809   5.242   4.164   2.635
 4268TIP3    H112810   5.280   4.080   2.609
 4268TIP3    H212811   5.267   4.224   2.565
 4269TIP3   OH212812   6.324   2.230   3.980
 4269TIP3    H112813   6.379   2.296   3.939
 4269TIP3    H212814   6.314   2.260   4.070
 4270TIP3   OH212815   1.784   3.785   1.498
 4270TIP3    H112816   1.860   3.842   1.508
 4270TIP3    H212817   1.727   3.807   1.573
 4271TIP3   OH212818   1.620   5.253   0.147
 4271TIP3    H112819   1.607   5.282   0.237
 4271TIP3    H212820   1.621   5.158   0.152
 4272TIP3   OH212821   3.378   2.840   1.117
 4272TIP3    H112822   3.347   2.750   1.108
 4272TIP3    H212823   3.351   2.866   1.206
 4273TIP3   OH212824   1.094   5.957   4.539
 4273TIP3    H112825   1.043   5.910   4.473
 4273TIP3    H212826   1.094   6.048   4.508
 4274TIP3   OH212827   1.643   5.440   3.531
 4274TIP3    H112828   1.591   5.494   3.591
 4274TIP3    H212829   1.610   5.463   3.444
 4275TIP3   OH212830   3.802   0.513   3.325
 4275TIP3    H112831   3.733   0.452   3.299
 4275TIP3    H212832   3.755   0.584   3.369
 4276TIP3   OH212833   5.215   0.918   2.753
 4276TIP3    H112834   5.299   0.960   2.768
 4276TIP3    H212835   5.164   0.983   2.704
 4277TIP3   OH212836   3.298   5.726   4.930
 4277TIP3    H112837   3.327   5.794   4.870
 4277TIP3    H212838   3.207   5.750   4.951
 4278TIP3   OH212839   0.984   3.810   3.115
 4278TIP3    H112840   1.005   3.874   3.182
 4278TIP3    H212841   1.027   3.730   3.144
 4279TIP3   OH212842   5.315   4.778   2.018
 4279TIP3    H112843   5.353   4.859   1.985
 4279TIP3    H212844   5.241   4.806   2.071
 4280TIP3   OH212845   1.447   0.242   4.351
 4280TIP3    H112846   1.473   0.267   4.262
 4280TIP3    H212847   1.529   0.238   4.400
 4281TIP3   OH212848   2.043   3.348   3.027
 4281TIP3    H112849   1.989   3.387   3.097
 4281TIP3    H212850   2.095   3.281   3.072
 4282TIP3   OH212851   3.764   4.401   2.515
 4282TIP3    H112852   3.798   4.352   2.441
 4282TIP3    H212853   3.842   4.430   2.563
 4283TIP3   OH212854   6.245   0.433   4.393
 4283TIP3    H112855   6.198   0.468   4.317
 4283TIP3    H212856   6.181   0.377   4.437
 4284TIP3   OH212857   5.718   0.151   1.190
 4284TIP3    H112858   5.734   0.058   1.175
 4284TIP3    H212859   5.660   0.178   1.119
 4285TIP3   OH212860   0.625   4.001   2.257
 4285TIP3    H112861   0.660   4.037   2.339
 4285TIP3    H212862   0.669   3.917   2.246
 4286TIP3   OH212863   6.041   0.365   1.526
 4286TIP3    H112864   6.013   0.425   1.595
 4286TIP3    H212865   5.960   0.321   1.498
 4287TIP3   OH212866   5.194   0.615   0.155
 4287TIP3    H112867   5.227   0.669   0.083
 4287TIP3    H212868   5.099   0.618   0.146
 4288TIP3   OH212869   1.049   3.714   4.125
 4288TIP3    H112870   0.970   3.679   4.083
 4288TIP3    H212871   1.061   3.659   4.202
 4289TIP3   OH212872   3.188   5.496   1.873
 4289TIP3    H112873   3.106   5.545   1.864
 4289TIP3    H212874   3.160   5.404   1.873
 4290TIP3   OH212875   2.909   4.000   3.083
 4290TIP3    H112876   2.844   3.938   3.051
 4290TIP3    H212877   2.883   4.018   3.173
 4291TIP3   OH212878   2.938   1.338   3.266
 4291TIP3    H112879   2.856   1.371   3.302
 4291TIP3    H212880   2.994   1.415   3.261
 4292TIP3   OH212881   5.075   2.350   3.168
 4292TIP3    H112882   4.993   2.336   3.216
 4292TIP3    H212883   5.142   2.359   3.236
 4293TIP3   OH212884   6.165   4.785   3.473
 4293TIP3    H112885   6.240   4.766   3.528
 4293TIP3    H212886   6.201   4.829   3.396
 4294TIP3   OH212887   1.364   2.434   3.757
 4294TIP3    H112888   1.421   2.423   3.833
 4294TIP3    H212889   1.422   2.461   3.686
 4295TIP3   OH212890   0.299   3.000   2.223
 4295TIP3    H112891   0.235   3.020   2.292
 4295TIP3    H212892   0.383   2.998   2.269
 4296TIP3   OH212893   1.525   5.494   3.264
 4296TIP3    H112894   1.476   5.522   3.187
 4296TIP3    H212895   1.617   5.513   3.243
 4297TIP3   OH212896   3.034   0.769   5.073
 4297TIP3    H112897   3.078   0.740   4.994
 4297TIP3    H212898   3.040   0.695   5.133
 4298TIP3   OH212899   1.949   5.294   3.872
 4298TIP3    H112900   1.943   5.374   3.923
 4298TIP3    H212901   1.919   5.318   3.785
 4299TIP3   OH212902   1.431   5.012   4.467
 4299TIP3    H112903   1.467   4.935   4.512
 4299TIP3    H212904   1.508   5.064   4.444
 4300TIP3   OH212905   4.186   4.685   2.111
 4300TIP3    H112906   4.100   4.725   2.122
 4300TIP3    H212907   4.197   4.631   2.189
 4301TIP3   OH212908   5.425   5.950   4.297
 4301TIP3    H112909   5.345   6.001   4.294
 4301TIP3    H212910   5.429   5.906   4.212
 4302TIP3   OH212911   5.071   2.751   3.210
 4302TIP3    H112912   5.141   2.730   3.272
 4302TIP3    H212913   5.116   2.790   3.135
 4303TIP3   OH212914   1.780   4.073   0.742
 4303TIP3    H112915   1.765   3.990   0.696
 4303TIP3    H212916   1.843   4.052   0.810
 4304TIP3   OH212917   5.605   0.151   0.271
 4304TIP3    H112918   5.640   0.067   0.242
 4304TIP3    H212919   5.676   0.190   0.322
 4305TIP3   OH212920   1.125   0.423   1.051
 4305TIP3    H112921   1.106   0.363   0.978
 4305TIP3    H212922   1.180   0.371   1.110
 4306TIP3   OH212923   2.921   1.834   5.033
 4306TIP3    H112924   2.860   1.800   4.968
 4306TIP3    H212925   2.924   1.766   5.101
 4307TIP3   OH212926   2.356   1.210   2.193
 4307TIP3    H112927   2.360   1.163   2.277
 4307TIP3    H212928   2.358   1.302   2.218
 4308TIP3   OH212929   4.073   5.949   2.093
 4308TIP3    H112930   4.050   6.015   2.027
 4308TIP3    H212931   4.157   5.980   2.128
 4309TIP3   OH212932   5.722   2.753   2.972
 4309TIP3    H112933   5.627   2.741   2.966
 4309TIP3    H212934   5.756   2.666   2.992
 4310TIP3   OH212935   0.898   5.564   1.988
 4310TIP3    H112936   0.936   5.476   1.988
 4310TIP3    H212937   0.805   5.549   1.968
 4311TIP3   OH212938   5.687   3.107   0.108
 4311TIP3    H112939   5.741   3.146   0.039
 4311TIP3    H212940   5.750   3.070   0.170
 4312TIP3   OH212941   1.851   2.488   1.202
 4312TIP3    H112942   1.944   2.476   1.182
 4312TIP3    H212943   1.811   2.509   1.117
 4313TIP3   OH212944   4.070   2.068   4.462
 4313TIP3    H112945   4.063   2.104   4.550
 4313TIP3    H212946   4.045   2.141   4.404
 4314TIP3   OH212947   2.927   0.379   1.020
 4314TIP3    H112948   2.994   0.361   1.086
 4314TIP3    H212949   2.976   0.412   0.944
 4315TIP3   OH212950   4.422   2.510   4.237
 4315TIP3    H112951   4.518   2.509   4.241
 4315TIP3    H212952   4.397   2.594   4.276
 4316TIP3   OH212953   1.113   5.092   3.191
 4316TIP3    H112954   1.100   5.185   3.212
 4316TIP3    H212955   1.148   5.092   3.102
 4317TIP3   OH212956   5.375   4.836   5.032
 4317TIP3    H112957   5.466   4.834   5.002
 4317TIP3    H212958   5.335   4.906   4.981
 4318TIP3   OH212959   6.090   0.890   4.401
 4318TIP3    H112960   6.071   0.937   4.482
 4318TIP3    H212961   6.183   0.869   4.407
 4319TIP3   OH212962   3.424   4.271   1.652
 4319TIP3    H112963   3.421   4.213   1.576
 4319TIP3    H212964   3.483   4.227   1.714
 4320TIP3   OH212965   3.233   4.286   4.120
 4320TIP3    H112966   3.303   4.347   4.098
 4320TIP3    H212967   3.201   4.315   4.206
 4321TIP3   OH212968   2.699   3.440   0.517
 4321TIP3    H112969   2.659   3.469   0.599
 4321TIP3    H212970   2.791   3.425   0.539
 4322TIP3   OH212971   0.222   2.805   5.089
 4322TIP3    H112972   0.214   2.896   5.117
 4322TIP3    H212973   0.151   2.795   5.025
 4323TIP3   OH212974   1.919   4.007   0.974
 4323TIP3    H112975   1.861   3.982   1.046
 4323TIP3    H212976   2.007   3.985   1.004
 4324TIP3   OH212977   5.276   1.283   0.020
 4324TIP3    H112978   5.252   1.211  -0.039
 4324TIP3    H212979   5.314   1.239   0.096
 4325TIP3   OH212980   1.823   0.011   1.378
 4325TIP3    H112981   1.885   0.079   1.402
 4325TIP3    H212982   1.808   0.024   1.284
 4326TIP3   OH212983   2.813   0.105   2.071
 4326TIP3    H112984   2.888   0.106   2.131
 4326TIP3    H212985   2.852   0.091   1.985
 4327TIP3   OH212986   3.249   1.009   0.012
 4327TIP3    H112987   3.277   1.032  -0.076
 4327TIP3    H212988   3.288   1.076   0.068
 4328TIP3   OH212989   6.309   1.041   2.639
 4328TIP3    H112990   6.310   1.107   2.709
 4328TIP3    H212991   6.376   1.071   2.577
 4329TIP3   OH212992   2.801   4.856   2.196
 4329TIP3    H112993   2.809   4.941   2.239
 4329TIP3    H212994   2.777   4.877   2.106
 4330TIP3   OH212995   1.248   5.092   1.793
 4330TIP3    H112996   1.183   5.109   1.725
 4330TIP3    H212997   1.303   5.170   1.794
 4331TIP3   OH212998   6.303   2.266   0.816
 4331TIP3    H112999   6.306   2.264   0.912
 4331TIP3    H213000   6.213   2.290   0.795
 4332TIP3   OH213001   4.482   5.768   1.952
 4332TIP3    H113002   4.458   5.838   2.013
 4332TIP3    H213003   4.402   5.717   1.941
 4333TIP3   OH213004   0.631   4.712   0.632
 4333TIP3    H113005   0.630   4.782   0.697
 4333TIP3    H213006   0.550   4.724   0.582
 4334TIP3   OH213007   1.804   2.849   1.740
 4334TIP3    H113008   1.773   2.848   1.649
 4334TIP3    H213009   1.872   2.781   1.743
 4335TIP3   OH213010   5.043   2.067   0.273
 4335TIP3    H113011   5.058   2.129   0.344
 4335TIP3    H213012   4.956   2.090   0.239
 4336TIP3   OH213013   5.653   1.469   1.412
 4336TIP3    H113014   5.671   1.413   1.336
 4336TIP3    H213015   5.612   1.410   1.475
 4337TIP3   OH213016   5.531   2.488   4.437
 4337TIP3    H113017   5.585   2.463   4.512
 4337TIP3    H213018   5.567   2.437   4.364
 4338TIP3   OH213019   1.873   0.450   3.079
 4338TIP3    H113020   1.898   0.502   3.003
 4338TIP3    H213021   1.844   0.367   3.043
 4339TIP3   OH213022   0.906   4.087   4.573
 4339TIP3    H113023   0.942   4.000   4.555
 4339TIP3    H213024   0.815   4.083   4.543
 4340TIP3   OH213025   0.090   0.806   1.084
 4340TIP3    H113026   0.129   0.728   1.046
 4340TIP3    H213027   0.131   0.813   1.171
 4341TIP3   OH213028   2.594   0.442   2.471
 4341TIP3    H113029   2.626   0.527   2.440
 4341TIP3    H213030   2.601   0.385   2.395
 4342TIP3   OH213031   5.096   0.141   1.452
 4342TIP3    H113032   5.068   0.231   1.439
 4342TIP3    H213033   5.163   0.127   1.386
 4343TIP3   OH213034   2.043   3.022   3.813
 4343TIP3    H113035   1.947   3.016   3.810
 4343TIP3    H213036   2.070   2.945   3.863
 4344TIP3   OH213037   4.677   2.731   1.076
 4344TIP3    H113038   4.652   2.639   1.076
 4344TIP3    H213039   4.616   2.772   1.138
 4345TIP3   OH213040   2.085   3.166   2.045
 4345TIP3    H113041   2.163   3.171   1.989
 4345TIP3    H213042   2.051   3.078   2.031
 4346TIP3   OH213043   1.323   0.455   1.351
 4346TIP3    H113044   1.234   0.447   1.386
 4346TIP3    H213045   1.326   0.391   1.280
 4347TIP3   OH213046   1.124   2.385   0.730
 4347TIP3    H113047   1.071   2.362   0.806
 4347TIP3    H213048   1.098   2.475   0.709
 4348TIP3   OH213049   2.790   0.931   0.349
 4348TIP3    H113050   2.857   0.949   0.283
 4348TIP3    H213051   2.800   1.001   0.413
 4349TIP3   OH213052   6.315   3.501   0.055
 4349TIP3    H113053   6.278   3.504   0.143
 4349TIP3    H213054   6.390   3.441   0.062
 4350TIP3   OH213055   5.221   2.778   0.183
 4350TIP3    H113056   5.203   2.702   0.127
 4350TIP3    H213057   5.246   2.848   0.122
 4351TIP3   OH213058   2.583   5.398   4.741
 4351TIP3    H113059   2.558   5.316   4.784
 4351TIP3    H213060   2.669   5.418   4.777
 4352TIP3   OH213061   1.285   2.887   1.939
 4352TIP3    H113062   1.347   2.912   1.871
 4352TIP3    H213063   1.332   2.824   1.993
 4353TIP3   OH213064   5.964   4.690   4.485
 4353TIP3    H113065   6.049   4.702   4.527
 4353TIP3    H213066   5.921   4.622   4.537
 4354TIP3   OH213067   2.224   5.061   1.066
 4354TIP3    H113068   2.298   5.079   1.008
 4354TIP3    H213069   2.264   5.049   1.152
 4355TIP3   OH213070   4.021   3.138   4.871
 4355TIP3    H113071   4.051   3.178   4.953
 4355TIP3    H213072   3.968   3.205   4.829
 4356TIP3   OH213073   5.559   3.846   3.277
 4356TIP3    H113074   5.528   3.776   3.334
 4356TIP3    H213075   5.610   3.801   3.209
 4357TIP3   OH213076   2.264   3.649   0.489
 4357TIP3    H113077   2.173   3.670   0.469
 4357TIP3    H213078   2.285   3.702   0.566
 4358TIP3   OH213079   1.833   0.675   2.669
 4358TIP3    H113080   1.763   0.642   2.726
 4358TIP3    H213081   1.816   0.635   2.584
 4359TIP3   OH213082   4.559   0.805   3.598
 4359TIP3    H113083   4.632   0.864   3.617
 4359TIP3    H213084   4.548   0.755   3.679
 4360TIP3   OH213085   3.246   1.557   3.550
 4360TIP3    H113086   3.286   1.630   3.597
 4360TIP3    H213087   3.160   1.547   3.592
 4361TIP3   OH213088   3.822   4.637   3.292
 4361TIP3    H113089   3.893   4.584   3.327
 4361TIP3    H213090   3.781   4.582   3.226
 4362TIP3   OH213091   1.157   0.310   4.536
 4362TIP3    H113092   1.066   0.316   4.507
 4362TIP3    H213093   1.199   0.251   4.474
 4363TIP3   OH213094   5.746   0.428   0.425
 4363TIP3    H113095   5.819   0.453   0.483
 4363TIP3    H213096   5.788   0.405   0.342
 4364TIP3   OH213097   3.631   1.557   4.925
 4364TIP3    H113098   3.537   1.561   4.946
 4364TIP3    H213099   3.641   1.618   4.852
 4365TIP3   OH213100   4.503   4.369   3.248
 4365TIP3    H113101   4.468   4.351   3.335
 4365TIP3    H213102   4.490   4.287   3.200
 4366TIP3   OH213103   0.382   1.331   0.988
 4366TIP3    H113104   0.372   1.365   1.077
 4366TIP3    H213105   0.439   1.254   0.999
 4367TIP3   OH213106   4.584   4.633   4.299
 4367TIP3    H113107   4.553   4.577   4.370
 4367TIP3    H213108   4.547   4.594   4.220
 4368TIP3   OH213109   5.219   2.220   4.514
 4368TIP3    H113110   5.140   2.188   4.558
 4368TIP3    H213111   5.246   2.296   4.565
 4369TIP3   OH213112   6.045   4.596   4.989
 4369TIP3    H113113   6.105   4.669   4.975
 4369TIP3    H213114   5.993   4.622   5.065
 4370TIP3   OH213115   3.407   5.833   0.883
 4370TIP3    H113116   3.352   5.761   0.913
 4370TIP3    H213117   3.350   5.910   0.892
 4371TIP3   OH213118   1.993   5.771   5.074
 4371TIP3    H113119   2.065   5.787   5.135
 4371TIP3    H213120   1.944   5.854   5.073
 4372TIP3   OH213121   3.193   5.396   1.413
 4372TIP3    H113122   3.196   5.301   1.416
 4372TIP3    H213123   3.159   5.417   1.326
 4373TIP3   OH213124   5.631   5.790   3.394
 4373TIP3    H113125   5.628   5.814   3.302
 4373TIP3    H213126   5.685   5.712   3.397
 4374TIP3   OH213127   4.090   3.271   5.089
 4374TIP3    H113128   4.054   3.291   5.175
 4374TIP3    H213129   4.159   3.207   5.106
 4375TIP3   OH213130   4.943   2.570   0.290
 4375TIP3    H113131   4.861   2.560   0.338
 4375TIP3    H213132   5.010   2.538   0.350
 4376TIP3   OH213133   5.406   0.221   4.069
 4376TIP3    H113134   5.495   0.247   4.092
 4376TIP3    H213135   5.360   0.304   4.056
 4377TIP3   OH213136   2.922   2.797   3.076
 4377TIP3    H113137   2.882   2.859   3.015
 4377TIP3    H213138   2.852   2.774   3.137
 4378TIP3   OH213139   0.409   4.421   0.114
 4378TIP3    H113140   0.433   4.411   0.022
 4378TIP3    H213141   0.489   4.451   0.157
 4379TIP3   OH213142   1.222   4.232   4.027
 4379TIP3    H113143   1.153   4.274   4.078
 4379TIP3    H213144   1.187   4.145   4.006
 4380TIP3   OH213145   0.653   2.171   4.486
 4380TIP3    H113146   0.730   2.168   4.541
 4380TIP3    H213147   0.686   2.153   4.398
 4381TIP3   OH213148   1.305   3.926   0.667
 4381TIP3    H113149   1.353   3.843   0.668
 4381TIP3    H213150   1.214   3.901   0.652
 4382TIP3   OH213151   0.814   5.937   2.666
 4382TIP3    H113152   0.846   5.892   2.745
 4382TIP3    H213153   0.816   6.030   2.689
 4383TIP3   OH213154   5.077   2.936   0.370
 4383TIP3    H113155   5.164   2.968   0.394
 4383TIP3    H213156   5.093   2.869   0.304
 4384TIP3   OH213157   1.018   3.430   2.541
 4384TIP3    H113158   0.933   3.410   2.581
 4384TIP3    H213159   1.080   3.426   2.614
 4385TIP3   OH213160   4.491   4.273   3.912
 4385TIP3    H113161   4.522   4.183   3.921
 4385TIP3    H213162   4.455   4.277   3.823
 4386TIP3   OH213163   1.583   0.811   0.850
 4386TIP3    H113164   1.650   0.765   0.801
 4386TIP3    H213165   1.580   0.898   0.811
 4387TIP3   OH213166   3.745   5.290   1.883
 4387TIP3    H113167   3.771   5.198   1.877
 4387TIP3    H213168   3.649   5.288   1.882
 4388TIP3   OH213169   1.158   3.236   1.428
 4388TIP3    H113170   1.226   3.224   1.362
 4388TIP3    H213171   1.088   3.283   1.382
 4389TIP3   OH213172   2.349   3.921   1.721
 4389TIP3    H113173   2.443   3.923   1.740
 4389TIP3    H213174   2.322   3.832   1.742
 4390TIP3   OH213175   4.717   4.324   3.415
 4390TIP3    H113176   4.785   4.392   3.415
 4390TIP3    H213177   4.653   4.356   3.352
 4391TIP3   OH213178   1.991   1.890   1.029
 4391TIP3    H113179   2.017   1.943   1.105
 4391TIP3    H213180   1.934   1.948   0.979
 4392TIP3   OH213181   5.512   4.303   2.598
 4392TIP3    H113182   5.562   4.225   2.619
 4392TIP3    H213183   5.490   4.341   2.683
 4393TIP3   OH213184   2.229   0.406   2.277
 4393TIP3    H113185   2.281   0.404   2.197
 4393TIP3    H213186   2.187   0.493   2.276
 4394TIP3   OH213187   3.333   3.146   3.273
 4394TIP3    H113188   3.421   3.176   3.247
 4394TIP3    H213189   3.279   3.162   3.196
 4395TIP3   OH213190   3.726   3.890   1.081
 4395TIP3    H113191   3.809   3.937   1.074
 4395TIP3    H213192   3.752   3.799   1.096
 4396TIP3   OH213193   1.072   3.349   2.830
 4396TIP3    H113194   1.159   3.332   2.867
 4396TIP3    H213195   1.046   3.433   2.866
 4397TIP3   OH213196   1.557   5.592   1.107
 4397TIP3    H113197   1.549   5.589   1.012
 4397TIP3    H213198   1.469   5.572   1.139
 4398TIP3   OH213199   4.035   2.919   1.946
 4398TIP3    H113200   4.107   2.922   2.008
 4398TIP3    H213201   4.048   2.996   1.890
 4399TIP3   OH213202   5.667   5.434   0.154
 4399TIP3    H113203   5.659   5.343   0.185
 4399TIP3    H213204   5.751   5.436   0.109
 4400TIP3   OH213205   0.101   2.035   5.014
 4400TIP3    H113206   0.057   1.972   5.071
 4400TIP3    H213207   0.138   1.982   4.943
 4401TIP3   OH213208   1.955   4.505   3.760
 4401TIP3    H113209   1.913   4.585   3.793
 4401TIP3    H213210   1.942   4.441   3.829
 4402TIP3   OH213211   3.323   1.890   0.184
 4402TIP3    H113212   3.255   1.823   0.173
 4402TIP3    H213213   3.282   1.970   0.149
 4403TIP3   OH213214   2.094   2.182   0.856
 4403TIP3    H113215   2.090   2.272   0.890
 4403TIP3    H213216   2.009   2.169   0.814
 4404TIP3   OH213217   2.055   3.294   1.566
 4404TIP3    H113218   2.142   3.277   1.602
 4404TIP3    H213219   1.995   3.266   1.635
 4405TIP3   OH213220   0.515   4.339   3.253
 4405TIP3    H113221   0.533   4.335   3.347
 4405TIP3    H213222   0.598   4.366   3.214
 4406TIP3   OH213223   2.918   2.192   0.212
 4406TIP3    H113224   2.898   2.285   0.210
 4406TIP3    H213225   2.964   2.175   0.130
 4407TIP3   OH213226   3.726   5.800   1.513
 4407TIP3    H113227   3.680   5.778   1.432
 4407TIP3    H213228   3.658   5.836   1.570
 4408TIP3   OH213229   5.117   5.771   0.191
 4408TIP3    H113230   5.119   5.705   0.122
 4408TIP3    H213231   5.102   5.854   0.146
 4409TIP3   OH213232   1.102   2.971   0.162
 4409TIP3    H113233   1.007   2.964   0.151
 4409TIP3    H213234   1.119   3.065   0.171
 4410TIP3   OH213235   2.704   4.716   2.857
 4410TIP3    H113236   2.778   4.769   2.888
 4410TIP3    H213237   2.689   4.746   2.767
 4411TIP3   OH213238   3.277   3.561   4.400
 4411TIP3    H113239   3.215   3.634   4.401
 4411TIP3    H213240   3.350   3.594   4.347
 4412TIP3   OH213241   4.022   2.759   2.919
 4412TIP3    H113242   4.022   2.787   2.828
 4412TIP3    H213243   4.106   2.791   2.954
 4413TIP3   OH213244   5.865   2.975   4.839
 4413TIP3    H113245   5.782   3.022   4.835
 4413TIP3    H213246   5.869   2.940   4.928
 4414TIP3   OH213247   3.536   5.184   1.469
 4414TIP3    H113248   3.628   5.179   1.443
 4414TIP3    H213249   3.530   5.129   1.547
 4415TIP3   OH213250   5.442   1.803   0.217
 4415TIP3    H113251   5.373   1.807   0.150
 4415TIP3    H213252   5.437   1.713   0.250
 4416TIP3   OH213253   5.738   4.728   2.011
 4416TIP3    H113254   5.683   4.676   1.952
 4416TIP3    H213255   5.703   4.709   2.099
 4417TIP3   OH213256   3.314   1.027   4.789
 4417TIP3    H113257   3.221   1.005   4.796
 4417TIP3    H213258   3.325   1.055   4.698
 4418TIP3   OH213259   2.493   3.689   4.394
 4418TIP3    H113260   2.529   3.636   4.466
 4418TIP3    H213261   2.531   3.651   4.315
 4419TIP3   OH213262   3.150   3.787   0.549
 4419TIP3    H113263   3.220   3.722   0.558
 4419TIP3    H213264   3.121   3.779   0.458
 4420TIP3   OH213265   3.646   3.880   3.620
 4420TIP3    H113266   3.642   3.790   3.652
 4420TIP3    H213267   3.604   3.932   3.689
 4421TIP3   OH213268   5.300   5.941   4.978
 4421TIP3    H113269   5.295   5.852   5.012
 4421TIP3    H213270   5.393   5.954   4.957
 4422TIP3   OH213271   4.218   4.441   0.373
 4422TIP3    H113272   4.222   4.514   0.311
 4422TIP3    H213273   4.267   4.472   0.450
 4423TIP3   OH213274   0.727   2.101   0.010
 4423TIP3    H113275   0.746   2.036   0.078
 4423TIP3    H213276   0.689   2.175   0.057
 4424TIP3   OH213277   0.866   3.622   2.008
 4424TIP3    H113278   0.929   3.624   1.936
 4424TIP3    H213279   0.810   3.546   1.988
 4425TIP3   OH213280   3.996   5.509   1.234
 4425TIP3    H113281   4.045   5.583   1.270
 4425TIP3    H213282   4.023   5.434   1.287
 4426TIP3   OH213283   1.658   4.557   3.778
 4426TIP3    H113284   1.599   4.584   3.707
 4426TIP3    H213285   1.716   4.492   3.738
 4427TIP3   OH213286   2.917   1.931   0.366
 4427TIP3    H113287   3.007   1.916   0.395
 4427TIP3    H213288   2.923   2.007   0.308
 4428TIP3   OH213289   3.171   3.275   1.427
 4428TIP3    H113290   3.088   3.236   1.397
 4428TIP3    H213291   3.237   3.209   1.407
 4429TIP3   OH213292   5.563   3.756  -0.028
 4429TIP3    H113293   5.507   3.809   0.028
 4429TIP3    H213294   5.652   3.772   0.004
 4430TIP3   OH213295   2.223   0.603   3.399
 4430TIP3    H113296   2.219   0.613   3.494
 4430TIP3    H213297   2.240   0.692   3.366
 4431TIP3   OH213298   1.104   3.925   0.310
 4431TIP3    H113299   1.048   3.979   0.365
 4431TIP3    H213300   1.192   3.961   0.321
 4432TIP3   OH213301   4.588   1.373   3.814
 4432TIP3    H113302   4.571   1.423   3.734
 4432TIP3    H213303   4.541   1.420   3.882
 4433TIP3   OH213304   4.396   1.626   4.799
 4433TIP3    H113305   4.387   1.532   4.783
 4433TIP3    H213306   4.394   1.666   4.712
 4434TIP3   OH213307   6.022   4.555   0.668
 4434TIP3    H113308   6.028   4.651   0.674
 4434TIP3    H213309   6.068   4.523   0.746
 4435TIP3   OH213310   1.387   2.828   0.408
 4435TIP3    H113311   1.409   2.880   0.331
 4435TIP3    H213312   1.319   2.767   0.378
 4436TIP3   OH213313   5.730   1.397   3.597
 4436TIP3    H113314   5.779   1.387   3.679
 4436TIP3    H213315   5.794   1.435   3.536
 4437TIP3   OH213316   0.808   0.045   5.081
 4437TIP3    H113317   0.844   0.024   5.167
 4437TIP3    H213318   0.885   0.046   5.023
 4438TIP3   OH213319   1.523   2.711   1.572
 4438TIP3    H113320   1.608   2.748   1.548
 4438TIP3    H213321   1.540   2.660   1.652
 4439TIP3   OH213322   6.132   5.186   4.531
 4439TIP3    H113323   6.079   5.180   4.452
 4439TIP3    H213324   6.176   5.102   4.537
 4440TIP3   OH213325   6.205   0.112   3.751
 4440TIP3    H113326   6.189   0.193   3.702
 4440TIP3    H213327   6.213   0.044   3.685
 4441TIP3   OH213328   2.327   0.212   5.052
 4441TIP3    H113329   2.236   0.185   5.035
 4441TIP3    H213330   2.370   0.131   5.080
 4442TIP3   OH213331   5.859   3.759   3.275
 4442TIP3    H113332   5.955   3.763   3.274
 4442TIP3    H213333   5.837   3.744   3.367
 4443TIP3   OH213334   2.914   3.414   2.950
 4443TIP3    H113335   2.987   3.475   2.938
 4443TIP3    H213336   2.866   3.448   3.025
 4444TIP3   OH213337   1.829   3.292   2.035
 4444TIP3    H113338   1.921   3.278   2.058
 4444TIP3    H213339   1.795   3.347   2.105
 4445TIP3   OH213340   4.362   2.755   4.353
 4445TIP3    H113341   4.320   2.709   4.424
 4445TIP3    H213342   4.303   2.827   4.331
 4446TIP3   OH213343   3.664   2.558   0.760
 4446TIP3    H113344   3.576   2.519   0.765
 4446TIP3    H213345   3.723   2.483   0.751
 4447TIP3   OH213346   2.028   2.391   0.207
 4447TIP3    H113347   2.098   2.327   0.217
 4447TIP3    H213348   2.006   2.416   0.297
 4448TIP3   OH213349   4.174   5.463   0.958
 4448TIP3    H113350   4.269   5.468   0.946
 4448TIP3    H213351   4.160   5.383   1.009
 4449TIP3   OH213352   2.543   1.771   3.023
 4449TIP3    H113353   2.532   1.735   2.935
 4449TIP3    H213354   2.469   1.832   3.034
 4450TIP3   OH213355   4.112   3.821   0.498
 4450TIP3    H113356   4.182   3.853   0.441
 4450TIP3    H213357   4.035   3.819   0.443
 4451TIP3   OH213358   1.279   5.456   0.594
 4451TIP3    H113359   1.255   5.523   0.659
 4451TIP3    H213360   1.366   5.481   0.564
 4452TIP3   OH213361   3.518   4.170   1.378
 4452TIP3    H113362   3.454   4.209   1.318
 4452TIP3    H213363   3.466   4.111   1.433
 4453TIP3   OH213364   0.768   4.678   1.643
 4453TIP3    H113365   0.715   4.648   1.716
 4453TIP3    H213366   0.858   4.654   1.667
 4454TIP3   OH213367   1.384   2.708   2.138
 4454TIP3    H113368   1.446   2.636   2.126
 4454TIP3    H213369   1.439   2.785   2.150
 4455TIP3   OH213370   5.030   3.024   3.434
 4455TIP3    H113371   5.013   3.077   3.512
 4455TIP3    H213372   5.048   2.936   3.468
 4456TIP3   OH213373   2.353   3.379   5.114
 4456TIP3    H113374   2.361   3.475   5.114
 4456TIP3    H213375   2.261   3.363   5.137
 4457TIP3   OH213376   4.394   2.281   2.225
 4457TIP3    H113377   4.424   2.341   2.293
 4457TIP3    H213378   4.410   2.328   2.143
 4458TIP3   OH213379   2.704   0.775   2.066
 4458TIP3    H113380   2.658   0.695   2.091
 4458TIP3    H213381   2.793   0.762   2.098
 4459TIP3   OH213382   2.120   5.957   2.192
 4459TIP3    H113383   2.107   5.920   2.279
 4459TIP3    H213384   2.106   6.051   2.203
 4460TIP3   OH213385   3.206   0.743   0.470
 4460TIP3    H113386   3.270   0.731   0.400
 4460TIP3    H213387   3.257   0.732   0.550
 4461TIP3   OH213388   5.697   5.322   4.251
 4461TIP3    H113389   5.680   5.373   4.331
 4461TIP3    H213390   5.640   5.246   4.258
 4462TIP3   OH213391   0.837   0.434   0.386
 4462TIP3    H113392   0.827   0.383   0.305
 4462TIP3    H213393   0.751   0.473   0.401
 4463TIP3   OH213394   5.662   4.939   3.871
 4463TIP3    H113395   5.730   4.959   3.806
 4463TIP3    H213396   5.661   5.015   3.929
 4464TIP3   OH213397   4.342   2.655   0.479
 4464TIP3    H113398   4.268   2.715   0.485
 4464TIP3    H213399   4.342   2.626   0.388
 4465TIP3   OH213400   5.863   3.943   3.588
 4465TIP3    H113401   5.848   4.036   3.568
 4465TIP3    H213402   5.777   3.903   3.580
 4466TIP3   OH213403   4.284   3.034   2.326
 4466TIP3    H113404   4.320   3.102   2.383
 4466TIP3    H213405   4.233   2.978   2.384
 4467TIP3   OH213406   4.243   2.677   2.493
 4467TIP3    H113407   4.260   2.597   2.543
 4467TIP3    H213408   4.240   2.648   2.402
 4468TIP3   OH213409   4.442   5.028   1.485
 4468TIP3    H113410   4.350   5.055   1.485
 4468TIP3    H213411   4.446   4.960   1.418
 4469TIP3   OH213412   2.724   0.215   1.046
 4469TIP3    H113413   2.774   0.289   1.013
 4469TIP3    H213414   2.789   0.156   1.083
 4470TIP3   OH213415   1.287   4.354   4.681
 4470TIP3    H113416   1.349   4.367   4.609
 4470TIP3    H213417   1.327   4.400   4.755
 4471TIP3   OH213418   5.306   0.827   1.479
 4471TIP3    H113419   5.221   0.871   1.478
 4471TIP3    H213420   5.313   0.790   1.567
 4472TIP3   OH213421   3.097   6.007   2.734
 4472TIP3    H113422   3.175   6.045   2.774
 4472TIP3    H213423   3.126   5.921   2.703
 4473TIP3   OH213424   3.909   5.447   2.021
 4473TIP3    H113425   3.884   5.381   1.956
 4473TIP3    H213426   3.872   5.529   1.989
 4474TIP3   OH213427   4.123   3.977   0.734
 4474TIP3    H113428   4.085   3.940   0.654
 4474TIP3    H213429   4.185   3.912   0.764
 4475TIP3   OH213430   0.801   3.619   1.090
 4475TIP3    H113431   0.879   3.633   1.144
 4475TIP3    H213432   0.835   3.595   1.004
 4476TIP3   OH213433   3.626   1.704   3.831
 4476TIP3    H113434   3.626   1.782   3.886
 4476TIP3    H213435   3.718   1.687   3.812
 4477TIP3   OH213436   5.711   5.956   3.648
 4477TIP3    H113437   5.791   5.984   3.603
 4477TIP3    H213438   5.695   5.868   3.614
 4478TIP3   OH213439   2.410   0.353   1.356
 4478TIP3    H113440   2.324   0.359   1.313
 4478TIP3    H213441   2.402   0.410   1.433
 4479TIP3   OH213442   3.442   4.982   0.567
 4479TIP3    H113443   3.388   5.060   0.582
 4479TIP3    H213444   3.451   4.978   0.471
 4480TIP3   OH213445   4.211   3.548   3.315
 4480TIP3    H113446   4.265   3.537   3.237
 4480TIP3    H213447   4.145   3.479   3.309
 4481TIP3   OH213448   3.009   0.108   3.620
 4481TIP3    H113449   3.065   0.031   3.611
 4481TIP3    H213450   3.058   0.178   3.576
 4482TIP3   OH213451   2.012   1.585   2.121
 4482TIP3    H113452   2.096   1.578   2.075
 4482TIP3    H213453   2.027   1.541   2.205
 4483TIP3   OH213454   1.975   0.486   1.914
 4483TIP3    H113455   1.951   0.543   1.842
 4483TIP3    H213456   1.979   0.543   1.990
 4484TIP3   OH213457   0.665   5.929   4.030
 4484TIP3    H113458   0.578   5.894   4.011
 4484TIP3    H213459   0.660   6.020   4.003
 4485TIP3   OH213460   2.807   2.346   3.800
 4485TIP3    H113461   2.868   2.418   3.786
 4485TIP3    H213462   2.844   2.298   3.874
 4486TIP3   OH213463   5.608   2.773   1.578
 4486TIP3    H113464   5.671   2.827   1.625
 4486TIP3    H213465   5.526   2.821   1.584
 4487TIP3   OH213466   3.015   2.275   3.954
 4487TIP3    H113467   3.076   2.225   4.009
 4487TIP3    H213468   3.056   2.276   3.867
 4488TIP3   OH213469   4.939   5.490   4.809
 4488TIP3    H113470   4.868   5.537   4.852
 4488TIP3    H213471   4.999   5.465   4.880
 4489TIP3   OH213472   2.976   2.286   1.347
 4489TIP3    H113473   2.929   2.216   1.392
 4489TIP3    H213474   3.037   2.320   1.412
 4490TIP3   OH213475   2.912   4.873   2.929
 4490TIP3    H113476   2.979   4.880   2.861
 4490TIP3    H213477   2.938   4.938   2.995
 4491TIP3   OH213478   4.483   3.939   4.737
 4491TIP3    H113479   4.520   3.900   4.658
 4491TIP3    H213480   4.388   3.927   4.727
 4492TIP3   OH213481   5.463   3.308   3.306
 4492TIP3    H113482   5.491   3.220   3.283
 4492TIP3    H213483   5.483   3.316   3.399
 4493TIP3   OH213484   3.692   4.605   2.332
 4493TIP3    H113485   3.716   4.541   2.398
 4493TIP3    H213486   3.683   4.554   2.251
 4494TIP3   OH213487   2.271   4.574   2.330
 4494TIP3    H113488   2.328   4.603   2.258
 4494TIP3    H213489   2.258   4.481   2.315
 4495TIP3   OH213490   0.119   2.701   0.741
 4495TIP3    H113491   0.051   2.697   0.808
 4495TIP3    H213492   0.197   2.665   0.783
 4496TIP3   OH213493   0.263   3.470   1.262
 4496TIP3    H113494   0.176   3.448   1.228
 4496TIP3    H213495   0.289   3.547   1.211
 4497TIP3   OH213496   5.953   2.506   4.598
 4497TIP3    H113497   5.907   2.455   4.665
 4497TIP3    H213498   5.896   2.501   4.521
 4498TIP3   OH213499   3.640   3.906   3.152
 4498TIP3    H113500   3.703   3.945   3.212
 4498TIP3    H213501   3.679   3.917   3.065
 4499TIP3   OH213502   2.118   2.037   4.736
 4499TIP3    H113503   2.024   2.053   4.733
 4499TIP3    H213504   2.138   2.028   4.829
 4500TIP3   OH213505   3.023   1.242   4.660
 4500TIP3    H113506   2.998   1.287   4.741
 4500TIP3    H213507   3.118   1.251   4.655
 4501TIP3   OH213508   0.842   5.414   2.743
 4501TIP3    H113509   0.880   5.478   2.684
 4501TIP3    H213510   0.779   5.366   2.690
 4502TIP3   OH213511   2.890   4.343   4.661
 4502TIP3    H113512   2.924   4.253   4.668
 4502TIP3    H213513   2.897   4.378   4.749
 4503TIP3   OH213514   0.662   5.205   5.115
 4503TIP3    H113515   0.582   5.193   5.063
 4503TIP3    H213516   0.631   5.210   5.205
 4504TIP3   OH213517   0.475   5.610   5.014
 4504TIP3    H113518   0.426   5.673   4.962
 4504TIP3    H213519   0.548   5.660   5.050
 4505TIP3   OH213520   1.474   5.493   4.178
 4505TIP3    H113521   1.457   5.432   4.107
 4505TIP3    H213522   1.569   5.491   4.189
 4506TIP3   OH213523   4.978   1.686   3.801
 4506TIP3    H113524   4.992   1.778   3.779
 4506TIP3    H213525   5.045   1.667   3.867
 4507TIP3   OH213526   3.327   2.829   3.403
 4507TIP3    H113527   3.368   2.805   3.486
 4507TIP3    H213528   3.274   2.906   3.424
 4508TIP3   OH213529   6.241   1.564   4.760
 4508TIP3    H113530   6.228   1.532   4.849
 4508TIP3    H213531   6.336   1.565   4.749
 4509TIP3   OH213532   3.013   3.522   0.334
 4509TIP3    H113533   2.926   3.540   0.370
 4509TIP3    H213534   3.028   3.593   0.272
 4510TIP3   OH213535   2.319   1.820   1.570
 4510TIP3    H113536   2.250   1.882   1.595
 4510TIP3    H213537   2.289   1.736   1.603
 4511TIP3   OH213538   1.948   2.216   3.370
 4511TIP3    H113539   2.002   2.137   3.370
 4511TIP3    H213540   1.941   2.240   3.463
 4512TIP3   OH213541   3.202   2.684   1.422
 4512TIP3    H113542   3.295   2.670   1.438
 4512TIP3    H213543   3.157   2.621   1.479
 4513TIP3   OH213544   4.190   0.162   4.260
 4513TIP3    H113545   4.197   0.204   4.174
 4513TIP3    H213546   4.234   0.222   4.320
 4514TIP3   OH213547   5.546   2.673   3.246
 4514TIP3    H113548   5.606   2.747   3.254
 4514TIP3    H213549   5.601   2.596   3.260
 4515TIP3   OH213550   4.770   0.057   2.576
 4515TIP3    H113551   4.706   0.126   2.561
 4515TIP3    H213552   4.803   0.037   2.488
 4516TIP3   OH213553   5.749   2.836   4.437
 4516TIP3    H113554   5.683   2.829   4.507
 4516TIP3    H213555   5.766   2.746   4.411
 4517TIP3   OH213556   0.212   5.080   1.123
 4517TIP3    H113557   0.302   5.112   1.132
 4517TIP3    H213558   0.172   5.138   1.058
 4518TIP3   OH213559   0.769   2.561   3.544
 4518TIP3    H113560   0.774   2.524   3.457
 4518TIP3    H213561   0.683   2.605   3.547
 4519TIP3   OH213562   4.178   5.804   1.255
 4519TIP3    H113563   4.161   5.765   1.170
 4519TIP3    H213564   4.147   5.895   1.246
 4520TIP3   OH213565   5.540   1.283   5.185
 4520TIP3    H113566   5.449   1.313   5.175
 4520TIP3    H213567   5.549   1.214   5.119
 4521TIP3   OH213568   4.895   5.565   0.268
 4521TIP3    H113569   4.968   5.626   0.260
 4521TIP3    H213570   4.819   5.612   0.232
 4522TIP3   OH213571   3.892   2.225   4.929
 4522TIP3    H113572   3.911   2.265   4.844
 4522TIP3    H213573   3.892   2.131   4.912
 4523TIP3   OH213574   5.640   2.005   3.539
 4523TIP3    H113575   5.586   2.076   3.505
 4523TIP3    H213576   5.668   1.956   3.461
 4524TIP3   OH213577   5.911   4.019   4.255
 4524TIP3    H113578   5.840   4.018   4.190
 4524TIP3    H213579   5.880   4.078   4.324
 4525TIP3   OH213580   1.728   2.214   3.755
 4525TIP3    H113581   1.719   2.306   3.782
 4525TIP3    H213582   1.819   2.207   3.725
 4526TIP3   OH213583   5.984   5.621   0.258
 4526TIP3    H113584   6.044   5.626   0.332
 4526TIP3    H213585   5.977   5.527   0.238
 4527TIP3   OH213586   3.099   1.608   4.479
 4527TIP3    H113587   3.112   1.684   4.422
 4527TIP3    H213588   3.134   1.635   4.564
 4528TIP3   OH213589   3.141   1.680   0.169
 4528TIP3    H113590   3.050   1.700   0.191
 4528TIP3    H213591   3.137   1.646   0.079
 4529TIP3   OH213592   5.852   0.761   1.847
 4529TIP3    H113593   5.799   0.796   1.919
 4529TIP3    H213594   5.869   0.836   1.791
 4530TIP3   OH213595   1.175   2.762   4.068
 4530TIP3    H113596   1.151   2.710   3.991
 4530TIP3    H213597   1.107   2.742   4.132
 4531TIP3   OH213598   6.280   1.558   2.701
 4531TIP3    H113599   6.323   1.607   2.630
 4531TIP3    H213600   6.319   1.471   2.697
 4532TIP3   OH213601   1.599   1.509   3.721
 4532TIP3    H113602   1.571   1.580   3.778
 4532TIP3    H213603   1.546   1.519   3.642
 4533TIP3   OH213604   5.863   2.704   0.746
 4533TIP3    H113605   5.918   2.780   0.729
 4533TIP3    H213606   5.834   2.715   0.837
 4534TIP3   OH213607   2.421   5.445   0.936
 4534TIP3    H113608   2.329   5.441   0.959
 4534TIP3    H213609   2.422   5.476   0.845
 4535TIP3   OH213610   5.417   2.240   0.404
 4535TIP3    H113611   5.429   2.334   0.394
 4535TIP3    H213612   5.493   2.202   0.359
 4536TIP3   OH213613   2.959   1.973   4.272
 4536TIP3    H113614   2.873   1.932   4.268
 4536TIP3    H213615   2.951   2.039   4.342
 4537TIP3   OH213616   3.794   5.093   5.047
 4537TIP3    H113617   3.864   5.120   5.106
 4537TIP3    H213618   3.807   5.145   4.968
 4538TIP3   OH213619   4.282   0.924   2.419
 4538TIP3    H113620   4.190   0.940   2.444
 4538TIP3    H213621   4.289   0.829   2.413
 4539TIP3   OH213622   1.215   1.904   3.779
 4539TIP3    H113623   1.126   1.938   3.770
 4539TIP3    H213624   1.271   1.982   3.777
 4540TIP3   OH213625   4.019   3.616   1.593
 4540TIP3    H113626   4.020   3.523   1.613
 4540TIP3    H213627   4.068   3.656   1.666
 4541TIP3   OH213628   2.313   0.048   1.808
 4541TIP3    H113629   2.383   0.100   1.846
 4541TIP3    H213630   2.357  -0.025   1.766
 4542TIP3   OH213631   5.052   4.316   2.760
 4542TIP3    H113632   4.981   4.306   2.696
 4542TIP3    H213633   5.130   4.329   2.706
 4543TIP3   OH213634   4.335   0.096   4.669
 4543TIP3    H113635   4.412   0.133   4.627
 4543TIP3    H213636   4.352   0.103   4.762
 4544TIP3   OH213637   0.883   0.846   1.352
 4544TIP3    H113638   0.860   0.897   1.430
 4544TIP3    H213639   0.963   0.800   1.376
 4545TIP3   OH213640   3.028   0.658   3.631
 4545TIP3    H113641   3.105   0.601   3.634
 4545TIP3    H213642   2.974   0.620   3.561
 4546TIP3   OH213643   1.647   4.863   5.131
 4546TIP3    H113644   1.576   4.820   5.177
 4546TIP3    H213645   1.707   4.891   5.200
 4547TIP3   OH213646   2.309   1.709   4.757
 4547TIP3    H113647   2.354   1.793   4.743
 4547TIP3    H213648   2.244   1.704   4.687
 4548TIP3   OH213649   3.885   3.588   3.620
 4548TIP3    H113650   3.951   3.520   3.635
 4548TIP3    H213651   3.930   3.670   3.641
 4549TIP3   OH213652   3.674   4.568   1.132
 4549TIP3    H113653   3.681   4.507   1.059
 4549TIP3    H213654   3.735   4.639   1.111
 4550TIP3   OH213655   1.291   3.265   0.939
 4550TIP3    H113656   1.363   3.259   1.002
 4550TIP3    H213657   1.222   3.312   0.987
 4551TIP3   OH213658   2.748   3.757   2.222
 4551TIP3    H113659   2.802   3.702   2.279
 4551TIP3    H213660   2.675   3.786   2.277
 4552TIP3   OH213661   1.617   4.274   0.785
 4552TIP3    H113662   1.529   4.235   0.788
 4552TIP3    H213663   1.676   4.202   0.804
 4553TIP3   OH213664   4.982   5.534   2.290
 4553TIP3    H113665   4.976   5.439   2.284
 4553TIP3    H213666   4.964   5.553   2.382
 4554TIP3   OH213667   5.476   4.293   1.878
 4554TIP3    H113668   5.439   4.351   1.812
 4554TIP3    H213669   5.436   4.208   1.861
 4555TIP3   OH213670   5.581   3.887   3.565
 4555TIP3    H113671   5.516   3.830   3.523
 4555TIP3    H213672   5.593   3.959   3.503
 4556TIP3   OH213673   3.157   0.754   1.620
 4556TIP3    H113674   3.115   0.783   1.701
 4556TIP3    H213675   3.209   0.678   1.646
 4557TIP3   OH213676   4.851   5.106   3.544
 4557TIP3    H113677   4.910   5.170   3.504
 4557TIP3    H213678   4.795   5.077   3.472
 4558TIP3   OH213679   5.676   1.088   4.682
 4558TIP3    H113680   5.722   1.011   4.714
 4558TIP3    H213681   5.583   1.071   4.701
 4559TIP3   OH213682   4.169   2.154   3.519
 4559TIP3    H113683   4.126   2.147   3.604
 4559TIP3    H213684   4.210   2.240   3.519
 4560TIP3   OH213685   2.857   0.212   0.411
 4560TIP3    H113686   2.952   0.221   0.404
 4560TIP3    H213687   2.832   0.268   0.484
 4561TIP3   OH213688   4.528   3.264   1.976
 4561TIP3    H113689   4.597   3.300   2.032
 4561TIP3    H213690   4.454   3.250   2.036
 4562TIP3   OH213691   2.439   5.665   4.475
 4562TIP3    H113692   2.373   5.734   4.478
 4562TIP3    H213693   2.517   5.703   4.515
 4563TIP3   OH213694   4.021   1.803   2.126
 4563TIP3    H113695   4.117   1.802   2.129
 4563TIP3    H213696   4.000   1.774   2.038
 4564TIP3   OH213697   3.983   4.561   2.931
 4564TIP3    H113698   3.897   4.598   2.911
 4564TIP3    H213699   4.028   4.630   2.980
 4565TIP3   OH213700   0.997   5.475   0.902
 4565TIP3    H113701   0.983   5.494   0.810
 4565TIP3    H213702   0.920   5.425   0.928
 4566TIP3   OH213703   0.175   0.117   1.864
 4566TIP3    H113704   0.256   0.149   1.824
 4566TIP3    H213705   0.133   0.066   1.795
 4567TIP3   OH213706   6.005   4.391   1.423
 4567TIP3    H113707   6.089   4.436   1.436
 4567TIP3    H213708   6.029   4.301   1.402
 4568TIP3   OH213709   0.688   1.506   4.862
 4568TIP3    H113710   0.614   1.446   4.866
 4568TIP3    H213711   0.764   1.452   4.883
 4569TIP3   OH213712   4.190   5.461   0.494
 4569TIP3    H113713   4.266   5.509   0.528
 4569TIP3    H213714   4.218   5.428   0.409
 4570TIP3   OH213715   1.626   3.325   4.368
 4570TIP3    H113716   1.694   3.298   4.307
 4570TIP3    H213717   1.601   3.245   4.414
 4571TIP3   OH213718   4.959   0.330   2.875
 4571TIP3    H113719   5.055   0.326   2.876
 4571TIP3    H213720   4.940   0.420   2.851
 4572TIP3   OH213721   3.481   4.296   3.010
 4572TIP3    H113722   3.474   4.251   2.926
 4572TIP3    H213723   3.446   4.384   2.993
 4573TIP3   OH213724   3.652   1.221   0.937
 4573TIP3    H113725   3.742   1.253   0.939
 4573TIP3    H213726   3.654   1.146   0.878
 4574TIP3   OH213727   3.006   4.376   4.939
 4574TIP3    H113728   3.046   4.443   4.994
 4574TIP3    H213729   2.925   4.353   4.984
 4575TIP3   OH213730   1.075   0.959   0.063
 4575TIP3    H113731   1.092   0.903   0.138
 4575TIP3    H213732   1.037   0.900  -0.003
 4576TIP3   OH213733   1.327   4.614   3.202
 4576TIP3    H113734   1.313   4.520   3.186
 4576TIP3    H213735   1.332   4.653   3.115
 4577TIP3   OH213736   1.154   5.728   1.036
 4577TIP3    H113737   1.124   5.643   1.002
 4577TIP3    H213738   1.193   5.707   1.121
 4578TIP3   OH213739   2.409   3.824   0.824
 4578TIP3    H113740   2.419   3.920   0.827
 4578TIP3    H213741   2.329   3.810   0.772
 4579TIP3   OH213742   4.885   3.704   3.132
 4579TIP3    H113743   4.828   3.742   3.199
 4579TIP3    H213744   4.859   3.747   3.051
 4580TIP3   OH213745   0.265   0.210   4.485
 4580TIP3    H113746   0.246   0.123   4.449
 4580TIP3    H213747   0.344   0.197   4.539
 4581TIP3   OH213748   5.354   2.265   1.087
 4581TIP3    H113749   5.263   2.276   1.116
 4581TIP3    H213750   5.406   2.293   1.162
 4582TIP3   OH213751   1.256   5.823   1.518
 4582TIP3    H113752   1.161   5.826   1.533
 4582TIP3    H213753   1.280   5.733   1.539
 4583TIP3   OH213754   4.327   5.972   4.378
 4583TIP3    H113755   4.381   5.897   4.403
 4583TIP3    H213756   4.247   5.962   4.430
 4584TIP3   OH213757   1.723   0.551   1.309
 4584TIP3    H113758   1.760   0.507   1.385
 4584TIP3    H213759   1.734   0.645   1.327
 4585TIP3   OH213760   5.210   0.432   4.204
 4585TIP3    H113761   5.206   0.392   4.117
 4585TIP3    H213762   5.274   0.502   4.195
 4586TIP3   OH213763   0.904   0.339   3.933
 4586TIP3    H113764   0.986   0.314   3.890
 4586TIP3    H213765   0.875   0.416   3.885
 4587TIP3   OH213766   2.964   1.305   2.582
 4587TIP3    H113767   3.024   1.232   2.596
 4587TIP3    H213768   2.956   1.347   2.668
 4588TIP3   OH213769   4.214   2.746   3.311
 4588TIP3    H113770   4.152   2.818   3.319
 4588TIP3    H213771   4.224   2.733   3.217
 4589TIP3   OH213772   1.932   5.746   2.149
 4589TIP3    H113773   2.011   5.796   2.131
 4589TIP3    H213774   1.892   5.731   2.063
 4590TIP3   OH213775   1.177   0.047   2.167
 4590TIP3    H113776   1.225   0.014   2.090
 4590TIP3    H213777   1.107   0.100   2.131
 4591TIP3   OH213778   4.105   2.238   1.475
 4591TIP3    H113779   4.095   2.242   1.570
 4591TIP3    H213780   4.138   2.324   1.450
 4592TIP3   OH213781   1.917   5.455   1.356
 4592TIP3    H113782   1.893   5.439   1.448
 4592TIP3    H213783   1.960   5.375   1.328
 4593TIP3   OH213784   2.790   2.627   1.104
 4593TIP3    H113785   2.787   2.599   1.012
 4593TIP3    H213786   2.851   2.700   1.105
 4594TIP3   OH213787   1.870   0.860   5.070
 4594TIP3    H113788   1.834   0.771   5.068
 4594TIP3    H213789   1.859   0.888   5.161
 4595TIP3   OH213790   2.361   5.125   0.357
 4595TIP3    H113791   2.299   5.168   0.298
 4595TIP3    H213792   2.434   5.098   0.301
 4596TIP3   OH213793   5.682   3.047   2.170
 4596TIP3    H113794   5.715   2.957   2.162
 4596TIP3    H213795   5.665   3.074   2.079
 4597TIP3   OH213796   6.037   0.610   2.070
 4597TIP3    H113797   6.066   0.692   2.031
 4597TIP3    H213798   5.944   0.624   2.087
 4598TIP3   OH213799   4.445   1.373   1.065
 4598TIP3    H113800   4.460   1.401   0.974
 4598TIP3    H213801   4.533   1.361   1.100
 4599TIP3   OH213802   1.664   5.939   3.603
 4599TIP3    H113803   1.677   6.027   3.568
 4599TIP3    H213804   1.716   5.882   3.546
 4600TIP3   OH213805   5.413   4.377   3.783
 4600TIP3    H113806   5.450   4.448   3.731
 4600TIP3    H213807   5.410   4.412   3.872
 4601TIP3   OH213808   4.769   5.601   4.973
 4601TIP3    H113809   4.797   5.686   5.006
 4601TIP3    H213810   4.674   5.602   4.980
 4602TIP3   OH213811   5.870   1.642   2.066
 4602TIP3    H113812   5.786   1.608   2.097
 4602TIP3    H213813   5.933   1.573   2.089
 4603TIP3   OH213814   2.199   0.616   0.856
 4603TIP3    H113815   2.182   0.704   0.890
 4603TIP3    H213816   2.292   0.601   0.875
 4604TIP3   OH213817   1.418   5.579   0.862
 4604TIP3    H113818   1.351   5.631   0.817
 4604TIP3    H213819   1.501   5.618   0.835
 4605TIP3   OH213820   0.847   1.309   3.663
 4605TIP3    H113821   0.787   1.383   3.672
 4605TIP3    H213822   0.816   1.245   3.727
 4606TIP3   OH213823   2.016   1.899   4.369
 4606TIP3    H113824   2.060   1.984   4.372
 4606TIP3    H213825   1.924   1.919   4.388
 4607TIP3   OH213826   1.815   3.640   4.725
 4607TIP3    H113827   1.730   3.656   4.767
 4607TIP3    H213828   1.861   3.723   4.734
 4608TIP3   OH213829   1.268   1.836   4.501
 4608TIP3    H113830   1.249   1.828   4.408
 4608TIP3    H213831   1.184   1.859   4.541
 4609TIP3   OH213832   6.129   4.327   5.006
 4609TIP3    H113833   6.219   4.359   5.003
 4609TIP3    H213834   6.077   4.403   5.031
 4610TIP3   OH213835   5.320   0.557   0.923
 4610TIP3    H113836   5.340   0.490   0.858
 4610TIP3    H213837   5.227   0.542   0.944
 4611TIP3   OH213838   2.906   1.077   4.307
 4611TIP3    H113839   2.958   0.997   4.318
 4611TIP3    H213840   2.864   1.067   4.222
 4612TIP3   OH213841   4.380   5.052   0.126
 4612TIP3    H113842   4.383   4.986   0.195
 4612TIP3    H213843   4.467   5.092   0.128
 4613TIP3   OH213844   4.166   1.401   4.601
 4613TIP3    H113845   4.233   1.339   4.629
 4613TIP3    H213846   4.083   1.359   4.624
 4614TIP3   OH213847   3.484   4.089   4.309
 4614TIP3    H113848   3.521   4.065   4.394
 4614TIP3    H213849   3.441   4.173   4.325
 4615TIP3   OH213850   6.279   2.175   4.812
 4615TIP3    H113851   6.248   2.237   4.746
 4615TIP3    H213852   6.233   2.201   4.893
 4616TIP3   OH213853   5.103   1.479   2.156
 4616TIP3    H113854   5.166   1.520   2.215
 4616TIP3    H213855   5.133   1.502   2.068
 4617TIP3   OH213856   6.143   3.980   0.438
 4617TIP3    H113857   6.231   3.943   0.446
 4617TIP3    H213858   6.097   3.950   0.516
 4618TIP3   OH213859   4.844   2.587   0.589
 4618TIP3    H113860   4.933   2.609   0.614
 4618TIP3    H213861   4.796   2.670   0.592
 4619TIP3   OH213862   1.070   2.308   1.244
 4619TIP3    H113863   0.997   2.271   1.294
 4619TIP3    H213864   1.028   2.358   1.174
 4620TIP3   OH213865   0.020   6.009   2.935
 4620TIP3    H113866   0.056   5.929   2.973
 4620TIP3    H213867   0.054   6.011   2.846
 4621TIP3   OH213868   0.143   3.371   4.558
 4621TIP3    H113869   0.068   3.325   4.597
 4621TIP3    H213870   0.219   3.331   4.599
 4622TIP3   OH213871   2.217   4.297   0.432
 4622TIP3    H113872   2.148   4.325   0.491
 4622TIP3    H213873   2.281   4.368   0.434
 4623TIP3   OH213874   4.493   2.429   1.748
 4623TIP3    H113875   4.487   2.337   1.777
 4623TIP3    H213876   4.500   2.423   1.653
 4624TIP3   OH213877   6.345   2.528   4.219
 4624TIP3    H113878   6.269   2.552   4.272
 4624TIP3    H213879   6.375   2.445   4.256
 4625TIP3   OH213880   5.595   4.085   2.986
 4625TIP3    H113881   5.563   4.167   3.026
 4625TIP3    H213882   5.523   4.023   2.998
 4626TIP3   OH213883   0.056   1.800   2.540
 4626TIP3    H113884   0.147   1.801   2.510
 4626TIP3    H213885   0.004   1.815   2.462
 4627TIP3   OH213886   3.143   0.778   3.401
 4627TIP3    H113887   3.111   0.792   3.490
 4627TIP3    H213888   3.100   0.697   3.373
 4628TIP3   OH213889   3.011   5.499   4.417
 4628TIP3    H113890   3.031   5.411   4.447
 4628TIP3    H213891   2.962   5.539   4.489
 4629TIP3   OH213892   5.343   2.368   2.920
 4629TIP3    H113893   5.309   2.403   2.838
 4629TIP3    H213894   5.378   2.445   2.966
 4630TIP3   OH213895   4.430   5.466   2.595
 4630TIP3    H113896   4.492   5.420   2.651
 4630TIP3    H213897   4.372   5.512   2.657
 4631TIP3   OH213898   3.571   4.074   2.487
 4631TIP3    H113899   3.612   4.001   2.532
 4631TIP3    H213900   3.607   4.071   2.398
 4632TIP3   OH213901   4.193   4.690   1.258
 4632TIP3    H113902   4.157   4.604   1.235
 4632TIP3    H213903   4.120   4.751   1.245
 4633TIP3   OH213904   3.645   3.073   0.038
 4633TIP3    H113905   3.712   3.007   0.020
 4633TIP3    H213906   3.692   3.156   0.032
 4634TIP3   OH213907   3.166   4.725   0.254
 4634TIP3    H113908   3.149   4.701   0.163
 4634TIP3    H213909   3.179   4.820   0.252
 4635TIP3   OH213910   3.998   4.098   4.828
 4635TIP3    H113911   3.986   4.169   4.764
 4635TIP3    H213912   4.043   4.139   4.901
 4636TIP3   OH213913   1.010   3.164   3.597
 4636TIP3    H113914   0.964   3.240   3.561
 4636TIP3    H213915   0.981   3.160   3.688
 4637TIP3   OH213916   5.535   0.558   3.473
 4637TIP3    H113917   5.505   0.473   3.503
 4637TIP3    H213918   5.458   0.615   3.481
 4638TIP3   OH213919   3.924   3.289   1.604
 4638TIP3    H113920   4.017   3.297   1.583
 4638TIP3    H213921   3.889   3.232   1.537
 4639TIP3   OH213922   4.373   0.197   0.832
 4639TIP3    H113923   4.417   0.233   0.909
 4639TIP3    H213924   4.432   0.129   0.799
 4640TIP3   OH213925   4.540   3.469   1.370
 4640TIP3    H113926   4.634   3.479   1.357
 4640TIP3    H213927   4.531   3.427   1.455
 4641TIP3   OH213928   1.891   3.912   3.718
 4641TIP3    H113929   1.804   3.881   3.744
 4641TIP3    H213930   1.887   4.007   3.727
 4642TIP3   OH213931   4.407   1.879   1.158
 4642TIP3    H113932   4.337   1.829   1.116
 4642TIP3    H213933   4.374   1.897   1.246
 4643TIP3   OH213934   3.145   3.780   1.396
 4643TIP3    H113935   3.071   3.753   1.450
 4643TIP3    H213936   3.106   3.811   1.314
 4644TIP3   OH213937   3.374   0.265   1.086
 4644TIP3    H113938   3.377   0.283   0.992
 4644TIP3    H213939   3.455   0.303   1.120
 4645TIP3   OH213940   6.194   5.804   0.948
 4645TIP3    H113941   6.149   5.722   0.926
 4645TIP3    H213942   6.282   5.776   0.973
 4646TIP3   OH213943   5.216   1.239   0.814
 4646TIP3    H113944   5.302   1.221   0.853
 4646TIP3    H213945   5.221   1.203   0.726
 4647TIP3   OH213946   0.494   5.775   0.138
 4647TIP3    H113947   0.399   5.765   0.145
 4647TIP3    H213948   0.515   5.848   0.197
 4648TIP3   OH213949   0.516   5.463   3.115
 4648TIP3    H113950   0.602   5.444   3.153
 4648TIP3    H213951   0.454   5.445   3.185
 4649TIP3   OH213952   4.196   3.056   3.813
 4649TIP3    H113953   4.287   3.026   3.809
 4649TIP3    H213954   4.146   2.978   3.836
 4650TIP3   OH213955   5.289   3.036   3.217
 4650TIP3    H113956   5.278   2.973   3.146
 4650TIP3    H213957   5.375   3.014   3.255
 4651TIP3   OH213958   3.378   0.267   3.976
 4651TIP3    H113959   3.429   0.187   3.964
 4651TIP3    H213960   3.443   0.333   4.000
 4652TIP3   OH213961   1.359   3.743   0.108
 4652TIP3    H113962   1.347   3.657   0.146
 4652TIP3    H213963   1.342   3.804   0.180
 4653TIP3   OH213964   3.448   2.079   3.846
 4653TIP3    H113965   3.406   2.160   3.877
 4653TIP3    H213966   3.468   2.031   3.926
 4654TIP3   OH213967   3.171   0.889   1.369
 4654TIP3    H113968   3.137   0.878   1.458
 4654TIP3    H213969   3.169   0.801   1.332
 4655TIP3   OH213970   5.927   3.518   2.441
 4655TIP3    H113971   5.870   3.446   2.415
 4655TIP3    H213972   5.927   3.578   2.367
 4656TIP3   OH213973   0.620   5.479   2.050
 4656TIP3    H113974   0.626   5.553   2.111
 4656TIP3    H213975   0.578   5.516   1.972
 4657TIP3   OH213976   3.888   0.967   0.969
 4657TIP3    H113977   3.838   0.913   1.031
 4657TIP3    H213978   3.903   0.910   0.894
 4658TIP3   OH213979   5.656   3.980   4.975
 4658TIP3    H113980   5.691   4.068   4.990
 4658TIP3    H213981   5.561   3.992   4.974
 4659TIP3   OH213982   1.061   0.296   5.100
 4659TIP3    H113983   0.993   0.289   5.168
 4659TIP3    H213984   1.130   0.236   5.129
 4660TIP3   OH213985   1.106   5.595   2.604
 4660TIP3    H113986   1.143   5.680   2.579
 4660TIP3    H213987   1.012   5.611   2.611
 4661TIP3   OH213988   2.184   2.398   2.279
 4661TIP3    H113989   2.132   2.454   2.336
 4661TIP3    H213990   2.227   2.336   2.338
 4662TIP3   OH213991   0.624   2.489   3.009
 4662TIP3    H113992   0.702   2.519   2.963
 4662TIP3    H213993   0.596   2.411   2.961
 4663TIP3   OH213994   0.547   4.699   0.265
 4663TIP3    H113995   0.526   4.726   0.354
 4663TIP3    H213996   0.580   4.609   0.274
 4664TIP3   OH213997   5.763   3.447   0.490
 4664TIP3    H113998   5.667   3.441   0.497
 4664TIP3    H213999   5.778   3.536   0.459
 4665TIP3   OH214000   1.723   0.376   4.204
 4665TIP3    H114001   1.701   0.378   4.297
 4665TIP3    H214002   1.778   0.299   4.193
 4666TIP3   OH214003   4.049   1.209   4.226
 4666TIP3    H114004   4.075   1.160   4.303
 4666TIP3    H214005   3.986   1.152   4.182
 4667TIP3   OH214006   3.145   3.459   4.827
 4667TIP3    H114007   3.055   3.429   4.840
 4667TIP3    H214008   3.136   3.544   4.783
 4668TIP3   OH214009   1.501   2.091   4.904
 4668TIP3    H114010   1.417   2.047   4.892
 4668TIP3    H214011   1.519   2.134   4.820
 4669TIP3   OH214012   5.458   2.913   1.032
 4669TIP3    H114013   5.495   2.956   0.955
 4669TIP3    H214014   5.364   2.929   1.026
 4670TIP3   OH214015   5.879   5.270   5.116
 4670TIP3    H114016   5.906   5.331   5.184
 4670TIP3    H214017   5.874   5.324   5.036
 4671TIP3   OH214018   4.071   0.266   3.036
 4671TIP3    H114019   3.985   0.238   3.068
 4671TIP3    H214020   4.126   0.188   3.043
 4672TIP3   OH214021   0.588   4.120   2.543
 4672TIP3    H114022   0.509   4.105   2.491
 4672TIP3    H214023   0.584   4.055   2.613
 4673TIP3   OH214024   1.699   2.493   3.812
 4673TIP3    H114025   1.675   2.568   3.757
 4673TIP3    H214026   1.783   2.519   3.851
 4674TIP3   OH214027   0.902   5.811   2.112
 4674TIP3    H114028   0.829   5.857   2.070
 4674TIP3    H214029   0.900   5.724   2.072
 4675TIP3   OH214030   4.456   2.853   2.869
 4675TIP3    H114031   4.476   2.759   2.876
 4675TIP3    H214032   4.457   2.871   2.775
 4676TIP3   OH214033   4.799   5.509   4.344
 4676TIP3    H114034   4.817   5.416   4.355
 4676TIP3    H214035   4.706   5.518   4.365
 4677TIP3   OH214036   1.569   2.686   3.650
 4677TIP3    H114037   1.488   2.737   3.651
 4677TIP3    H214038   1.549   2.611   3.594
 4678TIP3   OH214039   5.759   1.909   4.962
 4678TIP3    H114040   5.830   1.942   4.907
 4678TIP3    H214041   5.682   1.957   4.932
 4679TIP3   OH214042   0.500   1.675   0.586
 4679TIP3    H114043   0.479   1.586   0.612
 4679TIP3    H214044   0.542   1.665   0.500
 4680TIP3   OH214045   4.825   2.420   4.697
 4680TIP3    H114046   4.876   2.500   4.686
 4680TIP3    H214047   4.855   2.384   4.781
 4681TIP3   OH214048   3.937   2.539   1.134
 4681TIP3    H114049   3.911   2.581   1.052
 4681TIP3    H214050   4.018   2.493   1.113
 4682TIP3   OH214051   0.876   4.530   3.718
 4682TIP3    H114052   0.798   4.561   3.765
 4682TIP3    H214053   0.929   4.488   3.786
 4683TIP3   OH214054   1.288   5.560   1.250
 4683TIP3    H114055   1.197   5.567   1.279
 4683TIP3    H214056   1.329   5.505   1.317
 4684TIP3   OH214057   2.456   2.034   2.825
 4684TIP3    H114058   2.434   1.983   2.747
 4684TIP3    H214059   2.537   2.079   2.803
 4685TIP3   OH214060   6.238   1.816   3.772
 4685TIP3    H114061   6.158   1.847   3.730
 4685TIP3    H214062   6.278   1.895   3.809
 4686TIP3   OH214063   2.904   3.641   2.422
 4686TIP3    H114064   2.876   3.555   2.451
 4686TIP3    H214065   2.880   3.700   2.494
 4687TIP3   OH214066   4.941   3.219   1.920
 4687TIP3    H114067   5.026   3.251   1.891
 4687TIP3    H214068   4.956   3.189   2.010
 4688TIP3   OH214069   0.842   5.093   3.540
 4688TIP3    H114070   0.907   5.156   3.508
 4688TIP3    H214071   0.784   5.078   3.465
 4689TIP3   OH214072   5.665   5.136   2.263
 4689TIP3    H114073   5.702   5.143   2.175
 4689TIP3    H214074   5.620   5.219   2.278
 4690TIP3   OH214075   2.788   3.364   0.157
 4690TIP3    H114076   2.745   3.351   0.072
 4690TIP3    H214077   2.875   3.328   0.145
 4691TIP3   OH214078   0.312   1.487   2.372
 4691TIP3    H114079   0.333   1.424   2.303
 4691TIP3    H214080   0.336   1.442   2.453
 4692TIP3   OH214081   1.215   4.670   4.551
 4692TIP3    H114082   1.155   4.618   4.496
 4692TIP3    H214083   1.202   4.635   4.639
 4693TIP3   OH214084   1.188   0.108   4.724
 4693TIP3    H114085   1.157   0.021   4.700
 4693TIP3    H214086   1.169   0.162   4.648
 4694TIP3   OH214087   3.326   3.440   0.201
 4694TIP3    H114088   3.355   3.530   0.189
 4694TIP3    H214089   3.346   3.396   0.119
 4695TIP3   OH214090   5.963   3.198   1.550
 4695TIP3    H114091   5.897   3.160   1.608
 4695TIP3    H214092   5.939   3.290   1.543
 4696TIP3   OH214093   1.518   5.319   2.184
 4696TIP3    H114094   1.558   5.406   2.181
 4696TIP3    H214095   1.554   5.273   2.108
 4697TIP3   OH214096   2.957   5.463   2.530
 4697TIP3    H114097   2.908   5.503   2.602
 4697TIP3    H214098   2.998   5.537   2.485
 4698TIP3   OH214099   1.478   2.540   2.650
 4698TIP3    H114100   1.469   2.481   2.575
 4698TIP3    H214101   1.531   2.613   2.617
 4699TIP3   OH214102   3.485   1.742   0.013
 4699TIP3    H114103   3.430   1.750   0.091
 4699TIP3    H214104   3.505   1.832  -0.012
 4700TIP3   OH214105   0.143   4.247   2.375
 4700TIP3    H114106   0.194   4.328   2.384
 4700TIP3    H214107   0.093   4.241   2.456
 4701TIP3   OH214108   4.695   1.406   1.139
 4701TIP3    H114109   4.694   1.495   1.104
 4701TIP3    H214110   4.778   1.369   1.106
 4702TIP3   OH214111   1.197   1.122   4.763
 4702TIP3    H114112   1.170   1.110   4.672
 4702TIP3    H214113   1.151   1.052   4.810
 4703TIP3   OH214114   6.127   5.250   1.461
 4703TIP3    H114115   6.176   5.192   1.403
 4703TIP3    H214116   6.131   5.336   1.418
 4704TIP3   OH214117   5.122   1.207   4.618
 4704TIP3    H114118   5.057   1.266   4.655
 4704TIP3    H214119   5.072   1.146   4.565
 4705TIP3   OH214120   3.675   3.438   4.724
 4705TIP3    H114121   3.589   3.420   4.760
 4705TIP3    H214122   3.735   3.423   4.797
 4706TIP3   OH214123   0.602   5.081   1.401
 4706TIP3    H114124   0.618   5.020   1.330
 4706TIP3    H214125   0.654   5.048   1.474
 4707TIP3   OH214126   3.197   2.795   4.860
 4707TIP3    H114127   3.205   2.817   4.953
 4707TIP3    H214128   3.108   2.760   4.852
 4708TIP3   OH214129   4.383   2.202   2.748
 4708TIP3    H114130   4.434   2.122   2.733
 4708TIP3    H214131   4.421   2.240   2.828
 4709TIP3   OH214132   5.323   5.499   1.019
 4709TIP3    H114133   5.297   5.428   0.959
 4709TIP3    H214134   5.346   5.572   0.961
 4710TIP3   OH214135   1.388   4.255   1.419
 4710TIP3    H114136   1.352   4.296   1.341
 4710TIP3    H214137   1.344   4.170   1.425
 4711TIP3   OH214138   5.696   1.646   4.962
 4711TIP3    H114139   5.679   1.633   5.056
 4711TIP3    H214140   5.757   1.719   4.959
 4712TIP3   OH214141   4.402   5.834   2.831
 4712TIP3    H114142   4.339   5.762   2.824
 4712TIP3    H214143   4.429   5.851   2.741
 4713TIP3   OH214144   5.562   0.556   3.043
 4713TIP3    H114145   5.564   0.497   3.119
 4713TIP3    H214146   5.621   0.628   3.066
 4714TIP3   OH214147   0.806   0.001   2.084
 4714TIP3    H114148   0.867   0.073   2.096
 4714TIP3    H214149   0.845  -0.073   2.131
 4715TIP3   OH214150   2.618   2.519   3.681
 4715TIP3    H114151   2.673   2.596   3.690
 4715TIP3    H214152   2.673   2.446   3.711
 4716TIP3   OH214153   5.895   4.856   3.433
 4716TIP3    H114154   5.863   4.881   3.520
 4716TIP3    H214155   5.986   4.829   3.449
 4717TIP3   OH214156   1.804   5.892   1.695
 4717TIP3    H114157   1.763   5.978   1.690
 4717TIP3    H214158   1.807   5.873   1.789
 4718TIP3   OH214159   3.438   0.812   4.568
 4718TIP3    H114160   3.365   0.757   4.541
 4718TIP3    H214161   3.514   0.753   4.570
 4719TIP3   OH214162   1.143   0.946   3.114
 4719TIP3    H114163   1.203   1.017   3.138
 4719TIP3    H214164   1.153   0.882   3.184
 4720TIP3   OH214165   0.387   5.900   1.598
 4720TIP3    H114166   0.314   5.839   1.596
 4720TIP3    H214167   0.439   5.878   1.521
 4721TIP3   OH214168   0.207   3.808   4.658
 4721TIP3    H114169   0.259   3.875   4.703
 4721TIP3    H214170   0.128   3.799   4.712
 4722TIP3   OH214171   0.532   2.698   4.030
 4722TIP3    H114172   0.447   2.666   4.001
 4722TIP3    H214173   0.595   2.656   3.972
 4723TIP3   OH214174   5.890   1.138   4.051
 4723TIP3    H114175   5.827   1.078   4.010
 4723TIP3    H214176   5.937   1.084   4.114
 4724TIP3   OH214177   5.187   4.463   0.719
 4724TIP3    H114178   5.257   4.438   0.780
 4724TIP3    H214179   5.204   4.556   0.701
 4725TIP3   OH214180   1.345   4.823   4.271
 4725TIP3    H114181   1.420   4.818   4.212
 4725TIP3    H214182   1.370   4.889   4.336
 4726TIP3   OH214183   6.064   2.526   1.856
 4726TIP3    H114184   6.097   2.610   1.822
 4726TIP3    H214185   6.134   2.464   1.838
 4727TIP3   OH214186   3.417   4.660   1.091
 4727TIP3    H114187   3.495   4.607   1.108
 4727TIP3    H214188   3.444   4.749   1.113
 4728TIP3   OH214189   4.460   0.147   1.358
 4728TIP3    H114190   4.522   0.082   1.323
 4728TIP3    H214191   4.496   0.171   1.443
 4729TIP3   OH214192   5.039   4.251   2.239
 4729TIP3    H114193   5.092   4.279   2.314
 4729TIP3    H214194   5.074   4.301   2.166
 4730TIP3   OH214195   3.040   0.975   4.762
 4730TIP3    H114196   2.966   0.951   4.818
 4730TIP3    H214197   3.020   1.065   4.734
 4731TIP3   OH214198   2.969   2.282   1.965
 4731TIP3    H114199   3.034   2.267   2.034
 4731TIP3    H214200   2.884   2.276   2.010
 4732TIP3   OH214201   6.176   5.785   2.489
 4732TIP3    H114202   6.251   5.788   2.430
 4732TIP3    H214203   6.113   5.727   2.446
 4733TIP3   OH214204   4.708   1.726   2.505
 4733TIP3    H114205   4.788   1.768   2.473
 4733TIP3    H214206   4.640   1.792   2.492
 4734TIP3   OH214207   6.030   0.843   3.651
 4734TIP3    H114208   6.035   0.751   3.679
 4734TIP3    H214209   5.942   0.871   3.675
 4735TIP3   OH214210   1.816   1.441   5.074
 4735TIP3    H114211   1.758   1.515   5.057
 4735TIP3    H214212   1.843   1.410   4.987
 4736TIP3   OH214213   5.834   2.967   0.300
 4736TIP3    H114214   5.780   2.888   0.307
 4736TIP3    H214215   5.837   3.001   0.389
 4737TIP3   OH214216   1.675   2.153   3.308
 4737TIP3    H114217   1.730   2.122   3.380
 4737TIP3    H214218   1.730   2.215   3.260
 4738TIP3   OH214219   5.373   3.381   2.078
 4738TIP3    H114220   5.390   3.354   2.169
 4738TIP3    H214221   5.423   3.319   2.025
 4739TIP3   OH214222   5.715   2.785   2.625
 4739TIP3    H114223   5.624   2.807   2.640
 4739TIP3    H214224   5.762   2.868   2.634
 4740TIP3   OH214225   1.671   3.447   2.808
 4740TIP3    H114226   1.699   3.515   2.746
 4740TIP3    H214227   1.647   3.373   2.752
 4741TIP3   OH214228   4.534   4.630   0.213
 4741TIP3    H114229   4.483   4.629   0.131
 4741TIP3    H214230   4.469   4.646   0.281
 4742TIP3   OH214231   2.321   5.507   4.733
 4742TIP3    H114232   2.311   5.565   4.808
 4742TIP3    H214233   2.416   5.499   4.721
 4743TIP3   OH214234   4.265   0.332   3.773
 4743TIP3    H114235   4.267   0.375   3.687
 4743TIP3    H214236   4.289   0.241   3.755
 4744TIP3   OH214237   5.315   4.349   3.425
 4744TIP3    H114238   5.322   4.257   3.401
 4744TIP3    H214239   5.234   4.355   3.475
 4745TIP3   OH214240   4.779   1.963   0.539
 4745TIP3    H114241   4.874   1.962   0.544
 4745TIP3    H214242   4.750   1.895   0.599
 4746TIP3   OH214243   2.952   0.294   1.453
 4746TIP3    H114244   3.020   0.279   1.519
 4746TIP3    H214245   2.999   0.292   1.370
 4747TIP3   OH214246   4.064   1.984   2.783
 4747TIP3    H114247   4.008   1.908   2.800
 4747TIP3    H214248   4.120   1.955   2.710
 4748TIP3   OH214249   0.266   1.967   3.691
 4748TIP3    H114250   0.254   2.060   3.672
 4748TIP3    H214251   0.178   1.931   3.695
 4749TIP3   OH214252   0.414   1.999   2.853
 4749TIP3    H114253   0.487   1.941   2.872
 4749TIP3    H214254   0.385   1.973   2.765
 4750TIP3   OH214255   1.799   3.320   3.876
 4750TIP3    H114256   1.880   3.292   3.834
 4750TIP3    H214257   1.798   3.415   3.865
 4751TIP3   OH214258   6.280   1.922   2.329
 4751TIP3    H114259   6.227   2.002   2.329
 4751TIP3    H214260   6.344   1.937   2.260
 4752TIP3   OH214261   1.533   3.011   0.715
 4752TIP3    H114262   1.596   3.057   0.659
 4752TIP3    H214263   1.565   2.921   0.719
 4753TIP3   OH214264   0.154   4.935   0.387
 4753TIP3    H114265   0.120   5.006   0.332
 4753TIP3    H214266   0.217   4.977   0.444
 4754TIP3   OH214267   1.670   1.852   4.905
 4754TIP3    H114268   1.599   1.908   4.937
 4754TIP3    H214269   1.656   1.848   4.810
 4755TIP3   OH214270   3.554   2.208   0.316
 4755TIP3    H114271   3.623   2.221   0.382
 4755TIP3    H214272   3.591   2.144   0.256
 4756TIP3   OH214273   5.565   5.848   4.975
 4756TIP3    H114274   5.622   5.829   5.049
 4756TIP3    H214275   5.626   5.869   4.903
 4757TIP3   OH214276   2.728   5.642   0.067
 4757TIP3    H114277   2.687   5.721   0.032
 4757TIP3    H214278   2.798   5.621   0.005
 4758TIP3   OH214279   4.836   5.310   4.608
 4758TIP3    H114280   4.854   5.393   4.652
 4758TIP3    H214281   4.921   5.277   4.581
 4759TIP3   OH214282   4.247   0.039   0.276
 4759TIP3    H114283   4.285  -0.009   0.350
 4759TIP3    H214284   4.203   0.114   0.317
 4760TIP3   OH214285   0.210   0.418   4.932
 4760TIP3    H114286   0.130   0.462   4.961
 4760TIP3    H214287   0.182   0.366   4.857
 4761TIP3   OH214288   5.206   0.685   0.599
 4761TIP3    H114289   5.213   0.630   0.521
 4761TIP3    H214290   5.286   0.666   0.648
 4762TIP3   OH214291   0.622   5.392   0.597
 4762TIP3    H114292   0.618   5.474   0.548
 4762TIP3    H214293   0.618   5.324   0.529
 4763TIP3   OH214294   2.296   1.457   2.933
 4763TIP3    H114295   2.312   1.485   2.843
 4763TIP3    H214296   2.216   1.404   2.929
 4764TIP3   OH214297   5.184   5.410   0.397
 4764TIP3    H114298   5.102   5.390   0.351
 4764TIP3    H214299   5.252   5.400   0.330
 4765TIP3   OH214300   2.906   3.837   3.353
 4765TIP3    H114301   2.977   3.774   3.338
 4765TIP3    H214302   2.826   3.786   3.342
 4766TIP3   OH214303   0.340   4.289   4.254
 4766TIP3    H114304   0.339   4.384   4.255
 4766TIP3    H214305   0.309   4.265   4.167
 4767TIP3   OH214306   0.857   3.900   4.828
 4767TIP3    H114307   0.931   3.926   4.773
 4767TIP3    H214308   0.854   3.805   4.821
 4768TIP3   OH214309   4.520   4.547   3.687
 4768TIP3    H114310   4.486   4.567   3.774
 4768TIP3    H214311   4.564   4.628   3.660
 4769TIP3   OH214312   5.467   2.525   3.557
 4769TIP3    H114313   5.416   2.597   3.521
 4769TIP3    H214314   5.452   2.529   3.651
 4770TIP3   OH214315   3.495   0.082   3.323
 4770TIP3    H114316   3.539   0.039   3.249
 4770TIP3    H214317   3.423   0.023   3.346
 4771TIP3   OH214318   0.420   3.217   2.007
 4771TIP3    H114319   0.366   3.295   1.996
 4771TIP3    H214320   0.368   3.159   2.062
 4772TIP3   OH214321   4.082   4.163   4.521
 4772TIP3    H114322   4.115   4.167   4.432
 4772TIP3    H214323   4.114   4.244   4.562
 4773TIP3   OH214324   3.860   4.552   0.811
 4773TIP3    H114325   3.866   4.543   0.716
 4773TIP3    H214326   3.784   4.499   0.835
 4774TIP3   OH214327   1.777   1.693   4.346
 4774TIP3    H114328   1.752   1.785   4.358
 4774TIP3    H214329   1.701   1.654   4.302
 4775TIP3   OH214330   1.071   4.563   1.560
 4775TIP3    H114331   1.128   4.509   1.615
 4775TIP3    H214332   1.125   4.585   1.485
 4776TIP3   OH214333   1.007   5.891   4.829
 4776TIP3    H114334   0.916   5.869   4.811
 4776TIP3    H214335   1.028   5.961   4.767
 4777TIP3   OH214336   0.253   0.118   2.918
 4777TIP3    H114337   0.229   0.034   2.958
 4777TIP3    H214338   0.236   0.106   2.825
 4778TIP3   OH214339   3.561   3.299   3.879
 4778TIP3    H114340   3.506   3.284   3.956
 4778TIP3    H214341   3.504   3.345   3.817
 4779TIP3   OH214342   2.095   5.870   1.933
 4779TIP3    H114343   2.098   5.911   2.019
 4779TIP3    H214344   2.042   5.929   1.879
 4780TIP3   OH214345   5.163   3.139   1.265
 4780TIP3    H114346   5.099   3.194   1.219
 4780TIP3    H214347   5.111   3.070   1.305
 4781TIP3   OH214348   0.228   0.886   4.316
 4781TIP3    H114349   0.169   0.960   4.329
 4781TIP3    H214350   0.286   0.914   4.245
 4782TIP3   OH214351   5.503   5.925   1.903
 4782TIP3    H114352   5.514   5.949   1.811
 4782TIP3    H214353   5.574   5.970   1.948
 4783TIP3   OH214354   2.557   5.781   2.521
 4783TIP3    H114355   2.570   5.869   2.556
 4783TIP3    H214356   2.626   5.729   2.563
 4784TIP3   OH214357   0.729   5.315   3.227
 4784TIP3    H114358   0.788   5.307   3.153
 4784TIP3    H214359   0.711   5.225   3.254
 4785TIP3   OH214360   1.202   0.375   3.341
 4785TIP3    H114361   1.288   0.347   3.374
 4785TIP3    H214362   1.203   0.351   3.248
 4786TIP3   OH214363   0.357   2.337   1.684
 4786TIP3    H114364   0.445   2.299   1.684
 4786TIP3    H214365   0.369   2.426   1.653
 4787TIP3   OH214366   5.720   4.970   1.193
 4787TIP3    H114367   5.739   5.063   1.205
 4787TIP3    H214368   5.732   4.954   1.100
 4788TIP3   OH214369   3.550   2.976   2.709
 4788TIP3    H114370   3.484   2.961   2.777
 4788TIP3    H214371   3.514   3.048   2.656
 4789TIP3   OH214372   4.271   0.641   2.410
 4789TIP3    H114373   4.241   0.554   2.434
 4789TIP3    H214374   4.253   0.648   2.316
 4790TIP3   OH214375   6.303   1.073   5.005
 4790TIP3    H114376   6.218   1.114   4.988
 4790TIP3    H214377   6.284   1.000   5.064
 4791TIP3   OH214378   0.735   3.100   3.820
 4791TIP3    H114379   0.798   3.168   3.846
 4791TIP3    H214380   0.783   3.018   3.832
 4792TIP3   OH214381   4.614   3.144   2.792
 4792TIP3    H114382   4.665   3.065   2.778
 4792TIP3    H214383   4.678   3.211   2.816
 4793TIP3   OH214384   1.507   2.434   3.985
 4793TIP3    H114385   1.501   2.502   4.052
 4793TIP3    H214386   1.587   2.455   3.936
 4794TIP3   OH214387   5.397   2.636   0.816
 4794TIP3    H114388   5.441   2.588   0.886
 4794TIP3    H214389   5.452   2.624   0.739
 4795TIP3   OH214390   3.625   4.844   2.133
 4795TIP3    H114391   3.564   4.848   2.207
 4795TIP3    H214392   3.695   4.787   2.163
 4796TIP3   OH214393   3.276   3.437   1.905
 4796TIP3    H114394   3.257   3.521   1.863
 4796TIP3    H214395   3.203   3.424   1.966
 4797TIP3   OH214396   4.378   0.878   4.293
 4797TIP3    H114397   4.330   0.945   4.244
 4797TIP3    H214398   4.432   0.834   4.227
 4798TIP3   OH214399   0.973   5.706   0.154
 4798TIP3    H114400   0.917   5.754   0.215
 4798TIP3    H214401   0.975   5.760   0.075
 4799TIP3   OH214402   6.227   2.580   3.485
 4799TIP3    H114403   6.246   2.581   3.391
 4799TIP3    H214404   6.136   2.609   3.491
 4800TIP3   OH214405   0.067   4.068   3.640
 4800TIP3    H114406   0.008   4.142   3.653
 4800TIP3    H214407   0.101   4.049   3.727
 4801TIP3   OH214408   2.515   0.183   3.099
 4801TIP3    H114409   2.539   0.201   3.190
 4801TIP3    H214410   2.423   0.207   3.093
 4802TIP3   OH214411   3.305   2.524   4.501
 4802TIP3    H114412   3.322   2.559   4.589
 4802TIP3    H214413   3.254   2.593   4.459
 4803TIP3   OH214414   0.170   2.412   0.576
 4803TIP3    H114415   0.103   2.349   0.550
 4803TIP3    H214416   0.132   2.461   0.649
 4804TIP3   OH214417   1.199   3.474   3.886
 4804TIP3    H114418   1.246   3.543   3.934
 4804TIP3    H214419   1.258   3.452   3.813
 4805TIP3   OH214420   3.936   5.342   0.470
 4805TIP3    H114421   3.884   5.422   0.467
 4805TIP3    H214422   4.025   5.372   0.489
 4806TIP3   OH214423   4.784   4.174   3.031
 4806TIP3    H114424   4.801   4.268   3.037
 4806TIP3    H214425   4.693   4.164   3.058
 4807TIP3   OH214426   3.022   3.129   3.924
 4807TIP3    H114427   3.071   3.149   3.844
 4807TIP3    H214428   3.004   3.035   3.918
 4808TIP3   OH214429   2.824   5.583   1.081
 4808TIP3    H114430   2.752   5.521   1.075
 4808TIP3    H214431   2.879   5.563   1.005
 4809TIP3   OH214432   1.091   1.651   0.886
 4809TIP3    H114433   1.149   1.698   0.826
 4809TIP3    H214434   1.151   1.599   0.941
 4810TIP3   OH214435   5.542   3.721   2.337
 4810TIP3    H114436   5.559   3.814   2.347
 4810TIP3    H214437   5.482   3.715   2.262
 4811TIP3   OH214438   3.727   2.794   1.896
 4811TIP3    H114439   3.649   2.847   1.910
 4811TIP3    H214440   3.709   2.747   1.814
 4812TIP3   OH214441   3.055   1.969   1.964
 4812TIP3    H114442   3.069   1.888   1.914
 4812TIP3    H214443   2.972   1.955   2.010
 4813TIP3   OH214444   1.077   3.744   2.356
 4813TIP3    H114445   1.014   3.724   2.425
 4813TIP3    H214446   1.146   3.792   2.401
 4814TIP3   OH214447   5.081   4.310   0.545
 4814TIP3    H114448   5.127   4.383   0.587
 4814TIP3    H214449   5.085   4.331   0.451
 4815TIP3   OH214450   0.411   5.664   0.708
 4815TIP3    H114451   0.489   5.612   0.691
 4815TIP3    H214452   0.365   5.617   0.779
 4816TIP3   OH214453   6.029   0.536   1.068
 4816TIP3    H114454   5.939   0.562   1.088
 4816TIP3    H214455   6.083   0.595   1.122
 4817TIP3   OH214456   1.592   5.709   3.891
 4817TIP3    H114457   1.658   5.649   3.923
 4817TIP3    H214458   1.536   5.656   3.834
 4818TIP3   OH214459   5.543   1.202   1.181
 4818TIP3    H114460   5.533   1.139   1.251
 4818TIP3    H214461   5.622   1.251   1.203
 4819TIP3   OH214462   3.673   1.860   0.593
 4819TIP3    H114463   3.750   1.911   0.568
 4819TIP3    H214464   3.613   1.868   0.519
 4820TIP3   OH214465   1.068   3.667   3.588
 4820TIP3    H114466   1.101   3.638   3.503
 4820TIP3    H214467   1.140   3.720   3.624
 4821TIP3   OH214468   0.084   0.671   5.153
 4821TIP3    H114469   0.133   0.734   5.100
 4821TIP3    H214470   0.007   0.719   5.183
 4822TIP3   OH214471   0.694   3.717   1.550
 4822TIP3    H114472   0.770   3.658   1.555
 4822TIP3    H214473   0.620   3.663   1.579
 4823TIP3   OH214474   1.470   0.903   5.017
 4823TIP3    H114475   1.390   0.853   5.033
 4823TIP3    H214476   1.511   0.912   5.103
 4824TIP3   OH214477   3.630   4.436   2.135
 4824TIP3    H114478   3.609   4.390   2.054
 4824TIP3    H214479   3.546   4.441   2.182
 4825TIP3   OH214480   6.066   4.850   1.177
 4825TIP3    H114481   6.008   4.793   1.128
 4825TIP3    H214482   6.120   4.790   1.229
 4826TIP3   OH214483   4.668   4.069   1.009
 4826TIP3    H114484   4.670   4.154   0.965
 4826TIP3    H214485   4.626   4.087   1.093
 4827TIP3   OH214486   3.618   0.480   4.325
 4827TIP3    H114487   3.575   0.396   4.344
 4827TIP3    H214488   3.706   0.455   4.298
 4828TIP3   OH214489   5.262   5.934   1.590
 4828TIP3    H114490   5.288   5.860   1.535
 4828TIP3    H214491   5.312   5.923   1.671
 4829TIP3   OH214492   3.050   5.333   3.858
 4829TIP3    H114493   2.976   5.274   3.844
 4829TIP3    H214494   3.062   5.378   3.774
 4830TIP3   OH214495   1.343   0.695   2.635
 4830TIP3    H114496   1.399   0.670   2.562
 4830TIP3    H214497   1.400   0.744   2.694
 4831TIP3   OH214498   2.718   4.809   2.593
 4831TIP3    H114499   2.803   4.766   2.585
 4831TIP3    H214500   2.692   4.828   2.503
 4832TIP3   OH214501   1.888   1.722   5.192
 4832TIP3    H114502   1.861   1.810   5.217
 4832TIP3    H214503   1.816   1.688   5.140
 4833TIP3   OH214504   6.006   3.755   4.238
 4833TIP3    H114505   5.976   3.845   4.223
 4833TIP3    H214506   6.039   3.726   4.153
 4834TIP3   OH214507   4.906   1.384   2.855
 4834TIP3    H114508   4.880   1.335   2.777
 4834TIP3    H214509   4.962   1.454   2.822
 4835TIP3   OH214510   3.524   0.877   1.480
 4835TIP3    H114511   3.455   0.943   1.489
 4835TIP3    H214512   3.544   0.877   1.386
 4836TIP3   OH214513   4.023   0.971   2.514
 4836TIP3    H114514   3.933   1.001   2.516
 4836TIP3    H214515   4.018   0.879   2.488
 4837TIP3   OH214516   0.990   4.234   1.731
 4837TIP3    H114517   0.954   4.150   1.762
 4837TIP3    H214518   1.081   4.214   1.709
 4838TIP3   OH214519   5.252   1.817   5.037
 4838TIP3    H114520   5.172   1.774   5.007
 4838TIP3    H214521   5.270   1.777   5.122
 4839TIP3   OH214522   0.499   3.413   2.572
 4839TIP3    H114523   0.523   3.478   2.506
 4839TIP3    H214524   0.425   3.366   2.533
 4840TIP3   OH214525   3.496   5.572   5.139
 4840TIP3    H114526   3.436   5.537   5.073
 4840TIP3    H214527   3.453   5.650   5.172
 4841TIP3   OH214528   2.709   1.378   5.207
 4841TIP3    H114529   2.648   1.446   5.179
 4841TIP3    H214530   2.740   1.338   5.126
 4842TIP3   OH214531   2.310   0.130   4.796
 4842TIP3    H114532   2.289   0.184   4.873
 4842TIP3    H214533   2.364   0.187   4.742
 4843TIP3   OH214534   1.997   4.242   4.610
 4843TIP3    H114535   2.054   4.301   4.658
 4843TIP3    H214536   2.048   4.161   4.600
 4844TIP3   OH214537   1.365   3.492   3.672
 4844TIP3    H114538   1.308   3.455   3.605
 4844TIP3    H214539   1.439   3.528   3.623
 4845TIP3   OH214540   5.102   3.296   4.936
 4845TIP3    H114541   5.166   3.274   5.004
 4845TIP3    H214542   5.082   3.213   4.894
 4846TIP3   OH214543   1.494   1.779   3.883
 4846TIP3    H114544   1.500   1.871   3.907
 4846TIP3    H214545   1.413   1.748   3.923
 4847TIP3   OH214546   6.224   5.082   0.762
 4847TIP3    H114547   6.229   5.128   0.678
 4847TIP3    H214548   6.150   5.021   0.752
 4848TIP3   OH214549   5.087   5.526   3.667
 4848TIP3    H114550   5.025   5.588   3.630
 4848TIP3    H214551   5.173   5.554   3.634
 4849TIP3   OH214552   0.414   3.959   4.937
 4849TIP3    H114553   0.441   4.049   4.919
 4849TIP3    H214554   0.466   3.905   4.878
 4850TIP3   OH214555   4.289   0.392   3.505
 4850TIP3    H114556   4.339   0.469   3.478
 4850TIP3    H214557   4.244   0.363   3.425
 4851TIP3   OH214558   1.487   2.906   3.375
 4851TIP3    H114559   1.519   2.932   3.289
 4851TIP3    H214560   1.394   2.929   3.375
 4852TIP3   OH214561   4.714   3.196   2.244
 4852TIP3    H114562   4.676   3.281   2.270
 4852TIP3    H214563   4.809   3.209   2.251
 4853TIP3   OH214564   2.773   2.730   3.724
 4853TIP3    H114565   2.743   2.799   3.783
 4853TIP3    H214566   2.864   2.751   3.706
 4854TIP3   OH214567   0.167   0.459   4.415
 4854TIP3    H114568   0.210   0.387   4.462
 4854TIP3    H214569   0.075   0.451   4.438
 4855TIP3   OH214570   2.670   2.326   0.196
 4855TIP3    H114571   2.732   2.376   0.144
 4855TIP3    H214572   2.629   2.391   0.254
 4856TIP3   OH214573   6.013   5.308   2.874
 4856TIP3    H114574   5.967   5.290   2.791
 4856TIP3    H214575   6.104   5.284   2.856
 4857TIP3   OH214576   3.836   2.082   1.708
 4857TIP3    H114577   3.809   2.072   1.799
 4857TIP3    H214578   3.807   2.001   1.665
 4858TIP3   OH214579   2.012   1.859   2.062
 4858TIP3    H114580   2.070   1.855   1.986
 4858TIP3    H214581   2.011   1.770   2.097
 4859TIP3   OH214582   0.716   5.934   0.591
 4859TIP3    H114583   0.779   5.915   0.660
 4859TIP3    H214584   0.760   6.001   0.538
 4860TIP3   OH214585   6.098   5.770   2.755
 4860TIP3    H114586   6.142   5.787   2.672
 4860TIP3    H214587   6.017   5.724   2.731
 4861TIP3   OH214588   5.839   1.891   4.301
 4861TIP3    H114589   5.769   1.841   4.260
 4861TIP3    H214590   5.814   1.898   4.393
 4862TIP3   OH214591   5.771   4.122   1.022
 4862TIP3    H114592   5.849   4.169   0.993
 4862TIP3    H214593   5.698   4.174   0.989
 4863TIP3   OH214594   4.571   3.323   3.498
 4863TIP3    H114595   4.504   3.347   3.562
 4863TIP3    H214596   4.538   3.243   3.458
 4864TIP3   OH214597   2.585   3.492   4.939
 4864TIP3    H114598   2.502   3.525   4.973
 4864TIP3    H214599   2.562   3.447   4.858
 4865TIP3   OH214600   2.850   3.787   4.123
 4865TIP3    H114601   2.773   3.736   4.099
 4865TIP3    H214602   2.923   3.725   4.119
 4866TIP3   OH214603   0.072   1.558   4.479
 4866TIP3    H114604   0.048   1.481   4.428
 4866TIP3    H214605  -0.011   1.602   4.498
 4867TIP3   OH214606   1.019   3.257   0.204
 4867TIP3    H114607   1.025   3.284   0.112
 4867TIP3    H214608   1.110   3.257   0.234
 4868TIP3   OH214609   1.813   3.829   1.170
 4868TIP3    H114610   1.807   3.744   1.128
 4868TIP3    H214611   1.831   3.809   1.262
 4869TIP3   OH214612   5.832   0.845   2.545
 4869TIP3    H114613   5.880   0.773   2.504
 4869TIP3    H214614   5.900   0.902   2.581
 4870TIP3   OH214615   3.555   0.377   4.913
 4870TIP3    H114616   3.509   0.457   4.938
 4870TIP3    H214617   3.543   0.319   4.988
 4871TIP3   OH214618   0.287   4.443   3.140
 4871TIP3    H114619   0.348   4.387   3.188
 4871TIP3    H214620   0.325   4.531   3.147
 4872TIP3   OH214621   3.713   2.351   2.259
 4872TIP3    H114622   3.758   2.291   2.319
 4872TIP3    H214623   3.757   2.435   2.271
 4873TIP3   OH214624   1.617   3.274   2.582
 4873TIP3    H114625   1.706   3.306   2.569
 4873TIP3    H214626   1.629   3.185   2.616
 4874TIP3   OH214627   6.306   4.763   1.847
 4874TIP3    H114628   6.251   4.834   1.813
 4874TIP3    H214629   6.249   4.715   1.906
 4875TIP3   OH214630   1.861   0.192   4.049
 4875TIP3    H114631   1.784   0.145   4.080
 4875TIP3    H214632   1.935   0.139   4.079
 4876TIP3   OH214633   1.525   1.470   3.177
 4876TIP3    H114634   1.494   1.549   3.132
 4876TIP3    H214635   1.471   1.400   3.141
 4877TIP3   OH214636   0.575   3.876   2.741
 4877TIP3    H114637   0.654   3.864   2.793
 4877TIP3    H214638   0.503   3.850   2.800
 4878TIP3   OH214639   0.778   3.788   3.509
 4878TIP3    H114640   0.869   3.764   3.520
 4878TIP3    H214641   0.748   3.736   3.434
 4879TIP3   OH214642   1.862   4.564   0.348
 4879TIP3    H114643   1.804   4.615   0.293
 4879TIP3    H214644   1.919   4.517   0.287
 4880TIP3   OH214645   5.364   1.766   1.655
 4880TIP3    H114646   5.399   1.747   1.569
 4880TIP3    H214647   5.440   1.784   1.710
 4881TIP3   OH214648   2.358   1.773   3.323
 4881TIP3    H114649   2.294   1.735   3.383
 4881TIP3    H214650   2.352   1.867   3.337
 4882TIP3   OH214651   1.628   2.765   2.536
 4882TIP3    H114652   1.667   2.840   2.579
 4882TIP3    H214653   1.576   2.802   2.465
 4883TIP3   OH214654   1.530   2.220   4.662
 4883TIP3    H114655   1.565   2.305   4.688
 4883TIP3    H214656   1.483   2.238   4.581
 4884TIP3   OH214657   2.834   2.579   2.875
 4884TIP3    H114658   2.887   2.508   2.910
 4884TIP3    H214659   2.882   2.659   2.898
 4885TIP3   OH214660   6.185   1.794   2.094
 4885TIP3    H114661   6.214   1.738   2.022
 4885TIP3    H214662   6.215   1.748   2.173
 4886TIP3   OH214663   5.130   1.867   2.363
 4886TIP3    H114664   5.043   1.855   2.400
 4886TIP3    H214665   5.182   1.795   2.400
 4887TIP3   OH214666   4.299   1.119   0.631
 4887TIP3    H114667   4.347   1.184   0.682
 4887TIP3    H214668   4.212   1.158   0.618
 4888TIP3   OH214669   3.729   3.141   2.881
 4888TIP3    H114670   3.661   3.152   2.814
 4888TIP3    H214671   3.811   3.146   2.832
 4889TIP3   OH214672   1.063   0.478   0.532
 4889TIP3    H114673   0.998   0.460   0.464
 4889TIP3    H214674   1.012   0.501   0.609
 4890TIP3   OH214675   5.091   3.491   4.326
 4890TIP3    H114676   5.091   3.537   4.242
 4890TIP3    H214677   5.021   3.532   4.376
 4891TIP3   OH214678   1.920   2.976   4.846
 4891TIP3    H114679   1.846   2.981   4.785
 4891TIP3    H214680   1.978   2.909   4.808
 4892TIP3   OH214681   1.238   3.611   2.214
 4892TIP3    H114682   1.262   3.540   2.274
 4892TIP3    H214683   1.169   3.659   2.261
 4893TIP3   OH214684   1.924   5.049   4.934
 4893TIP3    H114685   1.913   5.106   5.010
 4893TIP3    H214686   1.838   5.049   4.892
 4894TIP3   OH214687   5.187   2.558   3.642
 4894TIP3    H114688   5.096   2.532   3.654
 4894TIP3    H214689   5.200   2.555   3.547
 4895TIP3   OH214690   1.833   3.089   5.096
 4895TIP3    H114691   1.833   3.051   5.008
 4895TIP3    H214692   1.856   3.017   5.154
 4896TIP3   OH214693   4.755   5.309   5.064
 4896TIP3    H114694   4.817   5.246   5.102
 4896TIP3    H214695   4.797   5.394   5.077
 4897TIP3   OH214696   1.839   2.283   4.376
 4897TIP3    H114697   1.835   2.293   4.281
 4897TIP3    H214698   1.816   2.191   4.391
 4898TIP3   OH214699   6.092   3.431   2.100
 4898TIP3    H114700   6.117   3.445   2.009
 4898TIP3    H214701   6.109   3.515   2.143
 4899TIP3   OH214702   4.738   3.299   3.718
 4899TIP3    H114703   4.684   3.278   3.642
 4899TIP3    H214704   4.713   3.388   3.743
 4900TIP3   OH214705   6.120   0.059   2.992
 4900TIP3    H114706   6.155   0.085   2.907
 4900TIP3    H214707   6.150   0.127   3.052
 4901TIP3   OH214708   5.836   2.600   4.274
 4901TIP3    H114709   5.851   2.507   4.256
 4901TIP3    H214710   5.813   2.638   4.189
 4902TIP3   OH214711   3.089   4.270   1.170
 4902TIP3    H114712   3.083   4.361   1.142
 4902TIP3    H214713   3.182   4.251   1.175
 4903TIP3   OH214714   1.717   1.763   3.723
 4903TIP3    H114715   1.644   1.801   3.773
 4903TIP3    H214716   1.681   1.749   3.636
 4904TIP3   OH214717   4.634   4.310   3.670
 4904TIP3    H114718   4.594   4.395   3.688
 4904TIP3    H214719   4.652   4.311   3.576
 4905TIP3   OH214720   6.204   2.386   4.641
 4905TIP3    H114721   6.144   2.441   4.591
 4905TIP3    H214722   6.250   2.446   4.699
 4906TIP3   OH214723   6.001   5.752   0.607
 4906TIP3    H114724   6.051   5.823   0.567
 4906TIP3    H214725   5.923   5.794   0.644
 4907TIP3   OH214726   3.153   0.505   3.294
 4907TIP3    H114727   3.158   0.526   3.200
 4907TIP3    H214728   3.243   0.480   3.317
 4908TIP3   OH214729   5.198   3.932   2.297
 4908TIP3    H114730   5.271   3.937   2.360
 4908TIP3    H214731   5.126   3.976   2.341
 4909TIP3   OH214732   3.088   4.891   4.104
 4909TIP3    H114733   3.096   4.961   4.170
 4909TIP3    H214734   3.003   4.851   4.123
 4910TIP3   OH214735   3.320   0.641   1.105
 4910TIP3    H114736   3.387   0.573   1.119
 4910TIP3    H214737   3.366   0.708   1.054
 4911TIP3   OH214738   1.597   0.781   4.411
 4911TIP3    H114739   1.575   0.874   4.400
 4911TIP3    H214740   1.684   0.781   4.450
 4912TIP3   OH214741   2.205   5.201   4.182
 4912TIP3    H114742   2.153   5.154   4.117
 4912TIP3    H214743   2.219   5.138   4.252
 4913TIP3   OH214744   2.777   2.052   5.147
 4913TIP3    H114745   2.831   1.984   5.107
 4913TIP3    H214746   2.839   2.104   5.199
 4914TIP3   OH214747   1.335   0.838   4.613
 4914TIP3    H114748   1.252   0.806   4.649
 4914TIP3    H214749   1.337   0.801   4.524
 4915TIP3   OH214750   0.605   2.991   1.833
 4915TIP3    H114751   0.677   3.000   1.770
 4915TIP3    H214752   0.583   2.898   1.832
 4916TIP3   OH214753   1.071   0.915   1.815
 4916TIP3    H114754   1.107   0.830   1.841
 4916TIP3    H214755   1.052   0.960   1.897
 4917TIP3   OH214756   3.302   4.922   2.583
 4917TIP3    H114757   3.261   4.988   2.639
 4917TIP3    H214758   3.342   4.972   2.512
 4918TIP3   OH214759   0.653   5.855   1.117
 4918TIP3    H114760   0.715   5.783   1.126
 4918TIP3    H214761   0.702   5.924   1.071
 4919TIP3   OH214762   3.463   1.034   0.824
 4919TIP3    H114763   3.465   1.088   0.903
 4919TIP3    H214764   3.382   1.059   0.780
 4920TIP3   OH214765   6.329   2.548   2.857
 4920TIP3    H114766   6.282   2.472   2.891
 4920TIP3    H214767   6.339   2.530   2.764
 4921TIP3   OH214768   1.951   2.660   2.108
 4921TIP3    H114769   1.954   2.565   2.099
 4921TIP3    H214770   1.912   2.675   2.195
 4922TIP3   OH214771   6.196   4.911   2.162
 4922TIP3    H114772   6.142   4.985   2.192
 4922TIP3    H214773   6.133   4.843   2.138
 4923TIP3   OH214774   3.383   4.651   3.271
 4923TIP3    H114775   3.333   4.591   3.216
 4923TIP3    H214776   3.474   4.626   3.257
 4924TIP3   OH214777   1.439   5.982   0.807
 4924TIP3    H114778   1.516   6.027   0.841
 4924TIP3    H214779   1.472   5.927   0.736
 4925TIP3   OH214780   4.937   4.481   3.716
 4925TIP3    H114781   4.907   4.568   3.688
 4925TIP3    H214782   4.857   4.436   3.745
 4926TIP3   OH214783   2.790   5.829   1.275
 4926TIP3    H114784   2.766   5.737   1.291
 4926TIP3    H214785   2.850   5.825   1.201
 4927TIP3   OH214786   3.011   4.914   0.094
 4927TIP3    H114787   3.076   4.920   0.024
 4927TIP3    H214788   2.947   4.982   0.073
 4928TIP3   OH214789   0.799   4.017   0.089
 4928TIP3    H114790   0.877   3.962   0.094
 4928TIP3    H214791   0.826   4.093   0.037
 4929TIP3   OH214792   4.850   1.302   1.439
 4929TIP3    H114793   4.882   1.361   1.371
 4929TIP3    H214794   4.773   1.260   1.401
 4930TIP3   OH214795   2.572   2.219   1.126
 4930TIP3    H114796   2.598   2.225   1.217
 4930TIP3    H214797   2.621   2.144   1.092
 4931TIP3   OH214798   0.697   2.138   0.292
 4931TIP3    H114799   0.695   2.233   0.288
 4931TIP3    H214800   0.691   2.117   0.385
 4932TIP3   OH214801   4.418   3.966   3.343
 4932TIP3    H114802   4.329   3.943   3.316
 4932TIP3    H214803   4.474   3.903   3.297
 4933TIP3   OH214804   0.226   4.191   4.803
 4933TIP3    H114805   0.142   4.146   4.799
 4933TIP3    H214806   0.207   4.274   4.847
 4934TIP3   OH214807   4.870   1.292   2.572
 4934TIP3    H114808   4.923   1.311   2.494
 4934TIP3    H214809   4.783   1.326   2.550
 4935TIP3   OH214810   2.021   0.204   1.458
 4935TIP3    H114811   2.041   0.297   1.460
 4935TIP3    H214812   2.103   0.161   1.436
 4936TIP3   OH214813   2.120   3.926   0.072
 4936TIP3    H114814   2.125   4.004   0.128
 4936TIP3    H214815   2.208   3.888   0.076
 4937TIP3   OH214816   0.935   2.060   3.216
 4937TIP3    H114817   0.855   2.113   3.226
 4937TIP3    H214818   0.936   2.034   3.124
 4938TIP3   OH214819   1.144   0.380   1.882
 4938TIP3    H114820   1.167   0.410   1.794
 4938TIP3    H214821   1.076   0.441   1.910
 4939TIP3   OH214822   5.065   1.250   0.313
 4939TIP3    H114823   5.094   1.159   0.315
 4939TIP3    H214824   5.073   1.280   0.403
 4940TIP3   OH214825   2.927   1.771   1.630
 4940TIP3    H114826   2.999   1.765   1.694
 4940TIP3    H214827   2.970   1.768   1.545
 4941TIP3   OH214828   0.083   3.342   0.498
 4941TIP3    H114829   0.172   3.316   0.523
 4941TIP3    H214830   0.056   3.277   0.433
 4942TIP3   OH214831   5.370   3.617   3.872
 4942TIP3    H114832   5.318   3.697   3.865
 4942TIP3    H214833   5.419   3.627   3.953
 4943TIP3   OH214834   2.494   1.866   5.124
 4943TIP3    H114835   2.502   1.854   5.030
 4943TIP3    H214836   2.423   1.929   5.134
 4944TIP3   OH214837   0.546   3.355   0.489
 4944TIP3    H114838   0.638   3.369   0.466
 4944TIP3    H214839   0.499   3.362   0.405
 4945TIP3   OH214840   2.656   1.420   4.713
 4945TIP3    H114841   2.683   1.361   4.642
 4945TIP3    H214842   2.734   1.474   4.730
 4946TIP3   OH214843   4.721   5.636   4.131
 4946TIP3    H114844   4.784   5.595   4.191
 4946TIP3    H214845   4.748   5.727   4.126
 4947TIP3   OH214846   1.410   0.692   3.111
 4947TIP3    H114847   1.333   0.669   3.162
 4947TIP3    H214848   1.403   0.639   3.032
 4948TIP3   OH214849   0.272   1.325   3.139
 4948TIP3    H114850   0.307   1.399   3.091
 4948TIP3    H214851   0.346   1.293   3.192
 4949TIP3   OH214852   1.539   0.350   0.886
 4949TIP3    H114853   1.470   0.416   0.878
 4949TIP3    H214854   1.560   0.328   0.795
 4950TIP3   OH214855   2.461   0.479   3.376
 4950TIP3    H114856   2.368   0.500   3.370
 4950TIP3    H214857   2.464   0.384   3.384
 4951TIP3   OH214858   2.213   5.846   0.461
 4951TIP3    H114859   2.298   5.816   0.493
 4951TIP3    H214860   2.174   5.767   0.421
 4952TIP3   OH214861   5.030   0.983   2.178
 4952TIP3    H114862   4.982   1.060   2.146
 4952TIP3    H214863   5.091   1.018   2.243
 4953TIP3   OH214864   5.367   2.985   2.593
 4953TIP3    H114865   5.420   2.966   2.670
 4953TIP3    H214866   5.431   2.992   2.522
 4954TIP3   OH214867   3.960   5.804   1.666
 4954TIP3    H114868   3.957   5.892   1.704
 4954TIP3    H214869   3.896   5.806   1.595
 4955TIP3   OH214870   3.938   0.256   3.962
 4955TIP3    H114871   3.903   0.314   3.894
 4955TIP3    H214872   3.928   0.306   4.043
 4956TIP3   OH214873   1.363   1.718   4.170
 4956TIP3    H114874   1.429   1.787   4.176
 4956TIP3    H214875   1.411   1.638   4.192
 4957TIP3   OH214876   5.016   5.273   3.442
 4957TIP3    H114877   5.078   5.279   3.369
 4957TIP3    H214878   4.969   5.356   3.441
 4958TIP3   OH214879   1.623   1.196   5.146
 4958TIP3    H114880   1.646   1.240   5.227
 4958TIP3    H214881   1.700   1.209   5.090
 4959TIP3   OH214882   4.610   4.810   4.990
 4959TIP3    H114883   4.701   4.797   4.961
 4959TIP3    H214884   4.577   4.722   5.007
 4960TIP3   OH214885   1.524   2.857   3.993
 4960TIP3    H114886   1.453   2.893   3.940
 4960TIP3    H214887   1.481   2.818   4.069
 4961TIP3   OH214888   1.580   2.852   1.885
 4961TIP3    H114889   1.603   2.931   1.935
 4961TIP3    H214890   1.656   2.837   1.829
 4962TIP3   OH214891   1.305   4.578   4.184
 4962TIP3    H114892   1.316   4.667   4.220
 4962TIP3    H214893   1.372   4.572   4.116
 4963TIP3   OH214894   1.100   4.023   2.842
 4963TIP3    H114895   1.192   4.027   2.818
 4963TIP3    H214896   1.089   4.090   2.910
 4964TIP3   OH214897   2.266   2.062   5.052
 4964TIP3    H114898   2.236   1.972   5.036
 4964TIP3    H214899   2.250   2.077   5.145
 4965TIP3   OH214900   0.517   0.220   0.082
 4965TIP3    H114901   0.460   0.280   0.130
 4965TIP3    H214902   0.472   0.206  -0.001
 4966TIP3   OH214903   3.587   5.255   3.865
 4966TIP3    H114904   3.497   5.263   3.897
 4966TIP3    H214905   3.576   5.239   3.771
 4967TIP3   OH214906   2.101   4.670   4.577
 4967TIP3    H114907   2.119   4.727   4.651
 4967TIP3    H214908   2.007   4.679   4.563
 4968TIP3   OH214909   0.188   3.372   2.666
 4968TIP3    H114910   0.209   3.329   2.583
 4968TIP3    H214911   0.198   3.466   2.648
 4969TIP3   OH214912   2.198   0.716   1.653
 4969TIP3    H114913   2.209   0.697   1.747
 4969TIP3    H214914   2.143   0.644   1.621
 4970TIP3   OH214915   5.455   1.579   3.461
 4970TIP3    H114916   5.409   1.496   3.452
 4970TIP3    H214917   5.421   1.634   3.390
 4971TIP3   OH214918   4.903   2.698   5.052
 4971TIP3    H114919   4.880   2.733   5.138
 4971TIP3    H214920   4.902   2.603   5.063
 4972TIP3   OH214921   1.773   4.002   3.245
 4972TIP3    H114922   1.830   4.001   3.322
 4972TIP3    H214923   1.784   4.089   3.208
 4973TIP3   OH214924   0.789   1.544   4.172
 4973TIP3    H114925   0.753   1.631   4.190
 4973TIP3    H214926   0.830   1.517   4.254
 4974TIP3   OH214927   5.244   2.127   0.045
 4974TIP3    H114928   5.291   2.210   0.054
 4974TIP3    H214929   5.183   2.126   0.118
 4975TIP3   OH214930   3.148   1.746   1.807
 4975TIP3    H114931   3.230   1.774   1.765
 4975TIP3    H214932   3.176   1.698   1.885
 4976TIP3   OH214933   5.931   5.986   1.744
 4976TIP3    H114934   5.965   5.907   1.786
 4976TIP3    H214935   5.993   6.055   1.767
 4977TIP3   OH214936   2.519   4.216   0.554
 4977TIP3    H114937   2.593   4.198   0.497
 4977TIP3    H214938   2.479   4.295   0.518
 4978TIP3   OH214939   4.588   3.486   2.972
 4978TIP3    H114940   4.637   3.408   2.997
 4978TIP3    H214941   4.639   3.525   2.900
 4979TIP3   OH214942   3.431   5.122   0.870
 4979TIP3    H114943   3.419   5.074   0.788
 4979TIP3    H214944   3.427   5.056   0.938
 4980TIP3   OH214945   4.823   3.212   3.373
 4980TIP3    H114946   4.763   3.262   3.428
 4980TIP3    H214947   4.870   3.156   3.435
 4981TIP3   OH214948   2.902   3.766   4.402
 4981TIP3    H114949   2.893   3.815   4.320
 4981TIP3    H214950   2.894   3.674   4.377
 4982TIP3   OH214951   4.061   1.341   3.822
 4982TIP3    H114952   3.981   1.293   3.842
 4982TIP3    H214953   4.041   1.387   3.740
 4983TIP3   OH214954   3.127   3.549   0.773
 4983TIP3    H114955   3.190   3.558   0.845
 4983TIP3    H214956   3.169   3.593   0.699
 4984TIP3   OH214957   5.795   0.895   4.397
 4984TIP3    H114958   5.876   0.850   4.376
 4984TIP3    H214959   5.782   0.881   4.491
 4985TIP3   OH214960   0.956   1.953   0.601
 4985TIP3    H114961   0.980   1.880   0.545
 4985TIP3    H214962   1.040   1.991   0.628
 4986TIP3   OH214963   5.399   0.476   1.592
 4986TIP3    H114964   5.455   0.525   1.652
 4986TIP3    H214965   5.457   0.414   1.549
 4987TIP3   OH214966   1.316   2.926   1.572
 4987TIP3    H114967   1.381   2.857   1.571
 4987TIP3    H214968   1.350   2.990   1.636
 4988TIP3   OH214969   4.512   2.636   3.306
 4988TIP3    H114970   4.425   2.665   3.280
 4988TIP3    H214971   4.543   2.703   3.367
 4989TIP3   OH214972   5.528   4.794   4.750
 4989TIP3    H114973   5.618   4.824   4.760
 4989TIP3    H214974   5.486   4.860   4.695
 4990TIP3   OH214975   0.938   3.228   0.867
 4990TIP3    H114976   0.950   3.238   0.961
 4990TIP3    H214977   0.987   3.300   0.829
 4991TIP3   OH214978   6.269   1.299   4.632
 4991TIP3    H114979   6.220   1.379   4.650
 4991TIP3    H214980   6.282   1.300   4.537
 4992TIP3   OH214981   1.044   3.724   1.201
 4992TIP3    H114982   1.119   3.668   1.222
 4992TIP3    H214983   1.042   3.789   1.272
 4993TIP3   OH214984   0.582   3.093   4.900
 4993TIP3    H114985   0.491   3.124   4.906
 4993TIP3    H214986   0.578   3.019   4.841
 4994TIP3   OH214987   0.675   5.062   0.618
 4994TIP3    H114988   0.722   5.143   0.603
 4994TIP3    H214989   0.588   5.077   0.580
 4995TIP3   OH214990   1.402   5.298   0.899
 4995TIP3    H114991   1.439   5.265   0.817
 4995TIP3    H214992   1.403   5.393   0.888
 4996TIP3   OH214993   5.560   3.423   3.800
 4996TIP3    H114994   5.514   3.506   3.811
 4996TIP3    H214995   5.652   3.447   3.797
 4997TIP3   OH214996   5.584   0.139   0.676
 4997TIP3    H114997   5.509   0.103   0.725
 4997TIP3    H214998   5.613   0.066   0.621
 4998TIP3   OH214999   1.173   5.719   0.358
 4998TIP3    H115000   1.109   5.699   0.290
 4998TIP3    H215001   1.249   5.665   0.335
 4999TIP3   OH215002   3.381   4.542   0.348
 4999TIP3    H115003   3.322   4.617   0.336
 4999TIP3    H215004   3.352   4.478   0.283
 5000TIP3   OH215005   4.210   3.427  -0.027
 5000TIP3    H115006   4.185   3.344   0.015
 5000TIP3    H215007   4.219   3.489   0.046
 5001TIP3   OH215008   4.519   5.348   0.609
 5001TIP3    H115009   4.517   5.444   0.611
 5001TIP3    H215010   4.522   5.326   0.516
 5002TIP3   OH215011   5.817   0.000   0.815
 5002TIP3    H115012   5.739   0.053   0.801
 5002TIP3    H215013   5.803  -0.042   0.900
 5003TIP3   OH215014   2.782   2.024   3.127
 5003TIP3    H115015   2.853   2.017   3.191
 5003TIP3    H215016   2.757   1.934   3.108
 5004TIP3   OH215017   1.859   3.576   3.885
 5004TIP3    H115018   1.952   3.595   3.903
 5004TIP3    H215019   1.812   3.648   3.926
 5005TIP3   OH215020   5.745   4.310   0.741
 5005TIP3    H115021   5.742   4.322   0.646
 5005TIP3    H215022   5.777   4.221   0.753
 5006TIP3   OH215023   0.337   2.575   0.849
 5006TIP3    H115024   0.432   2.582   0.849
 5006TIP3    H215025   0.320   2.486   0.881
 5007TIP3   OH215026   0.909   2.338   0.915
 5007TIP3    H115027   0.845   2.302   0.976
 5007TIP3    H215028   0.947   2.413   0.961
 5008TIP3   OH215029   3.163   2.149   5.028
 5008TIP3    H115030   3.204   2.226   4.989
 5008TIP3    H215031   3.083   2.183   5.069
 5009TIP3   OH215032   5.333   4.099   0.562
 5009TIP3    H115033   5.413   4.149   0.548
 5009TIP3    H215034   5.277   4.157   0.613
 5010TIP3   OH215035   5.745   4.400   4.394
 5010TIP3    H115036   5.773   4.318   4.434
 5010TIP3    H215037   5.652   4.387   4.376
 5011TIP3   OH215038   3.383   0.554   4.982
 5011TIP3    H115039   3.401   0.630   5.036
 5011TIP3    H215040   3.299   0.573   4.941
 5012TIP3   OH215041   3.487   3.793   3.971
 5012TIP3    H115042   3.402   3.798   4.014
 5012TIP3    H215043   3.488   3.865   3.909
 5013TIP3   OH215044   1.770   3.447   0.645
 5013TIP3    H115045   1.847   3.391   0.655
 5013TIP3    H215046   1.730   3.418   0.562
 5014TIP3   OH215047   2.925   3.663   4.916
 5014TIP3    H115048   2.832   3.643   4.927
 5014TIP3    H215049   2.942   3.648   4.823
 5015TIP3   OH215050   4.167   0.932   2.988
 5015TIP3    H115051   4.250   0.889   3.008
 5015TIP3    H215052   4.187   0.987   2.912
 5016TIP3   OH215053   5.783   0.641   1.104
 5016TIP3    H115054   5.716   0.596   1.156
 5016TIP3    H215055   5.757   0.733   1.105
 5017TIP3   OH215056   5.447   3.698   2.055
 5017TIP3    H115057   5.534   3.715   2.020
 5017TIP3    H215058   5.441   3.603   2.058
 5018TIP3   OH215059   6.013   5.269   0.870
 5018TIP3    H115060   6.017   5.221   0.952
 5018TIP3    H215061   6.086   5.235   0.818
 5019TIP3   OH215062   0.773   4.699   3.423
 5019TIP3    H115063   0.799   4.767   3.486
 5019TIP3    H215064   0.853   4.680   3.374
 5020TIP3   OH215065   4.749   4.786   1.617
 5020TIP3    H115066   4.766   4.739   1.536
 5020TIP3    H215067   4.836   4.802   1.654
 5021TIP3   OH215068   0.227   2.555   3.010
 5021TIP3    H115069   0.149   2.508   2.980
 5021TIP3    H215070   0.292   2.540   2.942
 5022TIP3   OH215071   1.834   2.092   4.645
 5022TIP3    H115072   1.811   2.154   4.714
 5022TIP3    H215073   1.755   2.086   4.591
 5023TIP3   OH215074   6.315   3.837   1.438
 5023TIP3    H115075   6.403   3.826   1.402
 5023TIP3    H215076   6.280   3.914   1.393
 5024TIP3   OH215077   3.154   1.369   0.284
 5024TIP3    H115078   3.133   1.422   0.361
 5024TIP3    H215079   3.184   1.432   0.219
 5025TIP3   OH215080   3.767   4.848   0.762
 5025TIP3    H115081   3.742   4.908   0.692
 5025TIP3    H215082   3.858   4.826   0.744
 5026TIP3   OH215083   0.423   1.035   0.409
 5026TIP3    H115084   0.503   0.994   0.443
 5026TIP3    H215085   0.381   0.967   0.356
 5027TIP3   OH215086   6.012   1.403   3.628
 5027TIP3    H115087   6.054   1.352   3.558
 5027TIP3    H215088   6.037   1.358   3.709
 5028TIP3   OH215089   1.552   3.496   4.168
 5028TIP3    H115090   1.565   3.422   4.227
 5028TIP3    H215091   1.639   3.535   4.158
 5029TIP3   OH215092   0.029   2.063   2.968
 5029TIP3    H115093   0.031   2.046   2.874
 5029TIP3    H215094   0.121   2.058   2.996
 5030TIP3   OH215095   5.532   1.528   0.503
 5030TIP3    H115096   5.617   1.505   0.465
 5030TIP3    H215097   5.473   1.533   0.429
 5031TIP3   OH215098   5.035   4.641   2.809
 5031TIP3    H115099   4.972   4.708   2.782
 5031TIP3    H215100   5.037   4.578   2.737
 5032TIP3   OH215101   5.994   5.104   3.285
 5032TIP3    H115102   5.947   5.036   3.333
 5032TIP3    H215103   5.926   5.166   3.258
 5033TIP3   OH215104   0.650   3.033   1.373
 5033TIP3    H115105   0.636   2.951   1.326
 5033TIP3    H215106   0.567   3.049   1.418
 5034TIP3   OH215107   5.226   5.426   1.717
 5034TIP3    H115108   5.314   5.423   1.754
 5034TIP3    H215109   5.224   5.354   1.655
 5035TIP3   OH215110   2.951   4.616   3.408
 5035TIP3    H115111   3.020   4.569   3.455
 5035TIP3    H215112   2.984   4.623   3.318
 5036TIP3   OH215113   0.263   4.947   1.793
 5036TIP3    H115114   0.320   4.947   1.716
 5036TIP3    H215115   0.317   4.910   1.863
 5037TIP3   OH215116   0.270   3.126   2.776
 5037TIP3    H115117   0.365   3.135   2.772
 5037TIP3    H215118   0.237   3.206   2.736
 5038TIP3   OH215119   4.652   4.964   2.318
 5038TIP3    H115120   4.719   4.911   2.274
 5038TIP3    H215121   4.680   5.054   2.303
 5039TIP3   OH215122   4.813   4.458   3.026
 5039TIP3    H115123   4.729   4.502   3.036
 5039TIP3    H215124   4.860   4.511   2.960
 5040TIP3   OH215125   5.248   2.510   4.463
 5040TIP3    H115126   5.344   2.519   4.458
 5040TIP3    H215127   5.220   2.514   4.372
 5041TIP3   OH215128   0.467   1.261   4.618
 5041TIP3    H115129   0.424   1.184   4.656
 5041TIP3    H215130   0.493   1.232   4.530
 5042TIP3   OH215131   1.823   4.265   3.154
 5042TIP3    H115132   1.854   4.264   3.064
 5042TIP3    H215133   1.790   4.354   3.168
 5043TIP3   OH215134   3.987   4.538   2.653
 5043TIP3    H115135   3.956   4.629   2.657
 5043TIP3    H215136   3.995   4.511   2.744
 5044TIP3   OH215137   3.494   5.784   3.616
 5044TIP3    H115138   3.522   5.765   3.526
 5044TIP3    H215139   3.541   5.721   3.670
 5045TIP3   OH215140   5.029   0.164   2.635
 5045TIP3    H115141   5.069   0.190   2.552
 5045TIP3    H215142   5.091   0.101   2.673
 5046TIP3   OH215143   3.945   0.717   2.472
 5046TIP3    H115144   4.005   0.645   2.489
 5046TIP3    H215145   3.861   0.687   2.506
 5047TIP3   OH215146   0.560   2.748   2.421
 5047TIP3    H115147   0.625   2.777   2.357
 5047TIP3    H215148   0.516   2.829   2.449
 5048TIP3   OH215149   0.933   5.614   2.917
 5048TIP3    H115150   0.880   5.550   2.870
 5048TIP3    H215151   0.870   5.675   2.954
 5049TIP3   OH215152   6.318   0.243   1.972
 5049TIP3    H115153   6.389   0.184   1.947
 5049TIP3    H215154   6.362   0.325   1.994
 5050TIP3   OH215155   2.851   1.023   1.227
 5050TIP3    H115156   2.764   1.061   1.210
 5050TIP3    H215157   2.833   0.933   1.254
 5051TIP3   OH215158   4.534   5.143   2.625
 5051TIP3    H115159   4.592   5.190   2.565
 5051TIP3    H215160   4.446   5.158   2.591
 5052TIP3   OH215161   4.661   5.687   0.584
 5052TIP3    H115162   4.622   5.768   0.550
 5052TIP3    H215163   4.639   5.687   0.677
 5053TIP3   OH215164   6.229   1.626   0.791
 5053TIP3    H115165   6.140   1.661   0.804
 5053TIP3    H215166   6.224   1.583   0.706
 5054TIP3   OH215167   6.087   4.260   0.481
 5054TIP3    H115168   6.098   4.295   0.393
 5054TIP3    H215169   6.078   4.165   0.468
 5055TIP3   OH215170   2.031  -0.018   1.637
 5055TIP3    H115171   2.005  -0.028   1.546
 5055TIP3    H215172   1.992   0.064   1.665
 5056TIP3   OH215173   2.962   0.056   1.028
 5056TIP3    H115174   2.976   0.071   0.935
 5056TIP3    H215175   3.048   0.066   1.067
 5057TIP3   OH215176   2.922   1.026   2.967
 5057TIP3    H115177   2.938   0.980   3.049
 5057TIP3    H215178   2.993   0.998   2.910
 5058TIP3   OH215179   0.134   1.972   2.154
 5058TIP3    H115180   0.130   2.005   2.064
 5058TIP3    H215181   0.155   1.879   2.145
 5059TIP3   OH215182   6.124   2.313   0.197
 5059TIP3    H115183   6.137   2.276   0.284
 5059TIP3    H215184   6.127   2.408   0.211
 5060TIP3   OH215185   3.165   0.414   4.660
 5060TIP3    H115186   3.083   0.396   4.705
 5060TIP3    H215187   3.222   0.341   4.683
 5061TIP3   OH215188   1.831   5.487   4.516
 5061TIP3    H115189   1.871   5.549   4.454
 5061TIP3    H215190   1.901   5.466   4.577
 5062TIP3   OH215191   1.036   4.156   0.489
 5062TIP3    H115192   0.995   4.129   0.571
 5062TIP3    H215193   1.110   4.210   0.516
 5063TIP3   OH215194   4.630   1.725   0.383
 5063TIP3    H115195   4.704   1.665   0.379
 5063TIP3    H215196   4.661   1.798   0.436
 5064TIP3   OH215197   1.061   3.190   2.372
 5064TIP3    H115198   1.047   3.184   2.467
 5064TIP3    H215199   1.072   3.099   2.344
 5065TIP3   OH215200   3.859   4.883   3.207
 5065TIP3    H115201   3.915   4.916   3.277
 5065TIP3    H215202   3.845   4.791   3.230
 5066TIP3   OH215203   4.889   0.721   1.512
 5066TIP3    H115204   4.890   0.636   1.467
 5066TIP3    H215205   4.864   0.784   1.444
 5067TIP3   OH215206   0.272   0.946   3.254
 5067TIP3    H115207   0.337   1.010   3.282
 5067TIP3    H215208   0.250   0.971   3.165
 5068TIP3   OH215209   5.475   2.649   1.216
 5068TIP3    H115210   5.449   2.727   1.167
 5068TIP3    H215211   5.488   2.582   1.148
 5069TIP3   OH215212   4.580   3.913   2.711
 5069TIP3    H115213   4.619   3.908   2.624
 5069TIP3    H215214   4.518   3.986   2.705
 5070TIP3   OH215215   2.073   4.034   2.785
 5070TIP3    H115216   2.092   3.942   2.801
 5070TIP3    H215217   2.158   4.077   2.787
 5071TIP3   OH215218   3.732   3.170   4.071
 5071TIP3    H115219   3.740   3.253   4.118
 5071TIP3    H215220   3.680   3.191   3.994
 5072TIP3   OH215221   5.977   4.146   3.234
 5072TIP3    H115222   6.053   4.095   3.261
 5072TIP3    H215223   6.000   4.176   3.145
 5073TIP3   OH215224   4.881   4.466   5.017
 5073TIP3    H115225   4.904   4.374   5.006
 5073TIP3    H215226   4.846   4.473   5.105
 5074TIP3   OH215227   0.402   1.168   3.819
 5074TIP3    H115228   0.472   1.229   3.796
 5074TIP3    H215229   0.336   1.180   3.751
 5075TIP3   OH215230   5.562   5.358   3.901
 5075TIP3    H115231   5.603   5.440   3.927
 5075TIP3    H215232   5.498   5.383   3.835
 5076TIP3   OH215233   3.735   1.589   2.531
 5076TIP3    H115234   3.702   1.507   2.494
 5076TIP3    H215235   3.716   1.654   2.464
 5077TIP3   OH215236   6.315   2.654   3.814
 5077TIP3    H115237   6.328   2.568   3.775
 5077TIP3    H215238   6.350   2.715   3.750
 5078TIP3   OH215239   5.760   0.404   1.817
 5078TIP3    H115240   5.854   0.397   1.836
 5078TIP3    H215241   5.717   0.361   1.891
 5079TIP3   OH215242   0.684   5.675   1.488
 5079TIP3    H115243   0.691   5.710   1.400
 5079TIP3    H215244   0.595   5.699   1.517
 5080TIP3   OH215245   4.701   0.594   1.963
 5080TIP3    H115246   4.720   0.669   2.018
 5080TIP3    H215247   4.783   0.576   1.916
 5081TIP3   OH215248   3.037   4.660   3.156
 5081TIP3    H115249   3.037   4.627   3.066
 5081TIP3    H215250   3.087   4.742   3.152
 5082TIP3   OH215251   2.211   5.017   4.393
 5082TIP3    H115252   2.194   5.010   4.487
 5082TIP3    H215253   2.211   4.926   4.362
 5083TIP3   OH215254   0.046   3.960   1.142
 5083TIP3    H115255  -0.021   4.017   1.181
 5083TIP3    H215256   0.065   3.895   1.209
 5084TIP3   OH215257   2.545   4.620   5.085
 5084TIP3    H115258   2.496   4.701   5.100
 5084TIP3    H215259   2.564   4.586   5.172
 5085TIP3   OH215260   4.182   1.365   2.769
 5085TIP3    H115261   4.096   1.355   2.810
 5085TIP3    H215262   4.211   1.276   2.753
 5086TIP3   OH215263   4.857   4.509   1.693
 5086TIP3    H115264   4.950   4.490   1.706
 5086TIP3    H215265   4.847   4.514   1.597
 5087TIP3   OH215266   4.244   3.056   5.111
 5087TIP3    H115267   4.280   3.033   5.025
 5087TIP3    H215268   4.312   3.032   5.173
 5088TIP3   OH215269   2.811   0.741   1.256
 5088TIP3    H115270   2.756   0.681   1.205
 5088TIP3    H215271   2.900   0.719   1.229
 5089TIP3   OH215272   2.233   0.579   4.980
 5089TIP3    H115273   2.262   0.657   5.028
 5089TIP3    H215274   2.181   0.530   5.043
 5090TIP3   OH215275   1.788   5.450   1.084
 5090TIP3    H115276   1.807   5.432   1.176
 5090TIP3    H215277   1.699   5.486   1.084
 5091TIP3   OH215278   3.753   1.807   2.840
 5091TIP3    H115279   3.736   1.891   2.883
 5091TIP3    H215280   3.684   1.800   2.773
 5092TIP3   OH215281   1.375   0.461   3.705
 5092TIP3    H115282   1.371   0.370   3.673
 5092TIP3    H215283   1.302   0.467   3.767
 5093TIP3   OH215284   3.667   4.860   3.938
 5093TIP3    H115285   3.664   4.903   4.023
 5093TIP3    H215286   3.609   4.913   3.883
 5094TIP3   OH215287   1.193   3.906   2.549
 5094TIP3    H115288   1.204   3.837   2.614
 5094TIP3    H215289   1.163   3.982   2.598
 5095TIP3   OH215290   1.721   2.008   3.539
 5095TIP3    H115291   1.741   2.055   3.620
 5095TIP3    H215292   1.676   1.929   3.567
 5096TIP3   OH215293   5.442   1.803   2.606
 5096TIP3    H115294   5.458   1.712   2.632
 5096TIP3    H215295   5.463   1.805   2.513
 5097TIP3   OH215296   2.336   1.819   2.164
 5097TIP3    H115297   2.307   1.801   2.253
 5097TIP3    H215298   2.290   1.899   2.139
 5098TIP3   OH215299   0.797   0.859   1.096
 5098TIP3    H115300   0.841   0.864   1.180
 5098TIP3    H215301   0.718   0.808   1.113
 5099TIP3   OH215302   0.242   1.031   2.160
 5099TIP3    H115303   0.232   1.050   2.067
 5099TIP3    H215304   0.316   0.970   2.164
 5100TIP3   OH215305   1.147   5.896   2.511
 5100TIP3    H115306   1.141   5.975   2.456
 5100TIP3    H215307   1.107   5.922   2.594
 5101TIP3   OH215308   3.804   3.895   4.798
 5101TIP3    H115309   3.873   3.960   4.789
 5101TIP3    H215310   3.819   3.833   4.727
 5102TIP3   OH215311   4.676   2.281   3.749
 5102TIP3    H115312   4.663   2.333   3.670
 5102TIP3    H215313   4.664   2.190   3.721
 5103TIP3   OH215314   0.315   4.864   2.573
 5103TIP3    H115315   0.287   4.892   2.486
 5103TIP3    H215316   0.407   4.841   2.563
 5104TIP3   OH215317   5.293   3.289   4.151
 5104TIP3    H115318   5.272   3.346   4.225
 5104TIP3    H215319   5.211   3.285   4.101
 5105TIP3   OH215320   3.294   4.487   5.205
 5105TIP3    H115321   3.281   4.425   5.133
 5105TIP3    H215322   3.277   4.573   5.166
 5106TIP3   OH215323   5.426   4.684   3.943
 5106TIP3    H115324   5.386   4.634   4.014
 5106TIP3    H215325   5.362   4.679   3.871
 5107TIP3   OH215326   5.170   5.818   3.782
 5107TIP3    H115327   5.158   5.769   3.701
 5107TIP3    H215328   5.146   5.908   3.759
 5108TIP3   OH215329   6.307   4.917   4.511
 5108TIP3    H115330   6.236   4.889   4.569
 5108TIP3    H215331   6.376   4.853   4.525
 5109TIP3   OH215332   3.338   4.953   1.135
 5109TIP3    H115333   3.256   4.982   1.094
 5109TIP3    H215334   3.314   4.878   1.188
 5110TIP3   OH215335   0.683   2.889   3.534
 5110TIP3    H115336   0.650   2.811   3.489
 5110TIP3    H215337   0.688   2.864   3.626
 5111TIP3   OH215338   5.128   0.178   0.923
 5111TIP3    H115339   5.110   0.272   0.913
 5111TIP3    H215340   5.044   0.135   0.906
 5112TIP3   OH215341   2.784   1.202   2.140
 5112TIP3    H115342   2.794   1.213   2.235
 5112TIP3    H215343   2.708   1.144   2.131
 5113TIP3   OH215344   1.483   3.093   1.129
 5113TIP3    H115345   1.407   3.034   1.128
 5113TIP3    H215346   1.539   3.060   1.059
 5114TIP3   OH215347   0.124   0.853   4.971
 5114TIP3    H115348   0.064   0.807   4.913
 5114TIP3    H215349   0.098   0.944   4.967
 5115TIP3   OH215350   2.622   1.394   3.874
 5115TIP3    H115351   2.544   1.396   3.929
 5115TIP3    H215352   2.589   1.366   3.788
 5116TIP3   OH215353   5.627   0.305   3.725
 5116TIP3    H115354   5.537   0.318   3.695
 5116TIP3    H215355   5.640   0.210   3.720
 5117TIP3   OH215356   3.317   1.229   4.987
 5117TIP3    H115357   3.342   1.153   4.934
 5117TIP3    H215358   3.302   1.192   5.074
 5118TIP3   OH215359   6.179   0.720   1.245
 5118TIP3    H115360   6.122   0.795   1.260
 5118TIP3    H215361   6.255   0.756   1.200
 5119TIP3   OH215362   4.783   1.897   3.284
 5119TIP3    H115363   4.728   1.962   3.327
 5119TIP3    H215364   4.855   1.883   3.345
 5120TIP3   OH215365   2.538   5.997   4.412
 5120TIP3    H115366   2.593   5.950   4.475
 5120TIP3    H215367   2.524   5.935   4.341
 5121TIP3   OH215368   0.534   5.327   2.871
 5121TIP3    H115369   0.523   5.393   2.940
 5121TIP3    H215370   0.565   5.376   2.795
 5122TIP3   OH215371   3.345   3.729   4.966
 5122TIP3    H115372   3.367   3.643   4.930
 5122TIP3    H215373   3.380   3.728   5.055
 5123TIP3   OH215374   3.622   5.302   2.500
 5123TIP3    H115375   3.653   5.332   2.414
 5123TIP3    H215376   3.638   5.207   2.499
 5124TIP3   OH215377   5.225   4.621   3.767
 5124TIP3    H115378   5.248   4.663   3.684
 5124TIP3    H215379   5.174   4.544   3.741
 5125TIP3   OH215380   4.571   0.669   0.810
 5125TIP3    H115381   4.564   0.764   0.795
 5125TIP3    H215382   4.634   0.639   0.744
 5126TIP3   OH215383   0.611   4.510   3.539
 5126TIP3    H115384   0.662   4.435   3.568
 5126TIP3    H215385   0.677   4.573   3.508
 5127TIP3   OH215386   2.073   4.827   4.854
 5127TIP3    H115387   2.014   4.900   4.835
 5127TIP3    H215388   2.149   4.868   4.894
 5128TIP3   OH215389   4.390   3.356   0.227
 5128TIP3    H115390   4.422   3.275   0.267
 5128TIP3    H215391   4.427   3.355   0.139
 5129TIP3   OH215392   1.429   5.279   0.376
 5129TIP3    H115393   1.345   5.273   0.332
 5129TIP3    H215394   1.458   5.369   0.360
 5130TIP3   OH215395   6.189   3.999   3.357
 5130TIP3    H115396   6.275   4.034   3.333
 5130TIP3    H215397   6.182   3.917   3.309
 5131TIP3   OH215398   2.650   3.701   3.243
 5131TIP3    H115399   2.616   3.788   3.218
 5131TIP3    H215400   2.604   3.641   3.185
 5132TIP3   OH215401   1.364   1.763   5.187
 5132TIP3    H115402   1.353   1.776   5.093
 5132TIP3    H215403   1.277   1.737   5.218
 5133TIP3   OH215404   1.649   1.136   1.956
 5133TIP3    H115405   1.707   1.086   2.014
 5133TIP3    H215406   1.707   1.196   1.910
 5134TIP3   OH215407   5.360   4.059   0.953
 5134TIP3    H115408   5.413   4.003   0.896
 5134TIP3    H215409   5.418   4.083   1.025
 5135TIP3   OH215410   1.333   1.449   1.557
 5135TIP3    H115411   1.273   1.468   1.629
 5135TIP3    H215412   1.387   1.527   1.550
 5136TIP3   OH215413   1.299   1.488   0.243
 5136TIP3    H115414   1.252   1.480   0.160
 5136TIP3    H215415   1.231   1.487   0.310
 5137TIP3   OH215416   5.509   5.576   5.148
 5137TIP3    H115417   5.532   5.512   5.215
 5137TIP3    H215418   5.554   5.656   5.174
 5138TIP3   OH215419   4.780   2.242   1.068
 5138TIP3    H115420   4.783   2.229   0.973
 5138TIP3    H215421   4.728   2.168   1.100
 5139TIP3   OH215422   3.552   1.081   2.390
 5139TIP3    H115423   3.594   1.013   2.338
 5139TIP3    H215424   3.509   1.034   2.461
 5140TIP3   OH215425   1.515   1.485   0.739
 5140TIP3    H115426   1.557   1.404   0.711
 5140TIP3    H215427   1.583   1.552   0.728
 5141TIP3   OH215428   3.257   3.645   1.014
 5141TIP3    H115429   3.269   3.633   1.108
 5141TIP3    H215430   3.214   3.730   1.006
 5142TIP3   OH215431   3.615   2.025   2.194
 5142TIP3    H115432   3.589   2.101   2.246
 5142TIP3    H215433   3.694   1.992   2.236
 5143TIP3   OH215434   1.085   2.937   0.711
 5143TIP3    H115435   1.125   2.997   0.648
 5143TIP3    H215436   0.993   2.963   0.713
 5144TIP3   OH215437   5.993   1.609   0.533
 5144TIP3    H115438   6.067   1.553   0.512
 5144TIP3    H215439   5.925   1.585   0.469
 5145TIP3   OH215440   3.420   2.046   1.791
 5145TIP3    H115441   3.483   2.014   1.856
 5145TIP3    H215442   3.429   2.141   1.795
 5146TIP3   OH215443   4.446   0.035   4.017
 5146TIP3    H115444   4.364   0.079   3.994
 5146TIP3    H215445   4.491   0.098   4.074
 5147TIP3   OH215446   0.932   4.483   2.256
 5147TIP3    H115447   0.854   4.431   2.275
 5147TIP3    H215448   0.899   4.562   2.214
 5148TIP3   OH215449   2.443   4.252   4.102
 5148TIP3    H115450   2.525   4.279   4.061
 5148TIP3    H215451   2.376   4.305   4.059
 5149TIP3   OH215452   2.552   4.055   0.004
 5149TIP3    H115453   2.585   3.979  -0.045
 5149TIP3    H215454   2.508   4.017   0.080
 5150TIP3   OH215455   1.865   2.891   1.036
 5150TIP3    H115456   1.853   2.947   1.113
 5150TIP3    H215457   1.812   2.932   0.968
 5151TIP3   OH215458   5.399   4.010   1.891
 5151TIP3    H115459   5.411   3.979   1.981
 5151TIP3    H215460   5.445   3.946   1.837
 5152TIP3   OH215461   2.026   3.817   3.215
 5152TIP3    H115462   1.951   3.812   3.275
 5152TIP3    H215463   2.092   3.867   3.263
 5153TIP3   OH215464   5.208   1.032   3.247
 5153TIP3    H115465   5.226   1.090   3.173
 5153TIP3    H215466   5.294   1.017   3.287
 5154TIP3   OH215467   2.812   2.399   1.771
 5154TIP3    H115468   2.793   2.337   1.701
 5154TIP3    H215469   2.884   2.359   1.820
 5155TIP3   OH215470   3.320   4.706   3.732
 5155TIP3    H115471   3.351   4.781   3.683
 5155TIP3    H215472   3.274   4.652   3.668
 5156TIP3   OH215473   1.614   2.750   1.255
 5156TIP3    H115474   1.632   2.669   1.301
 5156TIP3    H215475   1.678   2.813   1.289
 5157TIP3   OH215476   4.344   1.132   0.942
 5157TIP3    H115477   4.273   1.103   0.999
 5157TIP3    H215478   4.363   1.222   0.970
 5158TIP3   OH215479   0.914   1.096   0.923
 5158TIP3    H115480   0.890   1.010   0.956
 5158TIP3    H215481   1.010   1.098   0.930
 5159TIP3   OH215482   0.327   4.564   3.570
 5159TIP3    H115483   0.307   4.471   3.581
 5159TIP3    H215484   0.417   4.566   3.537
 5160TIP3   OH215485   5.904   4.975   4.769
 5160TIP3    H115486   5.873   5.036   4.702
 5160TIP3    H215487   5.956   5.029   4.829
 5161TIP3   OH215488   0.494   2.326   2.214
 5161TIP3    H115489   0.411   2.342   2.168
 5161TIP3    H215490   0.504   2.401   2.273
 5162TIP3   OH215491   1.894   2.132   2.933
 5162TIP3    H115492   1.913   2.067   3.001
 5162TIP3    H215493   1.977   2.175   2.917
 5163TIP3   OH215494   0.452   5.192   3.630
 5163TIP3    H115495   0.530   5.187   3.685
 5163TIP3    H215496   0.441   5.285   3.612
 5164TIP3   OH215497   3.211   2.762   3.846
 5164TIP3    H115498   3.295   2.718   3.863
 5164TIP3    H215499   3.172   2.711   3.775
 5165TIP3   OH215500   3.691   2.031   0.171
 5165TIP3    H115501   3.780   1.997   0.178
 5165TIP3    H215502   3.674   2.032   0.076
 5166TIP3   OH215503   0.150   2.618   1.501
 5166TIP3    H115504   0.102   2.552   1.551
 5166TIP3    H215505   0.242   2.602   1.522
 5167TIP3   OH215506   3.390   3.804   3.169
 5167TIP3    H115507   3.342   3.858   3.230
 5167TIP3    H215508   3.467   3.856   3.146
 5168TIP3   OH215509   4.252   0.231   2.174
 5168TIP3    H115510   4.254   0.303   2.111
 5168TIP3    H215511   4.291   0.269   2.254
 5169TIP3   OH215512   4.231   4.285   3.151
 5169TIP3    H115513   4.152   4.297   3.098
 5169TIP3    H215514   4.293   4.243   3.092
 5170TIP3   OH215515   5.152   0.425   1.422
 5170TIP3    H115516   5.151   0.376   1.504
 5170TIP3    H215517   5.213   0.497   1.438
 5171TIP3   OH215518   2.759   0.502   1.577
 5171TIP3    H115519   2.728   0.498   1.487
 5171TIP3    H215520   2.843   0.456   1.576
 5172TIP3   OH215521   6.253   5.922   4.025
 5172TIP3    H115522   6.169   5.913   3.979
 5172TIP3    H215523   6.319   5.917   3.955
 5173TIP3   OH215524   1.856   3.212   1.745
 5173TIP3    H115525   1.864   3.155   1.822
 5173TIP3    H215526   1.793   3.279   1.771
 5174TIP3   OH215527   0.009   4.477   0.788
 5174TIP3    H115528  -0.053   4.541   0.822
 5174TIP3    H215529   0.091   4.525   0.780
 5175TIP3   OH215530   2.442   5.814   1.669
 5175TIP3    H115531   2.383   5.768   1.729
 5175TIP3    H215532   2.528   5.808   1.711
 5176TIP3   OH215533   2.426   5.152   1.551
 5176TIP3    H115534   2.521   5.159   1.550
 5176TIP3    H215535   2.395   5.239   1.576
 5177TIP3   OH215536   5.344   0.058   0.776
 5177TIP3    H115537   5.275   0.108   0.820
 5177TIP3    H215538   5.296   0.001   0.715
 5178TIP3   OH215539   0.761   2.813   3.792
 5178TIP3    H115540   0.747   2.722   3.819
 5178TIP3    H215541   0.855   2.821   3.780
 5179TIP3   OH215542   4.098   5.885   0.048
 5179TIP3    H115543   4.133   5.827  -0.020
 5179TIP3    H215544   4.092   5.829   0.126
 5180TIP3   OH215545   6.339   0.217   3.089
 5180TIP3    H115546   6.312   0.287   3.149
 5180TIP3    H215547   6.392   0.262   3.023
 5181TIP3   OH215548   0.661   4.283   4.488
 5181TIP3    H115549   0.625   4.284   4.577
 5181TIP3    H215550   0.666   4.190   4.466
 5182TIP3   OH215551   1.735   2.009   0.977
 5182TIP3    H115552   1.655   1.959   0.961
 5182TIP3    H215553   1.726   2.039   1.068
 5183TIP3   OH215554   6.083   2.735   5.062
 5183TIP3    H115555   6.154   2.684   5.099
 5183TIP3    H215556   6.126   2.810   5.020
 5184TIP3   OH215557   4.719   1.488   0.702
 5184TIP3    H115558   4.809   1.467   0.677
 5184TIP3    H215559   4.665   1.434   0.645
 5185TIP3   OH215560   0.854   4.782   2.235
 5185TIP3    H115561   0.941   4.822   2.228
 5185TIP3    H215562   0.834   4.784   2.329
 5186TIP3   OH215563   4.779   2.143   0.179
 5186TIP3    H115564   4.764   2.050   0.167
 5186TIP3    H215565   4.699   2.175   0.222
 5187TIP3   OH215566   5.921   3.150   4.315
 5187TIP3    H115567   5.877   3.154   4.230
 5187TIP3    H215568   5.850   3.142   4.379
 5188TIP3   OH215569   4.294   1.669   3.954
 5188TIP3    H115570   4.284   1.758   3.918
 5188TIP3    H215571   4.289   1.612   3.877
 5189TIP3   OH215572   3.777   4.150   2.846
 5189TIP3    H115573   3.689   4.156   2.808
 5189TIP3    H215574   3.792   4.056   2.858
 5190TIP3   OH215575   1.678   1.034   0.161
 5190TIP3    H115576   1.681   1.096   0.234
 5190TIP3    H215577   1.685   1.090   0.083
 5191TIP3   OH215578   5.704   2.782   0.967
 5191TIP3    H115579   5.619   2.738   0.968
 5191TIP3    H215580   5.682   2.876   0.963
 5192TIP3   OH215581   0.338   5.205   1.866
 5192TIP3    H115582   0.373   5.268   1.802
 5192TIP3    H215583   0.335   5.123   1.818
 5193TIP3   OH215584   1.712   0.901   3.450
 5193TIP3    H115585   1.684   0.895   3.541
 5193TIP3    H215586   1.774   0.828   3.440
 5194TIP3   OH215587   2.706   5.392   3.875
 5194TIP3    H115588   2.734   5.344   3.953
 5194TIP3    H215589   2.727   5.484   3.895
 5195TIP3   OH215590   3.005   3.218   4.362
 5195TIP3    H115591   3.082   3.183   4.407
 5195TIP3    H215592   2.930   3.175   4.405
 5196TIP3   OH215593   5.168   1.489   3.480
 5196TIP3    H115594   5.079   1.513   3.505
 5196TIP3    H215595   5.161   1.461   3.389
 5197TIP3   OH215596   0.293   0.897   0.201
 5197TIP3    H115597   0.203   0.875   0.176
 5197TIP3    H215598   0.347   0.851   0.136
 5198TIP3   OH215599   1.185   4.313   2.921
 5198TIP3    H115600   1.237   4.375   2.869
 5198TIP3    H215601   1.112   4.290   2.864
 5199TIP3   OH215602   3.019   4.989   2.548
 5199TIP3    H115603   2.982   4.912   2.592
 5199TIP3    H215604   2.952   5.057   2.559
 5200TIP3   OH215605   5.934   3.152   3.081
 5200TIP3    H115606   5.972   3.182   3.164
 5200TIP3    H215607   5.968   3.213   3.016
 5201TIP3   OH215608   4.291   1.351   3.052
 5201TIP3    H115609   4.375   1.306   3.064
 5201TIP3    H215610   4.277   1.350   2.957
 5202TIP3   OH215611   4.191   1.170   1.847
 5202TIP3    H115612   4.242   1.094   1.822
 5202TIP3    H215613   4.255   1.233   1.880
 5203TIP3   OH215614   3.871   5.108   4.628
 5203TIP3    H115615   3.955   5.077   4.664
 5203TIP3    H215616   3.866   5.067   4.542
 5204TIP3   OH215617   3.202   4.875   0.702
 5204TIP3    H115618   3.282   4.901   0.657
 5204TIP3    H215619   3.141   4.851   0.632
 5205TIP3   OH215620   3.362   3.488   1.521
 5205TIP3    H115621   3.417   3.417   1.488
 5205TIP3    H215622   3.273   3.453   1.516
 5206TIP3   OH215623   0.497   5.512   3.710
 5206TIP3    H115624   0.508   5.565   3.631
 5206TIP3    H215625   0.573   5.533   3.764
 5207TIP3   OH215626   5.101   5.013   1.929
 5207TIP3    H115627   5.107   5.006   2.024
 5207TIP3    H215628   5.190   5.037   1.902
 5208TIP3   OH215629   5.413   5.734   1.717
 5208TIP3    H115630   5.452   5.766   1.799
 5208TIP3    H215631   5.466   5.774   1.648
 5209TIP3   OH215632   5.760   0.859   1.444
 5209TIP3    H115633   5.713   0.777   1.430
 5209TIP3    H215634   5.700   0.927   1.414
 5210TIP3   OH215635   4.749   4.419   3.896
 5210TIP3    H115636   4.671   4.364   3.895
 5210TIP3    H215637   4.805   4.381   3.964
 5211TIP3   OH215638   1.597   3.373   1.436
 5211TIP3    H115639   1.689   3.399   1.428
 5211TIP3    H215640   1.560   3.434   1.500
 5212TIP3   OH215641   1.982   3.772   4.091
 5212TIP3    H115642   2.037   3.838   4.047
 5212TIP3    H215643   1.893   3.801   4.074
 5213TIP3   OH215644   2.407   1.215   1.461
 5213TIP3    H115645   2.347   1.258   1.400
 5213TIP3    H215646   2.427   1.282   1.526
 5214TIP3   OH215647   3.632   5.828   3.973
 5214TIP3    H115648   3.622   5.920   4.000
 5214TIP3    H215649   3.704   5.830   3.910
 5215TIP3   OH215650   1.869   1.455   4.504
 5215TIP3    H115651   1.883   1.369   4.463
 5215TIP3    H215652   1.861   1.516   4.431
 5216TIP3   OH215653   1.665   0.847   3.734
 5216TIP3    H115654   1.744   0.794   3.727
 5216TIP3    H215655   1.694   0.929   3.774
 5217TIP3   OH215656   5.336   5.145   1.040
 5217TIP3    H115657   5.334   5.136   1.136
 5217TIP3    H215658   5.279   5.220   1.022
 5218TIP3   OH215659   3.235   1.579   3.283
 5218TIP3    H115660   3.306   1.643   3.276
 5218TIP3    H215661   3.217   1.573   3.377
 5219TIP3   OH215662   4.819   0.629   3.070
 5219TIP3    H115663   4.880   0.701   3.058
 5219TIP3    H215664   4.755   0.661   3.133
 5220TIP3   OH215665   6.259   4.813   0.483
 5220TIP3    H115666   6.252   4.736   0.428
 5220TIP3    H215667   6.345   4.850   0.462
 5221TIP3   OH215668   4.241   1.604   0.782
 5221TIP3    H115669   4.331   1.570   0.784
 5221TIP3    H215670   4.249   1.692   0.745
 5222TIP3   OH215671   1.618   5.862   2.482
 5222TIP3    H115672   1.699   5.914   2.480
 5222TIP3    H215673   1.609   5.828   2.393
 5223TIP3   OH215674   3.382   3.466   3.743
 5223TIP3    H115675   3.372   3.418   3.661
 5223TIP3    H215676   3.468   3.509   3.736
 5224TIP3   OH215677   5.021   4.965   4.723
 5224TIP3    H115678   5.079   4.890   4.711
 5224TIP3    H215679   4.987   4.956   4.811
 5225TIP3   OH215680   0.127   4.961   3.630
 5225TIP3    H115681   0.218   4.948   3.657
 5225TIP3    H215682   0.089   5.015   3.700
 5226TIP3   OH215683   3.806   1.210   2.576
 5226TIP3    H115684   3.745   1.188   2.505
 5226TIP3    H215685   3.868   1.270   2.535
 5227TIP3   OH215686   4.399   4.144   0.427
 5227TIP3    H115687   4.429   4.090   0.501
 5227TIP3    H215688   4.479   4.170   0.382
 5228TIP3   OH215689   3.049   2.697   3.594
 5228TIP3    H115690   3.042   2.792   3.582
 5228TIP3    H215691   3.082   2.665   3.510
 5229TIP3   OH215692   6.148   4.586   1.975
 5229TIP3    H115693   6.063   4.567   1.936
 5229TIP3    H215694   6.133   4.581   2.069
 5230TIP3   OH215695   5.311   3.751   5.142
 5230TIP3    H115696   5.277   3.840   5.151
 5230TIP3    H215697   5.320   3.720   5.232
 5231TIP3   OH215698   0.348   3.168   1.222
 5231TIP3    H115699   0.336   3.263   1.230
 5231TIP3    H215700   0.429   3.159   1.171
 5232TIP3   OH215701   2.231   3.112   2.308
 5232TIP3    H115702   2.159   3.060   2.272
 5232TIP3    H215703   2.302   3.103   2.245
 5233TIP3   OH215704   0.066   4.463   2.952
 5233TIP3    H115705   0.001   4.393   2.945
 5233TIP3    H215706   0.141   4.421   2.994
 5234TIP3   OH215707   5.095   3.761   3.322
 5234TIP3    H115708   5.126   3.766   3.231
 5234TIP3    H215709   5.023   3.699   3.319
 5235TIP3   OH215710   3.408   3.131   4.831
 5235TIP3    H115711   3.355   3.092   4.901
 5235TIP3    H215712   3.353   3.203   4.799
 5236TIP3   OH215713   2.334   3.146   1.077
 5236TIP3    H115714   2.304   3.160   1.167
 5236TIP3    H215715   2.341   3.234   1.041
 5237TIP3   OH215716   1.296   4.694   0.207
 5237TIP3    H115717   1.293   4.773   0.260
 5237TIP3    H215718   1.341   4.630   0.262
 5238TIP3   OH215719   3.548   0.172   0.514
 5238TIP3    H115720   3.639   0.150   0.531
 5238TIP3    H215721   3.518   0.105   0.452
 5239TIP3   OH215722   4.635   1.209   1.305
 5239TIP3    H115723   4.600   1.142   1.246
 5239TIP3    H215724   4.640   1.288   1.251
 5240TIP3   OH215725   4.294   2.038   1.641
 5240TIP3    H115726   4.285   1.968   1.705
 5240TIP3    H215727   4.205   2.055   1.610
 5241TIP3   OH215728   5.565   2.622   2.129
 5241TIP3    H115729   5.545   2.702   2.080
 5241TIP3    H215730   5.480   2.590   2.159
 5242TIP3   OH215731   5.390   5.408   0.207
 5242TIP3    H115732   5.346   5.473   0.153
 5242TIP3    H215733   5.453   5.366   0.148
 5243TIP3   OH215734   2.571   4.397   4.919
 5243TIP3    H115735   2.589   4.475   4.971
 5243TIP3    H215736   2.615   4.326   4.966
 5244TIP3   OH215737   0.183   1.507   4.795
 5244TIP3    H115738   0.273   1.519   4.766
 5244TIP3    H215739   0.183   1.424   4.842
 5245TIP3   OH215740   0.451   1.526   0.171
 5245TIP3    H115741   0.456   1.483   0.257
 5245TIP3    H215742   0.400   1.605   0.187
 5246TIP3   OH215743   0.219   2.084   4.011
 5246TIP3    H115744   0.127   2.058   4.014
 5246TIP3    H215745   0.248   2.084   4.102
 5247TIP3   OH215746   6.302   1.797   5.089
 5247TIP3    H115747   6.320   1.742   5.165
 5247TIP3    H215748   6.268   1.737   5.023
 5248TIP3   OH215749   0.124   0.780   4.651
 5248TIP3    H115750   0.126   0.875   4.637
 5248TIP3    H215751   0.082   0.745   4.572
 5249TIP3   OH215752   1.004   4.731   1.829
 5249TIP3    H115753   1.055   4.681   1.765
 5249TIP3    H215754   1.019   4.687   1.912
 5250TIP3   OH215755   3.490   3.253   1.451
 5250TIP3    H115756   3.529   3.257   1.364
 5250TIP3    H215757   3.541   3.187   1.498
 5251TIP3   OH215758   5.075   5.052   0.603
 5251TIP3    H115759   5.074   5.145   0.625
 5251TIP3    H215760   4.991   5.019   0.635
 5252TIP3   OH215761   1.228   0.621   2.225
 5252TIP3    H115762   1.285   0.696   2.210
 5252TIP3    H215763   1.287   0.545   2.225
 5253TIP3   OH215764   4.159   3.957   3.246
 5253TIP3    H115765   4.163   3.995   3.158
 5253TIP3    H215766   4.066   3.955   3.267
 5254TIP3   OH215767   4.446   5.584   0.485
 5254TIP3    H115768   4.405   5.661   0.446
 5254TIP3    H215769   4.536   5.612   0.504
 5255TIP3   OH215770   1.241   1.993   4.778
 5255TIP3    H115771   1.154   1.959   4.758
 5255TIP3    H215772   1.254   2.063   4.714
 5256TIP3   OH215773   1.364   3.148   2.740
 5256TIP3    H115774   1.348   3.214   2.807
 5256TIP3    H215775   1.415   3.080   2.785
 5257TIP3   OH215776   1.593   3.952   1.349
 5257TIP3    H115777   1.621   3.961   1.440
 5257TIP3    H215778   1.672   3.922   1.303
 5258TIP3   OH215779   2.893   4.391   2.446
 5258TIP3    H115780   2.900   4.347   2.361
 5258TIP3    H215781   2.803   4.425   2.447
 5259TIP3   OH215782   1.583   3.346   3.309
 5259TIP3    H115783   1.498   3.375   3.341
 5259TIP3    H215784   1.632   3.322   3.388
 5260TIP3   OH215785   1.628   0.130   0.445
 5260TIP3    H115786   1.672   0.099   0.366
 5260TIP3    H215787   1.559   0.066   0.462
 5261TIP3   OH215788   1.912   5.083   0.186
 5261TIP3    H115789   1.881   5.000   0.224
 5261TIP3    H215790   1.887   5.149   0.250
 5262TIP3   OH215791   3.737   4.845   4.840
 5262TIP3    H115792   3.830   4.852   4.863
 5262TIP3    H215793   3.692   4.840   4.924
 5263TIP3   OH215794   0.230   3.097   0.859
 5263TIP3    H115795   0.310   3.067   0.902
 5263TIP3    H215796   0.160   3.076   0.921
 5264TIP3   OH215797   0.630   1.486   1.909
 5264TIP3    H115798   0.643   1.563   1.854
 5264TIP3    H215799   0.718   1.447   1.915
 5265TIP3   OH215800   2.367   4.241  -0.029
 5265TIP3    H115801   2.360   4.300   0.046
 5265TIP3    H215802   2.434   4.178  -0.003
 5266TIP3   OH215803   1.572   3.651   0.890
 5266TIP3    H115804   1.521   3.582   0.933
 5266TIP3    H215805   1.662   3.636   0.920
 5267TIP3   OH215806   1.790   3.085   0.203
 5267TIP3    H115807   1.716   3.144   0.187
 5267TIP3    H215808   1.752   3.014   0.256
 5268TIP3   OH215809   3.963   4.013   1.098
 5268TIP3    H115810   4.037   4.071   1.079
 5268TIP3    H215811   3.938   4.035   1.188
 5269TIP3   OH215812   2.150   0.684   3.652
 5269TIP3    H115813   2.150   0.772   3.614
 5269TIP3    H215814   2.241   0.671   3.681
 5270TIP3   OH215815   0.166   0.806   0.674
 5270TIP3    H115816   0.131   0.893   0.655
 5270TIP3    H215817   0.109   0.746   0.625
 5271TIP3   OH215818   2.238   0.247   3.042
 5271TIP3    H115819   2.272   0.305   2.973
 5271TIP3    H215820   2.182   0.186   2.995
 5272TIP3   OH215821   1.087   2.692   0.300
 5272TIP3    H115822   1.014   2.733   0.345
 5272TIP3    H215823   1.091   2.736   0.215
 5273TIP3   OH215824   4.928   1.508   4.674
 5273TIP3    H115825   5.011   1.500   4.721
 5273TIP3    H215826   4.877   1.570   4.725
 5274TIP3   OH215827   6.325   0.730   4.401
 5274TIP3    H115828   6.272   0.651   4.389
 5274TIP3    H215829   6.396   0.720   4.338
 5275TIP3   OH215830   3.635   0.278   0.808
 5275TIP3    H115831   3.683   0.213   0.859
 5275TIP3    H215832   3.703   0.329   0.765
 5276TIP3   OH215833   5.598   2.591   0.607
 5276TIP3    H115834   5.565   2.533   0.538
 5276TIP3    H215835   5.667   2.541   0.650
 5277TIP3   OH215836   5.723   3.011   3.012
 5277TIP3    H115837   5.811   3.042   3.030
 5277TIP3    H215838   5.731   2.915   3.011
 5278TIP3   OH215839   0.750   2.560   5.021
 5278TIP3    H115840   0.706   2.496   4.966
 5278TIP3    H215841   0.814   2.602   4.963
 5279TIP3   OH215842   0.212   1.918   1.024
 5279TIP3    H115843   0.266   1.984   0.981
 5279TIP3    H215844   0.271   1.873   1.083
 5280TIP3   OH215845   3.273   0.976   3.723
 5280TIP3    H115846   3.317   0.969   3.639
 5280TIP3    H215847   3.183   1.000   3.702
 5281TIP3   OH215848   4.839   1.716   5.035
 5281TIP3    H115849   4.764   1.660   5.014
 5281TIP3    H215850   4.896   1.710   4.958
 5282TIP3   OH215851   1.368   3.878   0.979
 5282TIP3    H115852   1.458   3.852   0.960
 5282TIP3    H215853   1.314   3.808   0.941
 5283TIP3   OH215854   4.812   4.548   4.676
 5283TIP3    H115855   4.783   4.618   4.617
 5283TIP3    H215856   4.832   4.593   4.758
 5284TIP3   OH215857   2.339   0.042   0.104
 5284TIP3    H115858   2.389  -0.007   0.169
 5284TIP3    H215859   2.295   0.110   0.155
 5285TIP3   OH215860   2.319   1.046   3.039
 5285TIP3    H115861   2.358   0.960   3.023
 5285TIP3    H215862   2.376   1.107   2.993
 5286TIP3   OH215863   3.182   1.166   4.339
 5286TIP3    H115864   3.089   1.169   4.363
 5286TIP3    H215865   3.202   1.254   4.309
 5287TIP3   OH215866   3.918   2.460   1.971
 5287TIP3    H115867   3.909   2.494   2.060
 5287TIP3    H215868   3.985   2.515   1.931
 5288TIP3   OH215869   4.724   5.878   2.477
 5288TIP3    H115870   4.693   5.907   2.391
 5288TIP3    H215871   4.796   5.939   2.498
 5289TIP3   OH215872   5.972   1.255   4.326
 5289TIP3    H115873   6.045   1.282   4.271
 5289TIP3    H215874   5.897   1.252   4.266
 5290TIP3   OH215875   0.908   3.514   4.038
 5290TIP3    H115876   0.818   3.548   4.040
 5290TIP3    H215877   0.923   3.494   3.946
 5291TIP3   OH215878   1.892   0.182   1.777
 5291TIP3    H115879   1.846   0.259   1.743
 5291TIP3    H215880   1.961   0.218   1.832
 5292TIP3   OH215881   3.934   0.020   5.136
 5292TIP3    H115882   3.842   0.007   5.113
 5292TIP3    H215883   3.945   0.115   5.134
 5293TIP3   OH215884   5.104   5.481   2.769
 5293TIP3    H115885   5.079   5.564   2.730
 5293TIP3    H215886   5.197   5.492   2.792
 5294TIP3   OH215887   0.807   0.042   0.074
 5294TIP3    H115888   0.874   0.050   0.006
 5294TIP3    H215889   0.758   0.124   0.069
 5295TIP3   OH215890   1.189   4.062   1.482
 5295TIP3    H115891   1.119   4.118   1.447
 5295TIP3    H215892   1.209   4.099   1.568
 5296TIP3   OH215893   3.970   5.756   4.091
 5296TIP3    H115894   4.054   5.729   4.052
 5296TIP3    H215895   3.994   5.793   4.176
 5297TIP3   OH215896   5.518   2.021   4.869
 5297TIP3    H115897   5.435   2.002   4.825
 5297TIP3    H215898   5.558   2.089   4.815
 5298TIP3   OH215899   1.472   1.481   4.376
 5298TIP3    H115900   1.518   1.397   4.371
 5298TIP3    H215901   1.501   1.520   4.458
 5299TIP3   OH215902   2.754   2.652   2.127
 5299TIP3    H115903   2.668   2.685   2.152
 5299TIP3    H215904   2.751   2.559   2.147
 5300TIP3   OH215905   5.817   3.480   4.401
 5300TIP3    H115906   5.882   3.428   4.449
 5300TIP3    H215907   5.839   3.571   4.422
 5301TIP3   OH215908   0.589   0.413   4.175
 5301TIP3    H115909   0.606   0.369   4.258
 5301TIP3    H215910   0.593   0.344   4.109
 5302TIP3   OH215911   0.849   1.161   3.894
 5302TIP3    H115912   0.907   1.223   3.938
 5302TIP3    H215913   0.789   1.130   3.963
 5303TIP3   OH215914   2.417   1.410   4.870
 5303TIP3    H115915   2.482   1.442   4.807
 5303TIP3    H215916   2.383   1.490   4.912
 5304TIP3   OH215917   5.624   4.967   1.823
 5304TIP3    H115918   5.681   4.913   1.878
 5304TIP3    H215919   5.676   4.987   1.746
 5305TIP3   OH215920   6.194   3.138   2.356
 5305TIP3    H115921   6.131   3.096   2.298
 5305TIP3    H215922   6.143   3.162   2.434
 5306TIP3   OH215923   0.416   3.600   4.590
 5306TIP3    H115924   0.379   3.673   4.640
 5306TIP3    H215925   0.372   3.523   4.625
 5307TIP3   OH215926   2.658   5.426   2.426
 5307TIP3    H115927   2.565   5.445   2.415
 5307TIP3    H215928   2.683   5.378   2.347
 5308TIP3   OH215929   0.316   2.573   4.298
 5308TIP3    H115930   0.316   2.501   4.361
 5308TIP3    H215931   0.252   2.547   4.232
 5309TIP3   OH215932   0.548   5.987   2.359
 5309TIP3    H115933   0.633   6.028   2.373
 5309TIP3    H215934   0.524   5.951   2.444
 5310TIP3   OH215935   4.272   4.304   1.127
 5310TIP3    H115936   4.209   4.267   1.189
 5310TIP3    H215937   4.308   4.380   1.173
 5311TIP3   OH215938   4.026   5.899   4.320
 5311TIP3    H115939   3.990   5.978   4.278
 5311TIP3    H215940   4.031   5.922   4.413
 5312TIP3   OH215941   5.371   5.736   0.876
 5312TIP3    H115942   5.304   5.772   0.818
 5312TIP3    H215943   5.442   5.710   0.818
 5313TIP3   OH215944   4.598   5.709   3.320
 5313TIP3    H115945   4.645   5.785   3.354
 5313TIP3    H215946   4.565   5.737   3.235
 5314TIP3   OH215947   5.355   4.100   3.449
 5314TIP3    H115948   5.373   4.007   3.438
 5314TIP3    H215949   5.327   4.109   3.540
 5315TIP3   OH215950   6.004   4.292   4.073
 5315TIP3    H115951   6.048   4.226   4.126
 5315TIP3    H215952   5.944   4.242   4.018
 5316TIP3   OH215953   1.383   5.371   3.009
 5316TIP3    H115954   1.345   5.283   3.010
 5316TIP3    H215955   1.342   5.414   2.934
 5317TIP3   OH215956   5.596   1.661   4.703
 5317TIP3    H115957   5.623   1.666   4.795
 5317TIP3    H215958   5.548   1.743   4.688
 5318TIP3   OH215959   5.808   2.397   1.154
 5318TIP3    H115960   5.811   2.419   1.247
 5318TIP3    H215961   5.742   2.456   1.118
 5319TIP3   OH215962   1.908   4.251   0.563
 5319TIP3    H115963   1.878   4.200   0.638
 5319TIP3    H215964   1.905   4.342   0.593
 5320TIP3   OH215965   0.512   2.661   3.462
 5320TIP3    H115966   0.417   2.654   3.447
 5320TIP3    H215967   0.551   2.647   3.376
 5321TIP3   OH215968   1.972   3.493   1.855
 5321TIP3    H115969   1.989   3.556   1.925
 5321TIP3    H215970   1.920   3.425   1.897
 5322TIP3   OH215971   2.413   1.496   2.384
 5322TIP3    H115972   2.489   1.500   2.327
 5322TIP3    H215973   2.405   1.584   2.420
 5323TIP3   OH215974   2.521   2.349   4.705
 5323TIP3    H115975   2.604   2.359   4.753
 5323TIP3    H215976   2.458   2.326   4.773
 5324TIP3   OH215977   4.574   0.716   1.074
 5324TIP3    H115978   4.583   0.683   0.985
 5324TIP3    H215979   4.595   0.809   1.068
 5325TIP3   OH215980   3.050   1.074   3.541
 5325TIP3    H115981   3.102   1.081   3.461
 5325TIP3    H215982   2.960   1.060   3.510
 5326TIP3   OH215983   3.808   0.047   0.546
 5326TIP3    H115984   3.897   0.024   0.573
 5326TIP3    H215985   3.813   0.053   0.451
 5327TIP3   OH215986   0.713   2.842   2.211
 5327TIP3    H115987   0.668   2.768   2.170
 5327TIP3    H215988   0.801   2.841   2.174
 5328TIP3   OH215989   1.875   1.209   4.867
 5328TIP3    H115990   1.940   1.156   4.913
 5328TIP3    H215991   1.920   1.291   4.847
 5329TIP3   OH215992   2.877   5.603   3.433
 5329TIP3    H115993   2.814   5.671   3.410
 5329TIP3    H215994   2.829   5.521   3.420
 5330TIP3   OH215995   0.093   4.718   1.194
 5330TIP3    H115996   0.054   4.734   1.108
 5330TIP3    H215997   0.018   4.716   1.253
 5331TIP3   OH215998   2.830   4.617   4.519
 5331TIP3    H115999   2.858   4.536   4.560
 5331TIP3    H216000   2.767   4.654   4.581
 5332TIP3   OH216001   1.479   0.638   1.235
 5332TIP3    H116002   1.571   0.621   1.258
 5332TIP3    H216003   1.429   0.578   1.291
 5333TIP3   OH216004   4.176   3.025   0.246
 5333TIP3    H116005   4.259   3.024   0.294
 5333TIP3    H216006   4.172   3.113   0.209
 5334TIP3   OH216007   1.651   1.103   3.270
 5334TIP3    H116008   1.684   1.040   3.333
 5334TIP3    H216009   1.605   1.050   3.205
 5335TIP3   OH216010   3.541   3.717   3.422
 5335TIP3    H116011   3.610   3.744   3.482
 5335TIP3    H216012   3.553   3.770   3.344
 5336TIP3   OH216013   0.080   2.911   1.784
 5336TIP3    H116014   0.032   2.990   1.808
 5336TIP3    H216015   0.126   2.885   1.863
 5337TIP3   OH216016   3.967   4.218   0.655
 5337TIP3    H116017   3.890   4.161   0.658
 5337TIP3    H216018   3.938   4.294   0.605
 5338TIP3   OH216019   0.616   4.645   1.425
 5338TIP3    H116020   0.678   4.659   1.497
 5338TIP3    H216021   0.595   4.552   1.429
 5339TIP3   OH216022   6.181   2.000   3.113
 5339TIP3    H116023   6.260   2.030   3.068
 5339TIP3    H216024   6.180   1.906   3.100
 5340TIP3   OH216025   3.322   2.973   1.386
 5340TIP3    H116026   3.261   2.991   1.458
 5340TIP3    H216027   3.409   2.985   1.426
 5341TIP3   OH216028   2.154   3.405   3.702
 5341TIP3    H116029   2.250   3.403   3.699
 5341TIP3    H216030   2.133   3.468   3.771
 5342TIP3   OH216031   1.307   5.963   0.331
 5342TIP3    H116032   1.249   5.887   0.331
 5342TIP3    H216033   1.281   6.014   0.254
 5343TIP3   OH216034   3.603   3.981   0.071
 5343TIP3    H116035   3.595   4.016   0.160
 5343TIP3    H216036   3.645   4.052   0.022
 5344TIP3   OH216037   4.889   1.928   2.467
 5344TIP3    H116038   4.899   1.963   2.556
 5344TIP3    H216039   4.828   1.989   2.425
 5345TIP3   OH216040   1.436   3.871   3.106
 5345TIP3    H116041   1.384   3.801   3.146
 5345TIP3    H216042   1.403   3.952   3.144
 5346TIP3   OH216043   3.551   0.782   0.981
 5346TIP3    H116044   3.561   0.699   0.935
 5346TIP3    H216045   3.553   0.848   0.911
 5347TIP3   OH216046   6.326   0.063   0.366
 5347TIP3    H116047   6.408   0.111   0.356
 5347TIP3    H216048   6.290   0.058   0.278
 5348TIP3   OH216049   1.808   3.185   3.431
 5348TIP3    H116050   1.854   3.235   3.498
 5348TIP3    H216051   1.832   3.094   3.447
 5349TIP3   OH216052   6.063   1.938   1.693
 5349TIP3    H116053   6.015   1.915   1.773
 5349TIP3    H216054   6.022   2.019   1.663
 5350TIP3   OH216055   5.426   3.828   4.737
 5350TIP3    H116056   5.514   3.857   4.712
 5350TIP3    H216057   5.373   3.908   4.736
 5351TIP3   OH216058   4.109   0.453   1.987
 5351TIP3    H116059   4.041   0.457   1.920
 5351TIP3    H216060   4.063   0.469   2.069
 5352TIP3   OH216061   5.064   1.717   4.857
 5352TIP3    H116062   5.118   1.639   4.846
 5352TIP3    H216063   5.089   1.774   4.785
 5353TIP3   OH216064   5.528   4.196   4.616
 5353TIP3    H116065   5.572   4.246   4.685
 5353TIP3    H216066   5.445   4.169   4.655
 5354TIP3   OH216067   1.126   1.528   5.085
 5354TIP3    H116068   1.200   1.489   5.038
 5354TIP3    H216069   1.124   1.482   5.168
 5355TIP3   OH216070   0.842   1.621   0.999
 5355TIP3    H116071   0.929   1.641   0.965
 5355TIP3    H216072   0.783   1.677   0.949
 5356TIP3   OH216073   1.962   2.282   1.760
 5356TIP3    H116074   1.953   2.197   1.804
 5356TIP3    H216075   2.052   2.282   1.728
 5357TIP3   OH216076   6.143   1.156   0.557
 5357TIP3    H116077   6.220   1.122   0.603
 5357TIP3    H216078   6.159   1.250   0.549
 5358TIP3   OH216079   0.774   3.227   1.843
 5358TIP3    H116080   0.864   3.194   1.843
 5358TIP3    H216081   0.763   3.270   1.758
 5359TIP3   OH216082   5.217   1.401   2.945
 5359TIP3    H116083   5.179   1.314   2.958
 5359TIP3    H216084   5.294   1.402   3.003
 5360TIP3   OH216085   3.953   0.440   1.758
 5360TIP3    H116086   4.005   0.406   1.685
 5360TIP3    H216087   3.909   0.518   1.722
 5361TIP3   OH216088   2.250   3.356   3.335
 5361TIP3    H116089   2.158   3.333   3.347
 5361TIP3    H216090   2.292   3.274   3.310
 5362TIP3   OH216091   5.797   4.369   1.647
 5362TIP3    H116092   5.709   4.386   1.614
 5362TIP3    H216093   5.855   4.404   1.580
 5363TIP3   OH216094   0.034   3.944   0.194
 5363TIP3    H116095   0.018   4.032   0.227
 5363TIP3    H216096  -0.009   3.942   0.109
 5364TIP3   OH216097   2.090   2.881   2.247
 5364TIP3    H116098   2.036   2.830   2.187
 5364TIP3    H216099   2.097   2.826   2.325
 5365TIP3   OH216100   0.685   3.104   2.120
 5365TIP3    H116101   0.760   3.158   2.146
 5365TIP3    H216102   0.691   3.027   2.176
 5366TIP3   OH216103   2.765   5.078   4.654
 5366TIP3    H116104   2.718   5.102   4.734
 5366TIP3    H216105   2.696   5.053   4.593
 5367TIP3   OH216106   5.003   3.290   3.982
 5367TIP3    H116107   5.061   3.223   3.944
 5367TIP3    H216108   4.944   3.240   4.039
 5368TIP3   OH216109   4.217   2.516   2.952
 5368TIP3    H116110   4.144   2.512   2.889
 5368TIP3    H216111   4.204   2.440   3.008
 5369TIP3   OH216112   4.009   2.137   0.083
 5369TIP3    H116113   3.946   2.203   0.112
 5369TIP3    H216114   4.090   2.161   0.127
 5370TIP3   OH216115   2.296   5.000   2.914
 5370TIP3    H116116   2.380   4.973   2.951
 5370TIP3    H216117   2.317   5.077   2.861
 5371TIP3   OH216118   4.536   2.036   0.729
 5371TIP3    H116119   4.624   2.011   0.758
 5371TIP3    H216120   4.514   2.112   0.782
 5372TIP3   OH216121   1.129   1.631   3.800
 5372TIP3    H116122   1.036   1.641   3.781
 5372TIP3    H216123   1.166   1.719   3.787
 5373TIP3   OH216124   2.401   1.813   1.149
 5373TIP3    H116125   2.330   1.778   1.095
 5373TIP3    H216126   2.421   1.743   1.211
 5374TIP3   OH216127   2.863   0.649   3.002
 5374TIP3    H116128   2.913   0.711   2.950
 5374TIP3    H216129   2.928   0.595   3.046
 5375TIP3   OH216130   4.082   1.462   4.117
 5375TIP3    H116131   4.110   1.457   4.026
 5375TIP3    H216132   4.083   1.371   4.148
 5376TIP3   OH216133   1.498   5.893   2.173
 5376TIP3    H116134   1.477   5.974   2.218
 5376TIP3    H216135   1.426   5.880   2.111
 5377TIP3   OH216136   4.605   3.569   3.731
 5377TIP3    H116137   4.554   3.531   3.660
 5377TIP3    H216138   4.541   3.617   3.784
 5378TIP3   OH216139   4.282   1.495   3.757
 5378TIP3    H116140   4.298   1.494   3.663
 5378TIP3    H216141   4.220   1.424   3.772
 5379TIP3   OH216142   0.396   4.797   1.419
 5379TIP3    H116143   0.485   4.762   1.426
 5379TIP3    H216144   0.348   4.753   1.489
 5380TIP3   OH216145   2.834   0.249   4.491
 5380TIP3    H116146   2.836   0.230   4.397
 5380TIP3    H216147   2.756   0.303   4.503
 5381TIP3   OH216148   3.793   2.885   3.118
 5381TIP3    H116149   3.780   2.954   3.053
 5381TIP3    H216150   3.704   2.864   3.147
 5382TIP3   OH216151   3.165   2.094   4.147
 5382TIP3    H116152   3.086   2.053   4.181
 5382TIP3    H216153   3.227   2.021   4.138
 5383TIP3   OH216154   5.420   1.858   4.578
 5383TIP3    H116155   5.386   1.896   4.497
 5383TIP3    H216156   5.351   1.873   4.642
 5384TIP3   OH216157   6.010   2.436   2.116
 5384TIP3    H116158   5.916   2.428   2.134
 5384TIP3    H216159   6.017   2.446   2.021
 5385TIP3   OH216160   3.541   5.741   3.326
 5385TIP3    H116161   3.628   5.715   3.297
 5385TIP3    H216162   3.494   5.762   3.246
 5386TIP3   OH216163   0.346   0.399   2.247
 5386TIP3    H116164   0.441   0.413   2.243
 5386TIP3    H216165   0.337   0.308   2.274
 5387TIP3   OH216166   2.655   2.189   2.724
 5387TIP3    H116167   2.634   2.161   2.635
 5387TIP3    H216168   2.648   2.285   2.721
 5388TIP3   OH216169   2.990   1.626   2.471
 5388TIP3    H116170   2.955   1.580   2.547
 5388TIP3    H216171   3.010   1.556   2.408
 5389TIP3   OH216172   0.727   1.170   3.435
 5389TIP3    H116173   0.782   1.181   3.513
 5389TIP3    H216174   0.674   1.093   3.455
 5390TIP3   OH216175   2.420   4.327   1.376
 5390TIP3    H116176   2.433   4.290   1.289
 5390TIP3    H216177   2.326   4.343   1.382
 5391TIP3   OH216178   3.826   1.495   4.596
 5391TIP3    H116179   3.802   1.544   4.518
 5391TIP3    H216180   3.780   1.411   4.588
 5392TIP3   OH216181   3.661   3.163   4.363
 5392TIP3    H116182   3.686   3.119   4.282
 5392TIP3    H216183   3.622   3.095   4.418
 5393TIP3   OH216184   2.120   5.432   0.559
 5393TIP3    H116185   2.024   5.442   0.561
 5393TIP3    H216186   2.145   5.460   0.471
 5394TIP3   OH216187   0.747   1.462   2.800
 5394TIP3    H116188   0.797   1.385   2.827
 5394TIP3    H216189   0.805   1.535   2.818
 5395TIP3   OH216190   0.471   5.047   2.127
 5395TIP3    H116191   0.507   5.087   2.206
 5395TIP3    H216192   0.507   5.098   2.055
 5396TIP3   OH216193   2.829   5.840   0.536
 5396TIP3    H116194   2.908   5.857   0.587
 5396TIP3    H216195   2.852   5.766   0.480
 5397TIP3   OH216196   6.105   3.592   1.612
 5397TIP3    H116197   6.161   3.524   1.574
 5397TIP3    H216198   6.165   3.662   1.637
 5398TIP3   OH216199   2.196   4.467   1.406
 5398TIP3    H116200   2.138   4.520   1.460
 5398TIP3    H216201   2.246   4.531   1.355
 5399TIP3   OH216202   1.814   1.373   0.598
 5399TIP3    H116203   1.867   1.319   0.539
 5399TIP3    H216204   1.768   1.310   0.653
 5400TIP3   OH216205   2.803   3.600   1.995
 5400TIP3    H116206   2.782   3.652   2.073
 5400TIP3    H216207   2.725   3.546   1.980
 5401TIP3   OH216208   3.909   0.722   0.207
 5401TIP3    H116209   3.853   0.686   0.138
 5401TIP3    H216210   3.998   0.712   0.174
 5402TIP3   OH216211   0.923   1.888   0.865
 5402TIP3    H116212   0.980   1.811   0.865
 5402TIP3    H216213   0.918   1.913   0.773
 5403TIP3   OH216214   0.371   2.189   2.448
 5403TIP3    H116215   0.290   2.192   2.397
 5403TIP3    H216216   0.440   2.185   2.381
 5404TIP3   OH216217   1.201   1.951   1.242
 5404TIP3    H116218   1.188   1.949   1.337
 5404TIP3    H216219   1.241   1.866   1.222
 5405TIP3   OH216220   2.962   2.952   2.838
 5405TIP3    H116221   3.045   2.976   2.879
 5405TIP3    H216222   2.987   2.916   2.753
 5406TIP3   OH216223   3.282   5.612   0.993
 5406TIP3    H116224   3.310   5.521   0.988
 5406TIP3    H216225   3.210   5.620   0.932
 5407TIP3   OH216226   6.036   4.854   0.636
 5407TIP3    H116227   6.102   4.833   0.570
 5407TIP3    H216228   5.999   4.938   0.608
 5408TIP3   OH216229   3.311   4.556   1.522
 5408TIP3    H116230   3.329   4.462   1.516
 5408TIP3    H216231   3.221   4.561   1.554
 5409TIP3   OH216232   4.201   0.403   2.836
 5409TIP3    H116233   4.155   0.348   2.900
 5409TIP3    H216234   4.156   0.487   2.841
 5410TIP3   OH216235   4.903   5.850   4.157
 5410TIP3    H116236   4.947   5.791   4.097
 5410TIP3    H216237   4.963   5.925   4.165
 5411TIP3   OH216238   3.909   3.777   5.040
 5411TIP3    H116239   3.905   3.842   4.970
 5411TIP3    H216240   3.843   3.712   5.017
 5412TIP3   OH216241   5.022   2.807   2.454
 5412TIP3    H116242   4.964   2.783   2.382
 5412TIP3    H216243   4.963   2.839   2.523
 5413TIP3   OH216244   4.463   5.773   4.085
 5413TIP3    H116245   4.494   5.860   4.109
 5413TIP3    H216246   4.537   5.715   4.103
 5414TIP3   OH216247   1.335   2.735   1.271
 5414TIP3    H116248   1.429   2.751   1.270
 5414TIP3    H216249   1.305   2.774   1.353
 5415TIP3   OH216250   5.205   5.073   4.271
 5415TIP3    H116251   5.221   5.127   4.194
 5415TIP3    H216252   5.233   5.128   4.345
 5416TIP3   OH216253   4.579   1.002   1.115
 5416TIP3    H116254   4.665   0.980   1.079
 5416TIP3    H216255   4.530   1.037   1.040
 5417TIP3   OH216256   3.671   1.783   3.095
 5417TIP3    H116257   3.725   1.713   3.057
 5417TIP3    H216258   3.661   1.846   3.024
 5418TIP3   OH216259   4.048   3.986   5.213
 5418TIP3    H116260   3.975   4.031   5.170
 5418TIP3    H216261   4.047   3.898   5.174
 5419TIP3   OH216262   0.138   4.789   3.920
 5419TIP3    H116263   0.232   4.799   3.933
 5419TIP3    H216264   0.099   4.838   3.993
 5420TIP3   OH216265   3.813   1.081   3.098
 5420TIP3    H116266   3.813   1.076   3.002
 5420TIP3    H216267   3.801   1.174   3.118
 5421TIP3   OH216268   1.704   0.292   4.468
 5421TIP3    H116269   1.679   0.373   4.513
 5421TIP3    H216270   1.762   0.247   4.530
 5422TIP3   OH216271   4.226   1.670   2.788
 5422TIP3    H116272   4.152   1.669   2.727
 5422TIP3    H216273   4.208   1.597   2.847
 5423TIP3   OH216274   0.410   4.113   2.918
 5423TIP3    H116275   0.403   4.025   2.882
 5423TIP3    H216276   0.385   4.103   3.010
 5424TIP3   OH216277   0.587   2.276   3.844
 5424TIP3    H116278   0.548   2.351   3.799
 5424TIP3    H216279   0.577   2.297   3.937
 5425TIP3   OH216280   2.615   1.040   1.939
 5425TIP3    H116281   2.597   1.010   1.850
 5425TIP3    H216282   2.643   0.961   1.985
 5426TIP3   OH216283   4.477   4.824   4.673
 5426TIP3    H116284   4.448   4.739   4.707
 5426TIP3    H216285   4.424   4.888   4.720
 5427TIP3   OH216286   1.552   2.473   3.191
 5427TIP3    H116287   1.483   2.426   3.144
 5427TIP3    H216288   1.630   2.418   3.179
 5428TIP3   OH216289   4.091   3.247   0.119
 5428TIP3    H116290   4.056   3.208   0.039
 5428TIP3    H216291   4.014   3.283   0.163
 5429TIP3   OH216292   1.647   1.111   3.907
 5429TIP3    H116293   1.586   1.140   3.839
 5429TIP3    H216294   1.619   1.159   3.985
 5430TIP3   OH216295   3.177   5.397   3.616
 5430TIP3    H116296   3.144   5.333   3.553
 5430TIP3    H216297   3.210   5.469   3.562
 5431TIP3   OH216298   3.418   3.233   0.844
 5431TIP3    H116299   3.464   3.152   0.866
 5431TIP3    H216300   3.355   3.245   0.915
 5432TIP3   OH216301   0.783   4.858   1.931
 5432TIP3    H116302   0.791   4.854   2.026
 5432TIP3    H216303   0.865   4.821   1.898
 5433TIP3   OH216304   2.153   5.797   3.845
 5433TIP3    H116305   2.198   5.849   3.911
 5433TIP3    H216306   2.208   5.720   3.832
 5434TIP3   OH216307   4.878   0.695   0.829
 5434TIP3    H116308   4.850   0.691   0.920
 5434TIP3    H216309   4.968   0.728   0.833
 5435TIP3   OH216310   4.809   0.146   3.112
 5435TIP3    H116311   4.901   0.134   3.132
 5435TIP3    H216312   4.769   0.169   3.196
 5436TIP3   OH216313   2.495   3.821   0.558
 5436TIP3    H116314   2.442   3.893   0.524
 5436TIP3    H216315   2.493   3.833   0.653
 5437TIP3   OH216316   1.461   4.231   2.216
 5437TIP3    H116317   1.387   4.190   2.261
 5437TIP3    H216318   1.522   4.159   2.199
 5438TIP3   OH216319   2.973   3.062   4.821
 5438TIP3    H116320   3.036   3.089   4.888
 5438TIP3    H216321   2.986   2.967   4.812
 5439TIP3   OH216322   6.089   4.531   3.646
 5439TIP3    H116323   6.014   4.516   3.704
 5439TIP3    H216324   6.123   4.616   3.672
 5440TIP3   OH216325   3.600   0.286   2.688
 5440TIP3    H116326   3.518   0.297   2.735
 5440TIP3    H216327   3.587   0.209   2.633
 5441TIP3   OH216328   2.004   2.951   1.422
 5441TIP3    H116329   2.074   2.933   1.359
 5441TIP3    H216330   2.022   2.892   1.495
 5442TIP3   OH216331   3.431   4.310   3.450
 5442TIP3    H116332   3.386   4.279   3.371
 5442TIP3    H216333   3.377   4.279   3.522
 5443TIP3   OH216334   5.883   0.338   0.172
 5443TIP3    H116335   5.909   0.250   0.198
 5443TIP3    H216336   5.882   0.336   0.076
 5444TIP3   OH216337   0.842   3.810   2.214
 5444TIP3    H116338   0.832   3.740   2.149
 5444TIP3    H216339   0.918   3.785   2.266
 5445TIP3   OH216340   4.099   2.205   3.796
 5445TIP3    H116341   4.123   2.220   3.888
 5445TIP3    H216342   4.023   2.148   3.801
 5446TIP3   OH216343   5.156   1.129   3.000
 5446TIP3    H116344   5.070   1.116   2.961
 5446TIP3    H216345   5.216   1.081   2.943
 5447TIP3   OH216346   1.983   3.382   4.722
 5447TIP3    H116347   2.060   3.437   4.728
 5447TIP3    H216348   1.915   3.429   4.770
 5448TIP3   OH216349   4.050   4.486   1.217
 5448TIP3    H116350   3.995   4.486   1.295
 5448TIP3    H216351   3.999   4.438   1.151
 5449TIP3   OH216352   4.646   1.504   4.941
 5449TIP3    H116353   4.624   1.557   4.864
 5449TIP3    H216354   4.579   1.437   4.945
 5450TIP3   OH216355   0.947   3.826   3.855
 5450TIP3    H116356   0.975   3.734   3.846
 5450TIP3    H216357   0.878   3.824   3.921
 5451TIP3   OH216358   1.040   5.427   0.431
 5451TIP3    H116359   0.998   5.481   0.499
 5451TIP3    H216360   1.133   5.440   0.445
 5452TIP3   OH216361   2.786   4.847   4.326
 5452TIP3    H116362   2.779   4.830   4.232
 5452TIP3    H216363   2.798   4.761   4.365
 5453TIP3   OH216364   2.363   5.541   0.683
 5453TIP3    H116365   2.434   5.527   0.620
 5453TIP3    H216366   2.288   5.494   0.647
 5454TIP3   OH216367   2.518   3.101   2.875
 5454TIP3    H116368   2.520   3.025   2.934
 5454TIP3    H216369   2.602   3.144   2.891
 5455TIP3   OH216370   3.489   4.528   0.718
 5455TIP3    H116371   3.395   4.518   0.733
 5455TIP3    H216372   3.495   4.588   0.645
 5456TIP3   OH216373   4.526   1.363   1.709
 5456TIP3    H116374   4.616   1.348   1.739
 5456TIP3    H216375   4.536   1.414   1.629
 5457TIP3   OH216376   1.101   2.659   0.650
 5457TIP3    H116377   1.082   2.751   0.666
 5457TIP3    H216378   1.192   2.657   0.621
 5458TIP3   OH216379   5.351   1.548   4.300
 5458TIP3    H116380   5.346   1.468   4.247
 5458TIP3    H216381   5.342   1.518   4.390
 5459TIP3   OH216382   4.852   4.780   0.514
 5459TIP3    H116383   4.761   4.796   0.488
 5459TIP3    H216384   4.904   4.819   0.443
 5460TIP3   OH216385   1.468   3.364   1.191
 5460TIP3    H116386   1.496   3.389   1.279
 5460TIP3    H216387   1.501   3.275   1.179
 5461TIP3   OH216388   0.253   3.196   3.281
 5461TIP3    H116389   0.292   3.126   3.334
 5461TIP3    H216390   0.216   3.151   3.205
 5462TIP3   OH216391   1.525   2.015   2.137
 5462TIP3    H116392   1.448   1.975   2.178
 5462TIP3    H216393   1.599   1.972   2.178
 5463TIP3   OH216394   5.886   1.471   0.834
 5463TIP3    H116395   5.843   1.547   0.795
 5463TIP3    H216396   5.837   1.396   0.800
 5464TIP3   OH216397   3.738   5.483   3.094
 5464TIP3    H116398   3.744   5.560   3.150
 5464TIP3    H216399   3.814   5.430   3.119
 5465TIP3   OH216400   6.191   3.731   4.438
 5465TIP3    H116401   6.220   3.640   4.448
 5465TIP3    H216402   6.126   3.729   4.368
 5466TIP3   OH216403   4.102   3.565   0.607
 5466TIP3    H116404   4.152   3.520   0.539
 5466TIP3    H216405   4.103   3.657   0.582
 5467TIP3   OH216406   0.089   1.189   1.951
 5467TIP3    H116407   0.102   1.256   1.884
 5467TIP3    H216408   0.082   1.107   1.902
 5468TIP3   OH216409   4.351   0.767   2.070
 5468TIP3    H116410   4.437   0.784   2.032
 5468TIP3    H216411   4.316   0.695   2.018
 5469TIP3   OH216412   0.757   4.655   0.960
 5469TIP3    H116413   0.688   4.719   0.941
 5469TIP3    H216414   0.837   4.695   0.925
 5470TIP3   OH216415   2.854   5.593   2.763
 5470TIP3    H116416   2.773   5.586   2.813
 5470TIP3    H216417   2.868   5.687   2.753
 5471TIP3   OH216418   0.265   3.540   2.960
 5471TIP3    H116419   0.215   3.547   3.041
 5471TIP3    H216420   0.203   3.567   2.892
 5472TIP3   OH216421   4.682   1.870   4.012
 5472TIP3    H116422   4.744   1.939   3.988
 5472TIP3    H216423   4.675   1.816   3.934
 5473TIP3   OH216424   1.220   3.086   0.515
 5473TIP3    H116425   1.280   3.012   0.528
 5473TIP3    H216426   1.268   3.162   0.546
 5474TIP3   OH216427   0.942   1.421   3.381
 5474TIP3    H116428   0.915   1.364   3.309
 5474TIP3    H216429   0.948   1.363   3.456
 5475TIP3   OH216430   2.640   1.178   0.079
 5475TIP3    H116431   2.626   1.272   0.073
 5475TIP3    H216432   2.715   1.168   0.137
 5476TIP3   OH216433   4.811   0.008   5.182
 5476TIP3    H116434   4.807  -0.035   5.096
 5476TIP3    H216435   4.753   0.084   5.173
 5477TIP3   OH216436   5.959   0.589   0.191
 5477TIP3    H116437   5.926   0.500   0.177
 5477TIP3    H216438   5.892   0.631   0.245
 5478TIP3   OH216439   0.244   2.083   4.295
 5478TIP3    H116440   0.221   2.151   4.358
 5478TIP3    H216441   0.220   2.001   4.338
 5479TIP3   OH216442   3.962   0.182   2.174
 5479TIP3    H116443   3.891   0.223   2.222
 5479TIP3    H216444   4.041   0.224   2.207
 5480TIP3   OH216445   3.347   3.987   1.479
 5480TIP3    H116446   3.416   3.924   1.496
 5480TIP3    H216447   3.270   3.933   1.459
 5481TIP3   OH216448   3.256   0.063   4.176
 5481TIP3    H116449   3.303   0.102   4.102
 5481TIP3    H216450   3.193   0.129   4.203
 5482TIP3   OH216451   4.679   5.770   1.260
 5482TIP3    H116452   4.588   5.745   1.272
 5482TIP3    H216453   4.705   5.806   1.345
 5483TIP3   OH216454   0.059   5.577   4.022
 5483TIP3    H116455   0.091   5.490   4.047
 5483TIP3    H216456   0.094   5.591   3.934
 5484TIP3   OH216457   4.798   4.268   0.655
 5484TIP3    H116458   4.879   4.319   0.650
 5484TIP3    H216459   4.749   4.293   0.577
 5485TIP3   OH216460   0.430   0.847   4.658
 5485TIP3    H116461   0.360   0.782   4.653
 5485TIP3    H216462   0.391   0.920   4.706
 5486TIP3   OH216463   2.470   3.629   2.564
 5486TIP3    H116464   2.403   3.562   2.557
 5486TIP3    H216465   2.472   3.653   2.656
 5487TIP3   OH216466   0.656   3.355   0.041
 5487TIP3    H116467   0.652   3.320  -0.048
 5487TIP3    H216468   0.708   3.435   0.033
 5488TIP3   OH216469   0.358   2.890   0.689
 5488TIP3    H116470   0.383   2.887   0.781
 5488TIP3    H216471   0.398   2.811   0.651
 5489TIP3   OH216472   3.771   2.289   4.454
 5489TIP3    H116473   3.834   2.282   4.382
 5489TIP3    H216474   3.712   2.359   4.427
 5490TIP3   OH216475   5.839   1.430   3.036
 5490TIP3    H116476   5.851   1.506   3.093
 5490TIP3    H216477   5.745   1.417   3.033
 5491TIP3   OH216478   0.488   1.767   3.056
 5491TIP3    H116479   0.432   1.694   3.083
 5491TIP3    H216480   0.500   1.755   2.962
 5492TIP3   OH216481   0.324   1.810   5.094
 5492TIP3    H116482   0.417   1.790   5.100
 5492TIP3    H216483   0.319   1.886   5.036
 5493TIP3   OH216484   1.025   4.651   0.053
 5493TIP3    H116485   1.000   4.605   0.133
 5493TIP3    H216486   1.120   4.660   0.058
 5494TIP3   OH216487   2.296   0.918   1.479
 5494TIP3    H116488   2.307   1.007   1.513
 5494TIP3    H216489   2.242   0.874   1.544
 5495TIP3   OH216490   1.575   4.445   2.374
 5495TIP3    H116491   1.551   4.386   2.302
 5495TIP3    H216492   1.650   4.403   2.415
 5496TIP3   OH216493   1.578   5.415   4.441
 5496TIP3    H116494   1.520   5.489   4.455
 5496TIP3    H216495   1.663   5.445   4.475
 5497TIP3   OH216496   5.943   5.743   4.134
 5497TIP3    H116497   5.958   5.822   4.187
 5497TIP3    H216498   5.988   5.761   4.052
 5498TIP3   OH216499   5.223   1.381   0.562
 5498TIP3    H116500   5.268   1.462   0.535
 5498TIP3    H216501   5.289   1.313   0.549
 5499TIP3   OH216502   4.458   4.480   4.478
 5499TIP3    H116503   4.420   4.500   4.563
 5499TIP3    H216504   4.472   4.385   4.480
 5500TIP3   OH216505   5.328   0.094   1.665
 5500TIP3    H116506   5.310   0.176   1.711
 5500TIP3    H216507   5.386   0.118   1.594
 5501TIP3   OH216508   2.212   4.824   1.706
 5501TIP3    H116509   2.221   4.734   1.673
 5501TIP3    H216510   2.141   4.819   1.770
 5502TIP3   OH216511   2.491   3.735   2.796
 5502TIP3    H116512   2.507   3.718   2.889
 5502TIP3    H216513   2.490   3.831   2.790
 5503TIP3   OH216514   2.365   0.958   5.002
 5503TIP3    H116515   2.385   0.911   5.084
 5503TIP3    H216516   2.382   1.050   5.022
 5504TIP3   OH216517   5.236   0.739   3.888
 5504TIP3    H116518   5.272   0.799   3.823
 5504TIP3    H216519   5.149   0.718   3.856
 5505TIP3   OH216520   1.631   2.770   4.863
 5505TIP3    H116521   1.641   2.859   4.898
 5505TIP3    H216522   1.593   2.783   4.775
 5506TIP3   OH216523   1.282   3.212   0.283
 5506TIP3    H116524   1.358   3.185   0.232
 5506TIP3    H216525   1.280   3.151   0.357
 5507TIP3   OH216526   4.419   2.840   2.600
 5507TIP3    H116527   4.395   2.748   2.594
 5507TIP3    H216528   4.473   2.856   2.522
 5508TIP3   OH216529  -0.022   3.071   1.502
 5508TIP3    H116530   0.069   3.079   1.532
 5508TIP3    H216531  -0.038   2.976   1.501
 5509TIP3   OH216532   3.200   1.599   0.471
 5509TIP3    H116533   3.183   1.685   0.432
 5509TIP3    H216534   3.192   1.613   0.565
 5510TIP3   OH216535   3.019   5.294   2.021
 5510TIP3    H116536   3.011   5.321   2.112
 5510TIP3    H216537   2.932   5.308   1.983
 5511TIP3   OH216538   5.369   5.861   0.526
 5511TIP3    H116539   5.286   5.889   0.488
 5511TIP3    H216540   5.390   5.780   0.479
 5512TIP3   OH216541   4.534   1.418   0.152
 5512TIP3    H116542   4.596   1.473   0.104
 5512TIP3    H216543   4.585   1.340   0.175
 5513TIP3   OH216544   3.207   3.085   2.998
 5513TIP3    H116545   3.267   3.015   2.973
 5513TIP3    H216546   3.237   3.162   2.949
 5514TIP3   OH216547   3.271   4.289   3.717
 5514TIP3    H116548   3.193   4.291   3.773
 5514TIP3    H216549   3.319   4.369   3.739
 5515TIP3   OH216550   0.719   3.614   4.489
 5515TIP3    H116551   0.636   3.619   4.538
 5515TIP3    H216552   0.724   3.523   4.459
 5516TIP3   OH216553   6.252   5.911   0.699
 5516TIP3    H116554   6.295   5.833   0.664
 5516TIP3    H216555   6.230   5.888   0.790
 5517TIP3   OH216556   2.899   1.152   0.905
 5517TIP3    H116557   2.860   1.203   0.976
 5517TIP3    H216558   2.991   1.178   0.904
 5518TIP3   OH216559   4.010   0.438   5.014
 5518TIP3    H116560   4.092   0.456   5.059
 5518TIP3    H216561   4.030   0.451   4.921
 5519TIP3   OH216562   6.306   5.115   1.295
 5519TIP3    H116563   6.301   5.035   1.347
 5519TIP3    H216564   6.399   5.123   1.273
 5520TIP3   OH216565   5.432   1.653   3.729
 5520TIP3    H116566   5.450   1.624   3.639
 5520TIP3    H216567   5.361   1.716   3.720
 5521TIP3   OH216568   6.233   4.268   2.920
 5521TIP3    H116569   6.138   4.270   2.912
 5521TIP3    H216570   6.259   4.184   2.883
 5522TIP3   OH216571   6.320   4.087   1.798
 5522TIP3    H116572   6.400   4.095   1.746
 5522TIP3    H216573   6.341   4.126   1.882
 5523TIP3   OH216574   0.273   4.844   4.311
 5523TIP3    H116575   0.228   4.880   4.235
 5523TIP3    H216576   0.207   4.846   4.381
 5524TIP3   OH216577   3.195   3.644   2.462
 5524TIP3    H116578   3.137   3.671   2.533
 5524TIP3    H216579   3.175   3.704   2.390
 5525TIP3   OH216580   5.438   5.766   4.058
 5525TIP3    H116581   5.420   5.815   3.978
 5525TIP3    H216582   5.366   5.702   4.063
 5526TIP3   OH216583   2.035   4.863   5.158
 5526TIP3    H116584   1.978   4.896   5.228
 5526TIP3    H216585   2.005   4.909   5.080
 5527TIP3   OH216586   2.382   1.112   4.007
 5527TIP3    H116587   2.386   1.203   4.036
 5527TIP3    H216588   2.312   1.110   3.942
 5528TIP3   OH216589   0.451   5.869   2.613
 5528TIP3    H116590   0.505   5.861   2.692
 5528TIP3    H216591   0.379   5.927   2.639
 5529TIP3   OH216592   3.343   1.616   2.674
 5529TIP3    H116593   3.426   1.582   2.708
 5529TIP3    H216594   3.321   1.559   2.601
 5530TIP3   OH216595   1.310   5.013   3.422
 5530TIP3    H116596   1.341   4.922   3.418
 5530TIP3    H216597   1.222   5.009   3.384
 5531TIP3   OH216598   3.523   4.039   3.818
 5531TIP3    H116599   3.596   4.100   3.827
 5531TIP3    H216600   3.445   4.095   3.819
 5532TIP3   OH216601   0.351   0.210   2.439
 5532TIP3    H116602   0.417   0.167   2.384
 5532TIP3    H216603   0.400   0.278   2.486
 5533TIP3   OH216604   1.521   3.195   4.626
 5533TIP3    H116605   1.438   3.168   4.587
 5533TIP3    H216606   1.539   3.128   4.693
 5534TIP3   OH216607   4.636   2.698   2.167
 5534TIP3    H116608   4.588   2.768   2.123
 5534TIP3    H216609   4.620   2.712   2.260
 5535TIP3   OH216610   3.484   3.914   1.202
 5535TIP3    H116611   3.438   3.834   1.227
 5535TIP3    H216612   3.571   3.885   1.175
 5536TIP3   OH216613   4.351   2.701   1.726
 5536TIP3    H116614   4.396   2.619   1.707
 5536TIP3    H216615   4.267   2.675   1.762
 5537TIP3   OH216616   6.272   2.590   4.852
 5537TIP3    H116617   6.218   2.650   4.800
 5537TIP3    H216618   6.220   2.574   4.931
 5538TIP3   OH216619   2.175   1.808   2.666
 5538TIP3    H116620   2.164   1.815   2.761
 5538TIP3    H216621   2.250   1.864   2.646
 5539TIP3   OH216622   5.005   4.834   0.806
 5539TIP3    H116623   5.079   4.890   0.827
 5539TIP3    H216624   5.035   4.780   0.732
 5540TIP3   OH216625   4.501   4.836   0.909
 5540TIP3    H116626   4.471   4.776   0.978
 5540TIP3    H216627   4.596   4.836   0.916
 5541TIP3   OH216628   0.855   1.249   2.541
 5541TIP3    H116629   0.788   1.221   2.603
 5541TIP3    H216630   0.814   1.322   2.493
 5542TIP3   OH216631   2.968   3.933   2.510
 5542TIP3    H116632   2.875   3.927   2.530
 5542TIP3    H216633   2.973   3.939   2.415
 5543TIP3   OH216634   0.439   0.445   1.617
 5543TIP3    H116635   0.395   0.427   1.534
 5543TIP3    H216636   0.408   0.376   1.676
 5544TIP3   OH216637   2.989   5.186   1.330
 5544TIP3    H116638   3.081   5.159   1.325
 5544TIP3    H216639   2.945   5.114   1.375
 5545TIP3   OH216640   1.426   2.784   4.635
 5545TIP3    H116641   1.450   2.812   4.547
 5545TIP3    H216642   1.333   2.807   4.643
 5546TIP3   OH216643   3.420   5.965   4.931
 5546TIP3    H116644   3.504   5.952   4.887
 5546TIP3    H216645   3.435   6.036   4.992
 5547TIP3   OH216646   4.133   0.387   1.073
 5547TIP3    H116647   4.183   0.451   1.022
 5547TIP3    H216648   4.183   0.376   1.154
 5548TIP3   OH216649   2.392   2.037   1.286
 5548TIP3    H116650   2.392   2.103   1.216
 5548TIP3    H216651   2.388   1.953   1.240
 5549TIP3   OH216652   5.934   5.872   4.459
 5549TIP3    H116653   6.014   5.882   4.407
 5549TIP3    H216654   5.866   5.913   4.407
 5550TIP3   OH216655   1.429   2.976   0.149
 5550TIP3    H116656   1.463   2.893   0.116
 5550TIP3    H216657   1.474   3.043   0.096
 5551TIP3   OH216658   2.007   1.974   3.129
 5551TIP3    H116659   2.059   1.980   3.209
 5551TIP3    H216660   1.970   1.886   3.130
 5552TIP3   OH216661   1.444   5.023   0.264
 5552TIP3    H116662   1.409   5.061   0.184
 5552TIP3    H216663   1.427   5.089   0.331
 5553TIP3   OH216664   3.399   0.410   0.494
 5553TIP3    H116665   3.383   0.434   0.403
 5553TIP3    H216666   3.453   0.330   0.488
 5554TIP3   OH216667   0.647   1.138   4.953
 5554TIP3    H116668   0.673   1.116   5.042
 5554TIP3    H216669   0.578   1.203   4.964
 5555TIP3   OH216670   3.705   5.612   0.106
 5555TIP3    H116671   3.779   5.621   0.046
 5555TIP3    H216672   3.712   5.523   0.140
 5556TIP3   OH216673   6.164   5.386   1.846
 5556TIP3    H116674   6.185   5.442   1.772
 5556TIP3    H216675   6.248   5.369   1.889
 5557TIP3   OH216676   4.500   0.566   4.320
 5557TIP3    H116677   4.412   0.588   4.351
 5557TIP3    H216678   4.540   0.520   4.394
 5558TIP3   OH216679   2.900   4.621   1.132
 5558TIP3    H116680   2.986   4.597   1.096
 5558TIP3    H216681   2.921   4.670   1.212
 5559TIP3   OH216682   3.803   3.752   0.172
 5559TIP3    H116683   3.713   3.785   0.175
 5559TIP3    H216684   3.807   3.703   0.090
 5560TIP3   OH216685   4.451   5.441   0.906
 5560TIP3    H116686   4.476   5.369   0.849
 5560TIP3    H216687   4.519   5.507   0.894
 5561TIP3   OH216688   0.216   0.599   2.739
 5561TIP3    H116689   0.156   0.659   2.783
 5561TIP3    H216690   0.298   0.647   2.732
 5562TIP3   OH216691   5.554   4.758   3.032
 5562TIP3    H116692   5.619   4.765   3.102
 5562TIP3    H216693   5.527   4.666   3.034
 5563TIP3   OH216694   0.156   1.406   0.899
 5563TIP3    H116695   0.242   1.367   0.916
 5563TIP3    H216696   0.166   1.497   0.924
 5564TIP3   OH216697   4.098   4.100   1.728
 5564TIP3    H116698   4.139   4.107   1.814
 5564TIP3    H216699   4.125   4.180   1.682
 5565TIP3   OH216700   0.306   0.673   2.378
 5565TIP3    H116701   0.271   0.588   2.351
 5565TIP3    H216702   0.237   0.711   2.432
 5566TIP3   OH216703   1.926   5.597   3.912
 5566TIP3    H116704   2.003   5.650   3.893
 5566TIP3    H216705   1.892   5.572   3.826
 5567TIP3   OH216706   0.684   5.051   3.328
 5567TIP3    H116707   0.738   4.989   3.280
 5567TIP3    H216708   0.595   5.015   3.322
 5568TIP3   OH216709   0.006   5.700   4.680
 5568TIP3    H116710   0.094   5.684   4.715
 5568TIP3    H216711  -0.020   5.617   4.640
 5569TIP3   OH216712   5.804   2.532   2.583
 5569TIP3    H116713   5.760   2.618   2.582
 5569TIP3    H216714   5.896   2.552   2.598
 5570TIP3   OH216715   5.039   3.674   1.165
 5570TIP3    H116716   4.944   3.661   1.166
 5570TIP3    H216717   5.072   3.613   1.232
 5571TIP3   OH216718   1.648   0.541   2.207
 5571TIP3    H116719   1.676   0.631   2.187
 5571TIP3    H216720   1.623   0.505   2.122
 5572TIP3   OH216721   5.469   2.940   0.165
 5572TIP3    H116722   5.461   2.906   0.076
 5572TIP3    H216723   5.520   3.020   0.156
 5573TIP3   OH216724   4.016   1.805   1.142
 5573TIP3    H116725   4.009   1.839   1.052
 5573TIP3    H216726   3.990   1.879   1.197
 5574TIP3   OH216727   0.863   3.745   2.562
 5574TIP3    H116728   0.829   3.682   2.626
 5574TIP3    H216729   0.866   3.828   2.609
 5575TIP3   OH216730   3.630   3.986   1.690
 5575TIP3    H116731   3.697   3.962   1.754
 5575TIP3    H216732   3.575   3.908   1.682
 5576TIP3   OH216733   1.159   2.680   2.268
 5576TIP3    H116734   1.171   2.590   2.301
 5576TIP3    H216735   1.244   2.702   2.230
 5577TIP3   OH216736   5.100   5.843   3.267
 5577TIP3    H116737   5.055   5.913   3.314
 5577TIP3    H216738   5.031   5.794   3.224
 5578TIP3   OH216739   1.052   1.073   4.524
 5578TIP3    H116740   0.979   1.022   4.559
 5578TIP3    H216741   1.035   1.078   4.430
 5579TIP3   OH216742   2.244   1.526   5.164
 5579TIP3    H116743   2.173   1.563   5.217
 5579TIP3    H216744   2.208   1.521   5.076
 5580TIP3   OH216745   5.636   3.303   4.559
 5580TIP3    H116746   5.605   3.237   4.497
 5580TIP3    H216747   5.625   3.386   4.513
 5581TIP3   OH216748   5.658   3.798   4.322
 5581TIP3    H116749   5.749   3.795   4.291
 5581TIP3    H216750   5.611   3.845   4.253
 5582TIP3   OH216751   0.771   1.791   2.632
 5582TIP3    H116752   0.809   1.878   2.623
 5582TIP3    H216753   0.844   1.731   2.612
 5583TIP3   OH216754   4.657   2.764   4.820
 5583TIP3    H116755   4.653   2.669   4.815
 5583TIP3    H216756   4.591   2.794   4.757
 5584TIP3   OH216757   2.092   0.457   1.556
 5584TIP3    H116758   2.152   0.408   1.612
 5584TIP3    H216759   2.012   0.466   1.608
 5585TIP3   OH216760   4.668   1.293   2.375
 5585TIP3    H116761   4.656   1.323   2.285
 5585TIP3    H216762   4.581   1.303   2.415
 5586TIP3   OH216763   1.306   3.712   4.004
 5586TIP3    H116764   1.213   3.722   4.024
 5586TIP3    H216765   1.350   3.721   4.088
 5587TIP3   OH216766   2.605   4.070   1.486
 5587TIP3    H116767   2.563   4.043   1.405
 5587TIP3    H216768   2.690   4.106   1.459
 5588TIP3   OH216769   1.997   0.572   2.871
 5588TIP3    H116770   2.052   0.650   2.865
 5588TIP3    H216771   1.926   0.588   2.809
 5589TIP3   OH216772   2.297   4.186   2.719
 5589TIP3    H116773   2.362   4.215   2.656
 5589TIP3    H216774   2.240   4.261   2.732
 5590TIP3   OH216775   0.240   4.793   5.047
 5590TIP3    H116776   0.239   4.822   4.956
 5590TIP3    H216777   0.326   4.754   5.059
 5591TIP3   OH216778   3.084   3.887   0.974
 5591TIP3    H116779   3.026   3.963   0.986
 5591TIP3    H216780   3.111   3.891   0.883
 5592TIP3   OH216781   6.163   3.765   3.211
 5592TIP3    H116782   6.117   3.694   3.166
 5592TIP3    H216783   6.246   3.727   3.237
 5593TIP3   OH216784   3.039   0.219   2.695
 5593TIP3    H116785   2.956   0.262   2.678
 5593TIP3    H216786   3.087   0.226   2.613
 5594TIP3   OH216787   3.670   0.680   0.360
 5594TIP3    H116788   3.754   0.686   0.316
 5594TIP3    H216789   3.656   0.586   0.373
 5595TIP3   OH216790   4.336   3.572   3.554
 5595TIP3    H116791   4.291   3.560   3.471
 5595TIP3    H216792   4.383   3.655   3.544
 5596TIP3   OH216793   3.519   2.019   3.582
 5596TIP3    H116794   3.609   2.050   3.573
 5596TIP3    H216795   3.494   2.043   3.671
 5597TIP3   OH216796   0.103   5.166   3.799
 5597TIP3    H116797   0.196   5.175   3.818
 5597TIP3    H216798   0.086   5.229   3.729
 5598TIP3   OH216799   3.565   4.231   5.151
 5598TIP3    H116800   3.499   4.220   5.219
 5598TIP3    H216801   3.573   4.144   5.112
 5599TIP3   OH216802   5.665   1.888   3.288
 5599TIP3    H116803   5.743   1.899   3.234
 5599TIP3    H216804   5.592   1.889   3.225
 5600TIP3   OH216805   4.038   5.422   3.882
 5600TIP3    H116806   3.957   5.372   3.871
 5600TIP3    H216807   4.010   5.513   3.891
 5601TIP3   OH216808   4.951   0.675   3.386
 5601TIP3    H116809   4.876   0.713   3.338
 5601TIP3    H216810   5.016   0.745   3.387
 5602TIP3   OH216811   2.372   4.842   3.474
 5602TIP3    H116812   2.446   4.889   3.512
 5602TIP3    H216813   2.385   4.751   3.499
 5603TIP3   OH216814   3.269   4.589   2.041
 5603TIP3    H116815   3.288   4.495   2.033
 5603TIP3    H216816   3.343   4.632   1.999
 5604TIP3   OH216817   5.462   0.708   2.023
 5604TIP3    H116818   5.367   0.713   2.025
 5604TIP3    H216819   5.485   0.644   2.090
 5605TIP3   OH216820   4.109   2.239   2.663
 5605TIP3    H116821   4.051   2.185   2.716
 5605TIP3    H216822   4.195   2.197   2.670
 5606TIP3   OH216823   4.097   5.715   1.945
 5606TIP3    H116824   4.089   5.776   2.018
 5606TIP3    H216825   4.115   5.631   1.986
 5607TIP3   OH216826   3.897   2.059   1.347
 5607TIP3    H116827   3.950   2.079   1.425
 5607TIP3    H216828   3.871   2.145   1.314
 5608TIP3   OH216829   3.051   3.529   1.734
 5608TIP3    H116830   3.076   3.484   1.653
 5608TIP3    H216831   2.985   3.472   1.773
 5609TIP3   OH216832   0.869   4.040   2.432
 5609TIP3    H116833   0.874   4.057   2.526
 5609TIP3    H216834   0.884   3.945   2.424
 5610TIP3   OH216835   5.880   4.627   0.104
 5610TIP3    H116836   5.925   4.545   0.123
 5610TIP3    H216837   5.799   4.623   0.154
 5611TIP3   OH216838   4.450   1.705   1.740
 5611TIP3    H116839   4.375   1.647   1.726
 5611TIP3    H216840   4.515   1.678   1.675
 5612TIP3   OH216841   1.009   4.247   1.396
 5612TIP3    H116842   0.955   4.293   1.459
 5612TIP3    H216843   0.960   4.252   1.314
 5613TIP3   OH216844   1.780   3.932   2.699
 5613TIP3    H116845   1.722   3.948   2.773
 5613TIP3    H216846   1.865   3.964   2.728
 5614TIP3   OH216847   3.421   3.485   4.893
 5614TIP3    H116848   3.348   3.438   4.852
 5614TIP3    H216849   3.466   3.419   4.946
 5615TIP3   OH216850   1.725   4.448   4.873
 5615TIP3    H116851   1.762   4.360   4.869
 5615TIP3    H216852   1.801   4.506   4.880
 5616TIP3   OH216853   5.186   2.595   2.435
 5616TIP3    H116854   5.104   2.641   2.455
 5616TIP3    H216855   5.213   2.558   2.519
 5617TIP3   OH216856   2.691   2.081   0.049
 5617TIP3    H116857   2.764   2.025   0.075
 5617TIP3    H216858   2.686   2.147   0.118
 5618TIP3   OH216859   5.719   1.737   1.321
 5618TIP3    H116860   5.814   1.743   1.314
 5618TIP3    H216861   5.704   1.658   1.372
 5619TIP3   OH216862   6.346   3.292   1.309
 5619TIP3    H116863   6.343   3.217   1.369
 5619TIP3    H216864   6.334   3.368   1.366
 5620TIP3   OH216865   3.104   5.034   2.291
 5620TIP3    H116866   3.106   5.120   2.333
 5620TIP3    H216867   3.075   4.975   2.360
 5621TIP3   OH216868   0.042   3.438   2.312
 5621TIP3    H116869  -0.009   3.497   2.368
 5621TIP3    H216870  -0.024   3.385   2.267
 5622TIP3   OH216871   4.032   5.683   0.277
 5622TIP3    H116872   3.940   5.693   0.298
 5622TIP3    H216873   4.034   5.614   0.210
 5623TIP3   OH216874   2.859   3.039   0.416
 5623TIP3    H116875   2.906   3.112   0.375
 5623TIP3    H216876   2.922   2.967   0.417
 5624TIP3   OH216877   5.634   5.244   1.340
 5624TIP3    H116878   5.717   5.251   1.293
 5624TIP3    H216879   5.616   5.332   1.372
 5625TIP3   OH216880   4.800   1.864   1.015
 5625TIP3    H116881   4.879   1.905   0.980
 5625TIP3    H216882   4.763   1.930   1.074
 5626TIP3   OH216883   5.662   0.951   0.527
 5626TIP3    H116884   5.614   0.997   0.596
 5626TIP3    H216885   5.754   0.974   0.542
 5627TIP3   OH216886   4.958   5.791   1.902
 5627TIP3    H116887   5.031   5.751   1.855
 5627TIP3    H216888   4.998   5.859   1.956
 5628TIP3   OH216889   2.756   0.425   0.254
 5628TIP3    H116890   2.782   0.340   0.289
 5628TIP3    H216891   2.802   0.433   0.171
 5629TIP3   OH216892   5.988   4.880   0.232
 5629TIP3    H116893   6.076   4.891   0.197
 5629TIP3    H216894   5.962   4.791   0.207
 5630TIP3   OH216895   5.923   3.233   2.196
 5630TIP3    H116896   5.906   3.205   2.106
 5630TIP3    H216897   5.986   3.304   2.188
 5631TIP3   OH216898   2.860   4.056   4.068
 5631TIP3    H116899   2.850   3.962   4.083
 5631TIP3    H216900   2.789   4.080   4.009
 5632TIP3   OH216901   1.062   3.499   0.367
 5632TIP3    H116902   1.129   3.492   0.435
 5632TIP3    H216903   1.077   3.423   0.311
 5633TIP3   OH216904   0.077   3.360   0.917
 5633TIP3    H116905   0.110   3.286   0.867
 5633TIP3    H216906   0.125   3.435   0.882
 5634TIP3   OH216907   2.421   5.157   0.814
 5634TIP3    H116908   2.461   5.083   0.859
 5634TIP3    H216909   2.495   5.215   0.793
 5635TIP3   OH216910   0.107   0.094   1.119
 5635TIP3    H116911   0.125   0.000   1.111
 5635TIP3    H216912   0.011   0.099   1.123
 5636TIP3   OH216913   0.949   3.723   0.245
 5636TIP3    H116914   1.006   3.797   0.264
 5636TIP3    H216915   0.996   3.647   0.279
 5637TIP3   OH216916   4.963   2.872   4.561
 5637TIP3    H116917   4.996   2.789   4.525
 5637TIP3    H216918   4.950   2.854   4.654
 5638TIP3   OH216919   0.298   2.941   0.100
 5638TIP3    H116920   0.391   2.937   0.078
 5638TIP3    H216921   0.294   2.915   0.192
 5639TIP3   OH216922   4.078   5.501   1.727
 5639TIP3    H116923   4.110   5.446   1.799
 5639TIP3    H216924   4.013   5.447   1.683
 5640TIP3   OH216925   5.404   4.926   0.673
 5640TIP3    H116926   5.494   4.898   0.688
 5640TIP3    H216927   5.403   4.951   0.580
 5641TIP3   OH216928   2.024   4.821   3.539
 5641TIP3    H116929   1.974   4.827   3.620
 5641TIP3    H216930   2.091   4.889   3.547
 5642TIP3   OH216931   4.885   1.657   2.944
 5642TIP3    H116932   4.836   1.578   2.968
 5642TIP3    H216933   4.818   1.721   2.922
 5643TIP3   OH216934   3.163   2.769   4.459
 5643TIP3    H116935   3.094   2.814   4.410
 5643TIP3    H216936   3.230   2.836   4.471
 5644TIP3   OH216937   0.463   3.585   2.160
 5644TIP3    H116938   0.481   3.631   2.242
 5644TIP3    H216939   0.377   3.617   2.134
 5645TIP3   OH216940   0.180   4.197   1.969
 5645TIP3    H116941   0.245   4.240   1.914
 5645TIP3    H216942   0.219   4.112   1.991
 5646TIP3   OH216943   4.133   0.586   3.929
 5646TIP3    H116944   4.183   0.530   3.870
 5646TIP3    H216945   4.113   0.664   3.877
 5647TIP3   OH216946   1.043   2.660   4.936
 5647TIP3    H116947   1.026   2.710   4.856
 5647TIP3    H216948   1.126   2.615   4.918
 5648TIP3   OH216949   2.708   5.636   1.530
 5648TIP3    H116950   2.680   5.558   1.481
 5648TIP3    H216951   2.789   5.609   1.575
 5649TIP3   OH216952   5.621   5.692   2.171
 5649TIP3    H116953   5.660   5.667   2.087
 5649TIP3    H216954   5.695   5.693   2.232
 5650TIP3   OH216955   1.096   3.938   3.382
 5650TIP3    H116956   1.120   3.855   3.342
 5650TIP3    H216957   1.113   3.927   3.475
 5651TIP3   OH216958   2.273   5.179   2.498
 5651TIP3    H116959   2.209   5.232   2.451
 5651TIP3    H216960   2.303   5.115   2.434
 5652TIP3   OH216961   3.421   1.632   4.379
 5652TIP3    H116962   3.339   1.603   4.340
 5652TIP3    H216963   3.469   1.671   4.306
 5653TIP3   OH216964   2.533   1.239   2.600
 5653TIP3    H116965   2.545   1.185   2.679
 5653TIP3    H216966   2.528   1.176   2.529
 5654TIP3   OH216967   3.427   1.545   1.861
 5654TIP3    H116968   3.510   1.507   1.833
 5654TIP3    H216969   3.418   1.624   1.808
 5655TIP3   OH216970   1.121   3.543   4.313
 5655TIP3    H116971   1.164   3.487   4.248
 5655TIP3    H216972   1.109   3.486   4.389
 5656TIP3   OH216973   4.644   0.336   2.066
 5656TIP3    H116974   4.685   0.412   2.025
 5656TIP3    H216975   4.644   0.269   1.998
 5657TIP3   OH216976   5.230   3.516   1.324
 5657TIP3    H116977   5.322   3.542   1.330
 5657TIP3    H216978   5.223   3.470   1.241
 5658TIP3   OH216979   3.587   3.983   5.026
 5658TIP3    H116980   3.546   3.903   5.059
 5658TIP3    H216981   3.568   3.982   4.932
 5659TIP3   OH216982   4.004   0.511   2.263
 5659TIP3    H116983   3.945   0.436   2.255
 5659TIP3    H216984   3.951   0.586   2.238
 5660TIP3   OH216985   1.382   3.268   0.672
 5660TIP3    H116986   1.441   3.193   0.667
 5660TIP3    H216987   1.356   3.272   0.764
 5661TIP3   OH216988   4.455   4.378   4.951
 5661TIP3    H116989   4.468   4.430   5.030
 5661TIP3    H216990   4.376   4.326   4.969
 5662TIP3   OH216991   3.909   1.844   0.205
 5662TIP3    H116992   3.962   1.765   0.199
 5662TIP3    H216993   3.944   1.892   0.280
 5663TIP3   OH216994   5.880   2.474   0.332
 5663TIP3    H116995   5.895   2.446   0.242
 5663TIP3    H216996   5.961   2.451   0.378
 5664TIP3   OH216997   6.323   2.415   2.596
 5664TIP3    H116998   6.332   2.325   2.628
 5664TIP3    H216999   6.405   2.433   2.550
 5665TIP3   OH217000   4.690   0.777   4.293
 5665TIP3    H117001   4.728   0.768   4.205
 5665TIP3    H217002   4.612   0.722   4.291
 5666TIP3   OH217003   3.242   2.453   2.912
 5666TIP3    H117004   3.282   2.479   2.829
 5666TIP3    H217005   3.207   2.535   2.949
 5667TIP3   OH217006   4.587   3.368   1.634
 5667TIP3    H117007   4.675   3.402   1.646
 5667TIP3    H217008   4.591   3.279   1.669
 5668TIP3   OH217009   0.844   0.427   1.215
 5668TIP3    H117010   0.872   0.343   1.177
 5668TIP3    H217011   0.773   0.405   1.275
 5669TIP3   OH217012   6.024   5.051   2.378
 5669TIP3    H117013   5.981   5.133   2.356
 5669TIP3    H217014   6.105   5.077   2.421
 5670TIP3   OH217015   1.636   0.376   0.034
 5670TIP3    H117016   1.587   0.369   0.116
 5670TIP3    H217017   1.725   0.346   0.056
 5671TIP3   OH217018   5.706   1.579   2.346
 5671TIP3    H117019   5.685   1.629   2.425
 5671TIP3    H217020   5.639   1.510   2.343
 5672TIP3   OH217021   0.622   1.740   2.390
 5672TIP3    H117022   0.655   1.770   2.475
 5672TIP3    H217023   0.699   1.738   2.334
 5673TIP3   OH217024   0.842   2.125   3.970
 5673TIP3    H117025   0.929   2.144   3.935
 5673TIP3    H217026   0.784   2.185   3.923
 5674TIP3   OH217027   2.450   2.989   1.353
 5674TIP3    H117028   2.478   2.911   1.305
 5674TIP3    H217029   2.361   3.005   1.322
 5675TIP3   OH217030   2.825   3.841   0.206
 5675TIP3    H117031   2.765   3.783   0.159
 5675TIP3    H217032   2.793   3.841   0.296
 5676TIP3   OH217033   0.580   3.752   0.827
 5676TIP3    H117034   0.524   3.810   0.775
 5676TIP3    H217035   0.572   3.666   0.785
 5677TIP3   OH217036   1.499   3.538   1.634
 5677TIP3    H117037   1.561   3.609   1.650
 5677TIP3    H217038   1.511   3.478   1.707
 5678TIP3   OH217039   2.602   0.955   2.249
 5678TIP3    H117040   2.651   0.888   2.201
 5678TIP3    H217041   2.648   0.963   2.333
 5679TIP3   OH217042   0.507   3.306   3.523
 5679TIP3    H117043   0.435   3.333   3.466
 5679TIP3    H217044   0.500   3.211   3.528
 5680TIP3   OH217045   0.695   5.225   2.065
 5680TIP3    H117046   0.673   5.317   2.076
 5680TIP3    H217047   0.765   5.208   2.128
 5681TIP3   OH217048   4.144   2.480   4.154
 5681TIP3    H117049   4.111   2.541   4.220
 5681TIP3    H217050   4.238   2.495   4.152
 5682TIP3   OH217051   0.811   4.195   3.022
 5682TIP3    H117052   0.885   4.162   3.072
 5682TIP3    H217053   0.769   4.116   2.987
 5683TIP3   OH217054   4.786   1.263   5.079
 5683TIP3    H117055   4.827   1.331   5.025
 5683TIP3    H217056   4.853   1.242   5.145
 5684TIP3   OH217057   3.211   1.805   4.265
 5684TIP3    H117058   3.130   1.856   4.261
 5684TIP3    H217059   3.250   1.830   4.349
 5685TIP3   OH217060   5.640   0.285   4.210
 5685TIP3    H117061   5.633   0.190   4.213
 5685TIP3    H217062   5.730   0.304   4.237
 5686TIP3   OH217063   4.722   5.974   1.860
 5686TIP3    H117064   4.783   5.901   1.874
 5686TIP3    H217065   4.663   5.970   1.936
 5687TIP3   OH217066   2.584   4.809   1.482
 5687TIP3    H117067   2.563   4.872   1.551
 5687TIP3    H217068   2.671   4.777   1.505
 5688TIP3   OH217069   4.553   3.277   4.278
 5688TIP3    H117070   4.529   3.326   4.200
 5688TIP3    H217071   4.487   3.208   4.285
 5689TIP3   OH217072   4.461   3.762   0.055
 5689TIP3    H117073   4.483   3.708   0.131
 5689TIP3    H217074   4.538   3.817   0.042
 5690TIP3   OH217075   2.894   3.353   4.818
 5690TIP3    H117076   2.927   3.279   4.869
 5690TIP3    H217077   2.810   3.323   4.784
 5691TIP3   OH217078   0.443   1.637   0.944
 5691TIP3    H117079   0.494   1.634   1.025
 5691TIP3    H217080   0.409   1.548   0.935
 5692TIP3   OH217081   4.884   3.763   4.681
 5692TIP3    H117082   4.790   3.767   4.662
 5692TIP3    H217083   4.907   3.852   4.706
 5693TIP3   OH217084   2.220   1.749   2.394
 5693TIP3    H117085   2.160   1.678   2.369
 5693TIP3    H217086   2.187   1.779   2.479
 5694TIP3   OH217087   3.871   1.786   3.313
 5694TIP3    H117088   3.841   1.757   3.227
 5694TIP3    H217089   3.794   1.779   3.370
 5695TIP3   OH217090   5.986   0.498   0.527
 5695TIP3    H117091   5.971   0.589   0.553
 5695TIP3    H217092   6.036   0.461   0.600
 5696TIP3   OH217093   3.674   1.125   4.406
 5696TIP3    H117094   3.651   1.051   4.350
 5696TIP3    H217095   3.673   1.089   4.495
 5697TIP3   OH217096   2.213   5.595   4.975
 5697TIP3    H117097   2.233   5.504   4.997
 5697TIP3    H217098   2.128   5.611   5.015
 5698TIP3   OH217099   1.380   0.065   2.925
 5698TIP3    H117100   1.373   0.121   2.848
 5698TIP3    H217101   1.452   0.005   2.904
 5699TIP3   OH217102   2.828   1.538   2.705
 5699TIP3    H117103   2.891   1.596   2.748
 5699TIP3    H217104   2.787   1.490   2.777
 5700TIP3   OH217105   0.787   1.830   2.163
 5700TIP3    H117106   0.711   1.840   2.106
 5700TIP3    H217107   0.854   1.886   2.123
 5701TIP3   OH217108   0.715   1.330   0.454
 5701TIP3    H117109   0.734   1.411   0.501
 5701TIP3    H217110   0.715   1.263   0.522
 5702TIP3   OH217111   1.719   4.235   4.667
 5702TIP3    H117112   1.808   4.203   4.682
 5702TIP3    H217113   1.731   4.325   4.637
 5703TIP3   OH217114   3.698   4.435   3.093
 5703TIP3    H117115   3.695   4.489   3.015
 5703TIP3    H217116   3.626   4.372   3.082
 5704TIP3   OH217117   0.998   5.339   1.908
 5704TIP3    H117118   0.996   5.246   1.930
 5704TIP3    H217119   0.953   5.345   1.823
 5705TIP3   OH217120   5.562   1.029   2.398
 5705TIP3    H117121   5.613   1.039   2.318
 5705TIP3    H217122   5.617   1.066   2.467
 5706TIP3   OH217123   3.948   0.885   4.705
 5706TIP3    H117124   4.014   0.817   4.687
 5706TIP3    H217125   3.961   0.950   4.636
 5707TIP3   OH217126   5.527   2.904   2.814
 5707TIP3    H117127   5.611   2.914   2.859
 5707TIP3    H217128   5.463   2.893   2.884
 5708TIP3   OH217129   4.879   4.677   1.371
 5708TIP3    H117130   4.947   4.662   1.437
 5708TIP3    H217131   4.893   4.608   1.306
 5709TIP3   OH217132   0.524   5.664   4.248
 5709TIP3    H117133   0.506   5.576   4.281
 5709TIP3    H217134   0.507   5.722   4.322
 5710TIP3   OH217135   1.472   5.258   4.635
 5710TIP3    H117136   1.523   5.315   4.577
 5710TIP3    H217137   1.405   5.220   4.579
 5711TIP3   OH217138   0.363   3.839   0.467
 5711TIP3    H117139   0.381   3.918   0.519
 5711TIP3    H217140   0.286   3.799   0.509
 5712TIP3   OH217141   1.121   5.204   4.829
 5712TIP3    H117142   1.091   5.183   4.740
 5712TIP3    H217143   1.041   5.205   4.881
 5713TIP3   OH217144   0.421   0.508   3.014
 5713TIP3    H117145   0.497   0.500   3.070
 5713TIP3    H217146   0.350   0.537   3.072
 5714TIP3   OH217147   2.233   4.871   2.433
 5714TIP3    H117148   2.222   4.863   2.527
 5714TIP3    H217149   2.227   4.782   2.400
 5715TIP3   OH217150   0.466   3.260   4.049
 5715TIP3    H117151   0.378   3.294   4.031
 5715TIP3    H217152   0.455   3.165   4.053
 5716TIP3   OH217153   2.337   2.008   2.578
 5716TIP3    H117154   2.424   1.978   2.553
 5716TIP3    H217155   2.302   2.050   2.499
 5717TIP3   OH217156   4.427   5.011   3.016
 5717TIP3    H117157   4.465   5.076   3.075
 5717TIP3    H217158   4.351   5.055   2.977
 5718TIP3   OH217159   0.948   2.790   1.350
 5718TIP3    H117160   0.981   2.829   1.431
 5718TIP3    H217161   1.001   2.711   1.339
 5719TIP3   OH217162   4.044   2.489   3.901
 5719TIP3    H117163   4.112   2.556   3.903
 5719TIP3    H217164   4.059   2.437   3.980
 5720TIP3   OH217165   4.136   1.571   4.370
 5720TIP3    H117166   4.123   1.522   4.289
 5720TIP3    H217167   4.147   1.505   4.438
 5721TIP3   OH217168   1.474   4.616   1.943
 5721TIP3    H117169   1.408   4.651   2.002
 5721TIP3    H217170   1.534   4.689   1.928
 5722TIP3   OH217171   4.271   3.660   4.854
 5722TIP3    H117172   4.341   3.645   4.790
 5722TIP3    H217173   4.238   3.747   4.833
 5723TIP3   OH217174   4.376   3.134   4.553
 5723TIP3    H117175   4.358   3.102   4.641
 5723TIP3    H217176   4.455   3.187   4.562
 5724TIP3   OH217177   5.273   4.333   2.377
 5724TIP3    H117178   5.303   4.424   2.380
 5724TIP3    H217179   5.309   4.299   2.294
 5725TIP3   OH217180   3.859   2.203   2.455
 5725TIP3    H117181   3.952   2.219   2.468
 5725TIP3    H217182   3.817   2.243   2.531
 5726TIP3   OH217183   2.310   5.874   0.776
 5726TIP3    H117184   2.226   5.882   0.731
 5726TIP3    H217185   2.336   5.783   0.761
 5727TIP3   OH217186   1.830   2.422   2.342
 5727TIP3    H117187   1.786   2.361   2.282
 5727TIP3    H217188   1.881   2.365   2.400
 5728TIP3   OH217189   1.982   1.839   1.479
 5728TIP3    H117190   2.012   1.823   1.569
 5728TIP3    H217191   2.039   1.909   1.447
 5729TIP3   OH217192   5.039   2.414   1.458
 5729TIP3    H117193   5.112   2.367   1.500
 5729TIP3    H217194   4.991   2.346   1.411
 5730TIP3   OH217195   0.221   4.513   1.337
 5730TIP3    H117196   0.202   4.587   1.280
 5730TIP3    H217197   0.226   4.438   1.278
 5731TIP3   OH217198   4.511   2.382   0.781
 5731TIP3    H117199   4.590   2.432   0.801
 5731TIP3    H217200   4.495   2.329   0.859
 5732TIP3   OH217201   2.109   0.987   4.656
 5732TIP3    H117202   2.171   1.024   4.720
 5732TIP3    H217203   2.027   0.980   4.704
 5733TIP3   OH217204   5.669   1.017   3.876
 5733TIP3    H117205   5.607   1.081   3.840
 5733TIP3    H217206   5.732   1.003   3.805
 5734TIP3   OH217207   1.586   3.077   4.889
 5734TIP3    H117208   1.623   3.165   4.897
 5734TIP3    H217209   1.503   3.081   4.937
 5735TIP3   OH217210   0.048   0.006   2.387
 5735TIP3    H117211   0.041  -0.024   2.296
 5735TIP3    H217212   0.032   0.100   2.383
 5736TIP3   OH217213   0.906   3.868   0.919
 5736TIP3    H117214   0.891   3.792   0.862
 5736TIP3    H217215   0.853   3.850   0.997
 5737TIP3   OH217216   4.231   1.727   0.033
 5737TIP3    H117217   4.308   1.726   0.091
 5737TIP3    H217218   4.265   1.758  -0.051
 5738TIP3   OH217219   5.106   3.927   4.560
 5738TIP3    H117220   5.029   3.953   4.611
 5738TIP3    H217221   5.077   3.934   4.469
 5739TIP3   OH217222   2.083   0.347   4.890
 5739TIP3    H117223   2.091   0.397   4.972
 5739TIP3    H217224   2.163   0.368   4.841
 5740TIP3   OH217225   0.481   3.842   3.913
 5740TIP3    H117226   0.386   3.849   3.915
 5740TIP3    H217227   0.502   3.812   3.824
 5741TIP3   OH217228   5.521   3.814   1.753
 5741TIP3    H117229   5.553   3.724   1.750
 5741TIP3    H217230   5.599   3.866   1.772
 5742TIP3   OH217231   0.945   3.360   1.313
 5742TIP3    H117232   0.938   3.449   1.348
 5742TIP3    H217233   0.863   3.318   1.337
 5743TIP3   OH217234   4.618   3.448   4.476
 5743TIP3    H117235   4.652   3.394   4.548
 5743TIP3    H217236   4.576   3.385   4.417
 5744TIP3   OH217237   5.687   5.627   0.379
 5744TIP3    H117238   5.595   5.624   0.406
 5744TIP3    H217239   5.691   5.568   0.304
 5745TIP3   OH217240   1.090   1.698   3.122
 5745TIP3    H117241   1.150   1.772   3.116
 5745TIP3    H217242   1.113   1.656   3.205
 5746TIP3   OH217243   5.369   3.280   2.954
 5746TIP3    H117244   5.459   3.290   2.924
 5746TIP3    H217245   5.357   3.349   3.019
 5747TIP3   OH217246   2.747   2.109   1.637
 5747TIP3    H117247   2.691   2.039   1.604
 5747TIP3    H217248   2.762   2.086   1.729
 5748TIP3   OH217249   2.807   5.246   3.648
 5748TIP3    H117250   2.735   5.192   3.616
 5748TIP3    H217251   2.769   5.298   3.719
 5749TIP3   OH217252   4.887   1.213   2.085
 5749TIP3    H117253   4.860   1.280   2.149
 5749TIP3    H217254   4.808   1.197   2.033
 5750TIP3   OH217255   6.049   4.859   3.868
 5750TIP3    H117256   5.993   4.796   3.914
 5750TIP3    H217257   6.120   4.806   3.831
 5751TIP3   OH217258   0.566   0.992   3.587
 5751TIP3    H117259   0.477   0.988   3.622
 5751TIP3    H217260   0.611   0.918   3.629
 5752TIP3   OH217261   5.287   4.086   3.042
 5752TIP3    H117262   5.200   4.084   3.002
 5752TIP3    H217263   5.325   4.169   3.011
 5753TIP3   OH217264   5.079   5.237   1.540
 5753TIP3    H117265   5.066   5.326   1.507
 5753TIP3    H217266   5.009   5.225   1.604
 5754TIP3   OH217267   0.011   5.843   2.275
 5754TIP3    H117268   0.026   5.860   2.182
 5754TIP3    H217269  -0.005   5.930   2.313
 5755TIP3   OH217270   5.225   3.785   1.748
 5755TIP3    H117271   5.171   3.769   1.825
 5755TIP3    H217272   5.311   3.808   1.783
 5756TIP3   OH217273   2.236   1.729   3.873
 5756TIP3    H117274   2.216   1.794   3.941
 5756TIP3    H217275   2.224   1.776   3.791
 5757TIP3   OH217276   3.644   5.551   3.759
 5757TIP3    H117277   3.552   5.534   3.776
 5757TIP3    H217278   3.687   5.539   3.844
 5758TIP3   OH217279   3.481   5.635   4.087
 5758TIP3    H117280   3.429   5.625   4.008
 5758TIP3    H217281   3.547   5.701   4.064
 5759TIP3   OH217282   5.681   5.664   3.983
 5759TIP3    H117283   5.588   5.686   3.987
 5759TIP3    H217284   5.723   5.725   4.043
 5760TIP3   OH217285   2.778   0.993   2.472
 5760TIP3    H117286   2.870   1.015   2.463
 5760TIP3    H217287   2.753   1.028   2.558
 5761TIP3   OH217288   1.284   3.778   3.732
 5761TIP3    H117289   1.282   3.766   3.827
 5761TIP3    H217290   1.337   3.704   3.700
 5762TIP3   OH217291   1.378   4.486   5.198
 5762TIP3    H117292   1.472   4.499   5.210
 5762TIP3    H217293   1.347   4.567   5.158
 5763TIP3   OH217294   2.924   4.265   2.189
 5763TIP3    H117295   2.922   4.169   2.188
 5763TIP3    H217296   2.881   4.291   2.108
 5764TIP3   OH217297   0.589   1.376   3.785
 5764TIP3    H117298   0.556   1.466   3.777
 5764TIP3    H217299   0.599   1.362   3.879
 5765TIP3   OH217300   4.362   1.888   2.703
 5765TIP3    H117301   4.408   1.890   2.787
 5765TIP3    H217302   4.302   1.813   2.710
 5766TIP3   OH217303   5.309   5.237   2.749
 5766TIP3    H117304   5.333   5.247   2.841
 5766TIP3    H217305   5.382   5.275   2.700
 5767TIP3   OH217306   4.897   3.834   2.880
 5767TIP3    H117307   4.952   3.912   2.885
 5767TIP3    H217308   4.850   3.843   2.796
 5768TIP3   OH217309   3.549   0.075   2.503
 5768TIP3    H117310   3.611   0.007   2.476
 5768TIP3    H217311   3.524   0.119   2.421
 5769TIP3   OH217312   4.713   2.504   1.582
 5769TIP3    H117313   4.699   2.579   1.641
 5769TIP3    H217314   4.738   2.432   1.639
 5770TIP3   OH217315   5.969   2.553   3.975
 5770TIP3    H117316   5.961   2.486   4.043
 5770TIP3    H217317   6.046   2.603   3.998
 5771TIP3   OH217318   4.707   4.760   4.515
 5771TIP3    H117319   4.682   4.726   4.429
 5771TIP3    H217320   4.625   4.792   4.553
 5772TIP3   OH217321   1.019   0.170   2.918
 5772TIP3    H117322   0.926   0.166   2.894
 5772TIP3    H217323   1.059   0.096   2.873
 5773TIP3   OH217324   2.933   5.617   4.864
 5773TIP3    H117325   2.959   5.546   4.923
 5773TIP3    H217326   2.966   5.696   4.907
 5774TIP3   OH217327   4.427   0.060   4.943
 5774TIP3    H117328   4.457  -0.031   4.933
 5774TIP3    H217329   4.413   0.071   5.037
 5775TIP3   OH217330   0.177   2.501   2.430
 5775TIP3    H117331   0.174   2.417   2.384
 5775TIP3    H217332   0.269   2.527   2.425
 5776TIP3   OH217333   0.059   2.685   0.479
 5776TIP3    H117334  -0.028   2.703   0.516
 5776TIP3    H217335   0.116   2.674   0.555
 5777TIP3   OH217336   2.273   4.798   3.229
 5777TIP3    H117337   2.310   4.818   3.315
 5777TIP3    H217338   2.180   4.820   3.237
 5778TIP3   OH217339   3.125   4.999   0.950
 5778TIP3    H117340   3.144   4.974   0.860
 5778TIP3    H217341   3.060   5.070   0.943
 5779TIP3   OH217342   3.444   5.988   2.243
 5779TIP3    H117343   3.495   6.023   2.316
 5779TIP3    H217344   3.440   5.894   2.261
 5780TIP3   OH217345   0.760   3.891   2.949
 5780TIP3    H117346   0.830   3.880   3.013
 5780TIP3    H217347   0.683   3.850   2.989
 5781TIP3   OH217348   3.354   2.398   3.644
 5781TIP3    H117349   3.304   2.373   3.566
 5781TIP3    H217350   3.446   2.392   3.616
 5782TIP3   OH217351   3.229   0.049   0.158
 5782TIP3    H117352   3.152   0.045   0.101
 5782TIP3    H217353   3.195   0.081   0.242
 5783TIP3   OH217354   3.160   1.026   4.050
 5783TIP3    H117355   3.115   1.070   4.123
 5783TIP3    H217356   3.252   1.047   4.064
 5784TIP3   OH217357   1.001   2.006   2.066
 5784TIP3    H117358   1.086   1.963   2.078
 5784TIP3    H217359   1.018   2.075   2.002
 5785TIP3   OH217360   5.944  -0.001   2.643
 5785TIP3    H117361   6.039   0.004   2.630
 5785TIP3    H217362   5.911   0.083   2.612
 5786TIP3   OH217363   6.288   0.350   0.927
 5786TIP3    H117364   6.244   0.271   0.898
 5786TIP3    H217365   6.253   0.368   1.014
 5787TIP3   OH217366   2.625   2.080   1.952
 5787TIP3    H117367   2.577   2.152   1.992
 5787TIP3    H217368   2.559   2.031   1.902
 5788TIP3   OH217369   5.487   3.324   0.024
 5788TIP3    H117370   5.487   3.235   0.060
 5788TIP3    H217371   5.547   3.373   0.080
 5789TIP3   OH217372   5.685   1.139   1.743
 5789TIP3    H117373   5.622   1.194   1.696
 5789TIP3    H217374   5.696   1.183   1.828
 5790TIP3   OH217375   0.390   5.658   1.432
 5790TIP3    H117376   0.326   5.682   1.365
 5790TIP3    H217377   0.411   5.567   1.413
 5791TIP3   OH217378   0.698   4.581   4.818
 5791TIP3    H117379   0.746   4.567   4.736
 5791TIP3    H217380   0.744   4.526   4.882
 5792TIP3   OH217381   3.883   0.827   1.430
 5792TIP3    H117382   3.871   0.870   1.515
 5792TIP3    H217383   3.884   0.898   1.367
 5793TIP3   OH217384   2.977   5.697   1.817
 5793TIP3    H117385   2.889   5.660   1.828
 5793TIP3    H217386   3.013   5.652   1.740
 5794TIP3   OH217387   5.898   4.749   0.976
 5794TIP3    H117388   5.858   4.690   0.913
 5794TIP3    H217389   5.832   4.817   0.992
 5795TIP3   OH217390   3.385   2.270   4.186
 5795TIP3    H117391   3.375   2.320   4.105
 5795TIP3    H217392   3.308   2.214   4.191
 5796TIP3   OH217393   1.728   0.082   3.558
 5796TIP3    H117394   1.782   0.087   3.637
 5796TIP3    H217395   1.771   0.142   3.496
 5797TIP3   OH217396   3.381   2.241   3.067
 5797TIP3    H117397   3.306   2.301   3.066
 5797TIP3    H217398   3.343   2.155   3.086
 5798TIP3   OH217399   5.208   5.271   3.672
 5798TIP3    H117400   5.271   5.341   3.653
 5798TIP3    H217401   5.141   5.280   3.604
 5799TIP3   OH217402   0.610   0.369   4.467
 5799TIP3    H117403   0.579   0.440   4.524
 5799TIP3    H217404   0.569   0.290   4.503
 5800TIP3   OH217405   2.302   0.397   4.681
 5800TIP3    H117406   2.335   0.482   4.709
 5800TIP3    H217407   2.254   0.415   4.600
 5801TIP3   OH217408   3.710   3.928   4.129
 5801TIP3    H117409   3.627   3.895   4.095
 5801TIP3    H217410   3.759   3.849   4.151
 5802TIP3   OH217411   1.906   0.280   0.162
 5802TIP3    H117412   1.860   0.340   0.221
 5802TIP3    H217413   1.872   0.193   0.185
 5803TIP3   OH217414   2.069   2.521   2.861
 5803TIP3    H117415   2.067   2.609   2.898
 5803TIP3    H217416   1.983   2.509   2.822
 5804TIP3   OH217417   5.068   3.819   1.533
 5804TIP3    H117418   5.142   3.805   1.592
 5804TIP3    H217419   4.992   3.790   1.583
 5805TIP3   OH217420   2.385   5.915   2.855
 5805TIP3    H117421   2.383   5.919   2.951
 5805TIP3    H217422   2.366   5.824   2.834
 5806TIP3   OH217423   3.707   4.241   1.758
 5806TIP3    H117424   3.660   4.169   1.716
 5806TIP3    H217425   3.790   4.202   1.786
 5807TIP3   OH217426   0.892   0.367   4.521
 5807TIP3    H117427   0.816   0.405   4.476
 5807TIP3    H217428   0.869   0.372   4.614
 5808TIP3   OH217429   4.739   5.484   3.414
 5808TIP3    H117430   4.798   5.533   3.470
 5808TIP3    H217431   4.667   5.545   3.396
 5809TIP3   OH217432   5.890   2.144   1.316
 5809TIP3    H117433   5.804   2.161   1.278
 5809TIP3    H217434   5.910   2.054   1.291
 5810TIP3   OH217435   5.251   0.002   1.209
 5810TIP3    H117436   5.260   0.085   1.161
 5810TIP3    H217437   5.198  -0.053   1.152
 5811TIP3   OH217438   0.834   5.470   4.178
 5811TIP3    H117439   0.833   5.492   4.271
 5811TIP3    H217440   0.822   5.554   4.134
 5812TIP3   OH217441   4.203   3.271   0.565
 5812TIP3    H117442   4.222   3.305   0.478
 5812TIP3    H217443   4.136   3.204   0.551
 5813TIP3   OH217444   5.080   3.896   3.567
 5813TIP3    H117445   5.003   3.841   3.555
 5813TIP3    H217446   5.108   3.917   3.477
 5814TIP3   OH217447   1.566   0.811   4.771
 5814TIP3    H117448   1.483   0.819   4.725
 5814TIP3    H217449   1.550   0.851   4.856
 5815TIP3   OH217450   3.512   2.847   2.422
 5815TIP3    H117451   3.449   2.818   2.489
 5815TIP3    H217452   3.594   2.857   2.469
 5816TIP3   OH217453   2.172   3.096   4.915
 5816TIP3    H117454   2.192   3.145   4.836
 5816TIP3    H217455   2.098   3.039   4.892
 5817TIP3   OH217456   4.118   2.747   3.609
 5817TIP3    H117457   4.092   2.655   3.613
 5817TIP3    H217458   4.149   2.759   3.519
 5818TIP3   OH217459   0.320   0.480   1.338
 5818TIP3    H117460   0.246   0.455   1.283
 5818TIP3    H217461   0.379   0.528   1.280
 5819TIP3   OH217462   1.549   5.737   1.606
 5819TIP3    H117463   1.566   5.753   1.513
 5819TIP3    H217464   1.603   5.802   1.652
 5820TIP3   OH217465   2.952   1.963   3.334
 5820TIP3    H117466   3.038   1.922   3.339
 5820TIP3    H217467   2.897   1.912   3.393
 5821TIP3   OH217468   5.103   5.535   4.394
 5821TIP3    H117469   5.009   5.530   4.377
 5821TIP3    H217470   5.143   5.502   4.313
 5822TIP3   OH217471   0.201   5.257   3.309
 5822TIP3    H117472   0.141   5.289   3.241
 5822TIP3    H217473   0.248   5.185   3.267
 5823TIP3   OH217474   0.161   3.488   4.292
 5823TIP3    H117475   0.157   3.422   4.361
 5823TIP3    H217476   0.177   3.570   4.338
 5824TIP3   OH217477   2.171   3.810   0.711
 5824TIP3    H117478   2.134   3.885   0.665
 5824TIP3    H217479   2.102   3.745   0.712
 5825TIP3   OH217480   0.242   4.693   0.756
 5825TIP3    H117481   0.300   4.653   0.821
 5825TIP3    H217482   0.248   4.787   0.774
 5826TIP3   OH217483   2.943   3.151   1.299
 5826TIP3    H117484   2.913   3.067   1.332
 5826TIP3    H217485   2.994   3.129   1.221
 5827TIP3   OH217486   5.439   1.761   2.927
 5827TIP3    H117487   5.432   1.700   2.854
 5827TIP3    H217488   5.350   1.769   2.962
 5828TIP3   OH217489   4.419   1.325   4.758
 5828TIP3    H117490   4.451   1.235   4.764
 5828TIP3    H217491   4.467   1.363   4.684
 5829TIP3   OH217492   2.815   0.722   2.560
 5829TIP3    H117493   2.756   0.745   2.632
 5829TIP3    H217494   2.824   0.803   2.509
 5830TIP3   OH217495   5.169   3.544   2.404
 5830TIP3    H117496   5.239   3.491   2.441
 5830TIP3    H217497   5.141   3.601   2.476
 5831TIP3   OH217498   1.769   3.703   2.232
 5831TIP3    H117499   1.689   3.705   2.286
 5831TIP3    H217500   1.783   3.795   2.208
 5832TIP3   OH217501   3.104   5.649   3.283
 5832TIP3    H117502   3.031   5.626   3.341
 5832TIP3    H217503   3.063   5.664   3.198
 5833TIP3   OH217504   4.255   1.634   1.303
 5833TIP3    H117505   4.243   1.708   1.362
 5833TIP3    H217506   4.245   1.673   1.215
 5834TIP3   OH217507   2.027   1.396   4.204
 5834TIP3    H117508   2.083   1.461   4.246
 5834TIP3    H217509   2.088   1.342   4.153
 5835TIP3   OH217510   6.221   1.520   1.053
 5835TIP3    H117511   6.252   1.430   1.051
 5835TIP3    H217512   6.207   1.543   0.961
 5836TIP3   OH217513   0.611   4.864   2.489
 5836TIP3    H117514   0.669   4.854   2.564
 5836TIP3    H217515   0.603   4.776   2.452
 5837TIP3   OH217516   1.297   1.616   2.209
 5837TIP3    H117517   1.300   1.572   2.294
 5837TIP3    H217518   1.389   1.623   2.184
 5838TIP3   OH217519   1.245   1.564   4.485
 5838TIP3    H117520   1.323   1.551   4.431
 5838TIP3    H217521   1.244   1.658   4.503
 5839TIP3   OH217522   3.140   0.377   0.176
 5839TIP3    H117523   3.086   0.456   0.174
 5839TIP3    H217524   3.228   0.409   0.197
 5840TIP3   OH217525   1.297   5.480   0.112
 5840TIP3    H117526   1.355   5.504   0.185
 5840TIP3    H217527   1.321   5.389   0.091
 5841TIP3   OH217528   5.496   4.285   4.374
 5841TIP3    H117529   5.458   4.233   4.303
 5841TIP3    H217530   5.500   4.224   4.448
 5842TIP3   OH217531   3.569   5.331   2.792
 5842TIP3    H117532   3.578   5.328   2.697
 5842TIP3    H217533   3.624   5.260   2.824
 5843TIP3   OH217534   5.306   5.060   4.875
 5843TIP3    H117535   5.267   5.087   4.792
 5843TIP3    H217536   5.391   5.102   4.877
 5844TIP3   OH217537   2.700   4.495   3.617
 5844TIP3    H117538   2.676   4.403   3.606
 5844TIP3    H217539   2.699   4.531   3.528
 5845TIP3   OH217540   1.729   5.547   0.478
 5845TIP3    H117541   1.641   5.581   0.458
 5845TIP3    H217542   1.715   5.489   0.553
 5846TIP3   OH217543   3.189   1.240   1.657
 5846TIP3    H117544   3.257   1.180   1.626
 5846TIP3    H217545   3.107   1.203   1.624
 5847TIP3   OH217546   5.427   5.966   1.012
 5847TIP3    H117547   5.363   5.906   0.975
 5847TIP3    H217548   5.428   6.040   0.952
 5848TIP3   OH217549   4.558   3.141   1.269
 5848TIP3    H117550   4.630   3.183   1.316
 5848TIP3    H217551   4.553   3.188   1.186
 5849TIP3   OH217552   3.457   2.605   4.196
 5849TIP3    H117553   3.362   2.608   4.206
 5849TIP3    H217554   3.484   2.526   4.242
 5850TIP3   OH217555   6.063   3.138   5.155
 5850TIP3    H117556   6.045   3.143   5.248
 5850TIP3    H217557   5.991   3.087   5.119
 5851TIP3   OH217558   1.034   5.765   1.829
 5851TIP3    H117559   0.992   5.845   1.862
 5851TIP3    H217560   0.997   5.695   1.883
 5852TIP3   OH217561   1.306   1.331   2.338
 5852TIP3    H117562   1.290   1.323   2.244
 5852TIP3    H217563   1.297   1.241   2.371
 5853TIP3   OH217564   0.281   4.562   4.166
 5853TIP3    H117565   0.257   4.624   4.234
 5853TIP3    H217566   0.338   4.611   4.107
 5854TIP3   OH217567   5.191   0.313   0.184
 5854TIP3    H117568   5.183   0.403   0.153
 5854TIP3    H217569   5.286   0.296   0.186
 5855TIP3   OH217570   4.989   3.079   3.138
 5855TIP3    H117571   5.005   3.073   3.043
 5855TIP3    H217572   4.898   3.050   3.148
 5856TIP3   OH217573   4.114   1.754   0.430
 5856TIP3    H117574   4.209   1.745   0.426
 5856TIP3    H217575   4.081   1.696   0.361
 5857TIP3   OH217576   3.314   3.786   3.724
 5857TIP3    H117577   3.309   3.776   3.819
 5857TIP3    H217578   3.280   3.703   3.690
 5858TIP3   OH217579   4.657   5.164   4.860
 5858TIP3    H117580   4.713   5.211   4.922
 5858TIP3    H217581   4.578   5.144   4.911
 5859TIP3   OH217582   2.669   1.814   4.486
 5859TIP3    H117583   2.731   1.853   4.547
 5859TIP3    H217584   2.694   1.722   4.482
 5860TIP3   OH217585   4.767   3.091   3.896
 5860TIP3    H117586   4.777   3.135   3.980
 5860TIP3    H217587   4.736   3.159   3.836
 5861TIP3   OH217588   3.736   2.442   5.128
 5861TIP3    H117589   3.702   2.363   5.084
 5861TIP3    H217590   3.830   2.439   5.111
 5862TIP3   OH217591   5.539   0.694   1.479
 5862TIP3    H117592   5.557   0.614   1.530
 5862TIP3    H217593   5.459   0.729   1.519
 5863TIP3   OH217594   2.591   3.042   0.803
 5863TIP3    H117595   2.644   3.121   0.810
 5863TIP3    H217596   2.516   3.067   0.748
 5864TIP3   OH217597   6.070   3.674   2.200
 5864TIP3    H117598   6.106   3.759   2.227
 5864TIP3    H217599   6.002   3.695   2.137
 5865TIP3   OH217600   6.221   3.038   0.522
 5865TIP3    H117601   6.293   3.043   0.584
 5865TIP3    H217602   6.256   2.989   0.447
 5866TIP3   OH217603   0.041   3.184   4.094
 5866TIP3    H117604  -0.045   3.181   4.052
 5866TIP3    H217605   0.025   3.160   4.185
 5867TIP3   OH217606   2.763   0.934   4.826
 5867TIP3    H117607   2.768   1.012   4.771
 5867TIP3    H217608   2.669   0.918   4.836
 5868TIP3   OH217609   4.670   3.529   2.638
 5868TIP3    H117610   4.739   3.525   2.704
 5868TIP3    H217611   4.717   3.543   2.556
 5869TIP3   OH217612   1.281   1.691   1.171
 5869TIP3    H117613   1.215   1.631   1.205
 5869TIP3    H217614   1.353   1.635   1.144
 5870TIP3   OH217615   0.321   3.097   5.082
 5870TIP3    H117616   0.234   3.098   5.043
 5870TIP3    H217617   0.311   3.145   5.164
 5871TIP3   OH217618   1.918   0.352   3.829
 5871TIP3    H117619   1.985   0.414   3.855
 5871TIP3    H217620   1.901   0.300   3.907
 5872TIP3   OH217621   4.081   2.283   0.760
 5872TIP3    H117622   4.165   2.298   0.717
 5872TIP3    H217623   4.067   2.189   0.754
 5873TIP3   OH217624   3.606   5.192   4.669
 5873TIP3    H117625   3.693   5.178   4.631
 5873TIP3    H217626   3.568   5.104   4.674
 5874TIP3   OH217627   5.744   3.753   3.003
 5874TIP3    H117628   5.813   3.738   3.067
 5874TIP3    H217629   5.786   3.806   2.935
 5875TIP3   OH217630   1.519   1.697   1.541
 5875TIP3    H117631   1.561   1.700   1.627
 5875TIP3    H217632   1.589   1.720   1.480
 5876TIP3   OH217633   4.480   3.341   4.892
 5876TIP3    H117634   4.478   3.333   4.987
 5876TIP3    H217635   4.412   3.405   4.871
 5877TIP3   OH217636   5.833   4.646   2.856
 5877TIP3    H117637   5.899   4.644   2.925
 5877TIP3    H217638   5.766   4.584   2.885
 5878TIP3   OH217639   1.052   4.356   1.997
 5878TIP3    H117640   1.041   4.328   1.907
 5878TIP3    H217641   1.014   4.285   2.050
 5879TIP3   OH217642   5.168   4.531   0.246
 5879TIP3    H117643   5.237   4.576   0.295
 5879TIP3    H217644   5.129   4.599   0.191
 5880TIP3   OH217645   3.238   4.396   0.126
 5880TIP3    H117646   3.172   4.327   0.135
 5880TIP3    H217647   3.316   4.350   0.096
 5881TIP3   OH217648   1.372   5.039   2.106
 5881TIP3    H117649   1.344   4.964   2.054
 5881TIP3    H217650   1.464   5.019   2.128
 5882TIP3   OH217651   5.450   5.308   1.790
 5882TIP3    H117652   5.545   5.318   1.798
 5882TIP3    H217653   5.439   5.224   1.744
 5883TIP3   OH217654   1.256   3.207   4.548
 5883TIP3    H117655   1.173   3.160   4.558
 5883TIP3    H217656   1.236   3.297   4.573
 5884TIP3   OH217657   5.892   3.472   0.758
 5884TIP3    H117658   5.871   3.483   0.665
 5884TIP3    H217659   5.985   3.451   0.760
 5885TIP3   OH217660   3.279   5.619   4.261
 5885TIP3    H117661   3.291   5.639   4.354
 5885TIP3    H217662   3.367   5.623   4.224
 5886TIP3   OH217663   3.015   2.717   2.631
 5886TIP3    H117664   2.932   2.756   2.603
 5886TIP3    H217665   3.002   2.623   2.621
 5887TIP3   OH217666   4.220   3.210   1.560
 5887TIP3    H117667   4.306   3.208   1.602
 5887TIP3    H217668   4.238   3.229   1.468
 5888TIP3   OH217669   2.057   4.538   3.222
 5888TIP3    H117670   2.093   4.538   3.311
 5888TIP3    H217671   1.964   4.518   3.234
 5889TIP3   OH217672   1.794   5.863   4.368
 5889TIP3    H117673   1.733   5.827   4.304
 5889TIP3    H217674   1.847   5.789   4.396
 5890TIP3   OH217675   4.703   5.923   1.520
 5890TIP3    H117676   4.790   5.951   1.548
 5890TIP3    H217677   4.653   6.005   1.512
 5891TIP3   OH217678   4.121   5.494   3.590
 5891TIP3    H117679   4.081   5.581   3.583
 5891TIP3    H217680   4.122   5.475   3.684
 5892TIP3   OH217681   0.959   2.001   1.122
 5892TIP3    H117682   1.047   1.997   1.158
 5892TIP3    H217683   0.970   1.977   1.030
 5893TIP3   OH217684   3.822   5.615   4.292
 5893TIP3    H117685   3.891   5.678   4.269
 5893TIP3    H217686   3.766   5.664   4.353
 5894TIP3   OH217687   3.265   3.146   2.192
 5894TIP3    H117688   3.214   3.118   2.116
 5894TIP3    H217689   3.248   3.240   2.200
 5895TIP3   OH217690   4.832   4.812   2.175
 5895TIP3    H117691   4.849   4.807   2.081
 5895TIP3    H217692   4.917   4.837   2.213
 5896TIP3   OH217693   1.784   5.738   4.810
 5896TIP3    H117694   1.736   5.815   4.839
 5896TIP3    H217695   1.732   5.703   4.737
 5897TIP3   OH217696   2.228   3.180   1.338
 5897TIP3    H117697   2.172   3.145   1.408
 5897TIP3    H217698   2.214   3.275   1.340
 5898TIP3   OH217699   4.683   4.204   1.591
 5898TIP3    H117700   4.768   4.247   1.594
 5898TIP3    H217701   4.620   4.275   1.607
 5899TIP3   OH217702   0.391   3.669   1.833
 5899TIP3    H117703   0.331   3.619   1.888
 5899TIP3    H217704   0.476   3.628   1.847
 5900TIP3   OH217705   1.209   2.710   3.051
 5900TIP3    H117706   1.164   2.752   2.978
 5900TIP3    H217707   1.189   2.766   3.126
 5901TIP3   OH217708   0.441   1.369   1.283
 5901TIP3    H117709   0.475   1.390   1.370
 5901TIP3    H217710   0.356   1.413   1.279
 5902TIP3   OH217711   3.435   1.078   4.108
 5902TIP3    H117712   3.473   1.163   4.128
 5902TIP3    H217713   3.479   1.051   4.027
 5903TIP3   OH217714   5.275   2.135   3.685
 5903TIP3    H117715   5.181   2.130   3.668
 5903TIP3    H217716   5.313   2.061   3.639
 5904TIP3   OH217717   4.159   5.762   4.945
 5904TIP3    H117718   4.162   5.847   4.900
 5904TIP3    H217719   4.104   5.777   5.022
 5905TIP3   OH217720   4.034   5.780   3.033
 5905TIP3    H117721   4.064   5.869   3.049
 5905TIP3    H217722   4.111   5.734   2.998
 5906TIP3   OH217723   5.444   3.040   4.642
 5906TIP3    H117724   5.520   2.993   4.608
 5906TIP3    H217725   5.376   3.028   4.576
 5907TIP3   OH217726   2.977   4.733   2.628
 5907TIP3    H117727   3.056   4.697   2.589
 5907TIP3    H217728   2.942   4.661   2.681
 5908TIP3   OH217729   2.928   1.119   3.896
 5908TIP3    H117730   3.010   1.085   3.931
 5908TIP3    H217731   2.903   1.057   3.828
 5909TIP3   OH217732   3.087   4.182   0.141
 5909TIP3    H117733   3.148   4.144   0.078
 5909TIP3    H217734   3.001   4.155   0.110
 5910TIP3   OH217735   1.199   3.779   4.907
 5910TIP3    H117736   1.272   3.837   4.927
 5910TIP3    H217737   1.164   3.811   4.824
 5911TIP3   OH217738   1.323   0.909   3.371
 5911TIP3    H117739   1.370   0.861   3.440
 5911TIP3    H217740   1.379   0.985   3.353
 5912TIP3   OH217741   4.314   2.365   0.593
 5912TIP3    H117742   4.391   2.361   0.649
 5912TIP3    H217743   4.305   2.458   0.571
 5913TIP3   OH217744   1.559   4.299   0.421
 5913TIP3    H117745   1.648   4.288   0.386
 5913TIP3    H217746   1.531   4.210   0.442
 5914TIP3   OH217747   2.395   3.133   0.608
 5914TIP3    H117748   2.302   3.142   0.587
 5914TIP3    H217749   2.440   3.147   0.524
 5915TIP3   OH217750   3.838   0.786   3.073
 5915TIP3    H117751   3.801   0.873   3.089
 5915TIP3    H217752   3.825   0.740   3.156
 5916TIP3   OH217753   5.576   2.091   5.149
 5916TIP3    H117754   5.493   2.119   5.187
 5916TIP3    H217755   5.550   2.048   5.067
 5917TIP3   OH217756   6.320   4.446   3.496
 5917TIP3    H117757   6.235   4.483   3.522
 5917TIP3    H217758   6.384   4.510   3.526
 5918TIP3   OH217759   1.094   1.067   2.813
 5918TIP3    H117760   1.119   1.016   2.890
 5918TIP3    H217761   1.088   1.002   2.743
 5919TIP3   OH217762   5.136   0.932   1.890
 5919TIP3    H117763   5.118   0.969   1.976
 5919TIP3    H217764   5.049   0.915   1.853
 5920TIP3   OH217765   3.061   1.334   3.665
 5920TIP3    H117766   3.035   1.243   3.646
 5920TIP3    H217767   3.146   1.326   3.708
 5921TIP3   OH217768   2.584   0.941   3.770
 5921TIP3    H117769   2.657   0.882   3.749
 5921TIP3    H217770   2.607   1.024   3.727
 5922TIP3   OH217771   3.783   3.599   0.471
 5922TIP3    H117772   3.845   3.590   0.399
 5922TIP3    H217773   3.826   3.554   0.545
 5923TIP3   OH217774   0.219   2.129   1.561
 5923TIP3    H117775   0.256   2.053   1.606
 5923TIP3    H217776   0.255   2.204   1.607
 5924TIP3   OH217777   1.379   4.400   4.418
 5924TIP3    H117778   1.333   4.453   4.353
 5924TIP3    H217779   1.385   4.313   4.379
 5925TIP3   OH217780   5.427   4.563   0.556
 5925TIP3    H117781   5.352   4.619   0.577
 5925TIP3    H217782   5.466   4.603   0.478
 5926TIP3   OH217783   6.277   1.574   1.941
 5926TIP3    H117784   6.358   1.577   1.992
 5926TIP3    H217785   6.305   1.588   1.850
 5927TIP3   OH217786   4.874   4.974   4.961
 5927TIP3    H117787   4.858   4.993   5.054
 5927TIP3    H217788   4.795   5.004   4.917
 5928TIP3   OH217789   4.978   5.299   0.675
 5928TIP3    H117790   4.888   5.265   0.670
 5928TIP3    H217791   4.969   5.393   0.664
 5929TIP3   OH217792   6.274   3.755   2.619
 5929TIP3    H117793   6.255   3.686   2.555
 5929TIP3    H217794   6.190   3.796   2.635
 5930TIP3   OH217795   5.353   5.733   1.362
 5930TIP3    H117796   5.269   5.711   1.321
 5930TIP3    H217797   5.410   5.659   1.341
 5931TIP3   OH217798   1.738   3.043   1.215
 5931TIP3    H117799   1.648   3.074   1.217
 5931TIP3    H217800   1.787   3.109   1.265
 5932TIP3   OH217801   2.861   1.430   0.760
 5932TIP3    H117802   2.813   1.369   0.816
 5932TIP3    H217803   2.910   1.373   0.700
 5933TIP3   OH217804   0.994   5.836   1.551
 5933TIP3    H117805   0.988   5.774   1.623
 5933TIP3    H217806   0.903   5.851   1.524
 5934TIP3   OH217807   4.169   2.184   2.391
 5934TIP3    H117808   4.176   2.251   2.459
 5934TIP3    H217809   4.204   2.226   2.313
 5935TIP3   OH217810   3.130   2.879   2.318
 5935TIP3    H117811   3.086   2.940   2.377
 5935TIP3    H217812   3.202   2.931   2.280
 5936TIP3   OH217813   3.876   4.428   1.615
 5936TIP3    H117814   3.818   4.366   1.658
 5936TIP3    H217815   3.830   4.452   1.534
 5937TIP3   OH217816   2.154   4.851   0.177
 5937TIP3    H117817   2.180   4.943   0.176
 5937TIP3    H217818   2.065   4.852   0.214
 5938TIP3   OH217819   4.878   2.090   3.499
 5938TIP3    H117820   4.794   2.075   3.542
 5938TIP3    H217821   4.870   2.179   3.464
 5939TIP3   OH217822   5.851   5.895   0.802
 5939TIP3    H117823   5.787   5.896   0.873
 5939TIP3    H217824   5.910   5.968   0.821
 5940TIP3   OH217825   4.729   0.827   5.049
 5940TIP3    H117826   4.815   0.840   5.011
 5940TIP3    H217827   4.712   0.734   5.040
 5941TIP3   OH217828   6.058   3.692   2.894
 5941TIP3    H117829   6.049   3.621   2.958
 5941TIP3    H217830   6.011   3.660   2.817
 5942TIP3   OH217831   5.467   1.135   0.240
 5942TIP3    H117832   5.455   1.043   0.263
 5942TIP3    H217833   5.538   1.134   0.175
 5943TIP3   OH217834   4.063   5.134   0.681
 5943TIP3    H117835   4.156   5.131   0.659
 5943TIP3    H217836   4.045   5.227   0.695
 5944TIP3   OH217837   1.508   3.691   3.421
 5944TIP3    H117838   1.429   3.659   3.377
 5944TIP3    H217839   1.489   3.784   3.437
 5945TIP3   OH217840   2.484   0.792   0.136
 5945TIP3    H117841   2.530   0.760   0.214
 5945TIP3    H217842   2.532   0.754   0.063
 5946TIP3   OH217843   0.297   0.159   0.835
 5946TIP3    H117844   0.246   0.137   0.912
 5946TIP3    H217845   0.258   0.108   0.764
 5947TIP3   OH217846   4.409   3.925   2.264
 5947TIP3    H117847   4.413   4.013   2.226
 5947TIP3    H217848   4.490   3.883   2.237
 5948TIP3   OH217849   2.511   0.618   1.803
 5948TIP3    H117850   2.457   0.635   1.881
 5948TIP3    H217851   2.558   0.700   1.789
 5949TIP3   OH217852   4.557   2.961   2.083
 5949TIP3    H117853   4.616   3.000   2.019
 5949TIP3    H217854   4.593   2.989   2.168
 5950TIP3   OH217855   4.385   4.837   2.034
 5950TIP3    H117856   4.400   4.893   2.110
 5950TIP3    H217857   4.325   4.770   2.066
 5951TIP3   OH217858   3.584   0.864   1.224
 5951TIP3    H117859   3.674   0.832   1.235
 5951TIP3    H217860   3.564   0.848   1.132
 5952TIP3   OH217861   4.486   4.023   0.649
 5952TIP3    H117862   4.489   3.928   0.645
 5952TIP3    H217863   4.456   4.043   0.737
 5953TIP3   OH217864   0.912   0.237   3.188
 5953TIP3    H117865   0.828   0.244   3.143
 5953TIP3    H217866   0.972   0.205   3.121
 5954TIP3   OH217867   1.127   0.371   4.206
 5954TIP3    H117868   1.037   0.405   4.205
 5954TIP3    H217869   1.119   0.280   4.180
 5955TIP3   OH217870   5.017   5.863   1.264
 5955TIP3    H117871   5.057   5.786   1.225
 5955TIP3    H217872   4.950   5.890   1.200
 5956TIP3   OH217873   3.507   3.384   0.620
 5956TIP3    H117874   3.566   3.457   0.637
 5956TIP3    H217875   3.498   3.341   0.705
 5957TIP3   OH217876   2.911   1.564   4.694
 5957TIP3    H117877   2.990   1.536   4.648
 5957TIP3    H217878   2.862   1.615   4.629
 5958TIP3   OH217879   2.979   0.793   4.267
 5958TIP3    H117880   3.000   0.753   4.351
 5958TIP3    H217881   3.045   0.759   4.206
 5959TIP3   OH217882   0.464   5.525   1.832
 5959TIP3    H117883   0.426   5.474   1.760
 5959TIP3    H217884   0.405   5.599   1.843
 5960TIP3   OH217885   0.092   1.671   1.384
 5960TIP3    H117886   0.171   1.711   1.348
 5960TIP3    H217887   0.104   1.577   1.371
 5961TIP3   OH217888   2.658   2.254   1.384
 5961TIP3    H117889   2.662   2.334   1.437
 5961TIP3    H217890   2.700   2.187   1.439
 5962TIP3   OH217891   0.034   2.047   2.692
 5962TIP3    H117892   0.039   1.959   2.656
 5962TIP3    H217893  -0.051   2.081   2.662
 5963TIP3   OH217894   5.629   4.099   2.715
 5963TIP3    H117895   5.600   4.117   2.804
 5963TIP3    H217896   5.691   4.026   2.724
 5964TIP3   OH217897   2.989   5.714   4.176
 5964TIP3    H117898   2.957   5.794   4.218
 5964TIP3    H217899   3.013   5.741   4.088
 5965TIP3   OH217900   3.181   3.203   3.700
 5965TIP3    H117901   3.208   3.239   3.616
 5965TIP3    H217902   3.262   3.175   3.742
 5966TIP3   OH217903   4.965   0.732   2.227
 5966TIP3    H117904   4.982   0.826   2.227
 5966TIP3    H217905   5.014   0.698   2.301
 5967TIP3   OH217906   5.314   2.498   0.316
 5967TIP3    H117907   5.307   2.449   0.234
 5967TIP3    H217908   5.315   2.590   0.289
 5968TIP3   OH217909   5.408   0.307   4.427
 5968TIP3    H117910   5.337   0.283   4.367
 5968TIP3    H217911   5.483   0.324   4.370
 5969TIP3   OH217912   5.942   1.661   3.489
 5969TIP3    H117913   5.857   1.635   3.453
 5969TIP3    H217914   5.980   1.579   3.519
 5970TIP3   OH217915   0.531   0.307   2.860
 5970TIP3    H117916   0.520   0.389   2.909
 5970TIP3    H217917   0.449   0.259   2.875
 5971TIP3   OH217918   6.329   2.058   4.402
 5971TIP3    H117919   6.357   1.990   4.463
 5971TIP3    H217920   6.322   2.012   4.318
 5972TIP3   OH217921   1.787   5.151   3.581
 5972TIP3    H117922   1.717   5.190   3.529
 5972TIP3    H217923   1.749   5.069   3.614
 5973TIP3   OH217924   0.625   0.668   4.509
 5973TIP3    H117925   0.692   0.678   4.442
 5973TIP3    H217926   0.542   0.682   4.463
 5974TIP3   OH217927   4.274   0.626   1.838
 5974TIP3    H117928   4.356   0.584   1.813
 5974TIP3    H217929   4.225   0.559   1.885
 5975TIP3   OH217930   2.295   2.573   3.490
 5975TIP3    H117931   2.291   2.479   3.507
 5975TIP3    H217932   2.386   2.589   3.464
 5976TIP3   OH217933   3.971   1.359   2.423
 5976TIP3    H117934   3.922   1.404   2.353
 5976TIP3    H217935   4.059   1.396   2.417
 5977TIP3   OH217936   0.829   0.997   2.442
 5977TIP3    H117937   0.837   0.996   2.347
 5977TIP3    H217938   0.851   1.087   2.468
 5978TIP3   OH217939   6.138   3.038   4.878
 5978TIP3    H117940   6.125   3.129   4.903
 5978TIP3    H217941   6.054   3.011   4.839
 5979TIP3   OH217942   1.031   1.268   1.560
 5979TIP3    H117943   1.059   1.345   1.610
 5979TIP3    H217944   1.108   1.211   1.557
 5980TIP3   OH217945   0.039   4.617   3.242
 5980TIP3    H117946   0.040   4.620   3.338
 5980TIP3    H217947   0.120   4.662   3.217
 5981TIP3   OH217948   0.251   5.004   3.132
 5981TIP3    H117949   0.315   4.947   3.089
 5981TIP3    H217950   0.226   5.067   3.064
 5982TIP3   OH217951   4.289   1.910   1.407
 5982TIP3    H117952   4.207   1.874   1.442
 5982TIP3    H217953   4.324   1.963   1.479
 5983TIP3   OH217954   5.613   2.242   2.916
 5983TIP3    H117955   5.524   2.277   2.922
 5983TIP3    H217956   5.657   2.297   2.851
 5984TIP3   OH217957   5.279   3.695   4.559
 5984TIP3    H117958   5.221   3.764   4.528
 5984TIP3    H217959   5.335   3.738   4.624
 5985TIP3   OH217960   4.504   0.407   0.970
 5985TIP3    H117961   4.555   0.401   0.890
 5985TIP3    H217962   4.566   0.388   1.040
 5986TIP3   OH217963   0.338   0.461   0.523
 5986TIP3    H117964   0.254   0.415   0.528
 5986TIP3    H217965   0.347   0.502   0.609
 5987TIP3   OH217966   1.785   4.046   1.930
 5987TIP3    H117967   1.844   3.990   1.982
 5987TIP3    H217968   1.798   4.133   1.966
 5988TIP3   OH217969   3.144   1.268   0.951
 5988TIP3    H117970   3.159   1.351   0.997
 5988TIP3    H217971   3.141   1.202   1.020
 5989TIP3   OH217972   0.896   0.216   0.577
 5989TIP3    H117973   0.986   0.234   0.604
 5989TIP3    H217974   0.875   0.287   0.516
 5990TIP3   OH217975   2.003   4.113   4.108
 5990TIP3    H117976   2.020   4.032   4.157
 5990TIP3    H217977   1.978   4.176   4.175
 5991TIP3   OH217978   5.965   4.891   4.237
 5991TIP3    H117979   5.973   4.864   4.329
 5991TIP3    H217980   5.910   4.969   4.239
 5992TIP3   OH217981   0.291   3.699   1.086
 5992TIP3    H117982   0.386   3.710   1.075
 5992TIP3    H217983   0.257   3.698   0.997
 5993TIP3   OH217984   1.462   0.868   0.303
 5993TIP3    H117985   1.465   0.774   0.323
 5993TIP3    H217986   1.539   0.883   0.248
 5994TIP3   OH217987   3.191   1.810   3.995
 5994TIP3    H117988   3.099   1.782   4.002
 5994TIP3    H217989   3.228   1.794   4.082
 5995TIP3   OH217990   1.619   1.197   1.041
 5995TIP3    H117991   1.528   1.182   1.017
 5995TIP3    H217992   1.653   1.110   1.060
 5996TIP3   OH217993   1.686   2.707   3.299
 5996TIP3    H117994   1.635   2.757   3.363
 5996TIP3    H217995   1.622   2.679   3.233
 5997TIP3   OH217996   2.503   2.159   3.902
 5997TIP3    H117997   2.578   2.100   3.904
 5997TIP3    H217998   2.494   2.188   3.993
 5998TIP3   OH217999   0.694   4.489   0.192
 5998TIP3    H118000   0.784   4.514   0.210
 5998TIP3    H218001   0.679   4.412   0.248
 5999TIP3   OH218002   4.475   0.149   0.150
 5999TIP3    H118003   4.501   0.237   0.174
 5999TIP3    H218004   4.387   0.138   0.188
 6000TIP3   OH218005   0.168   3.657   0.542
 6000TIP3    H118006   0.149   3.579   0.489
 6000TIP3    H218007   0.091   3.713   0.530
 6001TIP3   OH218008   2.071   1.448   0.861
 6001TIP3    H118009   2.043   1.361   0.833
 6001TIP3    H218010   1.997   1.482   0.912
 6002TIP3   OH218011   4.654   1.735   2.767
 6002TIP3    H118012   4.626   1.826   2.776
 6002TIP3    H218013   4.688   1.729   2.678
 6003TIP3   OH218014   5.038   0.583   4.522
 6003TIP3    H118015   4.997   0.502   4.552
 6003TIP3    H218016   5.132   0.563   4.522
 6004TIP3   OH218017   1.592   3.781   1.755
 6004TIP3    H118018   1.616   3.874   1.752
 6004TIP3    H218019   1.639   3.747   1.831
 6005TIP3   OH218020   2.080   0.110   4.425
 6005TIP3    H118021   2.114   0.094   4.337
 6005TIP3    H218022   2.083   0.205   4.436
 6006TIP3   OH218023   1.709   4.050   4.456
 6006TIP3    H118024   1.638   3.986   4.456
 6006TIP3    H218025   1.685   4.113   4.524
 6007TIP3   OH218026   4.667   1.414   2.103
 6007TIP3    H118027   4.693   1.445   2.017
 6007TIP3    H218028   4.649   1.493   2.153
 6008TIP3   OH218029   5.881   3.691   0.409
 6008TIP3    H118030   5.841   3.776   0.392
 6008TIP3    H218031   5.922   3.667   0.326
 6009TIP3   OH218032   3.588   2.965   1.580
 6009TIP3    H118033   3.671   2.980   1.624
 6009TIP3    H218034   3.530   2.934   1.650
 6010TIP3   OH218035   3.329   1.496   2.397
 6010TIP3    H118036   3.365   1.518   2.311
 6010TIP3    H218037   3.243   1.458   2.379
 6011TIP3   OH218038   2.964   3.360   0.650
 6011TIP3    H118039   3.017   3.423   0.698
 6011TIP3    H218040   3.026   3.314   0.594
 6012TIP3   OH218041   1.699   3.786   3.948
 6012TIP3    H118042   1.662   3.810   3.863
 6012TIP3    H218043   1.674   3.857   4.007
 6013TIP3   OH218044   1.174   5.213   1.419
 6013TIP3    H118045   1.177   5.119   1.438
 6013TIP3    H218046   1.223   5.223   1.338
 6014TIP3   OH218047   3.257   0.555   4.436
 6014TIP3    H118048   3.179   0.609   4.446
 6014TIP3    H218049   3.238   0.475   4.485
 6015TIP3   OH218050   4.214   5.570   4.085
 6015TIP3    H118051   4.232   5.595   3.995
 6015TIP3    H218052   4.280   5.614   4.137
 6016TIP3   OH218053   5.632   0.159   2.766
 6016TIP3    H118054   5.602   0.093   2.828
 6016TIP3    H218055   5.555   0.214   2.751
 6017TIP3   OH218056   5.370   1.255   1.837
 6017TIP3    H118057   5.367   1.209   1.920
 6017TIP3    H218058   5.340   1.190   1.773
 6018TIP3   OH218059   3.882   2.969   3.840
 6018TIP3    H118060   3.793   2.963   3.875
 6018TIP3    H218061   3.889   3.058   3.806
 6019TIP3   OH218062   4.734   3.433   0.150
 6019TIP3    H118063   4.791   3.385   0.090
 6019TIP3    H218064   4.651   3.443   0.103
 6020TIP3   OH218065   3.943   3.600   4.032
 6020TIP3    H118066   3.848   3.587   4.027
 6020TIP3    H218067   3.974   3.525   4.083
 6021TIP3   OH218068   3.281   4.219   3.243
 6021TIP3    H118069   3.329   4.227   3.160
 6021TIP3    H218070   3.195   4.255   3.224
 6022TIP3   OH218071   0.730   0.842   3.734
 6022TIP3    H118072   0.814   0.804   3.712
 6022TIP3    H218073   0.749   0.933   3.756
 6023TIP3   OH218074   1.483   4.606   1.558
 6023TIP3    H118075   1.430   4.527   1.561
 6023TIP3    H218076   1.448   4.656   1.484
 6024TIP3   OH218077   5.579   5.045   3.163
 6024TIP3    H118078   5.642   4.973   3.162
 6024TIP3    H218079   5.521   5.024   3.236
 6025TIP3   OH218080   4.653   3.971   3.951
 6025TIP3    H118081   4.721   4.017   3.901
 6025TIP3    H218082   4.683   3.880   3.953
 6026TIP3   OH218083   0.580   1.145   0.961
 6026TIP3    H118084   0.602   1.194   1.040
 6026TIP3    H218085   0.586   1.053   0.987
 6027TIP3   OH218086   4.962   1.274   4.012
 6027TIP3    H118087   4.894   1.308   4.070
 6027TIP3    H218088   4.964   1.180   4.029
 6028TIP3   OH218089   2.549   3.902   3.077
 6028TIP3    H118090   2.623   3.862   3.031
 6028TIP3    H218091   2.558   3.996   3.059
 6029TIP3   OH218092   5.416   0.993   3.435
 6029TIP3    H118093   5.473   1.055   3.480
 6029TIP3    H218094   5.476   0.932   3.391
 6030TIP3   OH218095   5.738   2.854   1.841
 6030TIP3    H118096   5.664   2.829   1.896
 6030TIP3    H218097   5.812   2.861   1.902
 6031TIP3   OH218098   0.295   4.285   3.653
 6031TIP3    H118099   0.337   4.291   3.739
 6031TIP3    H218100   0.201   4.289   3.671
 6032TIP3   OH218101   4.771   2.408   2.130
 6032TIP3    H118102   4.707   2.466   2.172
 6032TIP3    H218103   4.844   2.404   2.193
 6033TIP3   OH218104   6.170   2.237   2.297
 6033TIP3    H118105   6.090   2.214   2.344
 6033TIP3    H218106   6.168   2.333   2.292
 6034TIP3   OH218107   4.571   5.224   3.223
 6034TIP3    H118108   4.650   5.265   3.189
 6034TIP3    H218109   4.508   5.296   3.231
 6035TIP3   OH218110   5.722   2.071   1.997
 6035TIP3    H118111   5.676   2.058   2.080
 6035TIP3    H218112   5.794   2.009   1.999
 6036TIP3   OH218113   3.298   2.697   0.573
 6036TIP3    H118114   3.358   2.622   0.576
 6036TIP3    H218115   3.352   2.772   0.596
 6037TIP3   OH218116   1.536   2.097   2.792
 6037TIP3    H118117   1.609   2.049   2.751
 6037TIP3    H218118   1.567   2.188   2.795
 6038TIP3   OH218119   3.273   2.574   1.171
 6038TIP3    H118120   3.217   2.619   1.234
 6038TIP3    H218121   3.230   2.490   1.155
 6039TIP3   OH218122   2.638   4.481   2.505
 6039TIP3    H118123   2.551   4.497   2.541
 6039TIP3    H218124   2.641   4.536   2.426
 6040TIP3   OH218125   4.840   2.866   0.508
 6040TIP3    H118126   4.876   2.870   0.596
 6040TIP3    H218127   4.916   2.871   0.450
 6041TIP3   OH218128   6.022   1.184   3.812
 6041TIP3    H118129   5.976   1.190   3.896
 6041TIP3    H218130   5.971   1.122   3.760
 6042TIP3   OH218131   2.509   3.009   4.567
 6042TIP3    H118132   2.498   3.104   4.564
 6042TIP3    H218133   2.479   2.984   4.654
 6043TIP3   OH218134   1.404   4.394   3.435
 6043TIP3    H118135   1.342   4.413   3.365
 6043TIP3    H218136   1.370   4.315   3.477
 6044TIP3   OH218137   5.852   3.704   4.558
 6044TIP3    H118138   5.819   3.794   4.554
 6044TIP3    H218139   5.806   3.665   4.633
 6045TIP3   OH218140   0.395   3.039   1.476
 6045TIP3    H118141   0.333   2.968   1.457
 6045TIP3    H218142   0.383   3.101   1.404
 6046TIP3   OH218143   4.504   0.500   4.057
 6046TIP3    H118144   4.463   0.579   4.023
 6046TIP3    H218145   4.524   0.521   4.148
 6047TIP3   OH218146   1.350   5.636   3.101
 6047TIP3    H118147   1.363   5.568   3.036
 6047TIP3    H218148   1.256   5.634   3.119
 6048TIP3   OH218149   5.395   2.429   2.650
 6048TIP3    H118150   5.489   2.410   2.647
 6048TIP3    H218151   5.390   2.522   2.669
 6049TIP3   OH218152   6.341   2.404   2.138
 6049TIP3    H118153   6.276   2.334   2.136
 6049TIP3    H218154   6.365   2.415   2.046
 6050TIP3   OH218155   2.781   3.809   2.943
 6050TIP3    H118156   2.779   3.713   2.943
 6050TIP3    H218157   2.792   3.832   2.851
 6051TIP3   OH218158   4.096   3.762   1.054
 6051TIP3    H118159   4.049   3.845   1.065
 6051TIP3    H218160   4.065   3.707   1.126
 6052TIP3   OH218161   3.748   2.878   4.703
 6052TIP3    H118162   3.655   2.893   4.691
 6052TIP3    H218163   3.753   2.822   4.780
 6053TIP3   OH218164   1.596   5.240   4.222
 6053TIP3    H118165   1.570   5.307   4.285
 6053TIP3    H218166   1.627   5.167   4.275
 6054TIP3   OH218167   2.210   2.757   3.807
 6054TIP3    H118168   2.187   2.784   3.718
 6054TIP3    H218169   2.305   2.751   3.807
 6055TIP3   OH218170   4.543   0.608   2.450
 6055TIP3    H118171   4.457   0.632   2.416
 6055TIP3    H218172   4.596   0.590   2.372
 6056TIP3   OH218173   3.816   5.353   4.241
 6056TIP3    H118174   3.814   5.446   4.260
 6056TIP3    H218175   3.909   5.332   4.230
 6057TIP3   OH218176   0.474   3.391   5.126
 6057TIP3    H118177   0.563   3.364   5.103
 6057TIP3    H218178   0.478   3.410   5.220
 6058TIP3   OH218179   2.387   1.455   1.663
 6058TIP3    H118180   2.324   1.523   1.686
 6058TIP3    H218181   2.364   1.381   1.720
 6059TIP3   OH218182   4.898   4.041   0.853
 6059TIP3    H118183   4.817   4.015   0.896
 6059TIP3    H218184   4.872   4.067   0.765
 6060TIP3   OH218185   4.523   5.765   4.605
 6060TIP3    H118186   4.537   5.686   4.552
 6060TIP3    H218187   4.608   5.782   4.645
 6061TIP3   OH218188   1.355   3.556   1.977
 6061TIP3    H118189   1.302   3.563   2.056
 6061TIP3    H218190   1.397   3.641   1.968
 6062TIP3   OH218191   4.183   5.318   2.969
 6062TIP3    H118192   4.178   5.375   3.045
 6062TIP3    H218193   4.173   5.229   3.005
 6063TIP3   OH218194   3.763   3.261   2.212
 6063TIP3    H118195   3.754   3.352   2.185
 6063TIP3    H218196   3.705   3.213   2.154
 6064TIP3   OH218197   3.833   4.087   5.077
 6064TIP3    H118198   3.831   4.163   5.019
 6064TIP3    H218199   3.779   4.021   5.033
 6065TIP3   OH218200   0.623   0.387   2.171
 6065TIP3    H118201   0.704   0.382   2.222
 6065TIP3    H218202   0.649   0.369   2.081
 6066TIP3   OH218203   2.353   1.384   3.439
 6066TIP3    H118204   2.367   1.436   3.360
 6066TIP3    H218205   2.266   1.346   3.429
 6067TIP3   OH218206   5.658   4.895   0.290
 6067TIP3    H118207   5.626   4.978   0.325
 6067TIP3    H218208   5.751   4.911   0.272
 6068TIP3   OH218209   1.936   2.598   3.898
 6068TIP3    H118210   1.971   2.627   3.982
 6068TIP3    H218211   1.995   2.635   3.832
 6069TIP3   OH218212   2.650   3.482   2.422
 6069TIP3    H118213   2.604   3.542   2.481
 6069TIP3    H218214   2.588   3.469   2.350
 6070TIP3   OH218215   3.101   4.637   0.795
 6070TIP3    H118216   3.037   4.670   0.732
 6070TIP3    H218217   3.175   4.696   0.787
 6071TIP3   OH218218   6.198   1.735   4.486
 6071TIP3    H118219   6.110   1.726   4.525
 6071TIP3    H218220   6.250   1.775   4.555
 6072TIP3   OH218221   2.058   1.305   2.893
 6072TIP3    H118222   1.993   1.286   2.960
 6072TIP3    H218223   2.078   1.219   2.854
 6073TIP3   OH218224   3.212   1.439   1.445
 6073TIP3    H118225   3.228   1.396   1.529
 6073TIP3    H218226   3.270   1.394   1.384
 6074TIP3   OH218227   0.770   2.987   1.607
 6074TIP3    H118228   0.736   3.001   1.518
 6074TIP3    H218229   0.863   3.009   1.601
 6075TIP3   OH218230   2.632   3.868   3.900
 6075TIP3    H118231   2.562   3.861   3.965
 6075TIP3    H218232   2.658   3.777   3.885
 6076TIP3   OH218233   5.726   0.037   3.679
 6076TIP3    H118234   5.693  -0.053   3.672
 6076TIP3    H218235   5.715   0.059   3.771
 6077TIP3   OH218236   2.866   4.031   0.031
 6077TIP3    H118237   2.872   3.972  -0.045
 6077TIP3    H218238   2.842   3.974   0.104
 6078TIP3   OH218239   3.274   2.331   3.378
 6078TIP3    H118240   3.336   2.260   3.360
 6078TIP3    H218241   3.191   2.300   3.343
 6079TIP3   OH218242   1.691   4.687   1.718
 6079TIP3    H118243   1.748   4.750   1.674
 6079TIP3    H218244   1.618   4.675   1.657
 6080TIP3   OH218245   4.776   1.570   0.027
 6080TIP3    H118246   4.789   1.644   0.086
 6080TIP3    H218247   4.848   1.510   0.047
 6081TIP3   OH218248   0.664   2.895   4.722
 6081TIP3    H118249   0.712   2.858   4.648
 6081TIP3    H218250   0.571   2.885   4.698
 6082TIP3   OH218251   4.236   1.422   2.209
 6082TIP3    H118252   4.248   1.470   2.291
 6082TIP3    H218253   4.287   1.470   2.144
 6083TIP3   OH218254   0.168   1.223   3.640
 6083TIP3    H118255   0.127   1.273   3.711
 6083TIP3    H218256   0.137   1.265   3.560
 6084TIP3   OH218257   5.012   4.840   2.586
 6084TIP3    H118258   4.968   4.755   2.588
 6084TIP3    H218259   4.965   4.892   2.650
 6085TIP3   OH218260   3.274   3.558   0.533
 6085TIP3    H118261   3.331   3.482   0.543
 6085TIP3    H218262   3.241   3.551   0.443
 6086TIP3   OH218263   4.449   4.710   1.141
 6086TIP3    H118264   4.360   4.713   1.175
 6086TIP3    H218265   4.483   4.626   1.171
 6087TIP3   OH218266   2.996   2.337   2.913
 6087TIP3    H118267   2.998   2.277   2.987
 6087TIP3    H218268   3.072   2.394   2.926
 6088TIP3   OH218269   4.283   4.268   0.653
 6088TIP3    H118270   4.304   4.260   0.560
 6088TIP3    H218271   4.333   4.344   0.683
 6089TIP3   OH218272   2.818   0.443   4.146
 6089TIP3    H118273   2.781   0.531   4.143
 6089TIP3    H218274   2.911   0.456   4.165
 6090TIP3   OH218275   4.480   4.510   4.084
 6090TIP3    H118276   4.497   4.428   4.037
 6090TIP3    H218277   4.454   4.572   4.016
 6091TIP3   OH218278   0.926   0.377   3.422
 6091TIP3    H118279   1.016   0.383   3.391
 6091TIP3    H218280   0.882   0.319   3.360
 6092TIP3   OH218281   4.739   5.279   2.503
 6092TIP3    H118282   4.715   5.335   2.428
 6092TIP3    H218283   4.787   5.337   2.561
 6093TIP3   OH218284   5.885   0.660   2.872
 6093TIP3    H118285   5.917   0.717   2.942
 6093TIP3    H218286   5.860   0.579   2.916
 6094TIP3   OH218287   1.371   5.366   3.439
 6094TIP3    H118288   1.417   5.425   3.379
 6094TIP3    H218289   1.333   5.299   3.382
 6095TIP3   OH218290   5.987   1.688   3.023
 6095TIP3    H118291   6.004   1.636   2.945
 6095TIP3    H218292   6.051   1.657   3.087
 6096TIP3   OH218293   0.935   4.262   3.568
 6096TIP3    H118294   0.926   4.306   3.652
 6096TIP3    H218295   0.907   4.172   3.584
 6097TIP3   OH218296   1.378   3.699   4.285
 6097TIP3    H118297   1.307   3.650   4.325
 6097TIP3    H218298   1.440   3.632   4.256
 6098TIP3   OH218299   3.796   1.353   1.438
 6098TIP3    H118300   3.755   1.282   1.389
 6098TIP3    H218301   3.885   1.321   1.457
 6099TIP3   OH218302   2.472   0.421   0.205
 6099TIP3    H118303   2.545   0.375   0.247
 6099TIP3    H218304   2.476   0.510   0.240
 6100TIP3   OH218305   0.227   2.333   3.870
 6100TIP3    H118306   0.213   2.325   3.775
 6100TIP3    H218307   0.243   2.244   3.899
 6101TIP3   OH218308   2.185   3.649   3.438
 6101TIP3    H118309   2.091   3.652   3.423
 6101TIP3    H218310   2.212   3.566   3.399
 6102TIP3   OH218311   5.807   0.235   1.446
 6102TIP3    H118312   5.800   0.189   1.362
 6102TIP3    H218313   5.770   0.174   1.510
 6103TIP3   OH218314   2.007   5.636   2.457
 6103TIP3    H118315   2.072   5.684   2.509
 6103TIP3    H218316   1.976   5.700   2.392
 6104TIP3   OH218317   1.565   5.585   2.213
 6104TIP3    H118318   1.518   5.655   2.258
 6104TIP3    H218319   1.634   5.629   2.165
 6105TIP3   OH218320   1.958   4.821   1.874
 6105TIP3    H118321   1.934   4.906   1.836
 6105TIP3    H218322   1.879   4.794   1.922
 6106TIP3   OH218323   1.016   4.534   0.290
 6106TIP3    H118324   1.101   4.559   0.326
 6106TIP3    H218325   0.961   4.520   0.366
 6107TIP3   OH218326   3.350   5.455   0.070
 6107TIP3    H118327   3.279   5.485   0.013
 6107TIP3    H218328   3.306   5.407   0.140
 6108TIP3   OH218329   3.453   0.978   3.195
 6108TIP3    H118330   3.467   0.897   3.145
 6108TIP3    H218331   3.374   1.016   3.158
 6109TIP3   OH218332   1.601   5.274   1.297
 6109TIP3    H118333   1.641   5.220   1.229
 6109TIP3    H218334   1.517   5.301   1.261
 6110TIP3   OH218335   0.974   2.435   2.633
 6110TIP3    H118336   1.052   2.381   2.646
 6110TIP3    H218337   0.984   2.470   2.544
 6111TIP3   OH218338   0.757   3.824   4.022
 6111TIP3    H118339   0.677   3.776   4.002
 6111TIP3    H218340   0.747   3.850   4.113
 6112TIP3   OH218341   4.542   2.815   5.079
 6112TIP3    H118342   4.621   2.835   5.029
 6112TIP3    H218343   4.494   2.752   5.025
 6113TIP3   OH218344   5.108   5.807   0.470
 6113TIP3    H118345   5.169   5.758   0.414
 6113TIP3    H218346   5.087   5.885   0.419
 6114TIP3   OH218347   2.791   1.900   2.053
 6114TIP3    H118348   2.733   1.826   2.070
 6114TIP3    H218349   2.733   1.970   2.021
 6115TIP3   OH218350   1.766   4.391   1.207
 6115TIP3    H118351   1.691   4.368   1.153
 6115TIP3    H218352   1.801   4.308   1.239
 6116TIP3   OH218353   5.724   1.294   0.689
 6116TIP3    H118354   5.726   1.315   0.596
 6116TIP3    H218355   5.753   1.203   0.694
 6117TIP3   OH218356   2.128   5.224   4.836
 6117TIP3    H118357   2.150   5.276   4.913
 6117TIP3    H218358   2.069   5.156   4.869
 6118TIP3   OH218359   4.477   5.475   2.969
 6118TIP3    H118360   4.524   5.391   2.966
 6118TIP3    H218361   4.404   5.463   2.908
 6119TIP3   OH218362   1.422   5.293   1.824
 6119TIP3    H118363   1.460   5.337   1.749
 6119TIP3    H218364   1.389   5.364   1.880
 6120TIP3   OH218365   5.075   3.722   2.599
 6120TIP3    H118366   5.032   3.806   2.582
 6120TIP3    H218367   5.161   3.746   2.634
 6121TIP3   OH218368   0.482   3.556   4.887
 6121TIP3    H118369   0.389   3.545   4.866
 6121TIP3    H218370   0.488   3.535   4.980
 6122TIP3   OH218371   5.787   1.843   2.249
 6122TIP3    H118372   5.800   1.784   2.175
 6122TIP3    H218373   5.864   1.829   2.304
 6123TIP3   OH218374   5.223   4.457   1.344
 6123TIP3    H118375   5.219   4.494   1.255
 6123TIP3    H218376   5.203   4.364   1.332
 6124TIP3   OH218377   5.858   4.490   4.151
 6124TIP3    H118378   5.824   4.477   4.240
 6124TIP3    H218379   5.913   4.414   4.135
 6125TIP3   OH218380   2.504   2.554   4.323
 6125TIP3    H118381   2.451   2.626   4.357
 6125TIP3    H218382   2.465   2.476   4.362
 6126TIP3   OH218383   4.380   3.327   3.685
 6126TIP3    H118384   4.326   3.277   3.746
 6126TIP3    H218385   4.331   3.409   3.672
 6127TIP3   OH218386   3.039   2.324   4.333
 6127TIP3    H118387   3.085   2.308   4.415
 6127TIP3    H218388   3.028   2.419   4.329
 6128TIP3   OH218389   6.092   5.364   3.933
 6128TIP3    H118390   6.058   5.279   3.960
 6128TIP3    H218391   6.046   5.427   3.988
 6129TIP3   OH218392   4.089   4.417   4.651
 6129TIP3    H118393   4.051   4.446   4.568
 6129TIP3    H218394   4.112   4.499   4.696
 6130TIP3   OH218395   2.643   3.047   2.457
 6130TIP3    H118396   2.557   3.088   2.447
 6130TIP3    H218397   2.698   3.114   2.495
 6131TIP3   OH218398   0.645   4.598   2.459
 6131TIP3    H118399   0.636   4.515   2.411
 6131TIP3    H218400   0.729   4.589   2.505
 6132TIP3   OH218401   3.984   2.795   5.000
 6132TIP3    H118402   4.061   2.830   4.956
 6132TIP3    H218403   3.945   2.871   5.044
 6133TIP3   OH218404   2.528   0.135   0.449
 6133TIP3    H118405   2.551   0.150   0.540
 6133TIP3    H218406   2.435   0.156   0.444
 6134TIP3   OH218407   0.262   2.298   0.844
 6134TIP3    H118408   0.178   2.268   0.809
 6134TIP3    H218409   0.314   2.218   0.852
 6135TIP3   OH218410   2.633   1.465   2.934
 6135TIP3    H118411   2.716   1.503   2.966
 6135TIP3    H218412   2.584   1.444   3.013
 6136TIP3   OH218413   3.171   1.891   0.432
 6136TIP3    H118414   3.234   1.919   0.366
 6136TIP3    H218415   3.192   1.942   0.510
 6137TIP3   OH218416   1.837   1.442   1.018
 6137TIP3    H118417   1.826   1.530   1.054
 6137TIP3    H218418   1.756   1.396   1.043
 6138TIP3   OH218419   5.682   3.700   5.131
 6138TIP3    H118420   5.655   3.788   5.161
 6138TIP3    H218421   5.624   3.681   5.058
 6139TIP3   OH218422   5.522   4.544   0.117
 6139TIP3    H118423   5.455   4.588   0.064
 6139TIP3    H218424   5.533   4.602   0.193
 6140TIP3   OH218425   4.255   1.519   2.454
 6140TIP3    H118426   4.339   1.540   2.495
 6140TIP3    H218427   4.191   1.529   2.525
 6141TIP3   OH218428   1.389   3.681   2.815
 6141TIP3    H118429   1.413   3.705   2.904
 6141TIP3    H218430   1.298   3.709   2.806
 6142TIP3   OH218431   2.579   5.435   0.460
 6142TIP3    H118432   2.550   5.348   0.433
 6142TIP3    H218433   2.672   5.438   0.437
 6143TIP3   OH218434   1.378   4.026   0.314
 6143TIP3    H118435   1.437   4.055   0.244
 6143TIP3    H218436   1.434   4.022   0.392
 6144TIP3   OH218437   4.115   1.795   3.559
 6144TIP3    H118438   4.039   1.794   3.501
 6144TIP3    H218439   4.135   1.702   3.574
 6145TIP3   OH218440   2.467   0.611   0.988
 6145TIP3    H118441   2.506   0.698   0.988
 6145TIP3    H218442   2.438   0.598   1.079
 6146TIP3   OH218443   6.253   4.914   1.550
 6146TIP3    H118444   6.332   4.923   1.604
 6146TIP3    H218445   6.181   4.933   1.610
 6147TIP3   OH218446   1.629   4.740   3.190
 6147TIP3    H118447   1.669   4.737   3.277
 6147TIP3    H218448   1.537   4.721   3.205
 6148TIP3   OH218449   5.715   0.378   2.335
 6148TIP3    H118450   5.793   0.406   2.382
 6148TIP3    H218451   5.678   0.308   2.390
 6149TIP3   OH218452   4.275   4.290   4.270
 6149TIP3    H118453   4.334   4.283   4.346
 6149TIP3    H218454   4.297   4.374   4.231
 6150TIP3   OH218455   4.509   1.456   4.516
 6150TIP3    H118456   4.488   1.549   4.525
 6150TIP3    H218457   4.593   1.455   4.470
 6151TIP3   OH218458   5.234   3.817   3.050
 6151TIP3    H118459   5.277   3.799   2.967
 6151TIP3    H218460   5.269   3.901   3.078
 6152TIP3   OH218461   2.258   5.380   0.078
 6152TIP3    H118462   2.230   5.393  -0.012
 6152TIP3    H218463   2.335   5.436   0.088
 6153TIP3   OH218464   1.262   3.165   3.187
 6153TIP3    H118465   1.203   3.090   3.179
 6153TIP3    H218466   1.291   3.163   3.278
 6154TIP3   OH218467   5.327   0.719   3.488
 6154TIP3    H118468   5.312   0.812   3.506
 6154TIP3    H218469   5.286   0.704   3.403
 6155TIP3   OH218470   3.576   0.559   0.751
 6155TIP3    H118471   3.622   0.502   0.689
 6155TIP3    H218472   3.484   0.534   0.743
 6156TIP3   OH218473   5.771   3.963   1.779
 6156TIP3    H118474   5.844   3.969   1.718
 6156TIP3    H218475   5.759   4.053   1.810
 6157TIP3   OH218476   3.397   2.296   1.909
 6157TIP3    H118477   3.412   2.279   2.002
 6157TIP3    H218478   3.323   2.357   1.908
 6158TIP3   OH218479   3.812   4.264   4.640
 6158TIP3    H118480   3.738   4.270   4.580
 6158TIP3    H218481   3.885   4.302   4.591
 6159TIP3   OH218482   5.478   4.811   1.592
 6159TIP3    H118483   5.477   4.824   1.497
 6159TIP3    H218484   5.542   4.875   1.624
 6160TIP3   OH218485   3.967   3.297   0.906
 6160TIP3    H118486   4.017   3.223   0.940
 6160TIP3    H218487   4.033   3.360   0.878
 6161TIP3   OH218488   4.501   3.828   2.974
 6161TIP3    H118489   4.555   3.824   2.894
 6161TIP3    H218490   4.411   3.828   2.941
 6162TIP3   OH218491   3.849   3.012   5.134
 6162TIP3    H118492   3.765   2.983   5.098
 6162TIP3    H218493   3.865   3.097   5.093
 6163TIP3   OH218494   2.356   4.700   1.316
 6163TIP3    H118495   2.401   4.784   1.318
 6163TIP3    H218496   2.374   4.664   1.229
 6164TIP3   OH218497   0.374   4.821   3.674
 6164TIP3    H118498   0.359   4.730   3.646
 6164TIP3    H218499   0.428   4.813   3.752
 6165TIP3   OH218500   0.058   0.668   3.029
 6165TIP3    H118501  -0.006   0.719   2.979
 6165TIP3    H218502   0.054   0.581   2.990
 6166TIP3   OH218503   5.937   3.643   5.153
 6166TIP3    H118504   5.850   3.683   5.149
 6166TIP3    H218505   5.948   3.603   5.067
 6167TIP3   OH218506   3.640   0.407   3.979
 6167TIP3    H118507   3.697   0.427   4.053
 6167TIP3    H218508   3.698   0.412   3.902
 6168TIP3   OH218509   3.799   5.073   0.533
 6168TIP3    H118510   3.736   5.143   0.519
 6168TIP3    H218511   3.864   5.111   0.593
 6169TIP3   OH218512   4.544   3.452   0.524
 6169TIP3    H118513   4.550   3.515   0.596
 6169TIP3    H218514   4.497   3.377   0.561
 6170TIP3   OH218515   4.585   3.773   3.227
 6170TIP3    H118516   4.582   3.682   3.254
 6170TIP3    H218517   4.536   3.775   3.144
 6171TIP3   OH218518   1.694   0.421   1.941
 6171TIP3    H118519   1.738   0.493   1.896
 6171TIP3    H218520   1.621   0.397   1.883
 6172TIP3   OH218521   3.893   0.259   1.112
 6172TIP3    H118522   3.840   0.281   1.189
 6172TIP3    H218523   3.964   0.323   1.114
 6173TIP3   OH218524   0.596   0.472   3.223
 6173TIP3    H118525   0.601   0.555   3.269
 6173TIP3    H218526   0.599   0.405   3.291
 6174TIP3   OH218527   5.248   2.421   3.391
 6174TIP3    H118528   5.306   2.489   3.357
 6174TIP3    H218529   5.306   2.349   3.414
 6175TIP3   OH218530   0.614   4.649   3.208
 6175TIP3    H118531   0.674   4.575   3.208
 6175TIP3    H218532   0.636   4.698   3.288
 6176TIP3   OH218533   1.901   1.109   3.558
 6176TIP3    H118534   1.851   1.047   3.504
 6176TIP3    H218535   1.834   1.161   3.603
 6177TIP3   OH218536   5.480   3.811   0.380
 6177TIP3    H118537   5.429   3.801   0.300
 6177TIP3    H218538   5.515   3.900   0.376
 6178TIP3   OH218539   0.458   5.166   1.179
 6178TIP3    H118540   0.514   5.138   1.107
 6178TIP3    H218541   0.500   5.129   1.257
 6179TIP3   OH218542   6.032   2.594   2.324
 6179TIP3    H118543   5.996   2.531   2.386
 6179TIP3    H218544   6.037   2.547   2.241
 6180TIP3   OH218545   0.017   0.326   4.067
 6180TIP3    H118546   0.078   0.254   4.085
 6180TIP3    H218547   0.064   0.404   4.096
 6181TIP3   OH218548   3.328   2.878   2.884
 6181TIP3    H118549   3.322   2.802   2.942
 6181TIP3    H218550   3.321   2.841   2.796
 6182TIP3   OH218551   0.938   3.015   1.177
 6182TIP3    H118552   0.948   2.927   1.216
 6182TIP3    H218553   0.920   3.072   1.252
 6183TIP3   OH218554   3.220   5.004   0.299
 6183TIP3    H118555   3.186   5.057   0.226
 6183TIP3    H218556   3.230   5.065   0.371
 6184TIP3   OH218557   3.966   2.568   0.851
 6184TIP3    H118558   3.988   2.627   0.779
 6184TIP3    H218559   4.006   2.484   0.827
 6185TIP3   OH218560   3.445   2.572   1.509
 6185TIP3    H118561   3.510   2.604   1.571
 6185TIP3    H218562   3.432   2.480   1.533
 6186TIP3   OH218563   1.517   0.674   2.437
 6186TIP3    H118564   1.537   0.751   2.384
 6186TIP3    H218565   1.531   0.599   2.379
 6187TIP3   OH218566   1.945   5.719   0.488
 6187TIP3    H118567   1.875   5.661   0.519
 6187TIP3    H218568   1.911   5.755   0.406
 6188TIP3   OH218569   3.689   1.000   3.334
 6188TIP3    H118570   3.739   1.069   3.290
 6188TIP3    H218571   3.605   0.999   3.289
 6189TIP3   OH218572   5.581   5.061   4.264
 6189TIP3    H118573   5.489   5.039   4.279
 6189TIP3    H218574   5.617   4.985   4.218
 6190TIP3   OH218575   3.622   2.029   2.933
 6190TIP3    H118576   3.535   2.003   2.962
 6190TIP3    H218577   3.607   2.095   2.866
 6191TIP3   OH218578   1.067   0.941   2.149
 6191TIP3    H118579   1.080   1.028   2.187
 6191TIP3    H218580   1.120   0.883   2.204
 6192TIP3   OH218581   4.299   4.293   3.710
 6192TIP3    H118582   4.309   4.274   3.616
 6192TIP3    H218583   4.242   4.224   3.742
 6193TIP3   OH218584   0.061   3.903   0.561
 6193TIP3    H118585   0.059   3.924   0.655
 6193TIP3    H218586   0.112   3.974   0.522
 6194TIP3   OH218587   6.384   1.583   3.196
 6194TIP3    H118588   6.330   1.624   3.264
 6194TIP3    H218589   6.322   1.542   3.137
 6195TIP3   OH218590   1.704   4.825   1.998
 6195TIP3    H118591   1.703   4.882   1.921
 6195TIP3    H218592   1.690   4.884   2.072
 6196TIP3   OH218593   2.481   1.251   2.905
 6196TIP3    H118594   2.404   1.306   2.899
 6196TIP3    H218595   2.555   1.311   2.892
 6197TIP3   OH218596   4.966   2.623   4.418
 6197TIP3    H118597   4.973   2.555   4.351
 6197TIP3    H218598   4.974   2.576   4.501
 6198TIP3   OH218599   4.984   2.077   2.172
 6198TIP3    H118600   5.056   2.015   2.179
 6198TIP3    H218601   4.931   2.062   2.251
 6199TIP3   OH218602   2.269   3.794   4.491
 6199TIP3    H118603   2.337   3.742   4.448
 6199TIP3    H218604   2.209   3.730   4.528
 6200TIP3   OH218605   2.101   2.644   0.080
 6200TIP3    H118606   2.056   2.560   0.080
 6200TIP3    H218607   2.032   2.709   0.068
 6201TIP3   OH218608   6.189   1.494   1.394
 6201TIP3    H118609   6.095   1.508   1.408
 6201TIP3    H218610   6.210   1.547   1.317
 6202TIP3   OH218611   4.977   4.473   0.886
 6202TIP3    H118612   4.906   4.516   0.839
 6202TIP3    H218613   5.046   4.461   0.821
 6203TIP3   OH218614   5.355   2.383   1.613
 6203TIP3    H118615   5.373   2.456   1.673
 6203TIP3    H218616   5.307   2.320   1.665
 6204TIP3   OH218617   3.959   3.667   2.987
 6204TIP3    H118618   4.043   3.657   2.943
 6204TIP3    H218619   3.978   3.652   3.080
 6205TIP3   OH218620   2.696   0.672   3.835
 6205TIP3    H118621   2.613   0.664   3.883
 6205TIP3    H218622   2.721   0.583   3.814
 6206TIP3   OH218623   2.733   3.305   3.633
 6206TIP3    H118624   2.763   3.314   3.724
 6206TIP3    H218625   2.747   3.392   3.595
 6207TIP3   OH218626   0.882   4.922   3.198
 6207TIP3    H118627   0.916   4.997   3.148
 6207TIP3    H218628   0.959   4.885   3.241
 6208TIP3   OH218629   5.564   5.688   4.348
 6208TIP3    H118630   5.485   5.664   4.395
 6208TIP3    H218631   5.541   5.680   4.255
 6209TIP3   OH218632   2.954  -0.002   2.922
 6209TIP3    H118633   2.969   0.092   2.935
 6209TIP3    H218634   2.973  -0.041   3.008
 6210TIP3   OH218635   4.585   4.048   1.890
 6210TIP3    H118636   4.543   4.051   1.804
 6210TIP3    H218637   4.532   4.105   1.945
 6211TIP3   OH218638   1.424   1.509   0.996
 6211TIP3    H118639   1.444   1.484   0.906
 6211TIP3    H218640   1.401   1.427   1.039
 6212TIP3   OH218641   6.137   5.613   4.511
 6212TIP3    H118642   6.118   5.696   4.466
 6212TIP3    H218643   6.174   5.557   4.442
 6213TIP3   OH218644   1.544   3.963   4.668
 6213TIP3    H118645   1.540   3.899   4.598
 6213TIP3    H218646   1.471   4.022   4.651
 6214TIP3   OH218647   1.373   4.554   3.715
 6214TIP3    H118648   1.304   4.492   3.692
 6214TIP3    H218649   1.341   4.598   3.794
 6215TIP3   OH218650   5.946   0.672   2.365
 6215TIP3    H118651   5.881   0.654   2.297
 6215TIP3    H218652   6.017   0.610   2.348
 6216TIP3   OH218653   0.702   0.812   4.267
 6216TIP3    H118654   0.787   0.774   4.290
 6216TIP3    H218655   0.721   0.871   4.194
 6217TIP3   OH218656   1.788   4.898   0.328
 6217TIP3    H118657   1.806   4.842   0.404
 6217TIP3    H218658   1.704   4.940   0.348
 6218TIP3   OH218659   0.480   3.482   0.728
 6218TIP3    H118660   0.478   3.461   0.635
 6218TIP3    H218661   0.529   3.410   0.768
 6219TIP3   OH218662   6.140   0.726   5.118
 6219TIP3    H118663   6.103   0.638   5.129
 6219TIP3    H218664   6.175   0.726   5.029
 6220TIP3   OH218665   5.801   5.195   2.033
 6220TIP3    H118666   5.845   5.270   2.072
 6220TIP3    H218667   5.764   5.229   1.951
 6221TIP3   OH218668   0.243   2.375   1.162
 6221TIP3    H118669   0.201   2.376   1.076
 6221TIP3    H218670   0.181   2.328   1.218
 6222TIP3   OH218671   2.186   0.521   4.262
 6222TIP3    H118672   2.136   0.595   4.228
 6222TIP3    H218673   2.277   0.544   4.244
 6223TIP3   OH218674   2.123   4.313   2.332
 6223TIP3    H118675   2.149   4.262   2.255
 6223TIP3    H218676   2.072   4.252   2.384
 6224TIP3   OH218677   4.314   1.862   0.749
 6224TIP3    H118678   4.270   1.898   0.826
 6224TIP3    H218679   4.383   1.925   0.729
 6225TIP3   OH218680   1.317  -0.021   1.611
 6225TIP3    H118681   1.403  -0.006   1.573
 6225TIP3    H218682   1.261   0.047   1.572
 6226TIP3   OH218683   5.362   1.103   2.067
 6226TIP3    H118684   5.454   1.097   2.093
 6226TIP3    H218685   5.314   1.105   2.149
 6227TIP3   OH218686   1.752   2.211   0.339
 6227TIP3    H118687   1.757   2.267   0.417
 6227TIP3    H218688   1.713   2.129   0.370
 6228TIP3   OH218689   0.610   5.055   2.823
 6228TIP3    H118690   0.619   4.994   2.896
 6228TIP3    H218691   0.617   5.142   2.864
 6229TIP3   OH218692   4.696   2.714   0.141
 6229TIP3    H118693   4.630   2.743   0.204
 6229TIP3    H218694   4.714   2.624   0.165
 6230TIP3   OH218695   0.331   2.919   3.253
 6230TIP3    H118696   0.372   2.908   3.167
 6230TIP3    H218697   0.241   2.889   3.241
 6231TIP3   OH218698   3.265   4.950   1.600
 6231TIP3    H118699   3.232   4.911   1.681
 6231TIP3    H218700   3.352   4.983   1.623
 6232TIP3   OH218701   2.508   3.994   1.200
 6232TIP3    H118702   2.527   4.087   1.198
 6232TIP3    H218703   2.592   3.951   1.188
 6233TIP3   OH218704   0.576   2.637   2.111
 6233TIP3    H118705   0.487   2.605   2.118
 6233TIP3    H218706   0.620   2.575   2.053
 6234TIP3   OH218707   5.766   2.171   3.927
 6234TIP3    H118708   5.838   2.134   3.876
 6234TIP3    H218709   5.716   2.094   3.956
 6235TIP3   OH218710   3.296   0.561   3.595
 6235TIP3    H118711   3.355   0.487   3.608
 6235TIP3    H218712   3.318   0.594   3.508
 6236TIP3   OH218713   3.975   5.579   0.618
 6236TIP3    H118714   3.953   5.539   0.701
 6236TIP3    H218715   4.049   5.528   0.585
 6237TIP3   OH218716   5.870   5.274   1.203
 6237TIP3    H118717   5.903   5.363   1.195
 6237TIP3    H218718   5.945   5.219   1.181
 6238TIP3   OH218719   3.956   4.484   4.425
 6238TIP3    H118720   3.947   4.579   4.415
 6238TIP3    H218721   3.954   4.451   4.335
 6239TIP3   OH218722   6.192   0.075   1.222
 6239TIP3    H118723   6.125   0.123   1.173
 6239TIP3    H218724   6.180   0.104   1.312
 6240TIP3   OH218725   5.111   5.724   4.029
 6240TIP3    H118726   5.138   5.777   3.954
 6240TIP3    H218727   5.117   5.634   3.998
 6241TIP3   OH218728   4.580   1.348   2.744
 6241TIP3    H118729   4.555   1.396   2.823
 6241TIP3    H218730   4.556   1.407   2.673
 6242TIP3   OH218731   5.771   0.312   4.769
 6242TIP3    H118732   5.785   0.275   4.856
 6242TIP3    H218733   5.780   0.238   4.709
 6243TIP3   OH218734   4.015   5.531   4.957
 6243TIP3    H118735   4.060   5.616   4.956
 6243TIP3    H218736   3.923   5.553   4.970
 6244TIP3   OH218737   0.401   5.448   3.367
 6244TIP3    H118738   0.347   5.522   3.394
 6244TIP3    H218739   0.341   5.373   3.370
 6245TIP3   OH218740   3.977   0.095   2.737
 6245TIP3    H118741   3.976   0.190   2.725
 6245TIP3    H218742   3.910   0.079   2.803
 6246TIP3   OH218743   1.016   4.130   3.206
 6246TIP3    H118744   1.037   4.216   3.244
 6246TIP3    H218745   1.027   4.069   3.279
 6247TIP3   OH218746   4.939   3.261   1.144
 6247TIP3    H118747   4.910   3.235   1.057
 6247TIP3    H218748   4.875   3.325   1.173
 6248TIP3   OH218749   4.288   4.168   0.056
 6248TIP3    H118750   4.231   4.232   0.098
 6248TIP3    H218751   4.274   4.088   0.106
 6249TIP3   OH218752   0.778   2.791   3.229
 6249TIP3    H118753   0.831   2.838   3.293
 6249TIP3    H218754   0.803   2.828   3.145
 6250TIP3   OH218755   4.859   0.989   0.184
 6250TIP3    H118756   4.888   0.925   0.120
 6250TIP3    H218757   4.933   0.997   0.245
 6251TIP3   OH218758   4.939   1.025   2.864
 6251TIP3    H118759   4.902   0.938   2.852
 6251TIP3    H218760   4.983   1.045   2.782
 6252TIP3   OH218761   5.017   2.594   1.758
 6252TIP3    H118762   4.973   2.653   1.818
 6252TIP3    H218763   5.056   2.651   1.691
 6253TIP3   OH218764   1.125   5.979   0.800
 6253TIP3    H118765   1.216   6.000   0.822
 6253TIP3    H218766   1.100   5.911   0.863
 6254TIP3   OH218767   2.936   5.665   3.735
 6254TIP3    H118768   2.891   5.733   3.686
 6254TIP3    H218769   2.988   5.618   3.669
 6255TIP3   OH218770   5.030   1.881   4.373
 6255TIP3    H118771   5.029   1.814   4.305
 6255TIP3    H218772   5.115   1.871   4.415
 6256TIP3   OH218773   2.938   3.052   1.621
 6256TIP3    H118774   2.852   3.070   1.582
 6256TIP3    H218775   2.960   3.132   1.669
 6257TIP3   OH218776   0.136   0.341   1.513
 6257TIP3    H118777   0.175   0.411   1.460
 6257TIP3    H218778   0.145   0.370   1.603
 6258TIP3   OH218779   2.873   2.502   5.042
 6258TIP3    H118780   2.893   2.452   4.963
 6258TIP3    H218781   2.781   2.527   5.032
 6259TIP3   OH218782   0.518   2.390   4.082
 6259TIP3    H118783   0.434   2.434   4.071
 6259TIP3    H218784   0.504   2.329   4.154
 6260TIP3   OH218785   1.108   0.954   0.665
 6260TIP3    H118786   1.070   0.877   0.709
 6260TIP3    H218787   1.202   0.944   0.678
 6261TIP3   OH218788   5.501   3.199   3.974
 6261TIP3    H118789   5.512   3.266   3.906
 6261TIP3    H218790   5.428   3.232   4.027
 6262TIP3   OH218791   6.025   0.252   0.802
 6262TIP3    H118792   5.932   0.234   0.790
 6262TIP3    H218793   6.036   0.257   0.897
 6263TIP3   OH218794   5.597   0.831   1.101
 6263TIP3    H118795   5.579   0.798   1.013
 6263TIP3    H218796   5.511   0.849   1.139
 6264TIP3   OH218797   4.466   4.217   4.532
 6264TIP3    H118798   4.499   4.188   4.617
 6264TIP3    H218799   4.424   4.139   4.495
 6265TIP3   OH218800   4.410   1.858   2.987
 6265TIP3    H118801   4.373   1.945   2.999
 6265TIP3    H218802   4.334   1.799   2.992
 6266TIP3   OH218803   0.780   4.502   0.508
 6266TIP3    H118804   0.706   4.562   0.514
 6266TIP3    H218805   0.800   4.479   0.599
 6267TIP3   OH218806   1.009   5.075   1.679
 6267TIP3    H118807   0.962   5.156   1.658
 6267TIP3    H218808   0.975   5.049   1.764
 6268TIP3   OH218809   2.814   0.060   3.425
 6268TIP3    H118810   2.816   0.156   3.426
 6268TIP3    H218811   2.859   0.034   3.505
 6269TIP3   OH218812   3.016   5.848   5.009
 6269TIP3    H118813   3.052   5.886   5.090
 6269TIP3    H218814   2.993   5.924   4.955
 6270TIP3   OH218815   0.746   3.291   0.301
 6270TIP3    H118816   0.840   3.269   0.301
 6270TIP3    H218817   0.731   3.333   0.216
 6271TIP3   OH218818   6.187   3.350   0.270
 6271TIP3    H118819   6.163   3.414   0.337
 6271TIP3    H218820   6.103   3.311   0.243
 6272TIP3   OH218821   0.612   2.604   0.786
 6272TIP3    H118822   0.643   2.517   0.763
 6272TIP3    H218823   0.605   2.650   0.701
 6273TIP3   OH218824   5.767   0.118   3.975
 6273TIP3    H118825   5.783   0.206   3.942
 6273TIP3    H218826   5.848   0.094   4.020
 6274TIP3   OH218827   0.637   2.487   4.576
 6274TIP3    H118828   0.546   2.454   4.572
 6274TIP3    H218829   0.646   2.542   4.499
 6275TIP3   OH218830   5.143   5.687   1.739
 6275TIP3    H118831   5.132   5.592   1.745
 6275TIP3    H218832   5.237   5.700   1.732
 6276TIP3   OH218833   5.620   1.951   4.010
 6276TIP3    H118834   5.566   1.878   4.039
 6276TIP3    H218835   5.647   1.927   3.921
 6277TIP3   OH218836   0.832   5.727   4.107
 6277TIP3    H118837   0.771   5.774   4.164
 6277TIP3    H218838   0.858   5.791   4.041
 6278TIP3   OH218839   4.991   5.447   1.376
 6278TIP3    H118840   4.904   5.412   1.359
 6278TIP3    H218841   4.979   5.542   1.378
 6279TIP3   OH218842   6.166   3.005   3.398
 6279TIP3    H118843   6.115   2.931   3.365
 6279TIP3    H218844   6.107   3.080   3.388
 6280TIP3   OH218845   4.169   5.947   3.366
 6280TIP3    H118846   4.076   5.972   3.369
 6280TIP3    H218847   4.214   6.026   3.337
 6281TIP3   OH218848   0.760   0.825   0.714
 6281TIP3    H118849   0.803   0.740   0.722
 6281TIP3    H218850   0.726   0.843   0.802
 6282TIP3   OH218851   4.401   2.481   2.024
 6282TIP3    H118852   4.446   2.563   2.001
 6282TIP3    H218853   4.411   2.425   1.947
 6283TIP3   OH218854   1.569   5.004   0.540
 6283TIP3    H118855   1.513   4.963   0.475
 6283TIP3    H218856   1.622   4.932   0.575
 6284TIP3   OH218857   3.256   1.894   4.514
 6284TIP3    H118858   3.266   1.844   4.595
 6284TIP3    H218859   3.302   1.977   4.531
 6285TIP3   OH218860   3.861   3.511   0.728
 6285TIP3    H118861   3.868   3.433   0.784
 6285TIP3    H218862   3.950   3.527   0.698
 6286TIP3   OH218863   6.052   3.778   1.281
 6286TIP3    H118864   6.033   3.814   1.195
 6286TIP3    H218865   6.116   3.839   1.319
 6287TIP3   OH218866   2.852   0.412   5.036
 6287TIP3    H118867   2.813   0.334   5.075
 6287TIP3    H218868   2.918   0.440   5.099
 6288TIP3   OH218869   5.906   2.203   1.740
 6288TIP3    H118870   5.867   2.245   1.663
 6288TIP3    H218871   5.837   2.205   1.806
 6289TIP3   OH218872   1.353   3.037   2.451
 6289TIP3    H118873   1.365   3.114   2.507
 6289TIP3    H218874   1.432   3.035   2.397
 6290TIP3   OH218875   2.302   3.460   1.342
 6290TIP3    H118876   2.316   3.546   1.381
 6290TIP3    H218877   2.325   3.471   1.250
 6291TIP3   OH218878   0.573   1.129   1.248
 6291TIP3    H118879   0.525   1.212   1.253
 6291TIP3    H218880   0.664   1.156   1.235
 6292TIP3   OH218881   1.010   0.813   0.413
 6292TIP3    H118882   0.956   0.785   0.487
 6292TIP3    H218883   1.060   0.888   0.446
 6293TIP3   OH218884   2.748   4.199   3.389
 6293TIP3    H118885   2.768   4.290   3.370
 6293TIP3    H218886   2.831   4.161   3.419
 6294TIP3   OH218887   3.799   5.021   2.425
 6294TIP3    H118888   3.814   5.005   2.332
 6294TIP3    H218889   3.738   4.951   2.451
 6295TIP3   OH218890   0.692   0.961   0.497
 6295TIP3    H118891   0.697   1.049   0.535
 6295TIP3    H218892   0.690   0.902   0.573
 6296TIP3   OH218893   3.476   3.766   4.293
 6296TIP3    H118894   3.487   3.857   4.322
 6296TIP3    H218895   3.557   3.722   4.319
 6297TIP3   OH218896   4.153   1.396   5.111
 6297TIP3    H118897   4.217   1.467   5.115
 6297TIP3    H218898   4.106   1.401   5.194
 6298TIP3   OH218899   2.452   3.740   1.161
 6298TIP3    H118900   2.369   3.708   1.125
 6298TIP3    H218901   2.433   3.830   1.188
 6299TIP3   OH218902   2.295   4.925   4.962
 6299TIP3    H118903   2.331   5.014   4.966
 6299TIP3    H218904   2.321   4.885   5.045
 6300TIP3   OH218905   3.985   1.351   0.198
 6300TIP3    H118906   4.002   1.257   0.186
 6300TIP3    H218907   3.956   1.359   0.289
 6301TIP3   OH218908   5.341   5.679   4.800
 6301TIP3    H118909   5.362   5.734   4.725
 6301TIP3    H218910   5.415   5.690   4.859
 6302TIP3   OH218911   5.317   3.089   0.371
 6302TIP3    H118912   5.390   3.151   0.369
 6302TIP3    H218913   5.355   3.004   0.350
 6303TIP3   OH218914   4.587   1.560   3.615
 6303TIP3    H118915   4.632   1.560   3.531
 6303TIP3    H218916   4.503   1.603   3.598
 6304TIP3   OH218917   4.231   2.441   1.320
 6304TIP3    H118918   4.204   2.522   1.276
 6304TIP3    H218919   4.303   2.468   1.378
 6305TIP3   OH218920   0.908   5.779   3.384
 6305TIP3    H118921   0.873   5.821   3.463
 6305TIP3    H218922   0.874   5.690   3.387
 6306TIP3   OH218923   2.954   5.237   1.026
 6306TIP3    H118924   2.907   5.209   1.104
 6306TIP3    H218925   2.884   5.267   0.966
 6307TIP3   OH218926   3.482   1.416   0.762
 6307TIP3    H118927   3.552   1.352   0.746
 6307TIP3    H218928   3.526   1.501   0.759
 6308TIP3   OH218929   1.431   1.108   4.554
 6308TIP3    H118930   1.480   1.137   4.631
 6308TIP3    H218931   1.401   1.020   4.576
 6309TIP3   OH218932   5.190   3.002   1.021
 6309TIP3    H118933   5.169   3.091   1.048
 6309TIP3    H218934   5.107   2.954   1.027
 6310TIP3   OH218935   5.329   1.351   4.497
 6310TIP3    H118936   5.254   1.301   4.529
 6310TIP3    H218937   5.390   1.351   4.571
 6311TIP3   OH218938   5.871   5.379   4.882
 6311TIP3    H118939   5.897   5.364   4.791
 6311TIP3    H218940   5.812   5.454   4.878
 6312TIP3   OH218941   2.213   4.308   3.443
 6312TIP3    H118942   2.154   4.383   3.432
 6312TIP3    H218943   2.221   4.272   3.355
 6313TIP3   OH218944   3.677   0.407   0.043
 6313TIP3    H118945   3.709   0.495   0.021
 6313TIP3    H218946   3.598   0.397  -0.009
 6314TIP3   OH218947   4.714   1.211   0.200
 6314TIP3    H118948   4.756   1.125   0.198
 6314TIP3    H218949   4.780   1.270   0.238
 6315TIP3   OH218950   4.266   4.587   2.346
 6315TIP3    H118951   4.235   4.669   2.384
 6315TIP3    H218952   4.283   4.530   2.421
 6316TIP3   OH218953   0.628   4.675   4.042
 6316TIP3    H118954   0.724   4.675   4.044
 6316TIP3    H218955   0.605   4.662   3.950
 6317TIP3   OH218956   6.305   5.686   3.338
 6317TIP3    H118957   6.212   5.670   3.354
 6317TIP3    H218958   6.317   5.668   3.245
 6318TIP3   OH218959   1.869   5.374   0.088
 6318TIP3    H118960   1.776   5.351   0.077
 6318TIP3    H218961   1.884   5.368   0.182
 6319TIP3   OH218962   3.319   5.949   3.154
 6319TIP3    H118963   3.321   5.989   3.241
 6319TIP3    H218964   3.339   5.857   3.169
 6320TIP3   OH218965   5.996   3.182   1.918
 6320TIP3    H118966   5.947   3.220   1.846
 6320TIP3    H218967   6.080   3.229   1.917
 6321TIP3   OH218968   4.566   0.599   4.924
 6321TIP3    H118969   4.521   0.521   4.957
 6321TIP3    H218970   4.507   0.671   4.944
 6322TIP3   OH218971   4.001   5.659   2.471
 6322TIP3    H118972   3.939   5.687   2.403
 6322TIP3    H218973   4.027   5.741   2.514
 6323TIP3   OH218974   5.511   0.538   2.230
 6323TIP3    H118975   5.423   0.502   2.234
 6323TIP3    H218976   5.565   0.475   2.277
 6324TIP3   OH218977   4.645   5.169   0.037
 6324TIP3    H118978   4.655   5.254  -0.006
 6324TIP3    H218979   4.700   5.110  -0.015
 6325TIP3   OH218980   5.942   0.243   4.406
 6325TIP3    H118981   5.974   0.194   4.330
 6325TIP3    H218982   5.850   0.218   4.414
 6326TIP3   OH218983   0.487   1.620   2.174
 6326TIP3    H118984   0.560   1.627   2.112
 6326TIP3    H218985   0.529   1.614   2.260
 6327TIP3   OH218986   1.945   2.133   2.098
 6327TIP3    H118987   2.040   2.138   2.082
 6327TIP3    H218988   1.929   2.040   2.116
 6328TIP3   OH218989   1.678   4.029   1.684
 6328TIP3    H118990   1.714   4.094   1.624
 6328TIP3    H218991   1.731   4.038   1.763
 6329TIP3   OH218992   3.533   5.480   2.064
 6329TIP3    H118993   3.492   5.550   2.114
 6329TIP3    H218994   3.609   5.522   2.023
 6330TIP3   OH218995   3.563   0.414   2.441
 6330TIP3    H118996   3.621   0.477   2.484
 6330TIP3    H218997   3.475   0.437   2.473
 6331TIP3   OH218998   4.052   4.029   2.337
 6331TIP3    H118999   4.140   4.065   2.329
 6331TIP3    H219000   4.014   4.076   2.411
 6332TIP3   OH219001   2.976   3.660   3.710
 6332TIP3    H119002   2.984   3.755   3.717
 6332TIP3    H219003   3.030   3.626   3.781
 6333TIP3   OH219004   0.048   4.725   2.197
 6333TIP3    H119005   0.055   4.683   2.111
 6333TIP3    H219006  -0.026   4.785   2.188
 6334TIP3   OH219007   3.289   5.471   4.905
 6334TIP3    H119008   3.301   5.566   4.915
 6334TIP3    H219009   3.281   5.458   4.811
 6335TIP3   OH219010   0.123   2.774   3.565
 6335TIP3    H119011   0.076   2.785   3.483
 6335TIP3    H219012   0.174   2.694   3.553
 6336TIP3   OH219013   5.693   2.835   3.588
 6336TIP3    H119014   5.600   2.823   3.565
 6336TIP3    H219015   5.691   2.888   3.667
 6337TIP3   OH219016   0.998   3.584   2.972
 6337TIP3    H119017   1.044   3.553   3.049
 6337TIP3    H219018   0.917   3.623   3.005
 6338TIP3   OH219019   5.814   3.141   0.509
 6338TIP3    H119020   5.763   3.217   0.534
 6338TIP3    H219021   5.775   3.069   0.559
 6339TIP3   OH219022   0.537   1.187   2.248
 6339TIP3    H119023   0.493   1.210   2.166
 6339TIP3    H219024   0.478   1.124   2.289
 6340TIP3   OH219025   5.520   5.233   2.565
 6340TIP3    H119026   5.455   5.203   2.500
 6340TIP3    H219027   5.584   5.282   2.514
 6341TIP3   OH219028   1.747   5.558   2.469
 6341TIP3    H119029   1.834   5.592   2.491
 6341TIP3    H219030   1.762   5.497   2.398
 6342TIP3   OH219031   1.953   3.830   2.449
 6342TIP3    H119032   1.945   3.747   2.497
 6342TIP3    H219033   1.864   3.849   2.420
 6343TIP3   OH219034   5.851   0.722   4.153
 6343TIP3    H119035   5.887   0.811   4.161
 6343TIP3    H219036   5.784   0.729   4.086
 6344TIP3   OH219037   3.801   4.153   3.193
 6344TIP3    H119038   3.792   4.217   3.264
 6344TIP3    H219039   3.810   4.205   3.114
 6345TIP3   OH219040   3.468   1.613   0.372
 6345TIP3    H119041   3.453   1.708   0.365
 6345TIP3    H219042   3.384   1.577   0.399
 6346TIP3   OH219043   5.875   6.004   2.224
 6346TIP3    H119044   5.947   6.057   2.189
 6346TIP3    H219045   5.912   5.917   2.233
 6347TIP3   OH219046   2.163   3.650   1.124
 6347TIP3    H119047   2.084   3.625   1.172
 6347TIP3    H219048   2.187   3.572   1.074
 6348TIP3   OH219049   2.339   0.400  -0.021
 6348TIP3    H119050   2.255   0.437   0.006
 6348TIP3    H219051   2.385   0.383   0.061
 6349TIP3   OH219052   1.524   0.261   3.072
 6349TIP3    H119053   1.579   0.208   3.129
 6349TIP3    H219054   1.568   0.260   2.987
 6350TIP3   OH219055   2.390   0.677   2.338
 6350TIP3    H119056   2.408   0.715   2.424
 6350TIP3    H219057   2.302   0.641   2.346
 6351TIP3   OH219058   3.047   1.132   2.307
 6351TIP3    H119059   3.133   1.152   2.270
 6351TIP3    H219060   3.063   1.057   2.365
 6352TIP3   OH219061   5.050   4.500   4.551
 6352TIP3    H119062   5.018   4.520   4.463
 6352TIP3    H219063   4.981   4.530   4.610
 6353TIP3   OH219064   6.340   2.955   4.515
 6353TIP3    H119065   6.249   2.940   4.490
 6353TIP3    H219066   6.389   2.882   4.477
 6354TIP3   OH219067   5.856   4.386   2.213
 6354TIP3    H119068   5.926   4.449   2.226
 6354TIP3    H219069   5.794   4.429   2.154
 6355TIP3   OH219070   6.370   3.831   2.023
 6355TIP3    H119071   6.295   3.841   2.081
 6355TIP3    H219072   6.375   3.913   1.974
 6356TIP3   OH219073   5.576   5.744   0.682
 6356TIP3    H119074   5.658   5.786   0.654
 6356TIP3    H219075   5.514   5.761   0.612
 6357TIP3   OH219076   1.518   2.277   1.389
 6357TIP3    H119077   1.552   2.194   1.423
 6357TIP3    H219078   1.440   2.252   1.340
 6358TIP3   OH219079   2.343   4.666   0.115
 6358TIP3    H119080   2.372   4.728   0.048
 6358TIP3    H219081   2.257   4.698   0.143
 6359TIP3   OH219082   6.069   0.985   2.582
 6359TIP3    H119083   6.147   1.026   2.620
 6359TIP3    H219084   6.072   1.009   2.489
 6360TIP3   OH219085   6.127   5.777   1.803
 6360TIP3    H119086   6.162   5.797   1.889
 6360TIP3    H219087   6.168   5.841   1.744
 6361TIP3   OH219088   4.718   4.568   2.198
 6361TIP3    H119089   4.716   4.661   2.218
 6361TIP3    H219090   4.706   4.564   2.103
 6362TIP3   OH219091   3.487   0.118   2.249
 6362TIP3    H119092   3.400   0.092   2.216
 6362TIP3    H219093   3.513   0.190   2.192
 6363TIP3   OH219094   0.013   4.901   1.012
 6363TIP3    H119095  -0.013   4.981   0.967
 6363TIP3    H219096   0.080   4.928   1.075
 6364TIP3   OH219097   2.950   5.044   4.443
 6364TIP3    H119098   2.914   4.963   4.406
 6364TIP3    H219099   2.920   5.045   4.533
 6365TIP3   OH219100   5.830   1.237   1.981
 6365TIP3    H119101   5.865   1.326   1.987
 6365TIP3    H219102   5.905   1.183   1.956
 6366TIP3   OH219103   5.886   1.703   4.568
 6366TIP3    H119104   5.796   1.673   4.581
 6366TIP3    H219105   5.920   1.713   4.657
 6367TIP3   OH219106   2.472   2.323   1.994
 6367TIP3    H119107   2.465   2.393   2.058
 6367TIP3    H219108   2.441   2.362   1.912
 6368TIP3   OH219109   4.281   2.863   2.101
 6368TIP3    H119110   4.265   2.922   2.175
 6368TIP3    H219111   4.375   2.871   2.085
 6369TIP3   OH219112   4.709   5.532   1.517
 6369TIP3    H119113   4.709   5.537   1.422
 6369TIP3    H219114   4.658   5.609   1.545
 6370TIP3   OH219115   2.008   4.669   2.339
 6370TIP3    H119116   1.957   4.613   2.281
 6370TIP3    H219117   2.091   4.623   2.351
 6371TIP3   OH219118   2.172   1.912   0.817
 6371TIP3    H119119   2.161   2.006   0.808
 6371TIP3    H219120   2.131   1.891   0.901
 6372TIP3   OH219121   4.661   2.386   0.545
 6372TIP3    H119122   4.742   2.431   0.565
 6372TIP3    H219123   4.601   2.409   0.616
 6373TIP3   OH219124   3.491   2.172   0.888
 6373TIP3    H119125   3.435   2.180   0.965
 6373TIP3    H219126   3.481   2.081   0.861
 6374TIP3   OH219127   2.959   3.049   2.474
 6374TIP3    H119128   2.921   3.129   2.510
 6374TIP3    H219129   2.885   3.003   2.434
 6375TIP3   OH219130   4.112   1.443   3.230
 6375TIP3    H119131   4.131   1.409   3.317
 6375TIP3    H219132   4.165   1.390   3.171
 6376TIP3   OH219133   5.229   4.764   4.735
 6376TIP3    H119134   5.293   4.806   4.793
 6376TIP3    H219135   5.246   4.670   4.745
 6377TIP3   OH219136   2.134   0.086   1.064
 6377TIP3    H119137   2.049   0.044   1.075
 6377TIP3    H219138   2.113   0.175   1.035
 6378TIP3   OH219139   0.547   0.204   4.007
 6378TIP3    H119140   0.464   0.205   3.960
 6378TIP3    H219141   0.600   0.140   3.960
 6379TIP3   OH219142   1.873   3.839   4.418
 6379TIP3    H119143   1.821   3.916   4.441
 6379TIP3    H219144   1.955   3.874   4.385
 6380TIP3   OH219145   1.266   1.284   4.375
 6380TIP3    H119146   1.270   1.379   4.390
 6380TIP3    H219147   1.305   1.246   4.453
 6381TIP3   OH219148   5.945   1.522   2.414
 6381TIP3    H119149   5.904   1.451   2.463
 6381TIP3    H219150   5.876   1.556   2.358
 6382TIP3   OH219151   4.031   0.843   4.271
 6382TIP3    H119152   4.111   0.890   4.296
 6382TIP3    H219153   3.976   0.846   4.348
 6383TIP3   OH219154   2.645   4.477   3.030
 6383TIP3    H119155   2.559   4.518   3.041
 6383TIP3    H219156   2.683   4.520   2.953
 6384TIP3   OH219157   1.110   0.089   3.313
 6384TIP3    H119158   1.022   0.081   3.276
 6384TIP3    H219159   1.137   0.178   3.293
 6385TIP3   OH219160   0.278   3.909   1.886
 6385TIP3    H119161   0.251   3.957   1.808
 6385TIP3    H219162   0.294   3.820   1.855
 6386TIP3   OH219163   4.858   5.044   2.676
 6386TIP3    H119164   4.831   5.103   2.606
 6386TIP3    H219165   4.895   5.101   2.744
 6387TIP3   OH219166   4.095   4.044   2.975
 6387TIP3    H119167   4.009   4.005   2.958
 6387TIP3    H219168   4.081   4.138   2.964
 6388TIP3   OH219169   4.314   3.276   2.181
 6388TIP3    H119170   4.251   3.346   2.197
 6388TIP3    H219171   4.273   3.197   2.217
 6389TIP3   OH219172   2.080   4.046   5.131
 6389TIP3    H119173   2.106   4.035   5.223
 6389TIP3    H219174   1.993   4.006   5.126
 6390TIP3   OH219175   1.342   2.858   0.899
 6390TIP3    H119176   1.289   2.921   0.949
 6390TIP3    H219177   1.365   2.905   0.819
 6391TIP3   OH219178   3.289   5.455   4.636
 6391TIP3    H119179   3.358   5.458   4.569
 6391TIP3    H219180   3.250   5.368   4.625
 6392TIP3   OH219181   2.545   2.844   3.087
 6392TIP3    H119182   2.615   2.884   3.138
 6392TIP3    H219183   2.577   2.847   2.996
 6393TIP3   OH219184   3.505   2.226   2.804
 6393TIP3    H119185   3.439   2.238   2.736
 6393TIP3    H219186   3.460   2.250   2.885
 6394TIP3   OH219187   4.303   3.476   1.871
 6394TIP3    H119188   4.211   3.455   1.883
 6394TIP3    H219189   4.348   3.392   1.878
 6395TIP3   OH219190   4.608   1.658   1.077
 6395TIP3    H119191   4.520   1.695   1.077
 6395TIP3    H219192   4.664   1.728   1.043
 6396TIP3   OH219193   6.187   0.865   2.015
 6396TIP3    H119194   6.168   0.861   1.921
 6396TIP3    H219195   6.161   0.954   2.041
 6397TIP3   OH219196   6.092   3.756   4.692
 6397TIP3    H119197   6.022   3.799   4.741
 6397TIP3    H219198   6.050   3.724   4.613
 6398TIP3   OH219199   2.843   2.462   0.035
 6398TIP3    H119200   2.829   2.543   0.084
 6398TIP3    H219201   2.880   2.490  -0.048
 6399TIP3   OH219202   3.198   4.833   1.858
 6399TIP3    H119203   3.276   4.779   1.854
 6399TIP3    H219204   3.212   4.891   1.933
 6400TIP3   OH219205   0.536   4.770   4.514
 6400TIP3    H119206   0.523   4.860   4.544
 6400TIP3    H219207   0.519   4.774   4.420
 6401TIP3   OH219208   2.599   5.333   3.002
 6401TIP3    H119209   2.599   5.246   3.042
 6401TIP3    H219210   2.640   5.320   2.917
 6402TIP3   OH219211   3.426   4.408   2.304
 6402TIP3    H119212   3.461   4.377   2.387
 6402TIP3    H219213   3.359   4.343   2.281
 6403TIP3   OH219214   0.847   1.189   1.221
 6403TIP3    H119215   0.919   1.127   1.227
 6403TIP3    H219216   0.889   1.272   1.197
 6404TIP3   OH219217   0.775   4.397   3.208
 6404TIP3    H119218   0.841   4.390   3.276
 6404TIP3    H219219   0.807   4.342   3.137
 6405TIP3   OH219220   0.078   5.161   2.976
 6405TIP3    H119221   0.117   5.111   2.905
 6405TIP3    H219222   0.039   5.238   2.934
 6406TIP3   OH219223   2.701   3.383   1.075
 6406TIP3    H119224   2.750   3.337   1.007
 6406TIP3    H219225   2.665   3.313   1.130
 6407TIP3   OH219226   4.309   3.107   4.825
 6407TIP3    H119227   4.352   3.185   4.859
 6407TIP3    H219228   4.217   3.132   4.815
 6408TIP3   OH219229   2.074   2.774   1.624
 6408TIP3    H119230   2.075   2.704   1.558
 6408TIP3    H219231   2.117   2.735   1.700
 6409TIP3   OH219232   2.811   1.708   0.930
 6409TIP3    H119233   2.810   1.631   0.872
 6409TIP3    H219234   2.777   1.779   0.875
 6410TIP3   OH219235   2.453   1.887   0.356
 6410TIP3    H119236   2.360   1.905   0.349
 6410TIP3    H219237   2.491   1.969   0.388
 6411TIP3   OH219238   1.317   0.292   2.227
 6411TIP3    H119239   1.400   0.307   2.272
 6411TIP3    H219240   1.331   0.210   2.179
 6412TIP3   OH219241   1.748   2.515   4.450
 6412TIP3    H119242   1.728   2.563   4.370
 6412TIP3    H219243   1.765   2.426   4.422
 6413TIP3   OH219244   0.100   2.777   4.751
 6413TIP3    H119245   0.049   2.710   4.796
 6413TIP3    H219246   0.053   2.793   4.669
 6414TIP3   OH219247   1.840   3.939   4.745
 6414TIP3    H119248   1.752   3.904   4.755
 6414TIP3    H219249   1.844   4.012   4.807
 6415TIP3   OH219250   1.109   3.928   4.696
 6415TIP3    H119251   1.123   3.838   4.666
 6415TIP3    H219252   1.173   3.979   4.646
 6416TIP3   OH219253   3.563   2.787   0.018
 6416TIP3    H119254   3.573   2.749   0.106
 6416TIP3    H219255   3.649   2.776  -0.022
 6417TIP3   OH219256   0.170   4.765   4.549
 6417TIP3    H119257   0.249   4.715   4.527
 6417TIP3    H219258   0.173   4.774   4.644
 6418TIP3   OH219259   1.563   0.303   2.330
 6418TIP3    H119260   1.604   0.382   2.295
 6418TIP3    H219261   1.603   0.232   2.281
 6419TIP3   OH219262   0.398   5.792   1.095
 6419TIP3    H119263   0.351   5.861   1.141
 6419TIP3    H219264   0.490   5.817   1.103
 6420TIP3   OH219265   3.569   0.320   2.071
 6420TIP3    H119266   3.638   0.374   2.033
 6420TIP3    H219267   3.515   0.293   1.996
 6421TIP3   OH219268   5.495   2.227   3.416
 6421TIP3    H119269   5.552   2.273   3.354
 6421TIP3    H219270   5.502   2.277   3.497
 6422TIP3   OH219271   3.463   4.444   4.060
 6422TIP3    H119272   3.493   4.460   3.971
 6422TIP3    H219273   3.488   4.523   4.108
 6423TIP3   OH219274   5.791   0.496   3.540
 6423TIP3    H119275   5.776   0.402   3.552
 6423TIP3    H219276   5.705   0.533   3.524
 6424TIP3   OH219277   0.788   0.536   2.533
 6424TIP3    H119278   0.716   0.564   2.477
 6424TIP3    H219279   0.867   0.558   2.483
 6425TIP3   OH219280   5.783   3.856   2.734
 6425TIP3    H119281   5.868   3.870   2.692
 6425TIP3    H219282   5.749   3.776   2.693
 6426TIP3   OH219283   0.904   2.249   3.523
 6426TIP3    H119284   0.814   2.260   3.494
 6426TIP3    H219285   0.905   2.162   3.564
 6427TIP3   OH219286   4.038   1.229   2.197
 6427TIP3    H119287   4.086   1.147   2.187
 6427TIP3    H219288   4.102   1.290   2.234
 6428TIP3   OH219289   4.474   1.136   3.090
 6428TIP3    H119290   4.439   1.048   3.077
 6428TIP3    H219291   4.565   1.130   3.062
 6429TIP3   OH219292   3.142   0.868   0.946
 6429TIP3    H119293   3.101   0.816   1.015
 6429TIP3    H219294   3.157   0.953   0.985
 6430TIP3   OH219295   1.346   1.217   5.004
 6430TIP3    H119296   1.385   1.289   4.955
 6430TIP3    H219297   1.337   1.146   4.940
 6431TIP3   OH219298   0.035   2.503   3.234
 6431TIP3    H119299   0.027   2.413   3.203
 6431TIP3    H219300   0.087   2.547   3.167
 6432TIP3   OH219301   2.326   3.637   4.976
 6432TIP3    H119302   2.260   3.649   5.044
 6432TIP3    H219303   2.345   3.725   4.944
 6433TIP3   OH219304   6.060   0.064   0.445
 6433TIP3    H119305   6.154   0.049   0.456
 6433TIP3    H219306   6.021   0.031   0.525
 6434TIP3   OH219307   3.658   2.731   0.524
 6434TIP3    H119308   3.695   2.683   0.598
 6434TIP3    H219309   3.603   2.798   0.564
 6435TIP3   OH219310   2.590   5.792   0.643
 6435TIP3    H119311   2.541   5.778   0.562
 6435TIP3    H219312   2.675   5.825   0.614
 6436TIP3   OH219313   6.282   5.104   4.010
 6436TIP3    H119314   6.334   5.128   3.934
 6436TIP3    H219315   6.192   5.106   3.979
 6437TIP3   OH219316   2.452   1.277   1.958
 6437TIP3    H119317   2.520   1.210   1.957
 6437TIP3    H219318   2.400   1.258   2.036
 6438TIP3   OH219319   6.272   5.387   2.213
 6438TIP3    H119320   6.301   5.299   2.190
 6438TIP3    H219321   6.303   5.400   2.302
 6439TIP3   OH219322   4.578   4.636   2.933
 6439TIP3    H119323   4.491   4.649   2.971
 6439TIP3    H219324   4.601   4.722   2.897
 6440TIP3   OH219325   2.580   0.867   1.053
 6440TIP3    H119326   2.627   0.903   0.978
 6440TIP3    H219327   2.580   0.938   1.118
 6441TIP3   OH219328   4.349   2.059   4.569
 6441TIP3    H119329   4.347   2.154   4.571
 6441TIP3    H219330   4.263   2.033   4.538
 6442TIP3   OH219331   0.756   4.233   0.902
 6442TIP3    H119332   0.665   4.243   0.929
 6442TIP3    H219333   0.769   4.302   0.837
 6443TIP3   OH219334   2.556   3.496   2.952
 6443TIP3    H119335   2.463   3.494   2.930
 6443TIP3    H219336   2.559   3.489   3.047
 6444TIP3   OH219337   3.048   5.139   2.997
 6444TIP3    H119338   3.090   5.188   3.068
 6444TIP3    H219339   3.088   5.175   2.917
 6445TIP3   OH219340   1.145   0.726   3.531
 6445TIP3    H119341   1.229   0.685   3.552
 6445TIP3    H219342   1.147   0.735   3.435
 6446TIP3   OH219343   2.632   5.200   1.929
 6446TIP3    H119344   2.545   5.207   1.889
 6446TIP3    H219345   2.619   5.226   2.020
 6447TIP3   OH219346   5.989   4.501   3.389
 6447TIP3    H119347   6.036   4.475   3.468
 6447TIP3    H219348   6.058   4.527   3.328
 6448TIP3   OH219349   2.044   5.054   0.858
 6448TIP3    H119350   2.091   5.034   0.777
 6448TIP3    H219351   2.095   5.011   0.926
 6449TIP3   OH219352   4.991   3.196   2.244
 6449TIP3    H119353   5.048   3.158   2.311
 6449TIP3    H219354   5.029   3.282   2.227
 6450TIP3   OH219355   3.374   0.298   1.880
 6450TIP3    H119356   3.400   0.364   1.816
 6450TIP3    H219357   3.370   0.217   1.830
 6451TIP3   OH219358   4.038   3.342   4.155
 6451TIP3    H119359   4.090   3.268   4.187
 6451TIP3    H219360   4.045   3.336   4.060
 6452TIP3   OH219361   2.119   1.107   4.276
 6452TIP3    H119362   2.074   1.146   4.351
 6452TIP3    H219363   2.164   1.031   4.312
 6453TIP3   OH219364   5.304   3.833   4.147
 6453TIP3    H119365   5.309   3.739   4.129
 6453TIP3    H219366   5.275   3.872   4.065
 6454TIP3   OH219367   3.439   4.691   2.684
 6454TIP3    H119368   3.385   4.769   2.698
 6454TIP3    H219369   3.381   4.629   2.640
 6455TIP3   OH219370   5.157   4.916   1.495
 6455TIP3    H119371   5.248   4.909   1.467
 6455TIP3    H219372   5.125   4.826   1.496
 6456TIP3   OH219373   3.376   5.152   4.305
 6456TIP3    H119374   3.433   5.081   4.277
 6456TIP3    H219375   3.391   5.222   4.241
 6457TIP3   OH219376   0.159   0.450   2.495
 6457TIP3    H119377   0.252   0.434   2.512
 6457TIP3    H219378   0.133   0.514   2.560
 6458TIP3   OH219379   0.368   4.772   1.134
 6458TIP3    H119380   0.277   4.750   1.114
 6458TIP3    H219381   0.370   4.782   1.229
 6459TIP3   OH219382   4.315   2.204   1.906
 6459TIP3    H119383   4.356   2.132   1.859
 6459TIP3    H219384   4.267   2.161   1.977
 6460TIP3   OH219385   3.123   0.325   1.220
 6460TIP3    H119386   3.125   0.230   1.209
 6460TIP3    H219387   3.211   0.354   1.198
 6461TIP3   OH219388   3.137   3.865   4.848
 6461TIP3    H119389   3.182   3.805   4.907
 6461TIP3    H219390   3.055   3.821   4.827
 6462TIP3   OH219391   0.655   1.409   2.389
 6462TIP3    H119392   0.607   1.340   2.343
 6462TIP3    H219393   0.708   1.450   2.321
 6463TIP3   OH219394   3.442   5.685   2.261
 6463TIP3    H119395   3.529   5.704   2.297
 6463TIP3    H219396   3.400   5.631   2.327
 6464TIP3   OH219397   3.036   1.285   4.952
 6464TIP3    H119398   3.129   1.265   4.951
 6464TIP3    H219399   3.007   1.264   5.041
 6465TIP3   OH219400   0.040   5.436   4.502
 6465TIP3    H119401   0.038   5.341   4.493
 6465TIP3    H219402  -0.013   5.468   4.429
 6466TIP3   OH219403   1.513   0.296   4.970
 6466TIP3    H119404   1.555   0.376   4.939
 6466TIP3    H219405   1.419   0.314   4.967
 6467TIP3   OH219406   4.226   0.478   4.391
 6467TIP3    H119407   4.165   0.498   4.320
 6467TIP3    H219408   4.172   0.480   4.470
 6468TIP3   OH219409   1.460   5.701   5.209
 6468TIP3    H119410   1.385   5.665   5.162
 6468TIP3    H219411   1.485   5.778   5.159
 6469TIP3   OH219412   2.538   2.077   4.463
 6469TIP3    H119413   2.459   2.057   4.514
 6469TIP3    H219414   2.573   1.991   4.439
 6470TIP3   OH219415   1.045   5.365   3.223
 6470TIP3    H119416   0.974   5.342   3.163
 6470TIP3    H219417   1.067   5.455   3.200
 6471TIP3   OH219418   3.296   5.418   3.294
 6471TIP3    H119419   3.206   5.391   3.280
 6471TIP3    H219420   3.294   5.514   3.292
 6472TIP3   OH219421   2.108   5.450   1.051
 6472TIP3    H119422   2.115   5.377   0.989
 6472TIP3    H219423   2.017   5.447   1.080
 6473TIP3   OH219424   5.466   4.684   2.741
 6473TIP3    H119425   5.546   4.734   2.760
 6473TIP3    H219426   5.395   4.739   2.774
 6474TIP3   OH219427   1.821   0.813   4.581
 6474TIP3    H119428   1.894   0.751   4.569
 6474TIP3    H219429   1.822   0.833   4.675
 6475TIP3   OH219430   5.092   5.206   4.580
 6475TIP3    H119431   5.064   5.123   4.618
 6475TIP3    H219432   5.150   5.244   4.646
 6476TIP3   OH219433   5.560   0.495   1.255
 6476TIP3    H119434   5.508   0.550   1.314
 6476TIP3    H219435   5.636   0.470   1.308
 6477TIP3   OH219436   2.383   1.493   3.188
 6477TIP3    H119437   2.358   1.490   3.095
 6477TIP3    H219438   2.415   1.582   3.201
 6478TIP3   OH219439   2.550   3.590   1.472
 6478TIP3    H119440   2.470   3.643   1.473
 6478TIP3    H219441   2.606   3.631   1.406
 6479TIP3   OH219442   3.248   5.219   1.808
 6479TIP3    H119443   3.185   5.153   1.780
 6479TIP3    H219444   3.269   5.196   1.899
 6480TIP3   OH219445   4.033   1.577   4.757
 6480TIP3    H119446   4.088   1.522   4.702
 6480TIP3    H219447   3.944   1.561   4.727
 6481TIP3   OH219448   6.177   4.118   4.216
 6481TIP3    H119449   6.125   4.065   4.277
 6481TIP3    H219450   6.248   4.153   4.270
 6482TIP3   OH219451   0.494   2.857   5.112
 6482TIP3    H119452   0.406   2.820   5.101
 6482TIP3    H219453   0.493   2.938   5.063
 6483TIP3   OH219454   1.823   5.753   0.250
 6483TIP3    H119455   1.769   5.815   0.300
 6483TIP3    H219456   1.760   5.705   0.195
 6484TIP3   OH219457   5.535   4.478   5.138
 6484TIP3    H119458   5.552   4.572   5.140
 6484TIP3    H219459   5.560   4.447   5.225
 6485TIP3   OH219460   5.248   4.924   0.906
 6485TIP3    H119461   5.298   4.999   0.940
 6485TIP3    H219462   5.294   4.899   0.826
 6486TIP3   OH219463   0.862   3.607   0.828
 6486TIP3    H119464   0.943   3.565   0.799
 6486TIP3    H219465   0.800   3.593   0.756
 6487TIP3   OH219466   4.227   3.763   1.756
 6487TIP3    H119467   4.316   3.734   1.734
 6487TIP3    H219468   4.241   3.832   1.822
 6488TIP3   OH219469   6.068   4.784   2.465
 6488TIP3    H119470   6.055   4.873   2.431
 6488TIP3    H219471   6.111   4.798   2.550
 6489TIP3   OH219472   3.188   2.598   3.360
 6489TIP3    H119473   3.223   2.682   3.329
 6489TIP3    H219474   3.265   2.541   3.365
 6490TIP3   OH219475   2.522   4.896   2.397
 6490TIP3    H119476   2.449   4.843   2.430
 6490TIP3    H219477   2.480   4.964   2.344
 6491TIP3   OH219478   0.883   4.328   1.134
 6491TIP3    H119479   0.830   4.251   1.115
 6491TIP3    H219480   0.926   4.348   1.051
 6492TIP3   OH219481   1.527   3.665   5.142
 6492TIP3    H119482   1.470   3.657   5.218
 6492TIP3    H219483   1.611   3.692   5.178
 6493TIP3   OH219484   1.208   5.186   2.277
 6493TIP3    H119485   1.251   5.251   2.332
 6493TIP3    H219486   1.268   5.175   2.202
 6494TIP3   OH219487   4.289   4.225   3.420
 6494TIP3    H119488   4.318   4.134   3.420
 6494TIP3    H219489   4.245   4.236   3.336
 6495TIP3   OH219490   0.762   0.301   0.142
 6495TIP3    H119491   0.668   0.291   0.133
 6495TIP3    H219492   0.782   0.381   0.093
 6496TIP3   OH219493   4.497   1.934   1.898
 6496TIP3    H119494   4.558   1.930   1.825
 6496TIP3    H219495   4.441   1.857   1.887
 6497TIP3   OH219496   0.841   0.667   1.716
 6497TIP3    H119497   0.840   0.763   1.718
 6497TIP3    H219498   0.899   0.642   1.788
 6498TIP3   OH219499   0.482   1.351   4.934
 6498TIP3    H119500   0.417   1.397   4.987
 6498TIP3    H219501   0.445   1.351   4.846
 6499TIP3   OH219502   0.572   5.566   0.962
 6499TIP3    H119503   0.482   5.596   0.967
 6499TIP3    H219504   0.625   5.642   0.984
 6500TIP3   OH219505   5.787   4.433   4.768
 6500TIP3    H119506   5.870   4.428   4.720
 6500TIP3    H219507   5.773   4.526   4.782
 6501TIP3   OH219508   3.855   5.227   3.856
 6501TIP3    H119509   3.761   5.241   3.863
 6501TIP3    H219510   3.876   5.167   3.928
 6502TIP3   OH219511   3.842   1.902   2.354
 6502TIP3    H119512   3.885   1.986   2.374
 6502TIP3    H219513   3.900   1.861   2.290
 6503TIP3   OH219514   2.252   2.938   0.920
 6503TIP3    H119515   2.324   2.938   0.856
 6503TIP3    H219516   2.274   3.009   0.980
 6504TIP3   OH219517   0.859   4.395   1.572
 6504TIP3    H119518   0.918   4.469   1.590
 6504TIP3    H219519   0.888   4.326   1.631
 6505TIP3   OH219520   4.185   0.933   0.768
 6505TIP3    H119521   4.241   0.985   0.710
 6505TIP3    H219522   4.183   0.984   0.850
 6506TIP3   OH219523   3.049   5.828   1.439
 6506TIP3    H119524   3.078   5.902   1.385
 6506TIP3    H219525   2.957   5.816   1.414
 6507TIP3   OH219526   0.490   4.343   4.708
 6507TIP3    H119527   0.574   4.336   4.755
 6507TIP3    H219528   0.427   4.303   4.768
 6508TIP3   OH219529   2.711   2.000   4.014
 6508TIP3    H119530   2.770   1.985   3.940
 6508TIP3    H219531   2.727   1.925   4.072
 6509TIP3   OH219532   2.286   1.174   4.785
 6509TIP3    H119533   2.279   1.121   4.864
 6509TIP3    H219534   2.343   1.247   4.811
 6510TIP3   OH219535   5.345   0.830   1.201
 6510TIP3    H119536   5.333   0.836   1.296
 6510TIP3    H219537   5.256   0.818   1.167
 6511TIP3   OH219538   4.381   1.648   0.271
 6511TIP3    H119539   4.461   1.675   0.317
 6511TIP3    H219540   4.401   1.560   0.239
 6512TIP3   OH219541   2.372   3.772   2.065
 6512TIP3    H119542   2.339   3.753   2.154
 6512TIP3    H219543   2.441   3.837   2.079
 6513TIP3   OH219544   6.084   0.634   4.318
 6513TIP3    H119545   6.000   0.594   4.292
 6513TIP3    H219546   6.059   0.718   4.357
 6514TIP3   OH219547   1.180   2.120   2.994
 6514TIP3    H119548   1.158   2.056   2.926
 6514TIP3    H219549   1.156   2.078   3.076
 6515TIP3   OH219550   3.949   4.697   1.637
 6515TIP3    H119551   3.910   4.609   1.638
 6515TIP3    H219552   4.043   4.680   1.632
 6516TIP3   OH219553   1.066   4.553   4.917
 6516TIP3    H119554   1.073   4.467   4.874
 6516TIP3    H219555   1.149   4.564   4.963
 6517TIP3   OH219556   1.978   3.955   1.449
 6517TIP3    H119557   2.020   3.933   1.366
 6517TIP3    H219558   2.019   4.037   1.476
 6518TIP3   OH219559   4.843   3.702   1.621
 6518TIP3    H119560   4.772   3.749   1.578
 6518TIP3    H219561   4.814   3.693   1.712
 6519TIP3   OH219562   5.387   1.738   1.037
 6519TIP3    H119563   5.314   1.695   0.992
 6519TIP3    H219564   5.356   1.827   1.055
 6520TIP3   OH219565   4.248   4.463   2.601
 6520TIP3    H119566   4.269   4.402   2.671
 6520TIP3    H219567   4.152   4.463   2.598
 6521TIP3   OH219568   2.117   0.198   3.714
 6521TIP3    H119569   2.050   0.252   3.756
 6521TIP3    H219570   2.072   0.116   3.693
 6522TIP3   OH219571   0.858   5.631   3.788
 6522TIP3    H119572   0.823   5.646   3.876
 6522TIP3    H219573   0.823   5.702   3.735
 6523TIP3   OH219574   0.181   4.410   0.247
 6523TIP3    H119575   0.140   4.478   0.301
 6523TIP3    H219576   0.269   4.445   0.228
 6524TIP3   OH219577   2.868   1.975   4.682
 6524TIP3    H119578   2.909   2.024   4.611
 6524TIP3    H219579   2.939   1.958   4.744
 6525TIP3   OH219580   2.478   3.631   3.488
 6525TIP3    H119581   2.519   3.645   3.402
 6525TIP3    H219582   2.385   3.625   3.469
 6526TIP3   OH219583   3.695   0.656   2.576
 6526TIP3    H119584   3.601   0.674   2.576
 6526TIP3    H219585   3.727   0.698   2.656
 6527TIP3   OH219586   5.962   1.618   1.104
 6527TIP3    H119587   6.056   1.597   1.099
 6527TIP3    H219588   5.925   1.577   1.025
 6528TIP3   OH219589   2.802   1.872   1.343
 6528TIP3    H119590   2.837   1.815   1.411
 6528TIP3    H219591   2.737   1.926   1.388
 6529TIP3   OH219592   4.620   2.478   1.144
 6529TIP3    H119593   4.552   2.418   1.174
 6529TIP3    H219594   4.692   2.421   1.116
 6530TIP3   OH219595   2.868   5.147   0.124
 6530TIP3    H119596   2.788   5.126   0.171
 6530TIP3    H219597   2.924   5.189   0.189
 6531TIP3   OH219598   3.120   1.760   3.085
 6531TIP3    H119599   3.075   1.727   3.162
 6531TIP3    H219600   3.053   1.762   3.017
 6532TIP3   OH219601   1.246   2.513   0.414
 6532TIP3    H119602   1.301   2.499   0.337
 6532TIP3    H219603   1.171   2.563   0.382
 6533TIP3   OH219604   4.488   0.476   1.838
 6533TIP3    H119605   4.513   0.468   1.746
 6533TIP3    H219606   4.562   0.523   1.878
 6534TIP3   OH219607   0.039   1.625   4.137
 6534TIP3    H119608  -0.023   1.615   4.064
 6534TIP3    H219609   0.123   1.639   4.095
 6535TIP3   OH219610   4.177   0.276   0.466
 6535TIP3    H119611   4.150   0.204   0.522
 6535TIP3    H219612   4.258   0.309   0.506
 6536TIP3   OH219613   4.223   2.055   0.953
 6536TIP3    H119614   4.136   2.036   0.918
 6536TIP3    H219615   4.209   2.068   1.047
 6537TIP3   OH219616   0.195   2.289   3.586
 6537TIP3    H119617   0.185   2.375   3.547
 6537TIP3    H219618   0.230   2.234   3.515
 6538TIP3   OH219619   2.874   2.890   2.242
 6538TIP3    H119620   2.863   2.800   2.214
 6538TIP3    H219621   2.966   2.911   2.224
 6539TIP3   OH219622   3.518   5.307   3.390
 6539TIP3    H119623   3.563   5.265   3.317
 6539TIP3    H219624   3.442   5.349   3.350
 6540TIP3   OH219625   4.729   2.872   1.468
 6540TIP3    H119626   4.648   2.877   1.416
 6540TIP3    H219627   4.699   2.863   1.558
 6541TIP3   OH219628   5.130   2.202   1.983
 6541TIP3    H119629   5.126   2.110   1.957
 6541TIP3    H219630   5.078   2.206   2.063
 6542TIP3   OH219631   2.869   0.862   3.729
 6542TIP3    H119632   2.821   0.804   3.788
 6542TIP3    H219633   2.935   0.806   3.688
 6543TIP3   OH219634   4.054   1.102   5.103
 6543TIP3    H119635   4.085   1.191   5.119
 6543TIP3    H219636   4.120   1.064   5.045
 6544TIP3   OH219637   1.578   5.159   3.916
 6544TIP3    H119638   1.497   5.191   3.876
 6544TIP3    H219639   1.606   5.230   3.973
 6545TIP3   OH219640   5.405   5.912   3.523
 6545TIP3    H119641   5.382   5.966   3.448
 6545TIP3    H219642   5.491   5.876   3.500
 6546TIP3   OH219643   4.785   3.196   4.154
 6546TIP3    H119644   4.709   3.221   4.205
 6546TIP3    H219645   4.805   3.107   4.183
 6547TIP3   OH219646   0.322   0.218   3.168
 6547TIP3    H119647   0.349   0.310   3.158
 6547TIP3    H219648   0.301   0.190   3.079
 6548TIP3   OH219649   2.123   1.688   0.581
 6548TIP3    H119650   2.101   1.601   0.612
 6548TIP3    H219651   2.185   1.723   0.645
 6549TIP3   OH219652   1.258   1.077   1.490
 6549TIP3    H119653   1.326   1.137   1.522
 6549TIP3    H219654   1.307   1.000   1.461
 6550TIP3   OH219655   0.158   3.326   3.578
 6550TIP3    H119656   0.149   3.237   3.612
 6550TIP3    H219657   0.114   3.323   3.492
 6551TIP3   OH219658   0.763   2.707   1.827
 6551TIP3    H119659   0.857   2.727   1.825
 6551TIP3    H219660   0.727   2.755   1.753
 6552TIP3   OH219661   3.754   0.321   2.285
 6552TIP3    H119662   3.685   0.299   2.223
 6552TIP3    H219663   3.708   0.360   2.360
 6553TIP3   OH219664   4.669   1.896   0.167
 6553TIP3    H119665   4.698   1.849   0.089
 6553TIP3    H219666   4.649   1.827   0.230
 6554TIP3   OH219667   2.116   1.177   0.735
 6554TIP3    H119668   2.048   1.118   0.702
 6554TIP3    H219669   2.197   1.125   0.729
 6555TIP3   OH219670   0.023   5.128   2.177
 6555TIP3    H119671   0.084   5.137   2.103
 6555TIP3    H219672  -0.017   5.042   2.165
 6556TIP3   OH219673   5.473   2.061   0.689
 6556TIP3    H119674   5.423   1.991   0.647
 6556TIP3    H219675   5.466   2.135   0.628
 6557TIP3   OH219676   3.124   1.130   3.282
 6557TIP3    H119677   3.104   1.056   3.225
 6557TIP3    H219678   3.048   1.188   3.273
 6558TIP3   OH219679   6.316   5.222   5.044
 6558TIP3    H119680   6.268   5.251   4.966
 6558TIP3    H219681   6.249   5.186   5.102
 6559TIP3   OH219682   4.718   1.892   1.750
 6559TIP3    H119683   4.804   1.861   1.779
 6559TIP3    H219684   4.691   1.830   1.682
 6560TIP3   OH219685   5.688   4.444   2.981
 6560TIP3    H119686   5.601   4.429   2.945
 6560TIP3    H219687   5.680   4.423   3.074
 6561TIP3   OH219688   1.951   3.009   0.553
 6561TIP3    H119689   2.033   2.980   0.514
 6561TIP3    H219690   1.923   2.935   0.607
 6562TIP3   OH219691   2.127   2.195   2.743
 6562TIP3    H119692   2.194   2.130   2.723
 6562TIP3    H219693   2.162   2.243   2.819
 6563TIP3   OH219694   4.260   4.048   4.141
 6563TIP3    H119695   4.272   4.126   4.196
 6563TIP3    H219696   4.192   3.998   4.185
 6564TIP3   OH219697   2.078   5.210   2.713
 6564TIP3    H119698   2.054   5.129   2.668
 6564TIP3    H219699   2.131   5.258   2.649
 6565TIP3   OH219700   3.478   3.719   1.659
 6565TIP3    H119701   3.418   3.671   1.602
 6565TIP3    H219702   3.560   3.670   1.654
 6566TIP3   OH219703   0.150   5.135   4.863
 6566TIP3    H119704   0.127   5.148   4.771
 6566TIP3    H219705   0.087   5.188   4.911
 6567TIP3   OH219706   2.219   0.303   3.989
 6567TIP3    H119707   2.251   0.309   3.899
 6567TIP3    H219708   2.192   0.392   4.011
 6568TIP3   OH219709   4.765   5.906   0.805
 6568TIP3    H119710   4.729   5.839   0.746
 6568TIP3    H219711   4.782   5.981   0.748
 6569TIP3   OH219712   0.642   5.771   5.151
 6569TIP3    H119713   0.608   5.856   5.124
 6569TIP3    H219714   0.606   5.758   5.239
 6570TIP3   OH219715   6.056   2.308   3.377
 6570TIP3    H119716   5.994   2.267   3.438
 6570TIP3    H219717   6.142   2.278   3.407
 6571TIP3   OH219718   5.300   4.724   2.512
 6571TIP3    H119719   5.357   4.690   2.581
 6571TIP3    H219720   5.320   4.670   2.436
 6572TIP3   OH219721   0.967   1.604   2.475
 6572TIP3    H119722   0.917   1.562   2.406
 6572TIP3    H219723   1.019   1.670   2.430
 6573TIP3   OH219724   4.147   0.100   3.536
 6573TIP3    H119725   4.131   0.034   3.469
 6573TIP3    H219726   4.242   0.112   3.536
 6574TIP3   OH219727   3.842   2.208   2.043
 6574TIP3    H119728   3.762   2.242   2.084
 6574TIP3    H219729   3.877   2.283   1.995
 6575TIP3   OH219730   3.193   1.725   4.715
 6575TIP3    H119731   3.194   1.659   4.785
 6575TIP3    H219732   3.157   1.803   4.757
 6576TIP3   OH219733   4.957   4.070   4.738
 6576TIP3    H119734   4.956   4.087   4.832
 6576TIP3    H219735   4.895   4.133   4.701
 6577TIP3   OH219736   1.175   2.078   0.710
 6577TIP3    H119737   1.229   2.087   0.788
 6577TIP3    H219738   1.153   2.168   0.686
 6578TIP3   OH219739   3.424   5.501   0.611
 6578TIP3    H119740   3.396   5.516   0.702
 6578TIP3    H219741   3.472   5.419   0.614
 6579TIP3   OH219742   3.415   0.412   1.339
 6579TIP3    H119743   3.461   0.449   1.263
 6579TIP3    H219744   3.439   0.469   1.412
 6580TIP3   OH219745   1.355   1.067   2.523
 6580TIP3    H119746   1.276   1.120   2.529
 6580TIP3    H219747   1.398   1.079   2.608
 6581TIP3   OH219748   5.970   0.087   0.184
 6581TIP3    H119749   6.019   0.083   0.267
 6581TIP3    H219750   6.032   0.126   0.122
 6582TIP3   OH219751   1.555   2.506   4.658
 6582TIP3    H119752   1.604   2.510   4.576
 6582TIP3    H219753   1.481   2.565   4.645
 6583TIP3   OH219754   1.170   1.160   3.843
 6583TIP3    H119755   1.234   1.097   3.809
 6583TIP3    H219756   1.141   1.121   3.926
 6584TIP3   OH219757   6.187   1.636   3.963
 6584TIP3    H119758   6.222   1.696   3.897
 6584TIP3    H219759   6.111   1.683   3.998
 6585TIP3   OH219760   0.441   0.439   2.558
 6585TIP3    H119761   0.450   0.474   2.647
 6585TIP3    H219762   0.505   0.489   2.507
 6586TIP3   OH219763   1.106   2.574   1.366
 6586TIP3    H119764   1.176   2.557   1.429
 6586TIP3    H219765   1.067   2.488   1.349
 6587TIP3   OH219766   2.271   2.112   2.316
 6587TIP3    H119767   2.362   2.143   2.317
 6587TIP3    H219768   2.236   2.141   2.231
 6588TIP3   OH219769   1.023   4.342   0.798
 6588TIP3    H119770   1.045   4.316   0.709
 6588TIP3    H219771   1.054   4.270   0.852
 6589TIP3   OH219772   1.193   5.194   0.252
 6589TIP3    H119773   1.121   5.233   0.203
 6589TIP3    H219774   1.153   5.121   0.300
 6590TIP3   OH219775   0.676   2.130   1.070
 6590TIP3    H119776   0.616   2.205   1.076
 6590TIP3    H219777   0.693   2.106   1.161
 6591TIP3   OH219778   0.283   5.638   0.404
 6591TIP3    H119779   0.245   5.650   0.317
 6591TIP3    H219780   0.321   5.724   0.426
 6592TIP3   OH219781   0.652   0.373   1.889
 6592TIP3    H119782   0.687   0.300   1.839
 6592TIP3    H219783   0.723   0.438   1.890
 6593TIP3   OH219784   4.484   5.522   4.765
 6593TIP3    H119785   4.473   5.513   4.860
 6593TIP3    H219786   4.448   5.609   4.745
 6594TIP3   OH219787   3.484   3.890   0.503
 6594TIP3    H119788   3.441   3.931   0.577
 6594TIP3    H219789   3.519   3.963   0.452
 6595TIP3   OH219790   3.693   1.216   1.249
 6595TIP3    H119791   3.652   1.228   1.163
 6595TIP3    H219792   3.702   1.121   1.258
 6596TIP3   OH219793   2.529   4.478   0.741
 6596TIP3    H119794   2.615   4.437   0.730
 6596TIP3    H219795   2.493   4.438   0.820
 6597TIP3   OH219796   0.715   2.380   4.808
 6597TIP3    H119797   0.660   2.425   4.743
 6597TIP3    H219798   0.687   2.289   4.804
 6598TIP3   OH219799   1.410   3.851   2.018
 6598TIP3    H119800   1.379   3.916   1.955
 6598TIP3    H219801   1.438   3.902   2.093
 6599TIP3   OH219802   4.128   4.088   3.853
 6599TIP3    H119803   4.065   4.016   3.862
 6599TIP3    H219804   4.168   4.096   3.940
 6600TIP3   OH219805   4.190   3.493   0.937
 6600TIP3    H119806   4.204   3.581   0.901
 6600TIP3    H219807   4.239   3.493   1.019
 6601TIP3   OH219808   2.899   0.136   4.255
 6601TIP3    H119809   2.959   0.168   4.187
 6601TIP3    H219810   2.832   0.087   4.206
 6602TIP3   OH219811   4.827   0.557   3.619
 6602TIP3    H119812   4.739   0.594   3.623
 6602TIP3    H219813   4.863   0.588   3.535
 6603TIP3   OH219814   6.184   3.398   1.837
 6603TIP3    H119815   6.201   3.360   1.750
 6603TIP3    H219816   6.253   3.463   1.849
 6604TIP3   OH219817   5.710   5.317   3.536
 6604TIP3    H119818   5.729   5.331   3.629
 6604TIP3    H219819   5.796   5.322   3.493
 6605TIP3   OH219820   1.743   0.705   1.965
 6605TIP3    H119821   1.786   0.778   1.920
 6605TIP3    H219822   1.801   0.683   2.038
 6606TIP3   OH219823   6.040   1.222   3.047
 6606TIP3    H119824   5.968   1.284   3.059
 6606TIP3    H219825   6.015   1.170   2.971
 6607TIP3   OH219826   1.214   0.231   0.856
 6607TIP3    H119827   1.177   0.177   0.787
 6607TIP3    H219828   1.284   0.280   0.814
 6608TIP3   OH219829   0.562   3.047   2.755
 6608TIP3    H119830   0.519   3.014   2.834
 6608TIP3    H219831   0.633   2.986   2.739
 6609TIP3   OH219832   3.933   4.352   4.175
 6609TIP3    H119833   3.996   4.325   4.108
 6609TIP3    H219834   3.853   4.305   4.153
 6610TIP3   OH219835   5.545   5.456   0.689
 6610TIP3    H119836   5.450   5.458   0.677
 6610TIP3    H219837   5.569   5.548   0.699
 6611TIP3   OH219838   4.524   4.475   2.000
 6611TIP3    H119839   4.540   4.560   1.959
 6611TIP3    H219840   4.597   4.420   1.970
 6612TIP3   OH219841   5.105   0.609   2.418
 6612TIP3    H119842   5.167   0.649   2.479
 6612TIP3    H219843   5.027   0.593   2.471
 6613TIP3   OH219844   3.238   0.157   5.007
 6613TIP3    H119845   3.152   0.117   5.017
 6613TIP3    H219846   3.251   0.206   5.089
 6614TIP3   OH219847   2.421   4.597   1.622
 6614TIP3    H119848   2.390   4.590   1.532
 6614TIP3    H219849   2.496   4.656   1.617
 6615TIP3   OH219850   0.597   5.413   2.625
 6615TIP3    H119851   0.564   5.480   2.565
 6615TIP3    H219852   0.542   5.337   2.606
 6616TIP3   OH219853   5.483   4.289   0.204
 6616TIP3    H119854   5.469   4.297   0.298
 6616TIP3    H219855   5.500   4.379   0.174
 6617TIP3   OH219856   2.393   4.566   3.100
 6617TIP3    H119857   2.361   4.643   3.147
 6617TIP3    H219858   2.314   4.513   3.083
 6618TIP3   OH219859   0.914   1.182   3.218
 6618TIP3    H119860   0.956   1.097   3.212
 6618TIP3    H219861   0.833   1.166   3.266
 6619TIP3   OH219862   2.866   2.342   3.470
 6619TIP3    H119863   2.832   2.370   3.555
 6619TIP3    H219864   2.929   2.273   3.489
 6620TIP3   OH219865   6.326   5.577   1.682
 6620TIP3    H119866   6.308   5.647   1.745
 6620TIP3    H219867   6.372   5.621   1.610
 6621TIP3   OH219868   2.401   1.048   2.422
 6621TIP3    H119869   2.367   0.984   2.485
 6621TIP3    H219870   2.458   0.998   2.365
 6622TIP3   OH219871   1.820   4.861   4.074
 6622TIP3    H119872   1.850   4.935   4.126
 6622TIP3    H219873   1.897   4.805   4.066
 6623TIP3   OH219874   3.482   1.471   3.926
 6623TIP3    H119875   3.544   1.540   3.948
 6623TIP3    H219876   3.495   1.404   3.994
 6624TIP3   OH219877   4.203   4.640   0.184
 6624TIP3    H119878   4.231   4.707   0.246
 6624TIP3    H219879   4.145   4.685   0.123
 6625TIP3   OH219880   5.144   3.532   3.042
 6625TIP3    H119881   5.074   3.568   3.097
 6625TIP3    H219882   5.220   3.585   3.062
 6626TIP3   OH219883   3.417   5.653   0.232
 6626TIP3    H119884   3.504   5.642   0.195
 6626TIP3    H219885   3.358   5.625   0.162
 6627TIP3   OH219886   2.920   1.141   1.890
 6627TIP3    H119887   2.965   1.066   1.930
 6627TIP3    H219888   2.853   1.165   1.954
 6628TIP3   OH219889   0.406   4.839   4.015
 6628TIP3    H119890   0.423   4.919   4.064
 6628TIP3    H219891   0.486   4.787   4.027
 6629TIP3   OH219892   5.102   4.780   4.338
 6629TIP3    H119893   5.121   4.874   4.333
 6629TIP3    H219894   5.176   4.743   4.386
 6630TIP3   OH219895   0.960   0.179   0.270
 6630TIP3    H119896   0.887   0.205   0.214
 6630TIP3    H219897   1.003   0.108   0.223
 6631TIP3   OH219898   1.831   5.829   1.036
 6631TIP3    H119899   1.926   5.821   1.046
 6631TIP3    H219900   1.799   5.850   1.123
 6632TIP3   OH219901   6.044   5.114   4.944
 6632TIP3    H119902   5.977   5.156   4.996
 6632TIP3    H219903   6.088   5.186   4.898
 6633TIP3   OH219904   1.032   2.752   1.811
 6633TIP3    H119905   1.084   2.804   1.749
 6633TIP3    H219906   1.030   2.804   1.891
 6634TIP3   OH219907   4.131   5.341   4.789
 6634TIP3    H119908   4.099   5.377   4.706
 6634TIP3    H219909   4.134   5.415   4.849
 6635TIP3   OH219910   5.457   2.612   2.988
 6635TIP3    H119911   5.496   2.636   3.072
 6635TIP3    H219912   5.379   2.667   2.981
 6636TIP3   OH219913   1.680   5.110   4.832
 6636TIP3    H119914   1.619   5.085   4.901
 6636TIP3    H219915   1.625   5.140   4.760
 6637TIP3   OH219916   2.562   4.950   0.933
 6637TIP3    H119917   2.549   4.874   0.877
 6637TIP3    H219918   2.606   4.915   1.010
 6638TIP3   OH219919   1.690   5.078   4.413
 6638TIP3    H119920   1.757   5.028   4.368
 6638TIP3    H219921   1.736   5.120   4.486
 6639TIP3   OH219922   5.484   1.287   1.581
 6639TIP3    H119923   5.424   1.287   1.507
 6639TIP3    H219924   5.433   1.323   1.654
 6640TIP3   OH219925   6.145   2.829   2.516
 6640TIP3    H119926   6.122   2.839   2.424
 6640TIP3    H219927   6.236   2.800   2.514
 6641TIP3   OH219928   1.010   4.389   4.151
 6641TIP3    H119929   0.960   4.314   4.185
 6641TIP3    H219930   1.066   4.416   4.224
 6642TIP3   OH219931   2.454   0.639   1.266
 6642TIP3    H119932   2.414   0.631   1.352
 6642TIP3    H219933   2.546   0.619   1.279
 6643TIP3   OH219934   0.179   1.656   3.464
 6643TIP3    H119935   0.248   1.594   3.488
 6643TIP3    H219936   0.153   1.696   3.546
 6644TIP3   OH219937   2.283   2.276   3.400
 6644TIP3    H119938   2.370   2.270   3.360
 6644TIP3    H219939   2.293   2.232   3.485
 6645TIP3   OH219940   2.506   3.163   5.032
 6645TIP3    H119941   2.438   3.222   5.063
 6645TIP3    H219942   2.525   3.193   4.943
   6.35666   5.99312   5.19020   0.00000   0.00000  -2.11889   0.00000  -2.11889  -2.99656
