Title t= 413.00000 step= 206500
19942
    1ASP      N    1   2.191   2.227   2.752
    1ASP    HT1    2   2.230   2.317   2.718
    1ASP    HT2    3   2.176   2.164   2.671
    1ASP    HT3    4   2.256   2.189   2.823
    1ASP     CA    5   2.065   2.239   2.823
    1ASP     HA    6   2.083   2.289   2.917
    1ASP     CB    7   1.956   2.317   2.732
    1ASP    HB1    8   1.859   2.307   2.785
    1ASP    HB2    9   1.948   2.275   2.629
    1ASP     CG   10   1.985   2.463   2.734
    1ASP    OD1   11   1.913   2.537   2.665
    1ASP    OD2   12   2.080   2.506   2.801
    1ASP      C   13   2.015   2.098   2.853
    1ASP      O   14   2.061   2.008   2.791
    2ALA      N   15   1.923   2.086   2.951
    2ALA     HN   16   1.893   2.173   2.991
    2ALA     CA   17   1.859   1.963   2.988
    2ALA     HA   18   1.936   1.889   3.003
    2ALA     CB   19   1.772   1.983   3.116
    2ALA    HB1   20   1.829   1.975   3.211
    2ALA    HB2   21   1.695   1.904   3.127
    2ALA    HB3   22   1.711   2.076   3.112
    2ALA      C   23   1.769   1.904   2.885
    2ALA      O   24   1.710   1.978   2.808
    3ASP      N   25   1.756   1.772   2.870
    3ASP     HN   26   1.806   1.710   2.930
    3ASP     CA   27   1.673   1.703   2.763
    3ASP     HA   28   1.707   1.733   2.665
    3ASP     CB   29   1.691   1.550   2.776
    3ASP    HB1   30   1.614   1.505   2.710
    3ASP    HB2   31   1.679   1.514   2.880
    3ASP     CG   32   1.834   1.508   2.738
    3ASP    OD1   33   1.918   1.590   2.693
    3ASP    OD2   34   1.862   1.385   2.745
    3ASP      C   35   1.516   1.734   2.775
    3ASP      O   36   1.458   1.768   2.881
    4GLY      N   37   1.441   1.720   2.660
    4GLY     HN   38   1.490   1.689   2.579
    4GLY     CA   39   1.295   1.739   2.650
    4GLY    HA1   40   1.269   1.689   2.558
    4GLY    HA2   41   1.282   1.846   2.648
    4GLY      C   42   1.205   1.687   2.760
    4GLY      O   43   1.227   1.578   2.810
    5PRO      N   44   1.096   1.753   2.810
    5PRO     CD   45   1.073   1.900   2.801
    5PRO    HD1   46   1.040   1.934   2.701
    5PRO    HD2   47   1.169   1.945   2.834
    5PRO     CA   48   1.015   1.690   2.924
    5PRO     HA   49   1.076   1.629   2.989
    5PRO     CB   50   0.969   1.816   3.000
    5PRO    HB1   51   1.044   1.849   3.075
    5PRO    HB2   52   0.878   1.817   3.063
    5PRO     CG   53   0.960   1.935   2.897
    5PRO    HG1   54   0.859   1.924   2.852
    5PRO    HG2   55   0.963   2.033   2.949
    5PRO      C   56   0.897   1.609   2.866
    5PRO      O   57   0.788   1.635   2.920
    6GLY      N   58   0.921   1.521   2.771
    6GLY     HN   59   1.017   1.500   2.758
    6GLY     CA   60   0.819   1.434   2.718
    6GLY    HA1   61   0.860   1.399   2.624
    6GLY    HA2   62   0.729   1.490   2.697
    6GLY      C   63   0.781   1.305   2.795
    6GLY      O   64   0.840   1.282   2.905
    7ASP      N   65   0.688   1.228   2.742
    7ASP     HN   66   0.630   1.261   2.668
    7ASP     CA   67   0.638   1.101   2.798
    7ASP     HA   68   0.607   1.124   2.899
    7ASP     CB   69   0.510   1.069   2.730
    7ASP    HB1   70   0.528   1.051   2.621
    7ASP    HB2   71   0.443   1.157   2.744
    7ASP     CG   72   0.442   0.943   2.781
    7ASP    OD1   73   0.317   0.947   2.799
    7ASP    OD2   74   0.510   0.844   2.814
    7ASP      C   75   0.750   0.996   2.805
    7ASP      O   76   0.810   0.959   2.701
    8PRO      N   77   0.790   0.938   2.914
    8PRO     CD   78   0.748   0.969   3.045
    8PRO    HD1   79   0.637   0.966   3.046
    8PRO    HD2   80   0.784   1.070   3.076
    8PRO     CA   81   0.914   0.859   2.913
    8PRO     HA   82   0.983   0.923   2.861
    8PRO     CB   83   0.936   0.836   3.060
    8PRO    HB1   84   0.999   0.922   3.092
    8PRO    HB2   85   0.993   0.743   3.079
    8PRO     CG   86   0.795   0.846   3.130
    8PRO    HG1   87   0.737   0.753   3.112
    8PRO    HG2   88   0.799   0.867   3.239
    8PRO      C   89   0.876   0.732   2.843
    8PRO      O   90   0.969   0.665   2.799
    9ASP      N   91   0.750   0.684   2.847
    9ASP     HN   92   0.678   0.742   2.885
    9ASP     CA   93   0.712   0.557   2.782
    9ASP     HA   94   0.801   0.495   2.781
    9ASP     CB   95   0.592   0.493   2.851
    9ASP    HB1   96   0.570   0.406   2.785
    9ASP    HB2   97   0.501   0.556   2.841
    9ASP     CG   98   0.625   0.447   2.990
    9ASP    OD1   99   0.536   0.464   3.073
    9ASP    OD2  100   0.733   0.386   3.008
    9ASP      C  101   0.687   0.567   2.631
    9ASP      O  102   0.712   0.478   2.557
   10ALA      N  103   0.648   0.686   2.595
   10ALA     HN  104   0.625   0.752   2.666
   10ALA     CA  105   0.594   0.705   2.464
   10ALA     HA  106   0.569   0.612   2.415
   10ALA     CB  107   0.466   0.790   2.454
   10ALA    HB1  108   0.488   0.893   2.490
   10ALA    HB2  109   0.392   0.736   2.516
   10ALA    HB3  110   0.429   0.799   2.350
   10ALA      C  111   0.694   0.751   2.364
   10ALA      O  112   0.674   0.748   2.242
   11GLY      N  113   0.811   0.790   2.415
   11GLY     HN  114   0.828   0.790   2.513
   11GLY     CA  115   0.930   0.798   2.332
   11GLY    HA1  116   0.934   0.709   2.270
   11GLY    HA2  117   1.011   0.798   2.403
   11GLY      C  118   0.942   0.918   2.235
   11GLY    OT1  119   0.916   1.038   2.271
   11GLY    OT2  120   0.973   0.895   2.117
   12LIT    LIT  121   2.894   5.385   0.284
   13LIT    LIT  122   1.312   2.980   2.372
   14LIT    LIT  123   5.212   3.075   2.750
   15LIT    LIT  124   6.171   0.995   3.429
   16LIT    LIT  125   3.241   4.517   3.412
   17LIT    LIT  126   2.577   1.532   0.946
   18LIT    LIT  127   2.146   0.344   5.037
   19LIT    LIT  128   4.846   4.823   2.262
   20LIT    LIT  129   3.954   2.187   2.831
   21LIT    LIT  130   2.766   0.767   1.724
   22LIT    LIT  131   6.205   4.106   0.577
   23LIT    LIT  132   3.458   3.106   1.841
   24LIT    LIT  133   5.171   4.258   2.307
   25LIT    LIT  134   2.088  -0.002   0.168
   26LIT    LIT  135   4.065   0.655   2.639
   27LIT    LIT  136   0.545   1.336   3.431
   28LIT    LIT  137   1.714   0.618   3.062
   29LIT    LIT  138   3.242   3.869   0.713
   30LIT    LIT  139   2.322   2.776   3.684
   31LIT    LIT  140   4.340   2.212   4.269
   32LIT    LIT  141   1.088   0.378   1.477
   33LIT    LIT  142   0.001   2.213   0.413
   34CLA    CLA  143   2.548   3.048   3.318
   35CLA    CLA  144   4.489   4.819   0.986
   36CLA    CLA  145   5.376   1.550   1.934
   37CLA    CLA  146   4.933   4.191   1.639
   38CLA    CLA  147   4.682   2.467   4.260
   39CLA    CLA  148   0.703   0.162   3.808
   40CLA    CLA  149   6.038   4.508   0.830
   41CLA    CLA  150   6.095   4.368   0.130
   42CLA    CLA  151   5.280   3.503   0.543
   43CLA    CLA  152   6.016   0.679   4.603
   44CLA    CLA  153   3.389   3.351   0.676
   45CLA    CLA  154   4.743   2.727   5.167
   46CLA    CLA  155   2.141   0.120   5.045
   47CLA    CLA  156   1.372   0.653   1.253
   48CLA    CLA  157   2.763   4.355   2.484
   49CLA    CLA  158   4.732   4.480   0.199
   50CLA    CLA  159   2.325   1.887   0.914
   51CLA    CLA  160   0.994   4.287   2.419
   52TIP3   OH2  161   3.971   3.784   2.022
   52TIP3    H1  162   3.886   3.744   2.039
   52TIP3    H2  163   4.026   3.758   2.095
   53TIP3   OH2  164   5.854   0.975   1.454
   53TIP3    H1  165   5.797   0.992   1.529
   53TIP3    H2  166   5.902   1.057   1.441
   54TIP3   OH2  167   2.252   0.505   2.487
   54TIP3    H1  168   2.323   0.514   2.424
   54TIP3    H2  169   2.260   0.582   2.544
   55TIP3   OH2  170   4.117   2.673   3.396
   55TIP3    H1  171   4.100   2.624   3.476
   55TIP3    H2  172   4.032   2.680   3.354
   56TIP3   OH2  173   2.533   0.151   0.342
   56TIP3    H1  174   2.461   0.123   0.399
   56TIP3    H2  175   2.555   0.073   0.291
   57TIP3   OH2  176   1.864   3.711   1.350
   57TIP3    H1  177   1.814   3.778   1.304
   57TIP3    H2  178   1.955   3.728   1.326
   58TIP3   OH2  179   1.117   4.382   0.683
   58TIP3    H1  180   1.162   4.428   0.754
   58TIP3    H2  181   1.186   4.328   0.643
   59TIP3   OH2  182   1.861   1.081   4.795
   59TIP3    H1  183   1.786   1.094   4.854
   59TIP3    H2  184   1.905   1.003   4.828
   60TIP3   OH2  185   0.754   5.622   2.907
   60TIP3    H1  186   0.825   5.679   2.877
   60TIP3    H2  187   0.704   5.603   2.828
   61TIP3   OH2  188   2.011   3.822   3.088
   61TIP3    H1  189   2.097   3.787   3.065
   61TIP3    H2  190   2.023   3.917   3.091
   62TIP3   OH2  191   3.436   5.583   0.839
   62TIP3    H1  192   3.496   5.552   0.907
   62TIP3    H2  193   3.408   5.670   0.869
   63TIP3   OH2  194   1.615   4.089   2.304
   63TIP3    H1  195   1.569   4.011   2.274
   63TIP3    H2  196   1.587   4.158   2.244
   64TIP3   OH2  197   5.771   2.130   1.273
   64TIP3    H1  198   5.685   2.155   1.239
   64TIP3    H2  199   5.825   2.208   1.262
   65TIP3   OH2  200   3.108   1.796   3.204
   65TIP3    H1  201   3.163   1.718   3.212
   65TIP3    H2  202   3.063   1.785   3.121
   66TIP3   OH2  203   5.003   5.811   3.136
   66TIP3    H1  204   5.022   5.898   3.100
   66TIP3    H2  205   5.057   5.752   3.083
   67TIP3   OH2  206   2.616   1.016   1.278
   67TIP3    H1  207   2.549   0.976   1.223
   67TIP3    H2  208   2.656   1.083   1.223
   68TIP3   OH2  209   2.602   0.543   3.561
   68TIP3    H1  210   2.595   0.468   3.620
   68TIP3    H2  211   2.663   0.515   3.493
   69TIP3   OH2  212   5.004   4.944   2.850
   69TIP3    H1  213   4.999   4.912   2.760
   69TIP3    H2  214   4.930   5.005   2.858
   70TIP3   OH2  215   0.153   3.018   0.716
   70TIP3    H1  216   0.151   3.100   0.766
   70TIP3    H2  217   0.203   3.039   0.637
   71TIP3   OH2  218   2.962   1.246   4.908
   71TIP3    H1  219   3.009   1.227   4.827
   71TIP3    H2  220   2.872   1.220   4.890
   72TIP3   OH2  221   4.442   4.272   1.764
   72TIP3    H1  222   4.501   4.198   1.754
   72TIP3    H2  223   4.382   4.245   1.833
   73TIP3   OH2  224   6.179   1.770   1.037
   73TIP3    H1  225   6.132   1.774   1.121
   73TIP3    H2  226   6.110   1.756   0.972
   74TIP3   OH2  227   2.793   1.854   1.536
   74TIP3    H1  228   2.761   1.887   1.453
   74TIP3    H2  229   2.881   1.890   1.544
   75TIP3   OH2  230   0.037   0.055   2.622
   75TIP3    H1  231   0.027   0.110   2.544
   75TIP3    H2  232   0.022  -0.034   2.591
   76TIP3   OH2  233   0.359   0.651   3.725
   76TIP3    H1  234   0.374   0.586   3.794
   76TIP3    H2  235   0.340   0.732   3.772
   77TIP3   OH2  236   2.521   2.069   3.226
   77TIP3    H1  237   2.438   2.080   3.272
   77TIP3    H2  238   2.529   2.146   3.170
   78TIP3   OH2  239   2.616   0.333   1.540
   78TIP3    H1  240   2.691   0.383   1.573
   78TIP3    H2  241   2.546   0.349   1.604
   79TIP3   OH2  242   4.745   4.978   1.217
   79TIP3    H1  243   4.670   4.921   1.235
   79TIP3    H2  244   4.819   4.935   1.261
   80TIP3   OH2  245   2.484   1.618   2.040
   80TIP3    H1  246   2.571   1.631   2.002
   80TIP3    H2  247   2.443   1.705   2.037
   81TIP3   OH2  248   2.774   2.198   1.637
   81TIP3    H1  249   2.788   2.196   1.542
   81TIP3    H2  250   2.681   2.216   1.647
   82TIP3   OH2  251   5.986   0.753   0.696
   82TIP3    H1  252   6.030   0.772   0.613
   82TIP3    H2  253   5.990   0.836   0.744
   83TIP3   OH2  254   5.343   1.556   2.746
   83TIP3    H1  255   5.380   1.580   2.661
   83TIP3    H2  256   5.417   1.516   2.794
   84TIP3   OH2  257   3.022   3.716   0.991
   84TIP3    H1  258   2.976   3.801   0.994
   84TIP3    H2  259   2.962   3.658   0.944
   85TIP3   OH2  260   1.820   3.705   2.946
   85TIP3    H1  261   1.883   3.751   3.003
   85TIP3    H2  262   1.767   3.775   2.908
   86TIP3   OH2  263   5.124   2.363   1.091
   86TIP3    H1  264   5.191   2.324   1.146
   86TIP3    H2  265   5.141   2.457   1.095
   87TIP3   OH2  266   2.026   5.283   3.236
   87TIP3    H1  267   2.017   5.210   3.297
   87TIP3    H2  268   2.114   5.318   3.253
   88TIP3   OH2  269   2.958   2.534   3.247
   88TIP3    H1  270   3.005   2.510   3.166
   88TIP3    H2  271   2.888   2.470   3.254
   89TIP3   OH2  272   2.437   5.671   4.920
   89TIP3    H1  273   2.366   5.730   4.945
   89TIP3    H2  274   2.503   5.681   4.989
   90TIP3   OH2  275   1.099   5.098   5.155
   90TIP3    H1  276   1.049   5.161   5.103
   90TIP3    H2  277   1.187   5.136   5.160
   91TIP3   OH2  278   0.633   3.377   0.737
   91TIP3    H1  279   0.632   3.448   0.801
   91TIP3    H2  280   0.554   3.326   0.757
   92TIP3   OH2  281   3.825   4.457   1.276
   92TIP3    H1  282   3.743   4.435   1.320
   92TIP3    H2  283   3.881   4.380   1.290
   93TIP3   OH2  284   5.097   1.584   2.104
   93TIP3    H1  285   5.184   1.590   2.066
   93TIP3    H2  286   5.041   1.556   2.032
   94TIP3   OH2  287   4.962   0.276   0.911
   94TIP3    H1  288   4.884   0.223   0.928
   94TIP3    H2  289   4.945   0.359   0.955
   95TIP3   OH2  290   5.655   0.988   1.654
   95TIP3    H1  291   5.609   1.038   1.722
   95TIP3    H2  292   5.663   0.900   1.689
   96TIP3   OH2  293   1.011   0.402   1.008
   96TIP3    H1  294   1.084   0.457   1.037
   96TIP3    H2  295   1.035   0.314   1.036
   97TIP3   OH2  296   1.861   0.530   2.134
   97TIP3    H1  297   1.933   0.468   2.125
   97TIP3    H2  298   1.903   0.612   2.162
   98TIP3   OH2  299   5.913   5.957   3.609
   98TIP3    H1  300   5.875   5.869   3.599
   98TIP3    H2  301   5.901   5.998   3.524
   99TIP3   OH2  302   4.463   4.110   2.558
   99TIP3    H1  303   4.435   4.183   2.613
   99TIP3    H2  304   4.545   4.081   2.598
  100TIP3   OH2  305   2.480   2.822   3.782
  100TIP3    H1  306   2.563   2.816   3.735
  100TIP3    H2  307   2.504   2.819   3.874
  101TIP3   OH2  308   3.929   4.329   2.169
  101TIP3    H1  309   3.934   4.251   2.224
  101TIP3    H2  310   3.999   4.386   2.200
  102TIP3   OH2  311   1.141   5.791   0.723
  102TIP3    H1  312   1.097   5.837   0.652
  102TIP3    H2  313   1.081   5.721   0.748
  103TIP3   OH2  314   3.288   5.085   0.242
  103TIP3    H1  315   3.367   5.137   0.231
  103TIP3    H2  316   3.313   4.997   0.214
  104TIP3   OH2  317   4.421   0.965   2.137
  104TIP3    H1  318   4.433   0.870   2.136
  104TIP3    H2  319   4.478   0.995   2.208
  105TIP3   OH2  320   5.251   5.106   1.702
  105TIP3    H1  321   5.302   5.121   1.623
  105TIP3    H2  322   5.243   5.193   1.742
  106TIP3   OH2  323   0.427   3.293   4.630
  106TIP3    H1  324   0.398   3.236   4.559
  106TIP3    H2  325   0.514   3.260   4.653
  107TIP3   OH2  326   4.589   4.958   4.993
  107TIP3    H1  327   4.503   4.971   5.033
  107TIP3    H2  328   4.650   4.995   5.057
  108TIP3   OH2  329   3.349   2.641   0.305
  108TIP3    H1  330   3.337   2.657   0.211
  108TIP3    H2  331   3.443   2.626   0.314
  109TIP3   OH2  332   3.939   2.029   1.215
  109TIP3    H1  333   4.010   2.089   1.238
  109TIP3    H2  334   3.870   2.050   1.278
  110TIP3   OH2  335   0.321   0.192   2.855
  110TIP3    H1  336   0.298   0.263   2.915
  110TIP3    H2  337   0.381   0.138   2.905
  111TIP3   OH2  338   3.802   5.639   3.913
  111TIP3    H1  339   3.827   5.557   3.871
  111TIP3    H2  340   3.829   5.707   3.852
  112TIP3   OH2  341   1.900   3.474   3.074
  112TIP3    H1  342   1.879   3.540   3.008
  112TIP3    H2  343   1.859   3.394   3.042
  113TIP3   OH2  344   1.242   4.716   1.487
  113TIP3    H1  345   1.300   4.741   1.560
  113TIP3    H2  346   1.230   4.798   1.438
  114TIP3   OH2  347   1.019   2.580   2.551
  114TIP3    H1  348   0.926   2.593   2.531
  114TIP3    H2  349   1.064   2.620   2.477
  115TIP3   OH2  350   3.591   5.547   1.059
  115TIP3    H1  351   3.655   5.499   1.111
  115TIP3    H2  352   3.615   5.639   1.070
  116TIP3   OH2  353   3.112   5.770   0.006
  116TIP3    H1  354   3.081   5.802   0.090
  116TIP3    H2  355   3.051   5.807  -0.058
  117TIP3   OH2  356   3.792   1.215   1.394
  117TIP3    H1  357   3.843   1.184   1.320
  117TIP3    H2  358   3.776   1.307   1.376
  118TIP3   OH2  359   5.986   2.968   0.477
  118TIP3    H1  360   5.970   2.973   0.571
  118TIP3    H2  361   5.932   3.037   0.440
  119TIP3   OH2  362   5.060   4.554   1.835
  119TIP3    H1  363   5.044   4.632   1.888
  119TIP3    H2  364   4.995   4.491   1.865
  120TIP3   OH2  365   6.219   5.324   4.824
  120TIP3    H1  366   6.237   5.398   4.767
  120TIP3    H2  367   6.174   5.260   4.768
  121TIP3   OH2  368   3.096   3.501   4.660
  121TIP3    H1  369   3.041   3.538   4.592
  121TIP3    H2  370   3.080   3.407   4.657
  122TIP3   OH2  371   0.637   2.450   1.927
  122TIP3    H1  372   0.642   2.404   1.844
  122TIP3    H2  373   0.620   2.382   1.992
  123TIP3   OH2  374   2.789   3.651   3.957
  123TIP3    H1  375   2.844   3.577   3.980
  123TIP3    H2  376   2.805   3.715   4.027
  124TIP3   OH2  377   2.068   4.780   3.785
  124TIP3    H1  378   1.991   4.760   3.731
  124TIP3    H2  379   2.129   4.822   3.725
  125TIP3   OH2  380   2.740   1.579   1.569
  125TIP3    H1  381   2.768   1.671   1.566
  125TIP3    H2  382   2.719   1.558   1.479
  126TIP3   OH2  383   3.437   1.677   3.061
  126TIP3    H1  384   3.356   1.627   3.051
  126TIP3    H2  385   3.438   1.703   3.153
  127TIP3   OH2  386   0.954   2.415   3.190
  127TIP3    H1  387   0.973   2.509   3.192
  127TIP3    H2  388   0.914   2.401   3.104
  128TIP3   OH2  389   1.001   4.858   0.266
  128TIP3    H1  390   1.036   4.918   0.332
  128TIP3    H2  391   0.928   4.906   0.227
  129TIP3   OH2  392   0.018   3.729   5.099
  129TIP3    H1  393   0.035   3.746   5.007
  129TIP3    H2  394   0.063   3.646   5.117
  130TIP3   OH2  395   5.181   0.625   2.924
  130TIP3    H1  396   5.224   0.630   2.839
  130TIP3    H2  397   5.149   0.535   2.930
  131TIP3   OH2  398   4.047   4.077   3.106
  131TIP3    H1  399   4.036   4.132   3.029
  131TIP3    H2  400   4.032   3.988   3.075
  132TIP3   OH2  401   5.322   2.258   1.310
  132TIP3    H1  402   5.410   2.220   1.307
  132TIP3    H2  403   5.266   2.192   1.271
  133TIP3   OH2  404   5.945   3.179   1.235
  133TIP3    H1  405   5.921   3.094   1.199
  133TIP3    H2  406   5.862   3.219   1.260
  134TIP3   OH2  407   6.180   5.143   2.124
  134TIP3    H1  408   6.138   5.179   2.203
  134TIP3    H2  409   6.261   5.193   2.117
  135TIP3   OH2  410   3.447   4.026   3.465
  135TIP3    H1  411   3.511   4.010   3.535
  135TIP3    H2  412   3.370   3.975   3.492
  136TIP3   OH2  413   4.142   1.471   2.633
  136TIP3    H1  414   4.110   1.443   2.719
  136TIP3    H2  415   4.238   1.470   2.641
  137TIP3   OH2  416   3.202   1.779   2.217
  137TIP3    H1  417   3.140   1.763   2.146
  137TIP3    H2  418   3.285   1.744   2.184
  138TIP3   OH2  419   1.057   4.261   4.418
  138TIP3    H1  420   1.058   4.287   4.325
  138TIP3    H2  421   0.970   4.224   4.431
  139TIP3   OH2  422   2.382   3.414   2.110
  139TIP3    H1  423   2.460   3.370   2.146
  139TIP3    H2  424   2.405   3.507   2.109
  140TIP3   OH2  425   4.159   4.910   3.580
  140TIP3    H1  426   4.220   4.913   3.654
  140TIP3    H2  427   4.081   4.955   3.611
  141TIP3   OH2  428   1.801   1.777   4.838
  141TIP3    H1  429   1.871   1.802   4.778
  141TIP3    H2  430   1.738   1.729   4.784
  142TIP3   OH2  431   1.082   3.390   0.491
  142TIP3    H1  432   1.027   3.427   0.422
  142TIP3    H2  433   1.023   3.374   0.564
  143TIP3   OH2  434   0.372   0.082   1.382
  143TIP3    H1  435   0.283   0.050   1.372
  143TIP3    H2  436   0.366   0.149   1.451
  144TIP3   OH2  437   4.461   5.130   1.089
  144TIP3    H1  438   4.542   5.168   1.123
  144TIP3    H2  439   4.482   5.038   1.073
  145TIP3   OH2  440   4.908   5.438   1.117
  145TIP3    H1  441   4.848   5.513   1.123
  145TIP3    H2  442   4.973   5.464   1.052
  146TIP3   OH2  443   5.159   5.892   5.220
  146TIP3    H1  444   5.218   5.894   5.144
  146TIP3    H2  445   5.104   5.969   5.210
  147TIP3   OH2  446   4.268   3.500   3.870
  147TIP3    H1  447   4.339   3.529   3.927
  147TIP3    H2  448   4.193   3.490   3.929
  148TIP3   OH2  449   1.134   1.157   1.213
  148TIP3    H1  450   1.111   1.167   1.305
  148TIP3    H2  451   1.085   1.226   1.168
  149TIP3   OH2  452   5.658   3.879   3.414
  149TIP3    H1  453   5.648   3.914   3.325
  149TIP3    H2  454   5.580   3.825   3.427
  150TIP3   OH2  455   0.387   5.970   3.777
  150TIP3    H1  456   0.458   5.980   3.841
  150TIP3    H2  457   0.413   5.894   3.725
  151TIP3   OH2  458   6.156   5.968   2.103
  151TIP3    H1  459   6.101   6.019   2.163
  151TIP3    H2  460   6.099   5.951   2.028
  152TIP3   OH2  461   3.930   3.821   3.285
  152TIP3    H1  462   3.907   3.826   3.378
  152TIP3    H2  463   3.856   3.863   3.240
  153TIP3   OH2  464   5.774   5.196   2.895
  153TIP3    H1  465   5.711   5.145   2.844
  153TIP3    H2  466   5.720   5.254   2.948
  154TIP3   OH2  467   0.806   3.465   1.219
  154TIP3    H1  468   0.831   3.476   1.311
  154TIP3    H2  469   0.823   3.551   1.179
  155TIP3   OH2  470   4.793   2.187   4.137
  155TIP3    H1  471   4.743   2.263   4.168
  155TIP3    H2  472   4.755   2.167   4.051
  156TIP3   OH2  473   3.311   1.191   3.161
  156TIP3    H1  474   3.343   1.243   3.235
  156TIP3    H2  475   3.246   1.132   3.200
  157TIP3   OH2  476   0.218   0.416   4.020
  157TIP3    H1  477   0.225   0.339   3.963
  157TIP3    H2  478   0.303   0.459   4.012
  158TIP3   OH2  479   2.009   0.241   1.201
  158TIP3    H1  480   1.926   0.255   1.155
  158TIP3    H2  481   2.044   0.329   1.215
  159TIP3   OH2  482   1.171   5.807   1.220
  159TIP3    H1  483   1.085   5.765   1.225
  159TIP3    H2  484   1.152   5.892   1.179
  160TIP3   OH2  485   6.038   1.489   4.275
  160TIP3    H1  486   5.999   1.518   4.358
  160TIP3    H2  487   5.991   1.409   4.253
  161TIP3   OH2  488   2.106   2.382   4.126
  161TIP3    H1  489   2.019   2.344   4.117
  161TIP3    H2  490   2.156   2.319   4.178
  162TIP3   OH2  491   0.253   3.681   1.945
  162TIP3    H1  492   0.343   3.649   1.949
  162TIP3    H2  493   0.261   3.776   1.938
  163TIP3   OH2  494   4.187   4.396   2.687
  163TIP3    H1  495   4.190   4.301   2.701
  163TIP3    H2  496   4.279   4.423   2.689
  164TIP3   OH2  497   2.507   4.497   3.034
  164TIP3    H1  498   2.423   4.525   2.999
  164TIP3    H2  499   2.492   4.409   3.068
  165TIP3   OH2  500   4.581   2.050   1.072
  165TIP3    H1  501   4.554   2.025   0.983
  165TIP3    H2  502   4.675   2.066   1.065
  166TIP3   OH2  503   0.065   5.287   5.065
  166TIP3    H1  504   0.006   5.288   4.989
  166TIP3    H2  505   0.006   5.297   5.140
  167TIP3   OH2  506   0.199   4.193   3.312
  167TIP3    H1  507   0.157   4.131   3.252
  167TIP3    H2  508   0.292   4.177   3.302
  168TIP3   OH2  509   2.159   3.893   4.575
  168TIP3    H1  510   2.202   3.910   4.659
  168TIP3    H2  511   2.069   3.924   4.587
  169TIP3   OH2  512   2.587   5.807   2.686
  169TIP3    H1  513   2.630   5.862   2.751
  169TIP3    H2  514   2.494   5.831   2.692
  170TIP3   OH2  515   4.007   0.564   4.943
  170TIP3    H1  516   3.918   0.566   4.909
  170TIP3    H2  517   4.017   0.647   4.990
  171TIP3   OH2  518   5.731   3.490   4.661
  171TIP3    H1  519   5.658   3.532   4.615
  171TIP3    H2  520   5.787   3.563   4.688
  172TIP3   OH2  521   2.519   0.891   1.497
  172TIP3    H1  522   2.548   0.936   1.418
  172TIP3    H2  523   2.461   0.954   1.541
  173TIP3   OH2  524   3.766   5.052   0.552
  173TIP3    H1  525   3.856   5.066   0.580
  173TIP3    H2  526   3.764   5.086   0.462
  174TIP3   OH2  527   3.577   4.220   4.659
  174TIP3    H1  528   3.609   4.144   4.611
  174TIP3    H2  529   3.531   4.183   4.734
  175TIP3   OH2  530   2.157   2.827   3.773
  175TIP3    H1  531   2.121   2.914   3.758
  175TIP3    H2  532   2.100   2.788   3.839
  176TIP3   OH2  533   2.765   0.904   0.420
  176TIP3    H1  534   2.678   0.879   0.451
  176TIP3    H2  535   2.769   0.871   0.330
  177TIP3   OH2  536   4.612   3.317   2.847
  177TIP3    H1  537   4.592   3.408   2.828
  177TIP3    H2  538   4.651   3.319   2.934
  178TIP3   OH2  539   1.300   2.335   0.029
  178TIP3    H1  540   1.291   2.397   0.102
  178TIP3    H2  541   1.268   2.383  -0.047
  179TIP3   OH2  542   1.727   2.309   1.605
  179TIP3    H1  543   1.808   2.334   1.651
  179TIP3    H2  544   1.710   2.220   1.634
  180TIP3   OH2  545   5.033   1.337   0.614
  180TIP3    H1  546   4.952   1.368   0.655
  180TIP3    H2  547   5.102   1.389   0.653
  181TIP3   OH2  548   5.312   5.691   1.881
  181TIP3    H1  549   5.231   5.644   1.861
  181TIP3    H2  550   5.334   5.736   1.800
  182TIP3   OH2  551   0.072   5.181   3.318
  182TIP3    H1  552  -0.005   5.126   3.304
  182TIP3    H2  553   0.044   5.269   3.294
  183TIP3   OH2  554   5.293   2.633   0.662
  183TIP3    H1  555   5.256   2.685   0.734
  183TIP3    H2  556   5.351   2.694   0.616
  184TIP3   OH2  557   0.099   3.456   0.062
  184TIP3    H1  558   0.039   3.529   0.080
  184TIP3    H2  559   0.066   3.385   0.116
  185TIP3   OH2  560   0.715   3.980   3.872
  185TIP3    H1  561   0.793   4.035   3.871
  185TIP3    H2  562   0.746   3.893   3.846
  186TIP3   OH2  563   2.694   3.557   0.364
  186TIP3    H1  564   2.627   3.501   0.324
  186TIP3    H2  565   2.676   3.644   0.328
  187TIP3   OH2  566   4.372   5.949   1.256
  187TIP3    H1  567   4.371   5.854   1.270
  187TIP3    H2  568   4.296   5.981   1.304
  188TIP3   OH2  569   4.638   3.627   2.823
  188TIP3    H1  570   4.700   3.631   2.750
  188TIP3    H2  571   4.674   3.687   2.888
  189TIP3   OH2  572   4.742   1.554   4.628
  189TIP3    H1  573   4.744   1.523   4.719
  189TIP3    H2  574   4.811   1.503   4.585
  190TIP3   OH2  575   4.127   3.239   2.403
  190TIP3    H1  576   4.183   3.266   2.476
  190TIP3    H2  577   4.160   3.152   2.379
  191TIP3   OH2  578   2.578   2.488   0.530
  191TIP3    H1  579   2.493   2.467   0.569
  191TIP3    H2  580   2.596   2.578   0.557
  192TIP3   OH2  581   5.142   5.947   1.567
  192TIP3    H1  582   5.180   5.862   1.587
  192TIP3    H2  583   5.082   5.965   1.640
  193TIP3   OH2  584   5.456   0.931   5.063
  193TIP3    H1  585   5.491   1.010   5.022
  193TIP3    H2  586   5.373   0.915   5.017
  194TIP3   OH2  587   1.997   1.239   3.301
  194TIP3    H1  588   1.936   1.255   3.230
  194TIP3    H2  589   1.991   1.144   3.316
  195TIP3   OH2  590   3.548   1.499   2.883
  195TIP3    H1  591   3.608   1.562   2.843
  195TIP3    H2  592   3.527   1.537   2.969
  196TIP3   OH2  593   5.059   2.436   2.588
  196TIP3    H1  594   5.111   2.368   2.545
  196TIP3    H2  595   5.105   2.517   2.567
  197TIP3   OH2  596   0.745   3.712   2.452
  197TIP3    H1  597   0.779   3.785   2.400
  197TIP3    H2  598   0.723   3.750   2.537
  198TIP3   OH2  599   3.006   1.876   2.700
  198TIP3    H1  600   3.049   1.955   2.734
  198TIP3    H2  601   3.008   1.815   2.774
  199TIP3   OH2  602   0.546   1.812   2.425
  199TIP3    H1  603   0.504   1.726   2.416
  199TIP3    H2  604   0.600   1.805   2.503
  200TIP3   OH2  605   6.097   3.525   0.794
  200TIP3    H1  606   6.033   3.573   0.847
  200TIP3    H2  607   6.180   3.571   0.808
  201TIP3   OH2  608   1.234   1.462   0.066
  201TIP3    H1  609   1.218   1.385   0.119
  201TIP3    H2  610   1.148   1.483   0.027
  202TIP3   OH2  611   2.201   3.011   2.874
  202TIP3    H1  612   2.228   3.093   2.831
  202TIP3    H2  613   2.212   2.944   2.806
  203TIP3   OH2  614   0.819   4.825   5.114
  203TIP3    H1  615   0.816   4.729   5.123
  203TIP3    H2  616   0.842   4.857   5.201
  204TIP3   OH2  617   4.040   0.644   4.597
  204TIP3    H1  618   4.111   0.705   4.579
  204TIP3    H2  619   4.083   0.562   4.622
  205TIP3   OH2  620   5.306   2.046   1.068
  205TIP3    H1  621   5.342   1.984   1.005
  205TIP3    H2  622   5.380   2.102   1.090
  206TIP3   OH2  623   0.278   3.883   3.412
  206TIP3    H1  624   0.280   3.914   3.322
  206TIP3    H2  625   0.263   3.961   3.465
  207TIP3   OH2  626   1.779   4.738   3.780
  207TIP3    H1  627   1.687   4.713   3.774
  207TIP3    H2  628   1.797   4.740   3.874
  208TIP3   OH2  629   4.805   3.305   2.121
  208TIP3    H1  630   4.714   3.326   2.100
  208TIP3    H2  631   4.799   3.237   2.189
  209TIP3   OH2  632   3.903   0.605   2.744
  209TIP3    H1  633   3.863   0.689   2.768
  209TIP3    H2  634   3.833   0.541   2.756
  210TIP3   OH2  635   4.428   0.098   2.306
  210TIP3    H1  636   4.430   0.036   2.233
  210TIP3    H2  637   4.493   0.165   2.283
  211TIP3   OH2  638   4.942   5.375   4.303
  211TIP3    H1  639   4.987   5.443   4.252
  211TIP3    H2  640   4.905   5.317   4.237
  212TIP3   OH2  641   5.050   4.570   1.501
  212TIP3    H1  642   5.002   4.539   1.578
  212TIP3    H2  643   5.016   4.517   1.429
  213TIP3   OH2  644   2.413   3.949   4.309
  213TIP3    H1  645   2.368   3.895   4.245
  213TIP3    H2  646   2.434   3.889   4.381
  214TIP3   OH2  647   1.582   1.962   4.622
  214TIP3    H1  648   1.560   2.047   4.583
  214TIP3    H2  649   1.504   1.938   4.672
  215TIP3   OH2  650   1.263   4.523   0.863
  215TIP3    H1  651   1.222   4.603   0.896
  215TIP3    H2  652   1.349   4.552   0.831
  216TIP3   OH2  653   0.007   5.472   3.007
  216TIP3    H1  654   0.034   5.493   3.097
  216TIP3    H2  655   0.048   5.388   2.989
  217TIP3   OH2  656   2.724   3.571   1.925
  217TIP3    H1  657   2.636   3.579   1.888
  217TIP3    H2  658   2.772   3.516   1.863
  218TIP3   OH2  659   1.445   0.021   0.342
  218TIP3    H1  660   1.458  -0.074   0.340
  218TIP3    H2  661   1.366   0.036   0.291
  219TIP3   OH2  662   0.072   5.771   0.759
  219TIP3    H1  663   0.034   5.776   0.671
  219TIP3    H2  664   0.093   5.862   0.781
  220TIP3   OH2  665   1.256   3.482   0.693
  220TIP3    H1  666   1.205   3.427   0.634
  220TIP3    H2  667   1.225   3.571   0.674
  221TIP3   OH2  668   1.665   5.030   2.543
  221TIP3    H1  669   1.583   4.985   2.559
  221TIP3    H2  670   1.650   5.119   2.573
  222TIP3   OH2  671   5.212   2.278   4.800
  222TIP3    H1  672   5.233   2.368   4.775
  222TIP3    H2  673   5.296   2.241   4.827
  223TIP3   OH2  674   2.709   2.802   2.891
  223TIP3    H1  675   2.679   2.806   2.982
  223TIP3    H2  676   2.759   2.721   2.885
  224TIP3   OH2  677   2.518   3.090   0.134
  224TIP3    H1  678   2.503   3.181   0.108
  224TIP3    H2  679   2.573   3.096   0.212
  225TIP3   OH2  680   4.724   4.411   4.275
  225TIP3    H1  681   4.811   4.374   4.293
  225TIP3    H2  682   4.718   4.487   4.333
  226TIP3   OH2  683   1.136   2.823   2.956
  226TIP3    H1  684   1.210   2.848   2.901
  226TIP3    H2  685   1.163   2.739   2.994
  227TIP3   OH2  686   5.689   2.671   1.402
  227TIP3    H1  687   5.694   2.579   1.377
  227TIP3    H2  688   5.738   2.677   1.484
  228TIP3   OH2  689   4.619   2.132   2.509
  228TIP3    H1  690   4.586   2.110   2.422
  228TIP3    H2  691   4.551   2.100   2.569
  229TIP3   OH2  692   1.804   2.858   1.805
  229TIP3    H1  693   1.755   2.934   1.837
  229TIP3    H2  694   1.803   2.868   1.710
  230TIP3   OH2  695   3.023   1.490   4.092
  230TIP3    H1  696   3.061   1.402   4.083
  230TIP3    H2  697   3.098   1.546   4.108
  231TIP3   OH2  698   4.866   5.416   3.346
  231TIP3    H1  699   4.839   5.485   3.286
  231TIP3    H2  700   4.956   5.438   3.369
  232TIP3   OH2  701   6.181   0.368   2.590
  232TIP3    H1  702   6.120   0.297   2.570
  232TIP3    H2  703   6.236   0.332   2.660
  233TIP3   OH2  704   5.176   3.788   0.018
  233TIP3    H1  705   5.086   3.814  -0.004
  233TIP3    H2  706   5.197   3.838   0.097
  234TIP3   OH2  707   4.641   0.804   3.371
  234TIP3    H1  708   4.693   0.754   3.433
  234TIP3    H2  709   4.569   0.840   3.422
  235TIP3   OH2  710   3.479   5.730   2.361
  235TIP3    H1  711   3.434   5.799   2.409
  235TIP3    H2  712   3.501   5.770   2.277
  236TIP3   OH2  713   0.910   5.936   4.173
  236TIP3    H1  714   0.855   5.958   4.249
  236TIP3    H2  715   0.933   5.845   4.187
  237TIP3   OH2  716   1.822   4.674   3.069
  237TIP3    H1  717   1.775   4.591   3.063
  237TIP3    H2  718   1.807   4.704   3.158
  238TIP3   OH2  719   3.381   5.851   0.877
  238TIP3    H1  720   3.409   5.863   0.786
  238TIP3    H2  721   3.328   5.929   0.896
  239TIP3   OH2  722   0.070   1.499   4.478
  239TIP3    H1  723   0.163   1.475   4.484
  239TIP3    H2  724   0.066   1.559   4.404
  240TIP3   OH2  725   5.016   3.545   4.099
  240TIP3    H1  726   4.962   3.587   4.031
  240TIP3    H2  727   5.012   3.606   4.173
  241TIP3   OH2  728   4.515   5.816   3.431
  241TIP3    H1  729   4.604   5.814   3.396
  241TIP3    H2  730   4.491   5.908   3.432
  242TIP3   OH2  731   2.763   0.367   4.412
  242TIP3    H1  732   2.814   0.447   4.426
  242TIP3    H2  733   2.756   0.327   4.499
  243TIP3   OH2  734   1.364   0.102   3.456
  243TIP3    H1  735   1.338   0.060   3.374
  243TIP3    H2  736   1.401   0.187   3.429
  244TIP3   OH2  737   1.031   3.496   4.463
  244TIP3    H1  738   1.101   3.432   4.451
  244TIP3    H2  739   0.971   3.479   4.391
  245TIP3   OH2  740   1.811   5.984   2.098
  245TIP3    H1  741   1.800   6.000   2.004
  245TIP3    H2  742   1.885   5.923   2.104
  246TIP3   OH2  743   3.835   4.243   0.254
  246TIP3    H1  744   3.867   4.289   0.176
  246TIP3    H2  745   3.905   4.255   0.318
  247TIP3   OH2  746   0.678   0.203   2.560
  247TIP3    H1  747   0.584   0.207   2.543
  247TIP3    H2  748   0.687   0.232   2.651
  248TIP3   OH2  749   1.370   0.562   2.821
  248TIP3    H1  750   1.284   0.590   2.791
  248TIP3    H2  751   1.367   0.569   2.916
  249TIP3   OH2  752   0.329   3.100   2.285
  249TIP3    H1  753   0.293   3.015   2.258
  249TIP3    H2  754   0.316   3.103   2.380
  250TIP3   OH2  755   2.624   3.082   2.944
  250TIP3    H1  756   2.601   2.990   2.930
  250TIP3    H2  757   2.541   3.125   2.961
  251TIP3   OH2  758   2.427   5.975   1.327
  251TIP3    H1  759   2.408   5.935   1.242
  251TIP3    H2  760   2.344   5.971   1.375
  252TIP3   OH2  761   5.147   2.876   2.116
  252TIP3    H1  762   5.184   2.842   2.035
  252TIP3    H2  763   5.068   2.823   2.130
  253TIP3   OH2  764   0.288   1.127   3.023
  253TIP3    H1  765   0.294   1.078   2.941
  253TIP3    H2  766   0.352   1.085   3.080
  254TIP3   OH2  767   1.648   0.346   1.370
  254TIP3    H1  768   1.727   0.348   1.424
  254TIP3    H2  769   1.576   0.343   1.432
  255TIP3   OH2  770   4.285   1.596   2.396
  255TIP3    H1  771   4.217   1.549   2.443
  255TIP3    H2  772   4.346   1.528   2.367
  256TIP3   OH2  773   2.444   1.107   0.901
  256TIP3    H1  774   2.447   1.081   0.993
  256TIP3    H2  775   2.373   1.055   0.864
  257TIP3   OH2  776   4.463   2.921   1.693
  257TIP3    H1  777   4.482   2.922   1.787
  257TIP3    H2  778   4.385   2.866   1.685
  258TIP3   OH2  779   5.508   5.928   1.719
  258TIP3    H1  780   5.456   6.003   1.749
  258TIP3    H2  781   5.562   5.963   1.648
  259TIP3   OH2  782   5.038   4.187   1.994
  259TIP3    H1  783   4.980   4.242   1.941
  259TIP3    H2  784   4.993   4.180   2.078
  260TIP3   OH2  785   6.105   0.846   1.436
  260TIP3    H1  786   6.022   0.868   1.479
  260TIP3    H2  787   6.110   0.905   1.361
  261TIP3   OH2  788   2.878   0.945   4.674
  261TIP3    H1  789   2.841   0.897   4.748
  261TIP3    H2  790   2.838   1.032   4.679
  262TIP3   OH2  791   4.520   1.358   0.981
  262TIP3    H1  792   4.496   1.303   1.056
  262TIP3    H2  793   4.548   1.296   0.913
  263TIP3   OH2  794   0.274   3.540   3.626
  263TIP3    H1  795   0.183   3.540   3.653
  263TIP3    H2  796   0.285   3.623   3.579
  264TIP3   OH2  797   3.259   1.248   1.074
  264TIP3    H1  798   3.330   1.308   1.098
  264TIP3    H2  799   3.304   1.169   1.045
  265TIP3   OH2  800   3.695   2.624   1.938
  265TIP3    H1  801   3.647   2.638   1.856
  265TIP3    H2  802   3.673   2.535   1.964
  266TIP3   OH2  803   4.863   4.803   4.619
  266TIP3    H1  804   4.934   4.745   4.648
  266TIP3    H2  805   4.809   4.816   4.696
  267TIP3   OH2  806   1.134   4.936   4.917
  267TIP3    H1  807   1.225   4.905   4.918
  267TIP3    H2  808   1.113   4.949   5.010
  268TIP3   OH2  809   1.694   5.434   2.843
  268TIP3    H1  810   1.716   5.520   2.807
  268TIP3    H2  811   1.778   5.395   2.868
  269TIP3   OH2  812   2.889   3.233   1.315
  269TIP3    H1  813   2.856   3.315   1.352
  269TIP3    H2  814   2.984   3.241   1.319
  270TIP3   OH2  815   2.658   4.497   1.561
  270TIP3    H1  816   2.683   4.579   1.603
  270TIP3    H2  817   2.654   4.518   1.467
  271TIP3   OH2  818   5.970   0.632   4.305
  271TIP3    H1  819   5.981   0.661   4.396
  271TIP3    H2  820   5.987   0.538   4.308
  272TIP3   OH2  821   0.051   0.813   3.146
  272TIP3    H1  822   0.106   0.818   3.068
  272TIP3    H2  823  -0.037   0.796   3.112
  273TIP3   OH2  824   5.460   5.124   4.211
  273TIP3    H1  825   5.447   5.072   4.291
  273TIP3    H2  826   5.543   5.169   4.225
  274TIP3   OH2  827   1.071   4.312   3.674
  274TIP3    H1  828   0.992   4.264   3.701
  274TIP3    H2  829   1.045   4.355   3.592
  275TIP3   OH2  830   2.236   1.703   0.405
  275TIP3    H1  831   2.314   1.649   0.419
  275TIP3    H2  832   2.210   1.731   0.492
  276TIP3   OH2  833   1.823   2.869   2.112
  276TIP3    H1  834   1.917   2.856   2.122
  276TIP3    H2  835   1.789   2.783   2.088
  277TIP3   OH2  836   4.394   4.728   4.908
  277TIP3    H1  837   4.393   4.744   5.002
  277TIP3    H2  838   4.308   4.691   4.889
  278TIP3   OH2  839   3.187   1.536   3.045
  278TIP3    H1  840   3.170   1.501   3.132
  278TIP3    H2  841   3.166   1.465   2.985
  279TIP3   OH2  842   2.876   2.167   4.670
  279TIP3    H1  843   2.883   2.072   4.680
  279TIP3    H2  844   2.784   2.187   4.687
  280TIP3   OH2  845   2.392   5.122   3.733
  280TIP3    H1  846   2.432   5.158   3.654
  280TIP3    H2  847   2.426   5.033   3.739
  281TIP3   OH2  848   4.206   3.542   2.005
  281TIP3    H1  849   4.144   3.507   1.941
  281TIP3    H2  850   4.254   3.465   2.035
  282TIP3   OH2  851   4.125   4.847   4.369
  282TIP3    H1  852   4.193   4.836   4.303
  282TIP3    H2  853   4.140   4.934   4.405
  283TIP3   OH2  854   2.489   5.046   0.644
  283TIP3    H1  855   2.548   5.019   0.714
  283TIP3    H2  856   2.468   4.965   0.597
  284TIP3   OH2  857   4.994   3.364   5.135
  284TIP3    H1  858   5.084   3.380   5.164
  284TIP3    H2  859   4.999   3.368   5.040
  285TIP3   OH2  860   0.102   3.093   3.162
  285TIP3    H1  861   0.109   3.181   3.125
  285TIP3    H2  862   0.052   3.104   3.243
  286TIP3   OH2  863   0.073   1.887   3.649
  286TIP3    H1  864   0.033   1.882   3.562
  286TIP3    H2  865   0.136   1.815   3.651
  287TIP3   OH2  866   3.631   3.194   1.175
  287TIP3    H1  867   3.622   3.282   1.212
  287TIP3    H2  868   3.542   3.170   1.149
  288TIP3   OH2  869   3.987   0.587   0.489
  288TIP3    H1  870   3.892   0.604   0.492
  288TIP3    H2  871   3.994   0.492   0.497
  289TIP3   OH2  872   2.225   2.188   2.025
  289TIP3    H1  873   2.291   2.163   2.090
  289TIP3    H2  874   2.260   2.269   1.987
  290TIP3   OH2  875   5.088   1.420   0.234
  290TIP3    H1  876   5.166   1.467   0.205
  290TIP3    H2  877   5.104   1.400   0.326
  291TIP3   OH2  878   1.173   1.961   3.594
  291TIP3    H1  879   1.126   2.042   3.573
  291TIP3    H2  880   1.130   1.894   3.541
  292TIP3   OH2  881   1.460   2.000   1.286
  292TIP3    H1  882   1.462   2.010   1.190
  292TIP3    H2  883   1.548   2.026   1.313
  293TIP3   OH2  884   4.364   1.695   0.159
  293TIP3    H1  885   4.438   1.748   0.129
  293TIP3    H2  886   4.287   1.734   0.117
  294TIP3   OH2  887   1.643   2.058   1.702
  294TIP3    H1  888   1.587   2.072   1.779
  294TIP3    H2  889   1.585   2.017   1.638
  295TIP3   OH2  890   2.457   1.131   1.860
  295TIP3    H1  891   2.545   1.152   1.829
  295TIP3    H2  892   2.448   1.183   1.941
  296TIP3   OH2  893   6.283   5.376   4.076
  296TIP3    H1  894   6.365   5.326   4.069
  296TIP3    H2  895   6.308   5.465   4.050
  297TIP3   OH2  896   0.911   4.433   2.985
  297TIP3    H1  897   0.936   4.363   3.045
  297TIP3    H2  898   0.854   4.391   2.921
  298TIP3   OH2  899   2.674   3.303   3.461
  298TIP3    H1  900   2.763   3.274   3.441
  298TIP3    H2  901   2.618   3.233   3.428
  299TIP3   OH2  902   4.382   3.978   2.883
  299TIP3    H1  903   4.316   4.036   2.845
  299TIP3    H2  904   4.458   4.034   2.897
  300TIP3   OH2  905   4.295   1.371   3.408
  300TIP3    H1  906   4.222   1.334   3.359
  300TIP3    H2  907   4.266   1.459   3.433
  301TIP3   OH2  908   1.234   5.807   0.312
  301TIP3    H1  909   1.162   5.757   0.351
  301TIP3    H2  910   1.226   5.793   0.218
  302TIP3   OH2  911   1.025   0.236   1.939
  302TIP3    H1  912   1.099   0.209   1.884
  302TIP3    H2  913   1.038   0.330   1.951
  303TIP3   OH2  914   2.519   1.532   3.259
  303TIP3    H1  915   2.576   1.583   3.316
  303TIP3    H2  916   2.436   1.526   3.306
  304TIP3   OH2  917   5.326   3.122   4.274
  304TIP3    H1  918   5.305   3.191   4.212
  304TIP3    H2  919   5.410   3.088   4.245
  305TIP3   OH2  920   4.171   5.433   4.502
  305TIP3    H1  921   4.177   5.403   4.411
  305TIP3    H2  922   4.081   5.462   4.512
  306TIP3   OH2  923   1.225   1.258   4.468
  306TIP3    H1  924   1.138   1.292   4.448
  306TIP3    H2  925   1.260   1.230   4.383
  307TIP3   OH2  926   3.580   4.468   1.509
  307TIP3    H1  927   3.525   4.442   1.583
  307TIP3    H2  928   3.658   4.506   1.549
  308TIP3   OH2  929   4.535   1.929   0.834
  308TIP3    H1  930   4.450   1.905   0.799
  308TIP3    H2  931   4.586   1.956   0.757
  309TIP3   OH2  932   1.598   4.846   0.073
  309TIP3    H1  933   1.659   4.859   0.001
  309TIP3    H2  934   1.512   4.841   0.031
  310TIP3   OH2  935   0.951   1.576   4.222
  310TIP3    H1  936   0.918   1.564   4.311
  310TIP3    H2  937   0.886   1.631   4.178
  311TIP3   OH2  938   2.532   1.161   2.816
  311TIP3    H1  939   2.470   1.127   2.752
  311TIP3    H2  940   2.477   1.207   2.880
  312TIP3   OH2  941   1.918   0.136   4.157
  312TIP3    H1  942   1.914   0.041   4.166
  312TIP3    H2  943   1.843   0.159   4.103
  313TIP3   OH2  944   0.466   0.102   1.103
  313TIP3    H1  945   0.439   0.083   1.193
  313TIP3    H2  946   0.392   0.074   1.049
  314TIP3   OH2  947   2.788   3.888   3.227
  314TIP3    H1  948   2.833   3.951   3.170
  314TIP3    H2  949   2.698   3.920   3.231
  315TIP3   OH2  950   5.107   4.799   2.617
  315TIP3    H1  951   5.189   4.817   2.662
  315TIP3    H2  952   5.132   4.780   2.527
  316TIP3   OH2  953   3.841   2.549   3.278
  316TIP3    H1  954   3.783   2.625   3.281
  316TIP3    H2  955   3.797   2.487   3.220
  317TIP3   OH2  956   0.598   0.596   3.333
  317TIP3    H1  957   0.561   0.560   3.253
  317TIP3    H2  958   0.591   0.525   3.397
  318TIP3   OH2  959   1.784   5.404   3.308
  318TIP3    H1  960   1.862   5.359   3.275
  318TIP3    H2  961   1.818   5.481   3.353
  319TIP3   OH2  962   3.750   4.480   4.222
  319TIP3    H1  963   3.721   4.429   4.298
  319TIP3    H2  964   3.783   4.561   4.259
  320TIP3   OH2  965   1.467   3.002   3.693
  320TIP3    H1  966   1.540   3.032   3.640
  320TIP3    H2  967   1.438   2.921   3.650
  321TIP3   OH2  968   5.188   0.471   2.162
  321TIP3    H1  969   5.233   0.399   2.206
  321TIP3    H2  970   5.175   0.441   2.072
  322TIP3   OH2  971   6.216   3.125   0.664
  322TIP3    H1  972   6.262   3.042   0.662
  322TIP3    H2  973   6.129   3.104   0.699
  323TIP3   OH2  974   3.482   0.960   2.378
  323TIP3    H1  975   3.465   0.981   2.286
  323TIP3    H2  976   3.559   0.903   2.376
  324TIP3   OH2  977   4.752   0.584   3.580
  324TIP3    H1  978   4.727   0.505   3.629
  324TIP3    H2  979   4.793   0.640   3.646
  325TIP3   OH2  980   3.072   4.292   2.321
  325TIP3    H1  981   3.046   4.278   2.230
  325TIP3    H2  982   2.995   4.330   2.363
  326TIP3   OH2  983   1.717   1.284   1.750
  326TIP3    H1  984   1.637   1.253   1.709
  326TIP3    H2  985   1.741   1.215   1.812
  327TIP3   OH2  986   3.304   0.049   2.471
  327TIP3    H1  987   3.229   0.067   2.526
  327TIP3    H2  988   3.315  -0.046   2.475
  328TIP3   OH2  989   4.525   5.094   0.446
  328TIP3    H1  990   4.464   5.154   0.488
  328TIP3    H2  991   4.470   5.020   0.418
  329TIP3   OH2  992   3.281   5.397   4.432
  329TIP3    H1  993   3.366   5.406   4.390
  329TIP3    H2  994   3.226   5.354   4.366
  330TIP3   OH2  995   3.891   5.399   3.798
  330TIP3    H1  996   3.819   5.336   3.788
  330TIP3    H2  997   3.970   5.347   3.783
  331TIP3   OH2  998   6.379   2.723   2.418
  331TIP3    H1  999   6.366   2.675   2.336
  331TIP3    H2 1000   6.403   2.656   2.482
  332TIP3   OH2 1001  -0.018   3.520   2.895
  332TIP3    H1 1002  -0.053   3.457   2.831
  332TIP3    H2 1003   0.062   3.553   2.854
  333TIP3   OH2 1004   1.717   5.721   2.502
  333TIP3    H1 1005   1.690   5.802   2.460
  333TIP3    H2 1006   1.802   5.741   2.542
  334TIP3   OH2 1007   1.938   0.516   3.906
  334TIP3    H1 1008   1.842   0.511   3.912
  334TIP3    H2 1009   1.959   0.470   3.825
  335TIP3   OH2 1010   2.811   4.099   2.306
  335TIP3    H1 1011   2.723   4.087   2.272
  335TIP3    H2 1012   2.810   4.187   2.344
  336TIP3   OH2 1013   2.284   5.442   1.707
  336TIP3    H1 1014   2.350   5.462   1.773
  336TIP3    H2 1015   2.217   5.392   1.754
  337TIP3   OH2 1016   1.971   0.337   3.684
  337TIP3    H1 1017   2.056   0.358   3.646
  337TIP3    H2 1018   1.929   0.279   3.621
  338TIP3   OH2 1019   5.554   0.983   0.983
  338TIP3    H1 1020   5.639   0.967   1.024
  338TIP3    H2 1021   5.495   1.001   1.056
  339TIP3   OH2 1022   1.959   5.457   5.024
  339TIP3    H1 1023   2.029   5.516   5.051
  339TIP3    H2 1024   1.995   5.412   4.947
  340TIP3   OH2 1025   0.128   4.534   0.518
  340TIP3    H1 1026   0.079   4.535   0.600
  340TIP3    H2 1027   0.199   4.471   0.534
  341TIP3   OH2 1028   5.031   3.346   1.567
  341TIP3    H1 1029   5.079   3.352   1.650
  341TIP3    H2 1030   4.941   3.369   1.590
  342TIP3   OH2 1031   0.720   5.310   0.314
  342TIP3    H1 1032   0.680   5.240   0.261
  342TIP3    H2 1033   0.683   5.391   0.278
  343TIP3   OH2 1034   1.475   1.645   0.061
  343TIP3    H1 1035   1.407   1.578   0.069
  343TIP3    H2 1036   1.437   1.723   0.102
  344TIP3   OH2 1037   1.367   3.510   3.549
  344TIP3    H1 1038   1.401   3.446   3.486
  344TIP3    H2 1039   1.296   3.554   3.502
  345TIP3   OH2 1040   0.131   2.473   4.328
  345TIP3    H1 1041   0.192   2.466   4.255
  345TIP3    H2 1042   0.135   2.387   4.371
  346TIP3   OH2 1043   1.774   5.167   4.142
  346TIP3    H1 1044   1.853   5.122   4.114
  346TIP3    H2 1045   1.787   5.184   4.235
  347TIP3   OH2 1046   4.513   1.198   1.199
  347TIP3    H1 1047   4.437   1.247   1.232
  347TIP3    H2 1048   4.562   1.174   1.278
  348TIP3   OH2 1049   1.503   0.050   2.148
  348TIP3    H1 1050   1.511   0.040   2.243
  348TIP3    H2 1051   1.511   0.144   2.133
  349TIP3   OH2 1052   0.132   4.754   1.498
  349TIP3    H1 1053   0.203   4.718   1.551
  349TIP3    H2 1054   0.060   4.765   1.559
  350TIP3   OH2 1055   1.046   3.513   4.773
  350TIP3    H1 1056   1.000   3.495   4.691
  350TIP3    H2 1057   1.085   3.600   4.760
  351TIP3   OH2 1058   4.100   0.409   1.884
  351TIP3    H1 1059   4.124   0.324   1.922
  351TIP3    H2 1060   4.028   0.389   1.824
  352TIP3   OH2 1061   0.431   2.994   0.196
  352TIP3    H1 1062   0.394   3.037   0.273
  352TIP3    H2 1063   0.386   3.035   0.122
  353TIP3   OH2 1064   1.967   2.125   0.144
  353TIP3    H1 1065   1.935   2.198   0.197
  353TIP3    H2 1066   1.898   2.059   0.151
  354TIP3   OH2 1067   4.257   4.923   2.594
  354TIP3    H1 1068   4.325   4.896   2.656
  354TIP3    H2 1069   4.183   4.865   2.612
  355TIP3   OH2 1070   5.431   4.638   4.751
  355TIP3    H1 1071   5.380   4.719   4.757
  355TIP3    H2 1072   5.408   4.589   4.830
  356TIP3   OH2 1073   1.101   0.125   2.743
  356TIP3    H1 1074   1.144   0.076   2.673
  356TIP3    H2 1075   1.073   0.206   2.701
  357TIP3   OH2 1076   4.950   4.200   4.902
  357TIP3    H1 1077   4.867   4.227   4.940
  357TIP3    H2 1078   4.926   4.148   4.826
  358TIP3   OH2 1079   5.635   5.757   4.061
  358TIP3    H1 1080   5.701   5.729   3.998
  358TIP3    H2 1081   5.669   5.727   4.146
  359TIP3   OH2 1082   0.308   4.447   1.349
  359TIP3    H1 1083   0.304   4.497   1.431
  359TIP3    H2 1084   0.223   4.403   1.344
  360TIP3   OH2 1085   5.659   1.787   3.285
  360TIP3    H1 1086   5.712   1.708   3.277
  360TIP3    H2 1087   5.602   1.772   3.360
  361TIP3   OH2 1088   1.501   0.131   1.809
  361TIP3    H1 1089   1.569   0.159   1.871
  361TIP3    H2 1090   1.542   0.058   1.761
  362TIP3   OH2 1091   2.533   3.637   4.319
  362TIP3    H1 1092   2.460   3.649   4.258
  362TIP3    H2 1093   2.511   3.691   4.394
  363TIP3   OH2 1094   5.662   1.811   2.444
  363TIP3    H1 1095   5.711   1.880   2.399
  363TIP3    H2 1096   5.726   1.741   2.457
  364TIP3   OH2 1097   2.193   5.990   1.839
  364TIP3    H1 1098   2.181   6.037   1.757
  364TIP3    H2 1099   2.177   5.898   1.818
  365TIP3   OH2 1100   2.595   2.016   2.744
  365TIP3    H1 1101   2.618   1.961   2.819
  365TIP3    H2 1102   2.519   1.972   2.704
  366TIP3   OH2 1103   2.419   0.085   4.768
  366TIP3    H1 1104   2.441   0.088   4.675
  366TIP3    H2 1105   2.324   0.099   4.771
  367TIP3   OH2 1106   5.206   0.701   3.589
  367TIP3    H1 1107   5.128   0.757   3.584
  367TIP3    H2 1108   5.248   0.726   3.671
  368TIP3   OH2 1109   1.243   4.905   4.330
  368TIP3    H1 1110   1.158   4.866   4.348
  368TIP3    H2 1111   1.293   4.893   4.411
  369TIP3   OH2 1112   2.298   2.769   1.121
  369TIP3    H1 1113   2.325   2.806   1.205
  369TIP3    H2 1114   2.378   2.729   1.085
  370TIP3   OH2 1115   2.388   5.340   4.098
  370TIP3    H1 1116   2.479   5.358   4.075
  370TIP3    H2 1117   2.351   5.426   4.119
  371TIP3   OH2 1118   5.455   2.615   1.569
  371TIP3    H1 1119   5.524   2.681   1.574
  371TIP3    H2 1120   5.501   2.534   1.547
  372TIP3   OH2 1121   4.322   3.445   1.165
  372TIP3    H1 1122   4.245   3.502   1.166
  372TIP3    H2 1123   4.296   3.371   1.220
  373TIP3   OH2 1124   6.152   4.078   1.715
  373TIP3    H1 1125   6.195   4.099   1.798
  373TIP3    H2 1126   6.135   3.984   1.720
  374TIP3   OH2 1127   0.953   3.342   1.002
  374TIP3    H1 1128   0.954   3.257   1.046
  374TIP3    H2 1129   0.868   3.380   1.024
  375TIP3   OH2 1130   1.131   0.887   4.027
  375TIP3    H1 1131   1.040   0.867   4.048
  375TIP3    H2 1132   1.174   0.801   4.023
  376TIP3   OH2 1133   5.197   0.343   2.970
  376TIP3    H1 1134   5.161   0.316   3.055
  376TIP3    H2 1135   5.284   0.302   2.966
  377TIP3   OH2 1136   1.407   5.323   4.685
  377TIP3    H1 1137   1.451   5.408   4.691
  377TIP3    H2 1138   1.318   5.339   4.715
  378TIP3   OH2 1139   2.337   2.264   4.274
  378TIP3    H1 1140   2.379   2.181   4.296
  378TIP3    H2 1141   2.402   2.331   4.295
  379TIP3   OH2 1142   3.681   1.200   2.934
  379TIP3    H1 1143   3.768   1.235   2.913
  379TIP3    H2 1144   3.622   1.274   2.918
  380TIP3   OH2 1145   0.610   2.509   3.744
  380TIP3    H1 1146   0.702   2.484   3.756
  380TIP3    H2 1147   0.614   2.602   3.724
  381TIP3   OH2 1148   2.284   5.758   4.567
  381TIP3    H1 1149   2.294   5.851   4.545
  381TIP3    H2 1150   2.354   5.714   4.518
  382TIP3   OH2 1151   4.175   4.763   5.058
  382TIP3    H1 1152   4.164   4.689   5.117
  382TIP3    H2 1153   4.103   4.821   5.078
  383TIP3   OH2 1154   0.238   2.804   2.644
  383TIP3    H1 1155   0.159   2.845   2.681
  383TIP3    H2 1156   0.227   2.711   2.660
  384TIP3   OH2 1157   3.926   2.374   2.823
  384TIP3    H1 1158   3.852   2.424   2.788
  384TIP3    H2 1159   3.960   2.429   2.894
  385TIP3   OH2 1160   4.644   2.798   2.370
  385TIP3    H1 1161   4.578   2.807   2.439
  385TIP3    H2 1162   4.693   2.719   2.394
  386TIP3   OH2 1163   3.054   4.920   5.053
  386TIP3    H1 1164   3.024   4.870   5.129
  386TIP3    H2 1165   3.060   5.010   5.084
  387TIP3   OH2 1166   4.527   1.674   2.508
  387TIP3    H1 1167   4.431   1.673   2.516
  387TIP3    H2 1168   4.543   1.692   2.415
  388TIP3   OH2 1169   3.996   2.255   3.873
  388TIP3    H1 1170   4.087   2.257   3.903
  388TIP3    H2 1171   3.996   2.311   3.795
  389TIP3   OH2 1172   0.636   0.793   3.688
  389TIP3    H1 1173   0.572   0.763   3.623
  389TIP3    H2 1174   0.610   0.749   3.769
  390TIP3   OH2 1175   2.357   3.221   2.781
  390TIP3    H1 1176   2.323   3.285   2.843
  390TIP3    H2 1177   2.445   3.253   2.760
  391TIP3   OH2 1178   4.171   0.181   3.362
  391TIP3    H1 1179   4.232   0.216   3.426
  391TIP3    H2 1180   4.086   0.181   3.406
  392TIP3   OH2 1181   3.373   3.841   3.872
  392TIP3    H1 1182   3.441   3.883   3.820
  392TIP3    H2 1183   3.332   3.778   3.813
  393TIP3   OH2 1184   3.373   5.726   1.108
  393TIP3    H1 1185   3.396   5.637   1.134
  393TIP3    H2 1186   3.432   5.746   1.035
  394TIP3   OH2 1187   2.435   2.147   3.966
  394TIP3    H1 1188   2.510   2.088   3.966
  394TIP3    H2 1189   2.469   2.229   4.002
  395TIP3   OH2 1190   3.495   4.701   4.747
  395TIP3    H1 1191   3.436   4.638   4.789
  395TIP3    H2 1192   3.440   4.777   4.730
  396TIP3   OH2 1193   2.222   3.367   1.482
  396TIP3    H1 1194   2.175   3.285   1.492
  396TIP3    H2 1195   2.261   3.362   1.394
  397TIP3   OH2 1196   0.848   5.298   4.125
  397TIP3    H1 1197   0.932   5.293   4.171
  397TIP3    H2 1198   0.784   5.313   4.194
  398TIP3   OH2 1199   4.629   2.268   0.841
  398TIP3    H1 1200   4.669   2.277   0.755
  398TIP3    H2 1201   4.702   2.247   0.900
  399TIP3   OH2 1202   1.419   1.317   4.629
  399TIP3    H1 1203   1.413   1.373   4.707
  399TIP3    H2 1204   1.340   1.335   4.580
  400TIP3   OH2 1205   4.499   4.024   2.060
  400TIP3    H1 1206   4.417   4.073   2.057
  400TIP3    H2 1207   4.480   3.943   2.012
  401TIP3   OH2 1208   1.057   4.297   4.133
  401TIP3    H1 1209   1.054   4.371   4.073
  401TIP3    H2 1210   1.141   4.253   4.114
  402TIP3   OH2 1211   1.875   4.215   4.943
  402TIP3    H1 1212   1.887   4.142   5.004
  402TIP3    H2 1213   1.836   4.175   4.865
  403TIP3   OH2 1214   4.098   1.194   4.636
  403TIP3    H1 1215   4.023   1.134   4.630
  403TIP3    H2 1216   4.086   1.255   4.564
  404TIP3   OH2 1217   2.504   0.548   2.384
  404TIP3    H1 1218   2.557   0.572   2.460
  404TIP3    H2 1219   2.559   0.487   2.335
  405TIP3   OH2 1220   4.091   1.076   1.639
  405TIP3    H1 1221   4.081   0.982   1.656
  405TIP3    H2 1222   4.158   1.081   1.571
  406TIP3   OH2 1223   4.087   3.322   4.900
  406TIP3    H1 1224   4.108   3.287   4.987
  406TIP3    H2 1225   4.116   3.253   4.839
  407TIP3   OH2 1226   4.927   4.787   0.734
  407TIP3    H1 1227   4.838   4.768   0.704
  407TIP3    H2 1228   4.959   4.854   0.674
  408TIP3   OH2 1229   5.710   1.687   0.185
  408TIP3    H1 1230   5.709   1.779   0.161
  408TIP3    H2 1231   5.751   1.643   0.111
  409TIP3   OH2 1232   3.496   0.905   3.742
  409TIP3    H1 1233   3.549   0.866   3.811
  409TIP3    H2 1234   3.550   0.899   3.663
  410TIP3   OH2 1235   5.549   0.516   0.728
  410TIP3    H1 1236   5.458   0.528   0.754
  410TIP3    H2 1237   5.598   0.581   0.780
  411TIP3   OH2 1238   4.622   2.094   3.582
  411TIP3    H1 1239   4.575   2.178   3.583
  411TIP3    H2 1240   4.656   2.087   3.493
  412TIP3   OH2 1241   4.733   0.380   3.782
  412TIP3    H1 1242   4.777   0.355   3.863
  412TIP3    H2 1243   4.683   0.302   3.757
  413TIP3   OH2 1244   5.824   3.511   1.753
  413TIP3    H1 1245   5.836   3.552   1.667
  413TIP3    H2 1246   5.761   3.567   1.798
  414TIP3   OH2 1247   4.272   3.681   3.657
  414TIP3    H1 1248   4.280   3.621   3.731
  414TIP3    H2 1249   4.183   3.716   3.663
  415TIP3   OH2 1250   1.709   5.474   4.903
  415TIP3    H1 1251   1.666   5.392   4.879
  415TIP3    H2 1252   1.795   5.446   4.937
  416TIP3   OH2 1253   0.759   5.740   5.169
  416TIP3    H1 1254   0.789   5.805   5.105
  416TIP3    H2 1255   0.838   5.689   5.190
  417TIP3   OH2 1256   1.614   0.075   0.959
  417TIP3    H1 1257   1.672   0.111   0.891
  417TIP3    H2 1258   1.529   0.066   0.915
  418TIP3   OH2 1259   0.822   1.642   1.082
  418TIP3    H1 1260   0.732   1.614   1.064
  418TIP3    H2 1261   0.822   1.735   1.063
  419TIP3   OH2 1262  -0.004   4.181   2.326
  419TIP3    H1 1263   0.071   4.155   2.273
  419TIP3    H2 1264   0.014   4.272   2.350
  420TIP3   OH2 1265   2.982   1.318   1.060
  420TIP3    H1 1266   3.015   1.407   1.050
  420TIP3    H2 1267   3.060   1.263   1.053
  421TIP3   OH2 1268   0.792   2.587   2.378
  421TIP3    H1 1269   0.821   2.509   2.330
  421TIP3    H2 1270   0.724   2.625   2.322
  422TIP3   OH2 1271   4.980   1.118   1.935
  422TIP3    H1 1272   4.986   1.143   2.027
  422TIP3    H2 1273   4.886   1.113   1.917
  423TIP3   OH2 1274   5.442   4.623   1.516
  423TIP3    H1 1275   5.355   4.663   1.522
  423TIP3    H2 1276   5.482   4.666   1.440
  424TIP3   OH2 1277   4.248   3.445   5.156
  424TIP3    H1 1278   4.248   3.483   5.068
  424TIP3    H2 1279   4.266   3.352   5.142
  425TIP3   OH2 1280   0.860   0.166   1.239
  425TIP3    H1 1281   0.821   0.229   1.178
  425TIP3    H2 1282   0.949   0.154   1.206
  426TIP3   OH2 1283   3.907   4.235   4.793
  426TIP3    H1 1284   3.988   4.266   4.832
  426TIP3    H2 1285   3.881   4.304   4.732
  427TIP3   OH2 1286   5.171   3.605   3.480
  427TIP3    H1 1287   5.177   3.552   3.400
  427TIP3    H2 1288   5.081   3.591   3.511
  428TIP3   OH2 1289   1.013   5.752   1.937
  428TIP3    H1 1290   0.993   5.766   2.030
  428TIP3    H2 1291   0.934   5.777   1.891
  429TIP3   OH2 1292   6.066   4.967   0.694
  429TIP3    H1 1293   6.115   4.942   0.773
  429TIP3    H2 1294   5.986   4.915   0.698
  430TIP3   OH2 1295   3.792   0.767   4.617
  430TIP3    H1 1296   3.829   0.828   4.554
  430TIP3    H2 1297   3.865   0.712   4.644
  431TIP3   OH2 1298   0.877   3.008   4.597
  431TIP3    H1 1299   0.902   3.039   4.684
  431TIP3    H2 1300   0.811   2.941   4.613
  432TIP3   OH2 1301   5.089   4.756   3.579
  432TIP3    H1 1302   5.006   4.803   3.585
  432TIP3    H2 1303   5.073   4.674   3.626
  433TIP3   OH2 1304   5.567   0.428   1.650
  433TIP3    H1 1305   5.660   0.410   1.640
  433TIP3    H2 1306   5.555   0.440   1.744
  434TIP3   OH2 1307   0.424   5.352   3.125
  434TIP3    H1 1308   0.409   5.422   3.061
  434TIP3    H2 1309   0.462   5.396   3.200
  435TIP3   OH2 1310   3.418   0.834   2.909
  435TIP3    H1 1311   3.413   0.740   2.922
  435TIP3    H2 1312   3.339   0.855   2.858
  436TIP3   OH2 1313   3.428   0.481   4.121
  436TIP3    H1 1314   3.422   0.565   4.168
  436TIP3    H2 1315   3.399   0.501   4.032
  437TIP3   OH2 1316   3.621   2.801   2.920
  437TIP3    H1 1317   3.557   2.740   2.883
  437TIP3    H2 1318   3.679   2.822   2.847
  438TIP3   OH2 1319   3.515   3.330   3.477
  438TIP3    H1 1320   3.437   3.278   3.456
  438TIP3    H2 1321   3.583   3.266   3.496
  439TIP3   OH2 1322   6.296   5.853   2.890
  439TIP3    H1 1323   6.232   5.924   2.884
  439TIP3    H2 1324   6.243   5.773   2.886
  440TIP3   OH2 1325   4.063   4.106   5.071
  440TIP3    H1 1326   4.132   4.075   5.129
  440TIP3    H2 1327   4.037   4.191   5.106
  441TIP3   OH2 1328   3.095   1.469   3.669
  441TIP3    H1 1329   3.145   1.402   3.715
  441TIP3    H2 1330   3.005   1.436   3.667
  442TIP3   OH2 1331   4.872   5.459   0.149
  442TIP3    H1 1332   4.825   5.427   0.226
  442TIP3    H2 1333   4.822   5.425   0.074
  443TIP3   OH2 1334   2.291   0.135   4.480
  443TIP3    H1 1335   2.213   0.081   4.496
  443TIP3    H2 1336   2.308   0.125   4.386
  444TIP3   OH2 1337   4.607   3.486   1.029
  444TIP3    H1 1338   4.513   3.499   1.041
  444TIP3    H2 1339   4.616   3.393   1.008
  445TIP3   OH2 1340   4.152   2.385   0.336
  445TIP3    H1 1341   4.214   2.405   0.407
  445TIP3    H2 1342   4.069   2.422   0.366
  446TIP3   OH2 1343   1.584   1.459   4.503
  446TIP3    H1 1344   1.525   1.410   4.560
  446TIP3    H2 1345   1.555   1.438   4.414
  447TIP3   OH2 1346   5.875   4.520   2.807
  447TIP3    H1 1347   5.849   4.597   2.859
  447TIP3    H2 1348   5.825   4.448   2.845
  448TIP3   OH2 1349   0.929   2.355   4.247
  448TIP3    H1 1350   0.975   2.410   4.311
  448TIP3    H2 1351   0.963   2.267   4.263
  449TIP3   OH2 1352   5.092   3.848   1.206
  449TIP3    H1 1353   5.171   3.823   1.158
  449TIP3    H2 1354   5.023   3.849   1.140
  450TIP3   OH2 1355   3.812   1.816   4.959
  450TIP3    H1 1356   3.863   1.843   5.035
  450TIP3    H2 1357   3.797   1.722   4.972
  451TIP3   OH2 1358   0.457   4.880   3.980
  451TIP3    H1 1359   0.539   4.912   4.017
  451TIP3    H2 1360   0.455   4.787   4.005
  452TIP3   OH2 1361   1.991   1.254   1.299
  452TIP3    H1 1362   2.012   1.250   1.392
  452TIP3    H2 1363   1.896   1.243   1.296
  453TIP3   OH2 1364   4.483   1.832   2.254
  453TIP3    H1 1365   4.440   1.904   2.301
  453TIP3    H2 1366   4.576   1.854   2.256
  454TIP3   OH2 1367   5.776   3.791   0.231
  454TIP3    H1 1368   5.707   3.806   0.167
  454TIP3    H2 1369   5.856   3.817   0.186
  455TIP3   OH2 1370   5.756   3.801   3.669
  455TIP3    H1 1371   5.730   3.847   3.590
  455TIP3    H2 1372   5.678   3.803   3.726
  456TIP3   OH2 1373   6.179   3.325   2.723
  456TIP3    H1 1374   6.182   3.294   2.633
  456TIP3    H2 1375   6.106   3.387   2.724
  457TIP3   OH2 1376   5.601   2.307   1.034
  457TIP3    H1 1377   5.563   2.260   0.960
  457TIP3    H2 1378   5.558   2.392   1.034
  458TIP3   OH2 1379   2.364   2.405   2.165
  458TIP3    H1 1380   2.429   2.458   2.118
  458TIP3    H2 1381   2.410   2.377   2.244
  459TIP3   OH2 1382   0.115   3.506   5.174
  459TIP3    H1 1383   0.080   3.519   5.262
  459TIP3    H2 1384   0.167   3.426   5.180
  460TIP3   OH2 1385   0.484   5.223   0.201
  460TIP3    H1 1386   0.491   5.205   0.107
  460TIP3    H2 1387   0.393   5.251   0.213
  461TIP3   OH2 1388   3.057   1.464   5.044
  461TIP3    H1 1389   3.106   1.421   5.114
  461TIP3    H2 1390   3.035   1.394   4.983
  462TIP3   OH2 1391   1.689   3.504   4.933
  462TIP3    H1 1392   1.665   3.419   4.895
  462TIP3    H2 1393   1.785   3.507   4.924
  463TIP3   OH2 1394   2.897   4.618   1.062
  463TIP3    H1 1395   2.827   4.626   0.997
  463TIP3    H2 1396   2.977   4.616   1.011
  464TIP3   OH2 1397   1.567   1.608   3.794
  464TIP3    H1 1398   1.472   1.604   3.801
  464TIP3    H2 1399   1.591   1.688   3.841
  465TIP3   OH2 1400   5.990   5.624   0.120
  465TIP3    H1 1401   5.896   5.615   0.103
  465TIP3    H2 1402   6.025   5.663   0.040
  466TIP3   OH2 1403   6.232   3.290   2.414
  466TIP3    H1 1404   6.142   3.319   2.400
  466TIP3    H2 1405   6.277   3.313   2.333
  467TIP3   OH2 1406   3.519   2.484   4.463
  467TIP3    H1 1407   3.507   2.546   4.391
  467TIP3    H2 1408   3.471   2.406   4.435
  468TIP3   OH2 1409   6.058   4.215   0.678
  468TIP3    H1 1410   5.974   4.237   0.638
  468TIP3    H2 1411   6.073   4.284   0.742
  469TIP3   OH2 1412   1.524   5.882   3.373
  469TIP3    H1 1413   1.467   5.806   3.381
  469TIP3    H2 1414   1.538   5.911   3.463
  470TIP3   OH2 1415   5.349   4.837   2.713
  470TIP3    H1 1416   5.369   4.901   2.644
  470TIP3    H2 1417   5.432   4.793   2.730
  471TIP3   OH2 1418   3.906   1.870   4.566
  471TIP3    H1 1419   3.879   1.822   4.488
  471TIP3    H2 1420   3.879   1.814   4.639
  472TIP3   OH2 1421   6.111   3.435   0.254
  472TIP3    H1 1422   6.069   3.437   0.168
  472TIP3    H2 1423   6.045   3.397   0.312
  473TIP3   OH2 1424   4.499   1.016   0.366
  473TIP3    H1 1425   4.573   1.076   0.373
  473TIP3    H2 1426   4.461   1.014   0.454
  474TIP3   OH2 1427   2.064   3.917   2.339
  474TIP3    H1 1428   2.096   3.979   2.273
  474TIP3    H2 1429   2.129   3.847   2.340
  475TIP3   OH2 1430   1.194   3.849   1.269
  475TIP3    H1 1431   1.172   3.918   1.332
  475TIP3    H2 1432   1.186   3.768   1.319
  476TIP3   OH2 1433   2.704   3.454   1.636
  476TIP3    H1 1434   2.663   3.495   1.560
  476TIP3    H2 1435   2.798   3.457   1.618
  477TIP3   OH2 1436   0.222   5.662   2.586
  477TIP3    H1 1437   0.170   5.732   2.547
  477TIP3    H2 1438   0.181   5.648   2.672
  478TIP3   OH2 1439   2.782   4.072   0.971
  478TIP3    H1 1440   2.815   4.050   1.058
  478TIP3    H2 1441   2.782   4.167   0.969
  479TIP3   OH2 1442   2.829   2.703   3.892
  479TIP3    H1 1443   2.912   2.749   3.892
  479TIP3    H2 1444   2.831   2.649   3.972
  480TIP3   OH2 1445   6.373   0.895   0.437
  480TIP3    H1 1446   6.324   0.843   0.374
  480TIP3    H2 1447   6.326   0.883   0.520
  481TIP3   OH2 1448   1.055   4.886   1.716
  481TIP3    H1 1449   1.019   4.841   1.640
  481TIP3    H2 1450   1.081   4.817   1.777
  482TIP3   OH2 1451   3.484   1.966   2.993
  482TIP3    H1 1452   3.461   1.874   2.981
  482TIP3    H2 1453   3.412   2.002   3.046
  483TIP3   OH2 1454   1.397   1.606   1.277
  483TIP3    H1 1455   1.478   1.610   1.328
  483TIP3    H2 1456   1.327   1.614   1.342
  484TIP3   OH2 1457   5.250   0.259   4.131
  484TIP3    H1 1458   5.251   0.173   4.090
  484TIP3    H2 1459   5.268   0.320   4.060
  485TIP3   OH2 1460   2.305   5.151   1.136
  485TIP3    H1 1461   2.231   5.100   1.104
  485TIP3    H2 1462   2.269   5.206   1.206
  486TIP3   OH2 1463   3.362   4.180   0.873
  486TIP3    H1 1464   3.416   4.255   0.897
  486TIP3    H2 1465   3.300   4.171   0.945
  487TIP3   OH2 1466   1.746   1.790   1.900
  487TIP3    H1 1467   1.758   1.845   1.823
  487TIP3    H2 1468   1.742   1.851   1.974
  488TIP3   OH2 1469   1.926   2.355   4.835
  488TIP3    H1 1470   1.935   2.259   4.841
  488TIP3    H2 1471   1.996   2.388   4.890
  489TIP3   OH2 1472   5.139   1.989   0.131
  489TIP3    H1 1473   5.194   2.022   0.059
  489TIP3    H2 1474   5.085   2.064   0.156
  490TIP3   OH2 1475   1.060   3.006   4.367
  490TIP3    H1 1476   1.011   3.026   4.446
  490TIP3    H2 1477   1.046   2.912   4.353
  491TIP3   OH2 1478   1.921   4.342   2.524
  491TIP3    H1 1479   1.898   4.350   2.616
  491TIP3    H2 1480   1.996   4.282   2.523
  492TIP3   OH2 1481   1.525   4.569   1.093
  492TIP3    H1 1482   1.586   4.591   1.164
  492TIP3    H2 1483   1.447   4.536   1.138
  493TIP3   OH2 1484   2.373   4.925   0.409
  493TIP3    H1 1485   2.305   4.989   0.431
  493TIP3    H2 1486   2.375   4.925   0.313
  494TIP3   OH2 1487   0.781   4.572   0.798
  494TIP3    H1 1488   0.824   4.525   0.726
  494TIP3    H2 1489   0.715   4.511   0.831
  495TIP3   OH2 1490   4.298   4.264   0.393
  495TIP3    H1 1491   4.368   4.280   0.329
  495TIP3    H2 1492   4.233   4.212   0.346
  496TIP3   OH2 1493   1.323   1.121   4.108
  496TIP3    H1 1494   1.374   1.056   4.058
  496TIP3    H2 1495   1.362   1.120   4.195
  497TIP3   OH2 1496   2.230   1.645   3.180
  497TIP3    H1 1497   2.213   1.562   3.136
  497TIP3    H2 1498   2.280   1.697   3.117
  498TIP3   OH2 1499   1.509   4.764   3.865
  498TIP3    H1 1500   1.460   4.736   3.942
  498TIP3    H2 1501   1.538   4.852   3.886
  499TIP3   OH2 1502   0.886   2.163   3.820
  499TIP3    H1 1503   0.940   2.135   3.894
  499TIP3    H2 1504   0.902   2.257   3.812
  500TIP3   OH2 1505   5.940   2.407   0.751
  500TIP3    H1 1506   5.863   2.460   0.727
  500TIP3    H2 1507   5.964   2.438   0.838
  501TIP3   OH2 1508   5.652   4.590   3.412
  501TIP3    H1 1509   5.574   4.609   3.360
  501TIP3    H2 1510   5.685   4.677   3.438
  502TIP3   OH2 1511   3.910   1.662   3.458
  502TIP3    H1 1512   3.913   1.610   3.378
  502TIP3    H2 1513   3.926   1.599   3.528
  503TIP3   OH2 1514   6.170   4.944   4.855
  503TIP3    H1 1515   6.248   4.891   4.874
  503TIP3    H2 1516   6.115   4.886   4.802
  504TIP3   OH2 1517   5.765   5.313   1.100
  504TIP3    H1 1518   5.809   5.365   1.167
  504TIP3    H2 1519   5.685   5.362   1.080
  505TIP3   OH2 1520   4.665   5.920   2.018
  505TIP3    H1 1521   4.627   6.007   2.012
  505TIP3    H2 1522   4.605   5.871   2.075
  506TIP3   OH2 1523   0.018   3.774   4.736
  506TIP3    H1 1524   0.111   3.785   4.755
  506TIP3    H2 1525   0.015   3.710   4.666
  507TIP3   OH2 1526   3.826   2.804   3.146
  507TIP3    H1 1527   3.762   2.793   3.075
  507TIP3    H2 1528   3.909   2.819   3.101
  508TIP3   OH2 1529   0.447   0.533   0.543
  508TIP3    H1 1530   0.518   0.587   0.578
  508TIP3    H2 1531   0.375   0.594   0.527
  509TIP3   OH2 1532   0.237   5.647   1.652
  509TIP3    H1 1533   0.261   5.729   1.610
  509TIP3    H2 1534   0.300   5.638   1.724
  510TIP3   OH2 1535   3.687   5.272   0.682
  510TIP3    H1 1536   3.732   5.228   0.754
  510TIP3    H2 1537   3.700   5.215   0.607
  511TIP3   OH2 1538   2.560   0.918   4.438
  511TIP3    H1 1539   2.473   0.878   4.430
  511TIP3    H2 1540   2.616   0.865   4.381
  512TIP3   OH2 1541   3.001   2.825   4.285
  512TIP3    H1 1542   2.911   2.820   4.318
  512TIP3    H2 1543   3.055   2.836   4.363
  513TIP3   OH2 1544   2.140   0.778   2.962
  513TIP3    H1 1545   2.186   0.696   2.940
  513TIP3    H2 1546   2.188   0.812   3.037
  514TIP3   OH2 1547   3.373   3.670   3.646
  514TIP3    H1 1548   3.293   3.684   3.595
  514TIP3    H2 1549   3.363   3.582   3.682
  515TIP3   OH2 1550   4.028   3.426   1.811
  515TIP3    H1 1551   4.023   3.342   1.857
  515TIP3    H2 1552   4.056   3.404   1.722
  516TIP3   OH2 1553   2.525   3.215   1.385
  516TIP3    H1 1554   2.466   3.247   1.318
  516TIP3    H2 1555   2.581   3.152   1.339
  517TIP3   OH2 1556   2.823   0.922   1.608
  517TIP3    H1 1557   2.846   1.015   1.612
  517TIP3    H2 1558   2.870   0.889   1.532
  518TIP3   OH2 1559   3.132   5.184   3.372
  518TIP3    H1 1560   3.146   5.159   3.280
  518TIP3    H2 1561   3.142   5.279   3.372
  519TIP3   OH2 1562   5.115   0.891   0.230
  519TIP3    H1 1563   5.181   0.951   0.266
  519TIP3    H2 1564   5.127   0.897   0.135
  520TIP3   OH2 1565   1.343   5.229   0.613
  520TIP3    H1 1566   1.249   5.231   0.628
  520TIP3    H2 1567   1.366   5.136   0.618
  521TIP3   OH2 1568   1.221   2.831   0.640
  521TIP3    H1 1569   1.313   2.854   0.623
  521TIP3    H2 1570   1.200   2.766   0.573
  522TIP3   OH2 1571   5.940   4.646   4.193
  522TIP3    H1 1572   5.925   4.714   4.259
  522TIP3    H2 1573   5.903   4.683   4.112
  523TIP3   OH2 1574   1.218   1.082   4.691
  523TIP3    H1 1575   1.223   1.154   4.629
  523TIP3    H2 1576   1.170   1.013   4.645
  524TIP3   OH2 1577   5.734   3.240   1.416
  524TIP3    H1 1578   5.663   3.303   1.431
  524TIP3    H2 1579   5.691   3.154   1.417
  525TIP3   OH2 1580   0.983   0.157   0.669
  525TIP3    H1 1581   0.941   0.228   0.717
  525TIP3    H2 1582   0.978   0.183   0.577
  526TIP3   OH2 1583   3.346   3.511   4.914
  526TIP3    H1 1584   3.359   3.475   5.001
  526TIP3    H2 1585   3.274   3.460   4.877
  527TIP3   OH2 1586   4.255   2.366   3.172
  527TIP3    H1 1587   4.326   2.379   3.234
  527TIP3    H2 1588   4.281   2.289   3.120
  528TIP3   OH2 1589   4.061   5.486   1.863
  528TIP3    H1 1590   4.082   5.526   1.778
  528TIP3    H2 1591   4.146   5.459   1.898
  529TIP3   OH2 1592   0.717   2.414   1.302
  529TIP3    H1 1593   0.724   2.509   1.312
  529TIP3    H2 1594   0.782   2.379   1.363
  530TIP3   OH2 1595   2.879   3.399   3.991
  530TIP3    H1 1596   2.816   3.334   4.021
  530TIP3    H2 1597   2.915   3.361   3.910
  531TIP3   OH2 1598   4.158   3.139   5.094
  531TIP3    H1 1599   4.065   3.119   5.107
  531TIP3    H2 1600   4.195   3.059   5.057
  532TIP3   OH2 1601   6.152   0.319   2.230
  532TIP3    H1 1602   6.113   0.289   2.148
  532TIP3    H2 1603   6.110   0.267   2.298
  533TIP3   OH2 1604   1.718   3.185   1.337
  533TIP3    H1 1605   1.624   3.187   1.317
  533TIP3    H2 1606   1.749   3.273   1.314
  534TIP3   OH2 1607   6.325   4.308   4.262
  534TIP3    H1 1608   6.289   4.395   4.242
  534TIP3    H2 1609   6.380   4.286   4.186
  535TIP3   OH2 1610   3.760   5.634   4.175
  535TIP3    H1 1611   3.669   5.660   4.191
  535TIP3    H2 1612   3.779   5.664   4.086
  536TIP3   OH2 1613   0.777   2.842   4.986
  536TIP3    H1 1614   0.760   2.864   4.894
  536TIP3    H2 1615   0.770   2.925   5.033
  537TIP3   OH2 1616   4.974   4.825   1.842
  537TIP3    H1 1617   5.039   4.887   1.874
  537TIP3    H2 1618   4.984   4.826   1.747
  538TIP3   OH2 1619   4.213   3.131   4.705
  538TIP3    H1 1620   4.257   3.174   4.632
  538TIP3    H2 1621   4.269   3.056   4.726
  539TIP3   OH2 1622   2.946   0.913   1.009
  539TIP3    H1 1623   2.864   0.869   0.986
  539TIP3    H2 1624   3.006   0.842   1.029
  540TIP3   OH2 1625   4.324   5.711   3.601
  540TIP3    H1 1626   4.362   5.745   3.520
  540TIP3    H2 1627   4.373   5.631   3.619
  541TIP3   OH2 1628   4.353   4.442   3.060
  541TIP3    H1 1629   4.339   4.534   3.035
  541TIP3    H2 1630   4.448   4.431   3.057
  542TIP3   OH2 1631   2.705   2.196   0.551
  542TIP3    H1 1632   2.687   2.132   0.620
  542TIP3    H2 1633   2.797   2.220   0.564
  543TIP3   OH2 1634   2.989   1.724   2.928
  543TIP3    H1 1635   2.917   1.673   2.965
  543TIP3    H2 1636   3.065   1.667   2.934
  544TIP3   OH2 1637   2.378   4.824   5.027
  544TIP3    H1 1638   2.361   4.914   5.057
  544TIP3    H2 1639   2.461   4.829   4.981
  545TIP3   OH2 1640   0.242   5.058   1.625
  545TIP3    H1 1641   0.157   5.041   1.665
  545TIP3    H2 1642   0.292   4.977   1.641
  546TIP3   OH2 1643   1.436   3.646   3.765
  546TIP3    H1 1644   1.436   3.597   3.683
  546TIP3    H2 1645   1.486   3.725   3.745
  547TIP3   OH2 1646   3.890   1.460   3.278
  547TIP3    H1 1647   3.939   1.390   3.234
  547TIP3    H2 1648   3.829   1.413   3.335
  548TIP3   OH2 1649   5.847   0.526   0.592
  548TIP3    H1 1650   5.878   0.591   0.654
  548TIP3    H2 1651   5.759   0.503   0.622
  549TIP3   OH2 1652   4.759   3.586   1.237
  549TIP3    H1 1653   4.723   3.584   1.148
  549TIP3    H2 1654   4.698   3.534   1.289
  550TIP3   OH2 1655   1.213   3.414   0.974
  550TIP3    H1 1656   1.125   3.384   0.995
  550TIP3    H2 1657   1.215   3.420   0.878
  551TIP3   OH2 1658   0.329   2.413   1.912
  551TIP3    H1 1659   0.333   2.419   2.008
  551TIP3    H2 1660   0.355   2.323   1.893
  552TIP3   OH2 1661   2.924   3.978   5.168
  552TIP3    H1 1662   2.888   4.059   5.204
  552TIP3    H2 1663   2.912   3.985   5.074
  553TIP3   OH2 1664   6.310   3.068   0.343
  553TIP3    H1 1665   6.228   3.019   0.332
  553TIP3    H2 1666   6.309   3.094   0.435
  554TIP3   OH2 1667   0.886   1.602   0.776
  554TIP3    H1 1668   0.937   1.607   0.856
  554TIP3    H2 1669   0.934   1.541   0.720
  555TIP3   OH2 1670   1.118   1.578   4.592
  555TIP3    H1 1671   1.112   1.637   4.517
  555TIP3    H2 1672   1.050   1.512   4.577
  556TIP3   OH2 1673   6.333   3.845   4.389
  556TIP3    H1 1674   6.425   3.826   4.405
  556TIP3    H2 1675   6.289   3.760   4.397
  557TIP3   OH2 1676   1.538   4.736   4.469
  557TIP3    H1 1677   1.567   4.724   4.559
  557TIP3    H2 1678   1.480   4.662   4.453
  558TIP3   OH2 1679   3.976   3.702   4.343
  558TIP3    H1 1680   3.990   3.609   4.321
  558TIP3    H2 1681   3.914   3.700   4.416
  559TIP3   OH2 1682   4.090   2.783   4.379
  559TIP3    H1 1683   4.170   2.738   4.404
  559TIP3    H2 1684   4.119   2.862   4.335
  560TIP3   OH2 1685   5.138   5.092   3.503
  560TIP3    H1 1686   5.189   5.173   3.512
  560TIP3    H2 1687   5.204   5.023   3.496
  561TIP3   OH2 1688   6.131   0.924   4.169
  561TIP3    H1 1689   6.042   0.916   4.204
  561TIP3    H2 1690   6.120   0.948   4.077
  562TIP3   OH2 1691   0.735   1.241   2.423
  562TIP3    H1 1692   0.768   1.151   2.415
  562TIP3    H2 1693   0.713   1.267   2.334
  563TIP3   OH2 1694   0.997   4.147   1.363
  563TIP3    H1 1695   0.982   4.131   1.457
  563TIP3    H2 1696   1.091   4.165   1.357
  564TIP3   OH2 1697   2.585   2.483   1.583
  564TIP3    H1 1698   2.537   2.502   1.502
  564TIP3    H2 1699   2.561   2.393   1.605
  565TIP3   OH2 1700   0.844   0.494   0.164
  565TIP3    H1 1701   0.831   0.589   0.163
  565TIP3    H2 1702   0.780   0.460   0.101
  566TIP3   OH2 1703   2.100   2.845   2.107
  566TIP3    H1 1704   2.113   2.756   2.141
  566TIP3    H2 1705   2.175   2.894   2.140
  567TIP3   OH2 1706   1.725   0.628   2.349
  567TIP3    H1 1707   1.703   0.540   2.379
  567TIP3    H2 1708   1.817   0.623   2.323
  568TIP3   OH2 1709   1.561   4.133   3.190
  568TIP3    H1 1710   1.508   4.096   3.120
  568TIP3    H2 1711   1.596   4.057   3.237
  569TIP3   OH2 1712   4.314   0.149   1.610
  569TIP3    H1 1713   4.343   0.231   1.651
  569TIP3    H2 1714   4.286   0.175   1.523
  570TIP3   OH2 1715   0.749   5.021   3.248
  570TIP3    H1 1716   0.661   5.015   3.210
  570TIP3    H2 1717   0.805   5.045   3.175
  571TIP3   OH2 1718   6.325   5.882   1.676
  571TIP3    H1 1719   6.328   5.787   1.662
  571TIP3    H2 1720   6.241   5.908   1.637
  572TIP3   OH2 1721   4.914   4.471   0.905
  572TIP3    H1 1722   4.876   4.556   0.927
  572TIP3    H2 1723   4.876   4.410   0.968
  573TIP3   OH2 1724   1.457   5.746   1.229
  573TIP3    H1 1725   1.450   5.679   1.297
  573TIP3    H2 1726   1.366   5.772   1.212
  574TIP3   OH2 1727   0.531   0.455   4.321
  574TIP3    H1 1728   0.439   0.481   4.327
  574TIP3    H2 1729   0.537   0.409   4.237
  575TIP3   OH2 1730   5.028   4.093   3.453
  575TIP3    H1 1731   4.968   4.129   3.388
  575TIP3    H2 1732   4.985   4.014   3.485
  576TIP3   OH2 1733   2.035   3.011   2.627
  576TIP3    H1 1734   2.115   2.977   2.589
  576TIP3    H2 1735   2.005   2.942   2.687
  577TIP3   OH2 1736   2.205   2.361   0.587
  577TIP3    H1 1737   2.211   2.360   0.491
  577TIP3    H2 1738   2.212   2.269   0.612
  578TIP3   OH2 1739   0.701   1.589   3.930
  578TIP3    H1 1740   0.748   1.660   3.974
  578TIP3    H2 1741   0.633   1.633   3.880
  579TIP3   OH2 1742   2.089   4.448   0.615
  579TIP3    H1 1743   2.049   4.486   0.537
  579TIP3    H2 1744   2.036   4.482   0.688
  580TIP3   OH2 1745   0.468   3.851   4.301
  580TIP3    H1 1746   0.516   3.907   4.240
  580TIP3    H2 1747   0.462   3.766   4.257
  581TIP3   OH2 1748   5.292   0.258   3.336
  581TIP3    H1 1749   5.373   0.253   3.286
  581TIP3    H2 1750   5.291   0.347   3.371
  582TIP3   OH2 1751   5.387   3.030   2.704
  582TIP3    H1 1752   5.421   2.968   2.640
  582TIP3    H2 1753   5.451   3.028   2.775
  583TIP3   OH2 1754   1.036   2.296   0.204
  583TIP3    H1 1755   1.109   2.349   0.236
  583TIP3    H2 1756   1.060   2.275   0.114
  584TIP3   OH2 1757   2.819   1.738   2.229
  584TIP3    H1 1758   2.889   1.762   2.169
  584TIP3    H2 1759   2.831   1.794   2.305
  585TIP3   OH2 1760   3.825   0.054   4.907
  585TIP3    H1 1761   3.877  -0.024   4.926
  585TIP3    H2 1762   3.822   0.102   4.990
  586TIP3   OH2 1763   3.214   1.199   1.994
  586TIP3    H1 1764   3.133   1.185   2.044
  586TIP3    H2 1765   3.187   1.190   1.902
  587TIP3   OH2 1766   3.972   2.106   2.177
  587TIP3    H1 1767   3.946   2.122   2.086
  587TIP3    H2 1768   4.063   2.075   2.171
  588TIP3   OH2 1769   4.148   5.373   5.176
  588TIP3    H1 1770   4.086   5.302   5.191
  588TIP3    H2 1771   4.172   5.365   5.084
  589TIP3   OH2 1772   5.126   2.698   4.195
  589TIP3    H1 1773   5.038   2.667   4.216
  589TIP3    H2 1774   5.123   2.793   4.208
  590TIP3   OH2 1775   5.713   0.821   4.411
  590TIP3    H1 1776   5.771   0.781   4.476
  590TIP3    H2 1777   5.654   0.876   4.462
  591TIP3   OH2 1778   3.534   4.264   0.067
  591TIP3    H1 1779   3.605   4.318   0.102
  591TIP3    H2 1780   3.509   4.308  -0.014
  592TIP3   OH2 1781   0.449   3.386   1.853
  592TIP3    H1 1782   0.354   3.380   1.862
  592TIP3    H2 1783   0.466   3.478   1.835
  593TIP3   OH2 1784   3.572   3.442   2.105
  593TIP3    H1 1785   3.657   3.485   2.116
  593TIP3    H2 1786   3.532   3.487   2.031
  594TIP3   OH2 1787   1.918   0.909   4.315
  594TIP3    H1 1788   1.848   0.894   4.252
  594TIP3    H2 1789   1.874   0.944   4.392
  595TIP3   OH2 1790   1.699   3.023   2.701
  595TIP3    H1 1791   1.780   3.004   2.654
  595TIP3    H2 1792   1.679   3.114   2.679
  596TIP3   OH2 1793   1.151   4.002   2.499
  596TIP3    H1 1794   1.091   4.065   2.459
  596TIP3    H2 1795   1.161   4.031   2.590
  597TIP3   OH2 1796   5.995   2.876   1.099
  597TIP3    H1 1797   5.979   2.869   1.193
  597TIP3    H2 1798   6.080   2.835   1.085
  598TIP3   OH2 1799   3.559   4.361   1.955
  598TIP3    H1 1800   3.516   4.391   2.035
  598TIP3    H2 1801   3.588   4.272   1.975
  599TIP3   OH2 1802   3.830   2.084   4.856
  599TIP3    H1 1803   3.807   1.997   4.887
  599TIP3    H2 1804   3.756   2.111   4.802
  600TIP3   OH2 1805   3.053   3.967   2.246
  600TIP3    H1 1806   3.043   3.961   2.151
  600TIP3    H2 1807   2.968   3.998   2.277
  601TIP3   OH2 1808   4.821   4.119   4.076
  601TIP3    H1 1809   4.811   4.125   3.981
  601TIP3    H2 1810   4.738   4.152   4.111
  602TIP3   OH2 1811   1.054   4.629   3.138
  602TIP3    H1 1812   1.139   4.625   3.095
  602TIP3    H2 1813   0.995   4.580   3.080
  603TIP3   OH2 1814   4.017   5.191   3.987
  603TIP3    H1 1815   3.948   5.257   3.976
  603TIP3    H2 1816   4.056   5.183   3.899
  604TIP3   OH2 1817   0.950   3.096   1.095
  604TIP3    H1 1818   0.994   3.056   1.020
  604TIP3    H2 1819   0.857   3.082   1.079
  605TIP3   OH2 1820   4.062   0.198   2.222
  605TIP3    H1 1821   4.020   0.195   2.308
  605TIP3    H2 1822   4.018   0.131   2.171
  606TIP3   OH2 1823   0.191   2.110   3.119
  606TIP3    H1 1824   0.223   2.058   3.046
  606TIP3    H2 1825   0.124   2.167   3.081
  607TIP3   OH2 1826   1.116   3.785   4.794
  607TIP3    H1 1827   1.163   3.844   4.736
  607TIP3    H2 1828   1.062   3.842   4.848
  608TIP3   OH2 1829   3.785   3.214   3.477
  608TIP3    H1 1830   3.853   3.253   3.533
  608TIP3    H2 1831   3.826   3.135   3.441
  609TIP3   OH2 1832   2.128   3.697   1.311
  609TIP3    H1 1833   2.199   3.668   1.368
  609TIP3    H2 1834   2.132   3.639   1.235
  610TIP3   OH2 1835   1.562   5.546   4.683
  610TIP3    H1 1836   1.613   5.531   4.762
  610TIP3    H2 1837   1.611   5.614   4.636
  611TIP3   OH2 1838   5.068   0.680   2.274
  611TIP3    H1 1839   5.102   0.602   2.230
  611TIP3    H2 1840   5.078   0.662   2.367
  612TIP3   OH2 1841   0.585   2.711   2.238
  612TIP3    H1 1842   0.528   2.717   2.315
  612TIP3    H2 1843   0.599   2.802   2.212
  613TIP3   OH2 1844   4.017   3.011   0.431
  613TIP3    H1 1845   4.049   3.015   0.341
  613TIP3    H2 1846   4.089   3.046   0.483
  614TIP3   OH2 1847   1.029   4.600   2.332
  614TIP3    H1 1848   1.117   4.615   2.295
  614TIP3    H2 1849   1.032   4.510   2.365
  615TIP3   OH2 1850   2.351   2.414   2.608
  615TIP3    H1 1851   2.407   2.396   2.533
  615TIP3    H2 1852   2.359   2.509   2.621
  616TIP3   OH2 1853   3.202   5.729   2.007
  616TIP3    H1 1854   3.179   5.705   2.097
  616TIP3    H2 1855   3.124   5.708   1.956
  617TIP3   OH2 1856   0.599   5.659   0.433
  617TIP3    H1 1857   0.627   5.658   0.342
  617TIP3    H2 1858   0.514   5.615   0.433
  618TIP3   OH2 1859   1.867   1.720   0.547
  618TIP3    H1 1860   1.909   1.693   0.629
  618TIP3    H2 1861   1.791   1.662   0.539
  619TIP3   OH2 1862   4.139   4.229   3.971
  619TIP3    H1 1863   4.103   4.293   4.032
  619TIP3    H2 1864   4.184   4.165   4.026
  620TIP3   OH2 1865   6.304   4.517   3.191
  620TIP3    H1 1866   6.318   4.592   3.248
  620TIP3    H2 1867   6.259   4.553   3.114
  621TIP3   OH2 1868   3.379   1.770   4.290
  621TIP3    H1 1869   3.411   1.837   4.349
  621TIP3    H2 1870   3.363   1.816   4.208
  622TIP3   OH2 1871   2.596   4.160   2.667
  622TIP3    H1 1872   2.539   4.236   2.678
  622TIP3    H2 1873   2.668   4.191   2.613
  623TIP3   OH2 1874   1.538   2.460   1.116
  623TIP3    H1 1875   1.583   2.481   1.199
  623TIP3    H2 1876   1.449   2.438   1.142
  624TIP3   OH2 1877   6.274   0.149   0.558
  624TIP3    H1 1878   6.212   0.093   0.605
  624TIP3    H2 1879   6.254   0.134   0.465
  625TIP3   OH2 1880   6.261   3.921   2.125
  625TIP3    H1 1881   6.283   3.918   2.218
  625TIP3    H2 1882   6.291   3.837   2.090
  626TIP3   OH2 1883   4.570   0.181   3.681
  626TIP3    H1 1884   4.511   0.171   3.755
  626TIP3    H2 1885   4.568   0.096   3.637
  627TIP3   OH2 1886   5.545   5.539   1.973
  627TIP3    H1 1887   5.508   5.472   2.031
  627TIP3    H2 1888   5.471   5.596   1.952
  628TIP3   OH2 1889   3.735   0.788   3.843
  628TIP3    H1 1890   3.753   0.750   3.929
  628TIP3    H2 1891   3.771   0.725   3.781
  629TIP3   OH2 1892   2.151   2.705   4.845
  629TIP3    H1 1893   2.086   2.711   4.775
  629TIP3    H2 1894   2.219   2.767   4.820
  630TIP3   OH2 1895   2.249   2.090   0.687
  630TIP3    H1 1896   2.247   2.028   0.760
  630TIP3    H2 1897   2.302   2.046   0.620
  631TIP3   OH2 1898   1.624   3.826   2.535
  631TIP3    H1 1899   1.698   3.882   2.511
  631TIP3    H2 1900   1.559   3.841   2.466
  632TIP3   OH2 1901   1.382   1.795   2.158
  632TIP3    H1 1902   1.300   1.828   2.194
  632TIP3    H2 1903   1.367   1.792   2.063
  633TIP3   OH2 1904   2.033   4.554   3.944
  633TIP3    H1 1905   2.099   4.549   4.014
  633TIP3    H2 1906   2.059   4.631   3.893
  634TIP3   OH2 1907   4.155   3.418   0.368
  634TIP3    H1 1908   4.205   3.375   0.299
  634TIP3    H2 1909   4.177   3.368   0.447
  635TIP3   OH2 1910   0.689   2.119   3.135
  635TIP3    H1 1911   0.715   2.128   3.227
  635TIP3    H2 1912   0.674   2.025   3.124
  636TIP3   OH2 1913   4.771   3.759   4.721
  636TIP3    H1 1914   4.678   3.752   4.701
  636TIP3    H2 1915   4.810   3.680   4.683
  637TIP3   OH2 1916   0.508   0.045   4.852
  637TIP3    H1 1917   0.504  -0.018   4.925
  637TIP3    H2 1918   0.433   0.103   4.867
  638TIP3   OH2 1919   5.463   3.936   2.842
  638TIP3    H1 1920   5.521   3.941   2.918
  638TIP3    H2 1921   5.463   3.843   2.818
  639TIP3   OH2 1922   1.503   5.995   2.521
  639TIP3    H1 1923   1.437   5.954   2.466
  639TIP3    H2 1924   1.516   5.935   2.594
  640TIP3   OH2 1925   4.788   0.411   3.055
  640TIP3    H1 1926   4.751   0.333   3.096
  640TIP3    H2 1927   4.820   0.464   3.128
  641TIP3   OH2 1928   1.794   3.450   2.222
  641TIP3    H1 1929   1.850   3.461   2.299
  641TIP3    H2 1930   1.764   3.359   2.227
  642TIP3   OH2 1931   4.975   2.142   4.924
  642TIP3    H1 1932   4.939   2.230   4.914
  642TIP3    H2 1933   5.066   2.149   4.895
  643TIP3   OH2 1934   5.349   2.838   4.400
  643TIP3    H1 1935   5.366   2.796   4.315
  643TIP3    H2 1936   5.352   2.932   4.381
  644TIP3   OH2 1937   5.630   3.265   2.647
  644TIP3    H1 1938   5.621   3.195   2.712
  644TIP3    H2 1939   5.626   3.221   2.562
  645TIP3   OH2 1940   3.721   2.320   3.180
  645TIP3    H1 1941   3.659   2.348   3.113
  645TIP3    H2 1942   3.671   2.260   3.236
  646TIP3   OH2 1943   2.200   0.780   0.526
  646TIP3    H1 1944   2.197   0.690   0.558
  646TIP3    H2 1945   2.288   0.811   0.549
  647TIP3   OH2 1946   5.516   0.575   3.743
  647TIP3    H1 1947   5.600   0.548   3.779
  647TIP3    H2 1948   5.526   0.669   3.727
  648TIP3   OH2 1949   0.834   1.900   3.713
  648TIP3    H1 1950   0.839   1.990   3.746
  648TIP3    H2 1951   0.848   1.845   3.790
  649TIP3   OH2 1952   3.966   2.999   4.632
  649TIP3    H1 1953   4.047   3.044   4.654
  649TIP3    H2 1954   3.898   3.048   4.679
  650TIP3   OH2 1955   2.984   1.437   2.303
  650TIP3    H1 1956   3.023   1.490   2.373
  650TIP3    H2 1957   2.893   1.427   2.328
  651TIP3   OH2 1958   4.559   5.060   4.748
  651TIP3    H1 1959   4.649   5.082   4.724
  651TIP3    H2 1960   4.567   5.005   4.825
  652TIP3   OH2 1961   3.670   3.730   1.521
  652TIP3    H1 1962   3.615   3.798   1.561
  652TIP3    H2 1963   3.674   3.754   1.429
  653TIP3   OH2 1964   1.704   3.617   3.555
  653TIP3    H1 1965   1.670   3.706   3.564
  653TIP3    H2 1966   1.722   3.607   3.462
  654TIP3   OH2 1967   2.574   0.632   1.430
  654TIP3    H1 1968   2.558   0.726   1.440
  654TIP3    H2 1969   2.658   0.627   1.386
  655TIP3   OH2 1970   1.897   2.689   1.033
  655TIP3    H1 1971   1.819   2.654   0.989
  655TIP3    H2 1972   1.865   2.723   1.116
  656TIP3   OH2 1973   4.254   1.542   1.007
  656TIP3    H1 1974   4.212   1.619   1.047
  656TIP3    H2 1975   4.297   1.497   1.080
  657TIP3   OH2 1976   6.291   2.125   0.265
  657TIP3    H1 1977   6.338   2.152   0.186
  657TIP3    H2 1978   6.216   2.075   0.233
  658TIP3   OH2 1979   0.648   1.050   5.012
  658TIP3    H1 1980   0.661   1.142   5.036
  658TIP3    H2 1981   0.586   1.052   4.939
  659TIP3   OH2 1982   2.231   3.415   1.746
  659TIP3    H1 1983   2.316   3.372   1.756
  659TIP3    H2 1984   2.210   3.407   1.653
  660TIP3   OH2 1985   3.952   0.143   2.628
  660TIP3    H1 1986   3.882   0.203   2.653
  660TIP3    H2 1987   3.927   0.112   2.541
  661TIP3   OH2 1988   0.000   5.896   0.326
  661TIP3    H1 1989  -0.065   5.879   0.394
  661TIP3    H2 1990   0.083   5.874   0.367
  662TIP3   OH2 1991   4.291   1.251   5.191
  662TIP3    H1 1992   4.203   1.244   5.154
  662TIP3    H2 1993   4.315   1.343   5.177
  663TIP3   OH2 1994   5.269   2.432   3.364
  663TIP3    H1 1995   5.301   2.430   3.273
  663TIP3    H2 1996   5.278   2.342   3.394
  664TIP3   OH2 1997   0.595   4.356   2.954
  664TIP3    H1 1998   0.607   4.367   3.049
  664TIP3    H2 1999   0.626   4.439   2.917
  665TIP3   OH2 2000   5.404   3.212   1.503
  665TIP3    H1 2001   5.319   3.173   1.486
  665TIP3    H2 2002   5.465   3.138   1.497
  666TIP3   OH2 2003   5.342   3.087   3.790
  666TIP3    H1 2004   5.427   3.079   3.833
  666TIP3    H2 2005   5.311   3.174   3.815
  667TIP3   OH2 2006   0.724   2.071   0.714
  667TIP3    H1 2007   0.706   2.094   0.623
  667TIP3    H2 2008   0.793   2.005   0.710
  668TIP3   OH2 2009   5.108   0.379   3.849
  668TIP3    H1 2010   5.094   0.293   3.811
  668TIP3    H2 2011   5.201   0.381   3.872
  669TIP3   OH2 2012   5.940   0.096   4.371
  669TIP3    H1 2013   6.027   0.106   4.409
  669TIP3    H2 2014   5.953   0.037   4.297
  670TIP3   OH2 2015   5.247   3.377   4.162
  670TIP3    H1 2016   5.298   3.425   4.228
  670TIP3    H2 2017   5.181   3.439   4.133
  671TIP3   OH2 2018   4.516   2.080   4.612
  671TIP3    H1 2019   4.459   2.004   4.626
  671TIP3    H2 2020   4.457   2.149   4.581
  672TIP3   OH2 2021   4.573   0.674   5.072
  672TIP3    H1 2022   4.572   0.737   5.000
  672TIP3    H2 2023   4.498   0.698   5.126
  673TIP3   OH2 2024   0.146   4.238   1.066
  673TIP3    H1 2025   0.171   4.181   0.993
  673TIP3    H2 2026   0.167   4.187   1.144
  674TIP3   OH2 2027   1.686   4.915   5.220
  674TIP3    H1 2028   1.693   4.990   5.160
  674TIP3    H2 2029   1.654   4.844   5.164
  675TIP3   OH2 2030   5.137   1.220   3.565
  675TIP3    H1 2031   5.109   1.258   3.482
  675TIP3    H2 2032   5.061   1.230   3.622
  676TIP3   OH2 2033   2.910   5.369   5.002
  676TIP3    H1 2034   2.920   5.317   4.922
  676TIP3    H2 2035   2.825   5.412   4.991
  677TIP3   OH2 2036   2.905   2.196   3.435
  677TIP3    H1 2037   2.959   2.133   3.386
  677TIP3    H2 2038   2.879   2.261   3.370
  678TIP3   OH2 2039   6.006   2.541   2.312
  678TIP3    H1 2040   5.986   2.634   2.322
  678TIP3    H2 2041   6.034   2.513   2.399
  679TIP3   OH2 2042   1.907   4.931   4.333
  679TIP3    H1 2043   1.817   4.902   4.318
  679TIP3    H2 2044   1.942   4.949   4.246
  680TIP3   OH2 2045   2.371   0.595   3.956
  680TIP3    H1 2046   2.459   0.607   3.920
  680TIP3    H2 2047   2.369   0.503   3.984
  681TIP3   OH2 2048   1.830   1.972   2.095
  681TIP3    H1 2049   1.875   1.934   2.171
  681TIP3    H2 2050   1.787   2.050   2.129
  682TIP3   OH2 2051   2.276   3.553   0.553
  682TIP3    H1 2052   2.199   3.517   0.595
  682TIP3    H2 2053   2.254   3.556   0.460
  683TIP3   OH2 2054   0.291   4.285   4.752
  683TIP3    H1 2055   0.354   4.260   4.820
  683TIP3    H2 2056   0.235   4.208   4.742
  684TIP3   OH2 2057   4.978   2.613   3.919
  684TIP3    H1 2058   5.020   2.683   3.969
  684TIP3    H2 2059   4.884   2.624   3.938
  685TIP3   OH2 2060   2.493   0.522   2.006
  685TIP3    H1 2061   2.565   0.519   2.069
  685TIP3    H2 2062   2.426   0.577   2.048
  686TIP3   OH2 2063   1.276   4.617   4.552
  686TIP3    H1 2064   1.181   4.613   4.541
  686TIP3    H2 2065   1.296   4.551   4.618
  687TIP3   OH2 2066   4.605   5.405   2.592
  687TIP3    H1 2067   4.601   5.345   2.518
  687TIP3    H2 2068   4.655   5.359   2.659
  688TIP3   OH2 2069   4.777   3.123   3.640
  688TIP3    H1 2070   4.756   3.214   3.620
  688TIP3    H2 2071   4.755   3.113   3.733
  689TIP3   OH2 2072   1.041   0.634   2.031
  689TIP3    H1 2073   1.036   0.727   2.052
  689TIP3    H2 2074   1.087   0.631   1.948
  690TIP3   OH2 2075   2.562   3.202   2.507
  690TIP3    H1 2076   2.595   3.211   2.596
  690TIP3    H2 2077   2.640   3.190   2.453
  691TIP3   OH2 2078   3.786   2.865   2.723
  691TIP3    H1 2079   3.823   2.842   2.638
  691TIP3    H2 2080   3.834   2.944   2.750
  692TIP3   OH2 2081   1.433   5.240   3.213
  692TIP3    H1 2082   1.377   5.307   3.174
  692TIP3    H2 2083   1.420   5.249   3.307
  693TIP3   OH2 2084   2.459   2.163   1.485
  693TIP3    H1 2085   2.495   2.093   1.430
  693TIP3    H2 2086   2.410   2.219   1.425
  694TIP3   OH2 2087   0.588   0.250   4.082
  694TIP3    H1 2088   0.638   0.203   4.015
  694TIP3    H2 2089   0.497   0.228   4.065
  695TIP3   OH2 2090   4.679   0.136   4.576
  695TIP3    H1 2091   4.662   0.076   4.649
  695TIP3    H2 2092   4.754   0.097   4.531
  696TIP3   OH2 2093   1.544   2.209   4.420
  696TIP3    H1 2094   1.601   2.155   4.364
  696TIP3    H2 2095   1.457   2.200   4.381
  697TIP3   OH2 2096   6.310   3.205   2.926
  697TIP3    H1 2097   6.252   3.215   2.850
  697TIP3    H2 2098   6.398   3.208   2.889
  698TIP3   OH2 2099   2.104   5.472   2.855
  698TIP3    H1 2100   2.131   5.428   2.774
  698TIP3    H2 2101   2.013   5.446   2.867
  699TIP3   OH2 2102   1.944   5.871   0.847
  699TIP3    H1 2103   1.990   5.877   0.763
  699TIP3    H2 2104   1.892   5.791   0.841
  700TIP3   OH2 2105   3.648   4.646   0.855
  700TIP3    H1 2106   3.715   4.627   0.788
  700TIP3    H2 2107   3.633   4.740   0.847
  701TIP3   OH2 2108   0.526   3.109   4.185
  701TIP3    H1 2109   0.582   3.138   4.257
  701TIP3    H2 2110   0.440   3.148   4.203
  702TIP3   OH2 2111   1.520   0.595   2.181
  702TIP3    H1 2112   1.490   0.522   2.236
  702TIP3    H2 2113   1.589   0.637   2.233
  703TIP3   OH2 2114   0.901   0.428   2.390
  703TIP3    H1 2115   0.821   0.450   2.437
  703TIP3    H2 2116   0.873   0.409   2.301
  704TIP3   OH2 2117   2.917   5.251   2.993
  704TIP3    H1 2118   2.841   5.203   2.959
  704TIP3    H2 2119   2.884   5.340   3.008
  705TIP3   OH2 2120   5.661   0.106   2.186
  705TIP3    H1 2121   5.623   0.047   2.121
  705TIP3    H2 2122   5.663   0.191   2.144
  706TIP3   OH2 2123   1.454   4.564   2.749
  706TIP3    H1 2124   1.547   4.586   2.741
  706TIP3    H2 2125   1.430   4.527   2.664
  707TIP3   OH2 2126   4.076   1.479   4.536
  707TIP3    H1 2127   4.029   1.540   4.479
  707TIP3    H2 2128   4.054   1.507   4.624
  708TIP3   OH2 2129   4.863   0.485   2.119
  708TIP3    H1 2130   4.876   0.473   2.025
  708TIP3    H2 2131   4.858   0.580   2.131
  709TIP3   OH2 2132   5.378   3.778   0.341
  709TIP3    H1 2133   5.368   3.682   0.338
  709TIP3    H2 2134   5.432   3.794   0.418
  710TIP3   OH2 2135   4.543   3.567   4.103
  710TIP3    H1 2136   4.549   3.625   4.178
  710TIP3    H2 2137   4.567   3.621   4.028
  711TIP3   OH2 2138   2.436   5.941   3.553
  711TIP3    H1 2139   2.341   5.949   3.537
  711TIP3    H2 2140   2.469   5.894   3.477
  712TIP3   OH2 2141   5.203   3.753   1.485
  712TIP3    H1 2142   5.189   3.805   1.406
  712TIP3    H2 2143   5.180   3.664   1.460
  713TIP3   OH2 2144   1.004   2.001   0.298
  713TIP3    H1 2145   1.021   2.088   0.262
  713TIP3    H2 2146   1.044   2.002   0.385
  714TIP3   OH2 2147   2.773   4.514   5.092
  714TIP3    H1 2148   2.794   4.455   5.164
  714TIP3    H2 2149   2.741   4.594   5.135
  715TIP3   OH2 2150   1.040   5.492   4.552
  715TIP3    H1 2151   1.001   5.405   4.548
  715TIP3    H2 2152   1.127   5.480   4.514
  716TIP3   OH2 2153   2.280   0.770   4.490
  716TIP3    H1 2154   2.249   0.713   4.419
  716TIP3    H2 2155   2.359   0.727   4.522
  717TIP3   OH2 2156   2.403   4.094   2.878
  717TIP3    H1 2157   2.343   4.038   2.829
  717TIP3    H2 2158   2.482   4.097   2.825
  718TIP3   OH2 2159   1.565   1.652   3.381
  718TIP3    H1 2160   1.506   1.670   3.454
  718TIP3    H2 2161   1.519   1.683   3.304
  719TIP3   OH2 2162   1.411   4.293   3.492
  719TIP3    H1 2163   1.362   4.371   3.519
  719TIP3    H2 2164   1.343   4.227   3.478
  720TIP3   OH2 2165   1.947   4.243   2.822
  720TIP3    H1 2166   1.949   4.155   2.783
  720TIP3    H2 2167   2.027   4.249   2.873
  721TIP3   OH2 2168   2.562   5.491   0.622
  721TIP3    H1 2169   2.501   5.551   0.666
  721TIP3    H2 2170   2.584   5.426   0.688
  722TIP3   OH2 2171   5.499   2.763   4.623
  722TIP3    H1 2172   5.430   2.793   4.564
  722TIP3    H2 2173   5.456   2.754   4.708
  723TIP3   OH2 2174   5.583   2.316   2.970
  723TIP3    H1 2175   5.634   2.299   3.049
  723TIP3    H2 2176   5.646   2.355   2.909
  724TIP3   OH2 2177   1.428   4.021   2.920
  724TIP3    H1 2178   1.366   4.052   2.853
  724TIP3    H2 2179   1.399   3.932   2.940
  725TIP3   OH2 2180   5.374   5.628   4.847
  725TIP3    H1 2181   5.335   5.564   4.907
  725TIP3    H2 2182   5.367   5.587   4.760
  726TIP3   OH2 2183   4.461   5.247   3.751
  726TIP3    H1 2184   4.527   5.253   3.820
  726TIP3    H2 2185   4.506   5.203   3.679
  727TIP3   OH2 2186   1.504   5.748   0.318
  727TIP3    H1 2187   1.410   5.767   0.321
  727TIP3    H2 2188   1.546   5.833   0.327
  728TIP3   OH2 2189   5.737   0.164   2.441
  728TIP3    H1 2190   5.664   0.212   2.480
  728TIP3    H2 2191   5.715   0.158   2.348
  729TIP3   OH2 2192   1.471   5.896   0.554
  729TIP3    H1 2193   1.404   5.964   0.549
  729TIP3    H2 2194   1.424   5.814   0.536
  730TIP3   OH2 2195   1.581   5.593   3.501
  730TIP3    H1 2196   1.644   5.653   3.540
  730TIP3    H2 2197   1.636   5.527   3.456
  731TIP3   OH2 2198   4.450   1.574   0.756
  731TIP3    H1 2199   4.368   1.623   0.749
  731TIP3    H2 2200   4.457   1.553   0.849
  732TIP3   OH2 2201   0.525   0.817   4.726
  732TIP3    H1 2202   0.496   0.901   4.761
  732TIP3    H2 2203   0.580   0.781   4.795
  733TIP3   OH2 2204   3.644   3.294   2.375
  733TIP3    H1 2205   3.611   3.337   2.296
  733TIP3    H2 2206   3.612   3.204   2.368
  734TIP3   OH2 2207   1.898   2.552   5.118
  734TIP3    H1 2208   1.907   2.643   5.146
  734TIP3    H2 2209   1.812   2.548   5.077
  735TIP3   OH2 2210   1.746   4.450   1.558
  735TIP3    H1 2211   1.809   4.448   1.486
  735TIP3    H2 2212   1.760   4.367   1.604
  736TIP3   OH2 2213   1.454   2.541   2.080
  736TIP3    H1 2214   1.468   2.471   2.016
  736TIP3    H2 2215   1.513   2.611   2.053
  737TIP3   OH2 2216   4.801   1.046   1.241
  737TIP3    H1 2217   4.819   1.047   1.147
  737TIP3    H2 2218   4.786   1.139   1.262
  738TIP3   OH2 2219   1.636   3.211   3.641
  738TIP3    H1 2220   1.655   3.225   3.548
  738TIP3    H2 2221   1.711   3.249   3.686
  739TIP3   OH2 2222   3.734   3.690   2.158
  739TIP3    H1 2223   3.658   3.748   2.169
  739TIP3    H2 2224   3.753   3.659   2.247
  740TIP3   OH2 2225   5.752   5.051   3.596
  740TIP3    H1 2226   5.750   5.058   3.692
  740TIP3    H2 2227   5.692   5.120   3.566
  741TIP3   OH2 2228   1.263   5.416   3.048
  741TIP3    H1 2229   1.235   5.488   3.105
  741TIP3    H2 2230   1.183   5.391   3.002
  742TIP3   OH2 2231   4.433   0.619   0.319
  742TIP3    H1 2232   4.350   0.664   0.336
  742TIP3    H2 2233   4.444   0.560   0.393
  743TIP3   OH2 2234   2.243   5.031   4.809
  743TIP3    H1 2235   2.176   5.018   4.876
  743TIP3    H2 2236   2.254   4.945   4.769
  744TIP3   OH2 2237   0.254   3.974   1.958
  744TIP3    H1 2238   0.247   4.061   1.919
  744TIP3    H2 2239   0.213   3.983   2.044
  745TIP3   OH2 2240   1.063   3.877   3.422
  745TIP3    H1 2241   1.120   3.800   3.429
  745TIP3    H2 2242   0.976   3.841   3.405
  746TIP3   OH2 2243   1.062   5.240   4.271
  746TIP3    H1 2244   1.001   5.221   4.342
  746TIP3    H2 2245   1.144   5.199   4.297
  747TIP3   OH2 2246   6.070   1.814   0.745
  747TIP3    H1 2247   6.078   1.725   0.713
  747TIP3    H2 2248   6.053   1.866   0.667
  748TIP3   OH2 2249   6.308   5.462   1.001
  748TIP3    H1 2250   6.343   5.542   1.040
  748TIP3    H2 2251   6.379   5.398   1.008
  749TIP3   OH2 2252   4.349   4.826   1.861
  749TIP3    H1 2253   4.389   4.742   1.839
  749TIP3    H2 2254   4.325   4.818   1.954
  750TIP3   OH2 2255   0.782   1.272   0.566
  750TIP3    H1 2256   0.823   1.205   0.512
  750TIP3    H2 2257   0.855   1.320   0.605
  751TIP3   OH2 2258   4.672   5.727   2.894
  751TIP3    H1 2259   4.626   5.759   2.971
  751TIP3    H2 2260   4.755   5.775   2.894
  752TIP3   OH2 2261   1.628   3.270   2.620
  752TIP3    H1 2262   1.653   3.317   2.699
  752TIP3    H2 2263   1.652   3.329   2.548
  753TIP3   OH2 2264   3.138   1.942   1.130
  753TIP3    H1 2265   3.222   1.921   1.170
  753TIP3    H2 2266   3.122   2.033   1.154
  754TIP3   OH2 2267   0.911   1.020   4.399
  754TIP3    H1 2268   0.834   1.008   4.343
  754TIP3    H2 2269   0.959   1.092   4.359
  755TIP3   OH2 2270   1.509   5.389   0.839
  755TIP3    H1 2271   1.452   5.362   0.767
  755TIP3    H2 2272   1.453   5.439   0.897
  756TIP3   OH2 2273   3.242   2.998   2.835
  756TIP3    H1 2274   3.302   3.043   2.775
  756TIP3    H2 2275   3.294   2.983   2.914
  757TIP3   OH2 2276   3.832   1.551   1.535
  757TIP3    H1 2277   3.922   1.546   1.567
  757TIP3    H2 2278   3.781   1.507   1.603
  758TIP3   OH2 2279   2.909   4.630   3.067
  758TIP3    H1 2280   2.898   4.590   3.153
  758TIP3    H2 2281   2.974   4.698   3.080
  759TIP3   OH2 2282   0.470   5.027   3.143
  759TIP3    H1 2283   0.511   5.104   3.104
  759TIP3    H2 2284   0.383   5.056   3.169
  760TIP3   OH2 2285   0.390   0.280   0.440
  760TIP3    H1 2286   0.414   0.228   0.517
  760TIP3    H2 2287   0.414   0.370   0.464
  761TIP3   OH2 2288   6.296   2.395   0.441
  761TIP3    H1 2289   6.205   2.422   0.456
  761TIP3    H2 2290   6.345   2.477   0.434
  762TIP3   OH2 2291   2.534   2.380   4.062
  762TIP3    H1 2292   2.571   2.394   4.150
  762TIP3    H2 2293   2.454   2.432   4.061
  763TIP3   OH2 2294   2.302   3.098   2.514
  763TIP3    H1 2295   2.393   3.128   2.519
  763TIP3    H2 2296   2.257   3.147   2.582
  764TIP3   OH2 2297   6.353   3.560   3.703
  764TIP3    H1 2298   6.273   3.563   3.650
  764TIP3    H2 2299   6.369   3.651   3.728
  765TIP3   OH2 2300   0.488   5.294   0.724
  765TIP3    H1 2301   0.496   5.251   0.639
  765TIP3    H2 2302   0.510   5.385   0.708
  766TIP3   OH2 2303   4.712   3.037   2.201
  766TIP3    H1 2304   4.751   2.981   2.268
  766TIP3    H2 2305   4.619   3.037   2.220
  767TIP3   OH2 2306   0.987   1.835   1.757
  767TIP3    H1 2307   1.018   1.754   1.798
  767TIP3    H2 2308   0.929   1.806   1.687
  768TIP3   OH2 2309   0.763   1.836   2.623
  768TIP3    H1 2310   0.779   1.930   2.620
  768TIP3    H2 2311   0.743   1.818   2.715
  769TIP3   OH2 2312   1.116   0.672   0.045
  769TIP3    H1 2313   1.152   0.585   0.029
  769TIP3    H2 2314   1.038   0.656   0.098
  770TIP3   OH2 2315   0.115   2.595   3.839
  770TIP3    H1 2316   0.026   2.591   3.803
  770TIP3    H2 2317   0.162   2.654   3.779
  771TIP3   OH2 2318   0.925   1.948   4.892
  771TIP3    H1 2319   1.009   1.957   4.848
  771TIP3    H2 2320   0.922   1.856   4.918
  772TIP3   OH2 2321   5.387   3.451   2.662
  772TIP3    H1 2322   5.426   3.363   2.661
  772TIP3    H2 2323   5.348   3.461   2.575
  773TIP3   OH2 2324   6.287   0.941   2.601
  773TIP3    H1 2325   6.298   0.846   2.593
  773TIP3    H2 2326   6.222   0.963   2.536
  774TIP3   OH2 2327   6.036   3.488   4.976
  774TIP3    H1 2328   6.053   3.579   4.951
  774TIP3    H2 2329   5.941   3.482   4.982
  775TIP3   OH2 2330   1.345   5.173   4.933
  775TIP3    H1 2331   1.420   5.177   4.874
  775TIP3    H2 2332   1.269   5.174   4.875
  776TIP3   OH2 2333   1.209   1.070   0.570
  776TIP3    H1 2334   1.153   0.995   0.590
  776TIP3    H2 2335   1.244   1.051   0.483
  777TIP3   OH2 2336   3.115   0.544   4.969
  777TIP3    H1 2337   3.081   0.553   5.058
  777TIP3    H2 2338   3.039   0.559   4.913
  778TIP3   OH2 2339   5.156   0.326   1.153
  778TIP3    H1 2340   5.141   0.292   1.241
  778TIP3    H2 2341   5.099   0.273   1.097
  779TIP3   OH2 2342   0.634   1.595   5.073
  779TIP3    H1 2343   0.561   1.593   5.136
  779TIP3    H2 2344   0.692   1.664   5.105
  780TIP3   OH2 2345   2.063   0.497   3.257
  780TIP3    H1 2346   2.078   0.421   3.312
  780TIP3    H2 2347   2.070   0.572   3.316
  781TIP3   OH2 2348   2.628   4.886   4.918
  781TIP3    H1 2349   2.690   4.842   4.862
  781TIP3    H2 2350   2.582   4.947   4.860
  782TIP3   OH2 2351   1.000   0.205   1.481
  782TIP3    H1 2352   0.945   0.197   1.402
  782TIP3    H2 2353   0.986   0.123   1.528
  783TIP3   OH2 2354   5.010   0.266   3.265
  783TIP3    H1 2355   4.999   0.361   3.276
  783TIP3    H2 2356   5.092   0.246   3.310
  784TIP3   OH2 2357   4.476   1.904   3.945
  784TIP3    H1 2358   4.385   1.906   3.976
  784TIP3    H2 2359   4.527   1.881   4.022
  785TIP3   OH2 2360   4.834   2.134   1.052
  785TIP3    H1 2361   4.862   2.204   0.993
  785TIP3    H2 2362   4.909   2.074   1.055
  786TIP3   OH2 2363   1.762   4.824   1.575
  786TIP3    H1 2364   1.837   4.856   1.525
  786TIP3    H2 2365   1.693   4.812   1.510
  787TIP3   OH2 2366   2.863   2.763   1.389
  787TIP3    H1 2367   2.924   2.724   1.327
  787TIP3    H2 2368   2.832   2.842   1.344
  788TIP3   OH2 2369   4.736   2.634   3.985
  788TIP3    H1 2370   4.732   2.577   4.062
  788TIP3    H2 2371   4.678   2.707   4.006
  789TIP3   OH2 2372   5.471   2.135   4.895
  789TIP3    H1 2373   5.463   2.055   4.947
  789TIP3    H2 2374   5.562   2.161   4.904
  790TIP3   OH2 2375   5.034   2.936   0.599
  790TIP3    H1 2376   5.009   2.956   0.689
  790TIP3    H2 2377   5.099   3.002   0.577
  791TIP3   OH2 2378   4.008   4.718   2.583
  791TIP3    H1 2379   3.966   4.632   2.585
  791TIP3    H2 2380   4.030   4.732   2.491
  792TIP3   OH2 2381   6.262   0.060   1.321
  792TIP3    H1 2382   6.260   0.131   1.258
  792TIP3    H2 2383   6.234   0.100   1.403
  793TIP3   OH2 2384   2.023   2.870   0.851
  793TIP3    H1 2385   1.986   2.795   0.899
  793TIP3    H2 2386   2.092   2.832   0.797
  794TIP3   OH2 2387   4.110   4.043   1.380
  794TIP3    H1 2388   4.185   4.092   1.414
  794TIP3    H2 2389   4.110   3.961   1.430
  795TIP3   OH2 2390   3.804   0.888   1.106
  795TIP3    H1 2391   3.788   0.804   1.064
  795TIP3    H2 2392   3.817   0.949   1.033
  796TIP3   OH2 2393   3.894   5.315   4.848
  796TIP3    H1 2394   3.893   5.239   4.789
  796TIP3    H2 2395   3.987   5.328   4.867
  797TIP3   OH2 2396   2.678   4.935   3.733
  797TIP3    H1 2397   2.725   4.976   3.661
  797TIP3    H2 2398   2.695   4.842   3.723
  798TIP3   OH2 2399   3.241   1.792   0.033
  798TIP3    H1 2400   3.336   1.803   0.022
  798TIP3    H2 2401   3.204   1.875   0.002
  799TIP3   OH2 2402   5.768   0.934   3.028
  799TIP3    H1 2403   5.864   0.936   3.027
  799TIP3    H2 2404   5.743   1.004   2.968
  800TIP3   OH2 2405   3.426   0.107   4.058
  800TIP3    H1 2406   3.487   0.144   4.121
  800TIP3    H2 2407   3.347   0.159   4.068
  801TIP3   OH2 2408   2.333   3.536   0.847
  801TIP3    H1 2409   2.280   3.524   0.768
  801TIP3    H2 2410   2.417   3.570   0.815
  802TIP3   OH2 2411   1.283   3.154   2.294
  802TIP3    H1 2412   1.235   3.229   2.330
  802TIP3    H2 2413   1.304   3.178   2.204
  803TIP3   OH2 2414   4.332   0.208   3.875
  803TIP3    H1 2415   4.360   0.249   3.957
  803TIP3    H2 2416   4.257   0.154   3.899
  804TIP3   OH2 2417   3.077   2.396   0.866
  804TIP3    H1 2418   3.100   2.481   0.830
  804TIP3    H2 2419   3.106   2.333   0.800
  805TIP3   OH2 2420   3.714   0.411   4.128
  805TIP3    H1 2421   3.731   0.501   4.102
  805TIP3    H2 2422   3.619   0.402   4.125
  806TIP3   OH2 2423   2.675   2.051   1.328
  806TIP3    H1 2424   2.756   2.100   1.341
  806TIP3    H2 2425   2.694   1.992   1.255
  807TIP3   OH2 2426   5.454   1.537   0.932
  807TIP3    H1 2427   5.491   1.625   0.923
  807TIP3    H2 2428   5.508   1.495   0.998
  808TIP3   OH2 2429   2.262   4.646   4.190
  808TIP3    H1 2430   2.216   4.731   4.188
  808TIP3    H2 2431   2.243   4.611   4.277
  809TIP3   OH2 2432   5.942   5.182   1.983
  809TIP3    H1 2433   5.995   5.174   2.063
  809TIP3    H2 2434   5.866   5.126   1.999
  810TIP3   OH2 2435   1.881   5.058   2.375
  810TIP3    H1 2436   1.877   5.014   2.290
  810TIP3    H2 2437   1.801   5.031   2.419
  811TIP3   OH2 2438   3.668   4.921   0.778
  811TIP3    H1 2439   3.721   4.953   0.706
  811TIP3    H2 2440   3.583   4.900   0.738
  812TIP3   OH2 2441   2.132   0.717   3.952
  812TIP3    H1 2442   2.071   0.644   3.940
  812TIP3    H2 2443   2.219   0.677   3.951
  813TIP3   OH2 2444   3.802   3.658   4.553
  813TIP3    H1 2445   3.734   3.708   4.598
  813TIP3    H2 2446   3.831   3.593   4.617
  814TIP3   OH2 2447   3.385   0.507   0.000
  814TIP3    H1 2448   3.439   0.428   0.001
  814TIP3    H2 2449   3.395   0.544   0.088
  815TIP3   OH2 2450   3.406   4.666   2.776
  815TIP3    H1 2451   3.349   4.648   2.702
  815TIP3    H2 2452   3.375   4.750   2.812
  816TIP3   OH2 2453   5.709   5.134   3.878
  816TIP3    H1 2454   5.700   5.040   3.893
  816TIP3    H2 2455   5.623   5.170   3.900
  817TIP3   OH2 2456   3.971   1.762   0.931
  817TIP3    H1 2457   4.011   1.721   0.855
  817TIP3    H2 2458   3.938   1.846   0.899
  818TIP3   OH2 2459   4.851   3.246   0.775
  818TIP3    H1 2460   4.926   3.188   0.784
  818TIP3    H2 2461   4.875   3.307   0.706
  819TIP3   OH2 2462   5.823   0.942   3.918
  819TIP3    H1 2463   5.912   0.948   3.884
  819TIP3    H2 2464   5.831   0.966   4.011
  820TIP3   OH2 2465   0.507   1.321   3.013
  820TIP3    H1 2466   0.505   1.351   2.922
  820TIP3    H2 2467   0.416   1.307   3.036
  821TIP3   OH2 2468   0.314   1.469   0.418
  821TIP3    H1 2469   0.318   1.554   0.462
  821TIP3    H2 2470   0.396   1.425   0.444
  822TIP3   OH2 2471   3.558   1.417   2.130
  822TIP3    H1 2472   3.652   1.419   2.151
  822TIP3    H2 2473   3.546   1.335   2.082
  823TIP3   OH2 2474   2.418   1.707   2.292
  823TIP3    H1 2475   2.326   1.682   2.300
  823TIP3    H2 2476   2.452   1.653   2.221
  824TIP3   OH2 2477   6.066   2.679   1.855
  824TIP3    H1 2478   6.063   2.604   1.914
  824TIP3    H2 2479   6.137   2.733   1.890
  825TIP3   OH2 2480   0.061   0.338   4.755
  825TIP3    H1 2481   0.083   0.319   4.664
  825TIP3    H2 2482  -0.015   0.396   4.750
  826TIP3   OH2 2483   0.862   5.215   4.486
  826TIP3    H1 2484   0.817   5.172   4.560
  826TIP3    H2 2485   0.791   5.248   4.432
  827TIP3   OH2 2486   1.999   5.123   2.702
  827TIP3    H1 2487   1.934   5.091   2.765
  827TIP3    H2 2488   2.051   5.046   2.679
  828TIP3   OH2 2489   2.530   3.928   2.518
  828TIP3    H1 2490   2.470   3.975   2.459
  828TIP3    H2 2491   2.552   3.992   2.586
  829TIP3   OH2 2492   6.319   1.073   3.352
  829TIP3    H1 2493   6.404   1.049   3.389
  829TIP3    H2 2494   6.339   1.104   3.264
  830TIP3   OH2 2495   2.118   5.080   3.407
  830TIP3    H1 2496   2.094   5.002   3.458
  830TIP3    H2 2497   2.205   5.061   3.373
  831TIP3   OH2 2498   1.479   3.501   4.145
  831TIP3    H1 2499   1.497   3.454   4.226
  831TIP3    H2 2500   1.393   3.468   4.117
  832TIP3   OH2 2501   3.927   1.637   4.741
  832TIP3    H1 2502   3.877   1.673   4.815
  832TIP3    H2 2503   4.015   1.672   4.753
  833TIP3   OH2 2504   1.848   0.492   4.392
  833TIP3    H1 2505   1.908   0.494   4.318
  833TIP3    H2 2506   1.867   0.409   4.437
  834TIP3   OH2 2507   4.812   3.571   0.099
  834TIP3    H1 2508   4.819   3.477   0.118
  834TIP3    H2 2509   4.808   3.612   0.186
  835TIP3   OH2 2510   1.062   4.893   3.218
  835TIP3    H1 2511   0.980   4.901   3.168
  835TIP3    H2 2512   1.083   4.800   3.213
  836TIP3   OH2 2513   1.536   5.899   4.686
  836TIP3    H1 2514   1.578   5.916   4.601
  836TIP3    H2 2515   1.594   5.942   4.750
  837TIP3   OH2 2516   0.401   5.476   2.183
  837TIP3    H1 2517   0.473   5.454   2.124
  837TIP3    H2 2518   0.332   5.509   2.125
  838TIP3   OH2 2519   0.608   1.880   3.138
  838TIP3    H1 2520   0.641   1.798   3.175
  838TIP3    H2 2521   0.527   1.897   3.186
  839TIP3   OH2 2522   5.262   2.949   2.390
  839TIP3    H1 2523   5.283   2.923   2.300
  839TIP3    H2 2524   5.347   2.952   2.434
  840TIP3   OH2 2525   5.378   3.481   4.426
  840TIP3    H1 2526   5.424   3.538   4.487
  840TIP3    H2 2527   5.447   3.447   4.368
  841TIP3   OH2 2528   3.319   2.740   0.547
  841TIP3    H1 2529   3.297   2.679   0.476
  841TIP3    H2 2530   3.396   2.787   0.515
  842TIP3   OH2 2531   3.415   3.423   0.973
  842TIP3    H1 2532   3.437   3.332   0.990
  842TIP3    H2 2533   3.400   3.427   0.879
  843TIP3   OH2 2534   4.943   0.661   2.644
  843TIP3    H1 2535   4.990   0.665   2.728
  843TIP3    H2 2536   4.952   0.569   2.617
  844TIP3   OH2 2537   3.595   1.903   3.762
  844TIP3    H1 2538   3.592   1.981   3.816
  844TIP3    H2 2539   3.585   1.830   3.823
  845TIP3   OH2 2540   2.447   2.001   4.297
  845TIP3    H1 2541   2.537   1.984   4.326
  845TIP3    H2 2542   2.431   1.934   4.230
  846TIP3   OH2 2543   4.645   5.387   0.011
  846TIP3    H1 2544   4.622   5.475   0.041
  846TIP3    H2 2545   4.576   5.331   0.045
  847TIP3   OH2 2546   3.920   2.783   1.397
  847TIP3    H1 2547   3.974   2.802   1.474
  847TIP3    H2 2548   3.881   2.868   1.374
  848TIP3   OH2 2549   1.804   4.723   4.048
  848TIP3    H1 2550   1.841   4.658   4.107
  848TIP3    H2 2551   1.726   4.755   4.093
  849TIP3   OH2 2552   4.244   5.939   3.387
  849TIP3    H1 2553   4.297   6.000   3.336
  849TIP3    H2 2554   4.204   5.881   3.322
  850TIP3   OH2 2555   2.647   3.658   2.436
  850TIP3    H1 2556   2.595   3.727   2.476
  850TIP3    H2 2557   2.599   3.578   2.456
  851TIP3   OH2 2558   4.195   4.860   3.312
  851TIP3    H1 2559   4.201   4.893   3.402
  851TIP3    H2 2560   4.231   4.771   3.317
  852TIP3   OH2 2561   5.262   2.729   1.402
  852TIP3    H1 2562   5.188   2.745   1.460
  852TIP3    H2 2563   5.329   2.692   1.460
  853TIP3   OH2 2564   0.498   2.189   2.455
  853TIP3    H1 2565   0.573   2.132   2.437
  853TIP3    H2 2566   0.530   2.277   2.433
  854TIP3   OH2 2567   2.065   4.555   2.264
  854TIP3    H1 2568   2.027   4.496   2.330
  854TIP3    H2 2569   2.149   4.515   2.241
  855TIP3   OH2 2570   2.766   5.364   1.759
  855TIP3    H1 2571   2.826   5.291   1.743
  855TIP3    H2 2572   2.745   5.357   1.852
  856TIP3   OH2 2573   1.441   5.539   2.867
  856TIP3    H1 2574   1.529   5.502   2.864
  856TIP3    H2 2575   1.400   5.499   2.943
  857TIP3   OH2 2576   0.602   2.914   2.905
  857TIP3    H1 2577   0.594   2.925   2.811
  857TIP3    H2 2578   0.696   2.901   2.920
  858TIP3   OH2 2579   1.529   5.253   1.817
  858TIP3    H1 2580   1.564   5.272   1.730
  858TIP3    H2 2581   1.472   5.328   1.837
  859TIP3   OH2 2582   0.444   4.860   1.381
  859TIP3    H1 2583   0.462   4.825   1.468
  859TIP3    H2 2584   0.462   4.954   1.389
  860TIP3   OH2 2585   2.711   5.261   3.630
  860TIP3    H1 2586   2.776   5.201   3.594
  860TIP3    H2 2587   2.632   5.247   3.577
  861TIP3   OH2 2588   2.386   0.749   5.201
  861TIP3    H1 2589   2.322   0.771   5.133
  861TIP3    H2 2590   2.435   0.676   5.164
  862TIP3   OH2 2591   2.215   0.436   4.610
  862TIP3    H1 2592   2.187   0.486   4.534
  862TIP3    H2 2593   2.301   0.402   4.587
  863TIP3   OH2 2594   1.480   0.588   2.579
  863TIP3    H1 2595   1.442   0.566   2.664
  863TIP3    H2 2596   1.504   0.680   2.587
  864TIP3   OH2 2597   3.652   2.342   3.584
  864TIP3    H1 2598   3.566   2.344   3.541
  864TIP3    H2 2599   3.635   2.381   3.670
  865TIP3   OH2 2600   1.744   1.394   0.704
  865TIP3    H1 2601   1.692   1.474   0.696
  865TIP3    H2 2602   1.723   1.360   0.791
  866TIP3   OH2 2603   5.195   4.938   1.102
  866TIP3    H1 2604   5.189   5.025   1.064
  866TIP3    H2 2605   5.137   4.884   1.049
  867TIP3   OH2 2606   1.290   4.923   3.044
  867TIP3    H1 2607   1.198   4.935   3.070
  867TIP3    H2 2608   1.287   4.851   2.981
  868TIP3   OH2 2609   1.239   0.843   5.092
  868TIP3    H1 2610   1.329   0.810   5.085
  868TIP3    H2 2611   1.236   0.918   5.033
  869TIP3   OH2 2612   2.185   4.553   4.438
  869TIP3    H1 2613   2.100   4.597   4.430
  869TIP3    H2 2614   2.171   4.485   4.504
  870TIP3   OH2 2615   4.949   5.806   4.841
  870TIP3    H1 2616   4.929   5.745   4.771
  870TIP3    H2 2617   5.003   5.756   4.902
  871TIP3   OH2 2618   4.461   5.312   5.099
  871TIP3    H1 2619   4.428   5.222   5.096
  871TIP3    H2 2620   4.439   5.348   5.013
  872TIP3   OH2 2621   5.715   5.813   1.856
  872TIP3    H1 2622   5.702   5.726   1.819
  872TIP3    H2 2623   5.635   5.860   1.836
  873TIP3   OH2 2624   6.103   4.227   2.180
  873TIP3    H1 2625   6.191   4.231   2.218
  873TIP3    H2 2626   6.062   4.310   2.205
  874TIP3   OH2 2627   4.689   4.306   4.929
  874TIP3    H1 2628   4.636   4.359   4.989
  874TIP3    H2 2629   4.652   4.218   4.935
  875TIP3   OH2 2630   4.077   4.711   0.936
  875TIP3    H1 2631   4.151   4.657   0.908
  875TIP3    H2 2632   4.009   4.647   0.959
  876TIP3   OH2 2633   4.972   5.811   3.781
  876TIP3    H1 2634   5.063   5.840   3.785
  876TIP3    H2 2635   4.922   5.884   3.817
  877TIP3   OH2 2636   0.129   0.265   0.422
  877TIP3    H1 2637   0.075   0.221   0.487
  877TIP3    H2 2638   0.217   0.264   0.459
  878TIP3   OH2 2639   2.807   0.756   0.646
  878TIP3    H1 2640   2.720   0.750   0.685
  878TIP3    H2 2641   2.804   0.835   0.591
  879TIP3   OH2 2642   2.102   5.432   0.278
  879TIP3    H1 2643   2.022   5.380   0.270
  879TIP3    H2 2644   2.140   5.405   0.361
  880TIP3   OH2 2645   2.317   5.616   0.709
  880TIP3    H1 2646   2.295   5.669   0.633
  880TIP3    H2 2647   2.346   5.679   0.775
  881TIP3   OH2 2648   4.502   2.233   2.832
  881TIP3    H1 2649   4.530   2.151   2.792
  881TIP3    H2 2650   4.553   2.300   2.788
  882TIP3   OH2 2651   5.408   5.520   0.197
  882TIP3    H1 2652   5.426   5.542   0.106
  882TIP3    H2 2653   5.318   5.486   0.196
  883TIP3   OH2 2654   1.280   4.494   1.197
  883TIP3    H1 2655   1.270   4.531   1.285
  883TIP3    H2 2656   1.201   4.521   1.150
  884TIP3   OH2 2657   3.859   1.701   3.753
  884TIP3    H1 2658   3.880   1.770   3.815
  884TIP3    H2 2659   3.783   1.657   3.791
  885TIP3   OH2 2660   4.866   2.924   1.595
  885TIP3    H1 2661   4.801   2.944   1.527
  885TIP3    H2 2662   4.857   2.996   1.658
  886TIP3   OH2 2663   5.087   1.626   4.246
  886TIP3    H1 2664   5.038   1.547   4.223
  886TIP3    H2 2665   5.160   1.594   4.299
  887TIP3   OH2 2666   1.938   1.594   4.566
  887TIP3    H1 2667   1.938   1.584   4.471
  887TIP3    H2 2668   1.854   1.634   4.586
  888TIP3   OH2 2669   6.396   1.037   4.190
  888TIP3    H1 2670   6.394   1.119   4.239
  888TIP3    H2 2671   6.304   1.010   4.185
  889TIP3   OH2 2672   3.373   2.818   4.938
  889TIP3    H1 2673   3.333   2.869   5.008
  889TIP3    H2 2674   3.353   2.866   4.858
  890TIP3   OH2 2675   3.564   1.664   1.016
  890TIP3    H1 2676   3.520   1.725   1.076
  890TIP3    H2 2677   3.605   1.720   0.950
  891TIP3   OH2 2678   1.464   1.421   4.237
  891TIP3    H1 2679   1.370   1.433   4.220
  891TIP3    H2 2680   1.475   1.326   4.242
  892TIP3   OH2 2681   6.238   0.633   2.557
  892TIP3    H1 2682   6.333   0.639   2.549
  892TIP3    H2 2683   6.220   0.539   2.561
  893TIP3   OH2 2684   5.754   4.262   4.406
  893TIP3    H1 2685   5.848   4.277   4.419
  893TIP3    H2 2686   5.718   4.254   4.494
  894TIP3   OH2 2687   3.941   0.997   0.226
  894TIP3    H1 2688   3.970   0.976   0.137
  894TIP3    H2 2689   3.859   0.949   0.237
  895TIP3   OH2 2690   2.164   5.624   1.537
  895TIP3    H1 2691   2.195   5.550   1.589
  895TIP3    H2 2692   2.237   5.644   1.477
  896TIP3   OH2 2693   1.480   5.935   3.926
  896TIP3    H1 2694   1.413   5.988   3.969
  896TIP3    H2 2695   1.553   5.934   3.988
  897TIP3   OH2 2696   0.361   5.201   3.353
  897TIP3    H1 2697   0.389   5.265   3.287
  897TIP3    H2 2698   0.271   5.179   3.328
  898TIP3   OH2 2699   5.165   2.091   2.811
  898TIP3    H1 2700   5.158   2.013   2.755
  898TIP3    H2 2701   5.254   2.086   2.847
  899TIP3   OH2 2702   4.285   1.019   1.457
  899TIP3    H1 2703   4.300   0.927   1.476
  899TIP3    H2 2704   4.372   1.059   1.465
  900TIP3   OH2 2705   5.469   4.778   0.401
  900TIP3    H1 2706   5.477   4.711   0.469
  900TIP3    H2 2707   5.513   4.855   0.438
  901TIP3   OH2 2708   1.994   0.886   4.925
  901TIP3    H1 2709   2.084   0.855   4.918
  901TIP3    H2 2710   1.974   0.879   5.019
  902TIP3   OH2 2711   5.850   0.330   1.673
  902TIP3    H1 2712   5.902   0.343   1.594
  902TIP3    H2 2713   5.862   0.410   1.723
  903TIP3   OH2 2714   3.555   2.377   5.144
  903TIP3    H1 2715   3.648   2.355   5.142
  903TIP3    H2 2716   3.513   2.301   5.184
  904TIP3   OH2 2717   3.820   1.757   0.251
  904TIP3    H1 2718   3.840   1.752   0.157
  904TIP3    H2 2719   3.885   1.701   0.293
  905TIP3   OH2 2720   0.641   4.826   2.996
  905TIP3    H1 2721   0.634   4.836   2.901
  905TIP3    H2 2722   0.568   4.877   3.031
  906TIP3   OH2 2723   5.479   5.555   2.735
  906TIP3    H1 2724   5.469   5.649   2.752
  906TIP3    H2 2725   5.565   5.533   2.770
  907TIP3   OH2 2726   0.444   1.761   0.868
  907TIP3    H1 2727   0.369   1.813   0.838
  907TIP3    H2 2728   0.405   1.686   0.913
  908TIP3   OH2 2729   3.018   2.326   4.041
  908TIP3    H1 2730   2.937   2.328   3.990
  908TIP3    H2 2731   3.087   2.317   3.975
  909TIP3   OH2 2732   5.790   4.003   4.142
  909TIP3    H1 2733   5.843   3.963   4.211
  909TIP3    H2 2734   5.790   4.096   4.164
  910TIP3   OH2 2735   3.969   3.076   4.082
  910TIP3    H1 2736   3.989   3.101   4.172
  910TIP3    H2 2737   3.949   2.983   4.087
  911TIP3   OH2 2738   3.110   1.160   1.742
  911TIP3    H1 2739   3.043   1.211   1.786
  911TIP3    H2 2740   3.102   1.183   1.650
  912TIP3   OH2 2741   1.012   4.057   0.713
  912TIP3    H1 2742   1.044   3.984   0.660
  912TIP3    H2 2743   1.078   4.069   0.781
  913TIP3   OH2 2744   5.198   2.645   2.501
  913TIP3    H1 2745   5.181   2.739   2.508
  913TIP3    H2 2746   5.248   2.636   2.419
  914TIP3   OH2 2747   3.877   4.783   1.145
  914TIP3    H1 2748   3.955   4.751   1.100
  914TIP3    H2 2749   3.911   4.833   1.219
  915TIP3   OH2 2750   5.683   1.473   3.226
  915TIP3    H1 2751   5.749   1.406   3.243
  915TIP3    H2 2752   5.603   1.424   3.208
  916TIP3   OH2 2753   5.404   1.768   2.208
  916TIP3    H1 2754   5.426   1.740   2.297
  916TIP3    H2 2755   5.380   1.688   2.163
  917TIP3   OH2 2756   0.869   4.060   4.459
  917TIP3    H1 2757   0.903   3.997   4.396
  917TIP3    H2 2758   0.861   4.010   4.541
  918TIP3   OH2 2759   5.808   5.382   3.297
  918TIP3    H1 2760   5.868   5.454   3.278
  918TIP3    H2 2761   5.852   5.331   3.365
  919TIP3   OH2 2762   1.286   2.247   4.354
  919TIP3    H1 2763   1.251   2.282   4.436
  919TIP3    H2 2764   1.217   2.188   4.322
  920TIP3   OH2 2765   2.759   4.797   4.455
  920TIP3    H1 2766   2.718   4.796   4.368
  920TIP3    H2 2767   2.853   4.783   4.438
  921TIP3   OH2 2768   5.479   1.189   4.276
  921TIP3    H1 2769   5.531   1.122   4.231
  921TIP3    H2 2770   5.427   1.229   4.206
  922TIP3   OH2 2771   1.404   2.148   2.253
  922TIP3    H1 2772   1.460   2.136   2.330
  922TIP3    H2 2773   1.429   2.234   2.219
  923TIP3   OH2 2774   3.439   4.820   1.515
  923TIP3    H1 2775   3.506   4.794   1.452
  923TIP3    H2 2776   3.361   4.836   1.461
  924TIP3   OH2 2777   1.492   2.195   3.812
  924TIP3    H1 2778   1.473   2.142   3.734
  924TIP3    H2 2779   1.435   2.158   3.880
  925TIP3   OH2 2780   1.736   4.339   1.250
  925TIP3    H1 2781   1.651   4.349   1.292
  925TIP3    H2 2782   1.761   4.428   1.225
  926TIP3   OH2 2783   0.128   2.161   3.724
  926TIP3    H1 2784   0.100   2.075   3.693
  926TIP3    H2 2785   0.116   2.219   3.648
  927TIP3   OH2 2786   3.164   2.023   1.904
  927TIP3    H1 2787   3.225   2.089   1.871
  927TIP3    H2 2788   3.077   2.063   1.894
  928TIP3   OH2 2789   3.958   4.446   0.103
  928TIP3    H1 2790   3.966   4.443   0.008
  928TIP3    H2 2791   4.027   4.505   0.132
  929TIP3   OH2 2792   1.323   0.058   0.603
  929TIP3    H1 2793   1.347   0.026   0.516
  929TIP3    H2 2794   1.329  -0.019   0.660
  930TIP3   OH2 2795   2.320   2.578   3.615
  930TIP3    H1 2796   2.286   2.551   3.530
  930TIP3    H2 2797   2.277   2.520   3.678
  931TIP3   OH2 2798   2.156   5.534   2.396
  931TIP3    H1 2799   2.085   5.469   2.402
  931TIP3    H2 2800   2.222   5.492   2.341
  932TIP3   OH2 2801   0.774   4.415   1.071
  932TIP3    H1 2802   0.683   4.415   1.101
  932TIP3    H2 2803   0.780   4.341   1.011
  933TIP3   OH2 2804   4.552   0.371   2.255
  933TIP3    H1 2805   4.640   0.333   2.246
  933TIP3    H2 2806   4.519   0.376   2.165
  934TIP3   OH2 2807   0.025   3.106   4.156
  934TIP3    H1 2808   0.016   3.087   4.250
  934TIP3    H2 2809  -0.023   3.035   4.113
  935TIP3   OH2 2810   5.332   1.097   2.246
  935TIP3    H1 2811   5.281   1.171   2.213
  935TIP3    H2 2812   5.347   1.118   2.338
  936TIP3   OH2 2813   2.155   2.564   0.767
  936TIP3    H1 2814   2.060   2.577   0.758
  936TIP3    H2 2815   2.177   2.504   0.696
  937TIP3   OH2 2816   1.948   2.373   2.239
  937TIP3    H1 2817   2.023   2.427   2.261
  937TIP3    H2 2818   1.983   2.284   2.231
  938TIP3   OH2 2819   0.292   5.723   4.732
  938TIP3    H1 2820   0.262   5.701   4.820
  938TIP3    H2 2821   0.295   5.819   4.731
  939TIP3   OH2 2822   2.202   0.486   1.790
  939TIP3    H1 2823   2.170   0.493   1.700
  939TIP3    H2 2824   2.132   0.525   1.842
  940TIP3   OH2 2825   2.170   4.088   3.842
  940TIP3    H1 2826   2.173   4.049   3.930
  940TIP3    H2 2827   2.090   4.140   3.841
  941TIP3   OH2 2828   5.064   1.896   2.051
  941TIP3    H1 2829   5.151   1.923   2.021
  941TIP3    H2 2830   5.059   1.803   2.029
  942TIP3   OH2 2831   5.258   4.189   0.728
  942TIP3    H1 2832   5.242   4.266   0.782
  942TIP3    H2 2833   5.353   4.189   0.715
  943TIP3   OH2 2834   3.102   1.306   2.899
  943TIP3    H1 2835   3.052   1.311   2.818
  943TIP3    H2 2836   3.177   1.250   2.878
  944TIP3   OH2 2837   0.317   3.782   0.221
  944TIP3    H1 2838   0.279   3.750   0.139
  944TIP3    H2 2839   0.246   3.773   0.284
  945TIP3   OH2 2840   0.733   4.828   4.048
  945TIP3    H1 2841   0.778   4.885   3.985
  945TIP3    H2 2842   0.766   4.856   4.133
  946TIP3   OH2 2843   3.369   4.608   2.006
  946TIP3    H1 2844   3.279   4.612   2.039
  946TIP3    H2 2845   3.360   4.584   1.914
  947TIP3   OH2 2846   2.826   2.553   2.908
  947TIP3    H1 2847   2.873   2.477   2.941
  947TIP3    H2 2848   2.733   2.531   2.920
  948TIP3   OH2 2849   4.455   4.374   2.660
  948TIP3    H1 2850   4.536   4.401   2.704
  948TIP3    H2 2851   4.440   4.440   2.593
  949TIP3   OH2 2852   5.341   4.538   3.482
  949TIP3    H1 2853   5.385   4.609   3.527
  949TIP3    H2 2854   5.279   4.582   3.423
  950TIP3   OH2 2855   1.141   3.428   0.060
  950TIP3    H1 2856   1.068   3.490   0.054
  950TIP3    H2 2857   1.121   3.361  -0.005
  951TIP3   OH2 2858   0.737   0.376   2.183
  951TIP3    H1 2859   0.648   0.410   2.184
  951TIP3    H2 2860   0.729   0.286   2.216
  952TIP3   OH2 2861   2.248   4.226   3.186
  952TIP3    H1 2862   2.226   4.199   3.276
  952TIP3    H2 2863   2.344   4.225   3.184
  953TIP3   OH2 2864   3.255   0.419   0.997
  953TIP3    H1 2865   3.316   0.372   0.941
  953TIP3    H2 2866   3.310   0.468   1.058
  954TIP3   OH2 2867   1.472   5.015   2.267
  954TIP3    H1 2868   1.522   4.942   2.229
  954TIP3    H2 2869   1.481   5.004   2.361
  955TIP3   OH2 2870   5.808   0.256   4.824
  955TIP3    H1 2871   5.806   0.280   4.916
  955TIP3    H2 2872   5.717   0.255   4.796
  956TIP3   OH2 2873   4.758   0.201   2.160
  956TIP3    H1 2874   4.715   0.132   2.109
  956TIP3    H2 2875   4.801   0.256   2.094
  957TIP3   OH2 2876   5.755   2.514   0.555
  957TIP3    H1 2877   5.715   2.523   0.469
  957TIP3    H2 2878   5.683   2.492   0.613
  958TIP3   OH2 2879   0.539   1.982   1.753
  958TIP3    H1 2880   0.493   1.903   1.725
  958TIP3    H2 2881   0.552   2.032   1.672
  959TIP3   OH2 2882   2.106   1.908   3.653
  959TIP3    H1 2883   2.155   1.896   3.572
  959TIP3    H2 2884   2.104   1.822   3.694
  960TIP3   OH2 2885   0.235   1.981   2.855
  960TIP3    H1 2886   0.227   2.015   2.766
  960TIP3    H2 2887   0.276   1.895   2.845
  961TIP3   OH2 2888   1.257   1.619   0.652
  961TIP3    H1 2889   1.317   1.544   0.646
  961TIP3    H2 2890   1.254   1.654   0.563
  962TIP3   OH2 2891   1.442   2.434   5.077
  962TIP3    H1 2892   1.514   2.391   5.123
  962TIP3    H2 2893   1.428   2.381   4.999
  963TIP3   OH2 2894   4.230   0.388   0.879
  963TIP3    H1 2895   4.304   0.428   0.923
  963TIP3    H2 2896   4.212   0.445   0.804
  964TIP3   OH2 2897   0.813   3.906   0.926
  964TIP3    H1 2898   0.733   3.903   0.978
  964TIP3    H2 2899   0.879   3.861   0.979
  965TIP3   OH2 2900   0.424   1.151   0.933
  965TIP3    H1 2901   0.359   1.149   0.863
  965TIP3    H2 2902   0.395   1.083   0.994
  966TIP3   OH2 2903   6.222   5.383   3.423
  966TIP3    H1 2904   6.146   5.410   3.475
  966TIP3    H2 2905   6.276   5.333   3.484
  967TIP3   OH2 2906   4.666   2.860   3.259
  967TIP3    H1 2907   4.686   2.892   3.346
  967TIP3    H2 2908   4.745   2.813   3.231
  968TIP3   OH2 2909   0.278   2.673   4.678
  968TIP3    H1 2910   0.284   2.583   4.646
  968TIP3    H2 2911   0.185   2.690   4.688
  969TIP3   OH2 2912   4.922   0.039   1.188
  969TIP3    H1 2913   4.860  -0.010   1.242
  969TIP3    H2 2914   4.995   0.057   1.247
  970TIP3   OH2 2915   5.938   5.207   3.470
  970TIP3    H1 2916   6.023   5.167   3.487
  970TIP3    H2 2917   5.877   5.159   3.525
  971TIP3   OH2 2918   5.613   3.493   1.432
  971TIP3    H1 2919   5.705   3.480   1.452
  971TIP3    H2 2920   5.578   3.543   1.506
  972TIP3   OH2 2921   1.065   3.855   4.149
  972TIP3    H1 2922   1.093   3.782   4.094
  972TIP3    H2 2923   1.134   3.865   4.215
  973TIP3   OH2 2924   3.252   0.671   2.207
  973TIP3    H1 2925   3.273   0.759   2.176
  973TIP3    H2 2926   3.163   0.655   2.175
  974TIP3   OH2 2927   0.599   3.353   5.130
  974TIP3    H1 2928   0.602   3.382   5.221
  974TIP3    H2 2929   0.664   3.283   5.125
  975TIP3   OH2 2930   5.270   5.784   2.558
  975TIP3    H1 2931   5.289   5.810   2.468
  975TIP3    H2 2932   5.184   5.822   2.576
  976TIP3   OH2 2933   3.373   5.947   2.005
  976TIP3    H1 2934   3.415   5.930   1.921
  976TIP3    H2 2935   3.311   5.876   2.016
  977TIP3   OH2 2936   3.512   0.573   2.507
  977TIP3    H1 2937   3.458   0.496   2.489
  977TIP3    H2 2938   3.511   0.582   2.602
  978TIP3   OH2 2939   1.397   3.315   3.306
  978TIP3    H1 2940   1.303   3.301   3.297
  978TIP3    H2 2941   1.437   3.235   3.273
  979TIP3   OH2 2942   3.983   1.966   3.134
  979TIP3    H1 2943   3.968   1.996   3.224
  979TIP3    H2 2944   3.902   1.923   3.109
  980TIP3   OH2 2945   4.605   0.244   1.280
  980TIP3    H1 2946   4.586   0.275   1.192
  980TIP3    H2 2947   4.590   0.150   1.276
  981TIP3   OH2 2948   5.146   0.993   5.158
  981TIP3    H1 2949   5.060   1.034   5.167
  981TIP3    H2 2950   5.187   1.003   5.244
  982TIP3   OH2 2951   5.721   1.931   4.354
  982TIP3    H1 2952   5.696   1.855   4.406
  982TIP3    H2 2953   5.641   1.984   4.349
  983TIP3   OH2 2954   1.407   1.117   1.951
  983TIP3    H1 2955   1.324   1.097   1.995
  983TIP3    H2 2956   1.441   1.032   1.923
  984TIP3   OH2 2957   0.989   2.861   1.747
  984TIP3    H1 2958   1.021   2.925   1.809
  984TIP3    H2 2959   0.895   2.854   1.765
  985TIP3   OH2 2960   0.717   4.829   1.593
  985TIP3    H1 2961   0.723   4.787   1.678
  985TIP3    H2 2962   0.780   4.782   1.538
  986TIP3   OH2 2963   4.063   0.193   4.573
  986TIP3    H1 2964   4.113   0.264   4.614
  986TIP3    H2 2965   3.984   0.185   4.628
  987TIP3   OH2 2966   2.289   1.297   0.627
  987TIP3    H1 2967   2.302   1.378   0.577
  987TIP3    H2 2968   2.222   1.320   0.692
  988TIP3   OH2 2969   2.927   4.338   1.607
  988TIP3    H1 2970   3.004   4.393   1.594
  988TIP3    H2 2971   2.870   4.359   1.533
  989TIP3   OH2 2972   3.327   2.153   3.125
  989TIP3    H1 2973   3.252   2.123   3.073
  989TIP3    H2 2974   3.307   2.125   3.214
  990TIP3   OH2 2975   2.068   5.806   0.604
  990TIP3    H1 2976   2.054   5.713   0.623
  990TIP3    H2 2977   2.161   5.811   0.581
  991TIP3   OH2 2978   0.433   2.069   5.189
  991TIP3    H1 2979   0.438   2.011   5.113
  991TIP3    H2 2980   0.520   2.109   5.194
  992TIP3   OH2 2981   5.659   4.165   1.508
  992TIP3    H1 2982   5.681   4.256   1.528
  992TIP3    H2 2983   5.597   4.140   1.577
  993TIP3   OH2 2984   1.009   4.639   1.846
  993TIP3    H1 2985   0.932   4.677   1.888
  993TIP3    H2 2986   0.974   4.592   1.770
  994TIP3   OH2 2987   2.955   4.247   2.036
  994TIP3    H1 2988   3.007   4.271   1.960
  994TIP3    H2 2989   2.931   4.155   2.021
  995TIP3   OH2 2990   5.808   2.044   3.014
  995TIP3    H1 2991   5.865   2.049   2.938
  995TIP3    H2 2992   5.845   2.106   3.077
  996TIP3   OH2 2993   4.078   4.581   3.886
  996TIP3    H1 2994   4.075   4.516   3.956
  996TIP3    H2 2995   4.127   4.538   3.816
  997TIP3   OH2 2996   3.681   1.602   2.644
  997TIP3    H1 2997   3.733   1.660   2.589
  997TIP3    H2 2998   3.662   1.526   2.587
  998TIP3   OH2 2999   2.834   3.981   2.744
  998TIP3    H1 3000   2.754   3.929   2.748
  998TIP3    H2 3001   2.815   4.058   2.798
  999TIP3   OH2 3002   6.297   4.739   3.360
  999TIP3    H1 3003   6.204   4.745   3.379
  999TIP3    H2 3004   6.318   4.820   3.313
 1000TIP3   OH2 3005   2.384   4.098   1.721
 1000TIP3    H1 3006   2.463   4.058   1.684
 1000TIP3    H2 3007   2.376   4.182   1.676
 1001TIP3   OH2 3008   5.983   3.710   3.797
 1001TIP3    H1 3009   5.905   3.754   3.764
 1001TIP3    H2 3010   5.961   3.689   3.888
 1002TIP3   OH2 3011   2.552   4.048   2.148
 1002TIP3    H1 3012   2.564   4.071   2.056
 1002TIP3    H2 3013   2.590   3.961   2.156
 1003TIP3   OH2 3014   3.009   1.128   0.079
 1003TIP3    H1 3015   3.067   1.202   0.062
 1003TIP3    H2 3016   3.049   1.081   0.152
 1004TIP3   OH2 3017   6.359   1.250   4.391
 1004TIP3    H1 3018   6.394   1.337   4.408
 1004TIP3    H2 3019   6.275   1.249   4.437
 1005TIP3   OH2 3020   6.257   5.095   4.157
 1005TIP3    H1 3021   6.327   5.131   4.211
 1005TIP3    H2 3022   6.282   5.117   4.067
 1006TIP3   OH2 3023   3.506   3.030   3.356
 1006TIP3    H1 3024   3.593   3.063   3.333
 1006TIP3    H2 3025   3.487   2.964   3.289
 1007TIP3   OH2 3026   4.744   3.628   0.685
 1007TIP3    H1 3027   4.705   3.665   0.764
 1007TIP3    H2 3028   4.757   3.703   0.627
 1008TIP3   OH2 3029   2.013   4.238   1.702
 1008TIP3    H1 3030   2.006   4.154   1.657
 1008TIP3    H2 3031   2.010   4.302   1.631
 1009TIP3   OH2 3032   5.655   5.037   3.170
 1009TIP3    H1 3033   5.635   4.986   3.091
 1009TIP3    H2 3034   5.576   5.032   3.223
 1010TIP3   OH2 3035   4.120   3.485   4.553
 1010TIP3    H1 3036   4.046   3.516   4.605
 1010TIP3    H2 3037   4.081   3.461   4.469
 1011TIP3   OH2 3038   5.178   0.099   4.881
 1011TIP3    H1 3039   5.193   0.185   4.842
 1011TIP3    H2 3040   5.248   0.044   4.846
 1012TIP3   OH2 3041   4.421   5.182   0.748
 1012TIP3    H1 3042   4.369   5.110   0.782
 1012TIP3    H2 3043   4.511   5.160   0.771
 1013TIP3   OH2 3044   5.057   3.161   2.084
 1013TIP3    H1 3045   5.045   3.066   2.089
 1013TIP3    H2 3046   5.112   3.174   2.007
 1014TIP3   OH2 3047   4.373   3.968   3.174
 1014TIP3    H1 3048   4.353   3.982   3.081
 1014TIP3    H2 3049   4.468   3.979   3.180
 1015TIP3   OH2 3050   3.285   4.868   4.676
 1015TIP3    H1 3051   3.261   4.862   4.584
 1015TIP3    H2 3052   3.247   4.951   4.706
 1016TIP3   OH2 3053   6.362   5.859   2.527
 1016TIP3    H1 3054   6.366   5.913   2.449
 1016TIP3    H2 3055   6.351   5.921   2.599
 1017TIP3   OH2 3056   0.339   2.274   1.489
 1017TIP3    H1 3057   0.382   2.309   1.411
 1017TIP3    H2 3058   0.358   2.339   1.558
 1018TIP3   OH2 3059   0.690   0.478   3.877
 1018TIP3    H1 3060   0.665   0.387   3.863
 1018TIP3    H2 3061   0.752   0.475   3.950
 1019TIP3   OH2 3062   1.780   1.118   5.081
 1019TIP3    H1 3063   1.701   1.069   5.104
 1019TIP3    H2 3064   1.852   1.059   5.104
 1020TIP3   OH2 3065   2.977   3.434   4.960
 1020TIP3    H1 3066   2.971   3.524   4.991
 1020TIP3    H2 3067   2.996   3.442   4.866
 1021TIP3   OH2 3068   4.822   2.694   0.794
 1021TIP3    H1 3069   4.798   2.618   0.741
 1021TIP3    H2 3070   4.760   2.762   0.767
 1022TIP3   OH2 3071   5.487   4.428   5.092
 1022TIP3    H1 3072   5.526   4.504   5.048
 1022TIP3    H2 3073   5.459   4.371   5.020
 1023TIP3   OH2 3074   2.606   2.796   3.138
 1023TIP3    H1 3075   2.629   2.733   3.206
 1023TIP3    H2 3076   2.568   2.870   3.187
 1024TIP3   OH2 3077   0.115   4.479   5.031
 1024TIP3    H1 3078   0.060   4.412   4.991
 1024TIP3    H2 3079   0.065   4.508   5.107
 1025TIP3   OH2 3080   6.333   3.997   3.168
 1025TIP3    H1 3081   6.257   3.945   3.145
 1025TIP3    H2 3082   6.299   4.086   3.178
 1026TIP3   OH2 3083   3.599   0.350   1.363
 1026TIP3    H1 3084   3.617   0.408   1.289
 1026TIP3    H2 3085   3.565   0.270   1.323
 1027TIP3   OH2 3086   2.820   0.262   2.575
 1027TIP3    H1 3087   2.854   0.218   2.654
 1027TIP3    H2 3088   2.796   0.349   2.604
 1028TIP3   OH2 3089   6.245   1.581   4.003
 1028TIP3    H1 3090   6.273   1.581   4.094
 1028TIP3    H2 3091   6.325   1.576   3.952
 1029TIP3   OH2 3092   3.718   0.440   4.700
 1029TIP3    H1 3093   3.748   0.501   4.767
 1029TIP3    H2 3094   3.738   0.483   4.617
 1030TIP3   OH2 3095   4.561   0.737   3.108
 1030TIP3    H1 3096   4.618   0.747   3.032
 1030TIP3    H2 3097   4.618   0.753   3.183
 1031TIP3   OH2 3098   6.296   4.538   1.544
 1031TIP3    H1 3099   6.371   4.498   1.501
 1031TIP3    H2 3100   6.224   4.476   1.530
 1032TIP3   OH2 3101   0.377   2.061   3.538
 1032TIP3    H1 3102   0.329   2.145   3.542
 1032TIP3    H2 3103   0.466   2.083   3.565
 1033TIP3   OH2 3104   0.541   3.992   1.526
 1033TIP3    H1 3105   0.555   3.918   1.585
 1033TIP3    H2 3106   0.486   3.957   1.456
 1034TIP3   OH2 3107   5.454   4.861   2.207
 1034TIP3    H1 3108   5.411   4.940   2.173
 1034TIP3    H2 3109   5.522   4.841   2.143
 1035TIP3   OH2 3110   0.663   5.263   0.946
 1035TIP3    H1 3111   0.669   5.176   0.907
 1035TIP3    H2 3112   0.614   5.314   0.882
 1036TIP3   OH2 3113   3.410   1.084   0.140
 1036TIP3    H1 3114   3.482   1.096   0.077
 1036TIP3    H2 3115   3.362   1.008   0.107
 1037TIP3   OH2 3116   2.893   4.458   4.282
 1037TIP3    H1 3117   2.962   4.392   4.282
 1037TIP3    H2 3118   2.838   4.435   4.357
 1038TIP3   OH2 3119   1.217   5.112   1.613
 1038TIP3    H1 3120   1.203   5.055   1.689
 1038TIP3    H2 3121   1.156   5.078   1.547
 1039TIP3   OH2 3122   2.453   0.835   2.128
 1039TIP3    H1 3123   2.490   0.915   2.163
 1039TIP3    H2 3124   2.416   0.861   2.043
 1040TIP3   OH2 3125   4.853   0.816   1.000
 1040TIP3    H1 3126   4.882   0.866   0.924
 1040TIP3    H2 3127   4.861   0.724   0.972
 1041TIP3   OH2 3128  -0.004   5.100   3.879
 1041TIP3    H1 3129  -0.002   5.068   3.789
 1041TIP3    H2 3130   0.065   5.052   3.924
 1042TIP3   OH2 3131   1.413   3.140   0.867
 1042TIP3    H1 3132   1.357   3.084   0.921
 1042TIP3    H2 3133   1.357   3.165   0.793
 1043TIP3   OH2 3134   3.746   0.796   2.484
 1043TIP3    H1 3135   3.711   0.717   2.526
 1043TIP3    H2 3136   3.747   0.862   2.553
 1044TIP3   OH2 3137   5.684   1.614   0.459
 1044TIP3    H1 3138   5.678   1.612   0.363
 1044TIP3    H2 3139   5.773   1.587   0.479
 1045TIP3   OH2 3140   2.442   1.866   2.520
 1045TIP3    H1 3141   2.392   1.816   2.584
 1045TIP3    H2 3142   2.429   1.818   2.438
 1046TIP3   OH2 3143   3.921   5.952   4.112
 1046TIP3    H1 3144   3.955   5.875   4.159
 1046TIP3    H2 3145   3.995   5.980   4.057
 1047TIP3   OH2 3146   3.916   4.166   2.859
 1047TIP3    H1 3147   3.833   4.199   2.895
 1047TIP3    H2 3148   3.902   4.165   2.764
 1048TIP3   OH2 3149   5.011   4.943   0.545
 1048TIP3    H1 3150   5.009   4.952   0.450
 1048TIP3    H2 3151   5.098   4.975   0.570
 1049TIP3   OH2 3152   4.869   4.811   3.874
 1049TIP3    H1 3153   4.821   4.734   3.905
 1049TIP3    H2 3154   4.961   4.786   3.877
 1050TIP3   OH2 3155   2.011   5.522   4.010
 1050TIP3    H1 3156   2.057   5.521   4.094
 1050TIP3    H2 3157   2.035   5.605   3.970
 1051TIP3   OH2 3158   0.920   2.642   2.813
 1051TIP3    H1 3159   1.009   2.629   2.781
 1051TIP3    H2 3160   0.930   2.654   2.908
 1052TIP3   OH2 3161   1.912   1.585   1.155
 1052TIP3    H1 3162   1.970   1.528   1.206
 1052TIP3    H2 3163   1.972   1.643   1.107
 1053TIP3   OH2 3164   1.131   3.142   5.133
 1053TIP3    H1 3165   1.149   3.169   5.222
 1053TIP3    H2 3166   1.091   3.219   5.092
 1054TIP3   OH2 3167   4.024   5.934   2.280
 1054TIP3    H1 3168   3.991   5.902   2.196
 1054TIP3    H2 3169   3.966   5.894   2.345
 1055TIP3   OH2 3170   0.312   4.711   4.627
 1055TIP3    H1 3171   0.246   4.645   4.646
 1055TIP3    H2 3172   0.279   4.791   4.669
 1056TIP3   OH2 3173   3.966   1.937   5.166
 1056TIP3    H1 3174   3.944   2.002   5.233
 1056TIP3    H2 3175   4.052   1.964   5.134
 1057TIP3   OH2 3176   2.405   2.573   0.007
 1057TIP3    H1 3177   2.420   2.561   0.101
 1057TIP3    H2 3178   2.396   2.484  -0.027
 1058TIP3   OH2 3179   3.605   0.764   5.058
 1058TIP3    H1 3180   3.654   0.804   5.130
 1058TIP3    H2 3181   3.538   0.710   5.101
 1059TIP3   OH2 3182   1.222   1.646   1.492
 1059TIP3    H1 3183   1.180   1.564   1.465
 1059TIP3    H2 3184   1.241   1.633   1.585
 1060TIP3   OH2 3185   5.408   1.526   4.561
 1060TIP3    H1 3186   5.330   1.534   4.615
 1060TIP3    H2 3187   5.376   1.501   4.475
 1061TIP3   OH2 3188   4.663   0.809   1.306
 1061TIP3    H1 3189   4.737   0.860   1.274
 1061TIP3    H2 3190   4.591   0.872   1.313
 1062TIP3   OH2 3191   1.032   2.604   4.112
 1062TIP3    H1 3192   1.043   2.631   4.203
 1062TIP3    H2 3193   1.061   2.679   4.060
 1063TIP3   OH2 3194   2.972   2.001   0.639
 1063TIP3    H1 3195   2.937   1.963   0.719
 1063TIP3    H2 3196   3.059   1.962   0.629
 1064TIP3   OH2 3197   3.442   2.094   2.748
 1064TIP3    H1 3198   3.451   2.045   2.666
 1064TIP3    H2 3199   3.455   2.028   2.816
 1065TIP3   OH2 3200   0.109   0.722   2.281
 1065TIP3    H1 3201   0.103   0.691   2.371
 1065TIP3    H2 3202   0.168   0.660   2.238
 1066TIP3   OH2 3203   2.696   4.338   0.980
 1066TIP3    H1 3204   2.625   4.395   0.952
 1066TIP3    H2 3205   2.685   4.332   1.075
 1067TIP3   OH2 3206   4.608   2.477   3.774
 1067TIP3    H1 3207   4.517   2.506   3.767
 1067TIP3    H2 3208   4.647   2.537   3.837
 1068TIP3   OH2 3209   0.137   0.452   2.068
 1068TIP3    H1 3210   0.149   0.415   1.980
 1068TIP3    H2 3211   0.063   0.404   2.104
 1069TIP3   OH2 3212   4.915   0.249   2.544
 1069TIP3    H1 3213   4.979   0.282   2.608
 1069TIP3    H2 3214   4.837   0.230   2.596
 1070TIP3   OH2 3215   0.716   3.355   3.460
 1070TIP3    H1 3216   0.742   3.441   3.494
 1070TIP3    H2 3217   0.625   3.344   3.490
 1071TIP3   OH2 3218   2.580   6.021   1.559
 1071TIP3    H1 3219   2.524   6.011   1.482
 1071TIP3    H2 3220   2.658   5.970   1.539
 1072TIP3   OH2 3221   3.564   1.395   3.633
 1072TIP3    H1 3222   3.605   1.470   3.677
 1072TIP3    H2 3223   3.638   1.339   3.608
 1073TIP3   OH2 3224   5.410   4.927   4.416
 1073TIP3    H1 3225   5.456   4.847   4.393
 1073TIP3    H2 3226   5.428   4.940   4.509
 1074TIP3   OH2 3227   0.671   4.823   0.894
 1074TIP3    H1 3228   0.725   4.746   0.878
 1074TIP3    H2 3229   0.640   4.813   0.984
 1075TIP3   OH2 3230   2.351   2.863   1.419
 1075TIP3    H1 3231   2.411   2.789   1.406
 1075TIP3    H2 3232   2.378   2.901   1.502
 1076TIP3   OH2 3233   0.275   3.988   3.968
 1076TIP3    H1 3234   0.215   3.979   4.042
 1076TIP3    H2 3235   0.222   4.027   3.899
 1077TIP3   OH2 3236   3.279   3.578   0.275
 1077TIP3    H1 3237   3.356   3.634   0.274
 1077TIP3    H2 3238   3.314   3.489   0.283
 1078TIP3   OH2 3239   1.817   1.569   3.660
 1078TIP3    H1 3240   1.840   1.477   3.675
 1078TIP3    H2 3241   1.725   1.575   3.689
 1079TIP3   OH2 3242   5.550   4.234   0.786
 1079TIP3    H1 3243   5.608   4.308   0.768
 1079TIP3    H2 3244   5.552   4.181   0.706
 1080TIP3   OH2 3245   5.540   5.093   2.724
 1080TIP3    H1 3246   5.533   5.015   2.778
 1080TIP3    H2 3247   5.496   5.161   2.775
 1081TIP3   OH2 3248   4.031   3.914   0.509
 1081TIP3    H1 3249   4.071   3.974   0.447
 1081TIP3    H2 3250   3.985   3.849   0.455
 1082TIP3   OH2 3251   0.889   3.515   3.281
 1082TIP3    H1 3252   0.826   3.460   3.327
 1082TIP3    H2 3253   0.837   3.563   3.217
 1083TIP3   OH2 3254   1.607   1.680   1.516
 1083TIP3    H1 3255   1.666   1.667   1.590
 1083TIP3    H2 3256   1.565   1.764   1.532
 1084TIP3   OH2 3257   5.484   4.811   3.606
 1084TIP3    H1 3258   5.545   4.769   3.667
 1084TIP3    H2 3259   5.425   4.862   3.662
 1085TIP3   OH2 3260   0.019   2.556   0.043
 1085TIP3    H1 3261   0.050   2.628   0.098
 1085TIP3    H2 3262   0.090   2.540  -0.018
 1086TIP3   OH2 3263   4.155   0.821   2.050
 1086TIP3    H1 3264   4.234   0.787   2.092
 1086TIP3    H2 3265   4.124   0.889   2.110
 1087TIP3   OH2 3266   3.426   3.918   4.486
 1087TIP3    H1 3267   3.491   3.867   4.534
 1087TIP3    H2 3268   3.393   3.858   4.419
 1088TIP3   OH2 3269   1.630   5.229   4.818
 1088TIP3    H1 3270   1.560   5.241   4.753
 1088TIP3    H2 3271   1.700   5.187   4.769
 1089TIP3   OH2 3272   2.313   1.058   2.686
 1089TIP3    H1 3273   2.261   1.134   2.658
 1089TIP3    H2 3274   2.248   0.991   2.706
 1090TIP3   OH2 3275   0.595   0.490   1.817
 1090TIP3    H1 3276   0.652   0.504   1.892
 1090TIP3    H2 3277   0.608   0.567   1.762
 1091TIP3   OH2 3278   3.976   0.822   5.041
 1091TIP3    H1 3279   3.907   0.866   4.991
 1091TIP3    H2 3280   4.055   0.872   5.022
 1092TIP3   OH2 3281   4.866   4.492   2.975
 1092TIP3    H1 3282   4.872   4.576   3.020
 1092TIP3    H2 3283   4.948   4.447   2.996
 1093TIP3   OH2 3284   3.175   5.902   1.234
 1093TIP3    H1 3285   3.216   5.963   1.295
 1093TIP3    H2 3286   3.249   5.855   1.194
 1094TIP3   OH2 3287   0.296   1.127   1.668
 1094TIP3    H1 3288   0.239   1.053   1.648
 1094TIP3    H2 3289   0.322   1.160   1.582
 1095TIP3   OH2 3290   3.646   1.862   3.243
 1095TIP3    H1 3291   3.557   1.827   3.248
 1095TIP3    H2 3292   3.685   1.840   3.328
 1096TIP3   OH2 3293   0.944   5.208   3.060
 1096TIP3    H1 3294   1.011   5.182   3.123
 1096TIP3    H2 3295   0.983   5.192   2.974
 1097TIP3   OH2 3296   5.819   4.401   4.863
 1097TIP3    H1 3297   5.876   4.375   4.935
 1097TIP3    H2 3298   5.879   4.426   4.793
 1098TIP3   OH2 3299   3.558   0.082   2.878
 1098TIP3    H1 3300   3.552   0.022   2.804
 1098TIP3    H2 3301   3.579   0.026   2.953
 1099TIP3   OH2 3302   5.410   5.912   4.029
 1099TIP3    H1 3303   5.454   5.986   3.989
 1099TIP3    H2 3304   5.480   5.848   4.045
 1100TIP3   OH2 3305   1.362   0.472   0.308
 1100TIP3    H1 3306   1.392   0.551   0.263
 1100TIP3    H2 3307   1.442   0.423   0.328
 1101TIP3   OH2 3308   1.942   4.186   1.067
 1101TIP3    H1 3309   1.896   4.152   0.990
 1101TIP3    H2 3310   1.880   4.246   1.107
 1102TIP3   OH2 3311   6.349   2.102   0.579
 1102TIP3    H1 3312   6.271   2.108   0.635
 1102TIP3    H2 3313   6.372   2.009   0.580
 1103TIP3   OH2 3314   1.987   3.386   1.879
 1103TIP3    H1 3315   2.065   3.407   1.828
 1103TIP3    H2 3316   2.016   3.321   1.943
 1104TIP3   OH2 3317   5.984   5.586   3.065
 1104TIP3    H1 3318   5.970   5.517   3.001
 1104TIP3    H2 3319   6.030   5.543   3.137
 1105TIP3   OH2 3320   5.321   1.877   1.893
 1105TIP3    H1 3321   5.385   1.894   1.963
 1105TIP3    H2 3322   5.335   1.785   1.871
 1106TIP3   OH2 3323   1.050   0.332   3.290
 1106TIP3    H1 3324   1.043   0.331   3.386
 1106TIP3    H2 3325   0.974   0.383   3.262
 1107TIP3   OH2 3326   6.102   0.046   4.804
 1107TIP3    H1 3327   6.012   0.034   4.833
 1107TIP3    H2 3328   6.133  -0.042   4.784
 1108TIP3   OH2 3329   5.056   3.521   2.998
 1108TIP3    H1 3330   4.997   3.596   3.006
 1108TIP3    H2 3331   5.006   3.455   2.951
 1109TIP3   OH2 3332   2.473   0.621   2.912
 1109TIP3    H1 3333   2.389   0.574   2.910
 1109TIP3    H2 3334   2.449   0.713   2.901
 1110TIP3   OH2 3335   4.350   1.615   1.345
 1110TIP3    H1 3336   4.315   1.664   1.271
 1110TIP3    H2 3337   4.393   1.681   1.400
 1111TIP3   OH2 3338   5.885   3.511   3.645
 1111TIP3    H1 3339   5.921   3.597   3.667
 1111TIP3    H2 3340   5.952   3.470   3.590
 1112TIP3   OH2 3341   2.725   5.089   2.445
 1112TIP3    H1 3342   2.797   5.032   2.472
 1112TIP3    H2 3343   2.729   5.163   2.506
 1113TIP3   OH2 3344   2.022   4.104   3.108
 1113TIP3    H1 3345   1.951   4.163   3.132
 1113TIP3    H2 3346   2.102   4.154   3.126
 1114TIP3   OH2 3347   5.419   4.174   3.774
 1114TIP3    H1 3348   5.510   4.148   3.785
 1114TIP3    H2 3349   5.386   4.183   3.863
 1115TIP3   OH2 3350   2.880   2.695   0.872
 1115TIP3    H1 3351   2.877   2.626   0.806
 1115TIP3    H2 3352   2.812   2.757   0.846
 1116TIP3   OH2 3353   2.257   0.737   2.640
 1116TIP3    H1 3354   2.239   0.787   2.561
 1116TIP3    H2 3355   2.339   0.773   2.674
 1117TIP3   OH2 3356   3.753   3.545   0.273
 1117TIP3    H1 3357   3.674   3.594   0.251
 1117TIP3    H2 3358   3.737   3.510   0.360
 1118TIP3   OH2 3359   1.305   1.700   3.590
 1118TIP3    H1 3360   1.263   1.669   3.670
 1118TIP3    H2 3361   1.317   1.794   3.604
 1119TIP3   OH2 3362   2.834   1.849   2.482
 1119TIP3    H1 3363   2.767   1.785   2.505
 1119TIP3    H2 3364   2.902   1.837   2.548
 1120TIP3   OH2 3365   0.064   3.289   3.739
 1120TIP3    H1 3366   0.016   3.235   3.801
 1120TIP3    H2 3367   0.028   3.377   3.751
 1121TIP3   OH2 3368   2.305   3.928   0.829
 1121TIP3    H1 3369   2.345   3.897   0.748
 1121TIP3    H2 3370   2.350   4.011   0.847
 1122TIP3   OH2 3371   2.769   2.301   3.933
 1122TIP3    H1 3372   2.741   2.342   3.851
 1122TIP3    H2 3373   2.693   2.307   3.990
 1123TIP3   OH2 3374   2.746   2.350   3.263
 1123TIP3    H1 3375   2.705   2.309   3.187
 1123TIP3    H2 3376   2.677   2.404   3.301
 1124TIP3   OH2 3377   3.402   2.144   1.502
 1124TIP3    H1 3378   3.355   2.063   1.486
 1124TIP3    H2 3379   3.457   2.156   1.424
 1125TIP3   OH2 3380   3.432   0.069   0.100
 1125TIP3    H1 3381   3.446  -0.021   0.072
 1125TIP3    H2 3382   3.367   0.103   0.038
 1126TIP3   OH2 3383   4.837   0.512   0.989
 1126TIP3    H1 3384   4.840   0.493   0.895
 1126TIP3    H2 3385   4.756   0.560   1.001
 1127TIP3   OH2 3386   5.473   2.119   4.322
 1127TIP3    H1 3387   5.510   2.203   4.297
 1127TIP3    H2 3388   5.379   2.128   4.308
 1128TIP3   OH2 3389   4.412   5.046   4.285
 1128TIP3    H1 3390   4.470   5.122   4.276
 1128TIP3    H2 3391   4.469   4.975   4.315
 1129TIP3   OH2 3392   0.419   2.908   4.649
 1129TIP3    H1 3393   0.366   2.828   4.647
 1129TIP3    H2 3394   0.371   2.967   4.706
 1130TIP3   OH2 3395   6.172   3.845   4.052
 1130TIP3    H1 3396   6.131   3.773   4.100
 1130TIP3    H2 3397   6.099   3.889   4.009
 1131TIP3   OH2 3398   2.811   2.504   0.670
 1131TIP3    H1 3399   2.746   2.509   0.600
 1131TIP3    H2 3400   2.869   2.432   0.644
 1132TIP3   OH2 3401   2.911   5.878   2.247
 1132TIP3    H1 3402   2.845   5.831   2.298
 1132TIP3    H2 3403   2.889   5.971   2.259
 1133TIP3   OH2 3404   2.189   3.832   1.579
 1133TIP3    H1 3405   2.239   3.891   1.637
 1133TIP3    H2 3406   2.248   3.758   1.565
 1134TIP3   OH2 3407   2.262   4.476   1.943
 1134TIP3    H1 3408   2.263   4.561   1.898
 1134TIP3    H2 3409   2.330   4.425   1.899
 1135TIP3   OH2 3410   3.668   1.417   1.703
 1135TIP3    H1 3411   3.625   1.331   1.701
 1135TIP3    H2 3412   3.600   1.476   1.737
 1136TIP3   OH2 3413   2.010   3.713   3.991
 1136TIP3    H1 3414   1.953   3.710   3.914
 1136TIP3    H2 3415   2.097   3.694   3.958
 1137TIP3   OH2 3416   5.272   0.594   5.021
 1137TIP3    H1 3417   5.353   0.551   4.992
 1137TIP3    H2 3418   5.202   0.537   4.989
 1138TIP3   OH2 3419   4.892   4.098   2.883
 1138TIP3    H1 3420   4.900   4.060   2.971
 1138TIP3    H2 3421   4.966   4.158   2.876
 1139TIP3   OH2 3422   4.464   0.698   4.096
 1139TIP3    H1 3423   4.552   0.681   4.063
 1139TIP3    H2 3424   4.465   0.665   4.186
 1140TIP3   OH2 3425   4.625   5.760   3.870
 1140TIP3    H1 3426   4.606   5.826   3.803
 1140TIP3    H2 3427   4.706   5.719   3.839
 1141TIP3   OH2 3428   5.689   1.236   3.802
 1141TIP3    H1 3429   5.709   1.217   3.711
 1141TIP3    H2 3430   5.765   1.287   3.833
 1142TIP3   OH2 3431   5.699   4.833   3.868
 1142TIP3    H1 3432   5.646   4.757   3.845
 1142TIP3    H2 3433   5.787   4.798   3.881
 1143TIP3   OH2 3434   5.019   3.281   2.342
 1143TIP3    H1 3435   4.946   3.236   2.384
 1143TIP3    H2 3436   5.026   3.240   2.256
 1144TIP3   OH2 3437   0.666   4.062   0.070
 1144TIP3    H1 3438   0.694   4.131   0.130
 1144TIP3    H2 3439   0.578   4.039   0.100
 1145TIP3   OH2 3440   2.770   4.651   1.344
 1145TIP3    H1 3441   2.840   4.698   1.391
 1145TIP3    H2 3442   2.806   4.636   1.257
 1146TIP3   OH2 3443   6.012   5.886   4.152
 1146TIP3    H1 3444   5.984   5.864   4.063
 1146TIP3    H2 3445   5.930   5.902   4.200
 1147TIP3   OH2 3446   0.185   5.556   3.574
 1147TIP3    H1 3447   0.096   5.529   3.551
 1147TIP3    H2 3448   0.226   5.478   3.611
 1148TIP3   OH2 3449   0.009   1.682   4.258
 1148TIP3    H1 3450   0.103   1.692   4.273
 1148TIP3    H2 3451  -0.016   1.762   4.213
 1149TIP3   OH2 3452   5.652   0.260   3.393
 1149TIP3    H1 3453   5.679   0.208   3.318
 1149TIP3    H2 3454   5.734   0.284   3.437
 1150TIP3   OH2 3455   2.941   2.506   1.708
 1150TIP3    H1 3456   2.917   2.587   1.663
 1150TIP3    H2 3457   2.892   2.438   1.662
 1151TIP3   OH2 3458   1.238   1.796   4.034
 1151TIP3    H1 3459   1.255   1.855   3.960
 1151TIP3    H2 3460   1.261   1.848   4.111
 1152TIP3   OH2 3461   5.933   1.591   4.721
 1152TIP3    H1 3462   6.024   1.621   4.728
 1152TIP3    H2 3463   5.933   1.505   4.763
 1153TIP3   OH2 3464   0.549   3.839   2.978
 1153TIP3    H1 3465   0.521   3.802   2.894
 1153TIP3    H2 3466   0.590   3.922   2.955
 1154TIP3   OH2 3467   1.525   5.825   1.885
 1154TIP3    H1 3468   1.439   5.784   1.878
 1154TIP3    H2 3469   1.562   5.816   1.797
 1155TIP3   OH2 3470   0.820   0.578   3.652
 1155TIP3    H1 3471   0.780   0.665   3.656
 1155TIP3    H2 3472   0.756   0.520   3.692
 1156TIP3   OH2 3473   3.561   0.394   3.567
 1156TIP3    H1 3474   3.618   0.317   3.565
 1156TIP3    H2 3475   3.524   0.399   3.478
 1157TIP3   OH2 3476   0.414   2.493   1.672
 1157TIP3    H1 3477   0.386   2.459   1.757
 1157TIP3    H2 3478   0.457   2.576   1.692
 1158TIP3   OH2 3479   1.531   3.488   3.129
 1158TIP3    H1 3480   1.519   3.580   3.152
 1158TIP3    H2 3481   1.460   3.442   3.174
 1159TIP3   OH2 3482   5.091   5.913   1.304
 1159TIP3    H1 3483   5.126   5.920   1.393
 1159TIP3    H2 3484   5.069   6.003   1.280
 1160TIP3   OH2 3485   2.776   1.558   4.200
 1160TIP3    H1 3486   2.774   1.515   4.285
 1160TIP3    H2 3487   2.863   1.540   4.166
 1161TIP3   OH2 3488   1.979   1.565   0.098
 1161TIP3    H1 3489   1.927   1.622   0.154
 1161TIP3    H2 3490   1.915   1.505   0.059
 1162TIP3   OH2 3491   1.984   5.714   2.597
 1162TIP3    H1 3492   2.033   5.795   2.614
 1162TIP3    H2 3493   2.045   5.659   2.547
 1163TIP3   OH2 3494   3.040   0.471   3.135
 1163TIP3    H1 3495   3.008   0.552   3.176
 1163TIP3    H2 3496   3.129   0.462   3.167
 1164TIP3   OH2 3497   6.050   2.530   0.495
 1164TIP3    H1 3498   5.961   2.547   0.464
 1164TIP3    H2 3499   6.039   2.492   0.582
 1165TIP3   OH2 3500   4.216   1.573   2.952
 1165TIP3    H1 3501   4.219   1.507   3.022
 1165TIP3    H2 3502   4.298   1.621   2.960
 1166TIP3   OH2 3503   5.148   3.127   3.130
 1166TIP3    H1 3504   5.209   3.053   3.124
 1166TIP3    H2 3505   5.099   3.111   3.211
 1167TIP3   OH2 3506   2.998   3.085   3.379
 1167TIP3    H1 3507   2.945   3.063   3.302
 1167TIP3    H2 3508   2.988   3.180   3.387
 1168TIP3   OH2 3509   0.757   0.596   2.017
 1168TIP3    H1 3510   0.770   0.533   2.087
 1168TIP3    H2 3511   0.828   0.660   2.029
 1169TIP3   OH2 3512   0.935   5.823   2.827
 1169TIP3    H1 3513   0.855   5.871   2.849
 1169TIP3    H2 3514   0.936   5.820   2.732
 1170TIP3   OH2 3515   2.226   5.319   1.963
 1170TIP3    H1 3516   2.288   5.254   1.930
 1170TIP3    H2 3517   2.143   5.273   1.970
 1171TIP3   OH2 3518   1.036   2.872   1.473
 1171TIP3    H1 3519   1.014   2.857   1.564
 1171TIP3    H2 3520   1.109   2.813   1.455
 1172TIP3   OH2 3521   5.421   2.088   2.896
 1172TIP3    H1 3522   5.451   2.027   2.963
 1172TIP3    H2 3523   5.492   2.152   2.888
 1173TIP3   OH2 3524   1.535   2.407   3.202
 1173TIP3    H1 3525   1.563   2.393   3.292
 1173TIP3    H2 3526   1.476   2.335   3.183
 1174TIP3   OH2 3527   3.443   5.867   0.611
 1174TIP3    H1 3528   3.458   5.801   0.543
 1174TIP3    H2 3529   3.365   5.915   0.582
 1175TIP3   OH2 3530   2.812   2.429  -0.020
 1175TIP3    H1 3531   2.761   2.510  -0.027
 1175TIP3    H2 3532   2.786   2.391   0.064
 1176TIP3   OH2 3533   6.270   0.702   3.763
 1176TIP3    H1 3534   6.186   0.675   3.727
 1176TIP3    H2 3535   6.285   0.644   3.837
 1177TIP3   OH2 3536   5.678   3.138   2.376
 1177TIP3    H1 3537   5.746   3.103   2.434
 1177TIP3    H2 3538   5.664   3.070   2.311
 1178TIP3   OH2 3539   3.159   5.512   0.714
 1178TIP3    H1 3540   3.085   5.535   0.770
 1178TIP3    H2 3541   3.163   5.416   0.719
 1179TIP3   OH2 3542   0.859   2.608   1.897
 1179TIP3    H1 3543   0.942   2.560   1.892
 1179TIP3    H2 3544   0.792   2.541   1.893
 1180TIP3   OH2 3545   2.591   1.880   4.987
 1180TIP3    H1 3546   2.546   1.802   4.954
 1180TIP3    H2 3547   2.592   1.870   5.082
 1181TIP3   OH2 3548   5.482   1.463   3.514
 1181TIP3    H1 3549   5.447   1.386   3.558
 1181TIP3    H2 3550   5.533   1.428   3.441
 1182TIP3   OH2 3551   4.408   2.059   1.332
 1182TIP3    H1 3552   4.437   2.120   1.265
 1182TIP3    H2 3553   4.438   1.973   1.301
 1183TIP3   OH2 3554   3.660   0.330   0.617
 1183TIP3    H1 3555   3.671   0.332   0.712
 1183TIP3    H2 3556   3.571   0.361   0.602
 1184TIP3   OH2 3557   5.853   4.163   2.269
 1184TIP3    H1 3558   5.938   4.171   2.311
 1184TIP3    H2 3559   5.872   4.165   2.175
 1185TIP3   OH2 3560   2.110   4.931   1.928
 1185TIP3    H1 3561   2.132   4.926   2.021
 1185TIP3    H2 3562   2.092   5.024   1.913
 1186TIP3   OH2 3563   3.948   0.981   3.650
 1186TIP3    H1 3564   4.016   0.962   3.715
 1186TIP3    H2 3565   3.868   0.987   3.701
 1187TIP3   OH2 3566   3.235   0.669   1.401
 1187TIP3    H1 3567   3.265   0.659   1.491
 1187TIP3    H2 3568   3.163   0.606   1.392
 1188TIP3   OH2 3569   5.269   1.094   0.361
 1188TIP3    H1 3570   5.325   1.051   0.296
 1188TIP3    H2 3571   5.329   1.125   0.428
 1189TIP3   OH2 3572   3.800   2.632   0.947
 1189TIP3    H1 3573   3.848   2.629   1.030
 1189TIP3    H2 3574   3.867   2.624   0.880
 1190TIP3   OH2 3575   5.320   0.795   0.963
 1190TIP3    H1 3576   5.242   0.750   0.995
 1190TIP3    H2 3577   5.338   0.861   1.030
 1191TIP3   OH2 3578   2.492   3.211   0.455
 1191TIP3    H1 3579   2.576   3.165   0.460
 1191TIP3    H2 3580   2.514   3.296   0.417
 1192TIP3   OH2 3581   4.363   1.139   2.602
 1192TIP3    H1 3582   4.425   1.192   2.552
 1192TIP3    H2 3583   4.405   1.054   2.610
 1193TIP3   OH2 3584   5.766   3.131   0.380
 1193TIP3    H1 3585   5.720   3.197   0.431
 1193TIP3    H2 3586   5.795   3.177   0.301
 1194TIP3   OH2 3587   1.123   0.183   1.127
 1194TIP3    H1 3588   1.140   0.153   1.216
 1194TIP3    H2 3589   1.190   0.140   1.074
 1195TIP3   OH2 3590   0.853   0.539   0.541
 1195TIP3    H1 3591   0.935   0.521   0.588
 1195TIP3    H2 3592   0.841   0.464   0.483
 1196TIP3   OH2 3593   4.609   0.411   4.623
 1196TIP3    H1 3594   4.645   0.323   4.633
 1196TIP3    H2 3595   4.676   0.459   4.573
 1197TIP3   OH2 3596   3.515   5.163   1.912
 1197TIP3    H1 3597   3.444   5.118   1.957
 1197TIP3    H2 3598   3.562   5.210   1.981
 1198TIP3   OH2 3599   2.110   1.388   3.084
 1198TIP3    H1 3600   2.069   1.374   3.169
 1198TIP3    H2 3601   2.046   1.353   3.021
 1199TIP3   OH2 3602   0.311   2.339   3.537
 1199TIP3    H1 3603   0.239   2.390   3.574
 1199TIP3    H2 3604   0.357   2.401   3.480
 1200TIP3   OH2 3605   5.769   5.606   0.924
 1200TIP3    H1 3606   5.861   5.581   0.914
 1200TIP3    H2 3607   5.770   5.701   0.924
 1201TIP3   OH2 3608   4.407   1.825   4.410
 1201TIP3    H1 3609   4.488   1.818   4.461
 1201TIP3    H2 3610   4.339   1.844   4.475
 1202TIP3   OH2 3611   5.891   3.696   4.733
 1202TIP3    H1 3612   5.956   3.742   4.680
 1202TIP3    H2 3613   5.880   3.750   4.811
 1203TIP3   OH2 3614   4.364   0.280   4.166
 1203TIP3    H1 3615   4.451   0.245   4.184
 1203TIP3    H2 3616   4.305   0.227   4.220
 1204TIP3   OH2 3617   3.058   4.138   3.335
 1204TIP3    H1 3618   3.118   4.085   3.388
 1204TIP3    H2 3619   3.086   4.123   3.245
 1205TIP3   OH2 3620   4.686   4.765   0.563
 1205TIP3    H1 3621   4.732   4.772   0.479
 1205TIP3    H2 3622   4.614   4.704   0.546
 1206TIP3   OH2 3623   3.514   0.421   3.276
 1206TIP3    H1 3624   3.487   0.476   3.203
 1206TIP3    H2 3625   3.459   0.343   3.268
 1207TIP3   OH2 3626   6.374   0.664   3.520
 1207TIP3    H1 3627   6.355   0.683   3.611
 1207TIP3    H2 3628   6.347   0.573   3.508
 1208TIP3   OH2 3629   4.934   3.871   2.353
 1208TIP3    H1 3630   4.839   3.880   2.358
 1208TIP3    H2 3631   4.949   3.780   2.330
 1209TIP3   OH2 3632   1.603   5.749   1.605
 1209TIP3    H1 3633   1.529   5.689   1.593
 1209TIP3    H2 3634   1.679   5.701   1.574
 1210TIP3   OH2 3635   1.517   2.158   1.028
 1210TIP3    H1 3636   1.583   2.116   0.973
 1210TIP3    H2 3637   1.567   2.211   1.091
 1211TIP3   OH2 3638   4.994   2.856   5.049
 1211TIP3    H1 3639   4.952   2.899   4.973
 1211TIP3    H2 3640   4.925   2.801   5.086
 1212TIP3   OH2 3641   1.935   2.081   0.613
 1212TIP3    H1 3642   2.027   2.098   0.592
 1212TIP3    H2 3643   1.912   2.006   0.559
 1213TIP3   OH2 3644   0.052   3.700   3.099
 1213TIP3    H1 3645   0.004   3.782   3.087
 1213TIP3    H2 3646   0.032   3.649   3.021
 1214TIP3   OH2 3647   2.435   4.109   1.164
 1214TIP3    H1 3648   2.340   4.117   1.166
 1214TIP3    H2 3649   2.456   4.084   1.074
 1215TIP3   OH2 3650   0.795   5.605   4.785
 1215TIP3    H1 3651   0.732   5.586   4.855
 1215TIP3    H2 3652   0.844   5.523   4.774
 1216TIP3   OH2 3653   4.144   1.609   0.764
 1216TIP3    H1 3654   4.189   1.574   0.841
 1216TIP3    H2 3655   4.127   1.532   0.710
 1217TIP3   OH2 3656   6.034   5.474   3.597
 1217TIP3    H1 3657   5.972   5.414   3.638
 1217TIP3    H2 3658   5.983   5.553   3.580
 1218TIP3   OH2 3659   0.845   2.819   1.039
 1218TIP3    H1 3660   0.903   2.796   0.967
 1218TIP3    H2 3661   0.901   2.815   1.117
 1219TIP3   OH2 3662   0.637   4.295   0.331
 1219TIP3    H1 3663   0.580   4.362   0.293
 1219TIP3    H2 3664   0.581   4.246   0.391
 1220TIP3   OH2 3665   5.739   4.469   1.458
 1220TIP3    H1 3666   5.657   4.449   1.503
 1220TIP3    H2 3667   5.715   4.536   1.393
 1221TIP3   OH2 3668   5.456   2.525   1.038
 1221TIP3    H1 3669   5.475   2.602   0.985
 1221TIP3    H2 3670   5.412   2.560   1.115
 1222TIP3   OH2 3671   5.952   5.282   4.349
 1222TIP3    H1 3672   5.922   5.195   4.378
 1222TIP3    H2 3673   5.886   5.310   4.286
 1223TIP3   OH2 3674   0.385   5.515   2.903
 1223TIP3    H1 3675   0.343   5.552   2.825
 1223TIP3    H2 3676   0.381   5.586   2.968
 1224TIP3   OH2 3677   1.475   5.125   2.962
 1224TIP3    H1 3678   1.414   5.051   2.962
 1224TIP3    H2 3679   1.446   5.180   3.034
 1225TIP3   OH2 3680   6.172   0.471   1.395
 1225TIP3    H1 3681   6.196   0.450   1.305
 1225TIP3    H2 3682   6.227   0.546   1.418
 1226TIP3   OH2 3683   0.992   5.975   4.466
 1226TIP3    H1 3684   1.085   5.962   4.485
 1226TIP3    H2 3685   0.946   5.926   4.534
 1227TIP3   OH2 3686   0.244   4.887   4.840
 1227TIP3    H1 3687   0.324   4.869   4.889
 1227TIP3    H2 3688   0.260   4.971   4.797
 1228TIP3   OH2 3689   1.069   2.118   4.020
 1228TIP3    H1 3690   1.100   2.208   4.022
 1228TIP3    H2 3691   1.074   2.089   4.112
 1229TIP3   OH2 3692   2.660   1.977   0.728
 1229TIP3    H1 3693   2.594   2.002   0.793
 1229TIP3    H2 3694   2.743   1.986   0.774
 1230TIP3   OH2 3695   6.149   2.308   3.251
 1230TIP3    H1 3696   6.151   2.243   3.181
 1230TIP3    H2 3697   6.103   2.265   3.323
 1231TIP3   OH2 3698   5.778   0.598   3.797
 1231TIP3    H1 3699   5.769   0.691   3.779
 1231TIP3    H2 3700   5.831   0.594   3.877
 1232TIP3   OH2 3701   2.703   0.229   1.295
 1232TIP3    H1 3702   2.651   0.234   1.376
 1232TIP3    H2 3703   2.706   0.319   1.263
 1233TIP3   OH2 3704   2.784   1.149   1.100
 1233TIP3    H1 3705   2.818   1.065   1.068
 1233TIP3    H2 3706   2.858   1.208   1.096
 1234TIP3   OH2 3707   1.270   4.402   4.759
 1234TIP3    H1 3708   1.340   4.351   4.799
 1234TIP3    H2 3709   1.214   4.428   4.832
 1235TIP3   OH2 3710   5.347   4.323   4.880
 1235TIP3    H1 3711   5.333   4.288   4.792
 1235TIP3    H2 3712   5.260   4.352   4.908
 1236TIP3   OH2 3713   4.664   4.154   4.501
 1236TIP3    H1 3714   4.705   4.185   4.582
 1236TIP3    H2 3715   4.609   4.081   4.528
 1237TIP3   OH2 3716   3.870   5.631   1.975
 1237TIP3    H1 3717   3.798   5.596   1.922
 1237TIP3    H2 3718   3.948   5.584   1.945
 1238TIP3   OH2 3719   0.444   0.559   4.003
 1238TIP3    H1 3720   0.530   0.534   3.971
 1238TIP3    H2 3721   0.457   0.644   4.043
 1239TIP3   OH2 3722   0.560   2.832   1.169
 1239TIP3    H1 3723   0.579   2.759   1.227
 1239TIP3    H2 3724   0.646   2.864   1.141
 1240TIP3   OH2 3725   5.648   1.537   3.712
 1240TIP3    H1 3726   5.612   1.525   3.800
 1240TIP3    H2 3727   5.575   1.517   3.654
 1241TIP3   OH2 3728   5.940   4.456   1.979
 1241TIP3    H1 3729   5.968   4.365   1.971
 1241TIP3    H2 3730   5.902   4.478   1.894
 1242TIP3   OH2 3731   1.061   2.367   2.710
 1242TIP3    H1 3732   1.059   2.449   2.661
 1242TIP3    H2 3733   1.139   2.322   2.678
 1243TIP3   OH2 3734   3.242   2.661   4.125
 1243TIP3    H1 3735   3.166   2.622   4.167
 1243TIP3    H2 3736   3.214   2.678   4.035
 1244TIP3   OH2 3737   0.252   2.842   2.193
 1244TIP3    H1 3738   0.179   2.783   2.173
 1244TIP3    H2 3739   0.308   2.837   2.116
 1245TIP3   OH2 3740   1.629   4.434   0.198
 1245TIP3    H1 3741   1.566   4.384   0.249
 1245TIP3    H2 3742   1.675   4.369   0.145
 1246TIP3   OH2 3743   3.902   5.982   3.771
 1246TIP3    H1 3744   3.910   6.037   3.694
 1246TIP3    H2 3745   3.941   5.898   3.745
 1247TIP3   OH2 3746   0.982   0.387   3.557
 1247TIP3    H1 3747   0.932   0.469   3.564
 1247TIP3    H2 3748   1.013   0.370   3.646
 1248TIP3   OH2 3749   2.540   0.158   1.899
 1248TIP3    H1 3750   2.531   0.222   1.829
 1248TIP3    H2 3751   2.468   0.179   1.960
 1249TIP3   OH2 3752   4.604   0.399   0.632
 1249TIP3    H1 3753   4.621   0.474   0.575
 1249TIP3    H2 3754   4.673   0.403   0.698
 1250TIP3   OH2 3755   0.333   4.291   2.882
 1250TIP3    H1 3756   0.410   4.335   2.919
 1250TIP3    H2 3757   0.269   4.361   2.870
 1251TIP3   OH2 3758   2.832   1.199   1.575
 1251TIP3    H1 3759   2.848   1.267   1.508
 1251TIP3    H2 3760   2.793   1.246   1.648
 1252TIP3   OH2 3761   5.080   0.047   0.802
 1252TIP3    H1 3762   5.059   0.134   0.833
 1252TIP3    H2 3763   5.032  -0.012   0.859
 1253TIP3   OH2 3764   4.806   5.870   0.941
 1253TIP3    H1 3765   4.746   5.834   1.007
 1253TIP3    H2 3766   4.777   5.960   0.930
 1254TIP3   OH2 3767   2.320   0.500   1.371
 1254TIP3    H1 3768   2.336   0.410   1.401
 1254TIP3    H2 3769   2.405   0.544   1.382
 1255TIP3   OH2 3770   3.222   4.666   4.195
 1255TIP3    H1 3771   3.317   4.678   4.194
 1255TIP3    H2 3772   3.201   4.638   4.106
 1256TIP3   OH2 3773   6.111   0.310   1.809
 1256TIP3    H1 3774   6.057   0.294   1.887
 1256TIP3    H2 3775   6.121   0.405   1.806
 1257TIP3   OH2 3776   5.495   5.202   2.337
 1257TIP3    H1 3777   5.462   5.145   2.267
 1257TIP3    H2 3778   5.477   5.154   2.418
 1258TIP3   OH2 3779   2.694   1.140   4.850
 1258TIP3    H1 3780   2.619   1.185   4.811
 1258TIP3    H2 3781   2.655   1.078   4.913
 1259TIP3   OH2 3782   5.496   0.662   1.247
 1259TIP3    H1 3783   5.532   0.737   1.295
 1259TIP3    H2 3784   5.401   0.671   1.258
 1260TIP3   OH2 3785   4.297   3.007   3.940
 1260TIP3    H1 3786   4.366   2.958   3.895
 1260TIP3    H2 3787   4.303   3.096   3.903
 1261TIP3   OH2 3788   3.677   2.392   2.522
 1261TIP3    H1 3789   3.725   2.311   2.539
 1261TIP3    H2 3790   3.667   2.395   2.427
 1262TIP3   OH2 3791   5.134   1.392   2.793
 1262TIP3    H1 3792   5.070   1.413   2.725
 1262TIP3    H2 3793   5.215   1.434   2.763
 1263TIP3   OH2 3794   4.305   0.257   3.561
 1263TIP3    H1 3795   4.377   0.304   3.519
 1263TIP3    H2 3796   4.329   0.253   3.653
 1264TIP3   OH2 3797   4.507   0.957   4.128
 1264TIP3    H1 3798   4.507   0.918   4.041
 1264TIP3    H2 3799   4.494   0.882   4.187
 1265TIP3   OH2 3800   2.042   5.090   1.072
 1265TIP3    H1 3801   2.018   5.133   0.990
 1265TIP3    H2 3802   1.992   5.136   1.139
 1266TIP3   OH2 3803   1.626   3.220   4.928
 1266TIP3    H1 3804   1.709   3.191   4.890
 1266TIP3    H2 3805   1.561   3.159   4.893
 1267TIP3   OH2 3806   1.891   3.871   4.639
 1267TIP3    H1 3807   1.874   3.959   4.605
 1267TIP3    H2 3808   1.820   3.818   4.602
 1268TIP3   OH2 3809   0.854   1.245   3.839
 1268TIP3    H1 3810   0.879   1.303   3.767
 1268TIP3    H2 3811   0.929   1.186   3.849
 1269TIP3   OH2 3812   5.239   1.970   1.636
 1269TIP3    H1 3813   5.283   1.947   1.554
 1269TIP3    H2 3814   5.293   1.932   1.705
 1270TIP3   OH2 3815   3.352   2.387   3.464
 1270TIP3    H1 3816   3.299   2.458   3.501
 1270TIP3    H2 3817   3.303   2.307   3.483
 1271TIP3   OH2 3818   0.949   0.417   4.882
 1271TIP3    H1 3819   1.024   0.362   4.858
 1271TIP3    H2 3820   0.985   0.506   4.886
 1272TIP3   OH2 3821   1.573   5.366   4.411
 1272TIP3    H1 3822   1.511   5.383   4.482
 1272TIP3    H2 3823   1.554   5.434   4.346
 1273TIP3   OH2 3824   3.697   3.861   0.751
 1273TIP3    H1 3825   3.720   3.774   0.720
 1273TIP3    H2 3826   3.603   3.855   0.771
 1274TIP3   OH2 3827   0.865   2.083   1.806
 1274TIP3    H1 3828   0.775   2.111   1.790
 1274TIP3    H2 3829   0.865   1.990   1.787
 1275TIP3   OH2 3830   1.908   0.593   3.049
 1275TIP3    H1 3831   1.964   0.632   2.981
 1275TIP3    H2 3832   1.968   0.569   3.119
 1276TIP3   OH2 3833   0.225   2.663   1.049
 1276TIP3    H1 3834   0.209   2.572   1.024
 1276TIP3    H2 3835   0.162   2.680   1.119
 1277TIP3   OH2 3836   6.261   0.548   4.709
 1277TIP3    H1 3837   6.308   0.631   4.701
 1277TIP3    H2 3838   6.175   0.566   4.671
 1278TIP3   OH2 3839   2.532   0.171   1.083
 1278TIP3    H1 3840   2.537   0.116   1.004
 1278TIP3    H2 3841   2.617   0.158   1.126
 1279TIP3   OH2 3842   3.335   0.534   1.613
 1279TIP3    H1 3843   3.365   0.569   1.697
 1279TIP3    H2 3844   3.349   0.440   1.619
 1280TIP3   OH2 3845   0.040   4.825   4.496
 1280TIP3    H1 3846   0.127   4.801   4.464
 1280TIP3    H2 3847   0.006   4.745   4.535
 1281TIP3   OH2 3848   4.363   5.247   4.706
 1281TIP3    H1 3849   4.410   5.163   4.706
 1281TIP3    H2 3850   4.320   5.250   4.620
 1282TIP3   OH2 3851   5.550   4.026   1.302
 1282TIP3    H1 3852   5.499   4.081   1.243
 1282TIP3    H2 3853   5.568   4.082   1.377
 1283TIP3   OH2 3854   2.902   2.969   4.697
 1283TIP3    H1 3855   2.873   2.891   4.651
 1283TIP3    H2 3856   2.901   2.943   4.790
 1284TIP3   OH2 3857   2.827   3.661   5.028
 1284TIP3    H1 3858   2.901   3.721   5.019
 1284TIP3    H2 3859   2.765   3.690   4.962
 1285TIP3   OH2 3860   0.169   3.452   0.742
 1285TIP3    H1 3861   0.147   3.500   0.822
 1285TIP3    H2 3862   0.087   3.449   0.693
 1286TIP3   OH2 3863   5.678   0.690   2.615
 1286TIP3    H1 3864   5.651   0.652   2.698
 1286TIP3    H2 3865   5.769   0.718   2.629
 1287TIP3   OH2 3866   1.444   1.728   4.384
 1287TIP3    H1 3867   1.488   1.659   4.335
 1287TIP3    H2 3868   1.353   1.723   4.355
 1288TIP3   OH2 3869   5.035   4.479   3.750
 1288TIP3    H1 3870   4.942   4.459   3.740
 1288TIP3    H2 3871   5.080   4.400   3.718
 1289TIP3   OH2 3872   4.949   1.005   4.268
 1289TIP3    H1 3873   5.015   1.025   4.201
 1289TIP3    H2 3874   4.868   1.041   4.233
 1290TIP3   OH2 3875   1.410   2.557   0.485
 1290TIP3    H1 3876   1.499   2.530   0.464
 1290TIP3    H2 3877   1.418   2.649   0.510
 1291TIP3   OH2 3878   5.147   0.387   4.865
 1291TIP3    H1 3879   5.068   0.357   4.911
 1291TIP3    H2 3880   5.125   0.378   4.772
 1292TIP3   OH2 3881   3.495   5.259   2.813
 1292TIP3    H1 3882   3.537   5.249   2.728
 1292TIP3    H2 3883   3.405   5.228   2.799
 1293TIP3   OH2 3884   4.529   3.307   2.063
 1293TIP3    H1 3885   4.516   3.309   2.157
 1293TIP3    H2 3886   4.444   3.284   2.027
 1294TIP3   OH2 3887   0.917   4.836   2.308
 1294TIP3    H1 3888   0.917   4.828   2.213
 1294TIP3    H2 3889   0.967   4.760   2.339
 1295TIP3   OH2 3890   4.193   5.318   2.284
 1295TIP3    H1 3891   4.199   5.367   2.366
 1295TIP3    H2 3892   4.112   5.267   2.292
 1296TIP3   OH2 3893   1.546   4.772   1.405
 1296TIP3    H1 3894   1.484   4.797   1.473
 1296TIP3    H2 3895   1.536   4.677   1.397
 1297TIP3   OH2 3896   3.898   0.795   4.339
 1297TIP3    H1 3897   3.933   0.863   4.282
 1297TIP3    H2 3898   3.966   0.780   4.405
 1298TIP3   OH2 3899   4.215   5.084   4.519
 1298TIP3    H1 3900   4.251   5.002   4.553
 1298TIP3    H2 3901   4.269   5.104   4.443
 1299TIP3   OH2 3902   1.492   2.821   0.603
 1299TIP3    H1 3903   1.511   2.842   0.694
 1299TIP3    H2 3904   1.530   2.893   0.552
 1300TIP3   OH2 3905   4.644   0.500   2.841
 1300TIP3    H1 3906   4.661   0.444   2.765
 1300TIP3    H2 3907   4.694   0.460   2.912
 1301TIP3   OH2 3908   1.473   3.291   1.792
 1301TIP3    H1 3909   1.445   3.206   1.759
 1301TIP3    H2 3910   1.567   3.280   1.810
 1302TIP3   OH2 3911   3.381   4.438   4.715
 1302TIP3    H1 3912   3.446   4.374   4.685
 1302TIP3    H2 3913   3.398   4.448   4.809
 1303TIP3   OH2 3914   4.417   4.953   0.181
 1303TIP3    H1 3915   4.402   4.905   0.263
 1303TIP3    H2 3916   4.460   4.889   0.124
 1304TIP3   OH2 3917   1.127   3.411   2.115
 1304TIP3    H1 3918   1.201   3.435   2.059
 1304TIP3    H2 3919   1.074   3.353   2.062
 1305TIP3   OH2 3920   2.413   1.320   3.007
 1305TIP3    H1 3921   2.335   1.270   3.030
 1305TIP3    H2 3922   2.480   1.291   3.069
 1306TIP3   OH2 3923   0.806   0.367   0.836
 1306TIP3    H1 3924   0.873   0.384   0.903
 1306TIP3    H2 3925   0.748   0.443   0.840
 1307TIP3   OH2 3926   4.995   0.899   3.592
 1307TIP3    H1 3927   4.961   0.936   3.511
 1307TIP3    H2 3928   4.917   0.868   3.639
 1308TIP3   OH2 3929   5.120   5.370   3.100
 1308TIP3    H1 3930   5.157   5.431   3.164
 1308TIP3    H2 3931   5.063   5.425   3.045
 1309TIP3   OH2 3932   3.130   5.314   3.817
 1309TIP3    H1 3933   3.039   5.343   3.824
 1309TIP3    H2 3934   3.175   5.360   3.887
 1310TIP3   OH2 3935   0.151   0.311   1.363
 1310TIP3    H1 3936   0.133   0.218   1.375
 1310TIP3    H2 3937   0.126   0.328   1.272
 1311TIP3   OH2 3938   0.357   1.960   1.185
 1311TIP3    H1 3939   0.364   2.018   1.110
 1311TIP3    H2 3940   0.397   1.878   1.156
 1312TIP3   OH2 3941   6.272   2.560   3.288
 1312TIP3    H1 3942   6.227   2.476   3.275
 1312TIP3    H2 3943   6.297   2.587   3.199
 1313TIP3   OH2 3944   3.903   5.956   2.776
 1313TIP3    H1 3945   3.919   5.905   2.856
 1313TIP3    H2 3946   3.818   5.925   2.745
 1314TIP3   OH2 3947   3.857   2.729   0.566
 1314TIP3    H1 3948   3.893   2.729   0.477
 1314TIP3    H2 3949   3.929   2.759   0.621
 1315TIP3   OH2 3950   1.497   2.289   0.683
 1315TIP3    H1 3951   1.520   2.214   0.739
 1315TIP3    H2 3952   1.575   2.344   0.684
 1316TIP3   OH2 3953   1.230   1.322   3.925
 1316TIP3    H1 3954   1.174   1.258   3.880
 1316TIP3    H2 3955   1.290   1.270   3.977
 1317TIP3   OH2 3956   1.262   2.447   2.427
 1317TIP3    H1 3957   1.306   2.390   2.489
 1317TIP3    H2 3958   1.206   2.389   2.376
 1318TIP3   OH2 3959   0.235   3.987   1.231
 1318TIP3    H1 3960   0.316   3.944   1.262
 1318TIP3    H2 3961   0.199   4.028   1.310
 1319TIP3   OH2 3962   5.010   3.036   4.285
 1319TIP3    H1 3963   5.077   3.029   4.217
 1319TIP3    H2 3964   5.053   3.004   4.365
 1320TIP3   OH2 3965   2.492   2.401   3.358
 1320TIP3    H1 3966   2.483   2.315   3.398
 1320TIP3    H2 3967   2.404   2.437   3.358
 1321TIP3   OH2 3968   0.393   3.749   2.502
 1321TIP3    H1 3969   0.311   3.788   2.471
 1321TIP3    H2 3970   0.459   3.816   2.486
 1322TIP3   OH2 3971   4.122   2.787   1.922
 1322TIP3    H1 3972   4.115   2.699   1.961
 1322TIP3    H2 3973   4.044   2.833   1.953
 1323TIP3   OH2 3974   3.839   2.056   2.415
 1323TIP3    H1 3975   3.765   2.006   2.383
 1323TIP3    H2 3976   3.875   2.099   2.337
 1324TIP3   OH2 3977   3.389   0.697   0.211
 1324TIP3    H1 3978   3.429   0.746   0.283
 1324TIP3    H2 3979   3.314   0.653   0.250
 1325TIP3   OH2 3980   4.804   2.012   5.070
 1325TIP3    H1 3981   4.767   1.931   5.034
 1325TIP3    H2 3982   4.865   2.042   5.002
 1326TIP3   OH2 3983   6.179   3.821   0.323
 1326TIP3    H1 3984   6.090   3.849   0.305
 1326TIP3    H2 3985   6.171   3.758   0.394
 1327TIP3   OH2 3986   5.335   0.716   2.444
 1327TIP3    H1 3987   5.406   0.774   2.472
 1327TIP3    H2 3988   5.290   0.765   2.375
 1328TIP3   OH2 3989   0.806   0.067   0.130
 1328TIP3    H1 3990   0.831  -0.021   0.102
 1328TIP3    H2 3991   0.797   0.060   0.225
 1329TIP3   OH2 3992   5.711   0.793   4.813
 1329TIP3    H1 3993   5.770   0.726   4.779
 1329TIP3    H2 3994   5.633   0.745   4.841
 1330TIP3   OH2 3995   3.425   1.099   3.932
 1330TIP3    H1 3996   3.342   1.058   3.954
 1330TIP3    H2 3997   3.467   1.039   3.871
 1331TIP3   OH2 3998   5.803   4.162   1.988
 1331TIP3    H1 3999   5.789   4.170   1.894
 1331TIP3    H2 4000   5.861   4.086   1.998
 1332TIP3   OH2 4001   0.456   1.688   3.825
 1332TIP3    H1 4002   0.379   1.656   3.778
 1332TIP3    H2 4003   0.441   1.782   3.833
 1333TIP3   OH2 4004   2.151   1.517   2.836
 1333TIP3    H1 4005   2.132   1.469   2.917
 1333TIP3    H2 4006   2.066   1.530   2.795
 1334TIP3   OH2 4007   0.793   4.830   1.918
 1334TIP3    H1 4008   0.859   4.896   1.942
 1334TIP3    H2 4009   0.777   4.783   2.000
 1335TIP3   OH2 4010   2.823   3.075   2.700
 1335TIP3    H1 4011   2.834   3.169   2.692
 1335TIP3    H2 4012   2.772   3.063   2.780
 1336TIP3   OH2 4013   4.138   2.300   0.093
 1336TIP3    H1 4014   4.163   2.345   0.174
 1336TIP3    H2 4015   4.052   2.336   0.071
 1337TIP3   OH2 4016   5.057   5.105   0.909
 1337TIP3    H1 4017   4.972   5.063   0.897
 1337TIP3    H2 4018   5.074   5.150   0.826
 1338TIP3   OH2 4019   2.073   5.041   5.053
 1338TIP3    H1 4020   2.114   4.982   5.117
 1338TIP3    H2 4021   2.097   5.129   5.083
 1339TIP3   OH2 4022   1.921   2.989   4.092
 1339TIP3    H1 4023   1.996   3.044   4.066
 1339TIP3    H2 4024   1.849   3.020   4.037
 1340TIP3   OH2 4025   5.366   5.411   1.574
 1340TIP3    H1 4026   5.373   5.342   1.509
 1340TIP3    H2 4027   5.451   5.411   1.619
 1341TIP3   OH2 4028   4.534   1.345   2.351
 1341TIP3    H1 4029   4.445   1.334   2.319
 1341TIP3    H2 4030   4.580   1.389   2.279
 1342TIP3   OH2 4031   0.484   5.670   1.424
 1342TIP3    H1 4032   0.543   5.726   1.474
 1342TIP3    H2 4033   0.420   5.730   1.387
 1343TIP3   OH2 4034   4.429   1.178   0.085
 1343TIP3    H1 4035   4.341   1.201   0.115
 1343TIP3    H2 4036   4.430   1.082   0.085
 1344TIP3   OH2 4037   2.090   1.685   5.081
 1344TIP3    H1 4038   2.008   1.710   5.038
 1344TIP3    H2 4039   2.141   1.642   5.012
 1345TIP3   OH2 4040   1.146   0.933   0.965
 1345TIP3    H1 4041   1.232   0.967   0.987
 1345TIP3    H2 4042   1.091   0.954   1.040
 1346TIP3   OH2 4043   0.291   3.133   2.021
 1346TIP3    H1 4044   0.284   3.144   2.116
 1346TIP3    H2 4045   0.242   3.207   1.985
 1347TIP3   OH2 4046  -0.011   4.331   4.601
 1347TIP3    H1 4047  -0.008   4.238   4.621
 1347TIP3    H2 4048   0.028   4.339   4.514
 1348TIP3   OH2 4049   0.915   5.415   1.633
 1348TIP3    H1 4050   0.955   5.431   1.548
 1348TIP3    H2 4051   0.842   5.477   1.638
 1349TIP3   OH2 4052   5.974   0.009   0.404
 1349TIP3    H1 4053   5.915   0.048   0.340
 1349TIP3    H2 4054   5.950   0.050   0.487
 1350TIP3   OH2 4055   4.136   3.631   0.180
 1350TIP3    H1 4056   4.119   3.560   0.242
 1350TIP3    H2 4057   4.222   3.665   0.205
 1351TIP3   OH2 4058   0.384   2.068   0.226
 1351TIP3    H1 4059   0.448   2.004   0.257
 1351TIP3    H2 4060   0.373   2.047   0.134
 1352TIP3   OH2 4061   5.065   4.313   3.035
 1352TIP3    H1 4062   5.142   4.338   3.086
 1352TIP3    H2 4063   5.101   4.279   2.953
 1353TIP3   OH2 4064   2.424   5.788   3.111
 1353TIP3    H1 4065   2.483   5.719   3.082
 1353TIP3    H2 4066   2.336   5.753   3.097
 1354TIP3   OH2 4067   5.408   2.841   4.133
 1354TIP3    H1 4068   5.346   2.805   4.070
 1354TIP3    H2 4069   5.491   2.799   4.112
 1355TIP3   OH2 4070   3.087   5.771   4.718
 1355TIP3    H1 4071   3.073   5.679   4.743
 1355TIP3    H2 4072   3.156   5.801   4.776
 1356TIP3   OH2 4073   5.802   5.442   2.017
 1356TIP3    H1 4074   5.707   5.453   2.010
 1356TIP3    H2 4075   5.814   5.349   2.035
 1357TIP3   OH2 4076   4.932   1.921   0.433
 1357TIP3    H1 4077   4.965   2.002   0.473
 1357TIP3    H2 4078   4.988   1.852   0.467
 1358TIP3   OH2 4079   4.306   5.107   4.042
 1358TIP3    H1 4080   4.325   5.085   4.134
 1358TIP3    H2 4081   4.212   5.121   4.039
 1359TIP3   OH2 4082   1.219   3.625   1.421
 1359TIP3    H1 4083   1.264   3.553   1.466
 1359TIP3    H2 4084   1.170   3.582   1.351
 1360TIP3   OH2 4085   6.074   3.701   0.546
 1360TIP3    H1 4086   5.979   3.694   0.540
 1360TIP3    H2 4087   6.099   3.635   0.611
 1361TIP3   OH2 4088   6.041   2.470   2.043
 1361TIP3    H1 4089   6.101   2.398   2.059
 1361TIP3    H2 4090   6.013   2.499   2.130
 1362TIP3   OH2 4091   0.613   5.903   2.918
 1362TIP3    H1 4092   0.640   5.816   2.945
 1362TIP3    H2 4093   0.517   5.899   2.916
 1363TIP3   OH2 4094   3.326   0.650   0.829
 1363TIP3    H1 4095   3.294   0.739   0.848
 1363TIP3    H2 4096   3.246   0.598   0.817
 1364TIP3   OH2 4097   2.935   1.159   3.523
 1364TIP3    H1 4098   2.880   1.132   3.597
 1364TIP3    H2 4099   3.024   1.160   3.558
 1365TIP3   OH2 4100   2.172   5.317   4.338
 1365TIP3    H1 4101   2.113   5.278   4.403
 1365TIP3    H2 4102   2.176   5.253   4.268
 1366TIP3   OH2 4103   4.534   4.021   3.803
 1366TIP3    H1 4104   4.493   4.049   3.885
 1366TIP3    H2 4105   4.626   4.048   3.813
 1367TIP3   OH2 4106   3.484   2.970   1.506
 1367TIP3    H1 4107   3.575   3.002   1.505
 1367TIP3    H2 4108   3.433   3.043   1.471
 1368TIP3   OH2 4109   2.676   3.810   2.206
 1368TIP3    H1 4110   2.651   3.761   2.285
 1368TIP3    H2 4111   2.771   3.802   2.202
 1369TIP3   OH2 4112   2.012   2.132   3.368
 1369TIP3    H1 4113   1.937   2.134   3.428
 1369TIP3    H2 4114   2.024   2.039   3.348
 1370TIP3   OH2 4115   3.890   2.645   3.593
 1370TIP3    H1 4116   3.861   2.573   3.537
 1370TIP3    H2 4117   3.827   2.715   3.575
 1371TIP3   OH2 4118   5.877   3.060   2.576
 1371TIP3    H1 4119   5.961   3.065   2.532
 1371TIP3    H2 4120   5.898   3.046   2.668
 1372TIP3   OH2 4121   2.107   5.340   2.613
 1372TIP3    H1 4122   2.059   5.273   2.662
 1372TIP3    H2 4123   2.078   5.328   2.522
 1373TIP3   OH2 4124   6.035   0.935   3.023
 1373TIP3    H1 4125   6.031   1.001   2.954
 1373TIP3    H2 4126   6.105   0.876   2.998
 1374TIP3   OH2 4127   1.188   5.621   4.070
 1374TIP3    H1 4128   1.184   5.619   3.975
 1374TIP3    H2 4129   1.096   5.621   4.099
 1375TIP3   OH2 4130   1.270   2.415   1.093
 1375TIP3    H1 4131   1.187   2.454   1.067
 1375TIP3    H2 4132   1.246   2.345   1.153
 1376TIP3   OH2 4133   0.250   2.147   2.600
 1376TIP3    H1 4134   0.220   2.221   2.653
 1376TIP3    H2 4135   0.328   2.180   2.554
 1377TIP3   OH2 4136   0.404   0.126   0.671
 1377TIP3    H1 4137   0.376   0.034   0.672
 1377TIP3    H2 4138   0.333   0.172   0.716
 1378TIP3   OH2 4139   3.570   5.890   3.052
 1378TIP3    H1 4140   3.552   5.809   3.005
 1378TIP3    H2 4141   3.546   5.871   3.142
 1379TIP3   OH2 4142   1.393   3.476   1.572
 1379TIP3    H1 4143   1.452   3.549   1.593
 1379TIP3    H2 4144   1.416   3.408   1.635
 1380TIP3   OH2 4145   0.362   4.823   1.733
 1380TIP3    H1 4146   0.363   4.739   1.688
 1380TIP3    H2 4147   0.400   4.805   1.819
 1381TIP3   OH2 4148   1.309   2.647   4.339
 1381TIP3    H1 4149   1.334   2.579   4.276
 1381TIP3    H2 4150   1.216   2.631   4.355
 1382TIP3   OH2 4151   5.949   5.653   0.673
 1382TIP3    H1 4152   5.964   5.629   0.764
 1382TIP3    H2 4153   6.018   5.607   0.624
 1383TIP3   OH2 4154   3.544   5.747   4.323
 1383TIP3    H1 4155   3.564   5.791   4.406
 1383TIP3    H2 4156   3.448   5.743   4.320
 1384TIP3   OH2 4157   1.542   2.780   2.787
 1384TIP3    H1 4158   1.566   2.708   2.728
 1384TIP3    H2 4159   1.586   2.856   2.750
 1385TIP3   OH2 4160   6.042   2.815   1.387
 1385TIP3    H1 4161   6.075   2.755   1.454
 1385TIP3    H2 4162   6.049   2.902   1.427
 1386TIP3   OH2 4163   0.699   5.618   0.167
 1386TIP3    H1 4164   0.639   5.662   0.108
 1386TIP3    H2 4165   0.747   5.556   0.112
 1387TIP3   OH2 4166   2.690   1.518   1.301
 1387TIP3    H1 4167   2.596   1.535   1.306
 1387TIP3    H2 4168   2.718   1.559   1.219
 1388TIP3   OH2 4169   0.751   1.358   3.434
 1388TIP3    H1 4170   0.811   1.403   3.494
 1388TIP3    H2 4171   0.802   1.348   3.353
 1389TIP3   OH2 4172   5.599   0.841   3.794
 1389TIP3    H1 4173   5.677   0.869   3.842
 1389TIP3    H2 4174   5.556   0.923   3.768
 1390TIP3   OH2 4175   3.085   3.241   5.141
 1390TIP3    H1 4176   3.029   3.212   5.213
 1390TIP3    H2 4177   3.030   3.297   5.088
 1391TIP3   OH2 4178   2.160   5.176   4.079
 1391TIP3    H1 4179   2.241   5.223   4.099
 1391TIP3    H2 4180   2.156   5.176   3.984
 1392TIP3   OH2 4181   5.292   0.440   0.937
 1392TIP3    H1 4182   5.378   0.483   0.938
 1392TIP3    H2 4183   5.285   0.398   1.023
 1393TIP3   OH2 4184   0.929   5.640   4.189
 1393TIP3    H1 4185   0.860   5.649   4.123
 1393TIP3    H2 4186   0.892   5.581   4.254
 1394TIP3   OH2 4187   0.829   5.431   2.684
 1394TIP3    H1 4188   0.800   5.520   2.666
 1394TIP3    H2 4189   0.751   5.387   2.718
 1395TIP3   OH2 4190   3.086   5.397   2.733
 1395TIP3    H1 4191   3.155   5.459   2.709
 1395TIP3    H2 4192   3.019   5.451   2.774
 1396TIP3   OH2 4193   0.027   5.764   2.155
 1396TIP3    H1 4194  -0.033   5.793   2.086
 1396TIP3    H2 4195   0.022   5.833   2.221
 1397TIP3   OH2 4196   4.807   5.331   2.754
 1397TIP3    H1 4197   4.796   5.256   2.812
 1397TIP3    H2 4198   4.859   5.297   2.681
 1398TIP3   OH2 4199   0.075   2.180   1.504
 1398TIP3    H1 4200   0.098   2.127   1.580
 1398TIP3    H2 4201   0.156   2.225   1.480
 1399TIP3   OH2 4202   2.616   4.882   0.852
 1399TIP3    H1 4203   2.662   4.809   0.811
 1399TIP3    H2 4204   2.578   4.844   0.931
 1400TIP3   OH2 4205   0.095   1.547   3.820
 1400TIP3    H1 4206   0.156   1.475   3.836
 1400TIP3    H2 4207   0.142   1.605   3.759
 1401TIP3   OH2 4208   0.103   2.191   3.405
 1401TIP3    H1 4209   0.140   2.278   3.419
 1401TIP3    H2 4210   0.169   2.145   3.353
 1402TIP3   OH2 4211   4.431   5.954   2.831
 1402TIP3    H1 4212   4.379   5.944   2.752
 1402TIP3    H2 4213   4.447   6.048   2.839
 1403TIP3   OH2 4214   0.756   5.250   1.193
 1403TIP3    H1 4215   0.726   5.240   1.103
 1403TIP3    H2 4216   0.701   5.320   1.229
 1404TIP3   OH2 4217   4.952   2.160   0.250
 1404TIP3    H1 4218   4.951   2.227   0.319
 1404TIP3    H2 4219   4.875   2.106   0.269
 1405TIP3   OH2 4220   1.377   0.015   4.965
 1405TIP3    H1 4221   1.352   0.069   4.891
 1405TIP3    H2 4222   1.462  -0.021   4.941
 1406TIP3   OH2 4223   5.985   4.899   3.890
 1406TIP3    H1 4224   6.025   4.968   3.837
 1406TIP3    H2 4225   6.060   4.850   3.924
 1407TIP3   OH2 4226   3.774   0.872   1.813
 1407TIP3    H1 4227   3.779   0.937   1.883
 1407TIP3    H2 4228   3.756   0.923   1.734
 1408TIP3   OH2 4229   0.467   2.783   1.427
 1408TIP3    H1 4230   0.431   2.851   1.485
 1408TIP3    H2 4231   0.561   2.789   1.440
 1409TIP3   OH2 4232   0.153   4.525   4.752
 1409TIP3    H1 4233   0.186   4.439   4.723
 1409TIP3    H2 4234   0.157   4.521   4.847
 1410TIP3   OH2 4235   5.107   2.940   3.787
 1410TIP3    H1 4236   5.160   3.013   3.754
 1410TIP3    H2 4237   5.070   2.899   3.708
 1411TIP3   OH2 4238   0.774   3.736   3.800
 1411TIP3    H1 4239   0.799   3.668   3.862
 1411TIP3    H2 4240   0.797   3.701   3.714
 1412TIP3   OH2 4241   4.012   5.186   3.388
 1412TIP3    H1 4242   4.012   5.125   3.313
 1412TIP3    H2 4243   4.039   5.270   3.350
 1413TIP3   OH2 4244   4.991   2.790   0.377
 1413TIP3    H1 4245   5.066   2.833   0.336
 1413TIP3    H2 4246   5.011   2.791   0.470
 1414TIP3   OH2 4247   4.175   3.339   0.706
 1414TIP3    H1 4248   4.144   3.347   0.797
 1414TIP3    H2 4249   4.222   3.421   0.690
 1415TIP3   OH2 4250   2.418   5.421   2.921
 1415TIP3    H1 4251   2.426   5.356   2.991
 1415TIP3    H2 4252   2.333   5.404   2.881
 1416TIP3   OH2 4253   3.679   1.787   1.490
 1416TIP3    H1 4254   3.729   1.786   1.408
 1416TIP3    H2 4255   3.704   1.706   1.534
 1417TIP3   OH2 4256   1.813   2.250   4.127
 1417TIP3    H1 4257   1.840   2.164   4.158
 1417TIP3    H2 4258   1.835   2.250   4.034
 1418TIP3   OH2 4259   3.257   2.349   2.240
 1418TIP3    H1 4260   3.249   2.359   2.334
 1418TIP3    H2 4261   3.180   2.298   2.214
 1419TIP3   OH2 4262   0.802   5.233   2.431
 1419TIP3    H1 4263   0.709   5.212   2.428
 1419TIP3    H2 4264   0.810   5.301   2.498
 1420TIP3   OH2 4265   0.675   2.215   4.480
 1420TIP3    H1 4266   0.681   2.195   4.387
 1420TIP3    H2 4267   0.610   2.286   4.485
 1421TIP3   OH2 4268   3.948   3.889   2.677
 1421TIP3    H1 4269   3.863   3.931   2.682
 1421TIP3    H2 4270   3.952   3.853   2.588
 1422TIP3   OH2 4271   6.135   5.064   4.418
 1422TIP3    H1 4272   6.167   5.049   4.329
 1422TIP3    H2 4273   6.124   5.158   4.425
 1423TIP3   OH2 4274   2.482   5.085   2.682
 1423TIP3    H1 4275   2.485   5.018   2.613
 1423TIP3    H2 4276   2.541   5.052   2.750
 1424TIP3   OH2 4277   3.829   2.892   0.976
 1424TIP3    H1 4278   3.760   2.949   1.007
 1424TIP3    H2 4279   3.802   2.804   1.002
 1425TIP3   OH2 4280   2.381   1.707   1.646
 1425TIP3    H1 4281   2.365   1.802   1.643
 1425TIP3    H2 4282   2.461   1.694   1.595
 1426TIP3   OH2 4283   4.370   3.908   0.862
 1426TIP3    H1 4284   4.430   3.979   0.882
 1426TIP3    H2 4285   4.422   3.828   0.873
 1427TIP3   OH2 4286   3.639   5.310   2.547
 1427TIP3    H1 4287   3.654   5.247   2.476
 1427TIP3    H2 4288   3.590   5.381   2.506
 1428TIP3   OH2 4289   3.184   3.471   3.328
 1428TIP3    H1 4290   3.188   3.452   3.422
 1428TIP3    H2 4291   3.204   3.565   3.321
 1429TIP3   OH2 4292   6.186   4.822   0.421
 1429TIP3    H1 4293   6.271   4.855   0.451
 1429TIP3    H2 4294   6.209   4.743   0.371
 1430TIP3   OH2 4295   3.261   2.594   5.120
 1430TIP3    H1 4296   3.190   2.542   5.084
 1430TIP3    H2 4297   3.294   2.644   5.045
 1431TIP3   OH2 4298   1.855   4.589   1.897
 1431TIP3    H1 4299   1.902   4.597   1.814
 1431TIP3    H2 4300   1.905   4.525   1.947
 1432TIP3   OH2 4301   1.758   0.344   1.132
 1432TIP3    H1 4302   1.701   0.365   1.206
 1432TIP3    H2 4303   1.715   0.271   1.088
 1433TIP3   OH2 4304   2.612   2.811   0.444
 1433TIP3    H1 4305   2.520   2.820   0.470
 1433TIP3    H2 4306   2.616   2.849   0.356
 1434TIP3   OH2 4307   5.305   1.473   4.321
 1434TIP3    H1 4308   5.262   1.390   4.301
 1434TIP3    H2 4309   5.376   1.479   4.258
 1435TIP3   OH2 4310   0.537   3.841   1.029
 1435TIP3    H1 4311   0.459   3.829   0.975
 1435TIP3    H2 4312   0.529   3.931   1.062
 1436TIP3   OH2 4313   2.914   0.337   4.821
 1436TIP3    H1 4314   2.990   0.384   4.788
 1436TIP3    H2 4315   2.860   0.404   4.863
 1437TIP3   OH2 4316   6.363   2.800   4.694
 1437TIP3    H1 4317   6.322   2.837   4.616
 1437TIP3    H2 4318   6.414   2.873   4.731
 1438TIP3   OH2 4319   0.742   1.200   1.938
 1438TIP3    H1 4320   0.696   1.156   2.009
 1438TIP3    H2 4321   0.717   1.152   1.859
 1439TIP3   OH2 4322   6.082   1.787   1.986
 1439TIP3    H1 4323   6.150   1.720   1.979
 1439TIP3    H2 4324   6.119   1.863   1.941
 1440TIP3   OH2 4325   0.414   4.048   0.201
 1440TIP3    H1 4326   0.330   4.090   0.184
 1440TIP3    H2 4327   0.393   3.954   0.207
 1441TIP3   OH2 4328   6.172   1.748   4.530
 1441TIP3    H1 4329   6.182   1.720   4.439
 1441TIP3    H2 4330   6.201   1.673   4.581
 1442TIP3   OH2 4331   3.901   0.437   3.829
 1442TIP3    H1 4332   3.978   0.444   3.773
 1442TIP3    H2 4333   3.933   0.459   3.917
 1443TIP3   OH2 4334   0.619   0.328   0.076
 1443TIP3    H1 4335   0.539   0.347   0.125
 1443TIP3    H2 4336   0.638   0.236   0.096
 1444TIP3   OH2 4337   6.256   2.806   1.055
 1444TIP3    H1 4338   6.279   2.753   1.131
 1444TIP3    H2 4339   6.326   2.790   0.992
 1445TIP3   OH2 4340   5.789   2.885   3.090
 1445TIP3    H1 4341   5.721   2.840   3.140
 1445TIP3    H2 4342   5.868   2.834   3.106
 1446TIP3   OH2 4343   5.259   4.104   1.314
 1446TIP3    H1 4344   5.178   4.059   1.289
 1446TIP3    H2 4345   5.295   4.135   1.231
 1447TIP3   OH2 4346   3.941   1.327   2.443
 1447TIP3    H1 4347   3.958   1.354   2.533
 1447TIP3    H2 4348   3.967   1.403   2.390
 1448TIP3   OH2 4349   2.902   3.878   3.743
 1448TIP3    H1 4350   2.887   3.844   3.655
 1448TIP3    H2 4351   2.869   3.809   3.801
 1449TIP3   OH2 4352   4.758   1.314   2.808
 1449TIP3    H1 4353   4.751   1.378   2.879
 1449TIP3    H2 4354   4.739   1.364   2.729
 1450TIP3   OH2 4355   2.972   4.966   4.132
 1450TIP3    H1 4356   3.059   5.002   4.153
 1450TIP3    H2 4357   2.951   4.911   4.208
 1451TIP3   OH2 4358   3.489   4.161   1.624
 1451TIP3    H1 4359   3.580   4.156   1.653
 1451TIP3    H2 4360   3.450   4.228   1.680
 1452TIP3   OH2 4361   5.145   0.880   2.076
 1452TIP3    H1 4362   5.084   0.821   2.120
 1452TIP3    H2 4363   5.173   0.941   2.143
 1453TIP3   OH2 4364   4.438   2.450   5.010
 1453TIP3    H1 4365   4.427   2.444   4.915
 1453TIP3    H2 4366   4.446   2.359   5.039
 1454TIP3   OH2 4367   2.650   0.599   0.213
 1454TIP3    H1 4368   2.557   0.625   0.210
 1454TIP3    H2 4369   2.696   0.674   0.176
 1455TIP3   OH2 4370   5.565   3.031   1.335
 1455TIP3    H1 4371   5.552   3.095   1.264
 1455TIP3    H2 4372   5.523   2.951   1.303
 1456TIP3   OH2 4373   5.172   3.491   4.606
 1456TIP3    H1 4374   5.242   3.511   4.544
 1456TIP3    H2 4375   5.205   3.522   4.690
 1457TIP3   OH2 4376   4.409   2.191   1.949
 1457TIP3    H1 4377   4.496   2.163   1.921
 1457TIP3    H2 4378   4.425   2.260   2.013
 1458TIP3   OH2 4379   4.085   4.932   1.744
 1458TIP3    H1 4380   4.169   4.918   1.789
 1458TIP3    H2 4381   4.067   4.849   1.700
 1459TIP3   OH2 4382   1.855   5.659   3.452
 1459TIP3    H1 4383   1.893   5.731   3.401
 1459TIP3    H2 4384   1.921   5.640   3.519
 1460TIP3   OH2 4385   3.915   4.752   3.311
 1460TIP3    H1 4386   3.927   4.689   3.239
 1460TIP3    H2 4387   3.982   4.728   3.375
 1461TIP3   OH2 4388   0.228   1.169   0.743
 1461TIP3    H1 4389   0.219   1.133   0.655
 1461TIP3    H2 4390   0.191   1.258   0.737
 1462TIP3   OH2 4391   2.321   2.915   3.540
 1462TIP3    H1 4392   2.235   2.927   3.499
 1462TIP3    H2 4393   2.383   2.950   3.477
 1463TIP3   OH2 4394   5.667   4.532   0.508
 1463TIP3    H1 4395   5.587   4.528   0.454
 1463TIP3    H2 4396   5.736   4.497   0.451
 1464TIP3   OH2 4397   5.431   3.001   3.183
 1464TIP3    H1 4398   5.469   2.989   3.270
 1464TIP3    H2 4399   5.418   3.095   3.176
 1465TIP3   OH2 4400   3.198   3.941   3.540
 1465TIP3    H1 4401   3.160   3.952   3.627
 1465TIP3    H2 4402   3.162   3.858   3.508
 1466TIP3   OH2 4403   0.992   4.930   1.122
 1466TIP3    H1 4404   0.973   4.982   1.200
 1466TIP3    H2 4405   0.958   4.981   1.049
 1467TIP3   OH2 4406   1.637   2.429   3.458
 1467TIP3    H1 4407   1.600   2.462   3.540
 1467TIP3    H2 4408   1.675   2.507   3.417
 1468TIP3   OH2 4409   4.204   0.487   4.275
 1468TIP3    H1 4410   4.250   0.421   4.224
 1468TIP3    H2 4411   4.272   0.528   4.329
 1469TIP3   OH2 4412   4.095   5.601   0.641
 1469TIP3    H1 4413   4.034   5.552   0.695
 1469TIP3    H2 4414   4.173   5.546   0.635
 1470TIP3   OH2 4415   5.589   0.710   3.098
 1470TIP3    H1 4416   5.666   0.760   3.073
 1470TIP3    H2 4417   5.602   0.692   3.192
 1471TIP3   OH2 4418   5.857   1.006   4.175
 1471TIP3    H1 4419   5.842   1.086   4.226
 1471TIP3    H2 4420   5.803   0.940   4.219
 1472TIP3   OH2 4421   3.791   5.530   4.419
 1472TIP3    H1 4422   3.783   5.548   4.325
 1472TIP3    H2 4423   3.869   5.579   4.446
 1473TIP3   OH2 4424   0.138   3.224   1.659
 1473TIP3    H1 4425   0.161   3.276   1.736
 1473TIP3    H2 4426   0.084   3.283   1.605
 1474TIP3   OH2 4427   3.893   5.487   1.497
 1474TIP3    H1 4428   3.978   5.449   1.520
 1474TIP3    H2 4429   3.886   5.565   1.553
 1475TIP3   OH2 4430   5.145   0.185   3.581
 1475TIP3    H1 4431   5.209   0.202   3.511
 1475TIP3    H2 4432   5.071   0.241   3.558
 1476TIP3   OH2 4433   2.923   2.129   1.876
 1476TIP3    H1 4434   2.871   2.117   1.797
 1476TIP3    H2 4435   2.886   2.206   1.918
 1477TIP3   OH2 4436   0.725   4.162   2.135
 1477TIP3    H1 4437   0.637   4.146   2.167
 1477TIP3    H2 4438   0.761   4.229   2.195
 1478TIP3   OH2 4439   1.867   1.319   3.761
 1478TIP3    H1 4440   1.882   1.232   3.725
 1478TIP3    H2 4441   1.841   1.303   3.852
 1479TIP3   OH2 4442   3.983   5.733   4.824
 1479TIP3    H1 4443   3.932   5.698   4.897
 1479TIP3    H2 4444   4.069   5.693   4.832
 1480TIP3   OH2 4445   4.459   2.312   4.401
 1480TIP3    H1 4446   4.533   2.368   4.378
 1480TIP3    H2 4447   4.425   2.349   4.482
 1481TIP3   OH2 4448   1.356   4.869   0.915
 1481TIP3    H1 4449   1.355   4.958   0.950
 1481TIP3    H2 4450   1.443   4.835   0.939
 1482TIP3   OH2 4451   1.645   5.268   0.527
 1482TIP3    H1 4452   1.559   5.230   0.549
 1482TIP3    H2 4453   1.624   5.346   0.477
 1483TIP3   OH2 4454   2.594   1.360   1.044
 1483TIP3    H1 4455   2.535   1.315   1.105
 1483TIP3    H2 4456   2.672   1.304   1.040
 1484TIP3   OH2 4457   5.165   1.861   4.131
 1484TIP3    H1 4458   5.126   1.787   4.178
 1484TIP3    H2 4459   5.157   1.935   4.192
 1485TIP3   OH2 4460   5.136   3.966   1.711
 1485TIP3    H1 4461   5.082   4.038   1.678
 1485TIP3    H2 4462   5.194   3.944   1.639
 1486TIP3   OH2 4463   0.048   1.246   4.832
 1486TIP3    H1 4464   0.065   1.192   4.909
 1486TIP3    H2 4465  -0.046   1.235   4.816
 1487TIP3   OH2 4466   1.951   0.886   2.501
 1487TIP3    H1 4467   1.881   0.942   2.466
 1487TIP3    H2 4468   1.959   0.914   2.593
 1488TIP3   OH2 4469   0.073   5.947   1.910
 1488TIP3    H1 4470   0.046   6.032   1.876
 1488TIP3    H2 4471   0.047   5.885   1.842
 1489TIP3   OH2 4472   2.132   5.077   3.805
 1489TIP3    H1 4473   2.155   4.990   3.774
 1489TIP3    H2 4474   2.214   5.127   3.800
 1490TIP3   OH2 4475   3.008   4.931   0.873
 1490TIP3    H1 4476   2.960   4.962   0.797
 1490TIP3    H2 4477   3.099   4.927   0.844
 1491TIP3   OH2 4478   6.100   1.234   0.443
 1491TIP3    H1 4479   6.149   1.254   0.364
 1491TIP3    H2 4480   6.156   1.173   0.492
 1492TIP3   OH2 4481   2.636   1.254   3.139
 1492TIP3    H1 4482   2.716   1.286   3.098
 1492TIP3    H2 4483   2.656   1.249   3.232
 1493TIP3   OH2 4484   0.864   2.088   1.133
 1493TIP3    H1 4485   0.801   2.136   1.079
 1493TIP3    H2 4486   0.815   2.012   1.165
 1494TIP3   OH2 4487   4.161   1.756   4.804
 1494TIP3    H1 4488   4.172   1.750   4.899
 1494TIP3    H2 4489   4.244   1.722   4.769
 1495TIP3   OH2 4490   6.323   0.827   0.698
 1495TIP3    H1 4491   6.283   0.742   0.711
 1495TIP3    H2 4492   6.412   0.818   0.733
 1496TIP3   OH2 4493   1.055   5.274   0.561
 1496TIP3    H1 4494   1.027   5.349   0.509
 1496TIP3    H2 4495   1.015   5.289   0.647
 1497TIP3   OH2 4496   0.560   3.078   1.370
 1497TIP3    H1 4497   0.558   3.068   1.275
 1497TIP3    H2 4498   0.624   3.012   1.399
 1498TIP3   OH2 4499   2.263   4.390   0.261
 1498TIP3    H1 4500   2.316   4.454   0.308
 1498TIP3    H2 4501   2.273   4.413   0.169
 1499TIP3   OH2 4502   3.025   0.585   1.960
 1499TIP3    H1 4503   3.094   0.601   1.895
 1499TIP3    H2 4504   3.058   0.512   2.013
 1500TIP3   OH2 4505   2.461   5.451   0.381
 1500TIP3    H1 4506   2.473   5.446   0.476
 1500TIP3    H2 4507   2.530   5.510   0.351
 1501TIP3   OH2 4508   0.250   3.610   2.871
 1501TIP3    H1 4509   0.271   3.571   2.786
 1501TIP3    H2 4510   0.311   3.568   2.932
 1502TIP3   OH2 4511   5.460   4.943   3.353
 1502TIP3    H1 4512   5.486   4.911   3.440
 1502TIP3    H2 4513   5.373   4.906   3.339
 1503TIP3   OH2 4514   0.785   1.711   3.531
 1503TIP3    H1 4515   0.822   1.639   3.582
 1503TIP3    H2 4516   0.802   1.789   3.583
 1504TIP3   OH2 4517   5.133   3.283   0.987
 1504TIP3    H1 4518   5.221   3.322   0.987
 1504TIP3    H2 4519   5.082   3.338   1.045
 1505TIP3   OH2 4520   4.696   4.032   0.076
 1505TIP3    H1 4521   4.644   4.017   0.155
 1505TIP3    H2 4522   4.697   4.127   0.065
 1506TIP3   OH2 4523   1.605   3.857   3.678
 1506TIP3    H1 4524   1.537   3.899   3.626
 1506TIP3    H2 4525   1.638   3.926   3.735
 1507TIP3   OH2 4526   5.942   0.736   0.166
 1507TIP3    H1 4527   5.939   0.668   0.099
 1507TIP3    H2 4528   5.894   0.699   0.240
 1508TIP3   OH2 4529   1.847   2.812   1.432
 1508TIP3    H1 4530   1.939   2.787   1.433
 1508TIP3    H2 4531   1.841   2.879   1.363
 1509TIP3   OH2 4532   1.275   1.540   2.236
 1509TIP3    H1 4533   1.316   1.620   2.203
 1509TIP3    H2 4534   1.292   1.475   2.168
 1510TIP3   OH2 4535   5.252   5.364   1.806
 1510TIP3    H1 4536   5.281   5.406   1.725
 1510TIP3    H2 4537   5.168   5.406   1.826
 1511TIP3   OH2 4538   2.047   2.863   1.240
 1511TIP3    H1 4539   1.978   2.918   1.204
 1511TIP3    H2 4540   2.099   2.837   1.164
 1512TIP3   OH2 4541   3.611   1.905   0.419
 1512TIP3    H1 4542   3.533   1.922   0.367
 1512TIP3    H2 4543   3.674   1.867   0.358
 1513TIP3   OH2 4544   4.564   1.456   3.263
 1513TIP3    H1 4545   4.638   1.407   3.300
 1513TIP3    H2 4546   4.493   1.442   3.324
 1514TIP3   OH2 4547   6.091   3.974   2.634
 1514TIP3    H1 4548   6.104   4.068   2.643
 1514TIP3    H2 4549   6.005   3.965   2.591
 1515TIP3   OH2 4550   3.789   2.467   4.553
 1515TIP3    H1 4551   3.702   2.466   4.514
 1515TIP3    H2 4552   3.810   2.560   4.562
 1516TIP3   OH2 4553   5.530   3.322   0.507
 1516TIP3    H1 4554   5.452   3.377   0.502
 1516TIP3    H2 4555   5.505   3.248   0.561
 1517TIP3   OH2 4556   5.897   4.449   0.360
 1517TIP3    H1 4557   5.949   4.491   0.429
 1517TIP3    H2 4558   5.960   4.430   0.291
 1518TIP3   OH2 4559   0.861   2.160   2.064
 1518TIP3    H1 4560   0.878   2.158   1.970
 1518TIP3    H2 4561   0.871   2.069   2.092
 1519TIP3   OH2 4562   0.416   3.431   3.029
 1519TIP3    H1 4563   0.448   3.396   2.946
 1519TIP3    H2 4564   0.327   3.396   3.036
 1520TIP3   OH2 4565   2.660   5.711   5.051
 1520TIP3    H1 4566   2.748   5.745   5.070
 1520TIP3    H2 4567   2.602   5.785   5.065
 1521TIP3   OH2 4568   4.510   4.337   3.563
 1521TIP3    H1 4569   4.522   4.350   3.469
 1521TIP3    H2 4570   4.425   4.293   3.571
 1522TIP3   OH2 4571   5.494   4.788   1.071
 1522TIP3    H1 4572   5.454   4.876   1.068
 1522TIP3    H2 4573   5.579   4.799   1.029
 1523TIP3   OH2 4574   6.094   2.513   0.131
 1523TIP3    H1 4575   6.184   2.503   0.099
 1523TIP3    H2 4576   6.070   2.602   0.106
 1524TIP3   OH2 4577   4.790   4.115   3.795
 1524TIP3    H1 4578   4.852   4.050   3.761
 1524TIP3    H2 4579   4.798   4.189   3.734
 1525TIP3   OH2 4580   3.739   4.341   4.471
 1525TIP3    H1 4581   3.832   4.348   4.492
 1525TIP3    H2 4582   3.698   4.313   4.553
 1526TIP3   OH2 4583   1.345   2.561   3.432
 1526TIP3    H1 4584   1.401   2.595   3.502
 1526TIP3    H2 4585   1.323   2.472   3.459
 1527TIP3   OH2 4586   6.053   2.358   2.872
 1527TIP3    H1 4587   6.107   2.281   2.850
 1527TIP3    H2 4588   5.963   2.326   2.868
 1528TIP3   OH2 4589   2.802   3.971   0.703
 1528TIP3    H1 4590   2.773   3.985   0.793
 1528TIP3    H2 4591   2.736   4.013   0.649
 1529TIP3   OH2 4592   3.251   0.785   5.013
 1529TIP3    H1 4593   3.202   0.814   5.090
 1529TIP3    H2 4594   3.221   0.695   4.998
 1530TIP3   OH2 4595   2.068   5.755   3.889
 1530TIP3    H1 4596   2.156   5.774   3.857
 1530TIP3    H2 4597   2.022   5.838   3.884
 1531TIP3   OH2 4598   3.457   5.044   4.534
 1531TIP3    H1 4599   3.522   5.001   4.478
 1531TIP3    H2 4600   3.425   4.974   4.591
 1532TIP3   OH2 4601   2.874   4.891   1.132
 1532TIP3    H1 4602   2.938   4.907   1.062
 1532TIP3    H2 4603   2.832   4.809   1.108
 1533TIP3   OH2 4604   1.725   3.641   4.085
 1533TIP3    H1 4605   1.753   3.624   3.995
 1533TIP3    H2 4606   1.648   3.585   4.097
 1534TIP3   OH2 4607   3.329   5.909   0.107
 1534TIP3    H1 4608   3.265   5.844   0.077
 1534TIP3    H2 4609   3.320   5.982   0.045
 1535TIP3   OH2 4610   1.981   5.450   1.755
 1535TIP3    H1 4611   1.917   5.500   1.704
 1535TIP3    H2 4612   1.972   5.484   1.844
 1536TIP3   OH2 4613   1.822   3.948   1.227
 1536TIP3    H1 4614   1.750   3.944   1.163
 1536TIP3    H2 4615   1.871   4.026   1.204
 1537TIP3   OH2 4616   5.655   5.657   4.707
 1537TIP3    H1 4617   5.624   5.715   4.638
 1537TIP3    H2 4618   5.585   5.658   4.772
 1538TIP3   OH2 4619   2.493   5.627   4.338
 1538TIP3    H1 4620   2.465   5.542   4.372
 1538TIP3    H2 4621   2.581   5.610   4.303
 1539TIP3   OH2 4622   1.273   0.108   2.957
 1539TIP3    H1 4623   1.315   0.027   2.929
 1539TIP3    H2 4624   1.208   0.126   2.889
 1540TIP3   OH2 4625   5.377   3.379   2.996
 1540TIP3    H1 4626   5.310   3.365   2.929
 1540TIP3    H2 4627   5.455   3.403   2.946
 1541TIP3   OH2 4628   0.824   2.391   2.199
 1541TIP3    H1 4629   0.858   2.305   2.176
 1541TIP3    H2 4630   0.771   2.417   2.123
 1542TIP3   OH2 4631   1.687   2.252   2.137
 1542TIP3    H1 4632   1.762   2.311   2.144
 1542TIP3    H2 4633   1.651   2.248   2.226
 1543TIP3   OH2 4634   1.494   3.087   4.482
 1543TIP3    H1 4635   1.475   3.083   4.575
 1543TIP3    H2 4636   1.487   2.996   4.453
 1544TIP3   OH2 4637   4.671   0.183   3.189
 1544TIP3    H1 4638   4.717   0.102   3.169
 1544TIP3    H2 4639   4.698   0.205   3.278
 1545TIP3   OH2 4640   1.112   2.344   4.946
 1545TIP3    H1 4641   1.020   2.335   4.921
 1545TIP3    H2 4642   1.113   2.416   5.008
 1546TIP3   OH2 4643   0.958   1.374   4.448
 1546TIP3    H1 4644   0.920   1.347   4.365
 1546TIP3    H2 4645   0.903   1.333   4.514
 1547TIP3   OH2 4646   5.532   2.454   0.742
 1547TIP3    H1 4647   5.463   2.519   0.758
 1547TIP3    H2 4648   5.487   2.370   0.747
 1548TIP3   OH2 4649   2.104   3.353   3.864
 1548TIP3    H1 4650   2.127   3.283   3.925
 1548TIP3    H2 4651   2.062   3.420   3.918
 1549TIP3   OH2 4652   0.687   3.222   2.411
 1549TIP3    H1 4653   0.615   3.205   2.471
 1549TIP3    H2 4654   0.667   3.168   2.334
 1550TIP3   OH2 4655   3.187   4.101   5.043
 1550TIP3    H1 4656   3.180   4.182   5.094
 1550TIP3    H2 4657   3.207   4.034   5.108
 1551TIP3   OH2 4658   0.469   4.861   4.992
 1551TIP3    H1 4659   0.556   4.825   4.977
 1551TIP3    H2 4660   0.485   4.951   5.021
 1552TIP3   OH2 4661   4.830   3.643   3.894
 1552TIP3    H1 4662   4.799   3.555   3.875
 1552TIP3    H2 4663   4.755   3.700   3.873
 1553TIP3   OH2 4664   1.542   3.371   0.814
 1553TIP3    H1 4665   1.536   3.345   0.722
 1553TIP3    H2 4666   1.498   3.301   0.862
 1554TIP3   OH2 4667   4.459   1.792   1.977
 1554TIP3    H1 4668   4.496   1.798   2.065
 1554TIP3    H2 4669   4.436   1.700   1.967
 1555TIP3   OH2 4670   6.104   4.470   3.573
 1555TIP3    H1 4671   6.057   4.515   3.502
 1555TIP3    H2 4672   6.083   4.377   3.560
 1556TIP3   OH2 4673   3.237   0.905   0.927
 1556TIP3    H1 4674   3.291   0.961   0.982
 1556TIP3    H2 4675   3.210   0.834   0.984
 1557TIP3   OH2 4676   5.379   1.440   2.223
 1557TIP3    H1 4677   5.299   1.391   2.243
 1557TIP3    H2 4678   5.393   1.424   2.130
 1558TIP3   OH2 4679   1.166   0.447   1.639
 1558TIP3    H1 4680   1.251   0.492   1.638
 1558TIP3    H2 4681   1.109   0.504   1.689
 1559TIP3   OH2 4682   1.900   5.171   0.589
 1559TIP3    H1 4683   1.880   5.195   0.679
 1559TIP3    H2 4684   1.828   5.206   0.538
 1560TIP3   OH2 4685   4.006   0.254   1.675
 1560TIP3    H1 4686   3.935   0.268   1.613
 1560TIP3    H2 4687   4.085   0.250   1.621
 1561TIP3   OH2 4688   5.790   4.696   0.217
 1561TIP3    H1 4689   5.857   4.761   0.238
 1561TIP3    H2 4690   5.819   4.616   0.262
 1562TIP3   OH2 4691   1.753   3.844   0.312
 1562TIP3    H1 4692   1.701   3.910   0.266
 1562TIP3    H2 4693   1.773   3.884   0.396
 1563TIP3   OH2 4694   5.680   1.652   1.259
 1563TIP3    H1 4695   5.685   1.703   1.340
 1563TIP3    H2 4696   5.662   1.716   1.191
 1564TIP3   OH2 4697   1.865   1.986   0.945
 1564TIP3    H1 4698   1.839   2.076   0.967
 1564TIP3    H2 4699   1.851   1.979   0.851
 1565TIP3   OH2 4700   6.099   5.357   3.180
 1565TIP3    H1 4701   6.136   5.343   3.267
 1565TIP3    H2 4702   6.144   5.294   3.124
 1566TIP3   OH2 4703   1.182   1.334   2.047
 1566TIP3    H1 4704   1.265   1.322   2.001
 1566TIP3    H2 4705   1.129   1.258   2.021
 1567TIP3   OH2 4706   0.319   0.729   4.929
 1567TIP3    H1 4707   0.326   0.653   4.987
 1567TIP3    H2 4708   0.388   0.717   4.864
 1568TIP3   OH2 4709   2.369   0.534   0.883
 1568TIP3    H1 4710   2.283   0.567   0.857
 1568TIP3    H2 4711   2.350   0.468   0.950
 1569TIP3   OH2 4712   1.957   3.004   2.992
 1569TIP3    H1 4713   2.043   3.038   2.967
 1569TIP3    H2 4714   1.927   2.955   2.916
 1570TIP3   OH2 4715   2.946   1.061   5.145
 1570TIP3    H1 4716   3.034   1.056   5.181
 1570TIP3    H2 4717   2.951   1.128   5.078
 1571TIP3   OH2 4718   3.574   1.002   4.155
 1571TIP3    H1 4719   3.531   0.920   4.181
 1571TIP3    H2 4720   3.507   1.050   4.107
 1572TIP3   OH2 4721   4.204   5.798   2.540
 1572TIP3    H1 4722   4.176   5.764   2.455
 1572TIP3    H2 4723   4.140   5.764   2.602
 1573TIP3   OH2 4724   4.247   3.327   2.631
 1573TIP3    H1 4725   4.258   3.233   2.643
 1573TIP3    H2 4726   4.224   3.361   2.717
 1574TIP3   OH2 4727   0.697   3.130   4.398
 1574TIP3    H1 4728   0.662   3.041   4.408
 1574TIP3    H2 4729   0.791   3.120   4.415
 1575TIP3   OH2 4730   1.804   5.024   2.921
 1575TIP3    H1 4731   1.711   5.026   2.945
 1575TIP3    H2 4732   1.809   4.956   2.854
 1576TIP3   OH2 4733   0.489   1.962   4.625
 1576TIP3    H1 4734   0.447   2.042   4.656
 1576TIP3    H2 4735   0.511   1.914   4.705
 1577TIP3   OH2 4736   5.815   0.226   0.561
 1577TIP3    H1 4737   5.867   0.303   0.586
 1577TIP3    H2 4738   5.731   0.239   0.605
 1578TIP3   OH2 4739   3.051   2.148   2.169
 1578TIP3    H1 4740   3.114   2.082   2.140
 1578TIP3    H2 4741   3.020   2.188   2.089
 1579TIP3   OH2 4742   0.923   4.030   2.823
 1579TIP3    H1 4743   0.877   3.960   2.777
 1579TIP3    H2 4744   0.944   3.993   2.909
 1580TIP3   OH2 4745   3.564   0.658   1.385
 1580TIP3    H1 4746   3.520   0.698   1.460
 1580TIP3    H2 4747   3.581   0.568   1.413
 1581TIP3   OH2 4748   0.534   3.655   1.895
 1581TIP3    H1 4749   0.522   3.748   1.876
 1581TIP3    H2 4750   0.628   3.644   1.906
 1582TIP3   OH2 4751   2.637   0.139   4.332
 1582TIP3    H1 4752   2.686   0.215   4.364
 1582TIP3    H2 4753   2.691   0.064   4.357
 1583TIP3   OH2 4754   5.670   5.357   2.504
 1583TIP3    H1 4755   5.590   5.341   2.554
 1583TIP3    H2 4756   5.649   5.331   2.414
 1584TIP3   OH2 4757   4.358   2.167   5.104
 1584TIP3    H1 4758   4.287   2.214   5.061
 1584TIP3    H2 4759   4.315   2.100   5.157
 1585TIP3   OH2 4760   5.044   4.966   0.246
 1585TIP3    H1 4761   4.993   4.910   0.188
 1585TIP3    H2 4762   5.132   4.965   0.209
 1586TIP3   OH2 4763   0.394   1.425   4.983
 1586TIP3    H1 4764   0.478   1.461   4.954
 1586TIP3    H2 4765   0.342   1.416   4.903
 1587TIP3   OH2 4766   2.659   1.458   3.971
 1587TIP3    H1 4767   2.663   1.362   3.971
 1587TIP3    H2 4768   2.691   1.484   4.057
 1588TIP3   OH2 4769   1.323   1.063   3.639
 1588TIP3    H1 4770   1.328   0.993   3.573
 1588TIP3    H2 4771   1.378   1.132   3.604
 1589TIP3   OH2 4772   5.471   2.492   4.846
 1589TIP3    H1 4773   5.417   2.499   4.768
 1589TIP3    H2 4774   5.466   2.579   4.886
 1590TIP3   OH2 4775   5.849   0.118   0.192
 1590TIP3    H1 4776   5.841   0.030   0.154
 1590TIP3    H2 4777   5.833   0.177   0.119
 1591TIP3   OH2 4778   0.643   2.085   1.512
 1591TIP3    H1 4779   0.584   2.105   1.439
 1591TIP3    H2 4780   0.714   2.035   1.471
 1592TIP3   OH2 4781   4.333   4.502   2.422
 1592TIP3    H1 4782   4.282   4.459   2.352
 1592TIP3    H2 4783   4.344   4.592   2.391
 1593TIP3   OH2 4784   3.795   1.839   2.795
 1593TIP3    H1 4785   3.761   1.796   2.874
 1593TIP3    H2 4786   3.771   1.781   2.723
 1594TIP3   OH2 4787   6.053   4.276   2.819
 1594TIP3    H1 4788   5.986   4.339   2.790
 1594TIP3    H2 4789   6.129   4.294   2.763
 1595TIP3   OH2 4790   1.122   3.572   3.776
 1595TIP3    H1 4791   1.201   3.566   3.722
 1595TIP3    H2 4792   1.147   3.625   3.851
 1596TIP3   OH2 4793   0.130   2.791   5.030
 1596TIP3    H1 4794   0.166   2.771   5.116
 1596TIP3    H2 4795   0.096   2.880   5.038
 1597TIP3   OH2 4796   1.226   0.196   1.771
 1597TIP3    H1 4797   1.319   0.191   1.791
 1597TIP3    H2 4798   1.212   0.285   1.740
 1598TIP3   OH2 4799   4.544   3.171   0.457
 1598TIP3    H1 4800   4.566   3.174   0.551
 1598TIP3    H2 4801   4.582   3.088   0.427
 1599TIP3   OH2 4802   5.362   1.313   0.103
 1599TIP3    H1 4803   5.435   1.373   0.090
 1599TIP3    H2 4804   5.392   1.253   0.171
 1600TIP3   OH2 4805   2.427   0.885   2.885
 1600TIP3    H1 4806   2.398   0.966   2.842
 1600TIP3    H2 4807   2.491   0.914   2.950
 1601TIP3   OH2 4808   4.558   0.010   3.993
 1601TIP3    H1 4809   4.604   0.082   4.038
 1601TIP3    H2 4810   4.547  -0.057   4.060
 1602TIP3   OH2 4811   6.153   5.935   1.455
 1602TIP3    H1 4812   6.072   5.892   1.482
 1602TIP3    H2 4813   6.170   5.902   1.367
 1603TIP3   OH2 4814   0.250   3.621   4.127
 1603TIP3    H1 4815   0.173   3.678   4.122
 1603TIP3    H2 4816   0.292   3.631   4.041
 1604TIP3   OH2 4817   2.121   5.431   0.829
 1604TIP3    H1 4818   2.155   5.475   0.907
 1604TIP3    H2 4819   2.159   5.480   0.756
 1605TIP3   OH2 4820   0.576   2.378   4.798
 1605TIP3    H1 4821   0.531   2.417   4.873
 1605TIP3    H2 4822   0.515   2.313   4.765
 1606TIP3   OH2 4823   1.772   5.644   1.299
 1606TIP3    H1 4824   1.777   5.729   1.255
 1606TIP3    H2 4825   1.688   5.608   1.271
 1607TIP3   OH2 4826   2.471   3.524   4.877
 1607TIP3    H1 4827   2.534   3.595   4.886
 1607TIP3    H2 4828   2.500   3.457   4.939
 1608TIP3   OH2 4829   3.689   0.549   0.224
 1608TIP3    H1 4830   3.676   0.613   0.155
 1608TIP3    H2 4831   3.753   0.589   0.282
 1609TIP3   OH2 4832   4.084   1.323   5.045
 1609TIP3    H1 4833   4.028   1.341   4.969
 1609TIP3    H2 4834   4.037   1.363   5.119
 1610TIP3   OH2 4835   5.998   5.669   2.022
 1610TIP3    H1 4836   5.917   5.620   2.010
 1610TIP3    H2 4837   5.971   5.761   2.020
 1611TIP3   OH2 4838   5.928   5.937   1.962
 1611TIP3    H1 4839   5.887   5.989   2.031
 1611TIP3    H2 4840   5.857   5.884   1.926
 1612TIP3   OH2 4841   0.389   4.820   2.658
 1612TIP3    H1 4842   0.382   4.782   2.570
 1612TIP3    H2 4843   0.353   4.753   2.716
 1613TIP3   OH2 4844   0.650   4.233   3.589
 1613TIP3    H1 4845   0.584   4.211   3.656
 1613TIP3    H2 4846   0.606   4.296   3.532
 1614TIP3   OH2 4847   5.338   3.379   4.907
 1614TIP3    H1 4848   5.391   3.359   4.830
 1614TIP3    H2 4849   5.371   3.319   4.975
 1615TIP3   OH2 4850   6.214   5.497   0.242
 1615TIP3    H1 4851   6.146   5.548   0.197
 1615TIP3    H2 4852   6.295   5.541   0.218
 1616TIP3   OH2 4853   0.053   1.969   3.916
 1616TIP3    H1 4854   0.027   1.926   3.834
 1616TIP3    H2 4855   0.093   2.051   3.887
 1617TIP3   OH2 4856   1.464   0.742   4.949
 1617TIP3    H1 4857   1.439   0.801   4.878
 1617TIP3    H2 4858   1.430   0.656   4.922
 1618TIP3   OH2 4859   2.412   0.350   4.266
 1618TIP3    H1 4860   2.404   0.290   4.192
 1618TIP3    H2 4861   2.489   0.321   4.313
 1619TIP3   OH2 4862   3.667   4.092   2.047
 1619TIP3    H1 4863   3.626   4.116   2.130
 1619TIP3    H2 4864   3.657   3.997   2.042
 1620TIP3   OH2 4865   6.156   5.203   2.968
 1620TIP3    H1 4866   6.208   5.145   2.911
 1620TIP3    H2 4867   6.147   5.284   2.918
 1621TIP3   OH2 4868   2.835   0.605   1.631
 1621TIP3    H1 4869   2.817   0.601   1.537
 1621TIP3    H2 4870   2.908   0.545   1.644
 1622TIP3   OH2 4871   5.906   1.046   0.508
 1622TIP3    H1 4872   5.970   1.109   0.476
 1622TIP3    H2 4873   5.847   1.097   0.563
 1623TIP3   OH2 4874   4.545   3.457   4.430
 1623TIP3    H1 4875   4.612   3.397   4.463
 1623TIP3    H2 4876   4.471   3.445   4.490
 1624TIP3   OH2 4877   0.286   3.094   0.421
 1624TIP3    H1 4878   0.236   3.166   0.383
 1624TIP3    H2 4879   0.330   3.133   0.497
 1625TIP3   OH2 4880   1.082   2.320   0.804
 1625TIP3    H1 4881   1.053   2.383   0.870
 1625TIP3    H2 4882   1.152   2.271   0.847
 1626TIP3   OH2 4883   5.338   5.056   0.083
 1626TIP3    H1 4884   5.425   5.063   0.124
 1626TIP3    H2 4885   5.352   4.998   0.009
 1627TIP3   OH2 4886   1.065   0.619   3.401
 1627TIP3    H1 4887   0.984   0.587   3.359
 1627TIP3    H2 4888   1.089   0.549   3.461
 1628TIP3   OH2 4889   0.326   5.861   1.232
 1628TIP3    H1 4890   0.289   5.773   1.228
 1628TIP3    H2 4891   0.250   5.919   1.236
 1629TIP3   OH2 4892   5.505   5.956   2.584
 1629TIP3    H1 4893   5.559   5.881   2.609
 1629TIP3    H2 4894   5.491   5.946   2.490
 1630TIP3   OH2 4895   3.325   4.723   1.742
 1630TIP3    H1 4896   3.262   4.794   1.726
 1630TIP3    H2 4897   3.389   4.732   1.672
 1631TIP3   OH2 4898   3.900   5.661   2.880
 1631TIP3    H1 4899   3.856   5.591   2.929
 1631TIP3    H2 4900   3.901   5.735   2.940
 1632TIP3   OH2 4901   3.814   0.663   4.109
 1632TIP3    H1 4902   3.838   0.711   4.188
 1632TIP3    H2 4903   3.897   0.631   4.074
 1633TIP3   OH2 4904   5.617   5.311   3.100
 1633TIP3    H1 4905   5.616   5.216   3.098
 1633TIP3    H2 4906   5.685   5.333   3.163
 1634TIP3   OH2 4907   0.381   1.904   2.157
 1634TIP3    H1 4908   0.405   1.885   2.247
 1634TIP3    H2 4909   0.411   1.993   2.141
 1635TIP3   OH2 4910   0.419   0.063   3.453
 1635TIP3    H1 4911   0.400   0.147   3.410
 1635TIP3    H2 4912   0.488   0.024   3.398
 1636TIP3   OH2 4913   2.638   4.751   2.979
 1636TIP3    H1 4914   2.597   4.666   2.993
 1636TIP3    H2 4915   2.730   4.738   3.003
 1637TIP3   OH2 4916   3.237   0.996   3.670
 1637TIP3    H1 4917   3.316   0.943   3.676
 1637TIP3    H2 4918   3.178   0.959   3.735
 1638TIP3   OH2 4919   4.468   4.435   4.081
 1638TIP3    H1 4920   4.560   4.462   4.085
 1638TIP3    H2 4921   4.465   4.368   4.012
 1639TIP3   OH2 4922   4.879   2.732   3.135
 1639TIP3    H1 4923   4.971   2.720   3.158
 1639TIP3    H2 4924   4.858   2.657   3.080
 1640TIP3   OH2 4925   3.949   2.637   4.166
 1640TIP3    H1 4926   4.020   2.608   4.109
 1640TIP3    H2 4927   3.991   2.690   4.233
 1641TIP3   OH2 4928   1.445   4.202   1.186
 1641TIP3    H1 4929   1.399   4.280   1.215
 1641TIP3    H2 4930   1.459   4.215   1.092
 1642TIP3   OH2 4931   5.645   3.652   0.957
 1642TIP3    H1 4932   5.595   3.578   0.923
 1642TIP3    H2 4933   5.579   3.718   0.977
 1643TIP3   OH2 4934   1.020   1.507   5.125
 1643TIP3    H1 4935   0.988   1.594   5.149
 1643TIP3    H2 4936   1.054   1.470   5.207
 1644TIP3   OH2 4937   2.669   4.779   2.039
 1644TIP3    H1 4938   2.697   4.708   1.981
 1644TIP3    H2 4939   2.599   4.741   2.091
 1645TIP3   OH2 4940   5.996   4.667   3.397
 1645TIP3    H1 4941   5.933   4.738   3.405
 1645TIP3    H2 4942   5.975   4.626   3.313
 1646TIP3   OH2 4943   0.013   3.531   0.987
 1646TIP3    H1 4944   0.083   3.486   1.034
 1646TIP3    H2 4945  -0.067   3.508   1.035
 1647TIP3   OH2 4946   3.729   1.875   4.341
 1647TIP3    H1 4947   3.739   1.970   4.339
 1647TIP3    H2 4948   3.680   1.853   4.263
 1648TIP3   OH2 4949   4.323   5.441   0.646
 1648TIP3    H1 4950   4.266   5.387   0.591
 1648TIP3    H2 4951   4.384   5.379   0.685
 1649TIP3   OH2 4952   5.820   3.482   2.548
 1649TIP3    H1 4953   5.886   3.504   2.614
 1649TIP3    H2 4954   5.765   3.416   2.589
 1650TIP3   OH2 4955   3.448   2.420   0.870
 1650TIP3    H1 4956   3.450   2.377   0.784
 1650TIP3    H2 4957   3.539   2.419   0.899
 1651TIP3   OH2 4958   1.929   2.506   3.346
 1651TIP3    H1 4959   1.917   2.577   3.283
 1651TIP3    H2 4960   1.911   2.546   3.431
 1652TIP3   OH2 4961   5.163   0.065   1.059
 1652TIP3    H1 4962   5.069   0.067   1.080
 1652TIP3    H2 4963   5.199  -0.002   1.117
 1653TIP3   OH2 4964   1.786   4.659   0.209
 1653TIP3    H1 4965   1.729   4.583   0.210
 1653TIP3    H2 4966   1.732   4.730   0.174
 1654TIP3   OH2 4967   5.815   1.511   0.002
 1654TIP3    H1 4968   5.901   1.470   0.002
 1654TIP3    H2 4969   5.755   1.442   0.031
 1655TIP3   OH2 4970   3.712   0.970   3.494
 1655TIP3    H1 4971   3.789   0.936   3.539
 1655TIP3    H2 4972   3.656   0.893   3.481
 1656TIP3   OH2 4973   1.966   0.136   0.252
 1656TIP3    H1 4974   1.957   0.209   0.313
 1656TIP3    H2 4975   1.876   0.107   0.237
 1657TIP3   OH2 4976   4.406   0.677   2.163
 1657TIP3    H1 4977   4.375   0.589   2.139
 1657TIP3    H2 4978   4.377   0.689   2.253
 1658TIP3   OH2 4979   4.021   4.818   3.066
 1658TIP3    H1 4980   3.968   4.739   3.074
 1658TIP3    H2 4981   4.056   4.833   3.154
 1659TIP3   OH2 4982   3.048   5.126   1.926
 1659TIP3    H1 4983   3.071   5.171   1.845
 1659TIP3    H2 4984   3.129   5.082   1.952
 1660TIP3   OH2 4985   3.542   4.333   1.195
 1660TIP3    H1 4986   3.568   4.347   1.104
 1660TIP3    H2 4987   3.539   4.421   1.233
 1661TIP3   OH2 4988   1.154   2.471   2.112
 1661TIP3    H1 4989   1.244   2.474   2.079
 1661TIP3    H2 4990   1.101   2.498   2.037
 1662TIP3   OH2 4991   1.882   1.990   4.151
 1662TIP3    H1 4992   1.866   1.972   4.244
 1662TIP3    H2 4993   1.960   1.939   4.130
 1663TIP3   OH2 4994   5.033   1.688   4.979
 1663TIP3    H1 4995   5.011   1.613   5.034
 1663TIP3    H2 4996   5.091   1.742   5.033
 1664TIP3   OH2 4997   1.386   4.941   3.298
 1664TIP3    H1 4998   1.364   4.934   3.205
 1664TIP3    H2 4999   1.481   4.952   3.300
 1665TIP3   OH2 5000   2.264   4.103   0.277
 1665TIP3    H1 5001   2.246   4.195   0.260
 1665TIP3    H2 5002   2.266   4.096   0.372
 1666TIP3   OH2 5003   5.235   2.689   3.450
 1666TIP3    H1 5004   5.240   2.719   3.360
 1666TIP3    H2 5005   5.239   2.594   3.444
 1667TIP3   OH2 5006   4.846   3.721   3.003
 1667TIP3    H1 5007   4.807   3.693   3.086
 1667TIP3    H2 5008   4.857   3.815   3.012
 1668TIP3   OH2 5009   3.792   0.736   0.729
 1668TIP3    H1 5010   3.762   0.655   0.771
 1668TIP3    H2 5011   3.770   0.724   0.637
 1669TIP3   OH2 5012   0.091   5.836   5.141
 1669TIP3    H1 5013   0.110   5.883   5.223
 1669TIP3    H2 5014   0.051   5.902   5.084
 1670TIP3   OH2 5015   1.455   0.398   3.950
 1670TIP3    H1 5016   1.368   0.362   3.934
 1670TIP3    H2 5017   1.512   0.352   3.888
 1671TIP3   OH2 5018   1.815   5.025   3.662
 1671TIP3    H1 5019   1.805   4.936   3.696
 1671TIP3    H2 5020   1.847   5.013   3.572
 1672TIP3   OH2 5021   0.550   2.605   4.130
 1672TIP3    H1 5022   0.571   2.691   4.093
 1672TIP3    H2 5023   0.631   2.555   4.124
 1673TIP3   OH2 5024   1.503   3.356   4.384
 1673TIP3    H1 5025   1.509   3.264   4.409
 1673TIP3    H2 5026   1.501   3.403   4.467
 1674TIP3   OH2 5027   3.211   4.902   4.429
 1674TIP3    H1 5028   3.210   4.810   4.403
 1674TIP3    H2 5029   3.237   4.950   4.351
 1675TIP3   OH2 5030   5.929   0.522   4.850
 1675TIP3    H1 5031   5.893   0.435   4.833
 1675TIP3    H2 5032   5.970   0.547   4.767
 1676TIP3   OH2 5033   1.816   3.810   0.863
 1676TIP3    H1 5034   1.798   3.733   0.918
 1676TIP3    H2 5035   1.897   3.847   0.900
 1677TIP3   OH2 5036   4.220   3.430   2.886
 1677TIP3    H1 5037   4.266   3.415   2.968
 1677TIP3    H2 5038   4.136   3.468   2.912
 1678TIP3   OH2 5039   1.706   5.464   2.415
 1678TIP3    H1 5040   1.701   5.553   2.451
 1678TIP3    H2 5041   1.626   5.421   2.444
 1679TIP3   OH2 5042   4.268   0.851   1.009
 1679TIP3    H1 5043   4.358   0.876   0.990
 1679TIP3    H2 5044   4.219   0.933   1.007
 1680TIP3   OH2 5045   5.063   3.086   1.459
 1680TIP3    H1 5046   5.049   3.175   1.491
 1680TIP3    H2 5047   4.980   3.041   1.475
 1681TIP3   OH2 5048   2.637   5.437   1.526
 1681TIP3    H1 5049   2.616   5.531   1.523
 1681TIP3    H2 5050   2.674   5.424   1.614
 1682TIP3   OH2 5051   5.167   3.196   0.467
 1682TIP3    H1 5052   5.187   3.289   0.481
 1682TIP3    H2 5053   5.082   3.197   0.423
 1683TIP3   OH2 5054   1.406   3.033   2.006
 1683TIP3    H1 5055   1.500   3.045   1.995
 1683TIP3    H2 5056   1.384   2.958   1.951
 1684TIP3   OH2 5057   3.903   3.341   0.147
 1684TIP3    H1 5058   3.870   3.430   0.150
 1684TIP3    H2 5059   3.921   3.319   0.239
 1685TIP3   OH2 5060   5.851   5.369   3.774
 1685TIP3    H1 5061   5.918   5.388   3.840
 1685TIP3    H2 5062   5.840   5.274   3.780
 1686TIP3   OH2 5063   3.528   3.696   0.233
 1686TIP3    H1 5064   3.537   3.780   0.279
 1686TIP3    H2 5065   3.575   3.708   0.151
 1687TIP3   OH2 5066   1.392   1.278   4.994
 1687TIP3    H1 5067   1.403   1.369   4.968
 1687TIP3    H2 5068   1.301   1.257   4.972
 1688TIP3   OH2 5069   5.630   4.635   2.682
 1688TIP3    H1 5070   5.726   4.633   2.677
 1688TIP3    H2 5071   5.605   4.713   2.632
 1689TIP3   OH2 5072   6.161   0.632   2.990
 1689TIP3    H1 5073   6.079   0.591   2.961
 1689TIP3    H2 5074   6.221   0.619   2.917
 1690TIP3   OH2 5075   6.318   1.966   4.252
 1690TIP3    H1 5076   6.223   1.977   4.264
 1690TIP3    H2 5077   6.336   2.003   4.166
 1691TIP3   OH2 5078   3.004   2.673   4.664
 1691TIP3    H1 5079   3.054   2.640   4.589
 1691TIP3    H2 5080   2.943   2.602   4.685
 1692TIP3   OH2 5081   2.691   5.627   1.226
 1692TIP3    H1 5082   2.781   5.654   1.247
 1692TIP3    H2 5083   2.645   5.632   1.309
 1693TIP3   OH2 5084   1.804   3.496   1.625
 1693TIP3    H1 5085   1.762   3.458   1.701
 1693TIP3    H2 5086   1.844   3.578   1.657
 1694TIP3   OH2 5087   3.902   3.113   2.732
 1694TIP3    H1 5088   3.909   3.082   2.641
 1694TIP3    H2 5089   3.826   3.171   2.732
 1695TIP3   OH2 5090   4.443   0.260   2.999
 1695TIP3    H1 5091   4.495   0.254   3.079
 1695TIP3    H2 5092   4.423   0.354   2.990
 1696TIP3   OH2 5093   4.204   3.050   2.157
 1696TIP3    H1 5094   4.196   2.981   2.223
 1696TIP3    H2 5095   4.248   3.009   2.084
 1697TIP3   OH2 5096   1.508   2.131   1.967
 1697TIP3    H1 5097   1.463   2.091   2.042
 1697TIP3    H2 5098   1.581   2.179   2.006
 1698TIP3   OH2 5099   4.219   4.440   4.410
 1698TIP3    H1 5100   4.142   4.458   4.356
 1698TIP3    H2 5101   4.279   4.513   4.391
 1699TIP3   OH2 5102   0.038   4.452   2.371
 1699TIP3    H1 5103  -0.026   4.521   2.393
 1699TIP3    H2 5104   0.119   4.500   2.353
 1700TIP3   OH2 5105   3.298   0.607   3.162
 1700TIP3    H1 5106   3.373   0.666   3.159
 1700TIP3    H2 5107   3.237   0.648   3.224
 1701TIP3   OH2 5108   1.515   1.139   0.195
 1701TIP3    H1 5109   1.521   1.061   0.140
 1701TIP3    H2 5110   1.538   1.108   0.283
 1702TIP3   OH2 5111   3.344   5.159   3.708
 1702TIP3    H1 5112   3.270   5.220   3.707
 1702TIP3    H2 5113   3.385   5.174   3.793
 1703TIP3   OH2 5114   1.585   5.498   0.408
 1703TIP3    H1 5115   1.545   5.585   0.402
 1703TIP3    H2 5116   1.614   5.480   0.318
 1704TIP3   OH2 5117   1.964   5.538   0.584
 1704TIP3    H1 5118   1.974   5.481   0.507
 1704TIP3    H2 5119   1.900   5.493   0.638
 1705TIP3   OH2 5120   1.203   2.663   1.422
 1705TIP3    H1 5121   1.179   2.624   1.506
 1705TIP3    H2 5122   1.291   2.630   1.404
 1706TIP3   OH2 5123   4.936   5.810   3.519
 1706TIP3    H1 5124   5.019   5.846   3.487
 1706TIP3    H2 5125   4.943   5.816   3.614
 1707TIP3   OH2 5126   6.373   3.162   0.089
 1707TIP3    H1 5127   6.375   3.123   0.176
 1707TIP3    H2 5128   6.279   3.172   0.070
 1708TIP3   OH2 5129   6.296   0.412   0.600
 1708TIP3    H1 5130   6.351   0.448   0.530
 1708TIP3    H2 5131   6.301   0.317   0.588
 1709TIP3   OH2 5132   1.010   3.104   0.459
 1709TIP3    H1 5133   0.947   3.089   0.529
 1709TIP3    H2 5134   0.957   3.113   0.380
 1710TIP3   OH2 5135   5.119   5.989   2.984
 1710TIP3    H1 5136   5.191   5.949   2.936
 1710TIP3    H2 5137   5.100   6.070   2.936
 1711TIP3   OH2 5138   0.606   5.972   3.257
 1711TIP3    H1 5139   0.697   5.960   3.229
 1711TIP3    H2 5140   0.560   5.999   3.178
 1712TIP3   OH2 5141   4.456   5.910   0.681
 1712TIP3    H1 5142   4.504   5.828   0.666
 1712TIP3    H2 5143   4.416   5.929   0.596
 1713TIP3   OH2 5144   4.427   3.779   1.952
 1713TIP3    H1 5145   4.356   3.721   1.981
 1713TIP3    H2 5146   4.478   3.725   1.892
 1714TIP3   OH2 5147   6.063   1.902   3.615
 1714TIP3    H1 5148   6.101   1.887   3.702
 1714TIP3    H2 5149   5.968   1.899   3.630
 1715TIP3   OH2 5150   0.434   5.518   2.501
 1715TIP3    H1 5151   0.424   5.515   2.406
 1715TIP3    H2 5152   0.349   5.548   2.534
 1716TIP3   OH2 5153   5.172   0.171   4.413
 1716TIP3    H1 5154   5.176   0.081   4.443
 1716TIP3    H2 5155   5.237   0.176   4.343
 1717TIP3   OH2 5156   1.111   4.749   0.921
 1717TIP3    H1 5157   1.081   4.765   1.010
 1717TIP3    H2 5158   1.188   4.805   0.912
 1718TIP3   OH2 5159   2.281   1.040   0.664
 1718TIP3    H1 5160   2.218   0.998   0.605
 1718TIP3    H2 5161   2.289   1.129   0.631
 1719TIP3   OH2 5162   4.553   1.814   1.242
 1719TIP3    H1 5163   4.620   1.747   1.228
 1719TIP3    H2 5164   4.571   1.880   1.174
 1720TIP3   OH2 5165   3.081   4.258   4.257
 1720TIP3    H1 5166   3.105   4.207   4.180
 1720TIP3    H2 5167   3.165   4.278   4.299
 1721TIP3   OH2 5168   6.117   3.520   1.618
 1721TIP3    H1 5169   6.073   3.553   1.540
 1721TIP3    H2 5170   6.053   3.459   1.657
 1722TIP3   OH2 5171   3.864   2.338   0.057
 1722TIP3    H1 5172   3.835   2.364  -0.030
 1722TIP3    H2 5173   3.823   2.402   0.116
 1723TIP3   OH2 5174   1.257   2.288   0.554
 1723TIP3    H1 5175   1.338   2.309   0.601
 1723TIP3    H2 5176   1.190   2.341   0.597
 1724TIP3   OH2 5177   3.491   1.201   1.997
 1724TIP3    H1 5178   3.498   1.171   1.906
 1724TIP3    H2 5179   3.397   1.211   2.011
 1725TIP3   OH2 5180   2.157   2.514   4.482
 1725TIP3    H1 5181   2.144   2.572   4.408
 1725TIP3    H2 5182   2.070   2.499   4.518
 1726TIP3   OH2 5183   3.443   0.241   0.845
 1726TIP3    H1 5184   3.534   0.270   0.855
 1726TIP3    H2 5185   3.436   0.217   0.752
 1727TIP3   OH2 5186   0.889   0.310   0.384
 1727TIP3    H1 5187   0.981   0.282   0.387
 1727TIP3    H2 5188   0.883   0.363   0.304
 1728TIP3   OH2 5189   0.416   5.651   4.024
 1728TIP3    H1 5190   0.497   5.606   4.000
 1728TIP3    H2 5191   0.445   5.729   4.071
 1729TIP3   OH2 5192   3.945   4.036   1.939
 1729TIP3    H1 5193   3.875   4.073   1.992
 1729TIP3    H2 5194   3.937   3.941   1.950
 1730TIP3   OH2 5195   1.361   3.452   1.983
 1730TIP3    H1 5196   1.440   3.490   2.022
 1730TIP3    H2 5197   1.393   3.395   1.913
 1731TIP3   OH2 5198   1.827   0.851   3.880
 1731TIP3    H1 5199   1.788   0.910   3.944
 1731TIP3    H2 5200   1.782   0.768   3.893
 1732TIP3   OH2 5201   0.520   4.225   1.338
 1732TIP3    H1 5202   0.438   4.270   1.358
 1732TIP3    H2 5203   0.533   4.163   1.410
 1733TIP3   OH2 5204   2.012   5.479   1.345
 1733TIP3    H1 5205   1.985   5.559   1.301
 1733TIP3    H2 5206   2.064   5.509   1.420
 1734TIP3   OH2 5207   1.150   2.709   3.270
 1734TIP3    H1 5208   1.221   2.646   3.284
 1734TIP3    H2 5209   1.142   2.755   3.354
 1735TIP3   OH2 5210   0.217   4.929   3.301
 1735TIP3    H1 5211   0.164   4.941   3.222
 1735TIP3    H2 5212   0.172   4.980   3.368
 1736TIP3   OH2 5213   4.605   0.107   0.324
 1736TIP3    H1 5214   4.685   0.157   0.336
 1736TIP3    H2 5215   4.565   0.103   0.411
 1737TIP3   OH2 5216   1.609   0.554   3.611
 1737TIP3    H1 5217   1.670   0.596   3.672
 1737TIP3    H2 5218   1.620   0.460   3.626
 1738TIP3   OH2 5219   3.486   4.252   2.247
 1738TIP3    H1 5220   3.423   4.180   2.250
 1738TIP3    H2 5221   3.451   4.317   2.306
 1739TIP3   OH2 5222   0.586   4.761   1.137
 1739TIP3    H1 5223   0.535   4.680   1.127
 1739TIP3    H2 5224   0.563   4.793   1.225
 1740TIP3   OH2 5225   4.673   2.842   0.633
 1740TIP3    H1 5226   4.754   2.887   0.608
 1740TIP3    H2 5227   4.603   2.904   0.609
 1741TIP3   OH2 5228   3.560   5.591   2.576
 1741TIP3    H1 5229   3.655   5.603   2.571
 1741TIP3    H2 5230   3.526   5.634   2.498
 1742TIP3   OH2 5231   2.949   0.891   3.150
 1742TIP3    H1 5232   2.953   0.987   3.157
 1742TIP3    H2 5233   2.898   0.863   3.226
 1743TIP3   OH2 5234   1.598   0.212   3.161
 1743TIP3    H1 5235   1.548   0.256   3.230
 1743TIP3    H2 5236   1.542   0.215   3.084
 1744TIP3   OH2 5237   3.929   5.360   2.593
 1744TIP3    H1 5238   3.951   5.322   2.678
 1744TIP3    H2 5239   3.836   5.343   2.582
 1745TIP3   OH2 5240   1.636   5.199   0.112
 1745TIP3    H1 5241   1.714   5.211   0.057
 1745TIP3    H2 5242   1.669   5.153   0.190
 1746TIP3   OH2 5243   4.322   4.933   3.805
 1746TIP3    H1 5244   4.327   5.018   3.847
 1746TIP3    H2 5245   4.343   4.871   3.875
 1747TIP3   OH2 5246   1.337   1.963   4.222
 1747TIP3    H1 5247   1.414   1.983   4.169
 1747TIP3    H2 5248   1.371   1.913   4.296
 1748TIP3   OH2 5249   1.213   0.633   4.057
 1748TIP3    H1 5250   1.236   0.558   4.113
 1748TIP3    H2 5251   1.159   0.596   3.988
 1749TIP3   OH2 5252   2.462   5.244   5.168
 1749TIP3    H1 5253   2.493   5.158   5.139
 1749TIP3    H2 5254   2.406   5.274   5.096
 1750TIP3   OH2 5255   1.651   3.638   1.838
 1750TIP3    H1 5256   1.590   3.631   1.912
 1750TIP3    H2 5257   1.710   3.710   1.862
 1751TIP3   OH2 5258   6.174   1.581   2.251
 1751TIP3    H1 5259   6.117   1.510   2.222
 1751TIP3    H2 5260   6.223   1.543   2.325
 1752TIP3   OH2 5261   1.432   0.368   3.344
 1752TIP3    H1 5262   1.374   0.363   3.268
 1752TIP3    H2 5263   1.383   0.419   3.408
 1753TIP3   OH2 5264   2.385   3.995   0.040
 1753TIP3    H1 5265   2.329   4.012   0.116
 1753TIP3    H2 5266   2.449   3.931   0.072
 1754TIP3   OH2 5267   2.368   5.656   4.062
 1754TIP3    H1 5268   2.339   5.704   3.984
 1754TIP3    H2 5269   2.463   5.669   4.063
 1755TIP3   OH2 5270   0.781   3.757   4.155
 1755TIP3    H1 5271   0.868   3.796   4.158
 1755TIP3    H2 5272   0.722   3.829   4.179
 1756TIP3   OH2 5273   3.763   0.415   2.404
 1756TIP3    H1 5274   3.744   0.365   2.325
 1756TIP3    H2 5275   3.681   0.457   2.427
 1757TIP3   OH2 5276   5.236   2.738   1.898
 1757TIP3    H1 5277   5.202   2.670   1.840
 1757TIP3    H2 5278   5.320   2.763   1.859
 1758TIP3   OH2 5279   0.462   5.197   2.596
 1758TIP3    H1 5280   0.466   5.207   2.501
 1758TIP3    H2 5281   0.507   5.114   2.614
 1759TIP3   OH2 5282   5.601   4.652   4.241
 1759TIP3    H1 5283   5.581   4.714   4.171
 1759TIP3    H2 5284   5.640   4.577   4.196
 1760TIP3   OH2 5285   0.044   5.288   3.590
 1760TIP3    H1 5286   0.101   5.263   3.663
 1760TIP3    H2 5287   0.073   5.232   3.518
 1761TIP3   OH2 5288   0.877   3.767   4.464
 1761TIP3    H1 5289   0.931   3.688   4.464
 1761TIP3    H2 5290   0.834   3.767   4.549
 1762TIP3   OH2 5291   0.778   4.607   2.429
 1762TIP3    H1 5292   0.785   4.618   2.524
 1762TIP3    H2 5293   0.858   4.647   2.395
 1763TIP3   OH2 5294   0.407   5.424   4.344
 1763TIP3    H1 5295   0.334   5.485   4.353
 1763TIP3    H2 5296   0.417   5.386   4.431
 1764TIP3   OH2 5297   4.614   2.997   1.476
 1764TIP3    H1 5298   4.552   3.004   1.549
 1764TIP3    H2 5299   4.558   2.982   1.400
 1765TIP3   OH2 5300   4.497   4.941   1.487
 1765TIP3    H1 5301   4.408   4.919   1.512
 1765TIP3    H2 5302   4.517   4.883   1.413
 1766TIP3   OH2 5303   2.177   3.992   1.895
 1766TIP3    H1 5304   2.231   4.054   1.847
 1766TIP3    H2 5305   2.238   3.924   1.923
 1767TIP3   OH2 5306   3.130   2.865   3.335
 1767TIP3    H1 5307   3.146   2.854   3.241
 1767TIP3    H2 5308   3.092   2.953   3.342
 1768TIP3   OH2 5309   2.422   1.993   0.492
 1768TIP3    H1 5310   2.483   1.947   0.550
 1768TIP3    H2 5311   2.409   1.933   0.418
 1769TIP3   OH2 5312   2.690   2.877   3.558
 1769TIP3    H1 5313   2.665   2.914   3.474
 1769TIP3    H2 5314   2.752   2.808   3.537
 1770TIP3   OH2 5315   3.515   2.261   2.949
 1770TIP3    H1 5316   3.474   2.202   3.013
 1770TIP3    H2 5317   3.528   2.207   2.871
 1771TIP3   OH2 5318   0.068   5.628   0.138
 1771TIP3    H1 5319   0.157   5.609   0.108
 1771TIP3    H2 5320   0.056   5.721   0.117
 1772TIP3   OH2 5321   3.937   5.921   1.857
 1772TIP3    H1 5322   3.857   5.966   1.832
 1772TIP3    H2 5323   3.911   5.831   1.875
 1773TIP3   OH2 5324   6.217   4.296   2.594
 1773TIP3    H1 5325   6.173   4.380   2.605
 1773TIP3    H2 5326   6.221   4.283   2.499
 1774TIP3   OH2 5327   5.774   2.956   4.590
 1774TIP3    H1 5328   5.731   2.912   4.663
 1774TIP3    H2 5329   5.753   3.049   4.602
 1775TIP3   OH2 5330   6.063   2.764   3.779
 1775TIP3    H1 5331   6.114   2.827   3.728
 1775TIP3    H2 5332   6.092   2.678   3.749
 1776TIP3   OH2 5333   1.592   1.579   5.012
 1776TIP3    H1 5334   1.668   1.521   5.017
 1776TIP3    H2 5335   1.594   1.630   5.093
 1777TIP3   OH2 5336   3.801   0.102   0.576
 1777TIP3    H1 5337   3.738   0.174   0.581
 1777TIP3    H2 5338   3.747   0.024   0.563
 1778TIP3   OH2 5339   5.914   3.268   1.683
 1778TIP3    H1 5340   5.873   3.354   1.688
 1778TIP3    H2 5341   5.942   3.260   1.591
 1779TIP3   OH2 5342   1.158   3.143   1.483
 1779TIP3    H1 5343   1.146   3.054   1.449
 1779TIP3    H2 5344   1.180   3.195   1.405
 1780TIP3   OH2 5345   4.085   0.066   0.554
 1780TIP3    H1 5346   4.129  -0.017   0.537
 1780TIP3    H2 5347   3.995   0.052   0.525
 1781TIP3   OH2 5348   4.462   3.905   1.460
 1781TIP3    H1 5349   4.431   3.860   1.381
 1781TIP3    H2 5350   4.493   3.990   1.429
 1782TIP3   OH2 5351   2.251   0.255   0.726
 1782TIP3    H1 5352   2.294   0.272   0.810
 1782TIP3    H2 5353   2.183   0.191   0.747
 1783TIP3   OH2 5354   4.968   0.976   0.820
 1783TIP3    H1 5355   4.965   1.033   0.897
 1783TIP3    H2 5356   5.001   1.032   0.750
 1784TIP3   OH2 5357   1.018   2.757   2.088
 1784TIP3    H1 5358   0.998   2.848   2.063
 1784TIP3    H2 5359   0.974   2.704   2.022
 1785TIP3   OH2 5360   4.148   1.357   0.638
 1785TIP3    H1 5361   4.192   1.275   0.660
 1785TIP3    H2 5362   4.057   1.331   0.621
 1786TIP3   OH2 5363   2.103   1.297   5.163
 1786TIP3    H1 5364   2.093   1.256   5.077
 1786TIP3    H2 5365   2.031   1.360   5.168
 1787TIP3   OH2 5366   5.400   0.177   4.587
 1787TIP3    H1 5367   5.373   0.088   4.567
 1787TIP3    H2 5368   5.405   0.221   4.502
 1788TIP3   OH2 5369   3.890   3.569   2.962
 1788TIP3    H1 5370   3.852   3.649   2.925
 1788TIP3    H2 5371   3.922   3.594   3.048
 1789TIP3   OH2 5372   3.224   5.211   1.688
 1789TIP3    H1 5373   3.220   5.301   1.721
 1789TIP3    H2 5374   3.314   5.200   1.657
 1790TIP3   OH2 5375   0.458   4.129   2.197
 1790TIP3    H1 5376   0.421   4.135   2.109
 1790TIP3    H2 5377   0.415   4.200   2.246
 1791TIP3   OH2 5378   0.605   2.454   3.477
 1791TIP3    H1 5379   0.700   2.447   3.464
 1791TIP3    H2 5380   0.596   2.485   3.567
 1792TIP3   OH2 5381   4.995   5.150   1.995
 1792TIP3    H1 5382   5.038   5.234   2.015
 1792TIP3    H2 5383   5.067   5.090   1.975
 1793TIP3   OH2 5384   2.225   4.763   4.628
 1793TIP3    H1 5385   2.302   4.715   4.597
 1793TIP3    H2 5386   2.155   4.737   4.568
 1794TIP3   OH2 5387   4.015   4.168   3.706
 1794TIP3    H1 5388   4.053   4.177   3.794
 1794TIP3    H2 5389   3.936   4.115   3.720
 1795TIP3   OH2 5390   4.218   0.647   2.746
 1795TIP3    H1 5391   4.246   0.557   2.727
 1795TIP3    H2 5392   4.287   0.682   2.802
 1796TIP3   OH2 5393   3.316   4.941   2.430
 1796TIP3    H1 5394   3.241   4.950   2.488
 1796TIP3    H2 5395   3.331   5.030   2.396
 1797TIP3   OH2 5396   1.426   1.429   1.950
 1797TIP3    H1 5397   1.415   1.374   1.873
 1797TIP3    H2 5398   1.521   1.436   1.962
 1798TIP3   OH2 5399   4.025   5.701   4.199
 1798TIP3    H1 5400   3.934   5.675   4.213
 1798TIP3    H2 5401   4.074   5.619   4.206
 1799TIP3   OH2 5402   3.520   0.880   4.631
 1799TIP3    H1 5403   3.578   0.811   4.600
 1799TIP3    H2 5404   3.436   0.836   4.645
 1800TIP3   OH2 5405   2.478   4.388   2.609
 1800TIP3    H1 5406   2.498   4.451   2.679
 1800TIP3    H2 5407   2.552   4.394   2.550
 1801TIP3   OH2 5408   3.808   4.010   3.805
 1801TIP3    H1 5409   3.721   3.989   3.772
 1801TIP3    H2 5410   3.839   3.929   3.846
 1802TIP3   OH2 5411   0.474   0.530   2.200
 1802TIP3    H1 5412   0.511   0.613   2.228
 1802TIP3    H2 5413   0.436   0.548   2.114
 1803TIP3   OH2 5414   6.265   0.388   3.226
 1803TIP3    H1 5415   6.347   0.431   3.200
 1803TIP3    H2 5416   6.274   0.298   3.193
 1804TIP3   OH2 5417   4.890   0.944   3.322
 1804TIP3    H1 5418   4.958   0.938   3.254
 1804TIP3    H2 5419   4.822   0.884   3.292
 1805TIP3   OH2 5420   5.677   4.341   4.153
 1805TIP3    H1 5421   5.771   4.326   4.147
 1805TIP3    H2 5422   5.657   4.336   4.246
 1806TIP3   OH2 5423   0.643   2.165   3.671
 1806TIP3    H1 5424   0.577   2.222   3.711
 1806TIP3    H2 5425   0.718   2.170   3.730
 1807TIP3   OH2 5426   4.832   2.409   5.037
 1807TIP3    H1 5427   4.818   2.496   5.073
 1807TIP3    H2 5428   4.747   2.365   5.047
 1808TIP3   OH2 5429   2.571   0.567   0.675
 1808TIP3    H1 5430   2.488   0.552   0.721
 1808TIP3    H2 5431   2.574   0.500   0.607
 1809TIP3   OH2 5432   1.182   1.687   4.346
 1809TIP3    H1 5433   1.119   1.747   4.387
 1809TIP3    H2 5434   1.129   1.634   4.285
 1810TIP3   OH2 5435   3.052   2.058   0.332
 1810TIP3    H1 5436   2.973   2.003   0.326
 1810TIP3    H2 5437   3.121   1.997   0.356
 1811TIP3   OH2 5438   5.692   1.013   3.266
 1811TIP3    H1 5439   5.734   0.942   3.313
 1811TIP3    H2 5440   5.712   0.996   3.174
 1812TIP3   OH2 5441   4.078   3.432   4.063
 1812TIP3    H1 5442   3.992   3.446   4.024
 1812TIP3    H2 5443   4.100   3.341   4.043
 1813TIP3   OH2 5444   5.219   1.192   4.889
 1813TIP3    H1 5445   5.148   1.253   4.867
 1813TIP3    H2 5446   5.173   1.113   4.917
 1814TIP3   OH2 5447   3.690   2.033   0.677
 1814TIP3    H1 5448   3.625   2.080   0.729
 1814TIP3    H2 5449   3.639   1.979   0.617
 1815TIP3   OH2 5450   2.832   5.796   4.623
 1815TIP3    H1 5451   2.924   5.773   4.631
 1815TIP3    H2 5452   2.814   5.849   4.701
 1816TIP3   OH2 5453   6.291   2.256   2.404
 1816TIP3    H1 5454   6.255   2.266   2.316
 1816TIP3    H2 5455   6.215   2.245   2.460
 1817TIP3   OH2 5456   3.271   2.686   2.530
 1817TIP3    H1 5457   3.207   2.615   2.529
 1817TIP3    H2 5458   3.297   2.693   2.622
 1818TIP3   OH2 5459   4.468   4.231   2.306
 1818TIP3    H1 5460   4.475   4.179   2.386
 1818TIP3    H2 5461   4.426   4.313   2.334
 1819TIP3   OH2 5462   1.740   2.994   2.351
 1819TIP3    H1 5463   1.729   2.981   2.257
 1819TIP3    H2 5464   1.821   3.045   2.360
 1820TIP3   OH2 5465   6.159   3.047   4.887
 1820TIP3    H1 5466   6.079   3.092   4.914
 1820TIP3    H2 5467   6.129   2.961   4.858
 1821TIP3   OH2 5468   3.567   2.148   1.037
 1821TIP3    H1 5469   3.626   2.222   1.021
 1821TIP3    H2 5470   3.516   2.140   0.957
 1822TIP3   OH2 5471   3.544   0.872   1.230
 1822TIP3    H1 5472   3.540   0.788   1.275
 1822TIP3    H2 5473   3.613   0.861   1.164
 1823TIP3   OH2 5474   3.236   2.631   3.831
 1823TIP3    H1 5475   3.182   2.710   3.828
 1823TIP3    H2 5476   3.232   2.597   3.741
 1824TIP3   OH2 5477   6.208   2.255   2.140
 1824TIP3    H1 5478   6.283   2.231   2.085
 1824TIP3    H2 5479   6.147   2.181   2.131
 1825TIP3   OH2 5480   1.432   5.510   5.179
 1825TIP3    H1 5481   1.399   5.580   5.124
 1825TIP3    H2 5482   1.481   5.555   5.249
 1826TIP3   OH2 5483   2.918   5.444   3.954
 1826TIP3    H1 5484   2.900   5.494   3.875
 1826TIP3    H2 5485   2.855   5.371   3.951
 1827TIP3   OH2 5486   0.185   2.747   0.174
 1827TIP3    H1 5487   0.213   2.763   0.264
 1827TIP3    H2 5488   0.263   2.715   0.130
 1828TIP3   OH2 5489   0.311   3.444   3.332
 1828TIP3    H1 5490   0.312   3.425   3.238
 1828TIP3    H2 5491   0.271   3.366   3.371
 1829TIP3   OH2 5492   2.328   5.848   3.820
 1829TIP3    H1 5493   2.378   5.850   3.739
 1829TIP3    H2 5494   2.348   5.932   3.862
 1830TIP3   OH2 5495   3.743   4.916   3.002
 1830TIP3    H1 5496   3.837   4.903   3.015
 1830TIP3    H2 5497   3.703   4.859   3.068
 1831TIP3   OH2 5498   2.753   5.938   4.428
 1831TIP3    H1 5499   2.814   5.918   4.357
 1831TIP3    H2 5500   2.776   5.876   4.497
 1832TIP3   OH2 5501   0.514   1.896   4.112
 1832TIP3    H1 5502   0.472   1.936   4.189
 1832TIP3    H2 5503   0.461   1.927   4.038
 1833TIP3   OH2 5504   1.668   5.679   0.672
 1833TIP3    H1 5505   1.595   5.624   0.700
 1833TIP3    H2 5506   1.688   5.732   0.750
 1834TIP3   OH2 5507   0.691   4.100   3.265
 1834TIP3    H1 5508   0.596   4.102   3.257
 1834TIP3    H2 5509   0.710   4.015   3.306
 1835TIP3   OH2 5510   2.994   3.154   2.960
 1835TIP3    H1 5511   3.062   3.154   3.027
 1835TIP3    H2 5512   2.935   3.083   2.987
 1836TIP3   OH2 5513   2.528   0.403   0.465
 1836TIP3    H1 5514   2.494   0.315   0.450
 1836TIP3    H2 5515   2.571   0.427   0.383
 1837TIP3   OH2 5516   3.819   3.782   3.516
 1837TIP3    H1 5517   3.749   3.798   3.580
 1837TIP3    H2 5518   3.786   3.709   3.463
 1838TIP3   OH2 5519   6.284   4.291   0.898
 1838TIP3    H1 5520   6.354   4.315   0.960
 1838TIP3    H2 5521   6.256   4.374   0.860
 1839TIP3   OH2 5522   0.573   5.574   0.691
 1839TIP3    H1 5523   0.509   5.640   0.716
 1839TIP3    H2 5524   0.613   5.608   0.612
 1840TIP3   OH2 5525   3.416   2.539   2.142
 1840TIP3    H1 5526   3.361   2.538   2.064
 1840TIP3    H2 5527   3.379   2.471   2.198
 1841TIP3   OH2 5528   1.612   2.721   1.965
 1841TIP3    H1 5529   1.545   2.748   1.901
 1841TIP3    H2 5530   1.692   2.764   1.935
 1842TIP3   OH2 5531   4.249   4.796   1.508
 1842TIP3    H1 5532   4.317   4.737   1.540
 1842TIP3    H2 5533   4.168   4.758   1.542
 1843TIP3   OH2 5534   6.345   3.441   1.547
 1843TIP3    H1 5535   6.262   3.464   1.588
 1843TIP3    H2 5536   6.371   3.519   1.499
 1844TIP3   OH2 5537   2.817   1.550   3.654
 1844TIP3    H1 5538   2.742   1.592   3.611
 1844TIP3    H2 5539   2.817   1.587   3.742
 1845TIP3   OH2 5540   0.662   3.715   3.196
 1845TIP3    H1 5541   0.587   3.707   3.255
 1845TIP3    H2 5542   0.623   3.733   3.110
 1846TIP3   OH2 5543   5.159   2.086   4.275
 1846TIP3    H1 5544   5.064   2.087   4.289
 1846TIP3    H2 5545   5.197   2.085   4.363
 1847TIP3   OH2 5546   0.913   2.927   3.638
 1847TIP3    H1 5547   0.977   2.970   3.694
 1847TIP3    H2 5548   0.858   2.998   3.603
 1848TIP3   OH2 5549   2.391   0.065   2.765
 1848TIP3    H1 5550   2.417   0.146   2.721
 1848TIP3    H2 5551   2.297   0.058   2.749
 1849TIP3   OH2 5552   0.550   5.758   4.737
 1849TIP3    H1 5553   0.464   5.723   4.714
 1849TIP3    H2 5554   0.610   5.683   4.729
 1850TIP3   OH2 5555   2.901   3.439   3.018
 1850TIP3    H1 5556   2.991   3.452   2.987
 1850TIP3    H2 5557   2.882   3.348   2.998
 1851TIP3   OH2 5558   5.462   5.992   1.344
 1851TIP3    H1 5559   5.526   5.967   1.411
 1851TIP3    H2 5560   5.467   5.923   1.279
 1852TIP3   OH2 5561   2.243   5.842   5.020
 1852TIP3    H1 5562   2.227   5.815   5.111
 1852TIP3    H2 5563   2.155   5.855   4.984
 1853TIP3   OH2 5564   3.733   3.002   2.180
 1853TIP3    H1 5565   3.657   3.029   2.232
 1853TIP3    H2 5566   3.801   3.067   2.200
 1854TIP3   OH2 5567   0.515   2.842   3.834
 1854TIP3    H1 5568   0.566   2.825   3.913
 1854TIP3    H2 5569   0.570   2.810   3.762
 1855TIP3   OH2 5570   6.177   5.064   3.299
 1855TIP3    H1 5571   6.165   5.023   3.385
 1855TIP3    H2 5572   6.089   5.089   3.271
 1856TIP3   OH2 5573   5.539   1.944   2.039
 1856TIP3    H1 5574   5.629   1.920   2.018
 1856TIP3    H2 5575   5.513   1.881   2.107
 1857TIP3   OH2 5576   2.868   4.243   2.811
 1857TIP3    H1 5577   2.847   4.249   2.718
 1857TIP3    H2 5578   2.907   4.327   2.833
 1858TIP3   OH2 5579   4.489   2.913   3.779
 1858TIP3    H1 5580   4.577   2.946   3.763
 1858TIP3    H2 5581   4.464   2.869   3.697
 1859TIP3   OH2 5582   0.472   4.493   2.384
 1859TIP3    H1 5583   0.560   4.479   2.349
 1859TIP3    H2 5584   0.470   4.443   2.465
 1860TIP3   OH2 5585   4.397   1.463   2.722
 1860TIP3    H1 5586   4.367   1.489   2.809
 1860TIP3    H2 5587   4.483   1.424   2.738
 1861TIP3   OH2 5588   1.372   0.687   3.829
 1861TIP3    H1 5589   1.357   0.618   3.764
 1861TIP3    H2 5590   1.321   0.660   3.905
 1862TIP3   OH2 5591   2.212   1.017   3.494
 1862TIP3    H1 5592   2.254   1.101   3.474
 1862TIP3    H2 5593   2.244   0.995   3.581
 1863TIP3   OH2 5594   3.970   3.570   5.059
 1863TIP3    H1 5595   4.023   3.629   5.006
 1863TIP3    H2 5596   4.028   3.544   5.131
 1864TIP3   OH2 5597   0.630   3.254   1.576
 1864TIP3    H1 5598   0.606   3.227   1.487
 1864TIP3    H2 5599   0.595   3.185   1.632
 1865TIP3   OH2 5600   2.034   5.273   3.617
 1865TIP3    H1 5601   1.946   5.283   3.653
 1865TIP3    H2 5602   2.067   5.193   3.658
 1866TIP3   OH2 5603   5.911   2.959   3.947
 1866TIP3    H1 5604   5.966   3.035   3.931
 1866TIP3    H2 5605   5.954   2.887   3.901
 1867TIP3   OH2 5606   1.316   3.060   1.692
 1867TIP3    H1 5607   1.262   3.076   1.615
 1867TIP3    H2 5608   1.394   3.017   1.658
 1868TIP3   OH2 5609   3.675   1.541   3.856
 1868TIP3    H1 5610   3.602   1.597   3.883
 1868TIP3    H2 5611   3.688   1.482   3.931
 1869TIP3   OH2 5612   4.717   1.198   0.402
 1869TIP3    H1 5613   4.733   1.238   0.317
 1869TIP3    H2 5614   4.787   1.134   0.413
 1870TIP3   OH2 5615   3.982   0.998   3.374
 1870TIP3    H1 5616   3.948   0.995   3.463
 1870TIP3    H2 5617   3.920   0.946   3.323
 1871TIP3   OH2 5618   1.958   0.576   1.871
 1871TIP3    H1 5619   1.925   0.616   1.951
 1871TIP3    H2 5620   1.892   0.509   1.849
 1872TIP3   OH2 5621   5.897   0.509   4.040
 1872TIP3    H1 5622   5.930   0.426   4.005
 1872TIP3    H2 5623   5.931   0.512   4.129
 1873TIP3   OH2 5624   0.681   1.332   5.078
 1873TIP3    H1 5625   0.663   1.423   5.057
 1873TIP3    H2 5626   0.674   1.327   5.173
 1874TIP3   OH2 5627   2.128   0.480   1.174
 1874TIP3    H1 5628   2.214   0.472   1.217
 1874TIP3    H2 5629   2.097   0.566   1.199
 1875TIP3   OH2 5630   4.349   1.487   4.479
 1875TIP3    H1 5631   4.380   1.505   4.390
 1875TIP3    H2 5632   4.254   1.485   4.471
 1876TIP3   OH2 5633   2.780   5.860   1.481
 1876TIP3    H1 5634   2.840   5.842   1.409
 1876TIP3    H2 5635   2.836   5.864   1.559
 1877TIP3   OH2 5636   4.015   1.460   3.934
 1877TIP3    H1 5637   4.097   1.497   3.899
 1877TIP3    H2 5638   4.044   1.395   3.998
 1878TIP3   OH2 5639   0.276   3.151   0.015
 1878TIP3    H1 5640   0.297   3.244   0.024
 1878TIP3    H2 5641   0.186   3.143   0.045
 1879TIP3   OH2 5642   2.340   4.875   2.490
 1879TIP3    H1 5643   2.385   4.800   2.451
 1879TIP3    H2 5644   2.253   4.874   2.450
 1880TIP3   OH2 5645   3.897   4.229   3.311
 1880TIP3    H1 5646   3.976   4.193   3.269
 1880TIP3    H2 5647   3.930   4.282   3.383
 1881TIP3   OH2 5648   5.784   5.157   4.975
 1881TIP3    H1 5649   5.691   5.153   4.952
 1881TIP3    H2 5650   5.810   5.246   4.952
 1882TIP3   OH2 5651   5.728   4.776   2.307
 1882TIP3    H1 5652   5.807   4.743   2.349
 1882TIP3    H2 5653   5.706   4.710   2.241
 1883TIP3   OH2 5654   1.819   4.445   3.655
 1883TIP3    H1 5655   1.724   4.453   3.664
 1883TIP3    H2 5656   1.855   4.516   3.709
 1884TIP3   OH2 5657   0.397   2.462   0.582
 1884TIP3    H1 5658   0.341   2.497   0.514
 1884TIP3    H2 5659   0.468   2.526   0.590
 1885TIP3   OH2 5660   3.046   0.905   2.207
 1885TIP3    H1 5661   3.126   0.892   2.157
 1885TIP3    H2 5662   3.049   0.997   2.234
 1886TIP3   OH2 5663   5.199   4.972   3.975
 1886TIP3    H1 5664   5.173   4.997   4.063
 1886TIP3    H2 5665   5.169   4.881   3.966
 1887TIP3   OH2 5666   5.715   2.904   4.147
 1887TIP3    H1 5667   5.785   2.895   4.082
 1887TIP3    H2 5668   5.713   2.819   4.191
 1888TIP3   OH2 5669   5.976   5.804   2.572
 1888TIP3    H1 5670   5.920   5.729   2.592
 1888TIP3    H2 5671   6.057   5.766   2.539
 1889TIP3   OH2 5672   1.869   0.643   1.425
 1889TIP3    H1 5673   1.916   0.685   1.353
 1889TIP3    H2 5674   1.939   0.616   1.485
 1890TIP3   OH2 5675   1.588   5.372   4.069
 1890TIP3    H1 5676   1.627   5.459   4.062
 1890TIP3    H2 5677   1.657   5.318   4.108
 1891TIP3   OH2 5678   2.547   1.513   4.445
 1891TIP3    H1 5679   2.562   1.556   4.361
 1891TIP3    H2 5680   2.521   1.423   4.422
 1892TIP3   OH2 5681   5.693   2.118   3.795
 1892TIP3    H1 5682   5.735   2.036   3.821
 1892TIP3    H2 5683   5.757   2.162   3.739
 1893TIP3   OH2 5684   5.323   2.926   1.025
 1893TIP3    H1 5685   5.346   2.857   0.962
 1893TIP3    H2 5686   5.384   2.915   1.097
 1894TIP3   OH2 5687   1.202   4.423   2.605
 1894TIP3    H1 5688   1.152   4.476   2.667
 1894TIP3    H2 5689   1.135   4.380   2.551
 1895TIP3   OH2 5690   1.377   0.830   0.624
 1895TIP3    H1 5691   1.448   0.821   0.687
 1895TIP3    H2 5692   1.318   0.895   0.663
 1896TIP3   OH2 5693   3.963   3.934   0.794
 1896TIP3    H1 5694   3.985   3.930   0.701
 1896TIP3    H2 5695   3.872   3.904   0.798
 1897TIP3   OH2 5696   3.736   3.050   4.778
 1897TIP3    H1 5697   3.726   2.978   4.840
 1897TIP3    H2 5698   3.723   3.129   4.831
 1898TIP3   OH2 5699   2.965   3.696   3.324
 1898TIP3    H1 5700   2.921   3.780   3.321
 1898TIP3    H2 5701   2.977   3.672   3.232
 1899TIP3   OH2 5702   6.340   1.641   1.999
 1899TIP3    H1 5703   6.311   1.657   2.089
 1899TIP3    H2 5704   6.435   1.651   2.002
 1900TIP3   OH2 5705   3.216   1.936   4.131
 1900TIP3    H1 5706   3.262   1.959   4.051
 1900TIP3    H2 5707   3.126   1.962   4.116
 1901TIP3   OH2 5708   3.770   3.286   4.313
 1901TIP3    H1 5709   3.698   3.268   4.374
 1901TIP3    H2 5710   3.734   3.265   4.227
 1902TIP3   OH2 5711   5.409   3.000   2.110
 1902TIP3    H1 5712   5.385   3.092   2.098
 1902TIP3    H2 5713   5.326   2.955   2.125
 1903TIP3   OH2 5714   0.711   2.579   0.166
 1903TIP3    H1 5715   0.660   2.647   0.211
 1903TIP3    H2 5716   0.781   2.627   0.122
 1904TIP3   OH2 5717   2.885   2.476   1.061
 1904TIP3    H1 5718   2.932   2.430   0.991
 1904TIP3    H2 5719   2.884   2.568   1.034
 1905TIP3   OH2 5720   5.831   2.303   2.339
 1905TIP3    H1 5721   5.775   2.380   2.325
 1905TIP3    H2 5722   5.920   2.338   2.338
 1906TIP3   OH2 5723   5.917   4.938   0.239
 1906TIP3    H1 5724   5.929   5.015   0.183
 1906TIP3    H2 5725   6.007   4.909   0.259
 1907TIP3   OH2 5726   6.266   2.852   1.932
 1907TIP3    H1 5727   6.314   2.903   1.998
 1907TIP3    H2 5728   6.246   2.914   1.863
 1908TIP3   OH2 5729   2.413   4.584   1.320
 1908TIP3    H1 5730   2.414   4.618   1.410
 1908TIP3    H2 5731   2.354   4.644   1.273
 1909TIP3   OH2 5732   0.185   4.943   4.026
 1909TIP3    H1 5733   0.183   4.876   4.094
 1909TIP3    H2 5734   0.275   4.943   3.994
 1910TIP3   OH2 5735   1.554   3.593   2.105
 1910TIP3    H1 5736   1.618   3.581   2.176
 1910TIP3    H2 5737   1.525   3.684   2.114
 1911TIP3   OH2 5738   5.656   1.432   1.110
 1911TIP3    H1 5739   5.695   1.350   1.139
 1911TIP3    H2 5740   5.679   1.495   1.179
 1912TIP3   OH2 5741   6.265   4.012   0.924
 1912TIP3    H1 5742   6.174   4.003   0.949
 1912TIP3    H2 5743   6.280   4.106   0.918
 1913TIP3   OH2 5744   3.741   3.098   1.521
 1913TIP3    H1 5745   3.754   3.192   1.518
 1913TIP3    H2 5746   3.789   3.065   1.445
 1914TIP3   OH2 5747   3.616   5.341   5.005
 1914TIP3    H1 5748   3.523   5.355   4.991
 1914TIP3    H2 5749   3.636   5.264   4.951
 1915TIP3   OH2 5750   5.912   3.937   0.733
 1915TIP3    H1 5751   5.904   3.873   0.662
 1915TIP3    H2 5752   5.883   4.020   0.694
 1916TIP3   OH2 5753   0.874   5.429   0.024
 1916TIP3    H1 5754   0.883   5.389  -0.062
 1916TIP3    H2 5755   0.894   5.359   0.086
 1917TIP3   OH2 5756   3.598   5.938   4.093
 1917TIP3    H1 5757   3.583   5.884   4.170
 1917TIP3    H2 5758   3.682   5.981   4.110
 1918TIP3   OH2 5759   5.713   1.717   4.834
 1918TIP3    H1 5760   5.771   1.676   4.769
 1918TIP3    H2 5761   5.713   1.656   4.908
 1919TIP3   OH2 5762   0.167   3.616   4.500
 1919TIP3    H1 5763   0.195   3.533   4.460
 1919TIP3    H2 5764   0.203   3.612   4.589
 1920TIP3   OH2 5765   4.836  -0.027   4.835
 1920TIP3    H1 5766   4.741  -0.028   4.844
 1920TIP3    H2 5767   4.857   0.064   4.814
 1921TIP3   OH2 5768   5.934   2.078   2.678
 1921TIP3    H1 5769   5.841   2.074   2.654
 1921TIP3    H2 5770   5.979   2.094   2.595
 1922TIP3   OH2 5771   4.549   3.166   2.510
 1922TIP3    H1 5772   4.641   3.142   2.522
 1922TIP3    H2 5773   4.551   3.233   2.441
 1923TIP3   OH2 5774   1.762   5.825   5.221
 1923TIP3    H1 5775   1.750   5.920   5.216
 1923TIP3    H2 5776   1.751   5.795   5.131
 1924TIP3   OH2 5777   3.638   4.249   2.853
 1924TIP3    H1 5778   3.555   4.290   2.830
 1924TIP3    H2 5779   3.641   4.253   2.948
 1925TIP3   OH2 5780   2.095   5.765   1.274
 1925TIP3    H1 5781   2.059   5.811   1.350
 1925TIP3    H2 5782   2.185   5.745   1.299
 1926TIP3   OH2 5783   5.256   5.750   0.342
 1926TIP3    H1 5784   5.246   5.662   0.305
 1926TIP3    H2 5785   5.230   5.740   0.434
 1927TIP3   OH2 5786   1.686   0.179   3.992
 1927TIP3    H1 5787   1.626   0.183   4.067
 1927TIP3    H2 5788   1.673   0.092   3.956
 1928TIP3   OH2 5789   0.157   0.334   0.161
 1928TIP3    H1 5790   0.226   0.272   0.138
 1928TIP3    H2 5791   0.133   0.313   0.251
 1929TIP3   OH2 5792   3.507   3.272   4.449
 1929TIP3    H1 5793   3.433   3.329   4.432
 1929TIP3    H2 5794   3.482   3.222   4.527
 1930TIP3   OH2 5795   1.111   2.169   1.847
 1930TIP3    H1 5796   1.132   2.099   1.908
 1930TIP3    H2 5797   1.024   2.146   1.813
 1931TIP3   OH2 5798   5.648   5.433   0.758
 1931TIP3    H1 5799   5.719   5.477   0.710
 1931TIP3    H2 5800   5.643   5.479   0.842
 1932TIP3   OH2 5801   6.000   2.991   0.830
 1932TIP3    H1 5802   5.912   2.971   0.797
 1932TIP3    H2 5803   6.004   2.949   0.915
 1933TIP3   OH2 5804   4.918   2.125   1.579
 1933TIP3    H1 5805   4.824   2.114   1.571
 1933TIP3    H2 5806   4.933   2.217   1.559
 1934TIP3   OH2 5807   4.933   5.105   3.908
 1934TIP3    H1 5808   4.923   5.015   3.876
 1934TIP3    H2 5809   5.019   5.132   3.876
 1935TIP3   OH2 5810   3.136   2.091   2.746
 1935TIP3    H1 5811   3.107   2.179   2.722
 1935TIP3    H2 5812   3.227   2.087   2.717
 1936TIP3   OH2 5813   5.154   4.218   2.814
 1936TIP3    H1 5814   5.146   4.128   2.780
 1936TIP3    H2 5815   5.244   4.223   2.847
 1937TIP3   OH2 5816   5.539   4.968   0.596
 1937TIP3    H1 5817   5.513   5.047   0.643
 1937TIP3    H2 5818   5.635   4.973   0.593
 1938TIP3   OH2 5819   3.151   4.623   3.918
 1938TIP3    H1 5820   3.129   4.533   3.895
 1938TIP3    H2 5821   3.067   4.661   3.947
 1939TIP3   OH2 5822   4.876   2.405   2.364
 1939TIP3    H1 5823   4.912   2.422   2.451
 1939TIP3    H2 5824   4.930   2.333   2.330
 1940TIP3   OH2 5825   5.845   0.910   3.580
 1940TIP3    H1 5826   5.826   0.867   3.496
 1940TIP3    H2 5827   5.795   0.992   3.576
 1941TIP3   OH2 5828   2.609   3.900   1.595
 1941TIP3    H1 5829   2.545   3.896   1.524
 1941TIP3    H2 5830   2.679   3.956   1.561
 1942TIP3   OH2 5831   3.022   2.802   0.371
 1942TIP3    H1 5832   2.948   2.811   0.432
 1942TIP3    H2 5833   2.989   2.744   0.302
 1943TIP3   OH2 5834   0.401   3.470   2.143
 1943TIP3    H1 5835   0.435   3.391   2.102
 1943TIP3    H2 5836   0.479   3.515   2.177
 1944TIP3   OH2 5837   0.916   4.905   2.986
 1944TIP3    H1 5838   0.832   4.859   2.986
 1944TIP3    H2 5839   0.936   4.919   2.894
 1945TIP3   OH2 5840   1.927   3.763   1.607
 1945TIP3    H1 5841   1.887   3.757   1.520
 1945TIP3    H2 5842   2.021   3.774   1.589
 1946TIP3   OH2 5843   2.511   0.719   3.333
 1946TIP3    H1 5844   2.517   0.634   3.290
 1946TIP3    H2 5845   2.507   0.699   3.427
 1947TIP3   OH2 5846   0.087   3.673   3.377
 1947TIP3    H1 5847   0.146   3.748   3.381
 1947TIP3    H2 5848   0.093   3.642   3.287
 1948TIP3   OH2 5849   2.293   2.759   2.713
 1948TIP3    H1 5850   2.340   2.724   2.789
 1948TIP3    H2 5851   2.201   2.757   2.738
 1949TIP3   OH2 5852   3.984   4.387   1.658
 1949TIP3    H1 5853   3.994   4.292   1.652
 1949TIP3    H2 5854   3.939   4.401   1.742
 1950TIP3   OH2 5855   3.912   0.020   1.835
 1950TIP3    H1 5856   3.967   0.093   1.806
 1950TIP3    H2 5857   3.947  -0.057   1.789
 1951TIP3   OH2 5858   1.392   4.257   0.901
 1951TIP3    H1 5859   1.409   4.248   0.807
 1951TIP3    H2 5860   1.350   4.342   0.910
 1952TIP3   OH2 5861   4.274   3.039   1.497
 1952TIP3    H1 5862   4.345   3.026   1.560
 1952TIP3    H2 5863   4.266   2.955   1.451
 1953TIP3   OH2 5864   3.275   2.375   1.050
 1953TIP3    H1 5865   3.198   2.398   0.997
 1953TIP3    H2 5866   3.346   2.367   0.986
 1954TIP3   OH2 5867   0.097   0.716   1.228
 1954TIP3    H1 5868   0.191   0.697   1.234
 1954TIP3    H2 5869   0.067   0.663   1.154
 1955TIP3   OH2 5870   3.909   5.904   0.960
 1955TIP3    H1 5871   3.849   5.873   0.893
 1955TIP3    H2 5872   3.879   5.863   1.041
 1956TIP3   OH2 5873   0.923   2.207   1.382
 1956TIP3    H1 5874   0.877   2.154   1.448
 1956TIP3    H2 5875   0.907   2.161   1.300
 1957TIP3   OH2 5876   5.264   4.087   2.346
 1957TIP3    H1 5877   5.332   4.030   2.308
 1957TIP3    H2 5878   5.228   4.035   2.418
 1958TIP3   OH2 5879   5.070   5.562   2.682
 1958TIP3    H1 5880   5.106   5.500   2.618
 1958TIP3    H2 5881   4.990   5.596   2.641
 1959TIP3   OH2 5882   5.903   3.203   3.503
 1959TIP3    H1 5883   5.969   3.257   3.546
 1959TIP3    H2 5884   5.843   3.179   3.573
 1960TIP3   OH2 5885   0.807   1.662   1.352
 1960TIP3    H1 5886   0.820   1.623   1.265
 1960TIP3    H2 5887   0.712   1.675   1.358
 1961TIP3   OH2 5888   0.999   4.932   4.515
 1961TIP3    H1 5889   1.004   5.026   4.495
 1961TIP3    H2 5890   0.943   4.927   4.592
 1962TIP3   OH2 5891   0.996   3.256   3.526
 1962TIP3    H1 5892   0.903   3.234   3.526
 1962TIP3    H2 5893   0.998   3.351   3.532
 1963TIP3   OH2 5894   4.191   2.344   4.241
 1963TIP3    H1 5895   4.191   2.389   4.156
 1963TIP3    H2 5896   4.100   2.346   4.269
 1964TIP3   OH2 5897   5.061   1.081   0.561
 1964TIP3    H1 5898   5.114   1.085   0.481
 1964TIP3    H2 5899   5.056   1.171   0.591
 1965TIP3   OH2 5900   2.517   1.415   0.790
 1965TIP3    H1 5901   2.456   1.342   0.805
 1965TIP3    H2 5902   2.577   1.382   0.724
 1966TIP3   OH2 5903   4.775   3.393   3.823
 1966TIP3    H1 5904   4.689   3.420   3.792
 1966TIP3    H2 5905   4.760   3.308   3.865
 1967TIP3   OH2 5906   5.465   0.005   2.416
 1967TIP3    H1 5907   5.407   0.080   2.427
 1967TIP3    H2 5908   5.524   0.031   2.346
 1968TIP3   OH2 5909   4.827   2.929   1.959
 1968TIP3    H1 5910   4.783   2.965   2.036
 1968TIP3    H2 5911   4.842   3.006   1.903
 1969TIP3   OH2 5912   5.137   1.944   3.606
 1969TIP3    H1 5913   5.042   1.947   3.593
 1969TIP3    H2 5914   5.149   1.957   3.700
 1970TIP3   OH2 5915   5.928   2.970   2.842
 1970TIP3    H1 5916   5.954   3.033   2.910
 1970TIP3    H2 5917   5.862   2.915   2.884
 1971TIP3   OH2 5918   3.156   5.173   3.107
 1971TIP3    H1 5919   3.230   5.182   3.047
 1971TIP3    H2 5920   3.078   5.180   3.052
 1972TIP3   OH2 5921   4.250   1.581   3.867
 1972TIP3    H1 5922   4.344   1.568   3.851
 1972TIP3    H2 5923   4.246   1.659   3.921
 1973TIP3   OH2 5924   2.129   0.597   1.541
 1973TIP3    H1 5925   2.136   0.692   1.530
 1973TIP3    H2 5926   2.201   0.562   1.488
 1974TIP3   OH2 5927   1.022   2.864   3.996
 1974TIP3    H1 5928   0.962   2.932   3.967
 1974TIP3    H2 5929   1.108   2.892   3.964
 1975TIP3   OH2 5930   3.687   5.062   1.010
 1975TIP3    H1 5931   3.659   5.026   0.926
 1975TIP3    H2 5932   3.647   5.149   1.013
 1976TIP3   OH2 5933   5.914   5.833   3.018
 1976TIP3    H1 5934   5.960   5.754   3.044
 1976TIP3    H2 5935   5.971   5.904   3.047
 1977TIP3   OH2 5936   3.049   2.859   2.726
 1977TIP3    H1 5937   3.127   2.906   2.756
 1977TIP3    H2 5938   2.979   2.925   2.729
 1978TIP3   OH2 5939   1.659   4.055   1.752
 1978TIP3    H1 5940   1.665   4.060   1.657
 1978TIP3    H2 5941   1.749   4.044   1.782
 1979TIP3   OH2 5942   5.302   3.646   3.981
 1979TIP3    H1 5943   5.239   3.715   3.957
 1979TIP3    H2 5944   5.293   3.639   4.076
 1980TIP3   OH2 5945   1.719   2.811   4.450
 1980TIP3    H1 5946   1.710   2.843   4.540
 1980TIP3    H2 5947   1.631   2.817   4.413
 1981TIP3   OH2 5948   4.567   3.407   2.369
 1981TIP3    H1 5949   4.623   3.474   2.329
 1981TIP3    H2 5950   4.527   3.451   2.444
 1982TIP3   OH2 5951   5.682   4.209   5.144
 1982TIP3    H1 5952   5.728   4.270   5.201
 1982TIP3    H2 5953   5.625   4.265   5.091
 1983TIP3   OH2 5954   0.324   2.154   4.723
 1983TIP3    H1 5955   0.287   2.188   4.805
 1983TIP3    H2 5956   0.282   2.069   4.711
 1984TIP3   OH2 5957   5.983   4.733   1.605
 1984TIP3    H1 5958   5.892   4.761   1.599
 1984TIP3    H2 5959   6.021   4.752   1.520
 1985TIP3   OH2 5960   0.507   5.394   3.889
 1985TIP3    H1 5961   0.596   5.361   3.880
 1985TIP3    H2 5962   0.482   5.372   3.979
 1986TIP3   OH2 5963   5.431   1.162   4.697
 1986TIP3    H1 5964   5.477   1.246   4.700
 1986TIP3    H2 5965   5.369   1.166   4.770
 1987TIP3   OH2 5966   1.304   2.849   2.233
 1987TIP3    H1 5967   1.371   2.819   2.171
 1987TIP3    H2 5968   1.249   2.772   2.247
 1988TIP3   OH2 5969   0.766   1.031   3.647
 1988TIP3    H1 5970   0.860   1.045   3.632
 1988TIP3    H2 5971   0.759   0.939   3.671
 1989TIP3   OH2 5972   4.043   0.993   3.065
 1989TIP3    H1 5973   3.979   0.942   3.116
 1989TIP3    H2 5974   4.123   0.940   3.068
 1990TIP3   OH2 5975   2.658   1.534   2.337
 1990TIP3    H1 5976   2.683   1.598   2.271
 1990TIP3    H2 5977   2.636   1.587   2.414
 1991TIP3   OH2 5978   3.653   2.746   4.303
 1991TIP3    H1 5979   3.748   2.746   4.315
 1991TIP3    H2 5980   3.639   2.701   4.220
 1992TIP3   OH2 5981   4.922   3.298   4.279
 1992TIP3    H1 5982   4.950   3.215   4.319
 1992TIP3    H2 5983   4.976   3.305   4.200
 1993TIP3   OH2 5984   2.933   1.484   0.214
 1993TIP3    H1 5985   2.947   1.579   0.221
 1993TIP3    H2 5986   3.017   1.450   0.184
 1994TIP3   OH2 5987   5.180   1.707   2.918
 1994TIP3    H1 5988   5.253   1.647   2.907
 1994TIP3    H2 5989   5.176   1.756   2.835
 1995TIP3   OH2 5990   0.628   2.954   1.961
 1995TIP3    H1 5991   0.623   2.862   1.937
 1995TIP3    H2 5992   0.686   2.956   2.037
 1996TIP3   OH2 5993   4.113   2.636   2.787
 1996TIP3    H1 5994   4.170   2.568   2.752
 1996TIP3    H2 5995   4.076   2.598   2.867
 1997TIP3   OH2 5996   5.263   0.222   2.316
 1997TIP3    H1 5997   5.268   0.154   2.249
 1997TIP3    H2 5998   5.170   0.230   2.335
 1998TIP3   OH2 5999   6.153   5.807   3.319
 1998TIP3    H1 6000   6.176   5.805   3.412
 1998TIP3    H2 6001   6.211   5.742   3.279
 1999TIP3   OH2 6002   5.734   3.289   2.072
 1999TIP3    H1 6003   5.665   3.281   2.137
 1999TIP3    H2 6004   5.744   3.200   2.038
 2000TIP3   OH2 6005   4.524   5.614   4.335
 2000TIP3    H1 6006   4.465   5.624   4.260
 2000TIP3    H2 6007   4.586   5.546   4.307
 2001TIP3   OH2 6008   2.514   2.927   1.659
 2001TIP3    H1 6009   2.460   2.962   1.730
 2001TIP3    H2 6010   2.568   2.860   1.701
 2002TIP3   OH2 6011   5.807   0.735   3.356
 2002TIP3    H1 6012   5.742   0.665   3.350
 2002TIP3    H2 6013   5.884   0.701   3.311
 2003TIP3   OH2 6014   5.133   3.123   2.568
 2003TIP3    H1 6015   5.124   3.200   2.512
 2003TIP3    H2 6016   5.168   3.055   2.511
 2004TIP3   OH2 6017   2.304   0.610   2.224
 2004TIP3    H1 6018   2.379   0.572   2.270
 2004TIP3    H2 6019   2.320   0.704   2.226
 2005TIP3   OH2 6020   0.794   5.379   3.865
 2005TIP3    H1 6021   0.817   5.380   3.958
 2005TIP3    H2 6022   0.871   5.342   3.821
 2006TIP3   OH2 6023   2.799   4.273   3.406
 2006TIP3    H1 6024   2.871   4.231   3.357
 2006TIP3    H2 6025   2.791   4.360   3.366
 2007TIP3   OH2 6026   1.323   1.738   4.643
 2007TIP3    H1 6027   1.239   1.694   4.655
 2007TIP3    H2 6028   1.348   1.718   4.553
 2008TIP3   OH2 6029   5.630   5.603   0.350
 2008TIP3    H1 6030   5.626   5.517   0.392
 2008TIP3    H2 6031   5.539   5.621   0.324
 2009TIP3   OH2 6032   5.130   2.279   4.037
 2009TIP3    H1 6033   5.131   2.217   4.110
 2009TIP3    H2 6034   5.090   2.358   4.074
 2010TIP3   OH2 6035   1.839   5.367   0.257
 2010TIP3    H1 6036   1.799   5.400   0.177
 2010TIP3    H2 6037   1.806   5.277   0.264
 2011TIP3   OH2 6038   3.698   2.779   3.471
 2011TIP3    H1 6039   3.743   2.852   3.428
 2011TIP3    H2 6040   3.623   2.760   3.414
 2012TIP3   OH2 6041   1.528   2.130   3.358
 2012TIP3    H1 6042   1.453   2.182   3.386
 2012TIP3    H2 6043   1.491   2.066   3.297
 2013TIP3   OH2 6044   2.191   5.116   2.240
 2013TIP3    H1 6045   2.111   5.167   2.256
 2013TIP3    H2 6046   2.164   5.026   2.255
 2014TIP3   OH2 6047   2.314   5.000   2.895
 2014TIP3    H1 6048   2.344   5.054   2.822
 2014TIP3    H2 6049   2.270   4.926   2.853
 2015TIP3   OH2 6050   2.249   0.818   3.227
 2015TIP3    H1 6051   2.196   0.816   3.307
 2015TIP3    H2 6052   2.330   0.773   3.251
 2016TIP3   OH2 6053   0.999   0.529   1.406
 2016TIP3    H1 6054   0.926   0.506   1.349
 2016TIP3    H2 6055   1.037   0.608   1.366
 2017TIP3   OH2 6056   2.579   2.502   0.828
 2017TIP3    H1 6057   2.670   2.483   0.803
 2017TIP3    H2 6058   2.540   2.416   0.842
 2018TIP3   OH2 6059   0.339   0.203   2.011
 2018TIP3    H1 6060   0.331   0.226   2.104
 2018TIP3    H2 6061   0.257   0.234   1.972
 2019TIP3   OH2 6062   3.084   5.717   0.964
 2019TIP3    H1 6063   3.165   5.708   1.015
 2019TIP3    H2 6064   3.037   5.635   0.980
 2020TIP3   OH2 6065   4.230   3.925   1.708
 2020TIP3    H1 6066   4.282   3.940   1.629
 2020TIP3    H2 6067   4.229   3.829   1.718
 2021TIP3   OH2 6068   0.948   5.517   1.272
 2021TIP3    H1 6069   1.005   5.524   1.349
 2021TIP3    H2 6070   0.876   5.576   1.291
 2022TIP3   OH2 6071   0.632   1.089   0.774
 2022TIP3    H1 6072   0.677   1.144   0.710
 2022TIP3    H2 6073   0.579   1.149   0.826
 2023TIP3   OH2 6074   0.513   2.461   1.092
 2023TIP3    H1 6075   0.428   2.466   1.136
 2023TIP3    H2 6076   0.577   2.464   1.163
 2024TIP3   OH2 6077   6.154   5.714   4.858
 2024TIP3    H1 6078   6.119   5.720   4.947
 2024TIP3    H2 6079   6.079   5.689   4.805
 2025TIP3   OH2 6080   3.706   5.453   2.859
 2025TIP3    H1 6081   3.758   5.386   2.904
 2025TIP3    H2 6082   3.650   5.404   2.799
 2026TIP3   OH2 6083   1.975   5.958   1.431
 2026TIP3    H1 6084   2.040   6.023   1.405
 2026TIP3    H2 6085   1.898   6.009   1.454
 2027TIP3   OH2 6086   0.060   1.486   1.342
 2027TIP3    H1 6087   0.083   1.412   1.285
 2027TIP3    H2 6088   0.118   1.557   1.315
 2028TIP3   OH2 6089   2.806   2.980   1.232
 2028TIP3    H1 6090   2.730   3.004   1.179
 2028TIP3    H2 6091   2.832   3.061   1.275
 2029TIP3   OH2 6092   3.273   4.908   1.322
 2029TIP3    H1 6093   3.346   4.969   1.308
 2029TIP3    H2 6094   3.203   4.963   1.356
 2030TIP3   OH2 6095   2.728   0.335   4.003
 2030TIP3    H1 6096   2.782   0.287   4.066
 2030TIP3    H2 6097   2.786   0.403   3.968
 2031TIP3   OH2 6098   1.124   4.645   0.551
 2031TIP3    H1 6099   1.117   4.556   0.585
 2031TIP3    H2 6100   1.117   4.635   0.456
 2032TIP3   OH2 6101   1.990   3.041   1.927
 2032TIP3    H1 6102   2.022   2.956   1.956
 2032TIP3    H2 6103   2.045   3.105   1.972
 2033TIP3   OH2 6104   3.393   3.927   2.599
 2033TIP3    H1 6105   3.361   3.900   2.513
 2033TIP3    H2 6106   3.316   3.966   2.642
 2034TIP3   OH2 6107   4.729   3.856   0.497
 2034TIP3    H1 6108   4.712   3.922   0.564
 2034TIP3    H2 6109   4.659   3.867   0.433
 2035TIP3   OH2 6110   1.839   3.415   0.798
 2035TIP3    H1 6111   1.753   3.380   0.773
 2035TIP3    H2 6112   1.819   3.496   0.845
 2036TIP3   OH2 6113   0.887   2.743   0.058
 2036TIP3    H1 6114   0.886   2.799  -0.020
 2036TIP3    H2 6115   0.912   2.801   0.129
 2037TIP3   OH2 6116   2.702   1.861   3.183
 2037TIP3    H1 6117   2.644   1.935   3.200
 2037TIP3    H2 6118   2.725   1.827   3.269
 2038TIP3   OH2 6119   0.292   2.514   2.619
 2038TIP3    H1 6120   0.329   2.452   2.682
 2038TIP3    H2 6121   0.368   2.563   2.587
 2039TIP3   OH2 6122   1.840   3.442   1.335
 2039TIP3    H1 6123   1.858   3.445   1.429
 2039TIP3    H2 6124   1.835   3.534   1.309
 2040TIP3   OH2 6125   0.964   3.651   0.093
 2040TIP3    H1 6126   0.990   3.741   0.112
 2040TIP3    H2 6127   0.970   3.644  -0.003
 2041TIP3   OH2 6128   4.214   5.482   2.528
 2041TIP3    H1 6129   4.192   5.534   2.605
 2041TIP3    H2 6130   4.227   5.394   2.562
 2042TIP3   OH2 6131   6.212   1.657   1.355
 2042TIP3    H1 6132   6.267   1.734   1.347
 2042TIP3    H2 6133   6.273   1.583   1.351
 2043TIP3   OH2 6134   3.980   0.582   2.082
 2043TIP3    H1 6135   4.030   0.536   2.015
 2043TIP3    H2 6136   3.997   0.675   2.064
 2044TIP3   OH2 6137   3.012   4.721   0.019
 2044TIP3    H1 6138   2.993   4.670   0.097
 2044TIP3    H2 6139   3.019   4.811   0.049
 2045TIP3   OH2 6140   5.058   1.685   1.350
 2045TIP3    H1 6141   5.089   1.605   1.307
 2045TIP3    H2 6142   5.130   1.747   1.340
 2046TIP3   OH2 6143   5.491   1.728   3.474
 2046TIP3    H1 6144   5.406   1.759   3.444
 2046TIP3    H2 6145   5.484   1.632   3.472
 2047TIP3   OH2 6146   2.702   1.765   3.452
 2047TIP3    H1 6147   2.637   1.808   3.507
 2047TIP3    H2 6148   2.786   1.792   3.489
 2048TIP3   OH2 6149   4.507   3.822   3.608
 2048TIP3    H1 6150   4.527   3.898   3.664
 2048TIP3    H2 6151   4.439   3.775   3.656
 2049TIP3   OH2 6152   2.180   1.127   1.172
 2049TIP3    H1 6153   2.117   1.191   1.205
 2049TIP3    H2 6154   2.132   1.080   1.104
 2050TIP3   OH2 6155   5.577   4.505   1.902
 2050TIP3    H1 6156   5.618   4.426   1.867
 2050TIP3    H2 6157   5.488   4.477   1.925
 2051TIP3   OH2 6158   5.922   4.843   4.395
 2051TIP3    H1 6159   5.856   4.893   4.443
 2051TIP3    H2 6160   5.982   4.909   4.361
 2052TIP3   OH2 6161   2.824   3.312   1.937
 2052TIP3    H1 6162   2.768   3.338   2.010
 2052TIP3    H2 6163   2.808   3.218   1.927
 2053TIP3   OH2 6164   5.124   0.518   4.270
 2053TIP3    H1 6165   5.181   0.441   4.264
 2053TIP3    H2 6166   5.036   0.481   4.282
 2054TIP3   OH2 6167   5.125   2.688   0.879
 2054TIP3    H1 6168   5.036   2.681   0.844
 2054TIP3    H2 6169   5.112   2.709   0.972
 2055TIP3   OH2 6170   5.043   3.500   0.295
 2055TIP3    H1 6171   5.112   3.481   0.358
 2055TIP3    H2 6172   5.002   3.580   0.327
 2056TIP3   OH2 6173   4.000   3.559   0.582
 2056TIP3    H1 6174   4.014   3.486   0.521
 2056TIP3    H2 6175   4.028   3.636   0.532
 2057TIP3   OH2 6176   0.814   5.047   4.932
 2057TIP3    H1 6177   0.816   4.987   5.007
 2057TIP3    H2 6178   0.808   4.990   4.856
 2058TIP3   OH2 6179   4.444   4.812   2.773
 2058TIP3    H1 6180   4.425   4.740   2.833
 2058TIP3    H2 6181   4.526   4.850   2.806
 2059TIP3   OH2 6182   4.624   1.749   2.774
 2059TIP3    H1 6183   4.706   1.729   2.818
 2059TIP3    H2 6184   4.624   1.696   2.695
 2060TIP3   OH2 6185   4.115   4.403   4.874
 2060TIP3    H1 6186   4.138   4.486   4.832
 2060TIP3    H2 6187   4.197   4.354   4.878
 2061TIP3   OH2 6188   5.701   2.481   1.711
 2061TIP3    H1 6189   5.671   2.479   1.802
 2061TIP3    H2 6190   5.730   2.392   1.693
 2062TIP3   OH2 6191   3.615   4.941   2.758
 2062TIP3    H1 6192   3.524   4.941   2.788
 2062TIP3    H2 6193   3.667   4.952   2.838
 2063TIP3   OH2 6194   1.907   4.498   0.859
 2063TIP3    H1 6195   1.817   4.469   0.842
 2063TIP3    H2 6196   1.907   4.591   0.837
 2064TIP3   OH2 6197   0.373   1.798   5.088
 2064TIP3    H1 6198   0.317   1.740   5.037
 2064TIP3    H2 6199   0.370   1.762   5.177
 2065TIP3   OH2 6200   2.560   5.701   1.518
 2065TIP3    H1 6201   2.635   5.760   1.510
 2065TIP3    H2 6202   2.507   5.738   1.588
 2066TIP3   OH2 6203   5.102   0.214   0.200
 2066TIP3    H1 6204   5.192   0.245   0.215
 2066TIP3    H2 6205   5.051   0.294   0.190
 2067TIP3   OH2 6206   2.145   1.673   1.810
 2067TIP3    H1 6207   2.230   1.653   1.770
 2067TIP3    H2 6208   2.093   1.711   1.740
 2068TIP3   OH2 6209   4.596   3.286   1.798
 2068TIP3    H1 6210   4.575   3.277   1.891
 2068TIP3    H2 6211   4.515   3.260   1.753
 2069TIP3   OH2 6212   3.719   0.679   0.476
 2069TIP3    H1 6213   3.629   0.653   0.496
 2069TIP3    H2 6214   3.711   0.767   0.440
 2070TIP3   OH2 6215   2.822   5.551   3.119
 2070TIP3    H1 6216   2.874   5.629   3.135
 2070TIP3    H2 6217   2.741   5.584   3.079
 2071TIP3   OH2 6218   1.081   3.499   1.230
 2071TIP3    H1 6219   1.014   3.453   1.179
 2071TIP3    H2 6220   1.164   3.471   1.191
 2072TIP3   OH2 6221   1.401   4.446   4.080
 2072TIP3    H1 6222   1.427   4.538   4.090
 2072TIP3    H2 6223   1.384   4.416   4.169
 2073TIP3   OH2 6224   6.121   0.732   1.119
 2073TIP3    H1 6225   6.174   0.799   1.162
 2073TIP3    H2 6226   6.176   0.654   1.118
 2074TIP3   OH2 6227   5.319   0.796   3.847
 2074TIP3    H1 6228   5.315   0.891   3.830
 2074TIP3    H2 6229   5.411   0.773   3.833
 2075TIP3   OH2 6230   0.328   4.602   2.825
 2075TIP3    H1 6231   0.301   4.668   2.888
 2075TIP3    H2 6232   0.248   4.556   2.802
 2076TIP3   OH2 6233   1.124   1.893   1.398
 2076TIP3    H1 6234   1.169   1.940   1.468
 2076TIP3    H2 6235   1.143   1.801   1.413
 2077TIP3   OH2 6236   4.175   1.732   2.028
 2077TIP3    H1 6237   4.170   1.747   2.122
 2077TIP3    H2 6238   4.267   1.749   2.006
 2078TIP3   OH2 6239   2.515   1.527   2.611
 2078TIP3    H1 6240   2.438   1.583   2.611
 2078TIP3    H2 6241   2.481   1.439   2.626
 2079TIP3   OH2 6242   5.566   5.633   2.379
 2079TIP3    H1 6243   5.540   5.724   2.368
 2079TIP3    H2 6244   5.635   5.620   2.313
 2080TIP3   OH2 6245   4.803   3.443   1.664
 2080TIP3    H1 6246   4.841   3.481   1.743
 2080TIP3    H2 6247   4.735   3.384   1.696
 2081TIP3   OH2 6248   2.528   0.558   5.059
 2081TIP3    H1 6249   2.583   0.540   5.135
 2081TIP3    H2 6250   2.507   0.472   5.023
 2082TIP3   OH2 6251   5.064   3.111   3.402
 2082TIP3    H1 6252   5.114   3.145   3.477
 2082TIP3    H2 6253   4.973   3.124   3.427
 2083TIP3   OH2 6254   2.067   5.537   3.647
 2083TIP3    H1 6255   2.151   5.546   3.694
 2083TIP3    H2 6256   2.051   5.442   3.647
 2084TIP3   OH2 6257   0.834   0.309   1.687
 2084TIP3    H1 6258   0.819   0.216   1.670
 2084TIP3    H2 6259   0.816   0.352   1.603
 2085TIP3   OH2 6260   6.261   1.026   1.628
 2085TIP3    H1 6261   6.219   1.036   1.543
 2085TIP3    H2 6262   6.351   1.002   1.608
 2086TIP3   OH2 6263   2.014   0.011   3.903
 2086TIP3    H1 6264   2.033  -0.031   3.986
 2086TIP3    H2 6265   2.051   0.099   3.911
 2087TIP3   OH2 6266   0.714   2.085   5.025
 2087TIP3    H1 6267   0.714   2.165   4.973
 2087TIP3    H2 6268   0.794   2.039   4.998
 2088TIP3   OH2 6269   1.434   5.301   2.215
 2088TIP3    H1 6270   1.454   5.208   2.225
 2088TIP3    H2 6271   1.429   5.334   2.305
 2089TIP3   OH2 6272   6.340   5.544   4.651
 2089TIP3    H1 6273   6.313   5.618   4.706
 2089TIP3    H2 6274   6.258   5.515   4.610
 2090TIP3   OH2 6275   2.632   4.556   0.501
 2090TIP3    H1 6276   2.697   4.597   0.443
 2090TIP3    H2 6277   2.604   4.478   0.453
 2091TIP3   OH2 6278   1.625   5.059   3.359
 2091TIP3    H1 6279   1.594   5.121   3.292
 2091TIP3    H2 6280   1.649   5.115   3.433
 2092TIP3   OH2 6281   0.090   4.778   2.303
 2092TIP3    H1 6282   0.103   4.851   2.243
 2092TIP3    H2 6283   0.167   4.779   2.360
 2093TIP3   OH2 6284   2.905   2.334   2.360
 2093TIP3    H1 6285   2.904   2.259   2.300
 2093TIP3    H2 6286   2.836   2.314   2.423
 2094TIP3   OH2 6287   2.372   3.748   4.507
 2094TIP3    H1 6288   2.287   3.789   4.522
 2094TIP3    H2 6289   2.358   3.655   4.528
 2095TIP3   OH2 6290   3.108   5.187   5.128
 2095TIP3    H1 6291   3.194   5.170   5.089
 2095TIP3    H2 6292   3.061   5.235   5.060
 2096TIP3   OH2 6293   4.338   1.552   5.187
 2096TIP3    H1 6294   4.249   1.585   5.171
 2096TIP3    H2 6295   4.385   1.570   5.105
 2097TIP3   OH2 6296   1.466   3.632   0.589
 2097TIP3    H1 6297   1.413   3.578   0.647
 2097TIP3    H2 6298   1.541   3.577   0.567
 2098TIP3   OH2 6299   2.399   2.879   4.878
 2098TIP3    H1 6300   2.452   2.821   4.933
 2098TIP3    H2 6301   2.447   2.962   4.877
 2099TIP3   OH2 6302   4.752   2.959   2.971
 2099TIP3    H1 6303   4.771   2.868   2.991
 2099TIP3    H2 6304   4.767   2.967   2.877
 2100TIP3   OH2 6305   1.651   0.674   1.612
 2100TIP3    H1 6306   1.728   0.665   1.555
 2100TIP3    H2 6307   1.641   0.769   1.623
 2101TIP3   OH2 6308   3.526   1.886   0.034
 2101TIP3    H1 6309   3.517   1.974   0.071
 2101TIP3    H2 6310   3.576   1.898  -0.046
 2102TIP3   OH2 6311   2.349   1.999   2.242
 2102TIP3    H1 6312   2.344   1.931   2.176
 2102TIP3    H2 6313   2.441   2.002   2.268
 2103TIP3   OH2 6314   2.760   1.008   4.067
 2103TIP3    H1 6315   2.816   1.049   4.133
 2103TIP3    H2 6316   2.685   1.066   4.060
 2104TIP3   OH2 6317   4.107   0.028   3.923
 2104TIP3    H1 6318   4.054   0.063   3.995
 2104TIP3    H2 6319   4.052   0.039   3.846
 2105TIP3   OH2 6320   5.911   4.727   2.541
 2105TIP3    H1 6321   5.874   4.795   2.597
 2105TIP3    H2 6322   5.968   4.773   2.481
 2106TIP3   OH2 6323   3.188   3.657   1.823
 2106TIP3    H1 6324   3.201   3.632   1.732
 2106TIP3    H2 6325   3.143   3.583   1.863
 2107TIP3   OH2 6326   6.258   5.520   2.234
 2107TIP3    H1 6327   6.324   5.580   2.198
 2107TIP3    H2 6328   6.250   5.546   2.326
 2108TIP3   OH2 6329   3.957   1.762   1.854
 2108TIP3    H1 6330   3.941   1.668   1.845
 2108TIP3    H2 6331   4.030   1.768   1.916
 2109TIP3   OH2 6332   3.086   0.480   1.672
 2109TIP3    H1 6333   3.116   0.434   1.750
 2109TIP3    H2 6334   3.167   0.500   1.623
 2110TIP3   OH2 6335   0.842   5.978   5.054
 2110TIP3    H1 6336   0.809   6.016   4.973
 2110TIP3    H2 6337   0.882   6.052   5.100
 2111TIP3   OH2 6338   4.976   5.874   0.709
 2111TIP3    H1 6339   4.889   5.834   0.709
 2111TIP3    H2 6340   4.968   5.951   0.765
 2112TIP3   OH2 6341   5.316   2.573   2.257
 2112TIP3    H1 6342   5.374   2.639   2.220
 2112TIP3    H2 6343   5.335   2.494   2.206
 2113TIP3   OH2 6344   3.416   3.753   4.135
 2113TIP3    H1 6345   3.392   3.763   4.043
 2113TIP3    H2 6346   3.478   3.824   4.151
 2114TIP3   OH2 6347   4.019   0.973   4.109
 2114TIP3    H1 6348   3.991   0.908   4.045
 2114TIP3    H2 6349   4.058   1.043   4.057
 2115TIP3   OH2 6350   5.165   3.818   2.198
 2115TIP3    H1 6351   5.089   3.846   2.248
 2115TIP3    H2 6352   5.180   3.890   2.136
 2116TIP3   OH2 6353   2.282   5.439   3.212
 2116TIP3    H1 6354   2.283   5.351   3.174
 2116TIP3    H2 6355   2.300   5.425   3.306
 2117TIP3   OH2 6356   2.271   3.702   0.222
 2117TIP3    H1 6357   2.241   3.750   0.299
 2117TIP3    H2 6358   2.197   3.704   0.161
 2118TIP3   OH2 6359   2.962   2.817   5.196
 2118TIP3    H1 6360   2.877   2.782   5.221
 2118TIP3    H2 6361   2.982   2.774   5.113
 2119TIP3   OH2 6362   5.210  -0.019   3.361
 2119TIP3    H1 6363   5.226   0.074   3.374
 2119TIP3    H2 6364   5.131  -0.037   3.413
 2120TIP3   OH2 6365   1.449   4.087   0.241
 2120TIP3    H1 6366   1.457   4.038   0.322
 2120TIP3    H2 6367   1.396   4.032   0.184
 2121TIP3   OH2 6368   3.663   2.847   4.924
 2121TIP3    H1 6369   3.569   2.835   4.915
 2121TIP3    H2 6370   3.699   2.758   4.916
 2122TIP3   OH2 6371   1.415   1.163   1.304
 2122TIP3    H1 6372   1.325   1.185   1.281
 2122TIP3    H2 6373   1.409   1.073   1.337
 2123TIP3   OH2 6374   4.477   2.877   1.282
 2123TIP3    H1 6375   4.450   2.930   1.207
 2123TIP3    H2 6376   4.470   2.786   1.251
 2124TIP3   OH2 6377   2.244   0.086   0.108
 2124TIP3    H1 6378   2.300   0.157   0.139
 2124TIP3    H2 6379   2.296   0.041   0.042
 2125TIP3   OH2 6380   3.798   1.722   2.422
 2125TIP3    H1 6381   3.817   1.757   2.335
 2125TIP3    H2 6382   3.884   1.700   2.458
 2126TIP3   OH2 6383   4.452   1.622   4.162
 2126TIP3    H1 6384   4.450   1.695   4.223
 2126TIP3    H2 6385   4.519   1.646   4.098
 2127TIP3   OH2 6386   1.777   0.662   4.592
 2127TIP3    H1 6387   1.812   0.594   4.535
 2127TIP3    H2 6388   1.682   0.649   4.590
 2128TIP3   OH2 6389   0.419   4.358   3.443
 2128TIP3    H1 6390   0.415   4.453   3.457
 2128TIP3    H2 6391   0.455   4.349   3.354
 2129TIP3   OH2 6392   1.566   4.204   5.136
 2129TIP3    H1 6393   1.545   4.117   5.169
 2129TIP3    H2 6394   1.655   4.221   5.170
 2130TIP3   OH2 6395   0.526   1.207   3.274
 2130TIP3    H1 6396   0.540   1.253   3.191
 2130TIP3    H2 6397   0.501   1.118   3.248
 2131TIP3   OH2 6398   3.146   5.298   4.198
 2131TIP3    H1 6399   3.178   5.357   4.131
 2131TIP3    H2 6400   3.057   5.327   4.216
 2132TIP3   OH2 6401   3.023   2.744   3.060
 2132TIP3    H1 6402   2.981   2.688   3.125
 2132TIP3    H2 6403   2.951   2.781   3.009
 2133TIP3   OH2 6404   4.963   1.911   2.299
 2133TIP3    H1 6405   5.005   1.899   2.214
 2133TIP3    H2 6406   4.890   1.971   2.282
 2134TIP3   OH2 6407   2.756   1.630   1.040
 2134TIP3    H1 6408   2.761   1.711   0.989
 2134TIP3    H2 6409   2.847   1.603   1.050
 2135TIP3   OH2 6410   1.100   4.182   0.396
 2135TIP3    H1 6411   1.143   4.260   0.433
 2135TIP3    H2 6412   1.032   4.217   0.339
 2136TIP3   OH2 6413   3.944   1.646   4.380
 2136TIP3    H1 6414   3.976   1.721   4.331
 2136TIP3    H2 6415   3.921   1.582   4.313
 2137TIP3   OH2 6416   0.783   4.642   2.113
 2137TIP3    H1 6417   0.822   4.566   2.068
 2137TIP3    H2 6418   0.809   4.632   2.204
 2138TIP3   OH2 6419   1.247   4.135   4.103
 2138TIP3    H1 6420   1.195   4.057   4.118
 2138TIP3    H2 6421   1.333   4.114   4.139
 2139TIP3   OH2 6422   2.538   4.428   4.329
 2139TIP3    H1 6423   2.514   4.355   4.272
 2139TIP3    H2 6424   2.558   4.388   4.413
 2140TIP3   OH2 6425   4.469   3.719   1.243
 2140TIP3    H1 6426   4.476   3.627   1.268
 2140TIP3    H2 6427   4.383   3.726   1.201
 2141TIP3   OH2 6428   4.817   1.337   3.347
 2141TIP3    H1 6429   4.872   1.263   3.322
 2141TIP3    H2 6430   4.878   1.403   3.380
 2142TIP3   OH2 6431   6.108   1.199   4.508
 2142TIP3    H1 6432   6.145   1.111   4.495
 2142TIP3    H2 6433   6.096   1.205   4.603
 2143TIP3   OH2 6434   1.817   5.819   0.456
 2143TIP3    H1 6435   1.899   5.773   0.473
 2143TIP3    H2 6436   1.762   5.802   0.533
 2144TIP3   OH2 6437   3.678   0.096   1.744
 2144TIP3    H1 6438   3.756   0.057   1.785
 2144TIP3    H2 6439   3.710   0.178   1.706
 2145TIP3   OH2 6440   0.600   5.991   3.966
 2145TIP3    H1 6441   0.682   6.040   3.967
 2145TIP3    H2 6442   0.621   5.910   3.920
 2146TIP3   OH2 6443   0.517   1.138   4.508
 2146TIP3    H1 6444   0.506   1.043   4.502
 2146TIP3    H2 6445   0.438   1.174   4.469
 2147TIP3   OH2 6446   2.130   4.153   2.483
 2147TIP3    H1 6447   2.208   4.148   2.427
 2147TIP3    H2 6448   2.075   4.080   2.453
 2148TIP3   OH2 6449   1.918   3.171   2.415
 2148TIP3    H1 6450   1.951   3.133   2.496
 2148TIP3    H2 6451   1.928   3.265   2.427
 2149TIP3   OH2 6452   6.314   4.902   3.100
 2149TIP3    H1 6453   6.269   4.860   3.026
 2149TIP3    H2 6454   6.248   4.960   3.137
 2150TIP3   OH2 6455   3.029   5.494   4.667
 2150TIP3    H1 6456   3.079   5.433   4.612
 2150TIP3    H2 6457   2.937   5.477   4.644
 2151TIP3   OH2 6458   4.999   2.507   4.839
 2151TIP3    H1 6459   4.937   2.488   4.909
 2151TIP3    H2 6460   4.975   2.447   4.769
 2152TIP3   OH2 6461   4.087   5.424   3.271
 2152TIP3    H1 6462   4.153   5.422   3.341
 2152TIP3    H2 6463   4.137   5.415   3.190
 2153TIP3   OH2 6464   1.716   5.604   4.046
 2153TIP3    H1 6465   1.686   5.632   3.960
 2153TIP3    H2 6466   1.798   5.557   4.029
 2154TIP3   OH2 6467   2.538   4.231   3.741
 2154TIP3    H1 6468   2.616   4.251   3.794
 2154TIP3    H2 6469   2.573   4.201   3.657
 2155TIP3   OH2 6470   3.898   0.695   3.602
 2155TIP3    H1 6471   3.864   0.653   3.523
 2155TIP3    H2 6472   3.973   0.642   3.628
 2156TIP3   OH2 6473   3.667   1.809   1.951
 2156TIP3    H1 6474   3.617   1.771   1.879
 2156TIP3    H2 6475   3.643   1.901   1.950
 2157TIP3   OH2 6476   5.515   4.870   4.077
 2157TIP3    H1 6477   5.577   4.861   4.005
 2157TIP3    H2 6478   5.559   4.928   4.140
 2158TIP3   OH2 6479   1.583   3.955   1.078
 2158TIP3    H1 6480   1.531   3.899   1.020
 2158TIP3    H2 6481   1.518   4.010   1.122
 2159TIP3   OH2 6482   2.612   3.786   2.824
 2159TIP3    H1 6483   2.519   3.762   2.822
 2159TIP3    H2 6484   2.640   3.764   2.913
 2160TIP3   OH2 6485   5.299   0.559   2.671
 2160TIP3    H1 6486   5.369   0.494   2.666
 2160TIP3    H2 6487   5.316   0.618   2.597
 2161TIP3   OH2 6488   6.056   4.722   1.341
 2161TIP3    H1 6489   6.005   4.663   1.286
 2161TIP3    H2 6490   6.148   4.702   1.320
 2162TIP3   OH2 6491   3.021   4.739   2.386
 2162TIP3    H1 6492   3.078   4.679   2.338
 2162TIP3    H2 6493   3.040   4.825   2.349
 2163TIP3   OH2 6494   3.305   4.557   1.412
 2163TIP3    H1 6495   3.395   4.537   1.438
 2163TIP3    H2 6496   3.312   4.583   1.320
 2164TIP3   OH2 6497   4.891   3.783   1.485
 2164TIP3    H1 6498   4.862   3.717   1.422
 2164TIP3    H2 6499   4.987   3.780   1.480
 2165TIP3   OH2 6500   1.963   4.125   4.531
 2165TIP3    H1 6501   1.989   4.198   4.587
 2165TIP3    H2 6502   1.986   4.153   4.442
 2166TIP3   OH2 6503   3.321   0.605   3.897
 2166TIP3    H1 6504   3.372   0.626   3.818
 2166TIP3    H2 6505   3.324   0.686   3.949
 2167TIP3   OH2 6506   0.872   4.115   3.533
 2167TIP3    H1 6507   0.839   4.053   3.468
 2167TIP3    H2 6508   0.794   4.159   3.568
 2168TIP3   OH2 6509   0.489   4.170   4.903
 2168TIP3    H1 6510   0.538   4.097   4.865
 2168TIP3    H2 6511   0.469   4.142   4.992
 2169TIP3   OH2 6512   2.776   3.783   3.518
 2169TIP3    H1 6513   2.811   3.703   3.480
 2169TIP3    H2 6514   2.710   3.813   3.455
 2170TIP3   OH2 6515   3.904   2.355   4.313
 2170TIP3    H1 6516   3.870   2.383   4.398
 2170TIP3    H2 6517   3.883   2.427   4.254
 2171TIP3   OH2 6518   1.158   3.259   4.716
 2171TIP3    H1 6519   1.098   3.327   4.746
 2171TIP3    H2 6520   1.147   3.258   4.621
 2172TIP3   OH2 6521   0.428   1.250   0.061
 2172TIP3    H1 6522   0.402   1.185   0.126
 2172TIP3    H2 6523   0.366   1.322   0.074
 2173TIP3   OH2 6524   5.512   1.821   3.972
 2173TIP3    H1 6525   5.529   1.816   3.877
 2173TIP3    H2 6526   5.574   1.887   4.003
 2174TIP3   OH2 6527   2.673   1.369   1.757
 2174TIP3    H1 6528   2.578   1.356   1.763
 2174TIP3    H2 6529   2.684   1.446   1.701
 2175TIP3   OH2 6530   4.027   2.501   3.038
 2175TIP3    H1 6531   3.981   2.519   3.120
 2175TIP3    H2 6532   4.111   2.465   3.066
 2176TIP3   OH2 6533   4.011   0.518   2.499
 2176TIP3    H1 6534   3.930   0.467   2.498
 2176TIP3    H2 6535   4.047   0.507   2.411
 2177TIP3   OH2 6536   3.657   2.149   3.874
 2177TIP3    H1 6537   3.640   2.243   3.885
 2177TIP3    H2 6538   3.742   2.145   3.829
 2178TIP3   OH2 6539   5.137   5.128   2.328
 2178TIP3    H1 6540   5.206   5.125   2.262
 2178TIP3    H2 6541   5.125   5.222   2.345
 2179TIP3   OH2 6542   5.564   3.581   4.917
 2179TIP3    H1 6543   5.478   3.545   4.939
 2179TIP3    H2 6544   5.549   3.629   4.835
 2180TIP3   OH2 6545   5.983   5.945   5.131
 2180TIP3    H1 6546   6.039   5.889   5.184
 2180TIP3    H2 6547   5.944   6.007   5.194
 2181TIP3   OH2 6548   5.765   1.755   0.797
 2181TIP3    H1 6549   5.847   1.786   0.836
 2181TIP3    H2 6550   5.732   1.830   0.747
 2182TIP3   OH2 6551   0.207   3.252   2.788
 2182TIP3    H1 6552   0.179   3.201   2.712
 2182TIP3    H2 6553   0.265   3.193   2.836
 2183TIP3   OH2 6554   3.694   5.498   1.786
 2183TIP3    H1 6555   3.732   5.410   1.780
 2183TIP3    H2 6556   3.606   5.483   1.819
 2184TIP3   OH2 6557   0.890   0.415   4.074
 2184TIP3    H1 6558   0.866   0.505   4.097
 2184TIP3    H2 6559   0.889   0.368   4.158
 2185TIP3   OH2 6560   3.757   1.292   3.476
 2185TIP3    H1 6561   3.766   1.199   3.455
 2185TIP3    H2 6562   3.819   1.307   3.548
 2186TIP3   OH2 6563   4.100   1.391   1.557
 2186TIP3    H1 6564   4.093   1.336   1.635
 2186TIP3    H2 6565   4.103   1.328   1.484
 2187TIP3   OH2 6566   0.335   4.929   0.595
 2187TIP3    H1 6567   0.390   4.871   0.649
 2187TIP3    H2 6568   0.397   4.991   0.556
 2188TIP3   OH2 6569   2.212   5.113   1.546
 2188TIP3    H1 6570   2.177   5.036   1.592
 2188TIP3    H2 6571   2.295   5.132   1.592
 2189TIP3   OH2 6572   0.070   5.695   1.082
 2189TIP3    H1 6573   0.158   5.670   1.110
 2189TIP3    H2 6574   0.085   5.761   1.014
 2190TIP3   OH2 6575   3.521   1.270   5.031
 2190TIP3    H1 6576   3.588   1.259   5.099
 2190TIP3    H2 6577   3.503   1.181   5.001
 2191TIP3   OH2 6578   6.130   0.740   0.459
 2191TIP3    H1 6579   6.115   0.645   0.456
 2191TIP3    H2 6580   6.149   0.764   0.368
 2192TIP3   OH2 6581   0.579   3.033   2.239
 2192TIP3    H1 6582   0.604   3.057   2.150
 2192TIP3    H2 6583   0.489   3.064   2.248
 2193TIP3   OH2 6584   3.579   5.685   4.935
 2193TIP3    H1 6585   3.587   5.780   4.929
 2193TIP3    H2 6586   3.502   5.671   4.990
 2194TIP3   OH2 6587   4.227   1.457   0.141
 2194TIP3    H1 6588   4.264   1.388   0.196
 2194TIP3    H2 6589   4.286   1.532   0.153
 2195TIP3   OH2 6590   3.565   5.026   0.148
 2195TIP3    H1 6591   3.584   5.042   0.055
 2195TIP3    H2 6592   3.514   4.945   0.149
 2196TIP3   OH2 6593   1.073   2.464   1.854
 2196TIP3    H1 6594   1.131   2.501   1.788
 2196TIP3    H2 6595   1.078   2.370   1.839
 2197TIP3   OH2 6596   5.331   6.014   0.362
 2197TIP3    H1 6597   5.244   6.053   0.354
 2197TIP3    H2 6598   5.316   5.920   0.354
 2198TIP3   OH2 6599   3.498   5.632   4.040
 2198TIP3    H1 6600   3.575   5.625   3.984
 2198TIP3    H2 6601   3.456   5.714   4.013
 2199TIP3   OH2 6602   4.864   1.818   4.795
 2199TIP3    H1 6603   4.773   1.799   4.819
 2199TIP3    H2 6604   4.916   1.780   4.865
 2200TIP3   OH2 6605   2.764   1.338   0.032
 2200TIP3    H1 6606   2.814   1.256   0.030
 2200TIP3    H2 6607   2.814   1.394   0.092
 2201TIP3   OH2 6608   0.950   5.438   3.442
 2201TIP3    H1 6609   0.905   5.356   3.459
 2201TIP3    H2 6610   0.927   5.460   3.352
 2202TIP3   OH2 6611   3.100   0.237   4.390
 2202TIP3    H1 6612   3.100   0.274   4.479
 2202TIP3    H2 6613   3.100   0.143   4.403
 2203TIP3   OH2 6614   2.781   0.827   3.602
 2203TIP3    H1 6615   2.794   0.862   3.514
 2203TIP3    H2 6616   2.702   0.871   3.634
 2204TIP3   OH2 6617   2.243   1.453   4.379
 2204TIP3    H1 6618   2.274   1.529   4.428
 2204TIP3    H2 6619   2.286   1.460   4.294
 2205TIP3   OH2 6620   6.315   1.733   0.333
 2205TIP3    H1 6621   6.229   1.691   0.326
 2205TIP3    H2 6622   6.364   1.700   0.257
 2206TIP3   OH2 6623   4.287   4.036   4.112
 2206TIP3    H1 6624   4.247   3.949   4.113
 2206TIP3    H2 6625   4.377   4.021   4.140
 2207TIP3   OH2 6626   0.667   5.137   3.955
 2207TIP3    H1 6627   0.745   5.150   4.010
 2207TIP3    H2 6628   0.598   5.186   4.001
 2208TIP3   OH2 6629   5.207   1.336   1.793
 2208TIP3    H1 6630   5.264   1.384   1.853
 2208TIP3    H2 6631   5.262   1.266   1.757
 2209TIP3   OH2 6632   6.059   2.784   4.832
 2209TIP3    H1 6633   5.992   2.787   4.900
 2209TIP3    H2 6634   6.074   2.691   4.817
 2210TIP3   OH2 6635   0.768   2.726   1.391
 2210TIP3    H1 6636   0.747   2.724   1.484
 2210TIP3    H2 6637   0.816   2.808   1.379
 2211TIP3   OH2 6638   3.577   3.238   4.144
 2211TIP3    H1 6639   3.532   3.160   4.178
 2211TIP3    H2 6640   3.522   3.311   4.172
 2212TIP3   OH2 6641   3.998   1.913   4.259
 2212TIP3    H1 6642   3.913   1.874   4.278
 2212TIP3    H2 6643   3.977   1.993   4.210
 2213TIP3   OH2 6644   2.387   1.587   1.015
 2213TIP3    H1 6645   2.295   1.563   1.009
 2213TIP3    H2 6646   2.389   1.680   0.991
 2214TIP3   OH2 6647   4.447   1.286   3.657
 2214TIP3    H1 6648   4.514   1.284   3.590
 2214TIP3    H2 6649   4.369   1.321   3.614
 2215TIP3   OH2 6650   1.862   5.661   2.247
 2215TIP3    H1 6651   1.792   5.681   2.184
 2215TIP3    H2 6652   1.816   5.643   2.329
 2216TIP3   OH2 6653   1.968   1.297   1.602
 2216TIP3    H1 6654   2.045   1.314   1.657
 2216TIP3    H2 6655   1.893   1.309   1.660
 2217TIP3   OH2 6656   5.469   2.584   2.701
 2217TIP3    H1 6657   5.484   2.553   2.611
 2217TIP3    H2 6658   5.400   2.527   2.734
 2218TIP3   OH2 6659   3.847   2.488   0.309
 2218TIP3    H1 6660   3.769   2.543   0.314
 2218TIP3    H2 6661   3.920   2.548   0.327
 2219TIP3   OH2 6662   0.324   4.836   3.742
 2219TIP3    H1 6663   0.284   4.756   3.775
 2219TIP3    H2 6664   0.378   4.868   3.814
 2220TIP3   OH2 6665   4.207   3.927   4.624
 2220TIP3    H1 6666   4.235   3.942   4.715
 2220TIP3    H2 6667   4.113   3.914   4.630
 2221TIP3   OH2 6668   1.965   0.975   3.367
 2221TIP3    H1 6669   1.903   0.937   3.429
 2221TIP3    H2 6670   2.051   0.961   3.408
 2222TIP3   OH2 6671   1.094   5.911   3.845
 2222TIP3    H1 6672   1.053   5.986   3.888
 2222TIP3    H2 6673   1.142   5.867   3.915
 2223TIP3   OH2 6674   2.899   4.786   1.622
 2223TIP3    H1 6675   2.922   4.830   1.703
 2223TIP3    H2 6676   2.964   4.717   1.613
 2224TIP3   OH2 6677   0.512   5.624   1.016
 2224TIP3    H1 6678   0.434   5.628   0.961
 2224TIP3    H2 6679   0.554   5.709   1.006
 2225TIP3   OH2 6680   4.505   0.970   3.558
 2225TIP3    H1 6681   4.546   1.052   3.530
 2225TIP3    H2 6682   4.412   0.991   3.565
 2226TIP3   OH2 6683   5.100   3.067   0.828
 2226TIP3    H1 6684   5.122   3.150   0.872
 2226TIP3    H2 6685   5.129   2.999   0.890
 2227TIP3   OH2 6686   2.128   4.547   1.000
 2227TIP3    H1 6687   2.044   4.515   0.968
 2227TIP3    H2 6688   2.160   4.605   0.930
 2228TIP3   OH2 6689   1.984   5.812   3.214
 2228TIP3    H1 6690   2.025   5.894   3.186
 2228TIP3    H2 6691   2.021   5.745   3.155
 2229TIP3   OH2 6692   3.404   4.400   1.743
 2229TIP3    H1 6693   3.311   4.383   1.753
 2229TIP3    H2 6694   3.438   4.400   1.833
 2230TIP3   OH2 6695   0.487   4.475   1.144
 2230TIP3    H1 6696   0.434   4.470   1.064
 2230TIP3    H2 6697   0.424   4.462   1.215
 2231TIP3   OH2 6698   5.289   1.527   4.881
 2231TIP3    H1 6699   5.263   1.508   4.971
 2231TIP3    H2 6700   5.207   1.542   4.835
 2232TIP3   OH2 6701   3.507   2.513   1.519
 2232TIP3    H1 6702   3.560   2.434   1.533
 2232TIP3    H2 6703   3.545   2.578   1.578
 2233TIP3   OH2 6704   1.640   4.280   4.042
 2233TIP3    H1 6705   1.657   4.244   3.955
 2233TIP3    H2 6706   1.551   4.315   4.036
 2234TIP3   OH2 6707   0.169   3.338   2.431
 2234TIP3    H1 6708   0.213   3.267   2.386
 2234TIP3    H2 6709   0.089   3.298   2.466
 2235TIP3   OH2 6710   1.476   2.879   1.533
 2235TIP3    H1 6711   1.558   2.929   1.528
 2235TIP3    H2 6712   1.502   2.795   1.570
 2236TIP3   OH2 6713   0.145   4.156   1.766
 2236TIP3    H1 6714   0.061   4.189   1.797
 2236TIP3    H2 6715   0.122   4.081   1.711
 2237TIP3   OH2 6716   3.504   3.045   2.354
 2237TIP3    H1 6717   3.410   3.059   2.341
 2237TIP3    H2 6718   3.511   3.013   2.444
 2238TIP3   OH2 6719   3.063   4.913   3.755
 2238TIP3    H1 6720   3.119   4.965   3.811
 2238TIP3    H2 6721   3.016   4.854   3.814
 2239TIP3   OH2 6722   3.057   1.121   0.829
 2239TIP3    H1 6723   2.974   1.168   0.816
 2239TIP3    H2 6724   3.033   1.045   0.882
 2240TIP3   OH2 6725   5.320   5.921   0.797
 2240TIP3    H1 6726   5.284   6.000   0.755
 2240TIP3    H2 6727   5.383   5.955   0.861
 2241TIP3   OH2 6728   0.959   5.286   0.838
 2241TIP3    H1 6729   0.944   5.202   0.882
 2241TIP3    H2 6730   0.881   5.338   0.857
 2242TIP3   OH2 6731   0.064   3.997   4.156
 2242TIP3    H1 6732   0.006   3.962   4.224
 2242TIP3    H2 6733   0.007   4.009   4.080
 2243TIP3   OH2 6734   3.687   5.939   5.085
 2243TIP3    H1 6735   3.676   5.895   5.169
 2243TIP3    H2 6736   3.667   6.031   5.103
 2244TIP3   OH2 6737   0.411   5.281   4.112
 2244TIP3    H1 6738   0.322   5.304   4.085
 2244TIP3    H2 6739   0.416   5.308   4.204
 2245TIP3   OH2 6740   1.151   1.738   1.060
 2245TIP3    H1 6741   1.155   1.833   1.055
 2245TIP3    H2 6742   1.158   1.718   1.153
 2246TIP3   OH2 6743   0.398   3.115   2.920
 2246TIP3    H1 6744   0.466   3.052   2.896
 2246TIP3    H2 6745   0.411   3.130   3.014
 2247TIP3   OH2 6746   1.678   0.653   1.208
 2247TIP3    H1 6747   1.731   0.652   1.288
 2247TIP3    H2 6748   1.588   0.663   1.239
 2248TIP3   OH2 6749   3.330   4.519   0.838
 2248TIP3    H1 6750   3.346   4.501   0.746
 2248TIP3    H2 6751   3.416   4.514   0.880
 2249TIP3   OH2 6752   0.069   5.147   4.349
 2249TIP3    H1 6753   0.057   5.176   4.440
 2249TIP3    H2 6754   0.159   5.116   4.346
 2250TIP3   OH2 6755   1.019   3.047   4.825
 2250TIP3    H1 6756   1.109   3.078   4.835
 2250TIP3    H2 6757   1.024   2.954   4.849
 2251TIP3   OH2 6758   5.309   2.135   0.361
 2251TIP3    H1 6759   5.346   2.056   0.323
 2251TIP3    H2 6760   5.375   2.165   0.424
 2252TIP3   OH2 6761   5.793   0.087   4.616
 2252TIP3    H1 6762   5.846   0.068   4.539
 2252TIP3    H2 6763   5.832   0.166   4.653
 2253TIP3   OH2 6764   1.275   0.323   3.125
 2253TIP3    H1 6765   1.267   0.242   3.074
 2253TIP3    H2 6766   1.196   0.325   3.180
 2254TIP3   OH2 6767   2.423   4.959   1.794
 2254TIP3    H1 6768   2.440   5.034   1.737
 2254TIP3    H2 6769   2.434   4.992   1.883
 2255TIP3   OH2 6770   3.005   0.836   3.774
 2255TIP3    H1 6771   2.938   0.831   3.706
 2255TIP3    H2 6772   2.956   0.822   3.856
 2256TIP3   OH2 6773   5.843   3.765   3.171
 2256TIP3    H1 6774   5.851   3.718   3.088
 2256TIP3    H2 6775   5.809   3.700   3.233
 2257TIP3   OH2 6776   0.522   3.865   0.593
 2257TIP3    H1 6777   0.561   3.778   0.580
 2257TIP3    H2 6778   0.595   3.926   0.578
 2258TIP3   OH2 6779   2.709   2.101   3.606
 2258TIP3    H1 6780   2.779   2.149   3.562
 2258TIP3    H2 6781   2.629   2.134   3.567
 2259TIP3   OH2 6782   2.683   3.320   4.901
 2259TIP3    H1 6783   2.747   3.342   4.970
 2259TIP3    H2 6784   2.695   3.389   4.836
 2260TIP3   OH2 6785   0.189   2.204   2.317
 2260TIP3    H1 6786   0.259   2.206   2.383
 2260TIP3    H2 6787   0.109   2.197   2.368
 2261TIP3   OH2 6788   4.594   2.245   4.841
 2261TIP3    H1 6789   4.607   2.166   4.894
 2261TIP3    H2 6790   4.571   2.211   4.754
 2262TIP3   OH2 6791   5.385   3.853   4.773
 2262TIP3    H1 6792   5.333   3.801   4.835
 2262TIP3    H2 6793   5.422   3.924   4.825
 2263TIP3   OH2 6794   2.545   2.495   1.965
 2263TIP3    H1 6795   2.560   2.582   1.929
 2263TIP3    H2 6796   2.633   2.459   1.979
 2264TIP3   OH2 6797   4.758   3.119   5.119
 2264TIP3    H1 6798   4.700   3.045   5.105
 2264TIP3    H2 6799   4.826   3.110   5.052
 2265TIP3   OH2 6800   5.411   3.196   0.876
 2265TIP3    H1 6801   5.493   3.148   0.892
 2265TIP3    H2 6802   5.343   3.143   0.917
 2266TIP3   OH2 6803   2.821   5.581   0.934
 2266TIP3    H1 6804   2.862   5.513   0.988
 2266TIP3    H2 6805   2.734   5.591   0.971
 2267TIP3   OH2 6806   5.371   4.611   0.579
 2267TIP3    H1 6807   5.355   4.541   0.515
 2267TIP3    H2 6808   5.287   4.623   0.623
 2268TIP3   OH2 6809   4.257   4.392   1.032
 2268TIP3    H1 6810   4.215   4.329   0.973
 2268TIP3    H2 6811   4.272   4.469   0.977
 2269TIP3   OH2 6812   5.232   3.249   4.488
 2269TIP3    H1 6813   5.262   3.222   4.402
 2269TIP3    H2 6814   5.222   3.344   4.482
 2270TIP3   OH2 6815   3.867   2.341   0.717
 2270TIP3    H1 6816   3.862   2.287   0.638
 2270TIP3    H2 6817   3.957   2.329   0.749
 2271TIP3   OH2 6818   2.286   3.937   5.124
 2271TIP3    H1 6819   2.363   3.922   5.068
 2271TIP3    H2 6820   2.249   3.850   5.137
 2272TIP3   OH2 6821   3.398   2.272   0.329
 2272TIP3    H1 6822   3.439   2.323   0.399
 2272TIP3    H2 6823   3.336   2.333   0.289
 2273TIP3   OH2 6824   3.227   1.695   4.981
 2273TIP3    H1 6825   3.146   1.645   4.993
 2273TIP3    H2 6826   3.289   1.655   5.042
 2274TIP3   OH2 6827   6.359   2.312   3.035
 2274TIP3    H1 6828   6.289   2.318   3.099
 2274TIP3    H2 6829   6.392   2.402   3.027
 2275TIP3   OH2 6830   1.571   2.287   0.092
 2275TIP3    H1 6831   1.511   2.342   0.144
 2275TIP3    H2 6832   1.537   2.291   0.003
 2276TIP3   OH2 6833   4.309   4.596   0.850
 2276TIP3    H1 6834   4.363   4.531   0.805
 2276TIP3    H2 6835   4.372   4.660   0.884
 2277TIP3   OH2 6836   0.536   1.501   1.050
 2277TIP3    H1 6837   0.458   1.474   1.000
 2277TIP3    H2 6838   0.561   1.422   1.099
 2278TIP3   OH2 6839   0.288   1.333   4.744
 2278TIP3    H1 6840   0.200   1.300   4.763
 2278TIP3    H2 6841   0.292   1.338   4.649
 2279TIP3   OH2 6842   0.627   2.283   1.683
 2279TIP3    H1 6843   0.641   2.231   1.604
 2279TIP3    H2 6844   0.559   2.346   1.658
 2280TIP3   OH2 6845   1.727   5.043   0.290
 2280TIP3    H1 6846   1.821   5.030   0.306
 2280TIP3    H2 6847   1.687   4.962   0.320
 2281TIP3   OH2 6848   0.663   1.951   2.002
 2281TIP3    H1 6849   0.611   1.946   1.922
 2281TIP3    H2 6850   0.602   1.927   2.072
 2282TIP3   OH2 6851   0.371   1.730   0.514
 2282TIP3    H1 6852   0.459   1.721   0.549
 2282TIP3    H2 6853   0.335   1.806   0.559
 2283TIP3   OH2 6854   2.873   2.083   3.817
 2283TIP3    H1 6855   2.838   2.164   3.854
 2283TIP3    H2 6856   2.822   2.069   3.737
 2284TIP3   OH2 6857   1.067   2.731   1.179
 2284TIP3    H1 6858   1.038   2.640   1.185
 2284TIP3    H2 6859   1.091   2.753   1.269
 2285TIP3   OH2 6860   4.217   5.163   0.172
 2285TIP3    H1 6861   4.176   5.131   0.252
 2285TIP3    H2 6862   4.297   5.111   0.163
 2286TIP3   OH2 6863   5.940   4.038   3.242
 2286TIP3    H1 6864   5.902   3.953   3.217
 2286TIP3    H2 6865   5.970   4.077   3.160
 2287TIP3   OH2 6866   3.254   4.272   1.111
 2287TIP3    H1 6867   3.183   4.331   1.139
 2287TIP3    H2 6868   3.334   4.315   1.142
 2288TIP3   OH2 6869   0.318   0.908   3.851
 2288TIP3    H1 6870   0.386   0.973   3.867
 2288TIP3    H2 6871   0.303   0.868   3.937
 2289TIP3   OH2 6872   3.197   4.498   0.206
 2289TIP3    H1 6873   3.102   4.487   0.210
 2289TIP3    H2 6874   3.232   4.409   0.210
 2290TIP3   OH2 6875   5.131   5.492   0.930
 2290TIP3    H1 6876   5.131   5.586   0.948
 2290TIP3    H2 6877   5.167   5.486   0.841
 2291TIP3   OH2 6878   0.230   1.482   5.209
 2291TIP3    H1 6879   0.179   1.545   5.158
 2291TIP3    H2 6880   0.277   1.430   5.143
 2292TIP3   OH2 6881   2.543   2.334   2.413
 2292TIP3    H1 6882   2.579   2.249   2.390
 2292TIP3    H2 6883   2.612   2.376   2.465
 2293TIP3   OH2 6884   3.062   3.256   4.411
 2293TIP3    H1 6885   3.138   3.218   4.366
 2293TIP3    H2 6886   3.065   3.218   4.499
 2294TIP3   OH2 6887   0.297   3.514   2.606
 2294TIP3    H1 6888   0.256   3.458   2.540
 2294TIP3    H2 6889   0.290   3.602   2.570
 2295TIP3   OH2 6890   3.839   5.583   5.005
 2295TIP3    H1 6891   3.745   5.597   5.012
 2295TIP3    H2 6892   3.847   5.501   4.955
 2296TIP3   OH2 6893   3.337   4.150   4.794
 2296TIP3    H1 6894   3.280   4.129   4.868
 2296TIP3    H2 6895   3.409   4.087   4.800
 2297TIP3   OH2 6896   2.392   5.815   1.103
 2297TIP3    H1 6897   2.423   5.796   1.014
 2297TIP3    H2 6898   2.374   5.730   1.141
 2298TIP3   OH2 6899   4.445   2.776   2.715
 2298TIP3    H1 6900   4.384   2.754   2.786
 2298TIP3    H2 6901   4.490   2.855   2.745
 2299TIP3   OH2 6902   2.456   2.813   4.536
 2299TIP3    H1 6903   2.395   2.871   4.490
 2299TIP3    H2 6904   2.528   2.871   4.563
 2300TIP3   OH2 6905   4.237   2.674   4.749
 2300TIP3    H1 6906   4.301   2.745   4.752
 2300TIP3    H2 6907   4.253   2.631   4.665
 2301TIP3   OH2 6908   4.278   5.562   3.893
 2301TIP3    H1 6909   4.277   5.656   3.907
 2301TIP3    H2 6910   4.330   5.527   3.965
 2302TIP3   OH2 6911   6.176   1.780   4.852
 2302TIP3    H1 6912   6.234   1.855   4.862
 2302TIP3    H2 6913   6.233   1.710   4.819
 2303TIP3   OH2 6914   2.813   2.145   2.634
 2303TIP3    H1 6915   2.729   2.102   2.654
 2303TIP3    H2 6916   2.877   2.073   2.633
 2304TIP3   OH2 6917   6.324   1.549   3.061
 2304TIP3    H1 6918   6.399   1.492   3.042
 2304TIP3    H2 6919   6.333   1.622   3.000
 2305TIP3   OH2 6920   0.858   1.182   1.402
 2305TIP3    H1 6921   0.874   1.216   1.314
 2305TIP3    H2 6922   0.891   1.092   1.399
 2306TIP3   OH2 6923   3.256   2.421   1.458
 2306TIP3    H1 6924   3.194   2.487   1.428
 2306TIP3    H2 6925   3.336   2.470   1.479
 2307TIP3   OH2 6926   3.994   2.908   0.755
 2307TIP3    H1 6927   3.933   2.856   0.808
 2307TIP3    H2 6928   3.968   2.999   0.771
 2308TIP3   OH2 6929   5.475   5.227   1.929
 2308TIP3    H1 6930   5.391   5.256   1.895
 2308TIP3    H2 6931   5.520   5.188   1.853
 2309TIP3   OH2 6932   1.632   2.447   4.498
 2309TIP3    H1 6933   1.587   2.364   4.481
 2309TIP3    H2 6934   1.643   2.487   4.412
 2310TIP3   OH2 6935   2.278   1.067   5.078
 2310TIP3    H1 6936   2.356   1.122   5.068
 2310TIP3    H2 6937   2.215   1.104   5.017
 2311TIP3   OH2 6938   6.134   1.588   1.716
 2311TIP3    H1 6939   6.212   1.532   1.719
 2311TIP3    H2 6940   6.086   1.567   1.796
 2312TIP3   OH2 6941   5.493   3.615   3.114
 2312TIP3    H1 6942   5.408   3.578   3.089
 2312TIP3    H2 6943   5.523   3.663   3.037
 2313TIP3   OH2 6944   3.356   5.221   2.333
 2313TIP3    H1 6945   3.428   5.284   2.325
 2313TIP3    H2 6946   3.292   5.265   2.389
 2314TIP3   OH2 6947   4.938   5.509   1.385
 2314TIP3    H1 6948   4.906   5.572   1.321
 2314TIP3    H2 6949   4.947   5.559   1.466
 2315TIP3   OH2 6950   3.538   5.557   0.447
 2315TIP3    H1 6951   3.618   5.591   0.488
 2315TIP3    H2 6952   3.492   5.512   0.518
 2316TIP3   OH2 6953   5.725   0.595   5.130
 2316TIP3    H1 6954   5.723   0.688   5.107
 2316TIP3    H2 6955   5.818   0.572   5.129
 2317TIP3   OH2 6956   3.627   2.656   0.317
 2317TIP3    H1 6957   3.638   2.720   0.388
 2317TIP3    H2 6958   3.660   2.702   0.239
 2318TIP3   OH2 6959   3.885   5.519   2.246
 2318TIP3    H1 6960   3.883   5.559   2.159
 2318TIP3    H2 6961   3.965   5.554   2.286
 2319TIP3   OH2 6962   2.399   3.240   3.077
 2319TIP3    H1 6963   2.443   3.325   3.068
 2319TIP3    H2 6964   2.455   3.191   3.137
 2320TIP3   OH2 6965   5.990   0.724   2.664
 2320TIP3    H1 6966   6.078   0.688   2.653
 2320TIP3    H2 6967   5.967   0.705   2.755
 2321TIP3   OH2 6968   1.390   0.023   3.707
 2321TIP3    H1 6969   1.485   0.006   3.702
 2321TIP3    H2 6970   1.366   0.050   3.618
 2322TIP3   OH2 6971   4.403   2.899   4.785
 2322TIP3    H1 6972   4.433   2.921   4.697
 2322TIP3    H2 6973   4.484   2.889   4.836
 2323TIP3   OH2 6974   2.365   0.262   2.080
 2323TIP3    H1 6975   2.420   0.340   2.072
 2323TIP3    H2 6976   2.338   0.262   2.172
 2324TIP3   OH2 6977   4.233   2.226   4.562
 2324TIP3    H1 6978   4.138   2.216   4.565
 2324TIP3    H2 6979   4.251   2.304   4.614
 2325TIP3   OH2 6980   4.555   2.623   1.682
 2325TIP3    H1 6981   4.489   2.686   1.653
 2325TIP3    H2 6982   4.519   2.538   1.659
 2326TIP3   OH2 6983   3.015   4.386   3.865
 2326TIP3    H1 6984   2.954   4.349   3.929
 2326TIP3    H2 6985   2.977   4.364   3.780
 2327TIP3   OH2 6986   1.487   4.285   1.780
 2327TIP3    H1 6987   1.567   4.333   1.804
 2327TIP3    H2 6988   1.513   4.193   1.780
 2328TIP3   OH2 6989   1.624   0.975   1.625
 2328TIP3    H1 6990   1.658   0.977   1.715
 2328TIP3    H2 6991   1.609   1.067   1.603
 2329TIP3   OH2 6992   5.354   2.040   2.284
 2329TIP3    H1 6993   5.442   2.072   2.266
 2329TIP3    H2 6994   5.341   1.968   2.224
 2330TIP3   OH2 6995   0.191   0.146   3.182
 2330TIP3    H1 6996   0.141   0.195   3.248
 2330TIP3    H2 6997   0.282   0.171   3.199
 2331TIP3   OH2 6998   2.227   0.545   2.850
 2331TIP3    H1 6999   2.207   0.595   2.771
 2331TIP3    H2 7000   2.215   0.454   2.824
 2332TIP3   OH2 7001   4.001   1.935   1.632
 2332TIP3    H1 7002   3.942   2.010   1.630
 2332TIP3    H2 7003   3.959   1.873   1.692
 2333TIP3   OH2 7004   4.115   1.799   2.316
 2333TIP3    H1 7005   4.190   1.748   2.347
 2333TIP3    H2 7006   4.091   1.854   2.391
 2334TIP3   OH2 7007   1.398   1.568   1.013
 2334TIP3    H1 7008   1.492   1.588   1.006
 2334TIP3    H2 7009   1.378   1.577   1.106
 2335TIP3   OH2 7010   4.888   2.362   0.916
 2335TIP3    H1 7011   4.961   2.362   0.978
 2335TIP3    H2 7012   4.927   2.390   0.833
 2336TIP3   OH2 7013   3.850   0.069   1.461
 2336TIP3    H1 7014   3.774   0.046   1.406
 2336TIP3    H2 7015   3.812   0.092   1.546
 2337TIP3   OH2 7016   4.203   2.259   4.896
 2337TIP3    H1 7017   4.152   2.311   4.834
 2337TIP3    H2 7018   4.181   2.168   4.875
 2338TIP3   OH2 7019   6.275   0.071   1.972
 2338TIP3    H1 7020   6.208   0.006   1.951
 2338TIP3    H2 7021   6.247   0.150   1.926
 2339TIP3   OH2 7022   2.259   4.775   1.209
 2339TIP3    H1 7023   2.211   4.738   1.135
 2339TIP3    H2 7024   2.319   4.839   1.170
 2340TIP3   OH2 7025   3.058   0.623   3.408
 2340TIP3    H1 7026   2.965   0.621   3.384
 2340TIP3    H2 7027   3.075   0.713   3.432
 2341TIP3   OH2 7028   0.950   4.199   3.100
 2341TIP3    H1 7029   0.874   4.192   3.158
 2341TIP3    H2 7030   0.978   4.108   3.088
 2342TIP3   OH2 7031   5.222   5.858   3.477
 2342TIP3    H1 7032   5.270   5.779   3.452
 2342TIP3    H2 7033   5.244   5.921   3.409
 2343TIP3   OH2 7034   0.371   1.511   1.394
 2343TIP3    H1 7035   0.317   1.530   1.470
 2343TIP3    H2 7036   0.400   1.420   1.406
 2344TIP3   OH2 7037   1.840   5.622   0.991
 2344TIP3    H1 7038   1.818   5.706   1.030
 2344TIP3    H2 7039   1.932   5.629   0.968
 2345TIP3   OH2 7040   4.195   3.675   3.082
 2345TIP3    H1 7041   4.199   3.741   3.151
 2345TIP3    H2 7042   4.286   3.649   3.068
 2346TIP3   OH2 7043   0.040   1.360   2.677
 2346TIP3    H1 7044   0.109   1.295   2.660
 2346TIP3    H2 7045  -0.012   1.321   2.747
 2347TIP3   OH2 7046   0.196   1.126   2.633
 2347TIP3    H1 7047   0.230   1.068   2.701
 2347TIP3    H2 7048   0.125   1.076   2.592
 2348TIP3   OH2 7049   6.022   2.757   3.162
 2348TIP3    H1 7050   6.036   2.724   3.250
 2348TIP3    H2 7051   6.072   2.838   3.158
 2349TIP3   OH2 7052   5.128   3.896   0.252
 2349TIP3    H1 7053   5.102   3.978   0.294
 2349TIP3    H2 7054   5.196   3.860   0.310
 2350TIP3   OH2 7055   3.893   2.804   2.078
 2350TIP3    H1 7056   3.839   2.878   2.105
 2350TIP3    H2 7057   3.830   2.735   2.055
 2351TIP3   OH2 7058   0.526   5.129   1.366
 2351TIP3    H1 7059   0.454   5.193   1.367
 2351TIP3    H2 7060   0.586   5.162   1.299
 2352TIP3   OH2 7061   0.252   4.063   3.629
 2352TIP3    H1 7062   0.311   4.134   3.653
 2352TIP3    H2 7063   0.165   4.103   3.629
 2353TIP3   OH2 7064   1.850   2.006   4.994
 2353TIP3    H1 7065   1.877   1.987   4.904
 2353TIP3    H2 7066   1.930   2.039   5.035
 2354TIP3   OH2 7067   5.988   5.594   2.318
 2354TIP3    H1 7068   6.022   5.627   2.235
 2354TIP3    H2 7069   6.048   5.629   2.384
 2355TIP3   OH2 7070   4.921   5.663   2.342
 2355TIP3    H1 7071   4.852   5.721   2.373
 2355TIP3    H2 7072   4.951   5.703   2.260
 2356TIP3   OH2 7073   4.337   2.048   0.305
 2356TIP3    H1 7074   4.254   2.007   0.283
 2356TIP3    H2 7075   4.314   2.122   0.362
 2357TIP3   OH2 7076   4.403   0.284   0.206
 2357TIP3    H1 7077   4.466   0.221   0.240
 2357TIP3    H2 7078   4.406   0.273   0.111
 2358TIP3   OH2 7079   0.092   3.853   1.031
 2358TIP3    H1 7080   0.113   3.912   1.103
 2358TIP3    H2 7081   0.024   3.899   0.981
 2359TIP3   OH2 7082   2.510   0.657   4.558
 2359TIP3    H1 7083   2.535   0.701   4.639
 2359TIP3    H2 7084   2.518   0.563   4.579
 2360TIP3   OH2 7085   5.894   2.280   4.771
 2360TIP3    H1 7086   5.839   2.246   4.843
 2360TIP3    H2 7087   5.854   2.243   4.692
 2361TIP3   OH2 7088   6.141   3.049   2.503
 2361TIP3    H1 7089   6.224   3.006   2.525
 2361TIP3    H2 7090   6.165   3.140   2.485
 2362TIP3   OH2 7091   3.402   0.264   1.570
 2362TIP3    H1 7092   3.413   0.227   1.482
 2362TIP3    H2 7093   3.488   0.255   1.610
 2363TIP3   OH2 7094   0.062   1.912   4.520
 2363TIP3    H1 7095  -0.025   1.946   4.538
 2363TIP3    H2 7096   0.060   1.890   4.426
 2364TIP3   OH2 7097   5.247   0.752   1.851
 2364TIP3    H1 7098   5.247   0.771   1.945
 2364TIP3    H2 7099   5.178   0.808   1.815
 2365TIP3   OH2 7100   3.940   0.105   0.014
 2365TIP3    H1 7101   3.972   0.051   0.086
 2365TIP3    H2 7102   3.893   0.176   0.058
 2366TIP3   OH2 7103   5.445   0.317   3.634
 2366TIP3    H1 7104   5.487   0.298   3.550
 2366TIP3    H2 7105   5.446   0.412   3.640
 2367TIP3   OH2 7106   5.031   5.942   2.593
 2367TIP3    H1 7107   4.953   5.910   2.547
 2367TIP3    H2 7108   5.029   6.036   2.581
 2368TIP3   OH2 7109   0.296   1.029   4.327
 2368TIP3    H1 7110   0.209   1.070   4.329
 2368TIP3    H2 7111   0.345   1.081   4.262
 2369TIP3   OH2 7112   6.204   2.540   3.697
 2369TIP3    H1 7113   6.186   2.522   3.790
 2369TIP3    H2 7114   6.132   2.500   3.650
 2370TIP3   OH2 7115   0.351   2.966   3.306
 2370TIP3    H1 7116   0.406   3.013   3.244
 2370TIP3    H2 7117   0.263   2.968   3.267
 2371TIP3   OH2 7118   2.279   0.912   2.435
 2371TIP3    H1 7119   2.220   0.982   2.408
 2371TIP3    H2 7120   2.364   0.938   2.399
 2372TIP3   OH2 7121   1.529   1.063   3.282
 2372TIP3    H1 7122   1.547   1.133   3.219
 2372TIP3    H2 7123   1.444   1.028   3.255
 2373TIP3   OH2 7124   2.431   2.848   2.497
 2373TIP3    H1 7125   2.383   2.929   2.485
 2373TIP3    H2 7126   2.391   2.808   2.575
 2374TIP3   OH2 7127   1.297   5.660   1.856
 2374TIP3    H1 7128   1.316   5.600   1.927
 2374TIP3    H2 7129   1.202   5.674   1.860
 2375TIP3   OH2 7130   4.810   0.743   2.296
 2375TIP3    H1 7131   4.798   0.721   2.388
 2375TIP3    H2 7132   4.902   0.721   2.278
 2376TIP3   OH2 7133   3.326   1.546   3.537
 2376TIP3    H1 7134   3.389   1.493   3.586
 2376TIP3    H2 7135   3.281   1.597   3.604
 2377TIP3   OH2 7136   6.080   4.475   4.762
 2377TIP3    H1 7137   6.167   4.436   4.769
 2377TIP3    H2 7138   6.091   4.544   4.696
 2378TIP3   OH2 7139   3.800   0.531   3.397
 2378TIP3    H1 7140   3.789   0.487   3.482
 2378TIP3    H2 7141   3.712   0.533   3.359
 2379TIP3   OH2 7142   3.676   0.486   1.148
 2379TIP3    H1 7143   3.722   0.406   1.122
 2379TIP3    H2 7144   3.699   0.550   1.080
 2380TIP3   OH2 7145   1.448   3.472   4.629
 2380TIP3    H1 7146   1.402   3.402   4.676
 2380TIP3    H2 7147   1.433   3.551   4.682
 2381TIP3   OH2 7148   4.593   2.903   0.239
 2381TIP3    H1 7149   4.671   2.942   0.279
 2381TIP3    H2 7150   4.625   2.858   0.161
 2382TIP3   OH2 7151   6.129   5.189   1.447
 2382TIP3    H1 7152   6.212   5.145   1.466
 2382TIP3    H2 7153   6.141   5.227   1.360
 2383TIP3   OH2 7154   5.946   4.587   3.140
 2383TIP3    H1 7155   5.940   4.493   3.124
 2383TIP3    H2 7156   6.030   4.612   3.101
 2384TIP3   OH2 7157   4.450   2.359   1.700
 2384TIP3    H1 7158   4.492   2.311   1.772
 2384TIP3    H2 7159   4.357   2.356   1.720
 2385TIP3   OH2 7160   4.908   0.382   5.004
 2385TIP3    H1 7161   4.912   0.463   5.054
 2385TIP3    H2 7162   4.903   0.313   5.071
 2386TIP3   OH2 7163   1.728   0.244   2.573
 2386TIP3    H1 7164   1.729   0.155   2.536
 2386TIP3    H2 7165   1.647   0.282   2.540
 2387TIP3   OH2 7166   4.913   1.397   4.157
 2387TIP3    H1 7167   4.843   1.371   4.217
 2387TIP3    H2 7168   4.870   1.451   4.091
 2388TIP3   OH2 7169   6.185   2.151   5.039
 2388TIP3    H1 7170   6.254   2.197   4.992
 2388TIP3    H2 7171   6.129   2.220   5.074
 2389TIP3   OH2 7172   1.638   0.645   3.885
 2389TIP3    H1 7173   1.630   0.551   3.896
 2389TIP3    H2 7174   1.549   0.679   3.892
 2390TIP3   OH2 7175   5.884   1.090   0.237
 2390TIP3    H1 7176   5.835   1.011   0.215
 2390TIP3    H2 7177   5.972   1.060   0.256
 2391TIP3   OH2 7178   0.510   2.711   0.585
 2391TIP3    H1 7179   0.469   2.753   0.660
 2391TIP3    H2 7180   0.604   2.718   0.601
 2392TIP3   OH2 7181   1.629   0.361   2.047
 2392TIP3    H1 7182   1.613   0.401   1.962
 2392TIP3    H2 7183   1.645   0.435   2.106
 2393TIP3   OH2 7184   5.307   4.368   0.075
 2393TIP3    H1 7185   5.216   4.350   0.099
 2393TIP3    H2 7186   5.341   4.422   0.147
 2394TIP3   OH2 7187   1.215   3.294   4.408
 2394TIP3    H1 7188   1.231   3.229   4.339
 2394TIP3    H2 7189   1.293   3.349   4.408
 2395TIP3   OH2 7190   1.804   2.952   0.619
 2395TIP3    H1 7191   1.767   2.969   0.706
 2395TIP3    H2 7192   1.871   2.886   0.634
 2396TIP3   OH2 7193   1.851   1.722   3.411
 2396TIP3    H1 7194   1.860   1.684   3.499
 2396TIP3    H2 7195   1.758   1.713   3.391
 2397TIP3   OH2 7196   1.662   0.928   1.905
 2397TIP3    H1 7197   1.581   0.890   1.938
 2397TIP3    H2 7198   1.711   0.953   1.983
 2398TIP3   OH2 7199   2.631   2.045   2.377
 2398TIP3    H1 7200   2.719   2.007   2.375
 2398TIP3    H2 7201   2.581   1.988   2.435
 2399TIP3   OH2 7202   4.036   2.684   0.347
 2399TIP3    H1 7203   4.110   2.722   0.395
 2399TIP3    H2 7204   4.063   2.687   0.256
 2400TIP3   OH2 7205   3.058   0.207   0.960
 2400TIP3    H1 7206   3.059   0.136   1.024
 2400TIP3    H2 7207   3.121   0.270   0.993
 2401TIP3   OH2 7208   3.039   2.385   3.008
 2401TIP3    H1 7209   3.053   2.296   3.038
 2401TIP3    H2 7210   3.101   2.397   2.936
 2402TIP3   OH2 7211   0.180   3.330   1.097
 2402TIP3    H1 7212   0.175   3.264   1.167
 2402TIP3    H2 7213   0.140   3.288   1.021
 2403TIP3   OH2 7214   3.341   5.571   3.318
 2403TIP3    H1 7215   3.262   5.524   3.345
 2403TIP3    H2 7216   3.386   5.511   3.258
 2404TIP3   OH2 7217   5.119   3.531   0.038
 2404TIP3    H1 7218   5.079   3.513   0.123
 2404TIP3    H2 7219   5.160   3.618   0.049
 2405TIP3   OH2 7220   1.970   5.835   4.171
 2405TIP3    H1 7221   2.018   5.867   4.094
 2405TIP3    H2 7222   1.997   5.743   4.179
 2406TIP3   OH2 7223   3.277   3.515   2.635
 2406TIP3    H1 7224   3.231   3.468   2.705
 2406TIP3    H2 7225   3.351   3.458   2.613
 2407TIP3   OH2 7226   3.380   0.613   3.625
 2407TIP3    H1 7227   3.380   0.524   3.588
 2407TIP3    H2 7228   3.289   0.641   3.618
 2408TIP3   OH2 7229   4.953   4.781   2.102
 2408TIP3    H1 7230   4.951   4.803   2.008
 2408TIP3    H2 7231   5.036   4.735   2.114
 2409TIP3   OH2 7232   4.870   3.705   2.109
 2409TIP3    H1 7233   4.875   3.640   2.038
 2409TIP3    H2 7234   4.892   3.788   2.067
 2410TIP3   OH2 7235   1.601   0.296   4.656
 2410TIP3    H1 7236   1.682   0.249   4.675
 2410TIP3    H2 7237   1.602   0.372   4.714
 2411TIP3   OH2 7238   0.290   0.204   2.279
 2411TIP3    H1 7239   0.201   0.168   2.275
 2411TIP3    H2 7240   0.326   0.171   2.361
 2412TIP3   OH2 7241   2.915   2.683   0.152
 2412TIP3    H1 7242   2.958   2.766   0.130
 2412TIP3    H2 7243   2.840   2.679   0.093
 2413TIP3   OH2 7244   1.699   5.347   2.136
 2413TIP3    H1 7245   1.619   5.318   2.179
 2413TIP3    H2 7246   1.740   5.407   2.198
 2414TIP3   OH2 7247   4.696   4.920   1.680
 2414TIP3    H1 7248   4.778   4.942   1.634
 2414TIP3    H2 7249   4.628   4.936   1.615
 2415TIP3   OH2 7250   5.831   1.156   5.105
 2415TIP3    H1 7251   5.752   1.203   5.077
 2415TIP3    H2 7252   5.817   1.066   5.075
 2416TIP3   OH2 7253   3.344   1.900   3.635
 2416TIP3    H1 7254   3.282   1.832   3.661
 2416TIP3    H2 7255   3.413   1.895   3.702
 2417TIP3   OH2 7256   1.177   0.482   4.461
 2417TIP3    H1 7257   1.231   0.477   4.540
 2417TIP3    H2 7258   1.239   0.498   4.390
 2418TIP3   OH2 7259   4.212   1.294   0.902
 2418TIP3    H1 7260   4.219   1.305   0.807
 2418TIP3    H2 7261   4.224   1.383   0.937
 2419TIP3   OH2 7262   3.704   0.217   3.874
 2419TIP3    H1 7263   3.780   0.272   3.855
 2419TIP3    H2 7264   3.629   0.277   3.868
 2420TIP3   OH2 7265   0.512   5.147   0.497
 2420TIP3    H1 7266   0.589   5.090   0.506
 2420TIP3    H2 7267   0.513   5.174   0.405
 2421TIP3   OH2 7268   3.128   3.693   3.538
 2421TIP3    H1 7269   3.076   3.667   3.462
 2421TIP3    H2 7270   3.085   3.650   3.612
 2422TIP3   OH2 7271   5.573   5.192   1.663
 2422TIP3    H1 7272   5.662   5.158   1.670
 2422TIP3    H2 7273   5.533   5.142   1.591
 2423TIP3   OH2 7274   4.652   2.086   0.289
 2423TIP3    H1 7275   4.580   2.028   0.313
 2423TIP3    H2 7276   4.612   2.172   0.281
 2424TIP3   OH2 7277   0.215   4.459   1.824
 2424TIP3    H1 7278   0.196   4.523   1.892
 2424TIP3    H2 7279   0.213   4.375   1.868
 2425TIP3   OH2 7280   0.532   0.646   0.072
 2425TIP3    H1 7281   0.605   0.670   0.015
 2425TIP3    H2 7282   0.574   0.599   0.145
 2426TIP3   OH2 7283   6.218   0.152   2.799
 2426TIP3    H1 7284   6.286   0.143   2.732
 2426TIP3    H2 7285   6.152   0.086   2.776
 2427TIP3   OH2 7286   2.970   3.287   0.825
 2427TIP3    H1 7287   3.011   3.284   0.738
 2427TIP3    H2 7288   2.952   3.195   0.845
 2428TIP3   OH2 7289   3.038   3.479   1.921
 2428TIP3    H1 7290   2.980   3.406   1.899
 2428TIP3    H2 7291   3.069   3.460   2.009
 2429TIP3   OH2 7292   0.208   4.600   2.088
 2429TIP3    H1 7293   0.137   4.659   2.113
 2429TIP3    H2 7294   0.280   4.658   2.064
 2430TIP3   OH2 7295   1.474   2.630   1.362
 2430TIP3    H1 7296   1.561   2.592   1.362
 2430TIP3    H2 7297   1.487   2.722   1.340
 2431TIP3   OH2 7298   0.845   0.907   5.145
 2431TIP3    H1 7299   0.758   0.874   5.168
 2431TIP3    H2 7300   0.830   0.965   5.071
 2432TIP3   OH2 7301   2.291   2.156   1.035
 2432TIP3    H1 7302   2.292   2.064   1.009
 2432TIP3    H2 7303   2.198   2.176   1.047
 2433TIP3   OH2 7304   5.543   5.533   1.094
 2433TIP3    H1 7305   5.617   5.566   1.043
 2433TIP3    H2 7306   5.504   5.612   1.132
 2434TIP3   OH2 7307   1.691   3.574   0.257
 2434TIP3    H1 7308   1.719   3.665   0.254
 2434TIP3    H2 7309   1.716   3.543   0.344
 2435TIP3   OH2 7310   0.808   5.698   3.185
 2435TIP3    H1 7311   0.868   5.628   3.211
 2435TIP3    H2 7312   0.745   5.654   3.127
 2436TIP3   OH2 7313   4.380   1.459   1.577
 2436TIP3    H1 7314   4.390   1.514   1.500
 2436TIP3    H2 7315   4.285   1.451   1.589
 2437TIP3   OH2 7316   0.199   0.562   0.692
 2437TIP3    H1 7317   0.287   0.522   0.691
 2437TIP3    H2 7318   0.197   0.616   0.613
 2438TIP3   OH2 7319   0.288   5.935   2.114
 2438TIP3    H1 7320   0.243   5.929   2.030
 2438TIP3    H2 7321   0.221   5.913   2.179
 2439TIP3   OH2 7322   0.638   3.974   4.811
 2439TIP3    H1 7323   0.620   3.886   4.780
 2439TIP3    H2 7324   0.725   3.994   4.777
 2440TIP3   OH2 7325   3.466   2.791   3.966
 2440TIP3    H1 7326   3.435   2.719   4.021
 2440TIP3    H2 7327   3.402   2.797   3.896
 2441TIP3   OH2 7328   1.786   2.989   4.664
 2441TIP3    H1 7329   1.715   2.959   4.721
 2441TIP3    H2 7330   1.827   3.060   4.712
 2442TIP3   OH2 7331   0.602   5.500   4.992
 2442TIP3    H1 7332   0.613   5.461   5.079
 2442TIP3    H2 7333   0.535   5.447   4.950
 2443TIP3   OH2 7334   1.477   3.178   1.208
 2443TIP3    H1 7335   1.403   3.117   1.209
 2443TIP3    H2 7336   1.437   3.265   1.214
 2444TIP3   OH2 7337   5.398   2.203   2.586
 2444TIP3    H1 7338   5.451   2.268   2.539
 2444TIP3    H2 7339   5.376   2.138   2.519
 2445TIP3   OH2 7340   1.475   4.393   3.241
 2445TIP3    H1 7341   1.512   4.306   3.232
 2445TIP3    H2 7342   1.398   4.381   3.296
 2446TIP3   OH2 7343   6.255   1.189   0.212
 2446TIP3    H1 7344   6.230   1.097   0.219
 2446TIP3    H2 7345   6.332   1.189   0.154
 2447TIP3   OH2 7346   1.969   0.510   2.507
 2447TIP3    H1 7347   2.043   0.564   2.533
 2447TIP3    H2 7348   2.009   0.433   2.466
 2448TIP3   OH2 7349   1.236   1.323   2.680
 2448TIP3    H1 7350   1.216   1.357   2.593
 2448TIP3    H2 7351   1.212   1.394   2.740
 2449TIP3   OH2 7352   4.119   0.408   2.957
 2449TIP3    H1 7353   4.197   0.463   2.948
 2449TIP3    H2 7354   4.150   0.320   2.932
 2450TIP3   OH2 7355   4.201   0.629   0.680
 2450TIP3    H1 7356   4.148   0.653   0.756
 2450TIP3    H2 7357   4.138   0.601   0.614
 2451TIP3   OH2 7358   4.228   4.745   2.089
 2451TIP3    H1 7359   4.250   4.739   2.182
 2451TIP3    H2 7360   4.135   4.770   2.087
 2452TIP3   OH2 7361   4.792   2.514   4.552
 2452TIP3    H1 7362   4.751   2.491   4.468
 2452TIP3    H2 7363   4.852   2.442   4.570
 2453TIP3   OH2 7364   4.736   4.516   1.280
 2453TIP3    H1 7365   4.803   4.449   1.295
 2453TIP3    H2 7366   4.660   4.467   1.250
 2454TIP3   OH2 7367   3.204   4.019   1.910
 2454TIP3    H1 7368   3.196   4.101   1.862
 2454TIP3    H2 7369   3.160   3.954   1.854
 2455TIP3   OH2 7370   2.449   1.506   4.182
 2455TIP3    H1 7371   2.467   1.600   4.174
 2455TIP3    H2 7372   2.504   1.465   4.115
 2456TIP3   OH2 7373   3.439   2.899   1.141
 2456TIP3    H1 7374   3.363   2.847   1.166
 2456TIP3    H2 7375   3.510   2.836   1.133
 2457TIP3   OH2 7376   6.108   2.185   3.763
 2457TIP3    H1 7377   6.154   2.265   3.789
 2457TIP3    H2 7378   6.121   2.125   3.837
 2458TIP3   OH2 7379   1.640   3.121   0.219
 2458TIP3    H1 7380   1.690   3.142   0.299
 2458TIP3    H2 7381   1.697   3.149   0.147
 2459TIP3   OH2 7382   5.339   5.422   2.550
 2459TIP3    H1 7383   5.285   5.487   2.505
 2459TIP3    H2 7384   5.407   5.473   2.593
 2460TIP3   OH2 7385   3.593   1.906   1.185
 2460TIP3    H1 7386   3.679   1.866   1.171
 2460TIP3    H2 7387   3.597   1.989   1.139
 2461TIP3   OH2 7388   0.853   4.646   3.302
 2461TIP3    H1 7389   0.833   4.733   3.338
 2461TIP3    H2 7390   0.929   4.661   3.245
 2462TIP3   OH2 7391   2.933   4.459   0.239
 2462TIP3    H1 7392   2.838   4.452   0.227
 2462TIP3    H2 7393   2.948   4.420   0.325
 2463TIP3   OH2 7394   3.271   5.477   4.000
 2463TIP3    H1 7395   3.205   5.545   3.990
 2463TIP3    H2 7396   3.354   5.525   4.007
 2464TIP3   OH2 7397   4.188   5.338   3.783
 2464TIP3    H1 7398   4.216   5.428   3.802
 2464TIP3    H2 7399   4.268   5.286   3.786
 2465TIP3   OH2 7400   4.894   5.579   4.661
 2465TIP3    H1 7401   4.829   5.525   4.705
 2465TIP3    H2 7402   4.846   5.625   4.592
 2466TIP3   OH2 7403   2.588   2.732   4.993
 2466TIP3    H1 7404   2.657   2.709   5.054
 2466TIP3    H2 7405   2.549   2.648   4.968
 2467TIP3   OH2 7406   0.976   5.977   3.247
 2467TIP3    H1 7407   0.944   5.887   3.247
 2467TIP3    H2 7408   1.071   5.970   3.251
 2468TIP3   OH2 7409   3.967   4.131   2.363
 2468TIP3    H1 7410   4.060   4.126   2.342
 2468TIP3    H2 7411   3.939   4.040   2.371
 2469TIP3   OH2 7412   3.790   0.238   1.125
 2469TIP3    H1 7413   3.783   0.160   1.180
 2469TIP3    H2 7414   3.882   0.264   1.131
 2470TIP3   OH2 7415   1.992   4.626   0.423
 2470TIP3    H1 7416   1.965   4.693   0.360
 2470TIP3    H2 7417   1.962   4.544   0.385
 2471TIP3   OH2 7418   5.678   5.756   3.132
 2471TIP3    H1 7419   5.690   5.771   3.038
 2471TIP3    H2 7420   5.624   5.829   3.162
 2472TIP3   OH2 7421   1.236   0.106   0.137
 2472TIP3    H1 7422   1.201   0.052   0.067
 2472TIP3    H2 7423   1.182   0.084   0.213
 2473TIP3   OH2 7424   4.915   0.225   4.753
 2473TIP3    H1 7425   4.916   0.280   4.831
 2473TIP3    H2 7426   4.928   0.285   4.680
 2474TIP3   OH2 7427   5.671   2.459   5.061
 2474TIP3    H1 7428   5.604   2.417   5.115
 2474TIP3    H2 7429   5.637   2.453   4.972
 2475TIP3   OH2 7430   1.686   1.717   4.602
 2475TIP3    H1 7431   1.622   1.647   4.590
 2475TIP3    H2 7432   1.635   1.797   4.596
 2476TIP3   OH2 7433   1.827   4.292   3.164
 2476TIP3    H1 7434   1.793   4.350   3.095
 2476TIP3    H2 7435   1.748   4.259   3.207
 2477TIP3   OH2 7436   0.731   3.961   5.134
 2477TIP3    H1 7437   0.760   4.053   5.136
 2477TIP3    H2 7438   0.798   3.916   5.083
 2478TIP3   OH2 7439   1.999   0.753   3.692
 2478TIP3    H1 7440   2.082   0.732   3.735
 2478TIP3    H2 7441   1.944   0.788   3.763
 2479TIP3   OH2 7442   5.887   0.430   1.389
 2479TIP3    H1 7443   5.836   0.506   1.361
 2479TIP3    H2 7444   5.973   0.466   1.411
 2480TIP3   OH2 7445   1.793   1.011   2.158
 2480TIP3    H1 7446   1.776   0.971   2.243
 2480TIP3    H2 7447   1.724   1.076   2.148
 2481TIP3   OH2 7448   5.073   3.696   2.652
 2481TIP3    H1 7449   5.036   3.644   2.581
 2481TIP3    H2 7450   5.018   3.774   2.656
 2482TIP3   OH2 7451   1.962   4.759   0.780
 2482TIP3    H1 7452   1.884   4.795   0.737
 2482TIP3    H2 7453   2.034   4.779   0.720
 2483TIP3   OH2 7454   5.808   2.706   0.191
 2483TIP3    H1 7455   5.881   2.750   0.148
 2483TIP3    H2 7456   5.787   2.761   0.266
 2484TIP3   OH2 7457   4.213   0.216   2.768
 2484TIP3    H1 7458   4.123   0.194   2.743
 2484TIP3    H2 7459   4.261   0.133   2.761
 2485TIP3   OH2 7460   4.549   5.810   2.243
 2485TIP3    H1 7461   4.459   5.839   2.257
 2485TIP3    H2 7462   4.547   5.716   2.259
 2486TIP3   OH2 7463   2.117   5.582   1.065
 2486TIP3    H1 7464   2.202   5.538   1.073
 2486TIP3    H2 7465   2.113   5.640   1.141
 2487TIP3   OH2 7466   4.536   3.065   2.764
 2487TIP3    H1 7467   4.548   3.155   2.796
 2487TIP3    H2 7468   4.547   3.072   2.669
 2488TIP3   OH2 7469   3.431   5.278   3.440
 2488TIP3    H1 7470   3.346   5.250   3.475
 2488TIP3    H2 7471   3.472   5.325   3.512
 2489TIP3   OH2 7472   3.684   2.513   0.646
 2489TIP3    H1 7473   3.733   2.572   0.588
 2489TIP3    H2 7474   3.751   2.459   0.688
 2490TIP3   OH2 7475   2.414   0.954   1.121
 2490TIP3    H1 7476   2.358   0.888   1.080
 2490TIP3    H2 7477   2.353   1.019   1.156
 2491TIP3   OH2 7478   0.244   2.367   0.980
 2491TIP3    H1 7479   0.326   2.414   0.961
 2491TIP3    H2 7480   0.264   2.276   0.961
 2492TIP3   OH2 7481   4.851   2.058   1.831
 2492TIP3    H1 7482   4.828   1.966   1.846
 2492TIP3    H2 7483   4.897   2.058   1.747
 2493TIP3   OH2 7484   5.502   3.715   0.584
 2493TIP3    H1 7485   5.439   3.643   0.579
 2493TIP3    H2 7486   5.471   3.768   0.658
 2494TIP3   OH2 7487   2.696   0.011   2.060
 2494TIP3    H1 7488   2.716   0.098   2.092
 2494TIP3    H2 7489   2.614   0.022   2.011
 2495TIP3   OH2 7490   5.690   1.327   1.939
 2495TIP3    H1 7491   5.607   1.280   1.927
 2495TIP3    H2 7492   5.705   1.324   2.034
 2496TIP3   OH2 7493   1.783   2.030   2.506
 2496TIP3    H1 7494   1.734   1.988   2.577
 2496TIP3    H2 7495   1.872   1.996   2.515
 2497TIP3   OH2 7496   4.910   2.671   1.941
 2497TIP3    H1 7497   4.986   2.684   1.885
 2497TIP3    H2 7498   4.873   2.758   1.953
 2498TIP3   OH2 7499   3.188   3.978   0.080
 2498TIP3    H1 7500   3.102   3.966   0.040
 2498TIP3    H2 7501   3.239   3.903   0.049
 2499TIP3   OH2 7502   3.306   3.149   3.476
 2499TIP3    H1 7503   3.361   3.101   3.414
 2499TIP3    H2 7504   3.223   3.102   3.475
 2500TIP3   OH2 7505   2.264   2.194   3.280
 2500TIP3    H1 7506   2.250   2.276   3.231
 2500TIP3    H2 7507   2.176   2.166   3.305
 2501TIP3   OH2 7508   4.958   3.443   0.613
 2501TIP3    H1 7509   5.025   3.477   0.673
 2501TIP3    H2 7510   4.884   3.502   0.624
 2502TIP3   OH2 7511   6.259   1.223   2.887
 2502TIP3    H1 7512   6.263   1.159   2.958
 2502TIP3    H2 7513   6.185   1.195   2.834
 2503TIP3   OH2 7514   0.563   1.822   2.820
 2503TIP3    H1 7515   0.629   1.811   2.890
 2503TIP3    H2 7516   0.481   1.792   2.860
 2504TIP3   OH2 7517   4.875   1.624   0.073
 2504TIP3    H1 7518   4.941   1.660   0.133
 2504TIP3    H2 7519   4.794   1.668   0.097
 2505TIP3   OH2 7520   4.737   4.172   2.629
 2505TIP3    H1 7521   4.758   4.137   2.716
 2505TIP3    H2 7522   4.726   4.266   2.643
 2506TIP3   OH2 7523   2.632   1.793   2.913
 2506TIP3    H1 7524   2.663   1.785   3.003
 2506TIP3    H2 7525   2.600   1.705   2.891
 2507TIP3   OH2 7526   6.232   2.899   3.327
 2507TIP3    H1 7527   6.259   2.812   3.299
 2507TIP3    H2 7528   6.206   2.944   3.247
 2508TIP3   OH2 7529   3.254   5.118   4.752
 2508TIP3    H1 7530   3.283   5.109   4.843
 2508TIP3    H2 7531   3.280   5.207   4.727
 2509TIP3   OH2 7532   0.275   3.414   4.321
 2509TIP3    H1 7533   0.256   3.359   4.245
 2509TIP3    H2 7534   0.298   3.500   4.284
 2510TIP3   OH2 7535   3.064   2.442   4.979
 2510TIP3    H1 7536   3.040   2.376   5.044
 2510TIP3    H2 7537   3.084   2.392   4.900
 2511TIP3   OH2 7538   4.689   3.207   1.015
 2511TIP3    H1 7539   4.721   3.124   1.050
 2511TIP3    H2 7540   4.760   3.238   0.958
 2512TIP3   OH2 7541   5.732   1.739   1.528
 2512TIP3    H1 7542   5.654   1.706   1.573
 2512TIP3    H2 7543   5.791   1.664   1.525
 2513TIP3   OH2 7544   2.639   3.999   0.263
 2513TIP3    H1 7545   2.644   4.090   0.235
 2513TIP3    H2 7546   2.620   4.004   0.357
 2514TIP3   OH2 7547   6.184   0.572   0.774
 2514TIP3    H1 7548   6.219   0.521   0.701
 2514TIP3    H2 7549   6.112   0.623   0.736
 2515TIP3   OH2 7550   5.149   1.267   4.261
 2515TIP3    H1 7551   5.157   1.183   4.215
 2515TIP3    H2 7552   5.078   1.312   4.216
 2516TIP3   OH2 7553   0.209   5.652   4.980
 2516TIP3    H1 7554   0.169   5.713   5.042
 2516TIP3    H2 7555   0.224   5.572   5.031
 2517TIP3   OH2 7556   3.405   2.700   3.340
 2517TIP3    H1 7557   3.407   2.616   3.294
 2517TIP3    H2 7558   3.403   2.765   3.270
 2518TIP3   OH2 7559   5.785   4.649   0.961
 2518TIP3    H1 7560   5.867   4.606   0.936
 2518TIP3    H2 7561   5.745   4.674   0.878
 2519TIP3   OH2 7562   0.457   5.683   3.716
 2519TIP3    H1 7563   0.544   5.721   3.701
 2519TIP3    H2 7564   0.464   5.594   3.682
 2520TIP3   OH2 7565   5.433   3.932   3.157
 2520TIP3    H1 7566   5.439   3.838   3.173
 2520TIP3    H2 7567   5.388   3.967   3.234
 2521TIP3   OH2 7568   5.190   5.669   1.275
 2521TIP3    H1 7569   5.134   5.595   1.300
 2521TIP3    H2 7570   5.143   5.746   1.309
 2522TIP3   OH2 7571   1.104   0.822   0.715
 2522TIP3    H1 7572   1.114   0.728   0.735
 2522TIP3    H2 7573   1.094   0.863   0.801
 2523TIP3   OH2 7574   5.245   4.621   4.437
 2523TIP3    H1 7575   5.323   4.571   4.460
 2523TIP3    H2 7576   5.186   4.608   4.511
 2524TIP3   OH2 7577   4.542   1.611   3.843
 2524TIP3    H1 7578   4.628   1.569   3.848
 2524TIP3    H2 7579   4.555   1.685   3.785
 2525TIP3   OH2 7580   5.676   5.103   2.070
 2525TIP3    H1 7581   5.658   5.009   2.064
 2525TIP3    H2 7582   5.601   5.143   2.026
 2526TIP3   OH2 7583   2.276   4.528   2.894
 2526TIP3    H1 7584   2.201   4.576   2.928
 2526TIP3    H2 7585   2.240   4.445   2.862
 2527TIP3   OH2 7586   4.667   4.209   0.347
 2527TIP3    H1 7587   4.680   4.293   0.303
 2527TIP3    H2 7588   4.751   4.191   0.390
 2528TIP3   OH2 7589   5.072   0.856   3.126
 2528TIP3    H1 7590   5.157   0.813   3.134
 2528TIP3    H2 7591   5.036   0.824   3.043
 2529TIP3   OH2 7592   4.877   1.123   4.749
 2529TIP3    H1 7593   4.840   1.044   4.790
 2529TIP3    H2 7594   4.929   1.090   4.676
 2530TIP3   OH2 7595   0.237   3.917   3.138
 2530TIP3    H1 7596   0.242   3.822   3.126
 2530TIP3    H2 7597   0.144   3.937   3.128
 2531TIP3   OH2 7598   4.386   5.871   1.918
 2531TIP3    H1 7599   4.388   5.775   1.910
 2531TIP3    H2 7600   4.369   5.886   2.011
 2532TIP3   OH2 7601   4.259   0.039   3.158
 2532TIP3    H1 7602   4.237   0.087   3.238
 2532TIP3    H2 7603   4.276   0.107   3.093
 2533TIP3   OH2 7604   5.344   2.350   2.816
 2533TIP3    H1 7605   5.390   2.279   2.861
 2533TIP3    H2 7606   5.320   2.313   2.731
 2534TIP3   OH2 7607   1.807   4.504   4.910
 2534TIP3    H1 7608   1.789   4.410   4.919
 2534TIP3    H2 7609   1.897   4.509   4.880
 2535TIP3   OH2 7610   3.469   0.668   0.595
 2535TIP3    H1 7611   3.448   0.587   0.549
 2535TIP3    H2 7612   3.423   0.660   0.679
 2536TIP3   OH2 7613   0.882   3.201   2.703
 2536TIP3    H1 7614   0.912   3.261   2.635
 2536TIP3    H2 7615   0.929   3.228   2.782
 2537TIP3   OH2 7616   2.224   1.215   4.513
 2537TIP3    H1 7617   2.231   1.149   4.444
 2537TIP3    H2 7618   2.228   1.299   4.467
 2538TIP3   OH2 7619   1.141   2.778   4.903
 2538TIP3    H1 7620   1.163   2.796   4.995
 2538TIP3    H2 7621   1.226   2.775   4.859
 2539TIP3   OH2 7622   0.848   2.304   2.974
 2539TIP3    H1 7623   0.812   2.330   2.889
 2539TIP3    H2 7624   0.776   2.258   3.017
 2540TIP3   OH2 7625   0.472   3.357   2.761
 2540TIP3    H1 7626   0.472   3.268   2.725
 2540TIP3    H2 7627   0.396   3.398   2.721
 2541TIP3   OH2 7628   2.905   0.786   4.027
 2541TIP3    H1 7629   2.897   0.745   4.113
 2541TIP3    H2 7630   2.830   0.846   4.023
 2542TIP3   OH2 7631   2.034   4.384   4.612
 2542TIP3    H1 7632   2.045   4.440   4.690
 2542TIP3    H2 7633   1.946   4.405   4.580
 2543TIP3   OH2 7634   5.054   3.759   0.579
 2543TIP3    H1 7635   5.136   3.808   0.576
 2543TIP3    H2 7636   5.079   3.669   0.562
 2544TIP3   OH2 7637   4.590   1.274   0.690
 2544TIP3    H1 7638   4.566   1.366   0.699
 2544TIP3    H2 7639   4.678   1.275   0.653
 2545TIP3   OH2 7640   0.526   4.727   4.231
 2545TIP3    H1 7641   0.562   4.735   4.319
 2545TIP3    H2 7642   0.595   4.761   4.174
 2546TIP3   OH2 7643   0.355   3.237   0.666
 2546TIP3    H1 7644   0.381   3.200   0.751
 2546TIP3    H2 7645   0.293   3.305   0.688
 2547TIP3   OH2 7646   2.893   2.444   0.325
 2547TIP3    H1 7647   2.820   2.393   0.291
 2547TIP3    H2 7648   2.890   2.526   0.275
 2548TIP3   OH2 7649   2.368   4.769   1.527
 2548TIP3    H1 7650   2.414   4.849   1.500
 2548TIP3    H2 7651   2.280   4.799   1.550
 2549TIP3   OH2 7652   3.698   2.895   5.192
 2549TIP3    H1 7653   3.660   2.823   5.242
 2549TIP3    H2 7654   3.667   2.881   5.103
 2550TIP3   OH2 7655   0.992   0.039   3.245
 2550TIP3    H1 7656   0.930  -0.003   3.185
 2550TIP3    H2 7657   0.959   0.128   3.256
 2551TIP3   OH2 7658   0.548   2.916   4.424
 2551TIP3    H1 7659   0.474   2.913   4.364
 2551TIP3    H2 7660   0.510   2.905   4.511
 2552TIP3   OH2 7661   2.230   3.482   2.352
 2552TIP3    H1 7662   2.270   3.468   2.266
 2552TIP3    H2 7663   2.224   3.578   2.359
 2553TIP3   OH2 7664   5.154   2.683   3.160
 2553TIP3    H1 7665   5.213   2.608   3.154
 2553TIP3    H2 7666   5.198   2.752   3.112
 2554TIP3   OH2 7667   1.210   5.750   2.846
 2554TIP3    H1 7668   1.121   5.784   2.856
 2554TIP3    H2 7669   1.200   5.655   2.851
 2555TIP3   OH2 7670   5.582   0.374   4.717
 2555TIP3    H1 7671   5.637   0.418   4.653
 2555TIP3    H2 7672   5.544   0.300   4.669
 2556TIP3   OH2 7673   5.308   5.675   1.583
 2556TIP3    H1 7674   5.403   5.670   1.576
 2556TIP3    H2 7675   5.278   5.587   1.562
 2557TIP3   OH2 7676   0.881   0.212   4.267
 2557TIP3    H1 7677   0.828   0.183   4.341
 2557TIP3    H2 7678   0.868   0.144   4.201
 2558TIP3   OH2 7679   4.849   2.501   2.987
 2558TIP3    H1 7680   4.830   2.446   3.062
 2558TIP3    H2 7681   4.911   2.451   2.935
 2559TIP3   OH2 7682   5.176   5.945   4.761
 2559TIP3    H1 7683   5.087   5.912   4.772
 2559TIP3    H2 7684   5.174   5.992   4.678
 2560TIP3   OH2 7685   2.048   1.289   4.248
 2560TIP3    H1 7686   1.987   1.268   4.318
 2560TIP3    H2 7687   2.123   1.328   4.293
 2561TIP3   OH2 7688   4.473   1.239   4.543
 2561TIP3    H1 7689   4.458   1.331   4.524
 2561TIP3    H2 7690   4.386   1.200   4.543
 2562TIP3   OH2 7691   3.391   3.440   3.802
 2562TIP3    H1 7692   3.447   3.364   3.821
 2562TIP3    H2 7693   3.328   3.441   3.875
 2563TIP3   OH2 7694   5.608   1.187   2.163
 2563TIP3    H1 7695   5.609   1.247   2.238
 2563TIP3    H2 7696   5.642   1.105   2.197
 2564TIP3   OH2 7697   5.352   4.344   2.267
 2564TIP3    H1 7698   5.424   4.404   2.284
 2564TIP3    H2 7699   5.394   4.264   2.234
 2565TIP3   OH2 7700   1.305   5.001   3.994
 2565TIP3    H1 7701   1.390   5.012   3.950
 2565TIP3    H2 7702   1.326   5.005   4.087
 2566TIP3   OH2 7703   3.675   3.577   4.213
 2566TIP3    H1 7704   3.683   3.672   4.225
 2566TIP3    H2 7705   3.634   3.547   4.294
 2567TIP3   OH2 7706   3.387   0.563   2.905
 2567TIP3    H1 7707   3.353   0.562   2.995
 2567TIP3    H2 7708   3.310   0.543   2.851
 2568TIP3   OH2 7709   3.440   5.162   3.201
 2568TIP3    H1 7710   3.416   5.236   3.145
 2568TIP3    H2 7711   3.429   5.194   3.290
 2569TIP3   OH2 7712   1.490   0.954   2.646
 2569TIP3    H1 7713   1.438   0.922   2.572
 2569TIP3    H2 7714   1.482   1.049   2.642
 2570TIP3   OH2 7715   0.819   3.910   1.436
 2570TIP3    H1 7716   0.784   3.997   1.419
 2570TIP3    H2 7717   0.829   3.905   1.531
 2571TIP3   OH2 7718   0.092   4.449   2.779
 2571TIP3    H1 7719   0.013   4.504   2.778
 2571TIP3    H2 7720   0.061   4.363   2.749
 2572TIP3   OH2 7721   1.253   0.538   5.031
 2572TIP3    H1 7722   1.232   0.616   5.083
 2572TIP3    H2 7723   1.296   0.479   5.093
 2573TIP3   OH2 7724   4.893   2.039   4.349
 2573TIP3    H1 7725   4.852   2.083   4.274
 2573TIP3    H2 7726   4.854   2.080   4.425
 2574TIP3   OH2 7727   6.054   2.011   4.314
 2574TIP3    H1 7728   6.040   2.095   4.358
 2574TIP3    H2 7729   6.012   1.947   4.371
 2575TIP3   OH2 7730   0.335   0.150   3.998
 2575TIP3    H1 7731   0.305   0.094   4.069
 2575TIP3    H2 7732   0.355   0.090   3.927
 2576TIP3   OH2 7733   1.758   3.992   4.382
 2576TIP3    H1 7734   1.793   4.079   4.363
 2576TIP3    H2 7735   1.819   3.932   4.340
 2577TIP3   OH2 7736   3.145   4.293   3.053
 2577TIP3    H1 7737   3.208   4.226   3.027
 2577TIP3    H2 7738   3.112   4.329   2.971
 2578TIP3   OH2 7739   1.071   1.295   0.630
 2578TIP3    H1 7740   1.154   1.342   0.637
 2578TIP3    H2 7741   1.096   1.206   0.605
 2579TIP3   OH2 7742   4.424   2.544   2.334
 2579TIP3    H1 7743   4.471   2.558   2.416
 2579TIP3    H2 7744   4.334   2.525   2.362
 2580TIP3   OH2 7745   2.397   3.263   4.270
 2580TIP3    H1 7746   2.436   3.226   4.190
 2580TIP3    H2 7747   2.325   3.316   4.239
 2581TIP3   OH2 7748   0.753   5.542   0.889
 2581TIP3    H1 7749   0.681   5.562   0.829
 2581TIP3    H2 7750   0.713   5.545   0.976
 2582TIP3   OH2 7751   0.188   2.137   0.839
 2582TIP3    H1 7752   0.116   2.105   0.893
 2582TIP3    H2 7753   0.146   2.164   0.757
 2583TIP3   OH2 7754   2.303   5.288   4.751
 2583TIP3    H1 7755   2.296   5.195   4.772
 2583TIP3    H2 7756   2.396   5.302   4.735
 2584TIP3   OH2 7757   4.467   0.483   3.464
 2584TIP3    H1 7758   4.406   0.528   3.406
 2584TIP3    H2 7759   4.493   0.550   3.527
 2585TIP3   OH2 7760   2.929   0.805   2.687
 2585TIP3    H1 7761   2.883   0.876   2.643
 2585TIP3    H2 7762   2.917   0.822   2.780
 2586TIP3   OH2 7763   4.603   3.732   0.897
 2586TIP3    H1 7764   4.609   3.646   0.937
 2586TIP3    H2 7765   4.612   3.793   0.970
 2587TIP3   OH2 7766   0.119   0.072   1.541
 2587TIP3    H1 7767   0.044   0.027   1.579
 2587TIP3    H2 7768   0.177   0.089   1.616
 2588TIP3   OH2 7769   4.387   0.444   1.114
 2588TIP3    H1 7770   4.312   0.495   1.144
 2588TIP3    H2 7771   4.463   0.497   1.140
 2589TIP3   OH2 7772   6.099   2.845   4.492
 2589TIP3    H1 7773   6.125   2.933   4.467
 2589TIP3    H2 7774   6.039   2.857   4.566
 2590TIP3   OH2 7775   4.183   5.846   1.745
 2590TIP3    H1 7776   4.107   5.879   1.792
 2590TIP3    H2 7777   4.258   5.878   1.795
 2591TIP3   OH2 7778   0.339   5.276   1.770
 2591TIP3    H1 7779   0.355   5.357   1.722
 2591TIP3    H2 7780   0.310   5.214   1.704
 2592TIP3   OH2 7781   5.004   4.137   2.296
 2592TIP3    H1 7782   4.924   4.188   2.309
 2592TIP3    H2 7783   4.984   4.051   2.334
 2593TIP3   OH2 7784   3.234   0.938   0.661
 2593TIP3    H1 7785   3.200   0.931   0.750
 2593TIP3    H2 7786   3.326   0.962   0.673
 2594TIP3   OH2 7787   2.257   4.306   3.668
 2594TIP3    H1 7788   2.336   4.277   3.714
 2594TIP3    H2 7789   2.193   4.237   3.686
 2595TIP3   OH2 7790   2.022   3.644   4.768
 2595TIP3    H1 7791   1.990   3.726   4.732
 2595TIP3    H2 7792   2.029   3.586   4.692
 2596TIP3   OH2 7793   0.457   3.789   3.913
 2596TIP3    H1 7794   0.401   3.866   3.924
 2596TIP3    H2 7795   0.546   3.823   3.916
 2597TIP3   OH2 7796   0.441   1.498   3.408
 2597TIP3    H1 7797   0.466   1.571   3.464
 2597TIP3    H2 7798   0.361   1.527   3.363
 2598TIP3   OH2 7799   5.673   0.317   1.209
 2598TIP3    H1 7800   5.657   0.386   1.144
 2598TIP3    H2 7801   5.755   0.344   1.252
 2599TIP3   OH2 7802   0.688   0.157   4.687
 2599TIP3    H1 7803   0.643   0.098   4.747
 2599TIP3    H2 7804   0.628   0.232   4.678
 2600TIP3   OH2 7805   3.143   1.737   3.727
 2600TIP3    H1 7806   3.117   1.744   3.818
 2600TIP3    H2 7807   3.114   1.650   3.700
 2601TIP3   OH2 7808   0.675   0.534   1.213
 2601TIP3    H1 7809   0.730   0.588   1.156
 2601TIP3    H2 7810   0.669   0.450   1.168
 2602TIP3   OH2 7811   1.783   2.976   3.198
 2602TIP3    H1 7812   1.808   2.982   3.106
 2602TIP3    H2 7813   1.861   3.002   3.246
 2603TIP3   OH2 7814   0.271   4.037   0.889
 2603TIP3    H1 7815   0.244   3.965   0.831
 2603TIP3    H2 7816   0.266   3.999   0.977
 2604TIP3   OH2 7817   2.989   2.356   4.524
 2604TIP3    H1 7818   3.066   2.370   4.579
 2604TIP3    H2 7819   2.953   2.273   4.555
 2605TIP3   OH2 7820   0.237   3.261   4.110
 2605TIP3    H1 7821   0.163   3.204   4.088
 2605TIP3    H2 7822   0.280   3.276   4.026
 2606TIP3   OH2 7823   2.805   2.498   4.806
 2606TIP3    H1 7824   2.837   2.421   4.853
 2606TIP3    H2 7825   2.745   2.540   4.868
 2607TIP3   OH2 7826   2.045   0.781   1.250
 2607TIP3    H1 7827   2.046   0.848   1.182
 2607TIP3    H2 7828   2.115   0.806   1.311
 2608TIP3   OH2 7829   4.187   2.230   1.089
 2608TIP3    H1 7830   4.190   2.204   0.997
 2608TIP3    H2 7831   4.279   2.236   1.115
 2609TIP3   OH2 7832   5.686   4.336   2.420
 2609TIP3    H1 7833   5.735   4.285   2.356
 2609TIP3    H2 7834   5.688   4.425   2.384
 2610TIP3   OH2 7835   1.959   2.604   3.019
 2610TIP3    H1 7836   2.011   2.545   2.964
 2610TIP3    H2 7837   1.868   2.574   3.007
 2611TIP3   OH2 7838   2.101   2.800   1.526
 2611TIP3    H1 7839   2.153   2.824   1.449
 2611TIP3    H2 7840   2.091   2.882   1.575
 2612TIP3   OH2 7841   5.736   5.587   1.506
 2612TIP3    H1 7842   5.729   5.516   1.442
 2612TIP3    H2 7843   5.690   5.555   1.583
 2613TIP3   OH2 7844   3.527   3.102   2.873
 2613TIP3    H1 7845   3.523   3.188   2.832
 2613TIP3    H2 7846   3.532   3.120   2.967
 2614TIP3   OH2 7847   4.618   2.680   3.001
 2614TIP3    H1 7848   4.615   2.732   3.081
 2614TIP3    H2 7849   4.684   2.613   3.019
 2615TIP3   OH2 7850   2.993   2.609   2.681
 2615TIP3    H1 7851   3.029   2.698   2.684
 2615TIP3    H2 7852   2.936   2.604   2.758
 2616TIP3   OH2 7853   1.115   1.457   2.465
 2616TIP3    H1 7854   1.131   1.511   2.387
 2616TIP3    H2 7855   1.076   1.377   2.430
 2617TIP3   OH2 7856   0.315   1.249   2.311
 2617TIP3    H1 7857   0.243   1.190   2.334
 2617TIP3    H2 7858   0.385   1.191   2.282
 2618TIP3   OH2 7859   1.376   3.880   2.407
 2618TIP3    H1 7860   1.303   3.941   2.416
 2618TIP3    H2 7861   1.388   3.870   2.313
 2619TIP3   OH2 7862   4.130   0.388   1.359
 2619TIP3    H1 7863   4.104   0.375   1.268
 2619TIP3    H2 7864   4.083   0.467   1.386
 2620TIP3   OH2 7865   1.996   4.429   1.463
 2620TIP3    H1 7866   2.090   4.409   1.460
 2620TIP3    H2 7867   1.971   4.445   1.372
 2621TIP3   OH2 7868   4.837   2.550   0.082
 2621TIP3    H1 7869   4.910   2.602   0.048
 2621TIP3    H2 7870   4.759   2.598   0.054
 2622TIP3   OH2 7871   4.780   2.751   1.223
 2622TIP3    H1 7872   4.831   2.672   1.243
 2622TIP3    H2 7873   4.703   2.744   1.280
 2623TIP3   OH2 7874   5.800   5.072   2.322
 2623TIP3    H1 7875   5.769   4.984   2.300
 2623TIP3    H2 7876   5.767   5.127   2.252
 2624TIP3   OH2 7877   3.294   5.905   4.862
 2624TIP3    H1 7878   3.320   5.921   4.953
 2624TIP3    H2 7879   3.370   5.933   4.810
 2625TIP3   OH2 7880   1.157   4.153   4.682
 2625TIP3    H1 7881   1.197   4.222   4.735
 2625TIP3    H2 7882   1.126   4.199   4.603
 2626TIP3   OH2 7883   0.403   1.573   4.075
 2626TIP3    H1 7884   0.420   1.589   3.982
 2626TIP3    H2 7885   0.368   1.657   4.107
 2627TIP3   OH2 7886   4.671   4.678   1.823
 2627TIP3    H1 7887   4.667   4.756   1.768
 2627TIP3    H2 7888   4.744   4.627   1.787
 2628TIP3   OH2 7889   3.575   2.149   3.339
 2628TIP3    H1 7890   3.616   2.063   3.330
 2628TIP3    H2 7891   3.486   2.130   3.371
 2629TIP3   OH2 7892   2.784   3.355   0.534
 2629TIP3    H1 7893   2.872   3.322   0.518
 2629TIP3    H2 7894   2.769   3.419   0.465
 2630TIP3   OH2 7895   4.940   1.348   1.556
 2630TIP3    H1 7896   4.910   1.421   1.610
 2630TIP3    H2 7897   5.035   1.361   1.548
 2631TIP3   OH2 7898   4.263   0.135   1.304
 2631TIP3    H1 7899   4.202   0.151   1.232
 2631TIP3    H2 7900   4.339   0.190   1.284
 2632TIP3   OH2 7901   1.511   0.902   4.225
 2632TIP3    H1 7902   1.563   0.936   4.152
 2632TIP3    H2 7903   1.558   0.823   4.254
 2633TIP3   OH2 7904   6.049   0.634   5.063
 2633TIP3    H1 7905   6.015   0.606   4.978
 2633TIP3    H2 7906   5.991   0.591   5.127
 2634TIP3   OH2 7907   4.812   5.697   1.237
 2634TIP3    H1 7908   4.740   5.723   1.181
 2634TIP3    H2 7909   4.796   5.741   1.320
 2635TIP3   OH2 7910   3.604   1.161   3.264
 2635TIP3    H1 7911   3.684   1.118   3.295
 2635TIP3    H2 7912   3.608   1.152   3.169
 2636TIP3   OH2 7913   1.933   4.982   4.035
 2636TIP3    H1 7914   1.901   4.894   4.013
 2636TIP3    H2 7915   2.005   4.997   3.973
 2637TIP3   OH2 7916   4.281   4.693   2.998
 2637TIP3    H1 7917   4.214   4.691   2.930
 2637TIP3    H2 7918   4.280   4.783   3.030
 2638TIP3   OH2 7919   5.191   2.166   1.910
 2638TIP3    H1 7920   5.193   2.071   1.898
 2638TIP3    H2 7921   5.117   2.181   1.969
 2639TIP3   OH2 7922   3.247   5.667   3.001
 2639TIP3    H1 7923   3.335   5.691   2.974
 2639TIP3    H2 7924   3.250   5.572   3.015
 2640TIP3   OH2 7925   2.853   4.201   4.466
 2640TIP3    H1 7926   2.904   4.213   4.547
 2640TIP3    H2 7927   2.919   4.205   4.396
 2641TIP3   OH2 7928   2.960   1.974   4.050
 2641TIP3    H1 7929   2.978   1.887   4.015
 2641TIP3    H2 7930   2.940   2.027   3.973
 2642TIP3   OH2 7931   0.176   5.925   0.960
 2642TIP3    H1 7932   0.140   5.978   1.032
 2642TIP3    H2 7933   0.266   5.956   0.950
 2643TIP3   OH2 7934   4.804   4.794   3.603
 2643TIP3    H1 7935   4.803   4.786   3.699
 2643TIP3    H2 7936   4.719   4.760   3.575
 2644TIP3   OH2 7937   1.978   3.139   3.355
 2644TIP3    H1 7938   1.894   3.181   3.372
 2644TIP3    H2 7939   2.024   3.199   3.297
 2645TIP3   OH2 7940   0.947   0.822   1.762
 2645TIP3    H1 7941   0.886   0.830   1.835
 2645TIP3    H2 7942   0.943   0.730   1.736
 2646TIP3   OH2 7943   3.769   4.351   3.979
 2646TIP3    H1 7944   3.827   4.280   4.006
 2646TIP3    H2 7945   3.756   4.403   4.059
 2647TIP3   OH2 7946   3.068   1.762   4.298
 2647TIP3    H1 7947   3.128   1.826   4.261
 2647TIP3    H2 7948   3.124   1.686   4.319
 2648TIP3   OH2 7949   6.176   0.812   3.419
 2648TIP3    H1 7950   6.255   0.765   3.444
 2648TIP3    H2 7951   6.124   0.746   3.372
 2649TIP3   OH2 7952   3.537   1.142   1.720
 2649TIP3    H1 7953   3.489   1.069   1.681
 2649TIP3    H2 7954   3.629   1.119   1.711
 2650TIP3   OH2 7955   3.405   0.130   1.944
 2650TIP3    H1 7956   3.499   0.130   1.926
 2650TIP3    H2 7957   3.394   0.061   2.010
 2651TIP3   OH2 7958   0.745   0.251   3.519
 2651TIP3    H1 7959   0.832   0.275   3.550
 2651TIP3    H2 7960   0.699   0.223   3.598
 2652TIP3   OH2 7961   5.851   5.838   4.422
 2652TIP3    H1 7962   5.940   5.803   4.430
 2652TIP3    H2 7963   5.837   5.887   4.502
 2653TIP3   OH2 7964   0.142   2.025   1.723
 2653TIP3    H1 7965   0.068   1.966   1.708
 2653TIP3    H2 7966   0.196   1.979   1.788
 2654TIP3   OH2 7967   4.236   5.390   3.507
 2654TIP3    H1 7968   4.312   5.448   3.519
 2654TIP3    H2 7969   4.221   5.352   3.593
 2655TIP3   OH2 7970   4.899   3.250   0.435
 2655TIP3    H1 7971   4.832   3.287   0.376
 2655TIP3    H2 7972   4.925   3.323   0.491
 2656TIP3   OH2 7973   5.743   5.593   2.881
 2656TIP3    H1 7974   5.743   5.588   2.977
 2656TIP3    H2 7975   5.831   5.566   2.856
 2657TIP3   OH2 7976   1.964   3.047   1.046
 2657TIP3    H1 7977   1.878   3.055   1.005
 2657TIP3    H2 7978   2.016   2.994   0.985
 2658TIP3   OH2 7979   5.293   4.639   4.999
 2658TIP3    H1 7980   5.240   4.560   5.009
 2658TIP3    H2 7981   5.313   4.665   5.089
 2659TIP3   OH2 7982   4.674   3.177   4.728
 2659TIP3    H1 7983   4.663   3.186   4.633
 2659TIP3    H2 7984   4.746   3.115   4.739
 2660TIP3   OH2 7985   2.884   5.049   3.214
 2660TIP3    H1 7986   2.791   5.038   3.194
 2660TIP3    H2 7987   2.891   5.138   3.250
 2661TIP3   OH2 7988   1.699   5.383   1.038
 2661TIP3    H1 7989   1.644   5.376   0.960
 2661TIP3    H2 7990   1.750   5.463   1.025
 2662TIP3   OH2 7991   4.582   4.751   0.086
 2662TIP3    H1 7992   4.581   4.727  -0.007
 2662TIP3    H2 7993   4.624   4.677   0.130
 2663TIP3   OH2 7994   0.065   5.894   3.457
 2663TIP3    H1 7995   0.152   5.866   3.427
 2663TIP3    H2 7996   0.036   5.825   3.516
 2664TIP3   OH2 7997   1.713   2.864   5.010
 2664TIP3    H1 7998   1.688   2.793   4.951
 2664TIP3    H2 7999   1.762   2.821   5.081
 2665TIP3   OH2 8000   5.260   0.490   0.482
 2665TIP3    H1 8001   5.341   0.523   0.522
 2665TIP3    H2 8002   5.224   0.429   0.547
 2666TIP3   OH2 8003   5.690   1.439   2.272
 2666TIP3    H1 8004   5.598   1.463   2.284
 2666TIP3    H2 8005   5.733   1.519   2.244
 2667TIP3   OH2 8006   4.631   5.641   1.828
 2667TIP3    H1 8007   4.649   5.714   1.888
 2667TIP3    H2 8008   4.543   5.612   1.852
 2668TIP3   OH2 8009   1.842   3.193   0.056
 2668TIP3    H1 8010   1.902   3.123   0.032
 2668TIP3    H2 8011   1.897   3.260   0.096
 2669TIP3   OH2 8012   1.768   0.231   5.009
 2669TIP3    H1 8013   1.843   0.205   5.063
 2669TIP3    H2 8014   1.763   0.163   4.941
 2670TIP3   OH2 8015   1.175   5.972   4.245
 2670TIP3    H1 8016   1.082   5.989   4.230
 2670TIP3    H2 8017   1.218   6.006   4.166
 2671TIP3   OH2 8018   4.166   0.155   4.858
 2671TIP3    H1 8019   4.259   0.157   4.837
 2671TIP3    H2 8020   4.140   0.064   4.846
 2672TIP3   OH2 8021   4.261   4.963   0.849
 2672TIP3    H1 8022   4.186   4.905   0.863
 2672TIP3    H2 8023   4.335   4.917   0.889
 2673TIP3   OH2 8024   6.118   3.280   1.401
 2673TIP3    H1 8025   6.068   3.237   1.332
 2673TIP3    H2 8026   6.210   3.264   1.377
 2674TIP3   OH2 8027   1.631   1.957   3.900
 2674TIP3    H1 8028   1.710   1.934   3.852
 2674TIP3    H2 8029   1.574   1.998   3.835
 2675TIP3   OH2 8030   4.590   2.309   1.398
 2675TIP3    H1 8031   4.679   2.326   1.428
 2675TIP3    H2 8032   4.561   2.232   1.447
 2676TIP3   OH2 8033   5.550   0.618   2.152
 2676TIP3    H1 8034   5.538   0.595   2.244
 2676TIP3    H2 8035   5.518   0.708   2.145
 2677TIP3   OH2 8036   1.365   3.400   1.291
 2677TIP3    H1 8037   1.422   3.469   1.258
 2677TIP3    H2 8038   1.383   3.397   1.385
 2678TIP3   OH2 8039   5.005   0.150   1.954
 2678TIP3    H1 8040   5.101   0.142   1.956
 2678TIP3    H2 8041   4.988   0.216   1.887
 2679TIP3   OH2 8042   4.181   5.310   0.427
 2679TIP3    H1 8043   4.131   5.230   0.444
 2679TIP3    H2 8044   4.115   5.379   0.424
 2680TIP3   OH2 8045   6.122   2.453   2.576
 2680TIP3    H1 8046   6.115   2.455   2.671
 2680TIP3    H2 8047   6.217   2.451   2.559
 2681TIP3   OH2 8048   1.522   4.507   1.405
 2681TIP3    H1 8049   1.590   4.474   1.464
 2681TIP3    H2 8050   1.448   4.446   1.418
 2682TIP3   OH2 8051   1.036   2.695   0.450
 2682TIP3    H1 8052   0.966   2.757   0.431
 2682TIP3    H2 8053   0.992   2.610   0.460
 2683TIP3   OH2 8054   4.658   2.824   4.881
 2683TIP3    H1 8055   4.735   2.870   4.848
 2683TIP3    H2 8056   4.689   2.778   4.959
 2684TIP3   OH2 8057   4.045   0.810   2.521
 2684TIP3    H1 8058   3.985   0.802   2.447
 2684TIP3    H2 8059   4.087   0.896   2.509
 2685TIP3   OH2 8060   2.605   0.957   3.076
 2685TIP3    H1 8061   2.640   0.940   3.164
 2685TIP3    H2 8062   2.596   1.052   3.073
 2686TIP3   OH2 8063   3.812   3.885   0.150
 2686TIP3    H1 8064   3.739   3.946   0.156
 2686TIP3    H2 8065   3.774   3.805   0.115
 2687TIP3   OH2 8066   5.554   3.402   4.250
 2687TIP3    H1 8067   5.547   3.468   4.181
 2687TIP3    H2 8068   5.630   3.349   4.225
 2688TIP3   OH2 8069   3.273   2.656   3.028
 2688TIP3    H1 8070   3.284   2.583   3.090
 2688TIP3    H2 8071   3.181   2.681   3.038
 2689TIP3   OH2 8072   4.839   1.720   2.951
 2689TIP3    H1 8073   4.817   1.644   3.005
 2689TIP3    H2 8074   4.929   1.705   2.922
 2690TIP3   OH2 8075   5.028   5.250   0.669
 2690TIP3    H1 8076   4.966   5.269   0.598
 2690TIP3    H2 8077   5.100   5.311   0.655
 2691TIP3   OH2 8078   2.193   2.740   4.290
 2691TIP3    H1 8079   2.097   2.740   4.294
 2691TIP3    H2 8080   2.217   2.832   4.298
 2692TIP3   OH2 8081   3.942   1.922   3.961
 2692TIP3    H1 8082   4.000   1.959   3.894
 2692TIP3    H2 8083   3.905   1.998   4.005
 2693TIP3   OH2 8084   1.689   2.038   0.192
 2693TIP3    H1 8085   1.628   2.014   0.121
 2693TIP3    H2 8086   1.703   2.132   0.180
 2694TIP3   OH2 8087   5.842   5.897   4.901
 2694TIP3    H1 8088   5.882   5.908   4.988
 2694TIP3    H2 8089   5.862   5.806   4.877
 2695TIP3   OH2 8090   4.846   1.745   4.333
 2695TIP3    H1 8091   4.916   1.690   4.297
 2695TIP3    H2 8092   4.892   1.819   4.371
 2696TIP3   OH2 8093   1.022   3.934   3.067
 2696TIP3    H1 8094   0.952   3.883   3.109
 2696TIP3    H2 8095   1.072   3.869   3.018
 2697TIP3   OH2 8096   0.193   4.892   1.269
 2697TIP3    H1 8097   0.149   4.838   1.335
 2697TIP3    H2 8098   0.286   4.887   1.292
 2698TIP3   OH2 8099   1.425   3.860   0.455
 2698TIP3    H1 8100   1.435   3.801   0.530
 2698TIP3    H2 8101   1.425   3.802   0.379
 2699TIP3   OH2 8102   1.437   1.792   1.857
 2699TIP3    H1 8103   1.440   1.857   1.786
 2699TIP3    H2 8104   1.529   1.774   1.877
 2700TIP3   OH2 8105   4.304   3.555   3.429
 2700TIP3    H1 8106   4.295   3.625   3.365
 2700TIP3    H2 8107   4.299   3.598   3.514
 2701TIP3   OH2 8108   5.302   4.046   3.356
 2701TIP3    H1 8109   5.212   4.058   3.387
 2701TIP3    H2 8110   5.353   4.111   3.404
 2702TIP3   OH2 8111   5.454   0.241   2.957
 2702TIP3    H1 8112   5.419   0.152   2.951
 2702TIP3    H2 8113   5.546   0.230   2.979
 2703TIP3   OH2 8114   6.193   4.569   2.935
 2703TIP3    H1 8115   6.158   4.508   2.869
 2703TIP3    H2 8116   6.162   4.655   2.906
 2704TIP3   OH2 8117   4.954   4.746   0.100
 2704TIP3    H1 8118   5.001   4.679   0.149
 2704TIP3    H2 8119   4.872   4.758   0.148
 2705TIP3   OH2 8120   2.238   1.560   0.148
 2705TIP3    H1 8121   2.266   1.622   0.215
 2705TIP3    H2 8122   2.143   1.572   0.142
 2706TIP3   OH2 8123   6.017   3.546   2.738
 2706TIP3    H1 8124   6.092   3.600   2.763
 2706TIP3    H2 8125   5.941   3.591   2.776
 2707TIP3   OH2 8126   4.797   5.248   4.533
 2707TIP3    H1 8127   4.769   5.305   4.604
 2707TIP3    H2 8128   4.854   5.303   4.479
 2708TIP3   OH2 8129   5.892   3.433   3.046
 2708TIP3    H1 8130   5.842   3.468   3.119
 2708TIP3    H2 8131   5.977   3.477   3.051
 2709TIP3   OH2 8132   1.736   1.020   4.539
 2709TIP3    H1 8133   1.671   0.951   4.551
 2709TIP3    H2 8134   1.762   1.045   4.628
 2710TIP3   OH2 8135   0.649   5.012   4.374
 2710TIP3    H1 8136   0.622   4.931   4.418
 2710TIP3    H2 8137   0.738   4.995   4.343
 2711TIP3   OH2 8138   1.340   3.353   4.859
 2711TIP3    H1 8139   1.264   3.311   4.819
 2711TIP3    H2 8140   1.383   3.282   4.907
 2712TIP3   OH2 8141   0.763   1.219   4.610
 2712TIP3    H1 8142   0.687   1.211   4.552
 2712TIP3    H2 8143   0.779   1.129   4.640
 2713TIP3   OH2 8144   5.546   1.397   2.913
 2713TIP3    H1 8145   5.591   1.313   2.900
 2713TIP3    H2 8146   5.513   1.393   3.003
 2714TIP3   OH2 8147   1.399   2.532   0.749
 2714TIP3    H1 8148   1.419   2.439   0.736
 2714TIP3    H2 8149   1.378   2.564   0.661
 2715TIP3   OH2 8150   3.010   4.875   4.774
 2715TIP3    H1 8151   2.922   4.841   4.759
 2715TIP3    H2 8152   3.027   4.857   4.867
 2716TIP3   OH2 8153   2.419   1.359   4.965
 2716TIP3    H1 8154   2.333   1.396   4.947
 2716TIP3    H2 8155   2.432   1.293   4.897
 2717TIP3   OH2 8156   2.956   1.877   3.611
 2717TIP3    H1 8157   3.029   1.821   3.637
 2717TIP3    H2 8158   2.944   1.937   3.685
 2718TIP3   OH2 8159   2.150   1.418   1.057
 2718TIP3    H1 8160   2.146   1.413   1.153
 2718TIP3    H2 8161   2.086   1.353   1.027
 2719TIP3   OH2 8162   5.658   4.663   1.259
 2719TIP3    H1 8163   5.596   4.723   1.217
 2719TIP3    H2 8164   5.721   4.641   1.190
 2720TIP3   OH2 8165   4.840   5.602   1.660
 2720TIP3    H1 8166   4.824   5.690   1.626
 2720TIP3    H2 8167   4.758   5.577   1.703
 2721TIP3   OH2 8168   4.023   4.939   4.055
 2721TIP3    H1 8169   3.977   4.899   3.981
 2721TIP3    H2 8170   4.006   5.033   4.046
 2722TIP3   OH2 8171   4.608   1.625   3.508
 2722TIP3    H1 8172   4.641   1.683   3.577
 2722TIP3    H2 8173   4.517   1.652   3.496
 2723TIP3   OH2 8174   2.919   2.179   1.082
 2723TIP3    H1 8175   2.913   2.158   1.176
 2723TIP3    H2 8176   2.923   2.274   1.079
 2724TIP3   OH2 8177   2.134   3.051   1.654
 2724TIP3    H1 8178   2.210   3.053   1.712
 2724TIP3    H2 8179   2.060   3.069   1.712
 2725TIP3   OH2 8180   4.309   3.575   2.311
 2725TIP3    H1 8181   4.313   3.504   2.247
 2725TIP3    H2 8182   4.292   3.532   2.395
 2726TIP3   OH2 8183   3.224   3.498   3.019
 2726TIP3    H1 8184   3.223   3.571   3.081
 2726TIP3    H2 8185   3.269   3.428   3.066
 2727TIP3   OH2 8186   0.590   0.676   5.139
 2727TIP3    H1 8187   0.604   0.582   5.150
 2727TIP3    H2 8188   0.544   0.703   5.218
 2728TIP3   OH2 8189   0.926   5.733   0.336
 2728TIP3    H1 8190   0.908   5.755   0.245
 2728TIP3    H2 8191   0.886   5.804   0.386
 2729TIP3   OH2 8192   4.174   0.986   5.028
 2729TIP3    H1 8193   4.184   1.022   4.940
 2729TIP3    H2 8194   4.248   1.024   5.077
 2730TIP3   OH2 8195   3.919   3.839   2.403
 2730TIP3    H1 8196   3.837   3.791   2.412
 2730TIP3    H2 8197   3.973   3.784   2.347
 2731TIP3   OH2 8198   4.037   4.448   4.116
 2731TIP3    H1 8199   4.000   4.529   4.151
 2731TIP3    H2 8200   3.975   4.380   4.142
 2732TIP3   OH2 8201   4.100   1.095   2.549
 2732TIP3    H1 8202   4.047   1.174   2.537
 2732TIP3    H2 8203   4.190   1.128   2.552
 2733TIP3   OH2 8204   0.274   2.182   4.995
 2733TIP3    H1 8205   0.311   2.161   5.081
 2733TIP3    H2 8206   0.197   2.236   5.015
 2734TIP3   OH2 8207   1.040   2.090   4.337
 2734TIP3    H1 8208   1.051   2.102   4.431
 2734TIP3    H2 8209   0.966   2.029   4.329
 2735TIP3   OH2 8210   0.466   5.108   5.102
 2735TIP3    H1 8211   0.401   5.132   5.168
 2735TIP3    H2 8212   0.543   5.160   5.124
 2736TIP3   OH2 8213   3.911   2.245   0.434
 2736TIP3    H1 8214   3.851   2.185   0.389
 2736TIP3    H2 8215   3.891   2.331   0.396
 2737TIP3   OH2 8216   0.884   2.484   3.451
 2737TIP3    H1 8217   0.891   2.579   3.438
 2737TIP3    H2 8218   0.901   2.446   3.365
 2738TIP3   OH2 8219   0.956   5.348   4.835
 2738TIP3    H1 8220   0.939   5.325   4.927
 2738TIP3    H2 8221   1.019   5.282   4.806
 2739TIP3   OH2 8222   3.151   3.210   3.157
 2739TIP3    H1 8223   3.134   3.295   3.197
 2739TIP3    H2 8224   3.245   3.211   3.139
 2740TIP3   OH2 8225   5.394   1.594   2.448
 2740TIP3    H1 8226   5.307   1.634   2.446
 2740TIP3    H2 8227   5.394   1.532   2.375
 2741TIP3   OH2 8228   4.193   2.936   3.466
 2741TIP3    H1 8229   4.191   2.850   3.424
 2741TIP3    H2 8230   4.269   2.980   3.429
 2742TIP3   OH2 8231   2.478   5.649   3.634
 2742TIP3    H1 8232   2.417   5.676   3.566
 2742TIP3    H2 8233   2.550   5.607   3.587
 2743TIP3   OH2 8234   4.739   1.749   0.895
 2743TIP3    H1 8235   4.707   1.678   0.951
 2743TIP3    H2 8236   4.659   1.793   0.865
 2744TIP3   OH2 8237   3.085   0.399   2.596
 2744TIP3    H1 8238   3.013   0.456   2.570
 2744TIP3    H2 8239   3.128   0.445   2.668
 2745TIP3   OH2 8240   0.748   5.655   2.299
 2745TIP3    H1 8241   0.673   5.640   2.242
 2745TIP3    H2 8242   0.806   5.581   2.281
 2746TIP3   OH2 8243   2.730   3.087   0.351
 2746TIP3    H1 8244   2.793   3.071   0.420
 2746TIP3    H2 8245   2.780   3.084   0.270
 2747TIP3   OH2 8246   0.897   0.480   4.535
 2747TIP3    H1 8247   0.980   0.503   4.492
 2747TIP3    H2 8248   0.875   0.557   4.586
 2748TIP3   OH2 8249   0.986   0.318   3.815
 2748TIP3    H1 8250   0.987   0.371   3.895
 2748TIP3    H2 8251   0.928   0.244   3.837
 2749TIP3   OH2 8252   2.835   0.803   2.333
 2749TIP3    H1 8253   2.914   0.829   2.284
 2749TIP3    H2 8254   2.844   0.847   2.417
 2750TIP3   OH2 8255   5.894   0.761   0.977
 2750TIP3    H1 8256   5.961   0.743   1.043
 2750TIP3    H2 8257   5.921   0.844   0.937
 2751TIP3   OH2 8258   0.764   2.108   2.646
 2751TIP3    H1 8259   0.837   2.119   2.584
 2751TIP3    H2 8260   0.767   2.187   2.700
 2752TIP3   OH2 8261   1.731   0.191   2.257
 2752TIP3    H1 8262   1.712   0.256   2.324
 2752TIP3    H2 8263   1.701   0.231   2.175
 2753TIP3   OH2 8264   5.121   5.399   2.123
 2753TIP3    H1 8265   5.082   5.431   2.204
 2753TIP3    H2 8266   5.214   5.423   2.130
 2754TIP3   OH2 8267   3.525   0.929   0.684
 2754TIP3    H1 8268   3.496   0.842   0.657
 2754TIP3    H2 8269   3.617   0.933   0.658
 2755TIP3   OH2 8270   0.839   1.240   1.132
 2755TIP3    H1 8271   0.886   1.260   1.051
 2755TIP3    H2 8272   0.748   1.266   1.115
 2756TIP3   OH2 8273   6.235   3.819   3.714
 2756TIP3    H1 8274   6.164   3.772   3.759
 2756TIP3    H2 8275   6.190   3.867   3.645
 2757TIP3   OH2 8276   1.459   5.156   1.502
 2757TIP3    H1 8277   1.441   5.133   1.410
 2757TIP3    H2 8278   1.378   5.134   1.548
 2758TIP3   OH2 8279   3.943   4.294   2.581
 2758TIP3    H1 8280   3.965   4.235   2.509
 2758TIP3    H2 8281   4.016   4.356   2.584
 2759TIP3   OH2 8282   2.620   4.804   2.613
 2759TIP3    H1 8283   2.676   4.770   2.543
 2759TIP3    H2 8284   2.584   4.725   2.654
 2760TIP3   OH2 8285   5.158   2.894   2.815
 2760TIP3    H1 8286   5.221   2.871   2.883
 2760TIP3    H2 8287   5.106   2.814   2.803
 2761TIP3   OH2 8288   2.422   1.630   3.862
 2761TIP3    H1 8289   2.382   1.564   3.806
 2761TIP3    H2 8290   2.446   1.701   3.802
 2762TIP3   OH2 8291   0.056   2.981   2.477
 2762TIP3    H1 8292   0.102   2.978   2.561
 2762TIP3    H2 8293   0.051   2.889   2.449
 2763TIP3   OH2 8294   2.282   1.378   2.637
 2763TIP3    H1 8295   2.209   1.316   2.629
 2763TIP3    H2 8296   2.261   1.429   2.715
 2764TIP3   OH2 8297   6.111   4.947   5.150
 2764TIP3    H1 8298   6.025   4.908   5.134
 2764TIP3    H2 8299   6.129   4.998   5.071
 2765TIP3   OH2 8300   1.347   2.909   3.159
 2765TIP3    H1 8301   1.399   2.841   3.116
 2765TIP3    H2 8302   1.257   2.879   3.152
 2766TIP3   OH2 8303   5.144   5.438   0.181
 2766TIP3    H1 8304   5.127   5.367   0.243
 2766TIP3    H2 8305   5.058   5.470   0.155
 2767TIP3   OH2 8306   5.013   1.481   3.086
 2767TIP3    H1 8307   5.039   1.455   2.998
 2767TIP3    H2 8308   5.086   1.454   3.142
 2768TIP3   OH2 8309   0.264   0.457   2.342
 2768TIP3    H1 8310   0.323   0.490   2.275
 2768TIP3    H2 8311   0.257   0.363   2.323
 2769TIP3   OH2 8312   4.182   5.365   4.888
 2769TIP3    H1 8313   4.199   5.455   4.861
 2769TIP3    H2 8314   4.237   5.311   4.831
 2770TIP3   OH2 8315   0.064   4.303   1.347
 2770TIP3    H1 8316  -0.002   4.262   1.292
 2770TIP3    H2 8317   0.094   4.233   1.405
 2771TIP3   OH2 8318   5.437   5.196   0.724
 2771TIP3    H1 8319   5.384   5.258   0.774
 2771TIP3    H2 8320   5.527   5.222   0.741
 2772TIP3   OH2 8321   1.970   1.836   2.591
 2772TIP3    H1 8322   1.937   1.750   2.616
 2772TIP3    H2 8323   2.020   1.865   2.667
 2773TIP3   OH2 8324   4.095   2.003   4.877
 2773TIP3    H1 8325   4.004   2.007   4.849
 2773TIP3    H2 8326   4.128   1.921   4.841
 2774TIP3   OH2 8327   3.387   2.100   2.111
 2774TIP3    H1 8328   3.369   2.173   2.170
 2774TIP3    H2 8329   3.428   2.034   2.167
 2775TIP3   OH2 8330   3.126   3.591   0.007
 2775TIP3    H1 8331   3.031   3.581  -0.006
 2775TIP3    H2 8332   3.146   3.532   0.080
 2776TIP3   OH2 8333   4.692   2.076   3.321
 2776TIP3    H1 8334   4.757   2.146   3.311
 2776TIP3    H2 8335   4.727   2.004   3.269
 2777TIP3   OH2 8336   0.643   2.198   0.041
 2777TIP3    H1 8337   0.686   2.214   0.125
 2777TIP3    H2 8338   0.669   2.273  -0.013
 2778TIP3   OH2 8339   3.713   4.921   5.157
 2778TIP3    H1 8340   3.671   4.920   5.071
 2778TIP3    H2 8341   3.759   4.837   5.162
 2779TIP3   OH2 8342   2.319   0.955   3.731
 2779TIP3    H1 8343   2.253   0.974   3.798
 2779TIP3    H2 8344   2.390   0.912   3.779
 2780TIP3   OH2 8345   3.642   4.869   4.398
 2780TIP3    H1 8346   3.655   4.856   4.305
 2780TIP3    H2 8347   3.667   4.786   4.438
 2781TIP3   OH2 8348   3.918   3.741   0.353
 2781TIP3    H1 8349   3.873   3.791   0.285
 2781TIP3    H2 8350   3.891   3.650   0.338
 2782TIP3   OH2 8351   3.732   5.329   2.147
 2782TIP3    H1 8352   3.807   5.379   2.179
 2782TIP3    H2 8353   3.656   5.372   2.187
 2783TIP3   OH2 8354   0.845   0.643   1.015
 2783TIP3    H1 8355   0.934   0.610   1.003
 2783TIP3    H2 8356   0.850   0.735   0.989
 2784TIP3   OH2 8357   1.169   3.632   3.390
 2784TIP3    H1 8358   1.093   3.575   3.374
 2784TIP3    H2 8359   1.206   3.648   3.303
 2785TIP3   OH2 8360   0.838   0.980   4.759
 2785TIP3    H1 8361   0.799   0.912   4.814
 2785TIP3    H2 8362   0.933   0.968   4.770
 2786TIP3   OH2 8363   6.216   2.678   1.577
 2786TIP3    H1 8364   6.220   2.733   1.655
 2786TIP3    H2 8365   6.213   2.588   1.611
 2787TIP3   OH2 8366   2.761   1.631   1.934
 2787TIP3    H1 8367   2.806   1.577   1.870
 2787TIP3    H2 8368   2.809   1.618   2.015
 2788TIP3   OH2 8369   1.631   2.233   2.404
 2788TIP3    H1 8370   1.663   2.307   2.455
 2788TIP3    H2 8371   1.678   2.157   2.439
 2789TIP3   OH2 8372   0.644   4.571   3.961
 2789TIP3    H1 8373   0.687   4.493   3.996
 2789TIP3    H2 8374   0.696   4.644   3.996
 2790TIP3   OH2 8375   4.810   4.445   2.147
 2790TIP3    H1 8376   4.826   4.420   2.056
 2790TIP3    H2 8377   4.727   4.493   2.144
 2791TIP3   OH2 8378   5.150   1.052   4.077
 2791TIP3    H1 8379   5.203   1.102   4.016
 2791TIP3    H2 8380   5.196   0.968   4.086
 2792TIP3   OH2 8381   5.342   5.037   2.519
 2792TIP3    H1 8382   5.262   5.033   2.466
 2792TIP3    H2 8383   5.312   5.068   2.604
 2793TIP3   OH2 8384   3.713   1.394   0.105
 2793TIP3    H1 8385   3.669   1.480   0.101
 2793TIP3    H2 8386   3.805   1.415   0.120
 2794TIP3   OH2 8387   0.829   5.789   1.290
 2794TIP3    H1 8388   0.863   5.798   1.379
 2794TIP3    H2 8389   0.745   5.835   1.291
 2795TIP3   OH2 8390   0.026   5.917   4.111
 2795TIP3    H1 8391   0.120   5.903   4.120
 2795TIP3    H2 8392   0.006   5.988   4.172
 2796TIP3   OH2 8393   6.210   3.700   0.068
 2796TIP3    H1 8394   6.194   3.733   0.157
 2796TIP3    H2 8395   6.137   3.735   0.016
 2797TIP3   OH2 8396   5.988   1.953   5.049
 2797TIP3    H1 8397   6.052   2.022   5.070
 2797TIP3    H2 8398   6.017   1.920   4.964
 2798TIP3   OH2 8399   0.703   1.434   2.125
 2798TIP3    H1 8400   0.691   1.498   2.055
 2798TIP3    H2 8401   0.712   1.351   2.079
 2799TIP3   OH2 8402   4.832   5.154   4.165
 2799TIP3    H1 8403   4.826   5.089   4.235
 2799TIP3    H2 8404   4.875   5.108   4.093
 2800TIP3   OH2 8405   2.271   0.806   4.897
 2800TIP3    H1 8406   2.355   0.763   4.877
 2800TIP3    H2 8407   2.257   0.866   4.823
 2801TIP3   OH2 8408   4.234   5.447   3.025
 2801TIP3    H1 8409   4.257   5.387   2.954
 2801TIP3    H2 8410   4.278   5.529   3.002
 2802TIP3   OH2 8411   4.077   2.870   3.880
 2802TIP3    H1 8412   4.142   2.924   3.926
 2802TIP3    H2 8413   4.047   2.926   3.808
 2803TIP3   OH2 8414   2.592   1.274   5.162
 2803TIP3    H1 8415   2.591   1.353   5.216
 2803TIP3    H2 8416   2.565   1.304   5.075
 2804TIP3   OH2 8417   1.989   0.973   1.035
 2804TIP3    H1 8418   1.900   0.941   1.050
 2804TIP3    H2 8419   2.004   0.956   0.942
 2805TIP3   OH2 8420   5.477   0.317   2.438
 2805TIP3    H1 8421   5.403   0.325   2.378
 2805TIP3    H2 8422   5.447   0.258   2.507
 2806TIP3   OH2 8423   3.342   5.277   1.337
 2806TIP3    H1 8424   3.396   5.201   1.362
 2806TIP3    H2 8425   3.384   5.351   1.381
 2807TIP3   OH2 8426   0.867   4.202   0.888
 2807TIP3    H1 8427   0.842   4.116   0.922
 2807TIP3    H2 8428   0.937   4.184   0.826
 2808TIP3   OH2 8429   2.616   4.056   3.499
 2808TIP3    H1 8430   2.672   4.110   3.443
 2808TIP3    H2 8431   2.556   4.013   3.439
 2809TIP3   OH2 8432   5.077   2.399   2.117
 2809TIP3    H1 8433   5.162   2.381   2.076
 2809TIP3    H2 8434   5.087   2.368   2.207
 2810TIP3   OH2 8435   5.505   5.206   3.576
 2810TIP3    H1 8436   5.517   5.250   3.660
 2810TIP3    H2 8437   5.412   5.219   3.555
 2811TIP3   OH2 8438   1.102   4.471   1.490
 2811TIP3    H1 8439   1.125   4.562   1.473
 2811TIP3    H2 8440   1.072   4.437   1.406
 2812TIP3   OH2 8441   6.241   3.754   1.446
 2812TIP3    H1 8442   6.182   3.792   1.382
 2812TIP3    H2 8443   6.308   3.710   1.394
 2813TIP3   OH2 8444   2.429   5.875   0.189
 2813TIP3    H1 8445   2.440   5.949   0.249
 2813TIP3    H2 8446   2.349   5.833   0.218
 2814TIP3   OH2 8447   2.844   4.013   1.900
 2814TIP3    H1 8448   2.850   3.936   1.843
 2814TIP3    H2 8449   2.765   4.058   1.871
 2815TIP3   OH2 8450   3.513   5.654   2.925
 2815TIP3    H1 8451   3.559   5.629   2.845
 2815TIP3    H2 8452   3.540   5.590   2.990
 2816TIP3   OH2 8453   4.472   2.753   3.560
 2816TIP3    H1 8454   4.430   2.734   3.477
 2816TIP3    H2 8455   4.558   2.787   3.537
 2817TIP3   OH2 8456   5.271   3.927   0.620
 2817TIP3    H1 8457   5.235   3.998   0.674
 2817TIP3    H2 8458   5.271   3.851   0.678
 2818TIP3   OH2 8459   2.305   1.980   1.621
 2818TIP3    H1 8460   2.255   2.039   1.678
 2818TIP3    H2 8461   2.361   2.038   1.570
 2819TIP3   OH2 8462   3.334   1.346   3.801
 2819TIP3    H1 8463   3.413   1.362   3.750
 2819TIP3    H2 8464   3.347   1.260   3.841
 2820TIP3   OH2 8465   4.043   1.209   4.336
 2820TIP3    H1 8466   4.022   1.120   4.365
 2820TIP3    H2 8467   4.105   1.196   4.264
 2821TIP3   OH2 8468   4.450   5.319   3.304
 2821TIP3    H1 8469   4.464   5.299   3.397
 2821TIP3    H2 8470   4.472   5.412   3.297
 2822TIP3   OH2 8471   1.469   0.218   0.073
 2822TIP3    H1 8472   1.527   0.246   0.143
 2822TIP3    H2 8473   1.401   0.167   0.117
 2823TIP3   OH2 8474   1.539   4.270   2.098
 2823TIP3    H1 8475   1.541   4.363   2.077
 2823TIP3    H2 8476   1.629   4.240   2.085
 2824TIP3   OH2 8477   5.653   5.344   1.400
 2824TIP3    H1 8478   5.682   5.307   1.483
 2824TIP3    H2 8479   5.648   5.269   1.341
 2825TIP3   OH2 8480   4.882   2.535   3.606
 2825TIP3    H1 8481   4.797   2.520   3.648
 2825TIP3    H2 8482   4.939   2.467   3.640
 2826TIP3   OH2 8483   0.480   0.227   1.768
 2826TIP3    H1 8484   0.442   0.233   1.856
 2826TIP3    H2 8485   0.542   0.299   1.763
 2827TIP3   OH2 8486   2.693   0.454   0.901
 2827TIP3    H1 8487   2.686   0.498   0.816
 2827TIP3    H2 8488   2.607   0.412   0.913
 2828TIP3   OH2 8489   5.694   2.911   3.399
 2828TIP3    H1 8490   5.742   2.882   3.477
 2828TIP3    H2 8491   5.603   2.917   3.429
 2829TIP3   OH2 8492   4.704   4.611   4.465
 2829TIP3    H1 8493   4.631   4.594   4.524
 2829TIP3    H2 8494   4.775   4.640   4.522
 2830TIP3   OH2 8495   3.766   4.073   5.027
 2830TIP3    H1 8496   3.731   4.150   5.071
 2830TIP3    H2 8497   3.861   4.090   5.022
 2831TIP3   OH2 8498   4.696   1.992   0.626
 2831TIP3    H1 8499   4.729   2.081   0.641
 2831TIP3    H2 8500   4.737   1.965   0.544
 2832TIP3   OH2 8501   5.077   4.015   4.094
 2832TIP3    H1 8502   5.132   4.065   4.155
 2832TIP3    H2 8503   4.989   4.049   4.108
 2833TIP3   OH2 8504   6.077   2.637   2.923
 2833TIP3    H1 8505   6.078   2.543   2.905
 2833TIP3    H2 8506   6.075   2.644   3.018
 2834TIP3   OH2 8507   4.836   5.324   2.169
 2834TIP3    H1 8508   4.840   5.345   2.076
 2834TIP3    H2 8509   4.927   5.325   2.198
 2835TIP3   OH2 8510   2.192   5.265   1.337
 2835TIP3    H1 8511   2.199   5.216   1.419
 2835TIP3    H2 8512   2.126   5.333   1.354
 2836TIP3   OH2 8513   4.096   5.037   0.399
 2836TIP3    H1 8514   4.102   5.031   0.494
 2836TIP3    H2 8515   4.074   4.949   0.371
 2837TIP3   OH2 8516   3.422   0.995   4.990
 2837TIP3    H1 8517   3.347   0.939   4.967
 2837TIP3    H2 8518   3.494   0.933   5.004
 2838TIP3   OH2 8519   1.478   5.856   5.156
 2838TIP3    H1 8520   1.415   5.812   5.214
 2838TIP3    H2 8521   1.468   5.812   5.072
 2839TIP3   OH2 8522   1.822   3.967   3.483
 2839TIP3    H1 8523   1.856   3.930   3.564
 2839TIP3    H2 8524   1.773   4.044   3.511
 2840TIP3   OH2 8525   6.145   3.816   1.712
 2840TIP3    H1 8526   6.125   3.754   1.782
 2840TIP3    H2 8527   6.160   3.761   1.635
 2841TIP3   OH2 8528   0.041   3.220   0.861
 2841TIP3    H1 8529  -0.017   3.249   0.791
 2841TIP3    H2 8530  -0.014   3.163   0.915
 2842TIP3   OH2 8531   5.492   4.080   4.623
 2842TIP3    H1 8532   5.477   4.007   4.683
 2842TIP3    H2 8533   5.566   4.127   4.661
 2843TIP3   OH2 8534   0.950   1.794   4.453
 2843TIP3    H1 8535   0.914   1.866   4.504
 2843TIP3    H2 8536   0.877   1.765   4.398
 2844TIP3   OH2 8537   1.477   1.976   3.604
 2844TIP3    H1 8538   1.393   1.960   3.560
 2844TIP3    H2 8539   1.521   2.040   3.549
 2845TIP3   OH2 8540   6.180   1.374   3.254
 2845TIP3    H1 8541   6.251   1.364   3.317
 2845TIP3    H2 8542   6.217   1.424   3.182
 2846TIP3   OH2 8543   0.436   3.464   1.443
 2846TIP3    H1 8544   0.532   3.460   1.440
 2846TIP3    H2 8545   0.411   3.509   1.362
 2847TIP3   OH2 8546   4.299   1.510   0.451
 2847TIP3    H1 8547   4.377   1.465   0.418
 2847TIP3    H2 8548   4.262   1.449   0.516
 2848TIP3   OH2 8549   3.746   3.133   0.102
 2848TIP3    H1 8550   3.818   3.194   0.120
 2848TIP3    H2 8551   3.686   3.183   0.046
 2849TIP3   OH2 8552   4.276   0.030   4.278
 2849TIP3    H1 8553   4.199  -0.024   4.265
 2849TIP3    H2 8554   4.350  -0.030   4.268
 2850TIP3   OH2 8555   5.051   3.011   1.174
 2850TIP3    H1 8556   5.142   3.003   1.146
 2850TIP3    H2 8557   5.057   3.036   1.266
 2851TIP3   OH2 8558   4.805   0.581   1.260
 2851TIP3    H1 8559   4.818   0.563   1.167
 2851TIP3    H2 8560   4.761   0.666   1.262
 2852TIP3   OH2 8561   0.551   2.976   4.927
 2852TIP3    H1 8562   0.571   2.983   5.020
 2852TIP3    H2 8563   0.496   2.898   4.920
 2853TIP3   OH2 8564   0.953   2.165   2.482
 2853TIP3    H1 8565   1.037   2.122   2.465
 2853TIP3    H2 8566   0.948   2.234   2.416
 2854TIP3   OH2 8567   5.756   2.120   0.834
 2854TIP3    H1 8568   5.752   2.125   0.738
 2854TIP3    H2 8569   5.665   2.103   0.860
 2855TIP3   OH2 8570   4.448   2.472   3.328
 2855TIP3    H1 8571   4.542   2.477   3.312
 2855TIP3    H2 8572   4.418   2.563   3.322
 2856TIP3   OH2 8573   4.254   4.025   4.886
 2856TIP3    H1 8574   4.179   4.048   4.941
 2856TIP3    H2 8575   4.297   4.109   4.869
 2857TIP3   OH2 8576   1.942   3.303   1.113
 2857TIP3    H1 8577   1.905   3.339   1.194
 2857TIP3    H2 8578   1.917   3.211   1.115
 2858TIP3   OH2 8579   6.319   3.007   1.694
 2858TIP3    H1 8580   6.383   3.078   1.700
 2858TIP3    H2 8581   6.364   2.938   1.646
 2859TIP3   OH2 8582   0.124   3.798   0.426
 2859TIP3    H1 8583   0.049   3.857   0.413
 2859TIP3    H2 8584   0.086   3.710   0.421
 2860TIP3   OH2 8585   0.226   1.889   4.740
 2860TIP3    H1 8586   0.235   1.794   4.746
 2860TIP3    H2 8587   0.165   1.903   4.667
 2861TIP3   OH2 8588   6.310   0.509   3.985
 2861TIP3    H1 8589   6.274   0.565   4.054
 2861TIP3    H2 8590   6.403   0.500   4.008
 2862TIP3   OH2 8591   4.321   3.024   2.470
 2862TIP3    H1 8592   4.409   3.053   2.495
 2862TIP3    H2 8593   4.268   3.033   2.549
 2863TIP3   OH2 8594   5.967   2.464   3.547
 2863TIP3    H1 8595   5.872   2.469   3.535
 2863TIP3    H2 8596   5.989   2.375   3.518
 2864TIP3   OH2 8597   5.686   4.148   3.467
 2864TIP3    H1 8598   5.601   4.190   3.480
 2864TIP3    H2 8599   5.670   4.055   3.483
 2865TIP3   OH2 8600   3.660   1.410   0.372
 2865TIP3    H1 8601   3.617   1.375   0.294
 2865TIP3    H2 8602   3.743   1.447   0.340
 2866TIP3   OH2 8603   0.888   4.539   5.047
 2866TIP3    H1 8604   0.835   4.554   4.969
 2866TIP3    H2 8605   0.962   4.486   5.015
 2867TIP3   OH2 8606   2.088   2.231   4.519
 2867TIP3    H1 8607   2.155   2.289   4.554
 2867TIP3    H2 8608   2.047   2.280   4.447
 2868TIP3   OH2 8609   5.596   0.949   4.621
 2868TIP3    H1 8610   5.542   1.012   4.670
 2868TIP3    H2 8611   5.639   0.897   4.689
 2869TIP3   OH2 8612   4.073   0.678   0.116
 2869TIP3    H1 8613   4.090   0.758   0.066
 2869TIP3    H2 8614   4.071   0.609   0.050
 2870TIP3   OH2 8615   1.080   5.016   0.491
 2870TIP3    H1 8616   1.055   5.107   0.474
 2870TIP3    H2 8617   1.035   4.992   0.571
 2871TIP3   OH2 8618   2.771   2.044   0.038
 2871TIP3    H1 8619   2.675   2.036   0.036
 2871TIP3    H2 8620   2.801   1.960   0.073
 2872TIP3   OH2 8621   0.743   3.514   4.286
 2872TIP3    H1 8622   0.700   3.459   4.221
 2872TIP3    H2 8623   0.742   3.602   4.247
 2873TIP3   OH2 8624   5.430   4.251   3.506
 2873TIP3    H1 8625   5.406   4.220   3.594
 2873TIP3    H2 8626   5.405   4.343   3.506
 2874TIP3   OH2 8627   3.737   5.167   0.300
 2874TIP3    H1 8628   3.676   5.135   0.234
 2874TIP3    H2 8629   3.795   5.226   0.252
 2875TIP3   OH2 8630   2.389   2.754   4.085
 2875TIP3    H1 8631   2.341   2.746   4.167
 2875TIP3    H2 8632   2.350   2.688   4.027
 2876TIP3   OH2 8633   6.274   2.365   1.590
 2876TIP3    H1 8634   6.320   2.300   1.537
 2876TIP3    H2 8635   6.193   2.381   1.543
 2877TIP3   OH2 8636   2.314   5.465   3.760
 2877TIP3    H1 8637   2.379   5.535   3.753
 2877TIP3    H2 8638   2.364   5.384   3.754
 2878TIP3   OH2 8639   0.404   4.569   0.428
 2878TIP3    H1 8640   0.340   4.553   0.359
 2878TIP3    H2 8641   0.375   4.515   0.501
 2879TIP3   OH2 8642   2.579   2.685   1.348
 2879TIP3    H1 8643   2.568   2.669   1.255
 2879TIP3    H2 8644   2.673   2.677   1.363
 2880TIP3   OH2 8645   1.273   4.128   1.400
 2880TIP3    H1 8646   1.335   4.115   1.327
 2880TIP3    H2 8647   1.308   4.202   1.449
 2881TIP3   OH2 8648   1.874   4.946   2.120
 2881TIP3    H1 8649   1.829   4.965   2.037
 2881TIP3    H2 8650   1.847   4.857   2.143
 2882TIP3   OH2 8651   0.997   4.977   2.713
 2882TIP3    H1 8652   0.928   4.984   2.647
 2882TIP3    H2 8653   1.076   5.009   2.669
 2883TIP3   OH2 8654   1.433   3.727   2.965
 2883TIP3    H1 8655   1.499   3.673   2.921
 2883TIP3    H2 8656   1.469   3.743   3.052
 2884TIP3   OH2 8657   4.262   6.000   4.905
 2884TIP3    H1 8658   4.188   6.056   4.882
 2884TIP3    H2 8659   4.266   5.936   4.834
 2885TIP3   OH2 8660   3.124   5.610   0.461
 2885TIP3    H1 8661   3.093   5.558   0.535
 2885TIP3    H2 8662   3.189   5.669   0.499
 2886TIP3   OH2 8663   3.462   4.912   1.092
 2886TIP3    H1 8664   3.504   4.997   1.111
 2886TIP3    H2 8665   3.514   4.849   1.142
 2887TIP3   OH2 8666   2.949   0.488   0.950
 2887TIP3    H1 8667   2.860   0.457   0.933
 2887TIP3    H2 8668   3.003   0.409   0.945
 2888TIP3   OH2 8669   3.179   4.117   4.050
 2888TIP3    H1 8670   3.129   4.043   4.016
 2888TIP3    H2 8671   3.215   4.159   3.971
 2889TIP3   OH2 8672   4.678   3.116   3.885
 2889TIP3    H1 8673   4.733   3.057   3.936
 2889TIP3    H2 8674   4.624   3.161   3.950
 2890TIP3   OH2 8675   1.224   5.083   2.588
 2890TIP3    H1 8676   1.176   5.095   2.506
 2890TIP3    H2 8677   1.235   5.171   2.624
 2891TIP3   OH2 8678   2.912   0.601   4.443
 2891TIP3    H1 8679   2.933   0.623   4.534
 2891TIP3    H2 8680   2.867   0.678   4.409
 2892TIP3   OH2 8681   0.184   1.419   2.984
 2892TIP3    H1 8682   0.238   1.419   2.904
 2892TIP3    H2 8683   0.175   1.327   3.007
 2893TIP3   OH2 8684   1.882   2.564   0.691
 2893TIP3    H1 8685   1.812   2.622   0.722
 2893TIP3    H2 8686   1.850   2.476   0.709
 2894TIP3   OH2 8687   4.940   2.924   2.340
 2894TIP3    H1 8688   4.932   2.834   2.311
 2894TIP3    H2 8689   5.031   2.948   2.320
 2895TIP3   OH2 8690   4.232   1.302   3.032
 2895TIP3    H1 8691   4.204   1.238   2.966
 2895TIP3    H2 8692   4.196   1.270   3.114
 2896TIP3   OH2 8693   5.521   0.967   2.826
 2896TIP3    H1 8694   5.502   1.035   2.762
 2896TIP3    H2 8695   5.447   0.907   2.820
 2897TIP3   OH2 8696   4.219   5.109   3.218
 2897TIP3    H1 8697   4.245   5.026   3.256
 2897TIP3    H2 8698   4.286   5.171   3.248
 2898TIP3   OH2 8699   1.832   5.618   3.789
 2898TIP3    H1 8700   1.845   5.526   3.766
 2898TIP3    H2 8701   1.920   5.655   3.792
 2899TIP3   OH2 8702   1.589   3.289   0.550
 2899TIP3    H1 8703   1.512   3.307   0.495
 2899TIP3    H2 8704   1.644   3.232   0.497
 2900TIP3   OH2 8705   3.183   2.233   1.265
 2900TIP3    H1 8706   3.215   2.291   1.334
 2900TIP3    H2 8707   3.228   2.263   1.186
 2901TIP3   OH2 8708   3.275   0.181   2.971
 2901TIP3    H1 8709   3.354   0.148   2.928
 2901TIP3    H2 8710   3.208   0.179   2.902
 2902TIP3   OH2 8711   5.380   3.119   5.093
 2902TIP3    H1 8712   5.400   3.061   5.019
 2902TIP3    H2 8713   5.308   3.076   5.138
 2903TIP3   OH2 8714   2.909   3.550   0.795
 2903TIP3    H1 8715   2.993   3.547   0.750
 2903TIP3    H2 8716   2.900   3.463   0.836
 2904TIP3   OH2 8717   4.414   0.258   4.762
 2904TIP3    H1 8718   4.403   0.329   4.825
 2904TIP3    H2 8719   4.460   0.298   4.688
 2905TIP3   OH2 8720   3.221   3.700   4.304
 2905TIP3    H1 8721   3.291   3.731   4.247
 2905TIP3    H2 8722   3.159   3.772   4.308
 2906TIP3   OH2 8723   0.372   1.016   0.228
 2906TIP3    H1 8724   0.326   1.049   0.305
 2906TIP3    H2 8725   0.341   0.927   0.218
 2907TIP3   OH2 8726   0.237   4.685   1.065
 2907TIP3    H1 8727   0.236   4.747   1.139
 2907TIP3    H2 8728   0.291   4.728   0.999
 2908TIP3   OH2 8729   6.129   0.407   4.319
 2908TIP3    H1 8730   6.134   0.384   4.411
 2908TIP3    H2 8731   6.189   0.347   4.275
 2909TIP3   OH2 8732   3.208   2.228   0.690
 2909TIP3    H1 8733   3.270   2.291   0.652
 2909TIP3    H2 8734   3.141   2.218   0.623
 2910TIP3   OH2 8735   4.705   1.743   5.021
 2910TIP3    H1 8736   4.658   1.778   5.097
 2910TIP3    H2 8737   4.753   1.667   5.056
 2911TIP3   OH2 8738   2.212   4.060   3.437
 2911TIP3    H1 8739   2.214   3.967   3.463
 2911TIP3    H2 8740   2.143   4.099   3.491
 2912TIP3   OH2 8741   4.199   2.251   1.783
 2912TIP3    H1 8742   4.260   2.245   1.856
 2912TIP3    H2 8743   4.114   2.264   1.823
 2913TIP3   OH2 8744   5.731   0.272   2.934
 2913TIP3    H1 8745   5.812   0.239   2.894
 2913TIP3    H2 8746   5.749   0.270   3.028
 2914TIP3   OH2 8747   5.242   5.857   3.749
 2914TIP3    H1 8748   5.241   5.862   3.654
 2914TIP3    H2 8749   5.326   5.893   3.775
 2915TIP3   OH2 8750   5.342   0.701   4.744
 2915TIP3    H1 8751   5.381   0.644   4.811
 2915TIP3    H2 8752   5.326   0.643   4.670
 2916TIP3   OH2 8753   3.398   3.144   0.222
 2916TIP3    H1 8754   3.344   3.067   0.239
 2916TIP3    H2 8755   3.483   3.124   0.261
 2917TIP3   OH2 8756   2.527   4.269   0.078
 2917TIP3    H1 8757   2.448   4.215   0.077
 2917TIP3    H2 8758   2.551   4.278  -0.014
 2918TIP3   OH2 8759   4.992   3.080   0.114
 2918TIP3    H1 8760   5.063   3.122   0.065
 2918TIP3    H2 8761   5.024   2.993   0.134
 2919TIP3   OH2 8762   1.952   0.967   3.084
 2919TIP3    H1 8763   2.012   0.903   3.046
 2919TIP3    H2 8764   1.962   0.956   3.179
 2920TIP3   OH2 8765   2.489   3.308   1.697
 2920TIP3    H1 8766   2.474   3.299   1.603
 2920TIP3    H2 8767   2.569   3.360   1.703
 2921TIP3   OH2 8768   1.904   5.294   2.958
 2921TIP3    H1 8769   1.932   5.291   3.049
 2921TIP3    H2 8770   1.863   5.209   2.942
 2922TIP3   OH2 8771   1.482   3.178   2.904
 2922TIP3    H1 8772   1.477   3.163   2.999
 2922TIP3    H2 8773   1.555   3.238   2.893
 2923TIP3   OH2 8774   2.888   0.537   3.894
 2923TIP3    H1 8775   2.973   0.494   3.891
 2923TIP3    H2 8776   2.905   0.620   3.940
 2924TIP3   OH2 8777   4.113   4.129   0.263
 2924TIP3    H1 8778   4.122   4.203   0.202
 2924TIP3    H2 8779   4.139   4.053   0.212
 2925TIP3   OH2 8780   4.211   2.217   1.469
 2925TIP3    H1 8781   4.208   2.204   1.564
 2925TIP3    H2 8782   4.292   2.174   1.442
 2926TIP3   OH2 8783   3.424   5.393   0.623
 2926TIP3    H1 8784   3.417   5.465   0.687
 2926TIP3    H2 8785   3.502   5.345   0.650
 2927TIP3   OH2 8786   0.225   0.368   4.307
 2927TIP3    H1 8787   0.179   0.451   4.318
 2927TIP3    H2 8788   0.221   0.352   4.212
 2928TIP3   OH2 8789   2.151   3.834   0.434
 2928TIP3    H1 8790   2.110   3.812   0.518
 2928TIP3    H2 8791   2.093   3.901   0.397
 2929TIP3   OH2 8792   2.137   3.157   4.057
 2929TIP3    H1 8793   2.221   3.122   4.026
 2929TIP3    H2 8794   2.159   3.202   4.139
 2930TIP3   OH2 8795   1.697   1.279   1.192
 2930TIP3    H1 8796   1.636   1.206   1.207
 2930TIP3    H2 8797   1.663   1.350   1.246
 2931TIP3   OH2 8798   2.984   1.715   3.947
 2931TIP3    H1 8799   2.986   1.631   3.991
 2931TIP3    H2 8800   2.893   1.725   3.919
 2932TIP3   OH2 8801   2.098   4.939   0.041
 2932TIP3    H1 8802   2.055   4.855   0.026
 2932TIP3    H2 8803   2.038   5.004   0.005
 2933TIP3   OH2 8804   4.824   0.351   4.043
 2933TIP3    H1 8805   4.858   0.346   4.132
 2933TIP3    H2 8806   4.883   0.294   3.992
 2934TIP3   OH2 8807   2.826   1.927   4.795
 2934TIP3    H1 8808   2.881   1.930   4.873
 2934TIP3    H2 8809   2.738   1.911   4.828
 2935TIP3   OH2 8810   1.704   5.135   5.059
 2935TIP3    H1 8811   1.674   5.182   4.981
 2935TIP3    H2 8812   1.701   5.199   5.129
 2936TIP3   OH2 8813   2.244   0.387   4.871
 2936TIP3    H1 8814   2.204   0.401   4.785
 2936TIP3    H2 8815   2.336   0.367   4.852
 2937TIP3   OH2 8816   3.423   1.112   4.535
 2937TIP3    H1 8817   3.459   1.028   4.564
 2937TIP3    H2 8818   3.490   1.147   4.476
 2938TIP3   OH2 8819   0.041   0.925   2.876
 2938TIP3    H1 8820   0.129   0.924   2.840
 2938TIP3    H2 8821  -0.017   0.926   2.800
 2939TIP3   OH2 8822   2.985   0.257   5.115
 2939TIP3    H1 8823   3.013   0.281   5.026
 2939TIP3    H2 8824   3.010   0.332   5.169
 2940TIP3   OH2 8825   0.358   4.547   3.958
 2940TIP3    H1 8826   0.453   4.539   3.966
 2940TIP3    H2 8827   0.326   4.547   4.049
 2941TIP3   OH2 8828   2.475   3.908   1.368
 2941TIP3    H1 8829   2.456   3.997   1.338
 2941TIP3    H2 8830   2.496   3.860   1.288
 2942TIP3   OH2 8831   4.353   3.787   0.482
 2942TIP3    H1 8832   4.418   3.855   0.463
 2942TIP3    H2 8833   4.366   3.722   0.413
 2943TIP3   OH2 8834   0.992   3.923   0.230
 2943TIP3    H1 8835   0.999   4.011   0.269
 2943TIP3    H2 8836   0.937   3.875   0.292
 2944TIP3   OH2 8837   0.174   1.615   4.804
 2944TIP3    H1 8838   0.128   1.603   4.887
 2944TIP3    H2 8839   0.199   1.526   4.778
 2945TIP3   OH2 8840   0.566   3.348   1.136
 2945TIP3    H1 8841   0.508   3.421   1.156
 2945TIP3    H2 8842   0.654   3.384   1.148
 2946TIP3   OH2 8843   0.949   4.843   0.686
 2946TIP3    H1 8844   0.992   4.807   0.609
 2946TIP3    H2 8845   0.983   4.792   0.760
 2947TIP3   OH2 8846   0.969   4.526   4.773
 2947TIP3    H1 8847   0.992   4.433   4.773
 2947TIP3    H2 8848   0.970   4.551   4.680
 2948TIP3   OH2 8849   5.429   4.037   4.955
 2948TIP3    H1 8850   5.458   4.007   5.042
 2948TIP3    H2 8851   5.413   4.130   4.965
 2949TIP3   OH2 8852   5.436   1.791   4.894
 2949TIP3    H1 8853   5.414   1.698   4.906
 2949TIP3    H2 8854   5.530   1.791   4.875
 2950TIP3   OH2 8855   2.713   1.662   0.553
 2950TIP3    H1 8856   2.718   1.589   0.492
 2950TIP3    H2 8857   2.786   1.719   0.528
 2951TIP3   OH2 8858   5.410   0.227   0.191
 2951TIP3    H1 8859   5.440   0.172   0.263
 2951TIP3    H2 8860   5.414   0.316   0.225
 2952TIP3   OH2 8861   4.858   3.203   3.059
 2952TIP3    H1 8862   4.836   3.130   3.117
 2952TIP3    H2 8863   4.842   3.169   2.971
 2953TIP3   OH2 8864   1.606   4.570   3.421
 2953TIP3    H1 8865   1.576   4.562   3.512
 2953TIP3    H2 8866   1.577   4.489   3.379
 2954TIP3   OH2 8867   5.459   2.489   3.688
 2954TIP3    H1 8868   5.368   2.508   3.708
 2954TIP3    H2 8869   5.477   2.405   3.729
 2955TIP3   OH2 8870   6.143   0.180   3.622
 2955TIP3    H1 8871   6.195   0.113   3.667
 2955TIP3    H2 8872   6.204   0.253   3.610
 2956TIP3   OH2 8873   1.077   1.036   4.922
 2956TIP3    H1 8874   1.117   1.060   4.838
 2956TIP3    H2 8875   1.045   1.119   4.957
 2957TIP3   OH2 8876   0.189   1.106   0.450
 2957TIP3    H1 8877   0.132   1.030   0.454
 2957TIP3    H2 8878   0.139   1.171   0.400
 2958TIP3   OH2 8879   0.655   2.625   3.159
 2958TIP3    H1 8880   0.629   2.595   3.071
 2958TIP3    H2 8881   0.632   2.552   3.217
 2959TIP3   OH2 8882   1.013   1.593   0.308
 2959TIP3    H1 8883   1.082   1.659   0.295
 2959TIP3    H2 8884   1.016   1.575   0.402
 2960TIP3   OH2 8885   3.890   2.958   3.384
 2960TIP3    H1 8886   3.892   2.957   3.288
 2960TIP3    H2 8887   3.973   2.920   3.410
 2961TIP3   OH2 8888   5.715   0.716   4.070
 2961TIP3    H1 8889   5.645   0.651   4.075
 2961TIP3    H2 8890   5.796   0.665   4.076
 2962TIP3   OH2 8891   2.683   4.944   1.543
 2962TIP3    H1 8892   2.688   4.996   1.463
 2962TIP3    H2 8893   2.764   4.893   1.543
 2963TIP3   OH2 8894   4.102   5.726   3.234
 2963TIP3    H1 8895   4.121   5.636   3.209
 2963TIP3    H2 8896   4.029   5.719   3.295
 2964TIP3   OH2 8897   0.210   5.985   1.561
 2964TIP3    H1 8898   0.268   5.955   1.630
 2964TIP3    H2 8899   0.132   5.930   1.569
 2965TIP3   OH2 8900   5.762   0.891   5.059
 2965TIP3    H1 8901   5.743   0.869   4.968
 2965TIP3    H2 8902   5.676   0.898   5.101
 2966TIP3   OH2 8903   2.645   0.328   3.734
 2966TIP3    H1 8904   2.719   0.282   3.696
 2966TIP3    H2 8905   2.670   0.341   3.826
 2967TIP3   OH2 8906   4.447   2.132   0.050
 2967TIP3    H1 8907   4.388   2.177  -0.010
 2967TIP3    H2 8908   4.391   2.101   0.121
 2968TIP3   OH2 8909   2.238   2.492   3.357
 2968TIP3    H1 8910   2.225   2.566   3.298
 2968TIP3    H2 8911   2.153   2.447   3.358
 2969TIP3   OH2 8912   5.379   0.501   0.220
 2969TIP3    H1 8913   5.413   0.588   0.197
 2969TIP3    H2 8914   5.321   0.518   0.295
 2970TIP3   OH2 8915   5.047   5.533   1.829
 2970TIP3    H1 8916   5.012   5.551   1.916
 2970TIP3    H2 8917   4.971   5.537   1.771
 2971TIP3   OH2 8918   2.003   4.358   1.957
 2971TIP3    H1 8919   2.010   4.323   1.868
 2971TIP3    H2 8920   2.089   4.395   1.975
 2972TIP3   OH2 8921   1.725   2.479   1.346
 2972TIP3    H1 8922   1.740   2.442   1.433
 2972TIP3    H2 8923   1.811   2.508   1.316
 2973TIP3   OH2 8924   5.496   1.659   1.648
 2973TIP3    H1 8925   5.481   1.609   1.728
 2973TIP3    H2 8926   5.419   1.642   1.594
 2974TIP3   OH2 8927   2.211   2.084   2.491
 2974TIP3    H1 8928   2.134   2.037   2.460
 2974TIP3    H2 8929   2.281   2.057   2.431
 2975TIP3   OH2 8930   0.900   4.051   4.792
 2975TIP3    H1 8931   0.975   4.083   4.741
 2975TIP3    H2 8932   0.866   4.128   4.837
 2976TIP3   OH2 8933   3.092   0.024   1.163
 2976TIP3    H1 8934   3.072   0.091   1.228
 2976TIP3    H2 8935   3.054  -0.056   1.199
 2977TIP3   OH2 8936   4.286   4.469   1.445
 2977TIP3    H1 8937   4.245   4.466   1.531
 2977TIP3    H2 8938   4.221   4.510   1.388
 2978TIP3   OH2 8939   0.125   4.812   0.801
 2978TIP3    H1 8940   0.117   4.893   0.852
 2978TIP3    H2 8941   0.218   4.790   0.807
 2979TIP3   OH2 8942   3.029   4.758   1.342
 2979TIP3    H1 8943   2.994   4.817   1.276
 2979TIP3    H2 8944   3.124   4.769   1.336
 2980TIP3   OH2 8945   0.513   3.519   3.830
 2980TIP3    H1 8946   0.509   3.608   3.865
 2980TIP3    H2 8947   0.480   3.527   3.741
 2981TIP3   OH2 8948   2.421   0.948   0.099
 2981TIP3    H1 8949   2.489   1.009   0.129
 2981TIP3    H2 8950   2.420   0.879   0.166
 2982TIP3   OH2 8951   6.116   4.276   1.521
 2982TIP3    H1 8952   6.180   4.232   1.577
 2982TIP3    H2 8953   6.031   4.254   1.560
 2983TIP3   OH2 8954   3.724   4.847   3.623
 2983TIP3    H1 8955   3.721   4.753   3.608
 2983TIP3    H2 8956   3.652   4.882   3.570
 2984TIP3   OH2 8957   2.394   4.985   3.284
 2984TIP3    H1 8958   2.377   4.939   3.202
 2984TIP3    H2 8959   2.489   4.986   3.292
 2985TIP3   OH2 8960   4.594   5.181   3.526
 2985TIP3    H1 8961   4.558   5.113   3.469
 2985TIP3    H2 8962   4.685   5.154   3.541
 2986TIP3   OH2 8963   3.659   2.330   2.266
 2986TIP3    H1 8964   3.729   2.336   2.202
 2986TIP3    H2 8965   3.579   2.326   2.214
 2987TIP3   OH2 8966   5.850   5.183   2.565
 2987TIP3    H1 8967   5.785   5.253   2.575
 2987TIP3    H2 8968   5.835   5.150   2.476
 2988TIP3   OH2 8969   6.109   0.942   0.167
 2988TIP3    H1 8970   6.186   0.888   0.149
 2988TIP3    H2 8971   6.035   0.885   0.147
 2989TIP3   OH2 8972   3.842   4.470   0.755
 2989TIP3    H1 8973   3.885   4.400   0.707
 2989TIP3    H2 8974   3.876   4.464   0.844
 2990TIP3   OH2 8975   0.105   5.289   1.920
 2990TIP3    H1 8976   0.185   5.277   1.870
 2990TIP3    H2 8977   0.046   5.220   1.887
 2991TIP3   OH2 8978   1.074   3.053   1.956
 2991TIP3    H1 8979   1.026   3.134   1.938
 2991TIP3    H2 8980   1.165   3.081   1.964
 2992TIP3   OH2 8981   1.016   1.141   1.999
 2992TIP3    H1 8982   0.936   1.190   1.978
 2992TIP3    H2 8983   0.985   1.064   2.046
 2993TIP3   OH2 8984   6.198   4.120   4.415
 2993TIP3    H1 8985   6.243   4.179   4.355
 2993TIP3    H2 8986   6.263   4.052   4.434
 2994TIP3   OH2 8987   1.718   4.862   0.734
 2994TIP3    H1 8988   1.707   4.858   0.829
 2994TIP3    H2 8989   1.662   4.934   0.706
 2995TIP3   OH2 8990   5.458   1.136   0.556
 2995TIP3    H1 8991   5.456   1.180   0.641
 2995TIP3    H2 8992   5.487   1.047   0.575
 2996TIP3   OH2 8993   6.075   3.039   1.545
 2996TIP3    H1 8994   6.150   3.035   1.604
 2996TIP3    H2 8995   6.086   3.123   1.499
 2997TIP3   OH2 8996   0.816   4.114   1.173
 2997TIP3    H1 8997   0.862   4.159   1.102
 2997TIP3    H2 8998   0.877   4.117   1.247
 2998TIP3   OH2 8999   6.182   2.873   2.779
 2998TIP3    H1 9000   6.112   2.939   2.770
 2998TIP3    H2 9001   6.143   2.805   2.834
 2999TIP3   OH2 9002   6.320   5.333   2.688
 2999TIP3    H1 9003   6.406   5.375   2.692
 2999TIP3    H2 9004   6.336   5.243   2.718
 3000TIP3   OH2 9005   2.404   4.585   3.298
 3000TIP3    H1 9006   2.332   4.527   3.274
 3000TIP3    H2 9007   2.389   4.664   3.247
 3001TIP3   OH2 9008   3.335   1.295   0.307
 3001TIP3    H1 9009   3.372   1.270   0.392
 3001TIP3    H2 9010   3.370   1.230   0.246
 3002TIP3   OH2 9011   3.746   4.231   1.711
 3002TIP3    H1 9012   3.769   4.274   1.794
 3002TIP3    H2 9013   3.795   4.149   1.712
 3003TIP3   OH2 9014   5.943   1.307   3.885
 3003TIP3    H1 9015   6.013   1.281   3.945
 3003TIP3    H2 9016   5.989   1.349   3.812
 3004TIP3   OH2 9017   5.057   0.172   1.638
 3004TIP3    H1 9018   5.006   0.251   1.654
 3004TIP3    H2 9019   5.148   0.198   1.650
 3005TIP3   OH2 9020   4.712   0.843   4.615
 3005TIP3    H1 9021   4.682   0.824   4.704
 3005TIP3    H2 9022   4.805   0.819   4.615
 3006TIP3   OH2 9023   5.167   4.154   1.020
 3006TIP3    H1 9024   5.121   4.189   0.944
 3006TIP3    H2 9025   5.260   4.158   0.996
 3007TIP3   OH2 9026   3.466   4.097   1.355
 3007TIP3    H1 9027   3.490   4.187   1.332
 3007TIP3    H2 9028   3.468   4.095   1.451
 3008TIP3   OH2 9029   1.684   3.052   3.951
 3008TIP3    H1 9030   1.646   3.111   4.016
 3008TIP3    H2 9031   1.646   3.081   3.868
 3009TIP3   OH2 9032   2.806   5.843   3.597
 3009TIP3    H1 9033   2.749   5.864   3.671
 3009TIP3    H2 9034   2.778   5.901   3.526
 3010TIP3   OH2 9035   0.516   1.388   2.554
 3010TIP3    H1 9036   0.603   1.392   2.515
 3010TIP3    H2 9037   0.458   1.368   2.481
 3011TIP3   OH2 9038   3.180   1.354   0.088
 3011TIP3    H1 9039   3.231   1.365   0.168
 3011TIP3    H2 9040   3.239   1.382   0.018
 3012TIP3   OH2 9041   0.489   1.649   2.052
 3012TIP3    H1 9042   0.456   1.732   2.086
 3012TIP3    H2 9043   0.446   1.639   1.967
 3013TIP3   OH2 9044   1.940   5.642   0.048
 3013TIP3    H1 9045   1.970   5.592   0.123
 3013TIP3    H2 9046   1.983   5.603  -0.027
 3014TIP3   OH2 9047   0.565   1.419   4.336
 3014TIP3    H1 9048   0.549   1.513   4.330
 3014TIP3    H2 9049   0.647   1.405   4.288
 3015TIP3   OH2 9050   6.024   2.273   4.418
 3015TIP3    H1 9051   6.056   2.362   4.401
 3015TIP3    H2 9052   6.048   2.255   4.508
 3016TIP3   OH2 9053   4.358   2.314   0.819
 3016TIP3    H1 9054   4.312   2.237   0.853
 3016TIP3    H2 9055   4.450   2.299   0.841
 3017TIP3   OH2 9056   1.098   5.445   2.731
 3017TIP3    H1 9057   1.006   5.465   2.712
 3017TIP3    H2 9058   1.094   5.367   2.787
 3018TIP3   OH2 9059   2.145   5.925   3.450
 3018TIP3    H1 9060   2.095   5.885   3.379
 3018TIP3    H2 9061   2.116   6.016   3.450
 3019TIP3   OH2 9062   5.423   3.233   4.684
 3019TIP3    H1 9063   5.341   3.224   4.636
 3019TIP3    H2 9064   5.491   3.212   4.620
 3020TIP3   OH2 9065   2.124   5.941   0.171
 3020TIP3    H1 9066   2.039   5.913   0.140
 3020TIP3    H2 9067   2.166   5.981   0.095
 3021TIP3   OH2 9068   2.029   2.816   4.624
 3021TIP3    H1 9069   2.019   2.771   4.540
 3021TIP3    H2 9070   1.952   2.873   4.629
 3022TIP3   OH2 9071   4.332   1.127   3.840
 3022TIP3    H1 9072   4.369   1.158   3.757
 3022TIP3    H2 9073   4.392   1.161   3.906
 3023TIP3   OH2 9074   5.373   3.403   1.245
 3023TIP3    H1 9075   5.283   3.402   1.276
 3023TIP3    H2 9076   5.421   3.452   1.312
 3024TIP3   OH2 9077   0.216   4.542   4.215
 3024TIP3    H1 9078   0.221   4.480   4.287
 3024TIP3    H2 9079   0.184   4.491   4.141
 3025TIP3   OH2 9080   2.630   5.768   4.088
 3025TIP3    H1 9081   2.620   5.843   4.148
 3025TIP3    H2 9082   2.688   5.708   4.134
 3026TIP3   OH2 9083   5.066   4.595   0.307
 3026TIP3    H1 9084   4.975   4.568   0.317
 3026TIP3    H2 9085   5.093   4.621   0.395
 3027TIP3   OH2 9086   4.795   5.069   0.017
 3027TIP3    H1 9087   4.779   5.121   0.095
 3027TIP3    H2 9088   4.824   5.132  -0.048
 3028TIP3   OH2 9089   2.023   2.731   3.985
 3028TIP3    H1 9090   2.088   2.687   4.040
 3028TIP3    H2 9091   1.980   2.793   4.043
 3029TIP3   OH2 9092   1.666   1.176   2.822
 3029TIP3    H1 9093   1.721   1.248   2.789
 3029TIP3    H2 9094   1.580   1.193   2.784
 3030TIP3   OH2 9095   5.831   5.785   0.336
 3030TIP3    H1 9096   5.883   5.743   0.268
 3030TIP3    H2 9097   5.774   5.716   0.368
 3031TIP3   OH2 9098   0.972   4.984   3.571
 3031TIP3    H1 9099   0.903   4.919   3.557
 3031TIP3    H2 9100   0.936   5.066   3.540
 3032TIP3   OH2 9101   3.750   0.329   1.590
 3032TIP3    H1 9102   3.731   0.407   1.643
 3032TIP3    H2 9103   3.718   0.352   1.502
 3033TIP3   OH2 9104   1.577   0.388   5.099
 3033TIP3    H1 9105   1.636   0.315   5.081
 3033TIP3    H2 9106   1.491   0.347   5.112
 3034TIP3   OH2 9107   5.210   5.479   5.135
 3034TIP3    H1 9108   5.249   5.531   5.205
 3034TIP3    H2 9109   5.128   5.446   5.172
 3035TIP3   OH2 9110   3.070   5.649   4.056
 3035TIP3    H1 9111   3.007   5.717   4.032
 3035TIP3    H2 9112   3.019   5.567   4.052
 3036TIP3   OH2 9113   5.939   0.078   1.358
 3036TIP3    H1 9114   5.995   0.124   1.420
 3036TIP3    H2 9115   5.977   0.098   1.272
 3037TIP3   OH2 9116   2.226   2.097   0.186
 3037TIP3    H1 9117   2.222   2.071   0.278
 3037TIP3    H2 9118   2.135   2.093   0.156
 3038TIP3   OH2 9119   1.071   3.360   1.643
 3038TIP3    H1 9120   1.093   3.309   1.565
 3038TIP3    H2 9121   1.133   3.329   1.710
 3039TIP3   OH2 9122   6.090   0.613   1.813
 3039TIP3    H1 9123   6.175   0.643   1.782
 3039TIP3    H2 9124   6.030   0.684   1.792
 3040TIP3   OH2 9125   2.907   1.364   1.348
 3040TIP3    H1 9126   2.830   1.421   1.347
 3040TIP3    H2 9127   2.905   1.320   1.263
 3041TIP3   OH2 9128   6.017   1.057   2.797
 3041TIP3    H1 9129   5.964   1.126   2.757
 3041TIP3    H2 9130   6.006   0.982   2.738
 3042TIP3   OH2 9131   0.603   4.595   2.748
 3042TIP3    H1 9132   0.626   4.688   2.747
 3042TIP3    H2 9133   0.511   4.593   2.773
 3043TIP3   OH2 9134   4.390   5.532   2.246
 3043TIP3    H1 9135   4.478   5.527   2.283
 3043TIP3    H2 9136   4.359   5.441   2.245
 3044TIP3   OH2 9137   0.853   2.884   0.316
 3044TIP3    H1 9138   0.849   2.979   0.312
 3044TIP3    H2 9139   0.768   2.857   0.350
 3045TIP3   OH2 9140   3.589   2.986   1.887
 3045TIP3    H1 9141   3.663   2.932   1.859
 3045TIP3    H2 9142   3.575   2.961   1.978
 3046TIP3   OH2 9143   6.244   1.511   4.715
 3046TIP3    H1 9144   6.315   1.489   4.654
 3046TIP3    H2 9145   6.169   1.461   4.683
 3047TIP3   OH2 9146   1.956   2.089   4.703
 3047TIP3    H1 9147   1.988   1.999   4.712
 3047TIP3    H2 9148   2.020   2.131   4.646
 3048TIP3   OH2 9149   4.152   0.997   0.406
 3048TIP3    H1 9150   4.206   0.925   0.372
 3048TIP3    H2 9151   4.078   1.001   0.346
 3049TIP3   OH2 9152   2.661   3.420   3.722
 3049TIP3    H1 9153   2.612   3.502   3.720
 3049TIP3    H2 9154   2.655   3.386   3.632
 3050TIP3   OH2 9155   0.285   0.468   2.981
 3050TIP3    H1 9156   0.379   0.477   2.999
 3050TIP3    H2 9157   0.243   0.484   3.066
 3051TIP3   OH2 9158   4.661   5.231   3.932
 3051TIP3    H1 9159   4.685   5.319   3.960
 3051TIP3    H2 9160   4.744   5.192   3.903
 3052TIP3   OH2 9161   1.008   5.795   2.232
 3052TIP3    H1 9162   1.073   5.772   2.299
 3052TIP3    H2 9163   0.924   5.774   2.273
 3053TIP3   OH2 9164   5.918   5.806   1.547
 3053TIP3    H1 9165   5.970   5.778   1.623
 3053TIP3    H2 9166   5.887   5.724   1.509
 3054TIP3   OH2 9167   2.361   4.900   0.138
 3054TIP3    H1 9168   2.291   4.899   0.073
 3054TIP3    H2 9169   2.436   4.939   0.092
 3055TIP3   OH2 9170   4.625   5.973   1.731
 3055TIP3    H1 9171   4.667   6.059   1.737
 3055TIP3    H2 9172   4.626   5.940   1.821
 3056TIP3   OH2 9173   2.092   2.192   1.670
 3056TIP3    H1 9174   2.101   2.279   1.710
 3056TIP3    H2 9175   2.037   2.143   1.732
 3057TIP3   OH2 9176   1.626   4.475   3.018
 3057TIP3    H1 9177   1.632   4.398   2.961
 3057TIP3    H2 9178   1.573   4.445   3.092
 3058TIP3   OH2 9179   3.172   1.986   2.388
 3058TIP3    H1 9180   3.188   1.922   2.320
 3058TIP3    H2 9181   3.109   2.046   2.350
 3059TIP3   OH2 9182   2.170   4.838   0.959
 3059TIP3    H1 9183   2.086   4.811   0.920
 3059TIP3    H2 9184   2.157   4.930   0.982
 3060TIP3   OH2 9185   5.216   2.113   4.563
 3060TIP3    H1 9186   5.247   2.170   4.633
 3060TIP3    H2 9187   5.248   2.026   4.588
 3061TIP3   OH2 9188   3.796   5.207   1.363
 3061TIP3    H1 9189   3.803   5.198   1.458
 3061TIP3    H2 9190   3.877   5.251   1.337
 3062TIP3   OH2 9191   2.103   1.891   1.341
 3062TIP3    H1 9192   2.155   1.873   1.420
 3062TIP3    H2 9193   2.162   1.872   1.268
 3063TIP3   OH2 9194   4.749   4.145   2.072
 3063TIP3    H1 9195   4.749   4.213   2.139
 3063TIP3    H2 9196   4.660   4.108   2.076
 3064TIP3   OH2 9197   2.901   3.154   0.130
 3064TIP3    H1 9198   2.941   3.223   0.183
 3064TIP3    H2 9199   2.939   3.166   0.043
 3065TIP3   OH2 9200   0.585   3.727   4.707
 3065TIP3    H1 9201   0.587   3.654   4.769
 3065TIP3    H2 9202   0.581   3.685   4.621
 3066TIP3   OH2 9203   0.207   5.411   4.769
 3066TIP3    H1 9204   0.147   5.479   4.739
 3066TIP3    H2 9205   0.257   5.453   4.840
 3067TIP3   OH2 9206   5.704   4.371   2.969
 3067TIP3    H1 9207   5.653   4.298   2.933
 3067TIP3    H2 9208   5.704   4.356   3.063
 3068TIP3   OH2 9209   1.458   0.922   1.413
 3068TIP3    H1 9210   1.478   0.917   1.507
 3068TIP3    H2 9211   1.423   0.836   1.391
 3069TIP3   OH2 9212   2.065   4.661   2.557
 3069TIP3    H1 9213   1.986   4.607   2.563
 3069TIP3    H2 9214   2.135   4.599   2.535
 3070TIP3   OH2 9215   3.414   5.929   4.594
 3070TIP3    H1 9216   3.463   6.011   4.595
 3070TIP3    H2 9217   3.476   5.863   4.624
 3071TIP3   OH2 9218   0.852   4.834   4.300
 3071TIP3    H1 9219   0.903   4.858   4.377
 3071TIP3    H2 9220   0.858   4.738   4.297
 3072TIP3   OH2 9221   0.260   3.589   4.739
 3072TIP3    H1 9222   0.338   3.566   4.790
 3072TIP3    H2 9223   0.187   3.553   4.789
 3073TIP3   OH2 9224   2.375   1.816   3.025
 3073TIP3    H1 9225   2.420   1.776   2.951
 3073TIP3    H2 9226   2.441   1.872   3.066
 3074TIP3   OH2 9227   0.584   3.917   3.617
 3074TIP3    H1 9228   0.630   3.949   3.695
 3074TIP3    H2 9229   0.505   3.972   3.613
 3075TIP3   OH2 9230   1.935   2.662   4.336
 3075TIP3    H1 9231   1.861   2.696   4.386
 3075TIP3    H2 9232   1.906   2.577   4.303
 3076TIP3   OH2 9233   3.493   2.933   0.764
 3076TIP3    H1 9234   3.412   2.976   0.790
 3076TIP3    H2 9235   3.493   2.850   0.810
 3077TIP3   OH2 9236   3.588   4.240   0.380
 3077TIP3    H1 9237   3.532   4.208   0.310
 3077TIP3    H2 9238   3.673   4.252   0.340
 3078TIP3   OH2 9239   0.845   4.391   1.995
 3078TIP3    H1 9240   0.877   4.403   1.906
 3078TIP3    H2 9241   0.830   4.297   2.003
 3079TIP3   OH2 9242   3.209   0.312   3.701
 3079TIP3    H1 9243   3.268   0.237   3.696
 3079TIP3    H2 9244   3.215   0.352   3.614
 3080TIP3   OH2 9245   3.953   1.345   4.797
 3080TIP3    H1 9246   3.882   1.379   4.742
 3080TIP3    H2 9247   4.006   1.292   4.737
 3081TIP3   OH2 9248   2.329   3.725   4.145
 3081TIP3    H1 9249   2.249   3.723   4.198
 3081TIP3    H2 9250   2.303   3.686   4.062
 3082TIP3   OH2 9251   1.418   1.513   4.831
 3082TIP3    H1 9252   1.467   1.553   4.903
 3082TIP3    H2 9253   1.363   1.583   4.797
 3083TIP3   OH2 9254   5.264   3.719   4.252
 3083TIP3    H1 9255   5.184   3.752   4.294
 3083TIP3    H2 9256   5.296   3.652   4.312
 3084TIP3   OH2 9257   1.654   4.294   2.492
 3084TIP3    H1 9258   1.743   4.323   2.471
 3084TIP3    H2 9259   1.653   4.202   2.465
 3085TIP3   OH2 9260   1.212   4.269   3.274
 3085TIP3    H1 9261   1.131   4.320   3.278
 3085TIP3    H2 9262   1.200   4.201   3.340
 3086TIP3   OH2 9263   5.515   4.094   0.551
 3086TIP3    H1 9264   5.539   4.088   0.459
 3086TIP3    H2 9265   5.447   4.028   0.562
 3087TIP3   OH2 9266   3.240   2.878   2.110
 3087TIP3    H1 9267   3.214   2.889   2.201
 3087TIP3    H2 9268   3.326   2.920   2.104
 3088TIP3   OH2 9269   4.639   5.187   1.455
 3088TIP3    H1 9270   4.598   5.108   1.420
 3088TIP3    H2 9271   4.712   5.204   1.397
 3089TIP3   OH2 9272   2.420   5.361   4.448
 3089TIP3    H1 9273   2.475   5.292   4.410
 3089TIP3    H2 9274   2.332   5.341   4.417
 3090TIP3   OH2 9275   1.726   0.224   0.736
 3090TIP3    H1 9276   1.813   0.264   0.738
 3090TIP3    H2 9277   1.694   0.241   0.647
 3091TIP3   OH2 9278   0.476   2.423   4.419
 3091TIP3    H1 9279   0.395   2.431   4.469
 3091TIP3    H2 9280   0.448   2.428   4.328
 3092TIP3   OH2 9281   4.691   3.385   3.450
 3092TIP3    H1 9282   4.774   3.407   3.409
 3092TIP3    H2 9283   4.651   3.320   3.392
 3093TIP3   OH2 9284   2.798   1.807   4.290
 3093TIP3    H1 9285   2.892   1.819   4.277
 3093TIP3    H2 9286   2.778   1.723   4.248
 3094TIP3   OH2 9287   3.395   5.349   4.668
 3094TIP3    H1 9288   3.488   5.374   4.673
 3094TIP3    H2 9289   3.365   5.384   4.584
 3095TIP3   OH2 9290   4.432   4.550   1.750
 3095TIP3    H1 9291   4.510   4.602   1.736
 3095TIP3    H2 9292   4.463   4.459   1.754
 3096TIP3   OH2 9293   6.226   1.073   0.623
 3096TIP3    H1 9294   6.258   0.992   0.662
 3096TIP3    H2 9295   6.256   1.142   0.682
 3097TIP3   OH2 9296   3.669   4.636   4.543
 3097TIP3    H1 9297   3.636   4.551   4.514
 3097TIP3    H2 9298   3.614   4.660   4.617
 3098TIP3   OH2 9299   5.587   0.431   4.088
 3098TIP3    H1 9300   5.587   0.495   4.160
 3098TIP3    H2 9301   5.663   0.454   4.036
 3099TIP3   OH2 9302   6.249   2.458   4.211
 3099TIP3    H1 9303   6.325   2.428   4.262
 3099TIP3    H2 9304   6.194   2.504   4.274
 3100TIP3   OH2 9305   3.016   3.636   2.354
 3100TIP3    H1 9306   3.001   3.728   2.379
 3100TIP3    H2 9307   2.939   3.612   2.303
 3101TIP3   OH2 9308   3.352   5.403   4.952
 3101TIP3    H1 9309   3.364   5.395   4.857
 3101TIP3    H2 9310   3.269   5.450   4.962
 3102TIP3   OH2 9311   6.299   1.165   2.370
 3102TIP3    H1 9312   6.356   1.104   2.323
 3102TIP3    H2 9313   6.260   1.113   2.441
 3103TIP3   OH2 9314   5.468   5.535   3.130
 3103TIP3    H1 9315   5.515   5.453   3.117
 3103TIP3    H2 9316   5.536   5.603   3.131
 3104TIP3   OH2 9317   4.644   4.931   2.944
 3104TIP3    H1 9318   4.560   4.976   2.946
 3104TIP3    H2 9319   4.709   5.002   2.952
 3105TIP3   OH2 9320   1.365   0.556   3.514
 3105TIP3    H1 9321   1.353   0.651   3.512
 3105TIP3    H2 9322   1.459   0.545   3.528
 3106TIP3   OH2 9323   1.247   0.306   1.374
 3106TIP3    H1 9324   1.289   0.240   1.429
 3106TIP3    H2 9325   1.312   0.325   1.307
 3107TIP3   OH2 9326   3.185   2.419   1.840
 3107TIP3    H1 9327   3.094   2.446   1.830
 3107TIP3    H2 9328   3.232   2.501   1.859
 3108TIP3   OH2 9329   5.342   5.820   2.810
 3108TIP3    H1 9330   5.359   5.915   2.807
 3108TIP3    H2 9331   5.308   5.800   2.722
 3109TIP3   OH2 9332   3.782   3.097   3.834
 3109TIP3    H1 9333   3.759   3.004   3.843
 3109TIP3    H2 9334   3.849   3.112   3.901
 3110TIP3   OH2 9335   2.331   0.232   1.417
 3110TIP3    H1 9336   2.358   0.160   1.475
 3110TIP3    H2 9337   2.284   0.188   1.346
 3111TIP3   OH2 9338   4.385   5.580   1.974
 3111TIP3    H1 9339   4.348   5.493   1.961
 3111TIP3    H2 9340   4.381   5.593   2.069
 3112TIP3   OH2 9341   4.794   0.615   4.273
 3112TIP3    H1 9342   4.847   0.669   4.332
 3112TIP3    H2 9343   4.705   0.620   4.310
 3113TIP3   OH2 9344   4.565   5.465   2.888
 3113TIP3    H1 9345   4.628   5.503   2.826
 3113TIP3    H2 9346   4.530   5.541   2.935
 3114TIP3   OH2 9347   5.149   5.472   4.573
 3114TIP3    H1 9348   5.150   5.530   4.496
 3114TIP3    H2 9349   5.058   5.473   4.602
 3115TIP3   OH2 9350   4.256   0.853   4.500
 3115TIP3    H1 9351   4.351   0.848   4.499
 3115TIP3    H2 9352   4.237   0.932   4.551
 3116TIP3   OH2 9353   0.951   5.009   2.025
 3116TIP3    H1 9354   1.039   4.972   2.016
 3116TIP3    H2 9355   0.953   5.087   1.969
 3117TIP3   OH2 9356   0.069   2.631   0.420
 3117TIP3    H1 9357   0.132   2.700   0.439
 3117TIP3    H2 9358  -0.004   2.677   0.378
 3118TIP3   OH2 9359   2.305   4.267   1.484
 3118TIP3    H1 9360   2.400   4.259   1.479
 3118TIP3    H2 9361   2.272   4.210   1.415
 3119TIP3   OH2 9362   2.064   3.877   0.992
 3119TIP3    H1 9363   2.080   3.875   1.086
 3119TIP3    H2 9364   2.151   3.885   0.953
 3120TIP3   OH2 9365   0.814   4.022   2.386
 3120TIP3    H1 9366   0.861   4.102   2.407
 3120TIP3    H2 9367   0.879   3.967   2.342
 3121TIP3   OH2 9368   6.276   0.316   0.055
 3121TIP3    H1 9369   6.350   0.336   0.113
 3121TIP3    H2 9370   6.316   0.291  -0.028
 3122TIP3   OH2 9371   0.258   3.834   0.685
 3122TIP3    H1 9372   0.345   3.864   0.661
 3122TIP3    H2 9373   0.209   3.835   0.603
 3123TIP3   OH2 9374   2.589   1.263   2.398
 3123TIP3    H1 9375   2.610   1.342   2.348
 3123TIP3    H2 9376   2.620   1.281   2.486
 3124TIP3   OH2 9377   4.151   0.476   2.264
 3124TIP3    H1 9378   4.080   0.508   2.208
 3124TIP3    H2 9379   4.155   0.382   2.247
 3125TIP3   OH2 9380   1.341   4.349   1.537
 3125TIP3    H1 9381   1.256   4.392   1.537
 3125TIP3    H2 9382   1.377   4.366   1.624
 3126TIP3   OH2 9383   0.921   2.871   2.391
 3126TIP3    H1 9384   0.982   2.798   2.382
 3126TIP3    H2 9385   0.957   2.924   2.462
 3127TIP3   OH2 9386   4.216   2.817   2.318
 3127TIP3    H1 9387   4.297   2.781   2.281
 3127TIP3    H2 9388   4.245   2.888   2.374
 3128TIP3   OH2 9389   2.081   1.658   3.754
 3128TIP3    H1 9390   2.005   1.609   3.721
 3128TIP3    H2 9391   2.075   1.650   3.849
 3129TIP3   OH2 9392   2.550   0.741   4.825
 3129TIP3    H1 9393   2.577   0.828   4.857
 3129TIP3    H2 9394   2.558   0.684   4.902
 3130TIP3   OH2 9395   0.580   3.539   4.520
 3130TIP3    H1 9396   0.637   3.536   4.444
 3130TIP3    H2 9397   0.544   3.451   4.527
 3131TIP3   OH2 9398   0.279   3.204   1.370
 3131TIP3    H1 9399   0.341   3.270   1.400
 3131TIP3    H2 9400   0.334   3.131   1.341
 3132TIP3   OH2 9401   0.138   1.474   2.210
 3132TIP3    H1 9402   0.148   1.535   2.283
 3132TIP3    H2 9403   0.189   1.397   2.236
 3133TIP3   OH2 9404   6.002   1.718   4.027
 3133TIP3    H1 9405   6.059   1.657   3.980
 3133TIP3    H2 9406   6.016   1.698   4.119
 3134TIP3   OH2 9407   4.240   4.086   1.942
 3134TIP3    H1 9408   4.251   4.026   1.868
 3134TIP3    H2 9409   4.147   4.079   1.965
 3135TIP3   OH2 9410   1.574   1.299   0.498
 3135TIP3    H1 9411   1.642   1.320   0.563
 3135TIP3    H2 9412   1.599   1.214   0.464
 3136TIP3   OH2 9413   1.349   0.265   5.178
 3136TIP3    H1 9414   1.333   0.231   5.266
 3136TIP3    H2 9415   1.280   0.226   5.124
 3137TIP3   OH2 9416   1.828   4.872   2.701
 3137TIP3    H1 9417   1.790   4.941   2.646
 3137TIP3    H2 9418   1.812   4.791   2.651
 3138TIP3   OH2 9419   2.291   1.534   3.446
 3138TIP3    H1 9420   2.267   1.581   3.366
 3138TIP3    H2 9421   2.209   1.497   3.478
 3139TIP3   OH2 9422   4.750   2.104   2.239
 3139TIP3    H1 9423   4.698   2.183   2.227
 3139TIP3    H2 9424   4.773   2.076   2.151
 3140TIP3   OH2 9425   0.734   1.662   3.270
 3140TIP3    H1 9426   0.763   1.675   3.360
 3140TIP3    H2 9427   0.798   1.601   3.233
 3141TIP3   OH2 9428   4.557   1.861   0.047
 3141TIP3    H1 9429   4.621   1.827  -0.015
 3141TIP3    H2 9430   4.550   1.954   0.026
 3142TIP3   OH2 9431   0.813   0.213   2.844
 3142TIP3    H1 9432   0.812   0.273   2.919
 3142TIP3    H2 9433   0.873   0.253   2.781
 3143TIP3   OH2 9434   1.620   4.505   1.989
 3143TIP3    H1 9435   1.560   4.575   1.964
 3143TIP3    H2 9436   1.707   4.545   1.986
 3144TIP3   OH2 9437   2.931   4.894   2.019
 3144TIP3    H1 9438   2.836   4.887   2.004
 3144TIP3    H2 9439   2.956   4.974   1.973
 3145TIP3   OH2 9440   6.005   5.295   0.362
 3145TIP3    H1 9441   6.019   5.384   0.397
 3145TIP3    H2 9442   6.043   5.237   0.429
 3146TIP3   OH2 9443   0.897   5.498   0.483
 3146TIP3    H1 9444   0.927   5.564   0.420
 3146TIP3    H2 9445   0.820   5.459   0.441
 3147TIP3   OH2 9446   5.806   4.916   0.470
 3147TIP3    H1 9447   5.858   4.903   0.391
 3147TIP3    H2 9448   5.830   4.842   0.526
 3148TIP3   OH2 9449   2.131   0.287   2.814
 3148TIP3    H1 9450   2.162   0.239   2.891
 3148TIP3    H2 9451   2.037   0.298   2.830
 3149TIP3   OH2 9452   1.211   2.185   1.273
 3149TIP3    H1 9453   1.296   2.140   1.270
 3149TIP3    H2 9454   1.147   2.114   1.280
 3150TIP3   OH2 9455   3.332   4.145   2.904
 3150TIP3    H1 9456   3.358   4.201   2.831
 3150TIP3    H2 9457   3.281   4.075   2.864
 3151TIP3   OH2 9458   2.825   5.845   0.934
 3151TIP3    H1 9459   2.872   5.764   0.915
 3151TIP3    H2 9460   2.814   5.844   1.029
 3152TIP3   OH2 9461   4.169   2.623   0.114
 3152TIP3    H1 9462   4.101   2.624   0.047
 3152TIP3    H2 9463   4.230   2.691   0.086
 3153TIP3   OH2 9464   5.791   5.970   2.411
 3153TIP3    H1 9465   5.859   5.909   2.440
 3153TIP3    H2 9466   5.767   6.019   2.490
 3154TIP3   OH2 9467   2.081   3.206   0.271
 3154TIP3    H1 9468   2.058   3.281   0.216
 3154TIP3    H2 9469   2.044   3.130   0.225
 3155TIP3   OH2 9470   4.021   5.227   1.219
 3155TIP3    H1 9471   4.106   5.195   1.249
 3155TIP3    H2 9472   3.967   5.149   1.213
 3156TIP3   OH2 9473   2.904   3.331   2.596
 3156TIP3    H1 9474   2.983   3.329   2.651
 3156TIP3    H2 9475   2.858   3.410   2.623
 3157TIP3   OH2 9476   5.691   5.895   2.880
 3157TIP3    H1 9477   5.772   5.875   2.927
 3157TIP3    H2 9478   5.704   5.857   2.793
 3158TIP3   OH2 9479   5.261   1.061   1.884
 3158TIP3    H1 9480   5.216   0.998   1.940
 3158TIP3    H2 9481   5.201   1.135   1.878
 3159TIP3   OH2 9482   4.460   3.625   3.041
 3159TIP3    H1 9483   4.509   3.635   2.960
 3159TIP3    H2 9484   4.493   3.544   3.080
 3160TIP3   OH2 9485   2.635   5.580   2.299
 3160TIP3    H1 9486   2.709   5.587   2.239
 3160TIP3    H2 9487   2.559   5.604   2.245
 3161TIP3   OH2 9488   3.612   3.437   0.492
 3161TIP3    H1 9489   3.536   3.408   0.542
 3161TIP3    H2 9490   3.664   3.358   0.479
 3162TIP3   OH2 9491   2.032   1.343   0.738
 3162TIP3    H1 9492   1.976   1.317   0.665
 3162TIP3    H2 9493   1.976   1.336   0.815
 3163TIP3   OH2 9494   4.613   5.248   3.063
 3163TIP3    H1 9495   4.587   5.251   3.155
 3163TIP3    H2 9496   4.576   5.327   3.024
 3164TIP3   OH2 9497   3.641   5.760   2.114
 3164TIP3    H1 9498   3.581   5.704   2.064
 3164TIP3    H2 9499   3.728   5.739   2.079
 3165TIP3   OH2 9500   1.105   3.593   4.056
 3165TIP3    H1 9501   1.014   3.570   4.079
 3165TIP3    H2 9502   1.153   3.512   4.068
 3166TIP3   OH2 9503   0.339   2.989   1.569
 3166TIP3    H1 9504   0.403   3.036   1.623
 3166TIP3    H2 9505   0.264   3.049   1.563
 3167TIP3   OH2 9506   1.476   4.277   4.897
 3167TIP3    H1 9507   1.484   4.264   4.992
 3167TIP3    H2 9508   1.539   4.216   4.859
 3168TIP3   OH2 9509   5.168   1.258   3.869
 3168TIP3    H1 9510   5.074   1.242   3.858
 3168TIP3    H2 9511   5.198   1.281   3.781
 3169TIP3   OH2 9512   2.584   4.996   5.181
 3169TIP3    H1 9513   2.661   5.046   5.207
 3169TIP3    H2 9514   2.611   4.948   5.103
 3170TIP3   OH2 9515   4.661   5.591   4.970
 3170TIP3    H1 9516   4.743   5.629   5.001
 3170TIP3    H2 9517   4.598   5.609   5.040
 3171TIP3   OH2 9518   6.018   1.044   3.311
 3171TIP3    H1 9519   5.935   1.088   3.331
 3171TIP3    H2 9520   6.006   1.012   3.222
 3172TIP3   OH2 9521   0.858   4.357   0.608
 3172TIP3    H1 9522   0.827   4.269   0.629
 3172TIP3    H2 9523   0.943   4.364   0.653
 3173TIP3   OH2 9524   5.953   0.254   2.765
 3173TIP3    H1 9525   5.919   0.202   2.692
 3173TIP3    H2 9526   6.047   0.235   2.766
 3174TIP3   OH2 9527   4.468   3.006   4.476
 3174TIP3    H1 9528   4.416   3.086   4.478
 3174TIP3    H2 9529   4.548   3.030   4.429
 3175TIP3   OH2 9530   3.701   4.170   3.148
 3175TIP3    H1 9531   3.774   4.186   3.207
 3175TIP3    H2 9532   3.623   4.198   3.197
 3176TIP3   OH2 9533   2.170   1.073   0.042
 3176TIP3    H1 9534   2.247   1.023   0.069
 3176TIP3    H2 9535   2.184   1.161   0.079
 3177TIP3   OH2 9536   0.341   1.615   1.819
 3177TIP3    H1 9537   0.284   1.541   1.801
 3177TIP3    H2 9538   0.349   1.660   1.734
 3178TIP3   OH2 9539   2.714   0.908   3.349
 3178TIP3    H1 9540   2.656   0.837   3.322
 3178TIP3    H2 9541   2.667   0.953   3.419
 3179TIP3   OH2 9542   4.036   4.641   1.571
 3179TIP3    H1 9543   4.018   4.553   1.602
 3179TIP3    H2 9544   3.950   4.684   1.571
 3180TIP3   OH2 9545   3.711   4.039   2.688
 3180TIP3    H1 9546   3.701   4.101   2.761
 3180TIP3    H2 9547   3.625   4.036   2.648
 3181TIP3   OH2 9548   4.366   4.769   2.345
 3181TIP3    H1 9549   4.312   4.816   2.409
 3181TIP3    H2 9550   4.404   4.838   2.291
 3182TIP3   OH2 9551   0.547   3.994   4.554
 3182TIP3    H1 9552   0.515   3.938   4.625
 3182TIP3    H2 9553   0.538   3.941   4.475
 3183TIP3   OH2 9554   4.351   0.427   1.548
 3183TIP3    H1 9555   4.433   0.449   1.504
 3183TIP3    H2 9556   4.290   0.405   1.477
 3184TIP3   OH2 9557   1.739   5.760   4.917
 3184TIP3    H1 9558   1.730   5.754   4.822
 3184TIP3    H2 9559   1.720   5.671   4.948
 3185TIP3   OH2 9560   1.462   5.190   1.023
 3185TIP3    H1 9561   1.489   5.244   0.949
 3185TIP3    H2 9562   1.539   5.136   1.042
 3186TIP3   OH2 9563   2.811   5.304   0.746
 3186TIP3    H1 9564   2.755   5.278   0.820
 3186TIP3    H2 9565   2.827   5.397   0.760
 3187TIP3   OH2 9566   4.373   2.072   3.712
 3187TIP3    H1 9567   4.426   2.066   3.632
 3187TIP3    H2 9568   4.417   2.015   3.775
 3188TIP3   OH2 9569   2.138   4.201   0.521
 3188TIP3    H1 9570   2.071   4.153   0.570
 3188TIP3    H2 9571   2.126   4.292   0.546
 3189TIP3   OH2 9572   1.651   4.421   4.277
 3189TIP3    H1 9573   1.665   4.399   4.184
 3189TIP3    H2 9574   1.556   4.425   4.287
 3190TIP3   OH2 9575   4.781   1.431   3.631
 3190TIP3    H1 9576   4.849   1.492   3.602
 3190TIP3    H2 9577   4.701   1.463   3.588
 3191TIP3   OH2 9578   5.277   5.266   1.288
 3191TIP3    H1 9579   5.329   5.311   1.222
 3191TIP3    H2 9580   5.198   5.238   1.243
 3192TIP3   OH2 9581   1.670   2.508   0.433
 3192TIP3    H1 9582   1.761   2.507   0.462
 3192TIP3    H2 9583   1.661   2.591   0.386
 3193TIP3   OH2 9584   3.301   5.940   0.387
 3193TIP3    H1 9585   3.344   6.021   0.416
 3193TIP3    H2 9586   3.328   5.929   0.296
 3194TIP3   OH2 9587   3.145   4.677   3.432
 3194TIP3    H1 9588   3.065   4.701   3.384
 3194TIP3    H2 9589   3.186   4.761   3.453
 3195TIP3   OH2 9590   6.349   4.307   4.871
 3195TIP3    H1 9591   6.299   4.226   4.859
 3195TIP3    H2 9592   6.383   4.327   4.784
 3196TIP3   OH2 9593   0.920   3.515   3.577
 3196TIP3    H1 9594   0.983   3.552   3.639
 3196TIP3    H2 9595   0.889   3.591   3.527
 3197TIP3   OH2 9596   4.971   1.842   0.719
 3197TIP3    H1 9597   4.915   1.913   0.686
 3197TIP3    H2 9598   4.911   1.783   0.764
 3198TIP3   OH2 9599   3.285   0.240   1.231
 3198TIP3    H1 9600   3.350   0.243   1.160
 3198TIP3    H2 9601   3.311   0.164   1.284
 3199TIP3   OH2 9602   4.091   3.699   0.827
 3199TIP3    H1 9603   4.046   3.655   0.754
 3199TIP3    H2 9604   4.045   3.782   0.836
 3200TIP3   OH2 9605   2.214   3.107   1.307
 3200TIP3    H1 9606   2.138   3.068   1.264
 3200TIP3    H2 9607   2.256   3.034   1.354
 3201TIP3   OH2 9608   1.294   5.582   0.662
 3201TIP3    H1 9609   1.251   5.661   0.697
 3201TIP3    H2 9610   1.225   5.516   0.662
 3202TIP3   OH2 9611   5.837   0.645   2.210
 3202TIP3    H1 9612   5.761   0.598   2.243
 3202TIP3    H2 9613   5.911   0.608   2.258
 3203TIP3   OH2 9614   3.465   0.056   1.072
 3203TIP3    H1 9615   3.448   0.123   1.005
 3203TIP3    H2 9616   3.443  -0.027   1.029
 3204TIP3   OH2 9617   5.005   2.772   3.588
 3204TIP3    H1 9618   5.088   2.758   3.543
 3204TIP3    H2 9619   4.968   2.684   3.598
 3205TIP3   OH2 9620   5.941   0.509   2.862
 3205TIP3    H1 9621   5.847   0.524   2.848
 3205TIP3    H2 9622   5.960   0.429   2.813
 3206TIP3   OH2 9623   5.822   2.921   1.605
 3206TIP3    H1 9624   5.895   2.982   1.591
 3206TIP3    H2 9625   5.846   2.843   1.556
 3207TIP3   OH2 9626   2.512   3.952   4.638
 3207TIP3    H1 9627   2.457   3.890   4.591
 3207TIP3    H2 9628   2.454   3.987   4.706
 3208TIP3   OH2 9629   6.011   4.297   4.516
 3208TIP3    H1 9630   6.075   4.233   4.485
 3208TIP3    H2 9631   6.032   4.310   4.608
 3209TIP3   OH2 9632   5.675   4.062   3.859
 3209TIP3    H1 9633   5.622   3.983   3.846
 3209TIP3    H2 9634   5.710   4.053   3.948
 3210TIP3   OH2 9635   1.223   5.443   3.401
 3210TIP3    H1 9636   1.132   5.433   3.427
 3210TIP3    H2 9637   1.269   5.374   3.449
 3211TIP3   OH2 9638   6.282   0.158   3.074
 3211TIP3    H1 9639   6.266   0.163   2.980
 3211TIP3    H2 9640   6.374   0.132   3.081
 3212TIP3   OH2 9641   5.703   5.172   0.759
 3212TIP3    H1 9642   5.798   5.156   0.754
 3212TIP3    H2 9643   5.694   5.266   0.744
 3213TIP3   OH2 9644   4.343   3.183   1.900
 3213TIP3    H1 9645   4.249   3.200   1.899
 3213TIP3    H2 9646   4.350   3.088   1.905
 3214TIP3   OH2 9647   5.432   1.349   3.168
 3214TIP3    H1 9648   5.399   1.270   3.211
 3214TIP3    H2 9649   5.380   1.420   3.204
 3215TIP3   OH2 9650   1.022   4.439   3.418
 3215TIP3    H1 9651   1.113   4.470   3.413
 3215TIP3    H2 9652   0.971   4.508   3.377
 3216TIP3   OH2 9653   3.397   3.461   4.217
 3216TIP3    H1 9654   3.449   3.532   4.180
 3216TIP3    H2 9655   3.360   3.498   4.297
 3217TIP3   OH2 9656   0.924   2.660   3.107
 3217TIP3    H1 9657   0.966   2.717   3.172
 3217TIP3    H2 9658   0.830   2.674   3.121
 3218TIP3   OH2 9659   4.902   4.226   3.237
 3218TIP3    H1 9660   4.891   4.304   3.292
 3218TIP3    H2 9661   4.946   4.258   3.159
 3219TIP3   OH2 9662   5.172   5.247  -0.025
 3219TIP3    H1 9663   5.243   5.191   0.008
 3219TIP3    H2 9664   5.160   5.313   0.043
 3220TIP3   OH2 9665   6.179   3.953   1.249
 3220TIP3    H1 9666   6.158   4.047   1.250
 3220TIP3    H2 9667   6.189   3.931   1.156
 3221TIP3   OH2 9668   2.650   5.954   0.005
 3221TIP3    H1 9669   2.692   5.954   0.091
 3221TIP3    H2 9670   2.573   5.898   0.016
 3222TIP3   OH2 9671   4.466   5.902   4.185
 3222TIP3    H1 9672   4.398   5.884   4.249
 3222TIP3    H2 9673   4.546   5.865   4.223
 3223TIP3   OH2 9674   5.756   2.193   4.562
 3223TIP3    H1 9675   5.721   2.196   4.473
 3223TIP3    H2 9676   5.740   2.103   4.591
 3224TIP3   OH2 9677   6.169   3.457   1.151
 3224TIP3    H1 9678   6.210   3.469   1.236
 3224TIP3    H2 9679   6.108   3.531   1.143
 3225TIP3   OH2 9680   1.016   5.450   1.877
 3225TIP3    H1 9681   1.012   5.435   1.782
 3225TIP3    H2 9682   0.999   5.544   1.887
 3226TIP3   OH2 9683   0.262   1.681   3.626
 3226TIP3    H1 9684   0.341   1.724   3.594
 3226TIP3    H2 9685   0.230   1.630   3.551
 3227TIP3   OH2 9686   0.272   2.416   4.625
 3227TIP3    H1 9687   0.328   2.340   4.645
 3227TIP3    H2 9688   0.183   2.384   4.639
 3228TIP3   OH2 9689   5.586   4.871   2.554
 3228TIP3    H1 9690   5.604   4.866   2.460
 3228TIP3    H2 9691   5.561   4.962   2.569
 3229TIP3   OH2 9692   2.354   5.968   2.065
 3229TIP3    H1 9693   2.289   5.970   1.994
 3229TIP3    H2 9694   2.438   5.971   2.020
 3230TIP3   OH2 9695   5.078   1.738   3.179
 3230TIP3    H1 9696   5.047   1.647   3.176
 3230TIP3    H2 9697   5.095   1.761   3.088
 3231TIP3   OH2 9698   4.073   4.660   3.542
 3231TIP3    H1 9699   4.157   4.615   3.555
 3231TIP3    H2 9700   4.093   4.753   3.551
 3232TIP3   OH2 9701   5.146   1.662   2.376
 3232TIP3    H1 9702   5.128   1.643   2.285
 3232TIP3    H2 9703   5.092   1.738   2.397
 3233TIP3   OH2 9704   5.901   1.246   4.316
 3233TIP3    H1 9705   5.833   1.215   4.376
 3233TIP3    H2 9706   5.982   1.238   4.365
 3234TIP3   OH2 9707   2.021   5.316   4.808
 3234TIP3    H1 9708   2.113   5.292   4.801
 3234TIP3    H2 9709   1.975   5.246   4.761
 3235TIP3   OH2 9710   1.349   5.656   3.278
 3235TIP3    H1 9711   1.308   5.604   3.347
 3235TIP3    H2 9712   1.426   5.605   3.253
 3236TIP3   OH2 9713   2.426   2.547   4.540
 3236TIP3    H1 9714   2.448   2.640   4.539
 3236TIP3    H2 9715   2.333   2.543   4.517
 3237TIP3   OH2 9716   3.141   1.463   3.311
 3237TIP3    H1 9717   3.068   1.418   3.354
 3237TIP3    H2 9718   3.205   1.477   3.382
 3238TIP3   OH2 9719   3.680   3.642   1.789
 3238TIP3    H1 9720   3.717   3.555   1.778
 3238TIP3    H2 9721   3.656   3.669   1.701
 3239TIP3   OH2 9722   3.657   1.684   4.160
 3239TIP3    H1 9723   3.631   1.609   4.214
 3239TIP3    H2 9724   3.753   1.679   4.158
 3240TIP3   OH2 9725   4.866   1.589   1.684
 3240TIP3    H1 9726   4.781   1.628   1.668
 3240TIP3    H2 9727   4.925   1.663   1.698
 3241TIP3   OH2 9728   0.787   5.855   3.788
 3241TIP3    H1 9729   0.817   5.823   3.703
 3241TIP3    H2 9730   0.844   5.930   3.807
 3242TIP3   OH2 9731   4.383   4.345   0.689
 3242TIP3    H1 9732   4.311   4.308   0.739
 3242TIP3    H2 9733   4.363   4.322   0.598
 3243TIP3   OH2 9734   6.129   3.396   3.590
 3243TIP3    H1 9735   6.198   3.357   3.644
 3243TIP3    H2 9736   6.171   3.410   3.505
 3244TIP3   OH2 9737   4.850   1.548   5.124
 3244TIP3    H1 9738   4.820   1.589   5.205
 3244TIP3    H2 9739   4.867   1.457   5.148
 3245TIP3   OH2 9740   3.433   4.888   0.606
 3245TIP3    H1 9741   3.404   4.819   0.547
 3245TIP3    H2 9742   3.382   4.965   0.579
 3246TIP3   OH2 9743   3.401   4.461   3.489
 3246TIP3    H1 9744   3.419   4.458   3.583
 3246TIP3    H2 9745   3.487   4.477   3.449
 3247TIP3   OH2 9746   2.075   3.432   0.664
 3247TIP3    H1 9747   2.082   3.346   0.622
 3247TIP3    H2 9748   2.021   3.417   0.741
 3248TIP3   OH2 9749   1.481   1.241   2.632
 3248TIP3    H1 9750   1.391   1.273   2.642
 3248TIP3    H2 9751   1.515   1.286   2.555
 3249TIP3   OH2 9752   3.506   3.937   0.928
 3249TIP3    H1 9753   3.460   4.012   0.890
 3249TIP3    H2 9754   3.568   3.975   0.990
 3250TIP3   OH2 9755   2.024   0.042   0.573
 3250TIP3    H1 9756   2.023   0.053   0.668
 3250TIP3    H2 9757   1.941   0.079   0.543
 3251TIP3   OH2 9758   2.812   5.421   0.459
 3251TIP3    H1 9759   2.783   5.351   0.519
 3251TIP3    H2 9760   2.781   5.501   0.500
 3252TIP3   OH2 9761   5.003   0.151   2.279
 3252TIP3    H1 9762   4.971   0.168   2.191
 3252TIP3    H2 9763   4.939   0.193   2.337
 3253TIP3   OH2 9764   0.404   0.386   1.351
 3253TIP3    H1 9765   0.461   0.318   1.316
 3253TIP3    H2 9766   0.318   0.345   1.356
 3254TIP3   OH2 9767   4.639   4.626   3.305
 3254TIP3    H1 9768   4.687   4.704   3.276
 3254TIP3    H2 9769   4.547   4.652   3.302
 3255TIP3   OH2 9770   2.951   5.401   1.098
 3255TIP3    H1 9771   3.043   5.420   1.115
 3255TIP3    H2 9772   2.907   5.416   1.182
 3256TIP3   OH2 9773   3.131   5.826   0.716
 3256TIP3    H1 9774   3.140   5.782   0.801
 3256TIP3    H2 9775   3.108   5.916   0.738
 3257TIP3   OH2 9776   2.698   5.486   4.907
 3257TIP3    H1 9777   2.677   5.556   4.969
 3257TIP3    H2 9778   2.624   5.484   4.846
 3258TIP3   OH2 9779   1.319   4.410   3.796
 3258TIP3    H1 9780   1.230   4.373   3.798
 3258TIP3    H2 9781   1.329   4.450   3.883
 3259TIP3   OH2 9782   4.939   2.410   0.410
 3259TIP3    H1 9783   5.024   2.452   0.422
 3259TIP3    H2 9784   4.878   2.483   0.397
 3260TIP3   OH2 9785   6.211   5.645   2.468
 3260TIP3    H1 9786   6.265   5.717   2.499
 3260TIP3    H2 9787   6.233   5.572   2.527
 3261TIP3   OH2 9788   0.338   4.714   2.407
 3261TIP3    H1 9789   0.383   4.629   2.409
 3261TIP3    H2 9790   0.405   4.775   2.377
 3262TIP3   OH2 9791   4.539   4.947   4.016
 3262TIP3    H1 9792   4.453   4.978   4.045
 3262TIP3    H2 9793   4.581   5.025   3.980
 3263TIP3   OH2 9794   1.864   0.315   1.704
 3263TIP3    H1 9795   1.886   0.291   1.614
 3263TIP3    H2 9796   1.905   0.247   1.758
 3264TIP3   OH2 9797   0.543   4.275   4.614
 3264TIP3    H1 9798   0.451   4.298   4.631
 3264TIP3    H2 9799   0.553   4.188   4.651
 3265TIP3   OH2 9800   4.085   4.623   2.813
 3265TIP3    H1 9801   4.081   4.676   2.734
 3265TIP3    H2 9802   4.120   4.539   2.785
 3266TIP3   OH2 9803   4.830   1.609   4.022
 3266TIP3    H1 9804   4.904   1.659   3.988
 3266TIP3    H2 9805   4.758   1.672   4.023
 3267TIP3   OH2 9806   4.612   3.908   2.319
 3267TIP3    H1 9807   4.615   3.981   2.257
 3267TIP3    H2 9808   4.521   3.905   2.347
 3268TIP3   OH2 9809   0.604   3.230   3.771
 3268TIP3    H1 9810   0.577   3.183   3.692
 3268TIP3    H2 9811   0.522   3.259   3.810
 3269TIP3   OH2 9812   3.429   1.763   4.787
 3269TIP3    H1 9813   3.461   1.776   4.876
 3269TIP3    H2 9814   3.334   1.752   4.796
 3270TIP3   OH2 9815   0.142   2.155   2.063
 3270TIP3    H1 9816   0.228   2.157   2.023
 3270TIP3    H2 9817   0.153   2.199   2.148
 3271TIP3   OH2 9818   1.567   0.788   3.386
 3271TIP3    H1 9819   1.624   0.805   3.462
 3271TIP3    H2 9820   1.551   0.874   3.349
 3272TIP3   OH2 9821   0.642   4.418   3.210
 3272TIP3    H1 9822   0.696   4.497   3.220
 3272TIP3    H2 9823   0.694   4.348   3.248
 3273TIP3   OH2 9824   4.364   5.800   3.972
 3273TIP3    H1 9825   4.437   5.771   3.917
 3273TIP3    H2 9826   4.405   5.828   4.054
 3274TIP3   OH2 9827   3.503   5.799   3.290
 3274TIP3    H1 9828   3.437   5.730   3.298
 3274TIP3    H2 9829   3.497   5.847   3.373
 3275TIP3   OH2 9830   4.359   4.649   3.382
 3275TIP3    H1 9831   4.361   4.554   3.373
 3275TIP3    H2 9832   4.402   4.666   3.466
 3276TIP3   OH2 9833   3.592   4.742   0.407
 3276TIP3    H1 9834   3.621   4.828   0.438
 3276TIP3    H2 9835   3.606   4.684   0.482
 3277TIP3   OH2 9836   2.443   0.468   3.284
 3277TIP3    H1 9837   2.445   0.423   3.368
 3277TIP3    H2 9838   2.460   0.400   3.219
 3278TIP3   OH2 9839   2.473   0.809   0.474
 3278TIP3    H1 9840   2.524   0.742   0.519
 3278TIP3    H2 9841   2.424   0.761   0.406
 3279TIP3   OH2 9842   3.013   4.477   4.646
 3279TIP3    H1 9843   2.934   4.479   4.700
 3279TIP3    H2 9844   3.040   4.386   4.647
 3280TIP3   OH2 9845   4.324   5.118   1.862
 3280TIP3    H1 9846   4.369   5.034   1.854
 3280TIP3    H2 9847   4.342   5.162   1.779
 3281TIP3   OH2 9848   4.316   4.135   1.176
 3281TIP3    H1 9849   4.354   4.165   1.093
 3281TIP3    H2 9850   4.391   4.122   1.234
 3282TIP3   OH2 9851   1.715   3.052   1.591
 3282TIP3    H1 9852   1.794   3.070   1.642
 3282TIP3    H2 9853   1.717   3.117   1.521
 3283TIP3   OH2 9854   4.216   4.569   0.121
 3283TIP3    H1 9855   4.206   4.608   0.034
 3283TIP3    H2 9856   4.311   4.568   0.137
 3284TIP3   OH2 9857   5.964   3.785   5.017
 3284TIP3    H1 9858   5.892   3.819   4.964
 3284TIP3    H2 9859   6.019   3.862   5.034
 3285TIP3   OH2 9860   4.133   3.587   2.547
 3285TIP3    H1 9861   4.131   3.498   2.583
 3285TIP3    H2 9862   4.132   3.644   2.624
 3286TIP3   OH2 9863   2.765   0.174   2.842
 3286TIP3    H1 9864   2.728   0.085   2.841
 3286TIP3    H2 9865   2.827   0.172   2.915
 3287TIP3   OH2 9866   3.669   3.148   3.127
 3287TIP3    H1 9867   3.676   3.241   3.150
 3287TIP3    H2 9868   3.746   3.131   3.073
 3288TIP3   OH2 9869   5.490   4.070   4.335
 3288TIP3    H1 9870   5.486   4.051   4.429
 3288TIP3    H2 9871   5.582   4.092   4.319
 3289TIP3   OH2 9872   2.604   1.141   0.162
 3289TIP3    H1 9873   2.605   1.213   0.098
 3289TIP3    H2 9874   2.675   1.162   0.222
 3290TIP3   OH2 9875   5.808   0.708   1.377
 3290TIP3    H1 9876   5.714   0.720   1.387
 3290TIP3    H2 9877   5.844   0.797   1.385
 3291TIP3   OH2 9878   1.838   0.025   2.775
 3291TIP3    H1 9879   1.812  -0.055   2.730
 3291TIP3    H2 9880   1.906   0.064   2.719
 3292TIP3   OH2 9881   4.812   5.608   3.148
 3292TIP3    H1 9882   4.826   5.598   3.054
 3292TIP3    H2 9883   4.849   5.694   3.168
 3293TIP3   OH2 9884   1.345   2.969   2.820
 3293TIP3    H1 9885   1.409   2.899   2.816
 3293TIP3    H2 9886   1.390   3.041   2.863
 3294TIP3   OH2 9887   5.755   3.165   3.264
 3294TIP3    H1 9888   5.798   3.201   3.341
 3294TIP3    H2 9889   5.741   3.073   3.286
 3295TIP3   OH2 9890   3.447   0.641   1.832
 3295TIP3    H1 9891   3.491   0.710   1.882
 3295TIP3    H2 9892   3.438   0.569   1.895
 3296TIP3   OH2 9893   2.222   0.503   0.559
 3296TIP3    H1 9894   2.182   0.428   0.605
 3296TIP3    H2 9895   2.290   0.464   0.504
 3297TIP3   OH2 9896   4.101   2.119   2.945
 3297TIP3    H1 9897   4.183   2.113   2.995
 3297TIP3    H2 9898   4.045   2.050   2.982
 3298TIP3   OH2 9899   3.946   4.418   3.581
 3298TIP3    H1 9900   4.003   4.355   3.624
 3298TIP3    H2 9901   3.970   4.502   3.620
 3299TIP3   OH2 9902   4.658   4.979   1.960
 3299TIP3    H1 9903   4.657   4.950   1.869
 3299TIP3    H2 9904   4.751   4.992   1.980
 3300TIP3   OH2 9905   2.432   0.820   4.131
 3300TIP3    H1 9906   2.518   0.785   4.152
 3300TIP3    H2 9907   2.390   0.752   4.079
 3301TIP3   OH2 9908   4.791   5.232   1.663
 3301TIP3    H1 9909   4.853   5.233   1.590
 3301TIP3    H2 9910   4.705   5.238   1.623
 3302TIP3   OH2 9911   5.575   1.446   4.264
 3302TIP3    H1 9912   5.649   1.432   4.205
 3302TIP3    H2 9913   5.564   1.362   4.309
 3303TIP3   OH2 9914   4.899   2.076   3.661
 3303TIP3    H1 9915   4.955   2.153   3.671
 3303TIP3    H2 9916   4.814   2.112   3.635
 3304TIP3   OH2 9917   4.967   5.253   1.437
 3304TIP3    H1 9918   5.053   5.233   1.399
 3304TIP3    H2 9919   4.941   5.335   1.395
 3305TIP3   OH2 9920   1.663   0.573   2.873
 3305TIP3    H1 9921   1.611   0.494   2.862
 3305TIP3    H2 9922   1.683   0.602   2.783
 3306TIP3   OH2 9923   2.426   0.072   5.154
 3306TIP3    H1 9924   2.477   0.009   5.103
 3306TIP3    H2 9925   2.340   0.075   5.112
 3307TIP3   OH2 9926   3.482   2.943   4.195
 3307TIP3    H1 9927   3.490   2.895   4.112
 3307TIP3    H2 9928   3.562   2.921   4.243
 3308TIP3   OH2 9929   0.202   5.346   0.441
 3308TIP3    H1 9930   0.209   5.276   0.505
 3308TIP3    H2 9931   0.126   5.323   0.388
 3309TIP3   OH2 9932   5.120   2.679   1.162
 3309TIP3    H1 9933   5.039   2.644   1.199
 3309TIP3    H2 9934   5.170   2.709   1.237
 3310TIP3   OH2 9935   0.300   3.277   5.138
 3310TIP3    H1 9936   0.393   3.290   5.158
 3310TIP3    H2 9937   0.293   3.296   5.045
 3311TIP3   OH2 9938   0.377   3.484   0.524
 3311TIP3    H1 9939   0.306   3.494   0.587
 3311TIP3    H2 9940   0.343   3.420   0.461
 3312TIP3   OH2 9941   0.192   0.833   0.846
 3312TIP3    H1 9942   0.175   0.759   0.904
 3312TIP3    H2 9943   0.285   0.826   0.825
 3313TIP3   OH2 9944   4.474   3.360   4.812
 3313TIP3    H1 9945   4.548   3.300   4.814
 3313TIP3    H2 9946   4.399   3.306   4.789
 3314TIP3   OH2 9947   5.527   4.146   0.285
 3314TIP3    H1 9948   5.595   4.204   0.251
 3314TIP3    H2 9949   5.482   4.113   0.207
 3315TIP3   OH2 9950   5.666   0.517   2.380
 3315TIP3    H1 9951   5.689   0.555   2.465
 3315TIP3    H2 9952   5.607   0.445   2.401
 3316TIP3   OH2 9953   2.426   4.390   1.710
 3316TIP3    H1 9954   2.511   4.387   1.666
 3316TIP3    H2 9955   2.366   4.426   1.644
 3317TIP3   OH2 9956   4.406   2.582   0.708
 3317TIP3    H1 9957   4.437   2.657   0.758
 3317TIP3    H2 9958   4.387   2.515   0.774
 3318TIP3   OH2 9959   2.488   1.719   0.185
 3318TIP3    H1 9960   2.475   1.638   0.234
 3318TIP3    H2 9961   2.480   1.693   0.093
 3319TIP3   OH2 9962   2.107   4.862   2.298
 3319TIP3    H1 9963   2.048   4.887   2.370
 3319TIP3    H2 9964   2.108   4.767   2.301
 3320TIP3   OH2 9965   0.046   3.348   4.482
 3320TIP3    H1 9966   0.032   3.294   4.560
 3320TIP3    H2 9967   0.139   3.338   4.462
 3321TIP3   OH2 9968   1.805   5.585   1.550
 3321TIP3    H1 9969   1.816   5.602   1.457
 3321TIP3    H2 9970   1.760   5.500   1.554
 3322TIP3   OH2 9971   3.152   3.306   1.307
 3322TIP3    H1 9972   3.150   3.400   1.286
 3322TIP3    H2 9973   3.177   3.264   1.225
 3323TIP3   OH2 9974   0.402   2.766   2.426
 3323TIP3    H1 9975   0.362   2.801   2.506
 3323TIP3    H2 9976   0.346   2.799   2.355
 3324TIP3   OH2 9977   1.354   3.073   4.940
 3324TIP3    H1 9978   1.417   3.029   4.997
 3324TIP3    H2 9979   1.270   3.066   4.986
 3325TIP3   OH2 9980   4.528   4.572   0.407
 3325TIP3    H1 9981   4.605   4.542   0.359
 3325TIP3    H2 9982   4.481   4.492   0.430
 3326TIP3   OH2 9983  -0.023   5.638   4.021
 3326TIP3    H1 9984   0.057   5.640   3.968
 3326TIP3    H2 9985  -0.033   5.728   4.053
 3327TIP3   OH2 9986   3.018   0.201   3.464
 3327TIP3    H1 9987   3.080   0.132   3.441
 3327TIP3    H2 9988   3.071   0.274   3.494
 3328TIP3   OH2 9989   0.515   3.309   0.222
 3328TIP3    H1 9990   0.527   3.279   0.132
 3328TIP3    H2 9991   0.461   3.387   0.214
 3329TIP3   OH2 9992   3.406   4.524   3.758
 3329TIP3    H1 9993   3.334   4.585   3.742
 3329TIP3    H2 9994   3.477   4.579   3.792
 3330TIP3   OH2 9995   4.632   4.307   1.560
 3330TIP3    H1 9996   4.562   4.305   1.626
 3330TIP3    H2 9997   4.703   4.255   1.599
 3331TIP3   OH2 9998   1.262   3.960   3.216
 3331TIP3    H1 9999   1.211   3.994   3.290
 3331TIP3    H210000   1.201   3.963   3.142
 3332TIP3   OH210001   2.416   3.763   1.028
 3332TIP3    H110002   2.360   3.828   0.987
 3332TIP3    H210003   2.375   3.679   1.007
 3333TIP3   OH210004   3.998   5.100   4.691
 3333TIP3    H110005   4.054   5.105   4.768
 3333TIP3    H210006   4.056   5.122   4.618
 3334TIP3   OH210007   0.397   0.316   3.278
 3334TIP3    H110008   0.413   0.372   3.353
 3334TIP3    H210009   0.462   0.345   3.213
 3335TIP3   OH210010   4.872   0.512   4.540
 3335TIP3    H110011   4.899   0.603   4.546
 3335TIP3    H210012   4.950   0.462   4.565
 3336TIP3   OH210013   4.627   1.765   4.534
 3336TIP3    H110014   4.694   1.806   4.479
 3336TIP3    H210015   4.667   1.683   4.563
 3337TIP3   OH210016   5.554   5.715   1.320
 3337TIP3    H110017   5.609   5.686   1.393
 3337TIP3    H210018   5.471   5.741   1.362
 3338TIP3   OH210019   6.046   2.134   1.836
 3338TIP3    H110020   6.027   2.142   1.743
 3338TIP3    H210021   6.136   2.166   1.845
 3339TIP3   OH210022   3.051   5.097   4.579
 3339TIP3    H110023   3.132   5.120   4.624
 3339TIP3    H210024   3.066   5.009   4.545
 3340TIP3   OH210025   0.986   2.487   1.013
 3340TIP3    H110026   0.976   2.477   1.108
 3340TIP3    H210027   0.897   2.489   0.979
 3341TIP3   OH210028   2.680   2.922   0.774
 3341TIP3    H110029   2.595   2.894   0.808
 3341TIP3    H210030   2.666   3.010   0.742
 3342TIP3   OH210031   0.403   0.168   2.568
 3342TIP3    H110032   0.351   0.194   2.644
 3342TIP3    H210033   0.410   0.073   2.575
 3343TIP3   OH210034   2.661   1.854   1.776
 3343TIP3    H110035   2.681   1.763   1.800
 3343TIP3    H210036   2.696   1.863   1.687
 3344TIP3   OH210037   2.987   3.588   0.427
 3344TIP3    H110038   2.894   3.574   0.409
 3344TIP3    H210039   3.004   3.677   0.399
 3345TIP3   OH210040   5.410   5.446   2.207
 3345TIP3    H110041   5.435   5.368   2.256
 3345TIP3    H210042   5.432   5.519   2.265
 3346TIP3   OH210043   6.000   1.958   4.622
 3346TIP3    H110044   6.039   1.873   4.642
 3346TIP3    H210045   5.909   1.938   4.600
 3347TIP3   OH210046   1.011   0.682   4.932
 3347TIP3    H110047   1.007   0.631   5.013
 3347TIP3    H210048   1.029   0.771   4.960
 3348TIP3   OH210049   5.480   3.846   4.141
 3348TIP3    H110050   5.474   3.925   4.194
 3348TIP3    H210051   5.410   3.789   4.174
 3349TIP3   OH210052   4.799   0.266   0.403
 3349TIP3    H110053   4.883   0.286   0.362
 3349TIP3    H210054   4.790   0.331   0.473
 3350TIP3   OH210055   3.045   2.709   4.955
 3350TIP3    H110056   3.036   2.714   4.860
 3350TIP3    H210057   3.047   2.615   4.974
 3351TIP3   OH210058   1.735   2.893   1.180
 3351TIP3    H110059   1.736   2.989   1.181
 3351TIP3    H210060   1.646   2.870   1.205
 3352TIP3   OH210061   2.454   2.096   3.497
 3352TIP3    H110062   2.433   2.011   3.457
 3352TIP3    H210063   2.377   2.118   3.549
 3353TIP3   OH210064   3.640   4.463   0.540
 3353TIP3    H110065   3.699   4.453   0.615
 3353TIP3    H210066   3.625   4.373   0.510
 3354TIP3   OH210067   3.860   2.749   1.711
 3354TIP3    H110068   3.812   2.739   1.793
 3354TIP3    H210069   3.808   2.702   1.647
 3355TIP3   OH210070   4.402   5.195   1.595
 3355TIP3    H110071   4.408   5.255   1.520
 3355TIP3    H210072   4.460   5.123   1.572
 3356TIP3   OH210073   4.868   2.705   4.320
 3356TIP3    H110074   4.828   2.773   4.374
 3356TIP3    H210075   4.825   2.624   4.347
 3357TIP3   OH210076   4.311   3.576   4.776
 3357TIP3    H110077   4.256   3.533   4.710
 3357TIP3    H210078   4.386   3.518   4.786
 3358TIP3   OH210079   4.572   4.818   2.521
 3358TIP3    H110080   4.522   4.793   2.443
 3358TIP3    H210081   4.506   4.828   2.590
 3359TIP3   OH210082   1.397   2.668   3.007
 3359TIP3    H110083   1.441   2.694   2.926
 3359TIP3    H210084   1.373   2.576   2.992
 3360TIP3   OH210085   4.012   5.750   3.712
 3360TIP3    H110086   3.972   5.664   3.699
 3360TIP3    H210087   4.090   5.749   3.657
 3361TIP3   OH210088   1.902   2.956   3.699
 3361TIP3    H110089   1.866   3.019   3.761
 3361TIP3    H210090   1.826   2.906   3.668
 3362TIP3   OH210091   4.200   2.083   0.858
 3362TIP3    H110092   4.254   2.008   0.832
 3362TIP3    H210093   4.110   2.053   0.848
 3363TIP3   OH210094   0.016   5.278   2.271
 3363TIP3    H110095   0.110   5.289   2.288
 3363TIP3    H210096  -0.016   5.367   2.258
 3364TIP3   OH210097   3.672   4.320   3.722
 3364TIP3    H110098   3.762   4.305   3.694
 3364TIP3    H210099   3.680   4.352   3.812
 3365TIP3   OH210100   3.356   2.430   3.205
 3365TIP3    H110101   3.352   2.347   3.157
 3365TIP3    H210102   3.356   2.405   3.297
 3366TIP3   OH210103   0.591   4.661   0.606
 3366TIP3    H110104   0.575   4.598   0.676
 3366TIP3    H210105   0.541   4.628   0.531
 3367TIP3   OH210106   0.279   5.807   0.345
 3367TIP3    H110107   0.361   5.846   0.314
 3367TIP3    H210108   0.300   5.715   0.359
 3368TIP3   OH210109   4.745   3.804   1.745
 3368TIP3    H110110   4.801   3.810   1.668
 3368TIP3    H210111   4.804   3.819   1.819
 3369TIP3   OH210112   0.164   4.232   0.242
 3369TIP3    H110113   0.181   4.326   0.242
 3369TIP3    H210114   0.108   4.217   0.166
 3370TIP3   OH210115   0.459   5.297   4.575
 3370TIP3    H110116   0.390   5.235   4.599
 3370TIP3    H210117   0.523   5.291   4.646
 3371TIP3   OH210118   1.500   2.529   4.738
 3371TIP3    H110119   1.547   2.497   4.662
 3371TIP3    H210120   1.442   2.457   4.763
 3372TIP3   OH210121   0.623   3.626   2.200
 3372TIP3    H110122   0.686   3.655   2.266
 3372TIP3    H210123   0.571   3.705   2.181
 3373TIP3   OH210124   5.398   0.161   2.663
 3373TIP3    H110125   5.392   0.193   2.753
 3373TIP3    H210126   5.382   0.067   2.670
 3374TIP3   OH210127   4.474   1.201   2.891
 3374TIP3    H110128   4.438   1.189   2.804
 3374TIP3    H210129   4.402   1.239   2.942
 3375TIP3   OH210130   5.410   4.413   0.394
 3375TIP3    H110131   5.320   4.391   0.414
 3375TIP3    H210132   5.450   4.332   0.363
 3376TIP3   OH210133   0.585   3.207   0.488
 3376TIP3    H110134   0.579   3.225   0.394
 3376TIP3    H210135   0.516   3.261   0.527
 3377TIP3   OH210136   3.686   3.747   2.951
 3377TIP3    H110137   3.620   3.714   2.889
 3377TIP3    H210138   3.638   3.757   3.033
 3378TIP3   OH210139   5.376   3.272   0.068
 3378TIP3    H110140   5.397   3.364   0.051
 3378TIP3    H210141   5.404   3.226  -0.011
 3379TIP3   OH210142   3.750   0.642   4.869
 3379TIP3    H110143   3.751   0.719   4.813
 3379TIP3    H210144   3.696   0.667   4.944
 3380TIP3   OH210145   0.247   4.316   4.403
 3380TIP3    H110146   0.242   4.231   4.360
 3380TIP3    H210147   0.333   4.317   4.445
 3381TIP3   OH210148   2.320   3.741   2.525
 3381TIP3    H110149   2.389   3.806   2.512
 3381TIP3    H210150   2.360   3.658   2.503
 3382TIP3   OH210151   2.528   2.592   0.250
 3382TIP3    H110152   2.555   2.548   0.331
 3382TIP3    H210153   2.490   2.675   0.279
 3383TIP3   OH210154   5.031   3.807   4.403
 3383TIP3    H110155   4.967   3.744   4.435
 3383TIP3    H210156   4.979   3.875   4.360
 3384TIP3   OH210157   0.874   3.790   1.190
 3384TIP3    H110158   0.965   3.805   1.218
 3384TIP3    H210159   0.822   3.845   1.248
 3385TIP3   OH210160   1.208   4.721   3.718
 3385TIP3    H110161   1.244   4.633   3.707
 3385TIP3    H210162   1.213   4.760   3.631
 3386TIP3   OH210163   3.890   0.070   3.038
 3386TIP3    H110164   3.938   0.034   2.964
 3386TIP3    H210165   3.803   0.031   3.032
 3387TIP3   OH210166   3.595   3.470   1.182
 3387TIP3    H110167   3.533   3.465   1.110
 3387TIP3    H210168   3.674   3.509   1.144
 3388TIP3   OH210169   2.282   2.987   4.377
 3388TIP3    H110170   2.310   3.074   4.347
 3388TIP3    H210171   2.261   3.000   4.469
 3389TIP3   OH210172   1.548   3.659   5.124
 3389TIP3    H110173   1.464   3.659   5.079
 3389TIP3    H210174   1.609   3.619   5.062
 3390TIP3   OH210175   1.686   2.738   3.323
 3390TIP3    H110176   1.750   2.779   3.266
 3390TIP3    H210177   1.620   2.702   3.264
 3391TIP3   OH210178   3.527   5.083   1.361
 3391TIP3    H110179   3.596   5.148   1.371
 3391TIP3    H210180   3.532   5.030   1.441
 3392TIP3   OH210181   6.248   5.842   1.208
 3392TIP3    H110182   6.318   5.783   1.180
 3392TIP3    H210183   6.179   5.831   1.143
 3393TIP3   OH210184   1.003   4.723  -0.032
 3393TIP3    H110185   0.989   4.750   0.059
 3393TIP3    H210186   1.050   4.797  -0.072
 3394TIP3   OH210187   1.794   3.202   4.466
 3394TIP3    H110188   1.745   3.129   4.504
 3394TIP3    H210189   1.853   3.161   4.403
 3395TIP3   OH210190   2.514   1.554   2.998
 3395TIP3    H110191   2.467   1.470   2.988
 3395TIP3    H210192   2.514   1.570   3.092
 3396TIP3   OH210193   0.576   2.264   2.108
 3396TIP3    H110194   0.633   2.194   2.141
 3396TIP3    H210195   0.526   2.293   2.184
 3397TIP3   OH210196   4.943   3.480   3.594
 3397TIP3    H110197   4.890   3.446   3.666
 3397TIP3    H210198   5.017   3.420   3.587
 3398TIP3   OH210199   2.758   4.159   4.860
 3398TIP3    H110200   2.804   4.227   4.810
 3398TIP3    H210201   2.827   4.098   4.886
 3399TIP3   OH210202   3.598   3.828   1.271
 3399TIP3    H110203   3.557   3.910   1.296
 3399TIP3    H210204   3.666   3.853   1.208
 3400TIP3   OH210205   5.092   2.137   0.551
 3400TIP3    H110206   5.106   2.220   0.597
 3400TIP3    H210207   5.138   2.147   0.468
 3401TIP3   OH210208   4.457   5.357   0.352
 3401TIP3    H110209   4.490   5.289   0.294
 3401TIP3    H210210   4.363   5.339   0.359
 3402TIP3   OH210211   0.560   1.407   0.511
 3402TIP3    H110212   0.637   1.352   0.526
 3402TIP3    H210213   0.569   1.479   0.574
 3403TIP3   OH210214   3.870   0.126   5.187
 3403TIP3    H110215   3.937   0.188   5.158
 3403TIP3    H210216   3.795   0.180   5.211
 3404TIP3   OH210217   2.712   2.397   4.301
 3404TIP3    H110218   2.767   2.318   4.299
 3404TIP3    H210219   2.737   2.442   4.381
 3405TIP3   OH210220   1.964   0.998   0.719
 3405TIP3    H110221   2.018   1.058   0.668
 3405TIP3    H210222   1.876   1.036   0.714
 3406TIP3   OH210223   5.405   1.847   0.863
 3406TIP3    H110224   5.338   1.897   0.816
 3406TIP3    H210225   5.435   1.782   0.799
 3407TIP3   OH210226   4.413   5.856   0.406
 3407TIP3    H110227   4.487   5.796   0.397
 3407TIP3    H210228   4.378   5.864   0.317
 3408TIP3   OH210229   4.655   3.369   0.287
 3408TIP3    H110230   4.643   3.311   0.211
 3408TIP3    H210231   4.615   3.322   0.360
 3409TIP3   OH210232   2.391   4.635   0.387
 3409TIP3    H110233   2.376   4.729   0.394
 3409TIP3    H210234   2.459   4.617   0.452
 3410TIP3   OH210235   1.342   3.785   2.664
 3410TIP3    H110236   1.403   3.711   2.673
 3410TIP3    H210237   1.351   3.813   2.573
 3411TIP3   OH210238   6.151   1.677   3.255
 3411TIP3    H110239   6.218   1.673   3.187
 3411TIP3    H210240   6.068   1.666   3.207
 3412TIP3   OH210241   0.612   1.004   1.336
 3412TIP3    H110242   0.680   0.961   1.283
 3412TIP3    H210243   0.661   1.065   1.392
 3413TIP3   OH210244   5.719   5.633   0.060
 3413TIP3    H110245   5.648   5.636   0.124
 3413TIP3    H210246   5.690   5.567  -0.004
 3414TIP3   OH210247   1.198   2.909   2.501
 3414TIP3    H110248   1.141   2.925   2.576
 3414TIP3    H210249   1.247   2.830   2.526
 3415TIP3   OH210250   3.870   4.394   1.916
 3415TIP3    H110251   3.919   4.380   1.997
 3415TIP3    H210252   3.784   4.424   1.945
 3416TIP3   OH210253   3.436   2.872   3.646
 3416TIP3    H110254   3.403   2.817   3.575
 3416TIP3    H210255   3.474   2.948   3.601
 3417TIP3   OH210256   4.185   2.549   4.047
 3417TIP3    H110257   4.202   2.514   3.959
 3417TIP3    H210258   4.267   2.593   4.071
 3418TIP3   OH210259   4.890   4.768   2.451
 3418TIP3    H110260   4.912   4.675   2.449
 3418TIP3    H210261   4.954   4.807   2.511
 3419TIP3   OH210262   4.965   4.749   3.030
 3419TIP3    H110263   5.040   4.697   3.001
 3419TIP3    H210264   4.970   4.829   2.977
 3420TIP3   OH210265   4.822   2.647   1.608
 3420TIP3    H110266   4.728   2.638   1.625
 3420TIP3    H210267   4.837   2.742   1.613
 3421TIP3   OH210268   5.961   3.992   3.914
 3421TIP3    H110269   5.918   4.033   3.839
 3421TIP3    H210270   5.902   4.011   3.988
 3422TIP3   OH210271   0.345   4.562   1.616
 3422TIP3    H110272   0.430   4.519   1.629
 3422TIP3    H210273   0.291   4.531   1.688
 3423TIP3   OH210274   0.741   5.651   1.649
 3423TIP3    H110275   0.775   5.724   1.598
 3423TIP3    H210276   0.724   5.688   1.736
 3424TIP3   OH210277   5.669   5.178   0.384
 3424TIP3    H110278   5.736   5.247   0.390
 3424TIP3    H210279   5.716   5.098   0.407
 3425TIP3   OH210280   5.087   2.919   4.550
 3425TIP3    H110281   5.145   2.861   4.501
 3425TIP3    H210282   5.041   2.862   4.611
 3426TIP3   OH210283   0.174   4.988   2.794
 3426TIP3    H110284   0.237   4.975   2.723
 3426TIP3    H210285   0.189   4.915   2.854
 3427TIP3   OH210286   5.293   2.243   1.650
 3427TIP3    H110287   5.292   2.237   1.746
 3427TIP3    H210288   5.253   2.161   1.621
 3428TIP3   OH210289   4.011   5.128   3.711
 3428TIP3    H110290   4.068   5.167   3.645
 3428TIP3    H210291   3.926   5.118   3.667
 3429TIP3   OH210292   2.793   5.921   2.882
 3429TIP3    H110293   2.816   6.007   2.917
 3429TIP3    H210294   2.867   5.896   2.828
 3430TIP3   OH210295   6.057   4.948   3.515
 3430TIP3    H110296   6.088   4.885   3.580
 3430TIP3    H210297   5.967   4.921   3.497
 3431TIP3   OH210298   3.685   2.134   4.489
 3431TIP3    H110299   3.657   2.151   4.579
 3431TIP3    H210300   3.633   2.195   4.436
 3432TIP3   OH210301   2.194   2.442   4.936
 3432TIP3    H110302   2.195   2.442   5.032
 3432TIP3    H210303   2.182   2.534   4.912
 3433TIP3   OH210304   3.937   0.254   4.340
 3433TIP3    H110305   3.971   0.342   4.321
 3433TIP3    H210306   3.989   0.224   4.415
 3434TIP3   OH210307   1.907   5.808   1.703
 3434TIP3    H110308   1.862   5.741   1.651
 3434TIP3    H210309   1.953   5.861   1.638
 3435TIP3   OH210310   1.283   5.720   4.305
 3435TIP3    H110311   1.256   5.807   4.276
 3435TIP3    H210312   1.282   5.666   4.225
 3436TIP3   OH210313   1.685   5.923   4.446
 3436TIP3    H110314   1.663   5.909   4.354
 3436TIP3    H210315   1.733   6.006   4.447
 3437TIP3   OH210316   5.571   1.980   3.103
 3437TIP3    H110317   5.653   2.013   3.067
 3437TIP3    H210318   5.598   1.920   3.173
 3438TIP3   OH210319   2.686   0.678   2.146
 3438TIP3    H110320   2.604   0.721   2.170
 3438TIP3    H210321   2.752   0.720   2.201
 3439TIP3   OH210322   3.717   1.194   0.919
 3439TIP3    H110323   3.776   1.129   0.882
 3439TIP3    H210324   3.772   1.270   0.936
 3440TIP3   OH210325   1.771   5.934   3.738
 3440TIP3    H110326   1.799   5.867   3.800
 3440TIP3    H210327   1.742   5.884   3.661
 3441TIP3   OH210328   5.496   2.705   2.099
 3441TIP3    H110329   5.501   2.799   2.116
 3441TIP3    H210330   5.492   2.698   2.003
 3442TIP3   OH210331   0.658   0.742   1.436
 3442TIP3    H110332   0.656   0.832   1.403
 3442TIP3    H210333   0.644   0.688   1.358
 3443TIP3   OH210334   6.124   5.269   0.882
 3443TIP3    H110335   6.210   5.301   0.908
 3443TIP3    H210336   6.130   5.256   0.787
 3444TIP3   OH210337   3.713   1.858   3.506
 3444TIP3    H110338   3.677   1.849   3.595
 3444TIP3    H210339   3.795   1.809   3.508
 3445TIP3   OH210340   2.544   0.973   5.005
 3445TIP3    H110341   2.449   0.972   4.994
 3445TIP3    H210342   2.557   0.942   5.095
 3446TIP3   OH210343   4.625   5.181   2.351
 3446TIP3    H110344   4.666   5.244   2.292
 3446TIP3    H210345   4.604   5.106   2.295
 3447TIP3   OH210346   4.461   5.518   1.035
 3447TIP3    H110347   4.411   5.437   1.037
 3447TIP3    H210348   4.429   5.565   0.957
 3448TIP3   OH210349   1.205   2.024   2.445
 3448TIP3    H110350   1.261   2.046   2.371
 3448TIP3    H210351   1.158   1.945   2.418
 3449TIP3   OH210352   0.137   0.306   1.831
 3449TIP3    H110353   0.045   0.299   1.806
 3449TIP3    H210354   0.178   0.352   1.758
 3450TIP3   OH210355   1.545   4.536   3.700
 3450TIP3    H110356   1.476   4.471   3.716
 3450TIP3    H210357   1.536   4.600   3.770
 3451TIP3   OH210358   4.723   4.453   3.982
 3451TIP3    H110359   4.719   4.546   4.004
 3451TIP3    H210360   4.763   4.411   4.058
 3452TIP3   OH210361   4.339   2.864   0.270
 3452TIP3    H110362   4.433   2.878   0.275
 3452TIP3    H210363   4.325   2.780   0.313
 3453TIP3   OH210364   1.016   1.835   3.390
 3453TIP3    H110365   1.035   1.795   3.305
 3453TIP3    H210366   0.966   1.768   3.437
 3454TIP3   OH210367   3.256   3.159   2.220
 3454TIP3    H110368   3.202   3.238   2.226
 3454TIP3    H210369   3.216   3.097   2.280
 3455TIP3   OH210370   4.615   1.681   0.571
 3455TIP3    H110371   4.553   1.648   0.637
 3455TIP3    H210372   4.562   1.738   0.515
 3456TIP3   OH210373   6.137   4.750   3.674
 3456TIP3    H110374   6.122   4.660   3.647
 3456TIP3    H210375   6.145   4.746   3.769
 3457TIP3   OH210376   5.802   1.986   3.469
 3457TIP3    H110377   5.763   1.913   3.518
 3457TIP3    H210378   5.818   1.950   3.381
 3458TIP3   OH210379   3.020   1.611   1.045
 3458TIP3    H110380   3.052   1.624   1.134
 3458TIP3    H210381   3.100   1.602   0.992
 3459TIP3   OH210382   2.355   5.865   0.803
 3459TIP3    H110383   2.367   5.882   0.709
 3459TIP3    H210384   2.316   5.945   0.837
 3460TIP3   OH210385   0.598   0.826   3.987
 3460TIP3    H110386   0.581   0.812   4.080
 3460TIP3    H210387   0.588   0.920   3.974
 3461TIP3   OH210388   4.885   5.191   5.009
 3461TIP3    H110389   4.874   5.142   5.090
 3461TIP3    H210390   4.905   5.280   5.037
 3462TIP3   OH210391   1.154   2.338   4.586
 3462TIP3    H110392   1.105   2.263   4.618
 3462TIP3    H210393   1.112   2.414   4.627
 3463TIP3   OH210394   2.143   5.611   4.229
 3463TIP3    H110395   2.136   5.526   4.273
 3463TIP3    H210396   2.237   5.629   4.228
 3464TIP3   OH210397   5.628   4.332   4.677
 3464TIP3    H110398   5.635   4.413   4.626
 3464TIP3    H210399   5.695   4.341   4.745
 3465TIP3   OH210400   6.210   2.563   4.661
 3465TIP3    H110401   6.257   2.644   4.680
 3465TIP3    H210402   6.162   2.581   4.580
 3466TIP3   OH210403   5.204   1.268   1.380
 3466TIP3    H110404   5.223   1.320   1.458
 3466TIP3    H210405   5.235   1.322   1.308
 3467TIP3   OH210406   4.615   5.668   0.312
 3467TIP3    H110407   4.623   5.599   0.378
 3467TIP3    H210408   4.565   5.627   0.241
 3468TIP3   OH210409   3.990   2.484   2.509
 3468TIP3    H110410   3.945   2.510   2.589
 3468TIP3    H210411   3.986   2.562   2.453
 3469TIP3   OH210412   3.970   5.790   0.050
 3469TIP3    H110413   3.945   5.773   0.141
 3469TIP3    H210414   4.015   5.874   0.054
 3470TIP3   OH210415   4.107   2.488   1.608
 3470TIP3    H110416   4.148   2.527   1.531
 3470TIP3    H210417   4.170   2.421   1.637
 3471TIP3   OH210418   1.366   0.194   4.401
 3471TIP3    H110419   1.289   0.142   4.420
 3471TIP3    H210420   1.412   0.201   4.484
 3472TIP3   OH210421   5.538   3.739   1.287
 3472TIP3    H110422   5.585   3.672   1.336
 3472TIP3    H210423   5.553   3.820   1.336
 3473TIP3   OH210424   5.558   1.501   3.960
 3473TIP3    H110425   5.481   1.463   4.003
 3473TIP3    H210426   5.633   1.457   4.002
 3474TIP3   OH210427   2.302   1.707   4.487
 3474TIP3    H110428   2.385   1.727   4.531
 3474TIP3    H210429   2.271   1.792   4.455
 3475TIP3   OH210430   6.121   4.549   2.641
 3475TIP3    H110431   6.037   4.594   2.646
 3475TIP3    H210432   6.179   4.611   2.597
 3476TIP3   OH210433   2.338   2.786   0.519
 3476TIP3    H110434   2.246   2.765   0.503
 3476TIP3    H210435   2.352   2.764   0.611
 3477TIP3   OH210436   1.332   4.580   3.042
 3477TIP3    H110437   1.398   4.584   2.972
 3477TIP3    H210438   1.360   4.508   3.098
 3478TIP3   OH210439   1.232   5.386   3.734
 3478TIP3    H110440   1.179   5.307   3.723
 3478TIP3    H210441   1.303   5.359   3.791
 3479TIP3   OH210442   1.190   1.417   4.175
 3479TIP3    H110443   1.196   1.400   4.081
 3479TIP3    H210444   1.098   1.439   4.190
 3480TIP3   OH210445   0.693   2.112   0.451
 3480TIP3    H110446   0.705   2.187   0.393
 3480TIP3    H210447   0.672   2.040   0.392
 3481TIP3   OH210448   3.819   2.834   0.241
 3481TIP3    H110449   3.881   2.822   0.313
 3481TIP3    H210450   3.811   2.929   0.232
 3482TIP3   OH210451   0.503   4.517   4.806
 3482TIP3    H110452   0.484   4.431   4.767
 3482TIP3    H210453   0.419   4.563   4.803
 3483TIP3   OH210454   4.832   5.149   3.280
 3483TIP3    H110455   4.817   5.111   3.367
 3483TIP3    H210456   4.831   5.244   3.294
 3484TIP3   OH210457   1.824   3.579   0.524
 3484TIP3    H110458   1.841   3.671   0.546
 3484TIP3    H210459   1.884   3.531   0.581
 3485TIP3   OH210460   1.174   4.120   3.483
 3485TIP3    H110461   1.109   4.050   3.479
 3485TIP3    H210462   1.138   4.181   3.548
 3486TIP3   OH210463   3.643   0.748   0.034
 3486TIP3    H110464   3.715   0.764  -0.027
 3486TIP3    H210465   3.564   0.769  -0.016
 3487TIP3   OH210466   3.669   5.260   3.772
 3487TIP3    H110467   3.616   5.209   3.833
 3487TIP3    H210468   3.679   5.203   3.696
 3488TIP3   OH210469   1.386   2.704   2.506
 3488TIP3    H110470   1.466   2.711   2.454
 3488TIP3    H210471   1.366   2.610   2.506
 3489TIP3   OH210472   1.588   3.914   0.735
 3489TIP3    H110473   1.678   3.906   0.764
 3489TIP3    H210474   1.570   3.832   0.688
 3490TIP3   OH210475   4.931   2.662   2.216
 3490TIP3    H110476   4.947   2.572   2.245
 3490TIP3    H210477   4.908   2.653   2.123
 3491TIP3   OH210478   0.424   1.967   3.829
 3491TIP3    H110479   0.344   1.957   3.777
 3491TIP3    H210480   0.453   2.056   3.812
 3492TIP3   OH210481   5.869   1.346   4.816
 3492TIP3    H110482   5.817   1.268   4.797
 3492TIP3    H210483   5.825   1.387   4.891
 3493TIP3   OH210484   3.113   4.540   1.634
 3493TIP3    H110485   3.170   4.564   1.561
 3493TIP3    H210486   3.154   4.581   1.710
 3494TIP3   OH210487   1.615   1.190   2.122
 3494TIP3    H110488   1.665   1.261   2.082
 3494TIP3    H210489   1.534   1.186   2.071
 3495TIP3   OH210490   0.035   0.268   5.057
 3495TIP3    H110491   0.048   0.174   5.046
 3495TIP3    H210492   0.041   0.305   4.969
 3496TIP3   OH210493   4.726   5.244   1.152
 3496TIP3    H110494   4.767   5.158   1.148
 3496TIP3    H210495   4.795   5.304   1.123
 3497TIP3   OH210496   1.713   1.459   2.079
 3497TIP3    H110497   1.795   1.425   2.113
 3497TIP3    H210498   1.726   1.554   2.074
 3498TIP3   OH210499   3.609   4.498   3.311
 3498TIP3    H110500   3.671   4.428   3.292
 3498TIP3    H210501   3.608   4.552   3.231
 3499TIP3   OH210502   2.865   1.844   1.253
 3499TIP3    H110503   2.886   1.751   1.246
 3499TIP3    H210504   2.949   1.889   1.249
 3500TIP3   OH210505   3.482   1.201   0.551
 3500TIP3    H110506   3.569   1.234   0.574
 3500TIP3    H210507   3.429   1.215   0.629
 3501TIP3   OH210508   4.142   0.428   4.743
 3501TIP3    H110509   4.153   0.347   4.793
 3501TIP3    H210510   4.101   0.488   4.805
 3502TIP3   OH210511   1.607   4.249   2.872
 3502TIP3    H110512   1.642   4.239   2.784
 3502TIP3    H210513   1.554   4.170   2.886
 3503TIP3   OH210514   1.024   4.091   1.723
 3503TIP3    H110515   1.077   4.040   1.662
 3503TIP3    H210516   1.042   4.051   1.809
 3504TIP3   OH210517   5.555   2.168   3.484
 3504TIP3    H110518   5.618   2.096   3.483
 3504TIP3    H210519   5.505   2.156   3.403
 3505TIP3   OH210520   6.227   1.736   2.843
 3505TIP3    H110521   6.235   1.759   2.751
 3505TIP3    H210522   6.160   1.667   2.845
 3506TIP3   OH210523   0.654   5.653   2.647
 3506TIP3    H110524   0.599   5.732   2.653
 3506TIP3    H210525   0.601   5.590   2.600
 3507TIP3   OH210526   1.699   2.276   5.068
 3507TIP3    H110527   1.722   2.192   5.029
 3507TIP3    H210528   1.711   2.340   4.998
 3508TIP3   OH210529   1.648   4.729   5.030
 3508TIP3    H110530   1.612   4.641   5.040
 3508TIP3    H210531   1.723   4.718   4.973
 3509TIP3   OH210532   4.998   5.194   2.604
 3509TIP3    H110533   4.943   5.118   2.584
 3509TIP3    H210534   5.070   5.158   2.656
 3510TIP3   OH210535   4.328   3.588   0.671
 3510TIP3    H110536   4.332   3.664   0.613
 3510TIP3    H210537   4.251   3.604   0.725
 3511TIP3   OH210538   5.979   3.956   2.013
 3511TIP3    H110539   6.026   3.887   1.964
 3511TIP3    H210540   6.042   3.985   2.079
 3512TIP3   OH210541   3.484   1.556   4.611
 3512TIP3    H110542   3.464   1.643   4.646
 3512TIP3    H210543   3.426   1.497   4.659
 3513TIP3   OH210544   0.690   2.831   4.702
 3513TIP3    H110545   0.691   2.736   4.692
 3513TIP3    H210546   0.597   2.853   4.711
 3514TIP3   OH210547   6.146   1.101   1.869
 3514TIP3    H110548   6.184   1.188   1.880
 3514TIP3    H210549   6.193   1.064   1.794
 3515TIP3   OH210550   5.447   0.982   0.198
 3515TIP3    H110551   5.539   0.965   0.218
 3515TIP3    H210552   5.436   0.952   0.108
 3516TIP3   OH210553   0.172   0.863   3.415
 3516TIP3    H110554   0.145   0.873   3.324
 3516TIP3    H210555   0.121   0.789   3.447
 3517TIP3   OH210556   6.144   2.257   1.077
 3517TIP3    H110557   6.106   2.334   1.121
 3517TIP3    H210558   6.108   2.183   1.126
 3518TIP3   OH210559   6.039   0.324   0.231
 3518TIP3    H110560   5.989   0.243   0.216
 3518TIP3    H210561   6.107   0.323   0.164
 3519TIP3   OH210562   3.428   2.430   0.574
 3519TIP3    H110563   3.383   2.499   0.623
 3519TIP3    H210564   3.521   2.445   0.591
 3520TIP3   OH210565   1.020   5.177   1.342
 3520TIP3    H110566   0.957   5.109   1.367
 3520TIP3    H210567   0.968   5.241   1.294
 3521TIP3   OH210568   2.814   1.515   2.999
 3521TIP3    H110569   2.726   1.503   3.035
 3521TIP3    H210570   2.863   1.438   3.026
 3522TIP3   OH210571   3.313   1.998   0.290
 3522TIP3    H110572   3.297   2.090   0.310
 3522TIP3    H210573   3.360   1.999   0.206
 3523TIP3   OH210574   4.567   1.443   0.432
 3523TIP3    H110575   4.621   1.503   0.483
 3523TIP3    H210576   4.628   1.376   0.401
 3524TIP3   OH210577   2.362   4.812   3.717
 3524TIP3    H110578   2.455   4.807   3.695
 3524TIP3    H210579   2.325   4.731   3.681
 3525TIP3   OH210580   3.694   1.795   0.813
 3525TIP3    H110581   3.643   1.752   0.744
 3525TIP3    H210582   3.741   1.865   0.768
 3526TIP3   OH210583   2.905   3.750   4.645
 3526TIP3    H110584   2.955   3.828   4.620
 3526TIP3    H210585   2.880   3.710   4.562
 3527TIP3   OH210586   3.145   2.382   2.756
 3527TIP3    H110587   3.093   2.456   2.724
 3527TIP3    H210588   3.234   2.400   2.724
 3528TIP3   OH210589   3.565   1.928   1.675
 3528TIP3    H110590   3.473   1.935   1.650
 3528TIP3    H210591   3.608   1.887   1.600
 3529TIP3   OH210592   6.037   2.019   0.552
 3529TIP3    H110593   5.973   2.090   0.542
 3529TIP3    H210594   6.072   2.005   0.465
 3530TIP3   OH210595   3.740   5.165   3.176
 3530TIP3    H110596   3.646   5.151   3.167
 3530TIP3    H210597   3.779   5.099   3.118
 3531TIP3   OH210598   5.345   2.488   1.797
 3531TIP3    H110599   5.386   2.436   1.727
 3531TIP3    H210600   5.390   2.572   1.794
 3532TIP3   OH210601   3.581   3.757   4.668
 3532TIP3    H110602   3.608   3.838   4.712
 3532TIP3    H210603   3.496   3.736   4.707
 3533TIP3   OH210604   1.240   5.929   3.239
 3533TIP3    H110605   1.254   5.836   3.256
 3533TIP3    H210606   1.236   5.936   3.144
 3534TIP3   OH210607   3.834   5.256   1.877
 3534TIP3    H110608   3.918   5.212   1.883
 3534TIP3    H210609   3.807   5.269   1.968
 3535TIP3   OH210610   3.036   4.690   0.445
 3535TIP3    H110611   2.995   4.604   0.446
 3535TIP3    H210612   3.130   4.673   0.445
 3536TIP3   OH210613   4.496   5.175   0.056
 3536TIP3    H110614   4.493   5.145  -0.035
 3536TIP3    H210615   4.491   5.095   0.108
 3537TIP3   OH210616   3.246   4.593   4.551
 3537TIP3    H110617   3.151   4.589   4.563
 3537TIP3    H210618   3.282   4.543   4.624
 3538TIP3   OH210619   3.097   2.200   0.100
 3538TIP3    H110620   3.079   2.136   0.169
 3538TIP3    H210621   3.103   2.284   0.146
 3539TIP3   OH210622   0.820   1.798   0.469
 3539TIP3    H110623   0.783   1.787   0.557
 3539TIP3    H210624   0.904   1.841   0.483
 3540TIP3   OH210625   2.466   3.467   2.524
 3540TIP3    H110626   2.370   3.467   2.515
 3540TIP3    H210627   2.491   3.375   2.514
 3541TIP3   OH210628   1.768   4.819   3.378
 3541TIP3    H110629   1.730   4.906   3.368
 3541TIP3    H210630   1.694   4.763   3.401
 3542TIP3   OH210631   4.740   5.560   3.545
 3542TIP3    H110632   4.754   5.495   3.477
 3542TIP3    H210633   4.769   5.642   3.506
 3543TIP3   OH210634   2.759   2.671   2.352
 3543TIP3    H110635   2.761   2.586   2.396
 3543TIP3    H210636   2.774   2.735   2.423
 3544TIP3   OH210637   4.751   5.489   4.059
 3544TIP3    H110638   4.726   5.571   4.102
 3544TIP3    H210639   4.789   5.517   3.975
 3545TIP3   OH210640   3.321   2.101   3.428
 3545TIP3    H110641   3.345   2.048   3.504
 3545TIP3    H210642   3.229   2.081   3.413
 3546TIP3   OH210643   5.373   0.146   1.631
 3546TIP3    H110644   5.361   0.099   1.548
 3546TIP3    H210645   5.425   0.222   1.607
 3547TIP3   OH210646   3.744   1.451   4.593
 3547TIP3    H110647   3.652   1.473   4.601
 3547TIP3    H210648   3.790   1.529   4.624
 3548TIP3   OH210649   0.965   5.589   0.736
 3548TIP3    H110650   0.885   5.587   0.788
 3548TIP3    H210651   0.940   5.552   0.651
 3549TIP3   OH210652   1.564   3.640   2.734
 3549TIP3    H110653   1.604   3.577   2.674
 3549TIP3    H210654   1.583   3.725   2.695
 3550TIP3   OH210655   1.273   0.290   3.799
 3550TIP3    H110656   1.177   0.285   3.805
 3550TIP3    H210657   1.298   0.218   3.741
 3551TIP3   OH210658   6.297   1.179   1.376
 3551TIP3    H110659   6.309   1.233   1.454
 3551TIP3    H210660   6.376   1.125   1.372
 3552TIP3   OH210661   0.797   2.087   3.432
 3552TIP3    H110662   0.748   2.131   3.502
 3552TIP3    H210663   0.855   2.027   3.479
 3553TIP3   OH210664   3.729   3.516   3.445
 3553TIP3    H110665   3.643   3.474   3.442
 3553TIP3    H210666   3.789   3.445   3.469
 3554TIP3   OH210667   5.226   3.655   4.845
 3554TIP3    H110668   5.224   3.563   4.870
 3554TIP3    H210669   5.146   3.692   4.882
 3555TIP3   OH210670   5.229   2.615   0.027
 3555TIP3    H110671   5.235   2.589  -0.064
 3555TIP3    H210672   5.247   2.535   0.077
 3556TIP3   OH210673   1.888   0.638   4.857
 3556TIP3    H110674   1.848   0.635   4.770
 3556TIP3    H210675   1.921   0.728   4.865
 3557TIP3   OH210676   1.266   5.152   1.932
 3557TIP3    H110677   1.234   5.096   2.003
 3557TIP3    H210678   1.360   5.136   1.930
 3558TIP3   OH210679   3.471   4.151   4.178
 3558TIP3    H110680   3.502   4.240   4.161
 3558TIP3    H210681   3.380   4.151   4.149
 3559TIP3   OH210682   1.866   1.963   4.466
 3559TIP3    H110683   1.850   2.044   4.516
 3559TIP3    H210684   1.799   1.902   4.496
 3560TIP3   OH210685   3.992   2.564   4.855
 3560TIP3    H110686   3.961   2.489   4.805
 3560TIP3    H210687   4.058   2.605   4.799
 3561TIP3   OH210688   2.799   1.587   5.066
 3561TIP3    H110689   2.882   1.541   5.064
 3561TIP3    H210690   2.789   1.614   5.158
 3562TIP3   OH210691   0.991   0.352   2.646
 3562TIP3    H110692   0.945   0.363   2.562
 3562TIP3    H210693   1.055   0.423   2.648
 3563TIP3   OH210694   3.943   0.102   0.876
 3563TIP3    H110695   3.993   0.026   0.847
 3563TIP3    H210696   3.876   0.114   0.808
 3564TIP3   OH210697   5.985   0.829   2.037
 3564TIP3    H110698   5.931   0.762   2.079
 3564TIP3    H210699   6.073   0.790   2.033
 3565TIP3   OH210700   1.103   1.322   4.924
 3565TIP3    H110701   1.086   1.357   4.837
 3565TIP3    H210702   1.093   1.397   4.983
 3566TIP3   OH210703   0.107   3.837   2.813
 3566TIP3    H110704   0.156   3.761   2.845
 3566TIP3    H210705   0.173   3.894   2.773
 3567TIP3   OH210706   4.894   3.531   4.604
 3567TIP3    H110707   4.987   3.513   4.591
 3567TIP3    H210708   4.850   3.452   4.574
 3568TIP3   OH210709   4.271   2.032   4.301
 3568TIP3    H110710   4.322   1.956   4.330
 3568TIP3    H210711   4.180   2.000   4.297
 3569TIP3   OH210712   2.006   2.767   0.563
 3569TIP3    H110713   1.969   2.690   0.606
 3569TIP3    H210714   1.991   2.753   0.470
 3570TIP3   OH210715   3.954   3.850   2.957
 3570TIP3    H110716   3.962   3.864   2.863
 3570TIP3    H210717   3.862   3.867   2.977
 3571TIP3   OH210718   5.758   2.131   4.967
 3571TIP3    H110719   5.837   2.076   4.964
 3571TIP3    H210720   5.771   2.187   5.043
 3572TIP3   OH210721   3.078   2.014   3.352
 3572TIP3    H110722   3.091   1.956   3.277
 3572TIP3    H210723   3.064   1.955   3.426
 3573TIP3   OH210724   5.477   5.868   2.281
 3573TIP3    H110725   5.525   5.922   2.218
 3573TIP3    H210726   5.399   5.839   2.234
 3574TIP3   OH210727   1.272   4.178   2.735
 3574TIP3    H110728   1.215   4.217   2.801
 3574TIP3    H210729   1.254   4.227   2.655
 3575TIP3   OH210730   0.711   5.884   4.361
 3575TIP3    H110731   0.744   5.795   4.365
 3575TIP3    H210732   0.688   5.906   4.452
 3576TIP3   OH210733   3.415   4.808   0.158
 3576TIP3    H110734   3.493   4.770   0.198
 3576TIP3    H210735   3.360   4.733   0.136
 3577TIP3   OH210736   1.296   2.351   1.515
 3577TIP3    H110737   1.249   2.308   1.443
 3577TIP3    H210738   1.385   2.318   1.509
 3578TIP3   OH210739   2.020   1.022   1.580
 3578TIP3    H110740   1.999   0.964   1.652
 3578TIP3    H210741   2.033   1.108   1.621
 3579TIP3   OH210742   2.390   5.069   2.052
 3579TIP3    H110743   2.335   5.085   2.129
 3579TIP3    H210744   2.478   5.095   2.079
 3580TIP3   OH210745   4.589   1.187   3.448
 3580TIP3    H110746   4.517   1.172   3.387
 3580TIP3    H210747   4.661   1.219   3.392
 3581TIP3   OH210748   5.841   1.189   2.637
 3581TIP3    H110749   5.758   1.235   2.651
 3581TIP3    H210750   5.866   1.212   2.547
 3582TIP3   OH210751   6.067   5.671   1.743
 3582TIP3    H110752   6.065   5.692   1.836
 3582TIP3    H210753   6.057   5.576   1.739
 3583TIP3   OH210754   5.270   1.867   4.672
 3583TIP3    H110755   5.219   1.787   4.661
 3583TIP3    H210756   5.343   1.842   4.729
 3584TIP3   OH210757   1.717   2.790   3.588
 3584TIP3    H110758   1.702   2.774   3.495
 3584TIP3    H210759   1.652   2.735   3.633
 3585TIP3   OH210760   5.313   1.402   4.052
 3585TIP3    H110761   5.256   1.352   3.994
 3585TIP3    H210762   5.290   1.494   4.034
 3586TIP3   OH210763   1.594   0.454   1.787
 3586TIP3    H110764   1.680   0.414   1.771
 3586TIP3    H210765   1.600   0.540   1.745
 3587TIP3   OH210766   0.763   3.056   0.622
 3587TIP3    H110767   0.700   3.012   0.679
 3587TIP3    H210768   0.710   3.115   0.569
 3588TIP3   OH210769   5.098   4.565   3.293
 3588TIP3    H110770   5.137   4.478   3.304
 3588TIP3    H210771   5.012   4.557   3.334
 3589TIP3   OH210772   4.609   0.909   4.923
 3589TIP3    H110773   4.703   0.892   4.927
 3589TIP3    H210774   4.601   0.994   4.879
 3590TIP3   OH210775   0.958   4.602   3.717
 3590TIP3    H110776   0.956   4.571   3.627
 3590TIP3    H210777   1.046   4.638   3.728
 3591TIP3   OH210778   5.124   0.815   4.947
 3591TIP3    H110779   5.119   0.847   5.037
 3591TIP3    H210780   5.179   0.736   4.952
 3592TIP3   OH210781   0.249   1.899   2.450
 3592TIP3    H110782   0.330   1.859   2.482
 3592TIP3    H210783   0.248   1.987   2.489
 3593TIP3   OH210784   2.656   1.913   4.030
 3593TIP3    H110785   2.708   1.952   4.100
 3593TIP3    H210786   2.716   1.855   3.985
 3594TIP3   OH210787   4.328   0.432   2.617
 3594TIP3    H110788   4.421   0.410   2.628
 3594TIP3    H210789   4.281   0.362   2.661
 3595TIP3   OH210790   4.822   3.116   2.490
 3595TIP3    H110791   4.852   3.040   2.440
 3595TIP3    H210792   4.856   3.101   2.579
 3596TIP3   OH210793   4.234   2.076   2.139
 3596TIP3    H110794   4.250   1.982   2.138
 3596TIP3    H210795   4.255   2.106   2.050
 3597TIP3   OH210796   6.384   2.345   4.677
 3597TIP3    H110797   6.323   2.275   4.695
 3597TIP3    H210798   6.329   2.422   4.662
 3598TIP3   OH210799   4.743   4.392   3.691
 3598TIP3    H110800   4.670   4.352   3.644
 3598TIP3    H210801   4.708   4.411   3.778
 3599TIP3   OH210802   1.326   3.635   4.952
 3599TIP3    H110803   1.322   3.546   4.916
 3599TIP3    H210804   1.254   3.682   4.910
 3600TIP3   OH210805   5.328   5.106   2.139
 3600TIP3    H110806   5.358   5.179   2.086
 3600TIP3    H210807   5.281   5.049   2.078
 3601TIP3   OH210808   0.448   3.885   5.006
 3601TIP3    H110809   0.535   3.898   4.969
 3601TIP3    H210810   0.450   3.931   5.090
 3602TIP3   OH210811   2.353   5.655   1.342
 3602TIP3    H110812   2.402   5.596   1.284
 3602TIP3    H210813   2.417   5.684   1.407
 3603TIP3   OH210814   1.606   5.023   3.936
 3603TIP3    H110815   1.688   5.012   3.887
 3603TIP3    H210816   1.626   5.091   4.001
 3604TIP3   OH210817   3.713   1.012   2.648
 3604TIP3    H110818   3.623   1.016   2.680
 3604TIP3    H210819   3.730   1.100   2.613
 3605TIP3   OH210820   2.058   2.905   3.474
 3605TIP3    H110821   2.056   2.984   3.421
 3605TIP3    H210822   1.980   2.910   3.528
 3606TIP3   OH210823   3.667   1.577   4.983
 3606TIP3    H110824   3.585   1.587   5.031
 3606TIP3    H210825   3.663   1.488   4.948
 3607TIP3   OH210826   4.074   4.597   1.312
 3607TIP3    H110827   4.041   4.507   1.310
 3607TIP3    H210828   4.032   4.636   1.389
 3608TIP3   OH210829   5.238   4.996   5.095
 3608TIP3    H110830   5.207   5.066   5.152
 3608TIP3    H210831   5.167   4.983   5.032
 3609TIP3   OH210832   2.027   4.030   1.452
 3609TIP3    H110833   2.081   3.957   1.481
 3609TIP3    H210834   2.072   4.064   1.374
 3610TIP3   OH210835   3.309   0.089   4.724
 3610TIP3    H110836   3.318   0.045   4.640
 3610TIP3    H210837   3.398   0.121   4.743
 3611TIP3   OH210838   4.128   1.202   4.006
 3611TIP3    H110839   4.187   1.178   3.934
 3611TIP3    H210840   4.177   1.180   4.085
 3612TIP3   OH210841   3.976   5.470   0.350
 3612TIP3    H110842   3.947   5.552   0.391
 3612TIP3    H210843   3.935   5.471   0.264
 3613TIP3   OH210844   1.322   4.750   5.041
 3613TIP3    H110845   1.395   4.726   5.097
 3613TIP3    H210846   1.252   4.689   5.066
 3614TIP3   OH210847   4.812   3.140   1.310
 3614TIP3    H110848   4.787   3.131   1.218
 3614TIP3    H210849   4.743   3.094   1.358
 3615TIP3   OH210850   3.806   5.414   3.312
 3615TIP3    H110851   3.900   5.427   3.308
 3615TIP3    H210852   3.794   5.321   3.294
 3616TIP3   OH210853   6.026   2.443   1.473
 3616TIP3    H110854   5.999   2.456   1.382
 3616TIP3    H210855   5.980   2.512   1.521
 3617TIP3   OH210856   3.749   1.294   0.618
 3617TIP3    H110857   3.733   1.345   0.539
 3617TIP3    H210858   3.742   1.357   0.690
 3618TIP3   OH210859   5.562   4.599   3.786
 3618TIP3    H110860   5.497   4.577   3.853
 3618TIP3    H210861   5.591   4.515   3.751
 3619TIP3   OH210862   4.118   1.799   1.420
 3619TIP3    H110863   4.071   1.861   1.476
 3619TIP3    H210864   4.126   1.720   1.474
 3620TIP3   OH210865   1.829   1.831   1.333
 3620TIP3    H110866   1.920   1.857   1.321
 3620TIP3    H210867   1.833   1.752   1.385
 3621TIP3   OH210868   1.149   4.785   2.533
 3621TIP3    H110869   1.076   4.724   2.519
 3621TIP3    H210870   1.141   4.849   2.463
 3622TIP3   OH210871   4.911   5.831   2.099
 3622TIP3    H110872   4.827   5.871   2.076
 3622TIP3    H210873   4.976   5.886   2.056
 3623TIP3   OH210874   5.539   0.926   4.148
 3623TIP3    H110875   5.609   0.873   4.109
 3623TIP3    H210876   5.507   0.874   4.222
 3624TIP3   OH210877   5.951   1.548   1.111
 3624TIP3    H110878   5.980   1.484   1.176
 3624TIP3    H210879   5.895   1.608   1.160
 3625TIP3   OH210880   5.734   4.438   0.768
 3625TIP3    H110881   5.819   4.470   0.798
 3625TIP3    H210882   5.724   4.477   0.681
 3626TIP3   OH210883   2.772   4.739   4.759
 3626TIP3    H110884   2.771   4.729   4.663
 3626TIP3    H210885   2.775   4.649   4.792
 3627TIP3   OH210886   2.773   0.241   0.137
 3627TIP3    H110887   2.729   0.174   0.084
 3627TIP3    H210888   2.820   0.294   0.072
 3628TIP3   OH210889   3.595   5.467   3.156
 3628TIP3    H110890   3.650   5.487   3.232
 3628TIP3    H210891   3.641   5.397   3.110
 3629TIP3   OH210892   2.672   2.698  -0.015
 3629TIP3    H110893   2.586   2.688   0.026
 3629TIP3    H210894   2.670   2.785  -0.054
 3630TIP3   OH210895   0.521   1.227   3.587
 3630TIP3    H110896   0.446   1.168   3.589
 3630TIP3    H210897   0.585   1.188   3.647
 3631TIP3   OH210898   1.007   3.220   3.014
 3631TIP3    H110899   1.066   3.290   2.986
 3631TIP3    H210900   1.023   3.211   3.107
 3632TIP3   OH210901   3.351   0.668   4.718
 3632TIP3    H110902   3.342   0.688   4.811
 3632TIP3    H210903   3.354   0.573   4.713
 3633TIP3   OH210904   3.544   1.610   0.133
 3633TIP3    H110905   3.493   1.584   0.057
 3633TIP3    H210906   3.573   1.698   0.114
 3634TIP3   OH210907   5.341   2.425   4.611
 3634TIP3    H110908   5.429   2.409   4.576
 3634TIP3    H210909   5.297   2.475   4.543
 3635TIP3   OH210910   3.114   0.426   3.921
 3635TIP3    H110911   3.132   0.382   3.838
 3635TIP3    H210912   3.184   0.491   3.930
 3636TIP3   OH210913   2.192   1.753   0.651
 3636TIP3    H110914   2.236   1.797   0.724
 3636TIP3    H210915   2.117   1.710   0.692
 3637TIP3   OH210916   4.439   4.293   0.152
 3637TIP3    H110917   4.514   4.307   0.093
 3637TIP3    H210918   4.363   4.294   0.094
 3638TIP3   OH210919   0.265   4.307   2.216
 3638TIP3    H110920   0.273   4.389   2.265
 3638TIP3    H210921   0.225   4.334   2.133
 3639TIP3   OH210922   1.504   2.977   5.153
 3639TIP3    H110923   1.452   2.896   5.157
 3639TIP3    H210924   1.590   2.949   5.121
 3640TIP3   OH210925   3.944   1.663   4.104
 3640TIP3    H110926   3.967   1.602   4.034
 3640TIP3    H210927   3.944   1.749   4.062
 3641TIP3   OH210928   1.819   2.399   1.852
 3641TIP3    H110929   1.789   2.481   1.891
 3641TIP3    H210930   1.914   2.406   1.852
 3642TIP3   OH210931  -0.006   5.085   1.350
 3642TIP3    H110932   0.056   5.011   1.347
 3642TIP3    H210933  -0.061   5.073   1.273
 3643TIP3   OH210934   0.656   0.293   1.086
 3643TIP3    H110935   0.697   0.287   1.000
 3643TIP3    H210936   0.591   0.223   1.087
 3644TIP3   OH210937   0.641   4.080   2.876
 3644TIP3    H110938   0.734   4.092   2.895
 3644TIP3    H210939   0.608   4.168   2.862
 3645TIP3   OH210940   1.798   3.149   0.435
 3645TIP3    H110941   1.803   3.069   0.487
 3645TIP3    H210942   1.873   3.201   0.464
 3646TIP3   OH210943   3.101   1.679   1.304
 3646TIP3    H110944   3.147   1.757   1.333
 3646TIP3    H210945   3.144   1.607   1.349
 3647TIP3   OH210946   5.807   1.220   1.214
 3647TIP3    H110947   5.782   1.252   1.301
 3647TIP3    H210948   5.799   1.125   1.221
 3648TIP3   OH210949   6.164   2.427   3.929
 3648TIP3    H110950   6.073   2.400   3.936
 3648TIP3    H210951   6.197   2.426   4.019
 3649TIP3   OH210952   0.367   0.885   1.430
 3649TIP3    H110953   0.355   0.801   1.385
 3649TIP3    H210954   0.439   0.869   1.491
 3650TIP3   OH210955   3.305   4.392   0.591
 3650TIP3    H110956   3.322   4.341   0.512
 3650TIP3    H210957   3.221   4.359   0.624
 3651TIP3   OH210958   5.518   1.104   1.856
 3651TIP3    H110959   5.540   1.111   1.949
 3651TIP3    H210960   5.430   1.067   1.854
 3652TIP3   OH210961   1.276  -0.003   3.220
 3652TIP3    H110962   1.192  -0.042   3.243
 3652TIP3    H210963   1.256   0.057   3.148
 3653TIP3   OH210964   5.002   4.340   0.114
 3653TIP3    H110965   4.915   4.368   0.140
 3653TIP3    H210966   4.989   4.300   0.028
 3654TIP3   OH210967   2.888   4.550   3.333
 3654TIP3    H110968   2.830   4.501   3.274
 3654TIP3    H210969   2.829   4.592   3.395
 3655TIP3   OH210970   4.467   5.695   4.587
 3655TIP3    H110971   4.561   5.697   4.602
 3655TIP3    H210972   4.458   5.672   4.495
 3656TIP3   OH210973   5.966   5.450   4.989
 3656TIP3    H110974   6.029   5.390   4.950
 3656TIP3    H210975   5.895   5.454   4.925
 3657TIP3   OH210976   0.128   3.425   3.106
 3657TIP3    H110977   0.068   3.416   3.031
 3657TIP3    H210978   0.098   3.504   3.150
 3658TIP3   OH210979   1.025   1.567   3.259
 3658TIP3    H110980   1.108   1.536   3.295
 3658TIP3    H210981   0.982   1.488   3.225
 3659TIP3   OH210982   1.644   0.467   0.150
 3659TIP3    H110983   1.720   0.409   0.156
 3659TIP3    H210984   1.645   0.517   0.232
 3660TIP3   OH210985   5.776   4.878   1.096
 3660TIP3    H110986   5.798   4.795   1.056
 3660TIP3    H210987   5.814   4.944   1.038
 3661TIP3   OH210988   5.921   1.352   3.314
 3661TIP3    H110989   6.016   1.365   3.315
 3661TIP3    H210990   5.892   1.386   3.398
 3662TIP3   OH210991   5.067   4.427   4.603
 3662TIP3    H110992   5.150   4.403   4.644
 3662TIP3    H210993   5.001   4.396   4.664
 3663TIP3   OH210994   5.713   3.717   4.145
 3663TIP3    H110995   5.659   3.643   4.115
 3663TIP3    H210996   5.656   3.793   4.138
 3664TIP3   OH210997   0.874   2.763   3.424
 3664TIP3    H110998   0.841   2.825   3.359
 3664TIP3    H210999   0.896   2.817   3.500
 3665TIP3   OH211000   4.643   5.716   0.647
 3665TIP3    H111001   4.634   5.670   0.731
 3665TIP3    H211002   4.673   5.649   0.586
 3666TIP3   OH211003   2.209   5.715   1.889
 3666TIP3    H111004   2.179   5.631   1.853
 3666TIP3    H211005   2.149   5.732   1.962
 3667TIP3   OH211006   3.096   2.108   3.000
 3667TIP3    H111007   3.019   2.055   3.021
 3667TIP3    H211008   3.113   2.090   2.908
 3668TIP3   OH211009   0.325   2.865   1.920
 3668TIP3    H111010   0.311   2.958   1.938
 3668TIP3    H211011   0.266   2.846   1.847
 3669TIP3   OH211012   4.564   4.780   1.287
 3669TIP3    H111013   4.608   4.696   1.272
 3669TIP3    H211014   4.512   4.794   1.208
 3670TIP3   OH211015   1.804   2.261   1.010
 3670TIP3    H111016   1.889   2.252   1.052
 3670TIP3    H211017   1.764   2.336   1.054
 3671TIP3   OH211018   2.125   5.632   3.085
 3671TIP3    H111019   2.170   5.576   3.149
 3671TIP3    H211020   2.120   5.579   3.006
 3672TIP3   OH211021   2.390   5.470  -0.008
 3672TIP3    H111022   2.479   5.439   0.006
 3672TIP3    H211023   2.375   5.534   0.063
 3673TIP3   OH211024   4.410   0.883   2.526
 3673TIP3    H111025   4.380   0.794   2.508
 3673TIP3    H211026   4.499   0.885   2.492
 3674TIP3   OH211027   4.720   0.069   1.881
 3674TIP3    H111028   4.708   0.005   1.811
 3674TIP3    H211029   4.779   0.134   1.843
 3675TIP3   OH211030   6.287   1.513   0.490
 3675TIP3    H111031   6.311   1.451   0.420
 3675TIP3    H211032   6.322   1.597   0.460
 3676TIP3   OH211033   3.376   0.021   2.208
 3676TIP3    H111034   3.350   0.023   2.301
 3676TIP3    H211035   3.471   0.012   2.210
 3677TIP3   OH211036   2.262   0.460   0.210
 3677TIP3    H111037   2.225   0.456   0.122
 3677TIP3    H211038   2.332   0.395   0.209
 3678TIP3   OH211039   1.254   5.797   0.044
 3678TIP3    H111040   1.319   5.773  -0.021
 3678TIP3    H211041   1.172   5.762   0.010
 3679TIP3   OH211042   5.770   0.486   4.530
 3679TIP3    H111043   5.839   0.550   4.546
 3679TIP3    H211044   5.782   0.461   4.438
 3680TIP3   OH211045   1.339   4.306   0.534
 3680TIP3    H111046   1.356   4.362   0.458
 3680TIP3    H211047   1.401   4.234   0.526
 3681TIP3   OH211048   0.527   1.775   1.452
 3681TIP3    H111049   0.471   1.853   1.456
 3681TIP3    H211050   0.466   1.702   1.448
 3682TIP3   OH211051   3.773   1.680   3.082
 3682TIP3    H111052   3.799   1.614   3.146
 3682TIP3    H211053   3.718   1.741   3.132
 3683TIP3   OH211054   4.162   5.973   1.032
 3683TIP3    H111055   4.157   5.912   1.106
 3683TIP3    H211056   4.118   5.927   0.960
 3684TIP3   OH211057   3.560   2.135   4.759
 3684TIP3    H111058   3.549   2.097   4.846
 3684TIP3    H211059   3.474   2.126   4.718
 3685TIP3   OH211060   1.112   0.496   2.261
 3685TIP3    H111061   1.045   0.497   2.329
 3685TIP3    H211062   1.077   0.551   2.191
 3686TIP3   OH211063   2.180   2.663   3.141
 3686TIP3    H111064   2.182   2.750   3.180
 3686TIP3    H211065   2.093   2.657   3.099
 3687TIP3   OH211066   4.134   1.038   2.266
 3687TIP3    H111067   4.089   1.059   2.347
 3687TIP3    H211068   4.101   1.102   2.203
 3688TIP3   OH211069   4.591   0.388   2.528
 3688TIP3    H111070   4.659   0.455   2.537
 3688TIP3    H211071   4.574   0.382   2.434
 3689TIP3   OH211072   3.946   5.836   5.163
 3689TIP3    H111073   4.007   5.765   5.143
 3689TIP3    H211074   3.906   5.858   5.079
 3690TIP3   OH211075   2.815   3.189   2.356
 3690TIP3    H111076   2.878   3.231   2.414
 3690TIP3    H211077   2.868   3.142   2.292
 3691TIP3   OH211078   4.784   1.339   1.337
 3691TIP3    H111079   4.768   1.433   1.330
 3691TIP3    H211080   4.845   1.330   1.409
 3692TIP3   OH211081   4.571   5.891   2.583
 3692TIP3    H111082   4.559   5.886   2.678
 3692TIP3    H211083   4.525   5.815   2.548
 3693TIP3   OH211084   5.709   4.547   2.135
 3693TIP3    H111085   5.650   4.535   2.061
 3693TIP3    H211086   5.789   4.499   2.109
 3694TIP3   OH211087   0.006   4.170   3.514
 3694TIP3    H111088   0.063   4.241   3.484
 3694TIP3    H211089   0.005   4.108   3.442
 3695TIP3   OH211090   0.780   3.868   3.409
 3695TIP3    H111091   0.752   3.807   3.341
 3695TIP3    H211092   0.715   3.859   3.478
 3696TIP3   OH211093   0.485   4.905   3.413
 3696TIP3    H111094   0.516   4.966   3.347
 3696TIP3    H211095   0.390   4.900   3.399
 3697TIP3   OH211096   5.231   3.430   3.275
 3697TIP3    H111097   5.202   3.418   3.185
 3697TIP3    H211098   5.274   3.347   3.297
 3698TIP3   OH211099   0.204   5.603   2.034
 3698TIP3    H111100   0.158   5.684   2.056
 3698TIP3    H211101   0.135   5.540   2.014
 3699TIP3   OH211102   2.347   5.337   2.277
 3699TIP3    H111103   2.307   5.250   2.269
 3699TIP3    H211104   2.411   5.327   2.348
 3700TIP3   OH211105   4.814   1.512   0.653
 3700TIP3    H111106   4.746   1.573   0.683
 3700TIP3    H211107   4.829   1.536   0.561
 3701TIP3   OH211108   1.677   0.816   3.058
 3701TIP3    H111109   1.605   0.865   3.097
 3701TIP3    H211110   1.750   0.879   3.056
 3702TIP3   OH211111   5.227   3.996   1.989
 3702TIP3    H111112   5.227   3.958   1.901
 3702TIP3    H211113   5.160   4.064   1.986
 3703TIP3   OH211114   2.748   5.261   0.224
 3703TIP3    H111115   2.776   5.186   0.172
 3703TIP3    H211116   2.656   5.274   0.200
 3704TIP3   OH211117   3.642   4.609   3.873
 3704TIP3    H111118   3.683   4.528   3.905
 3704TIP3    H211119   3.670   4.615   3.781
 3705TIP3   OH211120   0.112   1.049   5.016
 3705TIP3    H111121   0.192   1.032   5.066
 3705TIP3    H211122   0.086   0.964   4.981
 3706TIP3   OH211123   0.582   5.325   2.803
 3706TIP3    H111124   0.530   5.291   2.731
 3706TIP3    H211125   0.524   5.389   2.846
 3707TIP3   OH211126   5.705   5.198   4.418
 3707TIP3    H111127   5.688   5.289   4.442
 3707TIP3    H211128   5.687   5.148   4.498
 3708TIP3   OH211129   2.261   4.265   5.004
 3708TIP3    H111130   2.260   4.360   5.014
 3708TIP3    H211131   2.241   4.250   4.911
 3709TIP3   OH211132   2.907   5.360   4.342
 3709TIP3    H111133   2.861   5.396   4.417
 3709TIP3    H211134   2.873   5.270   4.334
 3710TIP3   OH211135   2.583   4.166   1.903
 3710TIP3    H111136   2.562   4.259   1.910
 3710TIP3    H211137   2.514   4.129   1.848
 3711TIP3   OH211138   2.896   4.764   3.940
 3711TIP3    H111139   2.907   4.848   3.984
 3711TIP3    H211140   2.807   4.737   3.964
 3712TIP3   OH211141   6.403   0.258   2.386
 3712TIP3    H111142   6.342   0.289   2.319
 3712TIP3    H211143   6.377   0.304   2.466
 3713TIP3   OH211144   0.302   5.610   0.793
 3713TIP3    H111145   0.294   5.520   0.764
 3713TIP3    H211146   0.213   5.645   0.792
 3714TIP3   OH211147   3.467   4.238   3.285
 3714TIP3    H111148   3.473   4.164   3.345
 3714TIP3    H211149   3.439   4.311   3.339
 3715TIP3   OH211150   1.141   5.143   3.264
 3715TIP3    H111151   1.121   5.050   3.254
 3715TIP3    H211152   1.206   5.147   3.334
 3716TIP3   OH211153   3.640   1.118   4.756
 3716TIP3    H111154   3.578   1.190   4.748
 3716TIP3    H211155   3.594   1.042   4.719
 3717TIP3   OH211156   2.866   0.234   0.737
 3717TIP3    H111157   2.931   0.200   0.798
 3717TIP3    H211158   2.798   0.272   0.793
 3718TIP3   OH211159   5.202   1.166   2.529
 3718TIP3    H111160   5.124   1.217   2.505
 3718TIP3    H211161   5.169   1.100   2.590
 3719TIP3   OH211162   5.242   1.794   3.389
 3719TIP3    H111163   5.187   1.863   3.427
 3719TIP3    H211164   5.199   1.771   3.307
 3720TIP3   OH211165   3.471   5.450   3.671
 3720TIP3    H111166   3.528   5.511   3.623
 3720TIP3    H211167   3.531   5.395   3.720
 3721TIP3   OH211168   5.681   5.737   2.632
 3721TIP3    H111169   5.727   5.664   2.674
 3721TIP3    H211170   5.645   5.698   2.552
 3722TIP3   OH211171   1.905   3.972   1.787
 3722TIP3    H111172   1.993   3.990   1.820
 3722TIP3    H211173   1.915   3.890   1.738
 3723TIP3   OH211174   2.245   1.391   4.026
 3723TIP3    H111175   2.276   1.440   4.101
 3723TIP3    H211176   2.238   1.301   4.057
 3724TIP3   OH211177   5.367   1.434   0.520
 3724TIP3    H111178   5.321   1.383   0.587
 3724TIP3    H211179   5.397   1.368   0.457
 3725TIP3   OH211180   5.305   1.623   0.297
 3725TIP3    H111181   5.342   1.711   0.293
 3725TIP3    H211182   5.336   1.587   0.381
 3726TIP3   OH211183   5.367   5.779   1.078
 3726TIP3    H111184   5.308   5.741   1.143
 3726TIP3    H211185   5.311   5.798   1.003
 3727TIP3   OH211186   5.727   3.729   2.415
 3727TIP3    H111187   5.777   3.651   2.439
 3727TIP3    H211188   5.646   3.694   2.377
 3728TIP3   OH211189   5.735   1.708   2.900
 3728TIP3    H111190   5.689   1.651   2.962
 3728TIP3    H211191   5.666   1.765   2.864
 3729TIP3   OH211192   3.874   3.343   1.434
 3729TIP3    H111193   3.859   3.411   1.369
 3729TIP3    H211194   3.970   3.336   1.440
 3730TIP3   OH211195   3.640   0.387   5.028
 3730TIP3    H111196   3.562   0.413   4.979
 3730TIP3    H211197   3.714   0.420   4.976
 3731TIP3   OH211198   2.579   5.170   4.368
 3731TIP3    H111199   2.568   5.085   4.325
 3731TIP3    H211200   2.655   5.160   4.425
 3732TIP3   OH211201   3.341   4.788   5.057
 3732TIP3    H111202   3.303   4.871   5.027
 3732TIP3    H211203   3.331   4.729   4.982
 3733TIP3   OH211204   3.872   3.568   1.257
 3733TIP3    H111205   3.948   3.576   1.200
 3733TIP3    H211206   3.852   3.658   1.283
 3734TIP3   OH211207   4.806   4.663   1.065
 3734TIP3    H111208   4.721   4.695   1.035
 3734TIP3    H211209   4.792   4.641   1.157
 3735TIP3   OH211210   2.616   3.337   2.788
 3735TIP3    H111211   2.570   3.367   2.866
 3735TIP3    H211212   2.673   3.411   2.764
 3736TIP3   OH211213   0.343   5.347   5.016
 3736TIP3    H111214   0.377   5.258   5.025
 3736TIP3    H211215   0.248   5.335   5.006
 3737TIP3   OH211216   5.950   4.071   5.019
 3737TIP3    H111217   6.028   4.121   5.044
 3737TIP3    H211218   5.878   4.115   5.064
 3738TIP3   OH211219   1.393   2.286   4.856
 3738TIP3    H111220   1.299   2.295   4.845
 3738TIP3    H211221   1.410   2.192   4.846
 3739TIP3   OH211222   4.191   1.915   4.559
 3739TIP3    H111223   4.100   1.893   4.580
 3739TIP3    H211224   4.195   2.010   4.571
 3740TIP3   OH211225   2.690   1.207   3.416
 3740TIP3    H111226   2.775   1.173   3.444
 3740TIP3    H211227   2.647   1.232   3.498
 3741TIP3   OH211228   4.860   5.079   3.537
 3741TIP3    H111229   4.954   5.100   3.542
 3741TIP3    H211230   4.853   4.992   3.576
 3742TIP3   OH211231   2.841   2.932   0.565
 3742TIP3    H111232   2.772   2.898   0.507
 3742TIP3    H211233   2.799   2.936   0.651
 3743TIP3   OH211234   5.190   1.607   3.708
 3743TIP3    H111235   5.197   1.697   3.674
 3743TIP3    H211236   5.214   1.615   3.800
 3744TIP3   OH211237   0.652   2.767   3.623
 3744TIP3    H111238   0.598   2.760   3.545
 3744TIP3    H211239   0.732   2.810   3.594
 3745TIP3   OH211240   4.373   3.816   2.659
 3745TIP3    H111241   4.407   3.881   2.720
 3745TIP3    H211242   4.297   3.778   2.703
 3746TIP3   OH211243   3.388   2.614   4.735
 3746TIP3    H111244   3.442   2.620   4.656
 3746TIP3    H211245   3.371   2.705   4.759
 3747TIP3   OH211246   2.409   3.564   1.264
 3747TIP3    H111247   2.388   3.480   1.224
 3747TIP3    H211248   2.462   3.609   1.198
 3748TIP3   OH211249   0.568   2.568   2.900
 3748TIP3    H111250   0.614   2.620   2.834
 3748TIP3    H211251   0.521   2.502   2.849
 3749TIP3   OH211252   3.641   4.281   5.134
 3749TIP3    H111253   3.576   4.245   5.194
 3749TIP3    H211254   3.590   4.326   5.067
 3750TIP3   OH211255   0.612   5.256   4.826
 3750TIP3    H111256   0.694   5.284   4.867
 3750TIP3    H211257   0.587   5.178   4.875
 3751TIP3   OH211258   0.429   4.132   3.174
 3751TIP3    H111259   0.387   4.052   3.141
 3751TIP3    H211260   0.451   4.181   3.095
 3752TIP3   OH211261   0.855   4.330   2.749
 3752TIP3    H111262   0.843   4.357   2.658
 3752TIP3    H211263   0.930   4.270   2.746
 3753TIP3   OH211264   5.955   2.805   5.119
 3753TIP3    H111265   5.994   2.758   5.193
 3753TIP3    H211266   5.993   2.892   5.122
 3754TIP3   OH211267   2.551   3.745   3.330
 3754TIP3    H111268   2.512   3.718   3.413
 3754TIP3    H211269   2.555   3.665   3.277
 3755TIP3   OH211270   3.141   0.857   3.468
 3755TIP3    H111271   3.160   0.911   3.545
 3755TIP3    H211272   3.154   0.917   3.394
 3756TIP3   OH211273   1.251   4.735   2.164
 3756TIP3    H111274   1.232   4.655   2.115
 3756TIP3    H211275   1.346   4.745   2.159
 3757TIP3   OH211276   5.807   3.788   1.516
 3757TIP3    H111277   5.787   3.819   1.604
 3757TIP3    H211278   5.863   3.856   1.478
 3758TIP3   OH211279   5.269   3.718   0.805
 3758TIP3    H111280   5.241   3.716   0.897
 3758TIP3    H211281   5.211   3.656   0.761
 3759TIP3   OH211282   4.414   0.538   2.987
 3759TIP3    H111283   4.498   0.529   2.942
 3759TIP3    H211284   4.431   0.599   3.058
 3760TIP3   OH211285   0.292   2.804   3.686
 3760TIP3    H111286   0.375   2.829   3.726
 3760TIP3    H211287   0.315   2.777   3.597
 3761TIP3   OH211288   5.801   4.445   1.745
 3761TIP3    H111289   5.781   4.512   1.680
 3761TIP3    H211290   5.787   4.362   1.699
 3762TIP3   OH211291   2.231   0.960   4.685
 3762TIP3    H111292   2.196   1.039   4.645
 3762TIP3    H211293   2.236   0.897   4.613
 3763TIP3   OH211294   4.376   0.755   3.665
 3763TIP3    H111295   4.288   0.763   3.628
 3763TIP3    H211296   4.426   0.826   3.624
 3764TIP3   OH211297   1.982   0.437   5.012
 3764TIP3    H111298   1.897   0.395   5.005
 3764TIP3    H211299   1.973   0.518   4.962
 3765TIP3   OH211300   4.778   5.918   2.386
 3765TIP3    H111301   4.720   5.895   2.313
 3765TIP3    H211302   4.723   5.908   2.464
 3766TIP3   OH211303   4.936   1.370   4.525
 3766TIP3    H111304   4.996   1.296   4.534
 3766TIP3    H211305   4.856   1.332   4.490
 3767TIP3   OH211306   3.912   0.161   4.060
 3767TIP3    H111307   3.833   0.182   4.010
 3767TIP3    H211308   3.908   0.220   4.136
 3768TIP3   OH211309   4.102   2.633   3.765
 3768TIP3    H111310   4.025   2.633   3.708
 3768TIP3    H211311   4.091   2.710   3.820
 3769TIP3   OH211312   2.610   3.075   4.553
 3769TIP3    H111313   2.541   3.142   4.551
 3769TIP3    H211314   2.683   3.115   4.505
 3770TIP3   OH211315   1.038   3.579   2.664
 3770TIP3    H111316   0.961   3.554   2.613
 3770TIP3    H211317   1.107   3.590   2.599
 3771TIP3   OH211318   4.899   0.296   4.294
 3771TIP3    H111319   4.881   0.345   4.375
 3771TIP3    H211320   4.966   0.232   4.319
 3772TIP3   OH211321   5.504   3.855   1.045
 3772TIP3    H111322   5.534   3.819   1.129
 3772TIP3    H211323   5.503   3.950   1.058
 3773TIP3   OH211324   1.855   0.335   0.449
 3773TIP3    H111325   1.919   0.369   0.511
 3773TIP3    H211326   1.814   0.413   0.411
 3774TIP3   OH211327   6.003   3.191   1.941
 3774TIP3    H111328   5.981   3.195   1.848
 3774TIP3    H211329   6.028   3.280   1.964
 3775TIP3   OH211330   4.924   0.211   2.915
 3775TIP3    H111331   4.873   0.224   2.835
 3775TIP3    H211332   4.888   0.275   2.977
 3776TIP3   OH211333   5.614   3.069   3.932
 3776TIP3    H111334   5.649   3.089   4.019
 3776TIP3    H211335   5.609   2.974   3.929
 3777TIP3   OH211336   0.056   3.885   1.682
 3777TIP3    H111337   0.116   3.818   1.650
 3777TIP3    H211338  -0.026   3.839   1.697
 3778TIP3   OH211339   3.711   2.839   3.762
 3778TIP3    H111340   3.619   2.816   3.775
 3778TIP3    H211341   3.722   2.844   3.667
 3779TIP3   OH211342   0.869   4.560   4.255
 3779TIP3    H111343   0.790   4.508   4.270
 3779TIP3    H211344   0.909   4.522   4.177
 3780TIP3   OH211345   0.724   5.637   3.974
 3780TIP3    H111346   0.743   5.562   3.917
 3780TIP3    H211347   0.741   5.714   3.919
 3781TIP3   OH211348   0.649   4.663   3.699
 3781TIP3    H111349   0.732   4.633   3.660
 3781TIP3    H211350   0.656   4.636   3.791
 3782TIP3   OH211351   3.502   5.228   1.644
 3782TIP3    H111352   3.507   5.232   1.740
 3782TIP3    H211353   3.593   5.227   1.615
 3783TIP3   OH211354   2.137   5.930   2.584
 3783TIP3    H111355   2.228   5.901   2.584
 3783TIP3    H211356   2.140   6.019   2.548
 3784TIP3   OH211357   1.218   5.194   4.463
 3784TIP3    H111358   1.233   5.287   4.478
 3784TIP3    H211359   1.292   5.151   4.507
 3785TIP3   OH211360   2.114   4.567   3.251
 3785TIP3    H111361   2.087   4.568   3.343
 3785TIP3    H211362   2.049   4.513   3.208
 3786TIP3   OH211363   2.905   1.278   3.105
 3786TIP3    H111364   2.983   1.277   3.048
 3786TIP3    H211365   2.925   1.215   3.174
 3787TIP3   OH211366   5.917   3.705   0.927
 3787TIP3    H111367   5.931   3.788   0.883
 3787TIP3    H211368   5.823   3.688   0.919
 3788TIP3   OH211369   1.068   2.243   2.255
 3788TIP3    H111370   1.100   2.305   2.188
 3788TIP3    H211371   1.003   2.190   2.209
 3789TIP3   OH211372   4.357   3.853   2.371
 3789TIP3    H111373   4.339   3.856   2.465
 3789TIP3    H211374   4.334   3.764   2.345
 3790TIP3   OH211375   3.795   1.105   3.959
 3790TIP3    H111376   3.880   1.081   3.995
 3790TIP3    H211377   3.736   1.035   3.988
 3791TIP3   OH211378   0.974   1.440   3.564
 3791TIP3    H111379   0.983   1.473   3.654
 3791TIP3    H211380   1.063   1.441   3.529
 3792TIP3   OH211381   3.259   3.523   1.563
 3792TIP3    H111382   3.247   3.573   1.482
 3792TIP3    H211383   3.351   3.495   1.560
 3793TIP3   OH211384   2.453   5.936   4.767
 3793TIP3    H111385   2.399   5.857   4.761
 3793TIP3    H211386   2.391   6.006   4.789
 3794TIP3   OH211387   3.154   4.686   0.982
 3794TIP3    H111388   3.188   4.736   0.908
 3794TIP3    H211389   3.198   4.602   0.976
 3795TIP3   OH211390   3.166   1.135   1.363
 3795TIP3    H111391   3.185   1.190   1.286
 3795TIP3    H211392   3.252   1.101   1.390
 3796TIP3   OH211393   1.359   1.369   0.638
 3796TIP3    H111394   1.360   1.344   0.730
 3796TIP3    H211395   1.436   1.327   0.600
 3797TIP3   OH211396   2.460   4.680   4.499
 3797TIP3    H111397   2.447   4.606   4.439
 3797TIP3    H211398   2.554   4.699   4.492
 3798TIP3   OH211399   0.488   3.922   1.812
 3798TIP3    H111400   0.530   3.998   1.852
 3798TIP3    H211401   0.397   3.927   1.841
 3799TIP3   OH211402   2.611   2.659   2.681
 3799TIP3    H111403   2.646   2.710   2.755
 3799TIP3    H211404   2.589   2.725   2.615
 3800TIP3   OH211405   5.945   4.549   3.791
 3800TIP3    H111406   5.964   4.473   3.736
 3800TIP3    H211407   5.862   4.582   3.758
 3801TIP3   OH211408   5.410   4.604   4.017
 3801TIP3    H111409   5.347   4.573   4.081
 3801TIP3    H211410   5.431   4.693   4.044
 3802TIP3   OH211411   5.693   4.740   0.689
 3802TIP3    H111412   5.694   4.656   0.642
 3802TIP3    H211413   5.604   4.773   0.678
 3803TIP3   OH211414   0.390   0.938   2.164
 3803TIP3    H111415   0.365   0.851   2.134
 3803TIP3    H211416   0.413   0.985   2.083
 3804TIP3   OH211417   3.992   5.789   4.561
 3804TIP3    H111418   3.948   5.742   4.632
 3804TIP3    H211419   4.070   5.826   4.602
 3805TIP3   OH211420   3.800   1.135   1.651
 3805TIP3    H111421   3.895   1.133   1.652
 3805TIP3    H211422   3.778   1.154   1.560
 3806TIP3   OH211423   3.286   0.077   3.488
 3806TIP3    H111424   3.342   0.064   3.565
 3806TIP3    H211425   3.325   0.021   3.421
 3807TIP3   OH211426   0.002   0.554   2.822
 3807TIP3    H111427   0.049   0.486   2.774
 3807TIP3    H211428   0.070   0.618   2.845
 3808TIP3   OH211429   4.306   5.940   2.222
 3808TIP3    H111430   4.242   5.941   2.293
 3808TIP3    H211431   4.265   5.990   2.152
 3809TIP3   OH211432   2.270   1.698   2.664
 3809TIP3    H111433   2.191   1.684   2.612
 3809TIP3    H211434   2.259   1.642   2.741
 3810TIP3   OH211435   3.283   5.613   2.656
 3810TIP3    H111436   3.377   5.601   2.669
 3810TIP3    H211437   3.260   5.686   2.715
 3811TIP3   OH211438   3.830   1.099   4.955
 3811TIP3    H111439   3.900   1.139   4.903
 3811TIP3    H211440   3.756   1.093   4.895
 3812TIP3   OH211441   2.022   0.723   2.281
 3812TIP3    H111442   2.032   0.777   2.359
 3812TIP3    H211443   2.060   0.639   2.305
 3813TIP3   OH211444   3.611   2.836   0.534
 3813TIP3    H111445   3.689   2.782   0.546
 3813TIP3    H211446   3.588   2.865   0.622
 3814TIP3   OH211447   0.658   1.634   4.688
 3814TIP3    H111448   0.642   1.682   4.769
 3814TIP3    H211449   0.724   1.569   4.711
 3815TIP3   OH211450   1.446   0.910   1.088
 3815TIP3    H111451   1.474   0.974   1.154
 3815TIP3    H211452   1.405   0.840   1.139
 3816TIP3   OH211453   3.225   2.687   3.554
 3816TIP3    H111454   3.141   2.730   3.544
 3816TIP3    H211455   3.277   2.715   3.479
 3817TIP3   OH211456   6.352   4.584   0.771
 3817TIP3    H111457   6.392   4.670   0.785
 3817TIP3    H211458   6.272   4.586   0.823
 3818TIP3   OH211459   0.764   2.388   2.729
 3818TIP3    H111460   0.723   2.474   2.720
 3818TIP3    H211461   0.858   2.405   2.721
 3819TIP3   OH211462   2.633   4.735   1.730
 3819TIP3    H111463   2.642   4.799   1.660
 3819TIP3    H211464   2.542   4.742   1.758
 3820TIP3   OH211465   0.571   4.447   2.051
 3820TIP3    H111466   0.571   4.444   2.147
 3820TIP3    H211467   0.651   4.401   2.026
 3821TIP3   OH211468   0.146   2.325   2.780
 3821TIP3    H111469   0.092   2.284   2.847
 3821TIP3    H211470   0.095   2.401   2.751
 3822TIP3   OH211471   5.744   3.873   2.159
 3822TIP3    H111472   5.813   3.884   2.093
 3822TIP3    H211473   5.791   3.862   2.241
 3823TIP3   OH211474   4.138   5.623   2.757
 3823TIP3    H111475   4.048   5.646   2.782
 3823TIP3    H211476   4.190   5.646   2.834
 3824TIP3   OH211477   4.646   4.400   3.123
 3824TIP3    H111478   4.732   4.425   3.088
 3824TIP3    H211479   4.633   4.459   3.197
 3825TIP3   OH211480   4.016   1.246   2.100
 3825TIP3    H111481   3.980   1.312   2.159
 3825TIP3    H211482   4.029   1.291   2.017
 3826TIP3   OH211483   3.091   0.911   0.283
 3826TIP3    H111484   3.058   0.822   0.293
 3826TIP3    H211485   3.181   0.907   0.316
 3827TIP3   OH211486   4.339   0.014   4.581
 3827TIP3    H111487   4.396   0.085   4.611
 3827TIP3    H211488   4.262   0.059   4.545
 3828TIP3   OH211489   1.885   1.260   2.979
 3828TIP3    H111490   1.807   1.214   3.008
 3828TIP3    H211491   1.854   1.322   2.913
 3829TIP3   OH211492   4.416   3.747   5.024
 3829TIP3    H111493   4.446   3.657   5.029
 3829TIP3    H211494   4.362   3.759   5.103
 3830TIP3   OH211495   2.258   4.723   1.857
 3830TIP3    H111496   2.314   4.768   1.793
 3830TIP3    H211497   2.195   4.789   1.884
 3831TIP3   OH211498   3.660   4.138   0.681
 3831TIP3    H111499   3.659   4.045   0.702
 3831TIP3    H211500   3.610   4.145   0.600
 3832TIP3   OH211501   5.832   1.701   2.177
 3832TIP3    H111502   5.856   1.785   2.216
 3832TIP3    H211503   5.791   1.725   2.094
 3833TIP3   OH211504   2.018   2.782   2.788
 3833TIP3    H111505   2.014   2.700   2.737
 3833TIP3    H211506   1.977   2.760   2.872
 3834TIP3   OH211507   5.985   4.049   2.968
 3834TIP3    H111508   5.999   4.099   2.888
 3834TIP3    H211509   6.013   3.960   2.947
 3835TIP3   OH211510   2.096   2.661  -0.004
 3835TIP3    H111511   2.157   2.640   0.067
 3835TIP3    H211512   2.050   2.579  -0.021
 3836TIP3   OH211513   0.678   1.908   0.277
 3836TIP3    H111514   0.721   1.856   0.344
 3836TIP3    H211515   0.745   1.919   0.209
 3837TIP3   OH211516   3.013   5.445   1.609
 3837TIP3    H111517   3.027   5.534   1.576
 3837TIP3    H211518   3.065   5.440   1.689
 3838TIP3   OH211519   3.054   1.121   3.279
 3838TIP3    H111520   3.130   1.131   3.336
 3838TIP3    H211521   2.983   1.098   3.338
 3839TIP3   OH211522   0.766   1.621   0.242
 3839TIP3    H111523   0.732   1.646   0.328
 3839TIP3    H211524   0.857   1.597   0.257
 3840TIP3   OH211525   2.986   3.070   2.144
 3840TIP3    H111526   2.987   2.974   2.152
 3840TIP3    H211527   3.064   3.090   2.092
 3841TIP3   OH211528   5.334   0.105   0.625
 3841TIP3    H111529   5.278   0.048   0.571
 3841TIP3    H211530   5.272   0.156   0.677
 3842TIP3   OH211531   1.961   4.635   1.642
 3842TIP3    H111532   1.985   4.579   1.568
 3842TIP3    H211533   1.874   4.667   1.620
 3843TIP3   OH211534   0.405   4.621   3.510
 3843TIP3    H111535   0.384   4.706   3.471
 3843TIP3    H211536   0.481   4.638   3.566
 3844TIP3   OH211537   3.123   0.089   2.094
 3844TIP3    H111538   3.075   0.030   2.153
 3844TIP3    H211539   3.214   0.080   2.122
 3845TIP3   OH211540   6.097   1.420   0.890
 3845TIP3    H111541   6.061   1.471   0.963
 3845TIP3    H211542   6.102   1.482   0.817
 3846TIP3   OH211543   1.727   2.449   3.010
 3846TIP3    H111544   1.685   2.455   2.925
 3846TIP3    H211545   1.655   2.441   3.073
 3847TIP3   OH211546   0.859   0.731   4.034
 3847TIP3    H111547   0.787   0.788   4.006
 3847TIP3    H211548   0.835   0.702   4.122
 3848TIP3   OH211549   1.514   4.165   3.766
 3848TIP3    H111550   1.440   4.190   3.821
 3848TIP3    H211551   1.502   4.216   3.686
 3849TIP3   OH211552   1.911   4.007   2.694
 3849TIP3    H111553   1.876   4.019   2.605
 3849TIP3    H211554   1.834   3.985   2.747
 3850TIP3   OH211555   3.109   1.333   4.465
 3850TIP3    H111556   3.137   1.425   4.463
 3850TIP3    H211557   3.104   1.312   4.558
 3851TIP3   OH211558   1.499   1.034   5.082
 3851TIP3    H111559   1.526   1.026   4.991
 3851TIP3    H211560   1.444   1.112   5.085
 3852TIP3   OH211561   6.075   3.268   0.987
 3852TIP3    H111562   6.129   3.189   0.991
 3852TIP3    H211563   6.113   3.326   1.053
 3853TIP3   OH211564   2.661   0.586   4.137
 3853TIP3    H111565   2.608   0.539   4.200
 3853TIP3    H211566   2.685   0.521   4.071
 3854TIP3   OH211567   4.163   4.131   2.701
 3854TIP3    H111568   4.135   4.060   2.643
 3854TIP3    H211569   4.099   4.131   2.772
 3855TIP3   OH211570   2.541   1.003   3.573
 3855TIP3    H111571   2.497   1.080   3.537
 3855TIP3    H211572   2.482   0.970   3.641
 3856TIP3   OH211573   3.516   0.176   4.499
 3856TIP3    H111574   3.536   0.167   4.406
 3856TIP3    H211575   3.601   0.165   4.542
 3857TIP3   OH211576   3.515   3.709   2.730
 3857TIP3    H111577   3.471   3.794   2.722
 3857TIP3    H211578   3.505   3.669   2.644
 3858TIP3   OH211579   0.944   0.202   4.582
 3858TIP3    H111580   0.876   0.181   4.645
 3858TIP3    H211581   0.936   0.296   4.567
 3859TIP3   OH211582   3.900   4.820   3.836
 3859TIP3    H111583   3.959   4.745   3.834
 3859TIP3    H211584   3.854   4.817   3.752
 3860TIP3   OH211585   2.515   0.220   2.535
 3860TIP3    H111586   2.499   0.276   2.611
 3860TIP3    H211587   2.608   0.197   2.541
 3861TIP3   OH211588   2.189   3.249   5.017
 3861TIP3    H111589   2.277   3.214   5.033
 3861TIP3    H211590   2.204   3.336   4.981
 3862TIP3   OH211591   2.802   1.009   2.049
 3862TIP3    H111592   2.795   0.941   1.983
 3862TIP3    H211593   2.893   1.004   2.079
 3863TIP3   OH211594   3.390   2.104   3.969
 3863TIP3    H111595   3.331   2.153   3.911
 3863TIP3    H211596   3.472   2.098   3.921
 3864TIP3   OH211597   0.624   3.937   2.619
 3864TIP3    H111598   0.653   3.985   2.697
 3864TIP3    H211599   0.661   3.986   2.546
 3865TIP3   OH211600   1.762   5.882   1.103
 3865TIP3    H111601   1.819   5.930   1.042
 3865TIP3    H211602   1.679   5.872   1.056
 3866TIP3   OH211603   2.034   0.123   2.609
 3866TIP3    H111604   2.024   0.182   2.535
 3866TIP3    H211605   2.079   0.175   2.675
 3867TIP3   OH211606   5.275   1.848   1.320
 3867TIP3    H111607   5.316   1.766   1.346
 3867TIP3    H211608   5.347   1.901   1.285
 3868TIP3   OH211609   0.055   3.731   3.966
 3868TIP3    H111610   0.079   3.788   3.893
 3868TIP3    H211611  -0.023   3.771   4.004
 3869TIP3   OH211612   6.029   4.422   1.155
 3869TIP3    H111613   5.942   4.396   1.126
 3869TIP3    H211614   6.065   4.473   1.082
 3870TIP3   OH211615   4.922   3.400   3.281
 3870TIP3    H111616   5.017   3.414   3.279
 3870TIP3    H211617   4.901   3.369   3.193
 3871TIP3   OH211618   0.353   1.401   3.840
 3871TIP3    H111619   0.307   1.352   3.909
 3871TIP3    H211620   0.445   1.395   3.864
 3872TIP3   OH211621   4.742   3.204   0.070
 3872TIP3    H111622   4.808   3.143   0.103
 3872TIP3    H211623   4.672   3.147   0.035
 3873TIP3   OH211624   5.318   1.053   4.453
 3873TIP3    H111625   5.356   1.069   4.539
 3873TIP3    H211626   5.366   1.110   4.394
 3874TIP3   OH211627   2.486   5.938   5.076
 3874TIP3    H111628   2.468   6.028   5.104
 3874TIP3    H211629   2.400   5.903   5.053
 3875TIP3   OH211630   5.472   3.054   4.862
 3875TIP3    H111631   5.429   3.097   4.788
 3875TIP3    H211632   5.559   3.094   4.866
 3876TIP3   OH211633   4.626   3.421   3.128
 3876TIP3    H111634   4.631   3.339   3.177
 3876TIP3    H211635   4.670   3.486   3.183
 3877TIP3   OH211636   5.738   4.986   4.585
 3877TIP3    H111637   5.653   4.962   4.622
 3877TIP3    H211638   5.801   4.935   4.636
 3878TIP3   OH211639   5.645   1.390   2.621
 3878TIP3    H111640   5.645   1.445   2.699
 3878TIP3    H211641   5.680   1.446   2.552
 3879TIP3   OH211642   3.255   3.990   1.126
 3879TIP3    H111643   3.269   4.085   1.116
 3879TIP3    H211644   3.335   3.950   1.092
 3880TIP3   OH211645   1.795   4.606   1.204
 3880TIP3    H111646   1.802   4.685   1.151
 3880TIP3    H211647   1.841   4.627   1.286
 3881TIP3   OH211648   2.976   3.515   4.253
 3881TIP3    H111649   3.048   3.476   4.303
 3881TIP3    H211650   2.973   3.463   4.172
 3882TIP3   OH211651   5.753   2.762   2.481
 3882TIP3    H111652   5.791   2.720   2.558
 3882TIP3    H211653   5.824   2.816   2.446
 3883TIP3   OH211654   2.288   4.390   2.200
 3883TIP3    H111655   2.377   4.355   2.207
 3883TIP3    H211656   2.283   4.426   2.112
 3884TIP3   OH211657   1.768   2.178   3.511
 3884TIP3    H111658   1.694   2.169   3.451
 3884TIP3    H211659   1.786   2.272   3.512
 3885TIP3   OH211660   5.245   2.521   4.355
 3885TIP3    H111661   5.166   2.468   4.346
 3885TIP3    H211662   5.233   2.593   4.293
 3886TIP3   OH211663   5.668   2.034   4.102
 3886TIP3    H111664   5.688   1.987   4.184
 3886TIP3    H211665   5.687   2.125   4.121
 3887TIP3   OH211666   0.635   3.708   1.454
 3887TIP3    H111667   0.703   3.770   1.428
 3887TIP3    H211668   0.683   3.631   1.485
 3888TIP3   OH211669   1.800   4.015   3.839
 3888TIP3    H111670   1.870   3.962   3.801
 3888TIP3    H211671   1.840   4.101   3.854
 3889TIP3   OH211672   0.719   0.400   5.027
 3889TIP3    H111673   0.793   0.426   4.972
 3889TIP3    H211674   0.731   0.306   5.041
 3890TIP3   OH211675   3.441   4.402   4.131
 3890TIP3    H111676   3.383   4.461   4.083
 3890TIP3    H211677   3.456   4.445   4.215
 3891TIP3   OH211678   5.292   1.653   3.986
 3891TIP3    H111679   5.379   1.693   3.998
 3891TIP3    H211680   5.234   1.708   4.039
 3892TIP3   OH211681   3.673   4.453   2.223
 3892TIP3    H111682   3.627   4.373   2.248
 3892TIP3    H211683   3.754   4.423   2.182
 3893TIP3   OH211684   6.021   5.864   0.508
 3893TIP3    H111685   5.950   5.843   0.448
 3893TIP3    H211686   6.021   5.792   0.572
 3894TIP3   OH211687   5.654   5.381   5.162
 3894TIP3    H111688   5.572   5.353   5.120
 3894TIP3    H211689   5.666   5.321   5.235
 3895TIP3   OH211690   6.003   1.921   3.225
 3895TIP3    H111691   6.075   1.888   3.279
 3895TIP3    H211692   5.950   1.844   3.204
 3896TIP3   OH211693   3.763   3.595   0.703
 3896TIP3    H111694   3.851   3.570   0.675
 3896TIP3    H211695   3.705   3.530   0.662
 3897TIP3   OH211696   6.351   1.847   0.595
 3897TIP3    H111697   6.336   1.808   0.509
 3897TIP3    H211698   6.432   1.806   0.626
 3898TIP3   OH211699   6.172   1.416   3.679
 3898TIP3    H111700   6.189   1.399   3.586
 3898TIP3    H211701   6.170   1.511   3.686
 3899TIP3   OH211702   2.848   2.528   3.692
 3899TIP3    H111703   2.814   2.585   3.761
 3899TIP3    H211704   2.824   2.571   3.610
 3900TIP3   OH211705   4.742   1.791   0.253
 3900TIP3    H111706   4.671   1.825   0.198
 3900TIP3    H211707   4.782   1.869   0.291
 3901TIP3   OH211708   2.443   4.018   3.282
 3901TIP3    H111709   2.459   3.923   3.284
 3901TIP3    H211710   2.360   4.029   3.329
 3902TIP3   OH211711   5.949   5.383   1.505
 3902TIP3    H111712   6.004   5.309   1.481
 3902TIP3    H211713   5.938   5.432   1.423
 3903TIP3   OH211714   2.856   4.147   3.711
 3903TIP3    H111715   2.854   4.152   3.615
 3903TIP3    H211716   2.856   4.053   3.730
 3904TIP3   OH211717   4.558   5.880   3.145
 3904TIP3    H111718   4.496   5.953   3.150
 3904TIP3    H211719   4.642   5.917   3.174
 3905TIP3   OH211720   0.233   2.827   3.991
 3905TIP3    H111721   0.310   2.822   3.933
 3905TIP3    H211722   0.196   2.739   3.989
 3906TIP3   OH211723   4.885   1.167   3.034
 3906TIP3    H111724   4.828   1.111   3.086
 3906TIP3    H211725   4.827   1.235   2.999
 3907TIP3   OH211726   1.521   2.372   1.833
 3907TIP3    H111727   1.616   2.376   1.823
 3907TIP3    H211728   1.504   2.284   1.865
 3908TIP3   OH211729   5.158   2.969   4.073
 3908TIP3    H111730   5.157   2.974   3.977
 3908TIP3    H211731   5.250   2.956   4.095
 3909TIP3   OH211732   2.517   1.851   3.704
 3909TIP3    H111733   2.589   1.913   3.689
 3909TIP3    H211734   2.451   1.876   3.639
 3910TIP3   OH211735   2.188   0.214   3.975
 3910TIP3    H111736   2.235   0.187   3.896
 3910TIP3    H211737   2.256   0.223   4.042
 3911TIP3   OH211738   2.658   5.930   3.146
 3911TIP3    H111739   2.691   5.917   3.058
 3911TIP3    H211740   2.571   5.889   3.146
 3912TIP3   OH211741   6.303   0.383   3.517
 3912TIP3    H111742   6.268   0.389   3.428
 3912TIP3    H211743   6.385   0.335   3.507
 3913TIP3   OH211744   6.104   5.360   2.541
 3913TIP3    H111745   6.088   5.268   2.522
 3913TIP3    H211746   6.193   5.362   2.575
 3914TIP3   OH211747   4.608   2.622   1.968
 3914TIP3    H111748   4.590   2.616   1.874
 3914TIP3    H211749   4.702   2.604   1.975
 3915TIP3   OH211750   5.615   3.084   2.865
 3915TIP3    H111751   5.643   2.993   2.865
 3915TIP3    H211752   5.692   3.132   2.897
 3916TIP3   OH211753   6.149   1.019   1.225
 3916TIP3    H111754   6.094   1.073   1.168
 3916TIP3    H211755   6.201   1.081   1.276
 3917TIP3   OH211756   5.110   0.078   1.390
 3917TIP3    H111757   5.070   0.086   1.476
 3917TIP3    H211758   5.200   0.052   1.408
 3918TIP3   OH211759   4.871   0.904   0.274
 3918TIP3    H111760   4.966   0.902   0.259
 3918TIP3    H211761   4.838   0.827   0.227
 3919TIP3   OH211762   0.653   5.095   1.650
 3919TIP3    H111763   0.635   5.117   1.559
 3919TIP3    H211764   0.683   5.004   1.648
 3920TIP3   OH211765   6.151   0.196   4.562
 3920TIP3    H111766   6.126   0.166   4.650
 3920TIP3    H211767   6.230   0.248   4.576
 3921TIP3   OH211768   4.692   1.833   4.128
 3921TIP3    H111769   4.726   1.788   4.205
 3921TIP3    H211770   4.758   1.899   4.107
 3922TIP3   OH211771   0.644   5.864   0.978
 3922TIP3    H111772   0.659   5.923   1.052
 3922TIP3    H211773   0.729   5.860   0.934
 3923TIP3   OH211774   6.022   2.372   5.144
 3923TIP3    H111775   5.953   2.430   5.177
 3923TIP3    H211776   6.035   2.399   5.054
 3924TIP3   OH211777   4.250   5.343   2.016
 3924TIP3    H111778   4.221   5.337   2.107
 3924TIP3    H211779   4.262   5.252   1.989
 3925TIP3   OH211780   3.946   1.546   2.891
 3925TIP3    H111781   4.039   1.554   2.914
 3925TIP3    H211782   3.899   1.588   2.963
 3926TIP3   OH211783   0.527   5.940   0.216
 3926TIP3    H111784   0.524   5.880   0.142
 3926TIP3    H211785   0.620   5.949   0.237
 3927TIP3   OH211786   2.074   4.724   2.952
 3927TIP3    H111787   2.090   4.791   2.885
 3927TIP3    H211788   1.979   4.729   2.969
 3928TIP3   OH211789   4.562   1.130   1.466
 3928TIP3    H111790   4.583   1.222   1.478
 3928TIP3    H211791   4.628   1.083   1.517
 3929TIP3   OH211792   3.351   4.599   1.154
 3929TIP3    H111793   3.443   4.621   1.137
 3929TIP3    H211794   3.303   4.678   1.127
 3930TIP3   OH211795   1.319   0.583   0.605
 3930TIP3    H111796   1.316   0.678   0.590
 3930TIP3    H211797   1.295   0.545   0.520
 3931TIP3   OH211798   5.825   3.762   0.492
 3931TIP3    H111799   5.798   3.791   0.405
 3931TIP3    H211800   5.762   3.693   0.515
 3932TIP3   OH211801   1.898   5.245   1.235
 3932TIP3    H111802   1.832   5.294   1.187
 3932TIP3    H211803   1.949   5.311   1.281
 3933TIP3   OH211804   1.492   4.986   0.565
 3933TIP3    H111805   1.412   4.972   0.514
 3933TIP3    H211806   1.556   4.925   0.527
 3934TIP3   OH211807   4.074   3.726   1.778
 3934TIP3    H111808   4.080   3.632   1.799
 3934TIP3    H211809   4.057   3.768   1.863
 3935TIP3   OH211810   3.584   4.368   0.899
 3935TIP3    H111811   3.618   4.300   0.841
 3935TIP3    H211812   3.622   4.449   0.866
 3936TIP3   OH211813   4.147   5.821   0.499
 3936TIP3    H111814   4.242   5.823   0.510
 3936TIP3    H211815   4.118   5.748   0.554
 3937TIP3   OH211816   3.575   1.674   0.598
 3937TIP3    H111817   3.581   1.595   0.545
 3937TIP3    H211818   3.571   1.745   0.534
 3938TIP3   OH211819   2.828   4.043   1.470
 3938TIP3    H111820   2.903   4.101   1.486
 3938TIP3    H211821   2.803   4.061   1.379
 3939TIP3   OH211822   2.466   0.285   0.120
 3939TIP3    H111823   2.504   0.294   0.032
 3939TIP3    H211824   2.528   0.230   0.168
 3940TIP3   OH211825   5.572   1.411   4.734
 3940TIP3    H111826   5.529   1.449   4.657
 3940TIP3    H211827   5.537   1.461   4.807
 3941TIP3   OH211828   1.914   4.512   4.290
 3941TIP3    H111829   1.981   4.447   4.310
 3941TIP3    H211830   1.832   4.463   4.295
 3942TIP3   OH211831   2.429   2.270   0.799
 3942TIP3    H111832   2.374   2.287   0.875
 3942TIP3    H211833   2.368   2.238   0.732
 3943TIP3   OH211834   5.234   0.748   1.262
 3943TIP3    H111835   5.178   0.726   1.337
 3943TIP3    H211836   5.192   0.706   1.187
 3944TIP3   OH211837   1.683   4.095   4.798
 3944TIP3    H111838   1.659   4.058   4.712
 3944TIP3    H211839   1.670   4.022   4.859
 3945TIP3   OH211840   2.874   5.364   1.359
 3945TIP3    H111841   2.780   5.348   1.366
 3945TIP3    H211842   2.905   5.370   1.449
 3946TIP3   OH211843   2.776   1.540   2.699
 3946TIP3    H111844   2.796   1.549   2.792
 3946TIP3    H211845   2.680   1.543   2.695
 3947TIP3   OH211846   1.414   1.015   2.915
 3947TIP3    H111847   1.460   0.991   2.834
 3947TIP3    H211848   1.324   1.034   2.886
 3948TIP3   OH211849   0.322   0.655   1.776
 3948TIP3    H111850   0.411   0.682   1.754
 3948TIP3    H211851   0.294   0.602   1.701
 3949TIP3   OH211852   4.021   5.087   3.038
 3949TIP3    H111853   4.022   4.992   3.030
 3949TIP3    H211854   4.095   5.107   3.096
 3950TIP3   OH211855   2.273   0.087   3.682
 3950TIP3    H111856   2.343   0.035   3.722
 3950TIP3    H211857   2.214   0.022   3.645
 3951TIP3   OH211858   3.290   4.639   0.490
 3951TIP3    H111859   3.347   4.597   0.426
 3951TIP3    H211860   3.310   4.594   0.573
 3952TIP3   OH211861   3.406   0.112   0.600
 3952TIP3    H111862   3.316   0.079   0.601
 3952TIP3    H211863   3.413   0.160   0.518
 3953TIP3   OH211864   1.281   6.036   1.389
 3953TIP3    H111865   1.210   5.972   1.385
 3953TIP3    H211866   1.344   5.998   1.450
 3954TIP3   OH211867   4.550   3.721   4.345
 3954TIP3    H111868   4.550   3.628   4.368
 3954TIP3    H211869   4.471   3.755   4.385
 3955TIP3   OH211870   1.531   0.303   2.892
 3955TIP3    H111871   1.568   0.257   2.817
 3955TIP3    H211872   1.449   0.341   2.859
 3956TIP3   OH211873   5.019   2.122   2.567
 3956TIP3    H111874   4.942   2.070   2.592
 3956TIP3    H211875   5.067   2.135   2.649
 3957TIP3   OH211876   2.038   3.726   2.528
 3957TIP3    H111877   1.996   3.794   2.475
 3957TIP3    H211878   2.127   3.757   2.540
 3958TIP3   OH211879   2.885   0.558   2.507
 3958TIP3    H111880   2.903   0.631   2.566
 3958TIP3    H211881   2.808   0.586   2.457
 3959TIP3   OH211882   6.033   0.183   1.101
 3959TIP3    H111883   6.063   0.129   1.028
 3959TIP3    H211884   5.946   0.213   1.074
 3960TIP3   OH211885   2.008   0.665   0.090
 3960TIP3    H111886   2.069   0.710   0.149
 3960TIP3    H211887   2.052   0.582   0.069
 3961TIP3   OH211888   2.488   4.518   4.743
 3961TIP3    H111889   2.406   4.473   4.764
 3961TIP3    H211890   2.472   4.558   4.657
 3962TIP3   OH211891   1.834   4.707   2.236
 3962TIP3    H111892   1.916   4.662   2.219
 3962TIP3    H211893   1.827   4.711   2.331
 3963TIP3   OH211894   5.324   0.549   4.493
 3963TIP3    H111895   5.389   0.485   4.465
 3963TIP3    H211896   5.315   0.608   4.419
 3964TIP3   OH211897   6.159   4.113   0.393
 3964TIP3    H111898   6.120   4.198   0.374
 3964TIP3    H211899   6.165   4.070   0.308
 3965TIP3   OH211900   4.486   3.701   1.639
 3965TIP3    H111901   4.573   3.716   1.677
 3965TIP3    H211902   4.480   3.764   1.567
 3966TIP3   OH211903   6.009   3.453   2.086
 3966TIP3    H111904   6.008   3.437   2.181
 3966TIP3    H211905   5.924   3.421   2.056
 3967TIP3   OH211906   5.223   3.726   2.866
 3967TIP3    H111907   5.186   3.668   2.932
 3967TIP3    H211908   5.167   3.713   2.789
 3968TIP3   OH211909   1.258   4.255   0.108
 3968TIP3    H111910   1.227   4.200   0.180
 3968TIP3    H211911   1.347   4.279   0.133
 3969TIP3   OH211912   5.329   1.081   2.988
 3969TIP3    H111913   5.332   1.141   3.062
 3969TIP3    H211914   5.418   1.085   2.951
 3970TIP3   OH211915   5.195   2.153   5.171
 3970TIP3    H111916   5.274   2.207   5.171
 3970TIP3    H211917   5.201   2.102   5.090
 3971TIP3   OH211918   4.840   3.158   1.790
 3971TIP3    H111919   4.911   3.220   1.805
 3971TIP3    H211920   4.760   3.206   1.808
 3972TIP3   OH211921   2.513   2.279   1.783
 3972TIP3    H111922   2.550   2.202   1.826
 3972TIP3    H211923   2.527   2.350   1.845
 3973TIP3   OH211924   5.901   5.672   3.330
 3973TIP3    H111925   5.959   5.744   3.354
 3973TIP3    H211926   5.859   5.701   3.249
 3974TIP3   OH211927   2.996   0.089   4.789
 3974TIP3    H111928   2.974   0.182   4.799
 3974TIP3    H211929   3.070   0.088   4.729
 3975TIP3   OH211930   0.143   3.784   2.408
 3975TIP3    H111931   0.053   3.802   2.434
 3975TIP3    H211932   0.137   3.715   2.342
 3976TIP3   OH211933   4.689   1.810   1.829
 3976TIP3    H111934   4.607   1.807   1.879
 3976TIP3    H211935   4.667   1.771   1.744
 3977TIP3   OH211936   5.029   0.895   1.769
 3977TIP3    H111937   5.020   0.920   1.678
 3977TIP3    H211938   5.015   0.976   1.818
 3978TIP3   OH211939   5.976   4.251   3.447
 3978TIP3    H111940   5.996   4.246   3.354
 3978TIP3    H211941   5.898   4.196   3.458
 3979TIP3   OH211942   2.082   1.219   4.907
 3979TIP3    H111943   2.010   1.179   4.859
 3979TIP3    H211944   2.119   1.283   4.846
 3980TIP3   OH211945   2.346   2.830   0.193
 3980TIP3    H111946   2.404   2.903   0.215
 3980TIP3    H211947   2.341   2.831   0.097
 3981TIP3   OH211948   1.924   1.022   0.271
 3981TIP3    H111949   1.985   1.079   0.318
 3981TIP3    H211950   1.862   1.083   0.230
 3982TIP3   OH211951   3.403   2.381   2.720
 3982TIP3    H111952   3.410   2.303   2.665
 3982TIP3    H211953   3.410   2.347   2.809
 3983TIP3   OH211954   2.031   5.670   4.679
 3983TIP3    H111955   2.019   5.589   4.629
 3983TIP3    H211956   2.104   5.715   4.636
 3984TIP3   OH211957   1.220   1.620   1.774
 3984TIP3    H111958   1.176   1.566   1.839
 3984TIP3    H211959   1.296   1.656   1.820
 3985TIP3   OH211960   5.979   3.706   1.225
 3985TIP3    H111961   5.952   3.777   1.284
 3985TIP3    H211962   5.942   3.730   1.140
 3986TIP3   OH211963   6.270   5.101   2.447
 3986TIP3    H111964   6.296   5.157   2.374
 3986TIP3    H211965   6.350   5.091   2.498
 3987TIP3   OH211966   4.522   4.970   3.376
 3987TIP3    H111967   4.600   4.936   3.333
 3987TIP3    H211968   4.497   4.901   3.439
 3988TIP3   OH211969   5.315   0.533   3.387
 3988TIP3    H111970   5.331   0.605   3.326
 3988TIP3    H211971   5.287   0.576   3.468
 3989TIP3   OH211972   3.864   1.063   4.600
 3989TIP3    H111973   3.801   1.096   4.664
 3989TIP3    H211974   3.812   1.048   4.521
 3990TIP3   OH211975   1.194   3.915   1.567
 3990TIP3    H111976   1.251   3.974   1.518
 3990TIP3    H211977   1.213   3.828   1.530
 3991TIP3   OH211978   1.930   3.781   3.726
 3991TIP3    H111979   1.893   3.713   3.669
 3991TIP3    H211980   2.011   3.808   3.681
 3992TIP3   OH211981   4.729   5.245   0.612
 3992TIP3    H111982   4.670   5.175   0.585
 3992TIP3    H211983   4.759   5.219   0.699
 3993TIP3   OH211984   6.070   3.990   3.502
 3993TIP3    H111985   6.035   4.007   3.414
 3993TIP3    H211986   6.108   4.073   3.529
 3994TIP3   OH211987   5.479   2.829   2.541
 3994TIP3    H111988   5.481   2.760   2.607
 3994TIP3    H211989   5.571   2.841   2.516
 3995TIP3   OH211990   0.737   3.294   3.026
 3995TIP3    H111991   0.725   3.365   2.963
 3995TIP3    H211992   0.830   3.273   3.021
 3996TIP3   OH211993   3.539   2.284   1.282
 3996TIP3    H111994   3.528   2.245   1.195
 3996TIP3    H211995   3.532   2.378   1.268
 3997TIP3   OH211996   2.504   1.993   0.099
 3997TIP3    H111997   2.435   2.048   0.135
 3997TIP3    H211998   2.491   1.908   0.142
 3998TIP3   OH211999   5.904   5.514   2.625
 3998TIP3    H112000   5.833   5.489   2.566
 3998TIP3    H212001   5.983   5.483   2.581
 3999TIP3   OH212002   4.907   3.899   3.710
 3999TIP3    H112003   4.866   3.825   3.665
 3999TIP3    H212004   4.970   3.859   3.770
 4000TIP3   OH212005   4.172   3.203   1.282
 4000TIP3    H112006   4.126   3.125   1.252
 4000TIP3    H212007   4.222   3.174   1.358
 4001TIP3   OH212008   2.473   0.367   4.555
 4001TIP3    H112009   2.538   0.324   4.611
 4001TIP3    H212010   2.446   0.299   4.493
 4002TIP3   OH212011   1.783   4.147   1.504
 4002TIP3    H112012   1.774   4.169   1.411
 4002TIP3    H212013   1.847   4.076   1.506
 4003TIP3   OH212014   6.229   3.574   4.554
 4003TIP3    H112015   6.290   3.504   4.579
 4003TIP3    H212016   6.171   3.533   4.489
 4004TIP3   OH212017   0.644   4.177   4.356
 4004TIP3    H112018   0.730   4.164   4.396
 4004TIP3    H212019   0.582   4.145   4.422
 4005TIP3   OH212020   1.020   1.442   1.189
 4005TIP3    H112021   1.034   1.511   1.124
 4005TIP3    H212022   0.941   1.396   1.160
 4006TIP3   OH212023   4.776   3.009   0.417
 4006TIP3    H112024   4.850   2.951   0.401
 4006TIP3    H212025   4.815   3.096   0.429
 4007TIP3   OH212026   1.115   0.876   4.542
 4007TIP3    H112027   1.024   0.900   4.521
 4007TIP3    H212028   1.159   0.872   4.458
 4008TIP3   OH212029   5.435   4.855   1.372
 4008TIP3    H112030   5.355   4.844   1.424
 4008TIP3    H212031   5.405   4.866   1.282
 4009TIP3   OH212032   4.843   5.711   0.077
 4009TIP3    H112033   4.792   5.769   0.133
 4009TIP3    H212034   4.845   5.628   0.124
 4010TIP3   OH212035   0.282   4.027   2.739
 4010TIP3    H112036   0.289   4.111   2.784
 4010TIP3    H212037   0.368   3.986   2.752
 4011TIP3   OH212038   5.411   5.291   5.099
 4011TIP3    H112039   5.357   5.370   5.108
 4011TIP3    H212040   5.372   5.228   5.159
 4012TIP3   OH212041   2.029   3.401   0.082
 4012TIP3    H112042   2.046   3.492   0.059
 4012TIP3    H212043   2.064   3.350   0.009
 4013TIP3   OH212044   3.687   0.595   3.056
 4013TIP3    H112045   3.756   0.585   2.991
 4013TIP3    H212046   3.691   0.515   3.109
 4014TIP3   OH212047   6.191   0.937   4.484
 4014TIP3    H112048   6.180   0.935   4.389
 4014TIP3    H212049   6.135   0.867   4.517
 4015TIP3   OH212050   4.289   2.399   0.560
 4015TIP3    H112051   4.307   2.371   0.650
 4015TIP3    H212052   4.341   2.478   0.548
 4016TIP3   OH212053  -0.015   2.941   3.925
 4016TIP3    H112054   0.023   2.967   3.841
 4016TIP3    H212055   0.052   2.885   3.965
 4017TIP3   OH212056   4.855   3.931   0.741
 4017TIP3    H112057   4.903   3.858   0.701
 4017TIP3    H212058   4.915   4.005   0.737
 4018TIP3   OH212059   1.362   5.141   0.160
 4018TIP3    H112060   1.455   5.149   0.139
 4018TIP3    H212061   1.344   5.214   0.219
 4019TIP3   OH212062   5.717   3.394   3.806
 4019TIP3    H112063   5.692   3.306   3.778
 4019TIP3    H212064   5.776   3.426   3.738
 4020TIP3   OH212065   1.763   0.941   2.763
 4020TIP3    H112066   1.748   1.035   2.769
 4020TIP3    H212067   1.679   0.905   2.735
 4021TIP3   OH212068   3.456   3.280   2.643
 4021TIP3    H112069   3.405   3.226   2.583
 4021TIP3    H212070   3.545   3.275   2.610
 4022TIP3   OH212071   3.371   0.485   4.965
 4022TIP3    H112072   3.275   0.490   4.957
 4022TIP3    H212073   3.388   0.515   5.054
 4023TIP3   OH212074   3.312   1.251   0.781
 4023TIP3    H112075   3.216   1.245   0.779
 4023TIP3    H212076   3.337   1.222   0.868
 4024TIP3   OH212077   4.386   2.946   0.683
 4024TIP3    H112078   4.321   2.930   0.752
 4024TIP3    H212079   4.447   3.009   0.722
 4025TIP3   OH212080   2.310   3.215   3.423
 4025TIP3    H112081   2.387   3.174   3.384
 4025TIP3    H212082   2.244   3.214   3.355
 4026TIP3   OH212083   1.935   5.233   1.584
 4026TIP3    H112084   1.963   5.310   1.634
 4026TIP3    H212085   2.012   5.176   1.584
 4027TIP3   OH212086   0.290   0.687   2.044
 4027TIP3    H112087   0.306   0.680   1.950
 4027TIP3    H212088   0.228   0.616   2.062
 4028TIP3   OH212089   5.557   1.659   5.169
 4028TIP3    H112090   5.545   1.751   5.144
 4028TIP3    H212091   5.579   1.662   5.262
 4029TIP3   OH212092   1.171   2.824   0.216
 4029TIP3    H112093   1.142   2.772   0.291
 4029TIP3    H212094   1.194   2.909   0.253
 4030TIP3   OH212095   0.653   3.640   3.536
 4030TIP3    H112096   0.628   3.694   3.611
 4030TIP3    H212097   0.574   3.639   3.481
 4031TIP3   OH212098   2.468   5.073   2.342
 4031TIP3    H112099   2.415   5.010   2.391
 4031TIP3    H212100   2.552   5.075   2.388
 4032TIP3   OH212101   1.831   3.271   3.824
 4032TIP3    H112102   1.813   3.355   3.866
 4032TIP3    H212103   1.927   3.265   3.824
 4033TIP3   OH212104   1.261   2.645  -0.023
 4033TIP3    H112105   1.251   2.735   0.010
 4033TIP3    H212106   1.185   2.632  -0.080
 4034TIP3   OH212107   3.003   2.272   0.512
 4034TIP3    H112108   3.025   2.190   0.467
 4034TIP3    H212109   2.962   2.326   0.445
 4035TIP3   OH212110   1.134   3.796   2.859
 4035TIP3    H112111   1.056   3.788   2.804
 4035TIP3    H212112   1.207   3.789   2.798
 4036TIP3   OH212113   5.839   0.075   1.792
 4036TIP3    H112114   5.852   0.160   1.749
 4036TIP3    H212115   5.748   0.052   1.771
 4037TIP3   OH212116   3.795   0.186   4.667
 4037TIP3    H112117   3.773   0.277   4.686
 4037TIP3    H212118   3.795   0.143   4.753
 4038TIP3   OH212119   1.019   3.844   2.330
 4038TIP3    H112120   1.070   3.882   2.401
 4038TIP3    H212121   1.020   3.750   2.347
 4039TIP3   OH212122   6.197   0.428   1.118
 4039TIP3    H112123   6.126   0.364   1.128
 4039TIP3    H212124   6.228   0.415   1.029
 4040TIP3   OH212125   1.125   3.308   2.481
 4040TIP3    H112126   1.090   3.220   2.475
 4040TIP3    H212127   1.172   3.310   2.564
 4041TIP3   OH212128   3.502   5.453   2.339
 4041TIP3    H112129   3.428   5.514   2.345
 4041TIP3    H212130   3.579   5.508   2.350
 4042TIP3   OH212131   6.246   4.739   1.732
 4042TIP3    H112132   6.163   4.756   1.686
 4042TIP3    H212133   6.277   4.656   1.695
 4043TIP3   OH212134   1.145   5.786   3.571
 4043TIP3    H112135   1.143   5.863   3.628
 4043TIP3    H212136   1.227   5.743   3.593
 4044TIP3   OH212137   3.410   2.825   4.452
 4044TIP3    H112138   3.451   2.847   4.536
 4044TIP3    H212139   3.483   2.809   4.393
 4045TIP3   OH212140   3.160   5.761   2.290
 4045TIP3    H112141   3.073   5.799   2.292
 4045TIP3    H212142   3.219   5.834   2.309
 4046TIP3   OH212143   3.244   3.780   2.334
 4046TIP3    H112144   3.180   3.713   2.358
 4046TIP3    H212145   3.197   3.841   2.278
 4047TIP3   OH212146   1.232   0.981   2.130
 4047TIP3    H112147   1.139   0.962   2.142
 4047TIP3    H212148   1.251   1.048   2.196
 4048TIP3   OH212149   0.133   5.672   2.832
 4048TIP3    H112150   0.067   5.737   2.854
 4048TIP3    H212151   0.105   5.593   2.879
 4049TIP3   OH212152   0.504   5.861   4.191
 4049TIP3    H112153   0.546   5.908   4.119
 4049TIP3    H212154   0.571   5.857   4.259
 4050TIP3   OH212155   0.409   5.893   4.941
 4050TIP3    H112156   0.476   5.865   4.878
 4050TIP3    H212157   0.368   5.969   4.900
 4051TIP3   OH212158   5.630   3.398   2.887
 4051TIP3    H112159   5.646   3.358   2.802
 4051TIP3    H212160   5.716   3.424   2.918
 4052TIP3   OH212161   4.360   3.969   0.133
 4052TIP3    H112162   4.386   3.886   0.092
 4052TIP3    H212163   4.362   4.033   0.062
 4053TIP3   OH212164   3.701   3.817   4.347
 4053TIP3    H112165   3.676   3.899   4.389
 4053TIP3    H212166   3.726   3.759   4.419
 4054TIP3   OH212167   2.600   4.281   4.544
 4054TIP3    H112168   2.558   4.215   4.599
 4054TIP3    H212169   2.689   4.249   4.532
 4055TIP3   OH212170   5.239   1.252   1.009
 4055TIP3    H112171   5.279   1.174   1.047
 4055TIP3    H212172   5.299   1.277   0.938
 4056TIP3   OH212173   4.792   0.736   1.578
 4056TIP3    H112174   4.746   0.688   1.647
 4056TIP3    H212175   4.723   0.761   1.516
 4057TIP3   OH212176   4.864   2.984   4.805
 4057TIP3    H112177   4.884   2.912   4.745
 4057TIP3    H212178   4.946   3.034   4.810
 4058TIP3   OH212179   0.497   3.173   3.183
 4058TIP3    H112180   0.580   3.197   3.143
 4058TIP3    H212181   0.492   3.226   3.262
 4059TIP3   OH212182   0.398   4.840   0.896
 4059TIP3    H112183   0.490   4.828   0.874
 4059TIP3    H212184   0.383   4.934   0.883
 4060TIP3   OH212185   5.029   1.516   2.575
 4060TIP3    H112186   4.972   1.590   2.597
 4060TIP3    H212187   5.089   1.551   2.509
 4061TIP3   OH212188   5.887   1.428   3.572
 4061TIP3    H112189   5.827   1.470   3.634
 4061TIP3    H212190   5.954   1.495   3.556
 4062TIP3   OH212191   0.487   3.149   3.502
 4062TIP3    H112192   0.469   3.072   3.448
 4062TIP3    H212193   0.401   3.179   3.530
 4063TIP3   OH212194   5.606   0.131   0.360
 4063TIP3    H112195   5.668   0.153   0.290
 4063TIP3    H212196   5.661   0.109   0.435
 4064TIP3   OH212197   3.462   2.511   4.154
 4064TIP3    H112198   3.373   2.545   4.159
 4064TIP3    H212199   3.459   2.428   4.203
 4065TIP3   OH212200   3.427   5.958   1.748
 4065TIP3    H112201   3.482   5.962   1.670
 4065TIP3    H212202   3.362   6.028   1.736
 4066TIP3   OH212203   1.476   1.357   3.327
 4066TIP3    H112204   1.503   1.345   3.236
 4066TIP3    H212205   1.537   1.302   3.378
 4067TIP3   OH212206   1.310   2.942   3.987
 4067TIP3    H112207   1.384   2.882   3.983
 4067TIP3    H212208   1.333   3.013   3.926
 4068TIP3   OH212209   5.244   4.520   2.633
 4068TIP3    H112210   5.235   4.549   2.724
 4068TIP3    H212211   5.337   4.500   2.624
 4069TIP3   OH212212   3.434   4.489   4.406
 4069TIP3    H112213   3.407   4.398   4.414
 4069TIP3    H212214   3.383   4.536   4.471
 4070TIP3   OH212215   4.867   0.847   4.882
 4070TIP3    H112216   4.825   0.761   4.884
 4070TIP3    H212217   4.957   0.831   4.912
 4071TIP3   OH212218   0.039   1.099   3.109
 4071TIP3    H112219   0.127   1.123   3.080
 4071TIP3    H212220   0.010   1.034   3.046
 4072TIP3   OH212221   1.411   4.832   1.681
 4072TIP3    H112222   1.480   4.795   1.736
 4072TIP3    H212223   1.396   4.920   1.717
 4073TIP3   OH212224   5.117   2.229   2.342
 4073TIP3    H112225   5.160   2.154   2.302
 4073TIP3    H212226   5.088   2.198   2.428
 4074TIP3   OH212227   1.550   4.743   2.215
 4074TIP3    H112228   1.528   4.678   2.282
 4074TIP3    H212229   1.643   4.729   2.196
 4075TIP3   OH212230   3.407   2.077   0.785
 4075TIP3    H112231   3.393   1.983   0.780
 4075TIP3    H212232   3.324   2.115   0.757
 4076TIP3   OH212233   5.087   5.770   0.961
 4076TIP3    H112234   5.009   5.809   0.922
 4076TIP3    H212235   5.074   5.780   1.056
 4077TIP3   OH212236   5.787   2.256   4.283
 4077TIP3    H112237   5.792   2.345   4.250
 4077TIP3    H212238   5.865   2.246   4.337
 4078TIP3   OH212239   1.603   2.644   2.339
 4078TIP3    H112240   1.655   2.722   2.319
 4078TIP3    H212241   1.587   2.603   2.254
 4079TIP3   OH212242   5.230   4.958   1.935
 4079TIP3    H112243   5.274   4.873   1.934
 4079TIP3    H212244   5.250   4.997   1.850
 4080TIP3   OH212245   1.962   2.653   1.722
 4080TIP3    H112246   1.899   2.708   1.769
 4080TIP3    H212247   2.013   2.715   1.670
 4081TIP3   OH212248   1.755   3.908   3.220
 4081TIP3    H112249   1.779   3.920   3.312
 4081TIP3    H212250   1.838   3.913   3.173
 4082TIP3   OH212251   1.227   5.016   2.181
 4082TIP3    H112252   1.212   4.923   2.198
 4082TIP3    H212253   1.321   5.029   2.198
 4083TIP3   OH212254   3.931   2.151   1.885
 4083TIP3    H112255   3.873   2.208   1.835
 4083TIP3    H212256   3.885   2.067   1.888
 4084TIP3   OH212257   5.989   2.521   1.211
 4084TIP3    H112258   5.965   2.535   1.120
 4084TIP3    H212259   6.041   2.597   1.235
 4085TIP3   OH212260   2.055   1.794   1.023
 4085TIP3    H112261   1.998   1.871   1.022
 4085TIP3    H212262   2.133   1.821   0.975
 4086TIP3   OH212263   2.267   0.286   1.008
 4086TIP3    H112264   2.214   0.323   1.079
 4086TIP3    H212265   2.351   0.267   1.050
 4087TIP3   OH212266   4.255   3.774   4.401
 4087TIP3    H112267   4.262   3.804   4.491
 4087TIP3    H212268   4.161   3.761   4.387
 4088TIP3   OH212269   0.823   2.991   1.354
 4088TIP3    H112270   0.854   3.043   1.280
 4088TIP3    H212271   0.898   2.987   1.413
 4089TIP3   OH212272   6.056   3.150   3.816
 4089TIP3    H112273   6.127   3.155   3.879
 4089TIP3    H212274   6.091   3.098   3.744
 4090TIP3   OH212275   5.316   4.369   1.970
 4090TIP3    H112276   5.271   4.350   2.052
 4090TIP3    H212277   5.252   4.351   1.901
 4091TIP3   OH212278   0.957   3.017   0.814
 4091TIP3    H112279   0.901   3.046   0.743
 4091TIP3    H212280   0.969   2.923   0.798
 4092TIP3   OH212281   0.037   1.409   3.447
 4092TIP3    H112282   0.107   1.359   3.489
 4092TIP3    H212283   0.081   1.482   3.405
 4093TIP3   OH212284   0.625   3.132   4.718
 4093TIP3    H112285   0.632   3.065   4.651
 4093TIP3    H212286   0.583   3.088   4.792
 4094TIP3   OH212287   6.007   5.295   2.267
 4094TIP3    H112288   6.025   5.345   2.347
 4094TIP3    H212289   5.975   5.360   2.205
 4095TIP3   OH212290   2.463   3.272   5.129
 4095TIP3    H112291   2.538   3.324   5.159
 4095TIP3    H212292   2.464   3.195   5.185
 4096TIP3   OH212293   4.092   2.505   2.006
 4096TIP3    H112294   4.066   2.488   2.096
 4096TIP3    H212295   4.173   2.455   1.995
 4097TIP3   OH212296   0.561   3.701   2.732
 4097TIP3    H112297   0.577   3.791   2.702
 4097TIP3    H212298   0.519   3.658   2.658
 4098TIP3   OH212299   5.736   3.155   4.271
 4098TIP3    H112300   5.731   3.061   4.252
 4098TIP3    H212301   5.829   3.176   4.266
 4099TIP3   OH212302   0.375   0.228   4.487
 4099TIP3    H112303   0.324   0.268   4.416
 4099TIP3    H212304   0.411   0.302   4.535
 4100TIP3   OH212305   5.505   4.195   2.118
 4100TIP3    H112306   5.599   4.177   2.119
 4100TIP3    H212307   5.484   4.209   2.026
 4101TIP3   OH212308   2.114   2.475   3.747
 4101TIP3    H112309   2.074   2.388   3.745
 4101TIP3    H212310   2.041   2.535   3.734
 4102TIP3   OH212311  -0.015   3.669   2.069
 4102TIP3    H112312   0.020   3.612   2.138
 4102TIP3    H212313   0.056   3.678   2.007
 4103TIP3   OH212314   2.052   2.270   1.110
 4103TIP3    H112315   2.048   2.253   1.204
 4103TIP3    H212316   2.109   2.346   1.101
 4104TIP3   OH212317   5.730   3.096   3.676
 4104TIP3    H112318   5.738   3.055   3.762
 4104TIP3    H212319   5.655   3.053   3.636
 4105TIP3   OH212320   3.285   3.729   3.194
 4105TIP3    H112321   3.366   3.678   3.194
 4105TIP3    H212322   3.313   3.819   3.208
 4106TIP3   OH212323   4.317   4.514   2.012
 4106TIP3    H112324   4.264   4.593   2.027
 4106TIP3    H212325   4.342   4.519   1.920
 4107TIP3   OH212326   1.532   0.776   0.399
 4107TIP3    H112327   1.475   0.723   0.344
 4107TIP3    H212328   1.484   0.786   0.481
 4108TIP3   OH212329   0.063   2.974   2.765
 4108TIP3    H112330   0.081   2.965   2.858
 4108TIP3    H212331  -0.022   2.933   2.752
 4109TIP3   OH212332   3.512   5.450   4.264
 4109TIP3    H112333   3.580   5.483   4.323
 4109TIP3    H212334   3.488   5.526   4.210
 4110TIP3   OH212335   4.848   5.121   2.974
 4110TIP3    H112336   4.933   5.108   3.017
 4110TIP3    H212337   4.796   5.169   3.039
 4111TIP3   OH212338   0.167   1.280   4.007
 4111TIP3    H112339   0.098   1.304   3.945
 4111TIP3    H212340   0.163   1.184   4.011
 4112TIP3   OH212341   5.217   4.838   3.329
 4112TIP3    H112342   5.147   4.835   3.264
 4112TIP3    H212343   5.175   4.813   3.412
 4113TIP3   OH212344   1.946   1.629   1.507
 4113TIP3    H112345   1.876   1.592   1.561
 4113TIP3    H212346   1.968   1.711   1.549
 4114TIP3   OH212347   3.530   0.749   3.220
 4114TIP3    H112348   3.594   0.708   3.162
 4114TIP3    H212349   3.510   0.832   3.178
 4115TIP3   OH212350   4.015   2.986   1.157
 4115TIP3    H112351   4.009   3.032   1.073
 4115TIP3    H212352   4.058   2.903   1.136
 4116TIP3   OH212353   1.469   1.001   4.796
 4116TIP3    H112354   1.512   0.978   4.714
 4116TIP3    H212355   1.385   1.037   4.770
 4117TIP3   OH212356   3.663   4.742   1.992
 4117TIP3    H112357   3.652   4.761   2.085
 4117TIP3    H212358   3.622   4.657   1.980
 4118TIP3   OH212359   0.843   2.995   2.147
 4118TIP3    H112360   0.866   2.961   2.234
 4118TIP3    H212361   0.926   3.025   2.111
 4119TIP3   OH212362   0.788   4.950   2.516
 4119TIP3    H112363   0.822   4.903   2.439
 4119TIP3    H212364   0.781   5.041   2.487
 4120TIP3   OH212365   2.141   3.310   3.225
 4120TIP3    H112366   2.221   3.296   3.175
 4120TIP3    H212367   2.120   3.402   3.213
 4121TIP3   OH212368   3.460   3.750   4.995
 4121TIP3    H112369   3.407   3.673   4.973
 4121TIP3    H212370   3.537   3.713   5.039
 4122TIP3   OH212371   3.376   5.383   3.042
 4122TIP3    H112372   3.438   5.425   3.102
 4122TIP3    H212373   3.430   5.357   2.967
 4123TIP3   OH212374   5.478   2.753   0.856
 4123TIP3    H112375   5.563   2.780   0.889
 4123TIP3    H212376   5.474   2.789   0.767
 4124TIP3   OH212377   4.552   0.486   1.397
 4124TIP3    H112378   4.587   0.401   1.369
 4124TIP3    H212379   4.626   0.546   1.389
 4125TIP3   OH212380   4.920   1.780   2.529
 4125TIP3    H112381   4.856   1.825   2.584
 4125TIP3    H212382   4.926   1.833   2.450
 4126TIP3   OH212383   5.414   1.228   3.613
 4126TIP3    H112384   5.328   1.194   3.588
 4126TIP3    H212385   5.426   1.197   3.703
 4127TIP3   OH212386   6.150   1.205   4.795
 4127TIP3    H112387   6.136   1.111   4.802
 4127TIP3    H212388   6.069   1.244   4.830
 4128TIP3   OH212389  -0.021   5.619   1.633
 4128TIP3    H112390  -0.064   5.583   1.711
 4128TIP3    H212391   0.072   5.608   1.650
 4129TIP3   OH212392   1.550   1.284   3.059
 4129TIP3    H112393   1.523   1.219   2.995
 4129TIP3    H212394   1.490   1.357   3.046
 4130TIP3   OH212395   0.664   0.130   0.801
 4130TIP3    H112396   0.708   0.212   0.779
 4130TIP3    H212397   0.590   0.126   0.740
 4131TIP3   OH212398   4.097   1.871   0.462
 4131TIP3    H112399   4.156   1.940   0.494
 4131TIP3    H212400   4.059   1.908   0.382
 4132TIP3   OH212401   2.218   2.810   5.097
 4132TIP3    H112402   2.152   2.773   5.038
 4132TIP3    H212403   2.269   2.869   5.043
 4133TIP3   OH212404   1.118   1.847   2.247
 4133TIP3    H112405   1.065   1.797   2.309
 4133TIP3    H212406   1.053   1.891   2.191
 4134TIP3   OH212407   5.626   2.590   3.075
 4134TIP3    H112408   5.655   2.645   3.002
 4134TIP3    H212409   5.668   2.628   3.152
 4135TIP3   OH212410   4.828   4.972   4.412
 4135TIP3    H112411   4.851   4.911   4.482
 4135TIP3    H212412   4.802   5.052   4.457
 4136TIP3   OH212413   3.202   5.171   2.772
 4136TIP3    H112414   3.133   5.233   2.794
 4136TIP3    H212415   3.171   5.127   2.693
 4137TIP3   OH212416   3.120   2.936   1.341
 4137TIP3    H112417   3.099   2.949   1.248
 4137TIP3    H212418   3.188   3.000   1.360
 4138TIP3   OH212419   4.312   0.714   1.742
 4138TIP3    H112420   4.237   0.773   1.744
 4138TIP3    H212421   4.305   0.662   1.822
 4139TIP3   OH212422   3.707   2.337   1.686
 4139TIP3    H112423   3.782   2.379   1.727
 4139TIP3    H212424   3.740   2.304   1.603
 4140TIP3   OH212425   1.227   1.524   3.411
 4140TIP3    H112426   1.250   1.587   3.479
 4140TIP3    H212427   1.306   1.471   3.401
 4141TIP3   OH212428   0.920   5.822   4.697
 4141TIP3    H112429   0.887   5.742   4.737
 4141TIP3    H212430   0.940   5.879   4.771
 4142TIP3   OH212431   0.613   2.930   0.849
 4142TIP3    H112432   0.520   2.909   0.852
 4142TIP3    H212433   0.654   2.869   0.910
 4143TIP3   OH212434   5.554   4.193   1.788
 4143TIP3    H112435   5.534   4.259   1.721
 4143TIP3    H212436   5.482   4.130   1.781
 4144TIP3   OH212437   3.426   1.244   2.634
 4144TIP3    H112438   3.384   1.326   2.607
 4144TIP3    H212439   3.424   1.246   2.729
 4145TIP3   OH212440   4.531   4.027   1.732
 4145TIP3    H112441   4.488   3.955   1.778
 4145TIP3    H212442   4.604   3.985   1.686
 4146TIP3   OH212443   1.116   2.047   0.530
 4146TIP3    H112444   1.062   2.046   0.608
 4146TIP3    H212445   1.161   2.131   0.533
 4147TIP3   OH212446   5.774   3.420   4.984
 4147TIP3    H112447   5.698   3.475   4.964
 4147TIP3    H212448   5.765   3.402   5.078
 4148TIP3   OH212449   3.248   2.954   0.357
 4148TIP3    H112450   3.242   2.934   0.450
 4148TIP3    H212451   3.176   2.905   0.317
 4149TIP3   OH212452   1.028   0.614   3.848
 4149TIP3    H112453   0.992   0.579   3.767
 4149TIP3    H212454   0.953   0.650   3.894
 4150TIP3   OH212455   0.831   2.326   4.912
 4150TIP3    H112456   0.768   2.366   4.852
 4150TIP3    H212457   0.795   2.342   4.999
 4151TIP3   OH212458   1.085   0.999   1.484
 4151TIP3    H112459   1.081   0.925   1.545
 4151TIP3    H212460   1.124   1.069   1.535
 4152TIP3   OH212461   6.238   4.254   3.164
 4152TIP3    H112462   6.157   4.292   3.130
 4152TIP3    H212463   6.290   4.329   3.191
 4153TIP3   OH212464   5.657   3.226   1.807
 4153TIP3    H112465   5.678   3.265   1.892
 4153TIP3    H212466   5.741   3.219   1.763
 4154TIP3   OH212467   4.686   2.361   2.646
 4154TIP3    H112468   4.676   2.288   2.585
 4154TIP3    H212469   4.780   2.370   2.658
 4155TIP3   OH212470   0.699   0.127   2.302
 4155TIP3    H112471   0.706   0.171   2.386
 4155TIP3    H212472   0.649   0.047   2.320
 4156TIP3   OH212473   2.348   2.089   2.930
 4156TIP3    H112474   2.358   2.004   2.974
 4156TIP3    H212475   2.419   2.143   2.966
 4157TIP3   OH212476   0.863   4.858   4.741
 4157TIP3    H112477   0.947   4.823   4.771
 4157TIP3    H212478   0.816   4.781   4.709
 4158TIP3   OH212479   0.929   5.706   2.521
 4158TIP3    H112480   0.910   5.800   2.530
 4158TIP3    H212481   0.862   5.674   2.461
 4159TIP3   OH212482   3.599   0.470   3.852
 4159TIP3    H112483   3.692   0.483   3.833
 4159TIP3    H212484   3.557   0.466   3.767
 4160TIP3   OH212485   5.339   2.375   2.081
 4160TIP3    H112486   5.324   2.435   2.008
 4160TIP3    H212487   5.412   2.320   2.053
 4161TIP3   OH212488   2.750   4.679   0.749
 4161TIP3    H112489   2.705   4.604   0.709
 4161TIP3    H212490   2.825   4.696   0.692
 4162TIP3   OH212491   3.630   5.455   4.750
 4162TIP3    H112492   3.609   5.485   4.839
 4162TIP3    H212493   3.720   5.422   4.757
 4163TIP3   OH212494   4.436   2.757   2.181
 4163TIP3    H112495   4.446   2.692   2.251
 4163TIP3    H212496   4.524   2.794   2.170
 4164TIP3   OH212497   2.350   3.612   1.531
 4164TIP3    H112498   2.321   3.522   1.545
 4164TIP3    H212499   2.407   3.607   1.454
 4165TIP3   OH212500   4.427   2.730   3.308
 4165TIP3    H112501   4.359   2.775   3.259
 4165TIP3    H212502   4.506   2.782   3.293
 4166TIP3   OH212503   5.531   2.731   1.843
 4166TIP3    H112504   5.534   2.827   1.840
 4166TIP3    H212505   5.615   2.703   1.808
 4167TIP3   OH212506   0.187   0.389   2.647
 4167TIP3    H112507   0.240   0.347   2.715
 4167TIP3    H212508   0.239   0.381   2.568
 4168TIP3   OH212509   3.656   0.893   0.280
 4168TIP3    H112510   3.638   0.986   0.266
 4168TIP3    H212511   3.652   0.855   0.192
 4169TIP3   OH212512   2.113   3.970   4.076
 4169TIP3    H112513   2.074   3.886   4.051
 4169TIP3    H212514   2.137   3.959   4.168
 4170TIP3   OH212515   5.409   3.346   1.760
 4170TIP3    H112516   5.500   3.324   1.781
 4170TIP3    H212517   5.403   3.338   1.665
 4171TIP3   OH212518   1.911   5.014   1.394
 4171TIP3    H112519   1.985   5.021   1.454
 4171TIP3    H212520   1.919   5.091   1.338
 4172TIP3   OH212521   4.369   4.364   3.321
 4172TIP3    H112522   4.359   4.401   3.233
 4172TIP3    H212523   4.329   4.277   3.315
 4173TIP3   OH212524   1.126   3.708   0.683
 4173TIP3    H112525   1.098   3.754   0.762
 4173TIP3    H212526   1.141   3.776   0.618
 4174TIP3   OH212527   1.236   0.693   4.723
 4174TIP3    H112528   1.177   0.709   4.649
 4174TIP3    H212529   1.181   0.708   4.800
 4175TIP3   OH212530   4.078   4.302   1.244
 4175TIP3    H112531   4.085   4.208   1.259
 4175TIP3    H212532   4.153   4.323   1.188
 4176TIP3   OH212533   2.840   2.241   4.956
 4176TIP3    H112534   2.889   2.217   4.877
 4176TIP3    H212535   2.901   2.223   5.028
 4177TIP3   OH212536   1.487   0.185   4.163
 4177TIP3    H112537   1.400   0.186   4.124
 4177TIP3    H212538   1.471   0.199   4.257
 4178TIP3   OH212539   2.920   0.456   0.286
 4178TIP3    H112540   2.836   0.499   0.303
 4178TIP3    H212541   2.896   0.370   0.253
 4179TIP3   OH212542   2.786   3.578   4.443
 4179TIP3    H112543   2.693   3.580   4.420
 4179TIP3    H212544   2.831   3.564   4.359
 4180TIP3   OH212545   0.834   3.420   2.514
 4180TIP3    H112546   0.804   3.334   2.484
 4180TIP3    H212547   0.777   3.483   2.469
 4181TIP3   OH212548   3.251   0.280   4.170
 4181TIP3    H112549   3.298   0.364   4.171
 4181TIP3    H212550   3.222   0.268   4.260
 4182TIP3   OH212551   1.764   4.468   4.542
 4182TIP3    H112552   1.740   4.485   4.451
 4182TIP3    H212553   1.742   4.549   4.588
 4183TIP3   OH212554   5.656   1.103   3.526
 4183TIP3    H112555   5.682   1.112   3.434
 4183TIP3    H212556   5.579   1.159   3.534
 4184TIP3   OH212557   1.566   2.367   2.789
 4184TIP3    H112558   1.610   2.393   2.709
 4184TIP3    H212559   1.541   2.275   2.774
 4185TIP3   OH212560   5.844   2.549   4.327
 4185TIP3    H112561   5.777   2.600   4.372
 4185TIP3    H212562   5.822   2.558   4.234
 4186TIP3   OH212563   4.636   4.483   0.723
 4186TIP3    H112564   4.571   4.413   0.715
 4186TIP3    H212565   4.720   4.439   0.713
 4187TIP3   OH212566   0.162   2.198   4.376
 4187TIP3    H112567   0.120   2.188   4.291
 4187TIP3    H212568   0.112   2.142   4.435
 4188TIP3   OH212569   4.297   1.289   2.243
 4188TIP3    H112570   4.208   1.306   2.212
 4188TIP3    H212571   4.294   1.199   2.275
 4189TIP3   OH212572   3.077   3.956   1.650
 4189TIP3    H112573   3.102   3.930   1.562
 4189TIP3    H212574   3.048   3.875   1.692
 4190TIP3   OH212575   1.332   5.210   5.218
 4190TIP3    H112576   1.317   5.304   5.229
 4190TIP3    H212577   1.362   5.200   5.128
 4191TIP3   OH212578   1.682   5.891   4.169
 4191TIP3    H112579   1.693   5.801   4.140
 4191TIP3    H212580   1.764   5.934   4.145
 4192TIP3   OH212581   1.666   5.324   1.537
 4192TIP3    H112582   1.585   5.293   1.497
 4192TIP3    H212583   1.728   5.252   1.523
 4193TIP3   OH212584   4.851   0.476   2.391
 4193TIP3    H112585   4.876   0.391   2.426
 4193TIP3    H212586   4.864   0.469   2.297
 4194TIP3   OH212587   5.930   5.019   3.095
 4194TIP3    H112588   5.840   5.043   3.115
 4194TIP3    H212589   5.966   5.096   3.050
 4195TIP3   OH212590   1.181   1.084   2.814
 4195TIP3    H112591   1.192   1.169   2.772
 4195TIP3    H212592   1.190   1.020   2.743
 4196TIP3   OH212593   0.329   1.375   4.475
 4196TIP3    H112594   0.285   1.376   4.390
 4196TIP3    H212595   0.421   1.391   4.455
 4197TIP3   OH212596   4.448   5.108   2.903
 4197TIP3    H112597   4.377   5.169   2.886
 4197TIP3    H212598   4.508   5.157   2.959
 4198TIP3   OH212599   4.151   3.305   1.584
 4198TIP3    H112600   4.165   3.212   1.568
 4198TIP3    H212601   4.234   3.346   1.561
 4199TIP3   OH212602   1.125   3.098   3.743
 4199TIP3    H112603   1.075   3.152   3.683
 4199TIP3    H212604   1.175   3.160   3.796
 4200TIP3   OH212605   1.277   2.417   0.276
 4200TIP3    H112606   1.304   2.380   0.361
 4200TIP3    H212607   1.297   2.510   0.284
 4201TIP3   OH212608   1.579   5.903   0.849
 4201TIP3    H112609   1.548   5.948   0.770
 4201TIP3    H212610   1.499   5.869   0.890
 4202TIP3   OH212611   5.788   1.427   4.113
 4202TIP3    H112612   5.852   1.360   4.135
 4202TIP3    H212613   5.839   1.497   4.072
 4203TIP3   OH212614   5.154   4.008   2.654
 4203TIP3    H112615   5.191   3.933   2.699
 4203TIP3    H212616   5.066   3.980   2.628
 4204TIP3   OH212617   0.398   2.494   3.321
 4204TIP3    H112618   0.402   2.442   3.241
 4204TIP3    H212619   0.478   2.472   3.369
 4205TIP3   OH212620   5.403   5.383   4.670
 4205TIP3    H112621   5.450   5.363   4.589
 4205TIP3    H212622   5.317   5.412   4.641
 4206TIP3   OH212623   0.362   1.889   3.309
 4206TIP3    H112624   0.356   1.943   3.388
 4206TIP3    H212625   0.274   1.851   3.299
 4207TIP3   OH212626   1.733   2.568   4.899
 4207TIP3    H112627   1.663   2.517   4.857
 4207TIP3    H212628   1.812   2.515   4.886
 4208TIP3   OH212629   5.579   5.697   3.734
 4208TIP3    H112630   5.533   5.779   3.751
 4208TIP3    H212631   5.664   5.724   3.699
 4209TIP3   OH212632   1.306   2.549   1.705
 4209TIP3    H112633   1.361   2.494   1.762
 4209TIP3    H212634   1.306   2.504   1.621
 4210TIP3   OH212635   5.257   0.966   3.489
 4210TIP3    H112636   5.212   0.890   3.525
 4210TIP3    H212637   5.202   1.040   3.514
 4211TIP3   OH212638   3.267   3.074   4.288
 4211TIP3    H112639   3.357   3.068   4.259
 4211TIP3    H212640   3.258   3.007   4.355
 4212TIP3   OH212641   2.006   5.013   0.297
 4212TIP3    H112642   2.067   5.025   0.370
 4212TIP3    H212643   2.059   4.978   0.226
 4213TIP3   OH212644   0.338   5.226   1.157
 4213TIP3    H112645   0.401   5.298   1.160
 4213TIP3    H212646   0.310   5.214   1.247
 4214TIP3   OH212647   5.158   0.055   2.917
 4214TIP3    H112648   5.105   0.134   2.927
 4214TIP3    H212649   5.189   0.036   3.006
 4215TIP3   OH212650   0.300   4.237   1.562
 4215TIP3    H112651   0.357   4.275   1.629
 4215TIP3    H212652   0.225   4.202   1.610
 4216TIP3   OH212653   4.580   5.455   1.267
 4216TIP3    H112654   4.542   5.484   1.183
 4216TIP3    H212655   4.631   5.378   1.244
 4217TIP3   OH212656   0.515   5.531   3.386
 4217TIP3    H112657   0.477   5.613   3.417
 4217TIP3    H212658   0.579   5.506   3.453
 4218TIP3   OH212659   3.992   4.818   2.336
 4218TIP3    H112660   3.912   4.804   2.285
 4218TIP3    H212661   4.018   4.908   2.316
 4219TIP3   OH212662   5.376   5.334   4.386
 4219TIP3    H112663   5.413   5.277   4.319
 4219TIP3    H212664   5.327   5.400   4.338
 4220TIP3   OH212665   5.183   4.772   2.352
 4220TIP3    H112666   5.255   4.834   2.356
 4220TIP3    H212667   5.196   4.724   2.270
 4221TIP3   OH212668   5.133   2.375   0.674
 4221TIP3    H112669   5.174   2.459   0.655
 4221TIP3    H212670   5.168   2.350   0.760
 4222TIP3   OH212671   1.307   5.325   0.352
 4222TIP3    H112672   1.347   5.412   0.352
 4222TIP3    H212673   1.299   5.303   0.445
 4223TIP3   OH212674   2.767   0.357   3.383
 4223TIP3    H112675   2.852   0.314   3.372
 4223TIP3    H212676   2.706   0.284   3.399
 4224TIP3   OH212677   3.177   2.651   4.457
 4224TIP3    H112678   3.156   2.573   4.407
 4224TIP3    H212679   3.245   2.696   4.406
 4225TIP3   OH212680   3.788   2.209   1.377
 4225TIP3    H112681   3.843   2.271   1.328
 4225TIP3    H212682   3.698   2.233   1.355
 4226TIP3   OH212683   5.200   1.462   0.790
 4226TIP3    H112684   5.136   1.523   0.826
 4226TIP3    H212685   5.284   1.495   0.820
 4227TIP3   OH212686   3.091   4.850   3.124
 4227TIP3    H112687   3.178   4.869   3.160
 4227TIP3    H212688   3.042   4.931   3.135
 4228TIP3   OH212689   2.387   4.775   2.134
 4228TIP3    H112690   2.340   4.734   2.061
 4228TIP3    H212691   2.400   4.865   2.106
 4229TIP3   OH212692   3.570   0.690   0.960
 4229TIP3    H112693   3.557   0.615   0.902
 4229TIP3    H212694   3.487   0.737   0.959
 4230TIP3   OH212695   5.218   1.481   1.164
 4230TIP3    H112696   5.262   1.529   1.094
 4230TIP3    H212697   5.159   1.420   1.119
 4231TIP3   OH212698   0.816   3.432   0.196
 4231TIP3    H112699   0.888   3.494   0.207
 4231TIP3    H212700   0.739   3.478   0.230
 4232TIP3   OH212701   2.652   4.694   3.427
 4232TIP3    H112702   2.624   4.694   3.518
 4232TIP3    H212703   2.581   4.650   3.380
 4233TIP3   OH212704   5.580   2.205   2.278
 4233TIP3    H112705   5.672   2.223   2.298
 4233TIP3    H212706   5.571   2.226   2.184
 4234TIP3   OH212707   3.223   3.378   4.013
 4234TIP3    H112708   3.164   3.310   4.046
 4234TIP3    H212709   3.283   3.395   4.086
 4235TIP3   OH212710   0.131   1.625   2.698
 4235TIP3    H112711   0.041   1.657   2.700
 4235TIP3    H212712   0.123   1.531   2.706
 4236TIP3   OH212713   1.984   2.295   3.155
 4236TIP3    H112714   1.940   2.373   3.189
 4236TIP3    H212715   1.969   2.228   3.222
 4237TIP3   OH212716   2.662   1.395   4.689
 4237TIP3    H112717   2.726   1.433   4.749
 4237TIP3    H212718   2.656   1.457   4.616
 4238TIP3   OH212719   6.324   0.690   1.469
 4238TIP3    H112720   6.246   0.745   1.480
 4238TIP3    H212721   6.350   0.704   1.378
 4239TIP3   OH212722   3.360   1.188   2.900
 4239TIP3    H112723   3.396   1.102   2.879
 4239TIP3    H212724   3.358   1.190   2.995
 4240TIP3   OH212725   5.564   2.263   2.011
 4240TIP3    H112726   5.529   2.178   1.985
 4240TIP3    H212727   5.654   2.263   1.979
 4241TIP3   OH212728   0.901   4.713   1.419
 4241TIP3    H112729   0.908   4.627   1.378
 4241TIP3    H212730   0.948   4.771   1.359
 4242TIP3   OH212731   4.895   4.832   4.191
 4242TIP3    H112732   4.989   4.840   4.173
 4242TIP3    H212733   4.884   4.876   4.275
 4243TIP3   OH212734   1.410   3.761   4.023
 4243TIP3    H112735   1.432   3.681   4.070
 4243TIP3    H212736   1.406   3.735   3.931
 4244TIP3   OH212737   1.018   1.584   1.993
 4244TIP3    H112738   1.075   1.514   2.025
 4244TIP3    H212739   0.937   1.539   1.969
 4245TIP3   OH212740   4.104   5.493   1.270
 4245TIP3    H112741   4.101   5.409   1.225
 4245TIP3    H212742   4.054   5.480   1.350
 4246TIP3   OH212743   4.462   0.623   0.742
 4246TIP3    H112744   4.369   0.612   0.719
 4246TIP3    H212745   4.500   0.536   0.732
 4247TIP3   OH212746   5.677  -0.026   4.852
 4247TIP3    H112747   5.719  -0.012   4.937
 4247TIP3    H212748   5.729   0.026   4.791
 4248TIP3   OH212749   2.216   4.311   2.732
 4248TIP3    H112750   2.210   4.314   2.636
 4248TIP3    H212751   2.309   4.300   2.751
 4249TIP3   OH212752   6.020   5.419   1.777
 4249TIP3    H112753   5.976   5.374   1.850
 4249TIP3    H212754   5.981   5.381   1.699
 4250TIP3   OH212755   6.151   1.033   3.615
 4250TIP3    H112756   6.080   0.992   3.665
 4250TIP3    H212757   6.223   1.039   3.677
 4251TIP3   OH212758   1.440   3.537   1.051
 4251TIP3    H112759   1.357   3.490   1.044
 4251TIP3    H212760   1.489   3.511   0.973
 4252TIP3   OH212761   1.187   0.701   2.655
 4252TIP3    H112762   1.170   0.795   2.651
 4252TIP3    H212763   1.106   0.663   2.690
 4253TIP3   OH212764   5.104   1.677   0.562
 4253TIP3    H112765   5.052   1.733   0.620
 4253TIP3    H212766   5.040   1.629   0.512
 4254TIP3   OH212767   3.841   4.936   2.628
 4254TIP3    H112768   3.885   4.851   2.621
 4254TIP3    H212769   3.764   4.918   2.681
 4255TIP3   OH212770   0.565   1.266   1.689
 4255TIP3    H112771   0.567   1.333   1.757
 4255TIP3    H212772   0.481   1.222   1.699
 4256TIP3   OH212773   2.010   5.192   1.871
 4256TIP3    H112774   1.998   5.265   1.810
 4256TIP3    H212775   1.930   5.141   1.862
 4257TIP3   OH212776   4.135   5.369   1.574
 4257TIP3    H112777   4.184   5.357   1.492
 4257TIP3    H212778   4.195   5.419   1.630
 4258TIP3   OH212779   6.363   4.574   3.559
 4258TIP3    H112780   6.273   4.544   3.573
 4258TIP3    H212781   6.358   4.634   3.485
 4259TIP3   OH212782   2.920   5.652   3.431
 4259TIP3    H112783   2.855   5.711   3.470
 4259TIP3    H212784   2.939   5.691   3.345
 4260TIP3   OH212785   2.688   5.390   2.527
 4260TIP3    H112786   2.688   5.443   2.448
 4260TIP3    H212787   2.596   5.375   2.547
 4261TIP3   OH212788   4.230   0.210   1.991
 4261TIP3    H112789   4.252   0.125   1.951
 4261TIP3    H212790   4.200   0.188   2.079
 4262TIP3   OH212791   5.143   1.998   3.880
 4262TIP3    H112792   5.174   1.951   3.958
 4262TIP3    H212793   5.130   2.088   3.911
 4263TIP3   OH212794   0.762   1.685   1.643
 4263TIP3    H112795   0.763   1.593   1.669
 4263TIP3    H212796   0.693   1.691   1.578
 4264TIP3   OH212797   4.146   2.741   1.094
 4264TIP3    H112798   4.065   2.697   1.118
 4264TIP3    H212799   4.208   2.671   1.075
 4265TIP3   OH212800   1.165   0.238   4.156
 4265TIP3    H112801   1.081   0.219   4.198
 4265TIP3    H212802   1.209   0.297   4.217
 4266TIP3   OH212803   2.698   2.544   4.568
 4266TIP3    H112804   2.604   2.530   4.566
 4266TIP3    H212805   2.730   2.487   4.638
 4267TIP3   OH212806   1.508   5.314   3.809
 4267TIP3    H112807   1.523   5.321   3.903
 4267TIP3    H212808   1.577   5.367   3.769
 4268TIP3   OH212809   0.012   0.784   4.645
 4268TIP3    H112810   0.081   0.790   4.580
 4268TIP3    H212811  -0.068   0.803   4.597
 4269TIP3   OH212812   5.222   4.784   1.526
 4269TIP3    H112813   5.171   4.858   1.494
 4269TIP3    H212814   5.159   4.712   1.531
 4270TIP3   OH212815   4.361   2.767   4.421
 4270TIP3    H112816   4.439   2.788   4.472
 4270TIP3    H212817   4.339   2.848   4.374
 4271TIP3   OH212818   2.042   0.897   2.049
 4271TIP3    H112819   1.991   0.969   2.084
 4271TIP3    H212820   2.045   0.833   2.120
 4272TIP3   OH212821   3.424   1.712   3.347
 4272TIP3    H112822   3.396   1.645   3.410
 4272TIP3    H212823   3.399   1.795   3.387
 4273TIP3   OH212824   5.376   0.133   0.920
 4273TIP3    H112825   5.368   0.228   0.916
 4273TIP3    H212826   5.293   0.103   0.956
 4274TIP3   OH212827   4.262   4.018   0.663
 4274TIP3    H112828   4.287   3.962   0.737
 4274TIP3    H212829   4.204   3.963   0.610
 4275TIP3   OH212830   5.970   0.985   0.841
 4275TIP3    H112831   5.925   1.017   0.763
 4275TIP3    H212832   5.977   1.062   0.898
 4276TIP3   OH212833   4.556   3.888   4.125
 4276TIP3    H112834   4.625   3.954   4.130
 4276TIP3    H212835   4.558   3.845   4.211
 4277TIP3   OH212836   5.529   3.678   4.608
 4277TIP3    H112837   5.587   3.743   4.569
 4277TIP3    H212838   5.469   3.729   4.663
 4278TIP3   OH212839   4.359   2.896   1.969
 4278TIP3    H112840   4.288   2.847   1.926
 4278TIP3    H212841   4.411   2.829   2.012
 4279TIP3   OH212842   3.446   2.864   3.111
 4279TIP3    H112843   3.515   2.888   3.049
 4279TIP3    H212844   3.381   2.819   3.057
 4280TIP3   OH212845   0.551   5.433   1.238
 4280TIP3    H112846   0.505   5.489   1.301
 4280TIP3    H212847   0.570   5.491   1.164
 4281TIP3   OH212848   4.811   5.621   2.633
 4281TIP3    H112849   4.745   5.556   2.609
 4281TIP3    H212850   4.763   5.689   2.680
 4282TIP3   OH212851   2.809   5.038   0.089
 4282TIP3    H112852   2.832   5.044  -0.004
 4282TIP3    H212853   2.883   4.991   0.129
 4283TIP3   OH212854   4.643   1.857   3.711
 4283TIP3    H112855   4.636   1.936   3.657
 4283TIP3    H212856   4.616   1.886   3.798
 4284TIP3   OH212857   2.927   3.743   1.800
 4284TIP3    H112858   3.003   3.692   1.829
 4284TIP3    H212859   2.853   3.699   1.842
 4285TIP3   OH212860   1.065   5.610   3.799
 4285TIP3    H112861   1.069   5.678   3.732
 4285TIP3    H212862   1.087   5.529   3.752
 4286TIP3   OH212863   1.375   2.832   1.820
 4286TIP3    H112864   1.324   2.883   1.757
 4286TIP3    H212865   1.371   2.742   1.788
 4287TIP3   OH212866   4.197   4.817   1.192
 4287TIP3    H112867   4.150   4.747   1.236
 4287TIP3    H212868   4.227   4.778   1.110
 4288TIP3   OH212869   2.099   1.190   0.449
 4288TIP3    H112870   2.134   1.202   0.360
 4288TIP3    H212871   2.139   1.260   0.500
 4289TIP3   OH212872   2.139   2.582   2.201
 4289TIP3    H112873   2.134   2.580   2.297
 4289TIP3    H212874   2.200   2.512   2.179
 4290TIP3   OH212875   2.692   5.342   2.853
 4290TIP3    H112876   2.606   5.383   2.855
 4290TIP3    H212877   2.673   5.248   2.850
 4291TIP3   OH212878   2.080   0.690   3.443
 4291TIP3    H112879   2.026   0.708   3.520
 4291TIP3    H212880   2.159   0.649   3.479
 4292TIP3   OH212881   0.027   2.745   4.309
 4292TIP3    H112882   0.051   2.654   4.327
 4292TIP3    H212883  -0.006   2.744   4.219
 4293TIP3   OH212884   3.055   3.839   0.681
 4293TIP3    H112885   2.977   3.893   0.688
 4293TIP3    H212886   3.031   3.755   0.720
 4294TIP3   OH212887   1.790   4.248   0.054
 4294TIP3    H112888   1.721   4.203   0.005
 4294TIP3    H212889   1.867   4.193   0.043
 4295TIP3   OH212890   1.860   3.594   1.017
 4295TIP3    H112891   1.955   3.585   1.019
 4295TIP3    H212892   1.832   3.576   1.107
 4296TIP3   OH212893   0.445   1.621   3.119
 4296TIP3    H112894   0.520   1.675   3.143
 4296TIP3    H212895   0.484   1.544   3.076
 4297TIP3   OH212896   2.606   5.217   3.125
 4297TIP3    H112897   2.664   5.289   3.151
 4297TIP3    H212898   2.640   5.189   3.039
 4298TIP3   OH212899   5.492   5.423   3.761
 4298TIP3    H112900   5.523   5.494   3.706
 4298TIP3    H212901   5.527   5.442   3.848
 4299TIP3   OH212902   2.065   1.403   3.537
 4299TIP3    H112903   2.052   1.335   3.470
 4299TIP3    H212904   2.004   1.379   3.607
 4300TIP3   OH212905   1.234   0.825   3.501
 4300TIP3    H112906   1.187   0.745   3.478
 4300TIP3    H212907   1.269   0.857   3.417
 4301TIP3   OH212908   1.831   1.260   4.024
 4301TIP3    H112909   1.783   1.341   4.041
 4301TIP3    H212910   1.912   1.268   4.074
 4302TIP3   OH212911   1.301   2.272   3.447
 4302TIP3    H112912   1.269   2.294   3.534
 4302TIP3    H212913   1.222   2.272   3.392
 4303TIP3   OH212914   4.877   5.017   2.267
 4303TIP3    H112915   4.958   5.030   2.316
 4303TIP3    H212916   4.855   5.104   2.233
 4304TIP3   OH212917   0.794   2.651   0.641
 4304TIP3    H112918   0.831   2.577   0.592
 4304TIP3    H212919   0.870   2.698   0.675
 4305TIP3   OH212920   1.844   0.221   3.472
 4305TIP3    H112921   1.799   0.145   3.436
 4305TIP3    H212922   1.846   0.284   3.401
 4306TIP3   OH212923   1.011   4.531   4.009
 4306TIP3    H112924   1.067   4.609   4.014
 4306TIP3    H212925   0.964   4.540   3.927
 4307TIP3   OH212926   4.709   1.115   1.868
 4307TIP3    H112927   4.626   1.066   1.864
 4307TIP3    H212928   4.742   1.113   1.779
 4308TIP3   OH212929   1.110   0.772   1.325
 4308TIP3    H112930   1.113   0.851   1.379
 4308TIP3    H212931   1.201   0.747   1.314
 4309TIP3   OH212932   2.391   1.895   1.207
 4309TIP3    H112933   2.370   1.917   1.117
 4309TIP3    H212934   2.444   1.968   1.239
 4310TIP3   OH212935   2.176   4.441   1.262
 4310TIP3    H112936   2.262   4.478   1.283
 4310TIP3    H212937   2.146   4.493   1.187
 4311TIP3   OH212938   1.573   3.931   5.199
 4311TIP3    H112939   1.490   3.939   5.151
 4311TIP3    H212940   1.585   3.836   5.209
 4312TIP3   OH212941   2.532   2.471   4.926
 4312TIP3    H112942   2.444   2.443   4.901
 4312TIP3    H212943   2.553   2.417   5.002
 4313TIP3   OH212944   3.218   3.258   4.858
 4313TIP3    H112945   3.184   3.271   4.947
 4313TIP3    H212946   3.141   3.232   4.807
 4314TIP3   OH212947   6.327   2.629   3.006
 4314TIP3    H112948   6.386   2.704   3.000
 4314TIP3    H212949   6.261   2.645   2.939
 4315TIP3   OH212950   2.219   3.525   4.978
 4315TIP3    H112951   2.297   3.521   4.923
 4315TIP3    H212952   2.158   3.580   4.929
 4316TIP3   OH212953   6.264   3.956   5.198
 4316TIP3    H112954   6.325   3.970   5.271
 4316TIP3    H212955   6.308   3.893   5.141
 4317TIP3   OH212956   3.726   4.911   1.798
 4317TIP3    H112957   3.689   4.999   1.804
 4317TIP3    H212958   3.691   4.865   1.875
 4318TIP3   OH212959   0.316   1.039   3.602
 4318TIP3    H112960   0.303   0.991   3.684
 4318TIP3    H212961   0.323   0.971   3.535
 4319TIP3   OH212962   0.725   3.485   2.806
 4319TIP3    H112963   0.671   3.409   2.788
 4319TIP3    H212964   0.664   3.559   2.807
 4320TIP3   OH212965   6.137   2.205   4.697
 4320TIP3    H112966   6.059   2.245   4.737
 4320TIP3    H212967   6.108   2.118   4.671
 4321TIP3   OH212968   2.671   0.053   0.612
 4321TIP3    H112969   2.638   0.073   0.524
 4321TIP3    H212970   2.718   0.132   0.638
 4322TIP3   OH212971   5.011   3.570   2.391
 4322TIP3    H112972   5.081   3.582   2.327
 4322TIP3    H212973   4.966   3.490   2.362
 4323TIP3   OH212974   4.315   0.880   3.098
 4323TIP3    H112975   4.349   0.816   3.161
 4323TIP3    H212976   4.353   0.854   3.014
 4324TIP3   OH212977   4.255   5.415   0.028
 4324TIP3    H112978   4.235   5.343   0.089
 4324TIP3    H212979   4.171   5.438  -0.011
 4325TIP3   OH212980   4.361   2.109   2.380
 4325TIP3    H112981   4.299   2.147   2.442
 4325TIP3    H212982   4.318   2.117   2.295
 4326TIP3   OH212983   3.963   2.323   4.759
 4326TIP3    H112984   3.934   2.349   4.672
 4326TIP3    H212985   3.926   2.235   4.771
 4327TIP3   OH212986   6.156   3.117   4.407
 4327TIP3    H112987   6.087   3.157   4.355
 4327TIP3    H212988   6.205   3.191   4.444
 4328TIP3   OH212989   2.840   3.359   1.056
 4328TIP3    H112990   2.887   3.346   0.974
 4328TIP3    H212991   2.878   3.295   1.116
 4329TIP3   OH212992   3.938   4.875   2.030
 4329TIP3    H112993   3.897   4.856   1.946
 4329TIP3    H212994   3.881   4.940   2.071
 4330TIP3   OH212995   3.120   1.705   0.255
 4330TIP3    H112996   3.140   1.749   0.172
 4330TIP3    H212997   3.200   1.656   0.276
 4331TIP3   OH212998   2.117   0.655   0.839
 4331TIP3    H112999   2.100   0.680   0.748
 4331TIP3    H213000   2.051   0.590   0.859
 4332TIP3   OH213001   0.118   4.982   2.107
 4332TIP3    H113002   0.097   5.071   2.136
 4332TIP3    H213003   0.068   4.971   2.026
 4333TIP3   OH213004   5.690   0.891   0.376
 4333TIP3    H113005   5.767   0.933   0.414
 4333TIP3    H213006   5.641   0.858   0.452
 4334TIP3   OH213007   2.611   3.501   1.078
 4334TIP3    H113008   2.639   3.564   1.011
 4334TIP3    H213009   2.674   3.429   1.072
 4335TIP3   OH213010   2.479   4.117   4.909
 4335TIP3    H113011   2.574   4.128   4.912
 4335TIP3    H213012   2.445   4.181   4.971
 4336TIP3   OH213013   1.275   2.817   3.610
 4336TIP3    H113014   1.282   2.817   3.514
 4336TIP3    H213015   1.247   2.906   3.632
 4337TIP3   OH213016   0.676   3.125   1.043
 4337TIP3    H113017   0.603   3.186   1.050
 4337TIP3    H213018   0.666   3.086   0.956
 4338TIP3   OH213019   4.499   3.019   3.043
 4338TIP3    H113020   4.450   2.995   2.965
 4338TIP3    H213021   4.591   3.006   3.019
 4339TIP3   OH213022   4.546   0.284   1.965
 4339TIP3    H113023   4.587   0.213   1.915
 4339TIP3    H213024   4.482   0.322   1.905
 4340TIP3   OH213025   1.676   1.840   1.104
 4340TIP3    H113026   1.731   1.846   1.183
 4340TIP3    H213027   1.730   1.876   1.034
 4341TIP3   OH213028   2.777   4.369   4.036
 4341TIP3    H113029   2.759   4.283   4.073
 4341TIP3    H213030   2.784   4.427   4.111
 4342TIP3   OH213031   5.107   0.023   0.004
 4342TIP3    H113032   5.196   0.045  -0.023
 4342TIP3    H213033   5.078   0.097   0.056
 4343TIP3   OH213034   1.043   3.648   0.954
 4343TIP3    H113035   1.113   3.600   0.910
 4343TIP3    H213036   1.053   3.625   1.047
 4344TIP3   OH213037   1.041   3.839   1.891
 4344TIP3    H113038   1.078   3.772   1.833
 4344TIP3    H213039   1.105   3.848   1.962
 4345TIP3   OH213040   1.100   4.574   2.841
 4345TIP3    H113041   1.031   4.518   2.877
 4345TIP3    H213042   1.173   4.565   2.902
 4346TIP3   OH213043   2.686   3.191   3.923
 4346TIP3    H113044   2.762   3.143   3.889
 4346TIP3    H213045   2.666   3.255   3.855
 4347TIP3   OH213046   2.066   0.059   3.241
 4347TIP3    H113047   1.990   0.040   3.187
 4347TIP3    H213048   2.055   0.005   3.319
 4348TIP3   OH213049   0.262   0.441   1.618
 4348TIP3    H113050   0.239   0.436   1.525
 4348TIP3    H213051   0.353   0.414   1.622
 4349TIP3   OH213052   1.772   0.936   1.405
 4349TIP3    H113053   1.721   0.944   1.486
 4349TIP3    H213054   1.859   0.968   1.428
 4350TIP3   OH213055   3.022   1.553   2.549
 4350TIP3    H113056   2.944   1.549   2.604
 4350TIP3    H213057   3.042   1.647   2.543
 4351TIP3   OH213058   1.742   1.689   0.211
 4351TIP3    H113059   1.683   1.758   0.243
 4351TIP3    H213060   1.684   1.615   0.192
 4352TIP3   OH213061   2.568   2.052   1.920
 4352TIP3    H113062   2.606   2.035   2.006
 4352TIP3    H213063   2.620   1.998   1.860
 4353TIP3   OH213064   0.952   1.788   3.969
 4353TIP3    H113065   0.903   1.865   3.996
 4353TIP3    H213066   1.042   1.805   3.999
 4354TIP3   OH213067   2.363   3.214   0.695
 4354TIP3    H113068   2.396   3.193   0.608
 4354TIP3    H213069   2.283   3.263   0.679
 4355TIP3   OH213070   2.908   1.809   0.416
 4355TIP3    H113071   2.935   1.856   0.495
 4355TIP3    H213072   2.987   1.763   0.387
 4356TIP3   OH213073   3.524   0.789   4.331
 4356TIP3    H113074   3.564   0.853   4.390
 4356TIP3    H213075   3.585   0.715   4.333
 4357TIP3   OH213076   3.114   0.613   4.252
 4357TIP3    H113077   3.070   0.595   4.335
 4357TIP3    H213078   3.074   0.552   4.190
 4358TIP3   OH213079   3.281   5.149   0.522
 4358TIP3    H113080   3.329   5.232   0.526
 4358TIP3    H213081   3.276   5.129   0.428
 4359TIP3   OH213082   1.779   0.851   3.548
 4359TIP3    H113083   1.845   0.785   3.569
 4359TIP3    H213084   1.781   0.912   3.623
 4360TIP3   OH213085   3.840   5.851   2.441
 4360TIP3    H113086   3.745   5.844   2.430
 4360TIP3    H213087   3.859   5.802   2.521
 4361TIP3   OH213088   3.178   3.395   3.602
 4361TIP3    H113089   3.168   3.379   3.696
 4361TIP3    H213090   3.235   3.325   3.571
 4362TIP3   OH213091   3.100   2.943   0.685
 4362TIP3    H113092   3.005   2.947   0.678
 4362TIP3    H213093   3.124   2.859   0.645
 4363TIP3   OH213094   4.421   5.351   4.127
 4363TIP3    H113095   4.509   5.329   4.158
 4363TIP3    H213096   4.398   5.278   4.069
 4364TIP3   OH213097   5.459   4.411   1.159
 4364TIP3    H113098   5.401   4.472   1.114
 4364TIP3    H213099   5.510   4.465   1.218
 4365TIP3   OH213100   0.531   4.171   0.840
 4365TIP3    H113101   0.544   4.165   0.934
 4365TIP3    H213102   0.437   4.156   0.827
 4366TIP3   OH213103   4.470   3.515   2.599
 4366TIP3    H113104   4.446   3.572   2.672
 4366TIP3    H213105   4.401   3.448   2.598
 4367TIP3   OH213106   0.314   1.930   0.689
 4367TIP3    H113107   0.368   2.000   0.653
 4367TIP3    H213108   0.270   1.970   0.764
 4368TIP3   OH213109   2.928   2.714   3.460
 4368TIP3    H113110   2.980   2.782   3.418
 4368TIP3    H213111   2.936   2.638   3.403
 4369TIP3   OH213112   3.985   2.130   4.527
 4369TIP3    H113113   3.908   2.166   4.483
 4369TIP3    H213114   3.964   2.038   4.541
 4370TIP3   OH213115   2.432   2.315   1.234
 4370TIP3    H113116   2.363   2.373   1.201
 4370TIP3    H213117   2.433   2.241   1.173
 4371TIP3   OH213118   1.750   1.532   3.111
 4371TIP3    H113119   1.733   1.503   3.201
 4371TIP3    H213120   1.686   1.485   3.058
 4372TIP3   OH213121   6.163   0.222   1.511
 4372TIP3    H113122   6.151   0.237   1.604
 4372TIP3    H213123   6.159   0.310   1.472
 4373TIP3   OH213124   6.081   2.115   4.045
 4373TIP3    H113125   6.061   2.090   4.135
 4373TIP3    H213126   5.997   2.142   4.009
 4374TIP3   OH213127   1.060   0.966   2.583
 4374TIP3    H113128   1.045   1.028   2.512
 4374TIP3    H213129   0.976   0.962   2.629
 4375TIP3   OH213130   4.279   1.847   0.726
 4375TIP3    H113131   4.201   1.793   0.713
 4375TIP3    H213132   4.329   1.836   0.645
 4376TIP3   OH213133   3.690   3.583   5.111
 4376TIP3    H113134   3.775   3.625   5.097
 4376TIP3    H213135   3.700   3.538   5.195
 4377TIP3   OH213136   4.879   1.597   0.408
 4377TIP3    H113137   4.843   1.672   0.360
 4377TIP3    H213138   4.915   1.540   0.340
 4378TIP3   OH213139   6.037   5.559   0.921
 4378TIP3    H113140   6.081   5.474   0.916
 4378TIP3    H213141   6.096   5.613   0.974
 4379TIP3   OH213142   4.568   2.598   2.550
 4379TIP3    H113143   4.546   2.656   2.624
 4379TIP3    H213144   4.614   2.525   2.590
 4380TIP3   OH213145   3.033   1.121   0.545
 4380TIP3    H113146   3.044   1.054   0.477
 4380TIP3    H213147   3.106   1.107   0.605
 4381TIP3   OH213148   2.016   0.443   4.147
 4381TIP3    H113149   2.051   0.360   4.113
 4381TIP3    H213150   1.970   0.482   4.073
 4382TIP3   OH213151   0.286   5.280   1.417
 4382TIP3    H113152   0.257   5.204   1.468
 4382TIP3    H213153   0.321   5.341   1.482
 4383TIP3   OH213154   1.628   2.900   0.842
 4383TIP3    H113155   1.592   2.843   0.910
 4383TIP3    H213156   1.653   2.980   0.888
 4384TIP3   OH213157   2.600   1.307   3.715
 4384TIP3    H113158   2.521   1.267   3.679
 4384TIP3    H213159   2.569   1.365   3.784
 4385TIP3   OH213160   5.702   3.187   4.827
 4385TIP3    H113161   5.734   3.257   4.885
 4385TIP3    H213162   5.710   3.223   4.739
 4386TIP3   OH213163   0.146   0.629   4.312
 4386TIP3    H113164   0.052   0.637   4.297
 4386TIP3    H213165   0.165   0.690   4.382
 4387TIP3   OH213166   0.211   0.833   4.080
 4387TIP3    H113167   0.186   0.750   4.121
 4387TIP3    H213168   0.143   0.894   4.107
 4388TIP3   OH213169   0.174   0.269   3.453
 4388TIP3    H113170   0.187   0.231   3.540
 4388TIP3    H213171   0.188   0.363   3.465
 4389TIP3   OH213172   1.818   0.129   4.697
 4389TIP3    H113173   1.874   0.172   4.632
 4389TIP3    H213174   1.865   0.051   4.722
 4390TIP3   OH213175   3.816   1.593   2.078
 4390TIP3    H113176   3.743   1.649   2.052
 4390TIP3    H213177   3.831   1.536   2.002
 4391TIP3   OH213178   0.263   0.563   3.472
 4391TIP3    H113179   0.183   0.608   3.499
 4391TIP3    H213180   0.328   0.588   3.538
 4392TIP3   OH213181   5.569   5.447   3.467
 4392TIP3    H113182   5.660   5.444   3.436
 4392TIP3    H213183   5.535   5.359   3.449
 4393TIP3   OH213184   0.162   3.411   1.885
 4393TIP3    H113185   0.193   3.500   1.904
 4393TIP3    H213186   0.067   3.417   1.895
 4394TIP3   OH213187   2.154   4.167   1.246
 4394TIP3    H113188   2.087   4.156   1.178
 4394TIP3    H213189   2.161   4.261   1.258
 4395TIP3   OH213190   4.443   1.006   5.179
 4395TIP3    H113191   4.416   1.097   5.185
 4395TIP3    H213192   4.524   1.008   5.127
 4396TIP3   OH213193   4.058   0.290   5.069
 4396TIP3    H113194   4.089   0.246   4.990
 4396TIP3    H213195   4.025   0.374   5.038
 4397TIP3   OH213196   0.343   1.198   1.357
 4397TIP3    H113197   0.362   1.105   1.342
 4397TIP3    H213198   0.292   1.224   1.280
 4398TIP3   OH213199   1.483   0.111   2.634
 4398TIP3    H113200   1.528   0.053   2.696
 4398TIP3    H213201   1.390   0.095   2.649
 4399TIP3   OH213202   5.516   3.831   5.152
 4399TIP3    H113203   5.510   3.789   5.238
 4399TIP3    H213204   5.496   3.761   5.090
 4400TIP3   OH213205   4.847   0.743   3.824
 4400TIP3    H113206   4.933   0.740   3.866
 4400TIP3    H213207   4.790   0.694   3.883
 4401TIP3   OH213208   4.270   2.328   3.882
 4401TIP3    H113209   4.288   2.399   3.820
 4401TIP3    H213210   4.303   2.249   3.838
 4402TIP3   OH213211   2.832   1.376   4.394
 4402TIP3    H113212   2.782   1.301   4.425
 4402TIP3    H213213   2.922   1.358   4.420
 4403TIP3   OH213214   5.476   3.271   3.249
 4403TIP3    H113215   5.450   3.287   3.158
 4403TIP3    H213216   5.571   3.261   3.246
 4404TIP3   OH213217   4.151   5.672   2.315
 4404TIP3    H113218   4.208   5.603   2.349
 4404TIP3    H213219   4.200   5.711   2.243
 4405TIP3   OH213220   3.328   5.104   2.098
 4405TIP3    H113221   3.353   5.013   2.118
 4405TIP3    H213222   3.334   5.149   2.183
 4406TIP3   OH213223   1.982   1.858   1.668
 4406TIP3    H113224   2.051   1.903   1.619
 4406TIP3    H213225   1.971   1.912   1.747
 4407TIP3   OH213226   5.914   4.172   1.693
 4407TIP3    H113227   6.006   4.152   1.713
 4407TIP3    H213228   5.901   4.136   1.605
 4408TIP3   OH213229   5.354   0.430   3.927
 4408TIP3    H113230   5.396   0.465   3.848
 4408TIP3    H213231   5.425   0.420   3.990
 4409TIP3   OH213232   4.163   4.239   0.802
 4409TIP3    H113233   4.085   4.217   0.852
 4409TIP3    H213234   4.181   4.161   0.749
 4410TIP3   OH213235   3.922   2.458   1.798
 4410TIP3    H113236   3.976   2.487   1.725
 4410TIP3    H213237   3.976   2.474   1.876
 4411TIP3   OH213238   4.313   5.915   0.158
 4411TIP3    H113239   4.368   5.887   0.085
 4411TIP3    H213240   4.235   5.952   0.117
 4412TIP3   OH213241   1.053   1.252   2.289
 4412TIP3    H113242   0.980   1.190   2.285
 4412TIP3    H213243   1.063   1.283   2.199
 4413TIP3   OH213244   3.315   0.799   4.145
 4413TIP3    H113245   3.384   0.805   4.211
 4413TIP3    H213246   3.245   0.750   4.188
 4414TIP3   OH213247   3.682   4.824   1.356
 4414TIP3    H113248   3.715   4.743   1.318
 4414TIP3    H213249   3.713   4.893   1.296
 4415TIP3   OH213250   6.043   1.342   0.081
 4415TIP3    H113251   6.083   1.279   0.140
 4415TIP3    H213252   6.116   1.375   0.028
 4416TIP3   OH213253   2.008   0.269   4.543
 4416TIP3    H113254   2.071   0.207   4.506
 4416TIP3    H213255   2.062   0.334   4.588
 4417TIP3   OH213256   5.965   3.306   4.694
 4417TIP3    H113257   5.893   3.242   4.694
 4417TIP3    H213258   5.923   3.388   4.721
 4418TIP3   OH213259   1.332   0.923   3.176
 4418TIP3    H113260   1.295   0.835   3.171
 4418TIP3    H213261   1.353   0.946   3.085
 4419TIP3   OH213262   0.382   5.648   3.157
 4419TIP3    H113263   0.421   5.626   3.242
 4419TIP3    H213264   0.323   5.720   3.176
 4420TIP3   OH213265   0.736   0.008   1.802
 4420TIP3    H113266   0.781  -0.021   1.882
 4420TIP3    H213267   0.679   0.079   1.831
 4421TIP3   OH213268   4.254   4.767   0.634
 4421TIP3    H113269   4.171   4.725   0.611
 4421TIP3    H213270   4.289   4.715   0.706
 4422TIP3   OH213271   4.892   2.970   3.976
 4422TIP3    H113272   4.929   2.928   4.054
 4422TIP3    H213273   4.947   2.939   3.904
 4423TIP3   OH213274   0.557   1.235   1.150
 4423TIP3    H113275   0.507   1.209   1.073
 4423TIP3    H213276   0.574   1.153   1.197
 4424TIP3   OH213277   5.461   4.523   2.909
 4424TIP3    H113278   5.514   4.452   2.945
 4424TIP3    H213279   5.525   4.590   2.885
 4425TIP3   OH213280   5.393   3.107   0.608
 4425TIP3    H113281   5.365   3.147   0.690
 4425TIP3    H213282   5.327   3.135   0.544
 4426TIP3   OH213283   0.805   1.414   4.778
 4426TIP3    H113284   0.793   1.357   4.702
 4426TIP3    H213285   0.754   1.374   4.847
 4427TIP3   OH213286   2.577   4.610   0.109
 4427TIP3    H113287   2.580   4.650   0.196
 4427TIP3    H213288   2.500   4.553   0.112
 4428TIP3   OH213289   5.467   1.173   2.648
 4428TIP3    H113290   5.377   1.185   2.617
 4428TIP3    H213291   5.506   1.261   2.644
 4429TIP3   OH213292   3.882   2.345   3.445
 4429TIP3    H113293   3.874   2.404   3.371
 4429TIP3    H213294   3.796   2.346   3.486
 4430TIP3   OH213295   1.760   3.577   3.295
 4430TIP3    H113296   1.677   3.605   3.255
 4430TIP3    H213297   1.813   3.547   3.221
 4431TIP3   OH213298   1.069   3.360   5.004
 4431TIP3    H113299   1.087   3.399   4.919
 4431TIP3    H213300   0.994   3.410   5.038
 4432TIP3   OH213301   2.391   1.251   3.567
 4432TIP3    H113302   2.344   1.326   3.605
 4432TIP3    H213303   2.376   1.258   3.473
 4433TIP3   OH213304   2.453   5.382   1.275
 4433TIP3    H113305   2.372   5.341   1.305
 4433TIP3    H213306   2.514   5.372   1.349
 4434TIP3   OH213307   2.538   1.202   4.099
 4434TIP3    H113308   2.450   1.168   4.083
 4434TIP3    H213309   2.558   1.177   4.189
 4435TIP3   OH213310   2.073   2.083   2.202
 4435TIP3    H113311   2.090   2.127   2.118
 4435TIP3    H213312   2.156   2.041   2.224
 4436TIP3   OH213313   5.244   5.816   2.133
 4436TIP3    H113314   5.214   5.904   2.112
 4436TIP3    H213315   5.246   5.771   2.048
 4437TIP3   OH213316   5.668   2.748   2.801
 4437TIP3    H113317   5.745   2.703   2.764
 4437TIP3    H213318   5.596   2.687   2.786
 4438TIP3   OH213319   5.394   1.884   2.502
 4438TIP3    H113320   5.362   1.944   2.434
 4438TIP3    H213321   5.465   1.836   2.459
 4439TIP3   OH213322   5.278   4.872   3.031
 4439TIP3    H113323   5.207   4.915   3.079
 4439TIP3    H213324   5.240   4.791   2.999
 4440TIP3   OH213325   6.259   3.400   1.874
 4440TIP3    H113326   6.209   3.418   1.954
 4440TIP3    H213327   6.218   3.455   1.807
 4441TIP3   OH213328   2.080   3.601   2.778
 4441TIP3    H113329   2.074   3.649   2.696
 4441TIP3    H213330   1.995   3.612   2.819
 4442TIP3   OH213331   6.171   4.209   1.251
 4442TIP3    H113332   6.150   4.222   1.344
 4442TIP3    H213333   6.142   4.289   1.208
 4443TIP3   OH213334   0.051   1.517   1.029
 4443TIP3    H113335  -0.038   1.527   0.996
 4443TIP3    H213336   0.052   1.568   1.110
 4444TIP3   OH213337   2.424   2.954   0.922
 4444TIP3    H113338   2.414   2.872   0.874
 4444TIP3    H213339   2.337   2.972   0.957
 4445TIP3   OH213340   5.611   0.726   0.910
 4445TIP3    H113341   5.560   0.800   0.943
 4445TIP3    H213342   5.701   0.745   0.938
 4446TIP3   OH213343   1.855   0.059   3.045
 4446TIP3    H113344   1.794   0.120   3.087
 4446TIP3    H213345   1.838   0.068   2.952
 4447TIP3   OH213346   3.058   5.299   2.459
 4447TIP3    H113347   3.067   5.322   2.552
 4447TIP3    H213348   3.119   5.357   2.414
 4448TIP3   OH213349   1.894   3.461   4.499
 4448TIP3    H113350   1.865   3.370   4.503
 4448TIP3    H213351   1.984   3.457   4.467
 4449TIP3   OH213352   4.557   4.828   4.342
 4449TIP3    H113353   4.482   4.769   4.339
 4449TIP3    H213354   4.630   4.772   4.369
 4450TIP3   OH213355   2.993   2.960   1.653
 4450TIP3    H113356   2.979   2.986   1.562
 4450TIP3    H213357   2.919   2.996   1.701
 4451TIP3   OH213358   3.708   0.543   4.361
 4451TIP3    H113359   3.708   0.465   4.305
 4451TIP3    H213360   3.784   0.593   4.332
 4452TIP3   OH213361   4.557   1.550   2.181
 4452TIP3    H113362   4.504   1.582   2.108
 4452TIP3    H213363   4.630   1.504   2.139
 4453TIP3   OH213364   5.828   3.987   2.540
 4453TIP3    H113365   5.802   4.039   2.463
 4453TIP3    H213366   5.786   3.902   2.527
 4454TIP3   OH213367   4.237   5.604   4.739
 4454TIP3    H113368   4.221   5.561   4.656
 4454TIP3    H213369   4.314   5.659   4.723
 4455TIP3   OH213370   1.849   3.844   0.603
 4455TIP3    H113371   1.851   3.813   0.694
 4455TIP3    H213372   1.861   3.939   0.611
 4456TIP3   OH213373   6.329   3.563   0.387
 4456TIP3    H113374   6.306   3.514   0.466
 4456TIP3    H213375   6.260   3.542   0.325
 4457TIP3   OH213376   0.091   5.364   1.247
 4457TIP3    H113377   0.019   5.306   1.272
 4457TIP3    H213378   0.170   5.316   1.273
 4458TIP3   OH213379   3.324   2.974   4.717
 4458TIP3    H113380   3.351   3.051   4.766
 4458TIP3    H213381   3.246   3.002   4.669
 4459TIP3   OH213382   3.123   3.297   2.767
 4459TIP3    H113383   3.185   3.334   2.830
 4459TIP3    H213384   3.075   3.231   2.817
 4460TIP3   OH213385   0.339   2.003   1.454
 4460TIP3    H113386   0.356   2.011   1.360
 4460TIP3    H213387   0.361   2.089   1.489
 4461TIP3   OH213388   3.714   4.579   3.560
 4461TIP3    H113389   3.766   4.501   3.576
 4461TIP3    H213390   3.702   4.581   3.465
 4462TIP3   OH213391   4.962   2.295   4.595
 4462TIP3    H113392   5.053   2.265   4.601
 4462TIP3    H213393   4.910   2.223   4.631
 4463TIP3   OH213394   0.338   3.552   1.179
 4463TIP3    H113395   0.321   3.461   1.152
 4463TIP3    H213396   0.349   3.599   1.097
 4464TIP3   OH213397   6.017   3.737   3.449
 4464TIP3    H113398   6.021   3.830   3.473
 4464TIP3    H213399   5.927   3.711   3.468
 4465TIP3   OH213400   6.348   2.652   1.239
 4465TIP3    H113401   6.359   2.562   1.208
 4465TIP3    H213402   6.355   2.645   1.334
 4466TIP3   OH213403   3.873   3.393   2.469
 4466TIP3    H113404   3.949   3.337   2.455
 4466TIP3    H213405   3.801   3.347   2.427
 4467TIP3   OH213406   0.962   0.846   0.439
 4467TIP3    H113407   0.943   0.847   0.533
 4467TIP3    H213408   1.006   0.763   0.424
 4468TIP3   OH213409   0.854   4.237   5.113
 4468TIP3    H113410   0.781   4.298   5.101
 4468TIP3    H213411   0.901   4.271   5.189
 4469TIP3   OH213412   5.062   0.412   2.740
 4469TIP3    H113413   5.149   0.440   2.710
 4469TIP3    H213414   5.078   0.366   2.822
 4470TIP3   OH213415   1.114   4.367   5.008
 4470TIP3    H113416   1.080   4.278   5.001
 4470TIP3    H213417   1.127   4.381   5.102
 4471TIP3   OH213418   2.464   4.644   2.732
 4471TIP3    H113419   2.375   4.677   2.724
 4471TIP3    H213420   2.469   4.608   2.821
 4472TIP3   OH213421   6.096   3.675   1.938
 4472TIP3    H113422   6.178   3.661   1.985
 4472TIP3    H213423   6.034   3.615   1.979
 4473TIP3   OH213424   4.619   2.194   3.909
 4473TIP3    H113425   4.538   2.150   3.886
 4473TIP3    H213426   4.620   2.272   3.853
 4474TIP3   OH213427   2.623   5.807   0.489
 4474TIP3    H113428   2.621   5.827   0.582
 4474TIP3    H213429   2.698   5.857   0.455
 4475TIP3   OH213430   3.349   2.149   4.524
 4475TIP3    H113431   3.286   2.144   4.596
 4475TIP3    H213432   3.393   2.064   4.524
 4476TIP3   OH213433   5.918   5.662   4.765
 4476TIP3    H113434   5.938   5.573   4.738
 4476TIP3    H213435   5.826   5.675   4.743
 4477TIP3   OH213436   5.518   5.060   0.966
 4477TIP3    H113437   5.562   5.096   0.889
 4477TIP3    H213438   5.446   5.122   0.983
 4478TIP3   OH213439   5.794   4.063   4.686
 4478TIP3    H113440   5.832   4.029   4.605
 4478TIP3    H213441   5.857   4.129   4.717
 4479TIP3   OH213442   4.753   3.446   5.156
 4479TIP3    H113443   4.836   3.398   5.153
 4479TIP3    H213444   4.744   3.472   5.248
 4480TIP3   OH213445   2.304   4.679   0.794
 4480TIP3    H113446   2.264   4.697   0.709
 4480TIP3    H213447   2.305   4.764   0.839
 4481TIP3   OH213448   1.120   3.308   3.278
 4481TIP3    H113449   1.084   3.303   3.367
 4481TIP3    H213450   1.078   3.385   3.239
 4482TIP3   OH213451   3.810   2.084   0.221
 4482TIP3    H113452   3.794   1.998   0.182
 4482TIP3    H213453   3.873   2.126   0.163
 4483TIP3   OH213454   0.020   1.072   1.002
 4483TIP3    H113455   0.045   0.991   0.957
 4483TIP3    H213456  -0.010   1.130   0.932
 4484TIP3   OH213457   5.170   1.836   2.676
 4484TIP3    H113458   5.095   1.794   2.634
 4484TIP3    H213459   5.238   1.838   2.609
 4485TIP3   OH213460   5.422   2.197   0.777
 4485TIP3    H113461   5.365   2.122   0.790
 4485TIP3    H213462   5.462   2.183   0.691
 4486TIP3   OH213463   4.415   0.765   1.477
 4486TIP3    H113464   4.424   0.678   1.439
 4486TIP3    H213465   4.396   0.750   1.569
 4487TIP3   OH213466   3.313   1.708   2.480
 4487TIP3    H113467   3.244   1.752   2.430
 4487TIP3    H213468   3.387   1.704   2.419
 4488TIP3   OH213469   3.967   2.400   2.233
 4488TIP3    H113470   3.934   2.311   2.221
 4488TIP3    H213471   3.975   2.410   2.328
 4489TIP3   OH213472   3.502   5.140   3.944
 4489TIP3    H113473   3.504   5.155   4.039
 4489TIP3    H213474   3.474   5.049   3.935
 4490TIP3   OH213475   3.005   3.201   3.789
 4490TIP3    H113476   2.933   3.144   3.763
 4490TIP3    H213477   3.077   3.140   3.809
 4491TIP3   OH213478   0.227   1.859   1.921
 4491TIP3    H113479   0.244   1.767   1.902
 4491TIP3    H213480   0.259   1.873   2.010
 4492TIP3   OH213481   6.050   0.099   0.710
 4492TIP3    H113482   5.979   0.154   0.741
 4492TIP3    H213483   6.009   0.014   0.692
 4493TIP3   OH213484   3.551   3.977   4.848
 4493TIP3    H113485   3.522   3.903   4.901
 4493TIP3    H213486   3.624   4.015   4.897
 4494TIP3   OH213487   2.990   5.777   3.179
 4494TIP3    H113488   3.012   5.806   3.091
 4494TIP3    H213489   3.028   5.845   3.236
 4495TIP3   OH213490   3.843   0.811   1.349
 4495TIP3    H113491   3.835   0.826   1.255
 4495TIP3    H213492   3.755   0.827   1.384
 4496TIP3   OH213493   5.719   1.170   0.660
 4496TIP3    H113494   5.635   1.202   0.628
 4496TIP3    H213495   5.755   1.242   0.711
 4497TIP3   OH213496   0.556   4.833   2.308
 4497TIP3    H113497   0.502   4.871   2.239
 4497TIP3    H213498   0.632   4.796   2.262
 4498TIP3   OH213499   2.254   3.602   3.891
 4498TIP3    H113500   2.327   3.651   3.853
 4498TIP3    H213501   2.241   3.528   3.832
 4499TIP3   OH213502   3.709   2.365   0.938
 4499TIP3    H113503   3.753   2.445   0.967
 4499TIP3    H213504   3.754   2.342   0.857
 4500TIP3   OH213505   6.256   4.270   3.838
 4500TIP3    H113506   6.191   4.325   3.881
 4500TIP3    H213507   6.245   4.289   3.745
 4501TIP3   OH213508   5.494   5.493   4.040
 4501TIP3    H113509   5.532   5.576   4.012
 4501TIP3    H213510   5.430   5.518   4.107
 4502TIP3   OH213511   0.746   5.776   1.889
 4502TIP3    H113512   0.748   5.869   1.911
 4502TIP3    H213513   0.684   5.738   1.951
 4503TIP3   OH213514   1.311   4.821   2.763
 4503TIP3    H113515   1.240   4.816   2.699
 4503TIP3    H213516   1.343   4.731   2.770
 4504TIP3   OH213517   4.660   1.571   1.073
 4504TIP3    H113518   4.612   1.500   1.031
 4504TIP3    H213519   4.684   1.537   1.158
 4505TIP3   OH213520   4.624   0.998   2.334
 4505TIP3    H113521   4.677   1.072   2.305
 4505TIP3    H213522   4.687   0.936   2.371
 4506TIP3   OH213523   4.777   1.608   1.314
 4506TIP3    H113524   4.755   1.624   1.406
 4506TIP3    H213525   4.862   1.651   1.302
 4507TIP3   OH213526   1.990   2.569   1.301
 4507TIP3    H113527   1.998   2.664   1.309
 4507TIP3    H213528   2.045   2.547   1.226
 4508TIP3   OH213529   4.694   1.032   0.831
 4508TIP3    H113530   4.787   1.049   0.811
 4508TIP3    H213531   4.646   1.093   0.775
 4509TIP3   OH213532   3.957   2.702   2.321
 4509TIP3    H113533   4.044   2.736   2.341
 4509TIP3    H213534   3.953   2.702   2.226
 4510TIP3   OH213535   3.274   4.895   0.827
 4510TIP3    H113536   3.324   4.905   0.908
 4510TIP3    H213537   3.340   4.895   0.758
 4511TIP3   OH213538   6.251   0.680   0.172
 4511TIP3    H113539   6.180   0.644   0.120
 4511TIP3    H213540   6.331   0.660   0.123
 4512TIP3   OH213541   5.837   1.917   3.905
 4512TIP3    H113542   5.901   1.850   3.931
 4512TIP3    H213543   5.787   1.934   3.985
 4513TIP3   OH213544   2.839   0.782   1.907
 4513TIP3    H113545   2.924   0.741   1.926
 4513TIP3    H213546   2.785   0.759   1.982
 4514TIP3   OH213547   4.959   1.446   1.923
 4514TIP3    H113548   4.921   1.483   1.843
 4514TIP3    H213549   5.031   1.391   1.892
 4515TIP3   OH213550   2.077   1.841   3.351
 4515TIP3    H113551   2.096   1.786   3.276
 4515TIP3    H213552   1.996   1.804   3.388
 4516TIP3   OH213553   3.048   1.985   1.582
 4516TIP3    H113554   3.052   2.062   1.639
 4516TIP3    H213555   3.134   1.943   1.591
 4517TIP3   OH213556   2.344   3.316   1.199
 4517TIP3    H113557   2.387   3.312   1.114
 4517TIP3    H213558   2.284   3.242   1.200
 4518TIP3   OH213559   1.798   2.307   0.289
 4518TIP3    H113560   1.776   2.326   0.198
 4518TIP3    H213561   1.746   2.369   0.340
 4519TIP3   OH213562   5.882   2.629   2.696
 4519TIP3    H113563   5.949   2.656   2.758
 4519TIP3    H213564   5.906   2.540   2.671
 4520TIP3   OH213565   4.147   0.808   3.519
 4520TIP3    H113566   4.052   0.802   3.514
 4520TIP3    H213567   4.167   0.899   3.498
 4521TIP3   OH213568   1.709   1.479   4.097
 4521TIP3    H113569   1.688   1.516   4.012
 4521TIP3    H213570   1.625   1.448   4.132
 4522TIP3   OH213571   1.380   5.760   4.918
 4522TIP3    H113572   1.306   5.715   4.879
 4522TIP3    H213573   1.431   5.792   4.843
 4523TIP3   OH213574   2.437   3.752   0.644
 4523TIP3    H113575   2.378   3.694   0.596
 4523TIP3    H213576   2.519   3.703   0.648
 4524TIP3   OH213577   5.592   0.552   3.336
 4524TIP3    H113578   5.609   0.492   3.264
 4524TIP3    H213579   5.499   0.539   3.357
 4525TIP3   OH213580   5.884   4.943   2.729
 4525TIP3    H113581   5.877   5.014   2.665
 4525TIP3    H213582   5.841   4.977   2.807
 4526TIP3   OH213583   0.868   0.014   4.049
 4526TIP3    H113584   0.809   0.060   3.989
 4526TIP3    H213585   0.935  -0.024   3.993
 4527TIP3   OH213586   2.393   4.202   0.541
 4527TIP3    H113587   2.404   4.244   0.627
 4527TIP3    H213588   2.299   4.194   0.530
 4528TIP3   OH213589   6.007   2.184   3.489
 4528TIP3    H113590   6.052   2.168   3.572
 4528TIP3    H213591   5.939   2.116   3.486
 4529TIP3   OH213592   3.545   0.831   2.050
 4529TIP3    H113593   3.612   0.899   2.056
 4529TIP3    H213594   3.587   0.753   2.085
 4530TIP3   OH213595   3.643   5.931   2.732
 4530TIP3    H113596   3.565   5.946   2.678
 4530TIP3    H213597   3.654   6.014   2.779
 4531TIP3   OH213598   5.058   0.719   0.704
 4531TIP3    H113599   5.003   0.775   0.649
 4531TIP3    H213600   5.069   0.770   0.785
 4532TIP3   OH213601   0.787   1.378   1.591
 4532TIP3    H113602   0.725   1.318   1.631
 4532TIP3    H213603   0.817   1.332   1.512
 4533TIP3   OH213604   0.417   2.354   2.813
 4533TIP3    H113605   0.466   2.272   2.811
 4533TIP3    H213606   0.330   2.329   2.845
 4534TIP3   OH213607   2.508   0.281   4.948
 4534TIP3    H113608   2.596   0.243   4.946
 4534TIP3    H213609   2.458   0.222   5.005
 4535TIP3   OH213610   4.868   2.010   2.926
 4535TIP3    H113611   4.834   1.921   2.911
 4535TIP3    H213612   4.862   2.052   2.840
 4536TIP3   OH213613   3.090   4.406   3.471
 4536TIP3    H113614   3.008   4.449   3.446
 4536TIP3    H213615   3.076   4.314   3.448
 4537TIP3   OH213616   5.883   1.649   3.151
 4537TIP3    H113617   5.810   1.592   3.175
 4537TIP3    H213618   5.888   1.643   3.055
 4538TIP3   OH213619   2.573   0.753   1.742
 4538TIP3    H113620   2.549   0.755   1.650
 4538TIP3    H213621   2.490   0.754   1.790
 4539TIP3   OH213622   5.822   0.482   3.520
 4539TIP3    H113623   5.814   0.461   3.613
 4539TIP3    H213624   5.744   0.533   3.499
 4540TIP3   OH213625   0.723   4.087   0.614
 4540TIP3    H113626   0.716   4.074   0.708
 4540TIP3    H213627   0.814   4.065   0.594
 4541TIP3   OH213628   6.365   5.812   3.723
 4541TIP3    H113629   6.457   5.804   3.745
 4541TIP3    H213630   6.327   5.859   3.798
 4542TIP3   OH213631   5.488   3.944   2.302
 4542TIP3    H113632   5.513   3.851   2.303
 4542TIP3    H213633   5.565   3.990   2.270
 4543TIP3   OH213634   3.357   0.612   1.166
 4543TIP3    H113635   3.453   0.603   1.171
 4543TIP3    H213636   3.329   0.621   1.257
 4544TIP3   OH213637   4.692   2.506   0.583
 4544TIP3    H113638   4.602   2.525   0.607
 4544TIP3    H213639   4.709   2.561   0.506
 4545TIP3   OH213640   4.367   2.106   3.051
 4545TIP3    H113641   4.419   2.129   2.974
 4545TIP3    H213642   4.383   2.012   3.064
 4546TIP3   OH213643   6.206   3.766   2.755
 4546TIP3    H113644   6.162   3.846   2.727
 4546TIP3    H213645   6.294   3.794   2.778
 4547TIP3   OH213646   1.333   0.352   2.234
 4547TIP3    H113647   1.261   0.415   2.242
 4547TIP3    H213648   1.291   0.269   2.213
 4548TIP3   OH213649   5.841   0.221   0.895
 4548TIP3    H113650   5.759   0.206   0.848
 4548TIP3    H213651   5.862   0.313   0.879
 4549TIP3   OH213652   2.688   3.667   3.073
 4549TIP3    H113653   2.697   3.733   3.143
 4549TIP3    H213654   2.778   3.638   3.057
 4550TIP3   OH213655   2.944   3.998   1.192
 4550TIP3    H113656   2.947   3.911   1.232
 4550TIP3    H213657   3.036   4.022   1.180
 4551TIP3   OH213658   3.016   1.813   1.985
 4551TIP3    H113659   2.975   1.757   1.919
 4551TIP3    H213660   3.049   1.888   1.935
 4552TIP3   OH213661   4.090   1.054   0.691
 4552TIP3    H113662   4.110   1.029   0.601
 4552TIP3    H213663   4.174   1.085   0.726
 4553TIP3   OH213664   0.750   2.683   4.421
 4553TIP3    H113665   0.673   2.671   4.365
 4553TIP3    H213666   0.734   2.624   4.495
 4554TIP3   OH213667   1.405   3.972   4.993
 4554TIP3    H113668   1.311   3.957   4.993
 4554TIP3    H213669   1.439   3.918   4.922
 4555TIP3   OH213670   4.781   1.964   2.660
 4555TIP3    H113671   4.721   2.016   2.607
 4555TIP3    H213672   4.724   1.906   2.711
 4556TIP3   OH213673   2.167   2.623   0.277
 4556TIP3    H113674   2.229   2.696   0.284
 4556TIP3    H213675   2.223   2.545   0.276
 4557TIP3   OH213676   1.869   3.722   4.318
 4557TIP3    H113677   1.846   3.675   4.238
 4557TIP3    H213678   1.813   3.682   4.385
 4558TIP3   OH213679   0.120   2.849   3.009
 4558TIP3    H113680   0.148   2.903   3.084
 4558TIP3    H213681   0.201   2.811   2.976
 4559TIP3   OH213682   2.170   0.008   2.291
 4559TIP3    H113683   2.224   0.085   2.309
 4559TIP3    H213684   2.101   0.040   2.232
 4560TIP3   OH213685   5.123   4.016   4.542
 4560TIP3    H113686   5.159   3.939   4.587
 4560TIP3    H213687   5.103   3.986   4.454
 4561TIP3   OH213688   3.475   4.483   5.004
 4561TIP3    H113689   3.530   4.561   5.016
 4561TIP3    H213690   3.448   4.459   5.092
 4562TIP3   OH213691   4.191   3.066   2.712
 4562TIP3    H113692   4.102   3.084   2.744
 4562TIP3    H213693   4.229   3.011   2.780
 4563TIP3   OH213694   0.226   4.413   3.657
 4563TIP3    H113695   0.309   4.419   3.610
 4563TIP3    H213696   0.168   4.475   3.611
 4564TIP3   OH213697   2.320   5.672   2.554
 4564TIP3    H113698   2.396   5.684   2.498
 4564TIP3    H213699   2.274   5.597   2.514
 4565TIP3   OH213700   0.917   5.315   5.095
 4565TIP3    H113701   0.834   5.326   5.142
 4565TIP3    H213702   0.982   5.308   5.165
 4566TIP3   OH213703   3.017   1.412   0.662
 4566TIP3    H113704   3.036   1.391   0.570
 4566TIP3    H213705   2.949   1.350   0.688
 4567TIP3   OH213706   6.336   0.206   4.201
 4567TIP3    H113707   6.426   0.204   4.170
 4567TIP3    H213708   6.292   0.135   4.154
 4568TIP3   OH213709   5.608   0.070   1.119
 4568TIP3    H113710   5.551   0.070   1.042
 4568TIP3    H213711   5.634   0.162   1.130
 4569TIP3   OH213712   3.946   5.222   0.929
 4569TIP3    H113713   3.908   5.140   0.962
 4569TIP3    H213714   3.968   5.271   1.008
 4570TIP3   OH213715   3.073   2.854   3.907
 4570TIP3    H113716   3.043   2.891   3.990
 4570TIP3    H213717   3.144   2.912   3.879
 4571TIP3   OH213718   5.231   0.460   1.516
 4571TIP3    H113719   5.181   0.535   1.484
 4571TIP3    H213720   5.307   0.454   1.457
 4572TIP3   OH213721   2.982   4.745   4.309
 4572TIP3    H113722   3.069   4.719   4.279
 4572TIP3    H213723   2.926   4.671   4.285
 4573TIP3   OH213724   1.902   1.527   4.304
 4573TIP3    H113725   1.842   1.537   4.230
 4573TIP3    H213726   1.906   1.433   4.319
 4574TIP3   OH213727   2.831   0.864   4.389
 4574TIP3    H113728   2.856   0.938   4.333
 4574TIP3    H213729   2.843   0.895   4.478
 4575TIP3   OH213730   6.264   0.755   2.051
 4575TIP3    H113731   6.323   0.739   2.125
 4575TIP3    H213732   6.312   0.725   1.974
 4576TIP3   OH213733   4.206   4.121   3.314
 4576TIP3    H113734   4.272   4.069   3.268
 4576TIP3    H213735   4.133   4.127   3.253
 4577TIP3   OH213736   1.968   1.635   2.024
 4577TIP3    H113737   2.041   1.637   1.962
 4577TIP3    H213738   1.907   1.701   1.991
 4578TIP3   OH213739   3.258   3.102   0.836
 4578TIP3    H113740   3.286   3.178   0.786
 4578TIP3    H213741   3.191   3.060   0.782
 4579TIP3   OH213742   4.496   4.149   0.937
 4579TIP3    H113743   4.462   4.200   0.864
 4579TIP3    H213744   4.591   4.156   0.928
 4580TIP3   OH213745   4.288   0.151   0.759
 4580TIP3    H113746   4.272   0.240   0.790
 4580TIP3    H213747   4.207   0.125   0.716
 4581TIP3   OH213748   2.156   3.292   4.498
 4581TIP3    H113749   2.152   3.208   4.544
 4581TIP3    H213750   2.234   3.335   4.533
 4582TIP3   OH213751   2.886   1.904   5.080
 4582TIP3    H113752   2.881   1.854   5.161
 4582TIP3    H213753   2.799   1.941   5.069
 4583TIP3   OH213754   4.331   5.686   1.281
 4583TIP3    H113755   4.356   5.641   1.362
 4583TIP3    H213756   4.271   5.626   1.238
 4584TIP3   OH213757   1.843   4.928   4.910
 4584TIP3    H113758   1.765   4.950   4.963
 4584TIP3    H213759   1.917   4.948   4.968
 4585TIP3   OH213760   5.153   3.256   1.842
 4585TIP3    H113761   5.228   3.314   1.829
 4585TIP3    H213762   5.173   3.179   1.788
 4586TIP3   OH213763   1.753   2.615   3.997
 4586TIP3    H113764   1.846   2.640   3.992
 4586TIP3    H213765   1.741   2.555   3.924
 4587TIP3   OH213766   4.838   4.436   3.418
 4587TIP3    H113767   4.768   4.494   3.389
 4587TIP3    H213768   4.813   4.410   3.507
 4588TIP3   OH213769   2.902   5.870   5.001
 4588TIP3    H113770   2.818   5.903   4.968
 4588TIP3    H213771   2.967   5.907   4.942
 4589TIP3   OH213772   3.575   5.963   1.517
 4589TIP3    H113773   3.603   6.037   1.463
 4589TIP3    H213774   3.616   5.887   1.476
 4590TIP3   OH213775   6.119   4.465   3.988
 4590TIP3    H113776   6.080   4.527   3.925
 4590TIP3    H213777   6.121   4.513   4.071
 4591TIP3   OH213778   4.972   3.729   4.942
 4591TIP3    H113779   4.894   3.747   4.889
 4591TIP3    H213780   4.993   3.814   4.982
 4592TIP3   OH213781   3.970   4.362   5.112
 4592TIP3    H113782   3.897   4.424   5.109
 4592TIP3    H213783   4.010   4.368   5.025
 4593TIP3   OH213784   1.093   5.167   4.003
 4593TIP3    H113785   1.065   5.180   4.094
 4593TIP3    H213786   1.173   5.115   4.010
 4594TIP3   OH213787   4.339   3.263   0.231
 4594TIP3    H113788   4.382   3.191   0.184
 4594TIP3    H213789   4.336   3.234   0.322
 4595TIP3   OH213790   0.271   0.314   5.241
 4595TIP3    H113791   0.308   0.367   5.171
 4595TIP3    H213792   0.192   0.275   5.202
 4596TIP3   OH213793   3.967   4.405   4.559
 4596TIP3    H113794   3.966   4.501   4.562
 4596TIP3    H213795   4.050   4.384   4.516
 4597TIP3   OH213796   5.533   3.823   3.853
 4597TIP3    H113797   5.448   3.789   3.824
 4597TIP3    H213798   5.522   3.837   3.947
 4598TIP3   OH213799   1.916   2.986   4.363
 4598TIP3    H113800   1.842   2.933   4.392
 4598TIP3    H213801   1.911   2.983   4.267
 4599TIP3   OH213802   5.361   5.637   3.382
 4599TIP3    H113803   5.427   5.582   3.424
 4599TIP3    H213804   5.367   5.614   3.289
 4600TIP3   OH213805   4.986   2.194   3.085
 4600TIP3    H113806   5.055   2.218   3.023
 4600TIP3    H213807   4.945   2.116   3.047
 4601TIP3   OH213808   1.089   1.991   0.987
 4601TIP3    H113809   1.007   2.007   1.034
 4601TIP3    H213810   1.121   2.078   0.964
 4602TIP3   OH213811   4.348   1.154   0.688
 4602TIP3    H113812   4.429   1.204   0.698
 4602TIP3    H213813   4.377   1.066   0.663
 4603TIP3   OH213814   5.660   1.983   0.124
 4603TIP3    H113815   5.750   1.979   0.091
 4603TIP3    H213816   5.628   2.068   0.094
 4604TIP3   OH213817   2.347   3.087   1.856
 4604TIP3    H113818   2.279   3.109   1.919
 4604TIP3    H213819   2.393   3.169   1.840
 4605TIP3   OH213820   1.311   3.299   2.723
 4605TIP3    H113821   1.382   3.294   2.659
 4605TIP3    H213822   1.335   3.234   2.789
 4606TIP3   OH213823   2.135   1.930   4.420
 4606TIP3    H113824   2.043   1.920   4.442
 4606TIP3    H213825   2.152   2.024   4.429
 4607TIP3   OH213826   0.537   1.071   3.878
 4607TIP3    H113827   0.546   1.165   3.890
 4607TIP3    H213828   0.589   1.051   3.800
 4608TIP3   OH213829   1.784   1.541   1.723
 4608TIP3    H113830   1.751   1.451   1.719
 4608TIP3    H213831   1.805   1.554   1.815
 4609TIP3   OH213832   5.381   1.700   0.621
 4609TIP3    H113833   5.405   1.617   0.579
 4609TIP3    H213834   5.294   1.719   0.588
 4610TIP3   OH213835   3.636   5.977   3.826
 4610TIP3    H113836   3.620   5.942   3.914
 4610TIP3    H213837   3.731   5.980   3.819
 4611TIP3   OH213838   1.722   4.223   3.466
 4611TIP3    H113839   1.629   4.242   3.454
 4611TIP3    H213840   1.760   4.305   3.496
 4612TIP3   OH213841   5.731   4.372   1.066
 4612TIP3    H113842   5.643   4.383   1.099
 4612TIP3    H213843   5.724   4.392   0.972
 4613TIP3   OH213844   0.057   3.637   1.278
 4613TIP3    H113845   0.152   3.629   1.293
 4613TIP3    H213846   0.050   3.679   1.192
 4614TIP3   OH213847   0.125   1.187   0.084
 4614TIP3    H113848   0.179   1.220   0.013
 4614TIP3    H213849   0.109   1.095   0.062
 4615TIP3   OH213850   3.818   0.311   0.150
 4615TIP3    H113851   3.889   0.279   0.205
 4615TIP3    H213852   3.801   0.399   0.181
 4616TIP3   OH213853   5.281   4.357   3.258
 4616TIP3    H113854   5.341   4.362   3.333
 4616TIP3    H213855   5.310   4.280   3.209
 4617TIP3   OH213856   1.758   4.640   2.525
 4617TIP3    H113857   1.772   4.574   2.592
 4617TIP3    H213858   1.675   4.617   2.485
 4618TIP3   OH213859   3.584   3.864   0.451
 4618TIP3    H113860   3.652   3.826   0.507
 4618TIP3    H213861   3.630   3.896   0.374
 4619TIP3   OH213862   0.333   5.066   4.386
 4619TIP3    H113863   0.310   4.996   4.324
 4619TIP3    H213864   0.427   5.057   4.399
 4620TIP3   OH213865   6.024   0.112   3.185
 4620TIP3    H113866   6.027   0.149   3.274
 4620TIP3    H213867   6.110   0.133   3.148
 4621TIP3   OH213868   4.388   5.675   0.829
 4621TIP3    H113869   4.345   5.627   0.758
 4621TIP3    H213870   4.401   5.763   0.794
 4622TIP3   OH213871   0.320   1.507   0.134
 4622TIP3    H113872   0.376   1.579   0.107
 4622TIP3    H213873   0.336   1.497   0.228
 4623TIP3   OH213874   6.053   5.127   4.679
 4623TIP3    H113875   6.079   5.084   4.597
 4623TIP3    H213876   6.099   5.077   4.746
 4624TIP3   OH213877   0.451   5.761   5.195
 4624TIP3    H113878   0.412   5.783   5.110
 4624TIP3    H213879   0.545   5.763   5.179
 4625TIP3   OH213880   2.249   2.548   3.989
 4625TIP3    H113881   2.200   2.485   4.042
 4625TIP3    H213882   2.225   2.527   3.898
 4626TIP3   OH213883   4.448   3.629   0.275
 4626TIP3    H113884   4.492   3.545   0.262
 4626TIP3    H213885   4.468   3.680   0.197
 4627TIP3   OH213886   1.377   5.924   1.626
 4627TIP3    H113887   1.450   5.867   1.604
 4627TIP3    H213888   1.415   5.992   1.682
 4628TIP3   OH213889   2.075   4.270   4.308
 4628TIP3    H113890   2.132   4.307   4.240
 4628TIP3    H213891   2.001   4.233   4.260
 4629TIP3   OH213892   0.194   1.632   3.319
 4629TIP3    H113893   0.141   1.708   3.296
 4629TIP3    H213894   0.238   1.608   3.238
 4630TIP3   OH213895   0.002   4.750   4.841
 4630TIP3    H113896   0.079   4.803   4.864
 4630TIP3    H213897   0.039   4.673   4.799
 4631TIP3   OH213898   1.988   4.731   4.505
 4631TIP3    H113899   1.963   4.770   4.422
 4631TIP3    H213900   1.905   4.712   4.548
 4632TIP3   OH213901   3.064   4.441   1.226
 4632TIP3    H113902   3.105   4.497   1.293
 4632TIP3    H213903   3.003   4.499   1.181
 4633TIP3   OH213904   5.616   1.419   0.184
 4633TIP3    H113905   5.619   1.513   0.201
 4633TIP3    H213906   5.656   1.380   0.262
 4634TIP3   OH213907   0.057   2.272   0.060
 4634TIP3    H113908   0.017   2.359   0.059
 4634TIP3    H213909   0.151   2.288   0.047
 4635TIP3   OH213910   5.272   3.075   0.241
 4635TIP3    H113911   5.312   3.150   0.196
 4635TIP3    H213912   5.224   3.115   0.314
 4636TIP3   OH213913   4.882   2.290   0.029
 4636TIP3    H113914   4.863   2.371   0.076
 4636TIP3    H213915   4.909   2.229   0.097
 4637TIP3   OH213916   0.615   4.472   1.567
 4637TIP3    H113917   0.659   4.450   1.485
 4637TIP3    H213918   0.606   4.389   1.613
 4638TIP3   OH213919   0.348   2.427   4.144
 4638TIP3    H113920   0.395   2.510   4.140
 4638TIP3    H213921   0.346   2.396   4.054
 4639TIP3   OH213922   6.136   2.102   3.060
 4639TIP3    H113923   6.074   2.042   3.101
 4639TIP3    H213924   6.194   2.046   3.009
 4640TIP3   OH213925   3.329   5.686   1.620
 4640TIP3    H113926   3.367   5.631   1.551
 4640TIP3    H213927   3.387   5.762   1.625
 4641TIP3   OH213928   0.142   4.064   4.609
 4641TIP3    H113929   0.198   4.001   4.654
 4641TIP3    H213930   0.171   4.062   4.518
 4642TIP3   OH213931   4.774   4.260   2.355
 4642TIP3    H113932   4.752   4.224   2.441
 4642TIP3    H213933   4.773   4.355   2.368
 4643TIP3   OH213934   0.179   0.168   3.720
 4643TIP3    H113935   0.181   0.072   3.719
 4643TIP3    H213936   0.099   0.189   3.768
 4644TIP3   OH213937   3.324   1.795   2.754
 4644TIP3    H113938   3.324   1.814   2.660
 4644TIP3    H213939   3.380   1.717   2.762
 4645TIP3   OH213940   1.345   5.463   2.029
 4645TIP3    H113941   1.262   5.416   2.042
 4645TIP3    H213942   1.408   5.417   2.085
 4646TIP3   OH213943   3.346   1.870   1.314
 4646TIP3    H113944   3.431   1.905   1.286
 4646TIP3    H213945   3.353   1.865   1.410
 4647TIP3   OH213946   2.650   4.931   4.237
 4647TIP3    H113947   2.586   4.860   4.225
 4647TIP3    H213948   2.681   4.951   4.149
 4648TIP3   OH213949   0.432   5.994   0.868
 4648TIP3    H113950   0.501   5.937   0.901
 4648TIP3    H213951   0.451   6.004   0.775
 4649TIP3   OH213952   2.041   0.952   2.779
 4649TIP3    H113953   2.084   0.876   2.820
 4649TIP3    H213954   1.950   0.946   2.808
 4650TIP3   OH213955   3.719   4.762   4.891
 4650TIP3    H113956   3.776   4.801   4.825
 4650TIP3    H213957   3.648   4.722   4.841
 4651TIP3   OH213958   4.537   3.403   3.669
 4651TIP3    H113959   4.455   3.358   3.647
 4651TIP3    H213960   4.576   3.424   3.585
 4652TIP3   OH213961   5.002   2.411   4.264
 4652TIP3    H113962   4.918   2.433   4.222
 4652TIP3    H213963   4.978   2.361   4.341
 4653TIP3   OH213964   6.292   4.588   4.536
 4653TIP3    H113965   6.248   4.565   4.455
 4653TIP3    H213966   6.305   4.505   4.581
 4654TIP3   OH213967   1.173   4.754   3.973
 4654TIP3    H113968   1.206   4.842   3.989
 4654TIP3    H213969   1.176   4.743   3.878
 4655TIP3   OH213970   0.097   1.877   3.231
 4655TIP3    H113971   0.017   1.884   3.284
 4655TIP3    H213972   0.104   1.962   3.187
 4656TIP3   OH213973   1.566   3.679   1.559
 4656TIP3    H113974   1.613   3.699   1.639
 4656TIP3    H213975   1.629   3.634   1.503
 4657TIP3   OH213976   3.365   5.086   5.012
 4657TIP3    H113977   3.439   5.115   4.959
 4657TIP3    H213978   3.403   5.061   5.096
 4658TIP3   OH213979   2.037   4.101   2.110
 4658TIP3    H113980   2.080   4.058   2.036
 4658TIP3    H213981   2.035   4.194   2.087
 4659TIP3   OH213982   2.302   2.562   2.926
 4659TIP3    H113983   2.222   2.546   2.876
 4659TIP3    H213984   2.272   2.608   3.005
 4660TIP3   OH213985   1.218   2.954  -0.028
 4660TIP3    H113986   1.259   3.037  -0.003
 4660TIP3    H213987   1.202   2.909   0.055
 4661TIP3   OH213988   3.620   3.877   3.213
 4661TIP3    H113989   3.644   3.955   3.163
 4661TIP3    H213990   3.572   3.911   3.289
 4662TIP3   OH213991   3.246   1.128   2.440
 4662TIP3    H113992   3.295   1.193   2.490
 4662TIP3    H213993   3.303   1.051   2.436
 4663TIP3   OH213994   2.584   0.873   0.791
 4663TIP3    H113995   2.500   0.826   0.794
 4663TIP3    H213996   2.572   0.945   0.853
 4664TIP3   OH213997   5.544   0.581   4.906
 4664TIP3    H113998   5.600   0.568   4.982
 4664TIP3    H213999   5.561   0.505   4.850
 4665TIP3   OH214000   4.289   3.311   3.580
 4665TIP3    H114001   4.246   3.357   3.508
 4665TIP3    H214002   4.249   3.347   3.659
 4666TIP3   OH214003   5.972   5.925   3.874
 4666TIP3    H114004   5.935   5.951   3.790
 4666TIP3    H214005   6.059   5.963   3.875
 4667TIP3   OH214006   1.677   1.591   1.009
 4667TIP3    H114007   1.743   1.560   1.071
 4667TIP3    H214008   1.658   1.680   1.037
 4668TIP3   OH214009   2.732   3.944   4.457
 4668TIP3    H114010   2.769   4.032   4.445
 4668TIP3    H214011   2.680   3.950   4.537
 4669TIP3   OH214012   6.149   1.911   3.874
 4669TIP3    H114013   6.099   1.872   3.945
 4669TIP3    H214014   6.219   1.960   3.918
 4670TIP3   OH214015   1.702   3.661   4.560
 4670TIP3    H114016   1.759   3.586   4.545
 4670TIP3    H214017   1.614   3.629   4.539
 4671TIP3   OH214018   3.209   1.114   4.354
 4671TIP3    H114019   3.155   1.185   4.389
 4671TIP3    H214020   3.263   1.086   4.427
 4672TIP3   OH214021   4.408   1.788   0.455
 4672TIP3    H114022   4.373   1.861   0.403
 4672TIP3    H214023   4.398   1.711   0.398
 4673TIP3   OH214024   2.594   5.639   2.942
 4673TIP3    H114025   2.528   5.570   2.927
 4673TIP3    H214026   2.619   5.668   2.855
 4674TIP3   OH214027   3.238   2.357   3.852
 4674TIP3    H114028   3.180   2.354   3.776
 4674TIP3    H214029   3.248   2.450   3.870
 4675TIP3   OH214030   5.331   4.644   0.199
 4675TIP3    H114031   5.377   4.666   0.280
 4675TIP3    H214032   5.239   4.641   0.224
 4676TIP3   OH214033   4.955   4.538   0.620
 4676TIP3    H114034   4.926   4.512   0.707
 4676TIP3    H214035   4.965   4.633   0.625
 4677TIP3   OH214036   1.786   4.165   2.017
 4677TIP3    H114037   1.847   4.122   2.077
 4677TIP3    H214038   1.841   4.214   1.958
 4678TIP3   OH214039   1.305   5.176   3.476
 4678TIP3    H114040   1.372   5.110   3.495
 4678TIP3    H214041   1.234   5.157   3.538
 4679TIP3   OH214042   5.985   2.045   2.087
 4679TIP3    H114043   5.981   2.068   1.994
 4679TIP3    H214044   6.009   1.953   2.088
 4680TIP3   OH214045   4.311   0.338   0.486
 4680TIP3    H114046   4.323   0.254   0.531
 4680TIP3    H214047   4.324   0.317   0.394
 4681TIP3   OH214048   0.592   5.436   1.973
 4681TIP3    H114049   0.685   5.444   1.994
 4681TIP3    H214050   0.580   5.343   1.954
 4682TIP3   OH214051   4.756   2.881   3.514
 4682TIP3    H114052   4.763   2.974   3.535
 4682TIP3    H214053   4.841   2.844   3.538
 4683TIP3   OH214054   0.589   5.788   3.480
 4683TIP3    H114055   0.609   5.831   3.397
 4683TIP3    H214056   0.674   5.781   3.525
 4684TIP3   OH214057   3.267   1.828   1.593
 4684TIP3    H114058   3.280   1.832   1.687
 4684TIP3    H214059   3.272   1.734   1.572
 4685TIP3   OH214060   4.864   4.033   4.338
 4685TIP3    H114061   4.833   4.080   4.261
 4685TIP3    H214062   4.835   4.085   4.412
 4686TIP3   OH214063   0.774   0.723   4.605
 4686TIP3    H114064   0.722   0.714   4.685
 4686TIP3    H214065   0.817   0.808   4.614
 4687TIP3   OH214066   2.288   1.417   3.766
 4687TIP3    H114067   2.204   1.451   3.736
 4687TIP3    H214068   2.275   1.399   3.859
 4688TIP3   OH214069   5.723   5.643   4.297
 4688TIP3    H114070   5.770   5.568   4.334
 4688TIP3    H214071   5.774   5.719   4.324
 4689TIP3   OH214072   3.715   3.412   1.665
 4689TIP3    H114073   3.803   3.381   1.646
 4689TIP3    H214074   3.680   3.441   1.580
 4690TIP3   OH214075   0.195   2.764   1.706
 4690TIP3    H114076   0.157   2.727   1.625
 4690TIP3    H214077   0.269   2.816   1.676
 4691TIP3   OH214078   3.519   5.274   1.040
 4691TIP3    H114079   3.518   5.366   1.015
 4691TIP3    H214080   3.430   5.255   1.069
 4692TIP3   OH214081   4.883   4.147   0.493
 4692TIP3    H114082   4.903   4.175   0.582
 4692TIP3    H214083   4.968   4.143   0.449
 4693TIP3   OH214084   0.629   3.990   4.145
 4693TIP3    H114085   0.664   4.051   4.210
 4693TIP3    H214086   0.673   4.013   4.064
 4694TIP3   OH214087   3.288   1.570   1.539
 4694TIP3    H114088   3.222   1.505   1.564
 4694TIP3    H214089   3.324   1.537   1.457
 4695TIP3   OH214090   1.694   3.444   0.023
 4695TIP3    H114091   1.745   3.363   0.031
 4695TIP3    H214092   1.698   3.483   0.110
 4696TIP3   OH214093   6.141   5.755   4.384
 4696TIP3    H114094   6.176   5.672   4.349
 4696TIP3    H214095   6.115   5.804   4.306
 4697TIP3   OH214096   6.258   3.242   3.956
 4697TIP3    H114097   6.305   3.199   4.028
 4697TIP3    H214098   6.252   3.333   3.982
 4698TIP3   OH214099   0.634   4.411   5.088
 4698TIP3    H114100   0.626   4.483   5.150
 4698TIP3    H214101   0.547   4.371   5.087
 4699TIP3   OH214102   4.607   4.196   2.950
 4699TIP3    H114103   4.701   4.183   2.941
 4699TIP3    H214104   4.599   4.274   3.005
 4700TIP3   OH214105   4.230   0.680   1.217
 4700TIP3    H114106   4.225   0.739   1.142
 4700TIP3    H214107   4.262   0.735   1.289
 4701TIP3   OH214108   1.487   2.575   0.141
 4701TIP3    H114109   1.431   2.626   0.083
 4701TIP3    H214110   1.572   2.620   0.139
 4702TIP3   OH214111   4.764   2.655   0.371
 4702TIP3    H114112   4.702   2.727   0.357
 4702TIP3    H214113   4.850   2.695   0.364
 4703TIP3   OH214114   2.007   0.268   2.335
 4703TIP3    H114115   2.055   0.307   2.262
 4703TIP3    H214116   1.935   0.220   2.294
 4704TIP3   OH214117   2.387   0.701   0.236
 4704TIP3    H114118   2.343   0.617   0.226
 4704TIP3    H214119   2.316   0.765   0.238
 4705TIP3   OH214120   1.222   1.751   0.375
 4705TIP3    H114121   1.269   1.763   0.293
 4705TIP3    H214122   1.190   1.838   0.398
 4706TIP3   OH214123   1.077   0.536   0.749
 4706TIP3    H114124   1.064   0.473   0.820
 4706TIP3    H214125   1.169   0.526   0.725
 4707TIP3   OH214126   1.234   0.268   0.753
 4707TIP3    H114127   1.143   0.246   0.731
 4707TIP3    H214128   1.286   0.229   0.684
 4708TIP3   OH214129   1.789   1.216   0.142
 4708TIP3    H114130   1.833   1.275   0.081
 4708TIP3    H214131   1.699   1.212   0.110
 4709TIP3   OH214132   3.178   2.405   4.710
 4709TIP3    H114133   3.238   2.338   4.743
 4709TIP3    H214134   3.231   2.485   4.706
 4710TIP3   OH214135   0.363   3.434   0.022
 4710TIP3    H114136   0.385   3.474  -0.061
 4710TIP3    H214137   0.268   3.446   0.030
 4711TIP3   OH214138   2.334   5.026   4.448
 4711TIP3    H114139   2.337   5.006   4.541
 4711TIP3    H214140   2.413   5.078   4.432
 4712TIP3   OH214141   2.699   1.425   0.404
 4712TIP3    H114142   2.761   1.447   0.335
 4712TIP3    H214143   2.718   1.334   0.426
 4713TIP3   OH214144   5.533   1.807   2.729
 4713TIP3    H114145   5.443   1.776   2.741
 4713TIP3    H214146   5.545   1.809   2.634
 4714TIP3   OH214147   5.057   3.981   5.047
 4714TIP3    H114148   5.023   4.059   5.004
 4714TIP3    H214149   5.111   4.014   5.119
 4715TIP3   OH214150   4.045   1.622   0.318
 4715TIP3    H114151   4.102   1.554   0.353
 4715TIP3    H214152   4.041   1.688   0.388
 4716TIP3   OH214153   2.398   1.399   1.700
 4716TIP3    H114154   2.428   1.364   1.616
 4716TIP3    H214155   2.400   1.494   1.688
 4717TIP3   OH214156   3.848   2.125   4.168
 4717TIP3    H114157   3.765   2.153   4.132
 4717TIP3    H214158   3.876   2.198   4.224
 4718TIP3   OH214159   5.749   1.368   1.426
 4718TIP3    H114160   5.815   1.437   1.424
 4718TIP3    H214161   5.745   1.341   1.518
 4719TIP3   OH214162   1.232   4.031   0.849
 4719TIP3    H114163   1.256   3.963   0.912
 4719TIP3    H214164   1.286   4.106   0.874
 4720TIP3   OH214165   4.626   3.914   1.122
 4720TIP3    H114166   4.581   3.857   1.184
 4720TIP3    H214167   4.616   4.002   1.159
 4721TIP3   OH214168   4.683   0.753   2.021
 4721TIP3    H114169   4.616   0.700   2.063
 4721TIP3    H214170   4.715   0.811   2.090
 4722TIP3   OH214171   1.465   1.929   1.551
 4722TIP3    H114172   1.371   1.925   1.570
 4722TIP3    H214173   1.470   1.929   1.456
 4723TIP3   OH214174   3.791   5.125   3.532
 4723TIP3    H114175   3.763   5.034   3.517
 4723TIP3    H214176   3.858   5.140   3.466
 4724TIP3   OH214177   1.347   1.310   0.933
 4724TIP3    H114178   1.334   1.233   0.989
 4724TIP3    H214179   1.346   1.384   0.993
 4725TIP3   OH214180   1.658   0.672   4.300
 4725TIP3    H114181   1.726   0.614   4.265
 4725TIP3    H214182   1.690   0.696   4.387
 4726TIP3   OH214183   2.206   3.683   1.863
 4726TIP3    H114184   2.110   3.690   1.870
 4726TIP3    H214185   2.220   3.608   1.804
 4727TIP3   OH214186   2.946   5.810   2.669
 4727TIP3    H114187   2.927   5.719   2.694
 4727TIP3    H214188   2.906   5.820   2.583
 4728TIP3   OH214189   5.113   4.429   4.984
 4728TIP3    H114190   5.065   4.353   4.950
 4728TIP3    H214191   5.048   4.499   4.985
 4729TIP3   OH214192   0.899   3.265   2.012
 4729TIP3    H114193   0.849   3.276   1.931
 4729TIP3    H214194   0.850   3.314   2.077
 4730TIP3   OH214195   3.218   5.551   3.681
 4730TIP3    H114196   3.187   5.469   3.721
 4730TIP3    H214197   3.309   5.533   3.656
 4731TIP3   OH214198   6.325   0.661   5.150
 4731TIP3    H114199   6.239   0.637   5.115
 4731TIP3    H214200   6.364   0.718   5.084
 4732TIP3   OH214201   1.353   2.650   0.990
 4732TIP3    H114202   1.350   2.581   1.056
 4732TIP3    H214203   1.391   2.608   0.912
 4733TIP3   OH214204   4.397   1.662   4.697
 4733TIP3    H114205   4.376   1.597   4.630
 4733TIP3    H214206   4.467   1.714   4.660
 4734TIP3   OH214207   1.618   1.650   0.724
 4734TIP3    H114208   1.532   1.669   0.760
 4734TIP3    H214209   1.674   1.638   0.801
 4735TIP3   OH214210   3.314   5.812   3.914
 4735TIP3    H114211   3.366   5.877   3.868
 4735TIP3    H214212   3.231   5.809   3.866
 4736TIP3   OH214213   4.569   3.303   4.093
 4736TIP3    H114214   4.662   3.309   4.114
 4736TIP3    H214215   4.538   3.394   4.098
 4737TIP3   OH214216   3.818   1.778   1.156
 4737TIP3    H114217   3.850   1.761   1.067
 4737TIP3    H214218   3.869   1.853   1.186
 4738TIP3   OH214219   5.129   2.372   1.453
 4738TIP3    H114220   5.132   2.340   1.543
 4738TIP3    H214221   5.201   2.327   1.409
 4739TIP3   OH214222   5.815   5.682   3.590
 4739TIP3    H114223   5.813   5.668   3.495
 4739TIP3    H214224   5.771   5.605   3.626
 4740TIP3   OH214225   4.473   5.586   0.087
 4740TIP3    H114226   4.438   5.650   0.025
 4740TIP3    H214227   4.400   5.527   0.104
 4741TIP3   OH214228   6.015   4.644   2.199
 4741TIP3    H114229   6.042   4.720   2.148
 4741TIP3    H214230   5.986   4.580   2.134
 4742TIP3   OH214231   3.453   3.635   2.469
 4742TIP3    H114232   3.374   3.614   2.520
 4742TIP3    H214233   3.423   3.700   2.406
 4743TIP3   OH214234   6.003   5.194   0.105
 4743TIP3    H114235   6.023   5.243   0.025
 4743TIP3    H214236   6.017   5.256   0.176
 4744TIP3   OH214237   0.836   5.232   1.873
 4744TIP3    H114238   0.883   5.315   1.866
 4744TIP3    H214239   0.826   5.203   1.782
 4745TIP3   OH214240   1.978   1.625   0.780
 4745TIP3    H114241   1.989   1.530   0.774
 4745TIP3    H214242   2.019   1.649   0.862
 4746TIP3   OH214243   6.180   2.974   3.069
 4746TIP3    H114244   6.122   3.047   3.048
 4746TIP3    H214245   6.265   3.000   3.034
 4747TIP3   OH214246   1.227   1.222   1.607
 4747TIP3    H114247   1.181   1.277   1.543
 4747TIP3    H214248   1.157   1.190   1.665
 4748TIP3   OH214249   5.611   5.086   1.272
 4748TIP3    H114250   5.585   5.101   1.181
 4748TIP3    H214251   5.687   5.029   1.266
 4749TIP3   OH214252   3.402   4.377   2.729
 4749TIP3    H114253   3.391   4.360   2.635
 4749TIP3    H214254   3.397   4.472   2.736
 4750TIP3   OH214255   1.287   0.494   1.936
 4750TIP3    H114256   1.372   0.531   1.913
 4750TIP3    H214257   1.300   0.459   2.024
 4751TIP3   OH214258   3.023   0.036   0.010
 4751TIP3    H114259   2.951  -0.015  -0.027
 4751TIP3    H214260   3.021   0.016   0.104
 4752TIP3   OH214261   0.525   0.836   0.807
 4752TIP3    H114262   0.551   0.927   0.797
 4752TIP3    H214263   0.549   0.794   0.724
 4753TIP3   OH214264   1.851   1.999   3.713
 4753TIP3    H114265   1.932   1.962   3.677
 4753TIP3    H214266   1.817   2.056   3.643
 4754TIP3   OH214267   5.604   5.111   0.107
 4754TIP3    H114268   5.623   5.017   0.104
 4754TIP3    H214269   5.620   5.136   0.198
 4755TIP3   OH214270   4.819   5.902   3.296
 4755TIP3    H114271   4.887   5.886   3.230
 4755TIP3    H214272   4.853   5.859   3.375
 4756TIP3   OH214273   4.576   3.749   3.905
 4756TIP3    H114274   4.544   3.802   3.833
 4756TIP3    H214275   4.589   3.812   3.977
 4757TIP3   OH214276   2.645   1.243   2.107
 4757TIP3    H114277   2.698   1.169   2.078
 4757TIP3    H214278   2.646   1.237   2.203
 4758TIP3   OH214279   4.152   5.971   3.941
 4758TIP3    H114280   4.222   5.910   3.961
 4758TIP3    H214281   4.140   5.964   3.847
 4759TIP3   OH214282   5.834   2.340   3.139
 4759TIP3    H114283   5.814   2.429   3.112
 4759TIP3    H214284   5.927   2.341   3.160
 4760TIP3   OH214285   1.619   4.793   0.977
 4760TIP3    H114286   1.585   4.710   1.009
 4760TIP3    H214287   1.646   4.840   1.057
 4761TIP3   OH214288   2.652   4.979   3.413
 4761TIP3    H114289   2.656   4.884   3.421
 4761TIP3    H214290   2.741   5.009   3.428
 4762TIP3   OH214291   0.467   3.490   4.900
 4762TIP3    H114292   0.488   3.407   4.858
 4762TIP3    H214293   0.492   3.478   4.992
 4763TIP3   OH214294   4.074   0.280   1.088
 4763TIP3    H114295   4.027   0.209   1.043
 4763TIP3    H214296   4.141   0.308   1.026
 4764TIP3   OH214297   2.891   1.959   0.919
 4764TIP3    H114298   2.903   2.040   0.970
 4764TIP3    H214299   2.954   1.897   0.957
 4765TIP3   OH214300   2.819   0.511   1.340
 4765TIP3    H114301   2.814   0.597   1.298
 4765TIP3    H214302   2.912   0.488   1.337
 4766TIP3   OH214303   1.046   1.086   1.745
 4766TIP3    H114304   1.040   1.118   1.835
 4766TIP3    H214305   1.017   0.994   1.751
 4767TIP3   OH214306   3.341   4.941   2.864
 4767TIP3    H114307   3.266   4.998   2.849
 4767TIP3    H214308   3.342   4.927   2.958
 4768TIP3   OH214309   3.891   5.213   5.107
 4768TIP3    H114310   3.865   5.268   5.033
 4768TIP3    H214311   3.824   5.229   5.174
 4769TIP3   OH214312   1.265   1.225   0.207
 4769TIP3    H114313   1.359   1.210   0.208
 4769TIP3    H214314   1.227   1.142   0.237
 4770TIP3   OH214315   2.801   3.204   4.415
 4770TIP3    H114316   2.781   3.161   4.332
 4770TIP3    H214317   2.886   3.246   4.400
 4771TIP3   OH214318   0.655   5.295   4.319
 4771TIP3    H114319   0.611   5.213   4.339
 4771TIP3    H214320   0.586   5.362   4.325
 4772TIP3   OH214321   2.093   3.171   0.539
 4772TIP3    H114322   2.137   3.086   0.531
 4772TIP3    H214323   2.106   3.213   0.454
 4773TIP3   OH214324   5.464   1.072   3.866
 4773TIP3    H114325   5.474   1.021   3.947
 4773TIP3    H214326   5.532   1.138   3.871
 4774TIP3   OH214327   0.407   0.953   3.206
 4774TIP3    H114328   0.415   0.916   3.293
 4774TIP3    H214329   0.421   0.879   3.147
 4775TIP3   OH214330   5.289   4.614   0.983
 4775TIP3    H114331   5.343   4.685   1.019
 4775TIP3    H214332   5.201   4.653   0.976
 4776TIP3   OH214333   1.291   3.933   4.632
 4776TIP3    H114334   1.237   4.008   4.655
 4776TIP3    H214335   1.378   3.971   4.615
 4777TIP3   OH214336   4.032   0.212   0.300
 4777TIP3    H114337   4.108   0.270   0.292
 4777TIP3    H214338   4.069   0.125   0.311
 4778TIP3   OH214339   4.207   2.000   2.660
 4778TIP3    H114340   4.121   1.974   2.693
 4778TIP3    H214341   4.190   2.078   2.607
 4779TIP3   OH214342   2.496   4.189   4.206
 4779TIP3    H114343   2.556   4.154   4.140
 4779TIP3    H214344   2.458   4.112   4.247
 4780TIP3   OH214345   1.931   4.371   0.312
 4780TIP3    H114346   1.876   4.331   0.244
 4780TIP3    H214347   2.012   4.321   0.310
 4781TIP3   OH214348   1.352   2.233   3.002
 4781TIP3    H114349   1.286   2.300   3.021
 4781TIP3    H214350   1.406   2.272   2.933
 4782TIP3   OH214351   5.108   5.444   4.006
 4782TIP3    H114352   5.022   5.467   3.972
 4782TIP3    H214353   5.145   5.386   3.939
 4783TIP3   OH214354   0.355   4.351   5.111
 4783TIP3    H114355   0.284   4.293   5.138
 4783TIP3    H214356   0.312   4.434   5.092
 4784TIP3   OH214357   5.867   5.669   3.925
 4784TIP3    H114358   5.925   5.593   3.918
 4784TIP3    H214359   5.917   5.741   3.888
 4785TIP3   OH214360   5.822   1.995   2.296
 4785TIP3    H114361   5.888   2.028   2.235
 4785TIP3    H214362   5.762   2.068   2.309
 4786TIP3   OH214363   0.376   0.667   1.276
 4786TIP3    H114364   0.424   0.590   1.307
 4786TIP3    H214365   0.396   0.672   1.182
 4787TIP3   OH214366   4.646   5.458   0.485
 4787TIP3    H114367   4.563   5.420   0.457
 4787TIP3    H214368   4.688   5.389   0.536
 4788TIP3   OH214369   5.212   1.980   0.725
 4788TIP3    H114370   5.126   1.938   0.733
 4788TIP3    H214371   5.200   2.043   0.653
 4789TIP3   OH214372   3.296   4.213   0.168
 4789TIP3    H114373   3.258   4.148   0.109
 4789TIP3    H214374   3.386   4.225   0.136
 4790TIP3   OH214375   3.977   3.569   3.223
 4790TIP3    H114376   4.065   3.583   3.187
 4790TIP3    H214377   3.948   3.656   3.251
 4791TIP3   OH214378   0.056   1.632   5.064
 4791TIP3    H114379   0.054   1.728   5.059
 4791TIP3    H214380  -0.028   1.608   5.103
 4792TIP3   OH214381   3.011   0.902   1.409
 4792TIP3    H114382   3.034   0.995   1.405
 4792TIP3    H214383   3.072   0.859   1.349
 4793TIP3   OH214384   0.667   1.102   2.200
 4793TIP3    H114385   0.609   1.029   2.178
 4793TIP3    H214386   0.754   1.061   2.210
 4794TIP3   OH214387   5.286   3.677   1.098
 4794TIP3    H114388   5.294   3.583   1.117
 4794TIP3    H214389   5.370   3.714   1.125
 4795TIP3   OH214390   3.875   1.307   3.757
 4795TIP3    H114391   3.926   1.376   3.798
 4795TIP3    H214392   3.841   1.256   3.830
 4796TIP3   OH214393   3.655   2.580   4.881
 4796TIP3    H114394   3.699   2.497   4.900
 4796TIP3    H214395   3.589   2.559   4.815
 4797TIP3   OH214396   0.517   3.094   1.752
 4797TIP3    H114397   0.561   3.034   1.813
 4797TIP3    H214398   0.495   3.171   1.805
 4798TIP3   OH214399   6.001   3.028   2.145
 4798TIP3    H114400   6.016   3.073   2.062
 4798TIP3    H214401   5.909   3.048   2.166
 4799TIP3   OH214402   5.738   2.795   0.980
 4799TIP3    H114403   5.767   2.747   0.902
 4799TIP3    H214404   5.819   2.823   1.022
 4800TIP3   OH214405   0.052   2.458   3.547
 4800TIP3    H114406   0.026   2.489   3.460
 4800TIP3    H214407  -0.020   2.485   3.604
 4801TIP3   OH214408   3.273   5.752   4.270
 4801TIP3    H114409   3.222   5.798   4.337
 4801TIP3    H214410   3.208   5.709   4.216
 4802TIP3   OH214411   4.634   0.208   4.191
 4802TIP3    H114412   4.691   0.262   4.136
 4802TIP3    H214413   4.681   0.201   4.275
 4803TIP3   OH214414   3.829   0.363   2.958
 4803TIP3    H114415   3.923   0.381   2.960
 4803TIP3    H214416   3.822   0.272   2.986
 4804TIP3   OH214417   1.541   1.976   4.894
 4804TIP3    H114418   1.631   1.955   4.868
 4804TIP3    H214419   1.541   1.966   4.989
 4805TIP3   OH214420   5.948   0.190   2.033
 4805TIP3    H114421   5.882   0.247   2.072
 4805TIP3    H214422   5.906   0.154   1.956
 4806TIP3   OH214423   6.217   3.571   3.353
 4806TIP3    H114424   6.298   3.622   3.365
 4806TIP3    H214425   6.147   3.634   3.371
 4807TIP3   OH214426   1.530   4.321   4.571
 4807TIP3    H114427   1.620   4.352   4.558
 4807TIP3    H214428   1.520   4.315   4.666
 4808TIP3   OH214429   2.273   5.693   2.839
 4808TIP3    H114430   2.210   5.622   2.836
 4808TIP3    H214431   2.290   5.715   2.747
 4809TIP3   OH214432   2.460   0.237   3.147
 4809TIP3    H114433   2.369   0.253   3.121
 4809TIP3    H214434   2.476   0.146   3.120
 4810TIP3   OH214435   5.088   1.347   5.134
 4810TIP3    H114436   5.182   1.361   5.120
 4810TIP3    H214437   5.049   1.365   5.048
 4811TIP3   OH214438   6.177   5.259   1.204
 4811TIP3    H114439   6.115   5.194   1.169
 4811TIP3    H214440   6.164   5.336   1.149
 4812TIP3   OH214441   6.153   5.482   0.536
 4812TIP3    H114442   6.191   5.498   0.449
 4812TIP3    H214443   6.225   5.446   0.587
 4813TIP3   OH214444   1.458   1.529   0.369
 4813TIP3    H114445   1.486   1.455   0.423
 4813TIP3    H214446   1.379   1.498   0.326
 4814TIP3   OH214447   4.926   2.750   4.688
 4814TIP3    H114448   4.992   2.697   4.733
 4814TIP3    H214449   4.878   2.688   4.635
 4815TIP3   OH214450   4.221   3.654   1.398
 4815TIP3    H114451   4.176   3.639   1.314
 4815TIP3    H214452   4.258   3.569   1.420
 4816TIP3   OH214453   0.511   0.848   3.419
 4816TIP3    H114454   0.587   0.880   3.467
 4816TIP3    H214455   0.544   0.776   3.365
 4817TIP3   OH214456   1.582   5.158   3.600
 4817TIP3    H114457   1.531   5.209   3.664
 4817TIP3    H214458   1.650   5.116   3.652
 4818TIP3   OH214459   5.381   1.620   0.011
 4818TIP3    H114460   5.291   1.602  -0.017
 4818TIP3    H214461   5.380   1.610   0.106
 4819TIP3   OH214462   4.869   3.853   1.054
 4819TIP3    H114463   4.788   3.876   1.099
 4819TIP3    H214464   4.849   3.865   0.961
 4820TIP3   OH214465   3.129   3.811   0.331
 4820TIP3    H114466   3.168   3.729   0.301
 4820TIP3    H214467   3.160   3.876   0.268
 4821TIP3   OH214468   5.461   2.834   0.575
 4821TIP3    H114469   5.448   2.924   0.603
 4821TIP3    H214470   5.502   2.841   0.489
 4822TIP3   OH214471   0.210   0.023   4.550
 4822TIP3    H114472   0.293   0.071   4.557
 4822TIP3    H214473   0.236  -0.067   4.531
 4823TIP3   OH214474   0.111   1.728   1.229
 4823TIP3    H114475   0.201   1.761   1.222
 4823TIP3    H214476   0.056   1.806   1.223
 4824TIP3   OH214477   3.101   5.459   3.436
 4824TIP3    H114478   3.124   5.497   3.521
 4824TIP3    H214479   3.026   5.510   3.407
 4825TIP3   OH214480   3.092   3.376   2.283
 4825TIP3    H114481   3.138   3.459   2.286
 4825TIP3    H214482   2.999   3.400   2.291
 4826TIP3   OH214483   5.260   2.347   0.176
 4826TIP3    H114484   5.254   2.263   0.221
 4826TIP3    H214485   5.281   2.409   0.246
 4827TIP3   OH214486   4.242   1.063   3.496
 4827TIP3    H114487   4.288   1.125   3.440
 4827TIP3    H214488   4.160   1.107   3.519
 4828TIP3   OH214489   5.485   0.067   3.782
 4828TIP3    H114490   5.442   0.149   3.759
 4828TIP3    H214491   5.578   0.083   3.764
 4829TIP3   OH214492   1.811   1.359   2.426
 4829TIP3    H114493   1.849   1.400   2.503
 4829TIP3    H214494   1.862   1.393   2.353
 4830TIP3   OH214495   4.631   4.219   0.622
 4830TIP3    H114496   4.637   4.202   0.528
 4830TIP3    H214497   4.537   4.224   0.639
 4831TIP3   OH214498   6.174   0.037   0.125
 4831TIP3    H114499   6.202   0.004   0.211
 4831TIP3    H214500   6.203   0.128   0.123
 4832TIP3   OH214501   1.518   5.395   1.257
 4832TIP3    H114502   1.485   5.305   1.258
 4832TIP3    H214503   1.573   5.400   1.179
 4833TIP3   OH214504   2.940   2.548   2.158
 4833TIP3    H114505   2.968   2.464   2.194
 4833TIP3    H214506   2.876   2.581   2.222
 4834TIP3   OH214507   3.395   0.448   2.193
 4834TIP3    H114508   3.325   0.397   2.233
 4834TIP3    H214509   3.371   0.539   2.208
 4835TIP3   OH214510   4.708   3.654   2.349
 4835TIP3    H114511   4.660   3.737   2.354
 4835TIP3    H214512   4.754   3.659   2.264
 4836TIP3   OH214513   0.552   5.167   1.889
 4836TIP3    H114514   0.468   5.192   1.851
 4836TIP3    H214515   0.606   5.142   1.814
 4837TIP3   OH214516   3.103   5.789   3.741
 4837TIP3    H114517   3.031   5.793   3.678
 4837TIP3    H214518   3.143   5.703   3.727
 4838TIP3   OH214519   2.850   4.929   2.692
 4838TIP3    H114520   2.770   4.876   2.690
 4838TIP3    H214521   2.906   4.886   2.757
 4839TIP3   OH214522   5.530   2.240   1.525
 4839TIP3    H114523   5.576   2.164   1.562
 4839TIP3    H214524   5.440   2.231   1.556
 4840TIP3   OH214525   0.178   0.541   3.221
 4840TIP3    H114526   0.249   0.536   3.286
 4840TIP3    H214527   0.162   0.634   3.210
 4841TIP3   OH214528   4.614   1.142   4.790
 4841TIP3    H114529   4.695   1.159   4.742
 4841TIP3    H214530   4.545   1.149   4.724
 4842TIP3   OH214531   3.373   5.314   0.063
 4842TIP3    H114532   3.435   5.357   0.003
 4842TIP3    H214533   3.377   5.366   0.143
 4843TIP3   OH214534   5.677   1.667   1.932
 4843TIP3    H114535   5.593   1.643   1.894
 4843TIP3    H214536   5.717   1.584   1.958
 4844TIP3   OH214537   3.235   5.520   2.405
 4844TIP3    H114538   3.253   5.547   2.495
 4844TIP3    H214539   3.196   5.597   2.364
 4845TIP3   OH214540   2.350   1.895   1.984
 4845TIP3    H114541   2.401   1.942   1.919
 4845TIP3    H214542   2.274   1.863   1.935
 4846TIP3   OH214543   3.449   1.562   1.795
 4846TIP3    H114544   3.387   1.495   1.768
 4846TIP3    H214545   3.430   1.637   1.739
 4847TIP3   OH214546   6.213   3.929   0.639
 4847TIP3    H114547   6.158   3.852   0.627
 4847TIP3    H214548   6.265   3.910   0.716
 4848TIP3   OH214549   5.788   3.291   0.989
 4848TIP3    H114550   5.759   3.370   1.034
 4848TIP3    H214551   5.883   3.291   0.999
 4849TIP3   OH214552   6.269   5.869   0.041
 4849TIP3    H114553   6.332   5.821  -0.013
 4849TIP3    H214554   6.187   5.863  -0.008
 4850TIP3   OH214555   4.595   3.170   3.282
 4850TIP3    H114556   4.593   3.092   3.226
 4850TIP3    H214557   4.537   3.148   3.354
 4851TIP3   OH214558   2.743   3.077   1.711
 4851TIP3    H114559   2.720   3.157   1.664
 4851TIP3    H214560   2.668   3.019   1.697
 4852TIP3   OH214561   4.231   2.941   0.903
 4852TIP3    H114562   4.143   2.946   0.865
 4852TIP3    H214563   4.219   2.893   0.985
 4853TIP3   OH214564   5.341   1.140   1.609
 4853TIP3    H114565   5.375   1.095   1.687
 4853TIP3    H214566   5.285   1.075   1.567
 4854TIP3   OH214567   3.063   4.981   2.267
 4854TIP3    H114568   3.145   5.019   2.235
 4854TIP3    H214569   2.999   5.002   2.199
 4855TIP3   OH214570   5.882   4.032   1.428
 4855TIP3    H114571   5.888   4.080   1.345
 4855TIP3    H214572   5.798   4.058   1.465
 4856TIP3   OH214573   2.566   2.584   1.099
 4856TIP3    H114574   2.612   2.502   1.119
 4856TIP3    H214575   2.550   2.580   1.005
 4857TIP3   OH214576   0.471   1.377   1.979
 4857TIP3    H114577   0.378   1.354   1.974
 4857TIP3    H214578   0.473   1.460   2.027
 4858TIP3   OH214579   0.049   3.458   4.868
 4858TIP3    H114580   0.025   3.426   4.955
 4858TIP3    H214581  -0.034   3.464   4.821
 4859TIP3   OH214582   3.143   1.963   4.967
 4859TIP3    H114583   3.193   1.881   4.968
 4859TIP3    H214584   3.078   1.952   5.035
 4860TIP3   OH214585   3.394   4.880   3.164
 4860TIP3    H114586   3.419   4.968   3.190
 4860TIP3    H214587   3.453   4.822   3.213
 4861TIP3   OH214588   3.039   3.894   3.970
 4861TIP3    H114589   2.985   3.919   3.895
 4861TIP3    H214590   3.081   3.813   3.943
 4862TIP3   OH214591   0.309   2.437   2.187
 4862TIP3    H114592   0.273   2.373   2.249
 4862TIP3    H214593   0.298   2.521   2.231
 4863TIP3   OH214594   3.620   4.612   1.128
 4863TIP3    H114595   3.627   4.629   1.034
 4863TIP3    H214596   3.711   4.606   1.158
 4864TIP3   OH214597   6.312   1.880   0.058
 4864TIP3    H114598   6.298   1.870   0.152
 4864TIP3    H214599   6.357   1.800   0.032
 4865TIP3   OH214600   5.985   3.266   4.249
 4865TIP3    H114601   6.050   3.331   4.272
 4865TIP3    H214602   5.941   3.302   4.172
 4866TIP3   OH214603   6.042   4.932   2.372
 4866TIP3    H114604   5.957   4.976   2.369
 4866TIP3    H214605   6.105   5.003   2.378
 4867TIP3   OH214606   3.245   3.747   4.697
 4867TIP3    H114607   3.206   3.670   4.655
 4867TIP3    H214608   3.199   3.821   4.658
 4868TIP3   OH214609   5.527   0.480   1.920
 4868TIP3    H114610   5.435   0.470   1.896
 4868TIP3    H214611   5.525   0.528   2.003
 4869TIP3   OH214612   0.165   1.463   0.680
 4869TIP3    H114613   0.079   1.506   0.673
 4869TIP3    H214614   0.190   1.444   0.590
 4870TIP3   OH214615   0.157   5.618   4.464
 4870TIP3    H114616   0.093   5.569   4.515
 4870TIP3    H214617   0.195   5.680   4.527
 4871TIP3   OH214618   0.646   2.563   4.632
 4871TIP3    H114619   0.584   2.540   4.563
 4871TIP3    H214620   0.639   2.492   4.696
 4872TIP3   OH214621   0.595   3.363   4.040
 4872TIP3    H114622   0.577   3.394   3.952
 4872TIP3    H214623   0.549   3.280   4.047
 4873TIP3   OH214624   2.172   4.869   2.714
 4873TIP3    H114625   2.105   4.810   2.677
 4873TIP3    H214626   2.232   4.885   2.641
 4874TIP3   OH214627   2.199   3.716   2.169
 4874TIP3    H114628   2.268   3.693   2.107
 4874TIP3    H214629   2.118   3.709   2.118
 4875TIP3   OH214630   3.757   3.346   2.713
 4875TIP3    H114631   3.787   3.346   2.623
 4875TIP3    H214632   3.819   3.403   2.759
 4876TIP3   OH214633   3.113   3.010   1.063
 4876TIP3    H114634   3.034   3.025   1.011
 4876TIP3    H214635   3.180   3.065   1.022
 4877TIP3   OH214636   2.259   4.356   4.104
 4877TIP3    H114637   2.335   4.299   4.118
 4877TIP3    H214638   2.296   4.444   4.096
 4878TIP3   OH214639   4.711   3.743   5.139
 4878TIP3    H114640   4.743   3.654   5.123
 4878TIP3    H214641   4.628   3.747   5.091
 4879TIP3   OH214642   1.265   4.573   3.391
 4879TIP3    H114643   1.293   4.586   3.300
 4879TIP3    H214644   1.256   4.661   3.427
 4880TIP3   OH214645   3.753   1.205   2.264
 4880TIP3    H114646   3.672   1.178   2.307
 4880TIP3    H214647   3.807   1.240   2.334
 4881TIP3   OH214648   3.268   4.478   3.221
 4881TIP3    H114649   3.211   4.421   3.170
 4881TIP3    H214650   3.338   4.503   3.161
 4882TIP3   OH214651   5.930   4.843   1.912
 4882TIP3    H114652   6.012   4.863   1.957
 4882TIP3    H214653   5.936   4.750   1.892
 4883TIP3   OH214654   1.123   2.668   2.325
 4883TIP3    H114655   1.176   2.589   2.318
 4883TIP3    H214656   1.076   2.672   2.241
 4884TIP3   OH214657   2.937   5.953   4.228
 4884TIP3    H114658   2.921   5.933   4.136
 4884TIP3    H214659   3.031   5.970   4.232
 4885TIP3   OH214660   3.062   5.709   1.553
 4885TIP3    H114661   3.002   5.743   1.620
 4885TIP3    H214662   3.148   5.713   1.594
 4886TIP3   OH214663   4.448   2.445   4.666
 4886TIP3    H114664   4.525   2.399   4.699
 4886TIP3    H214665   4.478   2.535   4.653
 4887TIP3   OH214666   2.480   0.192   3.985
 4887TIP3    H114667   2.527   0.132   3.927
 4887TIP3    H214668   2.535   0.270   3.988
 4888TIP3   OH214669   4.173   2.260   2.540
 4888TIP3    H114670   4.102   2.322   2.525
 4888TIP3    H214671   4.234   2.306   2.597
 4889TIP3   OH214672   0.001   4.548   1.133
 4889TIP3    H114673   0.081   4.596   1.112
 4889TIP3    H214674   0.032   4.465   1.169
 4890TIP3   OH214675   1.535   5.998   2.117
 4890TIP3    H114676   1.628   5.998   2.092
 4890TIP3    H214677   1.499   5.919   2.075
 4891TIP3   OH214678   2.210   0.877   1.453
 4891TIP3    H114679   2.275   0.945   1.472
 4891TIP3    H214680   2.135   0.901   1.507
 4892TIP3   OH214681   2.283   5.622   0.213
 4892TIP3    H114682   2.210   5.571   0.247
 4892TIP3    H214683   2.360   5.586   0.257
 4893TIP3   OH214684   6.267   3.418   0.598
 4893TIP3    H114685   6.202   3.452   0.659
 4893TIP3    H214686   6.233   3.333   0.571
 4894TIP3   OH214687   3.749   3.381   3.736
 4894TIP3    H114688   3.791   3.296   3.721
 4894TIP3    H214689   3.656   3.361   3.740
 4895TIP3   OH214690   5.718   3.903   1.754
 4895TIP3    H114691   5.706   3.988   1.712
 4895TIP3    H214692   5.671   3.910   1.837
 4896TIP3   OH214693   4.478   1.857   2.997
 4896TIP3    H114694   4.455   1.801   3.072
 4896TIP3    H214695   4.500   1.795   2.928
 4897TIP3   OH214696   4.587   1.633   1.628
 4897TIP3    H114697   4.517   1.568   1.626
 4897TIP3    H214698   4.555   1.705   1.573
 4898TIP3   OH214699   5.444   0.340   4.368
 4898TIP3    H114700   5.432   0.322   4.275
 4898TIP3    H214701   5.529   0.383   4.374
 4899TIP3   OH214702   2.757   0.771   1.259
 4899TIP3    H114703   2.745   0.864   1.277
 4899TIP3    H214704   2.739   0.763   1.165
 4900TIP3   OH214705   5.802   0.470   3.155
 4900TIP3    H114706   5.830   0.387   3.193
 4900TIP3    H214707   5.853   0.479   3.074
 4901TIP3   OH214708   0.701   5.087   2.123
 4901TIP3    H114709   0.675   5.130   2.041
 4901TIP3    H214710   0.793   5.066   2.110
 4902TIP3   OH214711   0.837   3.140   0.236
 4902TIP3    H114712   0.787   3.221   0.230
 4902TIP3    H214713   0.888   3.137   0.155
 4903TIP3   OH214714   4.765   4.304   1.044
 4903TIP3    H114715   4.813   4.233   1.087
 4903TIP3    H214716   4.688   4.318   1.099
 4904TIP3   OH214717   0.348   2.589   1.310
 4904TIP3    H114718   0.302   2.619   1.231
 4904TIP3    H214719   0.398   2.665   1.338
 4905TIP3   OH214720   2.603   5.672   0.249
 4905TIP3    H114721   2.551   5.737   0.201
 4905TIP3    H214722   2.651   5.722   0.314
 4906TIP3   OH214723   1.993   1.086   3.647
 4906TIP3    H114724   2.055   1.041   3.589
 4906TIP3    H214725   2.023   1.064   3.735
 4907TIP3   OH214726   1.189   5.449   5.008
 4907TIP3    H114727   1.252   5.381   4.982
 4907TIP3    H214728   1.204   5.519   4.944
 4908TIP3   OH214729   3.720   3.100   0.782
 4908TIP3    H114730   3.648   3.038   0.789
 4908TIP3    H214731   3.700   3.152   0.705
 4909TIP3   OH214732   2.326   4.355   0.776
 4909TIP3    H114733   2.288   4.414   0.712
 4909TIP3    H214734   2.329   4.405   0.858
 4910TIP3   OH214735   0.486   4.726   2.022
 4910TIP3    H114736   0.568   4.773   2.037
 4910TIP3    H214737   0.513   4.637   2.003
 4911TIP3   OH214738   5.538   0.489   1.040
 4911TIP3    H114739   5.582   0.551   0.981
 4911TIP3    H214740   5.506   0.543   1.112
 4912TIP3   OH214741   2.812   0.585   3.251
 4912TIP3    H114742   2.784   0.542   3.170
 4912TIP3    H214743   2.786   0.525   3.321
 4913TIP3   OH214744   1.701   2.406   3.802
 4913TIP3    H114745   1.788   2.366   3.800
 4913TIP3    H214746   1.642   2.334   3.823
 4914TIP3   OH214747   3.128   2.234   1.642
 4914TIP3    H114748   3.166   2.290   1.574
 4914TIP3    H214749   3.129   2.289   1.721
 4915TIP3   OH214750   4.052   1.145   2.824
 4915TIP3    H114751   4.083   1.087   2.755
 4915TIP3    H214752   4.043   1.089   2.901
 4916TIP3   OH214753   2.188   0.251   3.092
 4916TIP3    H114754   2.153   0.338   3.111
 4916TIP3    H214755   2.153   0.196   3.162
 4917TIP3   OH214756   1.890   1.777   2.318
 4917TIP3    H114757   1.796   1.770   2.301
 4917TIP3    H214758   1.899   1.764   2.412
 4918TIP3   OH214759   0.976   2.692   3.777
 4918TIP3    H114760   0.962   2.760   3.711
 4918TIP3    H214761   1.002   2.740   3.855
 4919TIP3   OH214762   5.091   2.640   1.620
 4919TIP3    H114763   4.998   2.647   1.597
 4919TIP3    H214764   5.123   2.568   1.566
 4920TIP3   OH214765   4.928   1.220   3.752
 4920TIP3    H114766   4.881   1.302   3.767
 4920TIP3    H214767   4.860   1.153   3.751
 4921TIP3   OH214768   1.490   3.019   2.453
 4921TIP3    H114769   1.578   3.010   2.417
 4921TIP3    H214770   1.504   3.042   2.545
 4922TIP3   OH214771   3.767   1.000   0.557
 4922TIP3    H114772   3.741   1.091   0.572
 4922TIP3    H214773   3.837   1.005   0.493
 4923TIP3   OH214774   1.159   5.117   3.715
 4923TIP3    H114775   1.093   5.053   3.688
 4923TIP3    H214776   1.136   5.137   3.806
 4924TIP3   OH214777   3.928   3.518   4.793
 4924TIP3    H114778   3.895   3.558   4.873
 4924TIP3    H214779   3.970   3.437   4.822
 4925TIP3   OH214780   1.460   4.847   2.523
 4925TIP3    H114781   1.426   4.766   2.484
 4925TIP3    H214782   1.427   4.846   2.613
 4926TIP3   OH214783   3.475   5.185   4.220
 4926TIP3    H114784   3.485   5.280   4.217
 4926TIP3    H214785   3.471   5.164   4.313
 4927TIP3   OH214786   4.977   3.533   1.097
 4927TIP3    H114787   4.987   3.628   1.092
 4927TIP3    H214788   4.904   3.519   1.157
 4928TIP3   OH214789   5.195   4.589   3.016
 4928TIP3    H114790   5.199   4.569   3.109
 4928TIP3    H214791   5.281   4.565   2.982
 4929TIP3   OH214792   4.298   1.128   4.192
 4929TIP3    H114793   4.345   1.046   4.177
 4929TIP3    H214794   4.346   1.193   4.141
 4930TIP3   OH214795   3.729   0.183   3.580
 4930TIP3    H114796   3.747   0.118   3.648
 4930TIP3    H214797   3.782   0.155   3.506
 4931TIP3   OH214798   2.566   2.259   3.045
 4931TIP3    H114799   2.643   2.255   2.989
 4931TIP3    H214800   2.537   2.350   3.040
 4932TIP3   OH214801   2.660   5.319   3.929
 4932TIP3    H114802   2.640   5.304   3.836
 4932TIP3    H214803   2.659   5.232   3.968
 4933TIP3   OH214804   4.542   3.409   0.660
 4933TIP3    H114805   4.609   3.477   0.657
 4933TIP3    H214806   4.460   3.458   0.669
 4934TIP3   OH214807   3.791   2.156   2.971
 4934TIP3    H114808   3.794   2.192   3.059
 4934TIP3    H214809   3.701   2.124   2.961
 4935TIP3   OH214810   3.712   5.515   3.562
 4935TIP3    H114811   3.710   5.466   3.480
 4935TIP3    H214812   3.753   5.455   3.625
 4936TIP3   OH214813   5.094   3.802   3.915
 4936TIP3    H114814   5.011   3.753   3.915
 4936TIP3    H214815   5.082   3.871   3.980
 4937TIP3   OH214816   5.468   4.974   4.674
 4937TIP3    H114817   5.445   5.049   4.729
 4937TIP3    H214818   5.443   4.898   4.726
 4938TIP3   OH214819   3.295   0.735   2.488
 4938TIP3    H114820   3.244   0.698   2.416
 4938TIP3    H214821   3.381   0.693   2.480
 4939TIP3   OH214822   3.320   3.923   5.201
 4939TIP3    H114823   3.401   3.909   5.152
 4939TIP3    H214824   3.281   3.835   5.208
 4940TIP3   OH214825   3.876   3.084   2.461
 4940TIP3    H114826   3.802   3.025   2.453
 4940TIP3    H214827   3.910   3.093   2.371
 4941TIP3   OH214828   5.939   3.887   0.067
 4941TIP3    H114829   6.020   3.931   0.092
 4941TIP3    H214830   5.890   3.953   0.018
 4942TIP3   OH214831   0.034   5.571   3.261
 4942TIP3    H114832  -0.035   5.551   3.325
 4942TIP3    H214833   0.085   5.641   3.302
 4943TIP3   OH214834   2.709   5.068   2.889
 4943TIP3    H114835   2.662   4.999   2.937
 4943TIP3    H214836   2.751   5.023   2.816
 4944TIP3   OH214837   2.121   1.841   0.187
 4944TIP3    H114838   2.034   1.872   0.210
 4944TIP3    H214839   2.142   1.776   0.254
 4945TIP3   OH214840   2.649   4.629   3.954
 4945TIP3    H114841   2.683   4.546   3.988
 4945TIP3    H214842   2.589   4.659   4.023
 4946TIP3   OH214843   6.273   1.353   1.572
 4946TIP3    H114844   6.298   1.333   1.662
 4946TIP3    H214845   6.333   1.423   1.545
 4947TIP3   OH214846   4.823   1.058   2.700
 4947TIP3    H114847   4.788   1.138   2.740
 4947TIP3    H214848   4.898   1.035   2.754
 4948TIP3   OH214849   3.029   3.372   0.251
 4948TIP3    H114850   3.029   3.467   0.260
 4948TIP3    H214851   3.086   3.341   0.321
 4949TIP3   OH214852   1.967   5.321   2.391
 4949TIP3    H114853   1.893   5.374   2.421
 4949TIP3    H214854   1.930   5.234   2.378
 4950TIP3   OH214855   2.872   1.612   4.754
 4950TIP3    H114856   2.840   1.622   4.843
 4950TIP3    H214857   2.812   1.664   4.701
 4951TIP3   OH214858   0.127   4.376   4.000
 4951TIP3    H114859   0.053   4.354   3.943
 4951TIP3    H214860   0.203   4.380   3.941
 4952TIP3   OH214861   4.264   1.235   0.318
 4952TIP3    H114862   4.235   1.157   0.365
 4952TIP3    H214863   4.357   1.242   0.338
 4953TIP3   OH214864   2.050   2.322   1.379
 4953TIP3    H114865   2.045   2.418   1.379
 4953TIP3    H214866   2.057   2.298   1.471
 4954TIP3   OH214867   0.437   2.186   0.615
 4954TIP3    H114868   0.498   2.181   0.542
 4954TIP3    H214869   0.408   2.277   0.615
 4955TIP3   OH214870   6.130   1.304   2.218
 4955TIP3    H114871   6.079   1.225   2.200
 4955TIP3    H214872   6.221   1.274   2.221
 4956TIP3   OH214873   6.315   1.916   1.338
 4956TIP3    H114874   6.368   1.984   1.381
 4956TIP3    H214875   6.237   1.963   1.308
 4957TIP3   OH214876   1.555   1.310   3.921
 4957TIP3    H114877   1.469   1.343   3.895
 4957TIP3    H214878   1.606   1.310   3.840
 4958TIP3   OH214879   3.670   4.852   4.031
 4958TIP3    H114880   3.708   4.882   3.948
 4958TIP3    H214881   3.629   4.768   4.010
 4959TIP3   OH214882   4.061   0.577   4.056
 4959TIP3    H114883   4.129   0.588   3.990
 4959TIP3    H214884   4.110   0.560   4.137
 4960TIP3   OH214885   0.617   3.616   0.560
 4960TIP3    H114886   0.668   3.539   0.586
 4960TIP3    H214887   0.528   3.582   0.545
 4961TIP3   OH214888   1.571   1.786   0.445
 4961TIP3    H114889   1.526   1.706   0.417
 4961TIP3    H214890   1.612   1.761   0.528
 4962TIP3   OH214891   4.245   5.588   1.687
 4962TIP3    H114892   4.225   5.678   1.712
 4962TIP3    H214893   4.338   5.588   1.665
 4963TIP3   OH214894   2.749   1.803   0.189
 4963TIP3    H114895   2.661   1.767   0.189
 4963TIP3    H214896   2.773   1.807   0.282
 4964TIP3   OH214897   6.228   3.311   5.059
 4964TIP3    H114898   6.170   3.238   5.079
 4964TIP3    H214899   6.176   3.367   5.001
 4965TIP3   OH214900   1.587   5.556   3.159
 4965TIP3    H114901   1.625   5.491   3.218
 4965TIP3    H214902   1.640   5.550   3.080
 4966TIP3   OH214903   2.534   3.366   4.476
 4966TIP3    H114904   2.623   3.333   4.464
 4966TIP3    H214905   2.491   3.349   4.392
 4967TIP3   OH214906   1.516   1.167   4.369
 4967TIP3    H114907   1.551   1.083   4.337
 4967TIP3    H214908   1.520   1.160   4.464
 4968TIP3   OH214909   1.725   0.945   1.112
 4968TIP3    H114910   1.749   0.920   1.202
 4968TIP3    H214911   1.647   0.892   1.093
 4969TIP3   OH214912   4.537   0.940   1.028
 4969TIP3    H114913   4.606   0.945   0.962
 4969TIP3    H214914   4.540   1.025   1.072
 4970TIP3   OH214915   5.944   3.361   0.451
 4970TIP3    H114916   5.969   3.303   0.522
 4970TIP3    H214917   5.878   3.419   0.489
 4971TIP3   OH214918   0.422   3.799   1.328
 4971TIP3    H114919   0.492   3.776   1.390
 4971TIP3    H214920   0.415   3.722   1.271
 4972TIP3   OH214921   1.301   3.682   1.814
 4972TIP3    H114922   1.361   3.755   1.798
 4972TIP3    H214923   1.345   3.630   1.881
 4973TIP3   OH214924   4.328   3.256   4.237
 4973TIP3    H114925   4.415   3.248   4.197
 4973TIP3    H214926   4.289   3.331   4.193
 4974TIP3   OH214927   0.155   1.271   1.145
 4974TIP3    H114928   0.139   1.197   1.086
 4974TIP3    H214929   0.149   1.348   1.088
 4975TIP3   OH214930   3.846   4.750   4.243
 4975TIP3    H114931   3.925   4.803   4.250
 4975TIP3    H214932   3.804   4.780   4.162
 4976TIP3   OH214933   4.678   2.508   1.065
 4976TIP3    H114934   4.726   2.445   1.012
 4976TIP3    H214935   4.697   2.593   1.025
 4977TIP3   OH214936   4.269   1.090   4.807
 4977TIP3    H114937   4.322   1.143   4.866
 4977TIP3    H214938   4.233   1.152   4.743
 4978TIP3   OH214939   5.499   3.934   1.951
 4978TIP3    H114940   5.565   3.928   2.020
 4978TIP3    H214941   5.430   3.989   1.990
 4979TIP3   OH214942   5.943   2.178   1.562
 4979TIP3    H114943   5.957   2.262   1.518
 4979TIP3    H214944   5.850   2.159   1.549
 4980TIP3   OH214945   3.761   5.075   2.125
 4980TIP3    H114946   3.755   5.170   2.130
 4980TIP3    H214947   3.709   5.044   2.199
 4981TIP3   OH214948   3.731   1.104   4.344
 4981TIP3    H114949   3.760   1.193   4.325
 4981TIP3    H214950   3.708   1.067   4.259
 4982TIP3   OH214951   3.565   4.002   0.190
 4982TIP3    H114952   3.580   4.041   0.104
 4982TIP3    H214953   3.473   4.019   0.208
 4983TIP3   OH214954   3.790   4.552   5.085
 4983TIP3    H114955   3.769   4.608   5.010
 4983TIP3    H214956   3.709   4.551   5.137
 4984TIP3   OH214957   0.701   2.202   4.181
 4984TIP3    H114958   0.614   2.227   4.149
 4984TIP3    H214959   0.754   2.281   4.169
 4985TIP3   OH214960   4.911   3.893   2.683
 4985TIP3    H114961   4.907   3.949   2.761
 4985TIP3    H214962   4.820   3.888   2.652
 4986TIP3   OH214963   2.853   1.098   3.778
 4986TIP3    H114964   2.769   1.145   3.778
 4986TIP3    H214965   2.859   1.060   3.865
 4987TIP3   OH214966   1.853   4.180   4.167
 4987TIP3    H114967   1.772   4.216   4.132
 4987TIP3    H214968   1.847   4.086   4.149
 4988TIP3   OH214969   2.804   2.228   2.903
 4988TIP3    H114970   2.813   2.140   2.941
 4988TIP3    H214971   2.806   2.212   2.808
 4989TIP3   OH214972   0.263   3.668   1.631
 4989TIP3    H114973   0.310   3.595   1.591
 4989TIP3    H214974   0.305   3.681   1.716
 4990TIP3   OH214975   3.290   1.551   3.961
 4990TIP3    H114976   3.277   1.491   3.888
 4990TIP3    H214977   3.328   1.497   4.030
 4991TIP3   OH214978   3.525   2.151   4.205
 4991TIP3    H114979   3.478   2.131   4.124
 4991TIP3    H214980   3.465   2.208   4.254
 4992TIP3   OH214981   2.296   3.865   3.749
 4992TIP3    H114982   2.383   3.873   3.790
 4992TIP3    H214983   2.254   3.949   3.768
 4993TIP3   OH214984   4.103   1.073   1.007
 4993TIP3    H114985   4.039   1.055   0.939
 4993TIP3    H214986   4.149   1.151   0.977
 4994TIP3   OH214987   4.071   4.333   0.541
 4994TIP3    H114988   4.054   4.263   0.605
 4994TIP3    H214989   4.154   4.310   0.502
 4995TIP3   OH214990   2.027   4.737   1.359
 4995TIP3    H114991   2.115   4.738   1.321
 4995TIP3    H214992   1.998   4.828   1.354
 4996TIP3   OH214993  -0.010   3.481   4.067
 4996TIP3    H114994  -0.028   3.550   4.002
 4996TIP3    H214995   0.080   3.496   4.094
 4997TIP3   OH214996   0.055   1.891   4.976
 4997TIP3    H114997   0.055   1.975   5.022
 4997TIP3    H214998   0.131   1.896   4.918
 4998TIP3   OH214999   5.048   1.037   1.492
 4998TIP3    H115000   5.031   1.006   1.403
 4998TIP3    H215001   5.099   1.117   1.480
 4999TIP3   OH215002   1.707   5.119   1.951
 4999TIP3    H115003   1.716   5.176   2.028
 4999TIP3    H215004   1.641   5.163   1.897
 5000TIP3   OH215005   2.925   5.894   1.706
 5000TIP3    H115006   2.919   5.989   1.699
 5000TIP3    H215007   2.890   5.875   1.793
 5001TIP3   OH215008   3.754   5.457   1.255
 5001TIP3    H115009   3.740   5.363   1.266
 5001TIP3    H215010   3.791   5.485   1.339
 5002TIP3   OH215011   4.634   1.008   3.026
 5002TIP3    H115012   4.609   1.084   2.973
 5002TIP3    H215013   4.672   0.947   2.963
 5003TIP3   OH215014   4.296   5.208   2.553
 5003TIP3    H115015   4.319   5.202   2.461
 5003TIP3    H215016   4.291   5.117   2.582
 5004TIP3   OH215017   3.097   5.134   1.425
 5004TIP3    H115018   3.121   5.176   1.507
 5004TIP3    H215019   3.069   5.205   1.368
 5005TIP3   OH215020   5.549   3.219   1.151
 5005TIP3    H115021   5.491   3.292   1.172
 5005TIP3    H215022   5.617   3.257   1.096
 5006TIP3   OH215023   0.255   5.143   4.747
 5006TIP3    H115024   0.173   5.114   4.707
 5006TIP3    H215025   0.244   5.237   4.759
 5007TIP3   OH215026   3.868   2.317   5.041
 5007TIP3    H115027   3.874   2.241   4.982
 5007TIP3    H215028   3.934   2.378   5.007
 5008TIP3   OH215029   4.755   3.276   4.502
 5008TIP3    H115030   4.758   3.295   4.408
 5008TIP3    H215031   4.845   3.248   4.523
 5009TIP3   OH215032   2.995   0.205   0.497
 5009TIP3    H115033   3.033   0.285   0.459
 5009TIP3    H215034   2.951   0.235   0.577
 5010TIP3   OH215035   1.264   1.979   4.807
 5010TIP3    H115036   1.348   1.961   4.850
 5010TIP3    H215037   1.252   1.906   4.747
 5011TIP3   OH215038   4.218   1.816   4.013
 5011TIP3    H115039   4.157   1.815   4.087
 5011TIP3    H215040   4.187   1.888   3.958
 5012TIP3   OH215041   5.243   1.984   4.980
 5012TIP3    H115042   5.154   1.959   4.954
 5012TIP3    H215043   5.300   1.922   4.934
 5013TIP3   OH215044   2.571   3.953   3.782
 5013TIP3    H115045   2.544   4.040   3.810
 5013TIP3    H215046   2.600   3.964   3.692
 5014TIP3   OH215047   1.917   5.266   0.859
 5014TIP3    H115048   1.857   5.332   0.824
 5014TIP3    H215049   2.002   5.310   0.861
 5015TIP3   OH215050   5.123   4.335   0.538
 5015TIP3    H115051   5.147   4.284   0.615
 5015TIP3    H215052   5.042   4.380   0.562
 5016TIP3   OH215053   0.221   2.344   3.905
 5016TIP3    H115054   0.197   2.270   3.848
 5016TIP3    H215055   0.159   2.413   3.881
 5017TIP3   OH215056   5.855   2.693   0.739
 5017TIP3    H115057   5.849   2.783   0.707
 5017TIP3    H215058   5.806   2.641   0.676
 5018TIP3   OH215059   3.732   0.480   1.965
 5018TIP3    H115060   3.680   0.419   2.018
 5018TIP3    H215061   3.814   0.489   2.013
 5019TIP3   OH215062   4.526   2.780   0.868
 5019TIP3    H115063   4.572   2.808   0.789
 5019TIP3    H215064   4.503   2.861   0.912
 5020TIP3   OH215065   1.184   2.331   3.707
 5020TIP3    H115066   1.213   2.382   3.783
 5020TIP3    H215067   1.095   2.360   3.691
 5021TIP3   OH215068   1.333   3.827   1.015
 5021TIP3    H115069   1.374   3.742   1.001
 5021TIP3    H215070   1.294   3.820   1.102
 5022TIP3   OH215071   2.394   0.058   4.202
 5022TIP3    H115072   2.429   0.105   4.126
 5022TIP3    H215073   2.472   0.021   4.245
 5023TIP3   OH215074   1.547   2.588   3.692
 5023TIP3    H115075   1.465   2.591   3.741
 5023TIP3    H215076   1.593   2.511   3.727
 5024TIP3   OH215077   1.443   5.360   2.473
 5024TIP3    H115078   1.402   5.437   2.513
 5024TIP3    H215079   1.420   5.288   2.531
 5025TIP3   OH215080   1.109   0.583   0.350
 5025TIP3    H115081   1.187   0.598   0.297
 5025TIP3    H215082   1.102   0.488   0.356
 5026TIP3   OH215083   4.913   3.923   1.938
 5026TIP3    H115084   4.981   3.980   1.904
 5026TIP3    H215085   4.851   3.982   1.981
 5027TIP3   OH215086   1.528   4.525   2.390
 5027TIP3    H115087   1.585   4.449   2.383
 5027TIP3    H215088   1.443   4.489   2.413
 5028TIP3   OH215089   1.066   4.589   0.289
 5028TIP3    H115090   0.982   4.549   0.268
 5028TIP3    H215091   1.049   4.683   0.286
 5029TIP3   OH215092   5.615   3.533   3.541
 5029TIP3    H115093   5.670   3.527   3.619
 5029TIP3    H215094   5.596   3.626   3.533
 5030TIP3   OH215095   5.323   3.759   3.668
 5030TIP3    H115096   5.284   3.693   3.611
 5030TIP3    H215097   5.248   3.805   3.706
 5031TIP3   OH215098   1.277   2.918   0.934
 5031TIP3    H115099   1.300   2.829   0.960
 5031TIP3    H215100   1.241   2.908   0.846
 5032TIP3   OH215101   4.492   1.990   2.699
 5032TIP3    H115102   4.398   2.004   2.707
 5032TIP3    H215103   4.502   1.894   2.699
 5033TIP3   OH215104   5.215   2.493   3.846
 5033TIP3    H115105   5.127   2.526   3.868
 5033TIP3    H215106   5.216   2.404   3.882
 5034TIP3   OH215107   4.223   4.079   2.270
 5034TIP3    H115108   4.314   4.099   2.291
 5034TIP3    H215109   4.224   3.988   2.242
 5035TIP3   OH215110   6.168   5.593   2.858
 5035TIP3    H115111   6.219   5.569   2.935
 5035TIP3    H215112   6.120   5.514   2.834
 5036TIP3   OH215113   0.523   2.705   1.842
 5036TIP3    H115114   0.544   2.643   1.912
 5036TIP3    H215115   0.439   2.742   1.867
 5037TIP3   OH215116   1.264   2.021   3.879
 5037TIP3    H115117   1.240   2.023   3.786
 5037TIP3    H215118   1.187   2.055   3.925
 5038TIP3   OH215119   1.711   0.673   0.906
 5038TIP3    H115120   1.621   0.642   0.896
 5038TIP3    H215121   1.724   0.679   1.000
 5039TIP3   OH215122   0.885   4.471   1.671
 5039TIP3    H115123   0.950   4.463   1.602
 5039TIP3    H215124   0.802   4.479   1.625
 5040TIP3   OH215125   0.748   0.877   1.966
 5040TIP3    H115126   0.681   0.822   2.006
 5040TIP3    H215127   0.822   0.873   2.027
 5041TIP3   OH215128   4.746   4.006   3.451
 5041TIP3    H115129   4.693   4.006   3.371
 5041TIP3    H215130   4.687   3.973   3.519
 5042TIP3   OH215131   0.277   5.281   2.289
 5042TIP3    H115132   0.295   5.367   2.251
 5042TIP3    H215133   0.359   5.233   2.279
 5043TIP3   OH215134   2.965   5.752   1.295
 5043TIP3    H115135   3.000   5.719   1.378
 5043TIP3    H215136   3.031   5.814   1.264
 5044TIP3   OH215137   0.191   0.270   0.775
 5044TIP3    H115138   0.129   0.219   0.827
 5044TIP3    H215139   0.155   0.359   0.776
 5045TIP3   OH215140   6.138   5.450   4.481
 5045TIP3    H115141   6.066   5.397   4.447
 5045TIP3    H215142   6.184   5.481   4.403
 5046TIP3   OH215143  -0.011   4.229   0.630
 5046TIP3    H115144  -0.017   4.256   0.721
 5046TIP3    H215145   0.075   4.257   0.601
 5047TIP3   OH215146   0.889   2.451   3.734
 5047TIP3    H115147   0.869   2.468   3.642
 5047TIP3    H215148   0.934   2.531   3.764
 5048TIP3   OH215149   5.273   4.242   4.599
 5048TIP3    H115150   5.206   4.175   4.585
 5048TIP3    H215151   5.356   4.195   4.591
 5049TIP3   OH215152   0.969   1.877   0.750
 5049TIP3    H115153   1.039   1.887   0.814
 5049TIP3    H215154   0.955   1.782   0.744
 5050TIP3   OH215155   6.288   4.685   2.007
 5050TIP3    H115156   6.236   4.760   2.034
 5050TIP3    H215157   6.273   4.677   1.913
 5051TIP3   OH215158   5.896   5.095   0.962
 5051TIP3    H115159   5.961   5.163   0.939
 5051TIP3    H215160   5.827   5.143   1.008
 5052TIP3   OH215161   0.753   3.047   3.443
 5052TIP3    H115162   0.698   3.126   3.445
 5052TIP3    H215163   0.737   3.009   3.357
 5053TIP3   OH215164   2.821   2.606   4.161
 5053TIP3    H115165   2.885   2.612   4.232
 5053TIP3    H215166   2.761   2.537   4.189
 5054TIP3   OH215167   2.663   5.073   2.119
 5054TIP3    H115168   2.651   5.046   2.210
 5054TIP3    H215169   2.658   4.991   2.069
 5055TIP3   OH215170   5.607   0.259   0.723
 5055TIP3    H115171   5.533   0.198   0.733
 5055TIP3    H215172   5.566   0.346   0.723
 5056TIP3   OH215173   5.352   4.167   3.039
 5056TIP3    H115174   5.385   4.086   3.077
 5056TIP3    H215175   5.420   4.194   2.978
 5057TIP3   OH215176   3.925   3.105   3.047
 5057TIP3    H115177   3.976   3.110   2.966
 5057TIP3    H215178   3.987   3.130   3.115
 5058TIP3   OH215179   1.508   2.953   4.734
 5058TIP3    H115180   1.476   2.885   4.674
 5058TIP3    H215181   1.477   2.926   4.820
 5059TIP3   OH215182   2.438   5.737   1.741
 5059TIP3    H115183   2.360   5.734   1.796
 5059TIP3    H215184   2.489   5.660   1.766
 5060TIP3   OH215185   0.623   0.082   4.428
 5060TIP3    H115186   0.660   0.090   4.516
 5060TIP3    H215187   0.541   0.131   4.433
 5061TIP3   OH215188   2.141   1.496   1.336
 5061TIP3    H115189   2.068   1.517   1.394
 5061TIP3    H215190   2.218   1.530   1.381
 5062TIP3   OH215191   3.700   0.310   0.875
 5062TIP3    H115192   3.767   0.373   0.848
 5062TIP3    H215193   3.729   0.279   0.961
 5063TIP3   OH215194   1.026   2.750   0.792
 5063TIP3    H115195   1.041   2.657   0.777
 5063TIP3    H215196   1.091   2.795   0.738
 5064TIP3   OH215197   2.153   4.778   0.580
 5064TIP3    H115198   2.127   4.727   0.503
 5064TIP3    H215199   2.171   4.866   0.545
 5065TIP3   OH215200   2.704   3.767   0.967
 5065TIP3    H115201   2.610   3.752   0.970
 5065TIP3    H215202   2.713   3.859   0.944
 5066TIP3   OH215203   6.028   0.534   2.359
 5066TIP3    H115204   6.056   0.448   2.327
 5066TIP3    H215205   6.054   0.535   2.451
 5067TIP3   OH215206   2.694   5.329   2.042
 5067TIP3    H115207   2.675   5.235   2.052
 5067TIP3    H215208   2.775   5.341   2.091
 5068TIP3   OH215209   2.172   4.916   4.207
 5068TIP3    H115210   2.204   4.964   4.283
 5068TIP3    H215211   2.162   4.983   4.139
 5069TIP3   OH215212   0.299   3.890   4.777
 5069TIP3    H115213   0.323   3.803   4.747
 5069TIP3    H215214   0.347   3.901   4.860
 5070TIP3   OH215215   4.589   2.680   4.653
 5070TIP3    H115216   4.681   2.656   4.646
 5070TIP3    H215217   4.586   2.743   4.725
 5071TIP3   OH215218   0.168   3.028   4.704
 5071TIP3    H115219   0.188   3.036   4.611
 5071TIP3    H215220   0.185   3.115   4.740
 5072TIP3   OH215221   1.422   5.534   1.498
 5072TIP3    H115222   1.448   5.471   1.431
 5072TIP3    H215223   1.396   5.481   1.573
 5073TIP3   OH215224   3.235   0.415   3.452
 5073TIP3    H115225   3.259   0.371   3.371
 5073TIP3    H215226   3.169   0.479   3.426
 5074TIP3   OH215227   2.745   2.276   0.187
 5074TIP3    H115228   2.761   2.192   0.144
 5074TIP3    H215229   2.659   2.267   0.227
 5075TIP3   OH215230   3.940   4.169   0.963
 5075TIP3    H115231   3.875   4.154   1.031
 5075TIP3    H215232   3.953   4.083   0.922
 5076TIP3   OH215233   2.885   4.369   0.500
 5076TIP3    H115234   2.901   4.416   0.581
 5076TIP3    H215235   2.871   4.278   0.527
 5077TIP3   OH215236   1.310   4.456   0.328
 5077TIP3    H115237   1.225   4.457   0.285
 5077TIP3    H215238   1.346   4.544   0.314
 5078TIP3   OH215239   3.312   4.361   2.420
 5078TIP3    H115240   3.298   4.456   2.421
 5078TIP3    H215241   3.229   4.325   2.388
 5079TIP3   OH215242   2.850   0.521   2.866
 5079TIP3    H115243   2.855   0.467   2.944
 5079TIP3    H215244   2.838   0.611   2.899
 5080TIP3   OH215245   5.613   5.469   1.728
 5080TIP3    H115246   5.612   5.502   1.818
 5080TIP3    H215247   5.577   5.380   1.735
 5081TIP3   OH215248   0.053   1.119   2.007
 5081TIP3    H115249   0.080   1.055   2.074
 5081TIP3    H215250  -0.028   1.082   1.970
 5082TIP3   OH215251   2.623   0.603   2.678
 5082TIP3    H115252   2.583   0.620   2.763
 5082TIP3    H215253   2.715   0.590   2.697
 5083TIP3   OH215254   3.154   0.302   4.662
 5083TIP3    H115255   3.221   0.370   4.662
 5083TIP3    H215256   3.203   0.220   4.673
 5084TIP3   OH215257   4.748   5.840   1.511
 5084TIP3    H115258   4.710   5.864   1.596
 5084TIP3    H215259   4.719   5.910   1.451
 5085TIP3   OH215260   2.525   4.683   4.177
 5085TIP3    H115261   2.440   4.705   4.139
 5085TIP3    H215262   2.510   4.601   4.224
 5086TIP3   OH215263   2.385   1.234   3.310
 5086TIP3    H115264   2.457   1.282   3.269
 5086TIP3    H215265   2.335   1.198   3.237
 5087TIP3   OH215266   2.132   0.819   0.262
 5087TIP3    H115267   2.128   0.823   0.357
 5087TIP3    H215268   2.073   0.888   0.232
 5088TIP3   OH215269   4.959   1.181   0.987
 5088TIP3    H115270   4.915   1.265   0.978
 5088TIP3    H215271   5.052   1.201   0.974
 5089TIP3   OH215272   2.530   3.109   4.861
 5089TIP3    H115273   2.586   3.090   4.786
 5089TIP3    H215274   2.564   3.192   4.896
 5090TIP3   OH215275   5.327   2.745   3.890
 5090TIP3    H115276   5.291   2.656   3.888
 5090TIP3    H215277   5.274   2.794   3.827
 5091TIP3   OH215278   1.462   3.882   1.826
 5091TIP3    H115279   1.528   3.933   1.778
 5091TIP3    H215280   1.397   3.947   1.854
 5092TIP3   OH215281   2.433   1.175   4.749
 5092TIP3    H115282   2.427   1.081   4.762
 5092TIP3    H215283   2.362   1.196   4.689
 5093TIP3   OH215284   4.666   3.411   1.426
 5093TIP3    H115285   4.718   3.334   1.404
 5093TIP3    H215286   4.703   3.441   1.509
 5094TIP3   OH215287   3.208   4.618   2.608
 5094TIP3    H115288   3.223   4.640   2.516
 5094TIP3    H215289   3.114   4.602   2.614
 5095TIP3   OH215290   4.129   5.005   4.907
 5095TIP3    H115291   4.211   4.980   4.950
 5095TIP3    H215292   4.061   4.975   4.967
 5096TIP3   OH215293   2.861   5.512   3.695
 5096TIP3    H115294   2.826   5.587   3.646
 5096TIP3    H215295   2.805   5.439   3.669
 5097TIP3   OH215296   6.335   2.546   0.802
 5097TIP3    H115297   6.297   2.463   0.831
 5097TIP3    H215298   6.360   2.530   0.711
 5098TIP3   OH215299   6.327   1.273   0.831
 5098TIP3    H115300   6.379   1.346   0.797
 5098TIP3    H215301   6.245   1.314   0.861
 5099TIP3   OH215302   5.237   5.673   3.034
 5099TIP3    H115303   5.314   5.633   3.073
 5099TIP3    H215304   5.265   5.701   2.947
 5100TIP3   OH215305   0.786   3.540   5.050
 5100TIP3    H115306   0.787   3.510   4.959
 5100TIP3    H215307   0.711   3.496   5.090
 5101TIP3   OH215308   4.420   2.287   3.548
 5101TIP3    H115309   4.445   2.355   3.486
 5101TIP3    H215310   4.328   2.269   3.529
 5102TIP3   OH215311   5.785   4.111   1.164
 5102TIP3    H115312   5.760   4.196   1.128
 5102TIP3    H215313   5.704   4.075   1.200
 5103TIP3   OH215314   0.360   5.547   0.340
 5103TIP3    H115315   0.372   5.530   0.247
 5103TIP3    H215316   0.300   5.477   0.369
 5104TIP3   OH215317   3.534   2.956   2.614
 5104TIP3    H115318   3.549   3.026   2.677
 5104TIP3    H215319   3.583   2.881   2.649
 5105TIP3   OH215320   2.040   2.988   0.083
 5105TIP3    H115321   2.107   2.932   0.044
 5105TIP3    H215322   1.961   2.935   0.083
 5106TIP3   OH215323   3.676   5.037   2.410
 5106TIP3    H115324   3.614   4.971   2.443
 5106TIP3    H215325   3.756   5.020   2.460
 5107TIP3   OH215326   6.300   1.769   2.570
 5107TIP3    H115327   6.373   1.821   2.535
 5107TIP3    H215328   6.235   1.770   2.500
 5108TIP3   OH215329   1.677   3.057   1.953
 5108TIP3    H115330   1.699   3.150   1.958
 5108TIP3    H215331   1.737   3.014   2.013
 5109TIP3   OH215332   4.082   1.252   3.260
 5109TIP3    H115333   4.058   1.159   3.253
 5109TIP3    H215334   4.079   1.270   3.354
 5110TIP3   OH215335   0.092   2.879   1.391
 5110TIP3    H115336   0.184   2.902   1.382
 5110TIP3    H215337   0.082   2.799   1.340
 5111TIP3   OH215338   3.351   3.201   1.494
 5111TIP3    H115339   3.294   3.203   1.570
 5111TIP3    H215340   3.296   3.229   1.421
 5112TIP3   OH215341   0.065   0.260   4.488
 5112TIP3    H115342   0.102   0.314   4.418
 5112TIP3    H215343   0.113   0.178   4.484
 5113TIP3   OH215344   4.269   2.718   0.487
 5113TIP3    H115345   4.306   2.670   0.561
 5113TIP3    H215346   4.277   2.810   0.511
 5114TIP3   OH215347   2.757   1.226   2.676
 5114TIP3    H115348   2.694   1.187   2.737
 5114TIP3    H215349   2.755   1.319   2.696
 5115TIP3   OH215350   2.822   0.547   4.950
 5115TIP3    H115351   2.792   0.638   4.959
 5115TIP3    H215352   2.807   0.508   5.036
 5116TIP3   OH215353   2.875   1.961   2.994
 5116TIP3    H115354   2.892   1.877   2.951
 5116TIP3    H215355   2.812   1.940   3.063
 5117TIP3   OH215356   3.550   0.306   0.061
 5117TIP3    H115357   3.512   0.218   0.062
 5117TIP3    H215358   3.642   0.293   0.081
 5118TIP3   OH215359   0.543   1.677   0.083
 5118TIP3    H115360   0.534   1.772   0.089
 5118TIP3    H215361   0.625   1.658   0.130
 5119TIP3   OH215362   3.971   4.903   1.359
 5119TIP3    H115363   4.056   4.868   1.385
 5119TIP3    H215364   3.958   4.980   1.414
 5120TIP3   OH215365   0.848   1.925   1.403
 5120TIP3    H115366   0.942   1.906   1.405
 5120TIP3    H215367   0.807   1.839   1.401
 5121TIP3   OH215368   5.213   3.569   2.042
 5121TIP3    H115369   5.275   3.583   1.971
 5121TIP3    H215370   5.189   3.657   2.071
 5122TIP3   OH215371   4.009   4.106   1.678
 5122TIP3    H115372   4.056   4.040   1.627
 5122TIP3    H215373   4.007   4.071   1.767
 5123TIP3   OH215374   4.145   3.737   2.777
 5123TIP3    H115375   4.082   3.806   2.760
 5123TIP3    H215376   4.137   3.719   2.871
 5124TIP3   OH215377   1.109   1.533   0.906
 5124TIP3    H115378   1.113   1.614   0.958
 5124TIP3    H215379   1.185   1.539   0.848
 5125TIP3   OH215380   2.562   2.184   4.778
 5125TIP3    H115381   2.612   2.232   4.843
 5125TIP3    H215382   2.490   2.243   4.754
 5126TIP3   OH215383   1.358   0.149   0.980
 5126TIP3    H115384   1.402   0.210   1.040
 5126TIP3    H215385   1.340   0.202   0.902
 5127TIP3   OH215386   1.177   0.988   0.293
 5127TIP3    H115387   1.102   0.934   0.320
 5127TIP3    H215388   1.214   0.941   0.218
 5128TIP3   OH215389   3.101   4.619   2.083
 5128TIP3    H115390   3.016   4.582   2.061
 5128TIP3    H215391   3.087   4.714   2.079
 5129TIP3   OH215392   1.163   0.284   0.407
 5129TIP3    H115393   1.241   0.337   0.390
 5129TIP3    H215394   1.196   0.195   0.416
 5130TIP3   OH215395   5.920   3.153   3.045
 5130TIP3    H115396   5.874   3.160   3.128
 5130TIP3    H215397   5.922   3.243   3.011
 5131TIP3   OH215398   3.407   2.643   2.785
 5131TIP3    H115399   3.434   2.556   2.758
 5131TIP3    H215400   3.351   2.628   2.862
 5132TIP3   OH215401   4.871   1.195   2.194
 5132TIP3    H115402   4.813   1.268   2.213
 5132TIP3    H215403   4.894   1.159   2.280
 5133TIP3   OH215404   0.083   5.618   0.463
 5133TIP3    H115405   0.097   5.525   0.446
 5133TIP3    H215406   0.134   5.663   0.396
 5134TIP3   OH215407   2.804   5.094   4.467
 5134TIP3    H115408   2.812   5.000   4.450
 5134TIP3    H215409   2.892   5.121   4.493
 5135TIP3   OH215410   2.155   3.793   3.513
 5135TIP3    H115411   2.147   3.699   3.496
 5135TIP3    H215412   2.225   3.800   3.578
 5136TIP3   OH215413   2.210   1.290   0.217
 5136TIP3    H115414   2.204   1.384   0.201
 5136TIP3    H215415   2.289   1.280   0.271
 5137TIP3   OH215416   0.605   3.079   2.668
 5137TIP3    H115417   0.682   3.135   2.684
 5137TIP3    H215418   0.635   3.016   2.603
 5138TIP3   OH215419   5.466   4.697   3.236
 5138TIP3    H115420   5.470   4.783   3.279
 5138TIP3    H215421   5.372   4.680   3.226
 5139TIP3   OH215422   1.662   3.520   2.499
 5139TIP3    H115423   1.590   3.533   2.438
 5139TIP3    H215424   1.722   3.593   2.480
 5140TIP3   OH215425   4.193   2.191   3.400
 5140TIP3    H115426   4.186   2.253   3.328
 5140TIP3    H215427   4.109   2.145   3.400
 5141TIP3   OH215428   1.366   5.563   1.006
 5141TIP3    H115429   1.279   5.543   1.040
 5141TIP3    H215430   1.410   5.610   1.077
 5142TIP3   OH215431   0.587   2.789   0.318
 5142TIP3    H115432   0.542   2.766   0.399
 5142TIP3    H215433   0.531   2.855   0.277
 5143TIP3   OH215434   1.621   1.259   0.915
 5143TIP3    H115435   1.557   1.326   0.895
 5143TIP3    H215436   1.649   1.279   1.004
 5144TIP3   OH215437   3.251   2.691   0.054
 5144TIP3    H115438   3.182   2.756   0.067
 5144TIP3    H215439   3.319   2.738   0.006
 5145TIP3   OH215440   0.729   2.687   1.672
 5145TIP3    H115441   0.796   2.640   1.721
 5145TIP3    H215442   0.663   2.712   1.737
 5146TIP3   OH215443   3.672   4.836   3.259
 5146TIP3    H115444   3.762   4.806   3.275
 5146TIP3    H215445   3.665   4.916   3.311
 5147TIP3   OH215446   4.827   4.475   4.744
 5147TIP3    H115447   4.790   4.398   4.787
 5147TIP3    H215448   4.827   4.543   4.811
 5148TIP3   OH215449   1.189   0.142   2.142
 5148TIP3    H115450   1.225   0.091   2.069
 5148TIP3    H215451   1.102   0.168   2.112
 5149TIP3   OH215452   0.444   3.674   3.357
 5149TIP3    H115453   0.377   3.734   3.387
 5149TIP3    H215454   0.407   3.587   3.371
 5150TIP3   OH215455   5.868   1.564   4.469
 5150TIP3    H115456   5.788   1.612   4.448
 5150TIP3    H215457   5.880   1.577   4.564
 5151TIP3   OH215458   5.479   2.382   4.272
 5151TIP3    H115459   5.528   2.442   4.329
 5151TIP3    H215460   5.388   2.395   4.297
 5152TIP3   OH215461   2.064   4.479   3.519
 5152TIP3    H115462   2.131   4.428   3.563
 5152TIP3    H215463   1.981   4.442   3.549
 5153TIP3   OH215464   4.582   4.171   4.221
 5153TIP3    H115465   4.586   4.137   4.310
 5153TIP3    H215466   4.602   4.264   4.230
 5154TIP3   OH215467   1.054   3.616   1.736
 5154TIP3    H115468   1.048   3.523   1.716
 5154TIP3    H215469   1.146   3.638   1.723
 5155TIP3   OH215470   2.441   5.230   1.691
 5155TIP3    H115471   2.414   5.320   1.673
 5155TIP3    H215472   2.536   5.231   1.685
 5156TIP3   OH215473   3.124   2.737   1.668
 5156TIP3    H115474   3.094   2.674   1.603
 5156TIP3    H215475   3.067   2.813   1.654
 5157TIP3   OH215476   3.210   1.865   0.540
 5157TIP3    H115477   3.286   1.853   0.596
 5157TIP3    H215478   3.246   1.864   0.451
 5158TIP3   OH215479   3.823   4.739   0.170
 5158TIP3    H115480   3.896   4.737   0.231
 5158TIP3    H215481   3.745   4.751   0.225
 5159TIP3   OH215482   0.064   0.601   0.947
 5159TIP3    H115483   0.112   0.587   0.866
 5159TIP3    H215484  -0.028   0.590   0.923
 5160TIP3   OH215485   1.580   0.678   5.196
 5160TIP3    H115486   1.561   0.727   5.116
 5160TIP3    H215487   1.585   0.587   5.168
 5161TIP3   OH215488   5.004   1.820   1.670
 5161TIP3    H115489   5.002   1.809   1.575
 5161TIP3    H215490   5.070   1.886   1.686
 5162TIP3   OH215491   2.436   5.884   4.279
 5162TIP3    H115492   2.509   5.930   4.321
 5162TIP3    H215493   2.453   5.792   4.294
 5163TIP3   OH215494   3.682   1.282   2.542
 5163TIP3    H115495   3.591   1.268   2.567
 5163TIP3    H215496   3.725   1.310   2.623
 5164TIP3   OH215497   1.625   5.036   4.546
 5164TIP3    H115498   1.621   5.052   4.452
 5164TIP3    H215499   1.700   5.088   4.576
 5165TIP3   OH215500   1.635   0.519   4.837
 5165TIP3    H115501   1.725   0.552   4.842
 5165TIP3    H215502   1.620   0.478   4.922
 5166TIP3   OH215503   3.338   2.325   4.323
 5166TIP3    H115504   3.331   2.250   4.382
 5166TIP3    H215505   3.248   2.346   4.299
 5167TIP3   OH215506   0.838   5.429   3.171
 5167TIP3    H115507   0.763   5.427   3.111
 5167TIP3    H215508   0.892   5.355   3.145
 5168TIP3   OH215509   3.224   5.467   1.188
 5168TIP3    H115510   3.266   5.400   1.242
 5168TIP3    H215511   3.231   5.435   1.098
 5169TIP3   OH215512   1.420   4.704   0.231
 5169TIP3    H115513   1.371   4.781   0.260
 5169TIP3    H215514   1.503   4.740   0.199
 5170TIP3   OH215515   6.276   4.215   1.946
 5170TIP3    H115516   6.220   4.164   2.004
 5170TIP3    H215517   6.318   4.279   2.003
 5171TIP3   OH215518   5.610   5.856   0.974
 5171TIP3    H115519   5.523   5.845   1.012
 5171TIP3    H215520   5.633   5.947   0.992
 5172TIP3   OH215521   6.039   2.611   0.937
 5172TIP3    H115522   6.114   2.670   0.950
 5172TIP3    H215523   5.982   2.658   0.877
 5173TIP3   OH215524   2.416   1.775   4.099
 5173TIP3    H115525   2.401   1.714   4.027
 5173TIP3    H215526   2.508   1.801   4.090
 5174TIP3   OH215527   0.726   4.618   4.706
 5174TIP3    H115528   0.786   4.544   4.704
 5174TIP3    H215529   0.653   4.589   4.761
 5175TIP3   OH215530   0.547   2.110   2.808
 5175TIP3    H115531   0.610   2.098   2.737
 5175TIP3    H215532   0.537   2.023   2.846
 5176TIP3   OH215533   4.914   0.110   3.900
 5176TIP3    H115534   4.846   0.055   3.862
 5176TIP3    H215535   4.996   0.072   3.868
 5177TIP3   OH215536   0.261   4.296   0.517
 5177TIP3    H115537   0.342   4.246   0.524
 5177TIP3    H215538   0.219   4.263   0.437
 5178TIP3   OH215539   5.839   2.290   1.955
 5178TIP3    H115540   5.902   2.233   1.910
 5178TIP3    H215541   5.893   2.354   2.001
 5179TIP3   OH215542   0.416   5.893   1.731
 5179TIP3    H115543   0.412   5.817   1.789
 5179TIP3    H215544   0.468   5.957   1.779
 5180TIP3   OH215545   2.521   5.526   4.718
 5180TIP3    H115546   2.480   5.595   4.770
 5180TIP3    H215547   2.453   5.496   4.658
 5181TIP3   OH215548   4.290   1.378   1.230
 5181TIP3    H115549   4.217   1.329   1.268
 5181TIP3    H215550   4.302   1.452   1.288
 5182TIP3   OH215551   5.720   1.376   0.826
 5182TIP3    H115552   5.698   1.379   0.919
 5182TIP3    H215553   5.750   1.465   0.806
 5183TIP3   OH215554   5.773   1.269   1.673
 5183TIP3    H115555   5.768   1.176   1.694
 5183TIP3    H215556   5.750   1.314   1.754
 5184TIP3   OH215557   4.349   4.967   5.125
 5184TIP3    H115558   4.334   4.986   5.218
 5184TIP3    H215559   4.298   4.888   5.109
 5185TIP3   OH215560   6.287   3.042   2.147
 5185TIP3    H115561   6.193   3.035   2.134
 5185TIP3    H215562   6.300   3.025   2.240
 5186TIP3   OH215563   3.523   3.223   3.883
 5186TIP3    H115564   3.604   3.179   3.855
 5186TIP3    H215565   3.534   3.235   3.977
 5187TIP3   OH215566   3.662   3.235   5.000
 5187TIP3    H115567   3.624   3.239   5.088
 5187TIP3    H215568   3.667   3.326   4.972
 5188TIP3   OH215569   1.866   5.116   4.710
 5188TIP3    H115570   1.933   5.078   4.653
 5188TIP3    H215571   1.860   5.055   4.783
 5189TIP3   OH215572   2.946   3.536   3.662
 5189TIP3    H115573   2.975   3.484   3.587
 5189TIP3    H215574   2.856   3.507   3.677
 5190TIP3   OH215575   2.287   0.861   0.868
 5190TIP3    H115576   2.233   0.782   0.862
 5190TIP3    H215577   2.262   0.913   0.792
 5191TIP3   OH215578   6.206   3.398   4.307
 5191TIP3    H115579   6.282   3.370   4.359
 5191TIP3    H215580   6.243   3.447   4.234
 5192TIP3   OH215581   1.708   1.472   1.371
 5192TIP3    H115582   1.787   1.515   1.339
 5192TIP3    H215583   1.665   1.538   1.426
 5193TIP3   OH215584   1.832   5.866   0.180
 5193TIP3    H115585   1.836   5.870   0.276
 5193TIP3    H215586   1.877   5.784   0.158
 5194TIP3   OH215587   2.122   5.958   1.061
 5194TIP3    H115588   2.055   5.940   0.994
 5194TIP3    H215589   2.093   5.908   1.137
 5195TIP3   OH215590   5.756   3.485   0.617
 5195TIP3    H115591   5.663   3.463   0.622
 5195TIP3    H215592   5.795   3.439   0.691
 5196TIP3   OH215593   5.037   4.953   4.890
 5196TIP3    H115594   5.064   4.980   4.802
 5196TIP3    H215595   4.971   5.018   4.914
 5197TIP3   OH215596   5.205   3.328   3.859
 5197TIP3    H115597   5.206   3.422   3.842
 5197TIP3    H215598   5.188   3.321   3.953
 5198TIP3   OH215599   4.558   4.057   5.027
 5198TIP3    H115600   4.564   4.015   5.113
 5198TIP3    H215601   4.481   4.018   4.986
 5199TIP3   OH215602   4.531   3.982   0.375
 5199TIP3    H115603   4.452   3.977   0.320
 5199TIP3    H215604   4.568   4.068   0.356
 5200TIP3   OH215605   3.421   3.217   2.003
 5200TIP3    H115606   3.478   3.286   2.036
 5200TIP3    H215607   3.356   3.204   2.072
 5201TIP3   OH215608   0.547   5.737   2.110
 5201TIP3    H115609   0.529   5.828   2.086
 5201TIP3    H215610   0.463   5.703   2.140
 5202TIP3   OH215611   3.918   4.476   1.021
 5202TIP3    H115612   3.892   4.515   1.104
 5202TIP3    H215613   3.940   4.385   1.044
 5203TIP3   OH215614   3.393   2.362   4.912
 5203TIP3    H115615   3.439   2.380   4.994
 5203TIP3    H215616   3.393   2.445   4.865
 5204TIP3   OH215617   3.399   1.534   5.118
 5204TIP3    H115618   3.417   1.447   5.083
 5204TIP3    H215619   3.397   1.521   5.213
 5205TIP3   OH215620   3.512   2.833   2.117
 5205TIP3    H115621   3.546   2.836   2.207
 5205TIP3    H215622   3.491   2.740   2.103
 5206TIP3   OH215623   4.394   4.904   4.605
 5206TIP3    H115624   4.456   4.964   4.646
 5206TIP3    H215625   4.448   4.829   4.578
 5207TIP3   OH215626   6.063   5.665   5.135
 5207TIP3    H115627   5.982   5.702   5.170
 5207TIP3    H215628   6.036   5.587   5.087
 5208TIP3   OH215629   0.655   2.874   4.082
 5208TIP3    H115630   0.581   2.915   4.126
 5208TIP3    H215631   0.720   2.943   4.073
 5209TIP3   OH215632   1.068   1.389   1.445
 5209TIP3    H115633   1.067   1.427   1.357
 5209TIP3    H215634   0.984   1.413   1.483
 5210TIP3   OH215635   2.602   4.662   3.685
 5210TIP3    H115636   2.531   4.599   3.675
 5210TIP3    H215637   2.618   4.666   3.780
 5211TIP3   OH215638   6.348   5.936   4.523
 5211TIP3    H115639   6.314   5.857   4.481
 5211TIP3    H215640   6.312   5.933   4.611
 5212TIP3   OH215641   6.016   5.868   1.052
 5212TIP3    H115642   5.955   5.931   1.014
 5212TIP3    H215643   5.960   5.798   1.086
 5213TIP3   OH215644   4.269   4.208   3.566
 5213TIP3    H115645   4.204   4.171   3.627
 5213TIP3    H215646   4.244   4.174   3.481
 5214TIP3   OH215647   4.872   0.368   1.774
 5214TIP3    H115648   4.867   0.460   1.799
 5214TIP3    H215649   4.791   0.352   1.724
 5215TIP3   OH215650   5.747   3.864   4.895
 5215TIP3    H115651   5.762   3.936   4.834
 5215TIP3    H215652   5.653   3.868   4.913
 5216TIP3   OH215653   3.074   2.366   3.635
 5216TIP3    H115654   3.032   2.317   3.564
 5216TIP3    H215655   3.008   2.431   3.662
 5217TIP3   OH215656   3.700   4.008   4.109
 5217TIP3    H115657   3.714   4.016   4.014
 5217TIP3    H215658   3.606   4.019   4.121
 5218TIP3   OH215659   5.995   1.186   1.003
 5218TIP3    H115660   6.011   1.266   0.952
 5218TIP3    H215661   5.924   1.209   1.062
 5219TIP3   OH215662   5.245   5.445   0.618
 5219TIP3    H115663   5.243   5.540   0.603
 5219TIP3    H215664   5.332   5.418   0.589
 5220TIP3   OH215665   5.524   3.845   0.106
 5220TIP3    H115666   5.481   3.837   0.191
 5220TIP3    H215667   5.507   3.935   0.078
 5221TIP3   OH215668   1.135   5.187   2.861
 5221TIP3    H115669   1.230   5.180   2.853
 5221TIP3    H215670   1.102   5.101   2.834
 5222TIP3   OH215671   0.603   4.863   0.255
 5222TIP3    H115672   0.658   4.917   0.198
 5222TIP3    H215673   0.588   4.918   0.332
 5223TIP3   OH215674   3.668   1.482   0.822
 5223TIP3    H115675   3.747   1.511   0.867
 5223TIP3    H215676   3.596   1.524   0.869
 5224TIP3   OH215677   6.074   0.933   4.779
 5224TIP3    H115678   6.095   0.888   4.861
 5224TIP3    H215679   6.047   0.862   4.720
 5225TIP3   OH215680   5.773   5.666   5.193
 5225TIP3    H115681   5.696   5.723   5.186
 5225TIP3    H215682   5.737   5.578   5.189
 5226TIP3   OH215683   5.104   5.543   3.443
 5226TIP3    H115684   5.039   5.613   3.435
 5226TIP3    H215685   5.188   5.589   3.439
 5227TIP3   OH215686   0.379   0.408   0.938
 5227TIP3    H115687   0.331   0.419   1.020
 5227TIP3    H215688   0.329   0.342   0.889
 5228TIP3   OH215689   4.985   4.387   4.322
 5228TIP3    H115690   5.012   4.420   4.408
 5228TIP3    H215691   5.033   4.305   4.312
 5229TIP3   OH215692   1.039   1.039   3.556
 5229TIP3    H115693   1.089   0.958   3.546
 5229TIP3    H215694   1.096   1.107   3.520
 5230TIP3   OH215695   3.220   3.621   1.317
 5230TIP3    H115696   3.183   3.701   1.354
 5230TIP3    H215697   3.294   3.651   1.263
 5231TIP3   OH215698   2.387   2.712   0.792
 5231TIP3    H115699   2.305   2.664   0.781
 5231TIP3    H215700   2.453   2.643   0.805
 5232TIP3   OH215701   0.237   0.683   2.798
 5232TIP3    H115702   0.280   0.767   2.784
 5232TIP3    H215703   0.275   0.649   2.878
 5233TIP3   OH215704   0.495   1.741   3.482
 5233TIP3    H115705   0.479   1.772   3.393
 5233TIP3    H215706   0.587   1.759   3.498
 5234TIP3   OH215707   1.547   3.747   3.212
 5234TIP3    H115708   1.492   3.782   3.282
 5234TIP3    H215709   1.622   3.806   3.208
 5235TIP3   OH215710   3.079   4.949   0.135
 5235TIP3    H115711   3.102   4.980   0.223
 5235TIP3    H215712   3.113   5.017   0.076
 5236TIP3   OH215713   3.563   2.343   1.960
 5236TIP3    H115714   3.485   2.321   1.909
 5236TIP3    H215715   3.616   2.263   1.960
 5237TIP3   OH215716   0.773   2.329   0.271
 5237TIP3    H115717   0.865   2.314   0.248
 5237TIP3    H215718   0.755   2.418   0.241
 5238TIP3   OH215719   5.046   4.759   0.981
 5238TIP3    H115720   4.979   4.711   1.030
 5238TIP3    H215721   5.007   4.773   0.895
 5239TIP3   OH215722   1.003   5.975   0.579
 5239TIP3    H115723   0.985   6.063   0.546
 5239TIP3    H215724   0.917   5.933   0.582
 5240TIP3   OH215725   5.315   0.717   3.134
 5240TIP3    H115726   5.300   0.662   3.057
 5240TIP3    H215727   5.392   0.769   3.111
 5241TIP3   OH215728   3.412   4.846   2.141
 5241TIP3    H115729   3.408   4.785   2.067
 5241TIP3    H215730   3.490   4.820   2.190
 5242TIP3   OH215731   2.255   5.358   3.485
 5242TIP3    H115732   2.245   5.413   3.562
 5242TIP3    H215733   2.172   5.310   3.478
 5243TIP3   OH215734   2.446   4.655   2.371
 5243TIP3    H115735   2.430   4.694   2.285
 5243TIP3    H215736   2.538   4.629   2.369
 5244TIP3   OH215737   1.969   3.628   2.025
 5244TIP3    H115738   1.910   3.590   2.090
 5244TIP3    H215739   1.978   3.560   1.959
 5245TIP3   OH215740   0.715   5.032   0.095
 5245TIP3    H115741   0.667   4.999   0.019
 5245TIP3    H215742   0.789   5.080   0.057
 5246TIP3   OH215743   0.453   4.234   1.942
 5246TIP3    H115744   0.511   4.247   1.867
 5246TIP3    H215745   0.469   4.309   1.998
 5247TIP3   OH215746   0.726   4.101   1.862
 5247TIP3    H115747   0.786   4.041   1.818
 5247TIP3    H215748   0.747   4.093   1.954
 5248TIP3   OH215749   6.170   1.020   3.917
 5248TIP3    H115750   6.201   1.109   3.933
 5248TIP3    H215751   6.248   0.972   3.888
 5249TIP3   OH215752   2.517   1.617   5.054
 5249TIP3    H115753   2.473   1.534   5.039
 5249TIP3    H215754   2.610   1.595   5.063
 5250TIP3   OH215755   5.100   5.677   4.354
 5250TIP3    H115756   5.012   5.708   4.335
 5250TIP3    H215757   5.157   5.751   4.332
 5251TIP3   OH215758   0.548   4.096   1.094
 5251TIP3    H115759   0.501   4.147   1.160
 5251TIP3    H215760   0.641   4.111   1.113
 5252TIP3   OH215761   1.392   4.688   0.683
 5252TIP3    H115762   1.320   4.659   0.626
 5252TIP3    H215763   1.371   4.779   0.703
 5253TIP3   OH215764   2.793   2.821   4.462
 5253TIP3    H115765   2.766   2.733   4.489
 5253TIP3    H215766   2.711   2.868   4.450
 5254TIP3   OH215767   3.810   1.511   1.250
 5254TIP3    H115768   3.808   1.602   1.222
 5254TIP3    H215769   3.814   1.515   1.346
 5255TIP3   OH215770   6.096   3.027   3.577
 5255TIP3    H115771   6.028   3.057   3.517
 5255TIP3    H215772   6.161   2.984   3.521
 5256TIP3   OH215773   2.547   3.986   0.539
 5256TIP3    H115774   2.500   4.069   0.551
 5256TIP3    H215775   2.491   3.920   0.579
 5257TIP3   OH215776   3.525   5.550   1.423
 5257TIP3    H115777   3.595   5.615   1.411
 5257TIP3    H215778   3.571   5.467   1.434
 5258TIP3   OH215779   1.557   5.885   3.047
 5258TIP3    H115780   1.566   5.873   3.141
 5258TIP3    H215781   1.596   5.807   3.009
 5259TIP3   OH215782   2.192   0.035   1.204
 5259TIP3    H115783   2.140  -0.045   1.206
 5259TIP3    H215784   2.129   0.105   1.216
 5260TIP3   OH215785   0.135   3.524   2.244
 5260TIP3    H115786   0.132   3.473   2.325
 5260TIP3    H215787   0.219   3.501   2.204
 5261TIP3   OH215788   3.873   3.098   5.122
 5261TIP3    H115789   3.822   3.161   5.070
 5261TIP3    H215790   3.808   3.036   5.154
 5262TIP3   OH215791   6.330   0.246   3.877
 5262TIP3    H115792   6.306   0.336   3.898
 5262TIP3    H215793   6.279   0.193   3.939
 5263TIP3   OH215794   4.707   1.364   2.071
 5263TIP3    H115795   4.784   1.400   2.026
 5263TIP3    H215796   4.677   1.293   2.015
 5264TIP3   OH215797   3.257   3.766   2.877
 5264TIP3    H115798   3.330   3.750   2.937
 5264TIP3    H215799   3.260   3.693   2.816
 5265TIP3   OH215800   1.338   5.339   4.165
 5265TIP3    H115801   1.424   5.356   4.127
 5265TIP3    H215802   1.278   5.397   4.117
 5266TIP3   OH215803   0.500   1.726   4.457
 5266TIP3    H115804   0.543   1.680   4.529
 5266TIP3    H215805   0.479   1.812   4.493
 5267TIP3   OH215806   6.053   1.616   0.273
 5267TIP3    H115807   5.990   1.552   0.308
 5267TIP3    H215808   6.042   1.611   0.178
 5268TIP3   OH215809   0.838   2.334   5.202
 5268TIP3    H115810   0.899   2.260   5.196
 5268TIP3    H215811   0.893   2.412   5.195
 5269TIP3   OH215812   3.766   5.617   0.611
 5269TIP3    H115813   3.777   5.569   0.693
 5269TIP3    H215814   3.849   5.604   0.565
 5270TIP3   OH215815   0.920   2.464   0.502
 5270TIP3    H115816   0.861   2.442   0.429
 5270TIP3    H215817   0.958   2.380   0.528
 5271TIP3   OH215818   2.182   0.989   4.342
 5271TIP3    H115819   2.096   0.949   4.329
 5271TIP3    H215820   2.228   0.930   4.401
 5272TIP3   OH215821   3.660   2.070   1.955
 5272TIP3    H115822   3.576   2.066   2.002
 5272TIP3    H215823   3.636   2.089   1.865
 5273TIP3   OH215824   0.257   1.761   4.304
 5273TIP3    H115825   0.316   1.712   4.361
 5273TIP3    H215826   0.284   1.852   4.313
 5274TIP3   OH215827   2.540   0.342   2.769
 5274TIP3    H115828   2.602   0.292   2.822
 5274TIP3    H215829   2.572   0.432   2.773
 5275TIP3   OH215830   1.708   3.960   2.851
 5275TIP3    H115831   1.733   4.050   2.870
 5275TIP3    H215832   1.617   3.953   2.880
 5276TIP3   OH215833   1.390   2.125   0.326
 5276TIP3    H115834   1.331   2.191   0.362
 5276TIP3    H215835   1.438   2.092   0.403
 5277TIP3   OH215836   4.029   3.034   3.666
 5277TIP3    H115837   4.092   2.977   3.624
 5277TIP3    H215838   3.945   3.013   3.624
 5278TIP3   OH215839   0.416   5.641   1.858
 5278TIP3    H115840   0.487   5.582   1.886
 5278TIP3    H215841   0.342   5.618   1.914
 5279TIP3   OH215842   6.342   1.776   1.626
 5279TIP3    H115843   6.272   1.727   1.671
 5279TIP3    H215844   6.316   1.776   1.534
 5280TIP3   OH215845   5.120   0.638   1.046
 5280TIP3    H115846   5.031   0.611   1.023
 5280TIP3    H215847   5.176   0.569   1.010
 5281TIP3   OH215848   2.656   5.134   0.927
 5281TIP3    H115849   2.648   5.043   0.897
 5281TIP3    H215850   2.691   5.127   1.016
 5282TIP3   OH215851   1.284   2.585   3.737
 5282TIP3    H115852   1.284   2.678   3.716
 5282TIP3    H215853   1.231   2.544   3.669
 5283TIP3   OH215854   6.390   5.003   1.809
 5283TIP3    H115855   6.353   4.917   1.790
 5283TIP3    H215856   6.314   5.061   1.817
 5284TIP3   OH215857   3.888   4.579   3.072
 5284TIP3    H115858   3.960   4.535   3.027
 5284TIP3    H215859   3.819   4.587   3.006
 5285TIP3   OH215860   2.600   4.738   1.121
 5285TIP3    H115861   2.655   4.720   1.196
 5285TIP3    H215862   2.573   4.829   1.132
 5286TIP3   OH215863   2.972   4.181   0.695
 5286TIP3    H115864   3.011   4.147   0.615
 5286TIP3    H215865   2.909   4.114   0.722
 5287TIP3   OH215866   2.399   1.625   1.294
 5287TIP3    H115867   2.389   1.573   1.214
 5287TIP3    H215868   2.395   1.716   1.265
 5288TIP3   OH215869   0.329   2.966   1.197
 5288TIP3    H115870   0.279   2.909   1.138
 5288TIP3    H215871   0.402   2.912   1.226
 5289TIP3   OH215872   5.294   2.555   0.366
 5289TIP3    H115873   5.273   2.638   0.322
 5289TIP3    H215874   5.256   2.565   0.454
 5290TIP3   OH215875   5.008   0.422   3.602
 5290TIP3    H115876   4.930   0.476   3.615
 5290TIP3    H215877   5.052   0.423   3.688
 5291TIP3   OH215878   3.877   0.074   3.327
 5291TIP3    H115879   3.804   0.013   3.328
 5291TIP3    H215880   3.891   0.094   3.235
 5292TIP3   OH215881   4.377   1.526   1.956
 5292TIP3    H115882   4.389   1.433   1.975
 5292TIP3    H215883   4.294   1.530   1.908
 5293TIP3   OH215884   2.318   0.894   1.909
 5293TIP3    H115885   2.234   0.858   1.936
 5293TIP3    H215886   2.298   0.985   1.887
 5294TIP3   OH215887   1.387   1.489   3.029
 5294TIP3    H115888   1.363   1.558   3.091
 5294TIP3    H215889   1.349   1.518   2.946
 5295TIP3   OH215890   2.739   3.055   4.165
 5295TIP3    H115891   2.716   3.101   4.084
 5295TIP3    H215892   2.714   2.964   4.148
 5296TIP3   OH215893   6.332   2.600   2.187
 5296TIP3    H115894   6.286   2.516   2.186
 5296TIP3    H215895   6.351   2.619   2.095
 5297TIP3   OH215896   3.763   4.942   4.665
 5297TIP3    H115897   3.842   4.996   4.665
 5297TIP3    H215898   3.738   4.934   4.573
 5298TIP3   OH215899   3.645   5.828   1.070
 5298TIP3    H115900   3.662   5.850   0.978
 5298TIP3    H215901   3.593   5.901   1.103
 5299TIP3   OH215902   5.396   4.990   3.787
 5299TIP3    H115903   5.309   4.978   3.826
 5299TIP3    H215904   5.441   5.050   3.846
 5300TIP3   OH215905   1.562   2.803   4.000
 5300TIP3    H115906   1.626   2.733   3.988
 5300TIP3    H215907   1.611   2.883   3.982
 5301TIP3   OH215908   0.013   3.135   1.326
 5301TIP3    H115909   0.041   3.044   1.339
 5301TIP3    H215910   0.091   3.186   1.347
 5302TIP3   OH215911   6.125   5.105   0.478
 5302TIP3    H115912   6.132   5.040   0.407
 5302TIP3    H215913   6.123   5.053   0.558
 5303TIP3   OH215914   3.632   5.638   0.102
 5303TIP3    H115915   3.703   5.575   0.086
 5303TIP3    H215916   3.618   5.634   0.197
 5304TIP3   OH215917   2.791   3.508   4.718
 5304TIP3    H115918   2.735   3.499   4.641
 5304TIP3    H215919   2.845   3.585   4.700
 5305TIP3   OH215920   3.720   4.606   2.802
 5305TIP3    H115921   3.626   4.611   2.786
 5305TIP3    H215922   3.757   4.575   2.720
 5306TIP3   OH215923   5.998   3.997   1.014
 5306TIP3    H115924   5.929   4.049   1.056
 5306TIP3    H215925   5.964   3.979   0.927
 5307TIP3   OH215926   4.688   1.050   0.031
 5307TIP3    H115927   4.675   1.140   0.001
 5307TIP3    H215928   4.714   1.059   0.123
 5308TIP3   OH215929   0.427   0.318   3.740
 5308TIP3    H115930   0.495   0.271   3.788
 5308TIP3    H215931   0.345   0.277   3.767
 5309TIP3   OH215932   3.876   0.990   0.837
 5309TIP3    H115933   3.920   1.017   0.756
 5309TIP3    H215934   3.852   0.899   0.823
 5310TIP3   OH215935   0.338   2.583  -0.005
 5310TIP3    H115936   0.429   2.593  -0.034
 5310TIP3    H215937   0.340   2.512   0.059
 5311TIP3   OH215938   0.760   0.366   1.429
 5311TIP3    H115939   0.730   0.299   1.367
 5311TIP3    H215940   0.697   0.437   1.420
 5312TIP3   OH215941   4.015   1.709   2.581
 5312TIP3    H115942   4.071   1.637   2.611
 5312TIP3    H215943   3.975   1.743   2.661
 5313TIP3   OH215944   0.052   2.462   2.543
 5313TIP3    H115945   0.025   2.376   2.512
 5313TIP3    H215946   0.145   2.453   2.562
 5314TIP3   OH215947   0.860   0.031   2.048
 5314TIP3    H115948   0.912   0.100   2.007
 5314TIP3    H215949   0.816   0.075   2.120
 5315TIP3   OH215950   0.853   0.954   0.943
 5315TIP3    H115951   0.772   0.978   0.898
 5315TIP3    H215952   0.915   1.023   0.919
 5316TIP3   OH215953   2.997   4.001   4.850
 5316TIP3    H115954   3.060   4.028   4.917
 5316TIP3    H215955   3.016   3.908   4.836
 5317TIP3   OH215956   6.002   5.000   4.144
 5317TIP3    H115957   5.966   4.996   4.056
 5317TIP3    H215958   6.085   5.045   4.135
 5318TIP3   OH215959   2.221   0.567   4.313
 5318TIP3    H115960   2.144   0.563   4.256
 5318TIP3    H215961   2.271   0.488   4.291
 5319TIP3   OH215962   2.760   3.563   2.696
 5319TIP3    H115963   2.708   3.604   2.627
 5319TIP3    H215964   2.808   3.635   2.737
 5320TIP3   OH215965   0.361   0.967   1.119
 5320TIP3    H115966   0.321   0.938   1.200
 5320TIP3    H215967   0.406   0.889   1.086
 5321TIP3   OH215968   4.702   1.387   4.894
 5321TIP3    H115969   4.627   1.418   4.945
 5321TIP3    H215970   4.675   1.302   4.860
 5322TIP3   OH215971   1.612   1.150   3.524
 5322TIP3    H115972   1.602   1.092   3.449
 5322TIP3    H215973   1.686   1.207   3.500
 5323TIP3   OH215974   4.712   0.816   2.572
 5323TIP3    H115975   4.793   0.777   2.605
 5323TIP3    H215976   4.706   0.900   2.618
 5324TIP3   OH215977   4.125   4.106   4.352
 5324TIP3    H115978   4.191   4.076   4.290
 5324TIP3    H215979   4.147   4.062   4.434
 5325TIP3   OH215980   2.427   3.659   3.567
 5325TIP3    H115981   2.448   3.695   3.653
 5325TIP3    H215982   2.370   3.585   3.586
 5326TIP3   OH215983   3.884   2.074   2.690
 5326TIP3    H115984   3.850   1.986   2.703
 5326TIP3    H215985   3.864   2.094   2.598
 5327TIP3   OH215986   5.268   2.793   0.241
 5327TIP3    H115987   5.261   2.753   0.155
 5327TIP3    H215988   5.272   2.887   0.223
 5328TIP3   OH215989   4.924   1.220   2.490
 5328TIP3    H115990   4.877   1.162   2.550
 5328TIP3    H215991   4.924   1.305   2.534
 5329TIP3   OH215992   5.157   3.230   2.855
 5329TIP3    H115993   5.129   3.229   2.947
 5329TIP3    H215994   5.106   3.299   2.814
 5330TIP3   OH215995   1.299   2.655   5.117
 5330TIP3    H115996   1.334   2.571   5.090
 5330TIP3    H215997   1.283   2.645   5.211
 5331TIP3   OH215998   3.325   1.824   1.855
 5331TIP3    H115999   3.279   1.896   1.899
 5331TIP3    H216000   3.337   1.758   1.924
 5332TIP3   OH216001   5.968   3.342   2.344
 5332TIP3    H116002   5.915   3.268   2.317
 5332TIP3    H216003   5.908   3.398   2.393
 5333TIP3   OH216004   3.404   2.002   2.502
 5333TIP3    H116005   3.317   1.977   2.471
 5333TIP3    H216006   3.459   1.998   2.424
 5334TIP3   OH216007   0.960   5.818   1.525
 5334TIP3    H116008   0.974   5.885   1.592
 5334TIP3    H216009   1.010   5.742   1.556
 5335TIP3   OH216010   6.005   1.084   2.132
 5335TIP3    H116011   6.029   1.119   2.046
 5335TIP3    H216012   5.991   0.991   2.117
 5336TIP3   OH216013   3.479   5.554   1.990
 5336TIP3    H116014   3.409   5.619   1.986
 5336TIP3    H216015   3.436   5.475   2.023
 5337TIP3   OH216016   4.768   0.593   4.819
 5337TIP3    H116017   4.714   0.528   4.774
 5337TIP3    H216018   4.816   0.543   4.885
 5338TIP3   OH216019   5.978   0.891   1.772
 5338TIP3    H116020   6.015   0.979   1.776
 5338TIP3    H216021   5.953   0.871   1.862
 5339TIP3   OH216022   0.558   0.058   2.987
 5339TIP3    H116023   0.628   0.112   3.023
 5339TIP3    H216024   0.603  -0.006   2.933
 5340TIP3   OH216025   4.370   2.570   2.971
 5340TIP3    H116026   4.350   2.565   3.065
 5340TIP3    H216027   4.461   2.600   2.967
 5341TIP3   OH216028   0.535   1.547   2.328
 5341TIP3    H116029   0.468   1.524   2.263
 5341TIP3    H216030   0.618   1.536   2.282
 5342TIP3   OH216031   0.827   3.541   3.989
 5342TIP3    H116032   0.816   3.608   4.056
 5342TIP3    H216033   0.783   3.463   4.025
 5343TIP3   OH216034   0.664   5.170   3.004
 5343TIP3    H116035   0.638   5.229   2.934
 5343TIP3    H216036   0.758   5.186   3.016
 5344TIP3   OH216037   5.018   0.661   1.439
 5344TIP3    H116038   4.965   0.624   1.368
 5344TIP3    H216039   4.955   0.684   1.507
 5345TIP3   OH216040   0.741   1.751   4.321
 5345TIP3    H116041   0.662   1.735   4.374
 5345TIP3    H216042   0.715   1.820   4.260
 5346TIP3   OH216043   2.330   1.074   1.610
 5346TIP3    H116044   2.362   1.067   1.700
 5346TIP3    H216045   2.244   1.114   1.619
 5347TIP3   OH216046   1.689   1.073   0.706
 5347TIP3    H116047   1.683   1.163   0.739
 5347TIP3    H216048   1.630   1.023   0.762
 5348TIP3   OH216049   2.813   3.505   1.315
 5348TIP3    H116050   2.747   3.514   1.247
 5348TIP3    H216051   2.861   3.587   1.314
 5349TIP3   OH216052   2.457   3.286   0.948
 5349TIP3    H116053   2.449   3.232   0.870
 5349TIP3    H216054   2.461   3.376   0.915
 5350TIP3   OH216055   4.485   4.407   1.219
 5350TIP3    H116056   4.422   4.366   1.160
 5350TIP3    H216057   4.432   4.445   1.289
 5351TIP3   OH216058   6.192   2.768   0.411
 5351TIP3    H116059   6.128   2.829   0.449
 5351TIP3    H216060   6.166   2.682   0.445
 5352TIP3   OH216061   1.635   1.019   0.435
 5352TIP3    H116062   1.625   0.924   0.425
 5352TIP3    H216063   1.664   1.031   0.525
 5353TIP3   OH216064   0.615   1.627   0.676
 5353TIP3    H116065   0.697   1.596   0.713
 5353TIP3    H216066   0.577   1.683   0.744
 5354TIP3   OH216067   5.174   2.999   1.739
 5354TIP3    H116068   5.240   2.931   1.746
 5354TIP3    H216069   5.137   2.987   1.651
 5355TIP3   OH216070   4.443   1.942   3.329
 5355TIP3    H116071   4.379   2.000   3.287
 5355TIP3    H216072   4.525   1.991   3.326
 5356TIP3   OH216073   2.258   2.953   3.175
 5356TIP3    H116074   2.351   2.932   3.168
 5356TIP3    H216075   2.247   3.033   3.124
 5357TIP3   OH216076   5.443   4.870   4.922
 5357TIP3    H116077   5.402   4.956   4.933
 5357TIP3    H216078   5.380   4.808   4.958
 5358TIP3   OH216079   1.867   4.489   2.754
 5358TIP3    H116080   1.927   4.561   2.771
 5358TIP3    H216081   1.889   4.423   2.820
 5359TIP3   OH216082   3.552   2.671   2.365
 5359TIP3    H116083   3.495   2.672   2.443
 5359TIP3    H216084   3.513   2.604   2.309
 5360TIP3   OH216085   4.776   3.519   2.584
 5360TIP3    H116086   4.681   3.504   2.585
 5360TIP3    H216087   4.790   3.580   2.513
 5361TIP3   OH216088   2.798   5.934   0.326
 5361TIP3    H116089   2.821   6.027   0.328
 5361TIP3    H216090   2.880   5.889   0.305
 5362TIP3   OH216091   3.837   5.605   2.584
 5362TIP3    H116092   3.837   5.615   2.680
 5362TIP3    H216093   3.898   5.533   2.567
 5363TIP3   OH216094   4.007   0.585   3.195
 5363TIP3    H116095   4.023   0.522   3.124
 5363TIP3    H216096   3.929   0.552   3.239
 5364TIP3   OH216097   5.758   2.625   3.319
 5364TIP3    H116098   5.778   2.697   3.379
 5364TIP3    H216099   5.727   2.554   3.375
 5365TIP3   OH216100   4.924   0.159   5.180
 5365TIP3    H116101   4.908   0.132   5.271
 5365TIP3    H216102   4.941   0.077   5.134
 5366TIP3   OH216103   2.068   1.216   2.687
 5366TIP3    H116104   2.063   1.139   2.742
 5366TIP3    H216105   2.002   1.276   2.722
 5367TIP3   OH216106   3.929   2.068   3.401
 5367TIP3    H116107   3.852   2.022   3.434
 5367TIP3    H216108   3.904   2.160   3.399
 5368TIP3   OH216109   3.711   5.872   0.755
 5368TIP3    H116110   3.707   5.786   0.714
 5368TIP3    H216111   3.650   5.926   0.704
 5369TIP3   OH216112   0.953   0.537   1.779
 5369TIP3    H116113   0.934   0.500   1.865
 5369TIP3    H216114   0.902   0.484   1.718
 5370TIP3   OH216115   4.005   3.732   3.710
 5370TIP3    H116116   3.973   3.797   3.647
 5370TIP3    H216117   3.930   3.714   3.767
 5371TIP3   OH216118   3.151   2.435   0.274
 5371TIP3    H116119   3.186   2.519   0.244
 5371TIP3    H216120   3.062   2.455   0.301
 5372TIP3   OH216121   2.266   2.367   0.313
 5372TIP3    H116122   2.231   2.305   0.250
 5372TIP3    H216123   2.361   2.359   0.305
 5373TIP3   OH216124   5.151   4.941   4.228
 5373TIP3    H116125   5.128   5.014   4.286
 5373TIP3    H216126   5.233   4.907   4.264
 5374TIP3   OH216127   6.047   4.429   2.380
 5374TIP3    H116128   6.058   4.505   2.323
 5374TIP3    H216129   6.038   4.466   2.468
 5375TIP3   OH216130   3.549   3.487   1.463
 5375TIP3    H116131   3.564   3.460   1.373
 5375TIP3    H216132   3.573   3.580   1.465
 5376TIP3   OH216133   4.689   4.715   4.062
 5376TIP3    H116134   4.615   4.769   4.089
 5376TIP3    H216135   4.765   4.756   4.104
 5377TIP3   OH216136   3.086   5.028   2.558
 5377TIP3    H116137   3.047   5.023   2.471
 5377TIP3    H216138   3.019   4.995   2.617
 5378TIP3   OH216139   2.428   1.262   1.228
 5378TIP3    H116140   2.419   1.270   1.323
 5378TIP3    H216141   2.337   1.254   1.197
 5379TIP3   OH216142   1.695   0.911   2.389
 5379TIP3    H116143   1.617   0.941   2.435
 5379TIP3    H216144   1.690   0.815   2.393
 5380TIP3   OH216145   3.908   3.029   1.756
 5380TIP3    H116146   3.896   2.936   1.736
 5380TIP3    H216147   3.868   3.075   1.682
 5381TIP3   OH216148   3.910   3.482   2.059
 5381TIP3    H116149   3.940   3.459   1.971
 5381TIP3    H216150   3.842   3.548   2.044
 5382TIP3   OH216151   5.641   4.621   4.980
 5382TIP3    H116152   5.718   4.579   4.940
 5382TIP3    H216153   5.613   4.686   4.915
 5383TIP3   OH216154   1.250   0.847   4.301
 5383TIP3    H116155   1.178   0.838   4.239
 5383TIP3    H216156   1.328   0.856   4.246
 5384TIP3   OH216157   3.068   0.189   2.755
 5384TIP3    H116158   3.033   0.230   2.834
 5384TIP3    H216159   3.053   0.253   2.685
 5385TIP3   OH216160   0.206   3.997   2.232
 5385TIP3    H116161   0.174   3.942   2.304
 5385TIP3    H216162   0.288   4.034   2.265
 5386TIP3   OH216163   5.213   0.087   5.179
 5386TIP3    H116164   5.293   0.037   5.189
 5386TIP3    H216165   5.201   0.095   5.084
 5387TIP3   OH216166   1.745   1.393   3.420
 5387TIP3    H116167   1.691   1.472   3.419
 5387TIP3    H216168   1.833   1.423   3.401
 5388TIP3   OH216169   2.473   0.404   1.763
 5388TIP3    H116170   2.518   0.467   1.820
 5388TIP3    H216171   2.380   0.424   1.773
 5389TIP3   OH216172   5.866   2.231   0.535
 5389TIP3    H116173   5.812   2.258   0.461
 5389TIP3    H216174   5.874   2.309   0.589
 5390TIP3   OH216175   5.686   4.598   4.604
 5390TIP3    H116176   5.680   4.621   4.511
 5390TIP3    H216177   5.597   4.610   4.637
 5391TIP3   OH216178   3.428   3.574   4.460
 5391TIP3    H116179   3.484   3.640   4.501
 5391TIP3    H216180   3.342   3.615   4.454
 5392TIP3   OH216181   5.683   5.783   0.627
 5392TIP3    H116182   5.776   5.762   0.639
 5392TIP3    H216183   5.648   5.788   0.715
 5393TIP3   OH216184   3.061   3.055   4.114
 5393TIP3    H116185   3.113   3.011   4.182
 5393TIP3    H216186   2.972   3.054   4.148
 5394TIP3   OH216187   4.031   4.759   0.349
 5394TIP3    H116188   4.100   4.716   0.298
 5394TIP3    H216189   4.018   4.701   0.424
 5395TIP3   OH216190   5.460   3.465   0.869
 5395TIP3    H116191   5.414   3.489   0.789
 5395TIP3    H216192   5.453   3.369   0.873
 5396TIP3   OH216193   5.037   4.959   1.321
 5396TIP3    H116194   5.029   5.044   1.280
 5396TIP3    H216195   5.099   4.911   1.266
 5397TIP3   OH216196   3.535   1.899   2.241
 5397TIP3    H116197   3.512   1.806   2.250
 5397TIP3    H216198   3.628   1.898   2.220
 5398TIP3   OH216199   3.757   4.052   4.537
 5398TIP3    H116200   3.802   4.111   4.478
 5398TIP3    H216201   3.823   4.026   4.602
 5399TIP3   OH216202   3.867   5.222   2.832
 5399TIP3    H116203   3.815   5.146   2.808
 5399TIP3    H216204   3.916   5.196   2.910
 5400TIP3   OH216205   0.269   4.449   0.939
 5400TIP3    H116206   0.224   4.375   0.980
 5400TIP3    H216207   0.222   4.527   0.971
 5401TIP3   OH216208   5.148   4.234   3.689
 5401TIP3    H116209   5.236   4.203   3.708
 5401TIP3    H216210   5.119   4.180   3.615
 5402TIP3   OH216211   0.480   4.158   0.518
 5402TIP3    H116212   0.457   4.069   0.491
 5402TIP3    H216213   0.561   4.147   0.569
 5403TIP3   OH216214   3.617   2.821   4.645
 5403TIP3    H116215   3.689   2.784   4.595
 5403TIP3    H216216   3.641   2.912   4.659
 5404TIP3   OH216217   1.286   1.585   3.867
 5404TIP3    H116218   1.285   1.492   3.889
 5404TIP3    H216219   1.302   1.629   3.950
 5405TIP3   OH216220   5.796   2.337   2.766
 5405TIP3    H116221   5.838   2.264   2.722
 5405TIP3    H216222   5.710   2.344   2.725
 5406TIP3   OH216223   0.459   2.156   0.985
 5406TIP3    H116224   0.544   2.200   0.973
 5406TIP3    H216225   0.427   2.142   0.897
 5407TIP3   OH216226   3.476   3.217   4.737
 5407TIP3    H116227   3.531   3.211   4.815
 5407TIP3    H216228   3.408   3.281   4.759
 5408TIP3   OH216229   1.341   0.466   4.234
 5408TIP3    H116230   1.365   0.414   4.157
 5408TIP3    H216231   1.424   0.500   4.267
 5409TIP3   OH216232   4.359   2.441   2.084
 5409TIP3    H116233   4.364   2.522   2.034
 5409TIP3    H216234   4.410   2.457   2.162
 5410TIP3   OH216235   3.927   5.562   1.057
 5410TIP3    H116236   4.020   5.543   1.066
 5410TIP3    H216237   3.889   5.535   1.141
 5411TIP3   OH216238   1.778   2.307   0.714
 5411TIP3    H116239   1.804   2.235   0.657
 5411TIP3    H216240   1.757   2.265   0.797
 5412TIP3   OH216241   3.203   1.521   0.836
 5412TIP3    H116242   3.261   1.446   0.847
 5412TIP3    H216243   3.144   1.497   0.765
 5413TIP3   OH216244   3.407   3.293   3.084
 5413TIP3    H116245   3.477   3.259   3.139
 5413TIP3    H216246   3.449   3.358   3.028
 5414TIP3   OH216247   1.926   0.223   1.453
 5414TIP3    H116248   1.927   0.131   1.480
 5414TIP3    H216249   1.962   0.221   1.364
 5415TIP3   OH216250   0.355   2.731   2.928
 5415TIP3    H116251   0.427   2.779   2.887
 5415TIP3    H216252   0.389   2.643   2.940
 5416TIP3   OH216253   1.309   5.376   1.711
 5416TIP3    H116254   1.268   5.293   1.734
 5416TIP3    H216255   1.259   5.442   1.758
 5417TIP3   OH216256   5.819   4.208   0.536
 5417TIP3    H116257   5.729   4.187   0.559
 5417TIP3    H216258   5.813   4.289   0.486
 5418TIP3   OH216259   0.637   0.402   4.566
 5418TIP3    H116260   0.609   0.424   4.477
 5418TIP3    H216261   0.732   0.413   4.564
 5419TIP3   OH216262   2.137   0.282   3.394
 5419TIP3    H116263   2.226   0.312   3.410
 5419TIP3    H216264   2.148   0.191   3.365
 5420TIP3   OH216265   5.351   5.315   1.005
 5420TIP3    H116266   5.263   5.351   1.014
 5420TIP3    H216267   5.409   5.389   1.025
 5421TIP3   OH216268   1.663   1.927   5.161
 5421TIP3    H116269   1.695   1.884   5.240
 5421TIP3    H216270   1.737   1.923   5.100
 5422TIP3   OH216271   4.399   5.853   5.099
 5422TIP3    H116272   4.345   5.774   5.099
 5422TIP3    H216273   4.362   5.907   5.029
 5423TIP3   OH216274   2.619   1.712   4.678
 5423TIP3    H116275   2.566   1.790   4.663
 5423TIP3    H216276   2.588   1.649   4.612
 5424TIP3   OH216277   5.272   0.093   1.942
 5424TIP3    H116278   5.351   0.054   1.981
 5424TIP3    H216279   5.292   0.100   1.849
 5425TIP3   OH216280   1.850   5.359   3.889
 5425TIP3    H116281   1.928   5.407   3.917
 5425TIP3    H216282   1.868   5.268   3.912
 5426TIP3   OH216283   5.988   3.304   0.726
 5426TIP3    H116284   6.021   3.253   0.800
 5426TIP3    H216285   6.026   3.391   0.736
 5427TIP3   OH216286   2.767   5.500   4.583
 5427TIP3    H116287   2.750   5.592   4.604
 5427TIP3    H216288   2.691   5.453   4.617
 5428TIP3   OH216289   1.020   4.558   1.109
 5428TIP3    H116290   0.957   4.492   1.079
 5428TIP3    H216291   1.029   4.618   1.034
 5429TIP3   OH216292  -0.019   5.359   0.686
 5429TIP3    H116293   0.034   5.360   0.766
 5429TIP3    H216294   0.016   5.286   0.635
 5430TIP3   OH216295   1.346   0.834   2.445
 5430TIP3    H116296   1.301   0.856   2.363
 5430TIP3    H216297   1.289   0.769   2.486
 5431TIP3   OH216298   4.087   2.004   0.203
 5431TIP3    H116299   4.110   2.096   0.192
 5431TIP3    H216300   4.064   1.975   0.115
 5432TIP3   OH216301   3.477   3.259   1.715
 5432TIP3    H116302   3.547   3.324   1.715
 5432TIP3    H216303   3.452   3.251   1.623
 5433TIP3   OH216304   2.525   0.976   2.357
 5433TIP3    H116305   2.598   0.959   2.416
 5433TIP3    H216306   2.526   1.071   2.345
 5434TIP3   OH216307   0.675   2.662   2.662
 5434TIP3    H116308   0.764   2.656   2.697
 5434TIP3    H216309   0.675   2.742   2.609
 5435TIP3   OH216310   3.539   2.684   0.867
 5435TIP3    H116311   3.631   2.669   0.892
 5435TIP3    H216312   3.498   2.598   0.874
 5436TIP3   OH216313   0.199   1.341   1.988
 5436TIP3    H116314   0.146   1.396   2.045
 5436TIP3    H216315   0.152   1.257   1.986
 5437TIP3   OH216316   1.992   3.461   4.098
 5437TIP3    H116317   1.928   3.442   4.167
 5437TIP3    H216318   2.000   3.557   4.100
 5438TIP3   OH216319   6.310   5.559   4.309
 5438TIP3    H116320   6.319   5.490   4.243
 5438TIP3    H216321   6.396   5.602   4.311
 5439TIP3   OH216322   3.212   3.887   1.392
 5439TIP3    H116323   3.291   3.878   1.445
 5439TIP3    H216324   3.241   3.934   1.313
 5440TIP3   OH216325   1.362   3.327   0.412
 5440TIP3    H116326   1.385   3.393   0.346
 5440TIP3    H216327   1.275   3.352   0.442
 5441TIP3   OH216328   2.957   1.104   4.239
 5441TIP3    H116329   2.945   1.192   4.274
 5441TIP3    H216330   3.050   1.085   4.252
 5442TIP3   OH216331   4.786   2.372   1.583
 5442TIP3    H116332   4.816   2.463   1.581
 5442TIP3    H216333   4.760   2.358   1.674
 5443TIP3   OH216334   1.428   2.733   4.882
 5443TIP3    H116335   1.402   2.690   4.963
 5443TIP3    H216336   1.450   2.661   4.823
 5444TIP3   OH216337   1.865   0.679   0.688
 5444TIP3    H116338   1.889   0.771   0.677
 5444TIP3    H216339   1.819   0.677   0.772
 5445TIP3   OH216340   5.862   2.279   3.973
 5445TIP3    H116341   5.843   2.228   3.894
 5445TIP3    H216342   5.779   2.320   3.995
 5446TIP3   OH216343   0.457   0.790   4.199
 5446TIP3    H116344   0.365   0.792   4.174
 5446TIP3    H216345   0.458   0.809   4.293
 5447TIP3   OH216346   5.568   3.662   1.671
 5447TIP3    H116347   5.635   3.716   1.713
 5447TIP3    H216348   5.485   3.700   1.699
 5448TIP3   OH216349   3.539   3.429   2.888
 5448TIP3    H116350   3.512   3.446   2.798
 5448TIP3    H216351   3.634   3.415   2.883
 5449TIP3   OH216352   1.038   2.507   5.140
 5449TIP3    H116353   1.104   2.524   5.208
 5449TIP3    H216354   0.998   2.592   5.123
 5450TIP3   OH216355   5.140   4.308   2.503
 5450TIP3    H116356   5.169   4.393   2.536
 5450TIP3    H216357   5.152   4.248   2.577
 5451TIP3   OH216358   4.198   0.715   0.359
 5451TIP3    H116359   4.126   0.718   0.422
 5451TIP3    H216360   4.156   0.700   0.275
 5452TIP3   OH216361   4.872   1.801   3.555
 5452TIP3    H116362   4.843   1.796   3.464
 5452TIP3    H216363   4.795   1.833   3.603
 5453TIP3   OH216364   2.843   1.020   2.511
 5453TIP3    H116365   2.888   1.054   2.434
 5453TIP3    H216366   2.811   1.097   2.557
 5454TIP3   OH216367   4.041   2.330   1.293
 5454TIP3    H116368   4.083   2.285   1.220
 5454TIP3    H216369   4.093   2.304   1.369
 5455TIP3   OH216370   4.914   3.460   1.936
 5455TIP3    H116371   5.009   3.463   1.950
 5455TIP3    H216372   4.880   3.413   2.011
 5456TIP3   OH216373   1.155   0.648   1.046
 5456TIP3    H116374   1.205   0.653   1.127
 5456TIP3    H216375   1.157   0.737   1.011
 5457TIP3   OH216376   1.872   2.590   2.053
 5457TIP3    H116377   1.903   2.501   2.065
 5457TIP3    H216378   1.951   2.644   2.062
 5458TIP3   OH216379   5.856   2.754   2.049
 5458TIP3    H116380   5.892   2.670   2.077
 5458TIP3    H216381   5.914   2.783   1.979
 5459TIP3   OH216382   6.287   4.591   0.265
 5459TIP3    H116383   6.232   4.518   0.236
 5459TIP3    H216384   6.347   4.553   0.329
 5460TIP3   OH216385   3.361   3.165   1.083
 5460TIP3    H116386   3.396   3.080   1.107
 5460TIP3    H216387   3.316   3.150   1.000
 5461TIP3   OH216388   3.315   0.090   5.036
 5461TIP3    H116389   3.366   0.012   5.013
 5461TIP3    H216390   3.267   0.112   4.956
 5462TIP3   OH216391   3.259   4.050   0.642
 5462TIP3    H116392   3.256   4.097   0.559
 5462TIP3    H216393   3.278   4.118   0.707
 5463TIP3   OH216394   2.900   0.254   3.699
 5463TIP3    H116395   2.906   0.227   3.608
 5463TIP3    H216396   2.988   0.240   3.735
 5464TIP3   OH216397   3.127   2.934   4.500
 5464TIP3    H116398   3.184   2.859   4.514
 5464TIP3    H216399   3.039   2.903   4.521
 5465TIP3   OH216400   4.500   4.471   5.059
 5465TIP3    H116401   4.561   4.534   5.097
 5465TIP3    H216402   4.421   4.478   5.113
 5466TIP3   OH216403   5.989   2.849   2.350
 5466TIP3    H116404   6.000   2.871   2.258
 5466TIP3    H216405   6.038   2.917   2.398
 5467TIP3   OH216406   0.737   2.914   3.186
 5467TIP3    H116407   0.762   2.946   3.099
 5467TIP3    H216408   0.687   2.834   3.168
 5468TIP3   OH216409   2.814   5.331   3.277
 5468TIP3    H116410   2.794   5.375   3.360
 5468TIP3    H216411   2.828   5.403   3.215
 5469TIP3   OH216412   0.304   3.124   4.413
 5469TIP3    H116413   0.285   3.187   4.343
 5469TIP3    H216414   0.323   3.043   4.366
 5470TIP3   OH216415   5.942   2.303   0.063
 5470TIP3    H116416   6.024   2.352   0.071
 5470TIP3    H216417   5.873   2.369   0.076
 5471TIP3   OH216418   0.342   2.838   0.833
 5471TIP3    H116419   0.269   2.885   0.793
 5471TIP3    H216420   0.302   2.764   0.878
 5472TIP3   OH216421   5.113   4.999   4.634
 5472TIP3    H116422   5.178   4.965   4.573
 5472TIP3    H216423   5.059   5.057   4.581
 5473TIP3   OH216424   3.898   4.199   4.186
 5473TIP3    H116425   3.823   4.141   4.192
 5473TIP3    H216426   3.952   4.177   4.262
 5474TIP3   OH216427   0.652   5.168   3.657
 5474TIP3    H116428   0.571   5.118   3.648
 5474TIP3    H216429   0.670   5.168   3.751
 5475TIP3   OH216430   6.003   0.698   3.679
 5475TIP3    H116431   5.946   0.775   3.670
 5475TIP3    H216432   5.958   0.629   3.631
 5476TIP3   OH216433   2.800   4.475   2.109
 5476TIP3    H116434   2.799   4.502   2.017
 5476TIP3    H216435   2.849   4.393   2.109
 5477TIP3   OH216436   1.270   5.861   4.610
 5477TIP3    H116437   1.276   5.836   4.518
 5477TIP3    H216438   1.361   5.871   4.638
 5478TIP3   OH216439   6.279   5.053   2.783
 5478TIP3    H116440   6.249   5.021   2.699
 5478TIP3    H216441   6.368   5.019   2.792
 5479TIP3   OH216442   1.306   3.179   0.092
 5479TIP3    H116443   1.297   3.145   0.181
 5479TIP3    H216444   1.349   3.264   0.102
 5480TIP3   OH216445   5.264   5.045   0.535
 5480TIP3    H116446   5.305   5.104   0.598
 5480TIP3    H216447   5.335   4.989   0.504
 5481TIP3   OH216448   3.318   3.378   5.183
 5481TIP3    H116449   3.383   3.329   5.234
 5481TIP3    H216450   3.241   3.321   5.180
 5482TIP3   OH216451   5.276   1.503   3.330
 5482TIP3    H116452   5.231   1.588   3.340
 5482TIP3    H216453   5.301   1.479   3.419
 5483TIP3   OH216454   4.323   2.546   1.088
 5483TIP3    H116455   4.415   2.568   1.082
 5483TIP3    H216456   4.322   2.451   1.103
 5484TIP3   OH216457   5.751   2.929   0.678
 5484TIP3    H116458   5.703   2.996   0.726
 5484TIP3    H216459   5.722   2.938   0.587
 5485TIP3   OH216460   0.740   4.850   3.536
 5485TIP3    H116461   0.666   4.893   3.492
 5485TIP3    H216462   0.701   4.805   3.611
 5486TIP3   OH216463   5.608   2.794   3.873
 5486TIP3    H116464   5.525   2.748   3.881
 5486TIP3    H216465   5.629   2.790   3.779
 5487TIP3   OH216466   2.575   4.363   1.231
 5487TIP3    H116467   2.509   4.312   1.182
 5487TIP3    H216468   2.530   4.445   1.253
 5488TIP3   OH216469   1.892   4.121   0.659
 5488TIP3    H116470   1.843   4.108   0.740
 5488TIP3    H216471   1.862   4.206   0.626
 5489TIP3   OH216472   3.787   3.716   3.906
 5489TIP3    H116473   3.836   3.757   3.977
 5489TIP3    H216474   3.795   3.622   3.922
 5490TIP3   OH216475   1.485   0.277   1.583
 5490TIP3    H116476   1.474   0.369   1.606
 5490TIP3    H216477   1.469   0.230   1.665
 5491TIP3   OH216478   5.225   2.683   5.183
 5491TIP3    H116479   5.211   2.588   5.174
 5491TIP3    H216480   5.142   2.722   5.158
 5492TIP3   OH216481   1.496   3.987   4.211
 5492TIP3    H116482   1.472   3.924   4.143
 5492TIP3    H216483   1.592   3.989   4.208
 5493TIP3   OH216484   4.619   2.375   0.232
 5493TIP3    H116485   4.681   2.448   0.235
 5493TIP3    H216486   4.557   2.401   0.164
 5494TIP3   OH216487   4.983   3.445   2.743
 5494TIP3    H116488   5.034   3.526   2.741
 5494TIP3    H216489   4.926   3.452   2.666
 5495TIP3   OH216490   2.229   3.981   2.701
 5495TIP3    H116491   2.145   3.977   2.747
 5495TIP3    H216492   2.221   4.057   2.644
 5496TIP3   OH216493   5.320   4.675   1.868
 5496TIP3    H116494   5.398   4.650   1.818
 5496TIP3    H216495   5.249   4.626   1.827
 5497TIP3   OH216496   6.171   4.723   1.036
 5497TIP3    H116497   6.245   4.669   1.062
 5497TIP3    H216498   6.121   4.668   0.976
 5498TIP3   OH216499   4.534   3.765   3.317
 5498TIP3    H116500   4.458   3.784   3.262
 5498TIP3    H216501   4.503   3.778   3.406
 5499TIP3   OH216502   4.748   4.435   2.720
 5499TIP3    H116503   4.761   4.462   2.811
 5499TIP3    H216504   4.818   4.480   2.673
 5500TIP3   OH216505   2.856   3.878   2.473
 5500TIP3    H116506   2.805   3.942   2.423
 5500TIP3    H216507   2.877   3.923   2.554
 5501TIP3   OH216508   3.529   3.591   3.209
 5501TIP3    H116509   3.601   3.617   3.266
 5501TIP3    H216510   3.563   3.515   3.161
 5502TIP3   OH216511   5.945   1.620   1.403
 5502TIP3    H116512   6.021   1.568   1.377
 5502TIP3    H216513   5.980   1.705   1.427
 5503TIP3   OH216514   1.883   3.516   5.165
 5503TIP3    H116515   1.930   3.432   5.160
 5503TIP3    H216516   1.795   3.492   5.194
 5504TIP3   OH216517   4.593   3.128   0.726
 5504TIP3    H116518   4.678   3.114   0.769
 5504TIP3    H216519   4.577   3.221   0.734
 5505TIP3   OH216520   0.015   1.947   2.215
 5505TIP3    H116521   0.054   1.996   2.143
 5505TIP3    H216522   0.084   1.940   2.281
 5506TIP3   OH216523   2.261   0.566   3.621
 5506TIP3    H116524   2.317   0.600   3.691
 5506TIP3    H216525   2.305   0.485   3.593
 5507TIP3   OH216526   5.080   0.668   3.926
 5507TIP3    H116527   5.068   0.577   3.898
 5507TIP3    H216528   5.175   0.679   3.932
 5508TIP3   OH216529   0.294   1.516   0.917
 5508TIP3    H116530   0.287   1.503   0.823
 5508TIP3    H216531   0.205   1.499   0.950
 5509TIP3   OH216532   0.335   3.055   2.578
 5509TIP3    H116533   0.300   2.973   2.614
 5509TIP3    H216534   0.423   3.062   2.614
 5510TIP3   OH216535   1.585   0.070   1.294
 5510TIP3    H116536   1.600   0.156   1.333
 5510TIP3    H216537   1.566   0.089   1.202
 5511TIP3   OH216538   3.590   5.718   4.619
 5511TIP3    H116539   3.625   5.631   4.600
 5511TIP3    H216540   3.614   5.735   4.710
 5512TIP3   OH216541   4.403   4.305   3.848
 5512TIP3    H116542   4.330   4.265   3.896
 5512TIP3    H216543   4.416   4.248   3.772
 5513TIP3   OH216544   0.337   3.301   3.848
 5513TIP3    H116545   0.361   3.394   3.839
 5513TIP3    H216546   0.265   3.289   3.787
 5514TIP3   OH216547   4.605   5.212   4.322
 5514TIP3    H116548   4.665   5.199   4.249
 5514TIP3    H216549   4.661   5.212   4.400
 5515TIP3   OH216550   1.745   3.285   3.375
 5515TIP3    H116551   1.669   3.296   3.317
 5515TIP3    H216552   1.769   3.374   3.399
 5516TIP3   OH216553   5.348   2.479   3.103
 5516TIP3    H116554   5.338   2.437   3.018
 5516TIP3    H216555   5.437   2.514   3.102
 5517TIP3   OH216556   1.613   0.568   3.221
 5517TIP3    H116557   1.621   0.613   3.305
 5517TIP3    H216558   1.551   0.497   3.238
 5518TIP3   OH216559   0.388   2.030   4.311
 5518TIP3    H116560   0.440   2.056   4.386
 5518TIP3    H216561   0.309   2.084   4.316
 5519TIP3   OH216562   4.024   4.601   0.578
 5519TIP3    H116563   4.058   4.512   0.565
 5519TIP3    H216564   3.953   4.590   0.642
 5520TIP3   OH216565   5.527   4.202   2.852
 5520TIP3    H116566   5.509   4.265   2.782
 5520TIP3    H216567   5.503   4.117   2.815
 5521TIP3   OH216568   0.404   0.165   0.187
 5521TIP3    H116569   0.374   0.198   0.272
 5521TIP3    H216570   0.435   0.076   0.205
 5522TIP3   OH216571   5.442   2.209   3.900
 5522TIP3    H116572   5.523   2.160   3.889
 5522TIP3    H216573   5.394   2.161   3.967
 5523TIP3   OH216574   3.564   2.704   1.717
 5523TIP3    H116575   3.585   2.787   1.674
 5523TIP3    H216576   3.477   2.717   1.754
 5524TIP3   OH216577   6.234   1.065   5.188
 5524TIP3    H116578   6.311   1.065   5.131
 5524TIP3    H216579   6.175   1.000   5.150
 5525TIP3   OH216580   0.809   0.037   0.413
 5525TIP3    H116581   0.778   0.014   0.501
 5525TIP3    H216582   0.795   0.131   0.406
 5526TIP3   OH216583   3.499   4.668   4.204
 5526TIP3    H116584   3.587   4.637   4.180
 5526TIP3    H216585   3.486   4.636   4.293
 5527TIP3   OH216586   4.541   5.645   1.492
 5527TIP3    H116587   4.576   5.563   1.456
 5527TIP3    H216588   4.618   5.697   1.512
 5528TIP3   OH216589   2.849   4.133   3.082
 5528TIP3    H116590   2.833   4.177   2.998
 5528TIP3    H216591   2.944   4.123   3.086
 5529TIP3   OH216592   4.354   2.540   3.740
 5529TIP3    H116593   4.365   2.578   3.652
 5529TIP3    H216594   4.265   2.565   3.765
 5530TIP3   OH216595   5.719   1.944   4.681
 5530TIP3    H116596   5.737   1.890   4.758
 5530TIP3    H216597   5.660   1.891   4.628
 5531TIP3   OH216598   3.163   0.904   1.667
 5531TIP3    H116599   3.097   0.884   1.600
 5531TIP3    H216600   3.144   0.995   1.691
 5532TIP3   OH216601   5.083   3.128   4.916
 5532TIP3    H116602   5.120   3.109   5.002
 5532TIP3    H216603   5.126   3.210   4.888
 5533TIP3   OH216604   0.055   0.947   3.817
 5533TIP3    H116605   0.150   0.947   3.824
 5533TIP3    H216606   0.033   0.860   3.783
 5534TIP3   OH216607   3.940   3.966   4.743
 5534TIP3    H116608   3.912   4.049   4.781
 5534TIP3    H216609   3.955   3.908   4.818
 5535TIP3   OH216610   3.285   2.666   1.120
 5535TIP3    H116611   3.288   2.571   1.113
 5535TIP3    H216612   3.262   2.696   1.032
 5536TIP3   OH216613   3.216   5.486   1.790
 5536TIP3    H116614   3.260   5.548   1.732
 5536TIP3    H216615   3.206   5.534   1.872
 5537TIP3   OH216616   2.653   5.873   3.822
 5537TIP3    H116617   2.562   5.899   3.839
 5537TIP3    H216618   2.679   5.825   3.900
 5538TIP3   OH216619   2.807   2.992   3.765
 5538TIP3    H116620   2.782   2.963   3.677
 5538TIP3    H216621   2.769   2.926   3.824
 5539TIP3   OH216622   5.718   1.245   0.373
 5539TIP3    H116623   5.751   1.190   0.301
 5539TIP3    H216624   5.694   1.183   0.441
 5540TIP3   OH216625   4.003   5.121   2.435
 5540TIP3    H116626   3.997   5.041   2.486
 5540TIP3    H216627   3.959   5.187   2.488
 5541TIP3   OH216628   4.753   4.567   5.168
 5541TIP3    H116629   4.812   4.608   5.106
 5541TIP3    H216630   4.787   4.479   5.180
 5542TIP3   OH216631   2.903   1.312   1.908
 5542TIP3    H116632   2.819   1.326   1.865
 5542TIP3    H216633   2.889   1.339   1.999
 5543TIP3   OH216634   3.894   0.468   0.804
 5543TIP3    H116635   3.964   0.514   0.849
 5543TIP3    H216636   3.931   0.445   0.719
 5544TIP3   OH216637   2.616   0.131   3.453
 5544TIP3    H116638   2.630   0.074   3.377
 5544TIP3    H216639   2.601   0.070   3.525
 5545TIP3   OH216640   3.127   4.219   1.743
 5545TIP3    H116641   3.060   4.267   1.695
 5545TIP3    H216642   3.111   4.127   1.721
 5546TIP3   OH216643   5.332   3.686   2.377
 5546TIP3    H116644   5.281   3.723   2.306
 5546TIP3    H216645   5.336   3.756   2.443
 5547TIP3   OH216646   6.180   5.191   1.823
 5547TIP3    H116647   6.169   5.279   1.785
 5547TIP3    H216648   6.092   5.167   1.852
 5548TIP3   OH216649   4.685   1.156   4.144
 5548TIP3    H116650   4.642   1.198   4.070
 5548TIP3    H216651   4.637   1.074   4.157
 5549TIP3   OH216652   1.290   2.167   0.900
 5549TIP3    H116653   1.356   2.184   0.967
 5549TIP3    H216654   1.340   2.151   0.820
 5550TIP3   OH216655   4.603   2.352   2.200
 5550TIP3    H116656   4.656   2.422   2.161
 5550TIP3    H216657   4.593   2.379   2.292
 5551TIP3   OH216658   3.827   0.858   2.851
 5551TIP3    H116659   3.783   0.900   2.777
 5551TIP3    H216660   3.770   0.876   2.926
 5552TIP3   OH216661   4.405   2.656   4.181
 5552TIP3    H116662   4.368   2.668   4.269
 5552TIP3    H216663   4.494   2.625   4.197
 5553TIP3   OH216664   3.169   4.011   2.732
 5553TIP3    H116665   3.077   4.034   2.721
 5553TIP3    H216666   3.167   3.924   2.772
 5554TIP3   OH216667   5.702   3.544   3.264
 5554TIP3    H116668   5.663   3.524   3.349
 5554TIP3    H216669   5.627   3.562   3.208
 5555TIP3   OH216670   5.997   1.524   2.873
 5555TIP3    H116671   5.978   1.437   2.908
 5555TIP3    H216672   6.017   1.509   2.781
 5556TIP3   OH216673   5.346   2.832   2.983
 5556TIP3    H116674   5.394   2.894   3.037
 5556TIP3    H216675   5.404   2.756   2.976
 5557TIP3   OH216676   5.716   0.370   2.115
 5557TIP3    H116677   5.673   0.400   2.034
 5557TIP3    H216678   5.718   0.448   2.171
 5558TIP3   OH216679   3.316   4.053   2.153
 5558TIP3    H116680   3.269   4.028   2.074
 5558TIP3    H216681   3.249   4.090   2.210
 5559TIP3   OH216682   2.284   1.048   4.073
 5559TIP3    H116683   2.248   1.043   4.162
 5559TIP3    H216684   2.324   0.963   4.059
 5560TIP3   OH216685   2.638   5.856   0.744
 5560TIP3    H116686   2.559   5.883   0.790
 5560TIP3    H216687   2.703   5.841   0.813
 5561TIP3   OH216688   4.590   1.240   3.890
 5561TIP3    H116689   4.575   1.296   3.814
 5561TIP3    H216690   4.641   1.166   3.856
 5562TIP3   OH216691   4.052   0.822   1.811
 5562TIP3    H116692   3.958   0.839   1.802
 5562TIP3    H216693   4.072   0.842   1.902
 5563TIP3   OH216694   5.294   0.461   1.794
 5563TIP3    H116695   5.268   0.553   1.803
 5563TIP3    H216696   5.277   0.440   1.703
 5564TIP3   OH216697   3.567   5.889   3.561
 5564TIP3    H116698   3.477   5.911   3.583
 5564TIP3    H216699   3.617   5.908   3.640
 5565TIP3   OH216700   1.236   3.017   1.179
 5565TIP3    H116701   1.158   2.978   1.218
 5565TIP3    H216702   1.239   2.982   1.090
 5566TIP3   OH216703   2.083   1.854   4.739
 5566TIP3    H116704   2.109   1.797   4.667
 5566TIP3    H216705   2.163   1.869   4.789
 5567TIP3   OH216706   5.541   1.722   4.244
 5567TIP3    H116707   5.545   1.627   4.256
 5567TIP3    H216708   5.526   1.734   4.151
 5568TIP3   OH216709   1.416   2.753   4.576
 5568TIP3    H116710   1.346   2.736   4.514
 5568TIP3    H216711   1.428   2.671   4.623
 5569TIP3   OH216712   6.103   2.594   4.398
 5569TIP3    H116713   6.022   2.587   4.346
 5569TIP3    H216714   6.126   2.687   4.394
 5570TIP3   OH216715   3.440   3.580   1.917
 5570TIP3    H116716   3.361   3.612   1.873
 5570TIP3    H216717   3.509   3.588   1.852
 5571TIP3   OH216718   0.685   1.923   0.978
 5571TIP3    H116719   0.696   1.974   0.898
 5571TIP3    H216720   0.601   1.878   0.967
 5572TIP3   OH216721   6.189   1.722   5.197
 5572TIP3    H116722   6.129   1.698   5.268
 5572TIP3    H216723   6.144   1.693   5.118
 5573TIP3   OH216724   4.477   4.006   4.618
 5573TIP3    H116725   4.517   3.926   4.654
 5573TIP3    H216726   4.386   4.003   4.649
 5574TIP3   OH216727   1.687   3.122   0.977
 5574TIP3    H116728   1.597   3.120   1.009
 5574TIP3    H216729   1.692   3.201   0.923
 5575TIP3   OH216730   6.144   1.866   2.331
 5575TIP3    H116731   6.220   1.898   2.282
 5575TIP3    H216732   6.128   1.778   2.297
 5576TIP3   OH216733   0.222   5.336   2.692
 5576TIP3    H116734   0.310   5.324   2.658
 5576TIP3    H216735   0.230   5.317   2.786
 5577TIP3   OH216736   2.981   0.180   1.364
 5577TIP3    H116737   2.890   0.187   1.392
 5577TIP3    H216738   3.031   0.175   1.445
 5578TIP3   OH216739   1.966   4.183   3.631
 5578TIP3    H116740   1.943   4.250   3.695
 5578TIP3    H216741   1.882   4.153   3.596
 5579TIP3   OH216742   3.135   2.651   1.371
 5579TIP3    H116743   3.202   2.649   1.303
 5579TIP3    H216744   3.126   2.744   1.393
 5580TIP3   OH216745   3.545   1.644   2.370
 5580TIP3    H116746   3.638   1.665   2.358
 5580TIP3    H216747   3.539   1.550   2.350
 5581TIP3   OH216748   4.576   4.137   1.316
 5581TIP3    H116749   4.554   4.228   1.335
 5581TIP3    H216750   4.648   4.117   1.375
 5582TIP3   OH216751   0.303   3.718   0.936
 5582TIP3    H116752   0.303   3.737   0.842
 5582TIP3    H216753   0.218   3.749   0.967
 5583TIP3   OH216754   5.224   4.618   2.117
 5583TIP3    H116755   5.271   4.626   2.034
 5583TIP3    H216756   5.286   4.575   2.176
 5584TIP3   OH216757   6.250   3.930   2.386
 5584TIP3    H116758   6.197   3.942   2.465
 5584TIP3    H216759   6.287   4.017   2.368
 5585TIP3   OH216760   3.848   3.206   1.010
 5585TIP3    H116761   3.788   3.164   0.948
 5585TIP3    H216762   3.799   3.210   1.092
 5586TIP3   OH216763   5.887   5.374   4.711
 5586TIP3    H116764   5.811   5.392   4.657
 5586TIP3    H216765   5.929   5.299   4.669
 5587TIP3   OH216766   3.623   4.723   2.269
 5587TIP3    H116767   3.601   4.739   2.361
 5587TIP3    H216768   3.648   4.631   2.266
 5588TIP3   OH216769   4.916   2.512   1.311
 5588TIP3    H116770   4.982   2.481   1.373
 5588TIP3    H216771   4.900   2.438   1.253
 5589TIP3   OH216772   3.302   0.249   3.243
 5589TIP3    H116773   3.310   0.162   3.282
 5589TIP3    H216774   3.276   0.232   3.153
 5590TIP3   OH216775   2.133   5.055   0.526
 5590TIP3    H116776   2.051   5.100   0.547
 5590TIP3    H216777   2.200   5.122   0.540
 5591TIP3   OH216778   2.770   5.107   1.284
 5591TIP3    H116779   2.821   5.053   1.223
 5591TIP3    H216780   2.834   5.169   1.320
 5592TIP3   OH216781   5.672   2.294   0.329
 5592TIP3    H116782   5.631   2.375   0.358
 5592TIP3    H216783   5.666   2.296   0.234
 5593TIP3   OH216784   3.527   3.083   0.461
 5593TIP3    H116785   3.495   3.127   0.540
 5593TIP3    H216786   3.559   2.999   0.493
 5594TIP3   OH216787   2.856   5.287   2.261
 5594TIP3    H116788   2.918   5.286   2.334
 5594TIP3    H216789   2.788   5.226   2.287
 5595TIP3   OH216790   2.651   3.314   2.190
 5595TIP3    H116791   2.705   3.278   2.261
 5595TIP3    H216792   2.605   3.238   2.154
 5596TIP3   OH216793   5.202   0.086   3.816
 5596TIP3    H116794   5.293   0.057   3.815
 5596TIP3    H216795   5.182   0.105   3.724
 5597TIP3   OH216796   3.226   4.641   4.850
 5597TIP3    H116797   3.172   4.565   4.831
 5597TIP3    H216798   3.203   4.705   4.784
 5598TIP3   OH216799   0.479   5.886   2.640
 5598TIP3    H116800   0.426   5.957   2.675
 5598TIP3    H216801   0.458   5.883   2.546
 5599TIP3   OH216802   0.756   5.850   0.549
 5599TIP3    H116803   0.705   5.924   0.582
 5599TIP3    H216804   0.690   5.789   0.515
 5600TIP3   OH216805   5.441   4.097   0.015
 5600TIP3    H116806   5.398   4.183   0.013
 5600TIP3    H216807   5.448   4.072  -0.077
 5601TIP3   OH216808   6.236   1.388   1.937
 5601TIP3    H116809   6.278   1.471   1.959
 5601TIP3    H216810   6.180   1.368   2.012
 5602TIP3   OH216811   4.229   5.959   3.654
 5602TIP3    H116812   4.189   5.962   3.567
 5602TIP3    H216813   4.291   5.886   3.650
 5603TIP3   OH216814   1.768   3.931   4.098
 5603TIP3    H116815   1.769   3.949   4.004
 5603TIP3    H216816   1.745   3.838   4.105
 5604TIP3   OH216817   1.170   4.298   2.978
 5604TIP3    H116818   1.088   4.264   3.013
 5604TIP3    H216819   1.236   4.271   3.042
 5605TIP3   OH216820   0.151   1.365   1.720
 5605TIP3    H116821   0.204   1.286   1.710
 5605TIP3    H216822   0.145   1.377   1.815
 5606TIP3   OH216823   1.317   2.230   2.588
 5606TIP3    H116824   1.268   2.166   2.536
 5606TIP3    H216825   1.366   2.177   2.650
 5607TIP3   OH216826   5.131   5.245   0.362
 5607TIP3    H116827   5.118   5.150   0.359
 5607TIP3    H216828   5.193   5.259   0.433
 5608TIP3   OH216829   3.271   5.395   2.081
 5608TIP3    H116830   3.257   5.313   2.034
 5608TIP3    H216831   3.215   5.388   2.159
 5609TIP3   OH216832   1.770   4.724   4.679
 5609TIP3    H116833   1.823   4.754   4.754
 5609TIP3    H216834   1.681   4.721   4.713
 5610TIP3   OH216835   1.032   1.252   0.887
 5610TIP3    H116836   1.049   1.247   0.793
 5610TIP3    H216837   1.048   1.344   0.909
 5611TIP3   OH216838   3.360   1.759   0.762
 5611TIP3    H116839   3.432   1.706   0.728
 5611TIP3    H216840   3.307   1.697   0.812
 5612TIP3   OH216841   4.136   3.147   3.203
 5612TIP3    H116842   4.103   3.173   3.289
 5612TIP3    H216843   4.190   3.221   3.175
 5613TIP3   OH216844   0.830   3.470   1.485
 5613TIP3    H116845   0.899   3.489   1.548
 5613TIP3    H216846   0.822   3.375   1.486
 5614TIP3   OH216847   1.782   4.348   0.577
 5614TIP3    H116848   1.776   4.431   0.623
 5614TIP3    H216849   1.819   4.370   0.491
 5615TIP3   OH216850   5.786   5.016   1.710
 5615TIP3    H116851   5.766   4.961   1.635
 5615TIP3    H216852   5.861   4.974   1.752
 5616TIP3   OH216853   1.463   5.829   2.738
 5616TIP3    H116854   1.371   5.825   2.763
 5616TIP3    H216855   1.508   5.778   2.806
 5617TIP3   OH216856   5.603   0.658   0.220
 5617TIP3    H116857   5.645   0.726   0.273
 5617TIP3    H216858   5.671   0.592   0.207
 5618TIP3   OH216859   2.036   4.827   3.487
 5618TIP3    H116860   2.076   4.747   3.453
 5618TIP3    H216861   1.946   4.824   3.452
 5619TIP3   OH216862   2.253   4.281   4.734
 5619TIP3    H116863   2.190   4.327   4.679
 5619TIP3    H216864   2.303   4.227   4.674
 5620TIP3   OH216865   1.326   5.176   1.265
 5620TIP3    H116866   1.245   5.226   1.269
 5620TIP3    H216867   1.357   5.187   1.175
 5621TIP3   OH216868   4.288   2.929   3.175
 5621TIP3    H116869   4.229   3.003   3.166
 5621TIP3    H216870   4.375   2.964   3.155
 5622TIP3   OH216871   3.005   3.724   2.985
 5622TIP3    H116872   3.100   3.722   2.975
 5622TIP3    H216873   2.971   3.701   2.899
 5623TIP3   OH216874   1.018   1.612   3.780
 5623TIP3    H116875   0.973   1.666   3.845
 5623TIP3    H216876   1.108   1.605   3.813
 5624TIP3   OH216877   1.389   3.952   3.473
 5624TIP3    H116878   1.360   3.924   3.386
 5624TIP3    H216879   1.323   4.014   3.502
 5625TIP3   OH216880   4.157   5.385   4.223
 5625TIP3    H116881   4.101   5.319   4.181
 5625TIP3    H216882   4.239   5.381   4.175
 5626TIP3   OH216883   1.946   0.497   0.970
 5626TIP3    H116884   1.992   0.489   1.054
 5626TIP3    H216885   1.854   0.502   0.994
 5627TIP3   OH216886   5.441   0.736   1.670
 5627TIP3    H116887   5.430   0.643   1.649
 5627TIP3    H216888   5.398   0.746   1.755
 5628TIP3   OH216889   0.538   2.213   1.277
 5628TIP3    H116890   0.502   2.197   1.189
 5628TIP3    H216891   0.606   2.279   1.263
 5629TIP3   OH216892   3.897   5.472   0.803
 5629TIP3    H116893   3.900   5.378   0.821
 5629TIP3    H216894   3.920   5.514   0.886
 5630TIP3   OH216895   2.676   3.777   4.831
 5630TIP3    H116896   2.741   3.748   4.767
 5630TIP3    H216897   2.643   3.860   4.796
 5631TIP3   OH216898   4.089   2.334   3.618
 5631TIP3    H116899   4.145   2.266   3.581
 5631TIP3    H216900   4.015   2.340   3.558
 5632TIP3   OH216901   2.785   0.868   0.157
 5632TIP3    H116902   2.850   0.936   0.138
 5632TIP3    H216903   2.746   0.847   0.072
 5633TIP3   OH216904   0.689   1.014   4.211
 5633TIP3    H116905   0.670   0.971   4.294
 5633TIP3    H216906   0.603   1.045   4.180
 5634TIP3   OH216907   2.570   2.890   2.247
 5634TIP3    H116908   2.638   2.828   2.221
 5634TIP3    H216909   2.533   2.853   2.327
 5635TIP3   OH216910   4.368   0.907   0.168
 5635TIP3    H116911   4.365   0.812   0.173
 5635TIP3    H216912   4.434   0.933   0.233
 5636TIP3   OH216913   0.605   5.944   1.272
 5636TIP3    H116914   0.623   6.034   1.299
 5636TIP3    H216915   0.510   5.937   1.271
 5637TIP3   OH216916   6.054   1.637   3.533
 5637TIP3    H116917   6.081   1.646   3.441
 5637TIP3    H216918   6.047   1.727   3.565
 5638TIP3   OH216919   3.878   1.336   2.726
 5638TIP3    H116920   3.906   1.405   2.786
 5638TIP3    H216921   3.918   1.257   2.761
 5639TIP3   OH216922   4.308   2.608   1.391
 5639TIP3    H116923   4.260   2.599   1.309
 5639TIP3    H216924   4.400   2.598   1.367
 5640TIP3   OH216925   0.768   0.625   4.270
 5640TIP3    H116926   0.680   0.588   4.274
 5640TIP3    H216927   0.809   0.600   4.353
 5641TIP3   OH216928   5.402   4.263   4.036
 5641TIP3    H116929   5.493   4.289   4.048
 5641TIP3    H216930   5.356   4.344   4.014
 5642TIP3   OH216931   4.651   3.864   2.616
 5642TIP3    H116932   4.635   3.897   2.528
 5642TIP3    H216933   4.571   3.815   2.638
 5643TIP3   OH216934   3.912   2.582   1.189
 5643TIP3    H116935   3.940   2.499   1.228
 5643TIP3    H216936   3.910   2.643   1.263
 5644TIP3   OH216937   3.618   0.952   3.038
 5644TIP3    H116938   3.558   0.911   2.976
 5644TIP3    H216939   3.646   1.032   2.995
 5645TIP3   OH216940   4.856   5.579   3.837
 5645TIP3    H116941   4.855   5.547   3.747
 5645TIP3    H216942   4.912   5.657   3.833
 5646TIP3   OH216943   5.579   1.723   4.504
 5646TIP3    H116944   5.550   1.743   4.415
 5646TIP3    H216945   5.514   1.662   4.538
 5647TIP3   OH216946   1.720   2.126   1.290
 5647TIP3    H116947   1.763   2.041   1.281
 5647TIP3    H216948   1.784   2.182   1.333
 5648TIP3   OH216949   5.488   2.445   2.438
 5648TIP3    H116950   5.559   2.423   2.377
 5648TIP3    H216951   5.428   2.499   2.387
 5649TIP3   OH216952   2.668   2.798   1.877
 5649TIP3    H116953   2.693   2.763   1.792
 5649TIP3    H216954   2.751   2.821   1.918
 5650TIP3   OH216955   4.785   5.050   0.942
 5650TIP3    H116956   4.754   4.988   1.008
 5650TIP3    H216957   4.766   5.007   0.858
 5651TIP3   OH216958   0.740   2.487   0.913
 5651TIP3    H116959   0.707   2.570   0.881
 5651TIP3    H216960   0.666   2.449   0.962
 5652TIP3   OH216961   4.982   1.685   1.024
 5652TIP3    H116962   4.896   1.710   0.992
 5652TIP3    H216963   5.027   1.768   1.040
 5653TIP3   OH216964   3.905   5.290   0.132
 5653TIP3    H116965   3.996   5.263   0.132
 5653TIP3    H216966   3.879   5.285   0.039
 5654TIP3   OH216967   4.123   3.636   1.124
 5654TIP3    H116968   4.145   3.729   1.129
 5654TIP3    H216969   4.141   3.611   1.034
 5655TIP3   OH216970   0.796   1.326   4.204
 5655TIP3    H116971   0.800   1.235   4.172
 5655TIP3    H216972   0.773   1.377   4.126
 5656TIP3   OH216973   6.376   5.066   4.626
 5656TIP3    H116974   6.396   4.972   4.619
 5656TIP3    H216975   6.308   5.081   4.560
 5657TIP3   OH216976   1.115   3.446   2.909
 5657TIP3    H116977   1.053   3.488   2.849
 5657TIP3    H216978   1.191   3.426   2.855
 5658TIP3   OH216979   2.996   4.058   0.403
 5658TIP3    H116980   2.903   4.052   0.382
 5658TIP3    H216981   3.024   3.967   0.416
 5659TIP3   OH216982   2.291   5.651   3.439
 5659TIP3    H116983   2.270   5.630   3.348
 5659TIP3    H216984   2.206   5.671   3.479
 5660TIP3   OH216985   4.906   4.029   4.702
 5660TIP3    H116986   4.849   3.957   4.674
 5660TIP3    H216987   4.982   4.023   4.643
 5661TIP3   OH216988   1.875   5.934   2.805
 5661TIP3    H116989   1.970   5.924   2.809
 5661TIP3    H216990   1.859   5.981   2.723
 5662TIP3   OH216991   3.219   5.041   4.210
 5662TIP3    H116992   3.301   5.066   4.167
 5662TIP3    H216993   3.184   5.123   4.245
 5663TIP3   OH216994   5.501   1.941   5.174
 5663TIP3    H116995   5.420   1.987   5.150
 5663TIP3    H216996   5.541   1.995   5.241
 5664TIP3   OH216997   0.613   1.342   3.917
 5664TIP3    H116998   0.696   1.304   3.885
 5664TIP3    H216999   0.629   1.437   3.916
 5665TIP3   OH217000   0.797   3.625   1.833
 5665TIP3    H117001   0.885   3.655   1.811
 5665TIP3    H217002   0.794   3.534   1.804
 5666TIP3   OH217003   0.246   4.809   4.249
 5666TIP3    H117004   0.196   4.727   4.242
 5666TIP3    H217005   0.334   4.785   4.222
 5667TIP3   OH217006   0.129   0.911   1.561
 5667TIP3    H117007   0.104   0.820   1.578
 5667TIP3    H217008   0.204   0.904   1.502
 5668TIP3   OH217009   5.094   0.397   4.588
 5668TIP3    H117010   5.177   0.443   4.572
 5668TIP3    H217011   5.102   0.316   4.537
 5669TIP3   OH217012   1.484   2.881   4.269
 5669TIP3    H117013   1.419   2.810   4.276
 5669TIP3    H217014   1.529   2.864   4.187
 5670TIP3   OH217015   0.387   2.781   4.903
 5670TIP3    H117016   0.304   2.819   4.933
 5670TIP3    H217017   0.362   2.726   4.829
 5671TIP3   OH217018   5.034   1.191   3.249
 5671TIP3    H117019   5.087   1.112   3.246
 5671TIP3    H217020   4.986   1.191   3.166
 5672TIP3   OH217021   5.834   4.767   4.745
 5672TIP3    H117022   5.924   4.776   4.715
 5672TIP3    H217023   5.806   4.682   4.712
 5673TIP3   OH217024   3.102   2.453   2.472
 5673TIP3    H117025   3.060   2.492   2.549
 5673TIP3    H217026   3.031   2.405   2.428
 5674TIP3   OH217027   4.503   4.615   4.664
 5674TIP3    H117028   4.465   4.528   4.653
 5674TIP3    H217029   4.447   4.658   4.728
 5675TIP3   OH217030   1.926   2.199   3.868
 5675TIP3    H117031   2.006   2.169   3.910
 5675TIP3    H217032   1.891   2.122   3.824
 5676TIP3   OH217033   1.390   0.568   1.553
 5676TIP3    H117034   1.479   0.603   1.564
 5676TIP3    H217035   1.364   0.597   1.466
 5677TIP3   OH217036   0.775   0.211   3.206
 5677TIP3    H117037   0.730   0.270   3.145
 5677TIP3    H217038   0.736   0.231   3.291
 5678TIP3   OH217039   4.818   2.244   0.605
 5678TIP3    H117040   4.789   2.323   0.559
 5678TIP3    H217041   4.911   2.237   0.584
 5679TIP3   OH217042   5.373   2.347   5.067
 5679TIP3    H117043   5.408   2.289   4.999
 5679TIP3    H217044   5.368   2.433   5.025
 5680TIP3   OH217045   4.266   0.651   3.897
 5680TIP3    H117046   4.329   0.671   3.827
 5680TIP3    H217047   4.312   0.674   3.977
 5681TIP3   OH217048   0.658   2.911   2.471
 5681TIP3    H117049   0.627   2.952   2.390
 5681TIP3    H217050   0.751   2.893   2.454
 5682TIP3   OH217051   1.203   4.840   3.477
 5682TIP3    H117052   1.126   4.895   3.494
 5682TIP3    H217053   1.261   4.896   3.426
 5683TIP3   OH217054   3.344   1.551   0.327
 5683TIP3    H117055   3.356   1.457   0.346
 5683TIP3    H217056   3.412   1.571   0.263
 5684TIP3   OH217057   1.049   2.147   5.162
 5684TIP3    H117058   1.126   2.190   5.200
 5684TIP3    H217059   1.063   2.153   5.067
 5685TIP3   OH217060   4.562   4.630   3.822
 5685TIP3    H117061   4.595   4.679   3.897
 5685TIP3    H217062   4.537   4.545   3.858
 5686TIP3   OH217063   3.807   0.867   3.202
 5686TIP3    H117064   3.819   0.773   3.193
 5686TIP3    H217065   3.736   0.888   3.142
 5687TIP3   OH217066   3.329   5.491   0.279
 5687TIP3    H117067   3.391   5.494   0.352
 5687TIP3    H217068   3.251   5.536   0.312
 5688TIP3   OH217069   2.961   5.613   1.885
 5688TIP3    H117070   2.882   5.573   1.848
 5688TIP3    H217071   2.946   5.707   1.874
 5689TIP3   OH217072   1.648   2.587   0.902
 5689TIP3    H117073   1.593   2.604   0.826
 5689TIP3    H217074   1.590   2.545   0.966
 5690TIP3   OH217075   0.889   1.852   2.091
 5690TIP3    H117076   0.925   1.778   2.042
 5690TIP3    H217077   0.817   1.884   2.036
 5691TIP3   OH217078   5.591   1.858   0.584
 5691TIP3    H117079   5.498   1.835   0.578
 5691TIP3    H217080   5.637   1.775   0.573
 5692TIP3   OH217081   0.600   1.860   4.862
 5692TIP3    H117082   0.646   1.928   4.911
 5692TIP3    H217083   0.532   1.829   4.923
 5693TIP3   OH217084   3.163   2.678   0.866
 5693TIP3    H117085   3.194   2.767   0.850
 5693TIP3    H217086   3.069   2.688   0.880
 5694TIP3   OH217087   0.773   4.294   4.858
 5694TIP3    H117088   0.696   4.344   4.883
 5694TIP3    H217089   0.819   4.277   4.941
 5695TIP3   OH217090   1.277   3.072   0.361
 5695TIP3    H117091   1.195   3.070   0.412
 5695TIP3    H217092   1.325   3.147   0.396
 5696TIP3   OH217093   2.317   2.320   4.720
 5696TIP3    H117094   2.250   2.363   4.774
 5696TIP3    H217095   2.349   2.388   4.661
 5697TIP3   OH217096   4.719   0.207   2.705
 5697TIP3    H117097   4.670   0.131   2.736
 5697TIP3    H217098   4.663   0.246   2.638
 5698TIP3   OH217099   2.493   4.141   0.836
 5698TIP3    H117100   2.422   4.202   0.821
 5698TIP3    H217101   2.571   4.195   0.843
 5699TIP3   OH217102   6.260   3.080   1.042
 5699TIP3    H117103   6.298   3.098   1.128
 5699TIP3    H217104   6.254   2.985   1.037
 5700TIP3   OH217105   5.562   0.604   4.297
 5700TIP3    H117106   5.493   0.669   4.294
 5700TIP3    H217107   5.642   0.653   4.318
 5701TIP3   OH217108   6.305   1.436   2.435
 5701TIP3    H117109   6.300   1.345   2.403
 5701TIP3    H217110   6.360   1.431   2.513
 5702TIP3   OH217111   1.385   1.815   0.795
 5702TIP3    H117112   1.348   1.810   0.884
 5702TIP3    H217113   1.328   1.758   0.743
 5703TIP3   OH217114   0.110   3.737   0.005
 5703TIP3    H117115   0.131   3.830  -0.003
 5703TIP3    H217116   0.016   3.735   0.023
 5704TIP3   OH217117   0.395   2.141   1.946
 5704TIP3    H117118   0.474   2.179   1.984
 5704TIP3    H217119   0.426   2.087   1.874
 5705TIP3   OH217120   6.284   4.055   4.778
 5705TIP3    H117121   6.350   4.063   4.709
 5705TIP3    H217122   6.298   3.969   4.816
 5706TIP3   OH217123   2.214   1.100   3.101
 5706TIP3    H117124   2.128   1.101   3.059
 5706TIP3    H217125   2.222   1.013   3.139
 5707TIP3   OH217126   3.491   0.187   0.341
 5707TIP3    H117127   3.440   0.132   0.280
 5707TIP3    H217128   3.582   0.167   0.320
 5708TIP3   OH217129   2.906   5.068   3.574
 5708TIP3    H117130   2.941   5.108   3.494
 5708TIP3    H217131   2.981   5.057   3.631
 5709TIP3   OH217132   0.522   0.394   3.495
 5709TIP3    H117133   0.478   0.369   3.576
 5709TIP3    H217134   0.597   0.335   3.489
 5710TIP3   OH217135   0.180   5.099   2.474
 5710TIP3    H117136   0.200   5.100   2.380
 5710TIP3    H217137   0.233   5.170   2.510
 5711TIP3   OH217138   4.515   0.626   4.344
 5711TIP3    H117139   4.526   0.708   4.391
 5711TIP3    H217140   4.464   0.571   4.404
 5712TIP3   OH217141   3.155   0.159   1.621
 5712TIP3    H117142   3.219   0.229   1.610
 5712TIP3    H217143   3.206   0.084   1.652
 5713TIP3   OH217144   3.124   0.406   0.044
 5713TIP3    H117145   3.208   0.443   0.017
 5713TIP3    H217146   3.115   0.430   0.136
 5714TIP3   OH217147   5.478   0.360   1.415
 5714TIP3    H117148   5.556   0.341   1.363
 5714TIP3    H217149   5.511   0.398   1.496
 5715TIP3   OH217150   4.420   1.694   3.208
 5715TIP3    H117151   4.474   1.620   3.234
 5715TIP3    H217152   4.443   1.764   3.269
 5716TIP3   OH217153   1.825   3.974   2.441
 5716TIP3    H117154   1.903   3.967   2.386
 5716TIP3    H217155   1.763   4.025   2.389
 5717TIP3   OH217156   1.434   0.572   0.912
 5717TIP3    H117157   1.364   0.624   0.950
 5717TIP3    H217158   1.410   0.563   0.819
 5718TIP3   OH217159   4.145   0.905   3.829
 5718TIP3    H117160   4.228   0.951   3.843
 5718TIP3    H217161   4.171   0.815   3.812
 5719TIP3   OH217162   2.737   3.873   4.191
 5719TIP3    H117163   2.715   3.909   4.277
 5719TIP3    H217164   2.683   3.794   4.185
 5720TIP3   OH217165   4.849   3.204   2.761
 5720TIP3    H117166   4.900   3.282   2.737
 5720TIP3    H217167   4.762   3.238   2.784
 5721TIP3   OH217168   2.141   1.667   2.250
 5721TIP3    H117169   2.087   1.694   2.325
 5721TIP3    H217170   2.080   1.666   2.176
 5722TIP3   OH217171   3.632   0.520   2.763
 5722TIP3    H117172   3.638   0.425   2.767
 5722TIP3    H217173   3.555   0.542   2.816
 5723TIP3   OH217174   5.453   2.778   4.908
 5723TIP3    H117175   5.529   2.777   4.967
 5723TIP3    H217176   5.439   2.871   4.890
 5724TIP3   OH217177   4.734   5.817   4.591
 5724TIP3    H117178   4.750   5.850   4.679
 5724TIP3    H217179   4.765   5.888   4.533
 5725TIP3   OH217180   2.016   4.010   0.274
 5725TIP3    H117181   2.105   4.046   0.274
 5725TIP3    H217182   1.990   4.012   0.182
 5726TIP3   OH217183   6.041   4.331   5.051
 5726TIP3    H117184   6.066   4.387   4.977
 5726TIP3    H217185   6.055   4.386   5.128
 5727TIP3   OH217186   1.774   5.755   4.638
 5727TIP3    H117187   1.734   5.801   4.565
 5727TIP3    H217188   1.868   5.765   4.626
 5728TIP3   OH217189   0.054   4.821   0.158
 5728TIP3    H117190  -0.012   4.751   0.164
 5728TIP3    H217191   0.089   4.828   0.247
 5729TIP3   OH217192   5.635   0.535   2.873
 5729TIP3    H117193   5.627   0.441   2.888
 5729TIP3    H217194   5.612   0.575   2.957
 5730TIP3   OH217195   1.440   0.686   0.148
 5730TIP3    H117196   1.468   0.661   0.061
 5730TIP3    H217197   1.485   0.768   0.166
 5731TIP3   OH217198   0.487   4.334   2.637
 5731TIP3    H117199   0.537   4.409   2.670
 5731TIP3    H217200   0.424   4.315   2.707
 5732TIP3   OH217201   3.979   0.313   0.594
 5732TIP3    H117202   4.042   0.243   0.575
 5732TIP3    H217203   3.893   0.271   0.584
 5733TIP3   OH217204   5.768   3.281   0.100
 5733TIP3    H117205   5.740   3.350   0.160
 5733TIP3    H217206   5.754   3.318   0.013
 5734TIP3   OH217207   0.715   0.730   4.890
 5734TIP3    H117208   0.666   0.710   4.970
 5734TIP3    H217209   0.807   0.719   4.914
 5735TIP3   OH217210   0.833   3.098   3.892
 5735TIP3    H117211   0.752   3.133   3.855
 5735TIP3    H217212   0.859   3.163   3.957
 5736TIP3   OH217213   4.276   2.011   1.692
 5736TIP3    H117214   4.283   2.098   1.732
 5736TIP3    H217215   4.183   2.000   1.675
 5737TIP3   OH217216   2.732   0.129   5.007
 5737TIP3    H117217   2.767   0.182   5.078
 5737TIP3    H217218   2.751   0.039   5.032
 5738TIP3   OH217219   1.571   1.296   2.378
 5738TIP3    H117220   1.664   1.305   2.397
 5738TIP3    H217221   1.568   1.240   2.300
 5739TIP3   OH217222   0.111   5.856   3.129
 5739TIP3    H117223   0.057   5.908   3.189
 5739TIP3    H217224   0.053   5.838   3.055
 5740TIP3   OH217225   3.346   3.787   0.570
 5740TIP3    H117226   3.331   3.700   0.535
 5740TIP3    H217227   3.429   3.815   0.530
 5741TIP3   OH217228   3.936   3.207   2.203
 5741TIP3    H117229   3.904   3.281   2.151
 5741TIP3    H217230   4.008   3.244   2.254
 5742TIP3   OH217231   0.276   4.484   0.180
 5742TIP3    H117232   0.214   4.528   0.122
 5742TIP3    H217233   0.360   4.523   0.160
 5743TIP3   OH217234   2.888   5.145   4.817
 5743TIP3    H117235   2.959   5.135   4.754
 5743TIP3    H217236   2.897   5.070   4.876
 5744TIP3   OH217237   2.087   4.600   4.800
 5744TIP3    H117238   2.149   4.605   4.873
 5744TIP3    H217239   2.120   4.663   4.736
 5745TIP3   OH217240   4.916   4.349   1.358
 5745TIP3    H117241   4.859   4.295   1.412
 5745TIP3    H217242   4.932   4.296   1.280
 5746TIP3   OH217243   0.648   4.870   2.733
 5746TIP3    H117244   0.710   4.881   2.660
 5746TIP3    H217245   0.562   4.890   2.695
 5747TIP3   OH217246   1.058   5.121   2.388
 5747TIP3    H117247   1.092   5.093   2.303
 5747TIP3    H217248   0.964   5.132   2.375
 5748TIP3   OH217249   3.318   3.531   2.212
 5748TIP3    H117250   3.410   3.512   2.194
 5748TIP3    H217251   3.314   3.626   2.221
 5749TIP3   OH217252   5.550   3.583   0.008
 5749TIP3    H117253   5.525   3.670   0.037
 5749TIP3    H217254   5.584   3.540   0.087
 5750TIP3   OH217255   3.124   3.633   3.856
 5750TIP3    H117256   3.065   3.591   3.794
 5750TIP3    H217257   3.140   3.566   3.923
 5751TIP3   OH217258   3.753   2.543   2.719
 5751TIP3    H117259   3.687   2.604   2.750
 5751TIP3    H217260   3.718   2.510   2.636
 5752TIP3   OH217261   4.232   3.754   4.092
 5752TIP3    H117262   4.247   3.719   4.179
 5752TIP3    H217263   4.139   3.739   4.075
 5753TIP3   OH217264   5.531   2.027   1.277
 5753TIP3    H117265   5.594   2.045   1.347
 5753TIP3    H217266   5.574   1.962   1.222
 5754TIP3   OH217267   1.463   2.822   1.174
 5754TIP3    H117268   1.416   2.751   1.131
 5754TIP3    H217269   1.396   2.889   1.189
 5755TIP3   OH217270   3.954   2.714   5.086
 5755TIP3    H117271   3.886   2.766   5.043
 5755TIP3    H217272   3.982   2.652   5.019
 5756TIP3   OH217273   3.068   3.961   3.094
 5756TIP3    H117274   3.019   3.890   3.054
 5756TIP3    H217275   3.159   3.930   3.095
 5757TIP3   OH217276   1.649   4.738   1.820
 5757TIP3    H117277   1.714   4.676   1.853
 5757TIP3    H217278   1.695   4.786   1.751
 5758TIP3   OH217279  -0.008   2.588   4.950
 5758TIP3    H117280   0.039   2.668   4.973
 5758TIP3    H217281  -0.066   2.613   4.878
 5759TIP3   OH217282   4.791   3.703   3.536
 5759TIP3    H117283   4.697   3.722   3.527
 5759TIP3    H217284   4.795   3.613   3.567
 5760TIP3   OH217285   3.095   3.945   4.535
 5760TIP3    H117286   3.058   3.937   4.447
 5760TIP3    H217287   3.136   4.031   4.535
 5761TIP3   OH217288   4.961   4.991   1.593
 5761TIP3    H117289   4.968   5.083   1.616
 5761TIP3    H217290   4.979   4.988   1.499
 5762TIP3   OH217291   4.947   1.804   3.857
 5762TIP3    H117292   4.894   1.836   3.783
 5762TIP3    H217293   5.015   1.870   3.868
 5763TIP3   OH217294   0.323   1.724   2.897
 5763TIP3    H117295   0.333   1.687   2.984
 5763TIP3    H217296   0.263   1.665   2.852
 5764TIP3   OH217297   0.515   2.283   3.877
 5764TIP3    H117298   0.426   2.313   3.895
 5764TIP3    H217299   0.562   2.362   3.850
 5765TIP3   OH217300   2.210   3.450   3.586
 5765TIP3    H117301   2.179   3.386   3.650
 5765TIP3    H217302   2.230   3.398   3.508
 5766TIP3   OH217303   1.787   3.846   2.004
 5766TIP3    H117304   1.859   3.783   2.004
 5766TIP3    H217305   1.825   3.925   1.965
 5767TIP3   OH217306   3.217   1.186   3.479
 5767TIP3    H117307   3.255   1.152   3.560
 5767TIP3    H217308   3.281   1.250   3.448
 5768TIP3   OH217309   1.641   3.421   2.890
 5768TIP3    H117310   1.590   3.441   2.969
 5768TIP3    H217311   1.697   3.498   2.878
 5769TIP3   OH217312   0.462   1.066   4.794
 5769TIP3    H117313   0.507   1.100   4.716
 5769TIP3    H217314   0.400   1.135   4.817
 5770TIP3   OH217315   1.305   3.397   5.177
 5770TIP3    H117316   1.237   3.414   5.111
 5770TIP3    H217317   1.256   3.390   5.260
 5771TIP3   OH217318   3.067   1.174   2.256
 5771TIP3    H117319   3.142   1.153   2.313
 5771TIP3    H217320   3.065   1.270   2.255
 5772TIP3   OH217321   4.371   0.428   4.978
 5772TIP3    H117322   4.326   0.409   5.060
 5772TIP3    H217323   4.432   0.498   4.999
 5773TIP3   OH217324   6.151   4.049   0.113
 5773TIP3    H117325   6.146   4.144   0.109
 5773TIP3    H217326   6.219   4.026   0.050
 5774TIP3   OH217327   2.789   2.868   2.521
 5774TIP3    H117328   2.798   2.921   2.442
 5774TIP3    H217329   2.805   2.929   2.593
 5775TIP3   OH217330   3.031   5.798   0.283
 5775TIP3    H117331   3.068   5.728   0.336
 5775TIP3    H217332   3.090   5.872   0.296
 5776TIP3   OH217333   2.716   0.233   4.651
 5776TIP3    H117334   2.723   0.138   4.648
 5776TIP3    H217335   2.768   0.259   4.727
 5777TIP3   OH217336   0.059   3.064   5.061
 5777TIP3    H117337  -0.025   3.078   5.017
 5777TIP3    H217338   0.111   3.142   5.039
 5778TIP3   OH217339   1.647   4.347   0.902
 5778TIP3    H117340   1.560   4.308   0.893
 5778TIP3    H217341   1.647   4.386   0.990
 5779TIP3   OH217342   1.235   3.620   3.123
 5779TIP3    H117343   1.278   3.661   3.048
 5779TIP3    H217344   1.168   3.564   3.084
 5780TIP3   OH217345   3.965   0.594   1.158
 5780TIP3    H117346   4.055   0.600   1.192
 5780TIP3    H217347   3.910   0.596   1.236
 5781TIP3   OH217348   5.609   4.816   0.036
 5781TIP3    H117349   5.551   4.741   0.050
 5781TIP3    H217350   5.682   4.802   0.096
 5782TIP3   OH217351   1.097   1.101   3.835
 5782TIP3    H117352   1.149   1.075   3.759
 5782TIP3    H217353   1.117   1.035   3.902
 5783TIP3   OH217354   0.049   0.807   4.921
 5783TIP3    H117355   0.142   0.787   4.928
 5783TIP3    H217356   0.032   0.808   4.826
 5784TIP3   OH217357   5.423   3.330   3.503
 5784TIP3    H117358   5.446   3.319   3.411
 5784TIP3    H217359   5.475   3.405   3.533
 5785TIP3   OH217360   2.865   4.279   1.325
 5785TIP3    H117361   2.942   4.310   1.278
 5785TIP3    H217362   2.790   4.305   1.270
 5786TIP3   OH217363   0.664   0.743   0.575
 5786TIP3    H117364   0.665   0.794   0.494
 5786TIP3    H217365   0.739   0.684   0.568
 5787TIP3   OH217366   2.363   5.485   1.050
 5787TIP3    H117367   2.384   5.442   1.133
 5787TIP3    H217368   2.400   5.426   0.984
 5788TIP3   OH217369   5.500   1.164   1.393
 5788TIP3    H117370   5.467   1.162   1.483
 5788TIP3    H217371   5.585   1.207   1.400
 5789TIP3   OH217372   5.053   1.942   1.104
 5789TIP3    H117373   5.124   1.988   1.059
 5789TIP3    H217374   5.065   1.963   1.197
 5790TIP3   OH217375   6.208   4.692   2.430
 5790TIP3    H117376   6.290   4.726   2.394
 5790TIP3    H217377   6.140   4.727   2.373
 5791TIP3   OH217378   3.774   2.601   3.934
 5791TIP3    H117379   3.772   2.669   3.867
 5791TIP3    H217380   3.843   2.629   3.995
 5792TIP3   OH217381   0.552   5.116   2.370
 5792TIP3    H117382   0.588   5.107   2.282
 5792TIP3    H217383   0.521   5.028   2.392
 5793TIP3   OH217384   5.970   3.644   4.092
 5793TIP3    H117385   5.882   3.663   4.124
 5793TIP3    H217386   5.961   3.561   4.045
 5794TIP3   OH217387   5.116   1.306   2.175
 5794TIP3    H117388   5.091   1.390   2.136
 5794TIP3    H217389   5.036   1.254   2.172
 5795TIP3   OH217390   4.336   5.339   2.807
 5795TIP3    H117391   4.420   5.385   2.816
 5795TIP3    H217392   4.342   5.295   2.723
 5796TIP3   OH217393   3.768   4.706   1.618
 5796TIP3    H117394   3.703   4.746   1.560
 5796TIP3    H217395   3.766   4.762   1.696
 5797TIP3   OH217396   3.695   5.757   1.357
 5797TIP3    H117397   3.680   5.788   1.268
 5797TIP3    H217398   3.788   5.776   1.373
 5798TIP3   OH217399   3.452   1.110   1.350
 5798TIP3    H117400   3.496   1.044   1.296
 5798TIP3    H217401   3.517   1.180   1.358
 5799TIP3   OH217402   0.899   5.443   2.237
 5799TIP3    H117403   0.913   5.382   2.310
 5799TIP3    H217404   0.981   5.441   2.188
 5800TIP3   OH217405   5.210   4.237   4.258
 5800TIP3    H117406   5.250   4.228   4.171
 5800TIP3    H217407   5.284   4.230   4.319
 5801TIP3   OH217408   4.763   5.360   1.885
 5801TIP3    H117409   4.733   5.422   1.818
 5801TIP3    H217410   4.803   5.289   1.836
 5802TIP3   OH217411   2.800   0.777   2.938
 5802TIP3    H117412   2.843   0.784   3.023
 5802TIP3    H217413   2.714   0.816   2.951
 5803TIP3   OH217414   4.771   4.841   0.275
 5803TIP3    H117415   4.680   4.841   0.246
 5803TIP3    H217416   4.801   4.930   0.262
 5804TIP3   OH217417   1.941   4.285   3.910
 5804TIP3    H117418   1.914   4.272   4.001
 5804TIP3    H217419   1.966   4.377   3.905
 5805TIP3   OH217420   3.083   3.754   4.938
 5805TIP3    H117421   3.131   3.760   5.020
 5805TIP3    H217422   3.150   3.736   4.872
 5806TIP3   OH217423   1.260   3.343   4.059
 5806TIP3    H117424   1.243   3.260   4.103
 5806TIP3    H217425   1.283   3.319   3.969
 5807TIP3   OH217426   0.402   5.000   2.127
 5807TIP3    H117427   0.428   4.999   2.035
 5807TIP3    H217428   0.307   4.998   2.126
 5808TIP3   OH217429   3.195   0.302   1.866
 5808TIP3    H117430   3.210   0.309   1.960
 5808TIP3    H217431   3.246   0.226   1.840
 5809TIP3   OH217432   1.178   5.620   4.769
 5809TIP3    H117433   1.180   5.704   4.723
 5809TIP3    H217434   1.107   5.572   4.725
 5810TIP3   OH217435   0.062   1.614   0.074
 5810TIP3    H117436  -0.002   1.557   0.031
 5810TIP3    H217437   0.142   1.560   0.077
 5811TIP3   OH217438   1.641   1.715   2.283
 5811TIP3    H117439   1.586   1.675   2.350
 5811TIP3    H217440   1.581   1.772   2.234
 5812TIP3   OH217441   5.382   0.804   4.334
 5812TIP3    H117442   5.381   0.891   4.376
 5812TIP3    H217443   5.307   0.806   4.275
 5813TIP3   OH217444   2.838   1.193   0.695
 5813TIP3    H117445   2.758   1.175   0.646
 5813TIP3    H217446   2.908   1.161   0.639
 5814TIP3   OH217447   4.386   1.351   4.060
 5814TIP3    H117448   4.366   1.439   4.092
 5814TIP3    H217449   4.475   1.358   4.027
 5815TIP3   OH217450   0.353   5.960   3.010
 5815TIP3    H117451   0.276   5.922   3.053
 5815TIP3    H217452   0.316   6.015   2.940
 5816TIP3   OH217453   0.985   2.944   2.662
 5816TIP3    H117454   0.971   3.038   2.668
 5816TIP3    H217455   0.984   2.913   2.752
 5817TIP3   OH217456   5.683   2.743   4.415
 5817TIP3    H117457   5.728   2.825   4.438
 5817TIP3    H217458   5.617   2.732   4.483
 5818TIP3   OH217459   2.167   1.237   2.077
 5818TIP3    H117460   2.256   1.270   2.084
 5818TIP3    H217461   2.161   1.168   2.143
 5819TIP3   OH217462   3.869   4.213   1.415
 5819TIP3    H117463   3.944   4.157   1.430
 5819TIP3    H217464   3.858   4.262   1.497
 5820TIP3   OH217465   6.325   1.999   0.937
 5820TIP3    H117466   6.244   2.036   0.904
 5820TIP3    H217467   6.300   1.913   0.971
 5821TIP3   OH217468   1.458   3.893   2.144
 5821TIP3    H117469   1.491   3.920   2.058
 5821TIP3    H217470   1.363   3.906   2.138
 5822TIP3   OH217471   3.391   1.604   2.060
 5822TIP3    H117472   3.424   1.574   1.975
 5822TIP3    H217473   3.428   1.543   2.123
 5823TIP3   OH217474   0.802   0.759   0.142
 5823TIP3    H117475   0.743   0.791   0.210
 5823TIP3    H217476   0.814   0.833   0.083
 5824TIP3   OH217477   2.490   3.690   1.771
 5824TIP3    H117478   2.528   3.761   1.720
 5824TIP3    H217479   2.435   3.642   1.709
 5825TIP3   OH217480   1.334   5.841   0.911
 5825TIP3    H117481   1.340   5.748   0.931
 5825TIP3    H217482   1.271   5.846   0.839
 5826TIP3   OH217483   6.011   4.651   0.523
 5826TIP3    H117484   6.079   4.702   0.478
 5826TIP3    H217485   6.054   4.619   0.602
 5827TIP3   OH217486   5.080   5.109   3.112
 5827TIP3    H117487   5.023   5.119   3.188
 5827TIP3    H217488   5.121   5.195   3.101
 5828TIP3   OH217489   0.135   0.578   0.057
 5828TIP3    H117490   0.177   0.497   0.084
 5828TIP3    H217491   0.137   0.576  -0.039
 5829TIP3   OH217492   6.275   5.641   3.538
 5829TIP3    H117493   6.203   5.582   3.558
 5829TIP3    H217494   6.288   5.692   3.618
 5830TIP3   OH217495   1.565   0.392   2.410
 5830TIP3    H117496   1.531   0.459   2.469
 5830TIP3    H217497   1.487   0.354   2.370
 5831TIP3   OH217498   6.367   4.041   3.868
 5831TIP3    H117499   6.301   3.976   3.848
 5831TIP3    H217500   6.323   4.125   3.856
 5832TIP3   OH217501   2.842   5.528   2.709
 5832TIP3    H117502   2.813   5.467   2.777
 5832TIP3    H217503   2.792   5.504   2.631
 5833TIP3   OH217504   1.553   3.160   4.161
 5833TIP3    H117505   1.508   3.245   4.168
 5833TIP3    H217506   1.536   3.117   4.245
 5834TIP3   OH217507   1.313   5.560   2.622
 5834TIP3    H117508   1.236   5.520   2.662
 5834TIP3    H217509   1.374   5.574   2.694
 5835TIP3   OH217510   5.116   4.175   0.329
 5835TIP3    H117511   5.126   4.241   0.398
 5835TIP3    H217512   5.113   4.226   0.248
 5836TIP3   OH217513   0.634   5.442   3.605
 5836TIP3    H117514   0.673   5.459   3.691
 5836TIP3    H217515   0.645   5.348   3.591
 5837TIP3   OH217516   1.568   4.156   0.586
 5837TIP3    H117517   1.594   4.067   0.610
 5837TIP3    H217518   1.648   4.196   0.551
 5838TIP3   OH217519   1.271   5.458   4.418
 5838TIP3    H117520   1.259   5.548   4.390
 5838TIP3    H217521   1.260   5.406   4.338
 5839TIP3   OH217522   4.309   4.173   1.505
 5839TIP3    H117523   4.354   4.172   1.590
 5839TIP3    H217524   4.318   4.263   1.474
 5840TIP3   OH217525   6.306   2.226   1.840
 5840TIP3    H117526   6.395   2.199   1.864
 5840TIP3    H217527   6.317   2.287   1.767
 5841TIP3   OH217528   3.917   3.832   4.113
 5841TIP3    H117529   3.854   3.897   4.145
 5841TIP3    H217530   3.931   3.775   4.188
 5842TIP3   OH217531   2.803   4.233   5.150
 5842TIP3    H117532   2.727   4.235   5.207
 5842TIP3    H217533   2.773   4.273   5.068
 5843TIP3   OH217534   3.424   0.380   4.648
 5843TIP3    H117535   3.508   0.407   4.685
 5843TIP3    H217536   3.448   0.317   4.580
 5844TIP3   OH217537   3.240   5.384   0.938
 5844TIP3    H117538   3.265   5.456   0.880
 5844TIP3    H217539   3.184   5.328   0.884
 5845TIP3   OH217540   1.569   3.818   4.792
 5845TIP3    H117541   1.579   3.730   4.829
 5845TIP3    H217542   1.610   3.812   4.706
 5846TIP3   OH217543   1.860   0.369   2.771
 5846TIP3    H117544   1.835   0.461   2.764
 5846TIP3    H217545   1.828   0.329   2.690
 5847TIP3   OH217546   3.240   4.187   0.413
 5847TIP3    H117547   3.161   4.134   0.397
 5847TIP3    H217548   3.276   4.203   0.326
 5848TIP3   OH217549   5.474   4.142   1.038
 5848TIP3    H117550   5.525   4.153   0.958
 5848TIP3    H217551   5.447   4.231   1.061
 5849TIP3   OH217552   2.543   3.680   3.828
 5849TIP3    H117553   2.536   3.773   3.851
 5849TIP3    H217554   2.614   3.647   3.884
 5850TIP3   OH217555   1.552   2.042   0.780
 5850TIP3    H117556   1.516   1.953   0.785
 5850TIP3    H217557   1.577   2.053   0.688
 5851TIP3   OH217558   1.456   5.072   4.245
 5851TIP3    H117559   1.373   5.057   4.291
 5851TIP3    H217560   1.454   5.165   4.223
 5852TIP3   OH217561   3.006   3.909   4.294
 5852TIP3    H117562   2.918   3.870   4.294
 5852TIP3    H217563   3.025   3.925   4.202
 5853TIP3   OH217564   0.906   2.952   2.945
 5853TIP3    H117565   0.981   2.894   2.954
 5853TIP3    H217566   0.943   3.040   2.951
 5854TIP3   OH217567   1.545   6.019   1.248
 5854TIP3    H117568   1.544   5.923   1.249
 5854TIP3    H217569   1.476   6.043   1.187
 5855TIP3   OH217570   1.695   2.448   2.550
 5855TIP3    H117571   1.673   2.500   2.472
 5855TIP3    H217572   1.765   2.497   2.593
 5856TIP3   OH217573   5.759   4.842   3.418
 5856TIP3    H117574   5.749   4.893   3.337
 5856TIP3    H217575   5.733   4.903   3.487
 5857TIP3   OH217576   5.481   0.858   2.162
 5857TIP3    H117577   5.418   0.922   2.193
 5857TIP3    H217578   5.566   0.903   2.168
 5858TIP3   OH217579   5.173   4.406   0.865
 5858TIP3    H117580   5.082   4.424   0.888
 5858TIP3    H217581   5.222   4.482   0.897
 5859TIP3   OH217582   5.201   4.556   4.177
 5859TIP3    H117583   5.131   4.495   4.201
 5859TIP3    H217584   5.229   4.594   4.261
 5860TIP3   OH217585   6.228   3.249   4.668
 5860TIP3    H117586   6.231   3.174   4.727
 5860TIP3    H217587   6.135   3.262   4.649
 5861TIP3   OH217588   0.037   4.004   1.427
 5861TIP3    H117589  -0.029   3.975   1.363
 5861TIP3    H217590   0.011   3.963   1.509
 5862TIP3   OH217591   3.448   2.884   0.008
 5862TIP3    H117592   3.488   2.947   0.068
 5862TIP3    H217593   3.472   2.916  -0.079
 5863TIP3   OH217594   2.881   0.053   0.306
 5863TIP3    H117595   2.919   0.105   0.378
 5863TIP3    H217596   2.840   0.118   0.249
 5864TIP3   OH217597   1.734   0.588   0.386
 5864TIP3    H117598   1.656   0.637   0.360
 5864TIP3    H217599   1.760   0.627   0.469
 5865TIP3   OH217600   3.069   4.212   4.689
 5865TIP3    H117601   3.159   4.195   4.663
 5865TIP3    H217602   3.042   4.134   4.737
 5866TIP3   OH217603   5.542   2.784   1.193
 5866TIP3    H117604   5.574   2.752   1.277
 5866TIP3    H217605   5.615   2.769   1.133
 5867TIP3   OH217606   5.211   5.726   0.631
 5867TIP3    H117607   5.127   5.752   0.668
 5867TIP3    H217608   5.276   5.765   0.691
 5868TIP3   OH217609   4.057   3.871   0.024
 5868TIP3    H117610   4.086   3.790   0.067
 5868TIP3    H217611   3.980   3.898   0.074
 5869TIP3   OH217612   4.816   2.975   1.064
 5869TIP3    H117613   4.901   3.000   1.100
 5869TIP3    H217614   4.800   2.887   1.099
 5870TIP3   OH217615   3.121   5.553   5.063
 5870TIP3    H117616   3.083   5.601   5.137
 5870TIP3    H217617   3.053   5.491   5.037
 5871TIP3   OH217618   2.251   3.966   4.836
 5871TIP3    H117619   2.276   4.056   4.814
 5871TIP3    H217620   2.264   3.960   4.930
 5872TIP3   OH217621   2.970   0.029   1.876
 5872TIP3    H117622   2.997   0.071   1.794
 5872TIP3    H217623   3.021   0.073   1.944
 5873TIP3   OH217624   3.020   3.706   2.684
 5873TIP3    H117625   3.064   3.647   2.622
 5873TIP3    H217626   2.962   3.759   2.630
 5874TIP3   OH217627   4.659   4.985   0.734
 5874TIP3    H117628   4.677   4.918   0.667
 5874TIP3    H217629   4.601   4.941   0.796
 5875TIP3   OH217630   3.869   0.040   2.378
 5875TIP3    H117631   3.777   0.033   2.402
 5875TIP3    H217632   3.874   0.004   2.289
 5876TIP3   OH217633   3.143   3.554   0.646
 5876TIP3    H117634   3.114   3.569   0.556
 5876TIP3    H217635   3.224   3.503   0.637
 5877TIP3   OH217636   4.587   5.777   1.125
 5877TIP3    H117637   4.541   5.701   1.089
 5877TIP3    H217638   4.523   5.819   1.182
 5878TIP3   OH217639   0.398   2.754   3.441
 5878TIP3    H117640   0.407   2.830   3.385
 5878TIP3    H217641   0.392   2.680   3.380
 5879TIP3   OH217642   1.391   3.220   3.847
 5879TIP3    H117643   1.408   3.150   3.784
 5879TIP3    H217644   1.459   3.285   3.830
 5880TIP3   OH217645   5.981   1.278   3.035
 5880TIP3    H117646   6.076   1.278   3.018
 5880TIP3    H217647   5.974   1.289   3.130
 5881TIP3   OH217648   0.412   3.184   0.918
 5881TIP3    H117649   0.444   3.108   0.967
 5881TIP3    H217650   0.398   3.251   0.984
 5882TIP3   OH217651   1.125   5.331   2.145
 5882TIP3    H117652   1.099   5.319   2.053
 5882TIP3    H217653   1.190   5.263   2.160
 5883TIP3   OH217654   0.783   2.486   4.073
 5883TIP3    H117655   0.830   2.444   4.145
 5883TIP3    H217656   0.842   2.556   4.044
 5884TIP3   OH217657   6.329   1.973   2.915
 5884TIP3    H117658   6.301   1.882   2.912
 5884TIP3    H217659   6.424   1.970   2.902
 5885TIP3   OH217660   5.634   4.816   1.978
 5885TIP3    H117661   5.717   4.844   1.939
 5885TIP3    H217662   5.623   4.725   1.947
 5886TIP3   OH217663   3.344   0.318   2.494
 5886TIP3    H117664   3.262   0.353   2.528
 5886TIP3    H217665   3.327   0.224   2.484
 5887TIP3   OH217666   4.746   5.909   0.260
 5887TIP3    H117667   4.697   5.838   0.303
 5887TIP3    H217668   4.820   5.927   0.319
 5888TIP3   OH217669   2.429   5.347   2.567
 5888TIP3    H117670   2.347   5.391   2.585
 5888TIP3    H217671   2.425   5.266   2.618
 5889TIP3   OH217672   4.228   2.764   1.670
 5889TIP3    H117673   4.164   2.783   1.738
 5889TIP3    H217674   4.203   2.678   1.637
 5890TIP3   OH217675   6.311   5.060   0.099
 5890TIP3    H117676   6.356   5.120   0.158
 5890TIP3    H217677   6.337   4.973   0.128
 5891TIP3   OH217678   1.158   3.948   0.526
 5891TIP3    H117679   1.136   4.035   0.494
 5891TIP3    H217680   1.246   3.931   0.491
 5892TIP3   OH217681   2.927   0.331   4.200
 5892TIP3    H117682   2.879   0.352   4.280
 5892TIP3    H217683   3.006   0.288   4.230
 5893TIP3   OH217684   2.005   5.837   4.892
 5893TIP3    H117685   1.913   5.817   4.905
 5893TIP3    H217686   2.029   5.786   4.814
 5894TIP3   OH217687   6.031   2.037   0.249
 5894TIP3    H117688   5.954   2.094   0.253
 5894TIP3    H217689   6.020   1.988   0.168
 5895TIP3   OH217690   1.913   2.672   0.340
 5895TIP3    H117691   1.874   2.698   0.256
 5895TIP3    H217692   1.998   2.635   0.316
 5896TIP3   OH217693   4.022   5.779   1.525
 5896TIP3    H117694   4.081   5.795   1.599
 5896TIP3    H217695   4.024   5.860   1.475
 5897TIP3   OH217696   3.277   4.618   2.303
 5897TIP3    H117697   3.316   4.704   2.290
 5897TIP3    H217698   3.251   4.589   2.216
 5898TIP3   OH217699   1.010   4.144   2.139
 5898TIP3    H117700   0.921   4.112   2.149
 5898TIP3    H217701   1.026   4.196   2.218
 5899TIP3   OH217702   1.415   1.755   3.150
 5899TIP3    H117703   1.434   1.758   3.056
 5899TIP3    H217704   1.361   1.832   3.167
 5900TIP3   OH217705   5.160   0.784   4.168
 5900TIP3    H117706   5.096   0.746   4.107
 5900TIP3    H217707   5.171   0.717   4.235
 5901TIP3   OH217708   1.910   1.920   0.355
 5901TIP3    H117709   1.908   1.856   0.426
 5901TIP3    H217710   1.819   1.925   0.325
 5902TIP3   OH217711   0.366   5.115   0.889
 5902TIP3    H117712   0.385   5.153   0.975
 5902TIP3    H217713   0.417   5.168   0.828
 5903TIP3   OH217714   0.845   1.441   1.857
 5903TIP3    H117715   0.848   1.431   1.762
 5903TIP3    H217716   0.796   1.364   1.888
 5904TIP3   OH217717   5.003   0.837   2.856
 5904TIP3    H117718   5.043   0.924   2.851
 5904TIP3    H217719   5.077   0.778   2.873
 5905TIP3   OH217720   0.305   4.868   0.033
 5905TIP3    H117721   0.218   4.856   0.070
 5905TIP3    H217722   0.362   4.885   0.108
 5906TIP3   OH217723   4.657   1.429   2.563
 5906TIP3    H117724   4.626   1.379   2.488
 5906TIP3    H217725   4.622   1.517   2.551
 5907TIP3   OH217726   5.839   0.507   0.313
 5907TIP3    H117727   5.900   0.438   0.288
 5907TIP3    H217728   5.851   0.517   0.407
 5908TIP3   OH217729   2.134   2.522   2.468
 5908TIP3    H117730   2.214   2.492   2.513
 5908TIP3    H217731   2.070   2.531   2.538
 5909TIP3   OH217732   3.751   3.412   3.140
 5909TIP3    H117733   3.785   3.418   3.051
 5909TIP3    H217734   3.806   3.471   3.191
 5910TIP3   OH217735   6.297   0.205   0.900
 5910TIP3    H117736   6.274   0.143   0.968
 5910TIP3    H217737   6.259   0.167   0.820
 5911TIP3   OH217738   2.481   5.223   3.467
 5911TIP3    H117739   2.472   5.143   3.415
 5911TIP3    H217740   2.391   5.251   3.483
 5912TIP3   OH217741   1.462   2.071   2.779
 5912TIP3    H117742   1.548   2.035   2.799
 5912TIP3    H217743   1.404   2.031   2.844
 5913TIP3   OH217744   2.642   2.823   4.106
 5913TIP3    H117745   2.709   2.755   4.112
 5913TIP3    H217746   2.559   2.776   4.106
 5914TIP3   OH217747   0.947   1.309   3.194
 5914TIP3    H117748   1.010   1.246   3.229
 5914TIP3    H217749   0.940   1.287   3.102
 5915TIP3   OH217750   3.442   0.109   3.722
 5915TIP3    H117751   3.526   0.153   3.735
 5915TIP3    H217752   3.437   0.046   3.794
 5916TIP3   OH217753   4.517   3.494   5.046
 5916TIP3    H117754   4.520   3.440   4.967
 5916TIP3    H217755   4.607   3.494   5.078
 5917TIP3   OH217756   0.865   5.715   3.547
 5917TIP3    H117757   0.943   5.764   3.524
 5917TIP3    H217758   0.882   5.626   3.513
 5918TIP3   OH217759   5.830   1.640   2.582
 5918TIP3    H117760   5.817   1.695   2.659
 5918TIP3    H217761   5.913   1.595   2.597
 5919TIP3   OH217762   5.427   0.098   1.339
 5919TIP3    H117763   5.514   0.089   1.299
 5919TIP3    H217764   5.406   0.191   1.331
 5920TIP3   OH217765   3.594   2.424   3.858
 5920TIP3    H117766   3.526   2.483   3.891
 5920TIP3    H217767   3.676   2.473   3.868
 5921TIP3   OH217768   4.808   2.076   4.639
 5921TIP3    H117769   4.837   2.031   4.718
 5921TIP3    H217770   4.714   2.057   4.633
 5922TIP3   OH217771   2.125   3.837   4.322
 5922TIP3    H117772   2.039   3.797   4.325
 5922TIP3    H217773   2.137   3.875   4.409
 5923TIP3   OH217774   0.588   3.630   0.278
 5923TIP3    H117775   0.599   3.623   0.373
 5923TIP3    H217776   0.500   3.664   0.266
 5924TIP3   OH217777   0.853   3.820   0.435
 5924TIP3    H117778   0.761   3.804   0.415
 5924TIP3    H217779   0.881   3.742   0.483
 5925TIP3   OH217780   1.119   5.927   1.731
 5925TIP3    H117781   1.207   5.897   1.710
 5925TIP3    H217782   1.099   5.887   1.816
 5926TIP3   OH217783   0.953   3.771   5.101
 5926TIP3    H117784   1.032   3.726   5.132
 5926TIP3    H217785   0.893   3.700   5.078
 5927TIP3   OH217786   5.462   5.195   4.853
 5927TIP3    H117787   5.440   5.260   4.787
 5927TIP3    H217788   5.449   5.241   4.937
 5928TIP3   OH217789   1.151   2.427   2.962
 5928TIP3    H117790   1.116   2.419   2.873
 5928TIP3    H217791   1.074   2.428   3.018
 5929TIP3   OH217792   5.792   4.425   3.596
 5929TIP3    H117793   5.749   4.464   3.520
 5929TIP3    H217794   5.829   4.342   3.563
 5930TIP3   OH217795   4.492   1.568   4.976
 5930TIP3    H117796   4.456   1.564   4.887
 5930TIP3    H217797   4.553   1.642   4.974
 5931TIP3   OH217798   3.227   5.944   3.103
 5931TIP3    H117799   3.250   5.852   3.087
 5931TIP3    H217800   3.214   5.950   3.197
 5932TIP3   OH217801   4.695   0.654   0.544
 5932TIP3    H117802   4.736   0.731   0.584
 5932TIP3    H217803   4.712   0.665   0.450
 5933TIP3   OH217804   2.217   3.017   4.638
 5933TIP3    H117805   2.268   2.996   4.716
 5933TIP3    H217806   2.158   2.942   4.627
 5934TIP3   OH217807   3.111   0.431   1.338
 5934TIP3    H117808   3.067   0.352   1.369
 5934TIP3    H217809   3.188   0.399   1.291
 5935TIP3   OH217810   2.357   1.840   3.448
 5935TIP3    H117811   2.268   1.862   3.421
 5935TIP3    H217812   2.357   1.744   3.455
 5936TIP3   OH217813   0.233   3.262   3.517
 5936TIP3    H117814   0.274   3.348   3.528
 5936TIP3    H217815   0.157   3.263   3.574
 5937TIP3   OH217816   4.091   1.275   1.820
 5937TIP3    H117817   4.074   1.205   1.757
 5937TIP3    H217818   4.179   1.257   1.853
 5938TIP3   OH217819   2.313   5.205   3.097
 5938TIP3    H117820   2.279   5.131   3.048
 5938TIP3    H217821   2.402   5.180   3.120
 5939TIP3   OH217822   2.506   5.495   1.871
 5939TIP3    H117823   2.450   5.507   1.948
 5939TIP3    H217824   2.582   5.446   1.904
 5940TIP3   OH217825   4.676   4.795   2.188
 5940TIP3    H117826   4.609   4.860   2.166
 5940TIP3    H217827   4.643   4.713   2.152
 5941TIP3   OH217828   2.644   3.192   0.721
 5941TIP3    H117829   2.685   3.254   0.660
 5941TIP3    H217830   2.553   3.222   0.727
 5942TIP3   OH217831   4.051   3.816   1.516
 5942TIP3    H117832   4.048   3.800   1.610
 5942TIP3    H217833   4.111   3.750   1.482
 5943TIP3   OH217834   4.249   2.841   2.902
 5943TIP3    H117835   4.246   2.807   2.991
 5943TIP3    H217836   4.208   2.773   2.848
 5944TIP3   OH217837   0.118   3.328   0.320
 5944TIP3    H117838   0.090   3.416   0.344
 5944TIP3    H217839   0.040   3.274   0.327
 5945TIP3   OH217840   3.054   4.473   0.711
 5945TIP3    H117841   3.129   4.492   0.768
 5945TIP3    H217842   3.023   4.387   0.741
 5946TIP3   OH217843   4.721   2.522   3.307
 5946TIP3    H117844   4.765   2.437   3.305
 5946TIP3    H217845   4.731   2.552   3.398
 5947TIP3   OH217846   0.722   3.353   1.808
 5947TIP3    H117847   0.634   3.355   1.847
 5947TIP3    H217848   0.706   3.331   1.716
 5948TIP3   OH217849   5.310   3.392   2.404
 5948TIP3    H117850   5.226   3.347   2.413
 5948TIP3    H217851   5.286   3.485   2.395
 5949TIP3   OH217852   3.266   3.788   0.894
 5949TIP3    H117853   3.198   3.734   0.934
 5949TIP3    H217854   3.345   3.768   0.944
 5950TIP3   OH217855   4.797   5.014   2.560
 5950TIP3    H117856   4.755   5.074   2.497
 5950TIP3    H217857   4.734   4.942   2.569
 5951TIP3   OH217858   2.114   1.118   2.351
 5951TIP3    H117859   2.024   1.140   2.378
 5951TIP3    H217860   2.162   1.200   2.364
 5952TIP3   OH217861   0.944   3.308   0.724
 5952TIP3    H117862   0.849   3.312   0.713
 5952TIP3    H217863   0.959   3.330   0.816
 5953TIP3   OH217864   5.582   1.208   5.017
 5953TIP3    H117865   5.525   1.227   5.092
 5953TIP3    H217866   5.570   1.283   4.959
 5954TIP3   OH217867   0.154   2.640   1.982
 5954TIP3    H117868   0.212   2.567   1.962
 5954TIP3    H217869   0.162   2.698   1.906
 5955TIP3   OH217870   2.560   3.084   2.069
 5955TIP3    H117871   2.569   3.010   2.129
 5955TIP3    H217872   2.528   3.045   1.987
 5956TIP3   OH217873   5.967   5.394   2.868
 5956TIP3    H117874   5.918   5.312   2.879
 5956TIP3    H217875   5.957   5.416   2.776
 5957TIP3   OH217876   2.626   0.621   3.828
 5957TIP3    H117877   2.717   0.601   3.847
 5957TIP3    H217878   2.624   0.636   3.733
 5958TIP3   OH217879   2.891   3.041   0.909
 5958TIP3    H117880   2.810   3.061   0.863
 5958TIP3    H217881   2.868   2.970   0.969
 5959TIP3   OH217882   5.687   4.331   0.163
 5959TIP3    H117883   5.741   4.369   0.233
 5959TIP3    H217884   5.750   4.286   0.106
 5960TIP3   OH217885   3.632   0.315   2.188
 5960TIP3    H117886   3.538   0.334   2.183
 5960TIP3    H217887   3.637   0.219   2.188
 5961TIP3   OH217888   2.091   2.092   5.080
 5961TIP3    H117889   2.102   2.139   5.163
 5961TIP3    H217890   2.179   2.062   5.057
 5962TIP3   OH217891   3.498   3.856   2.144
 5962TIP3    H117892   3.465   3.796   2.078
 5962TIP3    H217893   3.444   3.934   2.135
 5963TIP3   OH217894   2.301   3.009   2.220
 5963TIP3    H117895   2.391   2.994   2.191
 5963TIP3    H217896   2.309   3.023   2.315
 5964TIP3   OH217897   1.361   4.934   4.599
 5964TIP3    H117898   1.365   4.840   4.619
 5964TIP3    H217899   1.452   4.964   4.602
 5965TIP3   OH217900   6.256   1.284   3.904
 5965TIP3    H117901   6.288   1.363   3.946
 5965TIP3    H217902   6.232   1.311   3.815
 5966TIP3   OH217903   3.620   3.799   3.705
 5966TIP3    H117904   3.647   3.755   3.786
 5966TIP3    H217905   3.554   3.741   3.667
 5967TIP3   OH217906   1.982   3.462   2.491
 5967TIP3    H117907   2.065   3.440   2.448
 5967TIP3    H217908   2.001   3.543   2.538
 5968TIP3   OH217909   0.805   5.609   4.430
 5968TIP3    H117910   0.892   5.623   4.469
 5968TIP3    H217911   0.764   5.544   4.487
 5969TIP3   OH217912   5.100   0.768   4.660
 5969TIP3    H117913   5.044   0.822   4.716
 5969TIP3    H217914   5.187   0.775   4.699
 5970TIP3   OH217915   3.953   5.760   0.339
 5970TIP3    H117916   3.906   5.840   0.364
 5970TIP3    H217917   4.039   5.769   0.382
 5971TIP3   OH217918   1.673   5.661   2.054
 5971TIP3    H117919   1.617   5.726   2.010
 5971TIP3    H217920   1.630   5.577   2.037
 5972TIP3   OH217921   1.012   2.617   4.398
 5972TIP3    H117922   1.019   2.609   4.493
 5972TIP3    H217923   0.918   2.631   4.382
 5973TIP3   OH217924   1.479   1.563   2.433
 5973TIP3    H117925   1.526   1.479   2.427
 5973TIP3    H217926   1.410   1.556   2.366
 5974TIP3   OH217927   4.885   1.447   0.953
 5974TIP3    H117928   4.849   1.467   0.867
 5974TIP3    H217929   4.920   1.530   0.985
 5975TIP3   OH217930   1.677   4.929   1.232
 5975TIP3    H117931   1.625   4.896   1.305
 5975TIP3    H217932   1.732   4.997   1.270
 5976TIP3   OH217933   2.871   0.212   2.303
 5976TIP3    H117934   2.861   0.229   2.396
 5976TIP3    H217935   2.885   0.117   2.297
 5977TIP3   OH217936   0.630   0.885   0.320
 5977TIP3    H117937   0.677   0.964   0.346
 5977TIP3    H217938   0.539   0.913   0.311
 5978TIP3   OH217939   4.453   2.281   1.138
 5978TIP3    H117940   4.519   2.217   1.112
 5978TIP3    H217941   4.495   2.335   1.205
 5979TIP3   OH217942   5.584   5.861   4.545
 5979TIP3    H117943   5.543   5.903   4.469
 5979TIP3    H217944   5.634   5.930   4.588
 5980TIP3   OH217945   5.525   2.861   0.323
 5980TIP3    H117946   5.560   2.934   0.272
 5980TIP3    H217947   5.430   2.876   0.322
 5981TIP3   OH217948   3.744   4.155   1.163
 5981TIP3    H117949   3.807   4.188   1.226
 5981TIP3    H217950   3.661   4.196   1.188
 5982TIP3   OH217951   0.926   4.692   2.680
 5982TIP3    H117952   0.969   4.648   2.753
 5982TIP3    H217953   0.945   4.785   2.694
 5983TIP3   OH217954   5.724   1.476   5.031
 5983TIP3    H117955   5.786   1.441   5.095
 5983TIP3    H217956   5.660   1.524   5.083
 5984TIP3   OH217957   5.620   3.040   0.148
 5984TIP3    H117958   5.675   3.013   0.075
 5984TIP3    H217959   5.633   3.135   0.154
 5985TIP3   OH217960   4.903   0.013   3.367
 5985TIP3    H117961   4.863  -0.022   3.288
 5985TIP3    H217962   4.941   0.097   3.340
 5986TIP3   OH217963   0.229   0.055   0.946
 5986TIP3    H117964   0.165   0.000   0.991
 5986TIP3    H217965   0.246   0.010   0.863
 5987TIP3   OH217966   3.166   0.986   3.980
 5987TIP3    H117967   3.199   0.940   4.058
 5987TIP3    H217968   3.086   0.939   3.957
 5988TIP3   OH217969   5.397   1.918   0.223
 5988TIP3    H117970   5.484   1.899   0.188
 5988TIP3    H217971   5.348   1.953   0.149
 5989TIP3   OH217972   1.524   0.028   4.682
 5989TIP3    H117973   1.551  -0.021   4.760
 5989TIP3    H217974   1.588   0.098   4.674
 5990TIP3   OH217975   2.332   0.263   2.340
 5990TIP3    H117976   2.410   0.266   2.395
 5990TIP3    H217977   2.266   0.313   2.388
 5991TIP3   OH217978   4.306   3.292   4.518
 5991TIP3    H117979   4.233   3.353   4.527
 5991TIP3    H217980   4.317   3.283   4.423
 5992TIP3   OH217981   0.161   5.132   0.626
 5992TIP3    H117982   0.200   5.053   0.590
 5992TIP3    H217983   0.152   5.115   0.720
 5993TIP3   OH217984   2.294   5.412   5.002
 5993TIP3    H117985   2.295   5.408   4.907
 5993TIP3    H217986   2.344   5.491   5.024
 5994TIP3   OH217987   1.689   4.613   0.676
 5994TIP3    H117988   1.595   4.601   0.688
 5994TIP3    H217989   1.706   4.701   0.711
 5995TIP3   OH217990   4.777   1.026   1.602
 5995TIP3    H117991   4.868   1.047   1.583
 5995TIP3    H217992   4.777   0.931   1.616
 5996TIP3   OH217993   3.156   0.916   4.621
 5996TIP3    H117994   3.062   0.922   4.638
 5996TIP3    H217995   3.162   0.871   4.536
 5997TIP3   OH217996   4.241   4.760   4.011
 5997TIP3    H117997   4.202   4.692   3.956
 5997TIP3    H217998   4.167   4.814   4.038
 5998TIP3   OH217999   2.563   3.081   1.135
 5998TIP3    H118000   2.505   3.051   1.065
 5998TIP3    H218001   2.557   3.177   1.132
 5999TIP3   OH218002   5.001   1.554   3.502
 5999TIP3    H118003   5.047   1.531   3.582
 5999TIP3    H218004   4.979   1.647   3.513
 6000TIP3   OH218005   4.593   0.629   1.037
 6000TIP3    H118006   4.549   0.645   0.954
 6000TIP3    H218007   4.607   0.716   1.074
 6001TIP3   OH218008   3.517   2.557   1.241
 6001TIP3    H118009   3.512   2.564   1.336
 6001TIP3    H218010   3.433   2.591   1.210
 6002TIP3   OH218011   0.300   5.535   0.052
 6002TIP3    H118012   0.364   5.601   0.027
 6002TIP3    H218013   0.296   5.475  -0.022
 6003TIP3   OH218014   5.118   1.544   4.640
 6003TIP3    H118015   5.063   1.524   4.716
 6003TIP3    H218016   5.096   1.476   4.576
 6004TIP3   OH218017   0.848   3.689   0.767
 6004TIP3    H118018   0.833   3.781   0.788
 6004TIP3    H218019   0.924   3.664   0.819
 6005TIP3   OH218020   6.043   2.501   4.864
 6005TIP3    H118021   5.989   2.429   4.830
 6005TIP3    H218022   6.107   2.518   4.796
 6006TIP3   OH218023   5.663   3.073   0.902
 6006TIP3    H118024   5.715   3.150   0.923
 6006TIP3    H218025   5.654   3.026   0.984
 6007TIP3   OH218026   1.398   2.440   4.188
 6007TIP3    H118027   1.489   2.451   4.216
 6007TIP3    H218028   1.362   2.376   4.251
 6008TIP3   OH218029   4.283   2.392   2.788
 6008TIP3    H118030   4.342   2.319   2.810
 6008TIP3    H218031   4.287   2.449   2.865
 6009TIP3   OH218032   1.815   5.255   4.390
 6009TIP3    H118033   1.735   5.304   4.410
 6009TIP3    H218034   1.861   5.249   4.474
 6010TIP3   OH218035   5.707   4.326   3.232
 6010TIP3    H118036   5.700   4.239   3.269
 6010TIP3    H218037   5.678   4.385   3.302
 6011TIP3   OH218038   4.692   5.398   4.748
 6011TIP3    H118039   4.610   5.419   4.703
 6011TIP3    H218040   4.676   5.420   4.839
 6012TIP3   OH218041   6.270   1.943   3.410
 6012TIP3    H118042   6.314   2.028   3.409
 6012TIP3    H218043   6.189   1.959   3.458
 6013TIP3   OH218044   0.192   5.676   3.855
 6013TIP3    H118045   0.202   5.619   3.778
 6013TIP3    H218046   0.281   5.695   3.883
 6014TIP3   OH218047   2.972   3.490   1.590
 6014TIP3    H118048   2.974   3.560   1.525
 6014TIP3    H218049   3.064   3.470   1.607
 6015TIP3   OH218050   1.957   5.546   2.008
 6015TIP3    H118051   1.955   5.587   2.094
 6015TIP3    H218052   1.879   5.489   2.007
 6016TIP3   OH218053   5.447   3.075   3.539
 6016TIP3    H118054   5.415   3.062   3.628
 6016TIP3    H218055   5.418   3.164   3.515
 6017TIP3   OH218056   0.116   4.643   3.835
 6017TIP3    H118057   0.061   4.595   3.774
 6017TIP3    H218058   0.187   4.583   3.856
 6018TIP3   OH218059   1.767   5.433   0.717
 6018TIP3    H118060   1.708   5.381   0.662
 6018TIP3    H218061   1.743   5.524   0.699
 6019TIP3   OH218062   5.491   5.386   0.424
 6019TIP3    H118063   5.441   5.386   0.343
 6019TIP3    H218064   5.531   5.299   0.427
 6020TIP3   OH218065   4.475   5.486   3.609
 6020TIP3    H118066   4.570   5.491   3.598
 6020TIP3    H218067   4.462   5.410   3.667
 6021TIP3   OH218068   5.298   3.692   1.771
 6021TIP3    H118069   5.237   3.661   1.703
 6021TIP3    H218070   5.281   3.786   1.777
 6022TIP3   OH218071   2.834   3.530   2.194
 6022TIP3    H118072   2.759   3.477   2.222
 6022TIP3    H218073   2.815   3.553   2.103
 6023TIP3   OH218074   0.226   1.418   4.217
 6023TIP3    H118075   0.299   1.464   4.175
 6023TIP3    H218076   0.174   1.384   4.144
 6024TIP3   OH218077   6.172   4.569   4.276
 6024TIP3    H118078   6.079   4.592   4.265
 6024TIP3    H218079   6.218   4.630   4.219
 6025TIP3   OH218080   3.162   0.604   0.342
 6025TIP3    H118081   3.130   0.639   0.425
 6025TIP3    H218082   3.083   0.571   0.299
 6026TIP3   OH218083   2.303   4.777   3.120
 6026TIP3    H118084   2.211   4.749   3.119
 6026TIP3    H218085   2.313   4.829   3.041
 6027TIP3   OH218086   3.284   1.448   2.537
 6027TIP3    H118087   3.295   1.541   2.521
 6027TIP3    H218088   3.193   1.439   2.565
 6028TIP3   OH218089   2.802   2.411   1.953
 6028TIP3    H118090   2.833   2.479   2.013
 6028TIP3    H218091   2.855   2.423   1.874
 6029TIP3   OH218092   5.053   5.188   1.162
 6029TIP3    H118093   5.057   5.166   1.069
 6029TIP3    H218094   4.999   5.266   1.165
 6030TIP3   OH218095   4.462   5.645   2.568
 6030TIP3    H118096   4.366   5.638   2.559
 6030TIP3    H218097   4.494   5.556   2.551
 6031TIP3   OH218098   1.810   1.256   4.396
 6031TIP3    H118099   1.790   1.179   4.449
 6031TIP3    H218100   1.730   1.309   4.398
 6032TIP3   OH218101   2.234   1.370   2.359
 6032TIP3    H118102   2.278   1.377   2.443
 6032TIP3    H218103   2.230   1.460   2.326
 6033TIP3   OH218104   1.736   0.001   3.339
 6033TIP3    H118105   1.794  -0.066   3.303
 6033TIP3    H218106   1.694   0.039   3.261
 6034TIP3   OH218107   3.227   2.979   5.124
 6034TIP3    H118108   3.182   3.061   5.105
 6034TIP3    H218109   3.156   2.916   5.138
 6035TIP3   OH218110   1.506   1.216   1.556
 6035TIP3    H118111   1.415   1.213   1.585
 6035TIP3    H218112   1.500   1.213   1.460
 6036TIP3   OH218113   0.459   1.213   4.170
 6036TIP3    H118114   0.485   1.269   4.244
 6036TIP3    H218115   0.478   1.265   4.092
 6037TIP3   OH218116   5.216   4.263   1.556
 6037TIP3    H118117   5.214   4.220   1.471
 6037TIP3    H218118   5.128   4.252   1.591
 6038TIP3   OH218119   4.788   1.307   0.174
 6038TIP3    H118120   4.753   1.363   0.105
 6038TIP3    H218121   4.883   1.322   0.172
 6039TIP3   OH218122   1.357   5.617   3.649
 6039TIP3    H118123   1.408   5.594   3.570
 6039TIP3    H218124   1.324   5.534   3.681
 6040TIP3   OH218125   5.748   0.145   3.168
 6040TIP3    H118126   5.839   0.140   3.198
 6040TIP3    H218127   5.730   0.056   3.136
 6041TIP3   OH218128   4.699   4.734   4.843
 6041TIP3    H118129   4.657   4.663   4.794
 6041TIP3    H218130   4.626   4.780   4.885
 6042TIP3   OH218131   3.010   0.086   3.952
 6042TIP3    H118132   3.036   0.037   4.030
 6042TIP3    H218133   3.021   0.178   3.977
 6043TIP3   OH218134   1.314   1.161   2.337
 6043TIP3    H118135   1.392   1.215   2.351
 6043TIP3    H218136   1.247   1.223   2.307
 6044TIP3   OH218137   3.443   0.903   1.591
 6044TIP3    H118138   3.415   0.931   1.504
 6044TIP3    H218139   3.364   0.866   1.630
 6045TIP3   OH218140   3.793   3.184   0.443
 6045TIP3    H118141   3.712   3.134   0.431
 6045TIP3    H218142   3.862   3.117   0.450
 6046TIP3   OH218143   1.237   3.758   5.206
 6046TIP3    H118144   1.273   3.744   5.119
 6046TIP3    H218145   1.298   3.713   5.265
 6047TIP3   OH218146   3.243   1.597   4.463
 6047TIP3    H118147   3.204   1.635   4.541
 6047TIP3    H218148   3.305   1.662   4.432
 6048TIP3   OH218149   0.128   0.987   2.249
 6048TIP3    H118150   0.223   0.988   2.240
 6048TIP3    H218151   0.107   0.895   2.267
 6049TIP3   OH218152   0.593   4.220   1.660
 6049TIP3    H118153   0.575   4.153   1.595
 6049TIP3    H218154   0.640   4.174   1.730
 6050TIP3   OH218155   3.518   4.098   3.739
 6050TIP3    H118156   3.438   4.127   3.783
 6050TIP3    H218157   3.567   4.179   3.724
 6051TIP3   OH218158   5.776   3.677   2.833
 6051TIP3    H118159   5.682   3.658   2.837
 6051TIP3    H218160   5.780   3.761   2.787
 6052TIP3   OH218161   3.184   1.283   4.103
 6052TIP3    H118162   3.273   1.301   4.132
 6052TIP3    H218163   3.191   1.201   4.055
 6053TIP3   OH218164   6.285   4.835   4.230
 6053TIP3    H118165   6.308   4.926   4.211
 6053TIP3    H218166   6.319   4.820   4.319
 6054TIP3   OH218167   3.034   4.815   2.863
 6054TIP3    H118168   3.048   4.816   2.957
 6054TIP3    H218169   3.107   4.764   2.828
 6055TIP3   OH218170   5.193   5.231   3.839
 6055TIP3    H118171   5.227   5.152   3.880
 6055TIP3    H218172   5.254   5.250   3.768
 6056TIP3   OH218173   1.382   3.457   0.170
 6056TIP3    H118174   1.421   3.523   0.113
 6056TIP3    H218175   1.288   3.460   0.150
 6057TIP3   OH218176   4.431   4.362   4.606
 6057TIP3    H118177   4.340   4.342   4.584
 6057TIP3    H218178   4.482   4.319   4.537
 6058TIP3   OH218179   1.584   2.042   0.497
 6058TIP3    H118180   1.629   2.094   0.430
 6058TIP3    H218181   1.579   1.954   0.460
 6059TIP3   OH218182   5.118   4.713   3.935
 6059TIP3    H118183   5.092   4.642   3.877
 6059TIP3    H218184   5.131   4.672   4.020
 6060TIP3   OH218185   2.058   5.067   4.525
 6060TIP3    H118186   2.003   5.034   4.454
 6060TIP3    H218187   2.146   5.036   4.503
 6061TIP3   OH218188   4.314   2.732   5.030
 6061TIP3    H118189   4.276   2.721   4.942
 6061TIP3    H218190   4.359   2.649   5.047
 6062TIP3   OH218191   2.988   0.245   2.999
 6062TIP3    H118192   2.995   0.327   3.049
 6062TIP3    H218193   3.042   0.183   3.048
 6063TIP3   OH218194   0.312   0.740   0.204
 6063TIP3    H118195   0.235   0.714   0.154
 6063TIP3    H218196   0.387   0.710   0.151
 6064TIP3   OH218197   4.476   3.127   3.525
 6064TIP3    H118198   4.530   3.142   3.603
 6064TIP3    H218199   4.401   3.185   3.537
 6065TIP3   OH218200   4.930   4.656   4.988
 6065TIP3    H118201   4.957   4.732   5.040
 6065TIP3    H218202   4.875   4.694   4.919
 6066TIP3   OH218203   6.224   2.163   2.756
 6066TIP3    H118204   6.256   2.101   2.821
 6066TIP3    H218205   6.149   2.119   2.715
 6067TIP3   OH218206   5.511   2.742   3.587
 6067TIP3    H118207   5.502   2.651   3.616
 6067TIP3    H218208   5.423   2.766   3.557
 6068TIP3   OH218209   4.109   0.539   3.683
 6068TIP3    H118210   4.176   0.557   3.748
 6068TIP3    H218211   4.157   0.517   3.604
 6069TIP3   OH218212   2.523   5.014   1.174
 6069TIP3    H118213   2.590   5.056   1.228
 6069TIP3    H218214   2.464   5.085   1.150
 6070TIP3   OH218215   1.916   1.258   0.999
 6070TIP3    H118216   1.831   1.269   1.041
 6070TIP3    H218217   1.938   1.165   1.013
 6071TIP3   OH218218   1.762   0.664   2.633
 6071TIP3    H118219   1.792   0.596   2.573
 6071TIP3    H218220   1.815   0.740   2.610
 6072TIP3   OH218221   4.258   3.150   0.510
 6072TIP3    H118222   4.337   3.108   0.542
 6072TIP3    H218223   4.233   3.211   0.579
 6073TIP3   OH218224   0.884   5.980   2.562
 6073TIP3    H118225   0.807   5.955   2.511
 6073TIP3    H218226   0.865   6.068   2.593
 6074TIP3   OH218227   5.830   5.779   1.232
 6074TIP3    H118228   5.837   5.864   1.275
 6074TIP3    H218229   5.739   5.753   1.244
 6075TIP3   OH218230   4.716   3.021   4.279
 6075TIP3    H118231   4.695   3.015   4.186
 6075TIP3    H218232   4.812   3.015   4.282
 6076TIP3   OH218233   5.666   2.389   1.306
 6076TIP3    H118234   5.638   2.362   1.218
 6076TIP3    H218235   5.616   2.334   1.366
 6077TIP3   OH218236   3.117   0.599   2.801
 6077TIP3    H118237   3.128   0.693   2.792
 6077TIP3    H218238   3.035   0.589   2.849
 6078TIP3   OH218239   0.077   5.028   0.968
 6078TIP3    H118240  -0.014   5.046   0.993
 6078TIP3    H218241   0.124   5.020   1.051
 6079TIP3   OH218242   0.807   3.246   4.899
 6079TIP3    H118243   0.726   3.214   4.858
 6079TIP3    H218244   0.874   3.182   4.874
 6080TIP3   OH218245   2.976   5.880   3.954
 6080TIP3    H118246   3.012   5.967   3.970
 6080TIP3    H218247   3.014   5.853   3.871
 6081TIP3   OH218248   5.688   4.684   3.060
 6081TIP3    H118249   5.628   4.653   3.128
 6081TIP3    H218250   5.771   4.641   3.079
 6082TIP3   OH218251   4.432   0.978   1.872
 6082TIP3    H118252   4.415   0.901   1.817
 6082TIP3    H218253   4.384   0.961   1.953
 6083TIP3   OH218254   6.195   2.308   0.817
 6083TIP3    H118255   6.107   2.322   0.782
 6083TIP3    H218256   6.183   2.305   0.912
 6084TIP3   OH218257   2.626   5.165   4.746
 6084TIP3    H118258   2.655   5.185   4.657
 6084TIP3    H218259   2.703   5.182   4.800
 6085TIP3   OH218260   2.378   5.739   2.227
 6085TIP3    H118261   2.367   5.663   2.170
 6085TIP3    H218262   2.387   5.813   2.167
 6086TIP3   OH218263   4.364   0.453   1.810
 6086TIP3    H118264   4.355   0.455   1.715
 6086TIP3    H218265   4.277   0.426   1.842
 6087TIP3   OH218266   1.564   0.288   0.392
 6087TIP3    H118267   1.636   0.273   0.332
 6087TIP3    H218268   1.525   0.202   0.405
 6088TIP3   OH218269   4.316   0.625   2.427
 6088TIP3    H118270   4.262   0.573   2.367
 6088TIP3    H218271   4.329   0.569   2.503
 6089TIP3   OH218272   4.207   3.786   3.326
 6089TIP3    H118273   4.112   3.777   3.316
 6089TIP3    H218274   4.221   3.881   3.329
 6090TIP3   OH218275   0.265   0.733   0.480
 6090TIP3    H118276   0.206   0.809   0.476
 6090TIP3    H218277   0.311   0.734   0.396
 6091TIP3   OH218278   1.732   3.347   1.909
 6091TIP3    H118279   1.826   3.354   1.894
 6091TIP3    H218280   1.705   3.435   1.937
 6092TIP3   OH218281   2.742   2.718   1.611
 6092TIP3    H118282   2.777   2.746   1.526
 6092TIP3    H218283   2.663   2.669   1.589
 6093TIP3   OH218284   5.717   5.023   4.217
 6093TIP3    H118285   5.712   5.067   4.302
 6093TIP3    H218286   5.811   5.012   4.201
 6094TIP3   OH218287   3.088   0.380   2.264
 6094TIP3    H118288   3.021   0.311   2.262
 6094TIP3    H218289   3.100   0.399   2.357
 6095TIP3   OH218290   5.722   3.798   4.460
 6095TIP3    H118291   5.727   3.765   4.370
 6095TIP3    H218292   5.784   3.870   4.463
 6096TIP3   OH218293   3.668   0.246   2.701
 6096TIP3    H118294   3.657   0.209   2.789
 6096TIP3    H218295   3.650   0.173   2.642
 6097TIP3   OH218296   3.215   4.950   3.501
 6097TIP3    H118297   3.187   4.944   3.592
 6097TIP3    H218298   3.192   5.039   3.473
 6098TIP3   OH218299   2.172   3.210   2.039
 6098TIP3    H118300   2.242   3.273   2.057
 6098TIP3    H218301   2.172   3.151   2.114
 6099TIP3   OH218302   4.874   0.879   0.549
 6099TIP3    H118303   4.874   0.892   0.454
 6099TIP3    H218304   4.913   0.958   0.584
 6100TIP3   OH218305   5.349   1.022   1.192
 6100TIP3    H118306   5.313   0.949   1.241
 6100TIP3    H218307   5.356   1.093   1.255
 6101TIP3   OH218308   4.250   0.616   3.323
 6101TIP3    H118309   4.193   0.664   3.384
 6101TIP3    H218310   4.197   0.604   3.245
 6102TIP3   OH218311   1.943   0.397   0.704
 6102TIP3    H118312   1.892   0.470   0.671
 6102TIP3    H218313   1.965   0.422   0.794
 6103TIP3   OH218314   4.414   0.866   2.857
 6103TIP3    H118315   4.382   0.896   2.772
 6103TIP3    H218316   4.507   0.849   2.843
 6104TIP3   OH218317   5.988   4.319   3.082
 6104TIP3    H118318   6.013   4.280   2.998
 6104TIP3    H218319   5.915   4.265   3.112
 6105TIP3   OH218320   2.632   2.659   3.382
 6105TIP3    H118321   2.588   2.736   3.419
 6105TIP3    H218322   2.568   2.588   3.392
 6106TIP3   OH218323   0.598   0.766   1.696
 6106TIP3    H118324   0.633   0.749   1.608
 6106TIP3    H218325   0.663   0.823   1.737
 6107TIP3   OH218326   3.033   4.456   2.862
 6107TIP3    H118327   3.011   4.506   2.941
 6107TIP3    H218328   3.011   4.515   2.790
 6108TIP3   OH218329   0.782   4.998   1.374
 6108TIP3    H118330   0.714   5.002   1.307
 6108TIP3    H218331   0.756   4.925   1.431
 6109TIP3   OH218332   1.746   4.095   0.893
 6109TIP3    H118333   1.705   4.181   0.895
 6109TIP3    H218334   1.682   4.036   0.933
 6110TIP3   OH218335   0.692   4.962   0.525
 6110TIP3    H118336   0.778   4.949   0.563
 6110TIP3    H218337   0.646   4.880   0.540
 6111TIP3   OH218338   4.422   2.238   4.089
 6111TIP3    H118339   4.365   2.289   4.032
 6111TIP3    H218340   4.506   2.236   4.044
 6112TIP3   OH218341   4.527   0.132   0.579
 6112TIP3    H118342   4.452   0.140   0.637
 6112TIP3    H218343   4.575   0.214   0.590
 6113TIP3   OH218344   3.900   3.838   1.271
 6113TIP3    H118345   3.935   3.924   1.248
 6113TIP3    H218346   3.907   3.834   1.366
 6114TIP3   OH218347   1.229   1.155   3.293
 6114TIP3    H118348   1.269   1.077   3.253
 6114TIP3    H218349   1.272   1.228   3.251
 6115TIP3   OH218350   0.123   4.803   0.449
 6115TIP3    H118351   0.126   4.715   0.486
 6115TIP3    H218352   0.195   4.849   0.493
 6116TIP3   OH218353   5.635   2.099   2.672
 6116TIP3    H118354   5.548   2.139   2.669
 6116TIP3    H218355   5.620   2.010   2.702
 6117TIP3   OH218356   3.023   3.223   0.535
 6117TIP3    H118357   3.110   3.243   0.502
 6117TIP3    H218358   3.017   3.127   0.529
 6118TIP3   OH218359   4.369   1.761   3.525
 6118TIP3    H118360   4.279   1.781   3.552
 6118TIP3    H218361   4.397   1.840   3.477
 6119TIP3   OH218362   5.726   3.239   4.543
 6119TIP3    H118363   5.710   3.226   4.450
 6119TIP3    H218364   5.749   3.331   4.551
 6120TIP3   OH218365   2.740   4.403   3.167
 6120TIP3    H118366   2.717   4.320   3.124
 6120TIP3    H218367   2.691   4.469   3.118
 6121TIP3   OH218368   2.672   0.399   2.234
 6121TIP3    H118369   2.736   0.331   2.255
 6121TIP3    H218370   2.722   0.464   2.184
 6122TIP3   OH218371   5.387   5.097   1.476
 6122TIP3    H118372   5.351   5.144   1.400
 6122TIP3    H218373   5.442   5.029   1.437
 6123TIP3   OH218374   4.722   1.277   4.379
 6123TIP3    H118375   4.715   1.228   4.297
 6123TIP3    H218376   4.641   1.257   4.426
 6124TIP3   OH218377   4.767   3.677   3.249
 6124TIP3    H118378   4.824   3.683   3.325
 6124TIP3    H218379   4.678   3.680   3.284
 6125TIP3   OH218380   3.988   3.437   3.623
 6125TIP3    H118381   4.018   3.521   3.657
 6125TIP3    H218382   3.898   3.429   3.653
 6126TIP3   OH218383   0.697   5.916   2.347
 6126TIP3    H118384   0.609   5.940   2.317
 6126TIP3    H218385   0.707   5.825   2.320
 6127TIP3   OH218386   0.007   2.430   1.102
 6127TIP3    H118387  -0.058   2.360   1.093
 6127TIP3    H218388   0.084   2.398   1.056
 6128TIP3   OH218389   3.657   0.136   4.251
 6128TIP3    H118390   3.706   0.058   4.223
 6128TIP3    H218391   3.710   0.210   4.221
 6129TIP3   OH218392   1.209   4.920   1.305
 6129TIP3    H118393   1.267   4.996   1.292
 6129TIP3    H218394   1.146   4.926   1.234
 6130TIP3   OH218395   4.341   5.339   1.387
 6130TIP3    H118396   4.421   5.362   1.340
 6130TIP3    H218397   4.316   5.253   1.351
 6131TIP3   OH218398   2.109   0.194   1.745
 6131TIP3    H118399   2.121   0.172   1.653
 6131TIP3    H218400   2.184   0.250   1.766
 6132TIP3   OH218401   6.335   4.419   2.114
 6132TIP3    H118402   6.343   4.435   2.208
 6132TIP3    H218403   6.291   4.497   2.080
 6133TIP3   OH218404   2.479   3.478   3.317
 6133TIP3    H118405   2.559   3.457   3.366
 6133TIP3    H218406   2.409   3.466   3.381
 6134TIP3   OH218407   2.159   5.921   2.924
 6134TIP3    H118408   2.200   5.836   2.908
 6134TIP3    H218409   2.165   5.932   3.019
 6135TIP3   OH218410   4.234   2.969   4.231
 6135TIP3    H118411   4.273   3.055   4.250
 6135TIP3    H218412   4.222   2.969   4.136
 6136TIP3   OH218413   3.963   5.878   3.031
 6136TIP3    H118414   4.023   5.840   3.095
 6136TIP3    H218415   3.938   5.962   3.070
 6137TIP3   OH218416   5.156   0.330   0.709
 6137TIP3    H118417   5.084   0.316   0.771
 6137TIP3    H218418   5.227   0.364   0.763
 6138TIP3   OH218419   0.144   0.644   2.541
 6138TIP3    H118420   0.197   0.565   2.529
 6138TIP3    H218421   0.172   0.679   2.626
 6139TIP3   OH218422   2.759   4.454   4.826
 6139TIP3    H118423   2.667   4.441   4.802
 6139TIP3    H218424   2.756   4.477   4.919
 6140TIP3   OH218425   0.997   2.135   4.675
 6140TIP3    H118426   0.980   2.164   4.764
 6140TIP3    H218427   0.919   2.085   4.651
 6141TIP3   OH218428   1.452   0.987   3.896
 6141TIP3    H118429   1.430   0.894   3.897
 6141TIP3    H218430   1.427   1.016   3.808
 6142TIP3   OH218431   4.733   0.201   1.010
 6142TIP3    H118432   4.758   0.191   1.102
 6142TIP3    H218433   4.644   0.167   1.006
 6143TIP3   OH218434   5.828   0.355   4.307
 6143TIP3    H118435   5.878   0.288   4.355
 6143TIP3    H218436   5.800   0.310   4.227
 6144TIP3   OH218437   1.809   2.525   0.080
 6144TIP3    H118438   1.768   2.549  -0.002
 6144TIP3    H218439   1.888   2.477   0.055
 6145TIP3   OH218440   5.998   1.202   1.488
 6145TIP3    H118441   5.962   1.215   1.576
 6145TIP3    H218442   6.083   1.245   1.490
 6146TIP3   OH218443   5.912   3.521   1.428
 6146TIP3    H118444   5.937   3.442   1.379
 6146TIP3    H218445   5.908   3.590   1.362
 6147TIP3   OH218446   4.114   3.765   4.869
 6147TIP3    H118447   4.175   3.825   4.912
 6147TIP3    H218448   4.170   3.703   4.823
 6148TIP3   OH218449   2.306   4.543   4.993
 6148TIP3    H118450   2.288   4.607   5.062
 6148TIP3    H218451   2.400   4.551   4.976
 6149TIP3   OH218452   1.758   3.399   4.220
 6149TIP3    H118453   1.747   3.354   4.304
 6149TIP3    H218454   1.717   3.340   4.156
 6150TIP3   OH218455   4.864   0.479   0.703
 6150TIP3    H118456   4.818   0.539   0.644
 6150TIP3    H218457   4.957   0.499   0.690
 6151TIP3   OH218458   6.236   4.693   5.091
 6151TIP3    H118459   6.309   4.702   5.030
 6151TIP3    H218460   6.208   4.783   5.109
 6152TIP3   OH218461   4.677   0.280   1.626
 6152TIP3    H118462   4.685   0.275   1.531
 6152TIP3    H218463   4.686   0.189   1.655
 6153TIP3   OH218464   4.959   4.553   2.611
 6153TIP3    H118465   4.998   4.637   2.635
 6153TIP3    H218466   5.020   4.488   2.646
 6154TIP3   OH218467   1.547   0.913   0.035
 6154TIP3    H118468   1.559   0.949  -0.053
 6154TIP3    H218469   1.634   0.917   0.075
 6155TIP3   OH218470   0.517   4.440   0.797
 6155TIP3    H118471   0.524   4.345   0.782
 6155TIP3    H218472   0.429   4.452   0.833
 6156TIP3   OH218473   4.048   3.658   2.247
 6156TIP3    H118474   4.114   3.645   2.315
 6156TIP3    H218475   4.094   3.638   2.165
 6157TIP3   OH218476   6.010   0.270   3.425
 6157TIP3    H118477   5.958   0.338   3.468
 6157TIP3    H218478   6.064   0.234   3.495
 6158TIP3   OH218479   5.910   1.919   0.953
 6158TIP3    H118480   5.982   1.901   0.892
 6158TIP3    H218481   5.889   2.011   0.939
 6159TIP3   OH218482   2.462   3.088   4.048
 6159TIP3    H118483   2.530   3.111   3.985
 6159TIP3    H218484   2.490   3.004   4.085
 6160TIP3   OH218485   2.528   2.229   0.347
 6160TIP3    H118486   2.486   2.148   0.378
 6160TIP3    H218487   2.590   2.252   0.416
 6161TIP3   OH218488   5.438   2.200   3.232
 6161TIP3    H118489   5.485   2.144   3.171
 6161TIP3    H218490   5.407   2.273   3.179
 6162TIP3   OH218491   3.341   0.949   0.377
 6162TIP3    H118492   3.365   0.992   0.459
 6162TIP3    H218493   3.343   1.019   0.312
 6163TIP3   OH218494   3.292   4.849   3.944
 6163TIP3    H118495   3.365   4.834   4.004
 6163TIP3    H218496   3.252   4.762   3.933
 6164TIP3   OH218497   5.777   5.337   4.120
 6164TIP3    H118498   5.700   5.393   4.107
 6164TIP3    H218499   5.771   5.271   4.051
 6165TIP3   OH218500   5.361   1.435   5.155
 6165TIP3    H118501   5.383   1.525   5.180
 6165TIP3    H218502   5.411   1.381   5.215
 6166TIP3   OH218503   0.768   4.555   0.412
 6166TIP3    H118504   0.723   4.617   0.469
 6166TIP3    H218505   0.793   4.483   0.470
 6167TIP3   OH218506   0.098   0.982   1.254
 6167TIP3    H118507   0.063   1.010   1.169
 6167TIP3    H218508   0.085   0.887   1.254
 6168TIP3   OH218509   2.716   4.099   4.054
 6168TIP3    H118510   2.724   4.013   4.097
 6168TIP3    H218511   2.759   4.088   3.970
 6169TIP3   OH218512   2.899   5.639   0.651
 6169TIP3    H118513   2.838   5.688   0.707
 6169TIP3    H218514   2.979   5.691   0.653
 6170TIP3   OH218515   0.444   0.002   3.711
 6170TIP3    H118516   0.525   0.046   3.737
 6170TIP3    H218517   0.424   0.038   3.625
 6171TIP3   OH218518   1.712   2.461   4.239
 6171TIP3    H118519   1.696   2.525   4.169
 6171TIP3    H218520   1.758   2.389   4.196
 6172TIP3   OH218521   4.044   3.338   3.378
 6172TIP3    H118522   4.039   3.385   3.461
 6172TIP3    H218523   4.011   3.400   3.313
 6173TIP3   OH218524   2.172   2.537   1.085
 6173TIP3    H118525   2.141   2.546   0.994
 6173TIP3    H218526   2.216   2.621   1.103
 6174TIP3   OH218527   3.154   4.937   1.645
 6174TIP3    H118528   3.104   4.963   1.568
 6174TIP3    H218529   3.233   4.993   1.642
 6175TIP3   OH218530   0.811   3.889   1.703
 6175TIP3    H118531   0.904   3.907   1.718
 6175TIP3    H218532   0.787   3.825   1.770
 6176TIP3   OH218533   5.305   2.200   3.564
 6176TIP3    H118534   5.393   2.218   3.530
 6176TIP3    H218535   5.309   2.110   3.594
 6177TIP3   OH218536   5.409   1.098   3.280
 6177TIP3    H118537   5.489   1.049   3.261
 6177TIP3    H218538   5.371   1.052   3.354
 6178TIP3   OH218539   5.611   2.388   4.039
 6178TIP3    H118540   5.547   2.335   3.992
 6178TIP3    H218541   5.577   2.394   4.128
 6179TIP3   OH218542   4.061   1.544   3.659
 6179TIP3    H118543   4.015   1.615   3.702
 6179TIP3    H218544   4.143   1.535   3.707
 6180TIP3   OH218545   1.525   5.838   3.660
 6180TIP3    H118546   1.518   5.869   3.750
 6180TIP3    H218547   1.468   5.761   3.656
 6181TIP3   OH218548   1.172   3.184   0.684
 6181TIP3    H118549   1.147   3.157   0.595
 6181TIP3    H218550   1.090   3.183   0.733
 6182TIP3   OH218551   0.247   1.307   3.582
 6182TIP3    H118552   0.268   1.214   3.583
 6182TIP3    H218553   0.273   1.339   3.668
 6183TIP3   OH218554   2.741   5.794   2.441
 6183TIP3    H118555   2.701   5.720   2.396
 6183TIP3    H218556   2.681   5.812   2.514
 6184TIP3   OH218557   1.473   0.906   4.529
 6184TIP3    H118558   1.406   0.900   4.461
 6184TIP3    H218559   1.484   0.816   4.560
 6185TIP3   OH218560   2.266   0.136   0.464
 6185TIP3    H118561   2.251   0.194   0.538
 6185TIP3    H218562   2.188   0.082   0.459
 6186TIP3   OH218563   6.071   1.538   0.650
 6186TIP3    H118564   6.002   1.516   0.587
 6186TIP3    H218565   6.150   1.546   0.597
 6187TIP3   OH218566   2.353   4.541   3.595
 6187TIP3    H118567   2.326   4.453   3.623
 6187TIP3    H218568   2.341   4.541   3.500
 6188TIP3   OH218569   4.175   4.643   4.772
 6188TIP3    H118570   4.154   4.728   4.811
 6188TIP3    H218571   4.133   4.646   4.686
 6189TIP3   OH218572   5.146   5.173   4.389
 6189TIP3    H118573   5.089   5.248   4.373
 6189TIP3    H218574   5.229   5.211   4.415
 6190TIP3   OH218575   5.062   2.313   3.507
 6190TIP3    H118576   5.090   2.390   3.458
 6190TIP3    H218577   5.143   2.265   3.525
 6191TIP3   OH218578   2.022   3.744   5.064
 6191TIP3    H118579   1.988   3.657   5.086
 6191TIP3    H218580   2.024   3.745   4.969
 6192TIP3   OH218581   2.563   3.746   0.176
 6192TIP3    H118582   2.469   3.726   0.175
 6192TIP3    H218583   2.568   3.834   0.212
 6193TIP3   OH218584   0.820   4.340   4.597
 6193TIP3    H118585   0.810   4.294   4.681
 6193TIP3    H218586   0.736   4.329   4.554
 6194TIP3   OH218587   0.190   5.407   3.964
 6194TIP3    H118588   0.210   5.406   3.870
 6194TIP3    H218589   0.224   5.491   3.995
 6195TIP3   OH218590   0.675   5.968   4.622
 6195TIP3    H118591   0.755   5.997   4.665
 6195TIP3    H218592   0.640   5.900   4.680
 6196TIP3   OH218593   0.461   2.300   3.134
 6196TIP3    H118594   0.380   2.250   3.122
 6196TIP3    H218595   0.527   2.251   3.084
 6197TIP3   OH218596   4.784   4.565   1.584
 6197TIP3    H118597   4.726   4.491   1.564
 6197TIP3    H218598   4.834   4.578   1.504
 6198TIP3   OH218599   2.511   4.231   3.085
 6198TIP3    H118600   2.541   4.158   3.140
 6198TIP3    H218601   2.476   4.188   3.007
 6199TIP3   OH218602   2.407   1.353   2.054
 6199TIP3    H118603   2.410   1.449   2.054
 6199TIP3    H218604   2.498   1.327   2.068
 6200TIP3   OH218605   4.075   1.863   3.523
 6200TIP3    H118606   4.045   1.941   3.475
 6200TIP3    H218607   4.015   1.793   3.496
 6201TIP3   OH218608   0.242   3.275   4.829
 6201TIP3    H118609   0.173   3.335   4.801
 6201TIP3    H218610   0.317   3.296   4.773
 6202TIP3   OH218611   2.040   0.092   0.838
 6202TIP3    H118612   2.017   0.039   0.914
 6202TIP3    H218613   1.979   0.165   0.840
 6203TIP3   OH218614   1.848   1.404   5.039
 6203TIP3    H118615   1.835   1.425   4.946
 6203TIP3    H218616   1.807   1.319   5.050
 6204TIP3   OH218617   6.054   0.904   5.082
 6204TIP3    H118618   6.054   0.809   5.077
 6204TIP3    H218619   5.965   0.929   5.054
 6205TIP3   OH218620   2.346   3.492   4.611
 6205TIP3    H118621   2.418   3.445   4.569
 6205TIP3    H218622   2.377   3.507   4.701
 6206TIP3   OH218623   4.424   1.846   1.542
 6206TIP3    H118624   4.395   1.890   1.622
 6206TIP3    H218625   4.410   1.912   1.473
 6207TIP3   OH218626   4.267   5.071   1.288
 6207TIP3    H118627   4.249   4.977   1.293
 6207TIP3    H218628   4.336   5.080   1.223
 6208TIP3   OH218629   4.049   3.192   1.933
 6208TIP3    H118630   4.050   3.147   2.018
 6208TIP3    H218631   3.998   3.134   1.876
 6209TIP3   OH218632   6.242   5.970   4.788
 6209TIP3    H118633   6.285   6.024   4.855
 6209TIP3    H218634   6.194   5.904   4.838
 6210TIP3   OH218635   2.785   4.760   0.343
 6210TIP3    H118636   2.782   4.847   0.381
 6210TIP3    H218637   2.878   4.745   0.325
 6211TIP3   OH218638   2.091   0.992   3.880
 6211TIP3    H118639   2.069   0.908   3.919
 6211TIP3    H218640   2.127   1.043   3.953
 6212TIP3   OH218641   5.020   5.388   2.374
 6212TIP3    H118642   5.027   5.336   2.454
 6212TIP3    H218643   4.971   5.466   2.401
 6213TIP3   OH218644   3.816   1.356   4.299
 6213TIP3    H118645   3.780   1.369   4.387
 6213TIP3    H218646   3.900   1.314   4.314
 6214TIP3   OH218647   1.456   4.702   4.140
 6214TIP3    H118648   1.535   4.725   4.190
 6214TIP3    H218649   1.387   4.757   4.178
 6215TIP3   OH218650   4.987   3.446   4.882
 6215TIP3    H118651   4.972   3.540   4.882
 6215TIP3    H218652   4.943   3.414   4.803
 6216TIP3   OH218653   5.528   0.897   2.505
 6216TIP3    H118654   5.526   0.975   2.561
 6216TIP3    H218655   5.591   0.839   2.547
 6217TIP3   OH218656   2.943   2.139   1.367
 6217TIP3    H118657   3.021   2.177   1.325
 6217TIP3    H218658   2.978   2.088   1.440
 6218TIP3   OH218659   0.463   3.866   2.185
 6218TIP3    H118660   0.371   3.872   2.161
 6218TIP3    H218661   0.489   3.956   2.206
 6219TIP3   OH218662   4.081   0.653   0.922
 6219TIP3    H118663   4.139   0.719   0.960
 6219TIP3    H218664   4.030   0.620   0.995
 6220TIP3   OH218665   3.533   1.551   4.348
 6220TIP3    H118666   3.489   1.634   4.331
 6220TIP3    H218667   3.522   1.537   4.442
 6221TIP3   OH218668   0.266   1.780   1.599
 6221TIP3    H118669   0.172   1.765   1.598
 6221TIP3    H218670   0.277   1.866   1.558
 6222TIP3   OH218671   1.815   3.971   5.080
 6222TIP3    H118672   1.736   3.972   5.135
 6222TIP3    H218673   1.871   3.905   5.122
 6223TIP3   OH218674   1.722   0.369   3.807
 6223TIP3    H118675   1.805   0.348   3.764
 6223TIP3    H218676   1.710   0.299   3.872
 6224TIP3   OH218677   2.584   5.494   3.443
 6224TIP3    H118678   2.547   5.406   3.447
 6224TIP3    H218679   2.547   5.533   3.364
 6225TIP3   OH218680   1.122   0.147   5.041
 6225TIP3    H118681   1.162   0.183   4.962
 6225TIP3    H218682   1.147   0.055   5.041
 6226TIP3   OH218683   4.326   5.696   2.954
 6226TIP3    H118684   4.319   5.753   3.030
 6226TIP3    H218685   4.376   5.747   2.890
 6227TIP3   OH218686   4.699   0.623   4.016
 6227TIP3    H118687   4.743   0.659   4.093
 6227TIP3    H218688   4.736   0.535   4.006
 6228TIP3   OH218689   3.293   4.150   4.510
 6228TIP3    H118690   3.348   4.077   4.480
 6228TIP3    H218691   3.342   4.189   4.582
 6229TIP3   OH218692   4.051   1.272   3.545
 6229TIP3    H118693   4.054   1.366   3.560
 6229TIP3    H218694   3.997   1.238   3.617
 6230TIP3   OH218695   3.728   0.593   1.708
 6230TIP3    H118696   3.735   0.550   1.794
 6230TIP3    H218697   3.725   0.686   1.728
 6231TIP3   OH218698   4.127   1.937   3.764
 6231TIP3    H118699   4.091   1.890   3.689
 6231TIP3    H218700   4.215   1.964   3.735
 6232TIP3   OH218701   1.969   2.654   3.614
 6232TIP3    H118702   1.892   2.710   3.609
 6232TIP3    H218703   2.043   2.716   3.617
 6233TIP3   OH218704   1.003   2.563   4.726
 6233TIP3    H118705   1.009   2.658   4.721
 6233TIP3    H218706   1.040   2.541   4.812
 6234TIP3   OH218707   5.809   2.830   3.642
 6234TIP3    H118708   5.868   2.900   3.668
 6234TIP3    H218709   5.858   2.750   3.658
 6235TIP3   OH218710   3.439   1.327   3.380
 6235TIP3    H118711   3.502   1.266   3.343
 6235TIP3    H218712   3.492   1.389   3.430
 6236TIP3   OH218713   4.869   3.822   0.014
 6236TIP3    H118714   4.822   3.897   0.049
 6236TIP3    H218715   4.860   3.754   0.080
 6237TIP3   OH218716   3.268   2.667   1.931
 6237TIP3    H118717   3.240   2.712   1.852
 6237TIP3    H218718   3.241   2.725   2.003
 6238TIP3   OH218719   1.262   1.819   0.120
 6238TIP3    H118720   1.278   1.912   0.106
 6238TIP3    H218721   1.235   1.786   0.034
 6239TIP3   OH218722   5.481   1.211   0.834
 6239TIP3    H118723   5.520   1.133   0.872
 6239TIP3    H218724   5.539   1.283   0.859
 6240TIP3   OH218725   5.547   4.912   2.961
 6240TIP3    H118726   5.465   4.901   3.009
 6240TIP3    H218727   5.591   4.827   2.968
 6241TIP3   OH218728   0.050   2.248   4.114
 6241TIP3    H118729   0.117   2.284   4.057
 6241TIP3    H218730  -0.019   2.218   4.054
 6242TIP3   OH218731   1.029   2.486   1.296
 6242TIP3    H118732   1.110   2.506   1.344
 6242TIP3    H218733   1.009   2.396   1.320
 6243TIP3   OH218734   4.698   0.563   0.205
 6243TIP3    H118735   4.605   0.578   0.220
 6243TIP3    H218736   4.727   0.640   0.156
 6244TIP3   OH218737   3.045   0.647   4.683
 6244TIP3    H118738   3.095   0.719   4.722
 6244TIP3    H218739   3.107   0.604   4.623
 6245TIP3   OH218740   5.068   4.401   2.201
 6245TIP3    H118741   4.973   4.412   2.204
 6245TIP3    H218742   5.100   4.483   2.161
 6246TIP3   OH218743   4.179   1.777   1.166
 6246TIP3    H118744   4.103   1.806   1.117
 6246TIP3    H218745   4.156   1.792   1.258
 6247TIP3   OH218746   4.091   1.681   5.164
 6247TIP3    H118747   4.036   1.756   5.186
 6247TIP3    H218748   4.084   1.624   5.241
 6248TIP3   OH218749   0.656   3.589   0.962
 6248TIP3    H118750   0.641   3.667   1.015
 6248TIP3    H218751   0.709   3.620   0.888
 6249TIP3   OH218752   3.168   1.175   4.707
 6249TIP3    H118753   3.134   1.086   4.702
 6249TIP3    H218754   3.245   1.174   4.650
 6250TIP3   OH218755   3.793   1.877   2.189
 6250TIP3    H118756   3.793   1.853   2.097
 6250TIP3    H218757   3.856   1.949   2.196
 6251TIP3   OH218758   4.396   4.824   0.412
 6251TIP3    H118759   4.432   4.739   0.387
 6251TIP3    H218760   4.338   4.805   0.486
 6252TIP3   OH218761   0.818   0.125   5.053
 6252TIP3    H118762   0.799   0.087   4.967
 6252TIP3    H218763   0.913   0.142   5.051
 6253TIP3   OH218764   3.561   2.142   0.129
 6253TIP3    H118765   3.521   2.186   0.204
 6253TIP3    H218766   3.651   2.124   0.157
 6254TIP3   OH218767   3.554   0.748   3.485
 6254TIP3    H118768   3.483   0.699   3.527
 6254TIP3    H218769   3.541   0.734   3.391
 6255TIP3   OH218770   0.463   0.730   3.059
 6255TIP3    H118771   0.496   0.640   3.057
 6255TIP3    H218772   0.479   0.763   2.970
 6256TIP3   OH218773   3.246   0.887   2.707
 6256TIP3    H118774   3.180   0.948   2.674
 6256TIP3    H218775   3.264   0.829   2.632
 6257TIP3   OH218776   3.483   1.892   4.531
 6257TIP3    H118777   3.577   1.895   4.516
 6257TIP3    H218778   3.473   1.843   4.612
 6258TIP3   OH218779   4.666   5.516   2.250
 6258TIP3    H118780   4.704   5.446   2.196
 6258TIP3    H218781   4.740   5.553   2.297
 6259TIP3   OH218782   1.534   3.099   3.161
 6259TIP3    H118783   1.473   3.026   3.166
 6259TIP3    H218784   1.620   3.060   3.176
 6260TIP3   OH218785   0.572   2.609   4.998
 6260TIP3    H118786   0.500   2.661   4.963
 6260TIP3    H218787   0.647   2.668   4.997
 6261TIP3   OH218788   5.416   3.307   2.083
 6261TIP3    H118789   5.400   3.346   1.998
 6261TIP3    H218790   5.374   3.365   2.146
 6262TIP3   OH218791   3.343   2.969   1.742
 6262TIP3    H118792   3.260   2.923   1.751
 6262TIP3    H218793   3.368   2.956   1.650
 6263TIP3   OH218794   3.523   4.994   3.488
 6263TIP3    H118795   3.540   5.084   3.462
 6263TIP3    H218796   3.438   4.998   3.532
 6264TIP3   OH218797   5.690   0.959   2.293
 6264TIP3    H118798   5.632   0.936   2.366
 6264TIP3    H218799   5.776   0.929   2.321
 6265TIP3   OH218800   6.032   2.703   3.440
 6265TIP3    H118801   6.014   2.614   3.469
 6265TIP3    H218802   6.127   2.712   3.443
 6266TIP3   OH218803   4.860   2.283   3.317
 6266TIP3    H118804   4.937   2.267   3.370
 6266TIP3    H218805   4.890   2.271   3.227
 6267TIP3   OH218806   2.376   4.120   2.343
 6267TIP3    H118807   2.445   4.108   2.278
 6267TIP3    H218808   2.388   4.210   2.374
 6268TIP3   OH218809   0.254   4.451   3.182
 6268TIP3    H118810   0.160   4.469   3.182
 6268TIP3    H218811   0.265   4.377   3.241
 6269TIP3   OH218812   1.911   2.464   4.588
 6269TIP3    H118813   1.923   2.423   4.674
 6269TIP3    H218814   1.818   2.454   4.569
 6270TIP3   OH218815   1.652   4.805   0.445
 6270TIP3    H118816   1.634   4.716   0.416
 6270TIP3    H218817   1.704   4.795   0.524
 6271TIP3   OH218818   1.233   2.990   3.390
 6271TIP3    H118819   1.165   3.054   3.367
 6271TIP3    H218820   1.275   2.970   3.307
 6272TIP3   OH218821   3.481   0.438   0.435
 6272TIP3    H118822   3.531   0.489   0.371
 6272TIP3    H218823   3.479   0.350   0.399
 6273TIP3   OH218824   6.307   3.715   0.810
 6273TIP3    H118825   6.316   3.675   0.896
 6273TIP3    H218826   6.397   3.731   0.781
 6274TIP3   OH218827   4.481   5.026   2.174
 6274TIP3    H118828   4.402   5.072   2.146
 6274TIP3    H218829   4.532   5.014   2.094
 6275TIP3   OH218830   3.236   3.209   2.488
 6275TIP3    H118831   3.212   3.249   2.404
 6275TIP3    H218832   3.166   3.233   2.548
 6276TIP3   OH218833   2.202   1.553   4.886
 6276TIP3    H118834   2.265   1.605   4.836
 6276TIP3    H218835   2.155   1.502   4.820
 6277TIP3   OH218836   2.319   3.742   2.841
 6277TIP3    H118837   2.247   3.681   2.829
 6277TIP3    H218838   2.316   3.799   2.764
 6278TIP3   OH218839   2.082   4.878   1.665
 6278TIP3    H118840   2.080   4.901   1.758
 6278TIP3    H218841   2.038   4.793   1.660
 6279TIP3   OH218842   5.133   3.489   1.344
 6279TIP3    H118843   5.077   3.472   1.268
 6279TIP3    H218844   5.100   3.431   1.412
 6280TIP3   OH218845   3.784   2.982   1.280
 6280TIP3    H118846   3.708   3.026   1.241
 6280TIP3    H218847   3.853   2.993   1.215
 6281TIP3   OH218848   4.569   2.582   1.316
 6281TIP3    H118849   4.618   2.562   1.237
 6281TIP3    H218850   4.565   2.500   1.364
 6282TIP3   OH218851   3.528   1.351   1.112
 6282TIP3    H118852   3.574   1.290   1.056
 6282TIP3    H218853   3.578   1.433   1.106
 6283TIP3   OH218854   0.552   2.376   5.163
 6283TIP3    H118855   0.551   2.459   5.115
 6283TIP3    H218856   0.644   2.359   5.181
 6284TIP3   OH218857   0.017   0.642   1.769
 6284TIP3    H118858   0.107   0.676   1.773
 6284TIP3    H218859  -0.002   0.637   1.675
 6285TIP3   OH218860   3.253   3.306   0.404
 6285TIP3    H118861   3.320   3.254   0.359
 6285TIP3    H218862   3.289   3.321   0.491
 6286TIP3   OH218863   6.227   4.749   3.965
 6286TIP3    H118864   6.311   4.712   3.935
 6286TIP3    H218865   6.249   4.795   4.046
 6287TIP3   OH218866   0.988   1.272   0.277
 6287TIP3    H118867   0.969   1.341   0.213
 6287TIP3    H218868   1.075   1.239   0.251
 6288TIP3   OH218869   3.378   3.856   1.668
 6288TIP3    H118870   3.313   3.852   1.738
 6288TIP3    H218871   3.438   3.926   1.694
 6289TIP3   OH218872   1.219   0.179   4.801
 6289TIP3    H118873   1.202   0.120   4.728
 6289TIP3    H218874   1.244   0.262   4.759
 6290TIP3   OH218875   3.946   3.037   4.364
 6290TIP3    H118876   3.977   3.016   4.452
 6290TIP3    H218877   3.897   3.119   4.375
 6291TIP3   OH218878   5.743   3.490   1.167
 6291TIP3    H118879   5.702   3.560   1.118
 6291TIP3    H218880   5.683   3.473   1.240
 6292TIP3   OH218881   4.751   5.173   0.290
 6292TIP3    H118882   4.670   5.191   0.338
 6292TIP3    H218883   4.821   5.191   0.352
 6293TIP3   OH218884   0.243   4.039   4.350
 6293TIP3    H118885   0.320   3.983   4.347
 6293TIP3    H218886   0.188   4.009   4.278
 6294TIP3   OH218887   5.861   2.650   1.614
 6294TIP3    H118888   5.925   2.678   1.680
 6294TIP3    H218889   5.798   2.597   1.663
 6295TIP3   OH218890   1.738   1.409   4.755
 6295TIP3    H118891   1.750   1.441   4.666
 6295TIP3    H218892   1.643   1.400   4.764
 6296TIP3   OH218893   6.072   1.045   2.422
 6296TIP3    H118894   6.030   0.960   2.433
 6296TIP3    H218895   6.037   1.078   2.339
 6297TIP3   OH218896   5.588   2.976   1.754
 6297TIP3    H118897   5.568   3.066   1.778
 6297TIP3    H218898   5.673   2.980   1.711
 6298TIP3   OH218899   3.757   2.826   2.426
 6298TIP3    H118900   3.673   2.783   2.417
 6298TIP3    H218901   3.817   2.775   2.372
 6299TIP3   OH218902   1.559   0.879   0.839
 6299TIP3    H118903   1.534   0.917   0.924
 6299TIP3    H218904   1.621   0.810   0.861
 6300TIP3   OH218905   0.448   0.688   1.011
 6300TIP3    H118906   0.446   0.596   0.987
 6300TIP3    H218907   0.497   0.730   0.940
 6301TIP3   OH218908   2.120   2.455   1.796
 6301TIP3    H118909   2.199   2.499   1.765
 6301TIP3    H218910   2.051   2.520   1.784
 6302TIP3   OH218911   5.545   0.871   0.638
 6302TIP3    H118912   5.600   0.839   0.709
 6302TIP3    H218913   5.477   0.804   0.628
 6303TIP3   OH218914   1.259   0.625   3.097
 6303TIP3    H118915   1.289   0.538   3.121
 6303TIP3    H218916   1.170   0.631   3.130
 6304TIP3   OH218917   5.943   3.982   4.419
 6304TIP3    H118918   5.972   3.908   4.473
 6304TIP3    H218919   6.023   4.032   4.402
 6305TIP3   OH218920   5.498   3.663   2.813
 6305TIP3    H118921   5.499   3.583   2.760
 6305TIP3    H218922   5.405   3.686   2.819
 6306TIP3   OH218923   3.260   2.146   4.806
 6306TIP3    H118924   3.228   2.079   4.866
 6306TIP3    H218925   3.316   2.202   4.861
 6307TIP3   OH218926   3.340   1.379   4.786
 6307TIP3    H118927   3.279   1.305   4.789
 6307TIP3    H218928   3.367   1.391   4.877
 6308TIP3   OH218929   3.758   1.195   5.196
 6308TIP3    H118930   3.786   1.191   5.104
 6308TIP3    H218931   3.825   1.247   5.239
 6309TIP3   OH218932   0.430   2.380   0.210
 6309TIP3    H118933   0.519   2.391   0.177
 6309TIP3    H218934   0.390   2.315   0.151
 6310TIP3   OH218935   6.132   3.548   3.097
 6310TIP3    H118936   6.201   3.529   3.033
 6310TIP3    H218937   6.164   3.510   3.179
 6311TIP3   OH218938   1.321   4.938   0.356
 6311TIP3    H118939   1.355   5.008   0.301
 6311TIP3    H218940   1.228   4.960   0.369
 6312TIP3   OH218941   2.256   4.471   2.474
 6312TIP3    H118942   2.318   4.481   2.402
 6312TIP3    H218943   2.310   4.456   2.551
 6313TIP3   OH218944   0.608   0.884   4.452
 6313TIP3    H118945   0.695   0.847   4.436
 6313TIP3    H218946   0.582   0.849   4.537
 6314TIP3   OH218947   4.357   4.641   4.251
 6314TIP3    H118948   4.324   4.674   4.167
 6314TIP3    H218949   4.390   4.553   4.231
 6315TIP3   OH218950   4.363   4.274   4.857
 6315TIP3    H118951   4.390   4.314   4.774
 6315TIP3    H218952   4.422   4.310   4.922
 6316TIP3   OH218953   0.400   1.482   2.778
 6316TIP3    H118954   0.434   1.571   2.772
 6316TIP3    H218955   0.433   1.438   2.699
 6317TIP3   OH218956   1.003   4.552   4.493
 6317TIP3    H118957   0.955   4.471   4.511
 6317TIP3    H218958   0.967   4.584   4.411
 6318TIP3   OH218959   3.144   5.900   4.483
 6318TIP3    H118960   3.093   5.864   4.556
 6318TIP3    H218961   3.234   5.873   4.502
 6319TIP3   OH218962   1.912   3.204   4.813
 6319TIP3    H118963   1.972   3.205   4.887
 6319TIP3    H218964   1.959   3.250   4.743
 6320TIP3   OH218965   2.453   5.318   0.862
 6320TIP3    H118966   2.381   5.258   0.879
 6320TIP3    H218967   2.532   5.270   0.886
 6321TIP3   OH218968   1.734   3.545   3.832
 6321TIP3    H118969   1.730   3.562   3.738
 6321TIP3    H218970   1.646   3.513   3.854
 6322TIP3   OH218971   5.003   1.401   4.859
 6322TIP3    H118972   4.950   1.346   4.801
 6322TIP3    H218973   4.941   1.465   4.895
 6323TIP3   OH218974   2.829   3.040   3.148
 6323TIP3    H118975   2.762   3.102   3.121
 6323TIP3    H218976   2.786   2.983   3.211
 6324TIP3   OH218977   4.734   1.006   3.733
 6324TIP3    H118978   4.657   1.003   3.677
 6324TIP3    H218979   4.747   0.916   3.763
 6325TIP3   OH218980   6.136   4.999   1.063
 6325TIP3    H118981   6.054   5.031   1.027
 6325TIP3    H218982   6.123   4.905   1.074
 6326TIP3   OH218983   1.485   2.907   0.199
 6326TIP3    H118984   1.431   2.912   0.278
 6326TIP3    H218985   1.533   2.990   0.198
 6327TIP3   OH218986   6.111   3.816   4.592
 6327TIP3    H118987   6.146   3.728   4.579
 6327TIP3    H218988   6.187   3.868   4.620
 6328TIP3   OH218989   3.952   1.525   0.066
 6328TIP3    H118990   3.994   1.548   0.149
 6328TIP3    H218991   4.015   1.551  -0.001
 6329TIP3   OH218992   3.001   3.234   4.690
 6329TIP3    H118993   2.978   3.141   4.685
 6329TIP3    H218994   2.917   3.280   4.687
 6330TIP3   OH218995   6.084   5.159   3.837
 6330TIP3    H118996   6.169   5.128   3.805
 6330TIP3    H218997   6.105   5.236   3.890
 6331TIP3   OH218998   4.898   5.830   4.227
 6331TIP3    H118999   4.927   5.908   4.274
 6331TIP3    H219000   4.900   5.856   4.134
 6332TIP3   OH219001   3.680   1.367   4.050
 6332TIP3    H119002   3.738   1.386   4.124
 6332TIP3    H219003   3.691   1.273   4.034
 6333TIP3   OH219004   0.410   5.959   2.361
 6333TIP3    H119005   0.370   5.964   2.274
 6333TIP3    H219006   0.369   6.031   2.410
 6334TIP3   OH219007   5.391   1.586   1.345
 6334TIP3    H119008   5.486   1.582   1.335
 6334TIP3    H219009   5.357   1.526   1.278
 6335TIP3   OH219010   3.125   1.360   1.532
 6335TIP3    H119011   3.045   1.363   1.481
 6335TIP3    H219012   3.184   1.304   1.481
 6336TIP3   OH219013   2.075   5.843   2.141
 6336TIP3    H119014   2.140   5.906   2.172
 6336TIP3    H219015   2.057   5.788   2.217
 6337TIP3   OH219016   5.689   2.015   1.592
 6337TIP3    H119017   5.725   2.006   1.680
 6337TIP3    H219018   5.694   1.927   1.555
 6338TIP3   OH219019   0.909   5.858   0.873
 6338TIP3    H119020   0.949   5.790   0.819
 6338TIP3    H219021   0.982   5.912   0.902
 6339TIP3   OH219022   4.840   2.430   1.992
 6339TIP3    H119023   4.853   2.516   1.953
 6339TIP3    H219024   4.914   2.419   2.052
 6340TIP3   OH219025   4.846   4.228   0.764
 6340TIP3    H119026   4.769   4.198   0.714
 6340TIP3    H219027   4.809   4.271   0.841
 6341TIP3   OH219028   4.914   4.110   1.169
 6341TIP3    H119029   5.001   4.125   1.133
 6341TIP3    H219030   4.912   4.016   1.189
 6342TIP3   OH219031   0.084   1.354   0.316
 6342TIP3    H119032   0.160   1.409   0.336
 6342TIP3    H219033   0.103   1.320   0.228
 6343TIP3   OH219034   4.119   3.209   3.861
 6343TIP3    H119035   4.111   3.163   3.778
 6343TIP3    H219036   4.048   3.174   3.915
 6344TIP3   OH219037   4.730   4.857   3.214
 6344TIP3    H119038   4.739   4.860   3.119
 6344TIP3    H219039   4.775   4.935   3.245
 6345TIP3   OH219040   2.457   1.955   4.643
 6345TIP3    H119041   2.447   2.039   4.688
 6345TIP3    H219042   2.541   1.963   4.597
 6346TIP3   OH219043   5.610   1.828   1.062
 6346TIP3    H119044   5.670   1.834   0.987
 6346TIP3    H219045   5.523   1.831   1.023
 6347TIP3   OH219046   3.578   5.142   4.821
 6347TIP3    H119047   3.662   5.098   4.806
 6347TIP3    H219048   3.529   5.129   4.741
 6348TIP3   OH219049   2.232   2.153   3.674
 6348TIP3    H119050   2.178   2.075   3.680
 6348TIP3    H219051   2.243   2.181   3.765
 6349TIP3   OH219052   5.753   0.921   1.147
 6349TIP3    H119053   5.755   0.896   1.239
 6349TIP3    H219054   5.827   0.874   1.108
 6350TIP3   OH219055   2.853   4.570   1.829
 6350TIP3    H119056   2.912   4.516   1.776
 6350TIP3    H219057   2.812   4.629   1.765
 6351TIP3   OH219058   0.845   5.026   0.875
 6351TIP3    H119059   0.777   4.960   0.883
 6351TIP3    H219060   0.905   4.991   0.809
 6352TIP3   OH219061   2.032   4.379   5.122
 6352TIP3    H119062   2.110   4.325   5.115
 6352TIP3    H219063   1.974   4.347   5.053
 6353TIP3   OH219064   5.004   2.325   2.825
 6353TIP3    H119065   5.052   2.245   2.804
 6353TIP3    H219066   5.038   2.390   2.762
 6354TIP3   OH219067   4.721   0.790   2.872
 6354TIP3    H119068   4.716   0.707   2.826
 6354TIP3    H219069   4.811   0.819   2.860
 6355TIP3   OH219070   2.740   2.454   2.579
 6355TIP3    H119071   2.764   2.407   2.660
 6355TIP3    H219072   2.692   2.531   2.610
 6356TIP3   OH219073   0.736   4.374   2.295
 6356TIP3    H119074   0.765   4.463   2.317
 6356TIP3    H219075   0.782   4.317   2.357
 6357TIP3   OH219076   2.867   5.553   0.191
 6357TIP3    H119077   2.909   5.634   0.220
 6357TIP3    H219078   2.777   5.579   0.169
 6358TIP3   OH219079   3.409   3.664   1.104
 6358TIP3    H119080   3.492   3.643   1.146
 6358TIP3    H219081   3.398   3.597   1.037
 6359TIP3   OH219082   6.257   0.653   4.222
 6359TIP3    H119083   6.198   0.728   4.214
 6359TIP3    H219084   6.224   0.605   4.298
 6360TIP3   OH219085   4.524   0.879   4.448
 6360TIP3    H119086   4.597   0.872   4.509
 6360TIP3    H219087   4.525   0.971   4.420
 6361TIP3   OH219088   4.663   2.248   1.843
 6361TIP3    H119089   4.724   2.174   1.840
 6361TIP3    H219090   4.704   2.310   1.904
 6362TIP3   OH219091   4.451   0.171   1.035
 6362TIP3    H119092   4.384   0.102   1.040
 6362TIP3    H219093   4.427   0.222   0.958
 6363TIP3   OH219094   4.209   4.383   2.219
 6363TIP3    H119095   4.210   4.288   2.216
 6363TIP3    H219096   4.270   4.410   2.151
 6364TIP3   OH219097   4.096   3.357   0.965
 6364TIP3    H119098   4.007   3.323   0.974
 6364TIP3    H219099   4.144   3.321   1.039
 6365TIP3   OH219100   3.954   2.001   0.750
 6365TIP3    H119101   3.867   2.025   0.718
 6365TIP3    H219102   4.005   1.986   0.670
 6366TIP3   OH219103   5.065   1.734   0.240
 6366TIP3    H119104   5.153   1.699   0.255
 6366TIP3    H219105   5.078   1.829   0.234
 6367TIP3   OH219106   0.741   2.224   0.921
 6367TIP3    H119107   0.715   2.167   0.848
 6367TIP3    H219108   0.776   2.302   0.879
 6368TIP3   OH219109   0.965   1.707   2.462
 6368TIP3    H119110   0.888   1.718   2.518
 6368TIP3    H219111   0.982   1.613   2.462
 6369TIP3   OH219112   2.808   1.167   0.394
 6369TIP3    H119113   2.896   1.179   0.429
 6369TIP3    H219114   2.798   1.072   0.385
 6370TIP3   OH219115   4.611   0.558   1.726
 6370TIP3    H119116   4.633   0.479   1.677
 6370TIP3    H219117   4.521   0.543   1.756
 6371TIP3   OH219118   2.141   3.518   1.078
 6371TIP3    H119119   2.092   3.437   1.090
 6371TIP3    H219120   2.185   3.507   0.993
 6372TIP3   OH219121   5.721   4.825   1.514
 6372TIP3    H119122   5.775   4.848   1.439
 6372TIP3    H219123   5.633   4.812   1.478
 6373TIP3   OH219124   4.355   1.233   1.961
 6373TIP3    H119125   4.390   1.203   2.045
 6373TIP3    H219126   4.384   1.166   1.898
 6374TIP3   OH219127   4.854   1.877   3.224
 6374TIP3    H119128   4.932   1.823   3.222
 6374TIP3    H219129   4.875   1.952   3.168
 6375TIP3   OH219130   1.281   3.908   4.338
 6375TIP3    H119131   1.369   3.931   4.311
 6375TIP3    H219132   1.289   3.885   4.431
 6376TIP3   OH219133   4.249   5.821   4.319
 6376TIP3    H119134   4.210   5.806   4.405
 6376TIP3    H219135   4.179   5.801   4.257
 6377TIP3   OH219136   1.812   0.852   0.086
 6377TIP3    H119137   1.860   0.918   0.137
 6377TIP3    H219138   1.871   0.776   0.084
 6378TIP3   OH219139   2.845   5.857   1.956
 6378TIP3    H119140   2.906   5.843   2.029
 6378TIP3    H219141   2.807   5.943   1.973
 6379TIP3   OH219142   2.586   1.679   0.804
 6379TIP3    H119143   2.626   1.657   0.720
 6379TIP3    H219144   2.574   1.774   0.801
 6380TIP3   OH219145   0.317   5.769   3.452
 6380TIP3    H119146   0.276   5.712   3.517
 6380TIP3    H219147   0.408   5.775   3.480
 6381TIP3   OH219148   2.569   4.381   2.224
 6381TIP3    H119149   2.647   4.397   2.169
 6381TIP3    H219150   2.603   4.380   2.313
 6382TIP3   OH219151   3.848   0.783   2.248
 6382TIP3    H119152   3.801   0.785   2.331
 6382TIP3    H219153   3.852   0.691   2.224
 6383TIP3   OH219154   4.727   1.453   3.029
 6383TIP3    H119155   4.807   1.431   3.078
 6383TIP3    H219156   4.657   1.449   3.094
 6384TIP3   OH219157   5.169   3.266   3.608
 6384TIP3    H119158   5.259   3.293   3.591
 6384TIP3    H219159   5.162   3.264   3.704
 6385TIP3   OH219160   0.131   2.557   1.479
 6385TIP3    H119161   0.220   2.539   1.450
 6385TIP3    H219162   0.113   2.488   1.543
 6386TIP3   OH219163   3.086   2.431   4.290
 6386TIP3    H119164   3.028   2.393   4.356
 6386TIP3    H219165   3.060   2.389   4.208
 6387TIP3   OH219166   2.554   2.534   3.026
 6387TIP3    H119167   2.472   2.532   2.977
 6387TIP3    H219168   2.542   2.606   3.089
 6388TIP3   OH219169   5.075   1.094   2.837
 6388TIP3    H119170   5.010   1.143   2.886
 6388TIP3    H219171   5.159   1.122   2.874
 6389TIP3   OH219172   6.161   3.811   3.036
 6389TIP3    H119173   6.181   3.803   2.943
 6389TIP3    H219174   6.131   3.724   3.062
 6390TIP3   OH219175   1.127   5.430   1.068
 6390TIP3    H119176   1.074   5.401   0.993
 6390TIP3    H219177   1.064   5.472   1.127
 6391TIP3   OH219178   5.922   0.471   0.920
 6391TIP3    H119179   5.918   0.563   0.945
 6391TIP3    H219180   6.011   0.460   0.885
 6392TIP3   OH219181   3.284   4.273   3.815
 6392TIP3    H119182   3.344   4.345   3.793
 6392TIP3    H219183   3.198   4.314   3.817
 6393TIP3   OH219184   4.310   3.434   0.031
 6393TIP3    H119185   4.308   3.380   0.110
 6393TIP3    H219186   4.239   3.497   0.043
 6394TIP3   OH219187   3.413   1.385   4.173
 6394TIP3    H119188   3.434   1.425   4.257
 6394TIP3    H219189   3.496   1.384   4.125
 6395TIP3   OH219190   1.801   5.678   2.812
 6395TIP3    H119191   1.823   5.770   2.830
 6395TIP3    H219192   1.856   5.655   2.737
 6396TIP3   OH219193   4.929   5.813   2.817
 6396TIP3    H119194   4.951   5.720   2.810
 6396TIP3    H219195   4.970   5.854   2.742
 6397TIP3   OH219196   1.506   0.652   4.638
 6397TIP3    H119197   1.415   0.665   4.665
 6397TIP3    H219198   1.545   0.598   4.707
 6398TIP3   OH219199   0.544   2.454   2.427
 6398TIP3    H119200   0.540   2.537   2.380
 6398TIP3    H219201   0.628   2.456   2.473
 6399TIP3   OH219202   0.149   0.290   1.090
 6399TIP3    H119203   0.079   0.297   1.026
 6399TIP3    H219204   0.182   0.200   1.081
 6400TIP3   OH219205   5.944   4.983   1.385
 6400TIP3    H119206   6.002   5.049   1.423
 6400TIP3    H219207   6.004   4.920   1.344
 6401TIP3   OH219208   0.824   5.197   3.439
 6401TIP3    H119209   0.801   5.133   3.371
 6401TIP3    H219210   0.763   5.178   3.511
 6402TIP3   OH219211   5.889   1.435   0.464
 6402TIP3    H119212   5.950   1.362   0.476
 6402TIP3    H219213   5.808   1.394   0.435
 6403TIP3   OH219214   1.159   5.624   1.560
 6403TIP3    H119215   1.233   5.674   1.595
 6403TIP3    H219216   1.196   5.541   1.532
 6404TIP3   OH219217   5.786   1.913   1.859
 6404TIP3    H119218   5.740   1.830   1.868
 6404TIP3    H219219   5.879   1.891   1.867
 6405TIP3   OH219220   2.257   4.172   4.479
 6405TIP3    H119221   2.199   4.190   4.405
 6405TIP3    H219222   2.321   4.110   4.445
 6406TIP3   OH219223   5.864   4.922   5.076
 6406TIP3    H119224   5.838   5.010   5.050
 6406TIP3    H219225   5.886   4.878   4.994
 6407TIP3   OH219226   4.356   0.488   4.553
 6407TIP3    H119227   4.313   0.496   4.638
 6407TIP3    H219228   4.442   0.451   4.573
 6408TIP3   OH219229   1.499   4.930   1.963
 6408TIP3    H119230   1.540   4.856   1.918
 6408TIP3    H219231   1.569   4.995   1.970
 6409TIP3   OH219232   3.801   5.789   3.309
 6409TIP3    H119233   3.724   5.740   3.338
 6409TIP3    H219234   3.767   5.851   3.244
 6410TIP3   OH219235   0.190   2.235   0.362
 6410TIP3    H119236   0.258   2.293   0.396
 6410TIP3    H219237   0.236   2.175   0.303
 6411TIP3   OH219238   3.234   6.003   4.092
 6411TIP3    H119239   3.236   5.932   4.029
 6411TIP3    H219240   3.287   5.973   4.166
 6412TIP3   OH219241   0.726   4.319   4.135
 6412TIP3    H119242   0.672   4.288   4.209
 6412TIP3    H219243   0.788   4.249   4.119
 6413TIP3   OH219244   5.219   5.120   2.746
 6413TIP3    H119245   5.172   5.088   2.823
 6413TIP3    H219246   5.268   5.195   2.777
 6414TIP3   OH219247   5.444   3.690   3.406
 6414TIP3    H119248   5.351   3.689   3.429
 6414TIP3    H219249   5.457   3.612   3.353
 6415TIP3   OH219250   0.276   0.212   4.894
 6415TIP3    H119251   0.211   0.144   4.911
 6415TIP3    H219252   0.227   0.280   4.848
 6416TIP3   OH219253   0.908   1.834   0.109
 6416TIP3    H119254   0.969   1.892   0.155
 6416TIP3    H219255   0.874   1.775   0.176
 6417TIP3   OH219256   0.451   1.107   1.957
 6417TIP3    H119257   0.395   1.108   1.880
 6417TIP3    H219258   0.500   1.189   1.952
 6418TIP3   OH219259   2.165   1.878   4.140
 6418TIP3    H119260   2.250   1.839   4.118
 6418TIP3    H219261   2.173   1.901   4.232
 6419TIP3   OH219262   1.248   3.103   4.211
 6419TIP3    H119263   1.171   3.056   4.241
 6419TIP3    H219264   1.291   3.043   4.150
 6420TIP3   OH219265   0.275   2.895   4.275
 6420TIP3    H119266   0.255   2.934   4.190
 6420TIP3    H219267   0.240   2.807   4.271
 6421TIP3   OH219268   2.414   1.478   0.482
 6421TIP3    H119269   2.441   1.531   0.557
 6421TIP3    H219270   2.492   1.427   0.459
 6422TIP3   OH219271   1.362   4.122   1.964
 6422TIP3    H119272   1.421   4.177   2.016
 6422TIP3    H219273   1.348   4.172   1.884
 6423TIP3   OH219274   1.437   0.845   2.025
 6423TIP3    H119275   1.470   0.771   2.076
 6423TIP3    H219276   1.354   0.868   2.066
 6424TIP3   OH219277   1.445   3.604   2.364
 6424TIP3    H119278   1.384   3.568   2.299
 6424TIP3    H219279   1.392   3.668   2.413
 6425TIP3   OH219280   4.618   4.099   3.226
 6425TIP3    H119281   4.711   4.082   3.213
 6425TIP3    H219282   4.607   4.191   3.203
 6426TIP3   OH219283   1.125   4.503   2.059
 6426TIP3    H119284   1.072   4.425   2.076
 6426TIP3    H219285   1.085   4.544   1.983
 6427TIP3   OH219286   4.137   2.149   0.530
 6427TIP3    H119287   4.188   2.229   0.547
 6427TIP3    H219288   4.068   2.177   0.470
 6428TIP3   OH219289   6.100   4.789   4.629
 6428TIP3    H119290   6.172   4.754   4.577
 6428TIP3    H219291   6.030   4.806   4.566
 6429TIP3   OH219292   5.459   4.384   1.603
 6429TIP3    H119293   5.380   4.337   1.576
 6429TIP3    H219294   5.441   4.476   1.583
 6430TIP3   OH219295   3.508   2.000   4.993
 6430TIP3    H119296   3.565   1.945   5.047
 6430TIP3    H219297   3.472   2.064   5.055
 6431TIP3   OH219298   6.050   4.811   2.916
 6431TIP3    H119299   5.995   4.865   2.859
 6431TIP3    H219300   6.036   4.847   3.004
 6432TIP3   OH219301   2.685   0.733   1.008
 6432TIP3    H119302   2.697   0.640   0.991
 6432TIP3    H219303   2.668   0.771   0.921
 6433TIP3   OH219304   5.413   4.051   1.574
 6433TIP3    H119305   5.419   3.995   1.496
 6433TIP3    H219306   5.347   4.116   1.551
 6434TIP3   OH219307   4.246   3.880   1.112
 6434TIP3    H119308   4.282   3.911   1.029
 6434TIP3    H219309   4.244   3.958   1.168
 6435TIP3   OH219310   2.357   5.521   2.094
 6435TIP3    H119311   2.298   5.479   2.031
 6435TIP3    H219312   2.362   5.459   2.167
 6436TIP3   OH219313   6.149   5.577   1.413
 6436TIP3    H119314   6.104   5.535   1.487
 6436TIP3    H219315   6.226   5.619   1.453
 6437TIP3   OH219316   4.593   4.553   2.056
 6437TIP3    H119317   4.605   4.603   1.975
 6437TIP3    H219318   4.502   4.523   2.052
 6438TIP3   OH219319   4.992   3.193   4.598
 6438TIP3    H119320   5.063   3.256   4.611
 6438TIP3    H219321   5.037   3.112   4.573
 6439TIP3   OH219322   5.260   5.509   4.216
 6439TIP3    H119323   5.217   5.592   4.236
 6439TIP3    H219324   5.216   5.478   4.136
 6440TIP3   OH219325   1.262   3.922   0.136
 6440TIP3    H119326   1.249   3.917   0.041
 6440TIP3    H219327   1.174   3.924   0.172
 6441TIP3   OH219328   1.577   5.245   2.712
 6441TIP3    H119329   1.618   5.330   2.725
 6441TIP3    H219330   1.564   5.211   2.801
 6442TIP3   OH219331   5.707   2.528   2.284
 6442TIP3    H119332   5.725   2.609   2.332
 6442TIP3    H219333   5.683   2.558   2.196
 6443TIP3   OH219334   3.033   4.973   0.432
 6443TIP3    H119335   3.002   5.016   0.513
 6443TIP3    H219336   3.023   4.880   0.449
 6444TIP3   OH219337   6.007   0.151   2.469
 6444TIP3    H119338   6.024   0.057   2.480
 6444TIP3    H219339   5.912   0.156   2.454
 6445TIP3   OH219340   0.444   4.262   3.783
 6445TIP3    H119341   0.396   4.215   3.851
 6445TIP3    H219342   0.388   4.337   3.762
 6446TIP3   OH219343   4.936   0.433   0.184
 6446TIP3    H119344   4.846   0.465   0.187
 6446TIP3    H219345   4.989   0.512   0.197
 6447TIP3   OH219346   0.056   2.992   3.648
 6447TIP3    H119347   0.116   2.918   3.650
 6447TIP3    H219348   0.112   3.070   3.648
 6448TIP3   OH219349   6.067   0.625   3.250
 6448TIP3    H119350   6.101   0.634   3.161
 6448TIP3    H219351   6.105   0.543   3.281
 6449TIP3   OH219352   1.174   3.910   2.123
 6449TIP3    H119353   1.136   3.997   2.131
 6449TIP3    H219354   1.142   3.863   2.200
 6450TIP3   OH219355   5.083   5.581   4.924
 6450TIP3    H119356   5.091   5.506   4.866
 6450TIP3    H219357   5.148   5.565   4.993
 6451TIP3   OH219358   3.113   0.683   1.048
 6451TIP3    H119359   3.194   0.641   1.075
 6451TIP3    H219360   3.051   0.612   1.033
 6452TIP3   OH219361   4.573   2.860   4.043
 6452TIP3    H119362   4.498   2.813   4.079
 6452TIP3    H219363   4.549   2.877   3.952
 6453TIP3   OH219364   3.411   1.494   1.322
 6453TIP3    H119365   3.433   1.437   1.249
 6453TIP3    H219366   3.483   1.557   1.325
 6454TIP3   OH219367   4.003   3.427   4.324
 6454TIP3    H119368   3.919   3.382   4.323
 6454TIP3    H219369   4.034   3.423   4.233
 6455TIP3   OH219370   6.047   2.062   1.302
 6455TIP3    H119371   5.959   2.029   1.285
 6455TIP3    H219372   6.046   2.089   1.393
 6456TIP3   OH219373   2.902   3.752   1.416
 6456TIP3    H119374   2.806   3.750   1.416
 6456TIP3    H219375   2.925   3.828   1.469
 6457TIP3   OH219376   4.564   5.557   3.262
 6457TIP3    H119377   4.532   5.644   3.285
 6457TIP3    H219378   4.614   5.570   3.181
 6458TIP3   OH219379   4.844   4.354   1.878
 6458TIP3    H119380   4.872   4.343   1.787
 6458TIP3    H219381   4.805   4.269   1.901
 6459TIP3   OH219382   3.480   1.062   0.936
 6459TIP3    H119383   3.465   1.034   0.845
 6459TIP3    H219384   3.576   1.061   0.945
 6460TIP3   OH219385   1.560   4.043   4.559
 6460TIP3    H119386   1.615   4.020   4.485
 6460TIP3    H219387   1.552   4.138   4.554
 6461TIP3   OH219388   2.929   3.353   3.316
 6461TIP3    H119389   2.878   3.392   3.245
 6461TIP3    H219390   3.007   3.408   3.324
 6462TIP3   OH219391   2.865   5.060   0.625
 6462TIP3    H119392   2.804   5.043   0.553
 6462TIP3    H219393   2.823   5.129   0.676
 6463TIP3   OH219394   0.830   1.072   0.361
 6463TIP3    H119395   0.889   1.141   0.331
 6463TIP3    H219396   0.873   0.991   0.335
 6464TIP3   OH219397   6.033   2.121   2.424
 6464TIP3    H119398   6.068   2.032   2.421
 6464TIP3    H219399   5.969   2.124   2.353
 6465TIP3   OH219400   2.380   0.279   3.520
 6465TIP3    H119401   2.334   0.213   3.571
 6465TIP3    H219402   2.468   0.243   3.509
 6466TIP3   OH219403   5.797   0.544   1.840
 6466TIP3    H119404   5.709   0.582   1.849
 6466TIP3    H219405   5.853   0.599   1.895
 6467TIP3   OH219406   2.743   5.056   3.983
 6467TIP3    H119407   2.742   5.013   3.898
 6467TIP3    H219408   2.826   5.029   4.023
 6468TIP3   OH219409   1.711   0.042   0.225
 6468TIP3    H119410   1.669   0.003   0.148
 6468TIP3    H219411   1.673  -0.005   0.299
 6469TIP3   OH219412   5.315   5.866   4.982
 6469TIP3    H119413   5.355   5.781   4.968
 6469TIP3    H219414   5.268   5.884   4.900
 6470TIP3   OH219415   3.134   5.231   0.732
 6470TIP3    H119416   3.042   5.206   0.722
 6470TIP3    H219417   3.181   5.170   0.675
 6471TIP3   OH219418   2.828   2.151   4.235
 6471TIP3    H119419   2.805   2.107   4.316
 6471TIP3    H219420   2.895   2.095   4.195
 6472TIP3   OH219421   3.328   4.039   3.156
 6472TIP3    H119422   3.310   4.053   3.063
 6472TIP3    H219423   3.387   4.110   3.180
 6473TIP3   OH219424   4.298   3.406   3.205
 6473TIP3    H119425   4.236   3.439   3.269
 6473TIP3    H219426   4.384   3.435   3.236
 6474TIP3   OH219427   4.493   0.043   2.791
 6474TIP3    H119428   4.441  -0.002   2.857
 6474TIP3    H219429   4.514   0.128   2.831
 6475TIP3   OH219430   4.059   5.119   1.974
 6475TIP3    H119431   4.018   5.033   1.972
 6475TIP3    H219432   4.144   5.107   1.933
 6476TIP3   OH219433   5.614   2.446   4.518
 6476TIP3    H119434   5.672   2.373   4.500
 6476TIP3    H219435   5.666   2.506   4.572
 6477TIP3   OH219436   5.723   1.139   4.475
 6477TIP3    H119437   5.694   1.061   4.523
 6477TIP3    H219438   5.646   1.196   4.473
 6478TIP3   OH219439   3.388   2.219   1.789
 6478TIP3    H119440   3.318   2.283   1.805
 6478TIP3    H219441   3.415   2.234   1.699
 6479TIP3   OH219442   3.771   5.167   1.630
 6479TIP3    H119443   3.785   5.200   1.719
 6479TIP3    H219444   3.857   5.136   1.603
 6480TIP3   OH219445   0.066   4.930   3.576
 6480TIP3    H119446   0.144   4.915   3.630
 6480TIP3    H219447   0.036   4.842   3.553
 6481TIP3   OH219448   0.183   1.650   2.399
 6481TIP3    H119449   0.144   1.624   2.482
 6481TIP3    H219450   0.178   1.745   2.398
 6482TIP3   OH219451   3.291   0.925   2.068
 6482TIP3    H119452   3.269   0.999   2.012
 6482TIP3    H219453   3.384   0.911   2.056
 6483TIP3   OH219454   3.892   1.490   1.835
 6483TIP3    H119455   3.954   1.418   1.819
 6483TIP3    H219456   3.810   1.460   1.797
 6484TIP3   OH219457   0.258   0.807   4.516
 6484TIP3    H119458   0.314   0.809   4.593
 6484TIP3    H219459   0.265   0.896   4.479
 6485TIP3   OH219460   1.712   5.110   0.969
 6485TIP3    H119461   1.778   5.112   0.900
 6485TIP3    H219462   1.718   5.196   1.011
 6486TIP3   OH219463   4.675   5.925   5.104
 6486TIP3    H119464   4.583   5.902   5.098
 6486TIP3    H219465   4.681   5.980   5.182
 6487TIP3   OH219466   2.499   3.499   2.996
 6487TIP3    H119467   2.454   3.567   2.946
 6487TIP3    H219468   2.567   3.546   3.044
 6488TIP3   OH219469   1.258   0.431   4.746
 6488TIP3    H119470   1.256   0.422   4.841
 6488TIP3    H219471   1.292   0.519   4.731
 6489TIP3   OH219472   5.691   5.960   1.515
 6489TIP3    H119473   5.760   5.896   1.535
 6489TIP3    H219474   5.729   6.016   1.448
 6490TIP3   OH219475   4.952   0.614   5.137
 6490TIP3    H119476   4.882   0.649   5.192
 6490TIP3    H219477   5.023   0.595   5.198
 6491TIP3   OH219478   4.126   1.172   1.278
 6491TIP3    H119479   4.173   1.107   1.331
 6491TIP3    H219480   4.120   1.133   1.191
 6492TIP3   OH219481   2.099   1.405   4.696
 6492TIP3    H119482   2.140   1.370   4.617
 6492TIP3    H219483   2.031   1.465   4.663
 6493TIP3   OH219484   5.546   0.860   1.417
 6493TIP3    H119485   5.522   0.842   1.507
 6493TIP3    H219486   5.518   0.951   1.403
 6494TIP3   OH219487   3.076   0.729   0.570
 6494TIP3    H119488   3.127   0.806   0.594
 6494TIP3    H219489   2.985   0.755   0.585
 6495TIP3   OH219490   2.716   1.943   4.507
 6495TIP3    H119491   2.716   1.905   4.419
 6495TIP3    H219492   2.744   1.872   4.564
 6496TIP3   OH219493   4.277   5.306   1.010
 6496TIP3    H119494   4.320   5.230   1.050
 6496TIP3    H219495   4.271   5.282   0.917
 6497TIP3   OH219496   4.907   3.967   3.132
 6497TIP3    H119497   4.852   3.922   3.197
 6497TIP3    H219498   4.952   4.035   3.182
 6498TIP3   OH219499   2.357   2.039   5.009
 6498TIP3    H119500   2.323   2.084   4.931
 6498TIP3    H219501   2.450   2.025   4.990
 6499TIP3   OH219502   4.479   4.792   3.601
 6499TIP3    H119503   4.509   4.731   3.669
 6499TIP3    H219504   4.451   4.870   3.649
 6500TIP3   OH219505   5.942   3.381   3.968
 6500TIP3    H119506   5.851   3.402   3.946
 6500TIP3    H219507   5.968   3.316   3.902
 6501TIP3   OH219508   1.204   5.772   2.495
 6501TIP3    H119509   1.122   5.723   2.506
 6501TIP3    H219510   1.268   5.725   2.549
 6502TIP3   OH219511   1.092   3.549   2.356
 6502TIP3    H119512   1.096   3.506   2.271
 6502TIP3    H219513   1.084   3.477   2.419
 6503TIP3   OH219514   6.029   5.416   3.972
 6503TIP3    H119515   5.963   5.392   4.038
 6503TIP3    H219516   6.113   5.402   4.016
 6504TIP3   OH219517   4.008   4.679   4.549
 6504TIP3    H119518   3.917   4.702   4.569
 6504TIP3    H219519   4.032   4.737   4.477
 6505TIP3   OH219520   6.336   5.238   0.326
 6505TIP3    H119521   6.319   5.319   0.278
 6505TIP3    H219522   6.252   5.216   0.368
 6506TIP3   OH219523   5.063   1.083   4.517
 6506TIP3    H119524   5.156   1.063   4.509
 6506TIP3    H219525   5.027   1.063   4.431
 6507TIP3   OH219526   0.404   4.686   3.112
 6507TIP3    H119527   0.375   4.609   3.161
 6507TIP3    H219528   0.497   4.670   3.095
 6508TIP3   OH219529   4.449   0.897   0.617
 6508TIP3    H119530   4.457   0.831   0.686
 6508TIP3    H219531   4.413   0.849   0.542
 6509TIP3   OH219532   2.568   4.304   0.361
 6509TIP3    H119533   2.508   4.285   0.434
 6509TIP3    H219534   2.512   4.302   0.283
 6510TIP3   OH219535   3.663   4.502   0.181
 6510TIP3    H119536   3.755   4.501   0.156
 6510TIP3    H219537   3.657   4.570   0.248
 6511TIP3   OH219538   5.710   1.786   3.619
 6511TIP3    H119539   5.705   1.709   3.675
 6511TIP3    H219540   5.627   1.788   3.572
 6512TIP3   OH219541   3.830   3.466   3.981
 6512TIP3    H119542   3.764   3.440   3.917
 6512TIP3    H219543   3.783   3.465   4.065
 6513TIP3   OH219544   0.897   4.261   0.242
 6513TIP3    H119545   0.830   4.274   0.308
 6513TIP3    H219546   0.851   4.272   0.159
 6514TIP3   OH219547   0.945   1.664   4.895
 6514TIP3    H119548   0.923   1.597   4.831
 6514TIP3    H219549   0.929   1.623   4.980
 6515TIP3   OH219550   2.451   3.463   0.259
 6515TIP3    H119551   2.408   3.396   0.207
 6515TIP3    H219552   2.395   3.540   0.251
 6516TIP3   OH219553   1.092   2.190   3.292
 6516TIP3    H119554   1.037   2.127   3.339
 6516TIP3    H219555   1.031   2.253   3.254
 6517TIP3   OH219556   0.146   5.299   0.948
 6517TIP3    H119557   0.217   5.308   1.012
 6517TIP3    H219558   0.130   5.205   0.944
 6518TIP3   OH219559   0.557   4.750   4.502
 6518TIP3    H119560   0.474   4.755   4.550
 6518TIP3    H219561   0.609   4.686   4.551
 6519TIP3   OH219562   3.887   1.439   0.995
 6519TIP3    H119563   3.868   1.498   1.068
 6519TIP3    H219564   3.972   1.400   1.017
 6520TIP3   OH219565   3.497   1.729   3.945
 6520TIP3    H119566   3.534   1.725   4.033
 6520TIP3    H219567   3.411   1.689   3.953
 6521TIP3   OH219568   1.617   2.663   1.639
 6521TIP3    H119569   1.688   2.698   1.585
 6521TIP3    H219570   1.598   2.577   1.601
 6522TIP3   OH219571   4.071   2.628   0.812
 6522TIP3    H119572   4.126   2.706   0.813
 6522TIP3    H219573   4.126   2.561   0.772
 6523TIP3   OH219574   1.986   1.426   2.222
 6523TIP3    H119575   2.067   1.378   2.203
 6523TIP3    H219576   1.994   1.506   2.170
 6524TIP3   OH219577   0.282   2.792   0.427
 6524TIP3    H119578   0.360   2.767   0.477
 6524TIP3    H219579   0.302   2.879   0.393
 6525TIP3   OH219580   5.585   3.524   4.013
 6525TIP3    H119581   5.638   3.480   3.947
 6525TIP3    H219582   5.505   3.549   3.967
 6526TIP3   OH219583   3.122   4.607   5.108
 6526TIP3    H119584   3.138   4.615   5.014
 6526TIP3    H219585   3.146   4.692   5.144
 6527TIP3   OH219586   2.454   3.680   2.072
 6527TIP3    H119587   2.523   3.741   2.096
 6527TIP3    H219588   2.441   3.694   1.978
 6528TIP3   OH219589   0.177   5.260   2.943
 6528TIP3    H119590   0.164   5.166   2.951
 6528TIP3    H219591   0.257   5.277   2.993
 6529TIP3   OH219592   1.382   4.399   4.358
 6529TIP3    H119593   1.446   4.358   4.418
 6529TIP3    H219594   1.297   4.364   4.387
 6530TIP3   OH219595   6.124   4.889   2.102
 6530TIP3    H119596   6.134   4.883   2.197
 6530TIP3    H219597   6.126   4.983   2.083
 6531TIP3   OH219598   2.685   1.162   4.517
 6531TIP3    H119599   2.629   1.204   4.583
 6531TIP3    H219600   2.638   1.082   4.493
 6532TIP3   OH219601   1.639   4.877   4.261
 6532TIP3    H119602   1.584   4.952   4.240
 6532TIP3    H219603   1.602   4.841   4.342
 6533TIP3   OH219604   2.158   1.265   1.784
 6533TIP3    H119605   2.249   1.294   1.787
 6533TIP3    H219606   2.140   1.231   1.872
 6534TIP3   OH219607   0.175   4.765   2.993
 6534TIP3    H119608   0.251   4.744   3.046
 6534TIP3    H219609   0.119   4.817   3.051
 6535TIP3   OH219610   3.203   5.897   2.744
 6535TIP3    H119611   3.135   5.872   2.681
 6535TIP3    H219612   3.156   5.946   2.811
 6536TIP3   OH219613   5.471   5.208   3.948
 6536TIP3    H119614   5.426   5.175   4.026
 6536TIP3    H219615   5.449   5.301   3.945
 6537TIP3   OH219616   2.024   0.828   1.773
 6537TIP3    H119617   1.997   0.737   1.776
 6537TIP3    H219618   2.020   0.858   1.864
 6538TIP3   OH219619   4.868   0.505   3.288
 6538TIP3    H119620   4.861   0.573   3.354
 6538TIP3    H219621   4.821   0.430   3.324
 6539TIP3   OH219622   0.857   3.782   2.753
 6539TIP3    H119623   0.920   3.720   2.714
 6539TIP3    H219624   0.792   3.726   2.796
 6540TIP3   OH219625   4.021   5.087   0.683
 6540TIP3    H119626   3.996   5.143   0.756
 6540TIP3    H219627   4.097   5.038   0.715
 6541TIP3   OH219628   2.643   0.464   3.062
 6541TIP3    H119629   2.577   0.525   3.029
 6541TIP3    H219630   2.593   0.388   3.093
 6542TIP3   OH219631   2.580   0.887   3.863
 6542TIP3    H119632   2.662   0.906   3.909
 6542TIP3    H219633   2.578   0.792   3.855
 6543TIP3   OH219634   2.522   1.285   1.476
 6543TIP3    H119635   2.602   1.266   1.428
 6543TIP3    H219636   2.486   1.199   1.498
 6544TIP3   OH219637   1.295   2.031   3.156
 6544TIP3    H119638   1.211   2.065   3.185
 6544TIP3    H219639   1.320   2.086   3.082
 6545TIP3   OH219640   4.906   0.630   1.876
 6545TIP3    H119641   4.973   0.689   1.842
 6545TIP3    H219642   4.839   0.687   1.912
 6546TIP3   OH219643   0.789   1.950   4.129
 6546TIP3    H119644   0.787   2.045   4.138
 6546TIP3    H219645   0.700   1.927   4.101
 6547TIP3   OH219646   2.578   1.161   0.611
 6547TIP3    H119647   2.526   1.150   0.692
 6547TIP3    H219648   2.537   1.101   0.549
 6548TIP3   OH219649   4.964   5.505   2.922
 6548TIP3    H119650   5.017   5.529   2.846
 6548TIP3    H219651   4.888   5.461   2.885
 6549TIP3   OH219652   6.061   1.365   1.267
 6549TIP3    H119653   5.998   1.307   1.309
 6549TIP3    H219654   6.146   1.339   1.302
 6550TIP3   OH219655   2.946   4.581   2.628
 6550TIP3    H119656   2.892   4.514   2.586
 6550TIP3    H219657   2.962   4.645   2.559
 6551TIP3   OH219658   4.108   3.034   0.152
 6551TIP3    H119659   4.136   3.097   0.086
 6551TIP3    H219660   4.185   2.979   0.167
 6552TIP3   OH219661   5.396   5.296   2.860
 6552TIP3    H119662   5.410   5.325   2.950
 6552TIP3    H219663   5.364   5.373   2.815
 6553TIP3   OH219664   5.576   2.535   0.356
 6553TIP3    H119665   5.594   2.592   0.281
 6553TIP3    H219666   5.487   2.557   0.383
 6554TIP3   OH219667   0.046   2.339   5.037
 6554TIP3    H119668   0.013   2.418   4.993
 6554TIP3    H219669   0.086   2.371   5.118
 6555TIP3   OH219670   0.172   5.612   1.325
 6555TIP3    H119671   0.145   5.526   1.294
 6555TIP3    H219672   0.140   5.616   1.415
 6556TIP3   OH219673   1.144   2.381   4.008
 6556TIP3    H119674   1.219   2.372   4.066
 6556TIP3    H219675   1.096   2.457   4.043
 6557TIP3   OH219676   2.922   2.797   2.002
 6557TIP3    H119677   2.929   2.731   2.070
 6557TIP3    H219678   2.990   2.774   1.939
 6558TIP3   OH219679   0.891   4.077   4.121
 6558TIP3    H119680   0.956   4.009   4.105
 6558TIP3    H219681   0.943   4.157   4.131
 6559TIP3   OH219682   5.643   5.452   4.491
 6559TIP3    H119683   5.638   5.514   4.564
 6559TIP3    H219684   5.610   5.502   4.415
 6560TIP3   OH219685   3.527   4.800   2.528
 6560TIP3    H119686   3.460   4.855   2.487
 6560TIP3    H219687   3.548   4.844   2.610
 6561TIP3   OH219688   3.049   4.352   5.179
 6561TIP3    H119689   2.964   4.312   5.197
 6561TIP3    H219690   3.028   4.432   5.131
 6562TIP3   OH219691   3.939   0.553   1.450
 6562TIP3    H119692   3.894   0.530   1.531
 6562TIP3    H219693   3.928   0.647   1.442
 6563TIP3   OH219694   6.080   1.498   2.603
 6563TIP3    H119695   6.035   1.428   2.555
 6563TIP3    H219696   6.166   1.504   2.561
 6564TIP3   OH219697   1.583   3.312   5.190
 6564TIP3    H119698   1.603   3.282   5.102
 6564TIP3    H219699   1.488   3.320   5.192
 6565TIP3   OH219700   5.265   5.336   3.569
 6565TIP3    H119701   5.322   5.379   3.632
 6565TIP3    H219702   5.220   5.408   3.525
 6566TIP3   OH219703   1.504   4.686   4.761
 6566TIP3    H119704   1.419   4.642   4.756
 6566TIP3    H219705   1.505   4.726   4.848
 6567TIP3   OH219706   0.874   0.511   3.191
 6567TIP3    H119707   0.824   0.467   3.122
 6567TIP3    H219708   0.819   0.585   3.216
 6568TIP3   OH219709   5.703   2.750   5.053
 6568TIP3    H119710   5.784   2.799   5.064
 6568TIP3    H219711   5.729   2.658   5.059
 6569TIP3   OH219712   4.263   4.493   3.666
 6569TIP3    H119713   4.263   4.413   3.613
 6569TIP3    H219714   4.338   4.484   3.724
 6570TIP3   OH219715   5.761   0.213   5.105
 6570TIP3    H119716   5.816   0.288   5.130
 6570TIP3    H219717   5.696   0.206   5.175
 6571TIP3   OH219718   4.445   1.083   3.227
 6571TIP3    H119719   4.523   1.051   3.180
 6571TIP3    H219720   4.371   1.043   3.181
 6572TIP3   OH219721   4.393   3.449   1.537
 6572TIP3    H119722   4.478   3.430   1.497
 6572TIP3    H219723   4.401   3.539   1.570
 6573TIP3   OH219724   0.851   4.431   1.331
 6573TIP3    H119725   0.832   4.451   1.240
 6573TIP3    H219726   0.819   4.342   1.344
 6574TIP3   OH219727   3.734   3.633   2.422
 6574TIP3    H119728   3.789   3.560   2.451
 6574TIP3    H219729   3.646   3.611   2.454
 6575TIP3   OH219730   4.499   3.754   4.720
 6575TIP3    H119731   4.438   3.687   4.690
 6575TIP3    H219732   4.485   3.759   4.815
 6576TIP3   OH219733   2.822   0.846   4.965
 6576TIP3    H119734   2.849   0.933   4.992
 6576TIP3    H219735   2.795   0.803   5.046
 6577TIP3   OH219736   3.033   5.235   0.304
 6577TIP3    H119737   3.124   5.234   0.274
 6577TIP3    H219738   3.018   5.147   0.338
 6578TIP3   OH219739   4.005   1.540   2.266
 6578TIP3    H119740   3.928   1.558   2.212
 6578TIP3    H219741   4.048   1.625   2.276
 6579TIP3   OH219742   2.299   5.258   0.551
 6579TIP3    H119743   2.375   5.203   0.569
 6579TIP3    H219744   2.295   5.318   0.625
 6580TIP3   OH219745   4.903   3.732   0.319
 6580TIP3    H119746   4.878   3.768   0.404
 6580TIP3    H219747   4.956   3.801   0.278
 6581TIP3   OH219748   4.492   2.913   5.135
 6581TIP3    H119749   4.426   2.847   5.113
 6581TIP3    H219750   4.567   2.862   5.166
 6582TIP3   OH219751   1.616   5.545   0.123
 6582TIP3    H119752   1.566   5.604   0.179
 6582TIP3    H219753   1.580   5.558   0.035
 6583TIP3   OH219754   5.976   4.282   4.150
 6583TIP3    H119755   6.021   4.334   4.083
 6583TIP3    H219756   6.000   4.323   4.233
 6584TIP3   OH219757   4.960   0.779   4.419
 6584TIP3    H119758   4.962   0.862   4.370
 6584TIP3    H219759   5.040   0.782   4.472
 6585TIP3   OH219760   4.805   4.035   1.429
 6585TIP3    H119761   4.823   3.943   1.448
 6585TIP3    H219762   4.822   4.080   1.512
 6586TIP3   OH219763   2.007   2.064   1.891
 6586TIP3    H119764   2.071   2.125   1.928
 6586TIP3    H219765   1.973   2.016   1.967
 6587TIP3   OH219766   3.876   2.731   4.544
 6587TIP3    H119767   3.902   2.784   4.619
 6587TIP3    H219768   3.935   2.758   4.474
 6588TIP3   OH219769   5.085   0.625   0.314
 6588TIP3    H119770   5.170   0.589   0.339
 6588TIP3    H219771   5.096   0.720   0.316
 6589TIP3   OH219772   2.570   4.219   1.476
 6589TIP3    H119773   2.576   4.297   1.420
 6589TIP3    H219774   2.658   4.212   1.515
 6590TIP3   OH219775   4.267   3.323   2.159
 6590TIP3    H119776   4.244   3.239   2.119
 6590TIP3    H219777   4.232   3.318   2.247
 6591TIP3   OH219778   0.396   1.687   1.167
 6591TIP3    H119779   0.378   1.619   1.232
 6591TIP3    H219780   0.456   1.646   1.105
 6592TIP3   OH219781   2.723   1.686   3.857
 6592TIP3    H119782   2.645   1.723   3.815
 6592TIP3    H219783   2.690   1.610   3.906
 6593TIP3   OH219784   1.603   1.998   4.174
 6593TIP3    H119785   1.696   2.019   4.171
 6593TIP3    H219786   1.580   1.977   4.084
 6594TIP3   OH219787   3.183   2.905   2.394
 6594TIP3    H119788   3.224   2.821   2.414
 6594TIP3    H219789   3.151   2.937   2.479
 6595TIP3   OH219790   1.685   1.011   4.049
 6595TIP3    H119791   1.634   1.028   3.970
 6595TIP3    H219792   1.734   1.092   4.064
 6596TIP3   OH219793   6.317   5.496   1.884
 6596TIP3    H119794   6.370   5.418   1.903
 6596TIP3    H219795   6.237   5.484   1.935
 6597TIP3   OH219796   1.472   0.358   1.130
 6597TIP3    H119797   1.492   0.402   1.213
 6597TIP3    H219798   1.456   0.430   1.069
 6598TIP3   OH219799   5.652   3.481   0.252
 6598TIP3    H119800   5.609   3.432   0.321
 6598TIP3    H219801   5.653   3.572   0.284
 6599TIP3   OH219802   4.039   5.112   1.545
 6599TIP3    H119803   4.089   5.051   1.599
 6599TIP3    H219804   4.073   5.199   1.569
 6600TIP3   OH219805   1.223   1.959   1.639
 6600TIP3    H119806   1.210   2.048   1.673
 6600TIP3    H219807   1.156   1.906   1.684
 6601TIP3   OH219808   2.733   5.025   0.374
 6601TIP3    H119809   2.726   5.118   0.352
 6601TIP3    H219810   2.679   4.981   0.309
 6602TIP3   OH219811   1.181   5.362   1.454
 6602TIP3    H119812   1.114   5.296   1.433
 6602TIP3    H219813   1.238   5.319   1.517
 6603TIP3   OH219814   4.008   4.960   5.127
 6603TIP3    H119815   3.918   4.983   5.151
 6603TIP3    H219816   4.058   5.040   5.141
 6604TIP3   OH219817   0.389   5.092   3.629
 6604TIP3    H119818   0.392   5.084   3.534
 6604TIP3    H219819   0.347   5.011   3.659
 6605TIP3   OH219820   0.764   1.970   4.589
 6605TIP3    H119821   0.742   2.061   4.570
 6605TIP3    H219822   0.679   1.927   4.601
 6606TIP3   OH219823   0.850   0.935   1.226
 6606TIP3    H119824   0.856   0.954   1.132
 6606TIP3    H219825   0.940   0.915   1.251
 6607TIP3   OH219826   4.626   2.247   5.129
 6607TIP3    H119827   4.533   2.223   5.126
 6607TIP3    H219828   4.671   2.169   5.095
 6608TIP3   OH219829   4.696   0.320   3.416
 6608TIP3    H119830   4.618   0.376   3.422
 6608TIP3    H219831   4.689   0.263   3.492
 6609TIP3   OH219832   3.247   3.049   3.908
 6609TIP3    H119833   3.333   3.090   3.916
 6609TIP3    H219834   3.199   3.078   3.985
 6610TIP3   OH219835   6.135   1.497   4.993
 6610TIP3    H119836   6.113   1.405   5.004
 6610TIP3    H219837   6.202   1.498   4.925
 6611TIP3   OH219838   3.097   1.739   4.665
 6611TIP3    H119839   3.093   1.810   4.728
 6611TIP3    H219840   3.031   1.676   4.694
 6612TIP3   OH219841   0.436   0.439   5.025
 6612TIP3    H119842   0.399   0.359   4.989
 6612TIP3    H219843   0.530   0.432   5.008
 6613TIP3   OH219844   5.913   1.325   2.415
 6613TIP3    H119845   5.833   1.334   2.362
 6613TIP3    H219846   5.984   1.339   2.353
 6614TIP3   OH219847   0.709   2.026   2.325
 6614TIP3    H119848   0.657   1.946   2.320
 6614TIP3    H219849   0.798   1.995   2.345
 6615TIP3   OH219850   6.024   4.167   4.767
 6615TIP3    H119851   6.098   4.108   4.765
 6615TIP3    H219852   5.977   4.143   4.847
 6616TIP3   OH219853   5.705   2.402   3.530
 6616TIP3    H119854   5.686   2.310   3.514
 6616TIP3    H219855   5.633   2.432   3.586
 6617TIP3   OH219856   5.949   5.525   1.258
 6617TIP3    H119857   5.920   5.607   1.219
 6617TIP3    H219858   6.036   5.545   1.293
 6618TIP3   OH219859   5.249   5.903   4.270
 6618TIP3    H119860   5.233   5.941   4.183
 6618TIP3    H219861   5.344   5.899   4.277
 6619TIP3   OH219862   0.546   4.596   0.198
 6619TIP3    H119863   0.558   4.691   0.186
 6619TIP3    H219864   0.584   4.578   0.284
 6620TIP3   OH219865   2.124   0.407   2.128
 6620TIP3    H119866   2.168   0.362   2.056
 6620TIP3    H219867   2.180   0.483   2.146
 6621TIP3   OH219868   3.811   4.518   2.491
 6621TIP3    H119869   3.838   4.432   2.524
 6621TIP3    H219870   3.729   4.501   2.445
 6622TIP3   OH219871   2.738   4.656   2.411
 6622TIP3    H119872   2.827   4.688   2.399
 6622TIP3    H219873   2.746   4.561   2.416
 6623TIP3   OH219874   5.523   4.377   2.647
 6623TIP3    H119875   5.591   4.345   2.588
 6623TIP3    H219876   5.556   4.460   2.680
 6624TIP3   OH219877   4.204   5.966   4.648
 6624TIP3    H119878   4.160   6.047   4.623
 6624TIP3    H219879   4.290   5.972   4.605
 6625TIP3   OH219880   5.338   0.686   0.725
 6625TIP3    H119881   5.339   0.731   0.810
 6625TIP3    H219882   5.250   0.701   0.690
 6626TIP3   OH219883   2.333   5.832   0.524
 6626TIP3    H119884   2.322   5.910   0.470
 6626TIP3    H219885   2.423   5.802   0.505
 6627TIP3   OH219886   1.337   2.062   0.063
 6627TIP3    H119887   1.343   2.153   0.034
 6627TIP3    H219888   1.377   2.062   0.150
 6628TIP3   OH219889   5.715   2.993   2.148
 6628TIP3    H119890   5.752   2.909   2.122
 6628TIP3    H219891   5.621   2.984   2.131
 6629TIP3   OH219892   0.307   5.352   3.716
 6629TIP3    H119893   0.332   5.278   3.660
 6629TIP3    H219894   0.385   5.370   3.768
 6630TIP3   OH219895   2.499   4.540   0.965
 6630TIP3    H119896   2.558   4.604   1.003
 6630TIP3    H219897   2.446   4.590   0.903
 6631TIP3   OH219898   5.858   0.220   4.066
 6631TIP3    H119899   5.772   0.185   4.046
 6631TIP3    H219900   5.919   0.151   4.041
 6632TIP3   OH219901   2.632   3.560   0.703
 6632TIP3    H119902   2.706   3.586   0.758
 6632TIP3    H219903   2.662   3.481   0.659
 6633TIP3   OH219904   0.572   3.756   5.215
 6633TIP3    H119905   0.620   3.839   5.209
 6633TIP3    H219906   0.504   3.763   5.148
 6634TIP3   OH219907   5.923   0.834   2.398
 6634TIP3    H119908   5.891   0.776   2.329
 6634TIP3    H219909   5.944   0.776   2.471
 6635TIP3   OH219910   1.132   0.065   4.476
 6635TIP3    H119911   1.067   0.131   4.499
 6635TIP3    H219912   1.083  -0.017   4.475
 6636TIP3   OH219913   3.482   4.628   3.060
 6636TIP3    H119914   3.482   4.622   2.964
 6636TIP3    H219915   3.461   4.720   3.078
 6637TIP3   OH219916   4.460   3.014   1.047
 6637TIP3    H119917   4.496   3.101   1.062
 6637TIP3    H219918   4.392   3.026   0.981
 6638TIP3   OH219919   2.726   5.520   4.207
 6638TIP3    H119920   2.707   5.462   4.133
 6638TIP3    H219921   2.792   5.473   4.258
 6639TIP3   OH219922   0.441   5.439   1.588
 6639TIP3    H119923   0.432   5.520   1.539
 6639TIP3    H219924   0.536   5.425   1.595
 6640TIP3   OH219925   5.752   1.183   2.908
 6640TIP3    H119926   5.827   1.207   2.962
 6640TIP3    H219927   5.780   1.200   2.818
 6641TIP3   OH219928   5.528   2.129   0.552
 6641TIP3    H119929   5.540   2.034   0.546
 6641TIP3    H219930   5.598   2.165   0.498
 6642TIP3   OH219931   1.141   5.140   4.751
 6642TIP3    H119932   1.125   5.051   4.783
 6642TIP3    H219933   1.163   5.128   4.658
 6643TIP3   OH219934   3.770   1.002   2.055
 6643TIP3    H119935   3.838   0.965   2.111
 6643TIP3    H219936   3.768   1.095   2.079
 6644TIP3   OH219937   5.726   2.619   4.068
 6644TIP3    H119938   5.671   2.546   4.039
 6644TIP3    H219939   5.725   2.681   3.995
 6645TIP3   OH219940   2.165   2.091   3.945
 6645TIP3    H119941   2.257   2.118   3.949
 6645TIP3    H219942   2.159   2.018   4.007
   6.36239   5.99851   5.19487   0.00000   0.00000  -2.12080   0.00000  -2.12080  -2.99926
