;;
;; Generated by CHARMM-GUI FF-Converter
;;
;; Correspondance:
;; jul316@lehigh.edu or wonpil@lehigh.edu
;;
;; GROMACS topology file for PROA
;;


[ moleculetype ]
; name	nrexcl
PROA	     3

[ atoms ]
; nr	type	resnr	residu	atom	cgnr	charge	mass
     1        NH3      1      GLY      N      1    -0.300000    14.0070   ; qtot -0.300
     2         HC      1      GLY    HT1      2     0.330000     1.0080   ; qtot  0.030
     3         HC      1      GLY    HT2      3     0.330000     1.0080   ; qtot  0.360
     4         HC      1      GLY    HT3      4     0.330000     1.0080   ; qtot  0.690
     5        CT2      1      GLY     CA      5     0.130000    12.0110   ; qtot  0.820
     6        HB2      1      GLY    HA1      6     0.090000     1.0080   ; qtot  0.910
     7        HB2      1      GLY    HA2      7     0.090000     1.0080   ; qtot  1.000
     8          C      1      GLY      C      8     0.510000    12.0110   ; qtot  1.510
     9          O      1      GLY      O      9    -0.510000    15.9994   ; qtot  1.000
    10          N      2      PRO      N     10    -0.290000    14.0070   ; qtot  0.710
    11        CP3      2      PRO     CD     11     0.000000    12.0110   ; qtot  0.710
    12        HA2      2      PRO    HD1     12     0.090000     1.0080   ; qtot  0.800
    13        HA2      2      PRO    HD2     13     0.090000     1.0080   ; qtot  0.890
    14        CP1      2      PRO     CA     14     0.020000    12.0110   ; qtot  0.910
    15        HB1      2      PRO     HA     15     0.090000     1.0080   ; qtot  1.000
    16        CP2      2      PRO     CB     16    -0.180000    12.0110   ; qtot  0.820
    17        HA2      2      PRO    HB1     17     0.090000     1.0080   ; qtot  0.910
    18        HA2      2      PRO    HB2     18     0.090000     1.0080   ; qtot  1.000
    19        CP2      2      PRO     CG     19    -0.180000    12.0110   ; qtot  0.820
    20        HA2      2      PRO    HG1     20     0.090000     1.0080   ; qtot  0.910
    21        HA2      2      PRO    HG2     21     0.090000     1.0080   ; qtot  1.000
    22          C      2      PRO      C     22     0.510000    12.0110   ; qtot  1.510
    23          O      2      PRO      O     23    -0.510000    15.9994   ; qtot  1.000
    24        NH1      3      GLY      N     24    -0.470000    14.0070   ; qtot  0.530
    25          H      3      GLY     HN     25     0.310000     1.0080   ; qtot  0.840
    26        CT2      3      GLY     CA     26    -0.020000    12.0110   ; qtot  0.820
    27        HB2      3      GLY    HA1     27     0.090000     1.0080   ; qtot  0.910
    28        HB2      3      GLY    HA2     28     0.090000     1.0080   ; qtot  1.000
    29          C      3      GLY      C     29     0.510000    12.0110   ; qtot  1.510
    30          O      3      GLY      O     30    -0.510000    15.9994   ; qtot  1.000
    31        NH1      4      ALA      N     31    -0.470000    14.0070   ; qtot  0.530
    32          H      4      ALA     HN     32     0.310000     1.0080   ; qtot  0.840
    33        CT1      4      ALA     CA     33     0.070000    12.0110   ; qtot  0.910
    34        HB1      4      ALA     HA     34     0.090000     1.0080   ; qtot  1.000
    35        CT3      4      ALA     CB     35    -0.270000    12.0110   ; qtot  0.730
    36        HA3      4      ALA    HB1     36     0.090000     1.0080   ; qtot  0.820
    37        HA3      4      ALA    HB2     37     0.090000     1.0080   ; qtot  0.910
    38        HA3      4      ALA    HB3     38     0.090000     1.0080   ; qtot  1.000
    39          C      4      ALA      C     39     0.510000    12.0110   ; qtot  1.510
    40          O      4      ALA      O     40    -0.510000    15.9994   ; qtot  1.000
    41          N      5      PRO      N     41    -0.290000    14.0070   ; qtot  0.710
    42        CP3      5      PRO     CD     42     0.000000    12.0110   ; qtot  0.710
    43        HA2      5      PRO    HD1     43     0.090000     1.0080   ; qtot  0.800
    44        HA2      5      PRO    HD2     44     0.090000     1.0080   ; qtot  0.890
    45        CP1      5      PRO     CA     45     0.020000    12.0110   ; qtot  0.910
    46        HB1      5      PRO     HA     46     0.090000     1.0080   ; qtot  1.000
    47        CP2      5      PRO     CB     47    -0.180000    12.0110   ; qtot  0.820
    48        HA2      5      PRO    HB1     48     0.090000     1.0080   ; qtot  0.910
    49        HA2      5      PRO    HB2     49     0.090000     1.0080   ; qtot  1.000
    50        CP2      5      PRO     CG     50    -0.180000    12.0110   ; qtot  0.820
    51        HA2      5      PRO    HG1     51     0.090000     1.0080   ; qtot  0.910
    52        HA2      5      PRO    HG2     52     0.090000     1.0080   ; qtot  1.000
    53          C      5      PRO      C     53     0.510000    12.0110   ; qtot  1.510
    54          O      5      PRO      O     54    -0.510000    15.9994   ; qtot  1.000
    55        NH1      6      GLY      N     55    -0.470000    14.0070   ; qtot  0.530
    56          H      6      GLY     HN     56     0.310000     1.0080   ; qtot  0.840
    57        CT2      6      GLY     CA     57    -0.020000    12.0110   ; qtot  0.820
    58        HB2      6      GLY    HA1     58     0.090000     1.0080   ; qtot  0.910
    59        HB2      6      GLY    HA2     59     0.090000     1.0080   ; qtot  1.000
    60          C      6      GLY      C     60     0.510000    12.0110   ; qtot  1.510
    61          O      6      GLY      O     61    -0.510000    15.9994   ; qtot  1.000
    62          N      7      PRO      N     62    -0.290000    14.0070   ; qtot  0.710
    63        CP3      7      PRO     CD     63     0.000000    12.0110   ; qtot  0.710
    64        HA2      7      PRO    HD1     64     0.090000     1.0080   ; qtot  0.800
    65        HA2      7      PRO    HD2     65     0.090000     1.0080   ; qtot  0.890
    66        CP1      7      PRO     CA     66     0.020000    12.0110   ; qtot  0.910
    67        HB1      7      PRO     HA     67     0.090000     1.0080   ; qtot  1.000
    68        CP2      7      PRO     CB     68    -0.180000    12.0110   ; qtot  0.820
    69        HA2      7      PRO    HB1     69     0.090000     1.0080   ; qtot  0.910
    70        HA2      7      PRO    HB2     70     0.090000     1.0080   ; qtot  1.000
    71        CP2      7      PRO     CG     71    -0.180000    12.0110   ; qtot  0.820
    72        HA2      7      PRO    HG1     72     0.090000     1.0080   ; qtot  0.910
    73        HA2      7      PRO    HG2     73     0.090000     1.0080   ; qtot  1.000
    74          C      7      PRO      C     74     0.510000    12.0110   ; qtot  1.510
    75          O      7      PRO      O     75    -0.510000    15.9994   ; qtot  1.000
    76        NH1      8      GLY      N     76    -0.470000    14.0070   ; qtot  0.530
    77          H      8      GLY     HN     77     0.310000     1.0080   ; qtot  0.840
    78        CT2      8      GLY     CA     78    -0.020000    12.0110   ; qtot  0.820
    79        HB2      8      GLY    HA1     79     0.090000     1.0080   ; qtot  0.910
    80        HB2      8      GLY    HA2     80     0.090000     1.0080   ; qtot  1.000
    81          C      8      GLY      C     81     0.510000    12.0110   ; qtot  1.510
    82          O      8      GLY      O     82    -0.510000    15.9994   ; qtot  1.000
    83        NH1      9      ALA      N     83    -0.470000    14.0070   ; qtot  0.530
    84          H      9      ALA     HN     84     0.310000     1.0080   ; qtot  0.840
    85        CT1      9      ALA     CA     85     0.070000    12.0110   ; qtot  0.910
    86        HB1      9      ALA     HA     86     0.090000     1.0080   ; qtot  1.000
    87        CT3      9      ALA     CB     87    -0.270000    12.0110   ; qtot  0.730
    88        HA3      9      ALA    HB1     88     0.090000     1.0080   ; qtot  0.820
    89        HA3      9      ALA    HB2     89     0.090000     1.0080   ; qtot  0.910
    90        HA3      9      ALA    HB3     90     0.090000     1.0080   ; qtot  1.000
    91          C      9      ALA      C     91     0.510000    12.0110   ; qtot  1.510
    92          O      9      ALA      O     92    -0.510000    15.9994   ; qtot  1.000
    93          N     10      PRO      N     93    -0.290000    14.0070   ; qtot  0.710
    94        CP3     10      PRO     CD     94     0.000000    12.0110   ; qtot  0.710
    95        HA2     10      PRO    HD1     95     0.090000     1.0080   ; qtot  0.800
    96        HA2     10      PRO    HD2     96     0.090000     1.0080   ; qtot  0.890
    97        CP1     10      PRO     CA     97     0.020000    12.0110   ; qtot  0.910
    98        HB1     10      PRO     HA     98     0.090000     1.0080   ; qtot  1.000
    99        CP2     10      PRO     CB     99    -0.180000    12.0110   ; qtot  0.820
   100        HA2     10      PRO    HB1    100     0.090000     1.0080   ; qtot  0.910
   101        HA2     10      PRO    HB2    101     0.090000     1.0080   ; qtot  1.000
   102        CP2     10      PRO     CG    102    -0.180000    12.0110   ; qtot  0.820
   103        HA2     10      PRO    HG1    103     0.090000     1.0080   ; qtot  0.910
   104        HA2     10      PRO    HG2    104     0.090000     1.0080   ; qtot  1.000
   105          C     10      PRO      C    105     0.510000    12.0110   ; qtot  1.510
   106          O     10      PRO      O    106    -0.510000    15.9994   ; qtot  1.000
   107        NH1     11      GLY      N    107    -0.470000    14.0070   ; qtot  0.530
   108          H     11      GLY     HN    108     0.310000     1.0080   ; qtot  0.840
   109        CT2     11      GLY     CA    109    -0.020000    12.0110   ; qtot  0.820
   110        HB2     11      GLY    HA1    110     0.090000     1.0080   ; qtot  0.910
   111        HB2     11      GLY    HA2    111     0.090000     1.0080   ; qtot  1.000
   112          C     11      GLY      C    112     0.510000    12.0110   ; qtot  1.510
   113          O     11      GLY      O    113    -0.510000    15.9994   ; qtot  1.000
   114          N     12      PRO      N    114    -0.290000    14.0070   ; qtot  0.710
   115        CP3     12      PRO     CD    115     0.000000    12.0110   ; qtot  0.710
   116        HA2     12      PRO    HD1    116     0.090000     1.0080   ; qtot  0.800
   117        HA2     12      PRO    HD2    117     0.090000     1.0080   ; qtot  0.890
   118        CP1     12      PRO     CA    118     0.020000    12.0110   ; qtot  0.910
   119        HB1     12      PRO     HA    119     0.090000     1.0080   ; qtot  1.000
   120        CP2     12      PRO     CB    120    -0.180000    12.0110   ; qtot  0.820
   121        HA2     12      PRO    HB1    121     0.090000     1.0080   ; qtot  0.910
   122        HA2     12      PRO    HB2    122     0.090000     1.0080   ; qtot  1.000
   123        CP2     12      PRO     CG    123    -0.180000    12.0110   ; qtot  0.820
   124        HA2     12      PRO    HG1    124     0.090000     1.0080   ; qtot  0.910
   125        HA2     12      PRO    HG2    125     0.090000     1.0080   ; qtot  1.000
   126          C     12      PRO      C    126     0.510000    12.0110   ; qtot  1.510
   127          O     12      PRO      O    127    -0.510000    15.9994   ; qtot  1.000
   128        NH1     13      GLY      N    128    -0.470000    14.0070   ; qtot  0.530
   129          H     13      GLY     HN    129     0.310000     1.0080   ; qtot  0.840
   130        CT2     13      GLY     CA    130    -0.020000    12.0110   ; qtot  0.820
   131        HB2     13      GLY    HA1    131     0.090000     1.0080   ; qtot  0.910
   132        HB2     13      GLY    HA2    132     0.090000     1.0080   ; qtot  1.000
   133          C     13      GLY      C    133     0.510000    12.0110   ; qtot  1.510
   134          O     13      GLY      O    134    -0.510000    15.9994   ; qtot  1.000
   135        NH1     14      ALA      N    135    -0.470000    14.0070   ; qtot  0.530
   136          H     14      ALA     HN    136     0.310000     1.0080   ; qtot  0.840
   137        CT1     14      ALA     CA    137     0.070000    12.0110   ; qtot  0.910
   138        HB1     14      ALA     HA    138     0.090000     1.0080   ; qtot  1.000
   139        CT3     14      ALA     CB    139    -0.270000    12.0110   ; qtot  0.730
   140        HA3     14      ALA    HB1    140     0.090000     1.0080   ; qtot  0.820
   141        HA3     14      ALA    HB2    141     0.090000     1.0080   ; qtot  0.910
   142        HA3     14      ALA    HB3    142     0.090000     1.0080   ; qtot  1.000
   143          C     14      ALA      C    143     0.510000    12.0110   ; qtot  1.510
   144          O     14      ALA      O    144    -0.510000    15.9994   ; qtot  1.000
   145          N     15      PRO      N    145    -0.290000    14.0070   ; qtot  0.710
   146        CP3     15      PRO     CD    146     0.000000    12.0110   ; qtot  0.710
   147        HA2     15      PRO    HD1    147     0.090000     1.0080   ; qtot  0.800
   148        HA2     15      PRO    HD2    148     0.090000     1.0080   ; qtot  0.890
   149        CP1     15      PRO     CA    149     0.020000    12.0110   ; qtot  0.910
   150        HB1     15      PRO     HA    150     0.090000     1.0080   ; qtot  1.000
   151        CP2     15      PRO     CB    151    -0.180000    12.0110   ; qtot  0.820
   152        HA2     15      PRO    HB1    152     0.090000     1.0080   ; qtot  0.910
   153        HA2     15      PRO    HB2    153     0.090000     1.0080   ; qtot  1.000
   154        CP2     15      PRO     CG    154    -0.180000    12.0110   ; qtot  0.820
   155        HA2     15      PRO    HG1    155     0.090000     1.0080   ; qtot  0.910
   156        HA2     15      PRO    HG2    156     0.090000     1.0080   ; qtot  1.000
   157         CC     15      PRO      C    157     0.340000    12.0110   ; qtot  1.340
   158         OC     15      PRO    OT1    158    -0.670000    15.9994   ; qtot  0.670
   159         OC     15      PRO    OT2    159    -0.670000    15.9994   ; qtot -0.000

[ bonds ]
; ai	aj	funct	b0	Kb
    2     1     1
    3     1     1
    4     1     1
    1     5     1
    5     6     1
    5     7     1
    8     5     1
    9     8     1
    8    10     1
   10    11     1
   10    14     1
   12    11     1
   13    11     1
   19    11     1
   15    14     1
   14    16     1
   22    14     1
   17    16     1
   18    16     1
   16    19     1
   20    19     1
   21    19     1
   23    22     1
   22    24     1
   24    25     1
   24    26     1
   26    27     1
   26    28     1
   29    26     1
   30    29     1
   29    31     1
   31    32     1
   31    33     1
   33    34     1
   35    33     1
   39    33     1
   35    36     1
   35    37     1
   35    38     1
   40    39     1
   39    41     1
   41    42     1
   41    45     1
   43    42     1
   44    42     1
   50    42     1
   46    45     1
   45    47     1
   53    45     1
   48    47     1
   49    47     1
   47    50     1
   51    50     1
   52    50     1
   54    53     1
   53    55     1
   55    56     1
   55    57     1
   57    58     1
   57    59     1
   60    57     1
   61    60     1
   60    62     1
   62    63     1
   62    66     1
   64    63     1
   65    63     1
   71    63     1
   67    66     1
   66    68     1
   74    66     1
   69    68     1
   70    68     1
   68    71     1
   72    71     1
   73    71     1
   75    74     1
   74    76     1
   76    77     1
   76    78     1
   78    79     1
   78    80     1
   81    78     1
   82    81     1
   81    83     1
   83    84     1
   83    85     1
   85    86     1
   87    85     1
   91    85     1
   87    88     1
   87    89     1
   87    90     1
   92    91     1
   91    93     1
   93    94     1
   93    97     1
   95    94     1
   96    94     1
  102    94     1
   98    97     1
   97    99     1
  105    97     1
  100    99     1
  101    99     1
   99   102     1
  103   102     1
  104   102     1
  106   105     1
  105   107     1
  107   108     1
  107   109     1
  109   110     1
  109   111     1
  112   109     1
  113   112     1
  112   114     1
  114   115     1
  114   118     1
  116   115     1
  117   115     1
  123   115     1
  119   118     1
  118   120     1
  126   118     1
  121   120     1
  122   120     1
  120   123     1
  124   123     1
  125   123     1
  127   126     1
  126   128     1
  128   129     1
  128   130     1
  130   131     1
  130   132     1
  133   130     1
  134   133     1
  133   135     1
  135   136     1
  135   137     1
  137   138     1
  139   137     1
  143   137     1
  139   140     1
  139   141     1
  139   142     1
  144   143     1
  143   145     1
  145   146     1
  145   149     1
  147   146     1
  148   146     1
  154   146     1
  150   149     1
  149   151     1
  157   149     1
  152   151     1
  153   151     1
  151   154     1
  155   154     1
  156   154     1
  157   158     1
  157   159     1

[ pairs ]
; ai	aj	funct	c6	c12 or
; ai	aj	funct	fudgeQQ	q1	q2	c6	c12
    1     9     1
    1    10     1
    2     6     1
    2     7     1
    2     8     1
    3     6     1
    3     7     1
    3     8     1
    4     6     1
    4     7     1
    4     8     1
    5    11     1
    5    14     1
    6     9     1
    6    10     1
    7     9     1
    7    10     1
    8    12     1
    8    13     1
    8    15     1
    8    16     1
    8    19     1
    8    22     1
    9    11     1
    9    14     1
   10    17     1
   10    18     1
   10    20     1
   10    21     1
   10    23     1
   10    24     1
   11    15     1
   11    17     1
   11    18     1
   11    22     1
   12    14     1
   12    16     1
   12    20     1
   12    21     1
   13    14     1
   13    16     1
   13    20     1
   13    21     1
   14    20     1
   14    21     1
   14    25     1
   14    26     1
   15    17     1
   15    18     1
   15    19     1
   15    23     1
   15    24     1
   16    23     1
   16    24     1
   17    20     1
   17    21     1
   17    22     1
   18    20     1
   18    21     1
   18    22     1
   19    22     1
   22    27     1
   22    28     1
   22    29     1
   23    25     1
   23    26     1
   24    30     1
   24    31     1
   25    27     1
   25    28     1
   25    29     1
   26    32     1
   26    33     1
   27    30     1
   27    31     1
   28    30     1
   28    31     1
   29    34     1
   29    35     1
   29    39     1
   30    32     1
   30    33     1
   31    36     1
   31    37     1
   31    38     1
   31    40     1
   31    41     1
   32    34     1
   32    35     1
   32    39     1
   33    42     1
   33    45     1
   34    36     1
   34    37     1
   34    38     1
   34    40     1
   34    41     1
   35    40     1
   35    41     1
   36    39     1
   37    39     1
   38    39     1
   39    43     1
   39    44     1
   39    46     1
   39    47     1
   39    50     1
   39    53     1
   40    42     1
   40    45     1
   41    48     1
   41    49     1
   41    51     1
   41    52     1
   41    54     1
   41    55     1
   42    46     1
   42    48     1
   42    49     1
   42    53     1
   43    45     1
   43    47     1
   43    51     1
   43    52     1
   44    45     1
   44    47     1
   44    51     1
   44    52     1
   45    51     1
   45    52     1
   45    56     1
   45    57     1
   46    48     1
   46    49     1
   46    50     1
   46    54     1
   46    55     1
   47    54     1
   47    55     1
   48    51     1
   48    52     1
   48    53     1
   49    51     1
   49    52     1
   49    53     1
   50    53     1
   53    58     1
   53    59     1
   53    60     1
   54    56     1
   54    57     1
   55    61     1
   55    62     1
   56    58     1
   56    59     1
   56    60     1
   57    63     1
   57    66     1
   58    61     1
   58    62     1
   59    61     1
   59    62     1
   60    64     1
   60    65     1
   60    67     1
   60    68     1
   60    71     1
   60    74     1
   61    63     1
   61    66     1
   62    69     1
   62    70     1
   62    72     1
   62    73     1
   62    75     1
   62    76     1
   63    67     1
   63    69     1
   63    70     1
   63    74     1
   64    66     1
   64    68     1
   64    72     1
   64    73     1
   65    66     1
   65    68     1
   65    72     1
   65    73     1
   66    72     1
   66    73     1
   66    77     1
   66    78     1
   67    69     1
   67    70     1
   67    71     1
   67    75     1
   67    76     1
   68    75     1
   68    76     1
   69    72     1
   69    73     1
   69    74     1
   70    72     1
   70    73     1
   70    74     1
   71    74     1
   74    79     1
   74    80     1
   74    81     1
   75    77     1
   75    78     1
   76    82     1
   76    83     1
   77    79     1
   77    80     1
   77    81     1
   78    84     1
   78    85     1
   79    82     1
   79    83     1
   80    82     1
   80    83     1
   81    86     1
   81    87     1
   81    91     1
   82    84     1
   82    85     1
   83    88     1
   83    89     1
   83    90     1
   83    92     1
   83    93     1
   84    86     1
   84    87     1
   84    91     1
   85    94     1
   85    97     1
   86    88     1
   86    89     1
   86    90     1
   86    92     1
   86    93     1
   87    92     1
   87    93     1
   88    91     1
   89    91     1
   90    91     1
   91    95     1
   91    96     1
   91    98     1
   91    99     1
   91   102     1
   91   105     1
   92    94     1
   92    97     1
   93   100     1
   93   101     1
   93   103     1
   93   104     1
   93   106     1
   93   107     1
   94    98     1
   94   100     1
   94   101     1
   94   105     1
   95    97     1
   95    99     1
   95   103     1
   95   104     1
   96    97     1
   96    99     1
   96   103     1
   96   104     1
   97   103     1
   97   104     1
   97   108     1
   97   109     1
   98   100     1
   98   101     1
   98   102     1
   98   106     1
   98   107     1
   99   106     1
   99   107     1
  100   103     1
  100   104     1
  100   105     1
  101   103     1
  101   104     1
  101   105     1
  102   105     1
  105   110     1
  105   111     1
  105   112     1
  106   108     1
  106   109     1
  107   113     1
  107   114     1
  108   110     1
  108   111     1
  108   112     1
  109   115     1
  109   118     1
  110   113     1
  110   114     1
  111   113     1
  111   114     1
  112   116     1
  112   117     1
  112   119     1
  112   120     1
  112   123     1
  112   126     1
  113   115     1
  113   118     1
  114   121     1
  114   122     1
  114   124     1
  114   125     1
  114   127     1
  114   128     1
  115   119     1
  115   121     1
  115   122     1
  115   126     1
  116   118     1
  116   120     1
  116   124     1
  116   125     1
  117   118     1
  117   120     1
  117   124     1
  117   125     1
  118   124     1
  118   125     1
  118   129     1
  118   130     1
  119   121     1
  119   122     1
  119   123     1
  119   127     1
  119   128     1
  120   127     1
  120   128     1
  121   124     1
  121   125     1
  121   126     1
  122   124     1
  122   125     1
  122   126     1
  123   126     1
  126   131     1
  126   132     1
  126   133     1
  127   129     1
  127   130     1
  128   134     1
  128   135     1
  129   131     1
  129   132     1
  129   133     1
  130   136     1
  130   137     1
  131   134     1
  131   135     1
  132   134     1
  132   135     1
  133   138     1
  133   139     1
  133   143     1
  134   136     1
  134   137     1
  135   140     1
  135   141     1
  135   142     1
  135   144     1
  135   145     1
  136   138     1
  136   139     1
  136   143     1
  137   146     1
  137   149     1
  138   140     1
  138   141     1
  138   142     1
  138   144     1
  138   145     1
  139   144     1
  139   145     1
  140   143     1
  141   143     1
  142   143     1
  143   147     1
  143   148     1
  143   150     1
  143   151     1
  143   154     1
  143   157     1
  144   146     1
  144   149     1
  145   152     1
  145   153     1
  145   155     1
  145   156     1
  145   158     1
  145   159     1
  146   150     1
  146   152     1
  146   153     1
  146   157     1
  147   149     1
  147   151     1
  147   155     1
  147   156     1
  148   149     1
  148   151     1
  148   155     1
  148   156     1
  149   155     1
  149   156     1
  150   152     1
  150   153     1
  150   154     1
  150   158     1
  150   159     1
  151   158     1
  151   159     1
  152   155     1
  152   156     1
  152   157     1
  153   155     1
  153   156     1
  153   157     1
  154   157     1

[ angles ] 
; ai	aj	ak	funct	th0	cth	S0	Kub
    2     1     3     5
    2     1     4     5
    2     1     5     5
    3     1     4     5
    3     1     5     5
    4     1     5     5
    1     5     6     5
    1     5     7     5
    1     5     8     5
    6     5     7     5
    6     5     8     5
    7     5     8     5
    5     8     9     5
    5     8    10     5
    9     8    10     5
    8    10    11     5
    8    10    14     5
   11    10    14     5
   10    11    12     5
   10    11    13     5
   10    11    19     5
   12    11    13     5
   12    11    19     5
   13    11    19     5
   10    14    15     5
   10    14    16     5
   10    14    22     5
   15    14    16     5
   15    14    22     5
   16    14    22     5
   14    16    17     5
   14    16    18     5
   14    16    19     5
   17    16    18     5
   17    16    19     5
   18    16    19     5
   11    19    16     5
   11    19    20     5
   11    19    21     5
   16    19    20     5
   16    19    21     5
   20    19    21     5
   14    22    23     5
   14    22    24     5
   23    22    24     5
   22    24    25     5
   22    24    26     5
   25    24    26     5
   24    26    27     5
   24    26    28     5
   24    26    29     5
   27    26    28     5
   27    26    29     5
   28    26    29     5
   26    29    30     5
   26    29    31     5
   30    29    31     5
   29    31    32     5
   29    31    33     5
   32    31    33     5
   31    33    34     5
   31    33    35     5
   31    33    39     5
   34    33    35     5
   34    33    39     5
   35    33    39     5
   33    35    36     5
   33    35    37     5
   33    35    38     5
   36    35    37     5
   36    35    38     5
   37    35    38     5
   33    39    40     5
   33    39    41     5
   40    39    41     5
   39    41    42     5
   39    41    45     5
   42    41    45     5
   41    42    43     5
   41    42    44     5
   41    42    50     5
   43    42    44     5
   43    42    50     5
   44    42    50     5
   41    45    46     5
   41    45    47     5
   41    45    53     5
   46    45    47     5
   46    45    53     5
   47    45    53     5
   45    47    48     5
   45    47    49     5
   45    47    50     5
   48    47    49     5
   48    47    50     5
   49    47    50     5
   42    50    47     5
   42    50    51     5
   42    50    52     5
   47    50    51     5
   47    50    52     5
   51    50    52     5
   45    53    54     5
   45    53    55     5
   54    53    55     5
   53    55    56     5
   53    55    57     5
   56    55    57     5
   55    57    58     5
   55    57    59     5
   55    57    60     5
   58    57    59     5
   58    57    60     5
   59    57    60     5
   57    60    61     5
   57    60    62     5
   61    60    62     5
   60    62    63     5
   60    62    66     5
   63    62    66     5
   62    63    64     5
   62    63    65     5
   62    63    71     5
   64    63    65     5
   64    63    71     5
   65    63    71     5
   62    66    67     5
   62    66    68     5
   62    66    74     5
   67    66    68     5
   67    66    74     5
   68    66    74     5
   66    68    69     5
   66    68    70     5
   66    68    71     5
   69    68    70     5
   69    68    71     5
   70    68    71     5
   63    71    68     5
   63    71    72     5
   63    71    73     5
   68    71    72     5
   68    71    73     5
   72    71    73     5
   66    74    75     5
   66    74    76     5
   75    74    76     5
   74    76    77     5
   74    76    78     5
   77    76    78     5
   76    78    79     5
   76    78    80     5
   76    78    81     5
   79    78    80     5
   79    78    81     5
   80    78    81     5
   78    81    82     5
   78    81    83     5
   82    81    83     5
   81    83    84     5
   81    83    85     5
   84    83    85     5
   83    85    86     5
   83    85    87     5
   83    85    91     5
   86    85    87     5
   86    85    91     5
   87    85    91     5
   85    87    88     5
   85    87    89     5
   85    87    90     5
   88    87    89     5
   88    87    90     5
   89    87    90     5
   85    91    92     5
   85    91    93     5
   92    91    93     5
   91    93    94     5
   91    93    97     5
   94    93    97     5
   93    94    95     5
   93    94    96     5
   93    94   102     5
   95    94    96     5
   95    94   102     5
   96    94   102     5
   93    97    98     5
   93    97    99     5
   93    97   105     5
   98    97    99     5
   98    97   105     5
   99    97   105     5
   97    99   100     5
   97    99   101     5
   97    99   102     5
  100    99   101     5
  100    99   102     5
  101    99   102     5
   94   102    99     5
   94   102   103     5
   94   102   104     5
   99   102   103     5
   99   102   104     5
  103   102   104     5
   97   105   106     5
   97   105   107     5
  106   105   107     5
  105   107   108     5
  105   107   109     5
  108   107   109     5
  107   109   110     5
  107   109   111     5
  107   109   112     5
  110   109   111     5
  110   109   112     5
  111   109   112     5
  109   112   113     5
  109   112   114     5
  113   112   114     5
  112   114   115     5
  112   114   118     5
  115   114   118     5
  114   115   116     5
  114   115   117     5
  114   115   123     5
  116   115   117     5
  116   115   123     5
  117   115   123     5
  114   118   119     5
  114   118   120     5
  114   118   126     5
  119   118   120     5
  119   118   126     5
  120   118   126     5
  118   120   121     5
  118   120   122     5
  118   120   123     5
  121   120   122     5
  121   120   123     5
  122   120   123     5
  115   123   120     5
  115   123   124     5
  115   123   125     5
  120   123   124     5
  120   123   125     5
  124   123   125     5
  118   126   127     5
  118   126   128     5
  127   126   128     5
  126   128   129     5
  126   128   130     5
  129   128   130     5
  128   130   131     5
  128   130   132     5
  128   130   133     5
  131   130   132     5
  131   130   133     5
  132   130   133     5
  130   133   134     5
  130   133   135     5
  134   133   135     5
  133   135   136     5
  133   135   137     5
  136   135   137     5
  135   137   138     5
  135   137   139     5
  135   137   143     5
  138   137   139     5
  138   137   143     5
  139   137   143     5
  137   139   140     5
  137   139   141     5
  137   139   142     5
  140   139   141     5
  140   139   142     5
  141   139   142     5
  137   143   144     5
  137   143   145     5
  144   143   145     5
  143   145   146     5
  143   145   149     5
  146   145   149     5
  145   146   147     5
  145   146   148     5
  145   146   154     5
  147   146   148     5
  147   146   154     5
  148   146   154     5
  145   149   150     5
  145   149   151     5
  145   149   157     5
  150   149   151     5
  150   149   157     5
  151   149   157     5
  149   151   152     5
  149   151   153     5
  149   151   154     5
  152   151   153     5
  152   151   154     5
  153   151   154     5
  146   154   151     5
  146   154   155     5
  146   154   156     5
  151   154   155     5
  151   154   156     5
  155   154   156     5
  149   157   158     5
  149   157   159     5
  158   157   159     5

[ dihedrals ]
; ai	aj	ak	al	funct	phi0	cp	mult
    2     1     5     6     9
    2     1     5     7     9
    2     1     5     8     9
    3     1     5     6     9
    3     1     5     7     9
    3     1     5     8     9
    4     1     5     6     9
    4     1     5     7     9
    4     1     5     8     9
    1     5     8     9     9
    1     5     8    10     9
    6     5     8     9     9
    6     5     8    10     9
    7     5     8     9     9
    7     5     8    10     9
    5     8    10    11     9
    5     8    10    14     9
    9     8    10    11     9
    9     8    10    14     9
    8    10    11    12     9
    8    10    11    13     9
    8    10    11    19     9
   14    10    11    19     9
    8    10    14    15     9
    8    10    14    16     9
    8    10    14    22     9
   11    10    14    15     9
   11    10    14    16     9
   11    10    14    22     9
   12    11    10    14     9
   13    11    10    14     9
   10    11    19    16     9
   10    11    19    20     9
   10    11    19    21     9
   12    11    19    16     9
   12    11    19    20     9
   12    11    19    21     9
   13    11    19    16     9
   13    11    19    20     9
   13    11    19    21     9
   10    14    16    17     9
   10    14    16    18     9
   10    14    16    19     9
   15    14    16    17     9
   15    14    16    18     9
   15    14    16    19     9
   10    14    22    23     9
   10    14    22    24     9
   15    14    22    23     9
   15    14    22    24     9
   16    14    22    23     9
   16    14    22    24     9
   17    16    14    22     9
   18    16    14    22     9
   19    16    14    22     9
   14    16    19    20     9
   14    16    19    21     9
   17    16    19    20     9
   17    16    19    21     9
   18    16    19    20     9
   18    16    19    21     9
   11    19    16    14     9
   11    19    16    17     9
   11    19    16    18     9
   14    22    24    25     9
   14    22    24    26     9
   23    22    24    25     9
   23    22    24    26     9
   22    24    26    27     9
   22    24    26    28     9
   22    24    26    29     9
   25    24    26    27     9
   25    24    26    28     9
   25    24    26    29     9
   24    26    29    30     9
   24    26    29    31     9
   27    26    29    30     9
   27    26    29    31     9
   28    26    29    30     9
   28    26    29    31     9
   26    29    31    32     9
   26    29    31    33     9
   30    29    31    32     9
   30    29    31    33     9
   29    31    33    34     9
   29    31    33    35     9
   29    31    33    39     9
   32    31    33    34     9
   32    31    33    35     9
   32    31    33    39     9
   31    33    35    36     9
   31    33    35    37     9
   31    33    35    38     9
   34    33    35    36     9
   34    33    35    37     9
   34    33    35    38     9
   31    33    39    40     9
   31    33    39    41     9
   34    33    39    40     9
   34    33    39    41     9
   35    33    39    40     9
   35    33    39    41     9
   36    35    33    39     9
   37    35    33    39     9
   38    35    33    39     9
   33    39    41    42     9
   33    39    41    45     9
   40    39    41    42     9
   40    39    41    45     9
   39    41    42    43     9
   39    41    42    44     9
   39    41    42    50     9
   45    41    42    50     9
   39    41    45    46     9
   39    41    45    47     9
   39    41    45    53     9
   42    41    45    46     9
   42    41    45    47     9
   42    41    45    53     9
   43    42    41    45     9
   44    42    41    45     9
   41    42    50    47     9
   41    42    50    51     9
   41    42    50    52     9
   43    42    50    47     9
   43    42    50    51     9
   43    42    50    52     9
   44    42    50    47     9
   44    42    50    51     9
   44    42    50    52     9
   41    45    47    48     9
   41    45    47    49     9
   41    45    47    50     9
   46    45    47    48     9
   46    45    47    49     9
   46    45    47    50     9
   41    45    53    54     9
   41    45    53    55     9
   46    45    53    54     9
   46    45    53    55     9
   47    45    53    54     9
   47    45    53    55     9
   48    47    45    53     9
   49    47    45    53     9
   50    47    45    53     9
   45    47    50    51     9
   45    47    50    52     9
   48    47    50    51     9
   48    47    50    52     9
   49    47    50    51     9
   49    47    50    52     9
   42    50    47    45     9
   42    50    47    48     9
   42    50    47    49     9
   45    53    55    56     9
   45    53    55    57     9
   54    53    55    56     9
   54    53    55    57     9
   53    55    57    58     9
   53    55    57    59     9
   53    55    57    60     9
   56    55    57    58     9
   56    55    57    59     9
   56    55    57    60     9
   55    57    60    61     9
   55    57    60    62     9
   58    57    60    61     9
   58    57    60    62     9
   59    57    60    61     9
   59    57    60    62     9
   57    60    62    63     9
   57    60    62    66     9
   61    60    62    63     9
   61    60    62    66     9
   60    62    63    64     9
   60    62    63    65     9
   60    62    63    71     9
   66    62    63    71     9
   60    62    66    67     9
   60    62    66    68     9
   60    62    66    74     9
   63    62    66    67     9
   63    62    66    68     9
   63    62    66    74     9
   64    63    62    66     9
   65    63    62    66     9
   62    63    71    68     9
   62    63    71    72     9
   62    63    71    73     9
   64    63    71    68     9
   64    63    71    72     9
   64    63    71    73     9
   65    63    71    68     9
   65    63    71    72     9
   65    63    71    73     9
   62    66    68    69     9
   62    66    68    70     9
   62    66    68    71     9
   67    66    68    69     9
   67    66    68    70     9
   67    66    68    71     9
   62    66    74    75     9
   62    66    74    76     9
   67    66    74    75     9
   67    66    74    76     9
   68    66    74    75     9
   68    66    74    76     9
   69    68    66    74     9
   70    68    66    74     9
   71    68    66    74     9
   66    68    71    72     9
   66    68    71    73     9
   69    68    71    72     9
   69    68    71    73     9
   70    68    71    72     9
   70    68    71    73     9
   63    71    68    66     9
   63    71    68    69     9
   63    71    68    70     9
   66    74    76    77     9
   66    74    76    78     9
   75    74    76    77     9
   75    74    76    78     9
   74    76    78    79     9
   74    76    78    80     9
   74    76    78    81     9
   77    76    78    79     9
   77    76    78    80     9
   77    76    78    81     9
   76    78    81    82     9
   76    78    81    83     9
   79    78    81    82     9
   79    78    81    83     9
   80    78    81    82     9
   80    78    81    83     9
   78    81    83    84     9
   78    81    83    85     9
   82    81    83    84     9
   82    81    83    85     9
   81    83    85    86     9
   81    83    85    87     9
   81    83    85    91     9
   84    83    85    86     9
   84    83    85    87     9
   84    83    85    91     9
   83    85    87    88     9
   83    85    87    89     9
   83    85    87    90     9
   86    85    87    88     9
   86    85    87    89     9
   86    85    87    90     9
   83    85    91    92     9
   83    85    91    93     9
   86    85    91    92     9
   86    85    91    93     9
   87    85    91    92     9
   87    85    91    93     9
   88    87    85    91     9
   89    87    85    91     9
   90    87    85    91     9
   85    91    93    94     9
   85    91    93    97     9
   92    91    93    94     9
   92    91    93    97     9
   91    93    94    95     9
   91    93    94    96     9
   91    93    94   102     9
   97    93    94   102     9
   91    93    97    98     9
   91    93    97    99     9
   91    93    97   105     9
   94    93    97    98     9
   94    93    97    99     9
   94    93    97   105     9
   95    94    93    97     9
   96    94    93    97     9
   93    94   102    99     9
   93    94   102   103     9
   93    94   102   104     9
   95    94   102    99     9
   95    94   102   103     9
   95    94   102   104     9
   96    94   102    99     9
   96    94   102   103     9
   96    94   102   104     9
   93    97    99   100     9
   93    97    99   101     9
   93    97    99   102     9
   98    97    99   100     9
   98    97    99   101     9
   98    97    99   102     9
   93    97   105   106     9
   93    97   105   107     9
   98    97   105   106     9
   98    97   105   107     9
   99    97   105   106     9
   99    97   105   107     9
  100    99    97   105     9
  101    99    97   105     9
  102    99    97   105     9
   97    99   102   103     9
   97    99   102   104     9
  100    99   102   103     9
  100    99   102   104     9
  101    99   102   103     9
  101    99   102   104     9
   94   102    99    97     9
   94   102    99   100     9
   94   102    99   101     9
   97   105   107   108     9
   97   105   107   109     9
  106   105   107   108     9
  106   105   107   109     9
  105   107   109   110     9
  105   107   109   111     9
  105   107   109   112     9
  108   107   109   110     9
  108   107   109   111     9
  108   107   109   112     9
  107   109   112   113     9
  107   109   112   114     9
  110   109   112   113     9
  110   109   112   114     9
  111   109   112   113     9
  111   109   112   114     9
  109   112   114   115     9
  109   112   114   118     9
  113   112   114   115     9
  113   112   114   118     9
  112   114   115   116     9
  112   114   115   117     9
  112   114   115   123     9
  118   114   115   123     9
  112   114   118   119     9
  112   114   118   120     9
  112   114   118   126     9
  115   114   118   119     9
  115   114   118   120     9
  115   114   118   126     9
  116   115   114   118     9
  117   115   114   118     9
  114   115   123   120     9
  114   115   123   124     9
  114   115   123   125     9
  116   115   123   120     9
  116   115   123   124     9
  116   115   123   125     9
  117   115   123   120     9
  117   115   123   124     9
  117   115   123   125     9
  114   118   120   121     9
  114   118   120   122     9
  114   118   120   123     9
  119   118   120   121     9
  119   118   120   122     9
  119   118   120   123     9
  114   118   126   127     9
  114   118   126   128     9
  119   118   126   127     9
  119   118   126   128     9
  120   118   126   127     9
  120   118   126   128     9
  121   120   118   126     9
  122   120   118   126     9
  123   120   118   126     9
  118   120   123   124     9
  118   120   123   125     9
  121   120   123   124     9
  121   120   123   125     9
  122   120   123   124     9
  122   120   123   125     9
  115   123   120   118     9
  115   123   120   121     9
  115   123   120   122     9
  118   126   128   129     9
  118   126   128   130     9
  127   126   128   129     9
  127   126   128   130     9
  126   128   130   131     9
  126   128   130   132     9
  126   128   130   133     9
  129   128   130   131     9
  129   128   130   132     9
  129   128   130   133     9
  128   130   133   134     9
  128   130   133   135     9
  131   130   133   134     9
  131   130   133   135     9
  132   130   133   134     9
  132   130   133   135     9
  130   133   135   136     9
  130   133   135   137     9
  134   133   135   136     9
  134   133   135   137     9
  133   135   137   138     9
  133   135   137   139     9
  133   135   137   143     9
  136   135   137   138     9
  136   135   137   139     9
  136   135   137   143     9
  135   137   139   140     9
  135   137   139   141     9
  135   137   139   142     9
  138   137   139   140     9
  138   137   139   141     9
  138   137   139   142     9
  135   137   143   144     9
  135   137   143   145     9
  138   137   143   144     9
  138   137   143   145     9
  139   137   143   144     9
  139   137   143   145     9
  140   139   137   143     9
  141   139   137   143     9
  142   139   137   143     9
  137   143   145   146     9
  137   143   145   149     9
  144   143   145   146     9
  144   143   145   149     9
  143   145   146   147     9
  143   145   146   148     9
  143   145   146   154     9
  149   145   146   154     9
  143   145   149   150     9
  143   145   149   151     9
  143   145   149   157     9
  146   145   149   150     9
  146   145   149   151     9
  146   145   149   157     9
  147   146   145   149     9
  148   146   145   149     9
  145   146   154   151     9
  145   146   154   155     9
  145   146   154   156     9
  147   146   154   151     9
  147   146   154   155     9
  147   146   154   156     9
  148   146   154   151     9
  148   146   154   155     9
  148   146   154   156     9
  145   149   151   152     9
  145   149   151   153     9
  145   149   151   154     9
  150   149   151   152     9
  150   149   151   153     9
  150   149   151   154     9
  145   149   157   158     9
  145   149   157   159     9
  150   149   157   158     9
  150   149   157   159     9
  151   149   157   158     9
  151   149   157   159     9
  152   151   149   157     9
  153   151   149   157     9
  154   151   149   157     9
  149   151   154   155     9
  149   151   154   156     9
  152   151   154   155     9
  152   151   154   156     9
  153   151   154   155     9
  153   151   154   156     9
  146   154   151   149     9
  146   154   151   152     9
  146   154   151   153     9

[ dihedrals ]
; ai	aj	ak	al	funct	q0	cq
    8     5    10     9     2
   10     8    14    11     2
   22    14    24    23     2
   24    22    26    25     2
   29    26    31    30     2
   31    29    33    32     2
   39    33    41    40     2
   41    39    45    42     2
   53    45    55    54     2
   55    53    57    56     2
   60    57    62    61     2
   62    60    66    63     2
   74    66    76    75     2
   76    74    78    77     2
   81    78    83    82     2
   83    81    85    84     2
   91    85    93    92     2
   93    91    97    94     2
  105    97   107   106     2
  107   105   109   108     2
  112   109   114   113     2
  114   112   118   115     2
  126   118   128   127     2
  128   126   130   129     2
  133   130   135   134     2
  135   133   137   136     2
  143   137   145   144     2
  145   143   149   146     2
  157   149   159   158     2

[ cmap ] 
; ai	aj	ak	al	am	funct
    8    10    14    22    24     1
   22    24    26    29    31     1
   29    31    33    39    41     1
   39    41    45    53    55     1
   53    55    57    60    62     1
   60    62    66    74    76     1
   74    76    78    81    83     1
   81    83    85    91    93     1
   91    93    97   105   107     1
  105   107   109   112   114     1
  112   114   118   126   128     1
  126   128   130   133   135     1
  133   135   137   143   145     1

#ifdef POSRES
[ position_restraints ]
    1     1    POSRES_FC_BB    POSRES_FC_BB    POSRES_FC_BB   
    5     1    POSRES_FC_BB    POSRES_FC_BB    POSRES_FC_BB   
    8     1    POSRES_FC_BB    POSRES_FC_BB    POSRES_FC_BB   
    9     1    POSRES_FC_BB    POSRES_FC_BB    POSRES_FC_BB   
   10     1    POSRES_FC_BB    POSRES_FC_BB    POSRES_FC_BB   
   11     1    POSRES_FC_SC    POSRES_FC_SC    POSRES_FC_SC   
   14     1    POSRES_FC_BB    POSRES_FC_BB    POSRES_FC_BB   
   16     1    POSRES_FC_SC    POSRES_FC_SC    POSRES_FC_SC   
   19     1    POSRES_FC_SC    POSRES_FC_SC    POSRES_FC_SC   
   22     1    POSRES_FC_BB    POSRES_FC_BB    POSRES_FC_BB   
   23     1    POSRES_FC_BB    POSRES_FC_BB    POSRES_FC_BB   
   24     1    POSRES_FC_BB    POSRES_FC_BB    POSRES_FC_BB   
   26     1    POSRES_FC_BB    POSRES_FC_BB    POSRES_FC_BB   
   29     1    POSRES_FC_BB    POSRES_FC_BB    POSRES_FC_BB   
   30     1    POSRES_FC_BB    POSRES_FC_BB    POSRES_FC_BB   
   31     1    POSRES_FC_BB    POSRES_FC_BB    POSRES_FC_BB   
   33     1    POSRES_FC_BB    POSRES_FC_BB    POSRES_FC_BB   
   35     1    POSRES_FC_SC    POSRES_FC_SC    POSRES_FC_SC   
   39     1    POSRES_FC_BB    POSRES_FC_BB    POSRES_FC_BB   
   40     1    POSRES_FC_BB    POSRES_FC_BB    POSRES_FC_BB   
   41     1    POSRES_FC_BB    POSRES_FC_BB    POSRES_FC_BB   
   42     1    POSRES_FC_SC    POSRES_FC_SC    POSRES_FC_SC   
   45     1    POSRES_FC_BB    POSRES_FC_BB    POSRES_FC_BB   
   47     1    POSRES_FC_SC    POSRES_FC_SC    POSRES_FC_SC   
   50     1    POSRES_FC_SC    POSRES_FC_SC    POSRES_FC_SC   
   53     1    POSRES_FC_BB    POSRES_FC_BB    POSRES_FC_BB   
   54     1    POSRES_FC_BB    POSRES_FC_BB    POSRES_FC_BB   
   55     1    POSRES_FC_BB    POSRES_FC_BB    POSRES_FC_BB   
   57     1    POSRES_FC_BB    POSRES_FC_BB    POSRES_FC_BB   
   60     1    POSRES_FC_BB    POSRES_FC_BB    POSRES_FC_BB   
   61     1    POSRES_FC_BB    POSRES_FC_BB    POSRES_FC_BB   
   62     1    POSRES_FC_BB    POSRES_FC_BB    POSRES_FC_BB   
   63     1    POSRES_FC_SC    POSRES_FC_SC    POSRES_FC_SC   
   66     1    POSRES_FC_BB    POSRES_FC_BB    POSRES_FC_BB   
   68     1    POSRES_FC_SC    POSRES_FC_SC    POSRES_FC_SC   
   71     1    POSRES_FC_SC    POSRES_FC_SC    POSRES_FC_SC   
   74     1    POSRES_FC_BB    POSRES_FC_BB    POSRES_FC_BB   
   75     1    POSRES_FC_BB    POSRES_FC_BB    POSRES_FC_BB   
   76     1    POSRES_FC_BB    POSRES_FC_BB    POSRES_FC_BB   
   78     1    POSRES_FC_BB    POSRES_FC_BB    POSRES_FC_BB   
   81     1    POSRES_FC_BB    POSRES_FC_BB    POSRES_FC_BB   
   82     1    POSRES_FC_BB    POSRES_FC_BB    POSRES_FC_BB   
   83     1    POSRES_FC_BB    POSRES_FC_BB    POSRES_FC_BB   
   85     1    POSRES_FC_BB    POSRES_FC_BB    POSRES_FC_BB   
   87     1    POSRES_FC_SC    POSRES_FC_SC    POSRES_FC_SC   
   91     1    POSRES_FC_BB    POSRES_FC_BB    POSRES_FC_BB   
   92     1    POSRES_FC_BB    POSRES_FC_BB    POSRES_FC_BB   
   93     1    POSRES_FC_BB    POSRES_FC_BB    POSRES_FC_BB   
   94     1    POSRES_FC_SC    POSRES_FC_SC    POSRES_FC_SC   
   97     1    POSRES_FC_BB    POSRES_FC_BB    POSRES_FC_BB   
   99     1    POSRES_FC_SC    POSRES_FC_SC    POSRES_FC_SC   
  102     1    POSRES_FC_SC    POSRES_FC_SC    POSRES_FC_SC   
  105     1    POSRES_FC_BB    POSRES_FC_BB    POSRES_FC_BB   
  106     1    POSRES_FC_BB    POSRES_FC_BB    POSRES_FC_BB   
  107     1    POSRES_FC_BB    POSRES_FC_BB    POSRES_FC_BB   
  109     1    POSRES_FC_BB    POSRES_FC_BB    POSRES_FC_BB   
  112     1    POSRES_FC_BB    POSRES_FC_BB    POSRES_FC_BB   
  113     1    POSRES_FC_BB    POSRES_FC_BB    POSRES_FC_BB   
  114     1    POSRES_FC_BB    POSRES_FC_BB    POSRES_FC_BB   
  115     1    POSRES_FC_SC    POSRES_FC_SC    POSRES_FC_SC   
  118     1    POSRES_FC_BB    POSRES_FC_BB    POSRES_FC_BB   
  120     1    POSRES_FC_SC    POSRES_FC_SC    POSRES_FC_SC   
  123     1    POSRES_FC_SC    POSRES_FC_SC    POSRES_FC_SC   
  126     1    POSRES_FC_BB    POSRES_FC_BB    POSRES_FC_BB   
  127     1    POSRES_FC_BB    POSRES_FC_BB    POSRES_FC_BB   
  128     1    POSRES_FC_BB    POSRES_FC_BB    POSRES_FC_BB   
  130     1    POSRES_FC_BB    POSRES_FC_BB    POSRES_FC_BB   
  133     1    POSRES_FC_BB    POSRES_FC_BB    POSRES_FC_BB   
  134     1    POSRES_FC_BB    POSRES_FC_BB    POSRES_FC_BB   
  135     1    POSRES_FC_BB    POSRES_FC_BB    POSRES_FC_BB   
  137     1    POSRES_FC_BB    POSRES_FC_BB    POSRES_FC_BB   
  139     1    POSRES_FC_SC    POSRES_FC_SC    POSRES_FC_SC   
  143     1    POSRES_FC_BB    POSRES_FC_BB    POSRES_FC_BB   
  144     1    POSRES_FC_BB    POSRES_FC_BB    POSRES_FC_BB   
  145     1    POSRES_FC_BB    POSRES_FC_BB    POSRES_FC_BB   
  146     1    POSRES_FC_SC    POSRES_FC_SC    POSRES_FC_SC   
  149     1    POSRES_FC_BB    POSRES_FC_BB    POSRES_FC_BB   
  151     1    POSRES_FC_SC    POSRES_FC_SC    POSRES_FC_SC   
  154     1    POSRES_FC_SC    POSRES_FC_SC    POSRES_FC_SC   
  157     1    POSRES_FC_BB    POSRES_FC_BB    POSRES_FC_BB   
  158     1    POSRES_FC_SC    POSRES_FC_SC    POSRES_FC_SC   
  159     1    POSRES_FC_SC    POSRES_FC_SC    POSRES_FC_SC   
#endif
