Title
29212
    1ASP      N    1   5.589   6.503   0.215  0.5643  0.1523  0.1660
    1ASP    HT1    2   5.547   6.413   0.246 -0.7789  0.7235  0.0944
    1ASP    HT2    3   5.550   6.536   0.124 -0.1345  0.8003  0.6853
    1ASP    HT3    4   5.561   6.579   0.280  1.7973  0.5519  0.2522
    1ASP     CA    5   5.736   6.510   0.224 -0.1849 -0.3199  0.2836
    1ASP     HA    6   5.755   6.611   0.192 -1.2487  0.5080  2.1759
    1ASP     CB    7   5.790   6.507   0.366 -0.3359  0.1545  0.0311
    1ASP    HB1    8   5.766   6.407   0.410 -2.0114  0.4240 -0.1754
    1ASP    HB2    9   5.733   6.580   0.428 -0.3736  0.4960 -0.4093
    1ASP     CG   10   5.939   6.527   0.383 -0.1770  0.2476 -0.5328
    1ASP    OD1   11   6.003   6.471   0.478 -0.0739  0.2550 -0.3207
    1ASP    OD2   12   5.988   6.589   0.288 -0.1740  0.1040  0.0743
    1ASP      C   13   5.815   6.419   0.114  0.4156  0.0704 -0.0339
    1ASP      O   14   5.833   6.455  -0.002 -0.3515  0.1936 -0.2532
    2GLY      N   15   5.860   6.295   0.156  0.0052 -0.1186 -0.2018
    2GLY     HN   16   5.842   6.259   0.247 -0.2566 -0.7773 -0.5106
    2GLY     CA   17   5.915   6.190   0.066  0.1907  0.1102  0.7894
    2GLY    HA1   18   5.831   6.180  -0.001 -1.1945  0.8264  2.3352
    2GLY    HA2   19   5.933   6.100   0.122  0.2381 -0.6719 -0.4504
    2GLY      C   20   6.039   6.229  -0.020  0.6289 -0.1554  0.0895
    2GLY      O   21   6.122   6.311   0.023  0.2412  0.3192 -0.4806
    3ASP      N   22   6.056   6.168  -0.133  0.4617  0.2143  0.0345
    3ASP     HN   23   5.997   6.091  -0.158  1.1771 -0.4034  0.2008
    3ASP     CA   24   6.150   6.214  -0.234  0.5177  0.6679 -0.5252
    3ASP     HA   25   6.247   6.217  -0.186 -0.7073  0.4441  2.1964
    3ASP     CB   26   6.151   6.133  -0.365 -0.0427  0.0639  0.3434
    3ASP    HB1   27   6.194   6.187  -0.451 -1.1271 -1.4604 -1.2270
    3ASP    HB2   28   6.047   6.108  -0.395 -0.4527  0.7896  1.0975
    3ASP     CG   29   6.230   6.013  -0.336 -0.2797  0.5591 -0.4634
    3ASP    OD1   30   6.292   5.995  -0.227  0.3393 -0.6985 -0.7117
    3ASP    OD2   31   6.252   5.933  -0.429 -0.5610  0.1668  0.8405
    3ASP      C   32   6.107   6.365  -0.268  0.1394 -0.6874 -0.3682
    3ASP      O   33   5.993   6.418  -0.264 -0.3053  0.5536 -0.5077
    4GLY      N   34   6.213   6.439  -0.301 -0.5854 -0.3523 -0.5800
    4GLY     HN   35   6.304   6.402  -0.285 -0.8382 -0.6135  0.3304
    4GLY     CA   36   6.216   6.577  -0.344 -0.1620 -0.8157 -0.8779
    4GLY    HA1   37   6.317   6.611  -0.325 -0.3885 -0.0846 -0.9366
    4GLY    HA2   38   6.144   6.635  -0.287  1.3094 -1.6403  2.0127
    4GLY      C   39   6.189   6.596  -0.489 -0.9747 -0.3133 -0.7540
    4GLY      O   40   6.159   6.498  -0.551 -0.5960  0.5332 -0.1730
    5PRO      N   41   6.183   6.717  -0.538 -0.3196  0.0497 -0.2425
    5PRO     CD   42   6.208   6.835  -0.465  0.3211 -0.6109  0.1001
    5PRO    HD1   43   6.306   6.820  -0.414  0.3212 -1.6702 -0.1906
    5PRO    HD2   44   6.124   6.844  -0.392 -0.1436  0.3518 -0.5363
    5PRO     CA   45   6.181   6.746  -0.681  0.3539 -0.5892 -0.3346
    5PRO     HA   46   6.077   6.745  -0.710 -0.3946  3.3884  1.5328
    5PRO     CB   47   6.242   6.886  -0.694 -0.3313 -0.0793  0.1883
    5PRO    HB1   48   6.201   6.940  -0.782  0.1250  0.7905  0.5009
    5PRO    HB2   49   6.353   6.887  -0.697 -0.2472 -2.5247  0.4836
    5PRO     CG   50   6.213   6.955  -0.562  0.2615  0.0805  0.1709
    5PRO    HG1   51   6.292   7.021  -0.522 -1.3354  1.7348  0.7451
    5PRO    HG2   52   6.118   7.013  -0.555 -1.4819 -2.6406  1.1007
    5PRO      C   53   6.255   6.655  -0.781 -0.8382  0.4033  0.0982
    5PRO      O   54   6.358   6.599  -0.748 -0.1450  0.4721  0.3294
    6GLY      N   55   6.201   6.633  -0.899 -0.6097 -0.4635  0.1801
    6GLY     HN   56   6.125   6.687  -0.934  0.9491  1.4048 -0.4589
    6GLY     CA   57   6.257   6.542  -1.004 -0.4643 -0.4765 -0.0217
    6GLY    HA1   58   6.180   6.501  -1.067  1.4633 -2.7858 -1.0611
    6GLY    HA2   59   6.312   6.455  -0.972  0.0016 -0.2113 -0.0925
    6GLY      C   60   6.354   6.619  -1.094 -0.6686 -0.5483 -0.1273
    6GLY      O   61   6.437   6.694  -1.049 -0.4403 -0.2345 -0.2514
    7ASP      N   62   6.340   6.603  -1.223 -0.5268 -0.5200 -0.0953
    7ASP     HN   63   6.269   6.541  -1.253  0.4940 -3.3481  2.7264
    7ASP     CA   64   6.422   6.668  -1.328  0.2134 -0.0350  0.2823
    7ASP     HA   65   6.524   6.666  -1.292  0.3661  1.0000 -0.0541
    7ASP     CB   66   6.415   6.596  -1.470 -0.8111 -0.6641 -0.8655
    7ASP    HB1   67   6.447   6.657  -1.558 -2.2572  0.7331 -0.4906
    7ASP    HB2   68   6.309   6.571  -1.490 -1.5260 -0.0067  1.7125
    7ASP     CG   69   6.489   6.470  -1.452 -0.8491  0.5531  0.8312
    7ASP    OD1   70   6.605   6.465  -1.401 -0.1747  0.0136 -0.0486
    7ASP    OD2   71   6.437   6.364  -1.494 -0.6475  0.3655 -0.2849
    7ASP      C   72   6.376   6.810  -1.365  0.1911  0.0860  0.7840
    7ASP      O   73   6.264   6.845  -1.328 -0.0503 -0.1082  0.0260
    8PRO      N   74   6.465   6.891  -1.428 -0.2535  0.0227  0.2279
    8PRO     CD   75   6.617   6.870  -1.417  0.1814  0.0704 -0.0395
    8PRO    HD1   76   6.640   6.785  -1.485 -0.7938  0.7392 -1.2649
    8PRO    HD2   77   6.641   6.840  -1.313  0.4415 -1.3799 -0.4950
    8PRO     CA   78   6.431   7.026  -1.472  0.1082  0.4197  0.1419
    8PRO     HA   79   6.422   7.088  -1.384  1.9761 -1.6357  1.9030
    8PRO     CB   80   6.557   7.061  -1.547  0.3324  0.3466  0.9049
    8PRO    HB1   81   6.572   7.171  -1.557  3.5270 -0.1398 -1.3166
    8PRO    HB2   82   6.564   7.021  -1.650 -1.7272  2.3050 -0.0741
    8PRO     CG   83   6.677   7.006  -1.468  0.2337  0.4228  0.1039
    8PRO    HG1   84   6.776   6.999  -1.518  0.7045  2.5037  0.6215
    8PRO    HG2   85   6.690   7.070  -1.378  0.4831  0.1558  0.2599
    8PRO      C   86   6.297   7.043  -1.548 -0.1932 -0.0665  0.3036
    8PRO      O   87   6.259   6.967  -1.636 -0.7053  0.5783 -0.0645
    9GLY      N   88   6.227   7.152  -1.520  0.4270  0.1649  0.3715
    9GLY     HN   89   6.264   7.219  -1.456  1.7009  1.7237 -1.8794
    9GLY     CA   90   6.091   7.185  -1.583 -0.6586  0.1208  0.1491
    9GLY    HA1   91   6.032   7.224  -1.502 -1.4391  1.8281 -1.1923
    9GLY    HA2   92   6.047   7.096  -1.627 -0.7044 -0.1566  0.7502
    9GLY      C   93   6.096   7.291  -1.696  0.0473  0.3328 -0.1634
    9GLY      O   94   6.193   7.296  -1.769  0.5217  0.0638 -0.0588
   10ASP      N   95   5.988   7.374  -1.703  0.3433  0.2986  0.4770
   10ASP     HN   96   5.907   7.338  -1.658  1.3001 -0.9682  1.2533
   10ASP     CA   97   5.981   7.505  -1.762 -0.7004  0.2806  0.3742
   10ASP     HA   98   5.998   7.494  -1.868  1.2831 -1.6239  0.8189
   10ASP     CB   99   5.838   7.556  -1.754  0.1778 -0.1228  0.1653
   10ASP    HB1  100   5.827   7.659  -1.795 -0.7228 -0.4739 -0.5264
   10ASP    HB2  101   5.809   7.557  -1.647  2.8192  1.8465  0.9456
   10ASP     CG  102   5.731   7.471  -1.823 -0.1875 -0.3150 -0.6428
   10ASP    OD1  103   5.739   7.465  -1.950 -0.0628 -0.2637 -0.2265
   10ASP    OD2  104   5.647   7.410  -1.751  0.1535 -0.3817  0.7381
   10ASP      C  105   6.081   7.602  -1.709  0.5472  0.2088  0.3771
   10ASP      O  106   6.131   7.592  -1.597 -0.2856  0.3638 -0.0809
   11GLY      N  107   6.119   7.706  -1.788 -0.0606 -0.5070  0.4888
   11GLY     HN  108   6.056   7.735  -1.859 -0.7389 -1.8775  0.4941
   11GLY     CA  109   6.249   7.767  -1.774  0.2408  0.7063 -0.0273
   11GLY    HA1  110   6.296   7.733  -1.683 -0.0857 -1.9383 -0.7644
   11GLY    HA2  111   6.231   7.874  -1.771  2.5376  1.1403  1.1324
   11GLY      C  112   6.348   7.725  -1.884  0.1055 -0.5234  0.5006
   11GLY    OT1  113   6.450   7.669  -1.844 -0.0829 -0.3550 -0.5795
   11GLY    OT2  114   6.324   7.736  -2.006  0.4008  0.0395  0.1805
   12LIT    LIT  115   1.362   5.425   3.710  0.8514  0.2803 -0.9047
   13LIT    LIT  116   2.234   2.705   2.514 -0.7570  0.6049  1.2581
   14LIT    LIT  117   3.955   1.518   5.853 -0.1322  0.5484  1.5218
   15LIT    LIT  118   5.263   6.599   5.184  0.7699 -0.2339 -0.2887
   16LIT    LIT  119   4.119   4.320   3.858 -1.0910 -0.5035 -0.1322
   17LIT    LIT  120   3.213   2.419   3.023 -0.7498  0.7884  0.6726
   18LIT    LIT  121   2.014   1.271   3.646  0.8290 -0.0856 -0.1303
   19LIT    LIT  122   4.923   5.047   4.285 -0.1643  0.4144 -0.0738
   20LIT    LIT  123   3.725   3.884   0.936  0.4348  1.0136  0.3334
   21LIT    LIT  124   0.079   4.306   4.317  0.2032  0.3396 -0.7311
   22LIT    LIT  125   1.935   4.943   1.609 -0.3723  0.5189 -0.4564
   23LIT    LIT  126   4.147   3.598   3.930  0.2866  0.2528  0.5234
   24LIT    LIT  127   5.596   5.777   2.232 -0.1659  0.0372  0.7513
   25LIT    LIT  128   4.177   2.867   4.491  0.5392 -0.2109  1.2697
   26LIT    LIT  129   5.366   1.945   1.994 -0.0169  1.1129  1.5204
   27LIT    LIT  130   5.781   6.025   4.645 -0.8140 -0.1784  0.3431
   28LIT    LIT  131   6.767   2.150   4.262 -0.3988  0.5702 -0.2491
   29LIT    LIT  132   1.185   0.793   4.905 -0.3529 -0.2688 -0.3798
   30LIT    LIT  133   6.352   6.260   0.562 -0.5272  0.4667 -1.0205
   31LIT    LIT  134   5.052   3.411   4.752 -0.8312 -0.2612 -0.1935
   32LIT    LIT  135   4.887   6.783   0.537 -0.1397 -0.0829  0.9313
   33LIT    LIT  136   1.409   5.584   0.893  0.2313  0.2521  0.1367
   34LIT    LIT  137   5.593   3.857   0.646 -0.3945  0.7824  0.1622
   35LIT    LIT  138   2.339   3.218   4.790 -0.6760 -0.4186  0.6821
   36LIT    LIT  139   6.424   2.856   1.095 -0.3503 -0.0773 -0.1416
   37LIT    LIT  140   1.376   1.837   0.290  0.6314  0.3843 -0.4142
   38LIT    LIT  141   0.906   4.750   5.765 -1.4482  0.6620  0.5498
   39LIT    LIT  142   3.924   1.696   3.889  0.2394 -0.0787 -0.2183
   40LIT    LIT  143   5.790   0.846   0.855 -0.4804  0.7075  0.2646
   41LIT    LIT  144   7.091   1.562   2.705  0.2169 -0.1285 -0.1153
   42LIT    LIT  145   4.025   2.515   5.564  1.0679 -0.3009 -0.2033
   43CLA    CLA  146   2.097   4.003   4.164 -0.1562 -0.2054  0.0239
   44CLA    CLA  147   0.066   5.101   2.932  0.3221  0.3081  0.6954
   45CLA    CLA  148   6.327   2.541   3.605  0.2829  0.1501  0.1131
   46CLA    CLA  149   4.833   3.405   3.253  0.1370 -0.1097  0.0565
   47CLA    CLA  150   5.443   4.670   2.211  0.4922 -0.0429  0.1556
   48CLA    CLA  151   6.782   3.488   0.307  0.1293  0.0130  0.1221
   49CLA    CLA  152   2.115   2.394   4.934 -0.3650 -0.5624 -0.1848
   50CLA    CLA  153   6.059   5.819   4.424 -0.0993 -0.2507 -0.4971
   51CLA    CLA  154   5.047   6.509   5.204 -0.0195  0.4458  0.0962
   52CLA    CLA  155   2.029   2.658   4.054  0.0073  0.2590  0.2658
   53CLA    CLA  156   5.716   5.297   4.706  0.4402 -0.2184  0.0759
   54CLA    CLA  157   1.639   4.962   0.042 -0.1150  0.1116 -0.0920
   55CLA    CLA  158   3.879   0.068   0.740 -0.3557  0.0569 -0.1742
   56CLA    CLA  159   5.959   6.039   5.280 -0.7554 -0.1876 -0.1285
   57CLA    CLA  160   6.580   4.519   1.630  0.1199 -0.5701 -0.1067
   58CLA    CLA  161   2.189   5.361   1.570  0.0808  0.1849  0.0381
   59CLA    CLA  162   2.074   6.199   3.938 -0.1126 -0.4230 -0.3461
   60CLA    CLA  163   2.810   6.164   4.815  0.3237  0.4592 -0.6048
   61CLA    CLA  164   0.287   6.246   5.451  0.0909  0.0425  0.2490
   62CLA    CLA  165   4.836   5.168   2.610 -0.0382  0.3641  0.3623
   63CLA    CLA  166   0.125   5.010   5.552  0.3639 -0.0089 -0.1831
   64CLA    CLA  167   5.083   5.883   0.082 -0.0679  0.1179 -0.2785
   65CLA    CLA  168   1.875   2.397   2.816  0.3101  0.2051 -0.4700
   66CLA    CLA  169   3.315   6.787   1.991  0.1858 -0.3502 -0.2242
   67CLA    CLA  170   0.808   5.579   4.158  0.1812  0.2838  0.1384
   68CLA    CLA  171   4.792   2.544   4.604 -0.1318 -0.1399  0.3117
   69CLA    CLA  172   1.033   0.860   2.732 -0.2054  0.0427 -0.0944
   70TIP3   OH2  173   6.280   2.103   3.429  0.3356  1.0330 -0.5402
   70TIP3    H1  174   6.196   2.094   3.384  0.4903  0.3697 -0.7079
   70TIP3    H2  175   6.311   2.013   3.440  0.5862  1.2170  0.3474
   71TIP3   OH2  176   3.236   4.543   1.632 -0.2049 -0.5027  0.1710
   71TIP3    H1  177   3.290   4.590   1.569  1.7474 -1.9773  0.6443
   71TIP3    H2  178   3.275   4.456   1.637 -1.9224 -1.2655  1.4758
   72TIP3   OH2  179   5.776   4.608   2.772  0.5278  0.3711 -0.0553
   72TIP3    H1  180   5.705   4.671   2.780 -0.7265 -1.2086  2.3387
   72TIP3    H2  181   5.741   4.539   2.715 -0.5220 -1.0750  2.1829
   73TIP3   OH2  182   3.563   3.018   3.463  0.6637 -0.2159 -0.8169
   73TIP3    H1  183   3.574   3.034   3.556  0.8769  1.9959 -1.1734
   73TIP3    H2  184   3.630   2.953   3.442  3.0937  1.8903 -0.0604
   74TIP3   OH2  185   5.378   1.652   0.139  0.0955  0.0019  0.0929
   74TIP3    H1  186   5.418   1.723   0.190  2.4770 -0.8050 -0.5339
   74TIP3    H2  187   5.417   1.572   0.175 -0.2531 -0.7733 -1.1871
   75TIP3   OH2  188   6.524   2.068   3.062 -0.4540 -0.0467  0.4000
   75TIP3    H1  189   6.513   2.029   2.975  1.4840  0.0152  0.0942
   75TIP3    H2  190   6.614   2.049   3.086 -0.6296  0.8828  1.9461
   76TIP3   OH2  191   4.474   1.832   4.191 -0.6627 -0.1638  0.2568
   76TIP3    H1  192   4.459   1.899   4.258 -1.0247  0.3953 -0.3702
   76TIP3    H2  193   4.552   1.785   4.221 -0.7472  0.1546  1.0041
   77TIP3   OH2  194   5.915   4.466   5.561  0.3893  0.1333 -0.4656
   77TIP3    H1  195   5.821   4.460   5.544  0.0373 -1.9449  1.6603
   77TIP3    H2  196   5.921   4.496   5.652  1.8419  1.1122 -0.8465
   78TIP3   OH2  197   3.094   0.330   2.463 -0.7048  0.2098  0.1479
   78TIP3    H1  198   3.189   0.337   2.473 -0.5136 -2.4403  0.8144
   78TIP3    H2  199   3.063   0.298   2.547 -2.3534  1.8012  0.2110
   79TIP3   OH2  200   4.860   3.376   4.673  0.3606  0.4013 -0.3027
   79TIP3    H1  201   4.797   3.439   4.637  1.1093  0.2618 -1.9776
   79TIP3    H2  202   4.876   3.315   4.601  2.6433  0.6218 -0.0593
   80TIP3   OH2  203   3.978   1.287   3.915 -0.6547  0.1774  0.1494
   80TIP3    H1  204   3.884   1.294   3.901 -0.6034 -0.2672 -0.4077
   80TIP3    H2  205   3.994   1.339   3.994 -1.4492 -0.2192  0.5816
   81TIP3   OH2  206   1.201   6.521   3.749  0.0879 -0.4299 -0.0722
   81TIP3    H1  207   1.268   6.464   3.712 -0.2135 -0.3997 -0.6692
   81TIP3    H2  208   1.202   6.599   3.693 -0.2286 -0.2978  0.1050
   82TIP3   OH2  209   7.107   6.528   3.032 -0.0626  0.2995 -0.5108
   82TIP3    H1  210   7.099   6.598   3.095  1.4791  0.3499 -0.3128
   82TIP3    H2  211   7.164   6.564   2.963  0.7318 -0.7169 -0.4157
   83TIP3   OH2  212   5.807   2.423   4.772  0.4627 -0.6147  0.1993
   83TIP3    H1  213   5.837   2.497   4.718 -3.1233  0.7391 -0.2561
   83TIP3    H2  214   5.809   2.457   4.861 -1.0258  0.0705  0.0070
   84TIP3   OH2  215   5.999   3.793   0.192  0.1936 -0.0752 -0.1226
   84TIP3    H1  216   5.963   3.873   0.230 -0.1286 -0.2645 -0.0287
   84TIP3    H2  217   6.066   3.765   0.254  1.2893  0.8851 -0.8373
   85TIP3   OH2  218   2.159   1.609   2.662  0.0854 -0.0129 -0.2618
   85TIP3    H1  219   2.174   1.692   2.616 -2.6153  0.6522 -0.1289
   85TIP3    H2  220   2.122   1.552   2.596  0.6801 -0.6896 -0.0218
   86TIP3   OH2  221   6.515   4.845   2.983 -0.3792  0.2247 -0.0312
   86TIP3    H1  222   6.570   4.779   2.940 -0.1267  0.7494 -0.5127
   86TIP3    H2  223   6.465   4.795   3.048  0.3679 -0.3237  0.1325
   87TIP3   OH2  224   5.070   4.358   1.736 -0.1122 -0.2338 -0.2801
   87TIP3    H1  225   5.034   4.386   1.820 -1.3394  2.4335 -1.5776
   87TIP3    H2  226   5.112   4.437   1.700  0.0382 -1.1828 -2.3275
   88TIP3   OH2  227   3.666   3.525   0.335  0.2047  0.0828 -0.1242
   88TIP3    H1  228   3.596   3.461   0.352  0.1296  0.1885 -0.0328
   88TIP3    H2  229   3.742   3.490   0.381 -0.0513  0.4743  0.6133
   89TIP3   OH2  230   4.783   1.174   5.502  0.2545  0.2412  0.1232
   89TIP3    H1  231   4.692   1.143   5.504 -0.6148  2.6230  0.8340
   89TIP3    H2  232   4.796   1.216   5.586  0.3454  4.1570 -1.6223
   90TIP3   OH2  233   2.564   4.496   0.641 -0.3249  0.0909 -0.5604
   90TIP3    H1  234   2.550   4.423   0.701  2.3883 -3.0047 -3.3493
   90TIP3    H2  235   2.493   4.489   0.577 -0.3386  0.2137 -0.5599
   91TIP3   OH2  236   4.314   2.684   3.412 -0.2313  0.0166 -0.1921
   91TIP3    H1  237   4.399   2.728   3.411  0.2937 -0.9445  0.3909
   91TIP3    H2  238   4.326   2.605   3.359 -0.6571 -0.2997  0.1651
   92TIP3   OH2  239   1.522   0.543   5.611 -0.3136  0.3587  0.0936
   92TIP3    H1  240   1.596   0.516   5.556  0.3651  0.9664  0.6798
   92TIP3    H2  241   1.546   0.511   5.698 -0.6793  0.6938  0.3143
   93TIP3   OH2  242   5.041   2.887   5.342 -0.2212  0.0240  0.5554
   93TIP3    H1  243   5.018   2.940   5.266  0.7231  0.2338  0.4032
   93TIP3    H2  244   5.117   2.836   5.314 -0.2268 -0.3312  1.1677
   94TIP3   OH2  245   4.987   4.820   1.091  0.2924 -0.7471  0.2503
   94TIP3    H1  246   4.979   4.751   1.025  1.1156 -1.1155  0.5291
   94TIP3    H2  247   4.896   4.840   1.115 -0.0030 -0.8688 -0.7127
   95TIP3   OH2  248   3.280   4.473   2.784 -0.7897  0.0739  0.5875
   95TIP3    H1  249   3.214   4.403   2.789  0.1791 -1.2212 -2.4060
   95TIP3    H2  250   3.364   4.427   2.786 -0.1167  1.0812 -1.4437
   96TIP3   OH2  251   5.778   2.020   1.812 -0.2138  0.4230 -0.1135
   96TIP3    H1  252   5.858   2.011   1.759  0.9528  1.3711  1.4121
   96TIP3    H2  253   5.808   2.059   1.894 -1.8710 -1.4627  1.4873
   97TIP3   OH2  254   2.582   1.316   0.442  0.1570 -0.5338  0.3405
   97TIP3    H1  255   2.538   1.242   0.399  0.8689 -1.5285  1.2640
   97TIP3    H2  256   2.538   1.325   0.526  0.3823 -0.2155  0.4277
   98TIP3   OH2  257   6.889   1.046   4.291 -0.0944 -0.0541  0.4387
   98TIP3    H1  258   6.900   0.967   4.237  0.8215  0.5496 -0.2961
   98TIP3    H2  259   6.974   1.058   4.332 -0.1410  0.7313  0.3035
   99TIP3   OH2  260   0.074   3.870   5.330 -0.0298  1.1424 -0.6823
   99TIP3    H1  261   0.130   3.865   5.252  1.2017  1.6143  0.1394
   99TIP3    H2  262   0.001   3.811   5.310  1.6270 -0.8849 -1.1212
  100TIP3   OH2  263   4.125   2.235   2.068 -0.7686 -0.1102 -0.1728
  100TIP3    H1  264   4.109   2.247   2.162  1.6142  0.3663  0.2461
  100TIP3    H2  265   4.160   2.146   2.062  1.7645  0.7961 -0.1180
  101TIP3   OH2  266   1.969   0.142   0.267 -0.2787 -0.4591  0.4284
  101TIP3    H1  267   1.888   0.191   0.273  0.5345  1.0896 -0.4758
  101TIP3    H2  268   1.988   0.139   0.173  0.8202 -0.6016  0.6394
  102TIP3   OH2  269   4.174   3.796   0.248  0.4873 -0.0153  0.1992
  102TIP3    H1  270   4.125   3.865   0.293  1.8181  0.7023  0.6331
  102TIP3    H2  271   4.257   3.839   0.224  0.3119 -0.7330 -1.8542
  103TIP3   OH2  272   6.884   2.723   3.183 -0.4417  0.4140 -0.2968
  103TIP3    H1  273   6.850   2.648   3.232  0.0060  0.9628  0.8931
  103TIP3    H2  274   6.817   2.740   3.117 -1.4251  0.0772  0.5719
  104TIP3   OH2  275   2.399   2.996   3.546 -1.3913  0.0361 -0.4261
  104TIP3    H1  276   2.357   3.020   3.629 -1.0789  0.9468 -0.5149
  104TIP3    H2  277   2.340   3.028   3.479 -0.9830  0.5496 -0.5484
  105TIP3   OH2  278   1.420   0.118   0.071  0.3202 -0.1294  1.0547
  105TIP3    H1  279   1.420   0.083   0.160 -1.7072 -0.5793  0.9225
  105TIP3    H2  280   1.458   0.049   0.017  1.1600 -0.0232  1.5048
  106TIP3   OH2  281   2.041   1.966   3.869 -0.0643 -0.0366  0.2509
  106TIP3    H1  282   2.013   2.054   3.892  1.2518  0.3256  0.5276
  106TIP3    H2  283   2.122   1.953   3.917  0.1840 -1.0979 -0.4213
  107TIP3   OH2  284   0.878   0.111   3.809  0.3089  0.3678  0.1364
  107TIP3    H1  285   0.969   0.096   3.832  0.5958 -0.7252 -1.5335
  107TIP3    H2  286   0.881   0.140   3.717 -1.0531 -0.1828 -0.1085
  108TIP3   OH2  287   6.134   0.417   0.057 -0.0407 -0.0003 -0.0019
  108TIP3    H1  288   6.107   0.464  -0.022 -0.7137  1.5681  1.0823
  108TIP3    H2  289   6.072   0.345   0.064 -0.9226  0.7130 -0.1466
  109TIP3   OH2  290   0.215   2.238   1.310  0.3335  0.4664  0.0256
  109TIP3    H1  291   0.209   2.320   1.359 -0.2349  0.2483  0.3345
  109TIP3    H2  292   0.288   2.251   1.249 -0.5976  1.7088 -0.8777
  110TIP3   OH2  293   1.899   1.283   2.806  0.5721 -0.1219  0.2386
  110TIP3    H1  294   1.866   1.283   2.717 -0.3981  0.6784  0.5768
  110TIP3    H2  295   1.966   1.351   2.808  1.4299 -0.9351 -0.1531
  111TIP3   OH2  296   4.620   0.822   4.590  0.2894 -0.1578  0.6304
  111TIP3    H1  297   4.605   0.916   4.579  0.7253 -0.1719 -0.1526
  111TIP3    H2  298   4.611   0.786   4.502 -1.0798 -1.0349  1.1026
  112TIP3   OH2  299   5.011   3.117   3.884 -0.2505 -0.4467  0.6947
  112TIP3    H1  300   5.017   3.024   3.860 -0.4147 -0.4600  0.7071
  112TIP3    H2  301   5.007   3.163   3.800 -2.0478 -0.5672  0.6848
  113TIP3   OH2  302   3.632   4.448   1.566  0.0541  0.0700 -0.3482
  113TIP3    H1  303   3.663   4.448   1.656  0.0025 -0.3990 -0.3268
  113TIP3    H2  304   3.707   4.480   1.515  0.7016 -1.3432 -0.3317
  114TIP3   OH2  305   0.955   3.547   1.322  0.3871 -0.1865  0.2153
  114TIP3    H1  306   1.038   3.500   1.326  0.2731 -0.3799  0.3180
  114TIP3    H2  307   0.952   3.597   1.404  0.7474  0.4068 -0.1279
  115TIP3   OH2  308   2.302   2.816   2.810  0.1302  0.7295 -0.2850
  115TIP3    H1  309   2.360   2.890   2.795  0.9042  0.6191  1.7496
  115TIP3    H2  310   2.362   2.741   2.821 -0.5266  0.1725 -0.4237
  116TIP3   OH2  311   0.009   3.921   4.852 -0.0230  0.3297  0.3626
  116TIP3    H1  312  -0.018   3.829   4.852 -0.5789  0.4543 -1.5395
  116TIP3    H2  313   0.103   3.918   4.838 -0.0038  0.0416  0.5425
  117TIP3   OH2  314   4.084   0.508   1.429 -0.2184 -0.3497  0.4469
  117TIP3    H1  315   4.114   0.595   1.455 -1.4148  0.7701 -1.6366
  117TIP3    H2  316   4.001   0.496   1.475 -0.8840  0.3733 -0.5201
  118TIP3   OH2  317   6.523   1.489   1.606 -0.0717 -0.2455 -0.1748
  118TIP3    H1  318   6.457   1.475   1.674  0.1688  0.2208  0.1567
  118TIP3    H2  319   6.482   1.455   1.526 -0.6978 -0.0184  0.0387
  119TIP3   OH2  320   2.563   0.982   2.672  0.4035 -0.2922  1.0009
  119TIP3    H1  321   2.596   0.906   2.624  1.2235 -0.5851  2.0001
  119TIP3    H2  322   2.545   0.948   2.760 -1.0799  0.2316  0.9166
  120TIP3   OH2  323   1.455   3.435   3.381  0.9527  0.1727 -0.6406
  120TIP3    H1  324   1.480   3.445   3.472  1.2895  0.2955 -0.7462
  120TIP3    H2  325   1.531   3.396   3.338  0.2290 -1.3763 -0.5624
  121TIP3   OH2  326   1.624   0.231   1.858  0.7534  0.0864  0.5992
  121TIP3    H1  327   1.616   0.176   1.779  0.0124  0.7433  0.2105
  121TIP3    H2  328   1.660   0.172   1.924 -2.0017 -1.4928  0.8195
  122TIP3   OH2  329   1.053   1.767   5.315 -0.5774 -0.9804 -0.5174
  122TIP3    H1  330   1.111   1.812   5.375 -0.7145  0.2912 -1.3004
  122TIP3    H2  331   0.967   1.772   5.356 -0.5140 -0.9053 -0.3939
  123TIP3   OH2  332   4.394   1.649   3.959  0.7302 -0.0209 -0.2765
  123TIP3    H1  333   4.482   1.623   3.931  2.0263  2.2593  1.3008
  123TIP3    H2  334   4.410   1.712   4.030 -2.2131 -1.3645  1.7593
  124TIP3   OH2  335   0.837   0.957   4.026 -0.0015  0.3167  0.6802
  124TIP3    H1  336   0.764   0.984   4.082 -0.4640 -0.2818  0.3808
  124TIP3    H2  337   0.851   0.865   4.049  0.1495  0.2171  0.1839
  125TIP3   OH2  338   0.350   4.524   3.499 -0.1458 -0.5290  0.0050
  125TIP3    H1  339   0.394   4.591   3.550  1.5109 -2.3567  1.1141
  125TIP3    H2  340   0.325   4.568   3.417  2.3124  1.0345  0.0158
  126TIP3   OH2  341   6.536   3.608   2.210  0.3774  0.3772  0.1858
  126TIP3    H1  342   6.604   3.541   2.214  0.0182  0.0674  2.1032
  126TIP3    H2  343   6.474   3.575   2.144  1.8945  0.5302 -1.3738
  127TIP3   OH2  344   0.906   0.158   1.854 -0.0159 -0.2884  0.0057
  127TIP3    H1  345   1.001   0.165   1.853 -0.0950  1.1929  0.2380
  127TIP3    H2  346   0.880   0.176   1.763 -0.0686 -0.7909 -0.0787
  128TIP3   OH2  347   1.992   1.745   2.819 -0.3893 -0.1112  0.3408
  128TIP3    H1  348   2.062   1.683   2.798 -0.6813 -0.1926 -0.3937
  128TIP3    H2  349   2.019   1.826   2.776 -0.8517 -0.2021 -0.1278
  129TIP3   OH2  350   1.240   0.346   1.756 -0.1500  0.0023 -0.2934
  129TIP3    H1  351   1.235   0.278   1.824  0.5699  0.8702  0.6615
  129TIP3    H2  352   1.156   0.391   1.763 -0.2851 -0.2389 -0.3354
  130TIP3   OH2  353   3.626   1.814   0.522 -0.3155 -0.0251 -0.3017
  130TIP3    H1  354   3.540   1.781   0.548 -0.6125  0.8603 -0.1197
  130TIP3    H2  355   3.629   1.804   0.427 -0.8219  0.3957 -0.3638
  131TIP3   OH2  356   1.105   1.228   1.072  0.3296  0.2936  0.0837
  131TIP3    H1  357   1.085   1.155   1.131  1.4992  0.4915  0.7586
  131TIP3    H2  358   1.019   1.265   1.051 -0.1586 -0.0728  1.3076
  132TIP3   OH2  359   5.908   1.610   4.435 -0.0338  0.3562 -0.1104
  132TIP3    H1  360   5.930   1.613   4.341 -0.9084  2.5925 -0.3177
  132TIP3    H2  361   5.858   1.690   4.450 -4.0991 -2.1382  1.2621
  133TIP3   OH2  362   1.245   1.871   2.142 -0.5994 -0.4237 -0.2003
  133TIP3    H1  363   1.322   1.813   2.143 -1.0460 -1.0495 -0.8256
  133TIP3    H2  364   1.273   1.947   2.092 -0.1547 -0.3163  0.2060
  134TIP3   OH2  365   5.732   6.779   5.741  0.1669 -0.1525  0.0142
  134TIP3    H1  366   5.767   6.699   5.780  1.5703 -1.3823 -3.4514
  134TIP3    H2  367   5.646   6.754   5.708  0.4440 -0.1654 -0.7252
  135TIP3   OH2  368   6.667   6.020   0.931 -0.2978  1.1898  0.2561
  135TIP3    H1  369   6.699   5.930   0.942  0.0752  1.2126 -0.5773
  135TIP3    H2  370   6.572   6.012   0.934 -0.2772  0.7141 -0.1503
  136TIP3   OH2  371   5.413   2.640   0.685 -0.6792  0.0811  0.1903
  136TIP3    H1  372   5.329   2.656   0.728 -0.6139  2.0708 -0.3251
  136TIP3    H2  373   5.474   2.625   0.757 -1.1547  0.2872  0.6441
  137TIP3   OH2  374   3.916   1.256   2.791  0.3240 -0.0279 -0.3893
  137TIP3    H1  375   3.971   1.334   2.799 -1.2865  1.0437  0.9075
  137TIP3    H2  376   3.837   1.277   2.842  0.2090 -2.8230  0.7587
  138TIP3   OH2  377   2.599   0.120   1.334 -0.0089 -0.6012 -0.1554
  138TIP3    H1  378   2.580   0.080   1.419  0.4556  0.4833  0.4694
  138TIP3    H2  379   2.689   0.152   1.342 -0.2793  0.3278 -0.7456
  139TIP3   OH2  380   0.131   3.519   4.378 -0.4511 -0.4141 -0.3343
  139TIP3    H1  381   0.138   3.435   4.424 -3.0771 -0.9238 -0.6727
  139TIP3    H2  382   0.174   3.504   4.294 -0.8509 -1.4332 -0.3752
  140TIP3   OH2  383   4.669   4.677   3.881 -0.2969  0.0903 -0.4245
  140TIP3    H1  384   4.753   4.713   3.850  0.3024  0.1767  1.2148
  140TIP3    H2  385   4.692   4.595   3.923 -0.3088  1.9250  3.6769
  141TIP3   OH2  386   1.152   1.111   2.862  0.1384 -0.2561  0.4628
  141TIP3    H1  387   1.120   1.035   2.813 -0.2848 -0.4341  1.0149
  141TIP3    H2  388   1.246   1.113   2.844  0.4283 -1.7872  1.6138
  142TIP3   OH2  389   7.216   5.971   1.962  0.3257 -0.0852  0.4173
  142TIP3    H1  390   7.193   5.885   1.926 -0.1299 -0.6200  1.9301
  142TIP3    H2  391   7.151   6.030   1.925  0.0349 -0.5604  0.1546
  143TIP3   OH2  392   6.408   3.133   4.843  0.4216  0.2579  0.0458
  143TIP3    H1  393   6.439   3.169   4.759  2.8430 -0.8021  0.4011
  143TIP3    H2  394   6.314   3.122   4.831  0.8249 -0.8513 -2.9569
  144TIP3   OH2  395   4.255   5.520   1.527  0.5470  0.3001 -0.1108
  144TIP3    H1  396   4.309   5.477   1.461  1.6970  1.7702 -0.1746
  144TIP3    H2  397   4.231   5.450   1.588  2.1540 -0.4820 -0.3238
  145TIP3   OH2  398   3.108   5.022   3.498 -0.0945  0.3621 -0.1620
  145TIP3    H1  399   3.107   5.069   3.581  1.9205 -0.1569  0.2087
  145TIP3    H2  400   3.194   5.042   3.460 -0.4187 -0.5451 -1.4474
  146TIP3   OH2  401   6.753   5.986   5.361 -0.5782  0.0096  0.4887
  146TIP3    H1  402   6.715   5.986   5.272 -1.3110  2.1868  0.7400
  146TIP3    H2  403   6.712   5.910   5.403 -1.4504 -0.1323 -0.5437
  147TIP3   OH2  404   4.284   3.222   2.319  0.6468 -0.3190 -0.3175
  147TIP3    H1  405   4.254   3.151   2.262 -0.1690  1.6567 -2.4969
  147TIP3    H2  406   4.210   3.240   2.377  0.1725 -0.0906 -0.9787
  148TIP3   OH2  407   4.605   5.238   3.597 -0.5290 -0.4255  0.2414
  148TIP3    H1  408   4.527   5.204   3.554  1.1260 -2.2154 -1.5373
  148TIP3    H2  409   4.572   5.283   3.675 -3.4604  0.5338 -1.4083
  149TIP3   OH2  410   1.010   4.585   3.664  0.7671  0.2221 -0.2414
  149TIP3    H1  411   0.929   4.597   3.615 -0.1258  0.4205  1.2074
  149TIP3    H2  412   1.062   4.664   3.647 -0.1772  0.9777  0.3087
  150TIP3   OH2  413   3.180   0.469   3.151  0.2658 -0.1587  0.5012
  150TIP3    H1  414   3.133   0.552   3.149 -1.2522 -1.0020 -0.6193
  150TIP3    H2  415   3.196   0.453   3.244 -0.0825  0.9986  0.7857
  151TIP3   OH2  416   3.264   4.452   0.242 -0.7442 -0.1095 -0.4817
  151TIP3    H1  417   3.259   4.532   0.190  0.1260 -0.1437 -0.6273
  151TIP3    H2  418   3.337   4.403   0.204 -0.8475 -0.6701  0.0273
  152TIP3   OH2  419   0.664   6.316   5.622 -0.1943 -0.4706 -0.5626
  152TIP3    H1  420   0.711   6.388   5.664 -1.1899  0.2168 -0.5918
  152TIP3    H2  421   0.731   6.250   5.605  0.7749  0.5397 -0.7311
  153TIP3   OH2  422   7.196   4.022   1.065  0.6203 -0.3338 -0.3298
  153TIP3    H1  423   7.240   3.950   1.111 -0.0752 -0.8776 -0.5001
  153TIP3    H2  424   7.154   3.980   0.990  0.6427  0.3393 -0.7297
  154TIP3   OH2  425   6.293   5.882   5.801  0.3580  0.0535  0.0724
  154TIP3    H1  426   6.275   5.903   5.709 -0.1024  3.6628  0.8124
  154TIP3    H2  427   6.217   5.831   5.829 -0.2993  0.2931 -1.1636
  155TIP3   OH2  428   4.007   5.616   5.527 -0.2685  0.4042 -0.0631
  155TIP3    H1  429   3.999   5.710   5.515  0.0059  0.8512  2.6093
  155TIP3    H2  430   4.069   5.606   5.599 -0.4544 -1.8231 -0.1374
  156TIP3   OH2  431   0.966   4.366   0.272 -0.8665  0.0651 -0.3649
  156TIP3    H1  432   1.015   4.398   0.197  1.2951 -2.2310 -0.0530
  156TIP3    H2  433   0.895   4.314   0.234 -2.1351  1.9963 -0.7863
  157TIP3   OH2  434   5.325   6.412   0.686  0.0020  0.1378 -0.1785
  157TIP3    H1  435   5.311   6.476   0.756  0.0915  0.1101 -0.1341
  157TIP3    H2  436   5.421   6.405   0.680  0.0701  1.6680 -1.6870
  158TIP3   OH2  437   2.283   6.499   5.160  0.1528 -0.1176 -0.1609
  158TIP3    H1  438   2.256   6.585   5.192  1.7885  0.4592 -0.2242
  158TIP3    H2  439   2.353   6.518   5.097 -1.1003 -1.3748 -2.0488
  159TIP3   OH2  440   3.775   1.523   5.517  0.2843  0.2158 -0.1690
  159TIP3    H1  441   3.809   1.609   5.540  1.4220 -0.0351 -0.8380
  159TIP3    H2  442   3.722   1.538   5.439  0.9048  0.2409 -0.5907
  160TIP3   OH2  443   4.593   6.118   2.819 -0.5062  0.0977 -0.8908
  160TIP3    H1  444   4.536   6.047   2.789  1.0450 -0.5627 -2.4344
  160TIP3    H2  445   4.538   6.196   2.818 -1.4582 -0.5649 -2.0415
  161TIP3   OH2  446   2.452   5.210   2.951 -0.0418  0.3610  0.3164
  161TIP3    H1  447   2.385   5.146   2.925  0.9209  0.3734 -2.5834
  161TIP3    H2  448   2.525   5.193   2.892  0.8129  3.2074  0.4126
  162TIP3   OH2  449   1.638   1.556   1.671 -0.0532  0.1711 -0.1376
  162TIP3    H1  450   1.725   1.577   1.704 -0.0226 -1.2792  0.8272
  162TIP3    H2  451   1.623   1.617   1.599  1.3679  1.0617  0.2945
  163TIP3   OH2  452   4.378   5.405   2.849  0.0929  0.2572  0.5106
  163TIP3    H1  453   4.342   5.321   2.874 -1.8330  0.4524 -1.3739
  163TIP3    H2  454   4.304   5.466   2.853  0.6834  1.1719 -1.2107
  164TIP3   OH2  455   5.285   6.631   3.527 -0.0759  0.0821 -0.2710
  164TIP3    H1  456   5.376   6.651   3.507 -0.1759  0.7388 -0.1111
  164TIP3    H2  457   5.289   6.570   3.601  0.2241  1.5993  1.0133
  165TIP3   OH2  458   4.724   4.548   5.440  0.0525  0.0690 -0.2289
  165TIP3    H1  459   4.780   4.617   5.475 -0.2155  0.5949 -0.8317
  165TIP3    H2  460   4.672   4.590   5.372  0.5163 -0.9265 -1.2264
  166TIP3   OH2  461   0.108   4.215   3.251  0.1928  0.6289 -0.8242
  166TIP3    H1  462   0.048   4.164   3.306  0.5903  0.7888 -0.2392
  166TIP3    H2  463   0.055   4.239   3.175 -0.4659  0.6829 -0.3592
  167TIP3   OH2  464   7.150   2.236   3.458 -0.0030  0.3941  0.4971
  167TIP3    H1  465   7.108   2.304   3.511 -0.9411  0.0836  0.1704
  167TIP3    H2  466   7.181   2.172   3.522  0.5529  0.9396  0.7849
  168TIP3   OH2  467   2.057   1.083   2.888  0.1342 -0.1655 -0.2326
  168TIP3    H1  468   2.012   1.045   2.963  1.5712  0.8470  1.2273
  168TIP3    H2  469   2.006   1.160   2.865  0.7284  0.6329  1.0178
  169TIP3   OH2  470   5.211   4.620   4.492 -0.0266 -0.0200 -0.5911
  169TIP3    H1  471   5.293   4.637   4.539  0.7445  1.0054 -2.2245
  169TIP3    H2  472   5.166   4.704   4.492 -0.7558 -0.4056 -0.3211
  170TIP3   OH2  473   4.473   0.644   1.011  0.2185  0.0182  0.0775
  170TIP3    H1  474   4.486   0.619   1.102 -0.2921 -0.5243  0.0003
  170TIP3    H2  475   4.388   0.608   0.987 -1.0163  2.5674  0.2317
  171TIP3   OH2  476   0.558   5.883   5.184 -0.0241  0.1606 -0.5970
  171TIP3    H1  477   0.475   5.888   5.137 -0.0070 -0.3717 -0.6902
  171TIP3    H2  478   0.533   5.862   5.274  0.0568 -0.9590 -0.8286
  172TIP3   OH2  479   4.774   3.094   1.033  0.1916  0.0334 -0.3258
  172TIP3    H1  480   4.807   3.174   0.993 -0.4206 -0.7278 -2.4713
  172TIP3    H2  481   4.706   3.062   0.973 -0.6575 -1.2833  1.2489
  173TIP3   OH2  482   1.025   3.465   1.797 -0.4739 -0.4385  0.1611
  173TIP3    H1  483   0.952   3.437   1.742 -0.4362 -0.1094 -0.0553
  173TIP3    H2  484   1.104   3.444   1.747 -0.4107 -0.9155  0.4504
  174TIP3   OH2  485   1.002   4.860   2.646 -0.2390 -0.1654  0.3371
  174TIP3    H1  486   1.074   4.892   2.592 -0.4914  2.2692  1.3151
  174TIP3    H2  487   0.924   4.903   2.611 -1.1907 -2.2628 -0.2973
  175TIP3   OH2  488   6.772   6.516   3.833 -0.4151 -0.6081  0.4056
  175TIP3    H1  489   6.754   6.609   3.849  1.6369 -0.2246  0.7636
  175TIP3    H2  490   6.795   6.481   3.919 -1.4299 -1.5345  0.3164
  176TIP3   OH2  491   0.256   6.191   5.144  0.4289  0.6456  0.2127
  176TIP3    H1  492   0.163   6.196   5.122  0.3908  1.7863  0.5619
  176TIP3    H2  493   0.258   6.192   5.240  0.8246  1.5811  0.2065
  177TIP3   OH2  494   2.984   4.794   0.724  0.3425  0.4437 -0.1025
  177TIP3    H1  495   2.925   4.720   0.733  0.5886  0.4310  1.8293
  177TIP3    H2  496   2.941   4.865   0.773  0.8205  1.1297 -0.6551
  178TIP3   OH2  497   2.013   3.981   5.567  0.5788  0.1835 -0.1420
  178TIP3    H1  498   1.927   3.986   5.610 -0.2864 -1.5800 -1.5388
  178TIP3    H2  499   2.056   3.906   5.608  0.0174 -1.0913 -1.7641
  179TIP3   OH2  500   6.188   6.666   2.733 -0.1442  0.2272  0.6776
  179TIP3    H1  501   6.199   6.754   2.697  1.1700 -0.7356 -1.4684
  179TIP3    H2  502   6.275   6.642   2.764 -0.1450 -0.8317 -0.0790
  180TIP3   OH2  503   1.961   1.220   1.828 -0.1035  0.4483 -0.4028
  180TIP3    H1  504   2.010   1.139   1.837  0.1668  0.7243  0.7234
  180TIP3    H2  505   1.966   1.241   1.734  0.9807 -0.1053 -0.4833
  181TIP3   OH2  506   7.041   4.731   3.903 -0.1956  0.2855 -0.1712
  181TIP3    H1  507   7.106   4.661   3.903  1.2337  1.5515  0.7763
  181TIP3    H2  508   7.076   4.797   3.962 -2.1090  1.2684 -0.0409
  182TIP3   OH2  509   7.088   6.732   4.970 -0.2202 -0.2606 -0.1792
  182TIP3    H1  510   7.107   6.656   5.025 -1.3564 -0.0051  0.5916
  182TIP3    H2  511   7.156   6.796   4.995 -1.0208  0.0433  1.3414
  183TIP3   OH2  512   5.713   1.715   2.734  0.2003 -0.0649 -0.1445
  183TIP3    H1  513   5.622   1.705   2.705  0.9167 -3.9434 -1.6498
  183TIP3    H2  514   5.756   1.763   2.663 -0.1231 -0.7161 -0.7897
  184TIP3   OH2  515   5.924   3.154   4.590 -0.5745 -0.2231 -0.2134
  184TIP3    H1  516   5.913   3.249   4.584 -0.4718 -0.2670 -1.1593
  184TIP3    H2  517   5.914   3.135   4.684 -0.1335  0.7747  0.0508
  185TIP3   OH2  518   2.014   6.340   5.229  0.2855  0.2029  0.0087
  185TIP3    H1  519   2.093   6.364   5.277 -0.8543  0.1591  1.9908
  185TIP3    H2  520   2.045   6.323   5.140  2.4432  0.5088  0.6398
  186TIP3   OH2  521   1.167   2.256   1.546 -0.3832 -0.0799 -0.1126
  186TIP3    H1  522   1.177   2.310   1.625  1.2028 -1.1454  0.4794
  186TIP3    H2  523   1.155   2.167   1.580 -0.7359 -0.4005 -1.0647
  187TIP3   OH2  524   6.862   5.165   1.258 -0.1469 -0.3729  0.4434
  187TIP3    H1  525   6.920   5.208   1.195 -0.3407 -0.1961  0.3848
  187TIP3    H2  526   6.775   5.169   1.217 -0.3323  0.0374  0.8678
  188TIP3   OH2  527   5.944   1.397   3.836  0.3118 -0.3030 -0.7073
  188TIP3    H1  528   6.037   1.420   3.834 -0.0194  1.7897  2.1158
  188TIP3    H2  529   5.943   1.302   3.850  1.9827 -0.4208 -1.1650
  189TIP3   OH2  530   5.144   6.218   1.795 -0.6232  0.4931 -0.1700
  189TIP3    H1  531   5.236   6.244   1.796 -0.7403  0.9096  0.2335
  189TIP3    H2  532   5.096   6.298   1.815 -1.0092  0.0448  0.7679
  190TIP3   OH2  533   0.393   0.634   1.215  0.1864  0.4339  0.3436
  190TIP3    H1  534   0.477   0.669   1.245 -0.4219  2.3694 -0.1212
  190TIP3    H2  535   0.392   0.650   1.121 -0.3427 -0.4237  0.1827
  191TIP3   OH2  536   6.131   5.328   3.448  0.0513 -0.5560 -0.1116
  191TIP3    H1  537   6.163   5.416   3.433  0.0718 -0.4252  0.6560
  191TIP3    H2  538   6.053   5.321   3.393 -0.3249  0.1703  0.3168
  192TIP3   OH2  539   3.195   0.019   2.323  0.2853 -0.4892  0.4953
  192TIP3    H1  540   3.284  -0.005   2.349  0.3081 -0.1779  0.7113
  192TIP3    H2  541   3.207   0.065   2.239  0.4473  0.5454  1.0711
  193TIP3   OH2  542   4.067   0.273   0.387 -0.0469 -0.8066  0.2758
  193TIP3    H1  543   4.088   0.359   0.422 -0.4362 -0.8890  0.7229
  193TIP3    H2  544   3.972   0.266   0.397 -0.2314 -0.6847 -1.1162
  194TIP3   OH2  545   1.394   4.600   3.517  0.1556 -0.0020 -0.0384
  194TIP3    H1  546   1.361   4.606   3.607  0.9537  0.9073  0.2188
  194TIP3    H2  547   1.316   4.607   3.463 -0.4941 -1.8949  0.5733
  195TIP3   OH2  548   5.331   0.902   2.835  0.0112  0.2300  0.7942
  195TIP3    H1  549   5.325   0.846   2.912 -0.2255  1.6326  1.8491
  195TIP3    H2  550   5.425   0.907   2.816  0.2314  1.1037  1.9806
  196TIP3   OH2  551   5.337   4.364   5.572 -0.5237  0.0603  0.0055
  196TIP3    H1  552   5.306   4.293   5.516 -4.5750 -0.5044  2.5495
  196TIP3    H2  553   5.270   4.431   5.566  2.0956  2.8498 -0.5779
  197TIP3   OH2  554   4.620   3.037   0.803  0.0384  0.3213  0.0995
  197TIP3    H1  555   4.592   2.946   0.818  0.2926  0.3323  0.6966
  197TIP3    H2  556   4.659   3.036   0.716 -1.1387  0.1461 -0.4399
  198TIP3   OH2  557   6.496   1.910   2.133 -0.0111  0.5519 -0.3386
  198TIP3    H1  558   6.421   1.904   2.191  0.2654 -0.4415 -0.0621
  198TIP3    H2  559   6.468   1.867   2.052  0.8670 -1.6734  0.4538
  199TIP3   OH2  560   0.675   0.967   0.755  0.1030 -0.2199  0.0069
  199TIP3    H1  561   0.591   1.010   0.772  0.6783 -0.0635  2.8711
  199TIP3    H2  562   0.740   1.037   0.766  0.7640 -0.8269  0.0186
  200TIP3   OH2  563   0.826   5.224   5.665  0.0181 -0.4200  0.4964
  200TIP3    H1  564   0.809   5.173   5.586 -0.0338 -0.1509  0.3317
  200TIP3    H2  565   0.919   5.246   5.661 -0.4295  1.5376 -0.6743
  201TIP3   OH2  566   5.542   2.346   2.495 -0.4421  0.6077 -0.5643
  201TIP3    H1  567   5.521   2.395   2.576 -0.4113  0.4664 -0.4712
  201TIP3    H2  568   5.604   2.403   2.449 -1.3607  1.2435 -1.0584
  202TIP3   OH2  569   0.193   4.465   4.988  0.3197 -0.5668  0.7708
  202TIP3    H1  570   0.235   4.525   5.049 -1.2080  2.1612 -0.6912
  202TIP3    H2  571   0.131   4.519   4.940 -0.2514 -3.0884 -1.5551
  203TIP3   OH2  572   6.395   1.330   2.560  0.4576  0.2523  0.2004
  203TIP3    H1  573   6.469   1.301   2.506  1.2464  1.0494  0.8295
  203TIP3    H2  574   6.326   1.350   2.497  1.4270  1.3466 -0.5447
  204TIP3   OH2  575   1.486   3.640   2.468  0.0520 -0.4150  0.2030
  204TIP3    H1  576   1.449   3.565   2.421 -0.2707 -0.1131 -0.0261
  204TIP3    H2  577   1.557   3.671   2.412  0.3376 -0.6882  0.4079
  205TIP3   OH2  578   4.546   2.330   2.620 -0.0382  0.4953  0.6584
  205TIP3    H1  579   4.530   2.391   2.548 -1.2894 -0.2485  0.2752
  205TIP3    H2  580   4.635   2.349   2.648 -0.7226  3.2234  1.2799
  206TIP3   OH2  581   4.893   0.302   0.649  0.0814 -0.2904 -0.5092
  206TIP3    H1  582   4.938   0.218   0.660 -0.8076 -0.5042  2.3179
  206TIP3    H2  583   4.804   0.279   0.626 -0.7802 -0.3503  2.4797
  207TIP3   OH2  584   2.557   1.712   5.414 -0.1638  0.2156  0.2976
  207TIP3    H1  585   2.611   1.790   5.404  0.4082 -0.2521 -0.4329
  207TIP3    H2  586   2.522   1.696   5.326  1.4989 -1.5773 -0.1141
  208TIP3   OH2  587   6.653   5.799   4.584  0.4733  0.2052  0.1661
  208TIP3    H1  588   6.700   5.868   4.632  0.6976 -0.4331  0.8936
  208TIP3    H2  589   6.561   5.822   4.592  0.6041  1.0165 -0.5525
  209TIP3   OH2  590   5.997   5.774   3.260 -0.4302 -0.2613  0.2610
  209TIP3    H1  591   6.040   5.736   3.184 -0.4488  1.0451 -0.4363
  209TIP3    H2  592   6.067   5.786   3.325 -0.4518 -1.5607  0.5366
  210TIP3   OH2  593   1.717   5.797   3.260  0.3706  0.0813  0.2179
  210TIP3    H1  594   1.676   5.761   3.338 -0.5776  0.8283  0.0894
  210TIP3    H2  595   1.772   5.869   3.293  1.2919 -0.6569  0.3465
  211TIP3   OH2  596   6.471   6.075   4.484  0.1149  0.5895 -0.3976
  211TIP3    H1  597   6.441   6.061   4.394  0.0585 -0.2298 -0.2588
  211TIP3    H2  598   6.409   6.026   4.538 -0.8927  2.4980  0.2441
  212TIP3   OH2  599   1.165   3.047   4.181  0.4923 -0.5963  0.1074
  212TIP3    H1  600   1.110   2.989   4.233 -1.3081  0.7921 -0.1657
  212TIP3    H2  601   1.209   3.104   4.244  0.3960 -0.6684  0.2381
  213TIP3   OH2  602   1.476   2.783   4.120 -0.1331  0.0155  0.6348
  213TIP3    H1  603   1.411   2.788   4.189 -0.5396 -0.7058  0.3217
  213TIP3    H2  604   1.540   2.719   4.151  0.7334  1.1142  1.1764
  214TIP3   OH2  605   6.565   5.864   5.840  0.0343 -0.2456 -0.2933
  214TIP3    H1  606   6.575   5.772   5.815 -0.5642  0.1892 -2.2453
  214TIP3    H2  607   6.471   5.876   5.854  0.2313 -0.1894  1.1554
  215TIP3   OH2  608   4.073   6.470   5.714  0.8619 -0.4332  0.0221
  215TIP3    H1  609   3.988   6.426   5.712  1.1804 -1.0358 -0.5512
  215TIP3    H2  610   4.092   6.480   5.808  0.4918 -0.9452  0.1605
  216TIP3   OH2  611   5.027   1.393   2.454 -0.2205 -0.0580  0.5884
  216TIP3    H1  612   4.983   1.382   2.538 -0.7405 -1.6543  0.1424
  216TIP3    H2  613   4.959   1.379   2.389  0.0381  1.7910 -0.1383
  217TIP3   OH2  614   2.935   4.234   0.826  0.5017  0.2825 -0.3040
  217TIP3    H1  615   2.996   4.172   0.787  1.2313  0.0317  1.1629
  217TIP3    H2  616   2.989   4.305   0.858 -0.0148  0.3275  0.5150
  218TIP3   OH2  617   1.337   0.188   4.265  0.0171 -0.2282  0.3432
  218TIP3    H1  618   1.250   0.191   4.305 -0.0704  1.2518  0.1103
  218TIP3    H2  619   1.398   0.184   4.338 -0.2210 -0.1268  0.5479
  219TIP3   OH2  620   1.102   1.792   2.591  0.3405  0.4196 -0.0874
  219TIP3    H1  621   1.163   1.728   2.628  1.3801  0.8434 -1.0249
  219TIP3    H2  622   1.084   1.852   2.663  0.0118 -0.4396  0.5625
  220TIP3   OH2  623   6.734   4.766   0.728  0.2168  0.0188 -0.1846
  220TIP3    H1  624   6.697   4.715   0.800 -2.5660  1.1432 -0.6916
  220TIP3    H2  625   6.791   4.830   0.770  0.7767 -1.0555  0.7504
  221TIP3   OH2  626   0.269   5.059   0.514  0.1544 -0.4416 -0.5931
  221TIP3    H1  627   0.363   5.078   0.523  0.0618 -0.5393  0.8477
  221TIP3    H2  628   0.251   5.073   0.421  1.3317  0.8391 -0.6762
  222TIP3   OH2  629   1.613   3.436   3.605  0.2121 -0.1284 -0.1392
  222TIP3    H1  630   1.571   3.370   3.661 -1.0094  0.5019 -0.2947
  222TIP3    H2  631   1.648   3.501   3.667  1.1843 -0.7528 -0.0002
  223TIP3   OH2  632   7.160   1.843   2.176  0.4193  0.2014 -0.0017
  223TIP3    H1  633   7.152   1.898   2.098 -0.8243  0.8170  0.5280
  223TIP3    H2  634   7.162   1.905   2.249  2.5819 -0.3093  0.4508
  224TIP3   OH2  635   5.110   5.080   2.751 -0.3847  0.0820 -0.2778
  224TIP3    H1  636   5.027   5.073   2.704  0.2780 -0.3933 -1.4141
  224TIP3    H2  637   5.167   5.017   2.708  0.0103 -1.0095  1.7197
  225TIP3   OH2  638   5.180   4.098   1.767  0.4958 -0.0943  0.3024
  225TIP3    H1  639   5.151   4.186   1.745  0.8461 -0.4734 -1.9056
  225TIP3    H2  640   5.099   4.049   1.779  0.2144 -0.0677 -1.2172
  226TIP3   OH2  641   5.493   6.643   3.143  0.1221  0.6362 -0.3196
  226TIP3    H1  642   5.468   6.715   3.201  0.5890  0.9199 -0.4660
  226TIP3    H2  643   5.430   6.573   3.163 -0.2039  1.0075 -0.0292
  227TIP3   OH2  644   1.019   3.082   3.887 -0.4139  0.0260 -0.1188
  227TIP3    H1  645   1.100   3.088   3.937 -0.6605 -1.4658  0.5147
  227TIP3    H2  646   0.999   2.989   3.885 -2.0255  0.3481 -0.4050
  228TIP3   OH2  647   0.327   3.323   3.888 -0.0614 -0.0913 -0.0452
  228TIP3    H1  648   0.288   3.361   3.810  0.9991 -1.2067 -1.1553
  228TIP3    H2  649   0.369   3.397   3.932 -0.5458  0.5233 -0.5902
  229TIP3   OH2  650   4.288   4.475   3.938 -0.2075 -0.2206  0.4962
  229TIP3    H1  651   4.321   4.546   3.884 -1.7790  1.8623  2.1271
  229TIP3    H2  652   4.361   4.453   3.996  1.0392 -1.5815 -1.4459
  230TIP3   OH2  653   5.812   5.796   1.735 -0.1698 -0.3881 -0.7943
  230TIP3    H1  654   5.864   5.792   1.815  0.0824  0.8829 -0.8681
  230TIP3    H2  655   5.873   5.828   1.668 -0.8770  0.5925 -1.0037
  231TIP3   OH2  656   3.980   1.242   3.491  0.3180 -0.2604  0.6375
  231TIP3    H1  657   4.056   1.234   3.548  0.0815  0.7644  1.1286
  231TIP3    H2  658   3.994   1.325   3.444 -0.4762 -0.0762  0.7093
  232TIP3   OH2  659   5.705   2.597   4.472  0.1110 -0.5871 -0.5300
  232TIP3    H1  660   5.640   2.528   4.484 -0.6020  0.0041 -0.8894
  232TIP3    H2  661   5.741   2.580   4.384  0.3570 -0.8428 -0.3806
  233TIP3   OH2  662   0.313   6.519   1.981  0.1251  0.5323  0.3697
  233TIP3    H1  663   0.383   6.574   2.016 -0.2528 -0.0522  2.1531
  233TIP3    H2  664   0.351   6.431   1.978  0.0353  0.5141 -0.4005
  234TIP3   OH2  665   4.791   1.949   1.944  0.5543 -0.0358  0.4928
  234TIP3    H1  666   4.711   1.932   1.894  0.8929  1.4242 -0.6032
  234TIP3    H2  667   4.829   1.862   1.960  0.1476 -0.5822 -1.3206
  235TIP3   OH2  668   5.883   3.476   4.488  0.1757 -0.2452  0.1003
  235TIP3    H1  669   5.880   3.490   4.583  1.1068 -1.9937  0.4450
  235TIP3    H2  670   5.914   3.560   4.453 -1.7024  0.9608  1.1401
  236TIP3   OH2  671   2.240   5.904   3.805  0.0913  0.0974 -0.2188
  236TIP3    H1  672   2.195   5.955   3.872  0.0328 -0.9343  0.5438
  236TIP3    H2  673   2.270   5.970   3.742  1.6715  1.3244  1.6612
  237TIP3   OH2  674   4.290   5.841   3.896 -0.1956  0.0881  1.1940
  237TIP3    H1  675   4.199   5.859   3.873 -0.6745 -2.7841  0.4729
  237TIP3    H2  676   4.331   5.820   3.812  0.3323 -1.5657  1.8171
  238TIP3   OH2  677   3.094   5.772   1.529 -0.1547 -0.2134  0.4363
  238TIP3    H1  678   3.056   5.803   1.447  1.6660  0.7969 -0.0966
  238TIP3    H2  679   3.026   5.785   1.594 -1.6257 -0.9608 -0.8701
  239TIP3   OH2  680   1.432   1.634   5.194  0.3094  0.4025  0.1792
  239TIP3    H1  681   1.341   1.625   5.165  0.5016 -0.3026 -0.2306
  239TIP3    H2  682   1.434   1.590   5.279  0.4765 -0.4648 -0.2597
  240TIP3   OH2  683   2.430   2.907   3.907 -0.1870 -0.3181  0.1796
  240TIP3    H1  684   2.391   2.830   3.864  2.1195 -1.3144 -0.2445
  240TIP3    H2  685   2.399   2.981   3.855 -1.2128 -1.0770 -0.3390
  241TIP3   OH2  686   2.988   6.156   1.346  0.3505  0.4743 -0.9562
  241TIP3    H1  687   2.922   6.225   1.355 -0.6771 -0.6747  0.8620
  241TIP3    H2  688   2.951   6.097   1.281 -1.2686 -0.9855  1.1628
  242TIP3   OH2  689   0.990   2.510   1.002  0.0170 -0.2404  0.5317
  242TIP3    H1  690   0.990   2.517   0.907 -1.3409  0.6490  0.5820
  242TIP3    H2  691   0.923   2.445   1.022  0.0891 -0.2054  0.9030
  243TIP3   OH2  692   0.016   3.160   5.535 -0.4143 -0.2705 -0.6897
  243TIP3    H1  693   0.019   3.064   5.532 -1.1622 -0.2878 -1.1504
  243TIP3    H2  694  -0.026   3.180   5.619  1.0431 -0.2925  0.0887
  244TIP3   OH2  695   5.359   1.976   2.583  0.1497 -0.3922 -0.3727
  244TIP3    H1  696   5.299   2.023   2.640 -0.4465 -3.0317  1.3665
  244TIP3    H2  697   5.446   2.001   2.614 -0.1264  0.1596 -0.0286
  245TIP3   OH2  698   5.664   1.241   0.027 -0.8561  0.3642  0.0468
  245TIP3    H1  699   5.629   1.294   0.098 -0.3938  0.3240  0.3088
  245TIP3    H2  700   5.631   1.153   0.045  0.4624  0.0324  1.0745
  246TIP3   OH2  701   3.920   3.389   3.636  0.7032  0.2698 -0.1402
  246TIP3    H1  702   3.994   3.358   3.688  1.3604 -0.9250 -1.7254
  246TIP3    H2  703   3.932   3.350   3.550 -1.8935 -0.1601 -0.4045
  247TIP3   OH2  704   7.059   4.857   1.897  0.2708  0.1755 -0.1896
  247TIP3    H1  705   7.119   4.879   1.826  0.1496 -0.3560 -0.4638
  247TIP3    H2  706   7.113   4.857   1.976  0.7588 -0.8675 -0.5132
  248TIP3   OH2  707   1.564   1.054   5.461  0.0577 -0.4746  0.1655
  248TIP3    H1  708   1.625   1.118   5.496  0.1443  0.2313 -1.1906
  248TIP3    H2  709   1.478   1.081   5.494  0.0821  0.4131 -0.4759
  249TIP3   OH2  710   3.308   3.930   3.394  0.4274  0.0236 -0.0400
  249TIP3    H1  711   3.346   3.933   3.306  0.9643 -0.5433  0.1670
  249TIP3    H2  712   3.383   3.936   3.453  0.2813 -1.7656  0.3852
  250TIP3   OH2  713   3.818   2.119   2.793  0.3898 -0.8000 -0.3889
  250TIP3    H1  714   3.840   2.137   2.702  0.5350 -1.1328 -0.4213
  250TIP3    H2  715   3.818   2.205   2.835  2.0535 -0.8026 -0.3239
  251TIP3   OH2  716   6.270   4.574   1.701 -0.5674 -0.8181  0.5288
  251TIP3    H1  717   6.314   4.658   1.712 -1.0069 -0.4938 -0.1089
  251TIP3    H2  718   6.341   4.512   1.686 -0.1846 -0.7130  1.7739
  252TIP3   OH2  719   4.613   4.009   4.456 -0.2908  0.2135  0.3426
  252TIP3    H1  720   4.529   3.975   4.486 -0.0837 -0.2654  0.3863
  252TIP3    H2  721   4.603   4.016   4.361  0.3931 -2.0849  0.0475
  253TIP3   OH2  722   6.512   5.496   1.885  0.2945  0.2403  0.2877
  253TIP3    H1  723   6.455   5.456   1.820  0.9291 -0.2495  0.0228
  253TIP3    H2  724   6.601   5.476   1.855  0.6031  0.6803  0.8840
  254TIP3   OH2  725   6.092   4.941   2.404 -0.5525 -0.0396  0.0730
  254TIP3    H1  726   6.118   4.867   2.460 -1.7743 -0.8561 -0.3791
  254TIP3    H2  727   6.041   4.997   2.462 -1.2403 -0.5408 -0.0273
  255TIP3   OH2  728   6.493   2.664   2.749  0.0681 -0.2985 -0.4963
  255TIP3    H1  729   6.477   2.618   2.831  0.0314 -0.6815 -0.7198
  255TIP3    H2  730   6.464   2.754   2.766 -1.4453 -0.7457 -0.5744
  256TIP3   OH2  731   7.008   2.582   1.035  0.1529  0.7990 -0.1850
  256TIP3    H1  732   7.038   2.667   1.067  0.3626  1.4315 -1.9534
  256TIP3    H2  733   7.087   2.539   1.003 -0.2141  0.7046 -0.9804
  257TIP3   OH2  734   6.174   5.369   3.946  0.1134  0.2291  0.4451
  257TIP3    H1  735   6.152   5.391   3.855 -1.5588  1.3397  1.0698
  257TIP3    H2  736   6.100   5.317   3.977  0.7637 -0.3112  1.1252
  258TIP3   OH2  737   4.906   1.406   4.563  0.2241 -0.7718 -0.2685
  258TIP3    H1  738   4.886   1.332   4.620  0.7968  0.0530  1.0210
  258TIP3    H2  739   4.834   1.468   4.578 -0.2706 -1.0532 -1.3652
  259TIP3   OH2  740   1.459   0.983   2.436 -0.2465 -0.1870  0.1617
  259TIP3    H1  741   1.518   0.948   2.369 -0.7656 -1.2102  0.2095
  259TIP3    H2  742   1.402   1.043   2.389 -0.9237 -1.2591 -0.4359
  260TIP3   OH2  743   3.988   5.331   3.589  0.0214 -0.2126 -0.0603
  260TIP3    H1  744   3.978   5.423   3.613 -2.0685 -0.1604 -0.9385
  260TIP3    H2  745   3.968   5.283   3.670 -0.8144  0.0860 -0.0797
  261TIP3   OH2  746   3.863   3.905   2.146 -0.1439  0.0435 -0.1388
  261TIP3    H1  747   3.795   3.840   2.166  1.7008 -2.0243 -0.2128
  261TIP3    H2  748   3.885   3.943   2.231 -1.0150  0.3690 -0.0472
  262TIP3   OH2  749   0.780   0.400   0.170 -0.0978  0.0092 -0.3500
  262TIP3    H1  750   0.741   0.364   0.249  1.1013 -0.8333 -0.1212
  262TIP3    H2  751   0.866   0.357   0.163 -0.3351 -0.2387 -2.3132
  263TIP3   OH2  752   3.695   3.519   3.697  0.1861  0.4738  0.2743
  263TIP3    H1  753   3.776   3.468   3.701 -1.0432 -1.4813  3.0611
  263TIP3    H2  754   3.687   3.559   3.784 -1.2263  1.6495 -0.3516
  264TIP3   OH2  755   2.157   0.559   3.375 -0.7880  0.7540 -0.7402
  264TIP3    H1  756   2.132   0.651   3.374 -0.8598  0.8284  1.7411
  264TIP3    H2  757   2.082   0.514   3.413 -0.5903 -0.2904 -1.5388
  265TIP3   OH2  758   1.325   4.993   5.179  0.0827  0.2719 -0.3223
  265TIP3    H1  759   1.288   4.923   5.232 -0.6469  0.2302 -0.8712
  265TIP3    H2  760   1.265   5.066   5.190  1.8948  1.5550  1.8900
  266TIP3   OH2  761   2.626   5.768   0.614 -0.0791  0.0519  0.0736
  266TIP3    H1  762   2.657   5.688   0.657 -0.6883 -1.6544 -2.4037
  266TIP3    H2  763   2.541   5.786   0.654 -0.7377 -1.6170 -0.4561
  267TIP3   OH2  764   6.618   0.065   1.972  0.5218  0.0686 -0.1331
  267TIP3    H1  765   6.578   0.129   2.031  1.7136  1.1952 -0.5080
  267TIP3    H2  766   6.681   0.018   2.027  0.2320 -0.2436 -0.0588
  268TIP3   OH2  767   0.202   0.130   3.942 -0.4991 -0.9074 -0.1741
  268TIP3    H1  768   0.222   0.058   3.882  0.6231  0.1592 -1.1518
  268TIP3    H2  769   0.113   0.113   3.972 -0.1263 -2.9148 -0.0309
  269TIP3   OH2  770   0.112   4.501   0.456 -0.0094 -0.2343  0.0099
  269TIP3    H1  771   0.204   4.499   0.479 -0.1276 -0.5500  0.4531
  269TIP3    H2  772   0.084   4.410   0.457 -0.5011 -0.0834  0.5898
  270TIP3   OH2  773   6.313   0.065   5.660  0.0709 -0.3675 -0.2035
  270TIP3    H1  774   6.380   0.010   5.620  1.5760  1.6557 -0.6148
  270TIP3    H2  775   6.285   0.017   5.738  1.9625 -1.2904 -0.0532
  271TIP3   OH2  776   3.116   5.005   2.949  0.7236  0.1027  0.0447
  271TIP3    H1  777   3.051   4.940   2.924 -0.3813  1.0389  0.3839
  271TIP3    H2  778   3.178   4.958   3.004  1.5535 -1.3002 -1.9569
  272TIP3   OH2  779   1.686   0.674   1.877  0.1178  0.2234 -0.4876
  272TIP3    H1  780   1.706   0.633   1.961 -1.4366 -1.7107 -0.9879
  272TIP3    H2  781   1.627   0.613   1.833 -1.4715  2.5039 -1.7874
  273TIP3   OH2  782   6.659   5.776   2.535 -0.0233 -0.2186  0.5026
  273TIP3    H1  783   6.705   5.699   2.500 -0.2733 -0.7932  1.4269
  273TIP3    H2  784   6.704   5.850   2.493  0.6728 -0.8315  0.1234
  274TIP3   OH2  785   2.851   5.722   5.374 -0.7202  0.6370 -0.1329
  274TIP3    H1  786   2.924   5.663   5.356 -0.0345  1.2117  0.6684
  274TIP3    H2  787   2.775   5.680   5.334 -0.2146 -0.6979  0.2847
  275TIP3   OH2  788   4.831   6.036   1.359 -0.3198 -0.3666  0.5138
  275TIP3    H1  789   4.780   6.056   1.280  0.2788 -3.1232 -0.6874
  275TIP3    H2  790   4.893   5.968   1.331  0.5976 -0.7143  3.1390
  276TIP3   OH2  791   5.405   0.650   4.611 -0.3342  0.5529  0.4166
  276TIP3    H1  792   5.488   0.684   4.641 -0.6590  1.8323 -0.0783
  276TIP3    H2  793   5.422   0.557   4.592  0.8824  0.7332  0.5925
  277TIP3   OH2  794   7.208   6.455   1.022  0.1177 -0.9904 -0.5760
  277TIP3    H1  795   7.240   6.544   1.034  1.4122 -1.4156 -0.6218
  277TIP3    H2  796   7.164   6.433   1.104 -1.1327  0.0257 -0.9464
  278TIP3   OH2  797   6.681   2.737   2.573 -0.0666  0.1048  0.1630
  278TIP3    H1  798   6.667   2.831   2.560  0.8886  0.1596 -0.5822
  278TIP3    H2  799   6.613   2.711   2.635 -1.8613  0.8128 -1.4228
  279TIP3   OH2  800   6.593   0.766   4.207 -0.7208  0.4169 -0.7432
  279TIP3    H1  801   6.605   0.842   4.262 -1.5442  0.0898 -0.0961
  279TIP3    H2  802   6.527   0.713   4.252  0.2197 -0.9458 -0.8888
  280TIP3   OH2  803   5.722   4.659   4.218 -0.1729  0.5154 -0.4009
  280TIP3    H1  804   5.793   4.621   4.270 -0.2809  0.7046 -0.1136
  280TIP3    H2  805   5.764   4.733   4.173 -0.1672  0.5694 -0.3060
  281TIP3   OH2  806   0.563   0.954   1.968 -0.2569 -0.6947 -0.3685
  281TIP3    H1  807   0.581   0.877   1.914 -1.1941 -0.1010 -1.5798
  281TIP3    H2  808   0.636   1.013   1.951  0.8545 -1.5637  1.1328
  282TIP3   OH2  809   2.053   0.585   2.029 -0.0271 -0.3830 -0.0916
  282TIP3    H1  810   2.086   0.603   1.941  0.5843 -1.3059 -0.0612
  282TIP3    H2  811   2.089   0.500   2.051  1.0428  0.4750  1.6668
  283TIP3   OH2  812   0.160   5.702   4.244  0.1811 -0.5286  0.8197
  283TIP3    H1  813   0.160   5.797   4.234 -0.4880 -0.6372 -0.4236
  283TIP3    H2  814   0.239   5.673   4.199  0.9136 -0.5033  2.0546
  284TIP3   OH2  815   6.780   3.036   4.808 -0.1888 -0.3039  0.0264
  284TIP3    H1  816   6.858   3.081   4.774 -0.9106  1.1348  0.1757
  284TIP3    H2  817   6.711   3.056   4.744 -1.2786  1.4512  1.6450
  285TIP3   OH2  818   5.341   1.618   0.427  0.6376 -0.2402  0.0593
  285TIP3    H1  819   5.435   1.601   0.428  0.9147  1.1019  2.1685
  285TIP3    H2  820   5.301   1.534   0.451  1.4401 -0.3075  1.2430
  286TIP3   OH2  821   2.749   5.184   3.521  0.0243  0.3862  0.0397
  286TIP3    H1  822   2.797   5.184   3.438 -1.2675  0.7110 -0.7327
  286TIP3    H2  823   2.727   5.092   3.536  1.7681  0.0776  0.9587
  287TIP3   OH2  824   5.834   4.262   3.422  0.0391  0.1076  1.0807
  287TIP3    H1  825   5.833   4.192   3.357  1.5507 -0.5160  1.6788
  287TIP3    H2  826   5.758   4.244   3.477 -0.3477 -0.2755  0.4376
  288TIP3   OH2  827   2.550   6.177   1.160  0.2402 -0.0131 -0.2929
  288TIP3    H1  828   2.487   6.178   1.232 -1.1026  1.2505 -1.4172
  288TIP3    H2  829   2.560   6.269   1.135  2.9040 -0.1341  0.1188
  289TIP3   OH2  830   6.549   5.436   3.425  0.0523  0.3874  0.1678
  289TIP3    H1  831   6.586   5.367   3.371 -0.3077 -1.1429  1.7791
  289TIP3    H2  832   6.588   5.517   3.391  0.2717 -0.5493 -1.9486
  290TIP3   OH2  833   3.842   5.789   5.263  0.6059 -0.3653 -0.0210
  290TIP3    H1  834   3.817   5.822   5.177  2.6340  2.3505  0.2848
  290TIP3    H2  835   3.824   5.695   5.259 -4.7488  0.3794 -1.3426
  291TIP3   OH2  836   6.307   1.300   5.484  0.3409 -0.0899 -0.2505
  291TIP3    H1  837   6.261   1.245   5.421 -2.0831 -1.1285  2.2330
  291TIP3    H2  838   6.262   1.384   5.480  0.8609  0.1734 -0.6201
  292TIP3   OH2  839   2.036   1.096   5.793 -0.3639 -0.3563  0.3350
  292TIP3    H1  840   1.987   1.027   5.748  1.7697 -2.2702  0.7706
  292TIP3    H2  841   2.093   1.048   5.854  1.4110  1.7871  0.4644
  293TIP3   OH2  842   4.550   2.952   0.245  0.1931 -0.0011 -0.1767
  293TIP3    H1  843   4.568   2.897   0.168  1.7761  0.0154  0.1535
  293TIP3    H2  844   4.470   2.999   0.222 -0.7034 -1.7558 -0.8446
  294TIP3   OH2  845   3.791   2.037  -0.006  0.1040  0.5499  0.3063
  294TIP3    H1  846   3.791   1.948   0.028  1.0452  0.6493  0.5725
  294TIP3    H2  847   3.818   2.092   0.068 -0.1530  1.0233  0.0558
  295TIP3   OH2  848   6.602   2.980   0.326  0.2502  0.1253 -0.0954
  295TIP3    H1  849   6.685   3.024   0.341 -0.7291  1.3385  2.4788
  295TIP3    H2  850   6.537   3.051   0.324 -1.2164 -0.9576  2.7218
  296TIP3   OH2  851   6.268   1.857   3.631 -0.1660 -0.0275  0.7106
  296TIP3    H1  852   6.238   1.807   3.707  0.3950  0.1797  1.0775
  296TIP3    H2  853   6.335   1.916   3.666  0.8096 -0.6076 -0.1036
  297TIP3   OH2  854   3.844   5.037   1.568 -0.3387 -0.0797  0.7124
  297TIP3    H1  855   3.907   5.066   1.634  1.9477 -2.3684 -0.3271
  297TIP3    H2  856   3.866   5.088   1.490 -0.2340 -0.4087  0.5297
  298TIP3   OH2  857   4.958   3.502   4.313 -0.1061  0.4844  0.4729
  298TIP3    H1  858   5.008   3.509   4.232 -0.1968 -1.9930  0.1218
  298TIP3    H2  859   4.989   3.575   4.367  1.6110  0.8371 -0.9006
  299TIP3   OH2  860   0.121   4.505   4.404  0.5543 -0.5980  0.4787
  299TIP3    H1  861   0.208   4.544   4.399  0.0917  0.3302 -1.5022
  299TIP3    H2  862   0.094   4.517   4.495  0.9656  2.6505  0.2852
  300TIP3   OH2  863   7.056   3.474   3.969 -0.6528 -0.6290  0.4767
  300TIP3    H1  864   7.129   3.447   4.024 -0.5280 -0.1868  0.5307
  300TIP3    H2  865   7.079   3.442   3.882 -0.5496 -0.7719  0.5553
  301TIP3   OH2  866   0.730   2.214   4.941 -0.3383 -0.5302 -0.1685
  301TIP3    H1  867   0.657   2.204   4.879 -0.1401 -0.2801 -0.4493
  301TIP3    H2  868   0.778   2.290   4.909  0.3805 -1.0308 -0.3342
  302TIP3   OH2  869   5.942   0.891   4.607  0.0286  0.0092  0.8967
  302TIP3    H1  870   5.983   0.978   4.607 -0.7155  0.4649 -1.5751
  302TIP3    H2  871   5.905   0.883   4.519 -0.9048 -2.3806  1.4340
  303TIP3   OH2  872   1.907   4.628   3.764 -0.0942 -0.1262 -0.4043
  303TIP3    H1  873   1.911   4.719   3.733  1.6166  0.1836  0.5921
  303TIP3    H2  874   1.971   4.581   3.710  1.9169  0.1423  1.5708
  304TIP3   OH2  875   4.963   4.770   3.609  0.2796 -0.1871 -0.5340
  304TIP3    H1  876   4.975   4.701   3.675  2.3807  0.0683 -0.5739
  304TIP3    H2  877   5.052   4.791   3.580 -0.4657  1.0148 -2.1237
  305TIP3   OH2  878   1.679   0.131   4.246 -0.3998 -0.5843  0.0024
  305TIP3    H1  879   1.767   0.095   4.260 -0.0026  0.2381 -0.2357
  305TIP3    H2  880   1.619   0.063   4.276  0.3327 -0.3244  2.2931
  306TIP3   OH2  881   6.814   4.587   2.063  0.1890 -0.0052  0.4443
  306TIP3    H1  882   6.730   4.568   2.022  0.6264 -0.2077 -0.3798
  306TIP3    H2  883   6.877   4.587   1.991  0.5573  2.4844  0.7017
  307TIP3   OH2  884   4.976   1.961   4.708  0.1362  0.0227  0.0881
  307TIP3    H1  885   5.063   2.000   4.697  0.0123  1.6168  3.4768
  307TIP3    H2  886   4.915   2.031   4.686 -0.3868 -1.0876 -2.2780
  308TIP3   OH2  887   1.685   4.544   2.398  0.1326  0.3726 -0.0463
  308TIP3    H1  888   1.654   4.455   2.379  0.0463  0.0412  1.4852
  308TIP3    H2  889   1.634   4.571   2.473 -0.7410  2.2553 -1.2609
  309TIP3   OH2  890   4.153   5.794   3.090  0.4782 -0.2097  0.2012
  309TIP3    H1  891   4.234   5.826   3.050 -0.7998  0.2321 -2.1930
  309TIP3    H2  892   4.104   5.756   3.018 -1.6751 -0.0179  1.4827
  310TIP3   OH2  893   7.175   2.610   5.420 -0.1071 -0.4096 -0.5123
  310TIP3    H1  894   7.205   2.539   5.477  0.9230 -0.3728 -0.9889
  310TIP3    H2  895   7.166   2.569   5.334  0.2262 -0.0191 -0.7331
  311TIP3   OH2  896   2.722   5.378   2.923 -0.1401  0.0421 -0.1044
  311TIP3    H1  897   2.628   5.370   2.904 -0.4246 -2.2839  1.8387
  311TIP3    H2  898   2.756   5.290   2.909  1.4728  0.5125  0.7152
  312TIP3   OH2  899   1.445   5.295   0.451 -0.4427 -0.5124  0.0841
  312TIP3    H1  900   1.461   5.204   0.429 -0.9222 -0.7552  0.7115
  312TIP3    H2  901   1.383   5.326   0.384 -0.1317 -0.5864 -0.2401
  313TIP3   OH2  902   4.569   4.253   3.368 -0.3891  0.2597 -0.5376
  313TIP3    H1  903   4.660   4.277   3.382 -0.2884 -0.3652 -0.0498
  313TIP3    H2  904   4.569   4.157   3.373 -0.9632  0.2130 -1.2150
  314TIP3   OH2  905   2.254   6.815   1.327 -0.0253  0.2715 -0.0254
  314TIP3    H1  906   2.224   6.833   1.415 -1.2546 -0.6778 -0.2259
  314TIP3    H2  907   2.305   6.734   1.334  1.4847  1.1944  0.1001
  315TIP3   OH2  908   5.415   5.100   0.977  0.0064  0.0160 -0.0986
  315TIP3    H1  909   5.337   5.060   1.017 -0.9088  1.3576 -0.4931
  315TIP3    H2  910   5.450   5.031   0.921 -0.2992 -0.9486  0.8490
  316TIP3   OH2  911   2.023   5.235   4.225 -0.0306  0.5508  0.2098
  316TIP3    H1  912   2.001   5.145   4.249 -1.9508  0.5698 -1.2387
  316TIP3    H2  913   2.111   5.229   4.188 -0.5242 -0.9392 -0.8136
  317TIP3   OH2  914   4.677   1.234   2.965 -0.4456  0.2514 -0.7564
  317TIP3    H1  915   4.760   1.203   2.928 -0.1720 -0.5906  0.5045
  317TIP3    H2  916   4.695   1.325   2.989  0.4194 -0.1626  0.2918
  318TIP3   OH2  917   2.050   4.459   2.704 -0.1210 -0.0170 -0.1218
  318TIP3    H1  918   2.066   4.550   2.727  0.3147 -0.2168  0.3792
  318TIP3    H2  919   1.958   4.457   2.677 -0.1850  0.5331  0.0420
  319TIP3   OH2  920   2.676   3.049   1.871  0.3141 -0.4702  0.8267
  319TIP3    H1  921   2.697   2.988   1.941 -2.4047 -2.1215  0.3525
  319TIP3    H2  922   2.612   3.108   1.910  2.4509  1.8335  1.0935
  320TIP3   OH2  923   3.777   3.710   0.992 -0.2029  0.5955  0.6721
  320TIP3    H1  924   3.728   3.642   1.037  2.2666  1.1019  4.5644
  320TIP3    H2  925   3.867   3.678   0.993  0.3809  1.9703 -1.5742
  321TIP3   OH2  926   3.234   5.960   0.081 -0.6494 -0.2507  0.4087
  321TIP3    H1  927   3.179   5.993   0.010 -0.2781  0.7966  0.5837
  321TIP3    H2  928   3.191   5.879   0.109 -1.1380 -0.3552 -0.5944
  322TIP3   OH2  929   0.846   6.446   0.756 -0.4631 -0.0247 -0.2471
  322TIP3    H1  930   0.922   6.458   0.700  0.3059  1.7814  1.0579
  322TIP3    H2  931   0.881   6.449   0.845 -1.7561 -1.7894  0.3820
  323TIP3   OH2  932   4.036   2.459   4.181  0.1889 -0.3136  0.1137
  323TIP3    H1  933   4.089   2.461   4.260  1.0004  0.3264 -0.4234
  323TIP3    H2  934   4.094   2.493   4.113 -0.9110  0.3697 -0.5078
  324TIP3   OH2  935   4.340   1.554   3.351  0.6445  0.3565 -0.2682
  324TIP3    H1  936   4.336   1.527   3.260  0.2557 -1.3245  0.2043
  324TIP3    H2  937   4.395   1.488   3.393 -0.6476  0.0514  1.0319
  325TIP3   OH2  938   2.747   4.429   4.250  0.6120 -0.0268  0.2021
  325TIP3    H1  939   2.710   4.485   4.318  1.5698  0.4369  0.3521
  325TIP3    H2  940   2.696   4.348   4.256 -0.2425  0.5242  0.5242
  326TIP3   OH2  941   2.645   2.415   5.291  0.2372  0.2704  0.0395
  326TIP3    H1  942   2.644   2.508   5.315 -0.4017  0.6227 -1.2583
  326TIP3    H2  943   2.730   2.384   5.320  0.8999  1.5423 -0.4467
  327TIP3   OH2  944   6.674   5.233   3.288  0.3840 -0.7258  0.3589
  327TIP3    H1  945   6.671   5.178   3.210  0.8422  0.3276 -0.4322
  327TIP3    H2  946   6.766   5.258   3.296  0.4202 -1.1830  1.5045
  328TIP3   OH2  947   2.997   5.365   0.389  0.0090 -0.2621 -0.0348
  328TIP3    H1  948   3.000   5.455   0.420 -0.1368 -0.5955  0.9689
  328TIP3    H2  949   2.928   5.365   0.322 -1.0131  0.0715  0.9870
  329TIP3   OH2  950   2.855   1.979   2.768 -0.3266  0.2046  0.5230
  329TIP3    H1  951   2.932   1.923   2.758 -0.4741  0.0095  0.4834
  329TIP3    H2  952   2.794   1.950   2.700 -1.3514 -1.1550  1.9567
  330TIP3   OH2  953   1.315   0.848   0.800  0.8330  0.0470 -0.2104
  330TIP3    H1  954   1.315   0.764   0.847  0.4649  0.6279  0.8665
  330TIP3    H2  955   1.252   0.835   0.728  1.4084 -0.8602 -0.5651
  331TIP3   OH2  956   0.501   0.934   1.349  0.1208 -0.1725 -0.5119
  331TIP3    H1  957   0.590   0.897   1.346  0.9661  1.5448  1.1242
  331TIP3    H2  958   0.494   0.972   1.436 -2.0175  0.2978 -0.8399
  332TIP3   OH2  959   2.962   1.037   3.236  0.1464 -0.0756  0.4472
  332TIP3    H1  960   3.050   1.011   3.211  0.2079  0.9162 -0.4303
  332TIP3    H2  961   2.971   1.125   3.274 -0.7931  1.5956 -2.8166
  333TIP3   OH2  962   2.387   1.570   4.463  0.1852  0.4836 -0.3435
  333TIP3    H1  963   2.431   1.534   4.386  1.8386 -2.1552  1.6579
  333TIP3    H2  964   2.294   1.555   4.447  0.3326  1.4254 -2.4307
  334TIP3   OH2  965   5.465   3.435   0.852 -0.1275 -0.3432  0.1503
  334TIP3    H1  966   5.435   3.424   0.942 -1.5815 -0.1421 -0.2857
  334TIP3    H2  967   5.419   3.367   0.803  0.4963 -0.3199 -0.4830
  335TIP3   OH2  968   4.994   4.126   3.706  0.1304 -0.4840  0.1092
  335TIP3    H1  969   4.939   4.065   3.657 -0.3217 -0.3261  0.4192
  335TIP3    H2  970   5.062   4.152   3.643  0.2906 -1.2453 -0.0519
  336TIP3   OH2  971   6.033   5.260   4.681  0.6608  0.0995 -0.4184
  336TIP3    H1  972   5.939   5.261   4.663  0.1930 -0.0243  1.6881
  336TIP3    H2  973   6.070   5.321   4.619 -0.8824  0.5064 -0.9959
  337TIP3   OH2  974   7.114   4.134   1.472 -0.2747  0.0565  0.1647
  337TIP3    H1  975   7.074   4.177   1.396 -0.2824 -1.1584 -0.5461
  337TIP3    H2  976   7.048   4.071   1.501  0.2128 -0.3382  0.4216
  338TIP3   OH2  977   3.158   4.071   0.790  0.3233 -0.1634  0.3954
  338TIP3    H1  978   3.189   4.056   0.701 -0.4480 -0.9948  0.2576
  338TIP3    H2  979   3.134   3.984   0.822 -1.3767  0.3872  0.6844
  339TIP3   OH2  980   2.548   2.041   4.891 -0.6320 -0.3610 -0.1045
  339TIP3    H1  981   2.593   2.082   4.965  0.8388  0.0794 -1.1989
  339TIP3    H2  982   2.456   2.065   4.903 -0.0723  1.8658  0.2162
  340TIP3   OH2  983   1.390   0.112   2.116 -0.3771  0.2161  0.0606
  340TIP3    H1  984   1.430   0.059   2.184  0.0159  0.2219 -0.1598
  340TIP3    H2  985   1.399   0.203   2.147  2.7553  0.5389 -1.4202
  341TIP3   OH2  986   4.491   5.184   1.600  0.4276  0.4241  0.0710
  341TIP3    H1  987   4.538   5.164   1.682  1.7057  0.0974 -0.7189
  341TIP3    H2  988   4.470   5.098   1.564  0.3599  0.5657 -0.2234
  342TIP3   OH2  989   2.388   1.107   2.515 -0.1343 -0.8455 -0.3809
  342TIP3    H1  990   2.437   1.048   2.573  1.9207 -1.2129 -2.3329
  342TIP3    H2  991   2.298   1.104   2.547  1.3293  1.8674  5.0827
  343TIP3   OH2  992   5.439   4.535   3.626  0.3356  0.2795  0.4075
  343TIP3    H1  993   5.406   4.619   3.657 -2.9224 -0.4585 -0.6065
  343TIP3    H2  994   5.475   4.493   3.704  0.7291  2.0287  1.2194
  344TIP3   OH2  995   2.498   3.101   5.407 -0.0314  0.0474 -0.1112
  344TIP3    H1  996   2.519   3.079   5.498 -0.3560  4.3117  1.1937
  344TIP3    H2  997   2.583   3.100   5.362  0.3001 -0.9661  0.5047
  345TIP3   OH2  998   3.961   0.700   0.263 -0.2350 -0.1053 -0.0685
  345TIP3    H1  999   3.933   0.655   0.184 -2.4180  1.3423 -0.1963
  345TIP3    H2 1000   3.932   0.790   0.251  0.4102  0.4144  1.9031
  346TIP3   OH2 1001   1.375   0.837   0.387  0.6882  0.4006 -0.3797
  346TIP3    H1 1002   1.331   0.805   0.308 -0.2961 -0.2176  0.4030
  346TIP3    H2 1003   1.429   0.763   0.416  0.3529  0.3129  0.0263
  347TIP3   OH2 1004   4.393   2.325   5.606 -0.3044  0.2881 -0.3113
  347TIP3    H1 1005   4.454   2.263   5.566 -0.8299 -0.1075 -0.4988
  347TIP3    H2 1006   4.311   2.277   5.613 -1.9644  2.1439 -4.2067
  348TIP3   OH2 1007   2.940   0.673   0.844 -0.7277  0.4103 -0.1243
  348TIP3    H1 1008   2.891   0.594   0.822  2.1626 -0.6639 -3.8400
  348TIP3    H2 1009   2.986   0.652   0.925 -2.4927 -0.3442  0.7473
  349TIP3   OH2 1010   4.691   1.734   5.579 -0.4527 -0.0668 -0.2248
  349TIP3    H1 1011   4.708   1.640   5.589  0.2717  0.1834  0.9756
  349TIP3    H2 1012   4.701   1.750   5.485 -0.3817 -1.1433 -0.4154
  350TIP3   OH2 1013   2.882   5.757   5.740  0.1342  0.4216 -0.1209
  350TIP3    H1 1014   2.846   5.688   5.684 -1.3994 -0.0037  1.3350
  350TIP3    H2 1015   2.976   5.751   5.728 -0.0729 -0.7786 -1.3411
  351TIP3   OH2 1016   2.180   2.930   4.240 -0.1589 -0.2961  0.6401
  351TIP3    H1 1017   2.135   2.851   4.209  0.0733 -0.3649  0.4735
  351TIP3    H2 1018   2.148   2.943   4.329  0.4806 -1.0971  0.9913
  352TIP3   OH2 1019   0.802   2.944   5.590 -0.4821  1.0270 -0.2523
  352TIP3    H1 1020   0.747   2.976   5.662 -0.3960  2.4175 -0.7685
  352TIP3    H2 1021   0.745   2.951   5.512 -1.2331 -2.1995 -0.1477
  353TIP3   OH2 1022   1.589   6.182   0.279 -0.1060 -0.2459  0.0762
  353TIP3    H1 1023   1.657   6.117   0.262  0.5976  0.3719  0.5084
  353TIP3    H2 1024   1.554   6.202   0.192 -0.1011 -0.9528 -0.0943
  354TIP3   OH2 1025   5.461   1.510   2.950 -0.5905 -0.8964  0.0587
  354TIP3    H1 1026   5.457   1.424   2.992 -1.3865 -0.3116  1.2362
  354TIP3    H2 1027   5.537   1.552   2.990 -1.2141 -0.4244  0.7686
  355TIP3   OH2 1028   7.124   2.271   4.532  0.1998  0.9791 -0.6793
  355TIP3    H1 1029   7.173   2.254   4.612  0.1905 -0.6652 -0.9968
  355TIP3    H2 1030   7.183   2.243   4.461  0.0429  2.0107 -1.2455
  356TIP3   OH2 1031   0.897   4.296   1.836 -0.5570  0.1594  0.1105
  356TIP3    H1 1032   0.982   4.251   1.830 -1.2000 -1.0512 -0.3252
  356TIP3    H2 1033   0.919   4.388   1.848  0.8221 -0.0759 -0.4353
  357TIP3   OH2 1034   5.360   4.326   2.818 -0.5116  0.3470  0.4382
  357TIP3    H1 1035   5.302   4.265   2.773  0.3736 -0.6171  0.5535
  357TIP3    H2 1036   5.406   4.272   2.882  0.8117  0.9733  0.0624
  358TIP3   OH2 1037   0.473   5.116   3.913  0.8158  0.3258 -0.0284
  358TIP3    H1 1038   0.551   5.090   3.962  0.5991  0.6378  0.4931
  358TIP3    H2 1039   0.450   5.202   3.949 -0.0546  0.0182  0.1681
  359TIP3   OH2 1040   5.220   3.871   2.676  0.0860  0.4306  0.6661
  359TIP3    H1 1041   5.164   3.838   2.606  0.9311 -0.2456  0.2856
  359TIP3    H2 1042   5.176   3.842   2.756 -0.1129 -0.0981  0.3781
  360TIP3   OH2 1043   6.222   0.709   0.581  0.3734  0.0793  0.1253
  360TIP3    H1 1044   6.314   0.698   0.556  0.7101  1.8674  0.3999
  360TIP3    H2 1045   6.205   0.640   0.644  0.5298 -2.3588 -2.3239
  361TIP3   OH2 1046   0.555   0.729   4.919  0.5032  0.0756  0.6156
  361TIP3    H1 1047   0.602   0.782   4.855 -0.9771  0.7803  0.0639
  361TIP3    H2 1048   0.535   0.789   4.990 -0.0987 -0.0482  0.5560
  362TIP3   OH2 1049   2.065   5.437   1.149 -0.1741 -0.6783 -0.3259
  362TIP3    H1 1050   2.062   5.359   1.093  0.4936 -1.2871  0.4491
  362TIP3    H2 1051   2.139   5.420   1.208 -1.5040 -0.5547  1.4380
  363TIP3   OH2 1052   2.345   4.701   1.833 -0.0928 -0.0294  0.7197
  363TIP3    H1 1053   2.357   4.788   1.793 -0.1990 -0.5919 -0.5756
  363TIP3    H2 1054   2.434   4.665   1.838 -0.1500 -0.2074  0.4282
  364TIP3   OH2 1055   4.220   2.113   5.777 -0.4888  0.1573 -0.3708
  364TIP3    H1 1056   4.316   2.109   5.780 -0.5219 -2.3764 -0.5896
  364TIP3    H2 1057   4.192   2.105   5.868 -0.5054  0.2826 -0.3648
  365TIP3   OH2 1058   1.833   5.427   2.104  0.2752  0.1636 -0.0520
  365TIP3    H1 1059   1.829   5.499   2.166 -1.5732 -0.3995  0.5642
  365TIP3    H2 1060   1.742   5.400   2.094  0.8883 -1.8810 -0.5080
  366TIP3   OH2 1061   5.849   2.578   5.881  0.4412  0.2975  0.0425
  366TIP3    H1 1062   5.890   2.492   5.883  1.1978  0.6472 -0.2814
  366TIP3    H2 1063   5.771   2.566   5.826  0.5667 -0.1671 -0.0376
  367TIP3   OH2 1064   5.189   3.174   5.675  0.0196  0.0555 -0.0359
  367TIP3    H1 1065   5.108   3.127   5.659  0.2505  0.1607 -1.6962
  367TIP3    H2 1066   5.160   3.261   5.705 -0.7456  1.3392 -3.7963
  368TIP3   OH2 1067   0.634   2.448   0.684  0.2555  0.3365  0.0186
  368TIP3    H1 1068   0.542   2.420   0.691 -0.0843  1.3458 -0.2025
  368TIP3    H2 1069   0.639   2.491   0.598  1.3134 -1.0087 -0.6280
  369TIP3   OH2 1070   2.997   2.210   1.557 -0.0792 -0.3394  0.0214
  369TIP3    H1 1071   2.913   2.256   1.550 -0.4379 -0.8323  0.9258
  369TIP3    H2 1072   2.982   2.126   1.515 -0.7796 -1.3684  2.1925
  370TIP3   OH2 1073   0.473   2.294   1.912  0.3908  0.4731 -0.7105
  370TIP3    H1 1074   0.422   2.282   1.831  0.1782  0.1825 -0.5346
  370TIP3    H2 1075   0.513   2.209   1.928 -2.7060 -0.7514  1.6228
  371TIP3   OH2 1076   1.318   4.800   0.258 -0.1591  0.1676 -0.0374
  371TIP3    H1 1077   1.394   4.744   0.272 -0.0417  0.4168  0.3240
  371TIP3    H2 1078   1.344   4.886   0.291 -0.3550  0.4287 -0.5401
  372TIP3   OH2 1079   2.555   5.067   1.447  0.0652 -0.2509  0.0616
  372TIP3    H1 1080   2.533   5.022   1.365 -0.0723 -0.5921  0.2821
  372TIP3    H2 1081   2.651   5.063   1.451  0.0698 -0.2632 -0.0691
  373TIP3   OH2 1082   6.068   2.297   1.891  0.1965 -0.3222 -0.7528
  373TIP3    H1 1083   6.086   2.203   1.895  0.0225 -0.3317 -0.0873
  373TIP3    H2 1084   6.125   2.335   1.958 -0.1304 -0.0137 -0.6505
  374TIP3   OH2 1085   3.261   6.513   5.213 -0.5551  0.2892  0.1025
  374TIP3    H1 1086   3.174   6.514   5.254 -0.9092  0.0894 -0.6312
  374TIP3    H2 1087   3.315   6.461   5.273 -0.9452  0.3891  0.5485
  375TIP3   OH2 1088   3.269   5.422   3.607  0.3704  0.2878  0.3747
  375TIP3    H1 1089   3.308   5.335   3.605 -1.4807 -0.5684  0.3006
  375TIP3    H2 1090   3.251   5.439   3.700 -0.7107 -0.0827  0.2382
  376TIP3   OH2 1091   2.786   0.284   2.352  0.2059 -0.5013 -0.1853
  376TIP3    H1 1092   2.727   0.255   2.421 -0.2296  1.2755  0.2464
  376TIP3    H2 1093   2.870   0.297   2.395 -0.0047  0.3729 -0.0155
  377TIP3   OH2 1094   2.938   5.471   2.126 -0.2247  0.1403 -1.0007
  377TIP3    H1 1095   2.929   5.414   2.049 -0.8029 -0.2833 -0.6235
  377TIP3    H2 1096   2.956   5.411   2.198 -0.5891  0.4566 -0.6462
  378TIP3   OH2 1097   3.009   0.117   4.636 -0.7188 -0.3720  0.0318
  378TIP3    H1 1098   2.934   0.154   4.589 -0.2027  0.5487 -0.0912
  378TIP3    H2 1099   2.994   0.022   4.633 -1.5335 -0.2422 -0.5623
  379TIP3   OH2 1100   3.071   4.499   0.607  0.2454 -0.4531 -0.1080
  379TIP3    H1 1101   3.053   4.486   0.700  0.6546 -0.0240  0.0399
  379TIP3    H2 1102   2.996   4.548   0.574 -0.0566 -0.8913 -0.0824
  380TIP3   OH2 1103   3.161   2.512   1.234  0.1741  0.3670 -0.3924
  380TIP3    H1 1104   3.090   2.494   1.172 -0.2189  0.9867 -0.1285
  380TIP3    H2 1105   3.178   2.428   1.276 -0.2074  0.1519 -0.6644
  381TIP3   OH2 1106   4.507   6.663   1.890 -0.1792  0.5542  0.6071
  381TIP3    H1 1107   4.449   6.730   1.853 -1.1909 -0.8748 -0.5508
  381TIP3    H2 1108   4.464   6.637   1.971  0.2019  1.2581  1.0466
  382TIP3   OH2 1109   4.694   1.036   5.127  0.3218  0.5565 -0.2212
  382TIP3    H1 1110   4.671   1.115   5.078  1.2352 -0.2015 -1.9354
  382TIP3    H2 1111   4.788   1.044   5.143  0.5829 -0.5449 -1.1196
  383TIP3   OH2 1112   1.355   0.420   0.422  0.5692 -0.2439 -0.0947
  383TIP3    H1 1113   1.339   0.416   0.327 -0.8731  0.7694  0.0797
  383TIP3    H2 1114   1.268   0.426   0.461  1.2005  2.2088  1.1409
  384TIP3   OH2 1115   1.578   6.669   0.187  0.1538 -0.3141 -0.0781
  384TIP3    H1 1116   1.654   6.713   0.149  0.1153  0.2147  0.4406
  384TIP3    H2 1117   1.544   6.731   0.252  0.0739 -1.0909  0.6401
  385TIP3   OH2 1118   3.259   1.412   2.991  0.0218 -0.0033 -0.0283
  385TIP3    H1 1119   3.326   1.461   2.942  0.4916  0.3754  0.9628
  385TIP3    H2 1120   3.219   1.478   3.048  0.8459 -0.7849  1.5270
  386TIP3   OH2 1121   6.541   3.881   4.315 -0.4560 -0.1416  0.1115
  386TIP3    H1 1122   6.513   3.790   4.324  1.6029 -0.8302  0.1815
  386TIP3    H2 1123   6.592   3.899   4.394  1.5068  0.0932 -1.1181
  387TIP3   OH2 1124   6.365   6.715   4.331  0.0163  0.4900 -0.3243
  387TIP3    H1 1125   6.432   6.651   4.355 -0.9353 -0.7094 -0.7643
  387TIP3    H2 1126   6.284   6.679   4.366 -0.5574  1.4217 -0.6665
  388TIP3   OH2 1127   0.450   2.208   1.639  0.1496  0.3990  0.1567
  388TIP3    H1 1128   0.473   2.116   1.654  0.0500  0.3770  0.1744
  388TIP3    H2 1129   0.356   2.212   1.652  0.1324  0.4754  0.0157
  389TIP3   OH2 1130   0.135   0.972   1.900 -0.6330  0.4114  0.4418
  389TIP3    H1 1131   0.203   0.971   1.967 -0.8602  1.9570  0.7419
  389TIP3    H2 1132   0.181   0.997   1.820 -0.7455  0.9634  0.5424
  390TIP3   OH2 1133   3.302   1.987   3.509 -0.5040  0.4555  0.1791
  390TIP3    H1 1134   3.300   1.941   3.593 -1.0715  1.7297  0.9110
  390TIP3    H2 1135   3.395   2.000   3.491 -0.3735  1.8167  1.6102
  391TIP3   OH2 1136   0.181   2.482   1.428 -0.8064  0.0274 -0.0098
  391TIP3    H1 1137   0.101   2.526   1.397  0.0408  0.2239 -2.0802
  391TIP3    H2 1138   0.252   2.542   1.405 -0.0199 -0.2160  1.6687
  392TIP3   OH2 1139   6.562   2.275   0.564  0.0988 -0.1391  0.0853
  392TIP3    H1 1140   6.531   2.277   0.655 -0.1365 -0.3106  0.0087
  392TIP3    H2 1141   6.485   2.295   0.512  0.6238  1.8641  0.0022
  393TIP3   OH2 1142   7.145   2.561   0.724 -0.3862 -0.0595  0.4158
  393TIP3    H1 1143   7.168   2.478   0.764 -1.0556  0.6639  2.3937
  393TIP3    H2 1144   7.227   2.593   0.687 -0.2267 -1.8112 -0.8727
  394TIP3   OH2 1145   3.987   1.688   2.086  0.2199  0.1012 -0.3667
  394TIP3    H1 1146   3.900   1.654   2.107  0.0328 -0.0151 -1.2751
  394TIP3    H2 1147   4.047   1.621   2.118 -0.1491 -1.2586 -2.3011
  395TIP3   OH2 1148   4.119   5.347   0.762  0.0503 -0.1063 -0.3611
  395TIP3    H1 1149   4.088   5.399   0.835  0.4173 -1.2492  0.6382
  395TIP3    H2 1150   4.159   5.410   0.702 -0.2597  0.8440  0.4170
  396TIP3   OH2 1151   4.309   6.047   3.281  0.2893  0.3869  0.0109
  396TIP3    H1 1152   4.273   5.987   3.346 -0.2232  2.5881  1.8638
  396TIP3    H2 1153   4.233   6.079   3.233  0.4194  0.5542 -0.0847
  397TIP3   OH2 1154   1.014   0.423   0.588 -0.4981  0.5981  0.7956
  397TIP3    H1 1155   0.967   0.425   0.671 -2.1309  1.5656 -0.0886
  397TIP3    H2 1156   1.015   0.514   0.559  1.7034  0.5737  0.5952
  398TIP3   OH2 1157   0.559   1.267   5.662 -0.1718  0.7677 -0.7082
  398TIP3    H1 1158   0.487   1.327   5.680 -0.2698  0.1320  1.1260
  398TIP3    H2 1159   0.636   1.309   5.702  0.0049  0.2857 -0.5350
  399TIP3   OH2 1160   3.634   0.507   0.396 -0.0174  0.1675  0.2264
  399TIP3    H1 1161   3.660   0.497   0.488 -0.8653 -0.0438  0.4593
  399TIP3    H2 1162   3.538   0.504   0.399 -0.1606  2.5541 -0.4020
  400TIP3   OH2 1163   6.268   6.508   3.583 -0.3326  0.1532  0.1717
  400TIP3    H1 1164   6.248   6.454   3.659  0.6848 -1.1279 -0.4318
  400TIP3    H2 1165   6.236   6.457   3.508 -2.7437  2.0838 -0.2354
  401TIP3   OH2 1166   1.198   4.274   2.433 -0.2772 -0.4426 -0.3746
  401TIP3    H1 1167   1.166   4.184   2.431  0.8980 -0.8636 -1.0168
  401TIP3    H2 1168   1.169   4.308   2.518 -0.9508 -1.3363 -0.2382
  402TIP3   OH2 1169   0.556   5.516   1.133 -0.8044  0.2381  0.0265
  402TIP3    H1 1170   0.484   5.509   1.196 -0.7601 -0.2292  0.0305
  402TIP3    H2 1171   0.528   5.462   1.059 -1.4270  1.8015 -0.9215
  403TIP3   OH2 1172   3.739   4.409   2.505  0.4205 -0.0081  0.3694
  403TIP3    H1 1173   3.773   4.351   2.437  1.6307  2.6614 -1.5028
  403TIP3    H2 1174   3.681   4.469   2.458  0.1919  1.0695  1.9524
  404TIP3   OH2 1175   2.597   1.226   0.078 -0.3009  0.1102  0.2963
  404TIP3    H1 1176   2.642   1.309   0.095 -0.9086  0.4021  0.5185
  404TIP3    H2 1177   2.665   1.159   0.090  0.1193  0.5520  0.4337
  405TIP3   OH2 1178   4.587   5.215   0.307  0.3326  0.0630 -0.1041
  405TIP3    H1 1179   4.586   5.248   0.217  1.1004  1.1939  0.2775
  405TIP3    H2 1180   4.646   5.274   0.354  0.8982 -1.2327  0.8789
  406TIP3   OH2 1181   1.904   3.515   3.279  0.0339 -0.4229  0.5780
  406TIP3    H1 1182   1.900   3.521   3.374 -0.2235  0.0997  0.5418
  406TIP3    H2 1183   1.817   3.483   3.253  1.0676 -3.6860  0.6969
  407TIP3   OH2 1184   3.551   2.584   0.798  0.5501 -0.0732  0.1412
  407TIP3    H1 1185   3.579   2.655   0.855  1.0606 -0.7070  0.7011
  407TIP3    H2 1186   3.535   2.510   0.857 -1.1001 -0.1085 -0.3050
  408TIP3   OH2 1187   2.681   4.506   3.725  0.2450  0.2159 -0.2290
  408TIP3    H1 1188   2.765   4.551   3.732 -0.8029  2.5660 -1.4614
  408TIP3    H2 1189   2.675   4.454   3.805  3.1728 -0.6665 -0.4833
  409TIP3   OH2 1190   0.376   0.962   5.317 -0.0519 -0.3058  0.2601
  409TIP3    H1 1191   0.398   0.975   5.409  1.2875 -0.9201  0.0499
  409TIP3    H2 1192   0.341   1.046   5.288  1.6839  0.6422  0.7494
  410TIP3   OH2 1193   4.791   1.378   2.316 -0.5052  0.5681  0.1851
  410TIP3    H1 1194   4.787   1.361   2.222  0.2654  0.3924  0.1748
  410TIP3    H2 1195   4.734   1.312   2.355 -0.6497  0.4989 -0.1437
  411TIP3   OH2 1196   2.365   2.138   0.937 -0.5692 -0.1663  0.1906
  411TIP3    H1 1197   2.354   2.090   1.019 -0.4350 -0.4149  0.0648
  411TIP3    H2 1198   2.391   2.226   0.964  1.6906 -0.8182  0.3983
  412TIP3   OH2 1199   2.599   0.440   4.623  0.1643 -0.0318 -0.0996
  412TIP3    H1 1200   2.627   0.468   4.536 -0.5667 -0.0049 -0.3350
  412TIP3    H2 1201   2.510   0.475   4.632 -0.2368 -1.0724  0.1604
  413TIP3   OH2 1202   0.504   6.094   0.897  0.3973 -0.2620  0.2209
  413TIP3    H1 1203   0.491   6.182   0.862  0.9824  0.1287  0.9847
  413TIP3    H2 1204   0.570   6.103   0.965  0.3398 -1.2631  0.4371
  414TIP3   OH2 1205   3.363   4.546   3.852 -0.0218 -0.3235  0.8393
  414TIP3    H1 1206   3.342   4.552   3.759  1.3709 -0.7267  0.4607
  414TIP3    H2 1207   3.442   4.600   3.862 -1.1042  1.0757  2.1375
  415TIP3   OH2 1208   6.066   6.437   2.115 -0.4688 -0.0677 -0.4529
  415TIP3    H1 1209   6.000   6.398   2.057 -0.0239  0.3076 -1.2217
  415TIP3    H2 1210   6.053   6.392   2.199 -1.6338 -0.0781 -0.6111
  416TIP3   OH2 1211   1.785   5.271   0.851  0.6454 -0.1063  0.5233
  416TIP3    H1 1212   1.844   5.327   0.800  0.1795  1.4857  1.6571
  416TIP3    H2 1213   1.828   5.260   0.935 -0.6883  1.2446  1.4395
  417TIP3   OH2 1214   1.882   3.508   3.560 -0.1841  0.4124  0.0744
  417TIP3    H1 1215   1.808   3.447   3.559 -1.0423  1.4348 -0.0561
  417TIP3    H2 1216   1.956   3.455   3.592 -0.6652 -0.9495 -0.9776
  418TIP3   OH2 1217   0.577   6.504   4.840  0.2170 -0.1851 -0.6737
  418TIP3    H1 1218   0.613   6.541   4.920 -0.9003 -0.0225 -0.2361
  418TIP3    H2 1219   0.499   6.456   4.868 -0.7176  0.6414 -1.7639
  419TIP3   OH2 1220   2.043   1.796   3.455  0.6065  0.0309  0.2701
  419TIP3    H1 1221   2.047   1.773   3.548 -0.0146  0.2867  0.3659
  419TIP3    H2 1222   2.105   1.869   3.446  1.2591 -0.5112  0.3187
  420TIP3   OH2 1223   6.669   2.771   1.280 -0.7511 -0.5359 -0.6446
  420TIP3    H1 1224   6.711   2.688   1.301 -0.3658  0.0674  1.2230
  420TIP3    H2 1225   6.728   2.813   1.218 -0.0608 -0.9345 -0.2737
  421TIP3   OH2 1226   5.008   2.189   0.336 -0.3798  0.2050  0.9138
  421TIP3    H1 1227   5.044   2.243   0.406  1.7844 -1.1388  0.9669
  421TIP3    H2 1228   5.069   2.201   0.263 -1.4718  0.0458 -0.0571
  422TIP3   OH2 1229   0.729   6.440   5.296  1.0145 -0.0125  0.6757
  422TIP3    H1 1230   0.740   6.499   5.370 -0.3601 -0.4488  1.2623
  422TIP3    H2 1231   0.734   6.496   5.219 -0.6732  0.9559  1.2325
  423TIP3   OH2 1232   5.189   5.813   5.109 -0.3680 -0.3275  0.1059
  423TIP3    H1 1233   5.151   5.737   5.064 -0.4890 -0.2512  0.0799
  423TIP3    H2 1234   5.192   5.882   5.043 -1.2323  0.0107  0.4043
  424TIP3   OH2 1235   3.539   6.475   0.473 -0.1272 -0.2583  0.0525
  424TIP3    H1 1236   3.500   6.556   0.442 -3.0516 -1.4267  0.3388
  424TIP3    H2 1237   3.593   6.501   0.548 -1.8047  1.3308  0.7705
  425TIP3   OH2 1238   7.106   2.834   1.772  0.5401  0.5691 -0.5976
  425TIP3    H1 1239   7.087   2.854   1.864 -0.0889 -0.5444 -0.4669
  425TIP3    H2 1240   7.201   2.821   1.770  1.1194  3.8519 -0.7941
  426TIP3   OH2 1241   3.242   0.229   4.568  1.1295 -0.4870  0.1745
  426TIP3    H1 1242   3.153   0.198   4.583  0.8816  0.4828  0.7179
  426TIP3    H2 1243   3.287   0.217   4.652  2.0174 -2.5269 -0.5154
  427TIP3   OH2 1244   6.169   0.569   2.876  0.3833  0.3873  0.3596
  427TIP3    H1 1245   6.178   0.542   2.785 -2.0680  1.4005 -0.2325
  427TIP3    H2 1246   6.150   0.662   2.873  0.6243  0.5265  1.9434
  428TIP3   OH2 1247   7.110   3.037   4.415  0.3748 -0.3453 -0.1813
  428TIP3    H1 1248   7.123   3.044   4.321  0.8258 -0.1484 -0.1123
  428TIP3    H2 1249   7.016   3.029   4.427  0.1616  1.2017 -0.5633
  429TIP3   OH2 1250   5.315   3.833   0.476  0.1452  0.1887 -0.1810
  429TIP3    H1 1251   5.308   3.741   0.501  0.4200 -0.1001 -1.0949
  429TIP3    H2 1252   5.360   3.831   0.391 -0.9932  1.0808 -0.8283
  430TIP3   OH2 1253   6.503   4.930   5.598  0.1868  0.0295 -0.3287
  430TIP3    H1 1254   6.499   4.936   5.693  0.0053 -0.9077 -0.2684
  430TIP3    H2 1255   6.569   4.863   5.581 -0.9435 -1.0008 -0.8097
  431TIP3   OH2 1256   3.174   2.717   0.378  0.3574  0.3419 -0.0457
  431TIP3    H1 1257   3.204   2.690   0.291  0.7305  0.1775  0.1313
  431TIP3    H2 1258   3.238   2.781   0.407  0.4662  0.0862  0.2828
  432TIP3   OH2 1259   5.543   5.481   5.825 -0.2663 -0.6281 -0.0701
  432TIP3    H1 1260   5.633   5.481   5.859  0.3016  1.5202 -1.4222
  432TIP3    H2 1261   5.549   5.434   5.742  0.5547  2.8590 -2.1624
  433TIP3   OH2 1262   0.020   0.192   4.525  0.9998  0.6351 -0.4936
  433TIP3    H1 1263   0.046   0.127   4.460 -1.6353  0.2669 -1.3178
  433TIP3    H2 1264   0.000   0.270   4.473 -0.8887  0.4199 -0.1850
  434TIP3   OH2 1265   4.374   2.934   2.546 -0.1214  0.8012  0.1253
  434TIP3    H1 1266   4.345   2.897   2.629 -1.4594  0.2221 -0.5753
  434TIP3    H2 1267   4.352   3.027   2.552  1.6772  1.1971  1.2073
  435TIP3   OH2 1268   7.154   0.336   0.331 -0.3068  0.2150  0.1189
  435TIP3    H1 1269   7.116   0.417   0.297 -0.9651 -0.8238 -1.7676
  435TIP3    H2 1270   7.133   0.337   0.424 -1.6518  1.4793 -0.1593
  436TIP3   OH2 1271   1.932   0.115   2.943 -0.4935  0.8762 -0.2779
  436TIP3    H1 1272   1.925   0.026   2.978 -0.7728  0.6316 -0.9375
  436TIP3    H2 1273   1.941   0.103   2.849  0.8996  1.4999 -0.2454
  437TIP3   OH2 1274   5.922   3.078   0.437  0.0053 -0.1056 -0.2227
  437TIP3    H1 1275   5.942   3.009   0.374 -1.7494  1.2058 -2.3361
  437TIP3    H2 1276   5.847   3.045   0.486 -0.8654  0.2961 -1.2685
  438TIP3   OH2 1277   5.066   0.772   4.777  0.4121  0.3485 -0.0167
  438TIP3    H1 1278   5.068   0.765   4.873  2.3094  1.2206  0.0402
  438TIP3    H2 1279   5.054   0.681   4.748  0.1218  0.0267  1.0359
  439TIP3   OH2 1280   2.749   4.017   0.127  0.4562  0.3741 -0.8508
  439TIP3    H1 1281   2.685   4.085   0.107  1.3275  1.7242  0.6236
  439TIP3    H2 1282   2.714   3.973   0.205 -1.4598 -2.8376 -3.2718
  440TIP3   OH2 1283   1.873   0.638   1.225 -0.4712  0.0708  0.4450
  440TIP3    H1 1284   1.830   0.719   1.252 -0.8634  0.1155 -0.2689
  440TIP3    H2 1285   1.853   0.631   1.131 -0.0530 -0.6124  0.3990
  441TIP3   OH2 1286   5.576   0.247   1.780  0.2939  0.2823 -0.0510
  441TIP3    H1 1287   5.659   0.228   1.825 -0.3673 -1.3048  0.5735
  441TIP3    H2 1288   5.597   0.243   1.687  1.1676  1.1704  0.0899
  442TIP3   OH2 1289   6.837   5.000   5.403  0.7558  0.4482 -0.0837
  442TIP3    H1 1290   6.931   5.011   5.420  0.9674  0.6598 -1.2382
  442TIP3    H2 1291   6.833   4.983   5.308 -0.3190 -0.2710  0.0817
  443TIP3   OH2 1292   3.283   4.062   0.515 -0.2892 -0.2664  0.3404
  443TIP3    H1 1293   3.254   4.048   0.425 -0.7617 -1.8587  0.7062
  443TIP3    H2 1294   3.272   4.156   0.529  1.0992  0.2670 -1.6882
  444TIP3   OH2 1295   0.025   1.396   0.278 -0.3575 -0.0384 -0.6918
  444TIP3    H1 1296   0.114   1.362   0.290 -0.2073  1.0433  2.1454
  444TIP3    H2 1297  -0.010   1.347   0.204  1.9722 -1.8029 -0.7377
  445TIP3   OH2 1298   0.997   0.353   3.315 -0.6511  0.5792 -0.5580
  445TIP3    H1 1299   0.950   0.436   3.303 -0.2759  0.5540 -2.3735
  445TIP3    H2 1300   0.952   0.291   3.258  0.7021  0.1967 -1.2473
  446TIP3   OH2 1301   2.555   5.086   0.384 -0.2109 -0.0479  0.1555
  446TIP3    H1 1302   2.620   5.092   0.313 -0.8146 -0.4399 -0.4455
  446TIP3    H2 1303   2.607   5.068   0.462  0.4311 -0.1641 -0.2851
  447TIP3   OH2 1304   6.226   5.340   0.117  0.3994  0.5777  0.1681
  447TIP3    H1 1305   6.161   5.361   0.184  0.1527 -1.9645  0.8033
  447TIP3    H2 1306   6.266   5.425   0.097 -1.4572  1.8667  1.4472
  448TIP3   OH2 1307   6.109   4.309   4.629  0.1895 -0.3575 -0.1613
  448TIP3    H1 1308   6.179   4.365   4.663  0.6202 -0.0609 -1.4632
  448TIP3    H2 1309   6.135   4.220   4.654 -0.5393 -0.0233  1.9945
  449TIP3   OH2 1310   5.971   2.309   1.607  0.2149 -0.0288 -0.5590
  449TIP3    H1 1311   5.985   2.323   1.700  0.0765  1.1852 -0.6958
  449TIP3    H2 1312   5.923   2.226   1.601 -1.1847  0.6552  0.5558
  450TIP3   OH2 1313   5.282   4.244   0.373 -0.6023 -0.0436  0.2467
  450TIP3    H1 1314   5.293   4.214   0.463 -0.8043  0.5222  0.4653
  450TIP3    H2 1315   5.210   4.307   0.377 -0.5112  0.1005 -0.2849
  451TIP3   OH2 1316   4.262   5.052   1.336  0.3960  0.2077 -0.1996
  451TIP3    H1 1317   4.251   5.117   1.266 -1.1545  0.1882 -0.0037
  451TIP3    H2 1318   4.192   4.988   1.321  1.9395 -1.5254 -0.4599
  452TIP3   OH2 1319   3.421   4.346   0.981 -0.4608 -0.3776 -0.0431
  452TIP3    H1 1320   3.329   4.321   0.977 -0.4229 -0.3873 -1.1004
  452TIP3    H2 1321   3.453   4.338   0.891  0.6944 -0.8101  0.3759
  453TIP3   OH2 1322   0.656   0.653   1.287 -0.1175 -0.2729  0.1426
  453TIP3    H1 1323   0.726   0.638   1.351 -0.8047 -2.4761  0.4661
  453TIP3    H2 1324   0.702   0.672   1.205  0.8127  0.1335  0.7452
  454TIP3   OH2 1325   6.128   1.486   5.023 -0.6012  0.5328  0.3951
  454TIP3    H1 1326   6.127   1.560   5.084 -0.0741 -0.4940  1.7091
  454TIP3    H2 1327   6.215   1.448   5.033 -0.3128  0.6260 -1.4046
  455TIP3   OH2 1328   0.312   1.670   0.924 -0.6754 -0.2913  0.1280
  455TIP3    H1 1329   0.262   1.752   0.932 -0.2043  0.1271 -0.9748
  455TIP3    H2 1330   0.296   1.641   0.834  1.9042  0.4491 -0.6622
  456TIP3   OH2 1331   3.126   3.336   1.523 -0.4650 -0.1660 -0.7254
  456TIP3    H1 1332   3.116   3.244   1.547  0.4514  0.3609  2.0657
  456TIP3    H2 1333   3.042   3.359   1.483 -1.1697 -1.8907 -0.3354
  457TIP3   OH2 1334   2.849   3.599   2.218 -0.0611 -0.2143  0.0410
  457TIP3    H1 1335   2.782   3.626   2.155  0.4665  2.1448  0.4354
  457TIP3    H2 1336   2.830   3.648   2.297  2.6180  1.2602 -0.1040
  458TIP3   OH2 1337   0.286   3.168   5.638  0.2383  0.3511 -0.1139
  458TIP3    H1 1338   0.328   3.084   5.618  0.7577  0.0653  2.0019
  458TIP3    H2 1339   0.219   3.178   5.569  0.7391 -1.3674 -0.8971
  459TIP3   OH2 1340   4.028   1.638   5.321 -0.2802 -0.3827 -0.1284
  459TIP3    H1 1341   4.070   1.593   5.394  0.1004 -0.3294 -0.3095
  459TIP3    H2 1342   3.983   1.569   5.272  2.2159 -0.9985 -1.7396
  460TIP3   OH2 1343   6.803   6.686   5.771 -0.1031  0.1992 -0.2793
  460TIP3    H1 1344   6.772   6.695   5.681 -0.8652  0.1632 -0.0291
  460TIP3    H2 1345   6.774   6.599   5.798  0.0159  0.2593  0.0433
  461TIP3   OH2 1346   5.544   5.287   3.493  0.3251 -0.0909 -0.7452
  461TIP3    H1 1347   5.590   5.371   3.488  2.8723 -1.4337 -2.2123
  461TIP3    H2 1348   5.454   5.307   3.468  1.3482  1.9042 -3.2923
  462TIP3   OH2 1349   5.875   2.552   2.526  0.3327 -0.3813 -0.7068
  462TIP3    H1 1350   5.799   2.526   2.475  1.1832 -0.5525 -1.9275
  462TIP3    H2 1351   5.900   2.637   2.490 -0.2188  0.4354  0.7700
  463TIP3   OH2 1352   3.221   0.505   4.691  0.3950  0.6336  0.2122
  463TIP3    H1 1353   3.219   0.512   4.787  1.1858  2.2007  0.1511
  463TIP3    H2 1354   3.211   0.412   4.674 -2.3338  0.5309  1.7188
  464TIP3   OH2 1355   1.733   1.082   4.844 -0.0174  0.3693 -0.8193
  464TIP3    H1 1356   1.772   1.025   4.778 -1.5839 -1.3174 -0.3675
  464TIP3    H2 1357   1.808   1.126   4.885  1.2994 -1.6418 -0.9470
  465TIP3   OH2 1358   5.064   1.975   2.678  0.5693  0.0141 -0.6068
  465TIP3    H1 1359   5.019   1.909   2.732 -1.8094  2.0071  0.0597
  465TIP3    H2 1360   5.015   1.976   2.596  0.4873  0.9855 -0.5601
  466TIP3   OH2 1361   4.551   1.094   0.597 -0.3484  0.3268 -0.7828
  466TIP3    H1 1362   4.633   1.085   0.548 -1.6074 -0.0663 -2.8987
  466TIP3    H2 1363   4.513   1.176   0.565 -0.1119  1.3291  1.3114
  467TIP3   OH2 1364   3.701   5.422   4.295 -0.0725  0.6460  0.7038
  467TIP3    H1 1365   3.650   5.489   4.341 -0.5203 -0.1780  1.4268
  467TIP3    H2 1366   3.695   5.344   4.350 -1.3165 -0.6443 -1.1106
  468TIP3   OH2 1367   2.896   6.371   5.038  0.3728 -0.6085  0.6142
  468TIP3    H1 1368   2.887   6.312   5.112  1.3978 -1.2136  0.2844
  468TIP3    H2 1369   2.899   6.314   4.961  1.7387 -0.1925  0.3196
  469TIP3   OH2 1370   0.320   6.518   4.960 -0.5570  0.2104 -0.0741
  469TIP3    H1 1371   0.230   6.503   4.931 -0.6537  0.8251 -0.1024
  469TIP3    H2 1372   0.332   6.613   4.954 -0.1226  0.2029  0.5618
  470TIP3   OH2 1373   5.382   6.158   0.952  0.0821 -0.1088  0.2824
  470TIP3    H1 1374   5.439   6.225   0.988 -0.5937  0.4259  0.3769
  470TIP3    H2 1375   5.413   6.145   0.862  0.2966  0.2334  0.3077
  471TIP3   OH2 1376   4.177   6.662   4.297 -0.1399  0.3266  0.1724
  471TIP3    H1 1377   4.247   6.642   4.234  1.0576  0.2277  1.4872
  471TIP3    H2 1378   4.214   6.641   4.382 -2.5215 -1.7982  0.8101
  472TIP3   OH2 1379   5.326   2.127   3.203  0.3403  0.5810  0.1702
  472TIP3    H1 1380   5.249   2.107   3.149 -0.9327  1.7993  1.4202
  472TIP3    H2 1381   5.376   2.190   3.151  0.3677 -0.0282 -0.5522
  473TIP3   OH2 1382   5.334   5.370   1.345 -0.3399  0.2195 -0.2775
  473TIP3    H1 1383   5.318   5.418   1.426 -0.2061 -0.7763  0.3644
  473TIP3    H2 1384   5.282   5.290   1.354  0.6715 -0.4996 -0.5931
  474TIP3   OH2 1385   2.840   2.077   2.452  0.2600 -0.1703  0.1451
  474TIP3    H1 1386   2.749   2.103   2.439 -0.4020 -1.3464  2.1091
  474TIP3    H2 1387   2.876   2.142   2.512  0.2161 -0.6391  0.6874
  475TIP3   OH2 1388   3.329   2.811   3.144 -0.3749 -0.2845 -0.2746
  475TIP3    H1 1389   3.277   2.885   3.175 -1.3801 -0.3395 -1.7431
  475TIP3    H2 1390   3.380   2.784   3.220 -2.3235 -0.0826  1.1738
  476TIP3   OH2 1391   5.738   6.360   2.223 -0.2397  0.0531  0.4397
  476TIP3    H1 1392   5.646   6.382   2.209 -0.2042 -0.3307 -0.4750
  476TIP3    H2 1393   5.777   6.361   2.135  0.2973 -1.2397  0.6429
  477TIP3   OH2 1394   2.553   6.043   2.554 -0.2232 -0.0690 -0.4151
  477TIP3    H1 1395   2.465   6.059   2.588  0.1477  0.3780  0.3749
  477TIP3    H2 1396   2.590   5.977   2.614 -0.3781 -1.0550 -1.3651
  478TIP3   OH2 1397   0.700   3.371   5.335 -0.2693 -0.8246  0.1193
  478TIP3    H1 1398   0.665   3.305   5.275  0.3997 -1.7150  0.6927
  478TIP3    H2 1399   0.628   3.388   5.396 -0.4645 -0.9758 -0.0676
  479TIP3   OH2 1400   1.103   6.818   1.733  0.7331  0.0389 -0.0862
  479TIP3    H1 1401   1.131   6.772   1.813 -1.7770  1.4940  1.7750
  479TIP3    H2 1402   1.039   6.759   1.693  1.5156 -0.4010 -0.7321
  480TIP3   OH2 1403   4.354   3.083   5.281  0.1555 -0.0693  0.4209
  480TIP3    H1 1404   4.285   3.148   5.296  0.7475  1.1517 -1.7109
  480TIP3    H2 1405   4.359   3.075   5.186  2.7911 -0.2940  0.5079
  481TIP3   OH2 1406   3.299   3.367   4.197 -0.2840  0.3466 -0.2618
  481TIP3    H1 1407   3.249   3.351   4.117  0.4017  0.1261 -0.6538
  481TIP3    H2 1408   3.233   3.392   4.262 -1.0367 -1.0074 -0.4669
  482TIP3   OH2 1409   6.814   6.440   4.135 -0.6227 -0.6881 -0.1172
  482TIP3    H1 1410   6.810   6.461   4.228 -2.5242  1.2629 -0.5653
  482TIP3    H2 1411   6.776   6.352   4.129  2.5046 -2.2891  1.2055
  483TIP3   OH2 1412   4.579   0.553   0.484 -0.1064  0.0074  0.2470
  483TIP3    H1 1413   4.597   0.506   0.565  0.7613 -0.7013 -0.3463
  483TIP3    H2 1414   4.565   0.644   0.512  2.8719  0.3342  0.9689
  484TIP3   OH2 1415   2.162   3.537   0.341 -0.1282 -0.5121 -0.2421
  484TIP3    H1 1416   2.202   3.536   0.254 -1.7478 -0.1142 -1.0421
  484TIP3    H2 1417   2.180   3.450   0.376 -0.1651 -0.9918 -1.3453
  485TIP3   OH2 1418   6.267   5.969   2.521 -0.2304 -0.2400  0.1296
  485TIP3    H1 1419   6.194   5.910   2.537  0.3013 -0.6398  1.1989
  485TIP3    H2 1420   6.336   5.913   2.486  0.1461 -0.1934  0.7849
  486TIP3   OH2 1421   3.959   5.076   1.054  0.2451  0.0268 -0.2106
  486TIP3    H1 1422   4.031   5.140   1.053 -1.3135  1.8685 -1.8157
  486TIP3    H2 1423   3.993   5.001   1.006  1.8480 -0.0843  1.0157
  487TIP3   OH2 1424   7.133   5.179   1.166  0.8941  0.5058 -0.5672
  487TIP3    H1 1425   7.092   5.250   1.215  0.0208 -0.8548  0.7549
  487TIP3    H2 1426   7.137   5.106   1.228 -0.6686 -1.4593 -2.6321
  488TIP3   OH2 1427   1.362   5.213   4.456 -0.0055  0.3976  0.1268
  488TIP3    H1 1428   1.424   5.249   4.519  0.3121 -0.1016  0.1121
  488TIP3    H2 1429   1.414   5.152   4.403 -0.6070 -0.4029  0.4348
  489TIP3   OH2 1430   0.160   2.590   0.122  0.3432 -0.6701  0.6026
  489TIP3    H1 1431   0.076   2.546   0.112 -0.8685  1.7468 -0.6298
  489TIP3    H2 1432   0.149   2.647   0.198  1.4084 -1.3649  1.3215
  490TIP3   OH2 1433   1.073   2.973   5.246  0.3146 -0.0104 -0.0151
  490TIP3    H1 1434   1.090   2.922   5.324  1.9331 -0.0106 -0.3369
  490TIP3    H2 1435   0.981   3.001   5.255  0.8215  1.1122  2.5160
  491TIP3   OH2 1436   4.931   3.214   1.503 -0.4289 -0.0272  0.8480
  491TIP3    H1 1437   4.935   3.170   1.418  2.1099  1.2215  0.2278
  491TIP3    H2 1438   4.896   3.301   1.483 -1.8465 -0.4263  1.4677
  492TIP3   OH2 1439   4.707   6.104   1.097 -0.5695 -0.0746  0.1116
  492TIP3    H1 1440   4.716   6.054   1.016 -0.4299  0.2753 -0.0913
  492TIP3    H2 1441   4.678   6.191   1.069  3.5787  1.4917 -0.0338
  493TIP3   OH2 1442   2.380   0.499   4.174  0.1455  0.1926 -0.0658
  493TIP3    H1 1443   2.314   0.496   4.244 -0.1858  0.9547 -0.3317
  493TIP3    H2 1444   2.330   0.488   4.094  0.7819 -3.2533 -0.1366
  494TIP3   OH2 1445   4.117   2.242   1.678 -0.0876  0.4978 -0.5537
  494TIP3    H1 1446   4.063   2.190   1.738  1.4289  0.8105  1.1913
  494TIP3    H2 1447   4.192   2.185   1.659 -0.2327  0.6565 -1.6661
  495TIP3   OH2 1448   2.914   0.871   0.653 -0.2455  0.6034 -0.2319
  495TIP3    H1 1449   2.933   0.805   0.719  1.7193  0.4331 -0.9019
  495TIP3    H2 1450   3.000   0.898   0.621 -0.9710  3.6645  0.1610
  496TIP3   OH2 1451   6.917   0.935   5.450 -0.2034 -0.2895 -0.2624
  496TIP3    H1 1452   6.885   0.853   5.414 -1.5895 -0.2702  0.8560
  496TIP3    H2 1453   7.010   0.920   5.466 -0.6696 -2.0928  1.0590
  497TIP3   OH2 1454   0.464   4.358   2.379 -0.2674  0.3579 -0.2047
  497TIP3    H1 1455   0.523   4.430   2.398  0.1952  0.5808 -2.1974
  497TIP3    H2 1456   0.473   4.298   2.453  3.3210 -0.1605 -0.9009
  498TIP3   OH2 1457   3.408   3.532   1.929 -0.2757  0.5552 -0.1868
  498TIP3    H1 1458   3.342   3.573   1.986 -1.1881  0.7145 -1.3143
  498TIP3    H2 1459   3.383   3.440   1.926  0.3852  0.3453  0.4743
  499TIP3   OH2 1460   1.095   0.646   0.229 -0.5587  0.1315  0.1980
  499TIP3    H1 1461   1.089   0.588   0.305 -0.0731  0.4145  0.4625
  499TIP3    H2 1462   1.042   0.722   0.253 -0.4638  0.1891  0.2256
  500TIP3   OH2 1463   5.006   4.206   1.502  0.3244  0.4009 -0.5298
  500TIP3    H1 1464   5.071   4.246   1.444 -0.8164 -0.2036 -2.2954
  500TIP3    H2 1465   5.033   4.233   1.590  3.4310 -0.4777 -1.0957
  501TIP3   OH2 1466   7.106   4.297   4.245 -0.0790 -0.2567 -0.0645
  501TIP3    H1 1467   7.044   4.229   4.271  0.4733 -1.0315 -0.7349
  501TIP3    H2 1468   7.074   4.327   4.160 -0.0667 -0.0004  0.0222
  502TIP3   OH2 1469   0.273   5.966   4.633 -0.2964 -0.0471 -0.0843
  502TIP3    H1 1470   0.314   5.952   4.548 -0.9509 -2.2625 -0.0856
  502TIP3    H2 1471   0.270   6.062   4.643 -0.3787  0.2649 -2.6100
  503TIP3   OH2 1472   5.329   5.146   3.075  0.2683  0.1386 -0.3316
  503TIP3    H1 1473   5.313   5.207   3.003 -0.0225  1.4725  0.8189
  503TIP3    H2 1474   5.268   5.075   3.059 -0.4836  0.8834 -0.8871
  504TIP3   OH2 1475   0.663   3.499   2.995  0.3333 -0.5181 -0.0511
  504TIP3    H1 1476   0.705   3.418   3.025  0.5779 -0.7600 -0.9891
  504TIP3    H2 1477   0.672   3.496   2.899 -0.3144  0.2620 -0.1469
  505TIP3   OH2 1478   5.760   2.736   5.593  0.7226 -0.4336  0.0802
  505TIP3    H1 1479   5.770   2.691   5.509  0.2798 -1.8341  0.7584
  505TIP3    H2 1480   5.678   2.703   5.629  1.3046 -0.4667  1.4351
  506TIP3   OH2 1481   5.894   2.985   4.822  0.2407 -0.3317 -0.4405
  506TIP3    H1 1482   5.845   2.923   4.767 -0.8645  0.1611 -0.0348
  506TIP3    H2 1483   5.852   2.979   4.908 -0.8894  2.0519 -0.7524
  507TIP3   OH2 1484   5.535   1.041   2.374  0.4010  0.1305 -0.4065
  507TIP3    H1 1485   5.567   0.951   2.369  1.0695  0.3810 -0.6067
  507TIP3    H2 1486   5.454   1.034   2.425  0.3547 -0.6072 -0.5714
  508TIP3   OH2 1487   0.325   3.949   0.526  0.5033  0.0283  0.0583
  508TIP3    H1 1488   0.414   3.983   0.531  0.8386 -0.9398  0.9721
  508TIP3    H2 1489   0.294   3.950   0.616  0.4997 -1.9506  0.1274
  509TIP3   OH2 1490   2.238   6.360   2.407  0.0242  0.3368 -0.4886
  509TIP3    H1 1491   2.282   6.390   2.487 -0.0217 -0.0392 -0.3182
  509TIP3    H2 1492   2.187   6.283   2.435 -1.7562  1.4814 -0.3942
  510TIP3   OH2 1493   5.047   1.006   5.055  0.0418 -0.2775 -0.1347
  510TIP3    H1 1494   5.077   0.915   5.064 -0.0850 -0.2216  0.8919
  510TIP3    H2 1495   5.007   1.027   5.139 -1.2973  0.2328 -0.8702
  511TIP3   OH2 1496   4.341   4.762   4.259  0.4586 -0.0747 -0.1388
  511TIP3    H1 1497   4.358   4.822   4.186  1.6791 -0.7174 -0.4207
  511TIP3    H2 1498   4.314   4.818   4.331  0.1626  0.6643 -0.8179
  512TIP3   OH2 1499   4.328   5.865   5.501 -0.2234 -0.6155  0.1719
  512TIP3    H1 1500   4.347   5.905   5.416  1.0051 -1.8664 -0.1822
  512TIP3    H2 1501   4.243   5.822   5.489 -0.4778 -0.0332 -0.1363
  513TIP3   OH2 1502   2.500   4.372   5.185  0.2448  0.4145 -0.3578
  513TIP3    H1 1503   2.505   4.290   5.136  0.3171  0.1754  0.0493
  513TIP3    H2 1504   2.523   4.348   5.275 -2.2010  0.3635  0.3459
  514TIP3   OH2 1505   1.950   4.154   2.411 -0.0079  0.5038 -0.1909
  514TIP3    H1 1506   1.973   4.129   2.501  1.4757  1.8947 -0.1492
  514TIP3    H2 1507   1.864   4.196   2.419  0.0703  0.5319  0.5602
  515TIP3   OH2 1508   5.599   6.591   0.890 -0.1054 -0.2736 -0.2364
  515TIP3    H1 1509   5.617   6.571   0.799  0.6312 -0.0148 -0.1553
  515TIP3    H2 1510   5.676   6.640   0.920 -1.6230  2.3427 -0.3307
  516TIP3   OH2 1511   5.031   0.953   3.113  0.3124 -0.2340 -0.0822
  516TIP3    H1 1512   5.041   0.934   3.206 -0.3937 -0.4096 -0.0425
  516TIP3    H2 1513   5.104   1.011   3.093  0.1356  0.2716  0.7104
  517TIP3   OH2 1514   1.463   1.252   3.123 -0.5108 -0.1970  0.0181
  517TIP3    H1 1515   1.384   1.220   3.167 -0.6631  1.1953  0.8370
  517TIP3    H2 1516   1.500   1.315   3.184  0.2068  0.5681 -1.1634
  518TIP3   OH2 1517   5.130   5.651   1.063  0.3831 -0.0243 -0.1927
  518TIP3    H1 1518   5.127   5.701   1.144 -0.6378  0.8441 -0.7266
  518TIP3    H2 1519   5.159   5.715   0.997 -2.3293  0.3517 -1.1550
  519TIP3   OH2 1520   4.539   5.551   0.379 -0.1531 -0.2493 -0.4998
  519TIP3    H1 1521   4.485   5.533   0.302 -2.4728  2.2720  0.3703
  519TIP3    H2 1522   4.552   5.646   0.377  0.5714 -0.2526  1.6610
  520TIP3   OH2 1523   0.534   2.481   1.317  0.0709 -0.0336 -0.0124
  520TIP3    H1 1524   0.460   2.533   1.348  1.0975  1.0798  0.6702
  520TIP3    H2 1525   0.532   2.492   1.222 -0.2535  0.5433  0.0499
  521TIP3   OH2 1526   4.214   0.509   0.910  0.0438  0.1747  0.1256
  521TIP3    H1 1527   4.148   0.563   0.954  0.3789  1.3503 -0.7476
  521TIP3    H2 1528   4.178   0.421   0.911 -0.1889  0.2437  2.2630
  522TIP3   OH2 1529   4.837   2.640   1.356 -0.3481  0.0694 -0.2622
  522TIP3    H1 1530   4.902   2.571   1.342 -0.4096  0.2844 -1.7747
  522TIP3    H2 1531   4.817   2.635   1.450  2.2205  0.3425  0.3961
  523TIP3   OH2 1532   3.750   2.555   2.268  0.1378 -0.2405  0.3132
  523TIP3    H1 1533   3.664   2.570   2.229  1.1683  2.1367 -1.2731
  523TIP3    H2 1534   3.775   2.468   2.238 -1.3158 -0.5868  0.0250
  524TIP3   OH2 1535   4.849   6.696   5.036  0.1793 -0.4640  0.3372
  524TIP3    H1 1536   4.924   6.664   5.088  1.8564  1.9071 -0.4677
  524TIP3    H2 1537   4.788   6.730   5.101  2.9179  3.9071  1.0091
  525TIP3   OH2 1538   3.403   6.145   1.197 -0.0129  0.4907  0.0751
  525TIP3    H1 1539   3.422   6.210   1.130  0.4503  1.2335  0.9067
  525TIP3    H2 1540   3.310   6.127   1.187  0.4548 -1.0373 -2.1643
  526TIP3   OH2 1541   0.935   4.316   4.273  0.0915  0.4133 -0.2926
  526TIP3    H1 1542   0.996   4.279   4.210  0.7933 -0.9899  1.1295
  526TIP3    H2 1543   0.852   4.274   4.254  0.1947  0.3207 -0.5448
  527TIP3   OH2 1544   4.688   6.208   1.966 -0.3318 -0.6545  0.3604
  527TIP3    H1 1545   4.696   6.302   1.954 -3.7783 -0.5427 -3.2484
  527TIP3    H2 1546   4.777   6.174   1.959  0.7830  2.1723 -0.1853
  528TIP3   OH2 1547   2.681   5.768   1.072  0.0826  0.1458 -0.2974
  528TIP3    H1 1548   2.626   5.845   1.059  0.6475  0.7497  0.7216
  528TIP3    H2 1549   2.770   5.798   1.056  0.4822  0.1593  1.6863
  529TIP3   OH2 1550   6.106   1.806   4.304  0.2475  0.5163  0.3052
  529TIP3    H1 1551   6.180   1.809   4.365 -0.6831  0.4192  1.4854
  529TIP3    H2 1552   6.053   1.883   4.328 -0.1930  0.4052 -0.3071
  530TIP3   OH2 1553   3.099   6.722   3.618 -0.0865  0.3343 -0.2337
  530TIP3    H1 1554   3.058   6.803   3.589 -0.8602  0.0730  0.0999
  530TIP3    H2 1555   3.117   6.673   3.538  0.5236  0.8947 -0.4452
  531TIP3   OH2 1556   5.037   5.325   2.443  0.3579 -0.0404 -0.3555
  531TIP3    H1 1557   5.016   5.271   2.519  0.2334 -0.0756 -0.4154
  531TIP3    H2 1558   4.966   5.309   2.381  0.3070  0.2157 -0.3623
  532TIP3   OH2 1559   5.254   1.518   5.584 -0.4968 -0.4698 -0.4497
  532TIP3    H1 1560   5.187   1.530   5.652 -0.4940 -0.5090 -0.4404
  532TIP3    H2 1561   5.250   1.599   5.533 -1.8099 -1.2135 -1.5694
  533TIP3   OH2 1562   0.772   4.657   4.155 -0.0270 -0.4470 -0.2362
  533TIP3    H1 1563   0.749   4.603   4.231  1.9317 -2.2161 -0.7976
  533TIP3    H2 1564   0.688   4.678   4.115 -0.9424 -2.8792  0.1999
  534TIP3   OH2 1565   1.012   4.869   5.874 -0.5709  0.1338  0.5996
  534TIP3    H1 1566   1.092   4.855   5.924 -1.3488  0.7245  2.0762
  534TIP3    H2 1567   1.023   4.954   5.832 -0.1083 -0.1472  0.1477
  535TIP3   OH2 1568   1.849   3.515   5.224 -0.3163  0.2621  0.0467
  535TIP3    H1 1569   1.896   3.494   5.305 -0.3703 -2.3738 -0.5148
  535TIP3    H2 1570   1.919   3.537   5.162 -0.2434  1.8108  0.6454
  536TIP3   OH2 1571   3.426   4.219   5.409  0.2200 -0.0419  0.1560
  536TIP3    H1 1572   3.477   4.180   5.338 -0.4649 -0.6792  0.0046
  536TIP3    H2 1573   3.486   4.281   5.450  1.7275 -1.9546  1.0270
  537TIP3   OH2 1574   3.512   2.763   3.649  0.4080 -0.7402  0.6116
  537TIP3    H1 1575   3.590   2.707   3.657  0.3244 -1.3908 -2.0299
  537TIP3    H2 1576   3.487   2.755   3.557 -3.6188 -1.6147  1.6182
  538TIP3   OH2 1577   2.568   4.701   1.416  0.5366 -0.0722  0.1533
  538TIP3    H1 1578   2.593   4.744   1.497  1.7123  0.3389 -0.4051
  538TIP3    H2 1579   2.549   4.773   1.356  2.9138 -0.2453 -0.9138
  539TIP3   OH2 1580   1.796   4.781   5.540 -0.2827  0.0396 -0.3388
  539TIP3    H1 1581   1.715   4.749   5.501  0.1662 -2.3584  0.4938
  539TIP3    H2 1582   1.862   4.768   5.472 -0.0982 -0.9824  0.0031
  540TIP3   OH2 1583   2.193   0.304   4.751 -0.5155  0.4110 -0.5066
  540TIP3    H1 1584   2.241   0.375   4.707  0.4787 -0.0815 -0.2321
  540TIP3    H2 1585   2.171   0.340   4.837  0.5689  0.1802 -0.1133
  541TIP3   OH2 1586   0.969   1.520   2.368 -0.5507 -0.7761  0.1833
  541TIP3    H1 1587   0.978   1.426   2.386  0.0294 -0.5996  0.8248
  541TIP3    H2 1588   1.037   1.539   2.304 -0.3647 -0.6976  0.4044
  542TIP3   OH2 1589   5.061   1.123   2.234 -0.0078 -0.6014 -0.6172
  542TIP3    H1 1590   5.011   1.043   2.221 -0.1840 -0.5404 -0.3405
  542TIP3    H2 1591   5.075   1.128   2.329  0.8221 -0.7960 -0.7179
  543TIP3   OH2 1592   5.556   0.405   4.488 -0.1260  0.1668 -0.6641
  543TIP3    H1 1593   5.577   0.330   4.544 -0.9432 -0.1986 -0.8203
  543TIP3    H2 1594   5.631   0.464   4.496  1.1072 -1.2249 -1.5106
  544TIP3   OH2 1595   4.894   4.536   3.027 -0.0919  0.7532 -0.0952
  544TIP3    H1 1596   4.842   4.477   2.972 -2.6696  2.7158  0.0860
  544TIP3    H2 1597   4.924   4.481   3.099 -1.1476 -0.6539 -0.6822
  545TIP3   OH2 1598   2.136   2.715   1.112 -0.1079  0.1329  0.1047
  545TIP3    H1 1599   2.059   2.772   1.116 -0.4676 -0.3658  0.4718
  545TIP3    H2 1600   2.206   2.771   1.079 -0.3658  0.8704  0.7840
  546TIP3   OH2 1601   2.543   3.633   1.243 -0.5401  1.1485  0.4238
  546TIP3    H1 1602   2.535   3.719   1.202 -0.2048  0.2071 -1.7678
  546TIP3    H2 1603   2.616   3.643   1.305 -0.8811  2.5560  0.6437
  547TIP3   OH2 1604   2.785   5.016   5.150 -0.0878 -0.3915 -0.5517
  547TIP3    H1 1605   2.731   5.094   5.141  0.7880  0.3387  0.4012
  547TIP3    H2 1606   2.797   5.006   5.245  2.7848  0.4203 -0.7545
  548TIP3   OH2 1607   6.055   5.173   0.712  0.3301  0.0040  0.0910
  548TIP3    H1 1608   6.076   5.092   0.760  1.5058  1.4626  2.1817
  548TIP3    H2 1609   5.966   5.195   0.740 -0.6190 -1.3059 -1.6801
  549TIP3   OH2 1610   3.357   5.392   5.326 -0.0283  0.6659 -0.6025
  549TIP3    H1 1611   3.394   5.428   5.245  0.6053  0.5490 -0.3729
  549TIP3    H2 1612   3.268   5.426   5.329  0.8597  3.1982  0.1593
  550TIP3   OH2 1613   5.457   4.637   4.253  0.6643 -0.1086  0.1348
  550TIP3    H1 1614   5.443   4.562   4.311  1.1639 -0.2356  0.0991
  550TIP3    H2 1615   5.551   4.656   4.260  0.2881  1.4991  1.3281
  551TIP3   OH2 1616   4.015   3.796   1.743 -0.0898  0.1305  0.2705
  551TIP3    H1 1617   4.055   3.852   1.676 -1.0805 -1.3763 -1.7108
  551TIP3    H2 1618   4.073   3.720   1.749 -0.8790 -0.5296 -0.1765
  552TIP3   OH2 1619   6.751   4.281   3.344 -0.5620  0.1059  0.1120
  552TIP3    H1 1620   6.760   4.234   3.262 -2.3385  1.2735 -0.8226
  552TIP3    H2 1621   6.678   4.341   3.329  0.5587  1.9913  1.7753
  553TIP3   OH2 1622   4.749   2.600   2.323  0.1074 -0.6961  0.0724
  553TIP3    H1 1623   4.678   2.657   2.353 -0.6397 -1.7285  0.3303
  553TIP3    H2 1624   4.712   2.511   2.327  0.7867 -1.0966 -1.5895
  554TIP3   OH2 1625   1.953   1.760   4.614  0.0330  0.3925 -0.6694
  554TIP3    H1 1626   1.903   1.727   4.688 -1.8677  1.9695 -1.1790
  554TIP3    H2 1627   1.915   1.846   4.595  2.2339  1.1888 -1.7998
  555TIP3   OH2 1628   2.955   5.648   2.972 -0.1737  0.4402 -0.1052
  555TIP3    H1 1629   2.958   5.554   2.992  1.0270  0.2105 -1.1685
  555TIP3    H2 1630   2.939   5.690   3.056  0.8012 -0.6544  0.6625
  556TIP3   OH2 1631   5.346   4.798   0.956  0.4145  0.2156 -0.0487
  556TIP3    H1 1632   5.297   4.744   0.894  1.5071 -0.5594 -0.2616
  556TIP3    H2 1633   5.437   4.775   0.942  0.7006 -0.1172  1.9586
  557TIP3   OH2 1634   4.393   6.211   1.427 -0.5753  0.6149 -0.0602
  557TIP3    H1 1635   4.324   6.209   1.494 -0.3934 -0.0581  0.1153
  557TIP3    H2 1636   4.453   6.140   1.452  1.9959  3.1545  1.7073
  558TIP3   OH2 1637   1.344   4.484   2.590 -0.2114 -0.1518  0.2217
  558TIP3    H1 1638   1.394   4.422   2.535 -0.4862 -0.7929  0.6786
  558TIP3    H2 1639   1.291   4.428   2.647 -0.8753  0.5183  0.2764
  559TIP3   OH2 1640   2.816   2.977   2.701 -0.7574 -0.1676  0.5485
  559TIP3    H1 1641   2.854   2.922   2.770 -1.8780 -1.1629  0.3963
  559TIP3    H2 1642   2.777   3.050   2.749 -0.2962 -0.1089  0.8488
  560TIP3   OH2 1643   3.336   4.240   4.471  0.1814  0.3579  0.5492
  560TIP3    H1 1644   3.406   4.304   4.458 -0.4742  0.6659 -2.2115
  560TIP3    H2 1645   3.267   4.289   4.516 -0.3139  1.6914 -1.5140
  561TIP3   OH2 1646   6.960   4.204   1.924  0.5233 -0.3393 -0.5022
  561TIP3    H1 1647   6.960   4.229   2.016  2.7626  1.8030 -0.9956
  561TIP3    H2 1648   6.886   4.253   1.886  0.7788  0.3124 -0.1780
  562TIP3   OH2 1649   2.028   4.712   0.769  0.0820  0.0798 -0.3500
  562TIP3    H1 1650   2.019   4.694   0.863 -0.6698 -0.5465 -0.5301
  562TIP3    H2 1651   2.066   4.800   0.765 -1.9808  1.0884  0.5480
  563TIP3   OH2 1652   3.300   1.202   3.937 -0.0148 -0.8919 -0.3581
  563TIP3    H1 1653   3.311   1.265   4.009 -1.8918 -1.4502  0.4656
  563TIP3    H2 1654   3.377   1.216   3.882 -0.1726  1.8887 -0.0284
  564TIP3   OH2 1655   7.039   1.614   2.143 -0.8342 -0.6233 -0.5723
  564TIP3    H1 1656   7.094   1.692   2.144 -1.5049 -0.0962  1.4139
  564TIP3    H2 1657   7.087   1.552   2.088  0.4317  0.6820 -1.0249
  565TIP3   OH2 1658   1.291   4.939   1.325  0.3353 -0.0800  0.2129
  565TIP3    H1 1659   1.284   5.007   1.392 -2.0803  2.8982 -2.7330
  565TIP3    H2 1660   1.384   4.935   1.304  0.6214  1.9335  0.9055
  566TIP3   OH2 1661   4.962   5.711   3.026 -0.1535  0.0153  0.0180
  566TIP3    H1 1662   4.867   5.699   3.021 -0.1103  0.0995 -1.3998
  566TIP3    H2 1663   4.994   5.631   3.067 -0.9203  0.4417  1.4894
  567TIP3   OH2 1664   0.098   5.960   5.399  0.2323 -0.2220  0.3573
  567TIP3    H1 1665   0.006   5.972   5.375  0.3475 -1.3060 -0.7091
  567TIP3    H2 1666   0.121   6.040   5.446 -1.2520  0.0735  0.6397
  568TIP3   OH2 1667   0.352   4.354   0.286  0.1470  0.3324  0.3296
  568TIP3    H1 1668   0.331   4.262   0.301 -1.7462  0.8159  0.9793
  568TIP3    H2 1669   0.378   4.387   0.373  1.6746  0.2491 -0.0623
  569TIP3   OH2 1670   3.370   3.310   2.497  0.3102  0.0419 -0.1150
  569TIP3    H1 1671   3.452   3.352   2.471  1.1856 -1.6846 -0.2336
  569TIP3    H2 1672   3.385   3.280   2.586 -0.6736  0.8503  0.3487
  570TIP3   OH2 1673   4.099   0.553   0.476  0.1781 -0.2322  0.3280
  570TIP3    H1 1674   4.044   0.606   0.418  1.4763  0.2716 -0.4901
  570TIP3    H2 1675   4.145   0.617   0.530  0.1956 -0.6400  0.8051
  571TIP3   OH2 1676   7.167   1.991   0.383 -0.4787 -0.1742  0.3025
  571TIP3    H1 1677   7.207   2.036   0.309 -1.6243 -0.2360 -0.3781
  571TIP3    H2 1678   7.139   2.061   0.442 -0.2658 -0.0872  0.2978
  572TIP3   OH2 1679   3.577   0.334   2.767  0.6313  0.0014 -0.1083
  572TIP3    H1 1680   3.626   0.379   2.698 -1.1218 -0.2287 -1.5747
  572TIP3    H2 1681   3.555   0.403   2.831 -0.9158  1.0505 -1.6799
  573TIP3   OH2 1682   1.729   2.149   0.359  0.5466 -0.0364 -0.4170
  573TIP3    H1 1683   1.779   2.128   0.438  2.1719  1.3585 -1.0207
  573TIP3    H2 1684   1.789   2.130   0.287 -0.4448 -0.0328 -1.2656
  574TIP3   OH2 1685   4.688   1.724   2.197  0.4576 -0.8692  0.2403
  574TIP3    H1 1686   4.678   1.804   2.145  1.1160 -0.6039  0.5120
  574TIP3    H2 1687   4.638   1.658   2.149  0.0869 -0.3506 -0.1040
  575TIP3   OH2 1688   3.949   5.760   1.091  0.0025 -0.4236  0.5023
  575TIP3    H1 1689   3.871   5.704   1.094 -1.0101  0.8386 -1.0051
  575TIP3    H2 1690   3.930   5.832   1.150 -0.2295  0.1804 -0.2969
  576TIP3   OH2 1691   7.074   4.546   2.802 -0.3704  0.6082 -0.2015
  576TIP3    H1 1692   7.035   4.521   2.886  0.0868  1.1142  0.1628
  576TIP3    H2 1693   7.036   4.631   2.782  0.5881  1.1393  0.1893
  577TIP3   OH2 1694   3.461   3.603   4.120  0.3174 -0.4776  0.0536
  577TIP3    H1 1695   3.405   3.657   4.177  2.9059 -0.5094  2.8591
  577TIP3    H2 1696   3.432   3.513   4.135 -0.7440 -0.3054 -0.8142
  578TIP3   OH2 1697   2.088   1.004   1.068  0.5342  0.5858  0.5360
  578TIP3    H1 1698   2.003   1.045   1.053  0.9417  1.1702 -0.2090
  578TIP3    H2 1699   2.084   0.922   1.018  0.5797  0.8436  0.1031
  579TIP3   OH2 1700   2.672   2.715   2.209  0.5932  0.6015 -0.1256
  579TIP3    H1 1701   2.667   2.738   2.302 -0.7773  0.6180 -0.1873
  579TIP3    H2 1702   2.591   2.748   2.172  1.5195  1.3986 -1.5341
  580TIP3   OH2 1703   2.565   3.926   0.303  0.0468  0.3005 -0.1881
  580TIP3    H1 1704   2.615   3.884   0.374  1.0121 -0.7499 -1.4441
  580TIP3    H2 1705   2.530   3.853   0.252 -2.5232  1.0107  0.4007
  581TIP3   OH2 1706   3.179   5.453   4.138 -0.2552  0.0646  0.1348
  581TIP3    H1 1707   3.172   5.544   4.109 -0.2246 -0.7917 -2.7726
  581TIP3    H2 1708   3.273   5.441   4.154 -0.2821  0.5561  0.7419
  582TIP3   OH2 1709   5.522   4.890   5.287  0.3589  0.0073  0.1383
  582TIP3    H1 1710   5.542   4.813   5.340  2.1234 -0.7014 -1.4489
  582TIP3    H2 1711   5.605   4.912   5.244 -0.8578  0.8670 -1.9095
  583TIP3   OH2 1712   0.358   0.776   2.505 -0.4489 -0.4557  0.0149
  583TIP3    H1 1713   0.374   0.692   2.461 -0.9029 -0.8245  0.5462
  583TIP3    H2 1714   0.355   0.754   2.598  1.9218  0.5209  0.4056
  584TIP3   OH2 1715   6.568   3.286   1.143  0.1371  0.4623  0.2734
  584TIP3    H1 1716   6.574   3.256   1.053 -0.1610 -0.7323  0.6344
  584TIP3    H2 1717   6.480   3.322   1.150  0.4538  1.3391 -0.1299
  585TIP3   OH2 1718   5.548   3.505   1.894 -0.1726  0.0844 -0.4845
  585TIP3    H1 1719   5.509   3.469   1.973 -1.0899  1.0886 -0.4495
  585TIP3    H2 1720   5.495   3.469   1.823 -0.1501  0.1790 -0.5501
  586TIP3   OH2 1721   4.309   2.559   4.640  0.1619 -0.1940  0.1412
  586TIP3    H1 1722   4.304   2.576   4.734  0.8938  0.7115  0.0323
  586TIP3    H2 1723   4.396   2.524   4.626  0.1673 -0.0372 -0.2389
  587TIP3   OH2 1724   1.913   0.859   2.270 -0.4472 -0.3458 -0.5146
  587TIP3    H1 1725   1.982   0.902   2.219 -2.1688  1.3152 -1.5657
  587TIP3    H2 1726   1.883   0.788   2.213 -1.1172  0.3487 -1.0379
  588TIP3   OH2 1727   5.476   0.581   4.031 -0.4786 -0.0664  0.0098
  588TIP3    H1 1728   5.526   0.506   4.064  0.3083  1.1456  1.7791
  588TIP3    H2 1729   5.389   0.546   4.012 -0.1909 -1.3939  0.9982
  589TIP3   OH2 1730   0.177   0.714   4.009  0.0938 -0.0964  0.2608
  589TIP3    H1 1731   0.264   0.716   3.970  0.3244 -0.9303  0.7138
  589TIP3    H2 1732   0.151   0.621   4.006 -1.0180  0.2095 -0.3898
  590TIP3   OH2 1733   3.015   1.923   5.224 -0.2133  0.4079 -0.0524
  590TIP3    H1 1734   2.994   1.831   5.241 -0.5884  0.3914 -0.5794
  590TIP3    H2 1735   2.972   1.971   5.295  1.0252  0.0970  0.9571
  591TIP3   OH2 1736   3.060   5.686   3.856 -0.0474  0.0249  0.1646
  591TIP3    H1 1737   3.133   5.747   3.870 -0.3769  0.1892  1.2604
  591TIP3    H2 1738   2.982   5.740   3.863 -0.2939 -0.0672 -1.4583
  592TIP3   OH2 1739   1.530   2.248   1.146  0.1233 -0.0223 -0.5988
  592TIP3    H1 1740   1.489   2.162   1.158  1.4828 -1.1642 -3.2059
  592TIP3    H2 1741   1.468   2.297   1.093 -0.1596  0.1942 -0.0695
  593TIP3   OH2 1742   3.862   2.177   1.363  0.3011 -0.7832 -0.2940
  593TIP3    H1 1743   3.786   2.127   1.391  0.1674  0.6455  2.0991
  593TIP3    H2 1744   3.937   2.127   1.396  0.3078 -0.9741 -0.5942
  594TIP3   OH2 1745   0.675   2.787   3.821 -0.0921  0.3649  0.2625
  594TIP3    H1 1746   0.685   2.872   3.864 -0.5600  0.5414  0.0323
  594TIP3    H2 1747   0.764   2.758   3.804  0.1068  0.2290  1.4684
  595TIP3   OH2 1748   1.166   4.241   1.821 -0.1866 -0.0345  0.7526
  595TIP3    H1 1749   1.187   4.225   1.913 -0.2576 -1.1062  0.5878
  595TIP3    H2 1750   1.146   4.155   1.785  1.2271  0.1880 -0.6386
  596TIP3   OH2 1751   4.301   6.166   0.462  0.0858 -0.0526 -0.0278
  596TIP3    H1 1752   4.279   6.257   0.445 -3.7173 -0.8350 -0.1732
  596TIP3    H2 1753   4.259   6.147   0.546 -0.3688 -2.0023 -0.6471
  597TIP3   OH2 1754   1.775   4.853   1.013  0.2733 -0.1608  0.0994
  597TIP3    H1 1755   1.856   4.806   0.992  0.6181  1.6774 -3.5304
  597TIP3    H2 1756   1.805   4.933   1.055  0.2376 -0.1077  0.0238
  598TIP3   OH2 1757   2.318   1.163   0.513 -0.0172 -0.2744 -0.3843
  598TIP3    H1 1758   2.286   1.099   0.576  0.2135 -0.0297 -0.0135
  598TIP3    H2 1759   2.336   1.112   0.434 -1.2592 -0.4210 -0.5837
  599TIP3   OH2 1760   2.322   3.102   2.355  0.2355 -0.2211  0.7087
  599TIP3    H1 1761   2.242   3.132   2.310  0.0547 -0.5687  0.7974
  599TIP3    H2 1762   2.331   3.162   2.429 -0.8523 -1.1547  1.6441
  600TIP3   OH2 1763   4.151   1.159   3.199 -0.4871 -0.1507  0.5513
  600TIP3    H1 1764   4.160   1.178   3.293  0.4447 -1.0537  0.6575
  600TIP3    H2 1765   4.210   1.220   3.156 -0.1767 -0.3999  0.6249
  601TIP3   OH2 1766   0.762   2.674   5.700 -0.2281  0.2694 -0.3910
  601TIP3    H1 1767   0.751   2.763   5.735 -0.1788 -0.3223  1.2249
  601TIP3    H2 1768   0.828   2.684   5.632  1.2128  1.2138  1.0487
  602TIP3   OH2 1769   1.057   4.430   5.254  0.7646  0.2012 -0.2791
  602TIP3    H1 1770   1.011   4.437   5.338 -1.9072  0.0184 -1.5894
  602TIP3    H2 1771   1.089   4.341   5.252 -2.0112 -0.8993 -0.6741
  603TIP3   OH2 1772   2.333   3.640   1.959  0.1980 -0.9540  0.8002
  603TIP3    H1 1773   2.262   3.637   1.895  0.8324  0.5215 -0.0276
  603TIP3    H2 1774   2.290   3.633   2.044 -0.8538 -0.8997  0.2805
  604TIP3   OH2 1775   5.810   0.373   5.189 -0.0726 -0.1327 -0.1216
  604TIP3    H1 1776   5.901   0.377   5.159 -0.5989 -0.0739 -1.8440
  604TIP3    H2 1777   5.793   0.280   5.201  0.6098 -0.0635  1.6064
  605TIP3   OH2 1778   1.374   4.756   4.078 -0.1522 -0.1074 -0.0831
  605TIP3    H1 1779   1.300   4.787   4.129  0.5888  2.1434 -0.2615
  605TIP3    H2 1780   1.335   4.719   3.999 -1.1328  0.4858  0.1053
  606TIP3   OH2 1781   4.187   3.626   5.751  0.2845  0.4856  0.2014
  606TIP3    H1 1782   4.229   3.555   5.703  0.8012  0.3420  0.8450
  606TIP3    H2 1783   4.231   3.706   5.720  1.6187  0.2664  1.4421
  607TIP3   OH2 1784   7.059   4.164   3.372 -0.7520 -0.1539 -0.6583
  607TIP3    H1 1785   7.065   4.146   3.465  0.2906  1.8334 -0.2792
  607TIP3    H2 1786   7.034   4.256   3.367 -1.2969 -0.3563 -2.3505
  608TIP3   OH2 1787   1.787   4.347   3.021 -0.4172  0.1180 -0.2981
  608TIP3    H1 1788   1.765   4.342   3.114  3.2727  0.4237  0.7511
  608TIP3    H2 1789   1.816   4.259   2.998  0.3539  0.4604 -0.6543
  609TIP3   OH2 1790   1.261   0.381   3.232 -0.1929 -0.2742 -0.0987
  609TIP3    H1 1791   1.168   0.360   3.240 -0.2749  0.5302  1.6356
  609TIP3    H2 1792   1.304   0.324   3.296  0.5258 -0.6578 -0.9075
  610TIP3   OH2 1793   6.794   3.719   1.871 -0.2455  0.1665  0.2292
  610TIP3    H1 1794   6.751   3.637   1.844  0.1918  0.1843 -0.5591
  610TIP3    H2 1795   6.738   3.754   1.940 -1.3014  0.0040 -0.5214
  611TIP3   OH2 1796   2.128   5.211   0.686 -0.1333 -0.0260 -0.1459
  611TIP3    H1 1797   2.135   5.221   0.591 -2.4373  0.3384 -0.3466
  611TIP3    H2 1798   2.088   5.293   0.716  2.1153  0.5820  1.4157
  612TIP3   OH2 1799   5.859   5.992   3.741  0.4572 -0.1858 -0.8271
  612TIP3    H1 1800   5.903   6.066   3.782 -0.7881  0.7696 -1.1508
  612TIP3    H2 1801   5.887   5.916   3.791  0.0866  0.7659  0.8829
  613TIP3   OH2 1802   7.053   2.093   5.374 -0.2090 -0.4425  0.1107
  613TIP3    H1 1803   6.992   2.112   5.302  0.2092 -0.1719 -0.1762
  613TIP3    H2 1804   7.090   2.008   5.353  1.8917  0.7386 -1.4239
  614TIP3   OH2 1805   5.618   6.141   4.693  0.9208 -0.4540 -0.4745
  614TIP3    H1 1806   5.562   6.132   4.770  0.7779 -0.7650 -0.6133
  614TIP3    H2 1807   5.580   6.214   4.644  0.6742 -0.6203 -0.5341
  615TIP3   OH2 1808   5.640   0.852   2.136 -0.2866  0.1102  0.5195
  615TIP3    H1 1809   5.734   0.853   2.155 -0.2033  0.3009  0.1253
  615TIP3    H2 1810   5.624   0.934   2.089 -0.9501  0.8186  1.9210
  616TIP3   OH2 1811   6.517   0.745   3.912 -0.2580 -0.2737  0.2193
  616TIP3    H1 1812   6.509   0.768   4.005  0.5507 -0.8608  0.4544
  616TIP3    H2 1813   6.572   0.813   3.875 -1.3040  0.4482 -0.0393
  617TIP3   OH2 1814   2.989   2.330   1.906  0.5119 -0.1575  0.5207
  617TIP3    H1 1815   2.899   2.362   1.914  0.9586  1.1897  0.3762
  617TIP3    H2 1816   2.982   2.235   1.921 -1.0233 -0.1894 -0.2078
  618TIP3   OH2 1817   5.887   4.594   5.806  0.3251  0.4280 -0.1346
  618TIP3    H1 1818   5.810   4.644   5.834 -0.5868 -1.4067  0.8265
  618TIP3    H2 1819   5.954   4.613   5.872 -0.2672 -0.1804  0.6619
  619TIP3   OH2 1820   6.837   3.894   0.910  0.3736 -0.5189  0.2588
  619TIP3    H1 1821   6.805   3.836   0.841  0.4076 -0.0678 -0.1470
  619TIP3    H2 1822   6.932   3.895   0.898  0.3097  0.2926 -0.2988
  620TIP3   OH2 1823   0.513   4.469   4.183 -0.6749  0.3784  0.2983
  620TIP3    H1 1824   0.487   4.421   4.262 -1.8519  1.5424  0.6525
  620TIP3    H2 1825   0.487   4.413   4.111  0.9272 -0.9688  0.6896
  621TIP3   OH2 1826   5.805   4.159   5.612  0.5391  0.3314  0.4573
  621TIP3    H1 1827   5.825   4.135   5.702  0.2260  0.3028  0.5204
  621TIP3    H2 1828   5.751   4.238   5.619 -3.4200 -2.0834  0.5630
  622TIP3   OH2 1829   5.136   6.583   2.842 -0.4900  0.7547  0.1561
  622TIP3    H1 1830   5.071   6.516   2.822 -0.2390 -0.0974  1.9555
  622TIP3    H2 1831   5.215   6.554   2.797 -0.9777  1.0694 -0.9210
  623TIP3   OH2 1832   5.103   2.666   1.655 -0.0295 -0.0401  0.2251
  623TIP3    H1 1833   5.008   2.675   1.665 -0.2468 -1.8979  0.2406
  623TIP3    H2 1834   5.136   2.756   1.653 -2.0318  0.7460 -2.3697
  624TIP3   OH2 1835   2.774   4.848   4.428 -0.1231 -0.4749  0.3172
  624TIP3    H1 1836   2.810   4.836   4.516  0.6409 -1.4359 -0.1079
  624TIP3    H2 1837   2.726   4.767   4.410  0.8660 -0.8678 -0.6620
  625TIP3   OH2 1838   1.108   3.412   2.466  0.2582  0.0914 -0.2154
  625TIP3    H1 1839   1.069   3.407   2.379  2.1735  0.8403 -1.1728
  625TIP3    H2 1840   1.057   3.479   2.511 -1.9626 -1.6064 -0.0406
  626TIP3   OH2 1841   1.315   5.714   1.311  0.2420 -0.8649  0.0070
  626TIP3    H1 1842   1.255   5.639   1.323  0.3805 -0.8375  0.9495
  626TIP3    H2 1843   1.388   5.696   1.371 -0.3308  0.6347  1.2245
  627TIP3   OH2 1844   6.732   1.770   2.221 -0.2986 -0.1434  0.1483
  627TIP3    H1 1845   6.648   1.794   2.182  0.1229 -0.4959 -1.0065
  627TIP3    H2 1846   6.714   1.691   2.272 -0.3520 -1.2013 -1.4525
  628TIP3   OH2 1847   2.722   1.171   1.679 -0.2321  0.2774  0.2175
  628TIP3    H1 1848   2.683   1.208   1.600 -0.4519 -1.4195 -0.4971
  628TIP3    H2 1849   2.767   1.092   1.650 -2.6314 -1.9616  2.1274
  629TIP3   OH2 1850   3.151   1.466   2.527 -0.2920  0.2533  0.8724
  629TIP3    H1 1851   3.147   1.485   2.434  0.1825  0.9016  0.9715
  629TIP3    H2 1852   3.088   1.395   2.541 -0.6842  0.4556  0.1429
  630TIP3   OH2 1853   1.201   1.064   3.499  0.3994  0.1017  0.2917
  630TIP3    H1 1854   1.166   0.998   3.439  1.7730 -0.3287 -0.0704
  630TIP3    H2 1855   1.125   1.093   3.550 -0.3446 -1.2891  0.0205
  631TIP3   OH2 1856   2.399   6.289   0.225 -0.3991 -0.1243  0.1587
  631TIP3    H1 1857   2.473   6.257   0.276 -2.0487  0.2782  3.0709
  631TIP3    H2 1858   2.392   6.381   0.248 -2.2069 -0.3206  0.5419
  632TIP3   OH2 1859   1.871   0.292   5.225 -0.3423  0.2924  0.6158
  632TIP3    H1 1860   1.958   0.333   5.231 -0.6576  1.4776 -1.6476
  632TIP3    H2 1861   1.873   0.245   5.142 -1.5858 -0.4298  0.9673
  633TIP3   OH2 1862   4.682   5.501   0.601  0.1960 -0.4909 -0.0084
  633TIP3    H1 1863   4.753   5.566   0.607 -1.0961  0.8879  0.8875
  633TIP3    H2 1864   4.640   5.520   0.517 -0.3060  0.0126  0.3425
  634TIP3   OH2 1865   4.299   4.118   3.053  0.1205  0.3839  0.0614
  634TIP3    H1 1866   4.363   4.051   3.030 -0.0421 -0.0107  0.7127
  634TIP3    H2 1867   4.236   4.117   2.982  0.3644  0.1584 -0.1521
  635TIP3   OH2 1868   6.844   5.420   5.609  0.4228  0.5976 -0.7080
  635TIP3    H1 1869   6.806   5.349   5.558  0.9760 -0.0412 -0.2462
  635TIP3    H2 1870   6.930   5.388   5.635  1.0152  1.7447 -1.1512
  636TIP3   OH2 1871   6.904   4.429   5.323  0.0585  0.6928 -0.5631
  636TIP3    H1 1872   6.864   4.493   5.382  0.7161  2.8402 -2.3298
  636TIP3    H2 1873   6.995   4.456   5.316  0.6553 -1.1391 -0.5437
  637TIP3   OH2 1874   1.046   3.899   2.178 -0.2210  0.5098 -0.2831
  637TIP3    H1 1875   1.012   3.973   2.128 -0.8482  0.1971 -0.3361
  637TIP3    H2 1876   1.004   3.822   2.138 -0.5443  0.2366  0.5510
  638TIP3   OH2 1877   4.981   3.879   1.563  0.3639  0.4433 -0.1467
  638TIP3    H1 1878   5.074   3.862   1.554  0.2691  0.4397 -1.2412
  638TIP3    H2 1879   4.966   3.959   1.513  0.1015  1.5734  1.6179
  639TIP3   OH2 1880   1.255   2.752   2.602 -0.0925 -0.6513  0.1431
  639TIP3    H1 1881   1.342   2.784   2.578 -0.9051  1.5452 -0.0948
  639TIP3    H2 1882   1.268   2.710   2.687  1.3392 -1.1724 -0.2972
  640TIP3   OH2 1883   0.921   1.267   2.514  0.2343 -0.5446 -0.0116
  640TIP3    H1 1884   0.841   1.249   2.562  0.3514 -1.6203 -0.1900
  640TIP3    H2 1885   0.952   1.181   2.485  0.2036  0.0347 -1.9580
  641TIP3   OH2 1886   1.787   3.828   4.633  0.1524 -0.7305 -0.0818
  641TIP3    H1 1887   1.835   3.816   4.551  2.2519 -0.1479  0.9680
  641TIP3    H2 1888   1.839   3.780   4.698 -1.0121 -0.5215  1.0458
  642TIP3   OH2 1889   3.457   2.291   1.508  0.1160  0.2111  0.3992
  642TIP3    H1 1890   3.388   2.272   1.571  0.3485  1.4196  1.0450
  642TIP3    H2 1891   3.433   2.376   1.470 -0.2188 -0.6537 -1.4496
  643TIP3   OH2 1892   3.932   0.373   0.109  0.1670  0.3670 -0.0063
  643TIP3    H1 1893   4.023   0.398   0.121  0.5709  1.6332 -4.2402
  643TIP3    H2 1894   3.926   0.341   0.019 -3.5073  0.0011  0.1834
  644TIP3   OH2 1895   3.980   3.332   2.848 -0.4954  0.6972 -0.4233
  644TIP3    H1 1896   3.921   3.347   2.922 -0.7868  1.5902 -0.8244
  644TIP3    H2 1897   3.955   3.246   2.815  0.6067 -0.3955  1.3870
  645TIP3   OH2 1898   2.808   4.164   1.062  0.0508 -0.3542  0.1576
  645TIP3    H1 1899   2.825   4.168   0.968 -1.9554 -0.0581 -0.2392
  645TIP3    H2 1900   2.839   4.077   1.088 -0.4314 -0.9098 -1.0375
  646TIP3   OH2 1901   5.406   6.152   5.386 -0.8420  0.4172 -0.1467
  646TIP3    H1 1902   5.497   6.127   5.405 -0.8624  0.5845  0.1812
  646TIP3    H2 1903   5.371   6.181   5.470 -1.5504 -0.7046 -0.0293
  647TIP3   OH2 1904   3.725   1.897   4.819 -0.4122 -0.2200  0.3605
  647TIP3    H1 1905   3.736   1.982   4.862  0.2173  0.6616 -1.4264
  647TIP3    H2 1906   3.779   1.837   4.870  1.0298  0.9757  0.3228
  648TIP3   OH2 1907   1.865   0.916   0.511 -0.1216  0.8014 -0.2036
  648TIP3    H1 1908   1.936   0.980   0.519 -0.5630  1.0863  2.3272
  648TIP3    H2 1909   1.901   0.837   0.550 -0.7252  0.5281 -0.2000
  649TIP3   OH2 1910   2.651   3.893   1.625  0.3094 -0.0097  0.1255
  649TIP3    H1 1911   2.715   3.961   1.605 -0.4097  0.9099  0.8396
  649TIP3    H2 1912   2.572   3.941   1.651 -0.8774 -1.1030 -1.2795
  650TIP3   OH2 1913   3.627   4.659   3.954  0.1679 -0.5007 -0.2999
  650TIP3    H1 1914   3.701   4.672   3.894 -1.0451 -0.4992 -1.8716
  650TIP3    H2 1915   3.620   4.742   4.001  0.8643 -0.3326 -0.4675
  651TIP3   OH2 1916   3.184   4.608   2.985 -0.0012 -0.4301 -0.4516
  651TIP3    H1 1917   3.171   4.559   3.066 -0.4415 -0.6286 -0.6364
  651TIP3    H2 1918   3.233   4.548   2.929  1.7009  0.2811  0.2090
  652TIP3   OH2 1919   2.667   4.219   1.717  0.0391 -0.0108  0.3755
  652TIP3    H1 1920   2.611   4.265   1.779  0.1804 -0.4893  0.8718
  652TIP3    H2 1921   2.753   4.260   1.726 -0.0994  0.3712 -0.0034
  653TIP3   OH2 1922   1.496   2.431   4.529  0.1364  0.2782  0.5834
  653TIP3    H1 1923   1.580   2.471   4.505 -0.2064 -0.0967 -1.4065
  653TIP3    H2 1924   1.508   2.404   4.620  3.7850 -3.5808 -0.6798
  654TIP3   OH2 1925   3.492   4.861   4.080 -0.1103 -0.0203 -0.1949
  654TIP3    H1 1926   3.408   4.824   4.054  0.3769 -0.7545 -0.7677
  654TIP3    H2 1927   3.498   4.844   4.174 -0.4402 -0.2984 -0.2228
  655TIP3   OH2 1928   3.342   2.959   0.885 -0.4793 -0.2246  0.4002
  655TIP3    H1 1929   3.298   3.006   0.814  0.2892 -1.1086 -0.7143
  655TIP3    H2 1930   3.297   2.875   0.890  0.7794 -0.9883 -0.4976
  656TIP3   OH2 1931   2.899   3.942   3.750  0.3309  0.2709 -0.3323
  656TIP3    H1 1932   2.957   4.004   3.795  0.4732 -1.3458  1.8731
  656TIP3    H2 1933   2.958   3.873   3.720 -0.1316 -0.0370 -0.5292
  657TIP3   OH2 1934   6.167   0.236   5.380 -0.0562 -0.1357 -0.1594
  657TIP3    H1 1935   6.095   0.185   5.342  1.3782 -0.1773 -3.0935
  657TIP3    H2 1936   6.243   0.178   5.375  0.8854  1.0711 -0.2951
  658TIP3   OH2 1937   6.233   5.849   3.437  0.1770 -0.0111 -0.0210
  658TIP3    H1 1938   6.280   5.927   3.408 -0.8396  1.0499  1.0546
  658TIP3    H2 1939   6.251   5.844   3.530  0.0691 -0.9604 -0.0477
  659TIP3   OH2 1940   0.283   3.538   5.897 -0.7590  0.0600 -0.3424
  659TIP3    H1 1941   0.238   3.489   5.828 -1.8865 -1.0658  1.1457
  659TIP3    H2 1942   0.246   3.626   5.892  0.7355  0.6620 -2.5357
  660TIP3   OH2 1943   1.160   2.478   4.621  0.4053 -0.0703  0.2971
  660TIP3    H1 1944   1.104   2.542   4.578  2.0136  2.0187  1.0858
  660TIP3    H2 1945   1.241   2.527   4.640  0.9983 -1.8099  2.6639
  661TIP3   OH2 1946   6.717   6.663   3.056 -0.0450 -0.1417 -0.4283
  661TIP3    H1 1947   6.797   6.630   3.097 -0.2899 -0.0967  0.1004
  661TIP3    H2 1948   6.655   6.591   3.065  1.2922 -2.3023 -5.3783
  662TIP3   OH2 1949   1.535   4.515   5.034  0.5141 -0.5014  0.6342
  662TIP3    H1 1950   1.484   4.442   4.999 -0.6577  0.0970  1.0514
  662TIP3    H2 1951   1.626   4.490   5.018  0.0959 -1.4721 -0.3670
  663TIP3   OH2 1952   2.734   0.473   0.848 -0.1020 -0.2249 -0.0418
  663TIP3    H1 1953   2.697   0.397   0.892 -0.1330 -0.8832 -1.1721
  663TIP3    H2 1954   2.797   0.437   0.785  1.1095  0.7794  0.5470
  664TIP3   OH2 1955   0.270   2.523   4.437 -0.0423 -0.3018  0.4227
  664TIP3    H1 1956   0.197   2.582   4.417  0.5948 -0.1922 -1.8659
  664TIP3    H2 1957   0.241   2.437   4.405  1.0890 -0.0989 -1.2685
  665TIP3   OH2 1958   0.506   5.644   4.171  0.0133 -0.6357  0.0965
  665TIP3    H1 1959   0.484   5.723   4.220 -0.6033 -1.8825  1.9562
  665TIP3    H2 1960   0.601   5.645   4.166  0.1761 -0.8074  2.0697
  666TIP3   OH2 1961   1.825   4.555   1.201 -0.3459  0.0643  0.3257
  666TIP3    H1 1962   1.910   4.511   1.197  0.7871  2.1226  0.5657
  666TIP3    H2 1963   1.783   4.532   1.118  0.9663  0.0026 -0.3584
  667TIP3   OH2 1964   3.559   3.840   5.478 -0.4050 -0.9923 -0.1827
  667TIP3    H1 1965   3.630   3.903   5.470 -1.7840  0.7287  0.4142
  667TIP3    H2 1966   3.523   3.832   5.390 -0.3350 -0.8031 -0.2287
  668TIP3   OH2 1967   1.488   2.012   5.727 -0.1775 -0.7636  0.1259
  668TIP3    H1 1968   1.485   1.930   5.776 -0.9626 -0.5632  0.4350
  668TIP3    H2 1969   1.536   2.072   5.783 -0.8015 -0.6256  0.5260
  669TIP3   OH2 1970   3.338   1.501   4.376 -0.2784  0.2467 -0.0615
  669TIP3    H1 1971   3.433   1.489   4.380 -0.4174 -0.8102  0.3468
  669TIP3    H2 1972   3.311   1.508   4.468 -0.5529  1.0299 -0.1896
  670TIP3   OH2 1973   4.523   1.192   0.137  0.2287 -0.1887  0.3031
  670TIP3    H1 1974   4.613   1.218   0.159  1.0562 -2.8018  0.2815
  670TIP3    H2 1975   4.508   1.230   0.051  0.9717  0.9839  0.6570
  671TIP3   OH2 1976   3.658   5.750   1.127 -0.4785 -1.0334  0.0610
  671TIP3    H1 1977   3.613   5.807   1.190  0.1737 -1.4040  0.8741
  671TIP3    H2 1978   3.644   5.793   1.042 -0.6769 -0.0914  0.5575
  672TIP3   OH2 1979   5.851   5.128   3.116  0.1655  0.3466 -0.4594
  672TIP3    H1 1980   5.773   5.073   3.105  0.4880 -0.1367 -0.3418
  672TIP3    H2 1981   5.921   5.077   3.075  1.1551 -0.8897  2.5324
  673TIP3   OH2 1982   5.976   3.839   1.538 -0.0261  0.1757 -0.3373
  673TIP3    H1 1983   6.024   3.870   1.614 -0.0356 -0.8017  0.0869
  673TIP3    H2 1984   6.033   3.857   1.464  0.5794 -0.0868  0.0571
  674TIP3   OH2 1985   4.430   3.233   0.663 -0.1764 -0.0365  0.1344
  674TIP3    H1 1986   4.486   3.170   0.619  0.6821  0.9856 -0.2591
  674TIP3    H2 1987   4.462   3.236   0.753  1.2820  1.4733 -0.3839
  675TIP3   OH2 1988   1.067   0.899   3.313  0.0896 -0.2850  0.4786
  675TIP3    H1 1989   1.116   0.833   3.264 -0.4479 -1.3021  1.2749
  675TIP3    H2 1990   1.062   0.974   3.254 -0.8630 -1.5893 -1.1920
  676TIP3   OH2 1991   1.033   4.642   3.241 -1.0227  0.4955  0.1305
  676TIP3    H1 1992   0.970   4.630   3.170 -0.0335  2.1710 -1.1074
  676TIP3    H2 1993   1.100   4.699   3.204  1.0350 -0.8687  1.5175
  677TIP3   OH2 1994   7.164   1.019   0.443 -0.5270  0.2611  0.0079
  677TIP3    H1 1995   7.198   1.002   0.355  0.1633 -0.0426  0.3270
  677TIP3    H2 1996   7.132   0.933   0.472 -2.0703  0.6287 -0.4786
  678TIP3   OH2 1997   3.875   1.802   0.116  0.6146 -0.1756 -0.7191
  678TIP3    H1 1998   3.958   1.848   0.104  0.7241 -0.5080 -1.2841
  678TIP3    H2 1999   3.897   1.727   0.171  0.3307  0.7248  0.6756
  679TIP3   OH2 2000   1.381   6.154   5.397  0.1563 -0.0466 -0.6391
  679TIP3    H1 2001   1.474   6.171   5.412  0.2383 -0.9690 -0.0607
  679TIP3    H2 2002   1.343   6.241   5.387  1.1820  0.3253 -1.5495
  680TIP3   OH2 2003   0.912   5.560   1.629  0.4740  0.4012 -0.2952
  680TIP3    H1 2004   0.838   5.619   1.614  0.8783  0.9035 -0.3459
  680TIP3    H2 2005   0.989   5.612   1.607  0.9157  0.2735  0.8797
  681TIP3   OH2 2006   2.980   0.461   3.703  0.2019  0.2756  0.1380
  681TIP3    H1 2007   2.946   0.505   3.781  0.6168  0.0602  0.4475
  681TIP3    H2 2008   3.043   0.397   3.738  0.4442  0.2334 -0.3781
  682TIP3   OH2 2009   6.392   2.390   3.890 -0.4651 -0.6549  0.7927
  682TIP3    H1 2010   6.368   2.443   3.813 -1.4360 -1.1396  0.7490
  682TIP3    H2 2011   6.381   2.450   3.964  0.3427 -0.2260  0.5831
  683TIP3   OH2 2012   1.477   3.681   4.344  0.1332 -0.1582 -0.0315
  683TIP3    H1 2013   1.542   3.612   4.362 -0.3975 -0.4459  0.8554
  683TIP3    H2 2014   1.457   3.671   4.251  2.8036  1.2196 -0.8651
  684TIP3   OH2 2015   0.893   1.165   0.758 -0.5307  0.2738 -0.1857
  684TIP3    H1 2016   0.895   1.228   0.831 -2.7644 -1.2518  1.3278
  684TIP3    H2 2017   0.971   1.111   0.772 -0.2496  0.7897  0.3126
  685TIP3   OH2 2018   6.543   1.437   3.065 -0.3726  0.0821 -0.0634
  685TIP3    H1 2019   6.499   1.464   2.985 -2.6816 -1.6739  0.5244
  685TIP3    H2 2020   6.624   1.396   3.035 -0.6364  0.4859 -1.4087
  686TIP3   OH2 2021   4.703   3.195   4.177  0.3132 -0.1383 -0.7710
  686TIP3    H1 2022   4.751   3.272   4.147  1.2449 -0.2788  0.2929
  686TIP3    H2 2023   4.612   3.212   4.154  0.3542  1.6992  0.2796
  687TIP3   OH2 2024   5.117   6.235   3.533 -0.3751 -0.0836  0.1307
  687TIP3    H1 2025   5.187   6.290   3.568  0.1700 -0.5732 -0.1849
  687TIP3    H2 2026   5.115   6.254   3.439  0.9556 -1.8159 -0.2961
  688TIP3   OH2 2027   0.931   5.693   2.301 -0.0714  0.0542 -0.0325
  688TIP3    H1 2028   0.882   5.738   2.371 -0.9076  0.3271 -0.7770
  688TIP3    H2 2029   1.021   5.720   2.314 -0.3680  0.8922  0.3467
  689TIP3   OH2 2030   6.692   1.685   1.674  0.0062 -0.1273  0.5626
  689TIP3    H1 2031   6.642   1.620   1.625  0.7454 -0.9769  0.9077
  689TIP3    H2 2032   6.689   1.654   1.765  0.9320 -0.0507  0.6232
  690TIP3   OH2 2033   1.195   1.923   0.336 -0.0388  0.4368 -0.2305
  690TIP3    H1 2034   1.187   2.018   0.326 -0.4208  0.3829 -0.4752
  690TIP3    H2 2035   1.113   1.888   0.300  0.5397 -0.0468 -1.1384
  691TIP3   OH2 2036   4.799   0.514   3.606 -0.0293  0.6252  0.8067
  691TIP3    H1 2037   4.704   0.517   3.615 -0.0261  1.1774  0.7102
  691TIP3    H2 2038   4.817   0.433   3.558 -0.5222  0.9909 -0.0078
  692TIP3   OH2 2039   0.745   4.676   1.846 -0.3778  0.4960 -0.4153
  692TIP3    H1 2040   0.710   4.757   1.883  1.0881  2.1346 -2.3746
  692TIP3    H2 2041   0.772   4.700   1.757  3.7108 -1.0751  0.2056
  693TIP3   OH2 2042   6.850   0.439   4.982 -0.3439 -0.0346  0.0756
  693TIP3    H1 2043   6.777   0.498   4.965 -0.8519 -0.9793 -1.2229
  693TIP3    H2 2044   6.811   0.362   5.023 -0.1012 -0.5573 -0.6468
  694TIP3   OH2 2045   0.448   3.410   5.448 -0.3252 -0.4474 -0.0874
  694TIP3    H1 2046   0.393   3.488   5.451 -0.6658 -0.6881  0.1899
  694TIP3    H2 2047   0.398   3.348   5.394 -0.1999 -0.5733 -0.0586
  695TIP3   OH2 2048   6.906   1.210   3.831  0.1591  0.3891  0.0926
  695TIP3    H1 2049   6.825   1.160   3.827  0.7695 -0.5623 -0.9377
  695TIP3    H2 2050   6.975   1.145   3.829  0.9778  1.2473 -1.5368
  696TIP3   OH2 2051   3.176   0.201   3.614  0.1416  0.0237  0.0453
  696TIP3    H1 2052   3.151   0.115   3.580 -0.3525  0.7823 -1.6390
  696TIP3    H2 2053   3.253   0.226   3.562  1.5329 -0.2132  1.8850
  697TIP3   OH2 2054   1.153   2.231   4.158 -0.0514  0.0619  0.0551
  697TIP3    H1 2055   1.203   2.229   4.240  0.6264 -0.3331 -0.3657
  697TIP3    H2 2056   1.194   2.165   4.103  0.3079  1.1927 -1.0738
  698TIP3   OH2 2057   5.810   5.183   1.525  0.2080 -1.1642 -0.2419
  698TIP3    H1 2058   5.764   5.267   1.524  1.6465 -0.3135 -2.4519
  698TIP3    H2 2059   5.788   5.145   1.610 -2.0524  0.5437  0.0337
  699TIP3   OH2 2060   2.531   2.790   0.419 -0.1795  0.2432  0.0989
  699TIP3    H1 2061   2.607   2.792   0.362  0.1354 -0.2661  0.4954
  699TIP3    H2 2062   2.493   2.878   0.412  0.9263  0.7671  0.5594
  700TIP3   OH2 2063   5.916   0.276   1.361  0.1704  0.2383  0.5124
  700TIP3    H1 2064   5.935   0.326   1.440 -2.4280 -0.7223  1.8743
  700TIP3    H2 2065   5.970   0.197   1.369  1.4684  1.0796  0.2424
  701TIP3   OH2 2066   1.707   0.085   0.085  0.1220 -0.4116 -0.3936
  701TIP3    H1 2067   1.682  -0.001   0.050 -0.2961 -1.0364  1.3028
  701TIP3    H2 2068   1.716   0.141   0.008 -3.0250 -1.0724 -1.3742
  702TIP3   OH2 2069   4.138   4.414   3.677  0.1269  0.1137 -0.1163
  702TIP3    H1 2070   4.128   4.414   3.582  0.0783 -1.6924 -0.1488
  702TIP3    H2 2071   4.143   4.507   3.701  1.4990  0.6053 -2.0161
  703TIP3   OH2 2072   4.338   0.908   2.363 -0.2604  0.0842  0.9018
  703TIP3    H1 2073   4.340   0.813   2.355  1.6789  0.1352  0.2875
  703TIP3    H2 2074   4.383   0.926   2.446 -0.0091  0.4770  0.6845
  704TIP3   OH2 2075   1.600   3.159   2.496 -0.4642  0.1542  0.2794
  704TIP3    H1 2076   1.694   3.172   2.492 -0.4477 -0.1963 -1.0887
  704TIP3    H2 2077   1.569   3.226   2.557  0.4870  1.3579 -0.5087
  705TIP3   OH2 2078   0.727   1.076   5.556  0.3468  0.3342 -0.1216
  705TIP3    H1 2079   0.663   1.138   5.591 -1.6534 -1.1814 -0.9335
  705TIP3    H2 2080   0.715   0.997   5.609  0.7969 -0.3257 -0.9842
  706TIP3   OH2 2081   4.481   2.902   2.079 -0.2696 -0.4158 -0.9364
  706TIP3    H1 2082   4.565   2.856   2.082  0.8341  1.2915 -2.9597
  706TIP3    H2 2083   4.435   2.863   2.004 -0.2758  0.2285 -1.2749
  707TIP3   OH2 2084   5.119   2.131   5.084 -0.1075 -0.4422  0.2190
  707TIP3    H1 2085   5.141   2.051   5.038  2.7594  0.3505 -0.0009
  707TIP3    H2 2086   5.204   2.171   5.105 -1.3891  1.7350  1.7379
  708TIP3   OH2 2087   4.524   2.426   4.525 -0.2782 -0.3707  0.0590
  708TIP3    H1 2088   4.611   2.447   4.559 -0.6518  1.3614  0.0445
  708TIP3    H2 2089   4.524   2.465   4.437 -0.9662 -0.5939 -0.0413
  709TIP3   OH2 2090   3.427   3.956   1.408  0.6561  0.8510 -0.2740
  709TIP3    H1 2091   3.482   4.032   1.424 -1.5120  2.6727 -0.9067
  709TIP3    H2 2092   3.407   3.960   1.315  0.8416 -0.7598 -0.4027
  710TIP3   OH2 2093   0.139   5.980   0.323  0.5999  0.1730 -0.4727
  710TIP3    H1 2094   0.102   5.922   0.256 -0.5334  0.8253 -0.4251
  710TIP3    H2 2095   0.137   5.928   0.403 -0.8056  0.4030 -0.3418
  711TIP3   OH2 2096   2.352   5.681   5.796  0.6758 -0.2172  0.7924
  711TIP3    H1 2097   2.302   5.661   5.716  1.0230  1.0814  0.2194
  711TIP3    H2 2098   2.364   5.596   5.839 -0.0814 -0.8524 -0.2065
  712TIP3   OH2 2099   5.113   4.697   3.015 -0.5494 -0.1179  0.5254
  712TIP3    H1 2100   5.057   4.620   3.011  0.5672 -0.9639  0.5456
  712TIP3    H2 2101   5.178   4.682   2.946  0.2824  0.3077  1.1977
  713TIP3   OH2 2102   4.995   0.687   3.244  0.4337  0.2447 -0.1236
  713TIP3    H1 2103   5.018   0.684   3.151  0.0906  0.1230 -0.2030
  713TIP3    H2 2104   5.074   0.655   3.289  1.2598  1.9666 -0.2628
  714TIP3   OH2 2105   4.419   4.924   4.072 -0.6574  0.0706 -0.2198
  714TIP3    H1 2106   4.509   4.945   4.096 -0.2173 -1.9564  0.1171
  714TIP3    H2 2107   4.400   4.980   3.997  1.8746 -1.3179 -2.0240
  715TIP3   OH2 2108   2.135   5.393   0.067  0.0775 -0.0127 -0.4998
  715TIP3    H1 2109   2.169   5.449   0.138 -1.1527  0.3508 -0.1611
  715TIP3    H2 2110   2.208   5.338   0.042  1.5621  2.1863 -1.2826
  716TIP3   OH2 2111   5.812   6.360   2.636  0.3526 -0.0190  0.2783
  716TIP3    H1 2112   5.808   6.411   2.716 -0.7907  0.8913 -0.3326
  716TIP3    H2 2113   5.860   6.281   2.660  4.0125  2.1267  0.8169
  717TIP3   OH2 2114   0.624   2.327   1.060 -0.0542 -0.0942 -0.1651
  717TIP3    H1 2115   0.545   2.286   1.095 -0.1972 -0.2924 -0.7060
  717TIP3    H2 2116   0.692   2.262   1.074 -0.0485 -0.0483  0.0230
  718TIP3   OH2 2117   1.651   1.589   1.986  0.0345 -0.0801 -0.0619
  718TIP3    H1 2118   1.711   1.538   1.932 -0.2121 -1.3529  0.8003
  718TIP3    H2 2119   1.658   1.678   1.954 -0.0533 -0.7670 -2.1483
  719TIP3   OH2 2120   3.832   5.170   3.321  0.2078  0.0209  0.3616
  719TIP3    H1 2121   3.766   5.239   3.334  1.3567  0.9100  1.8283
  719TIP3    H2 2122   3.913   5.218   3.303  1.0651 -0.9207  1.5634
  720TIP3   OH2 2123   4.445   3.503   5.654 -0.3789  0.1139 -0.6342
  720TIP3    H1 2124   4.496   3.508   5.572 -0.0029  0.2352 -0.3967
  720TIP3    H2 2125   4.422   3.411   5.663  0.7706 -0.1393 -0.1646
  721TIP3   OH2 2126   1.516   3.972   0.224  1.0680 -0.5956  0.1765
  721TIP3    H1 2127   1.426   4.005   0.232  1.1812 -0.7473  3.1761
  721TIP3    H2 2128   1.531   3.966   0.130 -1.5329  0.8600 -0.4267
  722TIP3   OH2 2129   1.570   1.396   2.870 -0.0525 -0.1045 -0.6842
  722TIP3    H1 2130   1.601   1.352   2.949  0.3984  1.0465 -0.1997
  722TIP3    H2 2131   1.621   1.477   2.866 -1.0190  0.4913 -1.4132
  723TIP3   OH2 2132   6.770   5.453   1.820 -0.1040  0.1475  0.3297
  723TIP3    H1 2133   6.826   5.473   1.745  1.1662  0.7309  1.4049
  723TIP3    H2 2134   6.804   5.370   1.854  1.9012  1.7524  2.5488
  724TIP3   OH2 2135   6.336   1.357   1.416 -0.4040  0.1615  0.0393
  724TIP3    H1 2136   6.289   1.279   1.447 -2.7508  0.5469 -2.1991
  724TIP3    H2 2137   6.394   1.324   1.347 -0.7532  0.2492 -0.3029
  725TIP3   OH2 2138   5.229   6.717   0.748 -0.5448  0.6480 -0.5442
  725TIP3    H1 2139   5.261   6.708   0.838 -2.2292  2.5695  0.3127
  725TIP3    H2 2140   5.295   6.771   0.704 -0.0879  0.3114 -0.2926
  726TIP3   OH2 2141   6.611   4.070   1.246  0.3368 -0.0580 -0.5135
  726TIP3    H1 2142   6.658   4.122   1.311  0.5943  0.3417 -1.0102
  726TIP3    H2 2143   6.548   4.130   1.207 -0.9079 -0.7014  0.4391
  727TIP3   OH2 2144   4.740   6.350   4.050  0.1666 -0.2582 -0.5070
  727TIP3    H1 2145   4.812   6.344   4.114 -1.7888 -1.2843  1.7211
  727TIP3    H2 2146   4.675   6.406   4.092 -0.8512 -0.2691 -1.9911
  728TIP3   OH2 2147   0.507   5.778   2.989  0.4517 -0.1234 -0.1597
  728TIP3    H1 2148   0.442   5.768   3.059 -2.0172  0.8385 -2.1290
  728TIP3    H2 2149   0.591   5.775   3.034 -0.9750  1.4855  3.0111
  729TIP3   OH2 2150   6.263   1.710   1.146  0.5139 -0.8153  0.5844
  729TIP3    H1 2151   6.301   1.722   1.233 -0.1689 -0.3786  0.8254
  729TIP3    H2 2152   6.169   1.706   1.161  0.3958 -0.8239 -0.1282
  730TIP3   OH2 2153   4.270   3.033   3.840  0.4579  0.2374  0.2306
  730TIP3    H1 2154   4.362   3.054   3.855  0.3611  0.5293  0.4067
  730TIP3    H2 2155   4.261   3.033   3.745  0.2724  1.8113  0.2262
  731TIP3   OH2 2156   0.120   0.483   0.868 -0.0731 -0.0411 -0.2852
  731TIP3    H1 2157   0.177   0.410   0.844  0.1534 -0.6172  1.8586
  731TIP3    H2 2158   0.141   0.501   0.959 -2.7214  0.2778  0.3295
  732TIP3   OH2 2159   3.161   3.334   4.691 -0.1475 -0.0850  0.0491
  732TIP3    H1 2160   3.167   3.242   4.717  2.3056  0.1231  0.4902
  732TIP3    H2 2161   3.099   3.372   4.753 -2.1268 -1.6333 -0.8929
  733TIP3   OH2 2162   3.804   4.978   5.257  0.2885 -0.1650  0.2140
  733TIP3    H1 2163   3.870   4.994   5.190 -0.7019 -0.8566 -0.9579
  733TIP3    H2 2164   3.727   5.025   5.227  0.0359  0.1220  1.2522
  734TIP3   OH2 2165   2.671   3.272   2.483  0.0615 -1.1579 -0.0457
  734TIP3    H1 2166   2.713   3.313   2.558  1.0903 -3.4295  0.7110
  734TIP3    H2 2167   2.617   3.341   2.445 -0.6157  0.0529  2.8535
  735TIP3   OH2 2168   5.325   3.470   1.588  0.1504  0.0835 -0.3782
  735TIP3    H1 2169   5.274   3.397   1.621 -0.9931  1.0626  0.1108
  735TIP3    H2 2170   5.400   3.430   1.543  1.5610 -1.3253  2.9613
  736TIP3   OH2 2171   4.966   1.852   2.959  0.1963 -0.2176 -0.1824
  736TIP3    H1 2172   4.927   1.813   3.038 -1.5938  4.0809  1.3658
  736TIP3    H2 2173   4.891   1.875   2.904  1.2345 -0.1712 -1.6192
  737TIP3   OH2 2174   4.320   6.630   1.530  0.1821 -0.5292  0.3643
  737TIP3    H1 2175   4.292   6.677   1.609 -0.0301  0.8748 -0.5079
  737TIP3    H2 2176   4.339   6.699   1.467 -1.3118 -1.6266 -1.3874
  738TIP3   OH2 2177   3.326   3.807   4.260  0.0943  0.3253 -0.1506
  738TIP3    H1 2178   3.340   3.829   4.352 -1.7069 -2.2715  0.8437
  738TIP3    H2 2179   3.280   3.884   4.225 -0.7260  0.6753  1.5768
  739TIP3   OH2 2180   5.374   1.984   1.551 -0.0471 -0.3876  0.2351
  739TIP3    H1 2181   5.341   1.966   1.639 -1.4275  0.5977 -0.0434
  739TIP3    H2 2182   5.296   2.006   1.501  0.8502  0.1885 -0.9506
  740TIP3   OH2 2183   3.199   1.245   4.939 -0.2307 -0.1399  0.0528
  740TIP3    H1 2184   3.134   1.193   4.985  0.4142 -1.4073 -0.3862
  740TIP3    H2 2185   3.165   1.253   4.850 -0.5129  0.5256  0.2222
  741TIP3   OH2 2186   1.926   3.956   1.416 -0.2329  0.1297  0.0178
  741TIP3    H1 2187   1.892   3.892   1.353  0.9985 -2.1895  1.5755
  741TIP3    H2 2188   2.018   3.966   1.394  0.6272 -1.8732  2.1598
  742TIP3   OH2 2189   4.166   5.216   1.129 -0.7473 -0.3167  0.0501
  742TIP3    H1 2190   4.151   5.309   1.144 -0.7992 -0.3399  0.1395
  742TIP3    H2 2191   4.205   5.212   1.041 -2.2615 -0.3382 -0.6637
  743TIP3   OH2 2192   2.190   5.003   5.494 -0.3979 -0.0499 -0.5089
  743TIP3    H1 2193   2.143   4.995   5.411 -1.0518  0.5213 -0.1997
  743TIP3    H2 2194   2.131   4.967   5.560  0.2838 -0.8808 -0.3345
  744TIP3   OH2 2195   4.425   2.208   1.309 -0.3752 -0.4200  0.1062
  744TIP3    H1 2196   4.442   2.115   1.323 -1.7701 -0.4737  1.7799
  744TIP3    H2 2197   4.334   2.220   1.336 -0.2404  1.4173 -0.1381
  745TIP3   OH2 2198   5.955   2.158   2.442 -0.1202  0.4628 -0.2966
  745TIP3    H1 2199   5.972   2.224   2.375 -0.6133  0.4710 -0.4247
  745TIP3    H2 2200   5.971   2.202   2.525 -1.1974  0.9952 -0.3502
  746TIP3   OH2 2201   4.820   2.572   2.922 -0.0987 -0.2604 -0.1467
  746TIP3    H1 2202   4.814   2.630   2.846  2.3929 -0.4015 -0.5053
  746TIP3    H2 2203   4.764   2.614   2.987 -1.9759  0.0886 -1.8694
  747TIP3   OH2 2204   4.927   4.990   3.771  0.3858  0.5001  0.4228
  747TIP3    H1 2205   4.931   4.922   3.704 -0.8539 -0.5361  1.3295
  747TIP3    H2 2206   4.947   5.071   3.725  2.1145 -0.4862 -0.6569
  748TIP3   OH2 2207   4.605   6.404   1.470  0.0720 -0.0257  0.2472
  748TIP3    H1 2208   4.590   6.404   1.376  1.8320 -0.6394 -0.0779
  748TIP3    H2 2209   4.519   6.419   1.508 -0.9556 -1.2954 -1.4170
  749TIP3   OH2 2210   6.118   6.605   5.810 -0.3699 -0.0912 -0.0361
  749TIP3    H1 2211   6.148   6.517   5.787 -2.2535 -1.1586  1.3640
  749TIP3    H2 2212   6.042   6.619   5.754  0.7028  1.2618 -1.2292
  750TIP3   OH2 2213   5.521   2.733   1.921  0.5111 -0.4125 -0.2045
  750TIP3    H1 2214   5.436   2.771   1.899  0.7787  0.3662  0.0402
  750TIP3    H2 2215   5.534   2.662   1.859 -0.6404 -1.0086  0.2219
  751TIP3   OH2 2216   3.262   0.683   0.364  0.2526  0.1043 -1.1360
  751TIP3    H1 2217   3.266   0.588   0.374  1.3387  0.2622  0.2671
  751TIP3    H2 2218   3.344   0.706   0.319  0.1650  0.4179 -1.1394
  752TIP3   OH2 2219   2.200   1.226   5.569 -0.7468  0.6897 -0.6057
  752TIP3    H1 2220   2.146   1.201   5.644 -1.3773  1.2083 -0.8779
  752TIP3    H2 2221   2.180   1.318   5.556 -0.5047  0.6438 -1.3034
  753TIP3   OH2 2222   7.060   6.007   3.081  0.5142 -0.1515 -0.2366
  753TIP3    H1 2223   7.136   6.004   3.024  2.0185  1.3189  1.5541
  753TIP3    H2 2224   7.030   6.098   3.077 -0.4576 -0.4422 -0.0338
  754TIP3   OH2 2225   2.445   6.552   3.155 -0.0333  0.0082  0.0156
  754TIP3    H1 2226   2.463   6.480   3.216 -0.8379  0.5651  0.9406
  754TIP3    H2 2227   2.350   6.562   3.158  0.1507  2.0549  1.0520
  755TIP3   OH2 2228   1.161   5.447   2.987 -0.4729 -0.3987 -0.2790
  755TIP3    H1 2229   1.092   5.513   2.996 -0.4355  0.0391 -2.5505
  755TIP3    H2 2230   1.227   5.489   2.933  0.3687 -1.7086 -0.3045
  756TIP3   OH2 2231   1.115   2.639   2.401 -0.2017  0.1957 -0.0902
  756TIP3    H1 2232   1.186   2.663   2.342 -0.0921  1.0610  0.3789
  756TIP3    H2 2233   1.138   2.680   2.485  0.5986 -2.4977  1.1164
  757TIP3   OH2 2234   1.444   0.662   4.522  0.0552  0.2421  0.5003
  757TIP3    H1 2235   1.409   0.741   4.479 -0.3166 -0.4257 -0.4619
  757TIP3    H2 2236   1.501   0.696   4.591 -2.4519  1.3985  2.1815
  758TIP3   OH2 2237   6.170   0.388   1.525 -0.1690  0.0684  0.7306
  758TIP3    H1 2238   6.207   0.341   1.600  0.9274  0.7167  0.6155
  758TIP3    H2 2239   6.172   0.480   1.551  0.7007  0.3562 -0.2700
  759TIP3   OH2 2240   0.734   3.438   0.707  0.1716 -0.7732  0.5512
  759TIP3    H1 2241   0.826   3.434   0.732  0.0009 -2.5219  1.0577
  759TIP3    H2 2242   0.728   3.379   0.632 -0.8117 -2.0302  1.5714
  760TIP3   OH2 2243   6.013   4.212   1.241  0.3646 -0.4314  0.7312
  760TIP3    H1 2244   6.034   4.292   1.192  1.8770 -0.8016  0.7174
  760TIP3    H2 2245   6.052   4.141   1.189  0.7828 -0.9667  1.7486
  761TIP3   OH2 2246   3.637   6.188   1.433 -0.6945 -0.7068 -0.2206
  761TIP3    H1 2247   3.609   6.123   1.498  0.2886  1.5849  2.7069
  761TIP3    H2 2248   3.556   6.232   1.408 -0.8428  0.1734  1.6161
  762TIP3   OH2 2249   1.796   6.349   2.687 -0.0110  0.0603  0.0483
  762TIP3    H1 2250   1.707   6.368   2.718 -0.0851 -2.7151  1.8344
  762TIP3    H2 2251   1.853   6.402   2.743 -0.4383 -0.0260  0.5696
  763TIP3   OH2 2252   2.772   1.385   2.174 -0.7476  0.5495 -0.7296
  763TIP3    H1 2253   2.712   1.353   2.243  1.5463 -1.5543  0.4655
  763TIP3    H2 2254   2.819   1.458   2.215 -1.3373  1.1415 -1.0939
  764TIP3   OH2 2255   4.953   2.491   4.344  0.5963 -0.4994  0.5662
  764TIP3    H1 2256   4.926   2.521   4.431  0.9493 -1.1539  0.9090
  764TIP3    H2 2257   4.877   2.506   4.289  0.2028 -0.5216  1.0946
  765TIP3   OH2 2258   1.696   2.975   0.460  0.4535  0.3578 -0.5041
  765TIP3    H1 2259   1.719   2.884   0.437  1.9368  0.4492  0.4746
  765TIP3    H2 2260   1.781   3.018   0.472 -0.1355  2.5035 -3.1041
  766TIP3   OH2 2261   0.552   1.314   4.323  0.0593  0.2441  0.3479
  766TIP3    H1 2262   0.478   1.257   4.344  0.7178 -0.5768  0.5108
  766TIP3    H2 2263   0.529   1.354   4.239 -0.6218  0.0887  0.4610
  767TIP3   OH2 2264   6.863   5.424   5.292  0.0390 -0.2220  0.2806
  767TIP3    H1 2265   6.936   5.384   5.245 -0.4802  1.1453 -1.8346
  767TIP3    H2 2266   6.816   5.351   5.332  2.2050 -1.1697  1.2556
  768TIP3   OH2 2267   1.852  -0.014   1.848 -0.4118  0.1938  0.9756
  768TIP3    H1 2268   1.903   0.067   1.860 -0.0767  0.2431 -0.5747
  768TIP3    H2 2269   1.798  -0.020   1.927 -0.1086  1.6907  1.3283
  769TIP3   OH2 2270   6.322   0.920   0.902  0.4345  0.9256  0.1540
  769TIP3    H1 2271   6.300   0.946   0.813  1.2625  0.4057 -0.2079
  769TIP3    H2 2272   6.355   0.831   0.894 -1.4896  0.0308  1.2571
  770TIP3   OH2 2273   1.684   5.776   0.148  0.0046  0.1375  0.6586
  770TIP3    H1 2274   1.660   5.711   0.082  2.2433 -0.1935  0.0681
  770TIP3    H2 2275   1.733   5.843   0.100 -0.6803  1.3346  1.5669
  771TIP3   OH2 2276   3.561   0.261   0.010 -0.1594 -0.3023  0.5796
  771TIP3    H1 2277   3.477   0.278   0.053  0.0865  1.1994  0.5191
  771TIP3    H2 2278   3.609   0.343   0.017 -0.0078 -0.0369 -2.3488
  772TIP3   OH2 2279   6.897   5.330   0.193 -0.4908  0.0830 -0.3060
  772TIP3    H1 2280   6.927   5.371   0.274  0.7049  0.4370 -0.9058
  772TIP3    H2 2281   6.845   5.255   0.222 -2.4867  1.7782  0.8120
  773TIP3   OH2 2282   6.190   0.169   4.965  0.0852  0.1587 -0.2604
  773TIP3    H1 2283   6.275   0.127   4.951 -0.3857 -0.8818 -0.0332
  773TIP3    H2 2284   6.130   0.097   4.984 -0.6928  0.9447  0.3474
  774TIP3   OH2 2285   6.741   0.877   4.781 -0.3383  0.7745  0.5062
  774TIP3    H1 2286   6.768   0.844   4.867 -2.5275 -1.2463  0.5221
  774TIP3    H2 2287   6.663   0.930   4.799 -1.4787 -0.5693 -0.2800
  775TIP3   OH2 2288   4.717   2.340   5.025 -0.1246 -0.4264 -0.1389
  775TIP3    H1 2289   4.802   2.310   5.057 -1.2207 -2.1753  1.2978
  775TIP3    H2 2290   4.700   2.284   4.949  0.4635  0.6825 -1.1200
  776TIP3   OH2 2291   0.745   1.627   3.394 -0.3534  0.2709 -0.1071
  776TIP3    H1 2292   0.742   1.688   3.320 -1.5150  0.1805 -0.1619
  776TIP3    H2 2293   0.690   1.554   3.367  0.9020 -0.7517  0.0196
  777TIP3   OH2 2294   1.348   3.546   0.327 -0.6756  0.5111 -0.3104
  777TIP3    H1 2295   1.280   3.480   0.321  0.0469 -0.6080  2.4476
  777TIP3    H2 2296   1.401   3.534   0.248 -1.5463 -1.0630 -0.6882
  778TIP3   OH2 2297   1.869   3.650   0.456 -0.1159  0.7641  0.3693
  778TIP3    H1 2298   1.790   3.694   0.423 -0.4160  1.1469  1.5470
  778TIP3    H2 2299   1.837   3.596   0.529  0.3618 -0.8843 -0.5896
  779TIP3   OH2 2300   0.010   5.602   1.370  0.4007  0.3600 -0.4721
  779TIP3    H1 2301  -0.037   5.676   1.332  1.1751  0.5135 -1.1770
  779TIP3    H2 2302   0.090   5.641   1.406 -0.9327  0.4585  2.6973
  780TIP3   OH2 2303   3.059   5.538   5.318  0.1410  0.4613  0.5338
  780TIP3    H1 2304   3.039   5.445   5.314 -1.5648  0.8195 -0.1729
  780TIP3    H2 2305   3.093   5.551   5.406  0.5060 -0.8465  0.6051
  781TIP3   OH2 2306   5.789   6.292   5.532 -0.0622  0.5564 -0.3921
  781TIP3    H1 2307   5.871   6.306   5.580 -0.8451  1.7563  0.6460
  781TIP3    H2 2308   5.782   6.197   5.525 -0.0395  0.2869  2.1785
  782TIP3   OH2 2309   5.678   4.780   4.888  0.3716 -0.9147  0.1413
  782TIP3    H1 2310   5.715   4.791   4.800 -1.0952 -0.8712 -0.5138
  782TIP3    H2 2311   5.752   4.789   4.947  1.1594  0.5660 -1.0061
  783TIP3   OH2 2312   6.269   2.406   2.057  0.8652 -0.0863 -0.4825
  783TIP3    H1 2313   6.339   2.471   2.059  0.1677  0.6691 -0.1202
  783TIP3    H2 2314   6.314   2.322   2.066  1.5701  0.4997  2.3311
  784TIP3   OH2 2315   5.836   0.331   5.852 -0.2104 -0.0517 -0.4654
  784TIP3    H1 2316   5.893   0.361   5.923  1.2289 -1.5164 -0.9444
  784TIP3    H2 2317   5.885   0.347   5.772 -0.9354 -0.3232 -0.9832
  785TIP3   OH2 2318   4.982   3.814   5.588 -0.2595 -0.1993 -0.1877
  785TIP3    H1 2319   4.998   3.856   5.673 -0.0029  0.2773 -0.4643
  785TIP3    H2 2320   4.938   3.732   5.609 -3.4855  1.4720  0.2634
  786TIP3   OH2 2321   5.570   1.783   3.853 -1.1380 -0.3941 -0.5206
  786TIP3    H1 2322   5.637   1.719   3.877 -1.6954 -0.1143  2.0247
  786TIP3    H2 2323   5.616   1.867   3.855 -0.7045 -0.5248 -2.6442
  787TIP3   OH2 2324   4.326   4.410   5.354  0.0635  0.1135  0.2580
  787TIP3    H1 2325   4.341   4.338   5.415  1.7411  0.7572  0.6534
  787TIP3    H2 2326   4.296   4.367   5.274  1.2895 -1.0856  0.3923
  788TIP3   OH2 2327   1.515   4.063   2.497 -0.1326 -0.2153 -0.5057
  788TIP3    H1 2328   1.504   4.058   2.402  0.9055  0.1061 -0.6554
  788TIP3    H2 2329   1.449   4.003   2.532 -2.0715  1.3261 -1.3030
  789TIP3   OH2 2330   3.079   0.124   0.362 -0.7283 -0.1442  0.9656
  789TIP3    H1 2331   3.005   0.146   0.306 -0.6273 -0.6152  0.6355
  789TIP3    H2 2332   3.147   0.094   0.301 -0.3423  0.0845  1.2787
  790TIP3   OH2 2333   5.157   1.101   2.752 -0.1285  0.5236 -0.4559
  790TIP3    H1 2334   5.222   1.037   2.782  0.1238 -0.3920 -2.7453
  790TIP3    H2 2335   5.208   1.178   2.728  0.3538 -0.4803 -3.0393
  791TIP3   OH2 2336   4.873   6.429   5.568  0.3268 -0.4074  0.1767
  791TIP3    H1 2337   4.809   6.446   5.637 -1.9824  0.2892 -1.9915
  791TIP3    H2 2338   4.890   6.514   5.528  0.9841 -0.9072 -0.6510
  792TIP3   OH2 2339   2.415   5.725   5.144  0.5127 -0.5918 -0.0023
  792TIP3    H1 2340   2.385   5.809   5.110 -0.8935 -0.6612  0.9787
  792TIP3    H2 2341   2.370   5.716   5.228  0.5597 -2.3741 -0.1373
  793TIP3   OH2 2342   2.454   3.750   0.955  0.2082 -0.2160  0.0577
  793TIP3    H1 2343   2.442   3.699   0.875  0.6627  0.0883 -0.2064
  793TIP3    H2 2344   2.367   3.783   0.976  0.0277 -0.5689 -0.1253
  794TIP3   OH2 2345   6.227   1.481   4.216  0.7071  0.3691  0.0202
  794TIP3    H1 2346   6.245   1.502   4.307 -0.7164  0.5172  0.2777
  794TIP3    H2 2347   6.188   1.394   4.218 -1.5313  1.2900 -0.1601
  795TIP3   OH2 2348   6.504   0.189   2.184  0.0041  0.5817  1.1547
  795TIP3    H1 2349   6.413   0.181   2.155 -0.1153 -2.0309  2.0280
  795TIP3    H2 2350   6.499   0.193   2.280  0.7885  1.7511  1.1812
  796TIP3   OH2 2351   3.021   6.262   4.007  0.3662  0.2974 -0.2321
  796TIP3    H1 2352   2.955   6.295   3.947  1.0914  0.4444 -0.9694
  796TIP3    H2 2353   3.007   6.311   4.088  0.3937  1.2572 -0.7951
  797TIP3   OH2 2354   4.524   0.066   1.579  0.1643  0.1586  0.2065
  797TIP3    H1 2355   4.498   0.127   1.648 -2.8207  1.0497 -1.5478
  797TIP3    H2 2356   4.476  -0.014   1.598  2.5991 -1.1131  1.4204
  798TIP3   OH2 2357   6.170   5.573   3.146  0.2012  0.1952  0.2104
  798TIP3    H1 2358   6.204   5.585   3.234 -1.0897 -0.0133  0.7664
  798TIP3    H2 2359   6.137   5.482   3.145 -1.0741  0.6343 -0.0063
  799TIP3   OH2 2360   3.141   6.097   4.547  0.1321 -0.4080  0.0269
  799TIP3    H1 2361   3.046   6.097   4.538  0.1215  1.0860 -0.1423
  799TIP3    H2 2362   3.157   6.143   4.630  0.7220  0.3043 -0.4661
  800TIP3   OH2 2363   5.970   0.733   5.205 -0.4710 -0.0737  0.4008
  800TIP3    H1 2364   5.912   0.663   5.234 -0.7940  0.1706  0.3446
  800TIP3    H2 2365   6.053   0.715   5.249 -0.2609 -1.0323 -0.3502
  801TIP3   OH2 2366   3.368   2.537   3.031  0.1729  0.2695 -0.1422
  801TIP3    H1 2367   3.437   2.498   2.977 -1.0954  0.4555 -2.0136
  801TIP3    H2 2368   3.405   2.620   3.061  1.3887 -0.4518  0.4031
  802TIP3   OH2 2369   1.177   5.522   4.568 -0.0991  0.0369  0.2771
  802TIP3    H1 2370   1.164   5.552   4.658 -2.7702 -0.2818  0.1045
  802TIP3    H2 2371   1.124   5.582   4.516  0.1330 -0.7443 -0.8838
  803TIP3   OH2 2372   0.243   4.759   2.181  0.3049 -0.2125  0.4821
  803TIP3    H1 2373   0.335   4.734   2.196  0.8351 -0.1901 -2.1571
  803TIP3    H2 2374   0.201   4.677   2.154 -0.0050  0.1088 -0.0181
  804TIP3   OH2 2375   0.460   4.899   3.702  0.6459  0.2547 -0.4349
  804TIP3    H1 2376   0.482   4.913   3.794  0.1532  0.6359 -0.3749
  804TIP3    H2 2377   0.366   4.879   3.702  0.1864  2.2124 -1.0343
  805TIP3   OH2 2378   4.680   5.105   2.884 -0.5367  0.1506 -0.1109
  805TIP3    H1 2379   4.679   5.184   2.939  0.1706  0.7254 -0.8973
  805TIP3    H2 2380   4.713   5.136   2.799 -0.6473 -0.9171 -0.5506
  806TIP3   OH2 2381   4.144   5.652   3.314 -0.0821 -0.2131  0.2015
  806TIP3    H1 2382   4.183   5.680   3.231 -0.6525  0.8778  0.2843
  806TIP3    H2 2383   4.050   5.645   3.295 -0.1067 -0.8064  0.5346
  807TIP3   OH2 2384   4.038   4.667   3.121 -1.0490 -0.0030  0.0372
  807TIP3    H1 2385   4.043   4.750   3.072  2.3194 -0.0453  0.0686
  807TIP3    H2 2386   3.981   4.612   3.068  0.3490  0.8389 -2.5461
  808TIP3   OH2 2387   2.260   2.011   4.022 -0.2786 -0.2989  0.3216
  808TIP3    H1 2388   2.320   1.955   4.072  2.3682  0.9627 -1.2752
  808TIP3    H2 2389   2.242   2.085   4.081  1.0840  0.1074  0.2652
  809TIP3   OH2 2390   4.446   4.939   2.865 -0.3574  0.9685 -0.3665
  809TIP3    H1 2391   4.465   4.848   2.842  1.0280  1.4587 -1.3361
  809TIP3    H2 2392   4.529   4.972   2.899 -1.2347  1.4874  1.4049
  810TIP3   OH2 2393   1.025   5.301   1.577  0.2911 -0.3874  0.2381
  810TIP3    H1 2394   0.944   5.350   1.592 -0.3498 -1.5915  0.8518
  810TIP3    H2 2395   1.094   5.367   1.580 -0.3770  0.2950  2.6634
  811TIP3   OH2 2396   0.957   5.381   2.478 -0.1919 -0.2116 -0.2777
  811TIP3    H1 2397   0.925   5.327   2.550  2.2876 -1.4486  0.0143
  811TIP3    H2 2398   0.949   5.471   2.509  1.8817 -0.7472  2.1268
  812TIP3   OH2 2399   5.478   0.053   5.815  0.1950  0.8638  0.2486
  812TIP3    H1 2400   5.571   0.048   5.794  0.2136  0.4391  0.4297
  812TIP3    H2 2401   5.439   0.096   5.739  0.5012  0.7989  0.0527
  813TIP3   OH2 2402   6.816   2.555   4.078 -0.4772  0.2550  0.4260
  813TIP3    H1 2403   6.743   2.590   4.129 -0.9198  0.1749 -0.1419
  813TIP3    H2 2404   6.894   2.591   4.120 -0.9074  1.8899 -0.0894
  814TIP3   OH2 2405   5.359   6.061   0.104  0.2355  0.3281  0.3233
  814TIP3    H1 2406   5.279   6.015   0.131  0.5544  0.7896  2.1544
  814TIP3    H2 2407   5.379   6.024   0.018 -0.8380 -1.2469  0.6971
  815TIP3   OH2 2408   1.222   4.209   5.251  0.4300 -0.7360 -0.1297
  815TIP3    H1 2409   1.190   4.126   5.286  1.4743 -1.3964 -0.6766
  815TIP3    H2 2410   1.311   4.190   5.222  0.2845  0.2629 -1.3566
  816TIP3   OH2 2411   2.050   4.831   4.158 -0.0573  0.4457  0.1378
  816TIP3    H1 2412   2.072   4.801   4.070 -1.6993  1.0400 -0.5233
  816TIP3    H2 2413   2.120   4.797   4.213 -0.2442 -2.0200 -1.0012
  817TIP3   OH2 2414   3.044   3.707   4.277  0.4910 -0.0563 -0.1851
  817TIP3    H1 2415   3.031   3.659   4.359  1.3133  0.0518  0.0186
  817TIP3    H2 2416   3.111   3.772   4.297  0.4381  0.2184 -0.8493
  818TIP3   OH2 2417   1.076   4.652   0.158  0.0054  0.0651  0.4822
  818TIP3    H1 2418   1.106   4.594   0.087  0.2933  0.0698  0.5970
  818TIP3    H2 2419   1.142   4.722   0.160  0.8439 -0.7279  1.7511
  819TIP3   OH2 2420   6.598   5.101   3.057  0.5810 -0.0925 -0.6618
  819TIP3    H1 2421   6.596   5.006   3.045  1.0759 -0.2710  0.5180
  819TIP3    H2 2422   6.507   5.129   3.042 -0.0423 -1.0481  1.0142
  820TIP3   OH2 2423   3.364   6.713   5.084  0.1160 -0.0160  0.0274
  820TIP3    H1 2424   3.342   6.780   5.149  2.2220 -0.1980  1.0159
  820TIP3    H2 2425   3.327   6.632   5.119 -0.6545  0.2616 -0.1288
  821TIP3   OH2 2426   0.161   1.349   0.801  0.0086  0.4053  0.2812
  821TIP3    H1 2427   0.067   1.367   0.789  0.3939  2.8121  0.5115
  821TIP3    H2 2428   0.179   1.279   0.738 -1.5898  1.0541 -0.9887
  822TIP3   OH2 2429   6.709   0.418   4.528 -0.5540 -0.5380 -0.2059
  822TIP3    H1 2430   6.730   0.503   4.489 -0.6043 -0.4173  0.0300
  822TIP3    H2 2431   6.784   0.362   4.506 -0.4209 -0.3714 -0.1746
  823TIP3   OH2 2432   6.564   4.007   1.581  0.1220 -0.0277 -0.1336
  823TIP3    H1 2433   6.581   3.976   1.492  0.2399  0.5739 -0.3245
  823TIP3    H2 2434   6.648   4.042   1.611 -0.0618  0.2950  0.0044
  824TIP3   OH2 2435   4.784   3.677   1.687 -0.1237 -0.4897 -0.0594
  824TIP3    H1 2436   4.862   3.675   1.744 -1.8119  1.7319  2.5510
  824TIP3    H2 2437   4.809   3.734   1.615  1.1290 -1.0277 -0.0868
  825TIP3   OH2 2438   2.560   1.245   1.170  0.6657  0.1394  0.0699
  825TIP3    H1 2439   2.573   1.160   1.127  0.2242  0.3101 -0.4194
  825TIP3    H2 2440   2.465   1.250   1.184  0.6145  0.8178 -0.4733
  826TIP3   OH2 2441   6.431   1.144   5.692 -0.4850  0.3692 -0.0808
  826TIP3    H1 2442   6.379   1.180   5.765  0.0386  1.1340 -0.0754
  826TIP3    H2 2443   6.414   1.204   5.619 -0.3209  0.0990 -0.3412
  827TIP3   OH2 2444   2.563   4.246   0.728  0.2755  0.1636 -0.2534
  827TIP3    H1 2445   2.631   4.214   0.787 -0.1605 -2.7536 -1.1575
  827TIP3    H2 2446   2.481   4.225   0.772 -0.0448  0.8223 -0.5240
  828TIP3   OH2 2447   4.844   5.242   1.649  0.2661  0.3523 -0.2252
  828TIP3    H1 2448   4.903   5.313   1.625  0.5535  0.3461  0.4469
  828TIP3    H2 2449   4.883   5.203   1.726 -0.4610  0.1624  0.0589
  829TIP3   OH2 2450   6.138   0.087   1.301  0.0027  0.0099 -0.2395
  829TIP3    H1 2451   6.213   0.092   1.359 -1.0051 -0.9310  1.2130
  829TIP3    H2 2452   6.116  -0.006   1.297 -2.7529  0.4556  1.6833
  830TIP3   OH2 2453   4.134   1.606   4.625  0.1978  0.3481 -0.2838
  830TIP3    H1 2454   4.206   1.544   4.637  1.5209  2.0111  0.7564
  830TIP3    H2 2455   4.146   1.640   4.537 -0.3919 -0.6504 -0.7701
  831TIP3   OH2 2456   3.252   5.677   2.727 -0.6181 -0.3057 -0.3910
  831TIP3    H1 2457   3.282   5.676   2.818 -2.2183 -1.4958  0.1682
  831TIP3    H2 2458   3.319   5.628   2.679 -0.8495 -1.6093  0.5581
  832TIP3   OH2 2459   3.461   4.163   3.533 -0.3633  0.2577 -0.2544
  832TIP3    H1 2460   3.492   4.187   3.620  0.9028  1.1396 -0.9244
  832TIP3    H2 2461   3.366   4.156   3.543 -0.0935 -2.3101  1.8238
  833TIP3   OH2 2462   2.295   4.866   2.170 -0.1490 -0.0832  0.3678
  833TIP3    H1 2463   2.231   4.890   2.103  2.3188 -0.7886 -2.5274
  833TIP3    H2 2464   2.294   4.770   2.171  1.6701 -0.1717 -0.7542
  834TIP3   OH2 2465   5.656   0.188   4.744  0.1857 -0.2733 -0.1118
  834TIP3    H1 2466   5.686   0.103   4.778 -0.5318 -0.3270  0.4122
  834TIP3    H2 2467   5.701   0.253   4.797  0.5908 -0.3263 -0.3876
  835TIP3   OH2 2468   6.114   3.644   5.018  0.2593  0.2167 -0.2875
  835TIP3    H1 2469   6.192   3.688   5.051 -0.4269 -0.3513  2.2749
  835TIP3    H2 2470   6.131   3.551   5.032  0.2529 -0.1669 -2.4156
  836TIP3   OH2 2471   4.133   3.229   0.693  0.1635 -0.0306  0.0260
  836TIP3    H1 2472   4.228   3.238   0.691  0.2047 -0.5829 -0.7481
  836TIP3    H2 2473   4.109   3.208   0.603 -0.5370 -1.3740  0.5032
  837TIP3   OH2 2474   5.532   5.575   5.415 -0.4844 -0.1769 -0.0630
  837TIP3    H1 2475   5.555   5.498   5.466  1.5151 -0.1106 -0.8047
  837TIP3    H2 2476   5.537   5.547   5.324 -1.4463  0.4027 -0.3180
  838TIP3   OH2 2477   7.098   1.221   3.059  0.0689  0.1379  0.2722
  838TIP3    H1 2478   7.170   1.270   3.019  0.2424 -0.0637  0.3311
  838TIP3    H2 2479   7.131   1.196   3.146  0.2713 -0.7106 -0.0341
  839TIP3   OH2 2480   6.078   2.746   3.333  0.3290  0.5170  0.5994
  839TIP3    H1 2481   6.076   2.752   3.428  0.6450 -0.7615  0.7005
  839TIP3    H2 2482   6.165   2.777   3.308 -0.4336  2.8031  0.5325
  840TIP3   OH2 2483   6.526   2.089   4.722  0.0669 -0.2219  0.0899
  840TIP3    H1 2484   6.617   2.117   4.708 -0.8413  2.6372 -0.9446
  840TIP3    H2 2485   6.522   2.067   4.815  1.4615  1.2505  0.5518
  841TIP3   OH2 2486   7.036   4.829   5.210 -0.0565  0.0888 -0.6686
  841TIP3    H1 2487   7.116   4.791   5.176  0.2667 -0.5131  0.6843
  841TIP3    H2 2488   7.061   4.918   5.237 -0.7626  1.2933 -3.6345
  842TIP3   OH2 2489   1.732   5.661   0.625 -0.5418 -0.6524 -0.0539
  842TIP3    H1 2490   1.686   5.691   0.547 -1.9691 -0.4607  0.8264
  842TIP3    H2 2491   1.710   5.569   0.632 -0.8798 -0.5395  0.4243
  843TIP3   OH2 2492   6.033   3.316   1.333  0.4526 -0.2018  0.2055
  843TIP3    H1 2493   5.957   3.288   1.385 -0.0777 -0.7904 -0.8560
  843TIP3    H2 2494   6.101   3.252   1.353  0.8817  0.6302  1.5740
  844TIP3   OH2 2495   2.306   0.089   4.452 -0.0421  0.2252 -0.6384
  844TIP3    H1 2496   2.244   0.016   4.450 -0.6708  0.7591 -0.9288
  844TIP3    H2 2497   2.274   0.149   4.385  1.2227  0.1615 -1.3261
  845TIP3   OH2 2498   3.789   3.074   0.183  0.7563  0.4963  0.4165
  845TIP3    H1 2499   3.708   3.026   0.166  1.6818 -0.6219 -1.1809
  845TIP3    H2 2500   3.792   3.140   0.114 -0.1580  2.4758  2.1836
  846TIP3   OH2 2501   2.349   0.191   3.866  0.1738  0.1601 -0.3643
  846TIP3    H1 2502   2.269   0.196   3.918  0.1503  1.5664 -0.4959
  846TIP3    H2 2503   2.370   0.097   3.862 -0.7296 -0.1064  0.7718
  847TIP3   OH2 2504   0.560   1.954   3.879 -0.2618  0.8659  0.0407
  847TIP3    H1 2505   0.492   1.992   3.823 -1.7155 -0.4944  0.8101
  847TIP3    H2 2506   0.524   1.870   3.907  1.0324  0.8673  1.8731
  848TIP3   OH2 2507   2.857   3.495   4.460 -0.6914  0.1955  0.4985
  848TIP3    H1 2508   2.844   3.406   4.495 -0.6765 -0.6599 -1.5234
  848TIP3    H2 2509   2.899   3.481   4.375 -0.0618  2.2009  0.4322
  849TIP3   OH2 2510   1.895   4.192   5.422 -0.5972 -0.0074 -0.1886
  849TIP3    H1 2511   1.961   4.262   5.421 -2.0902  1.4703 -1.2660
  849TIP3    H2 2512   1.935   4.122   5.474  1.2917  1.3145  0.2527
  850TIP3   OH2 2513   6.724   5.424   0.866  0.0859  0.1045 -0.4405
  850TIP3    H1 2514   6.678   5.341   0.879 -0.4216  0.7148  2.3341
  850TIP3    H2 2515   6.808   5.412   0.908 -0.1691  1.1058  0.4049
  851TIP3   OH2 2516   4.167   5.543   1.818 -0.0564 -0.3183 -0.3077
  851TIP3    H1 2517   4.134   5.467   1.769 -1.5281  0.7830 -1.0970
  851TIP3    H2 2518   4.261   5.545   1.799  0.1091 -2.1768  0.0799
  852TIP3   OH2 2519   6.245   5.635   3.995  0.3107 -0.1464  0.7349
  852TIP3    H1 2520   6.163   5.645   4.044 -0.6445 -1.3875 -0.5110
  852TIP3    H2 2521   6.266   5.542   4.003 -0.0088 -0.4519 -1.3477
  853TIP3   OH2 2522   3.855   1.394   5.734 -0.5729  0.1637 -0.1581
  853TIP3    H1 2523   3.815   1.433   5.657  0.3768 -0.3061 -0.8951
  853TIP3    H2 2524   3.830   1.301   5.730 -0.1082  0.0370 -0.1710
  854TIP3   OH2 2525   4.823   6.156   5.471 -0.1510  1.0109 -0.2316
  854TIP3    H1 2526   4.826   6.177   5.377  0.0934  0.3202 -0.3793
  854TIP3    H2 2527   4.869   6.229   5.513 -0.8723  1.6854 -0.5815
  855TIP3   OH2 2528   6.977   2.062   4.850  0.0095  0.0505  0.4366
  855TIP3    H1 2529   6.977   2.109   4.934 -0.5192  1.2995 -0.2464
  855TIP3    H2 2530   7.070   2.046   4.832  0.1666  0.3740  0.9363
  856TIP3   OH2 2531   4.036   6.143   0.390 -0.1197  0.9441 -0.3434
  856TIP3    H1 2532   4.124   6.107   0.378 -0.5770 -0.1794 -0.4262
  856TIP3    H2 2533   4.004   6.157   0.301 -1.1162 -1.4421 -0.4315
  857TIP3   OH2 2534   0.483   4.848   5.405  0.3824 -0.0836  0.5979
  857TIP3    H1 2535   0.540   4.771   5.405  0.5167  0.0059  1.5569
  857TIP3    H2 2536   0.403   4.818   5.449 -0.0932 -0.0390 -0.2111
  858TIP3   OH2 2537   7.073   3.752   5.219 -0.3289 -0.4602  0.4352
  858TIP3    H1 2538   7.098   3.700   5.143  0.6314 -0.6137  0.8505
  858TIP3    H2 2539   6.992   3.797   5.192 -0.3362 -0.9935 -0.4470
  859TIP3   OH2 2540   3.276   0.634   0.730  0.0930 -0.6250 -0.8917
  859TIP3    H1 2541   3.221   0.572   0.778  1.6176 -0.1991  1.5727
  859TIP3    H2 2542   3.343   0.580   0.689  0.8861 -0.7407  0.4971
  860TIP3   OH2 2543   1.253   1.121   2.586  0.4532  0.0865  0.5556
  860TIP3    H1 2544   1.182   1.074   2.542  0.6089  1.1613 -0.9144
  860TIP3    H2 2545   1.314   1.143   2.515  0.6367  2.0288  1.2593
  861TIP3   OH2 2546   3.103   4.921   1.728 -0.3901  0.3614 -0.1705
  861TIP3    H1 2547   3.109   4.839   1.778  1.1120  0.1681 -0.6133
  861TIP3    H2 2548   3.088   4.988   1.794 -3.2749 -0.3821  0.0731
  862TIP3   OH2 2549   5.516   0.580   0.857  0.5525 -0.4053 -0.2693
  862TIP3    H1 2550   5.472   0.665   0.847  0.1682 -0.7054 -1.3213
  862TIP3    H2 2551   5.540   0.576   0.949 -1.5761 -0.1903  0.3545
  863TIP3   OH2 2552   6.038   4.022   5.779  0.2862 -0.1364 -0.2876
  863TIP3    H1 2553   6.024   4.108   5.819 -1.7892 -0.5530 -0.0148
  863TIP3    H2 2554   6.054   3.963   5.852 -2.8152 -0.7692 -0.0254
  864TIP3   OH2 2555   0.400   0.750   2.784  0.3447  0.4818  0.5716
  864TIP3    H1 2556   0.321   0.696   2.785 -0.3736  1.5040  0.5571
  864TIP3    H2 2557   0.441   0.735   2.869 -0.6911  1.1223  1.1926
  865TIP3   OH2 2558   0.185   4.441   2.337 -0.1149 -0.2067  0.7055
  865TIP3    H1 2559   0.145   4.415   2.420 -0.4059  0.7779  0.8858
  865TIP3    H2 2560   0.278   4.422   2.347 -0.2616 -0.7699  0.9856
  866TIP3   OH2 2561   5.544   3.077   0.818  0.8746  0.5067 -0.2355
  866TIP3    H1 2562   5.612   3.138   0.847  1.0899  0.0024  0.3399
  866TIP3    H2 2563   5.552   3.003   0.877 -1.0193  0.9692  0.6798
  867TIP3   OH2 2564   4.716   6.014   3.040 -0.3504 -0.1492  0.8024
  867TIP3    H1 2565   4.651   6.052   2.980 -1.2188 -0.6901  1.3648
  867TIP3    H2 2566   4.733   5.927   3.005  1.2757  0.5305 -0.2142
  868TIP3   OH2 2567   3.580   6.558   4.191  0.5396 -0.6106 -0.0588
  868TIP3    H1 2568   3.591   6.609   4.270 -0.3808  0.2166 -0.4418
  868TIP3    H2 2569   3.548   6.472   4.221 -1.5860  0.2662  0.4045
  869TIP3   OH2 2570   6.406   0.078   5.377  0.1348 -0.4904  0.1530
  869TIP3    H1 2571   6.491   0.056   5.414  1.4980  0.6871 -2.0963
  869TIP3    H2 2572   6.371  -0.006   5.345 -0.0448 -1.1371  1.9462
  870TIP3   OH2 2573   7.151   5.163   2.192  0.6650 -0.1541 -0.2590
  870TIP3    H1 2574   7.090   5.098   2.227  0.9108 -1.1852 -1.6614
  870TIP3    H2 2575   7.236   5.136   2.226  0.7928 -0.6924 -0.9885
  871TIP3   OH2 2576   5.591   6.042   1.211 -0.3439 -0.0370 -0.4401
  871TIP3    H1 2577   5.553   6.121   1.251 -1.9391 -2.3234  3.0391
  871TIP3    H2 2578   5.665   6.020   1.268  0.0514 -1.0735 -1.3268
  872TIP3   OH2 2579   2.685   5.426   1.661 -0.3794  0.0059 -0.3119
  872TIP3    H1 2580   2.614   5.364   1.677 -0.7047  0.6782  0.9672
  872TIP3    H2 2581   2.758   5.394   1.715 -0.8568  1.2311  1.1046
  873TIP3   OH2 2582   5.206   2.916   1.544 -0.1024  0.3700  0.0121
  873TIP3    H1 2583   5.149   2.939   1.471  1.4325  1.3941 -0.9282
  873TIP3    H2 2584   5.220   2.998   1.591  0.9915  0.2480 -0.0777
  874TIP3   OH2 2585   3.804   0.419   2.533 -0.2201 -0.1118 -0.2866
  874TIP3    H1 2586   3.730   0.408   2.472 -0.7957  0.7731  0.2325
  874TIP3    H2 2587   3.786   0.501   2.578  2.2452  1.3537 -1.7362
  875TIP3   OH2 2588   4.576   4.410   5.116  0.3188  0.3572  0.3357
  875TIP3    H1 2589   4.632   4.361   5.055 -2.1101  0.9467 -2.6168
  875TIP3    H2 2590   4.541   4.343   5.174  0.1482 -0.8225 -1.0597
  876TIP3   OH2 2591   1.911   5.711   4.869 -0.0157  0.0783 -0.3591
  876TIP3    H1 2592   1.951   5.627   4.846  1.1531  1.4805 -4.1439
  876TIP3    H2 2593   1.819   5.702   4.844  0.1361 -0.0250 -0.8793
  877TIP3   OH2 2594   3.391   1.376   2.009  0.3748  0.1671  0.2143
  877TIP3    H1 2595   3.468   1.320   1.998 -0.5975 -1.1907  0.1383
  877TIP3    H2 2596   3.325   1.319   2.047 -1.2156  0.7649 -1.5008
  878TIP3   OH2 2597   6.800   5.415   4.910  0.3912  0.8127 -0.0743
  878TIP3    H1 2598   6.744   5.492   4.899 -0.9817 -0.1847 -0.3655
  878TIP3    H2 2599   6.746   5.342   4.880  1.8839 -0.1995 -0.4050
  879TIP3   OH2 2600   5.553   5.350   5.587  0.7548  0.0457  0.2700
  879TIP3    H1 2601   5.492   5.277   5.594 -0.0271  0.6944  0.3421
  879TIP3    H2 2602   5.637   5.309   5.564  0.7315 -1.0433  1.8956
  880TIP3   OH2 2603   0.533   0.700   5.611 -0.4807  0.0395  0.3062
  880TIP3    H1 2604   0.504   0.648   5.536 -0.9323 -0.3777  0.7687
  880TIP3    H2 2605   0.471   0.772   5.615 -0.3062  0.2042  0.1348
  881TIP3   OH2 2606   4.780   2.596   4.169  0.1673  0.9138  0.6164
  881TIP3    H1 2607   4.741   2.597   4.082  1.1995  0.5297  0.1324
  881TIP3    H2 2608   4.816   2.684   4.180 -0.3600  1.1043  0.8482
  882TIP3   OH2 2609   2.811   5.157   1.288 -0.0463 -0.0649 -0.2339
  882TIP3    H1 2610   2.861   5.075   1.283 -0.4861 -0.3103 -0.8039
  882TIP3    H2 2611   2.866   5.216   1.339  0.6541 -0.4472 -0.5384
  883TIP3   OH2 2612   1.581   2.402   2.238  0.9208 -0.1355  0.3654
  883TIP3    H1 2613   1.555   2.337   2.304  1.0213  0.0995  0.6378
  883TIP3    H2 2614   1.564   2.486   2.279 -0.0127  0.0135 -0.3149
  884TIP3   OH2 2615   6.194   4.869   1.642 -0.5346 -0.3421 -0.6923
  884TIP3    H1 2616   6.166   4.779   1.656  0.1202 -0.2373  1.8603
  884TIP3    H2 2617   6.160   4.916   1.718 -0.8566  1.5932 -1.9709
  885TIP3   OH2 2618   4.411   4.992   1.911  0.7253  0.0247  0.2113
  885TIP3    H1 2619   4.483   5.047   1.881 -0.7213  2.1982  0.4765
  885TIP3    H2 2620   4.404   5.011   2.004  0.4086 -0.9134  0.3890
  886TIP3   OH2 2621   1.742   0.335   4.826 -0.2489 -0.8735 -0.1215
  886TIP3    H1 2622   1.741   0.268   4.895 -0.5699 -1.5315 -0.7514
  886TIP3    H2 2623   1.722   0.287   4.745 -1.7799  0.1742 -0.4170
  887TIP3   OH2 2624   5.847   0.423   4.231 -0.5014 -0.5508  0.1022
  887TIP3    H1 2625   5.900   0.500   4.206 -0.1813 -0.2436  1.6430
  887TIP3    H2 2626   5.782   0.416   4.160 -0.2064  0.8170 -0.3554
  888TIP3   OH2 2627   2.090   0.622   2.326  0.1072 -0.4437  0.2349
  888TIP3    H1 2628   2.112   0.705   2.369 -0.9071  0.1943 -0.4531
  888TIP3    H2 2629   2.139   0.624   2.244  1.8637 -1.5632  1.1809
  889TIP3   OH2 2630   1.708   2.320   1.989  0.2498  0.0322 -0.4369
  889TIP3    H1 2631   1.647   2.338   2.061 -1.1587 -1.2601 -1.2461
  889TIP3    H2 2632   1.691   2.389   1.925  1.2038  0.9338  0.2493
  890TIP3   OH2 2633   7.234   2.638   4.374  0.1538  0.5547  0.2951
  890TIP3    H1 2634   7.179   2.704   4.332  0.0834 -0.2007 -0.8693
  890TIP3    H2 2635   7.177   2.596   4.438 -1.1003 -1.0699 -1.7573
  891TIP3   OH2 2636   3.831   4.541   0.488  0.0002 -0.2710 -0.8745
  891TIP3    H1 2637   3.760   4.574   0.543  0.1731 -0.2820 -0.6435
  891TIP3    H2 2638   3.801   4.556   0.399 -0.4358 -0.5779 -0.7816
  892TIP3   OH2 2639   0.643   2.044   1.879  0.5462 -0.0888  0.5632
  892TIP3    H1 2640   0.588   1.973   1.845  1.3992 -0.6163  0.2548
  892TIP3    H2 2641   0.708   2.059   1.811  2.5247 -1.4103  2.0373
  893TIP3   OH2 2642   3.166   3.113   2.000  0.3440  0.2279 -0.1671
  893TIP3    H1 2643   3.140   3.138   2.089  0.0722  0.4593 -0.3110
  893TIP3    H2 2644   3.130   3.026   1.988  0.7954 -0.0034  0.1246
  894TIP3   OH2 2645   5.634   1.218   1.407  0.3196 -0.2619 -0.1354
  894TIP3    H1 2646   5.630   1.126   1.383 -2.1660 -0.6591  1.4674
  894TIP3    H2 2647   5.547   1.253   1.385 -0.3758  0.5344  3.3028
  895TIP3   OH2 2648   2.038   4.997   3.118 -0.6032 -0.2042  0.2901
  895TIP3    H1 2649   1.957   5.044   3.137 -0.9863 -1.0819  0.8670
  895TIP3    H2 2650   2.027   4.911   3.160  0.2803 -0.6357 -0.3330
  896TIP3   OH2 2651   5.875   4.232   3.085 -0.1090  0.1323 -0.0966
  896TIP3    H1 2652   5.833   4.145   3.084  1.0922 -0.4672 -0.3191
  896TIP3    H2 2653   5.949   4.223   3.025  0.2032  1.2278  0.1152
  897TIP3   OH2 2654   0.991   6.283   2.732  0.3241  0.5826  0.2821
  897TIP3    H1 2655   1.014   6.236   2.812 -1.0741 -1.0135 -0.2026
  897TIP3    H2 2656   0.904   6.319   2.750  1.7046  3.9555  1.0010
  898TIP3   OH2 2657   3.759   3.803   2.890 -0.4866 -0.3658 -0.2474
  898TIP3    H1 2658   3.735   3.740   2.958 -1.7058  0.5004  0.1588
  898TIP3    H2 2659   3.847   3.777   2.863 -0.5356 -1.5688  0.6767
  899TIP3   OH2 2660   6.414   2.990   1.244  0.3438  0.8122 -0.2127
  899TIP3    H1 2661   6.488   3.031   1.291  0.0104  2.0498 -0.7403
  899TIP3    H2 2662   6.338   3.040   1.271 -0.0088  0.8563 -1.2692
  900TIP3   OH2 2663   1.685   4.744   0.278 -0.0866  0.2732 -0.3027
  900TIP3    H1 2664   1.664   4.806   0.208  1.3786  1.2510  0.0838
  900TIP3    H2 2665   1.682   4.795   0.358  0.2102 -0.3752  0.1331
  901TIP3   OH2 2666   6.386   1.170   0.295  0.1237 -0.1177 -0.0598
  901TIP3    H1 2667   6.443   1.163   0.372  2.5153 -0.7197 -1.7528
  901TIP3    H2 2668   6.369   1.079   0.269  1.2502  0.0399 -1.4894
  902TIP3   OH2 2669   3.277   6.263   2.893 -0.6041  0.3082 -0.1846
  902TIP3    H1 2670   3.342   6.297   2.954 -1.2428  1.7522 -0.2415
  902TIP3    H2 2671   3.278   6.326   2.821 -2.4695  0.7211  0.1009
  903TIP3   OH2 2672   7.177   3.404   5.414  0.0202 -0.4782  0.4970
  903TIP3    H1 2673   7.173   3.399   5.318 -0.8521 -0.9743  0.5487
  903TIP3    H2 2674   7.208   3.318   5.441 -1.4916 -0.9752  0.7344
  904TIP3   OH2 2675   0.950   2.769   0.405 -0.1263  0.1930  0.2549
  904TIP3    H1 2676   1.017   2.702   0.419 -1.5006 -1.5344 -1.0035
  904TIP3    H2 2677   0.872   2.720   0.380 -1.3240  2.2511 -0.2578
  905TIP3   OH2 2678   2.689   2.821   2.462  0.2754 -0.2200 -0.1945
  905TIP3    H1 2679   2.735   2.853   2.540  1.6252 -0.2341 -0.9531
  905TIP3    H2 2680   2.684   2.898   2.404 -0.2763 -0.3319 -0.3015
  906TIP3   OH2 2681   3.129   2.745   1.467 -0.0114 -0.1006 -0.2100
  906TIP3    H1 2682   3.082   2.796   1.401 -2.2080 -0.6708  0.8036
  906TIP3    H2 2683   3.150   2.809   1.535  1.2592  0.2673 -0.9134
  907TIP3   OH2 2684   0.464   1.932   4.688 -0.0118  0.2311  0.4729
  907TIP3    H1 2685   0.518   2.010   4.702  1.3402 -0.7702  1.0139
  907TIP3    H2 2686   0.526   1.862   4.670 -1.2358 -0.6192 -0.6164
  908TIP3   OH2 2687   4.396   5.938   3.051 -0.7810 -0.1227  0.2259
  908TIP3    H1 2688   4.377   5.978   3.135  0.0070  1.6008 -0.3819
  908TIP3    H2 2689   4.442   5.857   3.073  0.8453  1.0774  1.4638
  909TIP3   OH2 2690   4.725   5.917   3.673 -0.3554 -0.0374  0.3285
  909TIP3    H1 2691   4.747   6.001   3.714  0.8457 -1.2250  2.2821
  909TIP3    H2 2692   4.751   5.928   3.582 -0.5978  1.8441  0.4421
  910TIP3   OH2 2693   6.043   1.168   2.817  0.1674  0.3075 -0.6188
  910TIP3    H1 2694   6.130   1.172   2.776  1.4162  1.0895  1.8920
  910TIP3    H2 2695   6.028   1.074   2.831  0.3299  0.1271 -1.5741
  911TIP3   OH2 2696   0.276   6.673   5.659 -0.5578  0.2122  0.0825
  911TIP3    H1 2697   0.223   6.603   5.696 -0.1272 -0.0062  0.2922
  911TIP3    H2 2698   0.344   6.628   5.609 -1.1955  0.5017 -1.0844
  912TIP3   OH2 2699   0.785   2.266   4.550  0.0148 -0.7482  0.1502
  912TIP3    H1 2700   0.742   2.192   4.594  0.4915 -1.4801 -0.5681
  912TIP3    H2 2701   0.837   2.308   4.619 -1.7476  0.1025  1.0123
  913TIP3   OH2 2702   4.167   2.571   4.913  0.4066 -0.0688  0.1382
  913TIP3    H1 2703   4.081   2.614   4.911  0.7479  0.5976 -0.5535
  913TIP3    H2 2704   4.147   2.478   4.917 -0.3509  0.0672 -0.3331
  914TIP3   OH2 2705   5.882   2.425   5.285  0.1548 -0.0653 -0.1174
  914TIP3    H1 2706   5.950   2.367   5.248 -0.8381 -0.8633 -0.7547
  914TIP3    H2 2707   5.902   2.428   5.378  0.8326 -0.6279 -0.2295
  915TIP3   OH2 2708   2.359   2.273   0.544  0.3239 -0.1424  0.2131
  915TIP3    H1 2709   2.307   2.337   0.593 -1.1498  0.2600 -1.7340
  915TIP3    H2 2710   2.346   2.191   0.591 -0.2413  0.4083  1.0510
  916TIP3   OH2 2711   1.971   2.196   3.154  0.8177  0.3354 -0.4855
  916TIP3    H1 2712   1.982   2.260   3.224 -0.1403  0.9596 -0.8917
  916TIP3    H2 2713   1.887   2.218   3.114  0.3556 -1.3006 -0.4980
  917TIP3   OH2 2714   6.144   4.207   1.777  0.6982  0.3767  0.2868
  917TIP3    H1 2715   6.086   4.212   1.702  0.5685  1.0660  0.4272
  917TIP3    H2 2716   6.232   4.208   1.739  0.6273  0.1689  0.1165
  918TIP3   OH2 2717   3.469   3.291   3.686 -0.1192  0.5191 -0.3302
  918TIP3    H1 2718   3.546   3.346   3.703  0.2740  0.1752 -1.0075
  918TIP3    H2 2719   3.492   3.205   3.721 -0.1824  0.4052 -0.5687
  919TIP3   OH2 2720   0.036   1.093   0.955  0.1537  0.0837  0.4484
  919TIP3    H1 2721   0.052   1.183   0.984  1.8396 -1.1607  4.0748
  919TIP3    H2 2722  -0.053   1.074   0.985  0.0135  0.3460  0.2041
  920TIP3   OH2 2723   2.903   2.347   5.455 -0.2239 -0.3086  0.1795
  920TIP3    H1 2724   2.996   2.362   5.472 -0.0485 -1.2522  0.1155
  920TIP3    H2 2725   2.858   2.396   5.524  0.3416 -0.5312  0.7195
  921TIP3   OH2 2726   2.711   4.490   3.300  0.3974  0.0455 -0.0940
  921TIP3    H1 2727   2.718   4.565   3.241  2.2264  0.3380  0.4395
  921TIP3    H2 2728   2.773   4.426   3.265 -0.5765 -0.9208 -0.0988
  922TIP3   OH2 2729   1.012   5.729   5.055 -0.2134  0.1665  0.6629
  922TIP3    H1 2730   1.000   5.641   5.091 -0.2082  0.2969  0.9766
  922TIP3    H2 2731   0.979   5.788   5.122 -2.0955  0.3343 -0.3209
  923TIP3   OH2 2732   0.866   5.491   0.474 -0.7692  0.2593  0.1113
  923TIP3    H1 2733   0.808   5.536   0.413 -1.0934 -1.0512 -0.6003
  923TIP3    H2 2734   0.824   5.500   0.560 -2.2465 -0.9369 -0.4310
  924TIP3   OH2 2735   3.301   5.020   0.349  0.5399  0.2541  0.0088
  924TIP3    H1 2736   3.316   4.927   0.330 -1.9399 -0.1501 -0.2369
  924TIP3    H2 2737   3.240   5.020   0.423 -1.2936  1.5998 -1.4082
  925TIP3   OH2 2738   0.999   5.908   5.484 -0.5018 -0.1420 -0.3265
  925TIP3    H1 2739   1.079   5.921   5.433  0.1891 -1.1035  0.4695
  925TIP3    H2 2740   0.933   5.884   5.420  0.3880 -1.4965 -0.7898
  926TIP3   OH2 2741   4.994   1.953   3.825  0.0156 -0.6217  0.3170
  926TIP3    H1 2742   4.978   1.975   3.733 -0.5556 -1.2357  0.2681
  926TIP3    H2 2743   5.063   2.014   3.851  0.3108 -0.5530 -0.5649
  927TIP3   OH2 2744   3.347   0.261   2.645  0.1631  0.5162  0.0760
  927TIP3    H1 2745   3.397   0.199   2.591 -0.9181 -1.6771  1.4545
  927TIP3    H2 2746   3.414   0.308   2.694  1.1001  1.6182 -2.1053
  928TIP3   OH2 2747   4.575   3.070   5.419 -0.1374 -0.1911 -0.4101
  928TIP3    H1 2748   4.584   2.999   5.482  0.0341 -1.3163 -1.6485
  928TIP3    H2 2749   4.484   3.064   5.389 -0.7421  1.4501  0.9655
  929TIP3   OH2 2750   0.701   2.217   1.356 -0.3353  0.2194 -0.2976
  929TIP3    H1 2751   0.633   2.285   1.356 -1.6539 -0.9630  2.1200
  929TIP3    H2 2752   0.660   2.143   1.311  0.8061  0.6575 -2.1977
  930TIP3   OH2 2753   4.902   1.382   0.468 -0.3191 -0.1125 -0.0529
  930TIP3    H1 2754   4.838   1.322   0.430 -1.4623 -1.1759  3.2014
  930TIP3    H2 2755   4.876   1.469   0.437 -2.2364 -0.7293 -0.2638
  931TIP3   OH2 2756   0.779   6.746   3.500 -0.8005  0.5648  0.0841
  931TIP3    H1 2757   0.794   6.652   3.507  0.3808  0.5869 -1.5434
  931TIP3    H2 2758   0.735   6.757   3.416 -2.7479  1.3279  1.1383
  932TIP3   OH2 2759   5.302   2.061   3.466  0.4665 -0.1518  0.0536
  932TIP3    H1 2760   5.220   2.106   3.487  0.8997  1.3062 -1.1461
  932TIP3    H2 2761   5.312   2.072   3.371  0.9954 -2.1888 -0.1820
  933TIP3   OH2 2762   1.850   4.074   4.369  0.8552 -0.6391  0.1085
  933TIP3    H1 2763   1.924   4.089   4.310  0.4208  1.2748 -0.0046
  933TIP3    H2 2764   1.838   3.978   4.368  2.5510 -0.8822 -0.7893
  934TIP3   OH2 2765   6.114   5.647   2.856 -0.2005 -0.0309 -0.2414
  934TIP3    H1 2766   6.060   5.569   2.844  1.8490 -1.3428 -1.7501
  934TIP3    H2 2767   6.169   5.626   2.931  0.9356 -0.4452 -1.1605
  935TIP3   OH2 2768   2.795   1.995   3.523  0.0462  0.5605  0.0614
  935TIP3    H1 2769   2.866   1.965   3.465  0.0596  0.3003  0.2118
  935TIP3    H2 2770   2.816   1.958   3.608 -0.3613  0.3469  0.0708
  936TIP3   OH2 2771   7.084   2.538   5.856 -0.0822 -0.0727 -0.0032
  936TIP3    H1 2772   7.118   2.460   5.900  1.5860  0.8496  0.4338
  936TIP3    H2 2773   6.991   2.539   5.877 -0.0423 -1.6894  0.3507
  937TIP3   OH2 2774   0.511   2.190   4.770  0.0877 -0.8104  0.3235
  937TIP3    H1 2775   0.472   2.263   4.721  0.7596 -0.3219  0.4944
  937TIP3    H2 2776   0.460   2.185   4.850  0.6485  0.1357  0.7614
  938TIP3   OH2 2777   1.415   2.265   5.053  0.2033  0.1064  0.3487
  938TIP3    H1 2778   1.356   2.329   5.094 -1.1704 -0.8761 -0.0012
  938TIP3    H2 2779   1.452   2.217   5.126  1.4772  1.4331  0.6351
  939TIP3   OH2 2780   6.265   5.121   3.329 -0.1544  0.4881  0.0208
  939TIP3    H1 2781   6.354   5.146   3.355 -0.0345 -0.6062  0.7912
  939TIP3    H2 2782   6.209   5.192   3.362  0.4270  1.1531 -0.4143
  940TIP3   OH2 2783   4.354   5.108   4.285  0.6958  0.5275  0.5223
  940TIP3    H1 2784   4.294   5.108   4.360  0.8695  1.9425  0.6782
  940TIP3    H2 2785   4.303   5.070   4.214  0.4177 -0.5292  1.2503
  941TIP3   OH2 2786   5.980   5.585   4.631 -0.1340 -0.2328 -0.2834
  941TIP3    H1 2787   6.006   5.616   4.718  0.0334 -1.6686  0.1970
  941TIP3    H2 2788   6.013   5.652   4.571  0.9802  0.0822  0.6479
  942TIP3   OH2 2789   0.804   1.060   0.337 -0.1675  0.2469 -0.9656
  942TIP3    H1 2790   0.820   0.966   0.332  0.9432  0.4883 -2.2222
  942TIP3    H2 2791   0.887   1.101   0.315  0.4042  1.5942  2.8028
  943TIP3   OH2 2792   5.886   2.614   3.636 -0.2326 -0.1989  0.2280
  943TIP3    H1 2793   5.887   2.591   3.543  1.6296 -1.2401  0.4556
  943TIP3    H2 2794   5.917   2.535   3.680  1.7121  1.1853  1.4745
  944TIP3   OH2 2795   6.785   0.416   3.653  0.3601  0.1141 -0.0963
  944TIP3    H1 2796   6.718   0.482   3.634  1.2010  0.5636 -1.6983
  944TIP3    H2 2797   6.736   0.342   3.689 -0.7796  1.0529  0.3546
  945TIP3   OH2 2798   4.357   5.169   5.181 -0.3008 -0.0183  1.0157
  945TIP3    H1 2799   4.344   5.080   5.148 -0.8839  0.2806  0.4303
  945TIP3    H2 2800   4.365   5.223   5.102 -0.9975  0.6008  1.3572
  946TIP3   OH2 2801   5.557   5.912   2.930 -0.2016  0.0826 -0.3655
  946TIP3    H1 2802   5.643   5.908   2.971 -0.3838 -0.2657 -0.0105
  946TIP3    H2 2803   5.535   6.005   2.928 -0.0470  0.1273  0.0212
  947TIP3   OH2 2804   6.444   0.873   2.534  0.6178 -0.1783 -0.5093
  947TIP3    H1 2805   6.364   0.894   2.582  0.0973 -0.5393 -1.2111
  947TIP3    H2 2806   6.514   0.891   2.597  0.1129  1.8038 -0.4274
  948TIP3   OH2 2807   1.410   1.823   2.797  0.3923  0.8577  0.0484
  948TIP3    H1 2808   1.347   1.756   2.822  0.9650  0.1838 -0.2800
  948TIP3    H2 2809   1.405   1.826   2.702  0.5208  1.1314  0.0495
  949TIP3   OH2 2810   2.742   6.639   5.894  0.0528  0.4226  0.0549
  949TIP3    H1 2811   2.683   6.606   5.825 -0.7007 -0.2233  0.9824
  949TIP3    H2 2812   2.694   6.712   5.933  1.2197  1.9364 -1.2147
  950TIP3   OH2 2813   5.362   3.335   1.146  0.1558  0.2927  0.0716
  950TIP3    H1 2814   5.369   3.270   1.216 -1.2591 -0.1199 -0.1489
  950TIP3    H2 2815   5.339   3.416   1.191 -0.4606  0.0934  0.1228
  951TIP3   OH2 2816   1.253   1.266   1.925 -0.2604  0.5296 -0.3412
  951TIP3    H1 2817   1.228   1.277   2.017  1.5400 -0.6105  0.3359
  951TIP3    H2 2818   1.199   1.194   1.893 -1.0304  1.0570 -0.2535
  952TIP3   OH2 2819   2.628   4.179   4.314 -0.1635 -0.2076  0.1209
  952TIP3    H1 2820   2.683   4.106   4.285  0.4000  0.1684  0.2380
  952TIP3    H2 2821   2.561   4.137   4.368 -0.4153 -0.7530 -0.5937
  953TIP3   OH2 2822   2.909   5.788   3.203 -1.0243 -0.1238  0.2781
  953TIP3    H1 2823   2.997   5.757   3.226 -0.2442  1.3999 -0.4691
  953TIP3    H2 2824   2.853   5.754   3.272  0.4540  0.3473  1.7780
  954TIP3   OH2 2825   5.822   4.010   1.319 -0.5608  0.7121  0.0338
  954TIP3    H1 2826   5.882   3.935   1.330 -0.1149  0.7943 -1.5463
  954TIP3    H2 2827   5.879   4.081   1.288 -1.1403  1.4181  0.5824
  955TIP3   OH2 2828   3.748   1.716   3.111  0.2973  0.6811  0.3894
  955TIP3    H1 2829   3.681   1.678   3.054  1.3596 -0.0961 -0.3778
  955TIP3    H2 2830   3.795   1.778   3.056  0.8104  0.5203  0.6365
  956TIP3   OH2 2831   5.715   0.800   2.959 -0.5941 -0.2671 -0.5382
  956TIP3    H1 2832   5.693   0.858   2.887 -2.3848  0.4346  0.5058
  956TIP3    H2 2833   5.659   0.724   2.948 -1.4500  0.1869  0.5016
  957TIP3   OH2 2834   3.106   0.590   5.171 -0.1871 -0.1226 -0.2361
  957TIP3    H1 2835   3.173   0.606   5.238  1.4951  0.9146 -2.0788
  957TIP3    H2 2836   3.069   0.676   5.152  1.3436  0.1325 -2.5419
  958TIP3   OH2 2837   6.780   2.137   3.880  0.6118  0.1329 -0.3119
  958TIP3    H1 2838   6.813   2.086   3.806 -0.7431 -0.5919 -0.4515
  958TIP3    H2 2839   6.728   2.207   3.839 -1.6443 -1.3048 -0.1065
  959TIP3   OH2 2840   1.042   4.594   5.697 -0.1893 -0.3480 -0.5468
  959TIP3    H1 2841   1.116   4.559   5.747 -0.6203 -1.6013 -0.7433
  959TIP3    H2 2842   0.991   4.517   5.673 -0.4409  0.2939 -2.2094
  960TIP3   OH2 2843   6.403   1.946   5.376 -0.5097 -0.6744 -0.2214
  960TIP3    H1 2844   6.472   2.009   5.353 -0.4225 -0.6993 -0.0278
  960TIP3    H2 2845   6.445   1.861   5.367 -0.3265 -0.6668  0.5190
  961TIP3   OH2 2846   5.015   5.201   1.862 -0.7216  0.1735 -0.1083
  961TIP3    H1 2847   5.034   5.127   1.919 -1.3228  0.1795  0.1064
  961TIP3    H2 2848   5.022   5.277   1.919 -0.3010  0.2708 -0.2843
  962TIP3   OH2 2849   4.037   6.113   3.214 -0.1803 -0.6507 -0.5452
  962TIP3    H1 2850   3.972   6.052   3.248 -1.5323  1.2520  0.4827
  962TIP3    H2 2851   3.992   6.197   3.210  1.5653  0.2913 -2.0067
  963TIP3   OH2 2852   3.970   2.551   0.858 -0.2556  0.7138 -0.5819
  963TIP3    H1 2853   4.042   2.517   0.911 -0.5136  0.4911 -0.3736
  963TIP3    H2 2854   3.913   2.597   0.919 -1.9579 -1.7568 -0.1286
  964TIP3   OH2 2855   6.342   0.443   3.647 -0.0677  0.2433 -0.2798
  964TIP3    H1 2856   6.275   0.503   3.680 -1.3924 -0.9135 -0.7345
  964TIP3    H2 2857   6.309   0.417   3.561  0.0371 -1.7491  0.2398
  965TIP3   OH2 2858   4.520   4.557   4.346  0.2074 -0.1406  0.0833
  965TIP3    H1 2859   4.489   4.640   4.311  1.8266  0.0016 -1.1477
  965TIP3    H2 2860   4.615   4.565   4.346  0.5206 -2.5352 -1.6676
  966TIP3   OH2 2861   3.126   5.991   1.751 -0.6340  0.1471 -0.3968
  966TIP3    H1 2862   3.135   5.918   1.690 -0.2673 -0.4615  0.3644
  966TIP3    H2 2863   3.136   6.069   1.696  0.0021 -0.3897 -1.0718
  967TIP3   OH2 2864   7.122   0.528   5.812  0.0388  0.6152  0.4371
  967TIP3    H1 2865   7.100   0.608   5.765  0.6412  0.7819  0.4331
  967TIP3    H2 2866   7.212   0.508   5.785 -0.6244 -0.9346 -0.7916
  968TIP3   OH2 2867   5.590   2.768   3.380  0.2567  0.2734 -0.3664
  968TIP3    H1 2868   5.670   2.821   3.382  0.4402 -0.0139  0.1274
  968TIP3    H2 2869   5.622   2.678   3.373 -0.0609  0.2370 -1.7459
  969TIP3   OH2 2870   1.450   2.261   0.549 -0.2025 -0.1860  0.4969
  969TIP3    H1 2871   1.519   2.277   0.614  0.5154  1.2118 -0.5504
  969TIP3    H2 2872   1.484   2.301   0.469 -0.6130 -2.7063 -1.0415
  970TIP3   OH2 2873   5.543   2.363   4.456 -0.6287 -0.3664 -0.5065
  970TIP3    H1 2874   5.464   2.343   4.407  0.6756  0.8021 -3.3028
  970TIP3    H2 2875   5.603   2.292   4.436  0.1913  0.5204 -1.3188
  971TIP3   OH2 2876   7.050   2.408   2.899 -0.6996 -0.1769  0.3367
  971TIP3    H1 2877   7.106   2.462   2.843  0.1243  1.5933  2.6771
  971TIP3    H2 2878   7.110   2.344   2.938 -0.9124 -0.2804  0.4946
  972TIP3   OH2 2879   4.549   5.825   0.343 -0.1756 -0.8892  0.0012
  972TIP3    H1 2880   4.527   5.906   0.298 -1.4215 -1.3994 -0.3366
  972TIP3    H2 2881   4.641   5.809   0.320  0.6976  1.3534  1.5588
  973TIP3   OH2 2882   4.906   4.099   4.228  0.2739  0.3189  0.9653
  973TIP3    H1 2883   4.906   4.071   4.137  1.3368  1.9608  0.4165
  973TIP3    H2 2884   4.990   4.068   4.263  0.3644  0.6606  1.0542
  974TIP3   OH2 2885   6.323   1.636   3.182  0.0974 -0.1012  0.5526
  974TIP3    H1 2886   6.290   1.592   3.103 -0.9358  0.6968  0.5246
  974TIP3    H2 2887   6.320   1.729   3.160  1.5175  0.0564  0.9014
  975TIP3   OH2 2888   2.870   0.750   4.551 -0.2972  0.3447 -0.0800
  975TIP3    H1 2889   2.886   0.717   4.639  0.5098  2.4287  0.6086
  975TIP3    H2 2890   2.944   0.716   4.500 -1.1559 -1.4895 -0.1991
  976TIP3   OH2 2891   6.257   3.793   5.219  0.5764  0.2018  0.3040
  976TIP3    H1 2892   6.199   3.840   5.279  0.0645 -1.0225  0.8086
  976TIP3    H2 2893   6.300   3.728   5.274 -0.1168 -1.1384 -0.6744
  977TIP3   OH2 2894   3.294   3.506   5.835 -0.4499  0.3432  0.0863
  977TIP3    H1 2895   3.299   3.562   5.913 -2.3932 -1.7401  1.8342
  977TIP3    H2 2896   3.384   3.474   5.824  0.0036  1.2037  1.0698
  978TIP3   OH2 2897   4.464   3.389   3.832 -0.4294  0.4796 -0.2061
  978TIP3    H1 2898   4.413   3.338   3.769  1.0231  0.1889 -1.2130
  978TIP3    H2 2899   4.555   3.365   3.814  0.0852  1.0848  1.4177
  979TIP3   OH2 2900   7.109   0.241   2.169 -0.4818 -0.0450  0.2555
  979TIP3    H1 2901   7.043   0.254   2.237  0.1799 -0.0482  0.9142
  979TIP3    H2 2902   7.171   0.179   2.207 -0.2170 -0.2175 -0.4405
  980TIP3   OH2 2903   2.466   3.730   0.164  0.0978 -0.3598 -0.1992
  980TIP3    H1 2904   2.382   3.759   0.127 -0.3426 -1.2787  0.0540
  980TIP3    H2 2905   2.451   3.639   0.189  1.0971 -0.4528  0.1006
  981TIP3   OH2 2906   2.839   1.528   2.970  0.1127 -0.7109  0.2252
  981TIP3    H1 2907   2.841   1.538   2.875 -0.5730 -0.3248  0.2394
  981TIP3    H2 2908   2.780   1.598   3.000  0.0729 -1.0239  0.9035
  982TIP3   OH2 2909   3.305   1.769   3.134 -0.3468 -0.0848 -0.0813
  982TIP3    H1 2910   3.316   1.852   3.089 -1.1826 -0.5745 -1.2512
  982TIP3    H2 2911   3.215   1.743   3.114 -0.1319 -1.2058  0.3455
  983TIP3   OH2 2912   0.181   5.732   2.083  0.5948 -0.2997 -0.8074
  983TIP3    H1 2913   0.120   5.741   2.157  1.1916  0.8760 -0.4301
  983TIP3    H2 2914   0.225   5.649   2.098  0.1267 -0.4614 -0.2846
  984TIP3   OH2 2915   5.853   2.063   0.732  0.4534 -0.2556  0.5172
  984TIP3    H1 2916   5.845   1.999   0.660 -0.4137 -0.2703  0.6194
  984TIP3    H2 2917   5.816   2.143   0.696  1.4831  0.1938  0.4147
  985TIP3   OH2 2918   6.063   2.830   2.676  0.4336  0.5483  0.3082
  985TIP3    H1 2919   6.121   2.905   2.660  0.7680  0.7723  2.3888
  985TIP3    H2 2920   6.108   2.756   2.636  0.3593  1.3267 -1.3033
  986TIP3   OH2 2921   7.060   2.809   0.405 -0.5304  0.4671  0.0702
  986TIP3    H1 2922   7.037   2.832   0.315  1.9516  1.4207 -0.3954
  986TIP3    H2 2923   6.982   2.831   0.457 -1.4254  1.4391 -1.6124
  987TIP3   OH2 2924   4.450   6.398   2.825 -0.1330  0.6951 -0.1256
  987TIP3    H1 2925   4.511   6.437   2.887  0.1935 -3.0109  2.1322
  987TIP3    H2 2926   4.365   6.432   2.851  0.1679  0.2589  1.5568
  988TIP3   OH2 2927   4.045   4.701   0.044 -0.1030  0.3038  0.1222
  988TIP3    H1 2928   4.069   4.615   0.009 -2.2644 -1.0261  1.6590
  988TIP3    H2 2929   4.114   4.720   0.108  0.6806 -0.0358 -0.6131
  989TIP3   OH2 2930   0.693   5.719   5.637  0.3042 -0.1656  0.2604
  989TIP3    H1 2931   0.694   5.804   5.593  3.1196 -0.5401 -0.5965
  989TIP3    H2 2932   0.738   5.734   5.720 -0.1903 -0.6142  0.6243
  990TIP3   OH2 2933   0.403   4.319   5.352 -0.0132 -0.4526 -0.3015
  990TIP3    H1 2934   0.494   4.299   5.332  0.4574  0.9517  0.2906
  990TIP3    H2 2935   0.355   4.238   5.334  1.4890 -1.5074  0.3031
  991TIP3   OH2 2936   4.408   5.963   5.259  0.0392  0.1958 -0.0999
  991TIP3    H1 2937   4.497   5.998   5.265  0.8401 -1.7924  0.6491
  991TIP3    H2 2938   4.375   5.996   5.175  1.5370  0.8437 -0.4736
  992TIP3   OH2 2939   1.127   3.915   5.249  0.4149  0.0164  0.0041
  992TIP3    H1 2940   1.208   3.899   5.201  0.9197  0.2659  0.7582
  992TIP3    H2 2941   1.062   3.933   5.181  0.6376 -1.6350 -0.7005
  993TIP3   OH2 2942   5.368   1.698   2.489 -0.5042 -0.2338  0.3239
  993TIP3    H1 2943   5.394   1.790   2.486 -0.4285 -0.2344  0.8289
  993TIP3    H2 2944   5.427   1.659   2.553 -0.2592 -0.7247 -0.1936
  994TIP3   OH2 2945   6.975   5.005   4.342 -0.3920 -0.5957 -0.7532
  994TIP3    H1 2946   6.901   5.046   4.297 -1.3473  2.2516  2.9167
  994TIP3    H2 2947   6.934   4.946   4.406  0.7723 -2.2648 -1.4843
  995TIP3   OH2 2948   2.719   1.098   4.755  0.0898  0.3649  0.0584
  995TIP3    H1 2949   2.760   1.082   4.669 -2.0487 -0.1584 -0.9321
  995TIP3    H2 2950   2.657   1.169   4.739 -0.5355  0.0675  1.0987
  996TIP3   OH2 2951   5.478   2.680   2.516  0.2836 -0.1591 -0.6734
  996TIP3    H1 2952   5.483   2.776   2.513  1.0811 -0.1948 -3.0232
  996TIP3    H2 2953   5.561   2.651   2.478  0.5410 -1.8343  1.0673
  997TIP3   OH2 2954   6.285   2.259   2.444 -0.0055  0.4837  0.2543
  997TIP3    H1 2955   6.339   2.329   2.481  0.9137  0.2282 -0.5684
  997TIP3    H2 2956   6.329   2.235   2.363  0.3672 -1.8762  1.0986
  998TIP3   OH2 2957   3.708   0.755   1.884  0.0904 -0.1840  0.1215
  998TIP3    H1 2958   3.679   0.709   1.805  0.2360  1.5136 -0.9734
  998TIP3    H2 2959   3.638   0.739   1.947  0.6966 -2.8823  0.2524
  999TIP3   OH2 2960   5.509   2.962   2.551 -0.2927 -0.6342  0.0843
  999TIP3    H1 2961   5.506   3.054   2.528 -0.4625 -0.7671 -0.4289
  999TIP3    H2 2962   5.487   2.960   2.644 -0.9780 -0.2166 -0.0616
 1000TIP3   OH2 2963   2.752   1.738   5.109 -0.3337  0.1750  0.0054
 1000TIP3    H1 2964   2.795   1.713   5.191 -0.0449  2.3350  0.5611
 1000TIP3    H2 2965   2.812   1.709   5.040  0.8082  0.9133  0.6726
 1001TIP3   OH2 2966   0.150   0.418   3.900 -0.7505  0.3144 -0.2927
 1001TIP3    H1 2967   0.133   0.326   3.882  0.9047  0.2489 -1.8012
 1001TIP3    H2 2968   0.097   0.466   3.835 -1.2786  0.4293  0.2120
 1002TIP3   OH2 2969   4.242   5.030   2.435  0.3199  0.0956  0.3790
 1002TIP3    H1 2970   4.261   5.112   2.481  1.1333  0.1231  0.0214
 1002TIP3    H2 2971   4.287   4.963   2.487 -0.9079 -0.2237  1.0504
 1003TIP3   OH2 2972   4.019   2.002   4.693  0.0602  0.0313 -0.0279
 1003TIP3    H1 2973   3.934   1.985   4.734 -1.1856  1.1294 -1.9911
 1003TIP3    H2 2974   3.998   2.017   4.600  2.5432 -0.7702 -0.7777
 1004TIP3   OH2 2975   1.021   3.366   1.062 -0.7379 -0.0514 -0.2398
 1004TIP3    H1 2976   1.057   3.356   1.150  1.8819  1.6474 -0.9848
 1004TIP3    H2 2977   1.009   3.460   1.051 -2.4109 -0.3512 -1.2185
 1005TIP3   OH2 2978   6.846   0.385   0.741 -0.5501 -0.4230 -0.2562
 1005TIP3    H1 2979   6.832   0.292   0.756 -0.5936 -0.4266 -0.3183
 1005TIP3    H2 2980   6.887   0.417   0.822  0.0893 -0.6278 -0.4943
 1006TIP3   OH2 2981   6.860   6.689   5.148 -1.0855  0.4073 -0.0716
 1006TIP3    H1 2982   6.871   6.603   5.109  0.2659  0.5746 -0.1188
 1006TIP3    H2 2983   6.923   6.745   5.102 -1.0375  1.1119  0.8088
 1007TIP3   OH2 2984   5.110   0.106   2.142  0.6385  0.1387 -0.0473
 1007TIP3    H1 2985   5.156   0.060   2.072 -1.0690 -3.3813  0.9236
 1007TIP3    H2 2986   5.018   0.106   2.115 -0.0013 -0.9384  1.8758
 1008TIP3   OH2 2987   0.226   1.838   0.155 -0.1182  0.2926 -0.0903
 1008TIP3    H1 2988   0.167   1.782   0.104 -0.4891  1.4060 -0.9305
 1008TIP3    H2 2989   0.236   1.793   0.238 -0.0927 -1.2108 -0.8760
 1009TIP3   OH2 2990   6.539   2.863   4.071 -0.4401 -0.5047 -0.0680
 1009TIP3    H1 2991   6.463   2.809   4.049 -0.5679 -0.1583 -0.4868
 1009TIP3    H2 2992   6.571   2.895   3.986  0.6952 -1.3490  0.0143
 1010TIP3   OH2 2993   0.936   0.455   3.778 -0.3807 -0.3567 -0.7085
 1010TIP3    H1 2994   0.899   0.523   3.721 -0.1714  1.0234  0.7386
 1010TIP3    H2 2995   0.925   0.374   3.728 -2.8134  0.3715 -1.5286
 1011TIP3   OH2 2996   6.906   1.493   1.326 -0.4737  0.1612  0.1786
 1011TIP3    H1 2997   6.844   1.426   1.354  0.3046 -0.0322  1.5129
 1011TIP3    H2 2998   6.851   1.570   1.309 -1.0467  0.2077  2.0020
 1012TIP3   OH2 2999   5.145   1.798   0.064  0.1287 -0.8086  0.3525
 1012TIP3    H1 3000   5.159   1.869   0.001 -1.7195 -1.5855 -1.0276
 1012TIP3    H2 3001   5.232   1.761   0.079  1.0221  1.2205  0.5174
 1013TIP3   OH2 3002   0.290   1.575   3.059  0.5832 -0.1048  0.0723
 1013TIP3    H1 3003   0.355   1.591   2.990  1.1831 -1.2780  0.3406
 1013TIP3    H2 3004   0.320   1.628   3.132 -0.1242  1.2474 -0.5775
 1014TIP3   OH2 3005   3.363   5.480   2.467  0.1110  0.3410  0.0520
 1014TIP3    H1 3006   3.353   5.395   2.509  1.8568  0.0848  0.0420
 1014TIP3    H2 3007   3.388   5.459   2.377 -0.5854  0.8742 -0.2722
 1015TIP3   OH2 3008   7.107   0.529   2.569 -0.1053  0.1687  0.0121
 1015TIP3    H1 3009   7.041   0.527   2.639  1.7556 -0.3873  1.8584
 1015TIP3    H2 3010   7.071   0.473   2.501 -1.7955  0.3536  0.6966
 1016TIP3   OH2 3011   0.258   4.165   0.024 -0.1923  0.1906 -0.1493
 1016TIP3    H1 3012   0.254   4.124   0.110  1.1879 -0.5351 -0.4047
 1016TIP3    H2 3013   0.245   4.094  -0.038  1.5663  0.1926 -0.5842
 1017TIP3   OH2 3014   4.929   2.511   0.238  0.0051  0.2907 -0.0347
 1017TIP3    H1 3015   4.971   2.509   0.153 -0.9402 -1.9172 -0.5365
 1017TIP3    H2 3016   5.001   2.509   0.301  0.7713 -2.7942 -0.8575
 1018TIP3   OH2 3017   4.106   6.056   1.424  0.0685 -0.3344  1.1426
 1018TIP3    H1 3018   4.182   5.998   1.419  3.1434  3.3857 -1.6667
 1018TIP3    H2 3019   4.124   6.115   1.497  2.0876  2.8395 -1.6156
 1019TIP3   OH2 3020   1.110   0.244   4.405 -0.7506  0.6985  0.5418
 1019TIP3    H1 3021   1.107   0.309   4.475  0.4039 -0.0049  1.2810
 1019TIP3    H2 3022   1.051   0.174   4.435  0.1114  0.1804  1.0558
 1020TIP3   OH2 3023   4.517   1.017   2.157  0.0230  0.2579  0.5245
 1020TIP3    H1 3024   4.572   0.942   2.134  0.9620  0.9880  0.3539
 1020TIP3    H2 3025   4.452   0.981   2.218  0.0627 -0.8224 -0.0403
 1021TIP3   OH2 3026   0.777   1.502   3.133 -0.1676  0.4921 -0.0009
 1021TIP3    H1 3027   0.862   1.465   3.108 -0.1774 -0.0808  0.8053
 1021TIP3    H2 3028   0.764   1.574   3.070  1.8531  1.9279  1.0990
 1022TIP3   OH2 3029   5.121   4.708   2.530  0.2390  0.1339 -0.1520
 1022TIP3    H1 3030   5.054   4.749   2.584 -0.0347  0.3118 -0.6203
 1022TIP3    H2 3031   5.147   4.630   2.579 -2.2386 -1.4600 -1.1789
 1023TIP3   OH2 3032   2.641   1.803   4.113 -0.1665 -0.4144 -0.7415
 1023TIP3    H1 3033   2.709   1.854   4.068 -2.2501  2.0722 -1.3272
 1023TIP3    H2 3034   2.660   1.815   4.206  1.2335 -1.3260 -0.8879
 1024TIP3   OH2 3035   3.219   3.735   3.115 -0.1669  0.2850  0.1860
 1024TIP3    H1 3036   3.145   3.792   3.133  1.2897  2.2167  0.3301
 1024TIP3    H2 3037   3.292   3.794   3.101  0.7769 -1.4028 -2.9464
 1025TIP3   OH2 3038   4.273   1.402   4.011 -0.5045  0.0970 -0.1776
 1025TIP3    H1 3039   4.324   1.480   3.989 -1.0156  0.1394 -1.2697
 1025TIP3    H2 3040   4.320   1.363   4.084  0.4125  0.7975 -0.3721
 1026TIP3   OH2 3041   0.172   0.915   0.764 -0.4402  0.7450  0.0268
 1026TIP3    H1 3042   0.096   0.889   0.712  0.4426 -0.0858 -0.8973
 1026TIP3    H2 3043   0.146   0.997   0.806 -1.0564  1.7053 -2.0894
 1027TIP3   OH2 3044   6.569   0.580   5.023  0.3957 -0.6347 -0.2824
 1027TIP3    H1 3045   6.553   0.515   4.955 -0.5192  0.9311 -1.6329
 1027TIP3    H2 3046   6.502   0.647   5.009  0.3015 -0.1415  2.0483
 1028TIP3   OH2 3047   0.629   1.311   3.248  0.2298 -0.2312  0.3334
 1028TIP3    H1 3048   0.688   1.371   3.202  1.2235 -0.5442  1.1719
 1028TIP3    H2 3049   0.578   1.270   3.178  0.5008  0.5820 -0.3524
 1029TIP3   OH2 3050   5.226   6.578   3.114  0.4816 -0.0831 -0.1902
 1029TIP3    H1 3051   5.234   6.610   3.024  0.8017  0.8101  0.1484
 1029TIP3    H2 3052   5.192   6.489   3.105  0.9636 -0.1757 -1.2190
 1030TIP3   OH2 3053   7.172   5.792   2.329 -0.2623 -0.3628 -0.1612
 1030TIP3    H1 3054   7.108   5.809   2.399 -0.8957  0.9696 -1.0347
 1030TIP3    H2 3055   7.254   5.773   2.376 -0.7677  0.1205  0.9535
 1031TIP3   OH2 3056   4.555   4.634   4.866 -0.4983 -0.1890  0.4221
 1031TIP3    H1 3057   4.521   4.688   4.794 -2.3499 -0.2791  1.1760
 1031TIP3    H2 3058   4.482   4.627   4.927  1.1010  0.1005  2.4623
 1032TIP3   OH2 3059   6.583   4.231   4.777  0.7325 -0.2684  0.3531
 1032TIP3    H1 3060   6.553   4.169   4.843 -1.0526  0.4230  0.2241
 1032TIP3    H2 3061   6.678   4.216   4.772  0.7069 -1.2430  2.0955
 1033TIP3   OH2 3062   2.084   4.746   1.038  0.1792  0.2143 -0.0888
 1033TIP3    H1 3063   2.088   4.656   1.071  2.8999 -0.5351 -2.1000
 1033TIP3    H2 3064   2.158   4.790   1.080  0.7794  0.5796 -1.4906
 1034TIP3   OH2 3065   6.903   6.235   5.869 -0.7083 -0.0240  0.2304
 1034TIP3    H1 3066   6.822   6.286   5.860 -0.7272  0.3749  2.3085
 1034TIP3    H2 3067   6.873   6.147   5.892 -0.5717 -0.0743  0.2128
 1035TIP3   OH2 3068   7.034   0.561   0.236 -0.0982 -0.1054 -0.6647
 1035TIP3    H1 3069   6.976   0.625   0.195  0.1447  0.9439  0.5597
 1035TIP3    H2 3070   7.114   0.564   0.184  1.1790  3.0549  1.1550
 1036TIP3   OH2 3071   4.667   1.605   2.707  0.4060  0.0127  0.3321
 1036TIP3    H1 3072   4.671   1.599   2.611  2.3914 -1.6233  0.4437
 1036TIP3    H2 3073   4.684   1.697   2.726 -0.9598  0.5667 -0.8714
 1037TIP3   OH2 3074   0.532   2.096   2.298  0.0814  0.3278 -0.0092
 1037TIP3    H1 3075   0.502   2.179   2.336  3.3058  2.0759 -0.9146
 1037TIP3    H2 3076   0.474   2.080   2.224 -0.4628  1.9123  0.0526
 1038TIP3   OH2 3077   2.216   1.912   5.521 -0.3309  0.3679  0.3239
 1038TIP3    H1 3078   2.303   1.926   5.485 -0.4156  0.7523  0.2629
 1038TIP3    H2 3079   2.157   1.923   5.446 -0.2404 -3.7615 -0.5726
 1039TIP3   OH2 3080   3.237   5.178   4.152 -0.0631  0.4031 -0.2789
 1039TIP3    H1 3081   3.299   5.244   4.119 -1.4955  1.6061 -0.6473
 1039TIP3    H2 3082   3.195   5.221   4.226 -0.6387 -0.3074 -0.1915
 1040TIP3   OH2 3083   5.851   2.871   0.192  0.2141 -0.0410  0.4932
 1040TIP3    H1 3084   5.900   2.835   0.118 -0.1826 -0.8022  0.5954
 1040TIP3    H2 3085   5.779   2.920   0.151 -0.3557 -0.9596  0.3711
 1041TIP3   OH2 3086   3.719   1.026   2.225 -0.0615  0.6362 -0.2673
 1041TIP3    H1 3087   3.783   0.959   2.249  0.1701  0.0282 -2.3626
 1041TIP3    H2 3088   3.637   0.997   2.266  0.3810 -0.1372  0.0808
 1042TIP3   OH2 3089   2.652   0.985   5.037  1.0677 -0.4206 -0.2675
 1042TIP3    H1 3090   2.693   1.003   4.952  0.2235 -1.1263 -0.8320
 1042TIP3    H2 3091   2.581   1.049   5.044  1.1413 -0.3574 -0.0814
 1043TIP3   OH2 3092   6.575   5.428   0.150 -0.5160  0.2001 -0.2545
 1043TIP3    H1 3093   6.588   5.422   0.245  1.0245  1.4735 -0.3461
 1043TIP3    H2 3094   6.576   5.337   0.120  0.5918 -0.1428  0.7532
 1044TIP3   OH2 3095   6.806   3.184   0.228 -0.0166  0.3572 -0.0561
 1044TIP3    H1 3096   6.824   3.210   0.319  0.5954  0.9401 -0.3351
 1044TIP3    H2 3097   6.792   3.266   0.182 -0.6146  0.0465 -0.4363
 1045TIP3   OH2 3098   3.607   5.437   0.990  0.8617  0.4721 -0.2192
 1045TIP3    H1 3099   3.547   5.507   1.018  0.6400  0.5046 -0.7491
 1045TIP3    H2 3100   3.584   5.363   1.045  2.3796  1.3261  1.6873
 1046TIP3   OH2 3101   5.882   2.924   1.350 -0.3982  0.0270 -0.1477
 1046TIP3    H1 3102   5.836   2.946   1.270 -0.8558  0.5712  0.2552
 1046TIP3    H2 3103   5.832   2.850   1.386 -1.4244  1.0767  0.6586
 1047TIP3   OH2 3104   4.279   6.422   0.325  0.3162 -0.2331 -0.0404
 1047TIP3    H1 3105   4.195   6.468   0.319 -0.2878 -0.9924  1.7245
 1047TIP3    H2 3106   4.285   6.372   0.244 -1.5051 -1.0230  0.2532
 1048TIP3   OH2 3107   1.730   2.225   4.005 -0.5762 -0.3678  0.0945
 1048TIP3    H1 3108   1.737   2.304   3.952  1.0878 -0.8247 -0.4316
 1048TIP3    H2 3109   1.639   2.196   3.992 -0.8444  0.7454 -0.7217
 1049TIP3   OH2 3110   4.070   2.521   2.205  0.0973  0.4518 -0.2842
 1049TIP3    H1 3111   4.020   2.575   2.266 -0.3155  1.6501 -1.6179
 1049TIP3    H2 3112   4.022   2.527   2.123  0.2776 -1.6462 -0.6160
 1050TIP3   OH2 3113   5.943   2.180   2.982 -0.4427  0.2342 -0.1305
 1050TIP3    H1 3114   5.987   2.226   2.910 -0.6564  0.7576  0.0659
 1050TIP3    H2 3115   5.871   2.133   2.939 -0.4815  0.4302 -0.2847
 1051TIP3   OH2 3116   1.161   3.638   0.836 -0.1924  0.1805  0.0633
 1051TIP3    H1 3117   1.222   3.600   0.899 -1.9349 -2.0903  0.5061
 1051TIP3    H2 3118   1.090   3.673   0.889 -0.1746  1.1634 -0.5302
 1052TIP3   OH2 3119   4.211   1.271   0.114  0.0734 -0.2091  0.0250
 1052TIP3    H1 3120   4.286   1.242   0.062  0.7466 -1.6764  1.6901
 1052TIP3    H2 3121   4.243   1.346   0.164  0.1667 -0.2712  0.0592
 1053TIP3   OH2 3122   1.754   0.391   4.377 -0.1494 -0.4384  0.9799
 1053TIP3    H1 3123   1.687   0.400   4.444 -1.0002 -0.9695  0.2204
 1053TIP3    H2 3124   1.715   0.336   4.310  0.4712  0.5113 -0.2244
 1054TIP3   OH2 3125   6.105   6.240   2.998  0.1375  0.3743 -0.3949
 1054TIP3    H1 3126   6.011   6.240   3.016  0.0949  1.4037 -0.5723
 1054TIP3    H2 3127   6.143   6.190   3.070 -0.6335 -0.9751 -0.8849
 1055TIP3   OH2 3128   2.414   5.114   3.699 -0.4793 -0.1627  0.2045
 1055TIP3    H1 3129   2.448   5.127   3.610  2.2500 -2.4872  0.7552
 1055TIP3    H2 3130   2.338   5.057   3.686 -0.0943 -0.5115 -0.6867
 1056TIP3   OH2 3131   0.922   6.187   3.516 -0.0770 -0.3547 -0.0709
 1056TIP3    H1 3132   0.858   6.192   3.587 -0.9162 -2.2702 -0.6198
 1056TIP3    H2 3133   0.872   6.204   3.436  0.5746  0.4007 -0.3281
 1057TIP3   OH2 3134   0.791   4.332   4.670 -0.6114  0.0588 -0.2247
 1057TIP3    H1 3135   0.714   4.309   4.722 -0.3932  1.4006  0.7405
 1057TIP3    H2 3136   0.844   4.253   4.669 -1.1174 -0.3046  0.7227
 1058TIP3   OH2 3137   2.981   1.994   2.250 -0.0165  0.2397 -0.2831
 1058TIP3    H1 3138   2.947   2.024   2.334  1.7756  0.8290  0.2882
 1058TIP3    H2 3139   2.942   1.908   2.237 -1.7361  0.9059  0.2595
 1059TIP3   OH2 3140   3.256   2.754   2.592  0.0863 -0.2947 -0.6435
 1059TIP3    H1 3141   3.240   2.845   2.566 -1.7455 -0.0909  0.9830
 1059TIP3    H2 3142   3.348   2.754   2.622  0.2401  0.9186 -1.0497
 1060TIP3   OH2 3143   1.943   1.013   3.309 -0.3763 -0.0088  0.2894
 1060TIP3    H1 3144   1.853   0.990   3.289 -0.1815  0.3858 -1.1892
 1060TIP3    H2 3145   1.952   1.104   3.280 -0.0170  0.6298  2.2397
 1061TIP3   OH2 3146   1.406   0.795   0.080 -0.0009 -0.4035 -0.1416
 1061TIP3    H1 3147   1.419   0.784  -0.014 -0.3821  0.7410 -0.3434
 1061TIP3    H2 3148   1.472   0.738   0.120 -0.1708 -1.2955 -1.0835
 1062TIP3   OH2 3149   4.670   3.430   2.386 -0.2233 -0.2577 -0.6117
 1062TIP3    H1 3150   4.617   3.509   2.373 -1.1722 -0.8972 -0.7366
 1062TIP3    H2 3151   4.713   3.443   2.470 -0.9330  0.0845 -0.2947
 1063TIP3   OH2 3152   0.426   6.223   3.774  0.8367  0.2037  0.0432
 1063TIP3    H1 3153   0.479   6.277   3.716  0.4622  1.4865  0.8341
 1063TIP3    H2 3154   0.419   6.139   3.730  2.1718  0.5199 -0.8302
 1064TIP3   OH2 3155   5.463   2.687   0.238 -0.5555 -0.2761 -0.3450
 1064TIP3    H1 3156   5.525   2.714   0.170  2.0480 -1.8381  1.2257
 1064TIP3    H2 3157   5.430   2.602   0.207 -0.4663 -0.3113 -0.3454
 1065TIP3   OH2 3158   4.318   1.445   2.660 -0.4564  0.1532 -0.1748
 1065TIP3    H1 3159   4.234   1.428   2.702 -0.0700 -0.6062  0.3052
 1065TIP3    H2 3160   4.359   1.511   2.716  0.1197 -0.9624  0.7627
 1066TIP3   OH2 3161   0.583   1.385   1.483 -0.2225 -0.0417  0.1766
 1066TIP3    H1 3162   0.513   1.319   1.482  0.3268 -0.6386  0.6215
 1066TIP3    H2 3163   0.664   1.334   1.488  0.2648  0.6374 -0.6362
 1067TIP3   OH2 3164   5.699   2.789   4.747  0.1031  1.2191 -0.1338
 1067TIP3    H1 3165   5.679   2.724   4.679  2.6429 -0.9480  1.0399
 1067TIP3    H2 3166   5.616   2.799   4.794 -0.0906 -2.6436  0.7371
 1068TIP3   OH2 3167   1.903   1.039   4.370  0.1320  0.4445  0.0768
 1068TIP3    H1 3168   1.844   1.113   4.382 -0.3003 -0.0776  1.3958
 1068TIP3    H2 3169   1.869   0.992   4.294 -0.6897  0.5809  0.3523
 1069TIP3   OH2 3170   7.195   1.594   4.321  0.1696 -0.6471 -0.0215
 1069TIP3    H1 3171   7.164   1.614   4.409  1.3923 -0.0292  0.2912
 1069TIP3    H2 3172   7.116   1.570   4.272 -0.4216 -1.8386  1.4513
 1070TIP3   OH2 3173   3.015   3.017   2.212  0.4465  0.7707  0.2068
 1070TIP3    H1 3174   2.926   2.994   2.187  0.4572  1.8532 -0.9719
 1070TIP3    H2 3175   3.009   3.047   2.303 -0.4430  1.1132  0.0381
 1071TIP3   OH2 3176   3.973   6.368   4.556  0.3202  0.8361  0.0475
 1071TIP3    H1 3177   3.907   6.433   4.534 -2.8817 -2.3868 -0.7768
 1071TIP3    H2 3178   4.002   6.334   4.471  0.4094 -0.1650  0.4662
 1072TIP3   OH2 3179   4.652   6.365   3.586  0.2025  0.3416 -0.7101
 1072TIP3    H1 3180   4.694   6.395   3.506 -0.7971 -1.3326 -1.9329
 1072TIP3    H2 3181   4.724   6.336   3.642  0.8318 -0.5093 -1.9175
 1073TIP3   OH2 3182   3.214   6.678   5.481  0.1383 -0.2855  0.2382
 1073TIP3    H1 3183   3.299   6.635   5.472  0.2837  0.0163  0.1390
 1073TIP3    H2 3184   3.235   6.771   5.486 -0.2883 -0.0872 -1.3254
 1074TIP3   OH2 3185   5.885   6.743   3.252 -0.0967 -0.5201 -0.3698
 1074TIP3    H1 3186   5.829   6.811   3.213 -1.0885  0.0707  1.8890
 1074TIP3    H2 3187   5.847   6.661   3.223 -1.7235 -0.1160  0.4579
 1075TIP3   OH2 3188   5.031   0.184   1.387  0.1762 -0.3979  0.0469
 1075TIP3    H1 3189   4.945   0.141   1.379 -1.1687  1.9433  1.0239
 1075TIP3    H2 3190   5.073   0.139   1.460 -1.1002 -0.2398  0.9162
 1076TIP3   OH2 3191   5.159   4.566   5.569 -0.8945 -0.0510  0.5297
 1076TIP3    H1 3192   5.215   4.629   5.614 -0.9370  0.6909 -0.4291
 1076TIP3    H2 3193   5.074   4.610   5.563 -0.9203 -0.1928 -0.1624
 1077TIP3   OH2 3194   0.381   0.867   4.648 -0.2769  0.1174  0.5147
 1077TIP3    H1 3195   0.375   0.772   4.653 -0.8744  0.2239  2.9618
 1077TIP3    H2 3196   0.356   0.898   4.735  2.0363  2.4062  0.5066
 1078TIP3   OH2 3197   3.705   1.160   4.563  0.1265 -0.4546  0.3590
 1078TIP3    H1 3198   3.611   1.164   4.547  0.4284 -2.1390 -2.5837
 1078TIP3    H2 3199   3.733   1.251   4.567 -1.3220  0.1094 -1.1592
 1079TIP3   OH2 3200   1.126   5.002   1.106 -0.1947 -0.1629  0.1939
 1079TIP3    H1 3201   1.122   4.925   1.050  1.8650 -0.4842  0.4085
 1079TIP3    H2 3202   1.182   4.976   1.180 -0.8713  1.0006  1.1571
 1080TIP3   OH2 3203   6.121   1.292   1.724 -0.3025 -0.0868 -0.0613
 1080TIP3    H1 3204   6.095   1.288   1.632  1.0680  0.4565 -0.4996
 1080TIP3    H2 3205   6.062   1.232   1.768 -0.1665 -1.3401 -1.4984
 1081TIP3   OH2 3206   3.368   2.546   1.426 -0.1865 -0.4759  0.1284
 1081TIP3    H1 3207   3.433   2.616   1.434 -0.6551 -0.0813  0.6289
 1081TIP3    H2 3208   3.286   2.592   1.407 -0.5592 -0.8568  0.7488
 1082TIP3   OH2 3209   7.078   1.054   3.296 -0.2134  0.3313  0.0298
 1082TIP3    H1 3210   6.991   1.015   3.289 -0.1733  0.2232  0.1100
 1082TIP3    H2 3211   7.127   0.991   3.349  0.4339 -0.4987 -1.4904
 1083TIP3   OH2 3212   2.714   4.040   3.154 -0.7020 -0.2349 -0.0035
 1083TIP3    H1 3213   2.668   3.956   3.161  1.4573 -1.4067  1.2866
 1083TIP3    H2 3214   2.691   4.087   3.234 -0.2913 -0.5053  0.2801
 1084TIP3   OH2 3215   0.063   3.112   4.758 -0.2097  0.3197  0.1640
 1084TIP3    H1 3216   0.132   3.177   4.769  0.0476  0.0968 -0.1098
 1084TIP3    H2 3217  -0.011   3.161   4.724  0.6267  0.1537 -2.1036
 1085TIP3   OH2 3218   0.871   1.565   1.372  0.4636  0.1820 -0.3213
 1085TIP3    H1 3219   0.861   1.470   1.382 -0.7616  0.3354 -0.0014
 1085TIP3    H2 3220   0.833   1.584   1.286 -1.3877  0.6624  0.5577
 1086TIP3   OH2 3221   2.746   4.571   2.643 -0.0330 -0.5438  0.7964
 1086TIP3    H1 3222   2.840   4.557   2.633 -0.1234 -0.9687  0.5337
 1086TIP3    H2 3223   2.712   4.574   2.554 -0.2454 -0.2153  0.8864
 1087TIP3   OH2 3224   6.612   2.306   4.307 -0.4650 -0.7073 -0.1941
 1087TIP3    H1 3225   6.635   2.392   4.272  2.3021 -0.9509  0.7234
 1087TIP3    H2 3226   6.577   2.324   4.394  0.2165 -0.4765  0.0418
 1088TIP3   OH2 3227   5.472   2.340   3.084  0.0231 -0.3907 -0.2415
 1088TIP3    H1 3228   5.464   2.345   2.989  1.2031  1.8780 -0.2876
 1088TIP3    H2 3229   5.566   2.347   3.101 -0.2906  1.0409  1.1354
 1089TIP3   OH2 3230   4.722   5.302   3.094  0.4412 -0.1877 -0.0229
 1089TIP3    H1 3231   4.700   5.394   3.084 -0.1191 -0.4434 -1.3002
 1089TIP3    H2 3232   4.672   5.274   3.171 -0.6009  0.2106 -0.5434
 1090TIP3   OH2 3233   3.576   2.277   3.659  0.2603  0.3058 -0.8237
 1090TIP3    H1 3234   3.574   2.203   3.597 -3.0411  1.3121 -2.1500
 1090TIP3    H2 3235   3.607   2.351   3.607 -0.4713  0.7003 -0.7185
 1091TIP3   OH2 3236   3.240   6.064   3.388 -0.8395 -0.3474  0.2642
 1091TIP3    H1 3237   3.272   6.038   3.475 -1.1829  1.0686  0.8450
 1091TIP3    H2 3238   3.145   6.060   3.395 -0.9015  0.9675  0.3618
 1092TIP3   OH2 3239   0.611   4.171   3.739  0.6513  0.0215  0.5574
 1092TIP3    H1 3240   0.634   4.229   3.667 -0.7885  1.0219  0.8624
 1092TIP3    H2 3241   0.696   4.144   3.776  1.4088 -0.3582 -1.3395
 1093TIP3   OH2 3242   2.643   0.890   1.528 -0.7848 -0.0414  0.4894
 1093TIP3    H1 3243   2.705   0.894   1.600 -1.6106 -1.4983  1.3086
 1093TIP3    H2 3244   2.697   0.871   1.451 -0.1447 -0.7280  1.0968
 1094TIP3   OH2 3245   5.193   0.489   3.359  0.3987 -0.6118  0.0328
 1094TIP3    H1 3246   5.225   0.449   3.439  0.3587  2.9568  2.0307
 1094TIP3    H2 3247   5.270   0.529   3.319  0.0174 -0.2816 -0.3858
 1095TIP3   OH2 3248   1.346   2.371   3.745 -0.1608 -0.4625 -0.2306
 1095TIP3    H1 3249   1.402   2.420   3.804 -0.6478  1.0115 -0.9526
 1095TIP3    H2 3250   1.270   2.348   3.799  0.1725 -0.6387  0.1732
 1096TIP3   OH2 3251   5.182   6.420   0.130 -0.1322  0.4028  0.2554
 1096TIP3    H1 3252   5.198   6.389   0.041 -0.1795  1.0175  0.0299
 1096TIP3    H2 3253   5.127   6.352   0.169 -1.5617  0.9620 -0.7397
 1097TIP3   OH2 3254   5.975   0.901   2.835  1.0645 -0.0215  0.6768
 1097TIP3    H1 3255   5.929   0.842   2.776  2.1249  1.0693 -1.3556
 1097TIP3    H2 3256   5.949   0.872   2.923 -0.8002 -1.5359 -0.2884
 1098TIP3   OH2 3257   0.333   4.051   3.351 -0.5705 -0.7199  0.3113
 1098TIP3    H1 3258   0.360   4.110   3.421 -1.0108 -0.7424  0.5027
 1098TIP3    H2 3259   0.275   4.104   3.296  0.7821 -0.3047 -0.7792
 1099TIP3   OH2 3260   2.469   0.381   2.735  0.5437  0.3831 -0.0660
 1099TIP3    H1 3261   2.387   0.429   2.748  1.1352  1.3410  0.2782
 1099TIP3    H2 3262   2.472   0.320   2.809 -0.6975 -0.9456 -1.0495
 1100TIP3   OH2 3263   3.970   0.559   2.092  0.6638 -0.5445 -0.0356
 1100TIP3    H1 3264   3.952   0.517   2.008  0.9999  0.1698 -0.4765
 1100TIP3    H2 3265   4.063   0.582   2.088  0.0565  2.1942 -0.7477
 1101TIP3   OH2 3266   5.212   4.155   2.670 -0.3963  0.0103 -0.2140
 1101TIP3    H1 3267   5.204   4.060   2.670 -0.2489 -0.0075  0.7057
 1101TIP3    H2 3268   5.233   4.177   2.579  0.3766 -0.9002 -0.2680
 1102TIP3   OH2 3269   5.671   0.243   2.834  0.4551  0.1076 -0.1111
 1102TIP3    H1 3270   5.698   0.162   2.876  0.6172  0.0841 -0.2577
 1102TIP3    H2 3271   5.578   0.230   2.813  0.3971  0.0870  0.1587
 1103TIP3   OH2 3272   6.263   0.045   2.960 -0.2905 -0.1888 -0.0703
 1103TIP3    H1 3273   6.210   0.059   2.881 -0.0346 -0.7435 -0.3459
 1103TIP3    H2 3274   6.353   0.038   2.928 -0.3099 -1.5950  0.1278
 1104TIP3   OH2 3275   6.864   3.777   3.585  0.1550 -0.1731  0.1508
 1104TIP3    H1 3276   6.820   3.795   3.669  1.6894 -0.5671  1.0764
 1104TIP3    H2 3277   6.887   3.863   3.551  0.8605 -0.0561  0.8911
 1105TIP3   OH2 3278   5.323   6.043   4.536  0.5207 -0.4907  0.2423
 1105TIP3    H1 3279   5.308   6.022   4.628  1.3062  0.0783  0.5199
 1105TIP3    H2 3280   5.382   6.119   4.538 -2.4052  2.0211 -0.6778
 1106TIP3   OH2 3281   2.751   1.836   2.555  0.1462 -0.2956 -0.0742
 1106TIP3    H1 3282   2.788   1.911   2.508 -0.6087  1.8556  2.4879
 1106TIP3    H2 3283   2.702   1.788   2.488  0.1449  1.8588 -1.7553
 1107TIP3   OH2 3284   1.820   6.681   0.057 -0.7924 -0.2507  0.1637
 1107TIP3    H1 3285   1.818   6.588   0.037 -1.5063 -0.6656  1.9400
 1107TIP3    H2 3286   1.758   6.721  -0.005 -0.8144 -1.0167 -0.3136
 1108TIP3   OH2 3287   5.088   6.814   3.697  0.5565 -0.0254  0.5372
 1108TIP3    H1 3288   5.151   6.751   3.662  1.0647 -0.2322  1.7702
 1108TIP3    H2 3289   5.004   6.789   3.657  1.7081  2.6679 -4.3006
 1109TIP3   OH2 3290   1.431   1.853   4.540  0.0633  0.3941  0.1163
 1109TIP3    H1 3291   1.424   1.948   4.549 -0.7010  0.3248  0.2732
 1109TIP3    H2 3292   1.476   1.840   4.456 -0.6111  0.8813 -0.3283
 1110TIP3   OH2 3293   0.438   0.774   3.931 -0.1047 -0.3897  0.5096
 1110TIP3    H1 3294   0.482   0.858   3.919 -1.7407  0.4096 -0.2376
 1110TIP3    H2 3295   0.425   0.741   3.842 -0.8326 -0.6805  0.7168
 1111TIP3   OH2 3296   6.412   2.019   5.654 -0.0384  0.3054 -0.1015
 1111TIP3    H1 3297   6.373   1.955   5.713  1.8766 -1.1240 -0.3134
 1111TIP3    H2 3298   6.413   1.976   5.568 -0.4955  1.4003 -0.6843
 1112TIP3   OH2 3299   3.808   5.212   2.313  0.3844  0.2940  0.1108
 1112TIP3    H1 3300   3.812   5.192   2.407 -0.5265  0.1593  0.1310
 1112TIP3    H2 3301   3.727   5.170   2.284  0.7885  0.1282 -0.7868
 1113TIP3   OH2 3302   1.618   3.144   4.882  0.3616 -0.0923  0.4822
 1113TIP3    H1 3303   1.681   3.208   4.916  0.6753 -0.7929  1.2418
 1113TIP3    H2 3304   1.670   3.086   4.827  0.6623 -1.4651  2.1569
 1114TIP3   OH2 3305   6.541   3.942   3.997 -0.3030  0.3644 -0.3133
 1114TIP3    H1 3306   6.467   4.001   3.985 -0.3293  0.7623  1.5195
 1114TIP3    H2 3307   6.505   3.865   4.040 -0.0788 -0.5589 -1.7365
 1115TIP3   OH2 3308   7.119   3.934   0.492  0.6027 -0.8037 -0.4068
 1115TIP3    H1 3309   7.130   3.992   0.567 -0.7682  0.0099 -0.8064
 1115TIP3    H2 3310   7.066   3.984   0.430  2.8698 -0.8552 -2.5807
 1116TIP3   OH2 3311   0.769   4.784   3.801  0.1273  0.0479 -0.3382
 1116TIP3    H1 3312   0.689   4.784   3.853 -0.7516  2.4576 -1.4992
 1116TIP3    H2 3313   0.839   4.768   3.864 -1.0191  1.0782  1.2853
 1117TIP3   OH2 3314   4.852   4.250   0.128  0.2100 -0.1184  0.3432
 1117TIP3    H1 3315   4.927   4.309   0.122 -0.1399  0.2748 -0.2888
 1117TIP3    H2 3316   4.872   4.179   0.067 -0.0296  0.1143 -0.0168
 1118TIP3   OH2 3317   1.455   3.100   4.404 -0.1211 -0.4631 -0.1435
 1118TIP3    H1 3318   1.441   3.023   4.459 -0.5796 -0.4864 -0.2892
 1118TIP3    H2 3319   1.481   3.169   4.465  0.5254 -0.7903 -0.0399
 1119TIP3   OH2 3320   1.027   3.163   0.032 -0.1410 -0.1175  0.0537
 1119TIP3    H1 3321   0.995   3.152   0.122  1.1432  0.3308  0.5956
 1119TIP3    H2 3322   1.055   3.076   0.005 -0.0149 -0.1584  0.3087
 1120TIP3   OH2 3323   1.266   3.495   1.677  0.2195  0.3037  0.1517
 1120TIP3    H1 3324   1.281   3.540   1.594 -0.5256 -2.7691 -1.8452
 1120TIP3    H2 3325   1.341   3.436   1.685 -1.2219 -1.6701 -0.0838
 1121TIP3   OH2 3326   2.262   2.261   2.745  0.1719 -0.3010 -0.0441
 1121TIP3    H1 3327   2.218   2.288   2.664  1.8358  1.2671 -0.4910
 1121TIP3    H2 3328   2.197   2.208   2.791 -2.6269  2.6937 -0.1438
 1122TIP3   OH2 3329   4.169   4.325   3.239 -0.5549 -0.5673 -0.0609
 1122TIP3    H1 3330   4.089   4.343   3.190  0.1243  2.1411 -0.3190
 1122TIP3    H2 3331   4.224   4.276   3.177 -0.7819  0.4018 -1.0774
 1123TIP3   OH2 3332   5.762   0.829   4.103  0.3646  0.0243 -0.9695
 1123TIP3    H1 3333   5.691   0.839   4.040  0.6705  1.1934 -1.1558
 1123TIP3    H2 3334   5.718   0.820   4.188 -0.0046  1.1690 -1.0299
 1124TIP3   OH2 3335   3.100   1.276   4.657 -0.3410 -0.2898  0.5708
 1124TIP3    H1 3336   3.030   1.341   4.653 -1.0482 -1.0920 -1.3799
 1124TIP3    H2 3337   3.067   1.202   4.605  1.1353 -1.5110  1.2993
 1125TIP3   OH2 3338   3.088   3.580   4.031 -0.6460 -0.1967  0.6827
 1125TIP3    H1 3339   3.057   3.642   4.097 -1.5021 -0.3625  0.4388
 1125TIP3    H2 3340   3.159   3.627   3.986 -0.8306  0.3454  0.9527
 1126TIP3   OH2 3341   1.127   0.811   4.724 -0.7759 -0.3758 -0.0505
 1126TIP3    H1 3342   1.035   0.803   4.698 -1.3279  2.7802  0.5651
 1126TIP3    H2 3343   1.173   0.836   4.644 -1.0553  1.1526  0.2316
 1127TIP3   OH2 3344   3.472   5.171   2.440  0.4808 -0.5533 -0.0537
 1127TIP3    H1 3345   3.526   5.198   2.515  0.3738 -0.4440 -0.0153
 1127TIP3    H2 3346   3.382   5.175   2.473  0.4376 -0.5554 -0.1737
 1128TIP3   OH2 3347   2.382   5.276   0.286 -0.6494 -0.4144 -0.0987
 1128TIP3    H1 3348   2.440   5.350   0.302  2.7032 -1.5963 -4.7609
 1128TIP3    H2 3349   2.429   5.201   0.321 -0.8642 -1.0233 -1.0789
 1129TIP3   OH2 3350   5.222   0.216   0.995 -0.5268 -0.3306 -0.2348
 1129TIP3    H1 3351   5.132   0.215   0.963  0.1531 -0.3013 -2.2879
 1129TIP3    H2 3352   5.274   0.245   0.920  1.3142 -1.3816  0.5560
 1130TIP3   OH2 3353   3.189   1.772   1.106 -0.2234 -0.5925 -0.3565
 1130TIP3    H1 3354   3.149   1.690   1.079 -0.0749 -0.8401  0.1722
 1130TIP3    H2 3355   3.116   1.824   1.139 -0.0295 -1.3671  1.4161
 1131TIP3   OH2 3356   1.964   0.775   5.284  0.6361 -0.2230 -0.0761
 1131TIP3    H1 3357   2.004   0.800   5.367 -0.1209 -2.5363  1.0513
 1131TIP3    H2 3358   1.870   0.785   5.299  0.4898 -0.7536 -0.6197
 1132TIP3   OH2 3359   1.770   6.098   0.664 -0.6441  0.0040 -0.6275
 1132TIP3    H1 3360   1.817   6.020   0.695 -1.1988 -0.0227  0.1944
 1132TIP3    H2 3361   1.782   6.162   0.734 -0.3445  0.6078 -1.2173
 1133TIP3   OH2 3362   2.947   3.641   1.932  0.1540 -0.0649 -0.2028
 1133TIP3    H1 3363   2.965   3.554   1.895  0.9146 -0.0713  0.1558
 1133TIP3    H2 3364   3.033   3.680   1.944 -0.0354 -0.0764  1.5867
 1134TIP3   OH2 3365   4.500   2.424   4.078 -0.6443 -0.1293  0.1203
 1134TIP3    H1 3366   4.441   2.356   4.045 -0.0771 -1.3224  1.4703
 1134TIP3    H2 3367   4.553   2.380   4.144  0.3418  1.4313  0.4210
 1135TIP3   OH2 3368   0.272   0.330   5.210  0.2988  0.2837  0.2162
 1135TIP3    H1 3369   0.261   0.276   5.131 -1.2259 -0.0416  0.6229
 1135TIP3    H2 3370   0.328   0.402   5.182 -2.2240  1.5825 -1.8998
 1136TIP3   OH2 3371   0.947   0.727   2.990  0.1040 -0.0717 -0.5174
 1136TIP3    H1 3372   0.981   0.747   2.903  0.5989  2.0038  0.1059
 1136TIP3    H2 3373   0.859   0.766   2.991  0.5074  0.8502  0.2421
 1137TIP3   OH2 3374   2.580   6.044   5.607  0.0910 -0.2136 -0.2598
 1137TIP3    H1 3375   2.570   5.949   5.611 -1.0179 -0.1086 -0.0884
 1137TIP3    H2 3376   2.655   6.063   5.662 -0.6597 -0.8669  1.0504
 1138TIP3   OH2 3377   4.614   4.757   1.584 -0.5823  0.1145  0.1162
 1138TIP3    H1 3378   4.693   4.810   1.577 -1.0891  1.1803  1.8776
 1138TIP3    H2 3379   4.545   4.811   1.546 -0.8215  0.0820  0.4929
 1139TIP3   OH2 3380   6.158   1.315   2.003 -1.0611 -0.1416 -1.1025
 1139TIP3    H1 3381   6.064   1.295   2.001 -0.9810 -0.4546 -1.8570
 1139TIP3    H2 3382   6.188   1.301   1.913 -0.3641  0.3178 -0.9507
 1140TIP3   OH2 3383   0.645   5.445   1.515  0.3738  0.0950  0.6111
 1140TIP3    H1 3384   0.709   5.426   1.447  0.0440 -0.5095  0.4571
 1140TIP3    H2 3385   0.649   5.370   1.574  0.0353  0.2004  0.7735
 1141TIP3   OH2 3386   4.686   0.297   2.319 -0.2050 -0.2329  0.5250
 1141TIP3    H1 3387   4.764   0.251   2.350 -0.8423 -0.4207  1.9349
 1141TIP3    H2 3388   4.652   0.342   2.396 -1.1625  0.3221 -0.1924
 1142TIP3   OH2 3389   1.538   2.052   2.468  0.4630  0.7874 -0.1131
 1142TIP3    H1 3390   1.567   2.086   2.553  0.3435  0.5751  0.0116
 1142TIP3    H2 3391   1.445   2.031   2.481  0.6008  0.1663 -0.1179
 1143TIP3   OH2 3392   2.544   5.549   4.269 -0.0356  0.8105 -0.3030
 1143TIP3    H1 3393   2.497   5.503   4.338 -4.2778  1.6466 -2.3108
 1143TIP3    H2 3394   2.599   5.481   4.229  0.3758 -0.3381  2.0103
 1144TIP3   OH2 3395   3.375   4.923   0.738  0.2531 -0.9932 -0.6700
 1144TIP3    H1 3396   3.454   4.974   0.720 -0.6865  0.0789 -1.9738
 1144TIP3    H2 3397   3.346   4.954   0.824  1.0411 -1.1345 -0.3449
 1145TIP3   OH2 3398   6.475   0.192   5.151 -0.0419  0.9736  0.2624
 1145TIP3    H1 3399   6.445   0.141   5.076  3.5056  0.2269 -0.8329
 1145TIP3    H2 3400   6.452   0.139   5.227  0.8532 -0.8033 -0.6604
 1146TIP3   OH2 3401   3.689   3.208   0.412  0.0587  0.6271  0.6730
 1146TIP3    H1 3402   3.727   3.188   0.326 -0.9918 -0.7553  0.4962
 1146TIP3    H2 3403   3.759   3.188   0.474 -0.1653 -1.5331  0.3244
 1147TIP3   OH2 3404   0.205   1.345   1.548 -0.5564  0.5138  0.1962
 1147TIP3    H1 3405   0.277   1.340   1.486 -0.5409  0.4235  0.2215
 1147TIP3    H2 3406   0.150   1.417   1.516 -0.2481  0.8421  0.3998
 1148TIP3   OH2 3407   6.223   5.697   0.339 -0.0361 -0.1723  0.1004
 1148TIP3    H1 3408   6.222   5.761   0.410  0.6110  0.4019 -0.3912
 1148TIP3    H2 3409   6.313   5.701   0.305 -0.6435  0.4168 -1.5062
 1149TIP3   OH2 3410   5.496   6.202   3.607 -0.5753  0.7806 -0.2288
 1149TIP3    H1 3411   5.551   6.129   3.577 -1.0772 -1.0937  2.9415
 1149TIP3    H2 3412   5.455   6.235   3.527  0.5238 -1.6909 -1.9574
 1150TIP3   OH2 3413   3.924   2.096   5.616  0.0435 -0.1791 -0.1838
 1150TIP3    H1 3414   3.851   2.042   5.648 -1.1406  1.2727 -0.3407
 1150TIP3    H2 3415   3.991   2.032   5.590 -0.4198 -1.5053  1.6658
 1151TIP3   OH2 3416   3.023   6.761   0.918 -0.6956 -0.3752 -0.2822
 1151TIP3    H1 3417   2.974   6.843   0.922 -0.0201  0.0052  0.7244
 1151TIP3    H2 3418   3.048   6.753   0.826 -1.7222 -0.0375 -0.6062
 1152TIP3   OH2 3419   2.011   2.111   4.435  0.3671  0.0435  0.1948
 1152TIP3    H1 3420   2.058   2.170   4.493 -0.4226  0.3861  0.5093
 1152TIP3    H2 3421   2.054   2.026   4.445  0.4315  0.1733  1.0508
 1153TIP3   OH2 3422   1.654   1.057   3.304  0.2709 -0.1246  0.3524
 1153TIP3    H1 3423   1.565   1.025   3.315  0.4607 -1.7583 -2.0264
 1153TIP3    H2 3424   1.658   1.084   3.212  2.2581 -0.2065  0.3764
 1154TIP3   OH2 3425   2.718   2.767   0.239 -0.5316 -0.9900 -0.3932
 1154TIP3    H1 3426   2.814   2.765   0.240 -0.5322 -0.9918 -0.2155
 1154TIP3    H2 3427   2.695   2.793   0.150 -0.3529 -0.3349 -0.2559
 1155TIP3   OH2 3428   5.133   6.206   3.848  0.4621 -0.0467 -0.0701
 1155TIP3    H1 3429   5.111   6.236   3.760 -0.0010 -1.0707 -0.3197
 1155TIP3    H2 3430   5.100   6.116   3.852  2.0834 -0.6678  0.5222
 1156TIP3   OH2 3431   2.538   0.614   5.888 -0.1208 -0.4225 -0.4376
 1156TIP3    H1 3432   2.624   0.585   5.919  0.2682 -0.0261 -1.1367
 1156TIP3    H2 3433   2.552   0.636   5.796 -0.6469  0.9451 -0.2105
 1157TIP3   OH2 3434   6.677   0.935   4.409  0.2558  0.1169  0.0394
 1157TIP3    H1 3435   6.749   0.976   4.362 -0.4336 -1.0503 -2.1509
 1157TIP3    H2 3436   6.656   0.997   4.480  1.3136  1.9782 -1.2024
 1158TIP3   OH2 3437   3.957   0.494   4.976  0.2139  0.3440  0.2810
 1158TIP3    H1 3438   3.918   0.459   5.055 -0.2067 -0.5501 -0.3050
 1158TIP3    H2 3439   3.909   0.453   4.905  1.5833 -0.0444 -0.4648
 1159TIP3   OH2 3440   3.970   5.068   1.936 -0.1623  0.2097 -0.4879
 1159TIP3    H1 3441   3.901   5.133   1.946 -0.2524  0.3498 -1.8826
 1159TIP3    H2 3442   4.025   5.080   2.014 -2.0949 -0.4223  1.0458
 1160TIP3   OH2 3443   1.733   3.261   1.224  0.3129  0.8555  0.3256
 1160TIP3    H1 3444   1.752   3.322   1.153 -0.6741 -0.5917 -1.2563
 1160TIP3    H2 3445   1.811   3.264   1.280  1.3810  1.5934 -1.1400
 1161TIP3   OH2 3446   6.017   4.571   1.205  0.0477  0.0013 -0.2993
 1161TIP3    H1 3447   6.043   4.516   1.130 -0.7529  0.5823 -1.0248
 1161TIP3    H2 3448   5.939   4.617   1.174 -0.6442 -0.1932  1.1181
 1162TIP3   OH2 3449   2.332   5.338   3.860  0.0919  0.2864  0.1293
 1162TIP3    H1 3450   2.377   5.264   3.819  0.3417  0.4215  0.1576
 1162TIP3    H2 3451   2.338   5.409   3.795  1.0958  0.7158  0.6699
 1163TIP3   OH2 3452   6.983   4.092   0.794 -0.9035 -0.7051 -0.4957
 1163TIP3    H1 3453   6.909   4.033   0.809 -1.4991  0.0684 -0.3364
 1163TIP3    H2 3454   6.993   4.139   0.876  0.9657 -2.0697  0.1415
 1164TIP3   OH2 3455   1.369   4.782   4.770  0.0525  0.4893 -0.2062
 1164TIP3    H1 3456   1.455   4.820   4.791  0.6774 -0.8908 -0.1196
 1164TIP3    H2 3457   1.314   4.857   4.750  1.6080  1.3687 -1.4715
 1165TIP3   OH2 3458   5.373   6.726   0.994 -0.3608  0.1198 -0.4296
 1165TIP3    H1 3459   5.440   6.658   0.985  0.8929  1.2250  0.1693
 1165TIP3    H2 3460   5.361   6.735   1.088 -1.2636  0.0427 -0.5299
 1166TIP3   OH2 3461   6.507   2.275   0.825  1.1269  0.3889 -0.1751
 1166TIP3    H1 3462   6.424   2.228   0.818  0.3797  1.7025 -0.5162
 1166TIP3    H2 3463   6.484   2.358   0.868  2.1645  0.9974 -0.7577
 1167TIP3   OH2 3464   5.526   1.122   0.815 -0.5197 -0.3969  0.6289
 1167TIP3    H1 3465   5.551   1.122   0.907  2.2227 -0.2998 -0.0264
 1167TIP3    H2 3466   5.492   1.211   0.800  2.3876  0.8506  0.8142
 1168TIP3   OH2 3467   0.557   1.503   1.748 -0.1356 -0.1379 -0.4457
 1168TIP3    H1 3468   0.634   1.453   1.775 -0.6194 -0.9701 -0.5939
 1168TIP3    H2 3469   0.554   1.495   1.653 -0.9868 -1.0100 -0.3695
 1169TIP3   OH2 3470   3.528   2.762   4.407 -0.1116  0.3422  0.5139
 1169TIP3    H1 3471   3.620   2.768   4.382 -0.0356 -0.2429  0.6315
 1169TIP3    H2 3472   3.488   2.842   4.372 -0.2369 -0.8848 -2.4224
 1170TIP3   OH2 3473   0.532   6.042   5.830  0.4116  0.2213 -0.5786
 1170TIP3    H1 3474   0.499   6.013   5.745  1.2788 -1.0193 -0.5048
 1170TIP3    H2 3475   0.498   5.978   5.892 -0.9136  1.5702  0.1793
 1171TIP3   OH2 3476   2.479   1.422   3.550 -0.2229 -0.2886  0.4174
 1171TIP3    H1 3477   2.450   1.467   3.471  1.0008  0.1839  0.2071
 1171TIP3    H2 3478   2.453   1.331   3.538  1.5163 -0.6121 -1.3803
 1172TIP3   OH2 3479   4.478   4.303   1.271  0.2484 -0.3417  0.0346
 1172TIP3    H1 3480   4.510   4.218   1.239  0.8151 -0.2598  0.3748
 1172TIP3    H2 3481   4.558   4.352   1.293 -0.0317  0.5591 -0.8609
 1173TIP3   OH2 3482   4.600   0.713   1.768  0.1330  0.2629  0.3245
 1173TIP3    H1 3483   4.579   0.636   1.716 -1.2067  1.0883 -0.4077
 1173TIP3    H2 3484   4.612   0.784   1.704  1.9870  0.5604  0.9364
 1174TIP3   OH2 3485   2.245   0.761   3.987 -0.2537  0.0171 -0.0117
 1174TIP3    H1 3486   2.183   0.786   4.055  0.2695  0.0248  0.4701
 1174TIP3    H2 3487   2.197   0.700   3.931 -0.2113 -1.2226  1.2569
 1175TIP3   OH2 3488   0.161   4.246   2.738 -0.4011 -0.3078 -0.0693
 1175TIP3    H1 3489   0.130   4.310   2.673 -0.0078 -1.2910 -1.2731
 1175TIP3    H2 3490   0.088   4.187   2.750 -0.8391  0.4615  1.2081
 1176TIP3   OH2 3491   5.748   2.245   5.654 -0.2708 -0.3970 -1.1930
 1176TIP3    H1 3492   5.715   2.316   5.599 -2.1507 -0.3236 -0.0321
 1176TIP3    H2 3493   5.731   2.165   5.603 -1.2540 -0.2697 -1.0705
 1177TIP3   OH2 3494   0.157   2.433   2.452  0.4308  0.6499  0.4139
 1177TIP3    H1 3495   0.215   2.507   2.436  1.2147 -0.1684 -0.6411
 1177TIP3    H2 3496   0.071   2.473   2.464  1.2120  1.9012  2.2833
 1178TIP3   OH2 3497   5.546   0.662   4.945  0.0136 -0.0809  0.5029
 1178TIP3    H1 3498   5.565   0.657   4.851 -1.5028  1.0064  0.0999
 1178TIP3    H2 3499   5.578   0.748   4.971 -0.5020  0.0344  0.7533
 1179TIP3   OH2 3500   1.960   6.697   0.847  0.0369 -0.5717  0.1746
 1179TIP3    H1 3501   2.008   6.745   0.779 -1.0446 -1.3752 -1.1839
 1179TIP3    H2 3502   1.951   6.608   0.813 -2.3312 -0.4840  0.4069
 1180TIP3   OH2 3503   5.125   2.219   3.953 -0.5368  0.8077  0.1490
 1180TIP3    H1 3504   5.098   2.310   3.944  0.3765  1.0828  0.1555
 1180TIP3    H2 3505   5.095   2.194   4.041 -0.6008  1.1640  0.2295
 1181TIP3   OH2 3506   5.940   5.143   3.703 -0.3041  0.1226 -0.4185
 1181TIP3    H1 3507   5.935   5.155   3.608 -1.1208  0.4525 -0.3371
 1181TIP3    H2 3508   5.872   5.079   3.723 -0.0610 -0.0278 -0.0697
 1182TIP3   OH2 3509   4.158   0.787   5.429 -0.3108 -0.0732  0.4509
 1182TIP3    H1 3510   4.193   0.723   5.491 -1.7363 -3.5344 -1.9840
 1182TIP3    H2 3511   4.176   0.750   5.343 -2.8015  1.9267 -1.1036
 1183TIP3   OH2 3512   5.165   5.111   1.639  0.6775 -0.2089 -0.4605
 1183TIP3    H1 3513   5.239   5.162   1.672 -0.3472 -0.6553  2.8245
 1183TIP3    H2 3514   5.094   5.127   1.701 -1.1853 -1.8866 -2.0061
 1184TIP3   OH2 3515   0.316   5.464   2.868 -0.6129  0.0164 -0.7517
 1184TIP3    H1 3516   0.233   5.490   2.908  0.3151  1.4971  0.3233
 1184TIP3    H2 3517   0.292   5.401   2.801 -2.5233 -0.2383  0.1111
 1185TIP3   OH2 3518   0.280   5.232   1.998 -0.3288  0.3872 -0.1021
 1185TIP3    H1 3519   0.248   5.146   1.972 -1.4027  0.4436  0.9195
 1185TIP3    H2 3520   0.313   5.220   2.087  0.6772  0.7729 -0.4090
 1186TIP3   OH2 3521   1.174   4.721   1.441 -0.4680  0.3364  0.1507
 1186TIP3    H1 3522   1.220   4.782   1.384  0.5100 -1.6716 -1.3310
 1186TIP3    H2 3523   1.090   4.707   1.397  0.8167 -2.2873 -1.7532
 1187TIP3   OH2 3524   1.445   4.627   0.878 -1.0165 -0.6882 -0.2166
 1187TIP3    H1 3525   1.462   4.623   0.972 -0.7086  0.4912 -0.1990
 1187TIP3    H2 3526   1.497   4.702   0.847  0.0237 -1.9217 -1.5919
 1188TIP3   OH2 3527   2.215   1.946   4.388  0.2453  0.1908  0.0111
 1188TIP3    H1 3528   2.253   1.890   4.320 -1.3088 -0.3470 -0.4426
 1188TIP3    H2 3529   2.188   2.025   4.341 -0.7724 -0.1541  0.0081
 1189TIP3   OH2 3530   4.009   5.748   0.809 -0.7230  0.3602  0.2425
 1189TIP3    H1 3531   3.935   5.691   0.787 -0.0178 -0.3614 -0.3255
 1189TIP3    H2 3532   3.995   5.770   0.901 -2.1450  1.0265 -0.1113
 1190TIP3   OH2 3533   6.079   3.888   1.297  0.3819  0.4973  0.1809
 1190TIP3    H1 3534   6.173   3.896   1.277  1.1035 -1.3622  2.3947
 1190TIP3    H2 3535   6.061   3.795   1.292 -1.1325  0.7322  0.7696
 1191TIP3   OH2 3536   1.391   6.644   4.528  0.2196  0.4062 -0.0588
 1191TIP3    H1 3537   1.448   6.705   4.574  0.0715  0.4202  0.1085
 1191TIP3    H2 3538   1.322   6.699   4.490 -1.1927  0.1560  1.9562
 1192TIP3   OH2 3539   2.747   5.477   1.063  0.2651 -0.4451  0.2325
 1192TIP3    H1 3540   2.809   5.538   1.024  2.1650 -2.6382 -0.3297
 1192TIP3    H2 3541   2.781   5.462   1.151 -2.4171  2.2403  1.9512
 1193TIP3   OH2 3542   6.543   2.435   4.547 -0.2961  0.3288  0.1366
 1193TIP3    H1 3543   6.566   2.406   4.635 -0.8542 -0.1405  0.1334
 1193TIP3    H2 3544   6.498   2.519   4.560 -1.4607 -0.3186  0.4075
 1194TIP3   OH2 3545   5.926   5.239   4.062  0.5502  0.4971 -0.4095
 1194TIP3    H1 3546   5.959   5.150   4.044 -1.6393 -0.2816 -0.8748
 1194TIP3    H2 3547   5.860   5.226   4.130  0.4567  1.8438 -0.2314
 1195TIP3   OH2 3548   5.335   6.581   2.078  0.7153 -0.1298  0.0352
 1195TIP3    H1 3549   5.387   6.519   2.129 -0.0053 -0.7562  0.0372
 1195TIP3    H2 3550   5.394   6.654   2.060  1.6225 -0.8776 -0.0824
 1196TIP3   OH2 3551   2.351   0.727   2.682 -0.4209 -0.2412  0.3235
 1196TIP3    H1 3552   2.326   0.664   2.750  0.7149 -1.7533 -0.6164
 1196TIP3    H2 3553   2.384   0.803   2.731  1.1950 -1.6278  1.4906
 1197TIP3   OH2 3554   0.312   2.060   3.375 -0.1192 -0.7396  0.3101
 1197TIP3    H1 3555   0.400   2.035   3.344 -0.4925 -0.8579 -0.7153
 1197TIP3    H2 3556   0.254   1.995   3.334 -0.9687  0.9280 -1.2735
 1198TIP3   OH2 3557   1.174   5.801   2.356  0.5813 -0.0648  0.2699
 1198TIP3    H1 3558   1.256   5.851   2.351  0.8124 -0.3378  1.1522
 1198TIP3    H2 3559   1.194   5.729   2.416  0.1774 -1.0810 -0.7901
 1199TIP3   OH2 3560   6.802   2.449   3.020 -0.3846  0.3293  0.5527
 1199TIP3    H1 3561   6.775   2.539   3.005 -2.1604 -0.2720 -0.0317
 1199TIP3    H2 3562   6.887   2.442   2.976  0.7482  2.1963  2.2345
 1200TIP3   OH2 3563   3.303   1.908   2.561 -0.9052  0.7053 -0.5010
 1200TIP3    H1 3564   3.379   1.956   2.592  0.5554 -1.5790 -0.2586
 1200TIP3    H2 3565   3.315   1.903   2.466  0.0380 -0.8091 -0.3319
 1201TIP3   OH2 3566   1.754   3.469   3.850  0.0759  0.3334 -0.1540
 1201TIP3    H1 3567   1.801   3.520   3.784 -0.4474  1.3478  0.2315
 1201TIP3    H2 3568   1.740   3.531   3.922  2.7752 -1.3497  2.0196
 1202TIP3   OH2 3569   2.920   3.416   1.701  0.1237 -0.4902  0.1555
 1202TIP3    H1 3570   2.827   3.402   1.686  0.0476 -2.5595  2.0712
 1202TIP3    H2 3571   2.962   3.336   1.671  1.2338  0.1216 -0.0063
 1203TIP3   OH2 3572   5.319   6.262   1.302  0.1218  0.0220 -0.2261
 1203TIP3    H1 3573   5.238   6.241   1.255 -1.5094  0.7163  2.0572
 1203TIP3    H2 3574   5.326   6.193   1.368  0.9856  0.3858  0.0687
 1204TIP3   OH2 3575   2.326   0.706   3.539 -0.4177 -0.0943 -0.3862
 1204TIP3    H1 3576   2.417   0.704   3.509  0.0211  1.5924  0.7066
 1204TIP3    H2 3577   2.276   0.673   3.464  0.9605  0.3812 -1.5710
 1205TIP3   OH2 3578   1.576   0.392   2.134  0.5916  0.2350 -0.6092
 1205TIP3    H1 3579   1.501   0.444   2.106  0.1671  0.6278  1.1618
 1205TIP3    H2 3580   1.605   0.347   2.054 -3.2068 -2.1328 -0.9151
 1206TIP3   OH2 3581   5.821   5.531   3.471  0.2148  0.0501 -0.4480
 1206TIP3    H1 3582   5.730   5.544   3.442 -0.7651 -0.8979  1.9837
 1206TIP3    H2 3583   5.825   5.440   3.498  2.1434 -0.1229 -1.1417
 1207TIP3   OH2 3584   5.614   4.971   4.326 -0.5485  0.0839 -0.0072
 1207TIP3    H1 3585   5.684   4.932   4.379 -0.2965  0.5149 -0.0136
 1207TIP3    H2 3586   5.534   4.951   4.374 -0.4490 -0.6303 -0.1254
 1208TIP3   OH2 3587   3.835   0.071   5.199  0.9009  0.4681  0.0534
 1208TIP3    H1 3588   3.891   0.043   5.126 -0.6510 -0.9542 -0.6761
 1208TIP3    H2 3589   3.851   0.006   5.267  2.0235  1.5472  0.8405
 1209TIP3   OH2 3590   6.507   0.456   2.373  0.3907 -0.4381  0.3451
 1209TIP3    H1 3591   6.549   0.476   2.456  1.5336  0.3729 -0.4018
 1209TIP3    H2 3592   6.439   0.393   2.395  0.5997 -0.1469  1.9033
 1210TIP3   OH2 3593   6.718   6.362   2.900 -0.0850 -0.0182 -0.3628
 1210TIP3    H1 3594   6.797   6.413   2.918 -0.3444  0.1773  0.2250
 1210TIP3    H2 3595   6.709   6.366   2.804 -0.0730  0.9998 -0.3385
 1211TIP3   OH2 3596   3.586   3.447   2.447  0.2960  0.0945  0.0119
 1211TIP3    H1 3597   3.577   3.540   2.466  0.2752  0.0689  0.1263
 1211TIP3    H2 3598   3.549   3.437   2.360  1.3340  0.3943 -0.4826
 1212TIP3   OH2 3599   4.532   6.440   4.643  0.1387  0.2941  0.1248
 1212TIP3    H1 3600   4.611   6.417   4.692  0.2690 -0.3513 -0.3796
 1212TIP3    H2 3601   4.504   6.358   4.602 -1.3352  0.3027  1.0434
 1213TIP3   OH2 3602   0.075   3.676   0.030 -0.5821  0.7525 -0.5822
 1213TIP3    H1 3603   0.100   3.584   0.022  0.7805  1.2056 -2.1581
 1213TIP3    H2 3604  -0.020   3.676   0.024 -0.8249 -0.7160  1.7348
 1214TIP3   OH2 3605   3.533   2.134   0.919 -0.8338 -0.0460  0.2689
 1214TIP3    H1 3606   3.481   2.121   0.839 -1.1230  0.8832  0.3001
 1214TIP3    H2 3607   3.472   2.171   0.982 -0.5600 -0.6078  0.8799
 1215TIP3   OH2 3608   6.793   0.620   3.149 -0.0727 -0.1424  0.1639
 1215TIP3    H1 3609   6.854   0.560   3.107  0.4563  0.1011  0.5712
 1215TIP3    H2 3610   6.721   0.629   3.086 -0.5635 -1.8330  0.4413
 1216TIP3   OH2 3611   1.729   2.274   3.092  0.8145 -0.0364  0.1876
 1216TIP3    H1 3612   1.759   2.318   3.013 -0.2109 -1.3863 -1.0193
 1216TIP3    H2 3613   1.652   2.324   3.121  0.6945 -0.0144 -0.1659
 1217TIP3   OH2 3614   5.784   0.555   1.067 -0.1610  0.2048  0.1892
 1217TIP3    H1 3615   5.704   0.526   1.110 -1.0253  0.7078 -0.9966
 1217TIP3    H2 3616   5.782   0.650   1.075 -0.7321  0.3752 -1.5257
 1218TIP3   OH2 3617   0.514   5.941   1.808  0.0508 -0.3330 -0.2000
 1218TIP3    H1 3618   0.577   5.908   1.743  1.9413  2.9483 -0.2732
 1218TIP3    H2 3619   0.466   6.010   1.762 -2.3728 -1.4592  0.4594
 1219TIP3   OH2 3620   1.374   2.263   4.368  0.0495 -0.2009  0.1850
 1219TIP3    H1 3621   1.433   2.330   4.401  0.0105 -0.1246  0.0989
 1219TIP3    H2 3622   1.419   2.180   4.387  0.5358 -0.1122 -0.5732
 1220TIP3   OH2 3623   1.450   3.574   4.877  0.5187 -0.1191 -0.6024
 1220TIP3    H1 3624   1.362   3.607   4.895  0.6685  0.3053 -0.6381
 1220TIP3    H2 3625   1.475   3.527   4.957  0.0108 -0.7888 -0.8305
 1221TIP3   OH2 3626   5.389   4.057   4.236  0.0158  0.1676 -0.5210
 1221TIP3    H1 3627   5.443   4.130   4.205  2.1056 -0.7802  0.7230
 1221TIP3    H2 3628   5.381   3.999   4.159  2.3993 -0.5771 -0.2690
 1222TIP3   OH2 3629   5.327   1.239   5.536  0.3703 -0.1792 -0.2934
 1222TIP3    H1 3630   5.268   1.314   5.531  0.2099 -0.3695 -1.5047
 1222TIP3    H2 3631   5.412   1.273   5.508  0.6820 -0.0888  0.7074
 1223TIP3   OH2 3632   1.199   1.326   4.064 -0.3316 -0.6313 -0.2003
 1223TIP3    H1 3633   1.124   1.273   4.093 -1.4449  0.9647  0.0001
 1223TIP3    H2 3634   1.232   1.367   4.145  0.8702 -1.4167 -0.2685
 1224TIP3   OH2 3635   5.003   6.549   3.943  0.3848 -0.2957  0.1334
 1224TIP3    H1 3636   4.951   6.577   4.018 -1.4314 -0.0243 -1.1714
 1224TIP3    H2 3637   5.087   6.593   3.955  0.1025 -0.1514  1.9085
 1225TIP3   OH2 3638   1.453   5.840   1.685  0.0157 -0.0039 -0.4076
 1225TIP3    H1 3639   1.469   5.933   1.666  0.0270  0.1215  0.1985
 1225TIP3    H2 3640   1.454   5.835   1.780 -0.5546 -0.5301 -0.4281
 1226TIP3   OH2 3641   7.080   2.580   4.162  0.3722  0.0339  0.4778
 1226TIP3    H1 3642   7.105   2.576   4.070  0.5399  3.1076  0.2954
 1226TIP3    H2 3643   7.129   2.508   4.204 -0.8968 -2.4469 -1.9761
 1227TIP3   OH2 3644   6.610   5.220   4.847  0.4785 -0.1146  0.2863
 1227TIP3    H1 3645   6.602   5.141   4.794 -2.2806 -0.8047  1.5397
 1227TIP3    H2 3646   6.533   5.273   4.823  2.0694  2.0836 -0.2746
 1228TIP3   OH2 3647   0.320   3.802   0.169 -0.4838 -0.0674 -0.1197
 1228TIP3    H1 3648   0.227   3.801   0.147 -0.2766 -1.0340 -1.0330
 1228TIP3    H2 3649   0.362   3.754   0.097  0.6824  0.1036  0.4283
 1229TIP3   OH2 3650   1.684   1.380   4.633 -0.2591 -0.4157  0.7072
 1229TIP3    H1 3651   1.627   1.366   4.708  1.4157 -1.0214  1.9298
 1229TIP3    H2 3652   1.766   1.414   4.671 -1.1155  4.8350 -1.2853
 1230TIP3   OH2 3653   4.999   1.285   0.705  0.2142 -0.4811 -0.2561
 1230TIP3    H1 3654   4.972   1.309   0.616  1.9118  0.9790 -0.4334
 1230TIP3    H2 3655   4.935   1.328   0.762  0.1026  0.0037 -0.7387
 1231TIP3   OH2 3656   1.053   3.478   2.963  0.4406  0.7400  0.2456
 1231TIP3    H1 3657   1.139   3.517   2.953  1.0984 -0.5419  0.6959
 1231TIP3    H2 3658   1.016   3.478   2.875  0.7843  1.5192  0.0918
 1232TIP3   OH2 3659   6.090   4.128   0.090 -0.0489  0.1019  0.0958
 1232TIP3    H1 3660   6.077   4.222   0.102 -0.1206  0.3222 -1.5075
 1232TIP3    H2 3661   6.167   4.108   0.144  1.1477  1.4852 -0.9918
 1233TIP3   OH2 3662   1.515   4.553   0.171 -0.1998 -0.1887 -0.4461
 1233TIP3    H1 3663   1.483   4.597   0.093 -1.0713 -0.3566 -0.1902
 1233TIP3    H2 3664   1.603   4.588   0.184 -0.8812  1.5349 -0.2203
 1234TIP3   OH2 3665   6.045   2.760   0.682  0.2125  0.1269 -0.0532
 1234TIP3    H1 3666   6.138   2.757   0.707  0.3639 -3.0394 -0.5568
 1234TIP3    H2 3667   6.046   2.769   0.587  0.1272 -1.2563 -0.2172
 1235TIP3   OH2 3668   5.790   4.947   4.704  0.3616  0.2052  0.4748
 1235TIP3    H1 3669   5.795   4.894   4.624 -0.5516  1.4782 -0.4590
 1235TIP3    H2 3670   5.784   5.037   4.673 -0.5070  0.6943  1.9699
 1236TIP3   OH2 3671   1.404   5.210   1.354  0.7367 -0.4734 -0.0609
 1236TIP3    H1 3672   1.356   5.224   1.273 -2.1545 -0.6295  1.4647
 1236TIP3    H2 3673   1.491   5.246   1.338 -0.7292  2.5754 -2.1536
 1237TIP3   OH2 3674   1.760   4.393   1.426  0.1737 -0.1521 -0.2519
 1237TIP3    H1 3675   1.777   4.446   1.348  0.3475 -1.0316 -0.8301
 1237TIP3    H2 3676   1.743   4.305   1.392  1.5218 -0.8457  0.7684
 1238TIP3   OH2 3677   5.976   1.290   1.493  0.0197  0.0246 -0.2995
 1238TIP3    H1 3678   5.906   1.347   1.462 -0.0912 -1.3589 -2.8968
 1238TIP3    H2 3679   5.936   1.204   1.499  1.0207 -0.4278  0.1834
 1239TIP3   OH2 3680   0.373   5.389   2.526  0.2060  0.0766  0.2656
 1239TIP3    H1 3681   0.282   5.407   2.549 -0.2055 -0.2180 -1.0656
 1239TIP3    H2 3682   0.386   5.296   2.545 -0.0805 -0.1238 -0.4899
 1240TIP3   OH2 3683   1.881   5.838   0.763 -0.8272  0.1213  0.1434
 1240TIP3    H1 3684   1.863   5.817   0.855 -0.2499  0.7516  0.4011
 1240TIP3    H2 3685   1.815   5.788   0.714 -1.2122 -0.1263  0.9035
 1241TIP3   OH2 3686   0.336   0.072   1.171  0.2933  0.2867 -0.2839
 1241TIP3    H1 3687   0.354  -0.001   1.112  2.2816 -0.4556  1.1152
 1241TIP3    H2 3688   0.386   0.145   1.135  1.0846 -0.0202  0.1777
 1242TIP3   OH2 3689   3.680   6.596   1.276  0.2626  0.4272 -0.0698
 1242TIP3    H1 3690   3.720   6.555   1.353  0.3957  0.6891  0.0019
 1242TIP3    H2 3691   3.647   6.523   1.224 -2.4925  0.2851  1.6572
 1243TIP3   OH2 3692   6.058   4.385   0.171  0.4445  0.3158  0.1936
 1243TIP3    H1 3693   6.050   4.471   0.130 -0.3569 -0.2840 -0.9507
 1243TIP3    H2 3694   5.970   4.366   0.202  0.6377 -0.0736  0.5049
 1244TIP3   OH2 3695   5.523   4.348   0.200 -0.2015  0.3443 -0.3129
 1244TIP3    H1 3696   5.474   4.430   0.204  0.6091  0.7955  1.9091
 1244TIP3    H2 3697   5.471   4.286   0.252 -0.3944 -0.3259 -1.2891
 1245TIP3   OH2 3698   5.576   4.670   0.498  0.3233 -0.0413 -0.8987
 1245TIP3    H1 3699   5.481   4.680   0.489  0.4987  1.2344 -1.4769
 1245TIP3    H2 3700   5.613   4.731   0.435  1.5472  0.7619  0.5256
 1246TIP3   OH2 3701   6.308   0.391   0.903 -0.0806 -0.3773  0.3107
 1246TIP3    H1 3702   6.392   0.357   0.872 -0.4057 -0.4720 -0.4602
 1246TIP3    H2 3703   6.288   0.338   0.980 -0.3556 -1.6328 -0.5971
 1247TIP3   OH2 3704   1.489   6.777   3.101 -0.1300  0.6921 -0.3605
 1247TIP3    H1 3705   1.394   6.778   3.087  0.1153  1.0128 -2.2943
 1247TIP3    H2 3706   1.500   6.789   3.195 -2.0366 -0.8030  0.1206
 1248TIP3   OH2 3707   2.668   6.262   1.821  0.2902 -0.1314  0.2270
 1248TIP3    H1 3708   2.702   6.283   1.907  0.7012 -0.0942  0.0570
 1248TIP3    H2 3709   2.735   6.206   1.781  1.0730  1.4913 -0.8453
 1249TIP3   OH2 3710   3.724   2.523   3.677  0.3542  0.0294 -0.4261
 1249TIP3    H1 3711   3.735   2.488   3.765  1.3126  2.2015  0.3828
 1249TIP3    H2 3712   3.810   2.558   3.654 -0.3368  1.1199 -1.4763
 1250TIP3   OH2 3713   4.155   5.737   2.418 -0.8287 -0.2002 -0.1032
 1250TIP3    H1 3714   4.236   5.760   2.373  0.1449 -1.5725  0.8471
 1250TIP3    H2 3715   4.114   5.672   2.362 -1.1454  0.2995 -0.4555
 1251TIP3   OH2 3716   7.053   2.916   2.034  0.2101  0.2258  0.2323
 1251TIP3    H1 3717   7.128   2.927   2.093  0.4927  1.4974 -0.3303
 1251TIP3    H2 3718   7.002   2.846   2.073 -0.3069  1.8653  2.7624
 1252TIP3   OH2 3719   4.411   3.187   1.796  0.1665 -0.0525  0.4053
 1252TIP3    H1 3720   4.500   3.212   1.771  0.2914 -0.0391  0.8564
 1252TIP3    H2 3721   4.404   3.095   1.770  0.6873 -0.3700  1.3597
 1253TIP3   OH2 3722   2.292   1.425   2.323 -0.1960 -0.7000  0.6207
 1253TIP3    H1 3723   2.269   1.438   2.231  1.0935 -0.5696  0.3002
 1253TIP3    H2 3724   2.335   1.339   2.325  2.5843  0.5655  0.4981
 1254TIP3   OH2 3725   0.290   0.810   1.661 -0.3177 -0.3059  0.8522
 1254TIP3    H1 3726   0.370   0.799   1.609  0.6506  2.9247  1.4218
 1254TIP3    H2 3727   0.315   0.779   1.749 -0.2863 -0.9459  0.6239
 1255TIP3   OH2 3728   3.673   3.431   4.104  0.1490  0.3628 -0.1604
 1255TIP3    H1 3729   3.732   3.480   4.162  0.7526 -0.8377  0.2708
 1255TIP3    H2 3730   3.632   3.498   4.049  1.6917  1.2743 -0.2542
 1256TIP3   OH2 3731   0.579   1.684   2.915 -0.0743 -0.2225 -0.0646
 1256TIP3    H1 3732   0.611   1.681   2.825 -0.2319 -0.8519 -0.1038
 1256TIP3    H2 3733   0.543   1.772   2.925 -0.1533 -0.1868 -0.6493
 1257TIP3   OH2 3734   6.445   1.032   2.007 -0.1009 -0.2216  0.2017
 1257TIP3    H1 3735   6.491   1.000   2.085  0.4153  0.6901  0.2887
 1257TIP3    H2 3736   6.453   1.128   2.012  0.7916 -0.1651 -1.4554
 1258TIP3   OH2 3737   0.081   3.346   1.646 -0.1311  0.3497  0.0284
 1258TIP3    H1 3738   0.002   3.383   1.684  1.0292  1.3721  1.5872
 1258TIP3    H2 3739   0.066   3.251   1.648 -0.3372  0.3623  2.7391
 1259TIP3   OH2 3740   1.994   5.905   4.506 -0.3318 -0.0696  0.4346
 1259TIP3    H1 3741   1.912   5.926   4.551 -0.0976  1.3461  0.2467
 1259TIP3    H2 3742   2.042   5.987   4.504  0.9320 -0.7842  0.1718
 1260TIP3   OH2 3743   3.522   3.618   2.736 -0.8208 -0.0668  0.2543
 1260TIP3    H1 3744   3.473   3.632   2.656 -0.8858  0.0834  0.3194
 1260TIP3    H2 3745   3.586   3.689   2.738 -0.1671 -0.6304 -0.1579
 1261TIP3   OH2 3746   3.702   1.023   2.961 -0.3299 -0.2233 -0.0224
 1261TIP3    H1 3747   3.754   1.055   3.035  0.0515 -0.4921 -0.1725
 1261TIP3    H2 3748   3.629   0.975   3.002  0.1968 -0.8731  0.1797
 1262TIP3   OH2 3749   0.668   5.126   2.120 -0.0950 -0.3774 -0.3190
 1262TIP3    H1 3750   0.702   5.079   2.196  0.2233  1.9645  1.1035
 1262TIP3    H2 3751   0.578   5.147   2.142  0.9754  3.4607  1.2242
 1263TIP3   OH2 3752   3.103   0.737   5.752  0.1851  0.0625  0.0113
 1263TIP3    H1 3753   3.017   0.705   5.779 -1.7606 -0.2619 -5.3010
 1263TIP3    H2 3754   3.157   0.658   5.743 -0.2400 -0.1941 -0.3022
 1264TIP3   OH2 3755   6.620   4.844   1.521 -0.1938  0.2439  0.5561
 1264TIP3    H1 3756   6.605   4.750   1.529  0.2206  0.0514 -0.7675
 1264TIP3    H2 3757   6.535   4.880   1.494 -0.2445  0.1962  0.6531
 1265TIP3   OH2 3758   3.418   3.621   3.667 -0.6547  0.0981 -0.4140
 1265TIP3    H1 3759   3.507   3.588   3.659 -1.0884 -1.0845 -0.6691
 1265TIP3    H2 3760   3.426   3.703   3.715  0.5824  0.0964 -0.6005
 1266TIP3   OH2 3761   0.105   4.829   5.103  0.5505 -0.2783 -0.2935
 1266TIP3    H1 3762   0.087   4.918   5.135  0.2345 -0.8763  1.2556
 1266TIP3    H2 3763   0.194   4.833   5.069 -0.0221  1.0258 -1.7594
 1267TIP3   OH2 3764   5.018   2.889   1.353 -0.0372 -0.0106  0.2336
 1267TIP3    H1 3765   4.956   2.819   1.333  2.6820 -2.0394 -1.9949
 1267TIP3    H2 3766   4.984   2.965   1.306 -0.6543 -1.2084 -1.3538
 1268TIP3   OH2 3767   2.420   1.799   4.641  0.1354 -0.0840  0.2746
 1268TIP3    H1 3768   2.511   1.828   4.647 -0.6551  3.6653 -2.1807
 1268TIP3    H2 3769   2.412   1.760   4.554 -0.6542 -0.0346  0.3143
 1269TIP3   OH2 3770   2.311   0.043   1.815 -0.0985 -0.0827 -0.2136
 1269TIP3    H1 3771   2.250   0.024   1.886  1.2714 -1.1439  0.7490
 1269TIP3    H2 3772   2.294   0.134   1.792 -0.0846  0.5442  2.0278
 1270TIP3   OH2 3773   4.684   2.544   3.903  0.3281 -0.2098 -0.4243
 1270TIP3    H1 3774   4.597   2.504   3.910 -0.4255  1.4413 -0.0110
 1270TIP3    H2 3775   4.726   2.496   3.831 -0.9032 -1.0566 -0.6118
 1271TIP3   OH2 3776   3.907   4.169   3.563  0.2238  0.3280  0.0848
 1271TIP3    H1 3777   3.843   4.162   3.634  0.3351  2.6416  0.4960
 1271TIP3    H2 3778   3.854   4.168   3.483 -0.1341  0.2051  0.3190
 1272TIP3   OH2 3779   3.770   2.838   3.309 -0.1487 -0.3613 -0.5362
 1272TIP3    H1 3780   3.765   2.744   3.329 -0.5071  0.1655  2.2220
 1272TIP3    H2 3781   3.855   2.849   3.266  1.1911 -1.6188  1.5952
 1273TIP3   OH2 3782   0.695   4.105   1.254 -0.3360  0.4688 -0.2302
 1273TIP3    H1 3783   0.636   4.058   1.195 -0.6973  2.5420 -1.6394
 1273TIP3    H2 3784   0.758   4.038   1.283 -1.7076 -1.1801 -0.8931
 1274TIP3   OH2 3785   2.707   3.807   5.833  0.3646  0.1222 -0.6451
 1274TIP3    H1 3786   2.743   3.887   5.795  0.8511  1.0767  1.6629
 1274TIP3    H2 3787   2.770   3.782   5.900 -1.0135 -0.7959  0.3587
 1275TIP3   OH2 3788   0.942   4.177   3.437  0.3408  0.1265  0.2933
 1275TIP3    H1 3789   0.998   4.241   3.482 -1.3680  2.4489 -0.6434
 1275TIP3    H2 3790   0.999   4.141   3.369  0.6260  3.0882 -1.2354
 1276TIP3   OH2 3791   3.077   5.048   2.434 -0.6414  0.4869  0.1549
 1276TIP3    H1 3792   3.009   5.008   2.487  0.0088 -0.7050  0.1123
 1276TIP3    H2 3793   3.060   5.017   2.345  0.7374 -0.9485  0.3549
 1277TIP3   OH2 3794   0.656   2.914   5.825  0.7525  0.4303  0.0241
 1277TIP3    H1 3795   0.561   2.916   5.837  0.6713 -0.6573 -0.3371
 1277TIP3    H2 3796   0.690   2.891   5.911  0.5510 -1.1197 -0.2801
 1278TIP3   OH2 3797   1.640   1.928   3.234  0.2177  0.1977  0.0183
 1278TIP3    H1 3798   1.717   1.885   3.271  0.5293  1.5223  0.9725
 1278TIP3    H2 3799   1.638   2.014   3.276 -0.1627  1.2853 -2.1032
 1279TIP3   OH2 3800   2.090   3.262   5.157 -0.8629 -0.1937 -0.2475
 1279TIP3    H1 3801   2.097   3.308   5.241  0.3411 -0.1924 -0.3259
 1279TIP3    H2 3802   2.075   3.332   5.094 -0.6273 -0.0740 -0.1723
 1280TIP3   OH2 3803   1.695   0.957   1.949  0.5105 -0.3450  0.4741
 1280TIP3    H1 3804   1.674   0.878   1.899  1.6128 -0.6558  0.4905
 1280TIP3    H2 3805   1.788   0.971   1.934  0.7041 -0.0371  1.8531
 1281TIP3   OH2 3806   0.342   6.161   0.632 -0.6443 -0.4730  0.0793
 1281TIP3    H1 3807   0.291   6.205   0.564  0.7988  0.1318 -0.6488
 1281TIP3    H2 3808   0.406   6.226   0.660  0.5607 -1.6112  0.0463
 1282TIP3   OH2 3809   3.989   5.203   4.077 -0.2953 -0.6886  0.6399
 1282TIP3    H1 3810   4.039   5.285   4.084 -0.3285 -0.6603  0.5382
 1282TIP3    H2 3811   3.962   5.184   4.167 -1.1967 -0.0241  0.5257
 1283TIP3   OH2 3812   2.475   5.788   3.699 -0.7623 -0.0411  0.1890
 1283TIP3    H1 3813   2.480   5.702   3.742 -2.5452 -0.4206 -0.2915
 1283TIP3    H2 3814   2.415   5.839   3.754  0.3751  0.9779  0.5390
 1284TIP3   OH2 3815   0.261   1.508   4.276 -0.5985  0.2242 -0.1273
 1284TIP3    H1 3816   0.177   1.553   4.283 -0.4413  0.4899  0.1198
 1284TIP3    H2 3817   0.282   1.511   4.183 -1.1436 -0.3722 -0.2694
 1285TIP3   OH2 3818   5.984   6.508   2.815  0.3900  0.1315  0.0685
 1285TIP3    H1 3819   5.918   6.558   2.863  0.2562  0.1385 -0.1186
 1285TIP3    H2 3820   6.039   6.575   2.773 -0.8563  0.1566 -1.6409
 1286TIP3   OH2 3821   3.153   4.830   4.843  0.2301  0.0309  0.0617
 1286TIP3    H1 3822   3.205   4.755   4.814 -0.0920 -0.6284  1.0873
 1286TIP3    H2 3823   3.206   4.872   4.910 -0.2489 -0.2561  0.6416
 1287TIP3   OH2 3824   2.308   2.202   3.797  0.0352 -0.0726  0.1282
 1287TIP3    H1 3825   2.274   2.275   3.848 -1.9475  1.0277 -2.5526
 1287TIP3    H2 3826   2.302   2.127   3.856 -0.2923  1.4251  2.1126
 1288TIP3   OH2 3827   6.942   5.768   1.256 -0.3014 -0.0972  0.1257
 1288TIP3    H1 3828   6.863   5.746   1.305  0.2179 -0.3706  0.8511
 1288TIP3    H2 3829   6.996   5.817   1.318  2.2542 -4.0620  1.3561
 1289TIP3   OH2 3830   3.725   4.022   1.519 -0.0950  0.0510  0.6105
 1289TIP3    H1 3831   3.702   3.929   1.514  0.6866 -0.0798 -1.9853
 1289TIP3    H2 3832   3.768   4.041   1.435  0.4979  2.5742  1.3908
 1290TIP3   OH2 3833   2.975   6.614   5.565 -0.4931  0.1901 -0.6944
 1290TIP3    H1 3834   2.929   6.697   5.555  0.5429  1.2542  2.4956
 1290TIP3    H2 3835   3.058   6.626   5.518 -1.9336 -0.6266 -3.7333
 1291TIP3   OH2 3836   3.151   1.990   4.456  0.7608 -0.1969  0.5488
 1291TIP3    H1 3837   3.209   2.061   4.483 -1.5577  1.6811  0.8952
 1291TIP3    H2 3838   3.196   1.910   4.485  3.0763  1.1204  0.8706
 1292TIP3   OH2 3839   1.379   1.652   1.777 -0.3477  0.0958 -0.7669
 1292TIP3    H1 3840   1.441   1.641   1.705 -0.3334 -0.0996 -0.7249
 1292TIP3    H2 3841   1.415   1.599   1.848 -1.7580 -1.9204 -1.4792
 1293TIP3   OH2 3842   2.793   2.843   2.015  0.3190 -0.1876 -0.1151
 1293TIP3    H1 3843   2.772   2.793   2.094 -1.8515  1.1644  0.2736
 1293TIP3    H2 3844   2.806   2.777   1.947 -0.2464 -1.3328  0.8423
 1294TIP3   OH2 3845   4.394   1.746   2.005  0.6978 -0.2775  0.5079
 1294TIP3    H1 3846   4.455   1.801   1.956  2.3410  0.0194  2.7598
 1294TIP3    H2 3847   4.432   1.658   2.000  0.2802 -0.4538  0.3669
 1295TIP3   OH2 3848   4.152   3.270   1.708 -0.2116  0.0849  0.5101
 1295TIP3    H1 3849   4.095   3.292   1.781 -0.7771 -0.3627  0.2087
 1295TIP3    H2 3850   4.227   3.227   1.748 -0.2139  0.4203  0.8812
 1296TIP3   OH2 3851   5.322   5.874   3.221 -0.5469 -0.8569 -0.6864
 1296TIP3    H1 3852   5.376   5.860   3.143  0.5024  0.8898 -0.3394
 1296TIP3    H2 3853   5.365   5.824   3.290  1.3639  1.3406 -0.1625
 1297TIP3   OH2 3854   0.832   5.878   1.881  0.0180  0.6543 -0.0610
 1297TIP3    H1 3855   0.789   5.961   1.898  0.0215  0.2422  2.2137
 1297TIP3    H2 3856   0.764   5.812   1.899  0.7236  0.1017  0.6228
 1298TIP3   OH2 3857   5.986   3.730   4.439 -0.3056 -0.0094  0.4516
 1298TIP3    H1 3858   6.058   3.748   4.378 -0.1327 -0.7404  0.4400
 1298TIP3    H2 3859   5.983   3.808   4.495  0.6617 -0.0869  0.6242
 1299TIP3   OH2 3860   4.039   1.960   5.366  0.0196  0.1675  0.1807
 1299TIP3    H1 3861   3.990   1.892   5.321 -1.8718  0.3097  1.9077
 1299TIP3    H2 3862   4.108   1.912   5.412  0.5130 -0.2147 -0.9014
 1300TIP3   OH2 3863   7.078   2.714   3.657 -0.2031  0.0586  0.4105
 1300TIP3    H1 3864   7.071   2.728   3.563  2.8414  1.2260  0.2406
 1300TIP3    H2 3865   7.012   2.772   3.695 -1.9388 -0.9172 -0.9347
 1301TIP3   OH2 3866   1.731   0.856   1.327  0.4310 -0.0829 -0.6612
 1301TIP3    H1 3867   1.653   0.841   1.380  0.1196 -0.5012 -1.2346
 1301TIP3    H2 3868   1.792   0.901   1.386 -1.1092  2.4293 -0.8550
 1302TIP3   OH2 3869   6.954   3.953   0.251  0.0180 -0.3286 -0.2742
 1302TIP3    H1 3870   6.910   4.012   0.312  0.2792  0.7405 -1.0704
 1302TIP3    H2 3871   6.934   3.990   0.164 -2.0447 -2.9209 -1.0401
 1303TIP3   OH2 3872   6.244   4.640   4.055  0.1413  0.5289  0.3002
 1303TIP3    H1 3873   6.211   4.608   3.971 -0.6780 -0.4722  0.9945
 1303TIP3    H2 3874   6.225   4.734   4.053 -2.5678  0.0506  0.5562
 1304TIP3   OH2 3875   0.883   2.218   5.745 -0.3401  0.5644  0.3261
 1304TIP3    H1 3876   0.804   2.244   5.698  1.2945  2.3452 -1.6284
 1304TIP3    H2 3877   0.949   2.205   5.676  1.0247 -1.1821  1.8477
 1305TIP3   OH2 3878   3.608   4.903   5.846 -0.0093 -0.4680 -0.1504
 1305TIP3    H1 3879   3.671   4.881   5.914  0.0082 -2.8834 -0.8437
 1305TIP3    H2 3880   3.660   4.942   5.776  0.5863 -1.5214 -0.3118
 1306TIP3   OH2 3881   0.840   4.628   3.450  0.2556 -0.1755 -0.5327
 1306TIP3    H1 3882   0.908   4.641   3.385 -0.1517 -1.6125 -1.2934
 1306TIP3    H2 3883   0.758   4.632   3.401 -0.2041  1.0786  0.2926
 1307TIP3   OH2 3884   4.669   2.514   3.278  0.2518 -0.0164 -0.1529
 1307TIP3    H1 3885   4.594   2.535   3.223 -0.0210  1.3691  0.6807
 1307TIP3    H2 3886   4.724   2.593   3.275  1.4040 -0.8012 -0.3105
 1308TIP3   OH2 3887   1.892   0.105   5.007  0.2673  0.3468 -0.0884
 1308TIP3    H1 3888   1.947   0.113   4.930  1.2115  1.4665  0.6584
 1308TIP3    H2 3889   1.930   0.034   5.058 -0.6216 -0.6898 -0.8411
 1309TIP3   OH2 3890   3.249   5.894   5.049 -0.5834 -0.0759  0.0427
 1309TIP3    H1 3891   3.266   5.988   5.037  0.7440 -0.2236  0.5668
 1309TIP3    H2 3892   3.155   5.888   5.061 -0.5006  1.4458  1.9528
 1310TIP3   OH2 3893   6.254   1.083   3.418  0.2744  0.3551 -0.5719
 1310TIP3    H1 3894   6.280   0.997   3.450 -1.5890 -0.1286 -0.2749
 1310TIP3    H2 3895   6.323   1.142   3.448  1.5106 -1.0009 -0.6683
 1311TIP3   OH2 3896   6.953   0.392   2.361 -0.0878 -0.1911 -0.0772
 1311TIP3    H1 3897   6.866   0.390   2.401  0.1319 -0.6601  0.3788
 1311TIP3    H2 3898   6.943   0.452   2.287 -1.3250 -1.6940 -1.2164
 1312TIP3   OH2 3899   2.169   0.203   0.516 -0.2735  0.2037 -0.5958
 1312TIP3    H1 3900   2.096   0.141   0.524  0.6964 -0.8170  1.1183
 1312TIP3    H2 3901   2.168   0.250   0.599  1.4010 -0.3139 -0.2481
 1313TIP3   OH2 3902   2.070   5.030   2.331 -0.5860 -0.0791  0.6054
 1313TIP3    H1 3903   1.984   5.008   2.293 -0.5561  1.6472 -0.5523
 1313TIP3    H2 3904   2.124   4.954   2.311 -1.4444 -0.5556 -0.0241
 1314TIP3   OH2 3905   6.750   1.117   2.716 -0.1721 -0.2516 -0.2433
 1314TIP3    H1 3906   6.736   1.034   2.672  0.0632 -0.0269 -0.7571
 1314TIP3    H2 3907   6.733   1.099   2.808  1.3873 -1.2634 -0.1095
 1315TIP3   OH2 3908   2.836   6.355   1.229  0.3171  0.4644 -0.0415
 1315TIP3    H1 3909   2.888   6.423   1.186 -1.4056  1.2420 -1.0102
 1315TIP3    H2 3910   2.761   6.343   1.171  0.1895 -1.7446  0.5001
 1316TIP3   OH2 3911   3.171   4.843   1.476  0.0857  0.0127  0.1413
 1316TIP3    H1 3912   3.260   4.878   1.465  0.0168  0.2027  0.1749
 1316TIP3    H2 3913   3.146   4.870   1.564  0.1466 -0.3888  0.2824
 1317TIP3   OH2 3914   5.429   1.716   2.772 -1.3112 -0.0413 -0.3122
 1317TIP3    H1 3915   5.418   1.632   2.817  2.4149 -0.9275 -0.7648
 1317TIP3    H2 3916   5.397   1.781   2.834  0.7156 -1.4656  2.4391
 1318TIP3   OH2 3917   2.882   1.733   0.741  0.3523  0.1346 -0.2360
 1318TIP3    H1 3918   2.890   1.638   0.733 -0.2683  0.0137  0.3980
 1318TIP3    H2 3919   2.867   1.747   0.835  1.1431  0.9170 -0.2160
 1319TIP3   OH2 3920   4.133   1.151   1.261 -0.4555 -0.0149  0.1361
 1319TIP3    H1 3921   4.171   1.064   1.253  0.0122  0.1303  0.6804
 1319TIP3    H2 3922   4.059   1.140   1.321  0.2981  0.1571  1.1225
 1320TIP3   OH2 3923   5.422   4.543   1.366 -0.2589 -0.0559 -0.1807
 1320TIP3    H1 3924   5.374   4.615   1.326 -0.3828  1.4092  2.4045
 1320TIP3    H2 3925   5.514   4.563   1.349 -0.3229  0.3650 -0.0450
 1321TIP3   OH2 3926   3.438   6.227   3.647  0.0283  0.1471 -0.1977
 1321TIP3    H1 3927   3.392   6.233   3.730 -0.0730  1.5174 -0.3258
 1321TIP3    H2 3928   3.394   6.291   3.590 -0.9600 -1.8836 -1.8463
 1322TIP3   OH2 3929   6.950   4.684   5.415 -0.0520 -0.7368  0.2955
 1322TIP3    H1 3930   6.984   4.720   5.333 -1.2010 -1.5425 -0.5606
 1322TIP3    H2 3931   6.982   4.744   5.483  0.1005  0.4898 -0.8300
 1323TIP3   OH2 3932   6.989   2.073   1.077 -0.1693  0.5041  0.2878
 1323TIP3    H1 3933   7.084   2.088   1.071  0.0494 -1.0469 -0.3711
 1323TIP3    H2 3934   6.951   2.148   1.031  0.6433  1.9509  1.8241
 1324TIP3   OH2 3935   3.992   2.875   4.126 -0.4481 -0.4057  0.1947
 1324TIP3    H1 3936   3.984   2.880   4.221 -0.9966 -1.0016  0.1961
 1324TIP3    H2 3937   4.083   2.851   4.110 -0.3669 -0.3526  0.5718
 1325TIP3   OH2 3938   6.012   3.346   0.364  0.4294  0.1129  0.0399
 1325TIP3    H1 3939   6.013   3.250   0.369  0.6671  0.0754 -0.6264
 1325TIP3    H2 3940   5.936   3.366   0.308  0.8221  0.2824 -0.4334
 1326TIP3   OH2 3941   1.510   6.644   1.314 -0.0056 -0.4242 -0.1076
 1326TIP3    H1 3942   1.448   6.597   1.370  0.9524 -1.7391 -0.1079
 1326TIP3    H2 3943   1.595   6.625   1.352  0.6049 -0.7471 -1.6029
 1327TIP3   OH2 3944   4.339   0.847   4.702  0.5089 -0.6272 -0.1599
 1327TIP3    H1 3945   4.408   0.794   4.741  0.6913  0.3859  0.9627
 1327TIP3    H2 3946   4.336   0.820   4.611 -0.1655 -3.3573  0.5852
 1328TIP3   OH2 3947   5.050   4.029   5.092 -0.2907 -0.1685 -0.5714
 1328TIP3    H1 3948   4.981   3.992   5.148  0.1062  0.6950  0.5307
 1328TIP3    H2 3949   5.027   4.121   5.085  1.3300  0.3825  0.7496
 1329TIP3   OH2 3950   2.064   3.031   3.525 -0.0356 -0.1609  0.1114
 1329TIP3    H1 3951   2.076   2.951   3.575  2.5540  1.0555  1.6557
 1329TIP3    H2 3952   2.067   3.003   3.433 -0.6812 -1.9634  0.6113
 1330TIP3   OH2 3953   1.194   1.966   5.818 -0.0243 -0.1261  0.1653
 1330TIP3    H1 3954   1.283   1.938   5.842  0.3233 -0.1779 -1.1189
 1330TIP3    H2 3955   1.204   2.056   5.789 -0.5618  0.1839  0.9149
 1331TIP3   OH2 3956   4.619   2.792   4.582 -0.0744 -0.4091  0.3300
 1331TIP3    H1 3957   4.665   2.818   4.502 -1.7493 -0.6252 -0.7595
 1331TIP3    H2 3958   4.663   2.710   4.608 -0.4261 -1.1496 -1.2339
 1332TIP3   OH2 3959   1.479   0.919   5.713 -0.4090 -0.6135  0.1716
 1332TIP3    H1 3960   1.562   0.964   5.727  0.5401 -1.8010 -1.3201
 1332TIP3    H2 3961   1.423   0.986   5.673  0.7797 -0.5341 -1.4568
 1333TIP3   OH2 3962   0.064   0.003   5.670 -0.1266  0.1605 -0.1704
 1333TIP3    H1 3963   0.132   0.071   5.671  2.6242 -2.3794  2.1814
 1333TIP3    H2 3964   0.070  -0.036   5.583  2.6085 -0.9401  0.4055
 1334TIP3   OH2 3965   5.638   4.351   5.499 -0.1927 -0.7439 -0.3239
 1334TIP3    H1 3966   5.551   4.361   5.539  0.5669 -0.9533  1.5019
 1334TIP3    H2 3967   5.622   4.354   5.405 -2.2873 -1.6262 -0.0591
 1335TIP3   OH2 3968   1.893   4.896   2.752  0.5497 -0.0473  0.4102
 1335TIP3    H1 3969   1.843   4.869   2.829  0.2191 -0.0450  0.2010
 1335TIP3    H2 3970   1.939   4.817   2.724  1.1270  0.0910  0.9452
 1336TIP3   OH2 3971   5.921   4.866   3.326 -0.3765  0.0851 -0.9065
 1336TIP3    H1 3972   6.001   4.914   3.347 -0.7945  0.7993 -0.8979
 1336TIP3    H2 3973   5.951   4.788   3.280  0.5157 -1.1051  1.5280
 1337TIP3   OH2 3974   4.346   6.427   0.836 -0.2340 -0.2669  0.6175
 1337TIP3    H1 3975   4.415   6.364   0.857 -1.1415 -1.6356 -0.3841
 1337TIP3    H2 3976   4.285   6.379   0.780 -1.2750  1.3290  0.3130
 1338TIP3   OH2 3977   1.348   1.871   5.033 -0.0903  0.0496 -0.0632
 1338TIP3    H1 3978   1.361   1.795   5.089  0.9030 -0.7722 -1.3516
 1338TIP3    H2 3979   1.300   1.838   4.957 -1.5103  1.1676  0.2999
 1339TIP3   OH2 3980   5.626   1.856   0.803 -0.4328 -0.6581 -0.2709
 1339TIP3    H1 3981   5.649   1.942   0.838 -0.2628 -1.4724  1.7528
 1339TIP3    H2 3982   5.530   1.855   0.803 -0.4395 -0.3674 -0.6076
 1340TIP3   OH2 3983   0.893   1.243   2.156  0.7072 -0.0014 -0.4826
 1340TIP3    H1 3984   0.848   1.320   2.122  0.5196  0.3934  0.6047
 1340TIP3    H2 3985   0.824   1.193   2.200  1.1033  0.0106  0.1653
 1341TIP3   OH2 3986   2.149   0.656   3.745 -0.8362  0.4732 -0.4242
 1341TIP3    H1 3987   2.065   0.681   3.707 -1.2522 -0.5494 -0.2155
 1341TIP3    H2 3988   2.207   0.643   3.670 -1.6585 -1.5609 -0.7690
 1342TIP3   OH2 3989   4.200   6.422   5.299 -0.1658  0.3510  0.5231
 1342TIP3    H1 3990   4.281   6.441   5.251 -1.0427  1.1158 -0.7371
 1342TIP3    H2 3991   4.196   6.327   5.303  0.6559  0.3052  0.3415
 1343TIP3   OH2 3992   4.911   0.332   4.064 -0.2448 -0.1116  0.0398
 1343TIP3    H1 3993   4.949   0.252   4.029 -1.5285 -0.1805 -1.2659
 1343TIP3    H2 3994   4.861   0.303   4.140  0.3138 -0.3548  0.3225
 1344TIP3   OH2 3995   2.901   4.304   1.815  0.3818  0.0710 -0.2743
 1344TIP3    H1 3996   2.856   4.339   1.892  1.0743 -0.2930  0.3135
 1344TIP3    H2 3997   2.994   4.309   1.838  0.5239 -2.2307 -0.1121
 1345TIP3   OH2 3998   5.444   2.951   4.364 -0.1153  0.1614 -0.4616
 1345TIP3    H1 3999   5.538   2.938   4.378  0.0507  0.9226 -0.8322
 1345TIP3    H2 4000   5.412   2.864   4.338  0.5541 -0.0093 -0.7446
 1346TIP3   OH2 4001   4.044   4.399   0.401 -0.0286  0.0338 -0.2704
 1346TIP3    H1 4002   3.993   4.369   0.326  1.3903  0.2163 -1.3436
 1346TIP3    H2 4003   3.989   4.466   0.442 -1.2804 -0.8154 -0.4841
 1347TIP3   OH2 4004   6.619   3.009   3.836  0.1962  0.4772  0.3358
 1347TIP3    H1 4005   6.544   3.067   3.825  0.6089  1.2222  1.3216
 1347TIP3    H2 4006   6.695   3.064   3.817  0.6280  0.4446  1.8736
 1348TIP3   OH2 4007   0.707   5.064   4.055  0.2505 -0.1126 -0.5939
 1348TIP3    H1 4008   0.761   5.068   3.977  1.1338 -0.9338 -0.0402
 1348TIP3    H2 4009   0.726   5.146   4.102 -1.4373  1.1407 -1.9264
 1349TIP3   OH2 4010   4.150   1.406   2.151  0.3211  0.1496  0.5137
 1349TIP3    H1 4011   4.074   1.353   2.176  1.3004 -0.9868  1.2025
 1349TIP3    H2 4012   4.205   1.408   2.229  1.3055  0.4046 -0.1676
 1350TIP3   OH2 4013   2.564   0.447   1.296 -0.4654  0.3100 -0.1395
 1350TIP3    H1 4014   2.576   0.481   1.384 -0.5661  2.6190 -0.9497
 1350TIP3    H2 4015   2.538   0.355   1.309  0.9087  0.1550  2.1421
 1351TIP3   OH2 4016   4.787   2.319   2.802  0.0803 -0.0396  0.4524
 1351TIP3    H1 4017   4.785   2.409   2.834 -0.3550  0.0196  0.2703
 1351TIP3    H2 4018   4.759   2.266   2.877 -0.3988  0.0490  0.3425
 1352TIP3   OH2 4019   5.812   4.657   3.586 -0.4283 -0.0338 -0.1303
 1352TIP3    H1 4020   5.804   4.644   3.681  0.3840 -0.7024 -0.1485
 1352TIP3    H2 4021   5.729   4.697   3.561 -0.2393  1.1245  1.0242
 1353TIP3   OH2 4022   5.838   3.881   3.979  0.1498 -0.7816  0.1615
 1353TIP3    H1 4023   5.795   3.796   3.983  0.0153 -0.6793  1.1088
 1353TIP3    H2 4024   5.928   3.864   4.007  0.4862 -0.8308 -0.9094
 1354TIP3   OH2 4025   1.626   3.604   5.391  0.5051  0.4429  0.2612
 1354TIP3    H1 4026   1.667   3.687   5.415  2.7227  0.0819 -1.8792
 1354TIP3    H2 4027   1.679   3.571   5.319 -1.2635 -2.0901 -0.0154
 1355TIP3   OH2 4028   5.998   4.181   5.403  0.4843  0.5639 -0.0261
 1355TIP3    H1 4029   5.957   4.200   5.487  0.7506 -0.6311  0.3964
 1355TIP3    H2 4030   6.041   4.263   5.378 -2.2689  1.9359 -0.6111
 1356TIP3   OH2 4031   4.332   5.505   4.364  0.2996 -0.0191  0.3587
 1356TIP3    H1 4032   4.379   5.569   4.311  0.3427 -2.7824 -3.3218
 1356TIP3    H2 4033   4.241   5.534   4.362  0.7712  1.7461  1.8446
 1357TIP3   OH2 4034   4.773   4.214   0.973  0.5600 -0.1764 -0.4652
 1357TIP3    H1 4035   4.736   4.277   0.911 -0.0201 -0.4896 -0.4446
 1357TIP3    H2 4036   4.805   4.268   1.045 -0.7585  0.0555 -0.0181
 1358TIP3   OH2 4037   3.320   4.248   2.495 -0.2649  0.7497  0.0284
 1358TIP3    H1 4038   3.240   4.299   2.510 -0.5109  0.8185 -1.4346
 1358TIP3    H2 4039   3.370   4.299   2.431  0.0758 -0.2084 -0.4934
 1359TIP3   OH2 4040   0.369   0.666   1.925 -0.5519  0.0071  0.1201
 1359TIP3    H1 4041   0.330   0.705   2.004 -2.4950 -0.3068 -0.6240
 1359TIP3    H2 4042   0.337   0.575   1.926 -0.8830  0.0946 -1.1867
 1360TIP3   OH2 4043   0.461   5.613   1.639 -0.0595 -0.3286  0.4117
 1360TIP3    H1 4044   0.524   5.685   1.635  0.2460 -0.4490  2.1192
 1360TIP3    H2 4045   0.504   5.540   1.594 -0.2004  0.4099 -0.9722
 1361TIP3   OH2 4046   3.446   5.414   4.133 -0.0951  0.5813  0.2120
 1361TIP3    H1 4047   3.481   5.399   4.045  0.3771 -1.6526  0.7326
 1361TIP3    H2 4048   3.522   5.406   4.191 -0.8118 -0.6420  1.0278
 1362TIP3   OH2 4049   2.287   1.212   3.967 -0.2817  0.9197 -0.0375
 1362TIP3    H1 4050   2.213   1.160   3.999 -1.3122  1.2252 -1.7753
 1362TIP3    H2 4051   2.295   1.283   4.030  0.1093 -0.4276  1.4935
 1363TIP3   OH2 4052   5.462   0.382   1.088 -0.3200 -1.1213 -0.2881
 1363TIP3    H1 4053   5.440   0.375   1.181 -0.0214 -1.4306 -0.2346
 1363TIP3    H2 4054   5.384   0.352   1.042 -0.1016 -2.0269 -0.1059
 1364TIP3   OH2 4055   2.594   5.186   4.446  0.0142  0.2666  0.4068
 1364TIP3    H1 4056   2.636   5.228   4.370  2.5363 -2.2616  0.2070
 1364TIP3    H2 4057   2.505   5.165   4.416  0.0334  1.7982 -0.8408
 1365TIP3   OH2 4058   6.984   2.846   3.421 -0.1061 -0.2140  0.1121
 1365TIP3    H1 4059   6.943   2.819   3.339  0.3798  0.3179 -0.3103
 1365TIP3    H2 4060   6.961   2.939   3.429  0.7455  0.0065  0.0330
 1366TIP3   OH2 4061   5.972   3.766   2.998  0.3148  0.8402 -0.2467
 1366TIP3    H1 4062   5.910   3.816   2.944 -0.8337 -0.1262  0.1427
 1366TIP3    H2 4063   5.922   3.692   3.031  1.2830  0.8344  1.3202
 1367TIP3   OH2 4064   5.867   3.196   2.537  0.1150 -0.0884  0.9561
 1367TIP3    H1 4065   5.930   3.248   2.587 -0.7379  0.3995  1.5530
 1367TIP3    H2 4066   5.857   3.244   2.454  2.2698 -1.4189 -0.1556
 1368TIP3   OH2 4067   5.801   0.984   5.585  0.0987 -0.3162  0.1385
 1368TIP3    H1 4068   5.774   0.932   5.510 -0.4709  0.6914 -0.3743
 1368TIP3    H2 4069   5.719   1.020   5.620  0.5740  1.2231 -0.2686
 1369TIP3   OH2 4070   0.377   0.272   2.536  0.6282  0.0087 -0.8002
 1369TIP3    H1 4071   0.435   0.221   2.479  0.8777 -0.7073  0.0725
 1369TIP3    H2 4072   0.436   0.330   2.584  0.4131  0.6486 -1.2966
 1370TIP3   OH2 4073   5.227   0.831   4.490  0.1196  1.0056 -0.2771
 1370TIP3    H1 4074   5.261   0.852   4.403  0.5708 -1.7623 -0.8690
 1370TIP3    H2 4075   5.293   0.774   4.529 -0.9518  0.6569  1.1278
 1371TIP3   OH2 4076   2.360   1.962   3.075 -0.3814 -0.3326  0.3416
 1371TIP3    H1 4077   2.387   2.037   3.128 -0.5802 -0.2388  0.3134
 1371TIP3    H2 4078   2.264   1.970   3.071 -0.3945 -0.5345  0.2597
 1372TIP3   OH2 4079   3.748   3.770   1.776 -0.4728 -0.0905 -0.1358
 1372TIP3    H1 4080   3.839   3.799   1.769 -1.3212  2.9007 -0.2407
 1372TIP3    H2 4081   3.739   3.702   1.710  1.6899 -0.5171 -0.0530
 1373TIP3   OH2 4082   6.861   2.925   0.570  0.2986  0.0709  0.0245
 1373TIP3    H1 4083   6.872   2.919   0.665 -0.0172  0.7585  0.1161
 1373TIP3    H2 4084   6.922   2.995   0.544  0.2193  0.0396 -0.2453
 1374TIP3   OH2 4085   4.768   0.030   0.796 -0.1326 -0.2229  0.2217
 1374TIP3    H1 4086   4.724   0.052   0.714  0.2953  1.7636  0.4744
 1374TIP3    H2 4087   4.698  -0.005   0.852 -0.4691 -1.3860 -0.8724
 1375TIP3   OH2 4088   0.756   5.244   2.385  0.3052 -0.0833 -0.1076
 1375TIP3    H1 4089   0.691   5.296   2.433 -1.5578 -2.1203 -0.2967
 1375TIP3    H2 4090   0.835   5.298   2.388 -0.5712  1.2789  2.5655
 1376TIP3   OH2 4091   4.655   2.265   4.319 -0.0078  0.3472 -1.2202
 1376TIP3    H1 4092   4.634   2.291   4.409  0.3987  1.0977 -1.3337
 1376TIP3    H2 4093   4.649   2.170   4.320  1.2837  0.2457 -0.0507
 1377TIP3   OH2 4094   1.988   5.385   3.679 -0.1650 -0.1063  0.1225
 1377TIP3    H1 4095   2.082   5.404   3.683 -0.1395 -0.0328 -0.6515
 1377TIP3    H2 4096   1.965   5.398   3.587 -0.9581 -0.0222  0.3236
 1378TIP3   OH2 4097   1.483   5.985   5.762  0.0659 -0.7062  0.1040
 1378TIP3    H1 4098   1.472   6.080   5.766 -0.5089 -0.7899  0.6378
 1378TIP3    H2 4099   1.571   5.972   5.727 -0.1773  0.0143 -0.8005
 1379TIP3   OH2 4100   0.345   1.527   2.382 -0.2728 -0.5796  0.4301
 1379TIP3    H1 4101   0.264   1.475   2.387 -1.0140  0.4401 -0.4652
 1379TIP3    H2 4102   0.317   1.611   2.344  1.0005  0.2402  1.2335
 1380TIP3   OH2 4103   0.342   4.886   4.965 -0.6524  0.4880 -0.1617
 1380TIP3    H1 4104   0.320   4.979   4.961 -1.3352  0.3229 -0.3658
 1380TIP3    H2 4105   0.359   4.862   4.874 -0.4720  0.4078 -0.1081
 1381TIP3   OH2 4106   1.410   3.476   0.974 -0.1134  0.3995 -0.2129
 1381TIP3    H1 4107   1.383   3.393   1.014 -0.4691 -0.0316 -1.3083
 1381TIP3    H2 4108   1.419   3.536   1.047 -3.0693  0.3080  0.3621
 1382TIP3   OH2 4109   0.284   0.480   2.840  0.4248 -0.5563  0.5528
 1382TIP3    H1 4110   0.297   0.385   2.847  1.7869 -0.5029 -0.6483
 1382TIP3    H2 4111   0.288   0.497   2.746  1.6715  0.8680  0.8332
 1383TIP3   OH2 4112   2.918   4.306   5.278 -0.2775  0.0383 -0.0928
 1383TIP3    H1 4113   3.013   4.304   5.290 -0.0543  2.4919 -0.8586
 1383TIP3    H2 4114   2.885   4.350   5.357 -0.5290  1.0094 -0.7127
 1384TIP3   OH2 4115   1.393   2.632   1.699 -0.0845  0.2461  0.6832
 1384TIP3    H1 4116   1.355   2.590   1.621  2.1529  0.8172 -0.8174
 1384TIP3    H2 4117   1.456   2.695   1.663  0.9438  0.6055  2.9778
 1385TIP3   OH2 4118   3.899   2.949   0.502 -0.3169  0.3627  0.1728
 1385TIP3    H1 4119   3.911   2.949   0.407  0.4697  0.6227  0.2728
 1385TIP3    H2 4120   3.840   2.875   0.518  0.0016 -0.0371 -0.4585
 1386TIP3   OH2 4121   2.564   0.241   2.509 -0.1995 -0.4688  0.1677
 1386TIP3    H1 4122   2.479   0.266   2.473 -0.4078  0.7541  1.4247
 1386TIP3    H2 4123   2.576   0.298   2.585  2.4669  0.5122 -0.8800
 1387TIP3   OH2 4124   4.150   1.184   0.967  0.0794  0.2252  0.2038
 1387TIP3    H1 4125   4.126   1.204   1.057 -2.7296 -2.1292  0.1128
 1387TIP3    H2 4126   4.190   1.097   0.970  0.9915  0.5766 -0.7478
 1388TIP3   OH2 4127   2.141   5.559   4.215  0.1793  0.0545  0.2549
 1388TIP3    H1 4128   2.056   5.602   4.213  1.1081  1.9685 -0.6786
 1388TIP3    H2 4129   2.187   5.603   4.287  1.4457  1.3305 -1.2624
 1389TIP3   OH2 4130   6.944   6.502   2.734 -0.1082 -0.1869  0.5374
 1389TIP3    H1 4131   7.011   6.539   2.676 -1.1627 -2.2583 -2.2376
 1389TIP3    H2 4132   6.972   6.528   2.822  1.9665  2.6047 -0.7704
 1390TIP3   OH2 4133   5.308   2.044   2.158 -0.3525 -0.2320 -0.5267
 1390TIP3    H1 4134   5.264   2.010   2.236 -0.8813 -0.1253 -0.7722
 1390TIP3    H2 4135   5.361   2.116   2.190 -0.4301 -0.3015 -0.2380
 1391TIP3   OH2 4136   3.577   1.206   1.759  0.3345 -0.2773  0.0929
 1391TIP3    H1 4137   3.564   1.160   1.676  0.7150 -0.2925  0.0385
 1391TIP3    H2 4138   3.565   1.298   1.738 -0.3904 -0.3481  0.1928
 1392TIP3   OH2 4139   2.576   5.877   0.322  0.2915  0.3611  0.4018
 1392TIP3    H1 4140   2.576   5.865   0.417  0.5963  1.0195  0.4908
 1392TIP3    H2 4141   2.568   5.972   0.310 -0.6807  0.2176 -0.2455
 1393TIP3   OH2 4142   5.677   6.156   0.480  0.1696  0.1054  0.0291
 1393TIP3    H1 4143   5.759   6.144   0.432  1.2447  1.9737  1.2903
 1393TIP3    H2 4144   5.643   6.067   0.492  0.1327 -0.4937 -3.5743
 1394TIP3   OH2 4145   5.645   2.335   2.130 -0.1611 -0.7411  0.5113
 1394TIP3    H1 4146   5.645   2.327   2.034 -1.6386  1.4319  0.2593
 1394TIP3    H2 4147   5.556   2.311   2.156  0.0376 -0.6607  1.2784
 1395TIP3   OH2 4148   1.371   4.498   1.499 -0.5327  0.1059 -0.1659
 1395TIP3    H1 4149   1.295   4.551   1.477  0.4301  1.1258 -1.1882
 1395TIP3    H2 4150   1.388   4.446   1.421  1.1461  1.5750 -0.8655
 1396TIP3   OH2 4151   2.853   0.811   0.024  0.4428 -0.0207 -0.5244
 1396TIP3    H1 4152   2.859   0.750  -0.050 -0.1718 -0.1442 -0.4735
 1396TIP3    H2 4153   2.839   0.756   0.100  1.1591  0.1022 -0.2932
 1397TIP3   OH2 4154   3.275   4.683   2.061  0.1862 -0.2608  0.2166
 1397TIP3    H1 4155   3.204   4.680   1.997  0.8551 -0.0639 -0.5456
 1397TIP3    H2 4156   3.345   4.631   2.022  0.8254  0.3787  0.5000
 1398TIP3   OH2 4157   1.916   5.064   1.162 -0.5215  0.2314  0.2153
 1398TIP3    H1 4158   2.003   5.048   1.198 -0.2468  1.7270  0.2831
 1398TIP3    H2 4159   1.933   5.104   1.076 -1.1566 -0.6945 -0.3586
 1399TIP3   OH2 4160   0.388   0.067   2.283  0.2182  0.1113 -0.1168
 1399TIP3    H1 4161   0.405  -0.009   2.339 -1.1724  0.1533  0.3972
 1399TIP3    H2 4162   0.295   0.063   2.264  0.1950  1.4782 -0.3971
 1400TIP3   OH2 4163   6.064   1.692   5.190 -0.3525  0.5456 -0.2420
 1400TIP3    H1 4164   6.085   1.774   5.234 -1.8609  2.9400 -3.5669
 1400TIP3    H2 4165   5.972   1.676   5.213 -0.9450  1.4501 -1.8403
 1401TIP3   OH2 4166   6.803   2.053   2.180  0.2187 -0.8645  0.4216
 1401TIP3    H1 4167   6.759   2.059   2.095  0.1239  0.1691  0.5287
 1401TIP3    H2 4168   6.803   1.960   2.201 -0.9747 -0.9887 -0.0807
 1402TIP3   OH2 4169   0.067   2.992   0.465 -0.1622 -0.5865 -0.5341
 1402TIP3    H1 4170   0.095   3.002   0.556 -0.6511  0.9856 -0.5307
 1402TIP3    H2 4171  -0.002   2.925   0.469  0.4428 -1.1930  0.0986
 1403TIP3   OH2 4172   6.820   1.396   4.588 -1.0124 -0.3293  0.3814
 1403TIP3    H1 4173   6.842   1.306   4.612  0.6773  0.2099  1.0092
 1403TIP3    H2 4174   6.801   1.392   4.494 -1.0693 -1.3549  0.4241
 1404TIP3   OH2 4175   1.089   3.099   3.379  0.1731  0.7294  0.1466
 1404TIP3    H1 4176   1.125   3.164   3.319 -0.9073  1.6436  0.4462
 1404TIP3    H2 4177   1.042   3.038   3.323  0.7216  0.5107 -0.0856
 1405TIP3   OH2 4178   3.247   5.247   2.595  0.0345  1.0391 -0.0052
 1405TIP3    H1 4179   3.228   5.154   2.610  2.5229  0.6766  1.5394
 1405TIP3    H2 4180   3.184   5.293   2.650 -1.2717  0.2953 -0.8294
 1406TIP3   OH2 4181   6.931   5.883   0.516  0.2743  0.1293 -0.0626
 1406TIP3    H1 4182   6.996   5.860   0.582 -0.2458  3.0652  1.6317
 1406TIP3    H2 4183   6.881   5.803   0.503  1.8044 -1.1510  1.4191
 1407TIP3   OH2 4184   5.245   4.291   4.692 -0.1151  0.7382  0.3249
 1407TIP3    H1 4185   5.307   4.229   4.729  0.4275  0.7874 -0.4809
 1407TIP3    H2 4186   5.270   4.376   4.729 -0.7703  0.5212  1.3167
 1408TIP3   OH2 4187   2.596   6.611   4.766  0.9321 -0.6105 -0.4406
 1408TIP3    H1 4188   2.506   6.639   4.752  0.4376  0.1242  3.3518
 1408TIP3    H2 4189   2.648   6.670   4.711 -0.6661  1.7239  0.4153
 1409TIP3   OH2 4190   2.894   5.945   5.548  0.2998 -0.2651 -0.0272
 1409TIP3    H1 4191   2.908   5.882   5.619 -1.0183  0.3623  0.8293
 1409TIP3    H2 4192   2.844   5.896   5.483  0.1904 -0.4068  0.1613
 1410TIP3   OH2 4193   1.875   3.290   4.766  0.6141  0.7392  0.3897
 1410TIP3    H1 4194   1.872   3.362   4.703 -0.8265 -0.1448 -0.6278
 1410TIP3    H2 4195   1.848   3.330   4.849  1.3501  1.6762  0.1885
 1411TIP3   OH2 4196   4.734   5.796   2.216  0.1848  0.3805  0.2178
 1411TIP3    H1 4197   4.816   5.770   2.258  0.9728  2.1200 -0.1248
 1411TIP3    H2 4198   4.744   5.891   2.203 -1.6472  0.5206 -0.3605
 1412TIP3   OH2 4199   3.882   6.355   3.288 -0.1903 -0.0308  0.3783
 1412TIP3    H1 4200   3.927   6.439   3.297 -0.0421 -0.0175 -0.4224
 1412TIP3    H2 4201   3.847   6.337   3.376 -0.7716  1.1725  0.4137
 1413TIP3   OH2 4202   0.568   0.352   4.162  0.0221 -0.1884 -0.3221
 1413TIP3    H1 4203   0.662   0.339   4.178  0.3065 -0.2148 -1.8952
 1413TIP3    H2 4204   0.558   0.447   4.158 -0.2474 -0.1354  0.9383
 1414TIP3   OH2 4205   0.367   2.355   2.164  0.5210  0.2203  0.1001
 1414TIP3    H1 4206   0.278   2.326   2.142  0.5915 -0.3039  0.5000
 1414TIP3    H2 4207   0.422   2.320   2.094  0.1961  1.9964 -1.1081
 1415TIP3   OH2 4208   5.100   6.708   4.169  0.2724  0.1200  0.1375
 1415TIP3    H1 4209   5.148   6.754   4.100  1.9101  1.3007  1.9989
 1415TIP3    H2 4210   5.148   6.626   4.181  0.1563  0.0448  0.0988
 1416TIP3   OH2 4211   6.437   0.005   0.212  0.0265 -0.1049  0.2186
 1416TIP3    H1 4212   6.390  -0.003   0.294  0.0556 -0.3321  0.2148
 1416TIP3    H2 4213   6.530   0.010   0.238  0.3061 -2.9535  0.1104
 1417TIP3   OH2 4214   4.316   1.009   5.355  0.0901  0.2420  0.1945
 1417TIP3    H1 4215   4.264   0.943   5.399  0.4081  0.4217  0.8642
 1417TIP3    H2 4216   4.355   0.964   5.280  0.0207 -0.2349  0.4420
 1418TIP3   OH2 4217   5.355   0.526   0.394 -0.1870  0.6336 -0.6875
 1418TIP3    H1 4218   5.302   0.606   0.391  0.0027  0.8937  1.5565
 1418TIP3    H2 4219   5.414   0.535   0.319 -0.7604  2.1710 -1.0029
 1419TIP3   OH2 4220   0.109   0.483   3.421 -0.3612  0.0503  0.1602
 1419TIP3    H1 4221   0.080   0.516   3.336 -0.8725 -0.1847  0.2380
 1419TIP3    H2 4222   0.049   0.410   3.439  2.3279 -2.7868 -1.2939
 1420TIP3   OH2 4223   2.857   5.218   2.611  0.5766 -0.8571 -0.3422
 1420TIP3    H1 4224   2.870   5.308   2.583 -0.4367 -0.1227  1.3503
 1420TIP3    H2 4225   2.924   5.203   2.678  2.0853 -2.1067 -2.0454
 1421TIP3   OH2 4226   1.694   5.652   3.498  0.1607 -0.4990  0.2979
 1421TIP3    H1 4227   1.755   5.579   3.492 -0.0032 -0.6774  0.7400
 1421TIP3    H2 4228   1.743   5.720   3.544  0.2640 -0.3813  0.0166
 1422TIP3   OH2 4229   1.926   5.265   2.700  0.7266 -0.3989 -1.1247
 1422TIP3    H1 4230   2.007   5.214   2.690  0.0119 -1.5476 -1.3351
 1422TIP3    H2 4231   1.904   5.291   2.611  1.3500  0.7224 -0.9621
 1423TIP3   OH2 4232   6.757   0.727   0.784  0.8788 -0.5960  0.2761
 1423TIP3    H1 4233   6.797   0.681   0.859  0.8079 -1.0448  0.0449
 1423TIP3    H2 4234   6.701   0.661   0.743  1.1332 -0.4346 -0.3420
 1424TIP3   OH2 4235   3.396   2.861   0.440 -0.0621 -0.3281  0.0559
 1424TIP3    H1 4236   3.466   2.848   0.504  0.8772 -0.4790 -0.9711
 1424TIP3    H2 4237   3.360   2.947   0.461  0.1248 -0.4411  0.8748
 1425TIP3   OH2 4238   6.227   4.538   5.101  0.1758  0.0826 -0.3168
 1425TIP3    H1 4239   6.177   4.614   5.131  1.5793  1.0559 -0.3500
 1425TIP3    H2 4240   6.198   4.466   5.157 -0.7157  0.7798  0.1444
 1426TIP3   OH2 4241   4.056   5.899   0.598  0.5116 -0.6152  0.1516
 1426TIP3    H1 4242   4.065   5.992   0.618 -1.8184 -0.0747 -0.9636
 1426TIP3    H2 4243   4.036   5.858   0.682  1.9176 -0.2051  0.7152
 1427TIP3   OH2 4244   1.693   3.949   0.754 -0.1185  0.3547  0.4496
 1427TIP3    H1 4245   1.620   3.944   0.692  0.2302  0.5295  0.0214
 1427TIP3    H2 4246   1.771   3.943   0.700  0.1983  1.1589  0.8110
 1428TIP3   OH2 4247   2.694   4.105   2.099 -0.3776 -0.0860  0.3943
 1428TIP3    H1 4248   2.616   4.084   2.048  0.3583 -2.0935  0.0077
 1428TIP3    H2 4249   2.767   4.094   2.037  0.3352  0.1656  1.1700
 1429TIP3   OH2 4250   1.094   1.454   5.349  0.1070  0.0357  0.4130
 1429TIP3    H1 4251   1.178   1.484   5.383 -0.4313  0.8436  1.0837
 1429TIP3    H2 4252   1.048   1.535   5.326  0.2320 -0.4490 -1.7717
 1430TIP3   OH2 4253   4.382   2.123   2.618 -0.2057 -0.3299  0.3748
 1430TIP3    H1 4254   4.450   2.189   2.622  0.9579 -1.4912  0.2952
 1430TIP3    H2 4255   4.423   2.043   2.650 -1.0035 -1.4658 -1.2574
 1431TIP3   OH2 4256   0.985   2.774   3.944 -0.2902  0.7373 -0.1681
 1431TIP3    H1 4257   0.971   2.755   4.037 -0.0564  2.9040  0.3618
 1431TIP3    H2 4258   1.008   2.689   3.906  0.6788 -0.0284  1.9444
 1432TIP3   OH2 4259   6.875   3.427   4.348 -0.1948 -0.2632  0.6211
 1432TIP3    H1 4260   6.837   3.498   4.297 -0.9797 -0.7713  0.4955
 1432TIP3    H2 4261   6.950   3.398   4.296 -1.2514 -1.0790 -0.4843
 1433TIP3   OH2 4262   6.242   4.375   2.438 -0.3332 -0.4279  0.3554
 1433TIP3    H1 4263   6.266   4.289   2.471 -0.7145 -0.4490  0.5906
 1433TIP3    H2 4264   6.166   4.401   2.491 -0.9722 -0.4755 -0.5005
 1434TIP3   OH2 4265   6.433   6.060   4.878  0.2919 -0.3383 -0.5985
 1434TIP3    H1 4266   6.482   6.085   4.799 -0.6624 -0.6260 -1.3138
 1434TIP3    H2 4267   6.438   6.137   4.935  0.4925  0.1079 -1.2023
 1435TIP3   OH2 4268   6.063   5.492   0.268 -0.1262  0.1347  0.3547
 1435TIP3    H1 4269   6.130   5.558   0.255  0.7914 -0.5668  1.3447
 1435TIP3    H2 4270   6.072   5.465   0.360 -1.1710 -0.6087  0.2705
 1436TIP3   OH2 4271   0.634   2.539   2.441  0.1205 -0.0077  0.0166
 1436TIP3    H1 4272   0.588   2.455   2.438 -1.2023  0.6188  1.2708
 1436TIP3    H2 4273   0.703   2.531   2.375  0.5828 -2.3778  0.6923
 1437TIP3   OH2 4274   0.286   1.767   1.914  0.1393  0.2997 -0.3695
 1437TIP3    H1 4275   0.351   1.708   1.953  1.5980  1.9208 -0.2164
 1437TIP3    H2 4276   0.203   1.721   1.925  1.1317 -1.4739  0.2188
 1438TIP3   OH2 4277   4.851   6.697   5.916 -0.5070 -0.4359 -0.0668
 1438TIP3    H1 4278   4.817   6.615   5.881 -0.4290 -0.1017 -0.9454
 1438TIP3    H2 4279   4.847   6.758   5.842 -2.0130  0.7903  0.9769
 1439TIP3   OH2 4280   1.646   6.550   1.865 -0.0662 -0.3866 -0.1669
 1439TIP3    H1 4281   1.554   6.553   1.891  0.7343 -0.3086  2.9751
 1439TIP3    H2 4282   1.682   6.634   1.894  0.7965  0.1236 -2.4738
 1440TIP3   OH2 4283   1.969   5.589   1.610  0.2058  0.1650 -0.0989
 1440TIP3    H1 4284   2.051   5.546   1.584  1.3163  1.2722  1.3869
 1440TIP3    H2 4285   1.917   5.519   1.650  0.5402 -0.4851 -0.7667
 1441TIP3   OH2 4286   0.511   0.379   1.316  0.1221  0.1054 -0.2386
 1441TIP3    H1 4287   0.433   0.360   1.264 -0.7520 -1.4286  1.5320
 1441TIP3    H2 4288   0.495   0.467   1.352 -1.4938 -0.7368  1.2359
 1442TIP3   OH2 4289   2.121   6.515   0.296 -0.5152 -0.5852  0.1616
 1442TIP3    H1 4290   2.114   6.437   0.240 -0.0940  1.7135 -3.4776
 1442TIP3    H2 4291   2.031   6.533   0.324 -1.1772 -0.6130 -1.7844
 1443TIP3   OH2 4292   3.375   3.259   1.884 -0.3471  0.3976 -0.2430
 1443TIP3    H1 4293   3.305   3.234   1.944 -0.1216 -0.5818 -0.3653
 1443TIP3    H2 4294   3.355   3.212   1.803  0.5352 -0.0498 -0.2206
 1444TIP3   OH2 4295   5.260   0.605   0.019 -0.5693 -0.2707  0.0568
 1444TIP3    H1 4296   5.206   0.641   0.090 -0.9878 -0.7869  0.0100
 1444TIP3    H2 4297   5.237   0.657  -0.057  0.3918  0.7434  0.4387
 1445TIP3   OH2 4298   3.273   1.482   4.645 -0.2713 -0.2506  0.5090
 1445TIP3    H1 4299   3.189   1.439   4.660 -0.8973  0.9566  0.5466
 1445TIP3    H2 4300   3.288   1.534   4.723  0.1416  0.1363  0.1753
 1446TIP3   OH2 4301   7.039   0.961   3.780  0.2046  0.2370 -0.8947
 1446TIP3    H1 4302   7.091   0.960   3.860  2.4818 -2.0039 -2.2228
 1446TIP3    H2 4303   6.961   0.910   3.800  0.7903 -0.3672 -0.1011
 1447TIP3   OH2 4304   1.765   6.369   1.642 -0.4221  0.4353  0.6173
 1447TIP3    H1 4305   1.723   6.419   1.572 -0.9154  0.8439  1.2007
 1447TIP3    H2 4306   1.719   6.396   1.722  0.9432  0.8954  1.2719
 1448TIP3   OH2 4307   1.277   5.064   1.587 -0.6883  0.2063  0.0688
 1448TIP3    H1 4308   1.257   5.125   1.658 -3.9931  0.1656 -0.6741
 1448TIP3    H2 4309   1.353   5.102   1.544 -1.6989  3.0326  0.5550
 1449TIP3   OH2 4310   5.971   2.283   4.065 -0.2071 -0.9121  0.2437
 1449TIP3    H1 4311   5.995   2.360   4.116 -0.7084 -0.8615  0.4113
 1449TIP3    H2 4312   6.054   2.239   4.048  0.0708 -0.4033  0.2546
 1450TIP3   OH2 4313   6.746   6.596   2.123  0.2383 -0.0362 -0.2383
 1450TIP3    H1 4314   6.734   6.502   2.135  0.0173  0.1330  1.0663
 1450TIP3    H2 4315   6.707   6.635   2.202 -0.0871  1.1757 -0.9646
 1451TIP3   OH2 4316   3.519   0.700   0.237 -0.3483 -0.4353 -0.3549
 1451TIP3    H1 4317   3.580   0.646   0.288 -0.5215 -0.4628 -0.1752
 1451TIP3    H2 4318   3.544   0.686   0.146  1.0390  0.8702 -0.2157
 1452TIP3   OH2 4319   6.294   3.113   2.290  0.0947 -0.0358  0.2457
 1452TIP3    H1 4320   6.280   3.189   2.233 -0.9798 -0.7192 -0.4502
 1452TIP3    H2 4321   6.209   3.070   2.293  1.0861 -2.2738 -0.9423
 1453TIP3   OH2 4322   3.922   1.745   1.636  0.6402  0.3374  0.4125
 1453TIP3    H1 4323   3.949   1.810   1.701  0.0336 -1.2507  2.3483
 1453TIP3    H2 4324   3.889   1.671   1.687  0.6595 -1.2540 -1.7045
 1454TIP3   OH2 4325   4.172   1.229   5.558  0.1723 -0.0232 -0.0754
 1454TIP3    H1 4326   4.256   1.192   5.533  0.2743 -0.9795  1.5858
 1454TIP3    H2 4327   4.148   1.184   5.639 -2.0704  0.0222 -0.6348
 1455TIP3   OH2 4328   3.245   2.858   2.201  0.4216 -0.0147  0.8664
 1455TIP3    H1 4329   3.183   2.928   2.180 -0.3270 -1.4822 -2.2997
 1455TIP3    H2 4330   3.190   2.784   2.225  1.0950 -0.3924  1.2664
 1456TIP3   OH2 4331   4.157   4.696   3.691 -0.3153 -0.1858 -0.4256
 1456TIP3    H1 4332   4.139   4.775   3.640 -1.2526 -0.2446 -0.2086
 1456TIP3    H2 4333   4.245   4.709   3.726  0.8254 -0.6224 -2.9466
 1457TIP3   OH2 4334   2.395   0.768   1.713  0.1852 -0.2484 -0.3910
 1457TIP3    H1 4335   2.440   0.758   1.797 -0.0765 -0.3729 -0.2612
 1457TIP3    H2 4336   2.447   0.717   1.651 -0.2567 -1.1324 -0.0601
 1458TIP3   OH2 4337   0.132   3.318   4.062  0.0070 -0.5062 -0.1950
 1458TIP3    H1 4338   0.206   3.332   4.121 -0.5465 -2.1019  0.9308
 1458TIP3    H2 4339   0.173   3.302   3.977  0.7854  2.8092 -0.5793
 1459TIP3   OH2 4340   2.523   0.664   2.403  0.4745 -0.0165  0.0507
 1459TIP3    H1 4341   2.479   0.580   2.391 -2.4693  1.2986  0.8101
 1459TIP3    H2 4342   2.542   0.667   2.497  1.7010 -0.2946 -0.1691
 1460TIP3   OH2 4343   6.201   1.440   3.759 -0.2478  0.2353 -0.0234
 1460TIP3    H1 4344   6.183   1.444   3.665 -2.3565  0.1195  0.3154
 1460TIP3    H2 4345   6.219   1.531   3.784 -1.3928  0.5562 -0.2800
 1461TIP3   OH2 4346   1.313   1.482   4.264  0.1177  0.0240  0.7532
 1461TIP3    H1 4347   1.356   1.455   4.345 -0.9096  2.7260  2.3040
 1461TIP3    H2 4348   1.367   1.554   4.231 -0.6906  0.4106  0.2405
 1462TIP3   OH2 4349   5.476   0.312   3.310 -0.7528  0.3737  0.3575
 1462TIP3    H1 4350   5.473   0.222   3.278  1.4764  0.3640  0.0101
 1462TIP3    H2 4351   5.458   0.366   3.233 -3.2921  0.2620  0.8059
 1463TIP3   OH2 4352   4.136   2.450   5.386  0.3157 -0.2321 -0.0150
 1463TIP3    H1 4353   4.218   2.492   5.360  0.3430 -0.6562 -0.6470
 1463TIP3    H2 4354   4.143   2.361   5.352 -0.4488 -0.2365 -0.1821
 1464TIP3   OH2 4355   1.210   4.808   3.149  0.0575  0.1730  0.2313
 1464TIP3    H1 4356   1.288   4.835   3.101  0.2467 -0.4924  0.1592
 1464TIP3    H2 4357   1.187   4.885   3.202 -0.0612  0.8638 -0.7902
 1465TIP3   OH2 4358   1.342   3.034   0.320 -0.1537 -0.1407 -0.1851
 1465TIP3    H1 4359   1.326   2.979   0.243  1.0366  0.6683 -1.0667
 1465TIP3    H2 4360   1.257   3.042   0.363 -0.4399 -2.2477 -0.2859
 1466TIP3   OH2 4361   6.669   6.769   3.893  0.3467 -0.1126 -0.2647
 1466TIP3    H1 4362   6.607   6.831   3.855 -0.0272  0.6507  1.4904
 1466TIP3    H2 4363   6.614   6.703   3.935  0.7295 -0.0941  0.2670
 1467TIP3   OH2 4364   0.412   0.844   3.447 -0.1525 -0.5694  0.3142
 1467TIP3    H1 4365   0.410   0.812   3.537  1.5255  2.4181  1.5818
 1467TIP3    H2 4366   0.345   0.913   3.445 -0.2223 -0.6447 -0.7682
 1468TIP3   OH2 4367   6.718   0.090   4.800 -0.1105 -0.3425 -0.2334
 1468TIP3    H1 4368   6.693   0.103   4.708  0.5820 -1.0468 -0.5411
 1468TIP3    H2 4369   6.746  -0.002   4.803 -0.2826 -0.3655  0.7234
 1469TIP3   OH2 4370   1.951   0.575   4.370 -0.0931  0.4396 -0.0842
 1469TIP3    H1 4371   1.886   0.510   4.397  1.1872 -0.7324  0.3397
 1469TIP3    H2 4372   1.971   0.624   4.450  0.3707  0.0053  0.0794
 1470TIP3   OH2 4373   1.108   5.249   0.745  0.3483  0.0650  0.3656
 1470TIP3    H1 4374   1.103   5.320   0.681 -0.8963 -0.3183  0.0214
 1470TIP3    H2 4375   1.032   5.195   0.728  2.0966 -2.3051 -0.4147
 1471TIP3   OH2 4376   1.376   3.007   3.643 -0.8104 -0.1431 -0.3175
 1471TIP3    H1 4377   1.406   2.957   3.718 -1.4231  0.9297  0.6800
 1471TIP3    H2 4378   1.453   3.012   3.585  0.1469  0.3262  0.9535
 1472TIP3   OH2 4379   0.013   0.417   1.404  0.6786  0.0008 -0.5905
 1472TIP3    H1 4380   0.070   0.356   1.451  1.2784 -0.3091 -1.6872
 1472TIP3    H2 4381  -0.031   0.467   1.473  0.1513 -1.6652  0.3409
 1473TIP3   OH2 4382   3.791   5.753   5.775  0.0995 -0.0059  0.0465
 1473TIP3    H1 4383   3.821   5.832   5.819  1.3828 -0.1939 -0.4453
 1473TIP3    H2 4384   3.818   5.764   5.683 -2.4295  0.3389 -0.7280
 1474TIP3   OH2 4385   3.881   4.868   1.253 -0.1011 -0.1704 -0.4581
 1474TIP3    H1 4386   3.970   4.856   1.286 -0.3033  1.6694  0.8808
 1474TIP3    H2 4387   3.883   4.951   1.205 -1.3710  0.5894  0.7311
 1475TIP3   OH2 4388   3.453   2.748   5.310 -0.4017 -0.0360  0.0647
 1475TIP3    H1 4389   3.474   2.841   5.312 -1.7754  0.2897  0.6963
 1475TIP3    H2 4390   3.398   2.734   5.387  0.1082 -1.4615  0.2124
 1476TIP3   OH2 4391   0.773   6.476   2.460 -0.0484 -0.3843  0.1995
 1476TIP3    H1 4392   0.782   6.381   2.453  0.4090 -0.3840  0.7299
 1476TIP3    H2 4393   0.678   6.491   2.467 -0.1460 -0.7680 -0.3264
 1477TIP3   OH2 4394   6.515   1.236   0.055 -0.0444 -0.2633  0.5092
 1477TIP3    H1 4395   6.479   1.217   0.142 -2.2469 -0.2433 -0.3371
 1477TIP3    H2 4396   6.505   1.331   0.045 -0.9700 -0.4223 -0.2209
 1478TIP3   OH2 4397   1.636   4.165   4.225  0.0652 -0.2922  0.1077
 1478TIP3    H1 4398   1.690   4.185   4.149  0.7389  2.1032  1.1348
 1478TIP3    H2 4399   1.698   4.138   4.293 -0.2237  0.3367  0.6345
 1479TIP3   OH2 4400   2.608   5.657   1.324 -0.3658  0.0603  0.2231
 1479TIP3    H1 4401   2.662   5.681   1.249  0.7240 -2.3305  0.1394
 1479TIP3    H2 4402   2.527   5.624   1.286  0.5277 -1.9821 -0.0324
 1480TIP3   OH2 4403   0.894   5.886   4.624 -0.0018 -0.3159  0.6047
 1480TIP3    H1 4404   0.819   5.944   4.636  0.4035 -0.1640  2.9064
 1480TIP3    H2 4405   0.898   5.871   4.530 -2.8842 -0.2900  0.3911
 1481TIP3   OH2 4406   1.984   0.363   2.306  0.1239 -0.4951  0.1534
 1481TIP3    H1 4407   2.035   0.430   2.351  1.4773 -2.1254  1.1511
 1481TIP3    H2 4408   1.893   0.386   2.324  0.5892 -0.1835  2.4268
 1482TIP3   OH2 4409   3.374   0.561   2.801  0.3634 -0.0083  0.5274
 1482TIP3    H1 4410   3.413   0.586   2.717  1.2740 -1.1813  0.5742
 1482TIP3    H2 4411   3.281   0.580   2.791  0.4221 -0.3541 -0.8367
 1483TIP3   OH2 4412   1.457   2.117   4.618  0.2794 -0.2457  0.0600
 1483TIP3    H1 4413   1.369   2.154   4.627  0.6769  0.8749 -0.3729
 1483TIP3    H2 4414   1.512   2.173   4.674  0.5862 -1.5064  1.0681
 1484TIP3   OH2 4415   5.654   1.766   4.506 -0.4149 -0.1121 -0.1468
 1484TIP3    H1 4416   5.600   1.688   4.518 -1.0555  0.4859  1.0453
 1484TIP3    H2 4417   5.632   1.822   4.580  1.1127  0.5887 -0.1750
 1485TIP3   OH2 4418   2.160   3.758   5.689  0.0082  0.9836  0.0523
 1485TIP3    H1 4419   2.239   3.739   5.740  0.4356  0.8555 -0.6533
 1485TIP3    H2 4420   2.092   3.704   5.730  0.9334 -1.2039 -1.1544
 1486TIP3   OH2 4421   4.750   5.389   0.891 -0.1284  0.1885 -0.2993
 1486TIP3    H1 4422   4.813   5.364   0.958 -0.5187 -0.3097 -0.1120
 1486TIP3    H2 4423   4.785   5.471   0.855 -1.1696  1.8587  2.1997
 1487TIP3   OH2 4424   6.619   2.668   4.276  0.3359 -0.0210  0.1947
 1487TIP3    H1 4425   6.616   2.744   4.218  1.0881  0.0591  0.2513
 1487TIP3    H2 4426   6.658   2.701   4.357 -0.2997 -0.2306  0.5899
 1488TIP3   OH2 4427   2.240   0.767   1.050 -0.0412 -0.1922  0.3426
 1488TIP3    H1 4428   2.310   0.749   1.113 -2.1929  1.2579  3.3803
 1488TIP3    H2 4429   2.276   0.833   0.992  1.9109 -1.2891  0.2214
 1489TIP3   OH2 4430   1.610   0.965   3.055  0.6438  0.3186  0.2533
 1489TIP3    H1 4431   1.677   0.949   2.989  2.4270  1.9734  1.5477
 1489TIP3    H2 4432   1.589   0.878   3.090  1.8766 -0.2766 -0.4253
 1490TIP3   OH2 4433   4.123   4.862   2.658  0.1105  0.2582 -0.4330
 1490TIP3    H1 4434   4.118   4.848   2.753 -0.7588 -0.8648 -0.6225
 1490TIP3    H2 4435   4.217   4.865   2.639  0.3468  2.7241  0.7441
 1491TIP3   OH2 4436   1.351   0.919   1.859  0.3300  0.5640 -0.1274
 1491TIP3    H1 4437   1.373   0.864   1.935 -0.4180  1.0820  0.4744
 1491TIP3    H2 4438   1.435   0.939   1.820  0.7415  0.3751  0.6286
 1492TIP3   OH2 4439   6.899   6.670   0.156 -0.2078 -0.0621  0.8240
 1492TIP3    H1 4440   6.890   6.662   0.251 -2.4185  1.8890  0.8536
 1492TIP3    H2 4441   6.814   6.642   0.122  0.6533 -1.0069 -0.6257
 1493TIP3   OH2 4442   6.530   4.812   3.448 -0.1854  0.1771  0.1224
 1493TIP3    H1 4443   6.553   4.900   3.478  1.1583  0.6321 -2.0064
 1493TIP3    H2 4444   6.434   4.811   3.450 -0.1975  1.1883  1.4902
 1494TIP3   OH2 4445   3.542   4.684   4.391  0.0147  0.4914 -0.1035
 1494TIP3    H1 4446   3.516   4.763   4.439 -0.5095  0.2835 -0.0401
 1494TIP3    H2 4447   3.632   4.668   4.418  0.3584  1.4584 -0.6338
 1495TIP3   OH2 4448   3.394   2.065   4.794 -0.4071 -0.1235  0.0375
 1495TIP3    H1 4449   3.308   2.064   4.752 -0.7465  0.0489  0.7157
 1495TIP3    H2 4450   3.422   2.157   4.790  0.9288 -0.5598 -2.5082
 1496TIP3   OH2 4451   0.209   2.936   3.974 -0.0189 -0.7819  0.0974
 1496TIP3    H1 4452   0.224   2.846   3.945  0.6790 -0.6021 -0.1032
 1496TIP3    H2 4453   0.274   2.988   3.927 -0.8494 -0.0734 -0.3036
 1497TIP3   OH2 4454   2.616   4.645   4.339 -0.0720  0.6668 -0.7123
 1497TIP3    H1 4455   2.532   4.671   4.374 -0.6241  0.1643 -1.6169
 1497TIP3    H2 4456   2.610   4.663   4.245 -0.0972 -1.6150 -1.2100
 1498TIP3   OH2 4457   6.369   2.474   0.948 -0.4769 -0.0274 -0.1312
 1498TIP3    H1 4458   6.333   2.520   1.024  0.5816 -0.2657  0.5466
 1498TIP3    H2 4459   6.404   2.543   0.892  2.0985  0.0670  1.3947
 1499TIP3   OH2 4460   1.892   1.120   3.580 -0.0219 -0.3202 -0.4214
 1499TIP3    H1 4461   1.845   1.051   3.626 -0.2652 -0.0345 -0.2427
 1499TIP3    H2 4462   1.911   1.082   3.494 -1.9833  0.1139 -1.1031
 1500TIP3   OH2 4463   3.019   6.717   0.638  0.5747 -0.4666  0.6433
 1500TIP3    H1 4464   3.067   6.679   0.564 -2.5478 -2.8456 -0.3972
 1500TIP3    H2 4465   2.954   6.775   0.597 -0.5582 -1.0662  1.5246
 1501TIP3   OH2 4466   3.237   2.254   3.538 -0.0145  0.0958  0.7259
 1501TIP3    H1 4467   3.263   2.178   3.486  2.2418  0.1713  1.6078
 1501TIP3    H2 4468   3.252   2.226   3.629  2.2100  1.9435  1.0281
 1502TIP3   OH2 4469   5.004   5.876   4.446 -0.5624 -0.7952 -0.0622
 1502TIP3    H1 4470   5.073   5.928   4.405 -0.0888  1.8478  3.6189
 1502TIP3    H2 4471   4.923   5.914   4.413 -0.2027  1.0284  1.0235
 1503TIP3   OH2 4472   3.141   6.675   3.362 -0.9152 -0.0327 -0.1600
 1503TIP3    H1 4473   3.211   6.732   3.330  2.4639 -2.9067  1.4470
 1503TIP3    H2 4474   3.145   6.598   3.305 -0.9703 -1.3124  1.4831
 1504TIP3   OH2 4475   4.674   4.285   3.683  0.1710  0.3945 -0.3032
 1504TIP3    H1 4476   4.756   4.292   3.635  0.3442  2.5248  0.1830
 1504TIP3    H2 4477   4.623   4.362   3.655 -1.6324 -0.8145 -0.5157
 1505TIP3   OH2 4478   6.743   4.587   3.152 -1.1050 -0.4788 -0.0499
 1505TIP3    H1 4479   6.666   4.566   3.205 -0.6955 -0.4950  0.5348
 1505TIP3    H2 4480   6.707   4.601   3.064 -1.5844 -2.0828 -0.1350
 1506TIP3   OH2 4481   2.314   1.228   1.541 -0.4520  0.7682  0.5574
 1506TIP3    H1 4482   2.318   1.208   1.635 -0.4753  0.6626  0.5361
 1506TIP3    H2 4483   2.220   1.237   1.523 -0.9127 -3.8254 -0.4062
 1507TIP3   OH2 4484   6.533   0.413   3.288  0.1505 -0.1388  0.0149
 1507TIP3    H1 4485   6.540   0.476   3.216  0.3800 -1.5724 -1.2775
 1507TIP3    H2 4486   6.601   0.439   3.350  0.8539  0.3319 -0.9347
 1508TIP3   OH2 4487   1.536   1.038   1.705 -0.1998 -0.3403 -0.1055
 1508TIP3    H1 4488   1.627   1.058   1.681 -0.2788 -1.5014 -1.5231
 1508TIP3    H2 4489   1.485   1.108   1.664 -0.0079 -0.0216  0.1887
 1509TIP3   OH2 4490   7.082   0.338   3.759  0.3308 -0.4268  0.4092
 1509TIP3    H1 4491   6.993   0.305   3.744  0.4258 -0.6600  0.3562
 1509TIP3    H2 4492   7.123   0.337   3.673 -0.6272  2.7555 -0.1831
 1510TIP3   OH2 4493   1.909   2.676   1.480  0.2873  0.3875 -0.4741
 1510TIP3    H1 4494   1.853   2.630   1.542  1.7125  0.1390  0.6719
 1510TIP3    H2 4495   1.964   2.608   1.442  0.3824  0.7404 -0.9798
 1511TIP3   OH2 4496   7.152   3.185   3.256 -0.0824  0.2193  0.4463
 1511TIP3    H1 4497   7.078   3.191   3.195 -1.5534 -0.3250  2.0815
 1511TIP3    H2 4498   7.188   3.097   3.241  0.4107  0.5753 -0.5249
 1512TIP3   OH2 4499   2.756   1.081   0.729  0.1689 -0.3452 -0.0487
 1512TIP3    H1 4500   2.738   0.988   0.740 -0.0038 -0.5033 -1.4520
 1512TIP3    H2 4501   2.851   1.089   0.738  0.0788 -0.4853  1.1168
 1513TIP3   OH2 4502   1.825   5.474   4.162  0.4004  0.0067 -0.0845
 1513TIP3    H1 4503   1.793   5.385   4.180  0.2877  0.1243  0.3142
 1513TIP3    H2 4504   1.802   5.523   4.241 -0.6892  0.6972 -0.8179
 1514TIP3   OH2 4505   5.437   2.226   1.205  0.0956 -0.0944  0.0989
 1514TIP3    H1 4506   5.452   2.305   1.257 -0.4603 -0.2802  0.5434
 1514TIP3    H2 4507   5.518   2.175   1.215 -0.4601 -0.6907  1.7758
 1515TIP3   OH2 4508   5.761   1.505   2.922 -0.4815 -0.0232  0.2403
 1515TIP3    H1 4509   5.722   1.478   2.839  1.5501 -0.1660 -0.7448
 1515TIP3    H2 4510   5.727   1.593   2.938 -1.1424 -0.1222 -0.5761
 1516TIP3   OH2 4511   1.228   5.010   5.580  0.0504  0.0980  0.0307
 1516TIP3    H1 4512   1.322   5.029   5.585  0.0940  0.5772 -1.7972
 1516TIP3    H2 4513   1.220   4.953   5.504 -1.0399 -0.7729  0.7738
 1517TIP3   OH2 4514   3.273   2.835   5.016 -0.4828  0.4356  0.4026
 1517TIP3    H1 4515   3.204   2.852   5.081 -1.2230  0.2759 -0.3194
 1517TIP3    H2 4516   3.225   2.807   4.938  0.1405  3.3737 -1.1926
 1518TIP3   OH2 4517   2.287   1.957   3.532 -0.5599  0.5780  0.0740
 1518TIP3    H1 4518   2.311   1.872   3.496 -0.4760  0.4967  0.3228
 1518TIP3    H2 4519   2.327   1.959   3.619 -0.0218  1.1240 -0.1754
 1519TIP3   OH2 4520   4.418   6.251   3.386  0.4284 -0.0906 -0.5215
 1519TIP3    H1 4521   4.369   6.174   3.357 -0.7848 -0.5402  2.3829
 1519TIP3    H2 4522   4.498   6.216   3.425 -0.3095  0.0058  1.1695
 1520TIP3   OH2 4523   1.666   2.393   1.332  0.2339  0.0699  0.1136
 1520TIP3    H1 4524   1.620   2.385   1.415  1.6258  1.1931  1.0542
 1520TIP3    H2 4525   1.634   2.320   1.279 -1.3892 -0.1153  1.2773
 1521TIP3   OH2 4526   1.938   4.658   5.754  0.0915  0.5857  0.0311
 1521TIP3    H1 4527   1.875   4.681   5.685  0.3610 -1.5036 -0.9947
 1521TIP3    H2 4528   1.885   4.610   5.819  0.4412 -0.4889 -0.4535
 1522TIP3   OH2 4529   2.903   5.334   0.731 -0.3638 -0.3918 -0.0145
 1522TIP3    H1 4530   2.988   5.339   0.689  1.2041  0.3620  2.9679
 1522TIP3    H2 4531   2.912   5.265   0.797 -2.3793 -0.9089 -0.1946
 1523TIP3   OH2 4532   4.955   4.795   0.626 -0.0604 -0.0871 -0.0339
 1523TIP3    H1 4533   4.889   4.782   0.693 -1.6922  0.1288 -1.5266
 1523TIP3    H2 4534   5.007   4.715   0.627 -1.3367 -0.9343  0.1186
 1524TIP3   OH2 4535   1.736   3.055   1.986 -0.4044  0.2966 -0.3815
 1524TIP3    H1 4536   1.673   3.067   1.915  0.3161  1.4658 -0.8510
 1524TIP3    H2 4537   1.796   3.129   1.979 -0.2071  0.3574  1.3536
 1525TIP3   OH2 4538   6.400   4.671   4.251  1.2823  0.3633 -0.4971
 1525TIP3    H1 4539   6.483   4.630   4.230  0.7734 -0.6981 -0.4994
 1525TIP3    H2 4540   6.344   4.656   4.175  1.0048  0.8535 -0.4018
 1526TIP3   OH2 4541   3.905   1.866   3.810  0.0064  0.2258 -0.3533
 1526TIP3    H1 4542   3.885   1.837   3.721 -0.3237  0.3386 -0.3159
 1526TIP3    H2 4543   3.936   1.956   3.799 -0.5940  0.4419 -0.2957
 1527TIP3   OH2 4544   3.758   6.358   2.611 -0.1324 -0.2656 -0.3710
 1527TIP3    H1 4545   3.700   6.419   2.565  0.5736 -1.5928 -3.3266
 1527TIP3    H2 4546   3.699   6.300   2.660 -0.9786  1.0107  0.1553
 1528TIP3   OH2 4547   6.161   2.492   4.720  0.7005 -0.0789  0.0234
 1528TIP3    H1 4548   6.085   2.512   4.665  0.7961 -1.1450 -0.5243
 1528TIP3    H2 4549   6.194   2.577   4.747  0.3591  0.4688 -1.1946
 1529TIP3   OH2 4550   1.841   2.722   5.129 -0.0920 -0.1347  0.3020
 1529TIP3    H1 4551   1.750   2.742   5.153 -0.9087 -1.7063 -1.3122
 1529TIP3    H2 4552   1.851   2.629   5.147  1.0248 -0.1178 -0.1341
 1530TIP3   OH2 4553   5.602   6.376   0.702 -0.2595 -0.5732 -0.8659
 1530TIP3    H1 4554   5.657   6.359   0.778 -2.2948 -1.8542  0.4137
 1530TIP3    H2 4555   5.626   6.308   0.639  1.8677  0.8555 -1.7541
 1531TIP3   OH2 4556   1.831   0.748   5.773 -1.1193  0.3524  0.1254
 1531TIP3    H1 4557   1.898   0.710   5.830 -1.2364  2.5743  1.8774
 1531TIP3    H2 4558   1.763   0.681   5.768 -0.1999 -0.6769  0.9471
 1532TIP3   OH2 4559   4.086   1.489   2.798  0.3367 -0.5712  0.0620
 1532TIP3    H1 4560   4.097   1.561   2.736  3.5359 -1.5242 -0.6650
 1532TIP3    H2 4561   4.060   1.532   2.880  1.3771  1.3534 -0.5497
 1533TIP3   OH2 4562   5.016   4.458   2.048 -0.1635 -0.3063  0.1863
 1533TIP3    H1 4563   5.108   4.484   2.039  0.0479  1.0075  3.9875
 1533TIP3    H2 4564   4.967   4.536   2.021 -0.0969 -0.4208 -0.2717
 1534TIP3   OH2 4565   6.664   0.329   3.001  0.2041  0.3784 -0.0423
 1534TIP3    H1 4566   6.706   0.296   3.081 -0.1724  0.0609  0.0275
 1534TIP3    H2 4567   6.625   0.252   2.960  0.5488  0.5128 -0.6311
 1535TIP3   OH2 4568   2.026   5.515   5.333 -0.0036  0.0844 -0.0981
 1535TIP3    H1 4569   2.081   5.455   5.283  0.5463  0.4723  0.0263
 1535TIP3    H2 4570   2.045   5.601   5.295  1.1307  0.5271  1.3410
 1536TIP3   OH2 4571   3.017   3.622   3.394 -0.0616 -0.3910 -0.1750
 1536TIP3    H1 4572   3.110   3.616   3.419  0.3716  1.6615 -1.0684
 1536TIP3    H2 4573   2.973   3.558   3.450  2.0450 -2.3831 -0.6400
 1537TIP3   OH2 4574   0.863   1.778   3.992  0.1037  0.0154 -0.6650
 1537TIP3    H1 4575   0.902   1.718   3.929  0.5003 -0.8765  0.3827
 1537TIP3    H2 4576   0.910   1.860   3.980  0.5795 -0.3192 -1.1182
 1538TIP3   OH2 4577   0.009   2.357   0.971  0.1778  0.2301 -0.1558
 1538TIP3    H1 4578   0.019   2.276   1.020 -0.5224  1.1971  1.6725
 1538TIP3    H2 4579   0.097   2.378   0.942  0.5674 -0.5452  0.4238
 1539TIP3   OH2 4580   3.192   3.688   5.275  0.2201 -0.1749 -0.0361
 1539TIP3    H1 4581   3.223   3.706   5.364 -0.6528 -1.8113  0.6309
 1539TIP3    H2 4582   3.234   3.606   5.251  0.2900  0.1520 -1.0728
 1540TIP3   OH2 4583   3.323   1.941   3.975  0.2931 -1.4513  0.3496
 1540TIP3    H1 4584   3.280   1.925   4.060 -1.2973 -2.1059 -0.5289
 1540TIP3    H2 4585   3.284   2.022   3.943  0.3598 -1.5785 -0.0619
 1541TIP3   OH2 4586   0.460   4.364  -0.007 -0.1207 -0.8293 -0.1641
 1541TIP3    H1 4587   0.393   4.297   0.003  0.4048 -1.3249  0.1179
 1541TIP3    H2 4588   0.459   4.413   0.075 -1.0379  0.0311 -0.6596
 1542TIP3   OH2 4589   2.092   1.583   4.424 -0.2792 -0.2081  0.4603
 1542TIP3    H1 4590   2.059   1.632   4.500 -0.9782  1.2033 -0.6988
 1542TIP3    H2 4591   2.072   1.639   4.349 -0.3047 -1.8963 -0.8558
 1543TIP3   OH2 4592   4.350   4.638   2.816 -0.5367 -0.2647 -0.0543
 1543TIP3    H1 4593   4.325   4.546   2.805 -1.7868 -0.2771  2.1589
 1543TIP3    H2 4594   4.395   4.661   2.735  0.7907 -3.1236 -0.2594
 1544TIP3   OH2 4595   3.383   3.015   4.652 -0.4688 -0.3820  0.2112
 1544TIP3    H1 4596   3.439   2.944   4.682 -0.2781 -0.0450  0.6548
 1544TIP3    H2 4597   3.316   3.023   4.720  1.1183  1.7321  1.6435
 1545TIP3   OH2 4598   6.877   0.524   4.223 -0.6117  0.4062 -0.2540
 1545TIP3    H1 4599   6.799   0.512   4.169 -1.1087  1.1398  0.2794
 1545TIP3    H2 4600   6.882   0.445   4.276 -0.3416 -0.1474 -1.0723
 1546TIP3   OH2 4601   6.552   5.609   3.840 -0.4092  0.1943 -0.4236
 1546TIP3    H1 4602   6.545   5.561   3.922 -2.7438  0.7640 -0.2423
 1546TIP3    H2 4603   6.527   5.546   3.773  2.5782 -0.6250 -0.9455
 1547TIP3   OH2 4604   6.181   2.730   0.407  0.6170 -0.1135 -0.2739
 1547TIP3    H1 4605   6.191   2.666   0.336  1.3455 -0.2748 -0.0253
 1547TIP3    H2 4606   6.156   2.811   0.363 -2.9694 -1.1285 -0.4346
 1548TIP3   OH2 4607   6.745   6.146   3.345  0.5545 -0.4077 -0.2202
 1548TIP3    H1 4608   6.694   6.215   3.387 -0.5665 -1.6129  0.4859
 1548TIP3    H2 4609   6.831   6.186   3.328 -0.0440  1.1220  0.1855
 1549TIP3   OH2 4610   0.215   2.689   2.960  0.2914  0.6048  0.5126
 1549TIP3    H1 4611   0.264   2.728   3.032  0.5247 -0.3752  0.9007
 1549TIP3    H2 4612   0.137   2.651   3.001  0.7822 -0.5980  0.3914
 1550TIP3   OH2 4613   3.565   1.316   2.690 -0.2241 -0.1977 -0.0815
 1550TIP3    H1 4614   3.628   1.283   2.626 -0.5614  0.3214 -0.6934
 1550TIP3    H2 4615   3.506   1.243   2.706 -0.2239 -0.2881 -0.4795
 1551TIP3   OH2 4616   3.138   1.132   2.358  0.2922  0.2527 -0.0074
 1551TIP3    H1 4617   3.109   1.164   2.444 -1.1994  0.6752 -0.6280
 1551TIP3    H2 4618   3.116   1.039   2.359 -2.0961  0.7429 -0.8042
 1552TIP3   OH2 4619   2.810   2.900   0.510 -0.4706  0.2173 -0.6696
 1552TIP3    H1 4620   2.722   2.870   0.483 -0.5654  1.0499 -1.3226
 1552TIP3    H2 4621   2.867   2.872   0.438 -0.4870  1.1922 -1.0708
 1553TIP3   OH2 4622   3.677   2.336   0.105 -0.2028 -0.3561 -0.5278
 1553TIP3    H1 4623   3.737   2.297   0.169  0.6176 -0.3210 -1.2591
 1553TIP3    H2 4624   3.620   2.263   0.080 -0.1004 -0.5357 -0.2513
 1554TIP3   OH2 4625   0.941   2.680   3.162 -0.6563  0.0911  0.2222
 1554TIP3    H1 4626   0.993   2.653   3.087 -2.0931 -0.3901 -0.6332
 1554TIP3    H2 4627   0.909   2.598   3.199 -0.5948  0.3695  0.9052
 1555TIP3   OH2 4628   3.044   5.264   3.964  0.3853 -0.4491 -0.4649
 1555TIP3    H1 4629   3.036   5.177   4.003 -0.5783 -0.1847 -0.0398
 1555TIP3    H2 4630   3.127   5.297   3.997 -0.6506  0.0005  1.9122
 1556TIP3   OH2 4631   2.313   3.249   2.707 -1.2856  0.6006 -0.2529
 1556TIP3    H1 4632   2.388   3.200   2.673 -1.6255  1.7565 -2.8495
 1556TIP3    H2 4633   2.334   3.340   2.689 -1.2567  1.4400  3.3228
 1557TIP3   OH2 4634   6.959   5.674   5.650 -0.0908 -0.2247 -0.0497
 1557TIP3    H1 4635   6.934   5.711   5.735 -2.7537 -0.5647 -0.6077
 1557TIP3    H2 4636   6.896   5.604   5.634  1.1460 -1.0293 -1.7593
 1558TIP3   OH2 4637   1.270   4.945   4.482  0.0416  0.5173 -0.7855
 1558TIP3    H1 4638   1.226   4.962   4.565  0.7145  0.2028 -0.3659
 1558TIP3    H2 4639   1.290   5.033   4.448  2.4909  0.6833  0.8420
 1559TIP3   OH2 4640   4.708   0.307   1.791  0.6124  0.1952  0.0084
 1559TIP3    H1 4641   4.668   0.384   1.751 -1.0639 -0.6347  0.0259
 1559TIP3    H2 4642   4.635   0.249   1.811  1.9307 -2.1346 -1.4774
 1560TIP3   OH2 4643   2.055   0.496   5.373 -0.1638 -0.0943 -0.3308
 1560TIP3    H1 4644   2.082   0.586   5.356 -0.1064 -0.2270 -0.9684
 1560TIP3    H2 4645   2.091   0.476   5.460 -2.1648  1.2646  0.8997
 1561TIP3   OH2 4646   6.191   1.543   5.434 -0.3291  0.0882  0.4352
 1561TIP3    H1 4647   6.115   1.542   5.377 -0.5339 -0.9548  0.7103
 1561TIP3    H2 4648   6.160   1.584   5.515 -1.0686 -1.7423  1.1354
 1562TIP3   OH2 4649   6.110   1.925   5.328 -0.1743  0.4071 -0.1473
 1562TIP3    H1 4650   6.076   1.919   5.418  0.4601  0.3602  0.0945
 1562TIP3    H2 4651   6.203   1.946   5.339  0.0818 -0.3671 -0.7792
 1563TIP3   OH2 4652   3.021   0.821   0.310  0.4055  0.2479 -0.6134
 1563TIP3    H1 4653   3.084   0.748   0.309 -0.1208 -0.2535  1.0718
 1563TIP3    H2 4654   2.937   0.780   0.329 -0.0063  1.2254 -0.2634
 1564TIP3   OH2 4655   1.377   4.594   5.308 -0.1679  0.1305  0.2252
 1564TIP3    H1 4656   1.369   4.552   5.222 -1.6653 -1.9549  1.2836
 1564TIP3    H2 4657   1.416   4.526   5.363 -1.5381  0.5476  1.7546
 1565TIP3   OH2 4658   0.161   5.541   1.067  0.5346  0.4144  0.2083
 1565TIP3    H1 4659   0.202   5.528   1.153 -1.1127 -0.3747  0.9376
 1565TIP3    H2 4660   0.069   5.561   1.088 -0.0012 -0.2763 -1.3727
 1566TIP3   OH2 4661   1.147   1.375   2.651 -0.3609 -0.0833  0.0745
 1566TIP3    H1 4662   1.205   1.299   2.664  0.4146  0.7601  1.8909
 1566TIP3    H2 4663   1.073   1.340   2.602  0.3530 -1.8376  0.1550
 1567TIP3   OH2 4664   6.406   6.308   3.127 -0.8348  0.0259  0.0792
 1567TIP3    H1 4665   6.458   6.228   3.124 -0.7580  0.0700  0.2229
 1567TIP3    H2 4666   6.422   6.350   3.043 -1.1962 -0.3085 -0.1627
 1568TIP3   OH2 4667   2.632   1.398   5.714 -0.1135 -0.6627  0.2791
 1568TIP3    H1 4668   2.572   1.453   5.664 -2.5922 -1.5515  2.0604
 1568TIP3    H2 4669   2.610   1.308   5.688  1.2820 -0.9930  0.1470
 1569TIP3   OH2 4670   6.030   1.536   3.190 -0.0363 -0.2722 -0.7209
 1569TIP3    H1 4671   6.039   1.488   3.107 -1.6037  0.0790 -1.1346
 1569TIP3    H2 4672   5.994   1.472   3.251  1.0688 -0.5156 -0.2954
 1570TIP3   OH2 4673   3.542   2.561   0.203 -0.2164  0.3047  0.5957
 1570TIP3    H1 4674   3.502   2.545   0.289  0.9540  0.5098  1.2034
 1570TIP3    H2 4675   3.623   2.510   0.205  0.4195  1.2702  0.0779
 1571TIP3   OH2 4676   0.696   0.033   0.651 -0.5120 -0.0613  0.6527
 1571TIP3    H1 4677   0.723   0.118   0.685  2.0779 -0.8868  0.8906
 1571TIP3    H2 4678   0.775  -0.020   0.654 -1.1830 -1.4991 -2.6136
 1572TIP3   OH2 4679  -0.027   5.529   1.664 -0.0363 -0.0869  0.3504
 1572TIP3    H1 4680   0.055   5.542   1.712 -0.4131  1.9087  0.5081
 1572TIP3    H2 4681   0.001   5.507   1.575  0.6706 -3.4416  1.2342
 1573TIP3   OH2 4682   1.983   4.800   3.306 -0.2431 -0.1721  0.8197
 1573TIP3    H1 4683   2.044   4.855   3.356  0.1578  0.2163 -0.0708
 1573TIP3    H2 4684   1.976   4.720   3.357  0.1432  0.2229  1.5103
 1574TIP3   OH2 4685   1.294   0.094   3.682  0.5217  0.6304  0.3822
 1574TIP3    H1 4686   1.253   0.172   3.645 -0.9713 -0.5526 -0.5508
 1574TIP3    H2 4687   1.326   0.044   3.606 -1.3322 -1.1441  0.6746
 1575TIP3   OH2 4688   6.815   5.745   4.335  0.1906 -0.3954 -0.0453
 1575TIP3    H1 4689   6.779   5.658   4.321  0.8201 -0.7055  0.2656
 1575TIP3    H2 4690   6.757   5.785   4.399 -0.5644 -0.2929 -0.7753
 1576TIP3   OH2 4691   2.943   4.777   5.673  0.3613 -0.1423 -0.2381
 1576TIP3    H1 4692   2.986   4.714   5.731  1.9651  1.0689 -0.0597
 1576TIP3    H2 4693   3.015   4.824   5.631 -0.7942  1.1938 -0.7853
 1577TIP3   OH2 4694   2.876   0.972   3.662  0.1609 -0.0037 -0.1114
 1577TIP3    H1 4695   2.854   0.895   3.714 -1.6817  1.1018  0.8362
 1577TIP3    H2 4696   2.952   1.010   3.705  0.8141 -1.0274 -0.3327
 1578TIP3   OH2 4697   0.332   3.329   2.110 -0.6239  0.0986  0.4267
 1578TIP3    H1 4698   0.388   3.392   2.156  0.7629  0.0757 -1.1255
 1578TIP3    H2 4699   0.307   3.375   2.029 -0.5723 -0.9023 -0.1745
 1579TIP3   OH2 4700   5.848   3.654   1.678 -0.4720 -0.3139 -0.1058
 1579TIP3    H1 4701   5.914   3.710   1.637  0.8078 -1.1099  0.7826
 1579TIP3    H2 4702   5.776   3.713   1.698  0.0708  0.6439 -0.8614
 1580TIP3   OH2 4703   1.572   6.450   4.097  0.2860 -0.0600  0.7071
 1580TIP3    H1 4704   1.568   6.502   4.177 -1.6386 -0.5158  0.9520
 1580TIP3    H2 4705   1.656   6.404   4.103  1.7123  2.3589  0.8435
 1581TIP3   OH2 4706   4.196   2.724   4.341 -0.9568 -0.1455 -0.0125
 1581TIP3    H1 4707   4.141   2.646   4.339  1.8372 -2.2700 -0.6142
 1581TIP3    H2 4708   4.279   2.695   4.304  0.1882  3.1979 -0.3608
 1582TIP3   OH2 4709   2.740   5.673   3.426 -0.2384 -0.1558 -0.0080
 1582TIP3    H1 4710   2.731   5.713   3.512 -0.6931 -0.1009 -0.0823
 1582TIP3    H2 4711   2.655   5.685   3.384 -0.2127 -0.7212 -0.2344
 1583TIP3   OH2 4712   6.151   5.044   4.093 -1.0032  0.1082  0.3063
 1583TIP3    H1 4713   6.153   5.097   4.173  0.0161  1.4076 -0.5463
 1583TIP3    H2 4714   6.237   5.003   4.089 -1.0650  0.0110 -0.1069
 1584TIP3   OH2 4715   1.286   1.373   1.500  0.3217 -0.5791  0.0341
 1584TIP3    H1 4716   1.364   1.366   1.553  1.6822  2.3182 -1.3361
 1584TIP3    H2 4717   1.224   1.422   1.554  0.6274 -0.1667  0.0137
 1585TIP3   OH2 4718   3.131   5.311   4.423  0.1616  0.2619  0.2289
 1585TIP3    H1 4719   3.046   5.274   4.445  1.0908 -0.7040  2.4787
 1585TIP3    H2 4720   3.117   5.406   4.423 -1.0559  0.0942 -0.2092
 1586TIP3   OH2 4721   4.709   3.270   2.849  0.6040 -0.1247 -0.3934
 1586TIP3    H1 4722   4.646   3.319   2.902 -0.2645 -1.7808  0.1628
 1586TIP3    H2 4723   4.737   3.332   2.782  1.0494  1.7792  1.4230
 1587TIP3   OH2 4724   1.441   5.817   1.975 -0.2232  0.7281  0.5226
 1587TIP3    H1 4725   1.521   5.869   1.981 -0.2832  0.7297  1.4520
 1587TIP3    H2 4726   1.451   5.749   2.041 -0.5311  0.0787 -0.0795
 1588TIP3   OH2 4727   0.565   1.706   4.556 -0.2164 -0.1849  0.2376
 1588TIP3    H1 4728   0.521   1.747   4.482 -1.9004  1.9003  2.2417
 1588TIP3    H2 4729   0.642   1.663   4.518 -0.1379  2.0969 -2.4959
 1589TIP3   OH2 4730   4.323   0.561   2.766 -0.4216  0.0074  0.6494
 1589TIP3    H1 4731   4.238   0.526   2.741 -0.4880  0.1256  0.7097
 1589TIP3    H2 4732   4.343   0.626   2.700  0.8635 -1.8939 -0.9363
 1590TIP3   OH2 4733   5.510   3.120   3.953 -0.4093  0.3900 -0.0251
 1590TIP3    H1 4734   5.421   3.133   3.921 -1.4334 -2.7120  1.2335
 1590TIP3    H2 4735   5.516   3.174   4.032 -1.8100 -0.6819  0.8458
 1591TIP3   OH2 4736   4.104   0.087   5.461 -0.1570 -0.0383  0.2195
 1591TIP3    H1 4737   4.147   0.118   5.541  0.4664  0.1794 -0.1942
 1591TIP3    H2 4738   4.151   0.007   5.437  0.1787  0.3264 -0.3630
 1592TIP3   OH2 4739   6.367   3.494   3.830  0.0494  0.0664  0.1391
 1592TIP3    H1 4740   6.274   3.471   3.838  0.0608  0.0913  0.3330
 1592TIP3    H2 4741   6.389   3.472   3.739 -0.4790  1.2606 -0.3029
 1593TIP3   OH2 4742   1.610   5.715   5.619  0.0746  0.2903 -0.2697
 1593TIP3    H1 4743   1.547   5.764   5.567 -0.3955 -0.4553 -0.4171
 1593TIP3    H2 4744   1.680   5.693   5.557  0.7596  1.5744  0.0169
 1594TIP3   OH2 4745   2.119   2.418   1.063  0.2154 -0.1740  0.4679
 1594TIP3    H1 4746   2.094   2.507   1.089  1.0425 -0.6429  3.2166
 1594TIP3    H2 4747   2.214   2.421   1.057  0.1247 -0.4141 -1.4945
 1595TIP3   OH2 4748   1.146   0.793   3.724  0.0967 -0.4578  0.3569
 1595TIP3    H1 4749   1.062   0.836   3.741 -0.8699 -1.7867 -0.7422
 1595TIP3    H2 4750   1.212   0.860   3.742 -1.3258  1.7078 -1.7676
 1596TIP3   OH2 4751   0.478   0.294   0.132 -0.1893 -0.1061  0.6311
 1596TIP3    H1 4752   0.522   0.214   0.103  0.8234  0.3239  0.9428
 1596TIP3    H2 4753   0.457   0.278   0.224  0.8944  0.3277  0.9796
 1597TIP3   OH2 4754   3.480   2.549   5.727 -0.4602 -0.0320 -0.0642
 1597TIP3    H1 4755   3.421   2.541   5.652  1.7605 -0.8360 -1.8348
 1597TIP3    H2 4756   3.461   2.473   5.781 -1.3385 -0.0361 -0.3638
 1598TIP3   OH2 4757   3.608   0.524   0.718 -0.1376  0.2695 -0.6906
 1598TIP3    H1 4758   3.607   0.429   0.720  1.5218  0.2403 -0.1895
 1598TIP3    H2 4759   3.616   0.550   0.810  0.9993  0.8352 -0.9302
 1599TIP3   OH2 4760   4.063   4.817   3.966 -0.0861  0.3830 -0.0189
 1599TIP3    H1 4761   4.055   4.862   3.882  1.9409 -1.3682 -1.2553
 1599TIP3    H2 4762   4.003   4.742   3.958 -2.0815  1.7242  1.3245
 1600TIP3   OH2 4763   3.314   5.541   3.103  0.1559  0.1946 -0.2036
 1600TIP3    H1 4764   3.274   5.470   3.154 -2.3657  1.0679 -0.8136
 1600TIP3    H2 4765   3.400   5.554   3.143 -0.4979 -1.2018  1.8286
 1601TIP3   OH2 4766   0.946   2.633   4.204 -0.1358  0.0735  0.1260
 1601TIP3    H1 4767   0.873   2.575   4.180  0.1195  0.0210 -0.5555
 1601TIP3    H2 4768   1.019   2.574   4.223 -0.7248  0.0368  2.5468
 1602TIP3   OH2 4769   1.987   0.228   1.895 -0.1382 -0.0439 -0.0031
 1602TIP3    H1 4770   1.958   0.318   1.884  0.5432  0.1028 -0.6474
 1602TIP3    H2 4771   2.069   0.222   1.845  0.0416 -0.9048  0.3683
 1603TIP3   OH2 4772   0.952   2.045   4.318  0.0051  0.1861  0.4730
 1603TIP3    H1 4773   0.877   2.009   4.271 -0.4569 -1.1349  2.1320
 1603TIP3    H2 4774   0.943   2.140   4.309 -0.8928  0.0031 -0.7821
 1604TIP3   OH2 4775   6.129   5.139   4.958 -0.2359 -0.0210  1.0318
 1604TIP3    H1 4776   6.085   5.192   4.891 -0.8316 -0.5893  0.9579
 1604TIP3    H2 4777   6.132   5.195   5.035 -0.1145  0.4126  0.7148
 1605TIP3   OH2 4778   4.075   2.794   4.630 -0.1596  0.1263  0.1353
 1605TIP3    H1 4779   3.998   2.846   4.652  0.2138  0.6559  0.2128
 1605TIP3    H2 4780   4.061   2.711   4.674 -0.5775  0.3037  0.3456
 1606TIP3   OH2 4781   2.676   3.436   4.729 -0.5617  0.2879  0.4733
 1606TIP3    H1 4782   2.747   3.380   4.695 -0.2242  1.0634 -0.1410
 1606TIP3    H2 4783   2.712   3.472   4.810 -0.1267  0.8981  0.0217
 1607TIP3   OH2 4784   0.531   6.282   4.625  0.0869 -0.3102 -0.0310
 1607TIP3    H1 4785   0.561   6.364   4.663 -1.2035  0.5437 -0.7751
 1607TIP3    H2 4786   0.440   6.274   4.656  0.7593 -2.4863  1.6621
 1608TIP3   OH2 4787   4.854   1.350   3.905  0.2511 -0.7316  0.2920
 1608TIP3    H1 4788   4.888   1.402   3.978  0.6077  1.2601 -1.2403
 1608TIP3    H2 4789   4.922   1.285   3.888  0.1752 -1.2182  1.6595
 1609TIP3   OH2 4790   4.124   2.215   5.249 -0.7442  0.6499 -0.2172
 1609TIP3    H1 4791   4.080   2.214   5.164  0.5118  1.0384 -0.9041
 1609TIP3    H2 4792   4.120   2.125   5.280  0.8168 -0.0340 -1.8123
 1610TIP3   OH2 4793   3.992   6.007   2.957  0.1312 -0.4200 -0.2158
 1610TIP3    H1 4794   4.002   6.034   3.048  0.6384 -1.0561 -0.0735
 1610TIP3    H2 4795   3.934   6.072   2.919 -0.8582 -0.6800  0.8069
 1611TIP3   OH2 4796   2.368   0.104   3.252  0.4110 -0.2509 -0.0258
 1611TIP3    H1 4797   2.391   0.142   3.168  0.4682 -1.7279 -0.7056
 1611TIP3    H2 4798   2.311   0.168   3.293  0.8523  0.7386 -0.9369
 1612TIP3   OH2 4799   7.189   1.489   1.947 -0.0408  0.0404 -0.0505
 1612TIP3    H1 4800   7.226   1.413   1.900  1.2016  0.3465  0.3955
 1612TIP3    H2 4801   7.097   1.492   1.919  0.6314  0.1712 -2.4209
 1613TIP3   OH2 4802   2.232   3.144   0.976 -0.8043 -0.3081  0.1298
 1613TIP3    H1 4803   2.243   3.203   0.901 -1.8539  1.9805  1.6841
 1613TIP3    H2 4804   2.139   3.119   0.972 -1.0703  0.4776  1.0857
 1614TIP3   OH2 4805   0.397   5.957   0.441  0.0802  0.4218  0.0620
 1614TIP3    H1 4806   0.329   5.890   0.450  0.6185 -0.0590  0.7148
 1614TIP3    H2 4807   0.368   6.029   0.497  1.6125 -1.0697  3.0282
 1615TIP3   OH2 4808   4.287   6.050   5.020 -0.7669  0.0393  0.0573
 1615TIP3    H1 4809   4.316   6.002   4.942  0.1315  2.1513 -0.9909
 1615TIP3    H2 4810   4.316   6.140   5.005 -0.5023  0.5172  2.8903
 1616TIP3   OH2 4811   5.776   6.742   0.676 -0.0306  0.6370 -0.3231
 1616TIP3    H1 4812   5.831   6.794   0.617 -0.5297  0.2180 -1.1737
 1616TIP3    H2 4813   5.831   6.725   0.752  1.9662 -1.8273 -2.1359
 1617TIP3   OH2 4814   1.277   2.166   2.218  0.5385 -0.8725 -0.0884
 1617TIP3    H1 4815   1.280   2.106   2.292  1.2859 -0.9507 -0.1670
 1617TIP3    H2 4816   1.272   2.253   2.258  0.3079 -0.9448  0.0408
 1618TIP3   OH2 4817   1.583   2.126   1.845 -0.3871 -0.2373  0.5111
 1618TIP3    H1 4818   1.635   2.203   1.867 -1.2393 -0.0755  2.0641
 1618TIP3    H2 4819   1.611   2.103   1.756  1.2581  0.7126  0.7433
 1619TIP3   OH2 4820   2.714   1.738   3.318  0.3670 -0.4471  0.0962
 1619TIP3    H1 4821   2.718   1.769   3.227  2.2243  1.0638  0.6518
 1619TIP3    H2 4822   2.793   1.686   3.329  0.7771  0.3921  1.1984
 1620TIP3   OH2 4823   6.366   5.880   5.370 -0.1069 -0.5517 -0.5528
 1620TIP3    H1 4824   6.456   5.903   5.394  0.4330 -2.0546 -0.9978
 1620TIP3    H2 4825   6.346   5.803   5.424 -0.5847 -1.1032 -1.4943
 1621TIP3   OH2 4826   0.740   3.526   3.550  0.4164  0.3179  0.1027
 1621TIP3    H1 4827   0.702   3.549   3.466  1.2156  0.6714 -0.1777
 1621TIP3    H2 4828   0.833   3.512   3.532  0.4511 -0.4285  0.7778
 1622TIP3   OH2 4829   5.144   6.107   3.262  0.4518  0.2423 -0.3625
 1622TIP3    H1 4830   5.063   6.084   3.218  0.5674  0.3074 -0.6073
 1622TIP3    H2 4831   5.199   6.028   3.256 -0.1965 -0.3778  1.2151
 1623TIP3   OH2 4832   3.812   5.456   0.357  0.9255 -0.0004 -0.0642
 1623TIP3    H1 4833   3.794   5.509   0.279  0.3250 -1.6905 -1.1328
 1623TIP3    H2 4834   3.905   5.471   0.375  1.2296 -0.0337 -1.4907
 1624TIP3   OH2 4835   5.471   0.852   4.028 -0.1985 -0.4156  0.6605
 1624TIP3    H1 4836   5.474   0.760   4.005 -1.1518 -0.0523 -1.0890
 1624TIP3    H2 4837   5.391   0.861   4.081  0.1875 -0.6758  1.2950
 1625TIP3   OH2 4838   6.270   1.428   2.220 -0.4165 -0.3190 -0.5294
 1625TIP3    H1 4839   6.207   1.418   2.291  0.3691 -0.5225  0.1600
 1625TIP3    H2 4840   6.246   1.360   2.157 -0.7838 -0.4989 -0.2000
 1626TIP3   OH2 4841   1.574   3.721   5.818 -0.0630  0.2429  0.3165
 1626TIP3    H1 4842   1.538   3.651   5.764  0.8150  0.9786 -1.3100
 1626TIP3    H2 4843   1.500   3.756   5.866 -0.5564 -1.6449  1.0359
 1627TIP3   OH2 4844   4.731   2.367   1.494 -0.3008  0.0237 -0.5520
 1627TIP3    H1 4845   4.695   2.380   1.406 -1.7223 -1.1767 -0.1975
 1627TIP3    H2 4846   4.724   2.453   1.536  2.7806  1.3007 -2.3523
 1628TIP3   OH2 4847   5.714   2.230   4.020 -0.3580  0.3065 -0.2818
 1628TIP3    H1 4848   5.802   2.267   4.032 -0.0188  0.4446 -2.6333
 1628TIP3    H2 4849   5.655   2.299   4.051  0.3513  0.8977 -0.2087
 1629TIP3   OH2 4850   1.534   1.628   4.951 -0.5945 -0.3750 -0.1160
 1629TIP3    H1 4851   1.495   1.640   5.037 -1.8007 -1.1398 -0.5328
 1629TIP3    H2 4852   1.474   1.672   4.891  0.0172 -0.2073 -0.6156
 1630TIP3   OH2 4853   3.789   4.017   1.047  0.2652  0.0151  0.3691
 1630TIP3    H1 4854   3.850   4.007   1.120  1.7702 -0.6714 -0.9191
 1630TIP3    H2 4855   3.775   4.112   1.041 -0.0748  0.0625  1.6717
 1631TIP3   OH2 4856   6.644   0.985   2.185  0.0869  0.7941  1.0655
 1631TIP3    H1 4857   6.727   1.005   2.228  1.3665  0.5742 -1.1449
 1631TIP3    H2 4858   6.595   0.936   2.251  1.1111  2.1117  2.9211
 1632TIP3   OH2 4859   6.206   3.086   3.316  0.0121 -0.4320 -0.7100
 1632TIP3    H1 4860   6.130   3.048   3.361  0.9243  0.9720  2.2815
 1632TIP3    H2 4861   6.238   3.015   3.260 -2.2482 -1.7347 -0.5187
 1633TIP3   OH2 4862   1.848   0.027   5.415  0.0630 -0.1739 -0.4377
 1633TIP3    H1 4863   1.920   0.087   5.433 -0.2084  0.0451 -0.0610
 1633TIP3    H2 4864   1.832   0.035   5.321  0.7213 -0.4428 -0.5763
 1634TIP3   OH2 4865   5.204   3.622   2.048 -0.0311  0.1112 -0.2830
 1634TIP3    H1 4866   5.238   3.648   2.133 -0.2082  1.0157 -0.4756
 1634TIP3    H2 4867   5.248   3.681   1.986 -0.8887  0.3592 -0.6710
 1635TIP3   OH2 4868   0.560   3.593   5.755  0.4134  0.1651 -0.0610
 1635TIP3    H1 4869   0.472   3.606   5.791  0.7736  1.3719  0.4547
 1635TIP3    H2 4870   0.573   3.498   5.754 -0.4733  0.0215  0.8867
 1636TIP3   OH2 4871   6.870   5.051   5.720  0.3725  0.2587  0.4470
 1636TIP3    H1 4872   6.917   5.131   5.699  0.0293  0.8630  1.8683
 1636TIP3    H2 4873   6.818   5.073   5.797 -2.2506 -0.3684 -1.0287
 1637TIP3   OH2 4874   4.615   4.377   0.822  0.3022  0.0762 -0.7067
 1637TIP3    H1 4875   4.579   4.453   0.868  1.1558  0.1644 -0.1492
 1637TIP3    H2 4876   4.541   4.339   0.775 -0.3496  0.6469 -0.1545
 1638TIP3   OH2 4877   4.416   3.757   2.868 -0.1041  0.0466  0.2067
 1638TIP3    H1 4878   4.454   3.841   2.842 -0.5492  0.0914 -0.3030
 1638TIP3    H2 4879   4.352   3.780   2.936 -0.7091  0.1967 -0.4072
 1639TIP3   OH2 4880   0.757   6.244   3.713  0.3777 -0.7017  0.3526
 1639TIP3    H1 4881   0.781   6.250   3.805  3.0138  0.0925 -0.3012
 1639TIP3    H2 4882   0.699   6.319   3.698  0.3817 -0.5150  1.2402
 1640TIP3   OH2 4883   2.034   3.624   0.846 -0.4984 -0.3753 -0.4675
 1640TIP3    H1 4884   2.080   3.660   0.770 -2.6479  0.2695 -1.5339
 1640TIP3    H2 4885   1.944   3.611   0.816 -0.9624 -1.9343  1.4215
 1641TIP3   OH2 4886   4.593   5.925   0.045  0.5357  0.5126 -0.3748
 1641TIP3    H1 4887   4.658   5.867   0.006  1.7375 -0.0040  2.1535
 1641TIP3    H2 4888   4.535   5.948  -0.027  1.7924 -1.3829 -2.1162
 1642TIP3   OH2 4889   1.995   2.047   1.861 -0.2056 -0.2143 -0.2264
 1642TIP3    H1 4890   2.024   1.986   1.929 -0.7129 -0.7228 -0.4587
 1642TIP3    H2 4891   1.992   2.132   1.906  1.3319 -0.1911 -0.1304
 1643TIP3   OH2 4892   1.749   5.694   1.413  0.0673 -0.5870 -0.4366
 1643TIP3    H1 4893   1.771   5.626   1.349  0.5950 -0.2594 -0.6058
 1643TIP3    H2 4894   1.657   5.679   1.432  0.8454 -3.3751  1.9164
 1644TIP3   OH2 4895   2.190   1.394   3.012 -0.0109  0.6664  0.1350
 1644TIP3    H1 4896   2.274   1.353   3.027 -0.6755 -0.7383  0.1670
 1644TIP3    H2 4897   2.204   1.487   3.031  1.2498  0.2861  1.1503
 1645TIP3   OH2 4898   4.957   5.255   1.034  0.1114 -0.2137 -0.2416
 1645TIP3    H1 4899   4.878   5.204   1.050 -0.0610  0.1266  0.0123
 1645TIP3    H2 4900   5.029   5.193   1.046 -0.1058 -0.4421 -0.1262
 1646TIP3   OH2 4901   2.457   2.451   4.069 -0.2341 -0.0269  0.4094
 1646TIP3    H1 4902   2.375   2.408   4.044 -0.3886  1.4076 -1.8213
 1646TIP3    H2 4903   2.431   2.541   4.090  0.8289  0.6450 -1.0560
 1647TIP3   OH2 4904   5.135   3.083   3.310 -0.4911  0.0979 -0.2761
 1647TIP3    H1 4905   5.143   3.179   3.314 -0.5576  0.0798  0.3399
 1647TIP3    H2 4906   5.223   3.051   3.332 -0.4643  0.0198 -0.5004
 1648TIP3   OH2 4907   1.715   6.711   2.333  0.0731 -0.2391  0.1483
 1648TIP3    H1 4908   1.735   6.769   2.407 -1.0333 -0.4947  0.6693
 1648TIP3    H2 4909   1.747   6.626   2.360  1.3265  0.0292 -0.4459
 1649TIP3   OH2 4910   0.358   1.913   4.214 -0.3900 -0.5450 -0.0074
 1649TIP3    H1 4911   0.385   2.004   4.205 -0.0094 -0.4551  1.6952
 1649TIP3    H2 4912   0.268   1.917   4.245 -0.1545 -0.7315  0.7125
 1650TIP3   OH2 4913   2.349   1.623   3.796 -0.2090 -0.4940  0.1669
 1650TIP3    H1 4914   2.373   1.558   3.730  0.5384 -0.7442  0.6684
 1650TIP3    H2 4915   2.403   1.700   3.774  1.3029 -1.1362  1.4359
 1651TIP3   OH2 4916   5.734   6.674   4.899 -0.0464  0.4661  0.2123
 1651TIP3    H1 4917   5.729   6.588   4.856  1.8626  1.6748 -2.7333
 1651TIP3    H2 4918   5.671   6.668   4.971 -1.0766 -2.8784 -0.7670
 1652TIP3   OH2 4919   1.928   6.614   2.207 -0.3959  0.5664 -0.0682
 1652TIP3    H1 4920   1.952   6.556   2.279  0.8646  0.9579 -0.1389
 1652TIP3    H2 4921   1.844   6.652   2.233  0.5609  1.5522  1.7494
 1653TIP3   OH2 4922   4.330   4.760   1.742 -0.5382  0.0675 -0.1016
 1653TIP3    H1 4923   4.406   4.787   1.792  1.2101 -2.4120 -1.2250
 1653TIP3    H2 4924   4.261   4.822   1.766  0.8408  0.3751  3.5101
 1654TIP3   OH2 4925   0.278   5.449   3.830  0.2064 -0.0136 -0.1030
 1654TIP3    H1 4926   0.330   5.417   3.904  0.0589 -0.0360 -0.0082
 1654TIP3    H2 4927   0.336   5.512   3.786  0.7115 -0.8319 -0.6246
 1655TIP3   OH2 4928   5.002   4.287   5.022 -0.3397  0.1890 -0.2300
 1655TIP3    H1 4929   5.049   4.354   4.972 -0.9510  0.0610 -1.0078
 1655TIP3    H2 4930   4.929   4.334   5.062  0.0948  0.2720  0.4792
 1656TIP3   OH2 4931   3.250   6.078   5.546  0.1724  0.4296 -0.5910
 1656TIP3    H1 4932   3.216   6.117   5.626 -0.4159 -0.1229 -0.5719
 1656TIP3    H2 4933   3.226   5.985   5.551  0.1695  0.3780 -1.3835
 1657TIP3   OH2 4934   6.649   3.120  -0.007  0.1648 -0.6144 -0.1861
 1657TIP3    H1 4935   6.701   3.195  -0.037 -0.0208 -0.7117 -0.7720
 1657TIP3    H2 4936   6.703   3.077   0.059  1.0355 -0.9893 -1.1231
 1658TIP3   OH2 4937   0.241   3.248   1.445  0.2606 -0.4512  0.4373
 1658TIP3    H1 4938   0.282   3.230   1.530  2.9870  1.8453 -0.2239
 1658TIP3    H2 4939   0.183   3.322   1.462  1.2443  0.3855  0.2453
 1659TIP3   OH2 4940   5.374   4.954   4.462  0.1986 -0.5579  0.2532
 1659TIP3    H1 4941   5.280   4.941   4.476 -0.5146  1.7775 -1.6379
 1659TIP3    H2 4942   5.401   5.013   4.533 -0.1243 -0.0495 -0.0422
 1660TIP3   OH2 4943   3.436   6.701   2.299 -0.3206  0.2391  0.3479
 1660TIP3    H1 4944   3.406   6.615   2.330 -0.6269  0.1920 -0.0790
 1660TIP3    H2 4945   3.390   6.715   2.216 -1.5498  1.5342  1.1870
 1661TIP3   OH2 4946   1.659   3.687   2.736  0.0161  0.2202  0.0256
 1661TIP3    H1 4947   1.622   3.646   2.658  1.5925 -1.1773 -0.0339
 1661TIP3    H2 4948   1.729   3.744   2.703  0.6180 -0.2900  0.3981
 1662TIP3   OH2 4949   0.140   0.409   1.729 -0.0378  0.6709 -0.1493
 1662TIP3    H1 4950   0.211   0.402   1.792  0.4791  0.1655 -0.7829
 1662TIP3    H2 4951   0.073   0.460   1.775  0.2476  0.1503  0.8733
 1663TIP3   OH2 4952   3.754   5.712   3.162 -0.3610 -0.4389 -0.0240
 1663TIP3    H1 4953   3.803   5.641   3.204 -1.2844 -1.1115 -0.0551
 1663TIP3    H2 4954   3.789   5.791   3.202  1.1170 -0.8529 -0.4162
 1664TIP3   OH2 4955   4.049   3.795   0.848 -0.1103  0.1531  0.0731
 1664TIP3    H1 4956   4.065   3.732   0.918 -0.7929  0.1981  0.2803
 1664TIP3    H2 4957   4.131   3.799   0.800  0.6882  0.8401  1.4414
 1665TIP3   OH2 4958   5.936   3.963   4.597 -0.3533  0.1307  0.1477
 1665TIP3    H1 4959   5.922   4.006   4.513  2.5066  0.8550 -0.0592
 1665TIP3    H2 4960   5.848   3.954   4.634 -1.7194 -0.3600 -2.9260
 1666TIP3   OH2 4961   3.487   4.273   3.834 -0.1611 -0.6870 -0.2974
 1666TIP3    H1 4962   3.443   4.189   3.846 -0.3889 -0.3220  1.7978
 1666TIP3    H2 4963   3.423   4.338   3.865  0.8007  0.0764  0.1452
 1667TIP3   OH2 4964   5.356   6.258   3.352  0.3411  0.8301  0.1130
 1667TIP3    H1 4965   5.278   6.208   3.328  1.4458 -1.5169  1.1346
 1667TIP3    H2 4966   5.394   6.286   3.268 -1.5105  1.9675 -0.3966
 1668TIP3   OH2 4967   3.901   6.224   1.896  0.2541  0.0373  0.6850
 1668TIP3    H1 4968   3.956   6.152   1.865  0.5061  0.0066  1.2114
 1668TIP3    H2 4969   3.812   6.193   1.881  0.3530 -0.5343  1.2441
 1669TIP3   OH2 4970   4.093   4.015   0.403  0.3335  0.5039  0.4836
 1669TIP3    H1 4971   4.103   4.049   0.491 -0.7239 -1.6262  1.5149
 1669TIP3    H2 4972   4.005   3.978   0.401  0.6673 -0.3377 -1.1353
 1670TIP3   OH2 4973   1.488   4.311   2.407 -0.3911 -0.2724  0.4388
 1670TIP3    H1 4974   1.495   4.256   2.485 -0.7903 -0.1933  0.5358
 1670TIP3    H2 4975   1.402   4.289   2.371 -0.1710 -0.3715 -0.0286
 1671TIP3   OH2 4976   6.197   2.961   0.256 -0.1558 -0.0407  0.2322
 1671TIP3    H1 4977   6.132   3.001   0.199 -0.2085  0.1276  0.4089
 1671TIP3    H2 4978   6.280   2.969   0.208 -0.1538  0.3549  0.3046
 1672TIP3   OH2 4979   1.576   0.087   3.801 -0.2552 -0.2434  0.0369
 1672TIP3    H1 4980   1.570   0.121   3.890  0.1108  1.7384 -0.6427
 1672TIP3    H2 4981   1.487   0.065   3.776 -0.6776  1.1974  0.1887
 1673TIP3   OH2 4982   2.456   3.466   1.731 -0.1974  0.0341 -0.0905
 1673TIP3    H1 4983   2.513   3.535   1.764 -1.0211  1.0753 -0.7692
 1673TIP3    H2 4984   2.369   3.507   1.727 -0.5015 -0.6845 -1.5589
 1674TIP3   OH2 4985   1.441   0.312   2.869  0.1482 -0.4292 -0.0671
 1674TIP3    H1 4986   1.441   0.381   2.935  1.0880 -0.5286  0.0562
 1674TIP3    H2 4987   1.505   0.248   2.902 -3.1054 -3.1548  1.6289
 1675TIP3   OH2 4988   3.515   3.420   2.190 -0.0701 -0.3597 -0.6665
 1675TIP3    H1 4989   3.505   3.485   2.120 -0.6508  0.0818 -0.1904
 1675TIP3    H2 4990   3.448   3.354   2.171 -0.4775 -0.0484 -0.3266
 1676TIP3   OH2 4991   5.418   4.878   0.113 -0.2033 -0.0890  0.6584
 1676TIP3    H1 4992   5.445   4.957   0.160 -0.8906  0.4332  0.2089
 1676TIP3    H2 4993   5.322   4.880   0.116 -0.2672 -0.1046 -0.6506
 1677TIP3   OH2 4994   2.161   5.658   3.884 -0.3821  0.8019 -0.3545
 1677TIP3    H1 4995   2.235   5.623   3.935 -1.0636  2.3721  1.8418
 1677TIP3    H2 4996   2.187   5.747   3.862 -0.1969  0.2236 -2.6925
 1678TIP3   OH2 4997   5.671   4.222   1.386 -0.1858 -0.0916 -0.3094
 1678TIP3    H1 4998   5.709   4.162   1.322 -0.6586  0.4450 -1.1246
 1678TIP3    H2 4999   5.689   4.182   1.471  0.7309 -0.6695 -0.7595
 1679TIP3   OH2 5000   2.454   3.485   2.361  0.1312  0.1577  0.0226
 1679TIP3    H1 5001   2.480   3.536   2.284  0.3585 -1.4241 -1.0070
 1679TIP3    H2 5002   2.359   3.478   2.353  0.2483 -0.8826 -0.7404
 1680TIP3   OH2 5003   5.597   4.202   0.470  0.1752 -0.1544 -0.1978
 1680TIP3    H1 5004   5.579   4.159   0.553 -0.3394 -0.4433 -0.4546
 1680TIP3    H2 5005   5.523   4.180   0.414  0.0804  0.7607 -0.4583
 1681TIP3   OH2 5006   6.127   3.396   3.148  0.2722 -0.1709 -0.2382
 1681TIP3    H1 5007   6.144   3.381   3.241  0.8840 -0.0703 -0.3267
 1681TIP3    H2 5008   6.214   3.391   3.108  0.0681  0.2633 -0.7336
 1682TIP3   OH2 5009   4.065   3.180   2.555 -0.2263  0.1083  0.6611
 1682TIP3    H1 5010   3.973   3.202   2.538 -0.6868 -1.6523  0.5619
 1682TIP3    H2 5011   4.060   3.105   2.615  1.1779  0.4580  1.2558
 1683TIP3   OH2 5012   1.283   3.714   0.126  0.6637  0.2943  0.2948
 1683TIP3    H1 5013   1.343   3.680   0.192 -0.2606 -0.9862  0.5139
 1683TIP3    H2 5014   1.282   3.646   0.058 -1.1723 -0.1669  0.7071
 1684TIP3   OH2 5015   3.835   4.120   5.683 -0.2543  0.1253 -0.2801
 1684TIP3    H1 5016   3.912   4.172   5.663  1.1812 -1.2217  1.4192
 1684TIP3    H2 5017   3.803   4.090   5.598  0.6686  1.2922 -1.0582
 1685TIP3   OH2 5018   1.086   4.463   4.671  0.5200  0.0564  0.2965
 1685TIP3    H1 5019   1.070   4.498   4.583  0.4566  0.0525  0.3062
 1685TIP3    H2 5020   1.012   4.405   4.688  1.4050 -1.3341 -0.3554
 1686TIP3   OH2 5021   1.405   0.750   3.968 -0.7174 -0.4739  0.3477
 1686TIP3    H1 5022   1.457   0.761   3.889 -3.0017 -1.9534 -1.4905
 1686TIP3    H2 5023   1.456   0.690   4.022  0.6922  0.2326 -0.1407
 1687TIP3   OH2 5024   0.768   1.981   4.601  0.4599 -0.3748 -0.5260
 1687TIP3    H1 5025   0.761   1.959   4.508  1.5198  0.7199 -0.9029
 1687TIP3    H2 5026   0.862   1.980   4.618  0.4534  1.6913 -0.0737
 1688TIP3   OH2 5027   2.750   4.661   0.310  0.0316  0.4609  0.2947
 1688TIP3    H1 5028   2.783   4.665   0.220  2.3192  0.2121  1.0549
 1688TIP3    H2 5029   2.767   4.747   0.346 -1.0752  0.6261  0.4644
 1689TIP3   OH2 5030   1.847   6.798   4.901 -0.1888 -0.3278  0.2248
 1689TIP3    H1 5031   1.912   6.859   4.864 -0.4162 -0.3921 -0.2924
 1689TIP3    H2 5032   1.890   6.712   4.896 -0.5663 -0.4783 -0.7786
 1690TIP3   OH2 5033   1.948   3.799   4.414 -0.3797  0.1107 -0.4356
 1690TIP3    H1 5034   2.041   3.820   4.402 -0.1683 -0.5834 -0.0608
 1690TIP3    H2 5035   1.930   3.734   4.346 -0.3287 -0.5053  0.1347
 1691TIP3   OH2 5036   4.630   0.595   5.827  0.5549  0.2407  0.1501
 1691TIP3    H1 5037   4.620   0.685   5.860  0.6120  0.2573  0.1213
 1691TIP3    H2 5038   4.540   0.563   5.821  0.5320  0.3062  0.1326
 1692TIP3   OH2 5039   2.377   0.879   3.763  0.6736 -0.6748  0.0930
 1692TIP3    H1 5040   2.352   0.811   3.700  1.7761 -0.8115 -0.2193
 1692TIP3    H2 5041   2.331   0.855   3.844  2.2611 -2.7037  0.4541
 1693TIP3   OH2 5042   2.655   2.949   3.596 -0.5166 -0.1733 -0.2789
 1693TIP3    H1 5043   2.685   3.021   3.652  0.7109  1.6088 -3.0044
 1693TIP3    H2 5044   2.561   2.965   3.585 -0.9300 -0.9431  1.6820
 1694TIP3   OH2 5045   1.688   5.399   0.571 -0.0234  0.4861 -0.6671
 1694TIP3    H1 5046   1.721   5.327   0.516 -1.8856 -0.5876 -0.4347
 1694TIP3    H2 5047   1.594   5.397   0.559 -0.2995  1.5058  1.0597
 1695TIP3   OH2 5048   6.533   5.268   2.111  0.2030  0.0106 -0.1749
 1695TIP3    H1 5049   6.555   5.259   2.018  1.6748 -0.3742  0.1877
 1695TIP3    H2 5050   6.475   5.194   2.130  0.8851 -0.6121 -0.5025
 1696TIP3   OH2 5051   3.122   3.914   2.729  0.2879  0.1839  0.2800
 1696TIP3    H1 5052   3.058   3.849   2.757 -1.2284  0.7818 -1.6168
 1696TIP3    H2 5053   3.196   3.901   2.788 -0.7369 -1.9324  1.2087
 1697TIP3   OH2 5054   6.924   5.382   3.317  0.2841  0.1614  0.2908
 1697TIP3    H1 5055   6.948   5.378   3.224 -1.0556 -0.0186 -0.0619
 1697TIP3    H2 5056   6.981   5.449   3.354  2.5445 -1.4025 -0.1155
 1698TIP3   OH2 5057   7.022   6.386   2.087 -0.3259  0.2328 -0.4979
 1698TIP3    H1 5058   7.055   6.298   2.103  2.3702  1.1848 -0.3902
 1698TIP3    H2 5059   6.942   6.391   2.139  1.0448 -1.1855  1.9299
 1699TIP3   OH2 5060   6.129   1.662   1.571 -0.7575  0.1722  0.2731
 1699TIP3    H1 5061   6.193   1.696   1.509 -0.6556 -0.9263 -0.2366
 1699TIP3    H2 5062   6.178   1.599   1.624 -1.3888 -0.6365 -0.0888
 1700TIP3   OH2 5063   6.572   5.937   0.269  0.2579 -0.0053  0.8541
 1700TIP3    H1 5064   6.655   5.907   0.232 -0.0463 -0.6891  0.7138
 1700TIP3    H2 5065   6.550   5.871   0.335  0.2009  0.5721  1.4246
 1701TIP3   OH2 5066   3.562   5.427   1.998  0.1126  0.1582  0.4107
 1701TIP3    H1 5067   3.565   5.366   2.072 -0.1418  0.5096  0.7107
 1701TIP3    H2 5068   3.547   5.513   2.037  0.1772  0.3768 -0.0337
 1702TIP3   OH2 5069   2.170   3.486   2.405  0.4507  0.3703  0.1052
 1702TIP3    H1 5070   2.108   3.414   2.395  1.3585 -0.3296 -0.6184
 1702TIP3    H2 5071   2.174   3.501   2.500 -2.1064  1.6167  0.1120
 1703TIP3   OH2 5072   4.395   4.506   5.884 -0.0602 -0.2624 -0.3348
 1703TIP3    H1 5073   4.412   4.494   5.791  1.6029  0.8577 -0.2231
 1703TIP3    H2 5074   4.345   4.588   5.888  0.0163 -0.2201 -0.2437
 1704TIP3   OH2 5075   7.029   4.873   3.009  0.1850 -0.0804 -0.1624
 1704TIP3    H1 5076   6.990   4.943   3.061 -0.5627  0.2757 -1.1738
 1704TIP3    H2 5077   7.108   4.912   2.972  1.0254 -0.5003  1.0868
 1705TIP3   OH2 5078   0.238   5.120   5.283 -0.9117 -0.2120 -0.2887
 1705TIP3    H1 5079   0.186   5.115   5.363 -0.6955  1.7281  0.0350
 1705TIP3    H2 5080   0.328   5.103   5.312 -0.9622 -0.4412 -0.2718
 1706TIP3   OH2 5081   1.322   2.716   4.740  0.0208 -0.0677  0.4796
 1706TIP3    H1 5082   1.338   2.761   4.657 -1.1125 -0.8344 -0.1897
 1706TIP3    H2 5083   1.404   2.723   4.788  1.0694 -0.5929 -1.1765
 1707TIP3   OH2 5084   0.736   4.256   0.637  0.0208 -0.6264 -0.0415
 1707TIP3    H1 5085   0.817   4.213   0.611  0.6578 -0.1521  1.0662
 1707TIP3    H2 5086   0.719   4.320   0.568  0.0838 -1.3587 -0.7425
 1708TIP3   OH2 5087   0.581   3.178   1.769 -0.0881  0.0897  0.6540
 1708TIP3    H1 5088   0.506   3.230   1.740 -0.7918 -0.3212  1.7058
 1708TIP3    H2 5089   0.547   3.123   1.840  0.8381 -1.2169  0.1276
 1709TIP3   OH2 5090   4.044   2.349   5.670  0.2460  0.7320 -0.3387
 1709TIP3    H1 5091   4.100   2.369   5.745  0.5787  0.2053 -0.4429
 1709TIP3    H2 5092   4.010   2.262   5.689 -1.3765  1.4554  0.2276
 1710TIP3   OH2 5093   1.417   0.285   1.520  0.5404 -0.3648  0.1375
 1710TIP3    H1 5094   1.348   0.307   1.457 -0.0643 -0.7684  0.6427
 1710TIP3    H2 5095   1.384   0.316   1.604  0.7920 -0.9269  0.4508
 1711TIP3   OH2 5096   2.554   2.469   3.526  0.1535  0.1274 -0.0273
 1711TIP3    H1 5097   2.548   2.382   3.565  0.1814 -0.0411 -0.3951
 1711TIP3    H2 5098   2.487   2.470   3.458 -0.0401  0.4952  0.1615
 1712TIP3   OH2 5099   7.185   1.760   0.544  0.0366 -0.3068 -0.2688
 1712TIP3    H1 5100   7.151   1.823   0.480  0.0822  0.8052  0.7897
 1712TIP3    H2 5101   7.257   1.716   0.498 -0.1383  0.2410 -1.0922
 1713TIP3   OH2 5102   2.895   2.205   0.298  0.2049  0.7712  0.0864
 1713TIP3    H1 5103   2.858   2.287   0.266  0.3346  1.6239  2.0218
 1713TIP3    H2 5104   2.825   2.164   0.348 -1.0921 -2.1036 -3.5793
 1714TIP3   OH2 5105   0.708   1.524   4.407 -0.3084 -0.2261  0.3403
 1714TIP3    H1 5106   0.746   1.525   4.319 -1.7001 -1.7177 -0.3449
 1714TIP3    H2 5107   0.634   1.464   4.399 -0.9135  0.2017  2.3645
 1715TIP3   OH2 5108   2.111   4.810   1.633 -0.1657  0.1905  0.2483
 1715TIP3    H1 5109   2.202   4.836   1.647 -0.2390  0.5959 -0.0048
 1715TIP3    H2 5110   2.089   4.756   1.709  0.9545 -1.7366 -0.7338
 1716TIP3   OH2 5111   6.389   4.779   4.823  0.5783 -0.2155 -0.0873
 1716TIP3    H1 5112   6.337   4.752   4.748 -1.3681 -1.3040  1.5576
 1716TIP3    H2 5113   6.412   4.697   4.867  0.2658  0.4600  1.3870
 1717TIP3   OH2 5114   3.384   0.458   0.527 -0.2006 -0.3703  0.0534
 1717TIP3    H1 5115   3.290   0.443   0.514  0.2946 -2.4768 -1.5988
 1717TIP3    H2 5116   3.411   0.388   0.586 -0.1321  2.0141  3.0755
 1718TIP3   OH2 5117   6.984   5.790   2.553 -0.0886 -0.0208 -0.3781
 1718TIP3    H1 5118   6.950   5.811   2.640 -1.0969  0.0810 -0.7845
 1718TIP3    H2 5119   6.952   5.702   2.534 -0.2069  0.1106 -0.8101
 1719TIP3   OH2 5120   2.853   0.746   2.887 -0.4288 -0.2437  0.1481
 1719TIP3    H1 5121   2.825   0.831   2.922  0.3786  0.0178  0.1814
 1719TIP3    H2 5122   2.778   0.688   2.901 -2.0239  1.0709 -2.1983
 1720TIP3   OH2 5123   5.804   3.071   5.413 -0.0953 -0.0698  0.4134
 1720TIP3    H1 5124   5.737   3.121   5.366  1.4913  1.6644 -0.0951
 1720TIP3    H2 5125   5.887   3.102   5.378  1.0544 -1.1281  2.0337
 1721TIP3   OH2 5126   3.619   6.347   5.632 -0.2862  0.2223 -0.3813
 1721TIP3    H1 5127   3.676   6.362   5.556  1.2926  0.9560  0.8677
 1721TIP3    H2 5128   3.543   6.301   5.597  0.4086  0.5027 -2.3856
 1722TIP3   OH2 5129   3.778   1.403   4.690 -0.1934 -0.4786  0.4729
 1722TIP3    H1 5130   3.719   1.443   4.754  1.9734  0.0409  2.2786
 1722TIP3    H2 5131   3.851   1.370   4.743  1.2289 -0.9301 -1.6616
 1723TIP3   OH2 5132   1.780   1.572   4.326  0.7710  0.3987  0.2472
 1723TIP3    H1 5133   1.851   1.567   4.389 -0.7890  0.6383  2.1454
 1723TIP3    H2 5134   1.786   1.492   4.275 -0.2255 -1.9001  3.4170
 1724TIP3   OH2 5135   5.878   3.380   4.963 -0.1778 -0.3903 -0.0604
 1724TIP3    H1 5136   5.792   3.354   4.929  0.2060 -1.0231 -0.5458
 1724TIP3    H2 5137   5.936   3.377   4.888  0.2480  0.2028  0.2334
 1725TIP3   OH2 5138   6.165   3.449   2.317  0.2272 -0.1224  0.1310
 1725TIP3    H1 5139   6.216   3.444   2.237  0.0738  2.8092 -0.2681
 1725TIP3    H2 5140   6.231   3.458   2.387  0.3211 -1.2067  0.1986
 1726TIP3   OH2 5141   3.233   6.208   5.071 -0.1208  0.0724  0.3660
 1726TIP3    H1 5142   3.271   6.294   5.054 -0.4536  0.0972 -0.2826
 1726TIP3    H2 5143   3.291   6.169   5.137  1.1646  0.0166 -0.7495
 1727TIP3   OH2 5144   3.512   1.050   2.772  0.2910 -0.7176 -0.1848
 1727TIP3    H1 5145   3.569   1.008   2.707  1.2337  1.7896 -1.0887
 1727TIP3    H2 5146   3.568   1.058   2.850  1.3218  1.7692 -1.0810
 1728TIP3   OH2 5147   6.736   2.347   2.514  0.0454 -0.0094 -0.0407
 1728TIP3    H1 5148   6.720   2.263   2.471  1.3263 -0.2258 -0.1251
 1728TIP3    H2 5149   6.663   2.357   2.575 -2.7457  1.0353 -3.2377
 1729TIP3   OH2 5150   4.387   2.065   0.962  0.2133 -0.0589 -0.0711
 1729TIP3    H1 5151   4.334   2.027   1.033  0.3566 -0.1884 -0.0323
 1729TIP3    H2 5152   4.464   2.101   1.006 -0.0563  0.5301 -0.0783
 1730TIP3   OH2 5153   3.431   5.803   0.310 -0.3865  0.3851 -0.4249
 1730TIP3    H1 5154   3.376   5.786   0.233 -0.4478  0.3456 -0.3727
 1730TIP3    H2 5155   3.415   5.728   0.368 -0.5324  0.5393 -0.2652
 1731TIP3   OH2 5156   5.710   5.873   2.087  0.4418 -0.4491  0.1663
 1731TIP3    H1 5157   5.696   5.961   2.053 -0.5022 -0.8611 -0.5630
 1731TIP3    H2 5158   5.785   5.840   2.037 -0.3102 -0.6839 -0.8306
 1732TIP3   OH2 5159   0.646   2.549   0.918  0.2285  0.9875  0.4909
 1732TIP3    H1 5160   0.656   2.523   0.827  0.2268  1.6029  0.3111
 1732TIP3    H2 5161   0.634   2.467   0.965  0.7016  0.6335  0.0011
 1733TIP3   OH2 5162   7.113   5.781   0.695  0.2548  0.4522 -0.2199
 1733TIP3    H1 5163   7.105   5.816   0.784  0.5988 -0.2308  0.0817
 1733TIP3    H2 5164   7.124   5.687   0.707 -0.3755  0.2694 -1.0159
 1734TIP3   OH2 5165   6.653   5.598   5.269  0.6245  0.1411 -0.6140
 1734TIP3    H1 5166   6.707   5.529   5.307 -0.6872 -0.3909  0.3864
 1734TIP3    H2 5167   6.629   5.565   5.183 -0.1194 -0.7587 -0.0858
 1735TIP3   OH2 5168   4.825   4.503   0.319 -0.3788  0.1710 -0.2899
 1735TIP3    H1 5169   4.838   4.573   0.254 -1.5709  1.8723  1.2064
 1735TIP3    H2 5170   4.739   4.467   0.298 -1.5087  1.8068  1.1883
 1736TIP3   OH2 5171   0.058   4.753   1.439  0.1161  0.1610  0.1048
 1736TIP3    H1 5172   0.050   4.833   1.491 -2.2757  0.3385 -0.3973
 1736TIP3    H2 5173   0.017   4.685   1.492 -0.3939 -0.1205 -0.6374
 1737TIP3   OH2 5174   1.628   5.886   2.588  0.4645 -0.2348  0.1348
 1737TIP3    H1 5175   1.598   5.878   2.497  0.0188 -0.4964  0.3050
 1737TIP3    H2 5176   1.696   5.954   2.584 -0.4247  0.6746 -0.1938
 1738TIP3   OH2 5177   4.488   6.134   4.684  0.2528 -0.2838 -0.0414
 1738TIP3    H1 5178   4.472   6.144   4.590  2.7116 -0.1000 -0.5021
 1738TIP3    H2 5179   4.440   6.055   4.709 -0.4632 -0.3125 -1.4220
 1739TIP3   OH2 5180   6.831   5.357   3.602  0.0566 -0.2352  0.2315
 1739TIP3    H1 5181   6.880   5.333   3.523 -0.7278 -1.1847  0.0139
 1739TIP3    H2 5182   6.803   5.447   3.587 -0.0396 -0.3897 -0.5478
 1740TIP3   OH2 5183   0.474   5.625   3.735  0.3639  0.1622  0.0586
 1740TIP3    H1 5184   0.528   5.605   3.659  1.0032  2.3746 -0.1297
 1740TIP3    H2 5185   0.536   5.654   3.802 -0.2802 -0.8127  1.1380
 1741TIP3   OH2 5186   0.258   3.083   5.888 -0.7772 -0.3294 -0.2520
 1741TIP3    H1 5187   0.281   2.991   5.875 -3.3489 -0.7941 -2.3554
 1741TIP3    H2 5188   0.248   3.119   5.800  0.5505  2.1432  0.5015
 1742TIP3   OH2 5189   3.233   3.264   5.166  0.5462 -0.0802 -0.0303
 1742TIP3    H1 5190   3.315   3.240   5.122  0.2997  0.5254 -0.8524
 1742TIP3    H2 5191   3.262   3.313   5.244  0.9765  0.6769 -0.6435
 1743TIP3   OH2 5192   2.466   6.769   3.440  0.3073  0.1178 -0.4945
 1743TIP3    H1 5193   2.461   6.819   3.521 -1.3319  0.2196 -0.6306
 1743TIP3    H2 5194   2.495   6.682   3.468  0.2228  0.2880  0.1409
 1744TIP3   OH2 5195   5.287   3.568   0.579  0.1862  0.3974 -0.2815
 1744TIP3    H1 5196   5.218   3.590   0.518 -0.5043 -0.1673  0.2829
 1744TIP3    H2 5197   5.260   3.485   0.618  0.9478  0.4012  0.2870
 1745TIP3   OH2 5198   6.006   0.723   3.124 -0.3277 -0.7058 -0.2401
 1745TIP3    H1 5199   5.947   0.670   3.069 -1.1146 -1.1210  0.9597
 1745TIP3    H2 5200   6.022   0.668   3.201  1.9071 -0.7257 -0.6627
 1746TIP3   OH2 5201   0.853   5.674   0.037 -0.1709  1.0644  0.0627
 1746TIP3    H1 5202   0.893   5.636  -0.042 -3.6188 -0.0803 -1.3149
 1746TIP3    H2 5203   0.820   5.759   0.007 -1.1465  0.7979  0.3589
 1747TIP3   OH2 5204   5.346   4.593   2.921 -0.7290  0.1503 -0.3472
 1747TIP3    H1 5205   5.404   4.617   2.993  0.0413  1.8704 -1.4883
 1747TIP3    H2 5206   5.355   4.498   2.913 -0.7897 -0.0912  1.7421
 1748TIP3   OH2 5207   1.031   6.754   1.351 -0.1081 -0.5105  0.4476
 1748TIP3    H1 5208   0.979   6.678   1.378 -0.2991 -0.5757 -0.1066
 1748TIP3    H2 5209   0.999   6.776   1.264  1.7944 -1.4619 -0.5443
 1749TIP3   OH2 5210   1.373   2.339   5.571 -0.4800 -1.1395  0.2562
 1749TIP3    H1 5211   1.301   2.365   5.515  1.8972  1.7634 -1.8167
 1749TIP3    H2 5212   1.441   2.309   5.511  1.1600 -0.6525  1.7579
 1750TIP3   OH2 5213   7.149   5.594   3.442 -0.0544 -0.3883 -0.3280
 1750TIP3    H1 5214   7.134   5.556   3.528  0.2446 -0.6711 -0.3975
 1750TIP3    H2 5215   7.127   5.687   3.452  0.5363 -0.3019  0.2118
 1751TIP3   OH2 5216   3.610   4.084   3.309 -0.1743  0.1710  0.0750
 1751TIP3    H1 5217   3.648   3.998   3.323  2.3919  1.2752  0.3312
 1751TIP3    H2 5218   3.557   4.100   3.387 -0.3613 -0.9645  0.2045
 1752TIP3   OH2 5219   2.317   5.284   3.185 -0.1310  0.7025  0.0037
 1752TIP3    H1 5220   2.276   5.217   3.130  0.7474  1.9666 -2.3353
 1752TIP3    H2 5221   2.409   5.282   3.160  0.0529  2.2141  0.4691
 1753TIP3   OH2 5222   6.212   2.338   5.055  0.5797  0.3471 -0.2078
 1753TIP3    H1 5223   6.169   2.316   4.973  1.1341 -1.3275 -0.0716
 1753TIP3    H2 5224   6.151   2.308   5.123 -0.5425  2.9791  0.0859
 1754TIP3   OH2 5225   2.815   3.049   1.638  0.0533 -0.6900 -0.2240
 1754TIP3    H1 5226   2.778   3.052   1.727  0.7429 -0.2902  0.0584
 1754TIP3    H2 5227   2.753   3.098   1.585  0.9366  1.3539  0.5368
 1755TIP3   OH2 5228   6.802   0.195   3.201 -0.5744 -0.1965 -0.1149
 1755TIP3    H1 5229   6.748   0.130   3.245  0.0707 -0.8629 -0.2805
 1755TIP3    H2 5230   6.814   0.264   3.266 -0.0083 -0.9539  0.6152
 1756TIP3   OH2 5231   1.941   0.950   4.721  0.7764  0.0791  0.2176
 1756TIP3    H1 5232   1.974   0.894   4.791  0.6454 -0.9652 -0.5346
 1756TIP3    H2 5233   2.020   0.986   4.680  0.9290 -0.7058 -0.2025
 1757TIP3   OH2 5234   5.862   1.323   1.045  0.1194  0.3746  0.0762
 1757TIP3    H1 5235   5.925   1.284   1.105  0.6188  0.7633 -0.1891
 1757TIP3    H2 5236   5.888   1.415   1.039 -0.8400  0.6820  0.4347
 1758TIP3   OH2 5237   5.210   2.615   4.760 -0.4452  0.3539  0.1968
 1758TIP3    H1 5238   5.123   2.647   4.784 -0.5426  1.3974 -1.4047
 1758TIP3    H2 5239   5.268   2.654   4.825 -1.0237  0.6128  0.5710
 1759TIP3   OH2 5240   2.422   1.615   1.608 -0.3405 -0.3725 -0.1169
 1759TIP3    H1 5241   2.499   1.624   1.553 -1.2615 -0.0929 -1.4045
 1759TIP3    H2 5242   2.360   1.564   1.556 -0.5706 -1.7534  1.4080
 1760TIP3   OH2 5243   2.241   6.799   4.530  0.5500  0.4467  0.2853
 1760TIP3    H1 5244   2.291   6.794   4.612 -0.6179 -0.1699  0.9940
 1760TIP3    H2 5245   2.198   6.714   4.523 -2.0141  1.5765  0.8057
 1761TIP3   OH2 5246   5.028   2.480   0.610 -0.2893 -0.2081 -0.5646
 1761TIP3    H1 5247   5.035   2.547   0.678 -0.4643 -0.2889 -0.4643
 1761TIP3    H2 5248   4.977   2.409   0.651 -3.8541  1.3202 -1.9165
 1762TIP3   OH2 5249   5.371   4.351   2.168 -0.3292  0.4531 -0.0056
 1762TIP3    H1 5250   5.384   4.360   2.074  1.1603 -0.6768  0.0330
 1762TIP3    H2 5251   5.395   4.436   2.205  0.0943  0.5877 -0.5817
 1763TIP3   OH2 5252   6.315   4.884   2.272 -0.1689 -0.1713 -0.5795
 1763TIP3    H1 5253   6.229   4.901   2.310  0.5121  0.6927  0.6298
 1763TIP3    H2 5254   6.349   4.808   2.319  0.4617  0.5908  0.2389
 1764TIP3   OH2 5255   5.547   2.445   4.717  0.2693  0.0453 -0.7241
 1764TIP3    H1 5256   5.612   2.477   4.780 -1.3983  1.0036  0.5928
 1764TIP3    H2 5257   5.599   2.410   4.645  2.2532  1.9863 -0.3511
 1765TIP3   OH2 5258   5.381   4.074   4.509 -0.5532 -0.4024  0.0382
 1765TIP3    H1 5259   5.385   4.069   4.414 -0.3799  3.8287 -0.3943
 1765TIP3    H2 5260   5.294   4.109   4.527 -0.1687 -0.0551  1.3163
 1766TIP3   OH2 5261   6.701   2.588   1.010 -0.8954  0.0597  0.0655
 1766TIP3    H1 5262   6.797   2.584   1.009 -0.8857  0.3318 -0.6822
 1766TIP3    H2 5263   6.675   2.521   1.074 -0.2263 -0.4307 -0.1590
 1767TIP3   OH2 5264   7.052   6.610   0.760 -0.1779 -0.0707 -0.4182
 1767TIP3    H1 5265   7.016   6.522   0.776 -2.7202  1.2367  1.6790
 1767TIP3    H2 5266   7.041   6.623   0.666 -0.4156 -1.7108 -0.6509
 1768TIP3   OH2 5267   2.631   5.947   5.148 -0.6917  0.4943 -0.5644
 1768TIP3    H1 5268   2.697   5.884   5.122 -1.0023 -0.4931  0.8848
 1768TIP3    H2 5269   2.663   5.983   5.231 -1.6671  0.4413 -0.1440
 1769TIP3   OH2 5270   3.722   1.928   1.803  0.5581  0.0054  0.1516
 1769TIP3    H1 5271   3.688   1.842   1.826 -2.1018  0.7157 -0.7465
 1769TIP3    H2 5272   3.662   1.990   1.845  2.5485  1.4927  1.0121
 1770TIP3   OH2 5273   1.403   4.434   3.887  0.5113  0.3059  0.1826
 1770TIP3    H1 5274   1.393   4.514   3.837 -0.8908  0.2500  0.3452
 1770TIP3    H2 5275   1.445   4.461   3.968  1.6122  0.5895 -0.4567
 1771TIP3   OH2 5276   6.780   4.778   3.588  0.2231 -0.0063  0.3278
 1771TIP3    H1 5277   6.789   4.874   3.593 -1.2868  0.1545  0.4723
 1771TIP3    H2 5278   6.709   4.764   3.524 -2.0508 -0.8349  2.8368
 1772TIP3   OH2 5279   4.122   5.536   0.445  0.0128 -0.0352 -0.6472
 1772TIP3    H1 5280   4.161   5.553   0.531 -1.8262 -1.4510  0.5502
 1772TIP3    H2 5281   4.189   5.488   0.398  1.2909  1.2937 -0.2762
 1773TIP3   OH2 5282   2.286   4.508   3.945  0.4530 -0.5385  0.1868
 1773TIP3    H1 5283   2.327   4.498   3.859  1.2210 -1.3548  0.6368
 1773TIP3    H2 5284   2.329   4.443   4.001  0.4061  0.3870  1.3485
 1774TIP3   OH2 5285   6.806   5.185   2.898 -0.1845 -0.5466  0.3544
 1774TIP3    H1 5286   6.762   5.167   2.815  3.0701 -1.4713 -1.3206
 1774TIP3    H2 5287   6.751   5.142   2.964 -1.4882 -2.0750 -1.6264
 1775TIP3   OH2 5288   6.953   1.708   5.012  0.2000  0.2876  0.3395
 1775TIP3    H1 5289   7.019   1.708   5.081 -0.0402 -1.5187  0.6274
 1775TIP3    H2 5290   6.988   1.649   4.945 -0.3005  0.7562 -0.3605
 1776TIP3   OH2 5291   3.502   1.222   5.325  0.0205  0.2085  0.2060
 1776TIP3    H1 5292   3.552   1.205   5.245  0.7623  0.4422  0.6144
 1776TIP3    H2 5293   3.474   1.135   5.355  0.7159  0.0187  0.3133
 1777TIP3   OH2 5294   5.359   0.444   3.592 -0.2157  0.2371 -0.6534
 1777TIP3    H1 5295   5.359   0.517   3.654  3.3623  0.1156 -0.3055
 1777TIP3    H2 5296   5.364   0.366   3.648 -0.6273 -0.0769 -1.0510
 1778TIP3   OH2 5297   2.854   5.551   1.486  0.1675  0.3658  0.4555
 1778TIP3    H1 5298   2.803   5.627   1.455  0.2007  1.0685  2.0399
 1778TIP3    H2 5299   2.792   5.502   1.541  0.1862 -0.7163 -0.4510
 1779TIP3   OH2 5300   1.331   0.003   0.747  0.6395  0.1516  0.7013
 1779TIP3    H1 5301   1.349   0.087   0.707  0.5187  0.1024  0.5426
 1779TIP3    H2 5302   1.284   0.024   0.828 -1.5362  0.1581 -0.4953
 1780TIP3   OH2 5303   5.182   2.507   4.169  0.1523 -0.2772  0.8986
 1780TIP3    H1 5304   5.122   2.506   4.244  0.0943  2.8301  0.9947
 1780TIP3    H2 5305   5.124   2.507   4.093  0.1113 -0.0873  0.9295
 1781TIP3   OH2 5306   5.635   0.584   2.008 -0.0987  0.0664  0.0299
 1781TIP3    H1 5307   5.619   0.676   2.029  0.4710  0.2520 -0.3128
 1781TIP3    H2 5308   5.684   0.550   2.083 -0.2610  0.0585  0.1322
 1782TIP3   OH2 5309   1.838   3.505   4.599  0.4349  0.2746  0.2477
 1782TIP3    H1 5310   1.861   3.496   4.507 -0.0200  0.0108  0.1598
 1782TIP3    H2 5311   1.743   3.520   4.599  0.2113 -1.0691  0.7528
 1783TIP3   OH2 5312   4.287   1.887   2.247 -0.4135 -0.1186  0.0906
 1783TIP3    H1 5313   4.302   1.821   2.179 -3.4149 -0.2906 -0.5343
 1783TIP3    H2 5314   4.334   1.964   2.216 -1.8956 -0.1127 -2.4026
 1784TIP3   OH2 5315   5.924   6.550   1.287 -0.1681 -0.1638  0.1364
 1784TIP3    H1 5316   6.005   6.576   1.332  0.4994  0.0123 -1.1224
 1784TIP3    H2 5317   5.953   6.497   1.213 -1.2339 -0.3666 -0.1568
 1785TIP3   OH2 5318   3.363   5.327   2.917 -0.1617 -0.2468  0.0176
 1785TIP3    H1 5319   3.375   5.420   2.935  1.0881 -0.2024 -0.9205
 1785TIP3    H2 5320   3.281   5.322   2.868  0.5509  0.5748 -1.3153
 1786TIP3   OH2 5321   7.134   6.302   4.643 -0.2060 -0.2804 -0.2061
 1786TIP3    H1 5322   7.134   6.207   4.632 -0.8369 -0.8073  3.2332
 1786TIP3    H2 5323   7.144   6.336   4.554  0.8719 -3.5302 -1.4964
 1787TIP3   OH2 5324   3.633   1.792   1.106  0.2983  0.4528 -0.2259
 1787TIP3    H1 5325   3.648   1.825   1.018  0.9514 -0.4307 -0.4581
 1787TIP3    H2 5326   3.579   1.714   1.094  1.3431 -0.3395  0.0334
 1788TIP3   OH2 5327   5.862   3.500   5.259  0.2330  0.0847 -0.2417
 1788TIP3    H1 5328   5.800   3.477   5.191  1.4938 -2.0962 -0.7456
 1788TIP3    H2 5329   5.939   3.533   5.212  0.6461 -0.2518  0.1841
 1789TIP3   OH2 5330   5.211   2.184   0.601  0.2668  0.2373  0.1789
 1789TIP3    H1 5331   5.265   2.260   0.584  0.5958 -0.5180 -2.6804
 1789TIP3    H2 5332   5.272   2.116   0.629  0.4746  0.0594 -0.6956
 1790TIP3   OH2 5333   1.289   2.174   3.362 -0.3088  0.0736  0.1249
 1790TIP3    H1 5334   1.288   2.264   3.332  1.2194 -0.1496 -0.7065
 1790TIP3    H2 5335   1.223   2.130   3.309 -0.1407  0.4310 -0.3818
 1791TIP3   OH2 5336   1.776   5.407   3.832 -0.1142  0.1885  0.2225
 1791TIP3    H1 5337   1.859   5.407   3.783  0.3317  0.6839  0.9553
 1791TIP3    H2 5338   1.799   5.444   3.917 -1.1784  0.6998  0.3010
 1792TIP3   OH2 5339   6.292   0.445   4.543  0.0087  0.2947  0.1659
 1792TIP3    H1 5340   6.289   0.538   4.566  1.6358  0.4428 -0.1084
 1792TIP3    H2 5341   6.293   0.400   4.628  0.3162  0.5865  0.3201
 1793TIP3   OH2 5342   2.906   3.301   3.056 -0.4337 -0.3269 -0.4403
 1793TIP3    H1 5343   2.974   3.350   3.102 -0.7396  0.3603 -0.6962
 1793TIP3    H2 5344   2.842   3.368   3.030 -1.3172 -0.9744 -0.0120
 1794TIP3   OH2 5345   7.042   2.375   1.466 -0.2311  0.0653  0.1519
 1794TIP3    H1 5346   7.090   2.458   1.454 -2.4729  1.4414  0.1294
 1794TIP3    H2 5347   7.037   2.337   1.379  1.4195 -0.5008  0.2710
 1795TIP3   OH2 5348   3.683   0.283   1.906 -0.2114 -0.2106 -0.7458
 1795TIP3    H1 5349   3.660   0.204   1.858  0.0021  0.1341 -1.4289
 1795TIP3    H2 5350   3.707   0.251   1.993 -1.1091 -0.7892 -0.6924
 1796TIP3   OH2 5351   2.450   0.314   0.159  0.0092  0.4171 -0.1512
 1796TIP3    H1 5352   2.488   0.385   0.210 -1.9074  1.1015  0.4267
 1796TIP3    H2 5353   2.372   0.289   0.208 -0.6446 -0.4600 -1.5718
 1797TIP3   OH2 5354   5.730   1.894   4.278  0.5453 -0.3999  0.0266
 1797TIP3    H1 5355   5.679   1.840   4.218  0.2954 -1.2747  1.0021
 1797TIP3    H2 5356   5.703   1.866   4.365  1.3104  0.4511  0.5613
 1798TIP3   OH2 5357   1.929   5.900   2.761 -0.1145 -0.1016  0.0414
 1798TIP3    H1 5358   1.861   5.884   2.826  0.3332  0.7250  0.7405
 1798TIP3    H2 5359   1.933   5.819   2.710  0.0041 -1.0543  1.4935
 1799TIP3   OH2 5360   3.100   6.682   1.203  0.2149  0.9742  0.0432
 1799TIP3    H1 5361   3.110   6.724   1.118 -1.1406  0.5803 -0.3338
 1799TIP3    H2 5362   3.050   6.745   1.255  0.1794  0.7883  0.2370
 1800TIP3   OH2 5363   3.596   5.828   4.269  0.2354  0.0867  0.2827
 1800TIP3    H1 5364   3.666   5.892   4.268 -1.4873  2.1151  1.0022
 1800TIP3    H2 5365   3.526   5.870   4.320 -2.4304 -0.7283 -2.3873
 1801TIP3   OH2 5366   6.402   4.962   4.233 -0.3019  0.9382 -0.0758
 1801TIP3    H1 5367   6.419   4.869   4.249 -1.6560  0.7597  0.4679
 1801TIP3    H2 5368   6.406   5.003   4.319  1.9249  1.7147 -0.4884
 1802TIP3   OH2 5369   2.735   2.157   3.991  0.1354  0.2366  0.2618
 1802TIP3    H1 5370   2.824   2.172   4.024 -0.1167  1.3831  0.4534
 1802TIP3    H2 5371   2.706   2.243   3.960  0.0401 -0.5889 -2.2023
 1803TIP3   OH2 5372   6.645   5.434   1.282  0.1282 -0.3715  0.8100
 1803TIP3    H1 5373   6.562   5.400   1.315 -0.4363  1.8976  1.9536
 1803TIP3    H2 5374   6.622   5.476   1.199  0.7015 -2.1731 -0.2918
 1804TIP3   OH2 5375   6.114   2.589   5.261  0.2961 -0.0439 -0.6804
 1804TIP3    H1 5376   6.036   2.547   5.296  0.7039 -0.6968 -0.5252
 1804TIP3    H2 5377   6.186   2.553   5.313  0.6998  0.5631 -0.8065
 1805TIP3   OH2 5378   0.289   6.254   4.803  0.1953  0.0026 -0.7829
 1805TIP3    H1 5379   0.252   6.224   4.886  2.9923  0.3505  0.7313
 1805TIP3    H2 5380   0.269   6.348   4.800 -0.2361 -0.0851 -0.6945
 1806TIP3   OH2 5381   3.360   0.538   4.174  0.2432  0.2582  0.1832
 1806TIP3    H1 5382   3.416   0.460   4.176  0.6456  0.4360 -1.8707
 1806TIP3    H2 5383   3.410   0.605   4.219  0.4486 -0.3161  0.8329
 1807TIP3   OH2 5384   6.862   3.977   1.165  0.1193 -0.6396 -0.3357
 1807TIP3    H1 5385   6.790   4.037   1.183  0.7851 -0.1102  0.7137
 1807TIP3    H2 5386   6.845   3.944   1.077 -0.2948  1.0525 -0.9358
 1808TIP3   OH2 5387   1.742   2.548   0.116  0.0297 -0.3813 -0.8792
 1808TIP3    H1 5388   1.800   2.511   0.182 -0.1328  1.9320  0.6550
 1808TIP3    H2 5389   1.790   2.540   0.034  1.7437 -0.1507  0.0651
 1809TIP3   OH2 5390   0.836   4.826   1.012  0.0201 -0.0284  0.8193
 1809TIP3    H1 5391   0.932   4.819   1.009  0.0651  0.4140  1.1124
 1809TIP3    H2 5392   0.810   4.773   1.087 -0.1439 -1.7649 -0.3987
 1810TIP3   OH2 5393   0.179   6.695   5.246 -0.4471 -0.2984  0.4733
 1810TIP3    H1 5394   0.184   6.666   5.155 -0.2214 -0.8511  0.6559
 1810TIP3    H2 5395   0.216   6.622   5.296  0.0235  0.2632  0.9567
 1811TIP3   OH2 5396   4.396   1.205   3.067 -0.4658 -0.0744 -0.1948
 1811TIP3    H1 5397   4.364   1.128   3.021  0.1545 -0.5749  0.1919
 1811TIP3    H2 5398   4.482   1.222   3.028 -0.8046  0.7282 -0.6235
 1812TIP3   OH2 5399   0.030   1.556   3.922 -0.1745  0.0980 -0.0884
 1812TIP3    H1 5400   0.037   1.478   3.867  1.4124 -0.2521  0.5442
 1812TIP3    H2 5401   0.069   1.530   4.005  0.3892  1.5615  0.1359
 1813TIP3   OH2 5402   0.310   6.503   4.291  0.5973  0.3435 -0.4357
 1813TIP3    H1 5403   0.405   6.503   4.284  0.4845  2.0320 -3.5662
 1813TIP3    H2 5404   0.288   6.593   4.318 -0.1133 -0.4075  1.6788
 1814TIP3   OH2 5405   4.453   2.989   1.581 -0.1043 -0.0195  0.2820
 1814TIP3    H1 5406   4.390   3.018   1.515 -1.6580 -1.2318  1.1742
 1814TIP3    H2 5407   4.536   2.983   1.533 -0.7345  1.1706 -1.0296
 1815TIP3   OH2 5408   2.220   5.709   0.703  0.4764  0.4340  0.1140
 1815TIP3    H1 5409   2.169   5.786   0.676  0.7786  1.3255  1.9017
 1815TIP3    H2 5410   2.174   5.676   0.780  0.6566 -0.8736 -0.3298
 1816TIP3   OH2 5411   1.337   6.569   1.523 -0.1122 -0.0728  0.1748
 1816TIP3    H1 5412   1.290   6.489   1.547 -0.5344  0.0603 -0.2011
 1816TIP3    H2 5413   1.294   6.638   1.574  1.2033 -0.2818  1.6458
 1817TIP3   OH2 5414   6.444   1.194   5.126  0.6530 -0.1898  0.5348
 1817TIP3    H1 5415   6.416   1.285   5.114 -1.2597 -0.8000  0.1954
 1817TIP3    H2 5416   6.370   1.141   5.098  1.7830 -1.8843  0.5921
 1818TIP3   OH2 5417   0.986   1.003   2.447  0.1394  0.4997 -0.0567
 1818TIP3    H1 5418   1.006   0.957   2.528 -0.9645  0.1635  0.0286
 1818TIP3    H2 5419   0.914   0.953   2.408  0.2054  1.0536 -0.9056
 1819TIP3   OH2 5420   6.325   3.848   1.573  0.9045  0.7041 -0.2941
 1819TIP3    H1 5421   6.265   3.908   1.618  0.5087  0.8735 -1.0328
 1819TIP3    H2 5422   6.410   3.891   1.578  1.0190  0.3878  0.9011
 1820TIP3   OH2 5423   3.971   1.908   4.289  0.0250 -0.1633  0.4413
 1820TIP3    H1 5424   3.893   1.899   4.344 -0.3347  0.6295  0.0590
 1820TIP3    H2 5425   3.992   2.001   4.291  1.7028 -0.5156  1.5438
 1821TIP3   OH2 5426   1.358   6.315   2.430 -0.1740 -0.3020  0.3401
 1821TIP3    H1 5427   1.414   6.391   2.451  0.6659 -0.4755 -1.1743
 1821TIP3    H2 5428   1.412   6.239   2.451 -0.9027 -0.5084  1.5583
 1822TIP3   OH2 5429   4.756   3.624   4.770 -0.1055  0.2555 -0.3058
 1822TIP3    H1 5430   4.818   3.554   4.792  0.6400  0.3398 -2.0544
 1822TIP3    H2 5431   4.810   3.698   4.743 -0.9490  0.6386 -1.0053
 1823TIP3   OH2 5432   4.602   5.610   4.078 -0.2508  0.3064 -0.1890
 1823TIP3    H1 5433   4.639   5.670   4.013 -0.0757  0.7070  0.2759
 1823TIP3    H2 5434   4.533   5.661   4.121  0.6504  0.5613  0.9862
 1824TIP3   OH2 5435   1.001   0.334   5.056 -0.0449  0.3466  0.0191
 1824TIP3    H1 5436   0.975   0.288   5.136  0.1372 -1.8824 -1.1113
 1824TIP3    H2 5437   0.966   0.422   5.066 -2.0203 -0.5404  1.5407
 1825TIP3   OH2 5438   1.531   3.127   0.712 -1.0730 -0.1512  0.1174
 1825TIP3    H1 5439   1.522   3.175   0.629  2.9745  0.7179 -0.0344
 1825TIP3    H2 5440   1.533   3.035   0.686  1.7571  0.1596 -1.1144
 1826TIP3   OH2 5441   0.203   2.708   1.144  0.3097  0.2265  0.0869
 1826TIP3    H1 5442   0.278   2.678   1.094  0.9226 -0.7621  1.5225
 1826TIP3    H2 5443   0.231   2.792   1.181  0.9168 -0.3605  1.0004
 1827TIP3   OH2 5444   5.813   5.851   0.225 -0.2553 -0.1193  0.2330
 1827TIP3    H1 5445   5.733   5.888   0.189  0.0763  0.2169 -0.1762
 1827TIP3    H2 5446   5.847   5.794   0.157 -1.0106 -1.5819  1.0492
 1828TIP3   OH2 5447   3.090   0.790   3.766 -0.0392  0.2439  0.0480
 1828TIP3    H1 5448   3.110   0.832   3.849  1.8443  0.7540 -0.6224
 1828TIP3    H2 5449   3.175   0.769   3.728 -0.7888  1.3830 -2.4468
 1829TIP3   OH2 5450   5.365   1.832   1.775 -0.4823  0.0092  0.2574
 1829TIP3    H1 5451   5.459   1.823   1.761 -0.1225 -0.1482  2.3912
 1829TIP3    H2 5452   5.333   1.742   1.781 -0.7368  0.0651 -0.2097
 1830TIP3   OH2 5453   4.094   2.040   1.447 -0.5782 -0.1644 -0.6600
 1830TIP3    H1 5454   4.123   2.053   1.537  1.0812  1.2358 -1.3491
 1830TIP3    H2 5455   4.104   1.945   1.432  2.3873  0.0149 -0.3695
 1831TIP3   OH2 5456   5.960   1.331   5.732  0.0904  0.2993 -0.0100
 1831TIP3    H1 5457   5.867   1.326   5.709  0.6649 -0.8379 -2.3389
 1831TIP3    H2 5458   5.992   1.241   5.723  1.4888  0.7187  0.4870
 1832TIP3   OH2 5459   2.988   4.080   3.075 -0.4626  0.4115 -0.3351
 1832TIP3    H1 5460   2.897   4.056   3.090 -0.6711  1.1006 -0.4825
 1832TIP3    H2 5461   2.985   4.170   3.043  0.1602 -0.0635 -1.8284
 1833TIP3   OH2 5462   3.901   5.285   4.758 -0.0693  0.6225 -0.1412
 1833TIP3    H1 5463   3.966   5.304   4.826 -0.2241  0.4116  0.0699
 1833TIP3    H2 5464   3.822   5.331   4.787 -0.1182  0.5784 -0.2048
 1834TIP3   OH2 5465   5.442   2.808   3.064 -0.0355  0.3281  0.3430
 1834TIP3    H1 5466   5.398   2.724   3.049 -0.1409  0.3859  0.3313
 1834TIP3    H2 5467   5.486   2.797   3.149  0.4661  0.0415  0.0568
 1835TIP3   OH2 5468   2.147   0.165   4.249  0.2150  0.0734 -0.3669
 1835TIP3    H1 5469   2.150   0.179   4.154 -0.1048  0.2428 -0.3549
 1835TIP3    H2 5470   2.054   0.150   4.268  0.5074 -2.1053 -0.3758
 1836TIP3   OH2 5471   4.868   3.276   0.132  0.4365  0.4906  0.6851
 1836TIP3    H1 5472   4.803   3.300   0.066  0.4839  0.1823  0.5261
 1836TIP3    H2 5473   4.925   3.214   0.088  0.6512  0.5187  0.9233
 1837TIP3   OH2 5474   2.950   4.763   3.521  0.1992  0.0031  0.4977
 1837TIP3    H1 5475   2.883   4.787   3.456  0.5189  2.3856  0.9308
 1837TIP3    H2 5476   2.924   4.810   3.600  1.5104 -0.3324  1.1545
 1838TIP3   OH2 5477   0.035   2.918   3.241 -0.6338 -0.3713  0.6442
 1838TIP3    H1 5478   0.111   2.900   3.185  0.5439 -1.1257  2.4100
 1838TIP3    H2 5479   0.010   2.833   3.277 -2.4111 -0.1535  0.0410
 1839TIP3   OH2 5480   6.192   4.380   5.603  0.4629 -0.4303  0.8086
 1839TIP3    H1 5481   6.110   4.383   5.554  0.8117 -0.5666  0.2016
 1839TIP3    H2 5482   6.207   4.287   5.621  0.8409 -0.4776  0.2867
 1840TIP3   OH2 5483   3.666   1.038   1.271  0.1702  0.7452  0.2826
 1840TIP3    H1 5484   3.604   0.982   1.224  2.3409  0.2684 -2.2829
 1840TIP3    H2 5485   3.628   1.049   1.358 -2.3807 -1.2921 -0.4570
 1841TIP3   OH2 5486   0.085   0.235   5.379  0.6437  0.1428 -0.2632
 1841TIP3    H1 5487   0.145   0.248   5.453  0.6378  0.5805 -0.3330
 1841TIP3    H2 5488   0.131   0.272   5.304 -0.0959  1.3610 -0.1459
 1842TIP3   OH2 5489   5.250   5.199   0.449 -0.3696 -0.0753  0.3299
 1842TIP3    H1 5490   5.280   5.209   0.540 -1.3198  0.5232  0.5901
 1842TIP3    H2 5491   5.161   5.165   0.457 -0.1413 -0.8797 -0.4064
 1843TIP3   OH2 5492   6.065   5.401   2.459  0.0330  0.1020  0.3538
 1843TIP3    H1 5493   6.100   5.336   2.520 -0.6811  0.2623  0.9491
 1843TIP3    H2 5494   5.977   5.369   2.437  0.3267 -0.0248 -0.7095
 1844TIP3   OH2 5495   5.875   3.681   1.060  0.3971 -0.4207  0.1359
 1844TIP3    H1 5496   5.834   3.766   1.048  2.9961  1.0795  1.2181
 1844TIP3    H2 5497   5.867   3.638   0.974 -2.1835  0.2587 -0.0357
 1845TIP3   OH2 5498   0.685   2.087   0.509 -0.2080  0.8373  0.8251
 1845TIP3    H1 5499   0.632   2.008   0.496 -2.6714  2.6252 -1.0193
 1845TIP3    H2 5500   0.654   2.122   0.592 -0.1542  0.6116  0.9420
 1846TIP3   OH2 5501   0.708   1.246   0.527  0.2283  0.0338 -0.2879
 1846TIP3    H1 5502   0.753   1.228   0.610 -0.9580 -1.4521  0.0835
 1846TIP3    H2 5503   0.738   1.176   0.469 -0.5891 -0.2019 -0.4336
 1847TIP3   OH2 5504   6.883   1.293   0.358 -0.1050 -0.2405  0.0619
 1847TIP3    H1 5505   6.858   1.214   0.407  1.3898 -0.9014 -0.1708
 1847TIP3    H2 5506   6.960   1.326   0.404  0.7815 -0.3517 -1.2797
 1848TIP3   OH2 5507   1.315   3.208   5.047  0.6044  0.2901 -0.0009
 1848TIP3    H1 5508   1.232   3.185   5.005  0.2716  0.4139  0.5778
 1848TIP3    H2 5509   1.362   3.125   5.054  2.2153  0.6890 -3.8020
 1849TIP3   OH2 5510   0.268   0.578   4.359  0.3189 -0.6848 -0.0702
 1849TIP3    H1 5511   0.212   0.540   4.292 -0.6510  0.9094 -0.2261
 1849TIP3    H2 5512   0.357   0.564   4.327 -0.0725 -1.4074 -0.8613
 1850TIP3   OH2 5513   3.016   3.442   0.502 -0.1222  0.2306 -0.4035
 1850TIP3    H1 5514   3.066   3.394   0.568  0.5121  2.9649  1.2689
 1850TIP3    H2 5515   3.019   3.386   0.424 -0.2045 -2.7644  1.5789
 1851TIP3   OH2 5516   3.364   3.957   2.530  0.1877 -0.4708  0.0117
 1851TIP3    H1 5517   3.339   4.049   2.538 -0.7150 -0.7847  0.9403
 1851TIP3    H2 5518   3.283   3.908   2.541  0.2577 -1.3453 -2.5943
 1852TIP3   OH2 5519   4.282   5.662   2.662 -1.3615  0.6429 -0.1746
 1852TIP3    H1 5520   4.227   5.695   2.591 -0.9157  0.9464 -0.3761
 1852TIP3    H2 5521   4.362   5.632   2.619 -0.3545  2.4084  0.3592
 1853TIP3   OH2 5522   6.052   0.541   1.221  0.0681  0.1346 -0.7195
 1853TIP3    H1 5523   5.965   0.513   1.194 -0.7889  1.1281  0.8750
 1853TIP3    H2 5524   6.104   0.461   1.224 -0.8015 -0.4831 -1.6101
 1854TIP3   OH2 5525   0.237   5.148   0.268 -0.4561  0.4162 -0.7299
 1854TIP3    H1 5526   0.319   5.151   0.219  0.6934  0.1847  1.0868
 1854TIP3    H2 5527   0.178   5.096   0.213  0.8994 -0.2102 -1.6499
 1855TIP3   OH2 5528   4.684   5.985   5.283  0.5198 -0.3395  0.5426
 1855TIP3    H1 5529   4.708   5.947   5.199 -1.9082  0.5757 -0.6630
 1855TIP3    H2 5530   4.699   6.079   5.272 -2.3536  0.1659  0.0326
 1856TIP3   OH2 5531   1.783   4.051   3.034  0.1900 -0.3441  0.1846
 1856TIP3    H1 5532   1.769   4.035   3.127  0.6302  1.2911  0.5646
 1856TIP3    H2 5533   1.700   4.029   2.992 -0.0357 -1.0086  0.9564
 1857TIP3   OH2 5534   4.947   0.272   0.288  0.3175  1.2722 -0.8313
 1857TIP3    H1 5535   4.853   0.272   0.307  0.0342 -1.0317 -1.8538
 1857TIP3    H2 5536   4.984   0.333   0.351 -1.5924  0.4595  1.2288
 1858TIP3   OH2 5537   6.799   0.200   1.336 -0.0341  0.3766 -0.2137
 1858TIP3    H1 5538   6.818   0.109   1.311 -1.7440  0.4822 -2.1659
 1858TIP3    H2 5539   6.722   0.224   1.284 -2.2150  1.6523  3.2233
 1859TIP3   OH2 5540   3.037   6.557   0.400 -0.1581 -0.0851  0.3854
 1859TIP3    H1 5541   3.009   6.473   0.435 -0.1846  0.3797  1.5271
 1859TIP3    H2 5542   3.007   6.557   0.309 -4.3234  0.5622  1.5773
 1860TIP3   OH2 5543   1.585   1.525   1.309  0.4537 -0.4237  0.4939
 1860TIP3    H1 5544   1.588   1.548   1.216  3.0427  3.1024  1.2298
 1860TIP3    H2 5545   1.521   1.585   1.346  0.3857 -0.9297  1.2172
 1861TIP3   OH2 5546   5.870   2.873   4.137  0.5453 -0.1765 -0.1810
 1861TIP3    H1 5547   5.852   2.868   4.043  3.1792  1.1628 -0.8645
 1861TIP3    H2 5548   5.840   2.960   4.163  0.9702 -0.0487 -0.1019
 1862TIP3   OH2 5549   2.621   6.165   5.339 -0.2930 -0.0040  0.4366
 1862TIP3    H1 5550   2.579   6.136   5.420  1.1121  0.6507  1.4496
 1862TIP3    H2 5551   2.559   6.226   5.300 -1.0085 -0.3577  0.9980
 1863TIP3   OH2 5552   7.112   5.087   5.278  0.0978 -0.0838  0.0623
 1863TIP3    H1 5553   7.166   5.142   5.334  1.8481 -0.9620 -0.6762
 1863TIP3    H2 5554   7.076   5.148   5.213 -0.8129  0.7059  1.2676
 1864TIP3   OH2 5555   5.350   0.744   3.083 -0.2213 -0.0739  0.8120
 1864TIP3    H1 5556   5.323   0.658   3.050  1.2740 -0.8219  1.4417
 1864TIP3    H2 5557   5.387   0.726   3.169  0.0510  1.2175  0.9866
 1865TIP3   OH2 5558   5.127   0.894   0.172  0.2105  0.6450 -0.1654
 1865TIP3    H1 5559   5.202   0.909   0.229  0.5172  1.1242 -0.6917
 1865TIP3    H2 5560   5.078   0.825   0.216 -0.6727  2.3846  1.7650
 1866TIP3   OH2 5561   3.330   3.538   1.210  0.0116 -0.0008 -0.6662
 1866TIP3    H1 5562   3.394   3.512   1.277 -1.0094 -0.7491  0.0538
 1866TIP3    H2 5563   3.273   3.601   1.255 -0.6529 -0.4692 -0.8375
 1867TIP3   OH2 5564   3.189   3.071   4.827 -0.1723 -0.2411 -0.4159
 1867TIP3    H1 5565   3.106   3.024   4.828 -0.8315  0.8878  0.6266
 1867TIP3    H2 5566   3.235   3.039   4.905 -0.2250  0.1399 -0.2268
 1868TIP3   OH2 5567   2.859   4.556   4.899  0.2998 -0.2942  0.0696
 1868TIP3    H1 5568   2.814   4.544   4.816  0.9146 -0.1632 -0.2917
 1868TIP3    H2 5569   2.947   4.521   4.884  0.7988  0.8109  0.2919
 1869TIP3   OH2 5570   4.881   2.721   0.994 -0.3374  0.5323 -0.2268
 1869TIP3    H1 5571   4.910   2.812   1.003  0.1906  0.3712 -0.2470
 1869TIP3    H2 5572   4.940   2.671   1.051 -0.5567  0.1893 -0.2951
 1870TIP3   OH2 5573   1.630   4.477   4.675 -0.0844 -0.1981  0.6797
 1870TIP3    H1 5574   1.625   4.401   4.616 -1.1190  2.4536 -2.9995
 1870TIP3    H2 5575   1.539   4.502   4.690  0.2448  0.8118  1.0759
 1871TIP3   OH2 5576   3.659   0.907   3.911  0.1907  0.3826  0.3400
 1871TIP3    H1 5577   3.564   0.907   3.927  0.2007  2.0287  0.5966
 1871TIP3    H2 5578   3.668   0.868   3.824 -1.0015  2.6334 -0.8816
 1872TIP3   OH2 5579   6.771   1.307   4.265  0.6441  0.4155  0.0436
 1872TIP3    H1 5580   6.794   1.324   4.174  0.0521  1.8949  0.1350
 1872TIP3    H2 5581   6.820   1.228   4.288  1.1309  0.2565 -1.4210
 1873TIP3   OH2 5582   7.146   5.322   2.749  0.0199 -0.1406 -0.1052
 1873TIP3    H1 5583   7.207   5.382   2.793  1.5153  0.5323 -2.9082
 1873TIP3    H2 5584   7.155   5.239   2.796  0.7178  0.7916  1.4815
 1874TIP3   OH2 5585   7.001   3.196   4.700  0.0372  0.2522  0.8364
 1874TIP3    H1 5586   6.931   3.252   4.731  0.3872  3.9740 -3.8387
 1874TIP3    H2 5587   6.985   3.187   4.606  2.1847 -4.6259  0.6152
 1875TIP3   OH2 5588   0.113   3.257   4.481  0.0572 -0.1040 -0.5169
 1875TIP3    H1 5589   0.056   3.180   4.482  0.2820 -0.3129  1.8979
 1875TIP3    H2 5590   0.201   3.223   4.496  0.4413  0.4568 -1.4395
 1876TIP3   OH2 5591   3.633  -0.015   4.360 -0.1037  0.2065 -0.1611
 1876TIP3    H1 5592   3.589   0.070   4.359 -1.0241 -0.2509 -1.0585
 1876TIP3    H2 5593   3.634  -0.042   4.268  1.3370 -0.1747 -0.0447
 1877TIP3   OH2 5594   4.906   2.299   2.312  0.2355 -0.3460 -0.5574
 1877TIP3    H1 5595   4.886   2.206   2.301 -2.5366  0.3877 -2.7096
 1877TIP3    H2 5596   4.844   2.344   2.255 -0.1254  2.9853  2.1557
 1878TIP3   OH2 5597   1.195   5.933   3.005 -0.1767 -0.6336  0.5508
 1878TIP3    H1 5598   1.206   5.848   3.046 -0.1193 -0.8070  0.1864
 1878TIP3    H2 5599   1.202   5.915   2.911  0.4785 -0.1325  0.4978
 1879TIP3   OH2 5600   3.640   5.837   0.587 -0.0520  0.6684  0.3135
 1879TIP3    H1 5601   3.703   5.906   0.570 -0.8304  1.0419 -1.2129
 1879TIP3    H2 5602   3.559   5.867   0.544 -1.0701 -0.1213  1.5980
 1880TIP3   OH2 5603   0.286   1.452   4.557  0.6850  0.0586  0.1824
 1880TIP3    H1 5604   0.289   1.449   4.461 -1.3267 -0.7846  0.0914
 1880TIP3    H2 5605   0.283   1.360   4.583  1.5043  0.2746  1.1042
 1881TIP3   OH2 5606   0.104   6.510   2.172  0.4895 -0.2757 -0.0088
 1881TIP3    H1 5607   0.129   6.432   2.222 -0.6756 -0.7351 -0.1151
 1881TIP3    H2 5608   0.172   6.518   2.105  1.2092 -0.5656  0.6691
 1882TIP3   OH2 5609   0.067   2.430   1.926 -0.4694 -0.0452  0.2994
 1882TIP3    H1 5610   0.103   2.474   1.849 -0.3885 -0.8748 -0.1437
 1882TIP3    H2 5611   0.097   2.340   1.919  0.5977  0.1327  1.9715
 1883TIP3   OH2 5612   2.235   1.355   4.186 -0.2411  0.9447  0.2680
 1883TIP3    H1 5613   2.294   1.334   4.258  0.4646  2.7257  0.2621
 1883TIP3    H2 5614   2.148   1.333   4.219  0.3394 -1.8801  0.2186
 1884TIP3   OH2 5615   0.070   0.933   0.194 -0.3005 -0.0543  0.2156
 1884TIP3    H1 5616   0.072   0.848   0.239 -2.0389 -0.1026  0.2488
 1884TIP3    H2 5617   0.102   0.913   0.106 -0.3839 -0.6744  0.3193
 1885TIP3   OH2 5618   5.156   6.744   3.316 -0.0586 -0.2554  0.3277
 1885TIP3    H1 5619   5.181   6.710   3.402 -1.1056 -1.3697  0.2201
 1885TIP3    H2 5620   5.216   6.701   3.255  0.6060  0.4439  0.4724
 1886TIP3   OH2 5621   2.594   1.676   1.386 -0.6907 -0.0603 -0.7391
 1886TIP3    H1 5622   2.593   1.627   1.304  1.0334  0.0905 -0.8754
 1886TIP3    H2 5623   2.593   1.768   1.359 -2.0091  0.0116 -0.5227
 1887TIP3   OH2 5624   3.270   2.370   2.834  0.0678  0.4641 -0.3771
 1887TIP3    H1 5625   3.340   2.395   2.774 -1.5405  0.9787 -2.1239
 1887TIP3    H2 5626   3.201   2.336   2.777 -1.2323  0.2620  1.2670
 1888TIP3   OH2 5627   0.751   2.127   2.129 -0.1074 -0.5098  0.4528
 1888TIP3    H1 5628   0.678   2.128   2.190 -1.8227 -0.6684 -1.5102
 1888TIP3    H2 5629   0.721   2.075   2.055  1.5426  0.3921 -0.9410
 1889TIP3   OH2 5630   2.283   2.607   5.105  0.3039  0.3543 -0.0280
 1889TIP3    H1 5631   2.242   2.547   5.042  1.1788  1.4909 -1.7327
 1889TIP3    H2 5632   2.214   2.668   5.129 -0.5291 -1.0974  1.5387
 1890TIP3   OH2 5633   1.428   0.093   2.570 -0.2045  0.1539  0.2912
 1890TIP3    H1 5634   1.516   0.084   2.535 -1.3636  0.2810 -2.9576
 1890TIP3    H2 5635   1.416   0.188   2.581 -0.9307  0.4261 -2.3268
 1891TIP3   OH2 5636   4.586   6.108   5.613  0.4863  0.4895  0.0940
 1891TIP3    H1 5637   4.504   6.151   5.587  0.6903  1.3035  0.7514
 1891TIP3    H2 5638   4.639   6.109   5.533  0.2400  0.8886 -0.0713
 1892TIP3   OH2 5639   1.536   6.113   1.637  0.0117 -0.3336 -0.6434
 1892TIP3    H1 5640   1.608   6.085   1.581  0.1211 -0.4346 -0.4546
 1892TIP3    H2 5641   1.578   6.169   1.703 -0.0586 -0.5232 -0.4383
 1893TIP3   OH2 5642   4.977   4.924   5.743 -0.0121  0.4104  0.5675
 1893TIP3    H1 5643   4.928   4.988   5.795 -0.4602  1.3164 -0.9102
 1893TIP3    H2 5644   5.041   4.976   5.695  0.5966 -0.4405  0.4432
 1894TIP3   OH2 5645   4.242   3.049   4.767 -0.3588 -0.4532 -0.0850
 1894TIP3    H1 5646   4.210   3.098   4.691 -0.3948 -0.9881 -0.4191
 1894TIP3    H2 5647   4.267   2.964   4.732 -0.5092 -0.7569  0.5284
 1895TIP3   OH2 5648   2.342   5.253   2.499  0.4994 -0.0923 -0.2691
 1895TIP3    H1 5649   2.270   5.196   2.526 -0.4201  1.9324  1.7734
 1895TIP3    H2 5650   2.373   5.214   2.417 -1.7858 -1.9797 -0.3347
 1896TIP3   OH2 5651   0.764   3.244   3.044 -0.7032 -0.0829 -0.2135
 1896TIP3    H1 5652   0.728   3.155   3.038 -0.0423 -0.3276 -0.6104
 1896TIP3    H2 5653   0.851   3.237   3.005 -0.6350  0.7346 -0.2113
 1897TIP3   OH2 5654   0.511   1.214   5.030 -0.2356  0.0814 -0.0619
 1897TIP3    H1 5655   0.526   1.220   4.936  2.2788 -1.8630  0.1046
 1897TIP3    H2 5656   0.506   1.305   5.059  1.5748  0.7952 -1.7488
 1898TIP3   OH2 5657   4.967   1.714   2.201  0.9207  0.6398  0.8787
 1898TIP3    H1 5658   4.872   1.713   2.210  0.8305  1.2351  0.1056
 1898TIP3    H2 5659   4.988   1.629   2.161  0.5235  1.1665 -0.5151
 1899TIP3   OH2 5660   7.207   5.140   4.364  0.2014  0.2943 -0.4708
 1899TIP3    H1 5661   7.125   5.091   4.366 -1.5048  2.9241  1.1859
 1899TIP3    H2 5662   7.180   5.229   4.340  2.9260  0.7752 -2.1338
 1900TIP3   OH2 5663   2.875   0.174   3.272 -0.2482  0.1990  0.3953
 1900TIP3    H1 5664   2.783   0.149   3.280 -0.2384  0.0302  0.0389
 1900TIP3    H2 5665   2.887   0.246   3.334 -1.3009  2.0869 -1.4767
 1901TIP3   OH2 5666   0.748   6.195   3.271  0.3803 -0.4610  0.3101
 1901TIP3    H1 5667   0.698   6.269   3.237  2.3077 -0.4898 -2.9249
 1901TIP3    H2 5668   0.705   6.118   3.234 -0.4810 -0.9190  2.1415
 1902TIP3   OH2 5669   0.335   5.849   1.045 -0.4064  0.3209  0.0027
 1902TIP3    H1 5670   0.396   5.919   1.069  0.4682 -0.3146 -0.3096
 1902TIP3    H2 5671   0.311   5.809   1.128 -1.7291  1.6336  0.2857
 1903TIP3   OH2 5672   0.043   4.321   0.054 -0.1948 -0.0957  0.7248
 1903TIP3    H1 5673   0.125   4.272   0.056  1.0265  1.8747  2.7025
 1903TIP3    H2 5674   0.064   4.405   0.094 -3.0988  0.6515  0.8794
 1904TIP3   OH2 5675   0.940   6.311   1.443  0.2132  0.7387  0.3966
 1904TIP3    H1 5676   0.995   6.306   1.366  0.9467  0.3721  0.9297
 1904TIP3    H2 5677   0.908   6.221   1.456  2.7300  0.0092  2.3652
 1905TIP3   OH2 5678   2.893   6.735   4.326  0.2469  0.7836  0.1529
 1905TIP3    H1 5679   2.906   6.697   4.413 -0.1132 -0.8547 -0.4539
 1905TIP3    H2 5680   2.801   6.717   4.305  0.8810 -1.0127 -1.4689
 1906TIP3   OH2 5681   5.339   2.841   3.373 -0.7732 -0.1958  0.0858
 1906TIP3    H1 5682   5.425   2.800   3.388 -0.5105 -0.0177 -0.8244
 1906TIP3    H2 5683   5.306   2.861   3.460  0.1932 -0.1143  0.4457
 1907TIP3   OH2 5684   3.130   6.542   5.801  0.1931  0.0046  0.2636
 1907TIP3    H1 5685   3.037   6.565   5.792 -0.6719 -3.3340 -1.0540
 1907TIP3    H2 5686   3.176   6.604   5.745 -1.4974  0.4893 -0.6613
 1908TIP3   OH2 5687   6.292   6.385   1.359  0.2849 -0.1060 -0.6361
 1908TIP3    H1 5688   6.364   6.392   1.422  1.7606  2.5529 -2.4501
 1908TIP3    H2 5689   6.270   6.292   1.360  0.9953 -0.3883  2.8915
 1909TIP3   OH2 5690   1.708   4.058   1.995  0.4624  0.4064  0.0234
 1909TIP3    H1 5691   1.786   4.003   2.006 -0.8252 -1.0289  2.8291
 1909TIP3    H2 5692   1.687   4.050   1.902  0.8438 -3.2549  0.0940
 1910TIP3   OH2 5693   1.761   0.454   2.898 -0.4319 -0.1286 -0.1238
 1910TIP3    H1 5694   1.723   0.534   2.862  0.0904 -0.7524 -2.1818
 1910TIP3    H2 5695   1.699   0.425   2.965 -1.2588  1.2950 -0.2429
 1911TIP3   OH2 5696   1.865   6.078   4.744  0.4262 -0.1503  0.2651
 1911TIP3    H1 5697   1.809   6.005   4.717  0.0092  1.3619 -3.5179
 1911TIP3    H2 5698   1.804   6.145   4.775  0.6080 -0.4182  1.2305
 1912TIP3   OH2 5699   4.647   5.608   4.838  0.4488  0.4757 -0.4955
 1912TIP3    H1 5700   4.629   5.634   4.929  1.8004  1.9445 -0.6046
 1912TIP3    H2 5701   4.703   5.677   4.804  0.6682 -0.4908 -2.2048
 1913TIP3   OH2 5702   2.473   1.226   2.303 -0.6598  0.5778  0.6356
 1913TIP3    H1 5703   2.557   1.187   2.276 -0.5660  1.5825 -0.6292
 1913TIP3    H2 5704   2.451   1.181   2.384  1.6056  0.9633  1.5399
 1914TIP3   OH2 5705   6.672   5.022   1.746 -0.1042 -0.1085 -0.0558
 1914TIP3    H1 5706   6.660   4.933   1.779  2.4233 -0.7822 -0.7083
 1914TIP3    H2 5707   6.695   5.012   1.654 -1.0139  1.3260 -0.4743
 1915TIP3   OH2 5708   2.687   0.365   2.100  0.0586  0.0121  0.1223
 1915TIP3    H1 5709   2.594   0.387   2.108  0.5142  2.3410 -0.0683
 1915TIP3    H2 5710   2.709   0.323   2.183 -0.7889  1.1382  0.9625
 1916TIP3   OH2 5711   5.015   0.770   5.502 -0.5205 -0.0135 -0.2292
 1916TIP3    H1 5712   5.076   0.841   5.520 -0.1642 -0.0335 -1.2856
 1916TIP3    H2 5713   4.935   0.794   5.549 -0.0173  0.4900  0.3841
 1917TIP3   OH2 5714   5.173   1.951   2.371  0.1815 -0.0622 -0.3814
 1917TIP3    H1 5715   5.217   1.945   2.456 -1.1577  1.4447  0.4683
 1917TIP3    H2 5716   5.099   1.890   2.377  0.3194 -0.2597 -0.6380
 1918TIP3   OH2 5717   2.848   0.488   5.062 -0.0411 -0.0962 -0.4366
 1918TIP3    H1 5718   2.865   0.408   5.110  3.1757 -0.1160 -1.3838
 1918TIP3    H2 5719   2.927   0.541   5.074 -1.0926  1.9203 -1.7669
 1919TIP3   OH2 5720   1.902   1.304   2.531  0.4884  0.5505  0.1008
 1919TIP3    H1 5721   1.943   1.376   2.484  2.2866  0.2853  1.1793
 1919TIP3    H2 5722   1.908   1.230   2.471  0.6249  0.7712 -0.1604
 1920TIP3   OH2 5723   1.881   3.123   4.051  0.1043  0.5627 -0.1279
 1920TIP3    H1 5724   1.897   3.092   4.140  1.6350  1.5430 -0.0208
 1920TIP3    H2 5725   1.888   3.218   4.057 -0.1278  0.6685 -1.2449
 1921TIP3   OH2 5726   4.469   6.233   2.154  0.9370  0.0530  0.0025
 1921TIP3    H1 5727   4.462   6.154   2.208  1.5687 -0.5251 -0.7219
 1921TIP3    H2 5728   4.527   6.207   2.082 -0.5764  0.5221 -1.4452
 1922TIP3   OH2 5729   4.484   6.241   4.414 -0.1426  0.4378  0.3660
 1922TIP3    H1 5730   4.564   6.266   4.368 -0.2386  1.8774  0.9525
 1922TIP3    H2 5731   4.414   6.253   4.349 -0.1531  1.4565  0.5566
 1923TIP3   OH2 5732   2.238   0.270   3.431  0.8160  0.4074  0.1366
 1923TIP3    H1 5733   2.159   0.323   3.445 -0.6424 -1.4994 -0.4269
 1923TIP3    H2 5734   2.307   0.317   3.477 -0.6286  2.1694  0.6277
 1924TIP3   OH2 5735   0.246   5.662   5.003  0.2702 -0.5358  0.6251
 1924TIP3    H1 5736   0.205   5.733   5.052  0.1373 -0.7968  0.8945
 1924TIP3    H2 5737   0.283   5.705   4.925 -1.5910 -0.4402 -0.2718
 1925TIP3   OH2 5738   2.274   1.653   5.826  0.8655  0.3993 -0.0742
 1925TIP3    H1 5739   2.332   1.643   5.751  0.9657 -0.2355  0.0839
 1925TIP3    H2 5740   2.196   1.603   5.804  0.6060  0.7833 -0.0460
 1926TIP3   OH2 5741   5.934   6.787   3.880 -0.2190  0.7722 -0.8824
 1926TIP3    H1 5742   5.983   6.763   3.959 -1.1335  1.0718 -0.2091
 1926TIP3    H2 5743   6.002   6.818   3.820  0.4121  1.5017  0.1518
 1927TIP3   OH2 5744   5.261   5.492   2.211  0.2609  0.4696  0.4017
 1927TIP3    H1 5745   5.332   5.437   2.244  1.8889  1.6640 -0.9046
 1927TIP3    H2 5746   5.264   5.570   2.266  0.7695  1.0367 -0.4194
 1928TIP3   OH2 5747   2.103   0.345   1.466 -0.2470  0.4592  0.5005
 1928TIP3    H1 5748   2.168   0.383   1.406  0.0468 -0.1266  0.4460
 1928TIP3    H2 5749   2.146   0.270   1.505  0.5749  2.3755  3.5843
 1929TIP3   OH2 5750   1.888   6.601   0.458 -0.1286  0.1856 -0.1954
 1929TIP3    H1 5751   1.839   6.671   0.501 -1.1259 -0.8493  0.3926
 1929TIP3    H2 5752   1.822   6.536   0.434  0.8349 -0.8328 -0.1887
 1930TIP3   OH2 5753   4.888   5.571   2.115  0.6180 -0.1906  0.5290
 1930TIP3    H1 5754   4.880   5.588   2.209  1.6358  0.8281  0.4433
 1930TIP3    H2 5755   4.880   5.657   2.074  0.1968 -0.6276 -0.3292
 1931TIP3   OH2 5756   6.078   6.116   4.356 -0.1354 -0.2978  0.4146
 1931TIP3    H1 5757   6.096   6.032   4.398  2.1362 -0.4466 -0.7190
 1931TIP3    H2 5758   6.061   6.094   4.264 -0.3160  0.4184  0.2690
 1932TIP3   OH2 5759   4.563   1.364   4.079  0.4557  0.2831 -0.4412
 1932TIP3    H1 5760   4.578   1.359   3.985 -0.5335  2.4107 -0.7863
 1932TIP3    H2 5761   4.591   1.453   4.103 -0.6934  0.3168  0.9611
 1933TIP3   OH2 5762   3.101   0.202   5.154 -0.3231  0.0614 -0.4286
 1933TIP3    H1 5763   3.122   0.154   5.074  0.1606  2.1832 -1.6328
 1933TIP3    H2 5764   3.182   0.246   5.178 -0.4083 -0.6741  1.3849
 1934TIP3   OH2 5765   3.873   5.245   3.836  0.0639  0.1657 -0.2908
 1934TIP3    H1 5766   3.834   5.331   3.847  1.5092  1.0624 -1.7249
 1934TIP3    H2 5767   3.905   5.222   3.923 -1.3865  0.4973  0.3672
 1935TIP3   OH2 5768   2.481   5.245   1.661 -0.0086 -0.2788  0.4103
 1935TIP3    H1 5769   2.428   5.319   1.629  1.5862  0.8512  0.2657
 1935TIP3    H2 5770   2.483   5.184   1.588 -0.4233  0.0556  0.1149
 1936TIP3   OH2 5771   6.063   3.116   1.004  0.4404 -0.0107  0.6081
 1936TIP3    H1 5772   6.032   3.205   0.986  1.2196  0.0162 -0.7493
 1936TIP3    H2 5773   6.021   3.062   0.938  1.7139 -0.2771 -0.0187
 1937TIP3   OH2 5774   5.146   5.372   0.268  0.0915  0.3276 -0.4167
 1937TIP3    H1 5775   5.183   5.323   0.341 -0.7756 -0.6873 -0.6195
 1937TIP3    H2 5776   5.107   5.449   0.307 -0.2851 -0.1631  0.1922
 1938TIP3   OH2 5777   0.151   2.883   2.782 -0.2174 -0.0092  0.6068
 1938TIP3    H1 5778   0.162   2.956   2.844 -0.7939  0.2152  0.4520
 1938TIP3    H2 5779   0.161   2.805   2.836  1.0604  0.1672  0.6615
 1939TIP3   OH2 5780   5.643   6.773   1.506  0.5977 -0.0581 -0.0689
 1939TIP3    H1 5781   5.596   6.808   1.430  0.4110 -0.0526  0.0496
 1939TIP3    H2 5782   5.585   6.790   1.580  1.0862  0.5835  0.1821
 1940TIP3   OH2 5783   4.614   6.813   5.774 -0.1932 -0.0727 -0.3784
 1940TIP3    H1 5784   4.580   6.745   5.832 -0.6214  0.7082  0.3129
 1940TIP3    H2 5785   4.707   6.791   5.764 -0.4819 -1.1747 -0.7850
 1941TIP3   OH2 5786   6.366   3.072   0.045  0.2251  0.4331  0.2561
 1941TIP3    H1 5787   6.456   3.065   0.014  0.5037  1.2163  0.8365
 1941TIP3    H2 5788   6.331   3.148  -0.001  0.1032  0.5731  0.5762
 1942TIP3   OH2 5789   5.606   5.312   1.268 -0.2050 -0.9614 -0.3913
 1942TIP3    H1 5790   5.602   5.305   1.364  0.2459  1.3426 -0.1484
 1942TIP3    H2 5791   5.525   5.357   1.245 -0.7473 -2.3135 -1.2338
 1943TIP3   OH2 5792   2.189   4.500   0.473  0.0178 -0.2901  0.1553
 1943TIP3    H1 5793   2.159   4.537   0.390 -0.6627  1.2854  1.0659
 1943TIP3    H2 5794   2.209   4.409   0.452 -0.5344 -0.0439 -1.6432
 1944TIP3   OH2 5795   4.441   6.513   3.794  0.2786 -0.5081 -0.1590
 1944TIP3    H1 5796   4.530   6.527   3.826  1.1398  0.0113 -2.5746
 1944TIP3    H2 5797   4.432   6.418   3.788  0.0118 -0.6366  1.6549
 1945TIP3   OH2 5798   4.504   1.507   2.085 -0.3490 -0.3191 -0.0057
 1945TIP3    H1 5799   4.463   1.451   2.151  1.2960 -0.6103  0.8227
 1945TIP3    H2 5800   4.556   1.447   2.032  2.6799  0.4620  1.8292
 1946TIP3   OH2 5801   1.089   2.193   2.028 -0.3692 -0.5973 -0.0080
 1946TIP3    H1 5802   1.154   2.181   2.097 -0.7945  0.0385  0.5260
 1946TIP3    H2 5803   1.023   2.126   2.046  1.1746 -2.7425 -1.8780
 1947TIP3   OH2 5804   7.170   4.571   3.215 -0.5185  0.4263  0.4994
 1947TIP3    H1 5805   7.135   4.488   3.249  1.1498 -0.4182  0.3034
 1947TIP3    H2 5806   7.095   4.629   3.210 -2.0180 -1.4697 -0.5722
 1948TIP3   OH2 5807   2.984   5.228   0.986  0.1955 -0.6429  0.0951
 1948TIP3    H1 5808   3.074   5.222   1.018  0.3408  1.6664  0.2936
 1948TIP3    H2 5809   2.935   5.264   1.059 -0.8803 -1.6888 -0.0809
 1949TIP3   OH2 5810   1.369   1.296   0.284  0.4138 -0.2875 -0.8853
 1949TIP3    H1 5811   1.424   1.233   0.238  1.7006  0.5350 -0.5099
 1949TIP3    H2 5812   1.420   1.321   0.360 -0.3698  0.7148 -0.6763
 1950TIP3   OH2 5813   4.960   6.114   1.986 -0.3062 -0.1558  0.2905
 1950TIP3    H1 5814   5.024   6.114   1.915 -0.4038 -0.9718  0.1966
 1950TIP3    H2 5815   4.999   6.168   2.054  0.5157 -0.7043  0.2637
 1951TIP3   OH2 5816   0.075   1.255   2.167 -0.5367 -0.1256  0.0343
 1951TIP3    H1 5817   0.026   1.239   2.086  0.3838  0.2221 -0.6055
 1951TIP3    H2 5818   0.034   1.198   2.232 -1.2825 -0.4113 -0.6785
 1952TIP3   OH2 5819   6.559   1.337   2.129  0.5697  0.4380  0.0270
 1952TIP3    H1 5820   6.522   1.409   2.180 -0.0008  0.0794  0.1171
 1952TIP3    H2 5821   6.568   1.373   2.041 -1.2005  0.1391 -0.3134
 1953TIP3   OH2 5822   5.587   5.070   4.949  0.9215  0.3109 -0.0082
 1953TIP3    H1 5823   5.651   5.087   4.880  2.2991  0.0129  1.1685
 1953TIP3    H2 5824   5.593   4.976   4.966 -0.5914  0.0778 -0.5864
 1954TIP3   OH2 5825   6.601   3.258   2.049  0.1508  0.9172  0.2062
 1954TIP3    H1 5826   6.626   3.268   2.140  1.1352  3.4537 -0.2470
 1954TIP3    H2 5827   6.674   3.211   2.008 -0.2799 -0.1946  0.6749
 1955TIP3   OH2 5828   0.034   5.519   2.950 -0.1180 -0.0609 -1.1989
 1955TIP3    H1 5829  -0.003   5.597   2.908 -2.0162 -0.3196 -0.1581
 1955TIP3    H2 5830   0.002   5.524   3.041  0.2899 -1.6896 -0.9352
 1956TIP3   OH2 5831   5.598   0.598   2.794 -0.0541 -0.1083  0.7660
 1956TIP3    H1 5832   5.663   0.558   2.737 -0.3925  1.0439 -0.4755
 1956TIP3    H2 5833   5.514   0.582   2.750 -0.3833  0.2519  1.2511
 1957TIP3   OH2 5834   5.776   0.491   3.544 -0.0435 -0.0432 -0.0904
 1957TIP3    H1 5835   5.785   0.545   3.622 -0.3125  0.3308 -0.3161
 1957TIP3    H2 5836   5.738   0.409   3.576  1.8900 -0.7670  0.5151
 1958TIP3   OH2 5837   0.658   3.308   4.591  0.2745  0.3369  0.5063
 1958TIP3    H1 5838   0.739   3.292   4.543  0.6458  0.6427  1.0163
 1958TIP3    H2 5839   0.636   3.223   4.631  1.2071  0.6147  1.6530
 1959TIP3   OH2 5840   3.573   5.829   0.871 -0.7672 -0.3696 -0.2404
 1959TIP3    H1 5841   3.526   5.756   0.832  1.3027 -1.0067 -1.6673
 1959TIP3    H2 5842   3.549   5.904   0.817  0.2720 -0.8040 -1.3366
 1960TIP3   OH2 5843   2.378   4.077   4.088 -0.0142  0.1312 -0.0819
 1960TIP3    H1 5844   2.315   4.073   4.160  0.8956 -0.1659  0.7164
 1960TIP3    H2 5845   2.365   3.996   4.039 -1.5175  0.9023 -1.0414
 1961TIP3   OH2 5846   1.190   1.370   0.678  0.0209  0.1267  0.1587
 1961TIP3    H1 5847   1.169   1.284   0.641  0.4783  0.1429 -0.1462
 1961TIP3    H2 5848   1.279   1.387   0.648  0.4289  0.1166  1.3225
 1962TIP3   OH2 5849   2.884   2.077   5.408 -0.0328 -0.4544  0.0296
 1962TIP3    H1 5850   2.904   2.171   5.402 -0.3891 -0.3982 -0.3108
 1962TIP3    H2 5851   2.867   2.062   5.501  2.2936 -0.6601  0.4854
 1963TIP3   OH2 5852   0.119   5.997   4.881 -0.1874 -0.1700  0.8690
 1963TIP3    H1 5853   0.184   5.978   4.813 -1.9602  1.0202 -1.3118
 1963TIP3    H2 5854   0.051   5.931   4.869 -0.8067  0.4096  1.0814
 1964TIP3   OH2 5855   7.138   0.780   2.424  0.0687  0.1124  0.3204
 1964TIP3    H1 5856   7.130   0.698   2.472  0.0117 -0.4426 -0.6195
 1964TIP3    H2 5857   7.100   0.762   2.338 -0.8542  1.3996  0.4183
 1965TIP3   OH2 5858   2.313   5.165   5.714 -0.8879 -0.5212 -0.2759
 1965TIP3    H1 5859   2.252   5.093   5.697 -0.6131 -0.9212  0.3647
 1965TIP3    H2 5860   2.361   5.138   5.793 -0.7272  0.3308 -0.0636
 1966TIP3   OH2 5861   6.573   1.030   1.407  0.3254  0.4119  0.2829
 1966TIP3    H1 5862   6.575   0.934   1.404 -0.8364  0.3808  0.1637
 1966TIP3    H2 5863   6.481   1.052   1.415  0.5495  1.5390 -0.0257
 1967TIP3   OH2 5864   7.159   4.718   0.427 -0.2595 -0.3859  0.6371
 1967TIP3    H1 5865   7.157   4.737   0.521  0.6285 -1.5690  0.9223
 1967TIP3    H2 5866   7.225   4.649   0.418  0.7013  0.6888 -1.0464
 1968TIP3   OH2 5867   2.129   4.336   2.029 -0.3739  0.0273  0.1518
 1968TIP3    H1 5868   2.090   4.317   1.943 -0.7183 -1.8602  0.6637
 1968TIP3    H2 5869   2.152   4.428   2.025  0.2186 -0.1396 -2.2108
 1969TIP3   OH2 5870   4.382   0.484   4.931  0.4728  0.5801  0.0377
 1969TIP3    H1 5871   4.412   0.394   4.917 -1.9128 -0.4807  1.2313
 1969TIP3    H2 5872   4.463   0.535   4.941  1.9203 -1.0939 -2.2161
 1970TIP3   OH2 5873   4.748   6.253   4.347 -0.0781  0.1241 -0.1881
 1970TIP3    H1 5874   4.816   6.232   4.283 -0.7487 -0.3462 -0.7625
 1970TIP3    H2 5875   4.796   6.291   4.421  0.7376  0.3992 -0.8414
 1971TIP3   OH2 5876   3.501   0.293   1.343  0.0682 -0.1242  0.3134
 1971TIP3    H1 5877   3.577   0.274   1.397  0.5435 -0.5555 -0.4930
 1971TIP3    H2 5878   3.516   0.245   1.262 -1.2265 -0.5039  0.2641
 1972TIP3   OH2 5879   5.891   6.448   4.384  0.1402  0.5817  0.1236
 1972TIP3    H1 5880   5.853   6.371   4.341  0.4457  0.1892  0.5390
 1972TIP3    H2 5881   5.981   6.422   4.403  0.2528  1.0579  0.2418
 1973TIP3   OH2 5882   2.842   2.788   1.315  0.7944  0.0723  0.2439
 1973TIP3    H1 5883   2.749   2.787   1.294  0.3311  0.1201  2.0989
 1973TIP3    H2 5884   2.886   2.806   1.232 -0.8424 -0.0400 -0.6710
 1974TIP3   OH2 5885   0.519   2.902   3.615  0.3009  0.8984 -0.5080
 1974TIP3    H1 5886   0.494   2.972   3.675 -0.4618 -0.4071  0.7724
 1974TIP3    H2 5887   0.580   2.848   3.666  0.3384  0.2594 -1.2239
 1975TIP3   OH2 5888   1.468   3.604   0.756  0.4380  0.0930 -0.2328
 1975TIP3    H1 5889   1.438   3.550   0.830 -0.4064 -0.6257 -1.0778
 1975TIP3    H2 5890   1.401   3.672   0.748  1.4045  1.1992  0.7107
 1976TIP3   OH2 5891   7.142   6.144   3.975  0.1402  0.3258 -0.0340
 1976TIP3    H1 5892   7.219   6.166   3.923  0.0433  0.0455 -0.3040
 1976TIP3    H2 5893   7.081   6.105   3.912 -0.3639  0.8726  0.1102
 1977TIP3   OH2 5894   6.482   2.578   2.098  0.1734  0.8007  0.3260
 1977TIP3    H1 5895   6.513   2.628   2.022  0.5202 -1.3784 -1.0761
 1977TIP3    H2 5896   6.560   2.565   2.152  0.6432 -0.2791 -0.5718
 1978TIP3   OH2 5897   5.337   6.298   2.883  0.3085  0.0091  0.3115
 1978TIP3    H1 5898   5.265   6.250   2.842  1.3475 -2.0188  0.7490
 1978TIP3    H2 5899   5.303   6.325   2.968  1.0012 -4.0223  2.1036
 1979TIP3   OH2 5900   5.527   1.806   4.972  0.6831  0.2512 -0.6897
 1979TIP3    H1 5901   5.460   1.762   4.919  0.2152  0.0922  0.0205
 1979TIP3    H2 5902   5.608   1.760   4.950  0.2940 -0.6147 -0.3865
 1980TIP3   OH2 5903   3.609   2.610   3.904 -0.4460 -0.4259  0.2378
 1980TIP3    H1 5904   3.702   2.629   3.894 -0.3455 -1.0122  0.0248
 1980TIP3    H2 5905   3.590   2.629   3.996 -0.4055  0.8948 -0.0149
 1981TIP3   OH2 5906   1.690   1.065   2.603 -0.0087  0.6277  0.0467
 1981TIP3    H1 5907   1.701   1.098   2.514 -1.6912  1.2087  0.0227
 1981TIP3    H2 5908   1.607   1.102   2.632 -0.0060 -0.4225  1.4755
 1982TIP3   OH2 5909   4.051   3.285   3.419  0.1981  0.4415 -0.1882
 1982TIP3    H1 5910   4.070   3.279   3.326 -1.7057 -0.0807 -0.5852
 1982TIP3    H2 5911   4.064   3.196   3.452  2.0547  0.8583  0.3496
 1983TIP3   OH2 5912   5.994   6.353   2.365 -0.0137 -0.4673 -0.0203
 1983TIP3    H1 5913   6.004   6.258   2.365 -0.2614 -0.5054 -0.9106
 1983TIP3    H2 5914   5.903   6.368   2.394 -0.7554 -0.6384 -2.0736
 1984TIP3   OH2 5915   5.559   3.632   0.374 -0.3988  0.0597  0.3016
 1984TIP3    H1 5916   5.605   3.606   0.294 -1.1521  0.1836 -0.1774
 1984TIP3    H2 5917   5.527   3.550   0.411  2.0130 -0.3118  1.8160
 1985TIP3   OH2 5918   7.186   4.851   2.152 -0.8345 -0.2538  0.1132
 1985TIP3    H1 5919   7.277   4.841   2.180 -0.6849 -0.1783 -0.3369
 1985TIP3    H2 5920   7.140   4.778   2.193 -0.3456 -0.9900 -0.6028
 1986TIP3   OH2 5921   4.679   5.059   3.261  0.5881 -0.1054 -0.0422
 1986TIP3    H1 5922   4.589   5.091   3.249 -0.4179 -1.2321  3.4581
 1986TIP3    H2 5923   4.671   4.985   3.321  3.8600 -0.5859 -0.0067
 1987TIP3   OH2 5924   6.400   0.704   2.009 -0.0646  0.1130  0.6818
 1987TIP3    H1 5925   6.383   0.624   2.058  0.6865 -0.4016  0.1245
 1987TIP3    H2 5926   6.478   0.742   2.049  0.3910 -0.1667  0.0655
 1988TIP3   OH2 5927   6.179   1.328   0.461  0.2380  0.2760  0.3455
 1988TIP3    H1 5928   6.142   1.415   0.453 -0.1456  0.1238  0.4378
 1988TIP3    H2 5929   6.266   1.335   0.422  0.2764  0.7408  0.5104
 1989TIP3   OH2 5930   4.289   4.609   5.637 -0.1178 -0.2337 -0.0274
 1989TIP3    H1 5931   4.256   4.570   5.556 -0.6128  1.1582 -0.5238
 1989TIP3    H2 5932   4.213   4.650   5.678  0.3682  0.1688  0.5000
 1990TIP3   OH2 5933   3.504   3.521   0.607  0.5918  1.1102  0.7427
 1990TIP3    H1 5934   3.470   3.610   0.595 -0.2582  0.5403 -1.4111
 1990TIP3    H2 5935   3.598   3.530   0.599  0.5826  1.9325  1.4021
 1991TIP3   OH2 5936   6.457   5.752   0.454  0.0320 -0.0454  0.2392
 1991TIP3    H1 5937   6.439   5.693   0.528  2.2774  0.6857  1.4749
 1991TIP3    H2 5938   6.478   5.836   0.495  0.4709  0.6301 -1.2913
 1992TIP3   OH2 5939   2.453   4.016   1.956 -0.5588  0.0996 -0.2239
 1992TIP3    H1 5940   2.394   3.962   2.010  2.4884 -3.2864  0.0849
 1992TIP3    H2 5941   2.449   3.976   1.869  0.4250  0.4930 -0.4591
 1993TIP3   OH2 5942   7.030   3.693   0.636 -0.1665 -0.6247 -0.1514
 1993TIP3    H1 5943   6.950   3.731   0.673  0.0547 -0.0849 -0.2253
 1993TIP3    H2 5944   7.064   3.759   0.577  0.1615 -0.9863 -0.3762
 1994TIP3   OH2 5945   5.738   1.743   0.188 -0.7853 -0.2787 -0.1672
 1994TIP3    H1 5946   5.817   1.786   0.156 -0.8402  0.5206  0.7235
 1994TIP3    H2 5947   5.730   1.664   0.134  1.1793 -0.9300  0.4135
 1995TIP3   OH2 5948   4.381   1.101   4.756  0.5275 -0.0339  0.2702
 1995TIP3    H1 5949   4.362   1.007   4.749  1.2047 -0.1853  0.4017
 1995TIP3    H2 5950   4.468   1.105   4.796  0.8720  0.6294 -0.5115
 1996TIP3   OH2 5951   0.934   1.883   1.851 -0.5472 -0.2471 -0.2722
 1996TIP3    H1 5952   0.966   1.906   1.938  0.5671  1.2266 -1.0193
 1996TIP3    H2 5953   0.839   1.872   1.862 -0.4982  0.4542  1.0185
 1997TIP3   OH2 5954   2.586   2.165   2.504  0.6661  0.7032 -0.0358
 1997TIP3    H1 5955   2.500   2.124   2.495  0.7902  0.1317  1.0824
 1997TIP3    H2 5956   2.578   2.218   2.584  1.6570 -0.2280  0.7082
 1998TIP3   OH2 5957   7.170   2.651   2.471 -0.1218 -0.2347 -0.9563
 1998TIP3    H1 5958   7.074   2.649   2.476 -0.1262 -0.2608 -1.0546
 1998TIP3    H2 5959   7.189   2.717   2.405 -0.0636  0.0167 -0.6881
 1999TIP3   OH2 5960   1.081   1.999   1.641 -0.0364 -0.0838  0.3281
 1999TIP3    H1 5961   1.053   1.962   1.724 -0.3472 -1.8079 -0.4941
 1999TIP3    H2 5962   1.158   1.947   1.616 -1.7511 -1.7770 -1.8972
 2000TIP3   OH2 5963   5.534   3.549   2.604  0.0944 -0.6019 -0.1849
 2000TIP3    H1 5964   5.593   3.559   2.528 -1.3325  0.9743 -1.1572
 2000TIP3    H2 5965   5.529   3.637   2.642  1.2934 -1.4771  2.2278
 2001TIP3   OH2 5966   3.176   4.030   5.623 -0.6233 -0.0606  0.1998
 2001TIP3    H1 5967   3.214   4.030   5.711  2.2272 -0.1291 -0.9248
 2001TIP3    H2 5968   3.155   3.938   5.606  1.3094 -0.4834 -0.1198
 2002TIP3   OH2 5969   0.999   6.432   1.858 -0.1243 -0.2058 -0.0504
 2002TIP3    H1 5970   0.931   6.468   1.801 -0.3755  0.6151  0.7340
 2002TIP3    H2 5971   0.999   6.338   1.840 -0.4329 -0.0107 -1.1308
 2003TIP3   OH2 5972   1.302   3.729   0.507  0.1656 -0.5317 -0.8194
 2003TIP3    H1 5973   1.358   3.676   0.450  1.4401 -0.9010  0.6971
 2003TIP3    H2 5974   1.222   3.677   0.517 -0.0445 -0.4962 -2.1666
 2004TIP3   OH2 5975   6.292   2.637   5.625  0.0298 -0.3874  0.9401
 2004TIP3    H1 5976   6.226   2.704   5.607  0.4843 -0.2772 -0.4360
 2004TIP3    H2 5977   6.297   2.585   5.545  0.8579 -1.0495  1.3989
 2005TIP3   OH2 5978   4.388   3.134   5.660  0.2332 -0.2117  0.4883
 2005TIP3    H1 5979   4.471   3.155   5.702  1.6695 -1.2124 -1.6620
 2005TIP3    H2 5980   4.409   3.062   5.600 -1.9181  0.3341 -1.0399
 2006TIP3   OH2 5981   0.088   1.114   1.325 -0.4049 -0.6769  0.0844
 2006TIP3    H1 5982   0.173   1.135   1.362  0.2159 -1.3926 -0.8782
 2006TIP3    H2 5983   0.039   1.196   1.326  1.0200  0.2309 -1.2276
 2007TIP3   OH2 5984   2.710   4.290   2.857  0.1413  0.0736 -0.0595
 2007TIP3    H1 5985   2.713   4.298   2.762 -0.2755  1.2272  0.0060
 2007TIP3    H2 5986   2.649   4.218   2.874  0.4418 -0.3249 -0.6708
 2008TIP3   OH2 5987   4.467   3.850   0.217 -0.3672 -0.3568  0.1987
 2008TIP3    H1 5988   4.531   3.877   0.282 -0.5253  0.4726  0.0205
 2008TIP3    H2 5989   4.512   3.861   0.133 -0.5230 -0.3906  0.1100
 2009TIP3   OH2 5990   5.356   0.141   4.005  0.2615 -0.5169 -0.2755
 2009TIP3    H1 5991   5.376   0.048   4.017  0.4031 -0.4243  0.2283
 2009TIP3    H2 5992   5.362   0.178   4.093  0.1698 -0.0376 -0.4701
 2010TIP3   OH2 5993   5.562   3.647   3.753 -0.1600 -0.5962 -0.3335
 2010TIP3    H1 5994   5.579   3.559   3.786 -1.8635 -0.9582 -0.3372
 2010TIP3    H2 5995   5.648   3.690   3.754  0.2803 -1.3786  2.1893
 2011TIP3   OH2 5996   2.598   2.033   0.761 -0.1422  0.3922 -0.4787
 2011TIP3    H1 5997   2.608   1.942   0.788  0.0825  0.5985  0.1489
 2011TIP3    H2 5998   2.503   2.047   0.759 -0.1607  0.4930  0.6391
 2012TIP3   OH2 5999   4.418   0.975   2.623  0.2185  0.7193  0.2351
 2012TIP3    H1 6000   4.488   0.911   2.635  1.2068  1.4641 -1.2338
 2012TIP3    H2 6001   4.458   1.059   2.648 -0.5988  0.9638  0.7434
 2013TIP3   OH2 6002   2.712   1.218   2.642 -0.3456 -0.1376 -0.2431
 2013TIP3    H1 6003   2.660   1.140   2.626 -1.3609  0.2619  0.8809
 2013TIP3    H2 6004   2.672   1.258   2.720  1.4994  0.3307  0.5278
 2014TIP3   OH2 6005   5.284   4.469   0.105  0.2230  0.3432 -0.1728
 2014TIP3    H1 6006   5.210   4.525   0.130  1.2210  1.3627  0.6540
 2014TIP3    H2 6007   5.245   4.393   0.064 -1.1936  1.7360 -1.5229
 2015TIP3   OH2 6008   0.911   4.195   0.035  0.2551  0.1179 -0.4548
 2015TIP3    H1 6009   0.950   4.155   0.113  0.9153  0.7175 -0.4749
 2015TIP3    H2 6010   0.844   4.132   0.007 -1.3795  0.7487  1.7127
 2016TIP3   OH2 6011   1.119   1.159   1.447  0.1705  0.0182 -0.3271
 2016TIP3    H1 6012   1.196   1.216   1.453 -0.2000  0.4862  0.1248
 2016TIP3    H2 6013   1.138   1.099   1.375  0.6528  0.5898 -0.6828
 2017TIP3   OH2 6014   4.185   1.497   1.636 -0.0131 -0.3142  0.1599
 2017TIP3    H1 6015   4.114   1.433   1.641  0.2242 -0.7315 -1.3150
 2017TIP3    H2 6016   4.171   1.553   1.712 -1.0655 -1.2510  0.7051
 2018TIP3   OH2 6017   1.431   5.524   5.296  0.3483  0.0459  0.3764
 2018TIP3    H1 6018   1.416   5.600   5.241  1.6680  1.4860  1.9013
 2018TIP3    H2 6019   1.517   5.492   5.272  0.6517  0.2795  1.1213
 2019TIP3   OH2 6020   4.673   5.068   3.907  0.5114  0.4977  0.2334
 2019TIP3    H1 6021   4.619   5.143   3.883 -0.5682 -0.6328 -1.0165
 2019TIP3    H2 6022   4.746   5.069   3.846 -0.0599 -0.0353 -0.4797
 2020TIP3   OH2 6023   3.245   1.145   2.051 -0.1417  0.4199  0.2220
 2020TIP3    H1 6024   3.154   1.166   2.034  0.0960 -0.3741 -2.4691
 2020TIP3    H2 6025   3.241   1.066   2.105 -1.0614  0.0974 -0.2952
 2021TIP3   OH2 6026   5.894   1.193   3.575 -0.6855  0.0166  0.1732
 2021TIP3    H1 6027   5.899   1.185   3.671  1.0916  0.6301  0.1619
 2021TIP3    H2 6028   5.898   1.103   3.544 -0.7325 -0.1572  0.6491
 2022TIP3   OH2 6029   0.433   0.545   5.089 -0.7434 -0.1268  0.0747
 2022TIP3    H1 6030   0.396   0.489   5.020  0.9361 -0.5429 -0.5568
 2022TIP3    H2 6031   0.478   0.615   5.041 -0.5604  0.2527  0.7908
 2023TIP3   OH2 6032   0.654   2.323   4.315  0.3086  0.3803 -0.4233
 2023TIP3    H1 6033   0.724   2.307   4.379  0.6327 -1.7818 -1.2278
 2023TIP3    H2 6034   0.662   2.251   4.252 -2.4796  0.2066 -0.7130
 2024TIP3   OH2 6035   3.548   4.095   2.128 -0.3976  0.3910  0.0195
 2024TIP3    H1 6036   3.602   4.172   2.150  0.1989 -0.4221  1.5833
 2024TIP3    H2 6037   3.559   4.084   2.034 -0.0759  1.9000 -0.1522
 2025TIP3   OH2 6038   3.605   0.302   4.730  0.0812 -0.0277 -0.0280
 2025TIP3    H1 6039   3.632   0.236   4.795  0.2321 -0.7587 -0.8196
 2025TIP3    H2 6040   3.558   0.368   4.782  0.4443 -0.4522  0.8690
 2026TIP3   OH2 6041   2.572   6.328   1.592  0.4572  0.5783 -0.1856
 2026TIP3    H1 6042   2.621   6.390   1.539 -0.0158  0.2448 -1.0358
 2026TIP3    H2 6043   2.613   6.332   1.679 -0.1084  2.7260  0.0377
 2027TIP3   OH2 6044   0.425   4.809   4.716  0.4754  0.3072  0.0419
 2027TIP3    H1 6045   0.435   4.738   4.652 -0.5300 -0.5937  0.8257
 2027TIP3    H2 6046   0.446   4.889   4.668  0.4249 -0.4117 -1.2187
 2028TIP3   OH2 6047   1.773   2.726   3.733 -0.1269  0.9160  0.2666
 2028TIP3    H1 6048   1.823   2.773   3.801  1.3454  1.6254 -1.2354
 2028TIP3    H2 6049   1.753   2.793   3.668 -1.4892  0.2372 -0.0395
 2029TIP3   OH2 6050   2.217   3.899   2.964 -0.3413  0.0480 -0.6157
 2029TIP3    H1 6051   2.149   3.833   2.952 -1.5187  1.4287 -1.7935
 2029TIP3    H2 6052   2.204   3.931   3.054 -0.1119 -0.8879 -0.2346
 2030TIP3   OH2 6053   2.767   3.733   4.545  0.3855 -0.4582 -0.2078
 2030TIP3    H1 6054   2.831   3.803   4.554  1.5987 -0.9240 -3.6371
 2030TIP3    H2 6055   2.820   3.654   4.531 -0.9705 -1.8004  1.6796
 2031TIP3   OH2 6056   3.470   0.092   3.763  0.1861  0.2889 -0.1528
 2031TIP3    H1 6057   3.385   0.050   3.778 -0.6130  1.9531  0.2756
 2031TIP3    H2 6058   3.489   0.075   3.671 -0.0529 -1.0413  0.0166
 2032TIP3   OH2 6059   5.064   1.961   0.555  0.0619 -0.1228 -0.6668
 2032TIP3    H1 6060   5.103   2.047   0.542 -1.0602  0.0225 -4.0163
 2032TIP3    H2 6061   5.060   1.923   0.467 -0.3155 -3.2461  0.5801
 2033TIP3   OH2 6062   1.133   0.931   0.557 -0.0276 -0.2589 -0.0552
 2033TIP3    H1 6063   1.104   1.022   0.566 -0.0938 -0.2705 -0.1488
 2033TIP3    H2 6064   1.217   0.937   0.512  0.2760 -0.2042  0.5081
 2034TIP3   OH2 6065   6.863   5.574   2.878 -0.0869 -0.1336 -0.3402
 2034TIP3    H1 6066   6.893   5.574   2.787  0.9444  0.0810 -0.0151
 2034TIP3    H2 6067   6.926   5.518   2.924 -1.4591 -1.4849 -0.0113
 2035TIP3   OH2 6068   5.951   2.609   4.576 -0.0626  0.2767 -0.3772
 2035TIP3    H1 6069   5.868   2.614   4.529  0.3504  0.5568 -1.0975
 2035TIP3    H2 6070   6.001   2.683   4.543  0.4738  0.1135  0.0562
 2036TIP3   OH2 6071   3.708   3.416   1.078 -0.5642  0.3762  0.5643
 2036TIP3    H1 6072   3.663   3.339   1.043 -0.9406  1.7983 -2.3929
 2036TIP3    H2 6073   3.801   3.396   1.068 -0.6345 -0.0735  0.7778
 2037TIP3   OH2 6074   6.712   6.234   1.253  0.2730 -0.4984  0.1828
 2037TIP3    H1 6075   6.686   6.274   1.336 -2.2661 -1.0747 -0.2682
 2037TIP3    H2 6076   6.712   6.307   1.191 -1.4021 -0.6170 -0.0110
 2038TIP3   OH2 6077   6.757   1.165   3.501 -0.3246 -0.1547 -0.0274
 2038TIP3    H1 6078   6.686   1.163   3.565  0.9979  1.1725  1.5738
 2038TIP3    H2 6079   6.794   1.077   3.504 -1.3462 -0.6109 -0.2702
 2039TIP3   OH2 6080   0.348   2.232   2.741 -0.0647 -0.3596  0.0396
 2039TIP3    H1 6081   0.393   2.163   2.791  1.9938  0.5439 -0.4468
 2039TIP3    H2 6082   0.375   2.314   2.784 -0.8360  0.2547 -0.6103
 2040TIP3   OH2 6083   7.153   1.704   1.742 -0.2799  0.1987 -0.3236
 2040TIP3    H1 6084   7.099   1.626   1.754 -0.0178 -0.0593 -0.8091
 2040TIP3    H2 6085   7.166   1.738   1.831 -0.2952 -0.3736 -0.0998
 2041TIP3   OH2 6086   3.675   6.656   1.634  0.4191 -0.0003  0.1599
 2041TIP3    H1 6087   3.583   6.641   1.611  0.4128  1.4514 -0.8778
 2041TIP3    H2 6088   3.720   6.576   1.606 -0.4070 -0.4054 -0.0494
 2042TIP3   OH2 6089   0.125   4.651   2.824  0.1316  0.0383 -0.1257
 2042TIP3    H1 6090   0.106   4.740   2.797  0.3956  0.6806  1.6428
 2042TIP3    H2 6091   0.051   4.600   2.790 -1.8382  1.5221  1.6453
 2043TIP3   OH2 6092   2.856   2.122   1.206 -0.0602 -0.2161  0.0875
 2043TIP3    H1 6093   2.791   2.187   1.181 -0.9768 -1.1499 -0.0174
 2043TIP3    H2 6094   2.916   2.119   1.131  0.1582  0.6945  0.2135
 2044TIP3   OH2 6095   0.433   6.005   5.576  0.2695  0.0039  1.3367
 2044TIP3    H1 6096   0.407   6.085   5.532  2.0778 -0.4294 -0.6788
 2044TIP3    H2 6097   0.385   5.936   5.531  1.0779 -0.3121  0.9376
 2045TIP3   OH2 6098   6.426   4.269   2.009 -0.1060  0.6692  0.7682
 2045TIP3    H1 6099   6.456   4.192   1.960 -0.4336 -0.1864  1.8718
 2045TIP3    H2 6100   6.456   4.253   2.099 -0.9758  1.3963  1.1973
 2046TIP3   OH2 6101   1.883   5.637   2.644  0.7992  0.1374  0.9217
 2046TIP3    H1 6102   1.893   5.568   2.579  0.7179 -0.5898  1.6759
 2046TIP3    H2 6103   1.961   5.631   2.698  1.3269  1.3593  0.3326
 2047TIP3   OH2 6104   0.708   4.022   4.565  0.0896 -0.0611  0.0051
 2047TIP3    H1 6105   0.677   4.006   4.654  0.8370 -0.2016  0.2476
 2047TIP3    H2 6106   0.802   4.038   4.575  0.1481  0.1030 -0.7395
 2048TIP3   OH2 6107   3.107   1.846   2.737 -0.1515  0.1328  0.0364
 2048TIP3    H1 6108   3.095   1.751   2.734  2.5825 -0.3566  1.0290
 2048TIP3    H2 6109   3.184   1.862   2.682 -0.8116  1.8412 -0.4452
 2049TIP3   OH2 6110   2.565   6.543   2.517  1.2385 -0.2598  0.0357
 2049TIP3    H1 6111   2.526   6.480   2.577  0.3645  0.2833  0.0563
 2049TIP3    H2 6112   2.491   6.593   2.483  1.8767  0.5046 -0.2721
 2050TIP3   OH2 6113   1.412   5.720   1.026  0.2049 -0.0314 -0.2360
 2050TIP3    H1 6114   1.410   5.816   1.025  0.1845 -0.0301 -0.1386
 2050TIP3    H2 6115   1.358   5.696   1.102  1.3105 -0.0821  0.5615
 2051TIP3   OH2 6116   5.973   4.059   4.325 -0.3047  0.2079  0.1562
 2051TIP3    H1 6117   5.955   4.129   4.262  0.1883 -0.1060 -0.3453
 2051TIP3    H2 6118   6.068   4.058   4.334 -0.3002 -0.4206  0.1164
 2052TIP3   OH2 6119   6.015   0.246   4.370 -0.7055  0.4328  0.5057
 2052TIP3    H1 6120   5.951   0.295   4.318  1.5438  2.0160 -0.9748
 2052TIP3    H2 6121   6.038   0.305   4.442  0.7167  0.9146 -0.2890
 2053TIP3   OH2 6122   2.323   3.609   4.997 -0.1950  0.2144  0.3836
 2053TIP3    H1 6123   2.364   3.633   4.914  1.1629  0.5770  1.1111
 2053TIP3    H2 6124   2.265   3.682   5.017  1.3295  1.3438  0.9116
 2054TIP3   OH2 6125   4.452   5.867   4.538  0.0165 -0.4068  0.3332
 2054TIP3    H1 6126   4.541   5.903   4.542 -1.4660  3.6548  0.8620
 2054TIP3    H2 6127   4.431   5.867   4.444  0.3269 -0.7486  0.2613
 2055TIP3   OH2 6128   2.792   3.040   3.109  0.4728 -0.3160 -0.5424
 2055TIP3    H1 6129   2.829   3.121   3.075 -0.4672  0.9126  1.2095
 2055TIP3    H2 6130   2.701   3.042   3.081 -0.1322  0.3708  1.3267
 2056TIP3   OH2 6131   2.785   4.483   1.986  0.4173 -0.0402  0.5561
 2056TIP3    H1 6132   2.703   4.466   1.939  0.4640 -1.2439  0.8601
 2056TIP3    H2 6133   2.827   4.553   1.937 -1.8332  2.2892  1.6906
 2057TIP3   OH2 6134   1.555   5.161   2.352  0.6059  0.4708 -0.1165
 2057TIP3    H1 6135   1.487   5.148   2.418 -0.2946  1.3170 -0.8262
 2057TIP3    H2 6136   1.634   5.122   2.389  0.1862  1.1209  1.5513
 2058TIP3   OH2 6137   0.451   5.452   0.155 -0.3206 -0.2051  0.2251
 2058TIP3    H1 6138   0.468   5.401   0.234 -0.7338 -0.4616  0.1513
 2058TIP3    H2 6139   0.356   5.469   0.157 -0.8853 -2.5683 -1.5849
 2059TIP3   OH2 6140   2.208   3.847   1.024  0.5052 -0.1656  0.3442
 2059TIP3    H1 6141   2.173   3.857   0.936 -0.2413 -1.0328  0.5316
 2059TIP3    H2 6142   2.231   3.936   1.052  1.3787  0.0414 -0.9640
 2060TIP3   OH2 6143   6.229   1.052   0.662  0.1783 -0.0633 -0.3714
 2060TIP3    H1 6144   6.187   1.008   0.587 -0.8865  0.2760  0.0130
 2060TIP3    H2 6145   6.177   1.132   0.675 -0.0232 -0.4086  1.0981
 2061TIP3   OH2 6146   3.393   5.565   1.092  0.1775  0.3879  0.2102
 2061TIP3    H1 6147   3.403   5.568   1.188 -2.0055 -1.0619  0.5592
 2061TIP3    H2 6148   3.363   5.653   1.069  0.6513  0.7305  0.8546
 2062TIP3   OH2 6149   0.263   0.272   0.845  0.1226 -0.3555  0.4210
 2062TIP3    H1 6150   0.355   0.245   0.857  0.6695  2.1062  2.5446
 2062TIP3    H2 6151   0.214   0.213   0.902  0.8135  0.3231  1.7824
 2063TIP3   OH2 6152   2.747   5.036   2.412  0.7322 -0.2275 -0.1134
 2063TIP3    H1 6153   2.729   5.113   2.358 -0.6673  0.4490  1.2455
 2063TIP3    H2 6154   2.781   5.071   2.494 -1.9495 -0.8329  1.3623
 2064TIP3   OH2 6155   3.526   2.986   0.181  0.4149  0.0777  0.0410
 2064TIP3    H1 6156   3.483   2.993   0.266 -1.6527  0.7125 -0.9824
 2064TIP3    H2 6157   3.526   2.892   0.161  1.0726 -0.0908  0.7872
 2065TIP3   OH2 6158   0.235   5.308   4.464  0.3862  0.1697  0.1568
 2065TIP3    H1 6159   0.195   5.303   4.377  2.2532  3.1377 -1.0563
 2065TIP3    H2 6160   0.328   5.294   4.448  0.6679  0.0205  1.7991
 2066TIP3   OH2 6161   2.816   1.240   3.889  0.0980  0.4840  0.1110
 2066TIP3    H1 6162   2.895   1.188   3.901 -0.1662  0.1719  0.4932
 2066TIP3    H2 6163   2.795   1.231   3.796  0.0700 -0.0667  0.1703
 2067TIP3   OH2 6164   6.558   0.484   4.757 -0.0671 -0.1258 -0.0559
 2067TIP3    H1 6165   6.503   0.539   4.701 -0.1037 -1.6141 -1.5800
 2067TIP3    H2 6166   6.638   0.470   4.705  0.5137 -0.3953  0.8859
 2068TIP3   OH2 6167   2.772   1.702   0.976  0.3367 -0.3689 -0.3083
 2068TIP3    H1 6168   2.815   1.750   1.048  1.8478 -0.6986 -0.9482
 2068TIP3    H2 6169   2.739   1.622   1.017  1.1986 -0.5599  0.0371
 2069TIP3   OH2 6170   2.313   6.665   2.798  0.0128  0.0703  0.3565
 2069TIP3    H1 6171   2.312   6.760   2.780  0.1501 -0.0121 -0.1142
 2069TIP3    H2 6172   2.400   6.648   2.834  0.3223 -0.0227 -0.4181
 2070TIP3   OH2 6173   5.305   4.611   1.956 -0.4124 -0.2305 -0.1118
 2070TIP3    H1 6174   5.296   4.698   1.917 -0.7110  0.4295  1.3744
 2070TIP3    H2 6175   5.325   4.628   2.048 -0.1677 -1.7421  0.1370
 2071TIP3   OH2 6176   6.087   5.411   0.922  0.2495 -0.5030  0.3063
 2071TIP3    H1 6177   5.993   5.396   0.910  0.1810 -0.6917  1.0023
 2071TIP3    H2 6178   6.099   5.504   0.903  0.0507 -0.6393 -0.5106
 2072TIP3   OH2 6179   0.186   0.182   0.540  0.0999  0.6094  0.5203
 2072TIP3    H1 6180   0.254   0.221   0.486  0.3369 -1.1083 -0.5218
 2072TIP3    H2 6181   0.187   0.232   0.622  0.5453  2.5131 -0.5948
 2073TIP3   OH2 6182   0.413   4.242   3.121  0.0022 -0.2753 -0.2153
 2073TIP3    H1 6183   0.383   4.333   3.122  0.7603 -0.0109 -0.4534
 2073TIP3    H2 6184   0.340   4.193   3.082 -0.9464  0.0073  1.1297
 2074TIP3   OH2 6185   5.766   0.573   5.554 -0.2259  0.8068 -0.6144
 2074TIP3    H1 6186   5.858   0.593   5.537 -0.5277  1.1182 -1.9758
 2074TIP3    H2 6187   5.719   0.653   5.529 -0.7842  1.1335  1.2903
 2075TIP3   OH2 6188   3.563   5.956   1.282 -0.8533  0.7795 -0.3637
 2075TIP3    H1 6189   3.494   6.015   1.252 -1.1189  0.6937  0.0632
 2075TIP3    H2 6190   3.555   5.957   1.378 -0.4007  0.6009 -0.3217
 2076TIP3   OH2 6191   4.295   2.776   1.413 -0.0945 -0.0666 -0.1230
 2076TIP3    H1 6192   4.376   2.736   1.380  1.1218  1.1717  1.2296
 2076TIP3    H2 6193   4.295   2.755   1.507 -0.1194  1.9096  0.3452
 2077TIP3   OH2 6194   5.189   4.070   3.431 -0.0688  0.3917  0.6425
 2077TIP3    H1 6195   5.238   4.016   3.493  3.0682 -0.0094 -1.9323
 2077TIP3    H2 6196   5.110   4.018   3.412 -0.2547 -0.2532  2.8559
 2078TIP3   OH2 6197   2.720   1.485   4.008  0.4398 -0.1793  0.6228
 2078TIP3    H1 6198   2.704   1.569   3.966  0.7095  0.8443  2.4774
 2078TIP3    H2 6199   2.746   1.427   3.936 -1.4419  0.8173 -0.9433
 2079TIP3   OH2 6200   6.751   4.811   5.583  0.1360 -0.5216 -0.1207
 2079TIP3    H1 6201   6.779   4.850   5.500 -0.2916 -1.7998 -0.8889
 2079TIP3    H2 6202   6.761   4.882   5.646 -0.9076  0.9679 -1.5142
 2080TIP3   OH2 6203   1.097   0.986   1.217 -0.2680 -0.2317  0.3833
 2080TIP3    H1 6204   1.183   1.011   1.182 -0.6946  0.4082 -0.2137
 2080TIP3    H2 6205   1.093   0.891   1.204  0.5937 -0.3684  0.9781
 2081TIP3   OH2 6206   0.559   6.629   2.034  0.1993  0.3640  0.1398
 2081TIP3    H1 6207   0.624   6.697   2.025  0.9423 -0.1951  1.1669
 2081TIP3    H2 6208   0.607   6.547   2.018 -0.7164  0.0669 -1.3011
 2082TIP3   OH2 6209   0.229   5.477   3.480 -0.5750 -0.4627  0.4931
 2082TIP3    H1 6210   0.141   5.485   3.444 -0.5829 -0.0870  0.5894
 2082TIP3    H2 6211   0.219   5.418   3.555 -1.2248  1.4418  2.0112
 2083TIP3   OH2 6212   1.083   0.112   5.558  0.2396 -0.4526  0.2255
 2083TIP3    H1 6213   1.020   0.067   5.614  0.3842 -1.0139 -0.0608
 2083TIP3    H2 6214   1.097   0.197   5.601  0.5669 -0.9859  1.1936
 2084TIP3   OH2 6215   3.385   3.787   0.590 -0.8231 -0.0163 -0.1965
 2084TIP3    H1 6216   3.361   3.880   0.595 -1.8286 -0.1478 -1.7671
 2084TIP3    H2 6217   3.311   3.746   0.545  0.4289 -1.2320 -1.2388
 2085TIP3   OH2 6218   1.965   6.568   1.222  0.2598 -0.2628 -0.4968
 2085TIP3    H1 6219   2.028   6.573   1.294 -1.0713  0.8515  0.6541
 2085TIP3    H2 6220   2.005   6.508   1.159  2.0627 -0.2543  0.5680
 2086TIP3   OH2 6221   0.262   5.803   3.777 -0.3012 -0.2230  0.2175
 2086TIP3    H1 6222   0.342   5.750   3.778 -1.2390 -1.7908 -1.6322
 2086TIP3    H2 6223   0.204   5.759   3.840 -0.8878 -1.1422 -0.9283
 2087TIP3   OH2 6224   3.750   2.488   2.588 -0.6851  0.0658 -0.0607
 2087TIP3    H1 6225   3.769   2.498   2.495  0.0525  0.1057  0.0847
 2087TIP3    H2 6226   3.828   2.446   2.624  0.9912  3.8420  1.2940
 2088TIP3   OH2 6227   3.654   0.661   1.041  0.3575  0.0853  0.1115
 2088TIP3    H1 6228   3.737   0.665   0.994  0.4115  0.5340  0.2447
 2088TIP3    H2 6229   3.600   0.729   1.001  0.4811  0.6227  0.8417
 2089TIP3   OH2 6230   3.006   6.061   2.244 -0.2112  0.3297 -0.1667
 2089TIP3    H1 6231   2.954   5.993   2.287  0.0812  0.1586 -0.0800
 2089TIP3    H2 6232   3.004   6.037   2.151  0.8427 -0.4606 -0.0082
 2090TIP3   OH2 6233   3.693   0.481   0.124 -0.4631  0.2580  0.4671
 2090TIP3    H1 6234   3.664   0.475   0.215 -0.2675 -0.4344  0.4876
 2090TIP3    H2 6235   3.784   0.455   0.125 -0.3429  0.6440  0.1241
 2091TIP3   OH2 6236   4.865   1.546   0.186 -0.1954 -0.3216 -0.0468
 2091TIP3    H1 6237   4.959   1.529   0.188 -0.1750 -0.1664  0.6378
 2091TIP3    H2 6238   4.856   1.633   0.225 -0.4981  0.2939 -1.4429
 2092TIP3   OH2 6239   3.174   1.867   4.190  0.1435 -0.2249  0.0699
 2092TIP3    H1 6240   3.149   1.797   4.251  1.7480 -1.3487 -0.4793
 2092TIP3    H2 6241   3.199   1.940   4.247  1.9084 -1.3541  0.8351
 2093TIP3   OH2 6242   4.371   0.913   1.011  0.1304 -0.1263  0.0581
 2093TIP3    H1 6243   4.419   0.838   1.044  1.0428  0.3688 -0.1252
 2093TIP3    H2 6244   4.384   0.910   0.916  1.9319  1.4138  0.1996
 2094TIP3   OH2 6245   1.528   2.564   0.568 -0.2018  0.7279  0.2297
 2094TIP3    H1 6246   1.611   2.581   0.613 -0.1993 -0.3579  0.6718
 2094TIP3    H2 6247   1.462   2.581   0.635 -0.3399  1.5104 -0.0980
 2095TIP3   OH2 6248   6.579   2.993   4.600  0.2111 -0.0320  0.1027
 2095TIP3    H1 6249   6.583   3.082   4.565  0.3020 -0.3430 -0.7018
 2095TIP3    H2 6250   6.486   2.978   4.616  0.2527  0.4137  0.8081
 2096TIP3   OH2 6251   0.176   4.975   0.763 -0.2685  0.0537  0.1298
 2096TIP3    H1 6252   0.084   4.998   0.750  0.1805  2.4652  0.5855
 2096TIP3    H2 6253   0.218   5.000   0.681 -0.0375 -1.2501 -0.1579
 2097TIP3   OH2 6254   6.202   1.945   0.930 -0.2319 -0.3137 -0.3703
 2097TIP3    H1 6255   6.109   1.939   0.952 -0.1503  3.0610  1.7124
 2097TIP3    H2 6256   6.243   1.871   0.975 -1.8038 -1.7674 -1.2131
 2098TIP3   OH2 6257   2.997   2.504   0.986 -0.7560  0.4888 -0.0734
 2098TIP3    H1 6258   2.936   2.578   0.982 -0.9879  0.3392  0.6421
 2098TIP3    H2 6259   3.064   2.525   0.920 -1.3109  0.8870 -0.5216
 2099TIP3   OH2 6260   0.648   6.039   4.653  0.0696 -0.2936 -0.7572
 2099TIP3    H1 6261   0.631   6.036   4.747  1.1202  1.1893 -0.4951
 2099TIP3    H2 6262   0.618   6.125   4.626  2.0371  0.2783 -1.2799
 2100TIP3   OH2 6263   0.026   4.146   5.047  0.9005 -0.5045  0.0241
 2100TIP3    H1 6264  -0.006   4.084   4.982  1.0057  0.3964 -0.8979
 2100TIP3    H2 6265   0.119   4.158   5.026  0.8442  0.0808  0.1115
 2101TIP3   OH2 6266   1.761   3.467   1.059 -0.4202 -0.3854  0.5305
 2101TIP3    H1 6267   1.724   3.406   0.994 -0.1887 -0.6998  0.6910
 2101TIP3    H2 6268   1.724   3.552   1.035  0.4516 -0.3118 -0.6269
 2102TIP3   OH2 6269   5.157   6.356   0.936  0.4907 -0.0762  0.3613
 2102TIP3    H1 6270   5.215   6.294   0.891 -0.3737 -2.2120  2.0336
 2102TIP3    H2 6271   5.076   6.354   0.885  0.0095 -1.3873  1.1356
 2103TIP3   OH2 6272   0.663   0.343   1.878  0.4243  0.3333  0.1105
 2103TIP3    H1 6273   0.745   0.370   1.920  0.6455 -0.5797  0.2847
 2103TIP3    H2 6274   0.611   0.306   1.950  0.5322 -0.6123 -0.2850
 2104TIP3   OH2 6275   5.712   5.595   4.689  0.0875 -0.2652  0.3271
 2104TIP3    H1 6276   5.800   5.596   4.652 -0.1368  0.0859 -0.2025
 2104TIP3    H2 6277   5.694   5.503   4.706 -0.2019 -0.5593 -1.4060
 2105TIP3   OH2 6278   1.701   0.525   3.526  0.1538 -0.5517 -0.0854
 2105TIP3    H1 6279   1.671   0.479   3.605  0.3690 -2.6336 -1.1598
 2105TIP3    H2 6280   1.627   0.580   3.501 -0.3221 -0.7040  0.9300
 2106TIP3   OH2 6281   2.895   4.827   2.905 -0.0506  0.4061  0.1047
 2106TIP3    H1 6282   2.810   4.825   2.860 -0.6606 -0.2644  1.2319
 2106TIP3    H2 6283   2.909   4.737   2.935  0.2127  0.8626  1.4277
 2107TIP3   OH2 6284   6.182   1.214   3.905 -0.3116  0.5421 -0.4382
 2107TIP3    H1 6285   6.106   1.169   3.869 -0.4228  1.1370 -0.9655
 2107TIP3    H2 6286   6.200   1.284   3.842  0.3829  0.6970 -0.0740
 2108TIP3   OH2 6287   1.430   5.320   4.112 -0.0706 -0.3080 -0.1131
 2108TIP3    H1 6288   1.386   5.260   4.173  0.6108 -0.7709 -0.0674
 2108TIP3    H2 6289   1.523   5.308   4.130  0.1036  0.1345 -0.7067
 2109TIP3   OH2 6290   6.727   3.959   2.566 -0.1303 -0.4406  0.1600
 2109TIP3    H1 6291   6.771   3.894   2.620 -0.0436  0.3570  1.0639
 2109TIP3    H2 6292   6.633   3.939   2.576 -0.2679  0.9982  2.3678
 2110TIP3   OH2 6293   4.591   5.546   1.319 -0.1225  0.1470 -0.3800
 2110TIP3    H1 6294   4.578   5.560   1.225  0.2855  0.5239 -0.3804
 2110TIP3    H2 6295   4.684   5.558   1.333 -0.1580 -0.0578  0.0518
 2111TIP3   OH2 6296   2.199   3.842   0.359  0.1754  0.6608  0.0651
 2111TIP3    H1 6297   2.209   3.753   0.326  0.0398  0.1479  1.3542
 2111TIP3    H2 6298   2.234   3.898   0.289  0.9412 -0.4371 -0.4559
 2112TIP3   OH2 6299   4.070   4.205   0.901 -0.3863  0.8605 -0.1773
 2112TIP3    H1 6300   4.096   4.129   0.953 -2.3191  0.1765 -0.1263
 2112TIP3    H2 6301   4.047   4.272   0.965  1.5755  1.6452 -0.2212
 2113TIP3   OH2 6302   3.803   0.217   0.304  0.4732 -0.5045 -1.0728
 2113TIP3    H1 6303   3.771   0.138   0.260 -0.4495 -1.6059  1.3745
 2113TIP3    H2 6304   3.841   0.270   0.234  0.3976 -2.7406 -2.9254
 2114TIP3   OH2 6305   0.516   4.026   3.990  0.1291 -0.1416 -0.2287
 2114TIP3    H1 6306   0.447   4.086   4.020  1.1477  0.3923  1.2087
 2114TIP3    H2 6307   0.571   4.080   3.933  1.3860  0.5721  1.5333
 2115TIP3   OH2 6308   0.010   1.353   1.129 -0.3775  0.1198 -0.4566
 2115TIP3    H1 6309  -0.040   1.342   1.209 -0.6882  1.6947 -0.4114
 2115TIP3    H2 6310   0.056   1.436   1.140  1.8286 -0.9819 -0.7306
 2116TIP3   OH2 6311   5.128   2.106   2.959 -0.0741 -0.0395  0.3478
 2116TIP3    H1 6312   5.131   2.170   2.888  0.4465 -0.3517  0.0753
 2116TIP3    H2 6313   5.043   2.063   2.950 -0.7694  1.1640  1.0397
 2117TIP3   OH2 6314   5.635   4.082   5.900  0.0801 -0.5875  0.0513
 2117TIP3    H1 6315   5.608   4.036   5.821 -0.3309 -0.7131  0.2630
 2117TIP3    H2 6316   5.610   4.174   5.884 -2.3611 -0.9866  1.0268
 2118TIP3   OH2 6317   0.441   0.960   5.855  0.6118 -0.3463 -0.0230
 2118TIP3    H1 6318   0.427   0.956   5.950  0.5158 -0.8314 -0.0559
 2118TIP3    H2 6319   0.373   1.020   5.824 -1.0072 -2.1395 -0.0950
 2119TIP3   OH2 6320   6.338   6.087   3.924 -0.8008  0.3748 -0.0575
 2119TIP3    H1 6321   6.309   6.034   3.849 -0.7253  1.7150 -1.0811
 2119TIP3    H2 6322   6.434   6.089   3.915 -0.6703 -0.6480  0.9343
 2120TIP3   OH2 6323   3.565   2.369   1.863  0.4182 -0.2894 -0.0866
 2120TIP3    H1 6324   3.586   2.349   1.772  2.1339  0.0929  0.1924
 2120TIP3    H2 6325   3.605   2.298   1.913  0.7141  0.2589  0.4584
 2121TIP3   OH2 6326   6.300   0.947   4.134  0.1218 -0.1178  0.6081
 2121TIP3    H1 6327   6.348   1.027   4.112  0.7751 -0.7593 -0.4260
 2121TIP3    H2 6328   6.290   0.949   4.229  0.5428  0.9605  0.6359
 2122TIP3   OH2 6329   2.750   1.899   3.806 -0.4477  0.5152 -0.5228
 2122TIP3    H1 6330   2.808   1.865   3.874 -1.6123  0.2988  0.3865
 2122TIP3    H2 6331   2.740   1.992   3.827 -2.1608  0.1068  0.6532
 2123TIP3   OH2 6332   5.138   1.470   0.212 -0.3896  0.3783  0.0900
 2123TIP3    H1 6333   5.159   1.421   0.291 -0.1970  0.4517  0.0851
 2123TIP3    H2 6334   5.222   1.502   0.180 -0.5951  1.5239  0.6254
 2124TIP3   OH2 6335   5.481   6.092   5.657  0.6354 -0.7219 -0.0217
 2124TIP3    H1 6336   5.528   6.018   5.617  0.5374 -0.6392 -0.2915
 2124TIP3    H2 6337   5.538   6.121   5.728  0.8732 -0.7863 -0.1854
 2125TIP3   OH2 6338   5.429   2.931   2.822  0.1888 -0.7824  0.4311
 2125TIP3    H1 6339   5.335   2.912   2.818 -0.4504  1.7393  1.2924
 2125TIP3    H2 6340   5.454   2.912   2.913 -0.1708  1.0432  0.9533
 2126TIP3   OH2 6341   2.402   2.101   2.249  0.1893  0.1573 -0.2637
 2126TIP3    H1 6342   2.371   2.011   2.236 -0.6257  0.2613  0.7943
 2126TIP3    H2 6343   2.324   2.149   2.277  0.8232  0.9826  0.1226
 2127TIP3   OH2 6344   3.843   0.559   5.493  0.9548  0.1605 -0.5721
 2127TIP3    H1 6345   3.767   0.534   5.440  0.9506 -0.6541 -0.1988
 2127TIP3    H2 6346   3.809   0.623   5.556  0.3622 -0.8697  0.1847
 2128TIP3   OH2 6347   6.461   0.318   5.717  0.1101 -0.0644 -0.3093
 2128TIP3    H1 6348   6.400   0.254   5.680  2.8752 -1.8106 -2.2934
 2128TIP3    H2 6349   6.509   0.270   5.784  0.4703  0.7232  0.0066
 2129TIP3   OH2 6350   0.311   5.143   4.856 -0.0207  0.3493  0.3328
 2129TIP3    H1 6351   0.251   5.094   4.800 -0.3477  1.1218 -0.0104
 2129TIP3    H2 6352   0.255   5.201   4.907  0.4942  2.6190 -1.4970
 2130TIP3   OH2 6353   2.720   5.361   0.509  0.3126  0.5645  0.2715
 2130TIP3    H1 6354   2.801   5.350   0.559  0.7579 -1.0891 -0.7059
 2130TIP3    H2 6355   2.660   5.296   0.547  0.3627 -0.0811 -0.6949
 2131TIP3   OH2 6356   5.759   1.235   2.787  0.5286  0.2809 -0.4949
 2131TIP3    H1 6357   5.819   1.186   2.843  0.7485  0.7330 -0.3299
 2131TIP3    H2 6358   5.813   1.261   2.711  0.5762  0.7916 -0.2878
 2132TIP3   OH2 6359   0.705   0.382   1.137 -0.2153 -0.3078  0.5025
 2132TIP3    H1 6360   0.732   0.293   1.158 -2.0861 -0.9504  0.4037
 2132TIP3    H2 6361   0.659   0.413   1.215  0.7782  0.7636  0.6957
 2133TIP3   OH2 6362   4.437   0.180   1.812  0.0048 -0.1427 -0.4041
 2133TIP3    H1 6363   4.417   0.088   1.833 -1.4238 -0.0687 -1.2874
 2133TIP3    H2 6364   4.443   0.223   1.897 -1.1480 -0.7197 -0.0125
 2134TIP3   OH2 6365   6.870   3.043   4.226  0.0804 -0.3111  0.6815
 2134TIP3    H1 6366   6.917   2.977   4.177 -0.1644 -0.5791  0.8023
 2134TIP3    H2 6367   6.852   3.113   4.163 -0.2808 -0.6767  0.3737
 2135TIP3   OH2 6368   3.899   6.729   5.158  0.0538  0.0935 -0.2766
 2135TIP3    H1 6369   3.877   6.639   5.135  1.1229 -0.4134  0.6343
 2135TIP3    H2 6370   3.927   6.768   5.075 -1.2375 -0.1313 -0.8500
 2136TIP3   OH2 6371   3.872   4.003   2.410 -0.5261  0.1625  0.2126
 2136TIP3    H1 6372   3.913   4.087   2.428 -0.9261  0.1956  0.9879
 2136TIP3    H2 6373   3.779   4.016   2.430 -0.7033 -0.2885 -0.2602
 2137TIP3   OH2 6374   6.931   3.856   5.682  0.0849 -0.1692 -0.2264
 2137TIP3    H1 6375   7.014   3.880   5.642  0.5726 -0.5964  0.5002
 2137TIP3    H2 6376   6.875   3.933   5.671  0.9050  0.4937  0.1518
 2138TIP3   OH2 6377   5.562   6.398   2.538  0.2176 -0.1873  0.2274
 2138TIP3    H1 6378   5.597   6.487   2.537  1.4962 -0.6734  0.5380
 2138TIP3    H2 6379   5.635   6.344   2.567 -1.0403 -1.1402  1.7635
 2139TIP3   OH2 6380   0.119   4.493   2.058  0.4980 -0.3711 -0.5402
 2139TIP3    H1 6381   0.140   4.432   2.128  2.3873  0.0204 -0.7054
 2139TIP3    H2 6382   0.129   4.441   1.978 -0.4889 -0.5076 -0.5872
 2140TIP3   OH2 6383   5.007   5.406   1.289 -0.5337  0.0454  0.2177
 2140TIP3    H1 6384   5.082   5.425   1.345 -1.2372 -1.7503  1.8987
 2140TIP3    H2 6385   5.040   5.345   1.223 -0.1317  0.6422 -0.1332
 2141TIP3   OH2 6386   6.933   1.816   3.671 -0.2281 -0.6290 -0.6332
 2141TIP3    H1 6387   6.942   1.729   3.708 -4.1043 -1.5425 -1.3817
 2141TIP3    H2 6388   6.838   1.830   3.664  0.1897  3.6455 -0.6368
 2142TIP3   OH2 6389   6.442   5.529   1.488 -0.0292  0.1185 -0.3922
 2142TIP3    H1 6390   6.351   5.549   1.463 -0.0397 -1.7786 -2.2062
 2142TIP3    H2 6391   6.434   5.483   1.572 -0.7999 -0.4339 -0.7583
 2143TIP3   OH2 6392   3.878   0.678   0.866  0.5152  0.3308  1.0512
 2143TIP3    H1 6393   3.901   0.751   0.808 -0.8479 -0.2325 -0.2408
 2143TIP3    H2 6394   3.896   0.600   0.815  0.6338 -0.2319  1.9279
 2144TIP3   OH2 6395   4.189   5.105   0.850 -0.8334 -0.1531 -0.2450
 2144TIP3    H1 6396   4.255   5.073   0.789  1.4407  0.5663  1.6976
 2144TIP3    H2 6397   4.155   5.184   0.809  2.6979  1.9707  0.4773
 2145TIP3   OH2 6398   2.112   1.952   2.707 -0.1789 -0.1261  0.5148
 2145TIP3    H1 6399   2.200   1.931   2.735 -0.4058  0.8534  2.0825
 2145TIP3    H2 6400   2.092   2.036   2.749 -2.3632 -1.0000  1.3761
 2146TIP3   OH2 6401   0.585   4.891   1.923 -0.3740  0.2866 -0.0154
 2146TIP3    H1 6402   0.519   4.859   1.861 -0.2320  2.2957 -1.2685
 2146TIP3    H2 6403   0.590   4.985   1.907  1.2088  0.5308  1.6191
 2147TIP3   OH2 6404   6.436   5.853   1.546 -0.1785  0.9013  0.2060
 2147TIP3    H1 6405   6.434   5.758   1.550  0.6421  0.8472 -0.3363
 2147TIP3    H2 6406   6.522   5.877   1.581 -1.4855  1.6597  3.2971
 2148TIP3   OH2 6407   0.810   6.559   5.729  0.6449 -0.0703 -0.3180
 2148TIP3    H1 6408   0.865   6.542   5.653  1.8001  0.3316  0.3864
 2148TIP3    H2 6409   0.872   6.565   5.802 -0.0362  2.6829  0.1750
 2149TIP3   OH2 6410   6.950   4.347   5.061  0.2550  0.0127  1.0630
 2149TIP3    H1 6411   6.978   4.271   5.113  0.9381  0.2130  0.9993
 2149TIP3    H2 6412   6.930   4.414   5.126 -2.1744 -0.7755  1.2276
 2150TIP3   OH2 6413   1.273   4.955   2.563  0.5684  0.0228  0.0239
 2150TIP3    H1 6414   1.325   4.985   2.637  0.2739 -0.7999  0.5769
 2150TIP3    H2 6415   1.323   4.882   2.526  1.2988  1.1610 -1.3310
 2151TIP3   OH2 6416   6.729   3.678   5.770  0.2583 -0.4418 -0.5051
 2151TIP3    H1 6417   6.655   3.665   5.711  0.1187 -0.5112 -0.3156
 2151TIP3    H2 6418   6.771   3.758   5.739  0.0163 -0.3213 -0.5238
 2152TIP3   OH2 6419   5.519   4.954   1.859  0.3013 -0.2091 -0.3503
 2152TIP3    H1 6420   5.615   4.960   1.865  0.1905  1.4180  0.3721
 2152TIP3    H2 6421   5.490   4.939   1.948 -0.1793  0.7561 -0.3308
 2153TIP3   OH2 6422   7.204   5.308   0.137 -0.4148  0.7372  0.2905
 2153TIP3    H1 6423   7.218   5.216   0.116  0.6437  0.9579 -0.0111
 2153TIP3    H2 6424   7.109   5.320   0.130 -0.3841  0.1409 -1.6370
 2154TIP3   OH2 6425   5.448   4.722   4.607  0.4148 -0.4294 -0.0729
 2154TIP3    H1 6426   5.444   4.790   4.541 -0.3577 -0.9876 -0.6142
 2154TIP3    H2 6427   5.519   4.664   4.579  0.8844 -0.0146  0.2392
 2155TIP3   OH2 6428   6.172   0.215   0.724  0.6861  0.0094  0.0671
 2155TIP3    H1 6429   6.175   0.258   0.810 -0.4577 -1.7023  1.0192
 2155TIP3    H2 6430   6.158   0.286   0.662 -0.7270  1.0803  1.5329
 2156TIP3   OH2 6431   1.998   0.350   3.478 -0.0565  0.1945 -0.0928
 2156TIP3    H1 6432   1.945   0.349   3.398  0.1073  0.1994 -0.2013
 2156TIP3    H2 6433   1.941   0.389   3.544  1.2031  4.2952 -1.1539
 2157TIP3   OH2 6434   5.349   0.103   0.171 -0.3247 -0.2564  0.2223
 2157TIP3    H1 6435   5.285   0.143   0.112 -0.0385 -1.2896 -0.8189
 2157TIP3    H2 6436   5.338   0.009   0.157  0.7212 -0.4718  0.7927
 2158TIP3   OH2 6437   3.336   2.576   3.893  0.3710 -0.2846 -0.0033
 2158TIP3    H1 6438   3.418   2.602   3.852  0.5556 -0.5655  0.1877
 2158TIP3    H2 6439   3.351   2.487   3.924  0.6487  0.3044  1.7143
 2159TIP3   OH2 6440   2.260   3.846   4.401  0.2450 -0.2017  0.2925
 2159TIP3    H1 6441   2.263   3.761   4.356  2.6798  0.8476 -1.7917
 2159TIP3    H2 6442   2.211   3.902   4.341  0.3360  0.3548  0.7352
 2160TIP3   OH2 6443   0.806   5.633   2.582 -0.0487 -0.0225 -0.5230
 2160TIP3    H1 6444   0.782   5.724   2.566  0.4318  0.4472  1.2099
 2160TIP3    H2 6445   0.751   5.583   2.523 -0.7302  1.3603 -1.1066
 2161TIP3   OH2 6446   1.919   3.977   0.504  0.3436 -0.0594 -0.0290
 2161TIP3    H1 6447   1.970   3.909   0.460 -0.5304 -0.9492  0.2657
 2161TIP3    H2 6448   1.854   4.003   0.439 -0.0086 -0.3059  0.2168
 2162TIP3   OH2 6449   5.593   6.229   1.479 -0.6938  0.2981 -0.7279
 2162TIP3    H1 6450   5.643   6.304   1.448  0.1851  0.6525  1.4089
 2162TIP3    H2 6451   5.520   6.267   1.527  0.2726 -0.1546  1.1762
 2163TIP3   OH2 6452   5.687   2.423   0.333  0.0085  0.2318  0.1054
 2163TIP3    H1 6453   5.752   2.425   0.263  0.2815 -1.1560  0.2854
 2163TIP3    H2 6454   5.644   2.508   0.329  1.4523  0.9637 -0.3745
 2164TIP3   OH2 6455   2.800   3.497   3.532 -0.2200 -0.1742  0.5591
 2164TIP3    H1 6456   2.776   3.410   3.563  0.1804 -0.2331  0.7111
 2164TIP3    H2 6457   2.723   3.550   3.548 -1.6057 -1.1243 -2.2335
 2165TIP3   OH2 6458   6.933   4.970   2.343  0.5844 -0.4804  0.4513
 2165TIP3    H1 6459   6.932   4.963   2.248  1.1554  0.0197  0.3988
 2165TIP3    H2 6460   6.892   4.889   2.374 -1.9985  0.4478 -0.2543
 2166TIP3   OH2 6461   4.158   3.520   2.252  0.4857 -0.0590 -0.4044
 2166TIP3    H1 6462   4.173   3.439   2.203 -0.4631 -0.1534 -0.5578
 2166TIP3    H2 6463   4.064   3.536   2.243  0.4897  0.5088  0.4798
 2167TIP3   OH2 6464   6.385   2.651   4.521 -0.1109 -0.0903  0.1525
 2167TIP3    H1 6465   6.404   2.734   4.476 -0.9175  0.1665  0.2649
 2167TIP3    H2 6466   6.335   2.677   4.599 -0.4876 -0.6899  0.1194
 2168TIP3   OH2 6467   5.167   4.689   0.293 -0.3005  0.3897  0.2023
 2168TIP3    H1 6468   5.134   4.739   0.218  0.0650 -0.0050 -0.2252
 2168TIP3    H2 6469   5.243   4.739   0.323  0.3679 -0.1438 -0.5337
 2169TIP3   OH2 6470   1.949   5.889   1.355 -0.2789  0.3040  0.4016
 2169TIP3    H1 6471   1.999   5.877   1.436 -1.1565  1.5416  1.1557
 2169TIP3    H2 6472   1.874   5.830   1.365 -0.7459  0.9523  0.8187
 2170TIP3   OH2 6473   2.617   2.618   3.751 -0.4728  0.1755  0.1480
 2170TIP3    H1 6474   2.610   2.566   3.671 -0.8562  0.3477  0.0688
 2170TIP3    H2 6475   2.639   2.706   3.720 -0.7977  0.2826  0.2214
 2171TIP3   OH2 6476   7.058   4.134   3.666 -0.0074  0.0071 -0.3362
 2171TIP3    H1 6477   7.087   4.213   3.711  0.3612  0.0930 -0.7212
 2171TIP3    H2 6478   7.122   4.067   3.690 -1.3836 -0.7105  1.5779
 2172TIP3   OH2 6479   1.880   2.556   3.108 -0.2818 -0.2041 -0.0826
 2172TIP3    H1 6480   1.920   2.521   3.028  0.4902  0.4273  0.0232
 2172TIP3    H2 6481   1.920   2.506   3.179  0.6976  0.7468  0.0568
 2173TIP3   OH2 6482   5.003   0.709   2.960 -0.2528  0.0876 -0.8214
 2173TIP3    H1 6483   4.932   0.713   2.897 -0.7377  1.0581 -0.2335
 2173TIP3    H2 6484   5.027   0.801   2.975  2.8402 -0.1990 -2.8872
 2174TIP3   OH2 6485   4.079   2.416   0.225  0.1187  0.0554  0.1350
 2174TIP3    H1 6486   4.156   2.461   0.191 -1.1238  1.1175 -1.4622
 2174TIP3    H2 6487   4.056   2.465   0.305  0.8914 -0.0816  0.4491
 2175TIP3   OH2 6488   0.716   0.871   3.089  0.5839 -0.1301 -0.6175
 2175TIP3    H1 6489   0.763   0.945   3.051  0.0067  0.3971 -0.3281
 2175TIP3    H2 6490   0.651   0.911   3.147  0.2321 -0.8641 -0.4907
 2176TIP3   OH2 6491   6.147   4.393   1.041 -0.0398 -0.0205 -0.1980
 2176TIP3    H1 6492   6.174   4.301   1.031 -0.4409 -0.1424 -0.1886
 2176TIP3    H2 6493   6.228   4.443   1.031 -0.2784 -0.1225 -3.7190
 2177TIP3   OH2 6494   4.793   1.514   5.102  0.4527 -0.7497  0.3923
 2177TIP3    H1 6495   4.781   1.535   5.195  1.0428  1.1507  0.0974
 2177TIP3    H2 6496   4.756   1.590   5.056 -1.1803 -2.3108 -1.0083
 2178TIP3   OH2 6497   0.614   0.552   3.511  0.1829 -0.2060  0.5548
 2178TIP3    H1 6498   0.631   0.523   3.601  0.3673 -0.0864  0.5593
 2178TIP3    H2 6499   0.691   0.605   3.488 -0.2710  0.4958  0.6321
 2179TIP3   OH2 6500   2.201   6.787   0.993 -0.2164  0.5537 -0.3623
 2179TIP3    H1 6501   2.222   6.776   1.086  0.3233  0.9894 -0.4326
 2179TIP3    H2 6502   2.105   6.790   0.991 -0.3026 -0.9967 -0.0005
 2180TIP3   OH2 6503   5.192   2.115   4.677 -0.1930  0.1553  0.4096
 2180TIP3    H1 6504   5.234   2.097   4.593  0.9664 -0.4002  1.0843
 2180TIP3    H2 6505   5.219   2.204   4.698 -1.6044  0.8227 -0.4188
 2181TIP3   OH2 6506   5.668   5.528   3.186 -0.3107  0.6970  0.2245
 2181TIP3    H1 6507   5.717   5.542   3.105  0.7970 -1.0577  0.5448
 2181TIP3    H2 6508   5.587   5.485   3.158  0.3193 -0.4230  0.0754
 2182TIP3   OH2 6509   3.407   4.957   1.314 -0.0310 -0.1620 -0.2082
 2182TIP3    H1 6510   3.406   4.953   1.218  0.2346 -0.2984 -0.2051
 2182TIP3    H2 6511   3.493   4.924   1.339  0.3210  0.9019  0.0364
 2183TIP3   OH2 6512   5.059   6.149   0.247  0.0009 -0.5119 -0.2922
 2183TIP3    H1 6513   5.151   6.148   0.272 -0.2762  1.1890  0.9877
 2183TIP3    H2 6514   5.049   6.072   0.191  2.2419 -0.6124 -0.6772
 2184TIP3   OH2 6515   1.632   4.179   2.714 -0.0627 -0.1220 -0.3811
 2184TIP3    H1 6516   1.592   4.139   2.637  0.3292 -0.7371 -0.2740
 2184TIP3    H2 6517   1.564   4.176   2.781 -0.4658  0.5818 -0.7532
 2185TIP3   OH2 6518   5.644   3.073   4.643  0.2152  0.3128  0.0393
 2185TIP3    H1 6519   5.600   2.991   4.662  0.2438  0.0878 -0.8468
 2185TIP3    H2 6520   5.697   3.056   4.565  0.3635  1.1202 -0.0554
 2186TIP3   OH2 6521   0.660   0.531   4.770  0.0180  0.4030 -0.3767
 2186TIP3    H1 6522   0.612   0.588   4.830  0.1495  1.0866 -0.9156
 2186TIP3    H2 6523   0.625   0.443   4.788  0.6682  0.4534  1.3005
 2187TIP3   OH2 6524   6.888   0.539   2.740  0.1879 -0.0540 -0.5147
 2187TIP3    H1 6525   6.821   0.553   2.808  1.5766 -0.1364  0.9269
 2187TIP3    H2 6526   6.911   0.447   2.748  1.5302  0.3078  0.0486
 2188TIP3   OH2 6527   1.572   4.009   5.558  0.9700 -0.2535 -0.1778
 2188TIP3    H1 6528   1.555   3.980   5.648  0.6576 -0.6995 -0.3795
 2188TIP3    H2 6529   1.487   4.040   5.526  1.4593  1.8010  0.3409
 2189TIP3   OH2 6530   6.600   5.154   0.055 -0.2046  0.2999 -0.0249
 2189TIP3    H1 6531   6.692   5.170   0.037 -0.3045  0.3007 -0.5414
 2189TIP3    H2 6532   6.589   5.059   0.045 -0.6588  0.5156 -1.8886
 2190TIP3   OH2 6533   3.844   2.906   5.137  0.5015  0.1636 -0.0292
 2190TIP3    H1 6534   3.856   2.992   5.178 -0.6788 -0.3582  1.5075
 2190TIP3    H2 6535   3.892   2.846   5.193  1.2672 -0.2319 -1.0652
 2191TIP3   OH2 6536   4.427   0.277   2.799  0.7432  0.6175 -0.3156
 2191TIP3    H1 6537   4.346   0.265   2.749  0.5490 -1.5245  0.4435
 2191TIP3    H2 6538   4.420   0.365   2.836 -0.6500  0.9320 -1.2750
 2192TIP3   OH2 6539   4.722   4.938   1.169  0.2357 -0.0852 -0.3140
 2192TIP3    H1 6540   4.656   5.004   1.152 -0.7376 -0.7319  0.8027
 2192TIP3    H2 6541   4.674   4.865   1.208  1.7118 -0.1646  1.5600
 2193TIP3   OH2 6542   2.241   0.496   2.819  0.1529 -0.0634  0.3601
 2193TIP3    H1 6543   2.182   0.430   2.782 -0.4595  0.8508 -0.3360
 2193TIP3    H2 6544   2.220   0.498   2.912 -1.1816  0.4952  0.0712
 2194TIP3   OH2 6545   5.512   5.584   0.976 -0.0114  0.2924 -0.6764
 2194TIP3    H1 6546   5.529   5.493   0.949 -0.7523  0.4459 -1.7404
 2194TIP3    H2 6547   5.462   5.575   1.057  0.9304 -0.2210 -0.1331
 2195TIP3   OH2 6548   0.164   2.707   3.505 -0.2031  0.2463 -0.7955
 2195TIP3    H1 6549   0.085   2.741   3.547 -1.3444 -1.0421 -1.8696
 2195TIP3    H2 6550   0.212   2.786   3.479 -0.9350  1.0479  0.1899
 2196TIP3   OH2 6551   1.880   5.217   5.081  0.2029  0.2805  0.3477
 2196TIP3    H1 6552   1.932   5.238   5.004  2.6914  0.7036  2.0302
 2196TIP3    H2 6553   1.803   5.273   5.074  1.2734  1.6717 -0.8917
 2197TIP3   OH2 6554   5.192   5.480   3.219 -0.4670  0.2200 -0.0606
 2197TIP3    H1 6555   5.168   5.400   3.266  0.7947 -1.1338 -1.6245
 2197TIP3    H2 6556   5.123   5.542   3.241 -0.8107 -0.8617  2.2308
 2198TIP3   OH2 6557   3.021   4.553   5.831  0.1810 -0.2162  0.5308
 2198TIP3    H1 6558   2.973   4.470   5.837 -0.3699  0.1472  1.2543
 2198TIP3    H2 6559   3.113   4.527   5.824 -0.0015 -0.8912  0.5599
 2199TIP3   OH2 6560   5.215   3.564   3.028  0.6811 -0.0967 -0.2831
 2199TIP3    H1 6561   5.141   3.509   2.999  0.0660  1.2772 -1.4393
 2199TIP3    H2 6562   5.291   3.507   3.021 -0.0512 -1.0691 -0.5979
 2200TIP3   OH2 6563   5.427   1.788   5.236  0.2958 -0.2937 -0.0108
 2200TIP3    H1 6564   5.432   1.883   5.243  0.5927 -0.3802  1.1485
 2200TIP3    H2 6565   5.441   1.770   5.143  1.6412  0.7060 -0.0350
 2201TIP3   OH2 6566   5.706   4.865   1.595 -0.1326 -0.7645  0.0328
 2201TIP3    H1 6567   5.618   4.903   1.598  0.0837 -0.2685  0.2381
 2201TIP3    H2 6568   5.693   4.776   1.564 -0.5177 -0.0740 -1.9304
 2202TIP3   OH2 6569   6.047   2.395   1.140  0.4789  0.4145  0.2110
 2202TIP3    H1 6570   6.085   2.482   1.148 -1.0705  1.0452  1.1532
 2202TIP3    H2 6571   6.090   2.344   1.209  1.4429  0.4046 -0.3892
 2203TIP3   OH2 6572   0.134   1.863   0.993  0.3077 -0.0507 -0.0225
 2203TIP3    H1 6573   0.082   1.895   0.919 -1.5987  0.5838  1.5050
 2203TIP3    H2 6574   0.072   1.812   1.045  1.5395 -0.2983  1.2570
 2204TIP3   OH2 6575   0.399   0.199   2.833 -0.0290  0.6801  0.3539
 2204TIP3    H1 6576   0.418   0.204   2.739  0.0913  2.0468  0.4191
 2204TIP3    H2 6577   0.472   0.150   2.870  0.2450  0.6655 -0.1913
 2205TIP3   OH2 6578   6.033   4.437   0.557  0.1335  0.0728  0.7363
 2205TIP3    H1 6579   6.124   4.407   0.560  0.0653 -0.1524  0.5322
 2205TIP3    H2 6580   5.995   4.392   0.482  0.4599  1.8424 -0.5743
 2206TIP3   OH2 6581   5.462   4.348   5.802 -0.3662 -0.1154  0.0452
 2206TIP3    H1 6582   5.402   4.294   5.854 -0.2594 -1.5836 -1.2732
 2206TIP3    H2 6583   5.425   4.346   5.714 -0.1250  1.6897 -0.1276
 2207TIP3   OH2 6584   2.363   4.103   3.447 -0.0427 -0.2711  0.0398
 2207TIP3    H1 6585   2.442   4.156   3.438 -0.7265  0.5762 -1.4622
 2207TIP3    H2 6586   2.391   4.025   3.494  1.5180  0.3276  0.1619
 2208TIP3   OH2 6587   1.281   5.661   5.090 -0.0971  0.7838 -0.1513
 2208TIP3    H1 6588   1.186   5.664   5.104 -0.0292  0.0751  0.4894
 2208TIP3    H2 6589   1.299   5.738   5.035 -1.2583  0.0549 -1.6185
 2209TIP3   OH2 6590   6.203   0.270   2.739  0.2580 -0.2272 -0.0965
 2209TIP3    H1 6591   6.208   0.188   2.689  1.6173 -0.6229  0.6433
 2209TIP3    H2 6592   6.116   0.305   2.719  0.7762 -0.2785 -2.8754
 2210TIP3   OH2 6593   5.072   1.339   3.637  0.6515  0.3320  0.4195
 2210TIP3    H1 6594   5.145   1.379   3.591  1.0545  1.1112  1.6902
 2210TIP3    H2 6595   5.091   1.246   3.636  2.5640  0.6345  2.1676
 2211TIP3   OH2 6596   1.372   3.864   5.150 -0.0472  0.2997 -0.6793
 2211TIP3    H1 6597   1.430   3.939   5.166  0.0802 -0.1600  1.3164
 2211TIP3    H2 6598   1.383   3.844   5.057  2.6209  0.5645 -0.5063
 2212TIP3   OH2 6599   4.095   5.906   5.292  0.0314  0.4511  0.0878
 2212TIP3    H1 6600   4.151   5.915   5.215  0.5245 -0.9059  0.2670
 2212TIP3    H2 6601   4.009   5.884   5.256  0.7023 -2.2120 -0.0678
 2213TIP3   OH2 6602   6.219   5.567   2.299  0.8112 -0.6462  0.1015
 2213TIP3    H1 6603   6.285   5.601   2.359 -0.0980 -0.4682  1.0380
 2213TIP3    H2 6604   6.177   5.495   2.348 -0.3964 -0.0626 -0.0317
 2214TIP3   OH2 6605   0.155   1.396   5.534 -0.9399  0.0666  0.0543
 2214TIP3    H1 6606   0.076   1.449   5.522 -0.1476  1.1306 -0.5867
 2214TIP3    H2 6607   0.227   1.453   5.507  0.0721 -0.8378  0.7453
 2215TIP3   OH2 6608   1.763   0.299   5.629 -0.3183 -0.2681  0.4239
 2215TIP3    H1 6609   1.843   0.249   5.618  0.7695  1.3277  0.7488
 2215TIP3    H2 6610   1.693   0.234   5.620  0.9425 -1.5101 -0.9667
 2216TIP3   OH2 6611   6.818   1.607   3.006 -0.0648 -0.4252 -0.4391
 2216TIP3    H1 6612   6.854   1.604   3.095  1.1361  1.3253 -0.8225
 2216TIP3    H2 6613   6.728   1.636   3.018 -0.0384 -0.5909  0.2278
 2217TIP3   OH2 6614   3.557   1.771   4.008  0.0420 -0.1105 -0.2834
 2217TIP3    H1 6615   3.598   1.834   4.068  1.0265  0.9856 -2.0030
 2217TIP3    H2 6616   3.471   1.810   3.989  0.0358 -0.0714 -0.1813
 2218TIP3   OH2 6617   6.937   2.902   0.148 -0.1975 -0.2995 -0.3627
 2218TIP3    H1 6618   6.881   2.969   0.187 -0.7548 -0.9865  0.0441
 2218TIP3    H2 6619   6.891   2.877   0.067  0.5326  0.5267 -1.0573
 2219TIP3   OH2 6620   0.585   6.302   0.509 -0.4937 -0.3491 -0.2020
 2219TIP3    H1 6621   0.652   6.339   0.568  0.0969  0.3396 -1.2686
 2219TIP3    H2 6622   0.612   6.211   0.497 -1.6960 -1.0913  2.0779
 2220TIP3   OH2 6623   4.190   2.377   0.975  0.0810  0.6653 -0.4351
 2220TIP3    H1 6624   4.229   2.432   1.043 -2.3413  1.8136  0.1245
 2220TIP3    H2 6625   4.145   2.307   1.024  3.2175 -2.0863 -1.1254
 2221TIP3   OH2 6626   0.686   2.874   1.474  0.5088  0.3980 -0.1112
 2221TIP3    H1 6627   0.732   2.949   1.512  3.0502 -0.7043 -0.8563
 2221TIP3    H2 6628   0.707   2.801   1.533  0.9587 -0.4420 -1.2879
 2222TIP3   OH2 6629   1.850   0.136   5.896 -0.0902  0.0701  0.3024
 2222TIP3    H1 6630   1.763   0.097   5.903 -0.5595  0.9746 -0.2716
 2222TIP3    H2 6631   1.903   0.071   5.851 -1.0782  0.4117 -1.4164
 2223TIP3   OH2 6632   0.791   0.633   0.010 -0.4838  0.5111 -0.2861
 2223TIP3    H1 6633   0.887   0.634   0.012 -0.4370  0.7828 -1.6171
 2223TIP3    H2 6634   0.767   0.551   0.053  0.3539  0.2653 -0.2686
 2224TIP3   OH2 6635   7.016   6.336   0.840 -0.0054  0.5443  0.0283
 2224TIP3    H1 6636   7.064   6.254   0.826 -0.1955  0.2078  1.1939
 2224TIP3    H2 6637   7.063   6.380   0.910 -0.3449  1.0833 -0.0710
 2225TIP3   OH2 6638   4.633   4.649   3.306  0.2370  0.0087  0.0250
 2225TIP3    H1 6639   4.543   4.628   3.282  0.1121 -0.7066  1.0893
 2225TIP3    H2 6640   4.682   4.568   3.289  0.1126 -0.5868  2.2866
 2226TIP3   OH2 6641   4.465   6.388   1.241  0.4238  0.5816 -0.3091
 2226TIP3    H1 6642   4.390   6.380   1.182  1.7929 -1.8656 -1.8854
 2226TIP3    H2 6643   4.452   6.320   1.307  0.9133  0.5853 -0.2042
 2227TIP3   OH2 6644   0.688   4.954   4.709 -0.2470 -0.0647  0.1136
 2227TIP3    H1 6645   0.746   4.882   4.685  0.9546  0.8724  0.0596
 2227TIP3    H2 6646   0.642   4.975   4.628  0.1618 -0.1106 -0.1341
 2228TIP3   OH2 6647   7.034   4.999   1.396 -0.2624 -0.1882 -0.1431
 2228TIP3    H1 6648   6.974   5.070   1.373  0.4458  0.3419 -0.4192
 2228TIP3    H2 6649   7.086   5.034   1.469 -1.3719 -1.2468  1.2046
 2229TIP3   OH2 6650   6.575   0.280   1.191 -0.8137 -0.0569 -0.4149
 2229TIP3    H1 6651   6.516   0.257   1.119 -2.0682  2.0275 -0.1548
 2229TIP3    H2 6652   6.518   0.285   1.268  0.3687 -1.4596  0.6065
 2230TIP3   OH2 6653   4.913   4.999   1.372  0.0221  0.6319 -0.0530
 2230TIP3    H1 6654   4.847   5.032   1.434  0.6659  1.7193  0.0934
 2230TIP3    H2 6655   4.862   4.961   1.301 -0.7391 -0.2272  0.9268
 2231TIP3   OH2 6656   2.146   3.180   4.795 -0.7970 -0.4044  1.2264
 2231TIP3    H1 6657   2.071   3.239   4.792 -0.0175  0.5473 -0.2483
 2231TIP3    H2 6658   2.107   3.093   4.800 -2.0532  0.0029 -0.6296
 2232TIP3   OH2 6659   6.728   1.947   1.880  0.0729  0.2286  0.2398
 2232TIP3    H1 6660   6.713   1.853   1.873 -2.1260  0.5994 -0.7989
 2232TIP3    H2 6661   6.780   1.968   1.802 -2.7208  0.3771 -1.7414
 2233TIP3   OH2 6662   6.447   4.345   3.854 -0.4632  0.3020  0.0995
 2233TIP3    H1 6663   6.542   4.343   3.840 -0.3651  1.3053  0.5403
 2233TIP3    H2 6664   6.420   4.432   3.825 -1.2165  0.1046  0.1797
 2234TIP3   OH2 6665   5.648   5.961   3.571  0.0090 -0.4100  0.2870
 2234TIP3    H1 6666   5.716   5.967   3.638  0.9510  0.1495 -0.6766
 2234TIP3    H2 6667   5.686   5.905   3.503 -0.4704 -0.0742 -0.2688
 2235TIP3   OH2 6668   3.714   2.713   0.603 -0.5314  0.0304 -0.6140
 2235TIP3    H1 6669   3.679   2.639   0.652  0.3068  0.2016  0.2796
 2235TIP3    H2 6670   3.664   2.788   0.634  0.4319  0.2437  0.5163
 2236TIP3   OH2 6671   0.565   6.642   5.110  0.2807 -0.2114  0.1816
 2236TIP3    H1 6672   0.581   6.659   5.202  0.3566 -0.0208  0.1345
 2236TIP3    H2 6673   0.476   6.606   5.107  1.6573 -4.1210  0.7850
 2237TIP3   OH2 6674   2.626   6.706   4.244 -0.1205 -0.0051 -0.1042
 2237TIP3    H1 6675   2.532   6.725   4.244 -0.2564 -0.6164 -0.6601
 2237TIP3    H2 6676   2.647   6.692   4.152  0.3020 -0.8419  0.1059
 2238TIP3   OH2 6677   6.588   6.553   3.307  0.3756 -0.5256 -0.6017
 2238TIP3    H1 6678   6.504   6.597   3.294 -0.8528 -2.3906  0.5045
 2238TIP3    H2 6679   6.634   6.607   3.370 -1.1817 -0.8322  0.8979
 2239TIP3   OH2 6680   3.322   2.325   4.060  0.3722  0.0812 -0.0129
 2239TIP3    H1 6681   3.246   2.366   4.101  1.5006 -0.3066  2.6620
 2239TIP3    H2 6682   3.387   2.319   4.130  2.8204  0.1996 -2.1305
 2240TIP3   OH2 6683   5.321   5.249   5.327  0.2245  0.5157  0.2087
 2240TIP3    H1 6684   5.382   5.245   5.401  2.6386 -0.5888 -1.6846
 2240TIP3    H2 6685   5.325   5.162   5.288 -2.3566  0.5218 -0.2499
 2241TIP3   OH2 6686   2.671   6.635   3.980 -0.3277  0.0308  0.5876
 2241TIP3    H1 6687   2.680   6.545   4.011 -0.8737 -0.0791  0.4393
 2241TIP3    H2 6688   2.611   6.628   3.906  1.9271  0.1054 -1.3565
 2242TIP3   OH2 6689   0.395   2.334   0.168 -0.2717  0.1202 -0.2139
 2242TIP3    H1 6690   0.432   2.387   0.097 -1.7656  1.2305 -0.2041
 2242TIP3    H2 6691   0.419   2.244   0.145  2.0091  0.7192 -0.4253
 2243TIP3   OH2 6692   6.673   3.608   3.925 -0.3323 -0.0286 -0.2798
 2243TIP3    H1 6693   6.597   3.564   3.888 -2.3036  1.3137  1.8852
 2243TIP3    H2 6694   6.685   3.686   3.870 -0.5929 -0.2053 -0.5874
 2244TIP3   OH2 6695   3.922   3.281   1.869 -0.3946  0.1713  0.2482
 2244TIP3    H1 6696   3.883   3.282   1.956  1.5516  1.7506  1.1860
 2244TIP3    H2 6697   3.848   3.275   1.809 -2.0182  2.1432  1.9128
 2245TIP3   OH2 6698   0.367   3.996   2.470  0.0655  0.8956 -0.0501
 2245TIP3    H1 6699   0.404   3.936   2.405 -0.2206  1.2996 -0.5935
 2245TIP3    H2 6700   0.281   4.020   2.435 -0.6235  0.1594  1.0815
 2246TIP3   OH2 6701   4.781   2.344   3.460 -0.2581  0.2476 -0.2699
 2246TIP3    H1 6702   4.745   2.401   3.392 -1.6389 -0.8524 -0.4976
 2246TIP3    H2 6703   4.860   2.306   3.420 -0.5506  0.3172 -0.9284
 2247TIP3   OH2 6704   5.212   5.432   5.134  0.2591  0.1969  0.2074
 2247TIP3    H1 6705   5.267   5.390   5.200  0.5679  0.9240  0.4240
 2247TIP3    H2 6706   5.237   5.391   5.052  1.5178  0.8919  0.2255
 2248TIP3   OH2 6707   7.167   3.529   0.832 -0.7364  0.4014 -0.2322
 2248TIP3    H1 6708   7.263   3.532   0.833 -0.7388  1.2361  1.1358
 2248TIP3    H2 6709   7.143   3.563   0.746  0.1938 -0.6015 -0.9213
 2249TIP3   OH2 6710   2.947   2.860   2.918 -0.3826 -0.5135  0.3528
 2249TIP3    H1 6711   2.896   2.832   2.994 -0.9751 -0.6983 -0.1030
 2249TIP3    H2 6712   2.992   2.782   2.889  2.0876  0.1092  2.1524
 2250TIP3   OH2 6713   6.952   1.747   1.490 -0.4596 -0.5685 -0.5831
 2250TIP3    H1 6714   6.916   1.659   1.479  1.0028 -1.3332  0.3865
 2250TIP3    H2 6715   6.964   1.757   1.584 -2.7400  1.6196 -0.4308
 2251TIP3   OH2 6716   3.313   6.530   0.115  0.3837  0.1373  0.4226
 2251TIP3    H1 6717   3.394   6.524   0.064 -0.3991 -0.4256 -0.8171
 2251TIP3    H2 6718   3.306   6.447   0.161  0.4288  0.1193  0.3962
 2252TIP3   OH2 6719   0.964   2.214   2.327 -0.3723  0.8093 -0.3016
 2252TIP3    H1 6720   0.964   2.169   2.412 -0.4063  1.6733  0.1770
 2252TIP3    H2 6721   0.893   2.174   2.278 -2.8544  2.7164  1.4649
 2253TIP3   OH2 6722   4.787   3.476   4.057  0.2242  0.2961 -0.2094
 2253TIP3    H1 6723   4.864   3.522   4.025  1.4144 -1.7868 -0.5417
 2253TIP3    H2 6724   4.778   3.504   4.148  1.1424  0.8652 -0.2848
 2254TIP3   OH2 6725   3.807   6.487   5.042  0.3807 -0.0076 -0.0872
 2254TIP3    H1 6726   3.718   6.452   5.049  0.1955  0.1487 -1.4607
 2254TIP3    H2 6727   3.864   6.411   5.057  0.0501  0.0039  1.3950
 2255TIP3   OH2 6728   0.492   2.377   3.161  0.1175 -0.2240  0.3593
 2255TIP3    H1 6729   0.427   2.433   3.202  0.5831  0.1179  0.6492
 2255TIP3    H2 6730   0.550   2.351   3.234  0.6452 -0.0358  0.0153
 2256TIP3   OH2 6731   2.187   2.397   3.956 -0.4264 -0.3819  0.1512
 2256TIP3    H1 6732   2.120   2.333   3.983 -0.5058 -0.3944 -0.0690
 2256TIP3    H2 6733   2.145   2.482   3.967  0.0463 -0.3089  1.4607
 2257TIP3   OH2 6734   4.431   0.882   5.772  0.1768  0.1211  0.6995
 2257TIP3    H1 6735   4.389   0.964   5.800 -0.4440 -0.5515  1.8287
 2257TIP3    H2 6736   4.446   0.834   5.854  1.4962 -0.4508  0.1519
 2258TIP3   OH2 6737   6.017   3.039   2.314 -0.1457  0.6532  0.1416
 2258TIP3    H1 6738   5.982   2.954   2.286  0.5379  0.4235 -0.0458
 2258TIP3    H2 6739   5.957   3.068   2.382 -0.2392 -0.1176  0.4056
 2259TIP3   OH2 6740   5.533   2.204   0.374 -0.2221 -0.3143 -0.1874
 2259TIP3    H1 6741   5.497   2.207   0.286 -1.1894  0.9690  0.2192
 2259TIP3    H2 6742   5.606   2.267   0.373  1.4564 -2.1418 -0.7180
 2260TIP3   OH2 6743   5.577   2.678   5.072 -0.2094 -0.1553  0.1764
 2260TIP3    H1 6744   5.486   2.690   5.047  0.0038  0.6839 -0.2324
 2260TIP3    H2 6745   5.599   2.756   5.124  0.2342 -0.4221  0.4030
 2261TIP3   OH2 6746   6.261   1.380   0.822  0.2691  0.2413 -0.0628
 2261TIP3    H1 6747   6.272   1.384   0.917  2.5001 -0.7881 -0.2029
 2261TIP3    H2 6748   6.173   1.345   0.809  0.2399 -0.3999  1.6335
 2262TIP3   OH2 6749   2.096   5.529   4.748  0.0292 -0.3654  0.1085
 2262TIP3    H1 6750   2.133   5.615   4.728  0.5508 -1.3042 -3.7704
 2262TIP3    H2 6751   2.172   5.473   4.763 -0.2083 -0.6613  0.2254
 2263TIP3   OH2 6752   5.374   5.997   0.694 -0.4460  0.1878 -0.0323
 2263TIP3    H1 6753   5.464   5.965   0.692 -0.4324  0.2287 -0.0982
 2263TIP3    H2 6754   5.329   5.941   0.757 -0.3113  0.3340  0.1925
 2264TIP3   OH2 6755   5.704   1.102   5.244  0.1148  0.4923 -0.0152
 2264TIP3    H1 6756   5.637   1.123   5.178 -0.7068 -1.1043  0.2639
 2264TIP3    H2 6757   5.776   1.065   5.194 -0.9329 -1.7232  0.0058
 2265TIP3   OH2 6758   3.737   0.128   3.898 -0.4588 -0.2641  0.1036
 2265TIP3    H1 6759   3.768   0.059   3.956  0.3934  1.0652  1.3069
 2265TIP3    H2 6760   3.644   0.109   3.886 -0.6720 -0.5826  1.9425
 2266TIP3   OH2 6761   5.126   4.892   0.091 -0.4510 -0.5217  0.5912
 2266TIP3    H1 6762   5.086   4.857   0.011  0.3309 -1.6475  0.6618
 2266TIP3    H2 6763   5.109   4.986   0.087  0.3268 -0.4071 -1.3733
 2267TIP3   OH2 6764   7.108   3.050   3.846 -0.1882 -0.4056  0.1152
 2267TIP3    H1 6765   7.165   3.010   3.780 -0.7869 -1.0742 -0.0024
 2267TIP3    H2 6766   7.168   3.075   3.917  0.0788 -2.6400  0.7575
 2268TIP3   OH2 6767   5.279   2.364   4.690 -0.5122  0.5755 -0.0792
 2268TIP3    H1 6768   5.244   2.453   4.684  0.9824  1.1215 -1.3835
 2268TIP3    H2 6769   5.372   2.374   4.669 -0.6021 -1.4785 -1.7442
 2269TIP3   OH2 6770   3.021   5.516   4.565  0.1113  0.5178  0.5819
 2269TIP3    H1 6771   3.069   5.585   4.521 -0.8446  0.5794 -0.4095
 2269TIP3    H2 6772   3.037   5.531   4.658  2.7531 -0.0457  0.2905
 2270TIP3   OH2 6773   6.278   0.162   3.950  0.3328 -0.3593  0.4348
 2270TIP3    H1 6774   6.247   0.234   4.006  0.8450  1.5605 -1.5737
 2270TIP3    H2 6775   6.221   0.088   3.972 -0.6876  0.8512  2.1254
 2271TIP3   OH2 6776   5.244   4.914   4.816 -0.0777  0.0656 -0.2537
 2271TIP3    H1 6777   5.273   4.836   4.864 -0.5986  0.1959  0.2761
 2271TIP3    H2 6778   5.324   4.945   4.772  0.1208 -0.7997 -0.5296
 2272TIP3   OH2 6779   1.231   4.803   4.998 -0.0973 -0.1113 -0.2073
 2272TIP3    H1 6780   1.312   4.772   4.956  1.1625  0.9545  1.3235
 2272TIP3    H2 6781   1.255   4.887   5.036 -1.1398 -0.9898  2.6097
 2273TIP3   OH2 6782   1.067   3.196   1.990  0.3077 -0.2662 -0.3812
 2273TIP3    H1 6783   1.000   3.140   2.028  0.8756 -1.2046 -0.7339
 2273TIP3    H2 6784   1.026   3.233   1.912 -0.8537  1.6371  1.0381
 2274TIP3   OH2 6785   4.054   1.194   5.262  0.6958  0.2069  0.0667
 2274TIP3    H1 6786   4.146   1.211   5.241  0.7866 -0.0603  0.2386
 2274TIP3    H2 6787   4.055   1.172   5.355 -0.1151  4.6894  1.3843
 2275TIP3   OH2 6788   5.243   2.257   1.043  0.5917  0.2513  0.2989
 2275TIP3    H1 6789   5.311   2.229   1.104  0.6908  1.8956  1.0137
 2275TIP3    H2 6790   5.287   2.264   0.959  1.5741  2.0489  0.9015
 2276TIP3   OH2 6791   1.767   6.630   1.437 -0.0053 -0.2280  0.1253
 2276TIP3    H1 6792   1.809   6.576   1.371 -0.5989 -0.7401  0.1503
 2276TIP3    H2 6793   1.821   6.619   1.515  0.4851  0.0782 -0.1668
 2277TIP3   OH2 6794   3.827   1.101   1.836 -0.1284  0.4759 -0.4610
 2277TIP3    H1 6795   3.845   1.008   1.849  0.2390  0.5433 -0.4588
 2277TIP3    H2 6796   3.736   1.105   1.808  0.2569 -0.0196 -1.8538
 2278TIP3   OH2 6797   6.665   2.720   5.383 -0.4973  0.7906  0.2589
 2278TIP3    H1 6798   6.618   2.798   5.353  0.7553  1.9104  1.0733
 2278TIP3    H2 6799   6.651   2.655   5.314 -3.7116  0.8308  0.7370
 2279TIP3   OH2 6800   3.391   6.647   1.041 -0.2927  0.3266 -0.0872
 2279TIP3    H1 6801   3.387   6.696   0.959 -0.0529 -1.1161 -0.9948
 2279TIP3    H2 6802   3.388   6.714   1.109 -0.3075  1.5699 -1.2701
 2280TIP3   OH2 6803   3.156   4.511   4.875  0.1034 -0.0661 -0.5644
 2280TIP3    H1 6804   3.189   4.422   4.887 -0.4896 -0.2881 -0.5271
 2280TIP3    H2 6805   3.193   4.541   4.792 -0.2004 -0.5862 -0.8914
 2281TIP3   OH2 6806   0.389   5.883   1.384 -0.1330 -0.6062 -0.5285
 2281TIP3    H1 6807   0.317   5.926   1.338 -0.7254 -1.1522 -0.1348
 2281TIP3    H2 6808   0.463   5.943   1.375 -1.2282  1.0929  1.0543
 2282TIP3   OH2 6809   0.131   5.598   4.522  0.2313  0.3336  0.3699
 2282TIP3    H1 6810   0.163   5.511   4.546 -2.1524 -0.6758  0.1175
 2282TIP3    H2 6811   0.149   5.606   4.428  0.4361  0.1198  0.3910
 2283TIP3   OH2 6812   0.134   0.958   2.522  0.0607  0.1017 -0.5282
 2283TIP3    H1 6813   0.218   0.929   2.486 -0.6666 -1.8120 -0.7793
 2283TIP3    H2 6814   0.070   0.895   2.489 -1.4437  1.3181 -0.0620
 2284TIP3   OH2 6815   0.273   3.691   1.445  0.0831 -0.2385  0.4512
 2284TIP3    H1 6816   0.244   3.780   1.425  0.6165 -0.1462  0.0561
 2284TIP3    H2 6817   0.231   3.670   1.528 -1.2552 -0.1881 -0.1847
 2285TIP3   OH2 6818   6.526   5.802   3.433 -0.1158  0.1999 -0.7329
 2285TIP3    H1 6819   6.618   5.781   3.421 -0.3244 -0.6238 -0.9038
 2285TIP3    H2 6820   6.520   5.834   3.523  0.4515  0.9476 -0.9485
 2286TIP3   OH2 6821   4.703   1.101   4.097 -0.2205  0.4714 -0.3201
 2286TIP3    H1 6822   4.702   1.196   4.101  0.2756  0.4692 -0.0821
 2286TIP3    H2 6823   4.722   1.073   4.186 -1.8871  0.1013 -0.0394
 2287TIP3   OH2 6824   3.265   4.211   4.871  0.1377  0.0625  0.6246
 2287TIP3    H1 6825   3.246   4.118   4.887  0.3448 -0.0288  0.3541
 2287TIP3    H2 6826   3.214   4.233   4.793 -1.2105  0.6223  1.6266
 2288TIP3   OH2 6827   2.843   0.001   1.646  0.0445  0.1629 -0.2575
 2288TIP3    H1 6828   2.895   0.081   1.643  1.2971 -0.6414 -1.4667
 2288TIP3    H2 6829   2.861  -0.042   1.562 -0.9036 -1.1915  0.1997
 2289TIP3   OH2 6830   1.122   4.833   3.616  0.7465 -0.5669  0.0851
 2289TIP3    H1 6831   1.167   4.892   3.555  0.5500  0.1973  0.6617
 2289TIP3    H2 6832   1.037   4.874   3.631  0.8659 -0.6328  1.0165
 2290TIP3   OH2 6833   4.478   6.447   0.502 -0.1264 -0.1762  0.2120
 2290TIP3    H1 6834   4.410   6.444   0.434 -1.7830  1.3066  1.6899
 2290TIP3    H2 6835   4.559   6.459   0.454 -1.2814  1.2790 -1.5067
 2291TIP3   OH2 6836   1.293   3.081   1.136  0.3557  0.0817 -0.4662
 2291TIP3    H1 6837   1.386   3.063   1.151  0.1965  0.4819  1.2693
 2291TIP3    H2 6838   1.254   2.995   1.122  0.8849 -0.1615 -0.4813
 2292TIP3   OH2 6839   6.309   5.931   4.234  0.7230 -0.3030  0.3561
 2292TIP3    H1 6840   6.331   5.870   4.164  0.6911  0.5746 -0.4378
 2292TIP3    H2 6841   6.248   5.882   4.290  0.1611 -0.7760 -0.6368
 2293TIP3   OH2 6842   3.588   5.450   3.508 -0.4350 -0.0516 -0.4492
 2293TIP3    H1 6843   3.593   5.515   3.438 -1.5423  1.3837  0.7395
 2293TIP3    H2 6844   3.530   5.382   3.473 -0.8138  0.5456 -1.0154
 2294TIP3   OH2 6845   2.514   5.568   4.720  0.6723 -0.5629 -0.1947
 2294TIP3    H1 6846   2.595   5.569   4.669  0.5981 -1.8379 -0.3870
 2294TIP3    H2 6847   2.451   5.524   4.662  0.1634 -0.6210  0.3981
 2295TIP3   OH2 6848   1.582   6.657   2.881 -0.4181  0.3951 -0.8046
 2295TIP3    H1 6849   1.653   6.619   2.932 -0.8953  1.3989  0.6524
 2295TIP3    H2 6850   1.519   6.688   2.945 -2.2586 -0.5582 -2.0665
 2296TIP3   OH2 6851   7.204   2.575   2.742  0.1632  0.3478  0.2687
 2296TIP3    H1 6852   7.131   2.634   2.762 -0.0220  0.0910  0.3602
 2296TIP3    H2 6853   7.223   2.592   2.649 -0.7677 -0.3939 -0.0718
 2297TIP3   OH2 6854   5.649   0.076   0.022 -0.3499 -0.4882 -0.2745
 2297TIP3    H1 6855   5.693   0.016   0.083 -0.3583  0.6790  0.9226
 2297TIP3    H2 6856   5.556   0.070   0.046 -0.2972  0.3145  0.1431
 2298TIP3   OH2 6857   3.617   5.567   0.518  0.1938 -0.6351 -0.0871
 2298TIP3    H1 6858   3.687   5.522   0.469 -0.7569 -1.4135 -0.7704
 2298TIP3    H2 6859   3.660   5.644   0.554  0.9063  0.1514 -2.4076
 2299TIP3   OH2 6860   5.432   5.842   2.132 -0.0759 -0.2471  0.5331
 2299TIP3    H1 6861   5.448   5.863   2.040  2.3025  0.9763  1.1316
 2299TIP3    H2 6862   5.351   5.887   2.154  0.5744  1.4790 -0.4006
 2300TIP3   OH2 6863   1.032   2.836   0.047  0.0653  0.2187  0.2929
 2300TIP3    H1 6864   0.965   2.839   0.116  0.4875  1.3680  0.6712
 2300TIP3    H2 6865   0.982   2.830  -0.034 -0.4794  0.3955  0.6105
 2301TIP3   OH2 6866   2.466   0.145   5.037  0.2365  0.1229 -0.0216
 2301TIP3    H1 6867   2.508   0.218   4.992  1.0335 -0.2455  0.0949
 2301TIP3    H2 6868   2.401   0.185   5.093  1.3752  0.8526  0.8245
 2302TIP3   OH2 6869   3.878   4.550   1.453 -0.4841 -0.0719 -0.0326
 2302TIP3    H1 6870   3.903   4.632   1.496 -1.1292  0.7756 -1.2225
 2302TIP3    H2 6871   3.948   4.489   1.475 -0.2312  0.6431  1.2792
 2303TIP3   OH2 6872   4.554   3.675   5.166  0.2689  0.2164 -0.0234
 2303TIP3    H1 6873   4.521   3.740   5.103 -1.6632  0.0316  0.7344
 2303TIP3    H2 6874   4.638   3.648   5.130 -0.1001  1.2030 -1.7508
 2304TIP3   OH2 6875   0.250   3.929   0.844  0.1006 -0.1574  0.2683
 2304TIP3    H1 6876   0.274   4.018   0.871  0.4265 -0.3177  0.5151
 2304TIP3    H2 6877   0.194   3.897   0.914 -0.8585  0.2139 -0.3044
 2305TIP3   OH2 6878   3.174   4.235   1.013  0.1283 -0.0769  0.2109
 2305TIP3    H1 6879   3.159   4.182   0.935  0.5904  0.5326 -0.3083
 2305TIP3    H2 6880   3.142   4.181   1.086 -1.7918 -0.0099 -0.5348
 2306TIP3   OH2 6881   0.715   3.906   2.196 -0.9948 -0.2173 -0.1587
 2306TIP3    H1 6882   0.680   3.953   2.272 -0.3645  0.3072 -0.1827
 2306TIP3    H2 6883   0.762   3.973   2.146  0.6763 -1.0149  0.2589
 2307TIP3   OH2 6884   0.452   5.200   4.199  0.4733  0.0248 -1.0050
 2307TIP3    H1 6885   0.477   5.259   4.127  0.8403  1.9783  0.6218
 2307TIP3    H2 6886   0.483   5.245   4.278 -0.5218 -1.7117  0.4429
 2308TIP3   OH2 6887   1.703   5.928   2.002  0.1126 -0.0142 -0.0226
 2308TIP3    H1 6888   1.784   5.923   1.951 -0.9089 -0.1197 -1.7366
 2308TIP3    H2 6889   1.676   6.020   1.995 -1.2582 -0.4765 -1.8016
 2309TIP3   OH2 6890   1.573   3.081   3.916  0.0688  0.0171  0.0583
 2309TIP3    H1 6891   1.480   3.069   3.936 -0.0061  0.4169 -0.0341
 2309TIP3    H2 6892   1.619   3.052   3.994 -0.1739  0.6754  0.4479
 2310TIP3   OH2 6893   0.901   0.488   5.322 -0.0885  0.1583 -0.2257
 2310TIP3    H1 6894   0.837   0.421   5.347 -0.0886  0.0504 -0.5102
 2310TIP3    H2 6895   0.868   0.523   5.239 -0.2929  0.7836  0.1125
 2311TIP3   OH2 6896   7.168   5.881   0.952 -0.5786 -0.0776 -0.7578
 2311TIP3    H1 6897   7.104   5.929   1.005 -0.7772 -0.7731 -0.3561
 2311TIP3    H2 6898   7.249   5.930   0.961 -0.4398 -0.5382  0.7462
 2312TIP3   OH2 6899   2.059   5.918   4.083  0.0647  0.4533 -0.0215
 2312TIP3    H1 6900   2.050   5.990   4.021 -1.8027  1.1381  0.9524
 2312TIP3    H2 6901   1.993   5.854   4.056  0.1297  0.1668  0.4752
 2313TIP3   OH2 6902   2.004   5.155   3.862  0.3982  0.6032  0.0777
 2313TIP3    H1 6903   1.930   5.135   3.920 -0.9928  1.8978 -1.1494
 2313TIP3    H2 6904   1.970   5.222   3.802  1.9618 -0.2304 -1.8447
 2314TIP3   OH2 6905   0.139   3.608   2.949 -0.7837 -0.4071  0.7932
 2314TIP3    H1 6906   0.107   3.586   3.036  2.0735 -2.4278  1.4788
 2314TIP3    H2 6907   0.225   3.646   2.965 -0.4463 -0.2863 -1.1367
 2315TIP3   OH2 6908   6.168   0.620   3.735  0.1149 -0.0396  0.1710
 2315TIP3    H1 6909   6.085   0.629   3.688  1.7184  0.2807 -2.8707
 2315TIP3    H2 6910   6.161   0.680   3.808 -1.9579  0.7500 -0.5992
 2316TIP3   OH2 6911   0.426   3.958   4.831 -0.5539 -0.0266  0.4018
 2316TIP3    H1 6912   0.456   4.034   4.882  1.3334 -0.9129  0.6849
 2316TIP3    H2 6913   0.453   3.882   4.883 -1.7929 -0.9161 -0.2196
 2317TIP3   OH2 6914   4.175   3.181   1.128  0.3435  0.4172  0.0077
 2317TIP3    H1 6915   4.232   3.137   1.066  1.2727  1.4503  0.1061
 2317TIP3    H2 6916   4.214   3.162   1.214 -1.0251 -1.1518  0.3551
 2318TIP3   OH2 6917   6.241   5.907   0.497  0.3543 -0.1978 -0.1601
 2318TIP3    H1 6918   6.286   5.967   0.557  2.4447 -1.0007 -0.8268
 2318TIP3    H2 6919   6.242   5.952   0.413  1.7967 -1.0155 -0.6290
 2319TIP3   OH2 6920   6.093   3.133   3.896 -0.7542 -0.0853 -0.6339
 2319TIP3    H1 6921   6.131   3.219   3.875  0.6723 -0.4255  0.3695
 2319TIP3    H2 6922   6.152   3.070   3.856 -1.7483 -0.6240 -1.2873
 2320TIP3   OH2 6923   0.959   4.039   2.863  0.2353  0.1380 -0.2935
 2320TIP3    H1 6924   0.931   4.130   2.864 -1.4220 -0.3330 -0.8917
 2320TIP3    H2 6925   0.928   4.002   2.946  2.3299  0.4781  0.7028
 2321TIP3   OH2 6926   5.374   6.720   1.290  0.1936 -0.1829 -0.4357
 2321TIP3    H1 6927   5.314   6.703   1.362  0.1926 -1.2377 -0.6726
 2321TIP3    H2 6928   5.388   6.634   1.249 -0.8148  0.5767 -2.4846
 2322TIP3   OH2 6929   7.145   2.598   1.329  0.3867 -0.3273 -0.3887
 2322TIP3    H1 6930   7.197   2.672   1.297 -0.7197  0.4011 -0.5212
 2322TIP3    H2 6931   7.063   2.603   1.281 -0.2036 -0.8860  0.5336
 2323TIP3   OH2 6932   2.730   0.944   3.381 -0.0633 -0.2017 -0.0659
 2323TIP3    H1 6933   2.813   0.959   3.337 -0.9822  0.1788 -1.7951
 2323TIP3    H2 6934   2.718   1.020   3.439  0.6655 -0.1387  0.0028
 2324TIP3   OH2 6935   6.310   2.725   0.718 -0.0898  0.1434 -0.1568
 2324TIP3    H1 6936   6.354   2.761   0.642  1.3419  0.0890  0.5993
 2324TIP3    H2 6937   6.327   2.631   0.713 -0.3686  0.0853 -0.0122
 2325TIP3   OH2 6938   1.680   4.149   1.334 -0.3721 -0.2949  0.1335
 2325TIP3    H1 6939   1.724   4.137   1.250 -1.4444 -0.8850 -0.3762
 2325TIP3    H2 6940   1.674   4.060   1.370  1.6692  0.1340  1.7109
 2326TIP3   OH2 6941   2.095   5.072   2.613  0.0824  0.2369 -0.1592
 2326TIP3    H1 6942   2.068   5.073   2.522 -0.9424  0.8085  0.1333
 2326TIP3    H2 6943   2.068   4.987   2.646  0.9515 -0.1892 -0.5183
 2327TIP3   OH2 6944   4.684   3.601   1.256 -1.0199  0.5241 -0.0541
 2327TIP3    H1 6945   4.752   3.562   1.311 -0.2060 -0.7735 -1.8732
 2327TIP3    H2 6946   4.729   3.665   1.202 -1.0395 -0.7798 -1.7122
 2328TIP3   OH2 6947   6.254   4.021   3.023  0.3546 -0.3195  0.4450
 2328TIP3    H1 6948   6.196   4.073   2.968 -0.6567 -0.5905  1.2193
 2328TIP3    H2 6949   6.323   4.082   3.050 -0.7948  0.6346  1.3236
 2329TIP3   OH2 6950   2.267   0.983   3.058 -0.1150 -0.1696 -0.0159
 2329TIP3    H1 6951   2.359   1.006   3.050  0.2687 -1.8718 -0.8380
 2329TIP3    H2 6952   2.222   1.051   3.007  0.6730  0.6188  0.3094
 2330TIP3   OH2 6953   1.718   5.225   4.208  0.2843  0.0328 -0.5646
 2330TIP3    H1 6954   1.794   5.181   4.246  1.1381  1.2304 -0.8439
 2330TIP3    H2 6955   1.649   5.159   4.211  1.7925 -1.7425 -1.9579
 2331TIP3   OH2 6956   3.031   6.362   2.981  0.7513 -0.2841  0.6364
 2331TIP3    H1 6957   3.092   6.305   2.934  1.3845  0.2399  0.8141
 2331TIP3    H2 6958   2.961   6.304   3.010  1.3240 -0.9468  0.7006
 2332TIP3   OH2 6959   2.014   5.863   5.447  0.5210 -0.3483  0.2612
 2332TIP3    H1 6960   2.054   5.795   5.392  1.2073 -0.3563  0.7612
 2332TIP3    H2 6961   2.002   5.937   5.388  1.3612 -0.3168  0.1222
 2333TIP3   OH2 6962   1.414   1.679   0.668  0.2333 -0.2474 -0.4075
 2333TIP3    H1 6963   1.337   1.735   0.674  1.1507  1.1477 -1.0696
 2333TIP3    H2 6964   1.456   1.686   0.753  0.0544 -0.3637 -0.3101
 2334TIP3   OH2 6965   4.803   6.279   5.229  0.1321  0.2975 -0.1110
 2334TIP3    H1 6966   4.866   6.351   5.226 -1.8110  2.2626  1.7358
 2334TIP3    H2 6967   4.776   6.267   5.138  2.3566  0.0826 -0.7973
 2335TIP3   OH2 6968   2.583   0.568   1.543 -0.0944 -0.3332  0.2283
 2335TIP3    H1 6969   2.594   0.521   1.625 -3.5720 -0.8713  0.5039
 2335TIP3    H2 6970   2.628   0.652   1.557  3.5667 -2.1763  0.8010
 2336TIP3   OH2 6971   6.525   0.147   2.583 -0.3017  0.2396 -0.1639
 2336TIP3    H1 6972   6.551   0.055   2.580  0.9694  0.5961 -2.5745
 2336TIP3    H2 6973   6.445   0.151   2.531 -0.9410  0.3610  0.8076
 2337TIP3   OH2 6974   6.063   3.121   0.096 -0.4938  0.1211 -0.0326
 2337TIP3    H1 6975   6.127   3.190   0.077  0.2854 -0.4384  0.5064
 2337TIP3    H2 6976   6.026   3.098   0.011 -0.4998  0.9533 -0.2611
 2338TIP3   OH2 6977   2.276   1.599   4.068 -0.0406  0.1703  0.1747
 2338TIP3    H1 6978   2.263   1.505   4.082 -0.6978 -0.0514 -1.5861
 2338TIP3    H2 6979   2.306   1.606   3.977  1.7686  1.5540  0.8316
 2339TIP3   OH2 6980   5.594   0.305   0.188  0.0316  0.2319 -0.3031
 2339TIP3    H1 6981   5.567   0.395   0.169  0.2236  0.1969 -0.7681
 2339TIP3    H2 6982   5.595   0.262   0.102  1.0624  0.0994 -0.2332
 2340TIP3   OH2 6983   3.835   3.253   1.484  0.3834 -0.1276  0.2643
 2340TIP3    H1 6984   3.905   3.224   1.426 -1.1776 -1.4257 -1.1107
 2340TIP3    H2 6985   3.841   3.194   1.559 -0.4161 -1.6473 -0.7871
 2341TIP3   OH2 6986   4.295   3.868   3.374  0.9281 -0.5420  0.0474
 2341TIP3    H1 6987   4.276   3.962   3.374 -0.3685 -0.7440 -2.3686
 2341TIP3    H2 6988   4.224   3.829   3.425  0.8876 -0.3243  0.1612
 2342TIP3   OH2 6989   1.775   1.503   3.219  0.0840 -0.4066  0.4962
 2342TIP3    H1 6990   1.764   1.588   3.261  0.5391 -0.2427  0.2916
 2342TIP3    H2 6991   1.836   1.520   3.146 -1.1460 -0.5667 -0.6052
 2343TIP3   OH2 6992   3.813   4.915   0.348 -0.0899  0.0618 -0.2015
 2343TIP3    H1 6993   3.810   4.828   0.308  2.2642 -1.8398  3.1932
 2343TIP3    H2 6994   3.725   4.930   0.380 -0.9771 -0.1883 -2.3728
 2344TIP3   OH2 6995   2.026   1.544   5.811  0.0090  0.0651 -0.3513
 2344TIP3    H1 6996   1.994   1.528   5.722  0.6868 -0.2779 -0.5430
 2344TIP3    H2 6997   2.044   1.457   5.846  1.0466  0.2616 -0.3750
 2345TIP3   OH2 6998   6.190   3.653   3.140  0.1160  0.2794 -0.1671
 2345TIP3    H1 6999   6.147   3.569   3.158  1.5273 -0.5925 -0.7090
 2345TIP3    H2 7000   6.120   3.708   3.104 -0.4145 -1.3513 -1.7968
 2346TIP3   OH2 7001   5.962   0.215   0.094  0.2344  0.2567 -0.6238
 2346TIP3    H1 7002   5.923   0.201   0.180  0.4791 -0.4127 -0.6220
 2346TIP3    H2 7003   5.903   0.170   0.033  0.9309 -0.6730 -0.6335
 2347TIP3   OH2 7004   7.173   4.587   1.651  0.2212  0.5668 -0.2397
 2347TIP3    H1 7005   7.156   4.513   1.594  1.1518  0.0357  0.1399
 2347TIP3    H2 7006   7.104   4.584   1.717 -0.6699  0.9959 -1.1306
 2348TIP3   OH2 7007   2.391   5.548   0.577  0.0808  0.1025 -0.3487
 2348TIP3    H1 7008   2.380   5.466   0.626  0.9369  1.1896  1.8029
 2348TIP3    H2 7009   2.332   5.609   0.621  1.3578  1.2867 -0.2335
 2349TIP3   OH2 7010   5.406   3.954   4.873  0.0253  0.3250  0.1181
 2349TIP3    H1 7011   5.443   3.895   4.808  0.7291 -0.8502  1.5398
 2349TIP3    H2 7012   5.407   3.905   4.955 -0.3875  1.9205  1.1464
 2350TIP3   OH2 7013   3.171   0.474   3.433  0.1145 -0.2586  0.1035
 2350TIP3    H1 7014   3.098   0.530   3.458  0.4669  0.0257  0.5145
 2350TIP3    H2 7015   3.176   0.409   3.504  1.5149  0.9253  1.1519
 2351TIP3   OH2 7016   0.772   6.251   3.988  0.2921  0.0525 -0.4727
 2351TIP3    H1 7017   0.823   6.232   4.066 -1.8621 -3.0449  0.3662
 2351TIP3    H2 7018   0.711   6.320   4.015  1.3363  0.9064 -0.2723
 2352TIP3   OH2 7019   7.061   6.563   4.064 -0.2555  0.2247  0.2308
 2352TIP3    H1 7020   6.970   6.545   4.089 -0.5487  0.1014 -0.8977
 2352TIP3    H2 7021   7.106   6.479   4.074 -0.6391 -0.1133 -0.7628
 2353TIP3   OH2 7022   2.583   6.011   2.907 -0.2493  0.3073 -0.7380
 2353TIP3    H1 7023   2.635   5.953   2.851 -3.5527 -1.3553 -2.3498
 2353TIP3    H2 7024   2.596   5.975   2.995  1.4134  0.0596 -1.0481
 2354TIP3   OH2 7025   2.610   1.562   4.647 -0.5595  0.6476  0.2941
 2354TIP3    H1 7026   2.561   1.591   4.570  1.9279  3.3919 -0.4588
 2354TIP3    H2 7027   2.648   1.643   4.683  1.7806 -1.0266  1.8898
 2355TIP3   OH2 7028   6.767   0.432   1.894  0.7871  0.4998 -0.6120
 2355TIP3    H1 7029   6.808   0.518   1.900 -0.0144  0.9372 -1.1152
 2355TIP3    H2 7030   6.791   0.400   1.807  3.2196 -0.9550  0.4748
 2356TIP3   OH2 7031   0.195   4.256   4.178  0.2157 -0.1643  0.2808
 2356TIP3    H1 7032   0.193   4.162   4.193 -0.7461 -0.1927  0.0400
 2356TIP3    H2 7033   0.230   4.266   4.090  2.4264 -0.1689  1.0981
 2357TIP3   OH2 7034   4.436   1.492   4.462 -0.4577  0.0593 -0.3205
 2357TIP3    H1 7035   4.416   1.442   4.384 -1.1078  2.1107 -1.5560
 2357TIP3    H2 7036   4.394   1.443   4.533  0.2043 -1.8728 -1.1951
 2358TIP3   OH2 7037   5.333   5.937   4.794  0.1231 -0.1255 -0.2677
 2358TIP3    H1 7038   5.349   6.007   4.857 -0.3937  0.5274 -0.8637
 2358TIP3    H2 7039   5.395   5.868   4.820 -0.2435  0.0317  1.0974
 2359TIP3   OH2 7040   0.700   4.494   2.707  0.1737 -0.3808 -0.1152
 2359TIP3    H1 7041   0.714   4.405   2.675 -3.1518 -1.2590  0.4118
 2359TIP3    H2 7042   0.683   4.484   2.800 -1.8131  0.5031 -0.3154
 2360TIP3   OH2 7043   1.345   0.747   5.535  0.2427 -0.2116 -0.2234
 2360TIP3    H1 7044   1.416   0.683   5.544  0.2141 -0.5454 -1.9440
 2360TIP3    H2 7045   1.379   0.826   5.578  1.2993 -0.6472 -0.2181
 2361TIP3   OH2 7046   0.297   0.649   3.074 -0.4751  0.2490 -0.1899
 2361TIP3    H1 7047   0.340   0.618   3.153 -0.5982  0.0926 -0.1831
 2361TIP3    H2 7048   0.301   0.575   3.014 -0.1430  0.4568 -0.4258
 2362TIP3   OH2 7049   3.898   1.015   3.419 -0.1315  0.2350 -0.2085
 2362TIP3    H1 7050   3.956   0.943   3.447 -1.6046 -0.7118  0.5343
 2362TIP3    H2 7051   3.942   1.094   3.451  1.7981 -0.2462 -1.5092
 2363TIP3   OH2 7052   6.551   2.418   5.287 -0.3555  0.4716 -0.4183
 2363TIP3    H1 7053   6.520   2.480   5.221  1.1139  1.5904 -0.1370
 2363TIP3    H2 7054   6.646   2.415   5.273 -0.2975 -1.0705  0.1593
 2364TIP3   OH2 7055   1.200   6.706   4.106 -0.4519 -0.4291  0.9037
 2364TIP3    H1 7056   1.167   6.620   4.079  0.7667 -0.1137 -2.0610
 2364TIP3    H2 7057   1.124   6.765   4.099 -1.2799 -1.1827  2.9064
 2365TIP3   OH2 7058   2.883   5.791   2.399  0.3752 -0.5187 -0.6614
 2365TIP3    H1 7059   2.854   5.878   2.424  1.5198 -0.4204  0.4095
 2365TIP3    H2 7060   2.950   5.768   2.463  0.0766 -2.2053 -0.8969
 2366TIP3   OH2 7061   1.597   4.984   4.844  0.3043 -0.3627 -0.3766
 2366TIP3    H1 7062   1.607   4.954   4.754 -1.0874 -2.2914  0.0568
 2366TIP3    H2 7063   1.565   5.074   4.836 -0.7511 -0.8361 -1.8302
 2367TIP3   OH2 7064   6.211   4.730   1.960  0.8332  0.3482  0.0457
 2367TIP3    H1 7065   6.267   4.726   2.038 -1.1145  0.4127  1.5401
 2367TIP3    H2 7066   6.183   4.640   1.946  0.0827  0.5388  0.2838
 2368TIP3   OH2 7067   3.883   5.739   2.917 -0.2249  0.0479 -0.9714
 2368TIP3    H1 7068   3.825   5.742   2.993 -1.6058  0.8503 -2.0121
 2368TIP3    H2 7069   3.936   5.818   2.924 -1.2961  0.8301 -1.5428
 2369TIP3   OH2 7070   1.467   4.125   5.162  0.1893  0.3085  0.5379
 2369TIP3    H1 7071   1.522   4.182   5.215  1.1949  0.0208 -0.1713
 2369TIP3    H2 7072   1.478   4.157   5.073 -1.2702  0.6135  0.4387
 2370TIP3   OH2 7073   4.981   5.110   0.454 -0.0700 -0.2760  0.1937
 2370TIP3    H1 7074   4.989   5.035   0.395 -2.1796  0.5866 -1.3047
 2370TIP3    H2 7075   4.932   5.076   0.530  0.7806 -0.8697  0.4939
 2371TIP3   OH2 7076   3.434   4.864   2.380 -0.3129  0.1971 -0.0183
 2371TIP3    H1 7077   3.367   4.833   2.441 -1.1857  1.2573 -0.3849
 2371TIP3    H2 7078   3.477   4.935   2.427  0.1431 -0.0780 -0.0187
 2372TIP3   OH2 7079   1.208   0.390   1.365 -0.3794 -0.0095 -0.0923
 2372TIP3    H1 7080   1.211   0.461   1.429 -2.8247  0.1213 -0.0251
 2372TIP3    H2 7081   1.133   0.337   1.391 -1.5909  0.1340 -2.8695
 2373TIP3   OH2 7082   5.804   4.994   5.274 -0.5480 -0.1115 -0.2456
 2373TIP3    H1 7083   5.822   4.981   5.181 -0.9825 -0.3720 -0.2938
 2373TIP3    H2 7084   5.870   4.942   5.319 -0.8556 -0.6521 -0.4163
 2374TIP3   OH2 7085   0.484   5.106   0.150 -0.5470 -0.1119  0.7716
 2374TIP3    H1 7086   0.525   5.158   0.082 -0.2550  0.0360  1.0607
 2374TIP3    H2 7087   0.548   5.038   0.171 -0.3640  0.2378  1.3601
 2375TIP3   OH2 7088   3.282   0.984   5.225 -0.0147  0.1732  0.0938
 2375TIP3    H1 7089   3.347   0.976   5.295  0.2693 -0.8825 -0.2610
 2375TIP3    H2 7090   3.334   0.982   5.144 -0.5231 -2.5103 -0.2795
 2376TIP3   OH2 7091   4.150   2.647   0.651  0.3069 -0.1504 -0.1476
 2376TIP3    H1 7092   4.191   2.733   0.644 -0.4401  0.1947 -0.3681
 2376TIP3    H2 7093   4.104   2.649   0.736  1.2809 -0.7766  0.4095
 2377TIP3   OH2 7094   2.050   5.905   0.121  0.5648 -0.0551  0.7103
 2377TIP3    H1 7095   2.001   5.846   0.179  0.8574 -0.1231  0.8911
 2377TIP3    H2 7096   2.007   5.990   0.131  0.1082 -0.2436  0.4126
 2378TIP3   OH2 7097   2.925   5.482   2.527 -0.4349  0.1524  0.3432
 2378TIP3    H1 7098   2.887   5.563   2.559 -0.4900 -0.3493  1.6085
 2378TIP3    H2 7099   3.010   5.506   2.492  0.6021  0.4409  2.8968
 2379TIP3   OH2 7100   3.728   0.819   5.144 -0.0854  0.3094 -0.5456
 2379TIP3    H1 7101   3.787   0.762   5.093  0.9997  0.5732  0.3830
 2379TIP3    H2 7102   3.759   0.811   5.234 -1.7373  0.1494  0.0439
 2380TIP3   OH2 7103   1.540   5.885   5.400 -0.1889 -0.1113  0.0351
 2380TIP3    H1 7104   1.611   5.941   5.433 -0.5343  0.6216 -0.4263
 2380TIP3    H2 7105   1.475   5.947   5.367 -0.2671 -0.8008 -1.1540
 2381TIP3   OH2 7106   5.681   6.584   5.465  0.1855 -0.2674 -0.2554
 2381TIP3    H1 7107   5.696   6.588   5.371 -2.0889 -0.3486 -0.6905
 2381TIP3    H2 7108   5.623   6.658   5.483 -0.3437 -0.9163  0.8462
 2382TIP3   OH2 7109   7.135   4.262   3.047  0.5206 -0.2978 -0.0129
 2382TIP3    H1 7110   7.070   4.328   3.027  0.3443 -0.4504  0.0539
 2382TIP3    H2 7111   7.185   4.251   2.966  0.1087 -0.5810 -0.2323
 2383TIP3   OH2 7112   6.800   4.111   1.657  0.7886 -0.7350  0.1809
 2383TIP3    H1 7113   6.820   4.199   1.688  0.3774 -0.7679  0.5387
 2383TIP3    H2 7114   6.862   4.055   1.704 -1.0022 -1.0047  2.3620
 2384TIP3   OH2 7115   5.940   1.395   0.264  0.2871 -0.4893  0.5174
 2384TIP3    H1 7116   5.892   1.336   0.321  0.5910  0.0456  1.3425
 2384TIP3    H2 7117   5.991   1.338   0.207 -0.2073 -1.0308  0.6153
 2385TIP3   OH2 7118   5.140   3.701   5.116 -0.2017  0.0209  0.1475
 2385TIP3    H1 7119   5.196   3.769   5.154 -1.0956 -0.1389  1.8243
 2385TIP3    H2 7120   5.122   3.732   5.027  2.6526 -0.0132 -0.5359
 2386TIP3   OH2 7121   6.925   2.773   1.589 -0.1656 -0.0420  0.6817
 2386TIP3    H1 7122   6.892   2.848   1.540 -1.2648 -0.6565  0.4565
 2386TIP3    H2 7123   6.982   2.812   1.656 -0.3486  0.9545  0.2782
 2387TIP3   OH2 7124   6.470   5.674   3.168  0.0556 -0.4325  0.1322
 2387TIP3    H1 7125   6.496   5.724   3.246  0.1365 -0.0193 -0.1554
 2387TIP3    H2 7126   6.540   5.611   3.156 -0.5285 -1.2859  1.0765
 2388TIP3   OH2 7127   7.004   0.053   4.613  0.6294 -0.4177  0.6956
 2388TIP3    H1 7128   7.077   0.114   4.597 -0.9815  1.4933  0.1693
 2388TIP3    H2 7129   6.942   0.104   4.666  0.3534 -2.5226  2.4968
 2389TIP3   OH2 7130   2.278   5.893   2.524  0.0956  1.1365  0.1370
 2389TIP3    H1 7131   2.280   5.816   2.581  0.7984  1.5699  0.7135
 2389TIP3    H2 7132   2.247   5.860   2.440  0.4144  0.2234  0.3695
 2390TIP3   OH2 7133   3.684   2.625   1.986  0.2847 -0.0422  0.2690
 2390TIP3    H1 7134   3.601   2.672   1.993  0.5885  0.3742  1.1385
 2390TIP3    H2 7135   3.661   2.544   1.939 -0.2618  0.8975 -1.1555
 2391TIP3   OH2 7136   6.870   3.051   5.565  0.2633 -0.5953 -0.1689
 2391TIP3    H1 7137   6.899   2.965   5.534  2.2567  0.5613 -1.7296
 2391TIP3    H2 7138   6.916   3.063   5.648 -1.5053 -1.7608  1.0583
 2392TIP3   OH2 7139   5.634   5.715   0.787 -0.2575  0.4106 -0.3350
 2392TIP3    H1 7140   5.637   5.662   0.708  1.1524  0.9951 -0.7035
 2392TIP3    H2 7141   5.585   5.662   0.850 -0.2974 -0.6080 -1.2052
 2393TIP3   OH2 7142   2.730   5.864   3.629 -0.0695 -0.4087  0.6095
 2393TIP3    H1 7143   2.642   5.844   3.660 -0.2458  0.8956  1.0182
 2393TIP3    H2 7144   2.779   5.884   3.709  0.0542  0.8461  0.2314
 2394TIP3   OH2 7145   1.821   5.539   5.516 -0.0831  0.4754  0.5196
 2394TIP3    H1 7146   1.891   5.548   5.452 -0.5692  1.0212  0.0482
 2394TIP3    H2 7147   1.865   5.547   5.601  0.4790  0.3869  0.2420
 2395TIP3   OH2 7148   7.183   2.180   4.098 -0.2631 -0.0242  0.1086
 2395TIP3    H1 7149   7.197   2.114   4.030  0.9318  1.2471 -0.9315
 2395TIP3    H2 7150   7.090   2.175   4.118 -0.4980 -0.9006 -1.1153
 2396TIP3   OH2 7151   5.549   3.357   2.791  0.0094  0.1093 -0.1190
 2396TIP3    H1 7152   5.546   3.427   2.727  2.3742 -0.3585 -0.8371
 2396TIP3    H2 7153   5.634   3.315   2.777  0.0941 -0.7944  2.4897
 2397TIP3   OH2 7154   6.828   6.442   1.497  0.2033  0.1228 -0.0018
 2397TIP3    H1 7155   6.762   6.495   1.453  0.0736  0.7258  0.9019
 2397TIP3    H2 7156   6.888   6.506   1.535  1.1872 -0.4149 -0.6205
 2398TIP3   OH2 7157   4.064   4.460   5.438  0.5530  0.8788 -0.2715
 2398TIP3    H1 7158   4.032   4.547   5.413 -2.5913 -0.0402  0.0510
 2398TIP3    H2 7159   4.117   4.432   5.363 -0.0042  2.3158 -1.2521
 2399TIP3   OH2 7160   5.341   4.107   0.950 -0.4358 -0.5307  0.4523
 2399TIP3    H1 7161   5.355   4.105   1.045 -1.9015 -1.0726  0.6870
 2399TIP3    H2 7162   5.375   4.192   0.923  0.5351 -0.6040  1.3661
 2400TIP3   OH2 7163   2.501   0.844   2.912 -0.3876 -0.4765  0.3355
 2400TIP3    H1 7164   2.544   0.886   2.987 -1.8224 -0.5675  1.2693
 2400TIP3    H2 7165   2.480   0.756   2.944 -1.7219 -0.2567  0.1456
 2401TIP3   OH2 7166   0.698   4.472   1.593 -0.2714 -0.0725 -0.8050
 2401TIP3    H1 7167   0.792   4.471   1.573 -0.0774 -2.7613 -0.0969
 2401TIP3    H2 7168   0.692   4.515   1.678 -0.0039  2.2750 -1.8990
 2402TIP3   OH2 7169   0.406   0.539   0.776  0.0164 -0.0899  0.2660
 2402TIP3    H1 7170   0.335   0.494   0.822 -0.7478 -0.9047 -1.6095
 2402TIP3    H2 7171   0.429   0.613   0.833  0.0023 -1.7215  2.5476
 2403TIP3   OH2 7172   0.382   4.666   5.163 -0.3259 -0.4797 -0.1853
 2403TIP3    H1 7173   0.439   4.702   5.095  1.4373  0.2022  1.5136
 2403TIP3    H2 7174   0.355   4.742   5.214 -0.0915 -1.1166  0.9313
 2404TIP3   OH2 7175   6.441   4.426   1.367  0.4910 -0.1571 -0.1420
 2404TIP3    H1 7176   6.494   4.461   1.439 -1.1328  0.3249  0.8705
 2404TIP3    H2 7177   6.377   4.495   1.348 -0.2798 -1.0260 -0.7896
 2405TIP3   OH2 7178   1.506   0.646   0.537  0.5910 -0.2821  0.2999
 2405TIP3    H1 7179   1.554   0.616   0.614 -0.6111  0.1626  1.2485
 2405TIP3    H2 7180   1.446   0.574   0.516 -0.4439  0.3515  0.9827
 2406TIP3   OH2 7181   3.939   5.190   1.356 -0.1020  0.3453  0.0370
 2406TIP3    H1 7182   3.964   5.282   1.360  0.3777  0.2970 -1.2934
 2406TIP3    H2 7183   3.954   5.165   1.265  0.4455 -1.2328  0.5216
 2407TIP3   OH2 7184   2.763   3.981   2.859 -0.0935 -0.1125 -0.0913
 2407TIP3    H1 7185   2.810   3.898   2.862  0.4369  0.1883 -0.0033
 2407TIP3    H2 7186   2.708   3.980   2.937 -0.9339 -0.8638 -0.6652
 2408TIP3   OH2 7187   1.766   2.022   4.955 -0.5627 -0.4591  0.1818
 2408TIP3    H1 7188   1.702   1.984   4.895 -1.8094 -0.2797  1.3351
 2408TIP3    H2 7189   1.841   1.963   4.951 -0.9160 -0.8561 -0.9653
 2409TIP3   OH2 7190   5.133   3.078   0.042  0.0093 -0.5936  0.2200
 2409TIP3    H1 7191   5.055   3.067  -0.013 -0.1933  0.7384  0.1998
 2409TIP3    H2 7192   5.158   2.989   0.067  0.9285 -1.4142 -3.1191
 2410TIP3   OH2 7193   1.687   5.046   5.564  0.4054 -0.4091 -0.6664
 2410TIP3    H1 7194   1.654   5.063   5.476 -0.4941 -2.3073 -0.7501
 2410TIP3    H2 7195   1.736   4.963   5.556 -0.5095 -1.1310  0.7819
 2411TIP3   OH2 7196   7.090   5.583   5.436 -0.1045 -0.3873 -0.6234
 2411TIP3    H1 7197   7.062   5.628   5.516  1.6913 -2.0402  1.0403
 2411TIP3    H2 7198   7.009   5.572   5.385 -1.4598  0.0104  1.3218
 2412TIP3   OH2 7199   4.243   5.685   5.194 -0.1398  0.0276  0.3616
 2412TIP3    H1 7200   4.309   5.751   5.211 -0.3431  0.2797  0.1823
 2412TIP3    H2 7201   4.241   5.631   5.273  0.0202  0.2409  0.5107
 2413TIP3   OH2 7202   0.711   3.283   2.774  0.1081  0.0077 -0.4768
 2413TIP3    H1 7203   0.782   3.273   2.838 -0.7722  0.4097  0.5837
 2413TIP3    H2 7204   0.646   3.218   2.801 -0.0132 -0.2446 -1.3477
 2414TIP3   OH2 7205   0.610   6.670   5.387 -0.0626  0.0001 -0.4028
 2414TIP3    H1 7206   0.554   6.744   5.411  0.2764 -0.5101  2.3820
 2414TIP3    H2 7207   0.569   6.595   5.430  0.9215 -0.9940 -1.1469
 2415TIP3   OH2 7208   5.710   6.069   2.642  0.4947 -0.1751 -0.0627
 2415TIP3    H1 7209   5.703   5.974   2.639 -0.2006 -0.1480  0.5036
 2415TIP3    H2 7210   5.702   6.096   2.550  1.2840 -0.6893 -0.2927
 2416TIP3   OH2 7211   4.580   6.658   0.780 -0.1993 -0.3867  0.8226
 2416TIP3    H1 7212   4.563   6.564   0.776  2.0222 -0.9976  3.0852
 2416TIP3    H2 7213   4.508   6.693   0.832 -0.0210 -1.1867  1.6363
 2417TIP3   OH2 7214   4.883   3.582   2.167 -0.1412 -0.1566  0.4618
 2417TIP3    H1 7215   4.819   3.512   2.158 -0.3303 -0.2822  2.3381
 2417TIP3    H2 7216   4.960   3.541   2.207 -0.0579  0.5700  1.0918
 2418TIP3   OH2 7217   6.137   1.875   4.026 -0.2466 -0.5524 -0.2290
 2418TIP3    H1 7218   6.088   1.957   4.019  2.7254  1.6151  1.9255
 2418TIP3    H2 7219   6.140   1.857   4.120  0.9113 -2.0174 -0.5056
 2419TIP3   OH2 7220   1.307   6.310   2.147 -0.3132 -0.8943 -0.4438
 2419TIP3    H1 7221   1.319   6.328   2.240 -0.7581  0.4133 -0.6142
 2419TIP3    H2 7222   1.228   6.256   2.142 -1.1559  0.2625 -0.1380
 2420TIP3   OH2 7223   4.538   3.061   3.876  0.3338  0.1704 -0.2390
 2420TIP3    H1 7224   4.584   2.983   3.908 -0.8562 -0.4502  0.0094
 2420TIP3    H2 7225   4.606   3.112   3.833  1.9088  0.7230  2.6367
 2421TIP3   OH2 7226   3.718   4.347   5.142 -0.7539  0.1557  0.2821
 2421TIP3    H1 7227   3.802   4.372   5.104 -0.6923 -1.6274 -0.8929
 2421TIP3    H2 7228   3.653   4.383   5.081 -0.6598 -2.5261 -1.5484
 2422TIP3   OH2 7229   4.120   3.580   0.434 -0.2848  0.3831 -0.3201
 2422TIP3    H1 7230   4.162   3.636   0.369  0.4454  0.1800 -0.0353
 2422TIP3    H2 7231   4.192   3.530   0.472 -0.8067 -0.0669  0.0912
 2423TIP3   OH2 7232   6.247   2.185   3.971  0.4208  0.5751 -0.4727
 2423TIP3    H1 7233   6.297   2.262   3.944  0.1006  0.7365 -0.6183
 2423TIP3    H2 7234   6.209   2.152   3.889 -0.1671  0.7860 -0.2876
 2424TIP3   OH2 7235   6.456   6.636   1.173  0.4112  0.6639  0.1237
 2424TIP3    H1 7236   6.468   6.658   1.265  1.6461  0.3115  0.0591
 2424TIP3    H2 7237   6.533   6.585   1.149  0.0323  0.5967 -1.0650
 2425TIP3   OH2 7238   0.799   6.476   4.455  0.6659 -0.1615 -0.2006
 2425TIP3    H1 7239   0.802   6.381   4.438  0.5274  0.1998 -2.6552
 2425TIP3    H2 7240   0.743   6.510   4.385 -0.6751  1.5801  1.6323
 2426TIP3   OH2 7241   0.998   4.202   0.504  0.2221 -0.2263  0.0405
 2426TIP3    H1 7242   1.008   4.113   0.471  1.2574  0.0689 -0.5051
 2426TIP3    H2 7243   0.989   4.256   0.425 -1.1828  0.0823  0.3849
 2427TIP3   OH2 7244   6.445   3.405   2.806 -0.2579 -0.7701 -0.2950
 2427TIP3    H1 7245   6.477   3.320   2.837 -1.2143 -0.8063  0.6574
 2427TIP3    H2 7246   6.389   3.383   2.732 -0.3549 -0.9564 -0.1673
 2428TIP3   OH2 7247   0.023   1.610   3.524 -0.4129  0.2237  0.4119
 2428TIP3    H1 7248   0.102   1.584   3.478 -1.4134 -1.7467 -0.2848
 2428TIP3    H2 7249  -0.020   1.528   3.547 -1.8912  1.2326  1.4359
 2429TIP3   OH2 7250   2.895   0.481   5.401 -0.1899  0.0431 -0.0118
 2429TIP3    H1 7251   2.862   0.570   5.416  0.7235  0.0888  2.2149
 2429TIP3    H2 7252   2.990   0.491   5.402 -0.0699 -1.0096  0.7900
 2430TIP3   OH2 7253   2.412   3.990   4.871  0.1182 -0.2479  0.4978
 2430TIP3    H1 7254   2.461   3.991   4.789 -2.4040  1.1276 -1.1010
 2430TIP3    H2 7255   2.378   3.900   4.877 -1.3402  0.1480 -1.0880
 2431TIP3   OH2 7256   1.096   3.442   2.139 -0.1624  0.1050 -0.0144
 2431TIP3    H1 7257   1.093   3.349   2.119 -0.6058 -0.1895  1.3153
 2431TIP3    H2 7258   1.149   3.480   2.069  1.9123 -1.4773  0.6029
 2432TIP3   OH2 7259   2.612   5.304   3.962 -0.0706  0.5334  0.6712
 2432TIP3    H1 7260   2.682   5.241   3.980 -0.9124 -0.5595  0.2574
 2432TIP3    H2 7261   2.545   5.285   4.028 -0.0523  1.4862  0.9893
 2433TIP3   OH2 7262   2.360   1.313   1.849  0.5687 -0.6452  0.0636
 2433TIP3    H1 7263   2.436   1.370   1.865 -0.4579  0.7331  0.1669
 2433TIP3    H2 7264   2.364   1.248   1.919  0.7998  0.3524  1.0111
 2434TIP3   OH2 7265   6.720   2.185   0.365 -0.4183  0.1222 -0.0373
 2434TIP3    H1 7266   6.763   2.106   0.399 -2.3473 -1.3747 -0.9335
 2434TIP3    H2 7267   6.664   2.215   0.437  1.4336  1.6781  0.8763
 2435TIP3   OH2 7268   3.944   2.487   1.670  0.8528  0.8200  0.1342
 2435TIP3    H1 7269   3.907   2.471   1.757  1.4382  0.2203  0.2806
 2435TIP3    H2 7270   4.004   2.414   1.656 -0.6324 -0.1571 -1.5840
 2436TIP3   OH2 7271   3.889   5.544   5.137  0.2484  0.6174 -0.3744
 2436TIP3    H1 7272   3.911   5.455   5.164 -0.4711  1.1309  2.2093
 2436TIP3    H2 7273   3.973   5.588   5.127  0.5732  0.1494  0.2678
 2437TIP3   OH2 7274   0.758   3.275   3.753 -0.6270 -1.1561 -0.2359
 2437TIP3    H1 7275   0.797   3.222   3.684 -0.1971  0.1680 -1.0582
 2437TIP3    H2 7276   0.664   3.275   3.732 -0.5349 -0.9944 -0.6603
 2438TIP3   OH2 7277   0.084   6.441   5.850 -0.2316  0.5545  0.3941
 2438TIP3    H1 7278   0.057   6.407   5.936 -1.3272  0.2597 -0.0503
 2438TIP3    H2 7279   0.062   6.371   5.789  2.7191 -0.2418  0.0896
 2439TIP3   OH2 7280   0.498   4.683   2.126  0.0010 -0.1241 -0.0822
 2439TIP3    H1 7281   0.531   4.595   2.108 -1.1265 -0.4071 -0.8838
 2439TIP3    H2 7282   0.530   4.736   2.053 -2.0750 -0.6227 -1.4371
 2440TIP3   OH2 7283   2.739   2.713   5.462 -0.0246  0.5348 -0.1190
 2440TIP3    H1 7284   2.687   2.694   5.539 -1.4414  0.6508 -1.0164
 2440TIP3    H2 7285   2.676   2.738   5.395  0.9887 -1.1563 -1.8282
 2441TIP3   OH2 7286   6.107   2.201   1.333  0.5638 -0.4028  0.4544
 2441TIP3    H1 7287   6.071   2.235   1.414  0.1343 -0.3101  0.2246
 2441TIP3    H2 7288   6.187   2.156   1.360  1.7435  1.6870  0.6409
 2442TIP3   OH2 7289   0.684   1.950   1.257 -0.5678  0.3753 -0.0909
 2442TIP3    H1 7290   0.679   1.921   1.348  0.0245  1.4198  0.2840
 2442TIP3    H2 7291   0.599   1.928   1.220 -1.4210  1.4417  1.1684
 2443TIP3   OH2 7292   4.745   1.295   1.739  0.4622 -0.0983  0.0874
 2443TIP3    H1 7293   4.789   1.248   1.810 -0.4005  0.6767  1.1675
 2443TIP3    H2 7294   4.668   1.335   1.780 -1.2680 -1.3798 -1.7251
 2444TIP3   OH2 7295   3.030   5.346   3.471 -0.3387  0.2673 -0.0518
 2444TIP3    H1 7296   3.063   5.424   3.515 -0.8437  0.4936 -0.0638
 2444TIP3    H2 7297   3.054   5.274   3.529  2.1201  0.1495 -1.0997
 2445TIP3   OH2 7298   6.464   1.160   4.034 -0.7863  0.0743  0.6001
 2445TIP3    H1 7299   6.376   1.193   4.015  0.3622  2.5509 -0.9274
 2445TIP3    H2 7300   6.484   1.195   4.121 -1.0493  0.1369  0.6358
 2446TIP3   OH2 7301   4.623   1.917   1.432  0.3586  0.1558 -0.0918
 2446TIP3    H1 7302   4.544   1.868   1.452  0.2623  0.4808  0.3413
 2446TIP3    H2 7303   4.683   1.853   1.395 -0.4789  0.1027 -1.4220
 2447TIP3   OH2 7304   2.590   0.765   3.507 -0.1652  0.2520  0.3401
 2447TIP3    H1 7305   2.640   0.836   3.467  0.4405  0.4501  1.3989
 2447TIP3    H2 7306   2.613   0.770   3.600 -1.1619 -0.4766  0.6418
 2448TIP3   OH2 7307   0.986   3.312   5.374  0.4590 -0.2690 -0.0933
 2448TIP3    H1 7308   1.036   3.388   5.345  0.5171 -0.7943 -1.4937
 2448TIP3    H2 7309   0.895   3.342   5.378  0.3550 -0.3028 -1.4824
 2449TIP3   OH2 7310   0.948   4.155   4.931 -0.4852 -0.5381  0.0883
 2449TIP3    H1 7311   0.905   4.071   4.943 -0.6345 -0.6649 -1.1873
 2449TIP3    H2 7312   0.882   4.220   4.957 -0.0260 -0.8063  2.0556
 2450TIP3   OH2 7313   6.192   4.866   3.252  0.1089  0.7947 -0.4218
 2450TIP3    H1 7314   6.235   4.788   3.286 -1.0645  0.5316  0.5328
 2450TIP3    H2 7315   6.246   4.939   3.285  0.7683  0.4310 -0.6696
 2451TIP3   OH2 7316   2.901   0.369   5.671 -0.2570  0.0025 -0.1360
 2451TIP3    H1 7317   2.880   0.404   5.584  0.4002  1.1974  0.1565
 2451TIP3    H2 7318   2.857   0.284   5.674 -0.1179 -0.1642 -1.7207
 2452TIP3   OH2 7319   2.574   6.559   5.660  0.2024 -0.0466 -0.3012
 2452TIP3    H1 7320   2.489   6.519   5.638 -0.1097  0.1763  0.4428
 2452TIP3    H2 7321   2.629   6.542   5.584 -0.5741 -0.0072 -0.8900
 2453TIP3   OH2 7322   5.440   2.420   3.953 -0.0786  0.2780 -0.4807
 2453TIP3    H1 7323   5.482   2.504   3.972 -0.2839  0.3526 -0.3475
 2453TIP3    H2 7324   5.354   2.444   3.916  0.1048  0.1296 -1.0137
 2454TIP3   OH2 7325   0.773   2.577   0.406  0.0678  0.4695  0.6471
 2454TIP3    H1 7326   0.797   2.485   0.393 -0.2682  0.5070 -0.3213
 2454TIP3    H2 7327   0.689   2.586   0.362 -0.0955  1.1496  1.0891
 2455TIP3   OH2 7328   6.911   3.473   3.520 -0.0128 -0.1288 -0.3542
 2455TIP3    H1 7329   6.902   3.567   3.532 -1.0677 -0.4235  1.6339
 2455TIP3    H2 7330   6.978   3.446   3.583 -0.2452 -0.7900 -0.3733
 2456TIP3   OH2 7331   1.802   6.097   2.579  0.0236 -0.1573 -0.2326
 2456TIP3    H1 7332   1.865   6.042   2.626 -1.6776 -0.7078  1.5351
 2456TIP3    H2 7333   1.816   6.185   2.614 -2.0657 -0.7626  2.4182
 2457TIP3   OH2 7334   1.451   3.751   3.533  0.2654 -0.4209 -0.1811
 2457TIP3    H1 7335   1.470   3.824   3.473  0.2348  0.6615  1.0934
 2457TIP3    H2 7336   1.536   3.711   3.550  0.1711 -1.3178 -1.6207
 2458TIP3   OH2 7337   0.191   6.225   0.211 -0.2023  0.1931 -0.6815
 2458TIP3    H1 7338   0.256   6.261   0.272  0.1706  0.5459 -1.2739
 2458TIP3    H2 7339   0.181   6.134   0.238 -0.8873  0.6186  0.6119
 2459TIP3   OH2 7340   5.476   6.746   1.722 -0.0828 -0.2484 -0.2388
 2459TIP3    H1 7341   5.391   6.784   1.703  0.0535  0.2316  0.1123
 2459TIP3    H2 7342   5.487   6.755   1.816  0.7517  0.5242 -0.4014
 2460TIP3   OH2 7343   4.432   6.419   2.507 -0.1143 -0.2914  0.0609
 2460TIP3    H1 7344   4.444   6.431   2.601 -1.0400  0.3589  0.1000
 2460TIP3    H2 7345   4.413   6.326   2.497 -1.3220 -0.1207  0.6641
 2461TIP3   OH2 7346   2.476   1.667   5.149 -0.3534 -0.1682 -0.1429
 2461TIP3    H1 7347   2.437   1.666   5.062  0.3703 -0.2251 -0.4721
 2461TIP3    H2 7348   2.561   1.708   5.137  1.0437 -2.8546 -0.0175
 2462TIP3   OH2 7349   0.622   0.080   3.784  0.2647 -0.7710 -0.3854
 2462TIP3    H1 7350   0.714   0.100   3.803 -0.5086  2.9468  0.1840
 2462TIP3    H2 7351   0.573   0.133   3.847 -2.3571 -3.0154 -0.3396
 2463TIP3   OH2 7352   6.018   3.347   5.445  0.1336 -0.0628  0.6834
 2463TIP3    H1 7353   6.018   3.388   5.532  0.7362 -2.8746  2.1302
 2463TIP3    H2 7354   5.946   3.391   5.399  0.2060  1.9778  2.3376
 2464TIP3   OH2 7355   5.501   4.628   0.015  0.3149  0.0822  0.2705
 2464TIP3    H1 7356   5.425   4.574   0.036 -0.7272  0.1585 -2.8774
 2464TIP3    H2 7357   5.481   4.714   0.052 -0.0177 -0.4777  1.4528
 2465TIP3   OH2 7358   5.687   5.797   2.671  0.1474  0.4074 -0.2087
 2465TIP3    H1 7359   5.653   5.759   2.752 -0.7132 -0.9213 -1.1516
 2465TIP3    H2 7360   5.730   5.724   2.627 -2.6849  0.0526 -2.6947
 2466TIP3   OH2 7361   2.786   6.542   1.728 -0.0657  0.6077  0.5636
 2466TIP3    H1 7362   2.849   6.614   1.717 -1.0262  1.5390  0.9523
 2466TIP3    H2 7363   2.705   6.575   1.689  0.1679 -1.3603 -1.8722
 2467TIP3   OH2 7364   5.147   2.502   5.601  0.8575 -0.2023 -0.0276
 2467TIP3    H1 7365   5.147   2.421   5.550  0.1994  1.1762 -2.3758
 2467TIP3    H2 7366   5.066   2.546   5.575  1.0587  1.1033  1.4172
 2468TIP3   OH2 7367   3.960   2.816   1.118 -0.5518 -0.0184  0.6791
 2468TIP3    H1 7368   3.982   2.723   1.106  1.0914  0.2745  1.0787
 2468TIP3    H2 7369   3.983   2.857   1.034 -1.1922  0.0532  0.5335
 2469TIP3   OH2 7370   6.914   4.266   1.298  0.1109  0.3999  0.3248
 2469TIP3    H1 7371   6.830   4.277   1.343  0.1292 -0.5800  0.6151
 2469TIP3    H2 7372   6.970   4.336   1.333  0.5356 -1.0656  2.8042
 2470TIP3   OH2 7373   4.725   4.830   4.706 -0.0483  0.8077 -0.0364
 2470TIP3    H1 7374   4.631   4.848   4.701  0.1429  1.9200  0.0865
 2470TIP3    H2 7375   4.735   4.745   4.664 -1.3581 -0.2632  1.6812
 2471TIP3   OH2 7376   2.130   5.265   0.417  0.0166 -0.1990  0.0572
 2471TIP3    H1 7377   2.207   5.277   0.361 -1.1453  1.1508 -1.3318
 2471TIP3    H2 7378   2.086   5.187   0.384 -0.3947  0.3070 -0.6054
 2472TIP3   OH2 7379   4.174   2.393   2.876  0.4622 -0.0717 -0.8515
 2472TIP3    H1 7380   4.191   2.408   2.969 -1.4396 -2.8708  0.0396
 2472TIP3    H2 7381   4.201   2.475   2.834  0.9557  1.4562  2.1773
 2473TIP3   OH2 7382   5.752   5.702   3.811  0.0880  0.3833 -0.3352
 2473TIP3    H1 7383   5.742   5.609   3.793  0.2015 -0.4466  3.1704
 2473TIP3    H2 7384   5.842   5.711   3.843 -0.2479  1.4795  0.3702
 2474TIP3   OH2 7385   3.108   4.324   4.582  0.0722 -0.2915  0.0549
 2474TIP3    H1 7386   3.058   4.244   4.596  0.4539 -0.5990 -0.3144
 2474TIP3    H2 7387   3.042   4.394   4.583 -0.3309 -0.6630 -0.1403
 2475TIP3   OH2 7388   6.471   2.056   4.997  0.2748  0.4419  0.2355
 2475TIP3    H1 7389   6.414   2.123   4.961  1.7350  0.9300 -1.3121
 2475TIP3    H2 7390   6.473   2.073   5.091 -0.8023  1.4132  0.0920
 2476TIP3   OH2 7391   5.568   3.916   3.537 -0.4368 -0.6467 -0.4246
 2476TIP3    H1 7392   5.586   3.929   3.444  0.4615 -0.0937 -0.1941
 2476TIP3    H2 7393   5.473   3.909   3.543 -0.6097  0.5648 -1.2483
 2477TIP3   OH2 7394   2.678   3.906   3.543 -0.1583  0.6313  0.0026
 2477TIP3    H1 7395   2.666   3.982   3.599  1.9048  1.0751 -0.0750
 2477TIP3    H2 7396   2.773   3.901   3.529 -0.3000 -1.5636 -0.5330
 2478TIP3   OH2 7397   6.507   2.767   0.202  0.4696  0.4144 -0.0716
 2478TIP3    H1 7398   6.564   2.697   0.234  0.7968 -0.6599 -2.7465
 2478TIP3    H2 7399   6.553   2.848   0.224  0.8759 -0.2479  1.6368
 2479TIP3   OH2 7400   0.018   2.120   4.734 -0.1516 -0.7502 -0.0261
 2479TIP3    H1 7401   0.087   2.160   4.788 -1.7066 -0.6260  2.0161
 2479TIP3    H2 7402   0.056   2.039   4.702  1.1854 -0.3338  0.4352
 2480TIP3   OH2 7403   5.115   1.679   5.778 -0.6115 -0.1780  0.4439
 2480TIP3    H1 7404   5.139   1.766   5.745 -3.2969  0.6730  0.4546
 2480TIP3    H2 7405   5.034   1.694   5.827 -0.6215 -2.5633  1.2694
 2481TIP3   OH2 7406   7.040   4.977   0.371 -0.6441  0.4684 -0.3159
 2481TIP3    H1 7407   7.106   4.966   0.303 -0.6951 -1.1053 -0.1501
 2481TIP3    H2 7408   7.041   4.894   0.419  0.0696  1.8437  2.2120
 2482TIP3   OH2 7409   6.037   1.839   1.771 -0.2696  0.2000  0.1688
 2482TIP3    H1 7410   6.071   1.778   1.706 -1.6507 -1.7843  1.1835
 2482TIP3    H2 7411   5.956   1.797   1.803 -0.9026  2.2362  1.4415
 2483TIP3   OH2 7412   1.803   3.839   5.737  0.4280 -0.6395 -0.1437
 2483TIP3    H1 7413   1.834   3.888   5.813  2.9230 -2.8800  0.4826
 2483TIP3    H2 7414   1.719   3.803   5.763  0.0415  0.7024  0.5294
 2484TIP3   OH2 7415   4.702   1.163   1.249 -0.2079  0.3650 -0.0370
 2484TIP3    H1 7416   4.612   1.133   1.252 -0.0842 -0.1105 -0.7058
 2484TIP3    H2 7417   4.733   1.158   1.339 -1.0763  1.2741  0.3287
 2485TIP3   OH2 7418   2.897   4.134   5.059 -0.7860 -0.2386  0.0611
 2485TIP3    H1 7419   2.887   4.199   5.129  1.2936  0.9317 -0.6319
 2485TIP3    H2 7420   2.842   4.167   4.988  1.1613  1.5571 -0.7347
 2486TIP3   OH2 7421   6.122   2.123   5.816 -0.2722 -0.1871  0.4365
 2486TIP3    H1 7422   6.047   2.067   5.840 -0.9016  0.9997  1.3584
 2486TIP3    H2 7423   6.199   2.071   5.839 -0.8113 -1.1416  0.1547
 2487TIP3   OH2 7424   3.899   6.821   2.315 -0.0846 -0.0651 -0.5964
 2487TIP3    H1 7425   3.944   6.741   2.342 -1.2290 -0.1343  1.2366
 2487TIP3    H2 7426   3.825   6.790   2.263  0.3619 -0.0957 -1.2258
 2488TIP3   OH2 7427   0.838   2.448   5.274  0.5198 -0.0414 -0.2570
 2488TIP3    H1 7428   0.852   2.513   5.206 -1.1396 -0.0889 -0.6808
 2488TIP3    H2 7429   0.884   2.370   5.243 -0.2461 -0.0731 -1.3689
 2489TIP3   OH2 7430   6.168   6.390   4.357 -0.4259  0.5341 -0.5274
 2489TIP3    H1 7431   6.238   6.370   4.419 -1.9077  0.6286  1.2806
 2489TIP3    H2 7432   6.141   6.304   4.323 -0.6189  0.3200  0.1505
 2490TIP3   OH2 7433   6.763   5.583   2.389 -0.4918 -0.2207 -0.3503
 2490TIP3    H1 7434   6.673   5.551   2.395 -0.5294 -0.3918 -1.4573
 2490TIP3    H2 7435   6.797   5.543   2.308 -1.3200  4.1895 -3.2634
 2491TIP3   OH2 7436   4.512   5.612   2.532 -0.0017 -0.2225 -0.1531
 2491TIP3    H1 7437   4.548   5.525   2.514  0.4771 -0.0788  0.1078
 2491TIP3    H2 7438   4.567   5.647   2.602 -1.4202 -0.5016  1.1389
 2492TIP3   OH2 7439   5.400   0.068   2.451  0.3601 -0.2449 -0.1474
 2492TIP3    H1 7440   5.438   0.030   2.372  2.6133 -1.7792  1.5466
 2492TIP3    H2 7441   5.344  -0.002   2.486 -0.4029  0.3234 -0.1904
 2493TIP3   OH2 7442   4.427   4.736   2.127  0.5838  0.3643 -0.8770
 2493TIP3    H1 7443   4.493   4.798   2.155  1.2353 -0.3802 -0.7394
 2493TIP3    H2 7444   4.380   4.781   2.057  0.8357  1.1263 -0.5642
 2494TIP3   OH2 7445   1.748   3.341   5.839  0.2775 -0.4893 -0.4334
 2494TIP3    H1 7446   1.698   3.382   5.910  1.2062  1.1538 -0.6621
 2494TIP3    H2 7447   1.706   3.256   5.825  0.0508 -0.8662  2.0596
 2495TIP3   OH2 7448   0.622   2.824   2.331  0.3270 -0.4866  0.0522
 2495TIP3    H1 7449   0.576   2.761   2.275  0.7653  0.2124 -1.1433
 2495TIP3    H2 7450   0.670   2.770   2.394 -0.2939 -1.2928 -0.1390
 2496TIP3   OH2 7451   3.398   5.640   1.386 -0.1473  0.3223  0.2424
 2496TIP3    H1 7452   3.358   5.723   1.361 -2.1039 -0.5867  0.1507
 2496TIP3    H2 7453   3.427   5.654   1.476 -2.4538  0.5104  1.0299
 2497TIP3   OH2 7454   6.521   5.412   2.409  0.0060  0.4285 -0.0218
 2497TIP3    H1 7455   6.498   5.418   2.502  2.3479 -0.9929  0.7472
 2497TIP3    H2 7456   6.494   5.324   2.384 -1.8439  1.2618 -1.1291
 2498TIP3   OH2 7457   2.780   6.599   0.235 -0.3045  0.3465  0.0307
 2498TIP3    H1 7458   2.758   6.566   0.148 -0.1065  0.9682 -0.2623
 2498TIP3    H2 7459   2.714   6.667   0.252 -0.2033  0.3863  0.2684
 2499TIP3   OH2 7460   6.084   6.100   2.367  0.1254  0.0951 -0.0488
 2499TIP3    H1 7461   6.011   6.038   2.365  1.0194 -0.9753 -2.7965
 2499TIP3    H2 7462   6.146   6.062   2.429 -0.6654 -0.1079  0.6478
 2500TIP3   OH2 7463   3.381   2.539   5.138 -1.2167  0.3695 -0.2668
 2500TIP3    H1 7464   3.436   2.472   5.178  1.1184  0.7939 -2.5246
 2500TIP3    H2 7465   3.407   2.620   5.180 -3.0509  0.1369  1.4672
 2501TIP3   OH2 7466   2.895   1.008   2.962  0.0901 -0.2620  0.3601
 2501TIP3    H1 7467   2.956   0.999   3.035 -0.3322 -0.1388  0.7401
 2501TIP3    H2 7468   2.920   1.090   2.920 -0.2954  0.1934  0.9901
 2502TIP3   OH2 7469   1.077   6.180   0.864  0.0794 -0.2235 -0.0246
 2502TIP3    H1 7470   1.146   6.160   0.800  0.4846 -0.2215  0.4062
 2502TIP3    H2 7471   1.045   6.267   0.839 -1.9665 -1.4880 -2.1563
 2503TIP3   OH2 7472   0.597   4.707   4.957 -0.1209  0.1763  0.3456
 2503TIP3    H1 7473   0.678   4.704   4.906  0.0252  1.5839  0.4403
 2503TIP3    H2 7474   0.533   4.748   4.899 -0.4253  0.1883  0.6817
 2504TIP3   OH2 7475   1.120   4.354   3.531 -0.3218  0.0621  0.0230
 2504TIP3    H1 7476   1.094   4.436   3.572  0.6847  1.5896 -2.1850
 2504TIP3    H2 7477   1.177   4.381   3.459  0.2156 -2.6081 -0.6344
 2505TIP3   OH2 7478   3.890   2.472   3.150 -0.3750 -0.4092 -0.1588
 2505TIP3    H1 7479   3.858   2.548   3.199 -0.5295 -1.5491  1.6166
 2505TIP3    H2 7480   3.959   2.435   3.206 -0.7992 -1.9861 -0.6323
 2506TIP3   OH2 7481   0.874   1.989   5.407 -0.1287 -0.2504 -0.4096
 2506TIP3    H1 7482   0.801   1.973   5.467 -0.3863 -0.0538 -0.6678
 2506TIP3    H2 7483   0.836   2.040   5.336  0.5883  1.1817  0.2018
 2507TIP3   OH2 7484   4.697   1.997   3.459 -0.7788  0.0086  0.0046
 2507TIP3    H1 7485   4.635   1.980   3.388 -0.3852 -2.2601  0.1246
 2507TIP3    H2 7486   4.684   1.924   3.520  1.2738  0.0329  0.5505
 2508TIP3   OH2 7487   5.583   5.415   4.425 -0.1406  0.2074  0.0221
 2508TIP3    H1 7488   5.616   5.371   4.504  0.0984 -1.0685 -0.7706
 2508TIP3    H2 7489   5.564   5.504   4.455  0.3412 -0.1210  1.4259
 2509TIP3   OH2 7490   2.755   6.124   4.518 -0.4754  0.7435 -0.3341
 2509TIP3    H1 7491   2.791   6.211   4.504  0.0558  0.3996 -1.1508
 2509TIP3    H2 7492   2.774   6.104   4.610  1.6436  0.4869 -0.7801
 2510TIP3   OH2 7493   6.064   6.728   4.508 -0.2584  0.4302 -0.1388
 2510TIP3    H1 7494   6.126   6.800   4.502 -0.3837  0.5704  0.1956
 2510TIP3    H2 7495   6.098   6.673   4.579 -1.8100  1.8145  1.8035
 2511TIP3   OH2 7496   5.746   6.759   2.287  0.0314  0.4858 -0.1570
 2511TIP3    H1 7497   5.716   6.682   2.239 -0.5408 -0.0916  1.0795
 2511TIP3    H2 7498   5.834   6.777   2.253  0.6302 -1.3904  0.3132
 2512TIP3   OH2 7499   2.853   3.241   4.614 -0.2938 -0.9310 -0.3283
 2512TIP3    H1 7500   2.865   3.207   4.703  0.6435 -2.2171 -0.9079
 2512TIP3    H2 7501   2.920   3.195   4.562  0.7637  1.5214 -1.2810
 2513TIP3   OH2 7502   3.718   4.503   2.758 -0.6213  0.3095 -0.5985
 2513TIP3    H1 7503   3.651   4.458   2.809  0.3382 -0.1106  0.3409
 2513TIP3    H2 7504   3.700   4.478   2.667 -1.1455 -0.5900 -0.2649
 2514TIP3   OH2 7505   4.725   2.145   3.008  0.1581 -0.0722  0.1218
 2514TIP3    H1 7506   4.671   2.198   3.067  1.6473  1.6958 -0.0289
 2514TIP3    H2 7507   4.665   2.078   2.975 -0.8669 -0.8156  3.1795
 2515TIP3   OH2 7508   2.904   2.855   3.737 -0.0267 -0.0354  0.2693
 2515TIP3    H1 7509   2.977   2.795   3.751  1.4271  1.6580  0.2252
 2515TIP3    H2 7510   2.886   2.850   3.643  1.1068  0.7095  0.0006
 2516TIP3   OH2 7511   4.913   5.606   4.528  0.5804  0.0003  0.0565
 2516TIP3    H1 7512   4.965   5.686   4.529  0.5241  0.0399 -0.2697
 2516TIP3    H2 7513   4.944   5.558   4.451 -0.2953  0.3052 -0.5039
 2517TIP3   OH2 7514   0.467   2.042   0.884  0.2526  0.1811  0.1147
 2517TIP3    H1 7515   0.527   2.083   0.822  1.2790 -1.0725  0.2286
 2517TIP3    H2 7516   0.423   1.974   0.833  0.3769 -0.1991  0.5114
 2518TIP3   OH2 7517   2.975   5.416   1.253  0.2187  0.0557 -0.0031
 2518TIP3    H1 7518   3.055   5.371   1.281  0.2709 -0.6749 -1.2769
 2518TIP3    H2 7519   2.971   5.493   1.310  1.7629  0.0601  0.1590
 2519TIP3   OH2 7520   4.819   1.730   3.190 -0.2131 -0.0403  0.4805
 2519TIP3    H1 7521   4.728   1.727   3.219  0.2920 -1.1256  2.1046
 2519TIP3    H2 7522   4.869   1.747   3.270  0.9692  1.5058 -0.5326
 2520TIP3   OH2 7523   1.332   4.678   3.786 -0.1429 -0.0553  0.3264
 2520TIP3    H1 7524   1.274   4.736   3.736  0.3293  1.1317  1.1111
 2520TIP3    H2 7525   1.417   4.722   3.785  0.0551 -0.3794  1.5462
 2521TIP3   OH2 7526   4.376   3.692   2.073  0.5422 -0.6412 -0.1944
 2521TIP3    H1 7527   4.395   3.618   2.016  1.7636 -2.7224  2.6632
 2521TIP3    H2 7528   4.281   3.704   2.065  0.3685 -2.2826 -1.0252
 2522TIP3   OH2 7529   2.031   5.101   1.662 -0.7012  0.1269 -0.5633
 2522TIP3    H1 7530   2.029   5.154   1.742 -0.2991  0.3150 -0.6767
 2522TIP3    H2 7531   2.082   5.153   1.600  0.4218 -0.7706 -0.4072
 2523TIP3   OH2 7532   6.810   4.326   4.159  0.0733  0.3705 -0.2651
 2523TIP3    H1 7533   6.871   4.337   4.086  2.0820 -1.5426  1.0003
 2523TIP3    H2 7534   6.840   4.247   4.203 -1.5079  1.0719  2.2445
 2524TIP3   OH2 7535   1.023   6.177   4.905  0.4894 -0.0566  0.0387
 2524TIP3    H1 7536   1.071   6.095   4.919  0.6652 -0.1881 -1.2507
 2524TIP3    H2 7537   0.931   6.150   4.899  0.3794  0.0304  1.0643
 2525TIP3   OH2 7538   6.662   5.144   4.427 -0.1497 -0.0439 -0.4063
 2525TIP3    H1 7539   6.638   5.118   4.516  0.2821 -0.6122 -0.4411
 2525TIP3    H2 7540   6.731   5.209   4.439  0.0312 -0.2487 -0.3219
 2526TIP3   OH2 7541   2.307   5.397   1.300  0.2156  0.2403  0.0916
 2526TIP3    H1 7542   2.252   5.392   1.378  1.0861  0.2626  0.7187
 2526TIP3    H2 7543   2.394   5.369   1.330  0.1805 -1.4981 -1.2579
 2527TIP3   OH2 7544   5.154   1.634   3.566  0.3279 -0.6737 -0.1212
 2527TIP3    H1 7545   5.208   1.565   3.526  2.9957  1.2280 -0.0595
 2527TIP3    H2 7546   5.215   1.684   3.620 -1.5639  1.5946  0.0663
 2528TIP3   OH2 7547   3.356   0.433   1.656  0.3530  0.0967 -0.5778
 2528TIP3    H1 7548   3.430   0.484   1.687 -0.2774  0.2404  0.7432
 2528TIP3    H2 7549   3.343   0.461   1.565  1.4590  0.5813 -0.5935
 2529TIP3   OH2 7550   3.687   5.138   2.668 -0.0934 -0.1656 -0.4760
 2529TIP3    H1 7551   3.749   5.081   2.624  2.1744  1.6291  0.2334
 2529TIP3    H2 7552   3.709   5.226   2.638 -2.6169  0.5221 -0.5422
 2530TIP3   OH2 7553   2.992   1.225   2.568  0.6871 -0.0098  0.2578
 2530TIP3    H1 7554   2.898   1.214   2.579  0.6223  0.0381 -0.2226
 2530TIP3    H2 7555   3.028   1.220   2.657  0.0068  2.1847  0.6885
 2531TIP3   OH2 7556   2.038   6.318   1.581  0.2934  0.2775 -0.0569
 2531TIP3    H1 7557   2.102   6.270   1.634 -1.1631 -3.2115 -1.1268
 2531TIP3    H2 7558   1.972   6.347   1.644  0.2424 -0.9001  0.4583
 2532TIP3   OH2 7559   4.065   6.467   1.589  0.4245  0.5984  0.8093
 2532TIP3    H1 7560   4.103   6.435   1.671  2.6139 -2.0063 -1.0532
 2532TIP3    H2 7561   4.139   6.505   1.542 -0.7411  1.8223 -0.1222
 2533TIP3   OH2 7562   1.080   5.915   1.261  0.4024 -0.2273 -0.8064
 2533TIP3    H1 7563   1.031   5.874   1.190 -0.4852 -3.0466  1.2439
 2533TIP3    H2 7564   1.137   5.846   1.294  0.9594  1.0446  1.0773
 2534TIP3   OH2 7565   5.135   3.949   4.338  0.0286  0.1688 -0.3013
 2534TIP3    H1 7566   5.221   3.992   4.334  0.4460 -0.7027 -1.5752
 2534TIP3    H2 7567   5.098   3.977   4.421  0.7798  2.0200 -0.5344
 2535TIP3   OH2 7568   3.589   1.514   4.902  0.1222  0.0877  1.0473
 2535TIP3    H1 7569   3.618   1.589   4.954 -2.0324  0.4745  1.8022
 2535TIP3    H2 7570   3.494   1.524   4.896  0.0203 -1.3740 -0.7817
 2536TIP3   OH2 7571   2.206   0.210   2.414 -0.3124 -0.3388 -0.0390
 2536TIP3    H1 7572   2.217   0.132   2.360 -0.1103 -0.4885  0.2180
 2536TIP3    H2 7573   2.133   0.190   2.472 -0.0101 -0.4849  0.2912
 2537TIP3   OH2 7574   2.108   2.790   5.180  0.3050  0.1456 -0.5953
 2537TIP3    H1 7575   2.140   2.880   5.177  1.2129 -0.1843 -1.3610
 2537TIP3    H2 7576   2.014   2.798   5.162  0.1943  1.0025  0.2440
 2538TIP3   OH2 7577   3.967   3.687   3.979  0.0604 -0.2396  0.0575
 2538TIP3    H1 7578   3.928   3.629   4.045 -1.3089  0.2503 -0.2871
 2538TIP3    H2 7579   3.934   3.774   4.001  0.4715  0.0962 -0.6245
 2539TIP3   OH2 7580   0.602   0.669   2.969  0.3129  0.0284 -0.0568
 2539TIP3    H1 7581   0.639   0.734   3.029  0.0694  1.3781 -1.3228
 2539TIP3    H2 7582   0.652   0.590   2.987 -0.0057  0.2549  2.1936
 2540TIP3   OH2 7583   5.721   3.620   3.999 -0.0416 -1.0637 -0.1423
 2540TIP3    H1 7584   5.720   3.582   4.087  1.2593 -1.5319 -0.3223
 2540TIP3    H2 7585   5.704   3.547   3.940  0.0201 -0.9195 -0.3418
 2541TIP3   OH2 7586   5.403   0.706   2.179 -0.0978  0.1133 -0.3017
 2541TIP3    H1 7587   5.474   0.763   2.150 -0.6104  0.3554 -1.1047
 2541TIP3    H2 7588   5.346   0.697   2.103 -0.4121 -0.8915  0.0279
 2542TIP3   OH2 7589   6.559   3.422   5.209 -0.0675 -0.2838  0.0528
 2542TIP3    H1 7590   6.568   3.476   5.287  1.8478  1.4990 -1.2924
 2542TIP3    H2 7591   6.620   3.350   5.222  0.3859  0.1100  0.1615
 2543TIP3   OH2 7592   5.502   1.900   0.211  0.3146 -0.1475 -0.0932
 2543TIP3    H1 7593   5.593   1.872   0.204  0.0926 -0.4857 -1.9192
 2543TIP3    H2 7594   5.489   1.961   0.138 -0.8625  0.0952  0.2859
 2544TIP3   OH2 7595   1.255   2.291   0.900  0.3925 -0.0486 -0.6013
 2544TIP3    H1 7596   1.317   2.218   0.898  0.3935 -0.0308 -1.3142
 2544TIP3    H2 7597   1.257   2.321   0.991 -0.6603 -1.8320  0.0492
 2545TIP3   OH2 7598   2.469   5.514   2.542  0.1944  0.4101  0.4124
 2545TIP3    H1 7599   2.502   5.533   2.454 -0.6502  0.2443  0.0499
 2545TIP3    H2 7600   2.411   5.440   2.530  1.6001 -0.9169  1.4428
 2546TIP3   OH2 7601   3.597   0.054   2.743  0.3514 -0.1870  0.1626
 2546TIP3    H1 7602   3.576   0.148   2.745  1.5728  0.1354 -0.8427
 2546TIP3    H2 7603   3.625   0.034   2.832  1.4399  0.7536  0.0588
 2547TIP3   OH2 7604   6.248   3.133   1.697 -0.0119 -0.0185 -0.5282
 2547TIP3    H1 7605   6.231   3.221   1.730 -0.4357 -0.2997  0.0363
 2547TIP3    H2 7606   6.314   3.098   1.757 -0.1968 -0.2535 -0.4618
 2548TIP3   OH2 7607   2.233   5.652   4.466 -0.2597  0.1851  0.2186
 2548TIP3    H1 7608   2.226   5.688   4.554  0.7250 -0.0754  0.4102
 2548TIP3    H2 7609   2.269   5.723   4.414  0.3485 -0.0568  0.2996
 2549TIP3   OH2 7610   3.055   0.955   5.459  0.4300  0.3894 -0.6023
 2549TIP3    H1 7611   3.107   1.015   5.406 -0.6096  0.0954 -2.0182
 2549TIP3    H2 7612   3.083   0.972   5.549  2.3416  0.8153 -1.2305
 2550TIP3   OH2 7613   6.415   3.883   2.266  0.8091 -0.6819  0.0429
 2550TIP3    H1 7614   6.428   3.909   2.358 -0.2299 -0.6394  0.1873
 2550TIP3    H2 7615   6.448   3.794   2.261 -0.8895 -1.4114  0.9472
 2551TIP3   OH2 7616   6.533   5.967   3.143  0.5194  0.3920  0.1557
 2551TIP3    H1 7617   6.501   5.891   3.094  0.8132 -0.7595  1.6938
 2551TIP3    H2 7618   6.628   5.958   3.143  0.6248  1.3448 -0.5273
 2552TIP3   OH2 7619   4.393   0.269   3.994  0.0042  0.1019  0.0596
 2552TIP3    H1 7620   4.463   0.207   4.015  0.8859  0.4051 -1.8005
 2552TIP3    H2 7621   4.313   0.216   3.995  0.5487 -0.7389 -0.0158
 2553TIP3   OH2 7622   1.560   2.319   4.812 -0.0711  0.2249 -0.1872
 2553TIP3    H1 7623   1.653   2.317   4.834 -0.6550  0.2279  2.6279
 2553TIP3    H2 7624   1.516   2.284   4.890 -2.5798  2.5235 -0.4398
 2554TIP3   OH2 7625   4.314   4.336   2.761 -0.1970  0.2796 -0.2771
 2554TIP3    H1 7626   4.386   4.311   2.703 -0.2011 -0.7998  0.1702
 2554TIP3    H2 7627   4.236   4.302   2.717 -0.2236 -0.3375  0.2455
 2555TIP3   OH2 7628   4.633   3.023   4.370  0.1567  0.1194  0.1436
 2555TIP3    H1 7629   4.670   3.085   4.307 -0.0676  0.2917  0.1803
 2555TIP3    H2 7630   4.582   3.078   4.429 -0.2751 -0.1354  0.0052
 2556TIP3   OH2 7631   0.793   5.334   0.904 -0.0235 -0.0749  0.1679
 2556TIP3    H1 7632   0.734   5.259   0.897  1.1769 -1.0070 -0.4073
 2556TIP3    H2 7633   0.874   5.298   0.940  1.1668  0.5606 -1.7017
 2557TIP3   OH2 7634   0.972   4.357   2.896  0.2342 -0.0810  0.9116
 2557TIP3    H1 7635   0.967   4.329   2.987  4.4410  0.5397  1.5198
 2557TIP3    H2 7636   0.985   4.452   2.900  2.2816 -0.2715 -0.1866
 2558TIP3   OH2 7637   6.570   6.368   1.794 -0.2000 -0.2216  0.0621
 2558TIP3    H1 7638   6.532   6.338   1.877 -1.5801 -2.4586 -1.2841
 2558TIP3    H2 7639   6.521   6.448   1.773 -0.2341  0.0440  1.0993
 2559TIP3   OH2 7640   4.712   4.268   4.917  0.0954  0.1379 -0.4463
 2559TIP3    H1 7641   4.744   4.181   4.941 -2.2512 -0.6542  0.0450
 2559TIP3    H2 7642   4.694   4.261   4.823 -1.4315 -0.4258 -0.1483
 2560TIP3   OH2 7643   5.049   0.301   3.058 -0.1281  0.5124 -0.0397
 2560TIP3    H1 7644   5.060   0.247   3.137  0.9735  0.0623 -0.4912
 2560TIP3    H2 7645   5.091   0.251   2.988 -0.1364  1.4158 -0.7083
 2561TIP3   OH2 7646   1.511   0.227   4.066 -0.1605  0.5764  0.4641
 2561TIP3    H1 7647   1.588   0.194   4.113 -0.1046 -0.5496 -0.3496
 2561TIP3    H2 7648   1.440   0.224   4.130  0.3015  0.8854  1.0031
 2562TIP3   OH2 7649   1.440   4.275   1.707  0.4339 -0.8790  0.0257
 2562TIP3    H1 7650   1.359   4.265   1.758  1.3552 -0.8444  1.5752
 2562TIP3    H2 7651   1.449   4.369   1.695 -0.0875 -0.9196 -0.7311
 2563TIP3   OH2 7652   1.788   6.696   4.518  0.2782 -0.0403  1.1049
 2563TIP3    H1 7653   1.871   6.669   4.478 -0.2118 -0.5640  0.4094
 2563TIP3    H2 7654   1.803   6.786   4.545  1.1737 -0.2226  1.2684
 2564TIP3   OH2 7655   5.873   3.426   3.061  0.7259 -0.0534 -0.4511
 2564TIP3    H1 7656   5.961   3.396   3.084  0.6029 -1.1957 -1.3821
 2564TIP3    H2 7657   5.826   3.346   3.039 -0.4062  0.5980 -0.4484
 2565TIP3   OH2 7658   2.021   4.570   3.996  0.0529  0.3599  0.7448
 2565TIP3    H1 7659   2.111   4.542   3.980 -0.0904 -0.8704  1.8792
 2565TIP3    H2 7660   1.982   4.579   3.909  0.4549 -1.9606  0.2729
 2566TIP3   OH2 7661   4.518   2.050   1.886  0.1147 -0.6287  0.2875
 2566TIP3    H1 7662   4.540   1.976   1.830  0.4688 -1.3526  1.3621
 2566TIP3    H2 7663   4.533   2.127   1.831 -1.2208 -1.3574 -1.1644
 2567TIP3   OH2 7664   5.119   2.893   4.770 -0.0529 -0.2952 -0.3298
 2567TIP3    H1 7665   5.047   2.830   4.779  0.6177 -1.1392 -0.7549
 2567TIP3    H2 7666   5.090   2.952   4.700 -0.4032 -0.5363 -0.3908
 2568TIP3   OH2 7667   5.766   3.990   3.106  0.5533 -0.1011 -0.2218
 2568TIP3    H1 7668   5.752   3.926   3.036 -4.1696 -0.7860  1.0035
 2568TIP3    H2 7669   5.818   3.944   3.171  1.3353 -0.9366 -1.3940
 2569TIP3   OH2 7670   6.936   0.241   4.796 -0.0318 -0.6149  0.1354
 2569TIP3    H1 7671   6.918   0.333   4.812  0.2072  0.3051 -3.8796
 2569TIP3    H2 7672   6.851   0.198   4.805  0.0131 -0.2731  2.9503
 2570TIP3   OH2 7673   1.993   3.519   5.449 -0.9906 -0.0699  0.6353
 2570TIP3    H1 7674   1.989   3.501   5.543 -1.4546  0.7182  0.7749
 2570TIP3    H2 7675   2.081   3.552   5.435 -0.0044 -2.5829  0.3219
 2571TIP3   OH2 7676   6.439   1.846   3.407 -0.1333  0.1299  0.0710
 2571TIP3    H1 7677   6.362   1.860   3.353  0.0257  0.0682 -0.1772
 2571TIP3    H2 7678   6.405   1.823   3.493 -0.3977 -0.5994 -0.2163
 2572TIP3   OH2 7679   2.518   0.753   4.954 -0.0391  0.2525  0.2394
 2572TIP3    H1 7680   2.558   0.805   5.023  1.6089 -0.1810 -0.3314
 2572TIP3    H2 7681   2.483   0.818   4.892 -0.8851  0.6384  1.1034
 2573TIP3   OH2 7682   4.688   6.421   1.068 -0.2785  0.6799  0.1421
 2573TIP3    H1 7683   4.707   6.511   1.096  2.0595  0.4869 -0.5359
 2573TIP3    H2 7684   4.599   6.405   1.097 -0.5502  3.0039  0.8372
 2574TIP3   OH2 7685   1.445   1.664   2.227 -0.3924 -0.5979 -0.0979
 2574TIP3    H1 7686   1.457   1.615   2.146  0.1274  0.5294 -0.7304
 2574TIP3    H2 7687   1.469   1.602   2.296  0.4649 -1.1669 -0.8794
 2575TIP3   OH2 7688   2.802   0.828   1.303 -0.1614 -0.1151  0.0966
 2575TIP3    H1 7689   2.851   0.907   1.279  1.8390 -0.4570  2.6361
 2575TIP3    H2 7690   2.800   0.776   1.223  1.5556  0.9851 -0.7264
 2576TIP3   OH2 7691   6.118   5.055   5.824  0.3211 -0.0664 -0.6414
 2576TIP3    H1 7692   6.195   5.092   5.866  0.4382 -0.8960 -0.0933
 2576TIP3    H2 7693   6.143   5.047   5.732  0.0344  1.8313 -0.9107
 2577TIP3   OH2 7694   4.612   0.803   2.800 -0.6908  0.5241 -0.5231
 2577TIP3    H1 7695   4.565   0.822   2.881 -0.8518  1.9944 -0.9305
 2577TIP3    H2 7696   4.562   0.733   2.758 -0.8185  0.0166  0.4549
 2578TIP3   OH2 7697   5.618   4.620   3.916  0.2507  0.4237  1.0751
 2578TIP3    H1 7698   5.628   4.632   4.011 -0.1377 -1.9082  1.4641
 2578TIP3    H2 7699   5.707   4.600   3.885  0.0168 -1.3000  1.4053
 2579TIP3   OH2 7700   3.763   0.523   4.576 -0.1869 -0.2792 -0.7429
 2579TIP3    H1 7701   3.789   0.595   4.632 -1.3089 -1.0309  0.8126
 2579TIP3    H2 7702   3.670   0.511   4.594  0.0414 -2.3336 -0.6896
 2580TIP3   OH2 7703   5.501   5.466   0.599 -0.0569 -0.0131 -0.3276
 2580TIP3    H1 7704   5.538   5.393   0.548 -0.9212 -1.4164  0.9670
 2580TIP3    H2 7705   5.459   5.424   0.674  0.9492  1.9656  1.4281
 2581TIP3   OH2 7706   6.479   3.781   3.618  0.4289  0.2522  0.2916
 2581TIP3    H1 7707   6.414   3.723   3.577  0.0496 -0.5651  1.9563
 2581TIP3    H2 7708   6.430   3.828   3.685  1.1196  1.2409  0.1125
 2582TIP3   OH2 7709   5.018   4.185   2.080  0.0543 -0.0745  0.1771
 2582TIP3    H1 7710   5.020   4.137   1.997  1.8844 -1.1255  0.7765
 2582TIP3    H2 7711   5.031   4.277   2.055 -0.2340 -0.2791 -0.7573
 2583TIP3   OH2 7712   1.863   2.462   0.948 -0.6732  0.0157  0.4808
 2583TIP3    H1 7713   1.868   2.472   0.853 -1.4607  3.6753  0.6839
 2583TIP3    H2 7714   1.952   2.439   0.975 -0.5958 -1.8315 -1.1001
 2584TIP3   OH2 7715   5.342   1.393   4.085  0.1084  0.1791 -0.1438
 2584TIP3    H1 7716   5.303   1.421   4.002 -0.9319 -1.4080 -0.2518
 2584TIP3    H2 7717   5.436   1.397   4.071  0.1013 -3.7212 -2.8835
 2585TIP3   OH2 7718   6.236   6.634   0.541 -0.2454 -0.2061 -0.1090
 2585TIP3    H1 7719   6.234   6.662   0.633  1.6823 -0.1496 -0.0387
 2585TIP3    H2 7720   6.158   6.580   0.531 -0.5932 -0.0684  1.5221
 2586TIP3   OH2 7721   6.987   1.450   2.824 -0.1024  0.0158 -0.3951
 2586TIP3    H1 7722   6.924   1.507   2.868 -0.3995 -0.0616 -0.7082
 2586TIP3    H2 7723   6.974   1.364   2.863  1.5377  0.4710  1.3117
 2587TIP3   OH2 7724   6.314   2.988   3.788 -0.3900  0.1803 -0.3569
 2587TIP3    H1 7725   6.333   2.985   3.695  1.7775  0.1153  0.0398
 2587TIP3    H2 7726   6.328   2.899   3.819 -1.7085  0.0553 -0.0456
 2588TIP3   OH2 7727   1.976   2.925   2.456 -0.1199  0.5034 -0.1837
 2588TIP3    H1 7728   2.046   2.923   2.391  2.5896  0.1152  2.5457
 2588TIP3    H2 7729   1.943   3.015   2.453 -0.7266  0.2855 -2.5878
 2589TIP3   OH2 7730   4.560   5.389   5.717  0.3156 -0.1107  0.3282
 2589TIP3    H1 7731   4.561   5.387   5.621  0.3643 -1.2387  0.3374
 2589TIP3    H2 7732   4.596   5.305   5.743 -0.8457 -0.3263  1.3363
 2590TIP3   OH2 7733   5.768   5.883   4.774  0.2645  0.4780 -0.2840
 2590TIP3    H1 7734   5.770   5.869   4.869 -0.0052 -1.8100 -0.5632
 2590TIP3    H2 7735   5.739   5.799   4.738 -1.1678  1.7677 -2.3269
 2591TIP3   OH2 7736   1.243   2.180   0.044  0.2889 -0.4160  0.3716
 2591TIP3    H1 7737   1.286   2.214   0.123  0.2522  0.5814 -0.0330
 2591TIP3    H2 7738   1.301   2.206  -0.028  0.6985 -1.9288  0.1013
 2592TIP3   OH2 7739   2.523   6.641   0.686 -0.0042 -0.1189  0.2386
 2592TIP3    H1 7740   2.537   6.696   0.608  1.7798 -0.8902 -0.0442
 2592TIP3    H2 7741   2.476   6.698   0.747  1.1019  1.4936 -0.3380
 2593TIP3   OH2 7742   0.553   6.429   3.645  0.2330 -0.5796  0.0173
 2593TIP3    H1 7743   0.558   6.515   3.688 -0.1457 -0.6795  0.2673
 2593TIP3    H2 7744   0.577   6.447   3.554 -3.4133  0.5079 -0.9087
 2594TIP3   OH2 7745   3.966   2.627   3.580  0.2405 -0.3823  0.0346
 2594TIP3    H1 7746   3.962   2.698   3.516 -1.2803  0.3252  0.8627
 2594TIP3    H2 7747   4.022   2.660   3.650 -0.8444  0.2175  0.6394
 2595TIP3   OH2 7748   6.838   5.039   3.588 -0.0776  0.3042  0.2901
 2595TIP3    H1 7749   6.814   5.125   3.622 -0.3328 -0.0874  1.1207
 2595TIP3    H2 7750   6.922   5.054   3.543 -0.0994  0.9767  0.4636
 2596TIP3   OH2 7751   2.875   3.058   2.454 -0.0675 -0.4629  0.0851
 2596TIP3    H1 7752   2.880   3.015   2.539  0.4764 -2.3435 -0.8539
 2596TIP3    H2 7753   2.791   3.104   2.456  0.5633  0.7346  2.1313
 2597TIP3   OH2 7754   1.253   2.018   2.498 -0.1602 -0.5963  0.0314
 2597TIP3    H1 7755   1.210   1.934   2.512  0.7513 -1.1029 -0.1113
 2597TIP3    H2 7756   1.184   2.083   2.513 -0.7891 -1.3486  0.5019
 2598TIP3   OH2 7757   4.211   4.747   3.296 -0.6952  0.1622  0.0930
 2598TIP3    H1 7758   4.141   4.732   3.233 -0.8678 -1.3712  0.6035
 2598TIP3    H2 7759   4.292   4.737   3.246 -0.8252  0.4526 -0.1810
 2599TIP3   OH2 7760   4.129   4.117   0.647 -0.1832 -0.4522  0.0395
 2599TIP3    H1 7761   4.095   4.163   0.723 -0.3129 -0.8408  0.2223
 2599TIP3    H2 7762   4.221   4.103   0.666 -0.1517 -0.3024 -0.0004
 2600TIP3   OH2 7763   1.291   2.475   1.163 -0.0776 -0.2247  0.7020
 2600TIP3    H1 7764   1.238   2.409   1.208  0.1706  1.0699  3.0635
 2600TIP3    H2 7765   1.232   2.549   1.150  0.2753 -0.0079  0.3123
 2601TIP3   OH2 7766   3.157   5.701   3.249 -0.6723  0.3510  0.0643
 2601TIP3    H1 7767   3.215   5.679   3.321 -1.1636 -1.2311  0.0215
 2601TIP3    H2 7768   3.193   5.654   3.174 -2.4715 -1.4749  0.2508
 2602TIP3   OH2 7769   1.491   4.365   1.282 -0.0955 -0.1958  0.1384
 2602TIP3    H1 7770   1.424   4.299   1.260 -0.7191  0.2942  0.5292
 2602TIP3    H2 7771   1.570   4.314   1.299  0.3871 -0.6592 -2.8565
 2603TIP3   OH2 7772   6.416   2.022   4.493 -0.0192  0.1102 -0.0472
 2603TIP3    H1 7773   6.437   2.049   4.582  1.7750 -0.7408 -0.1722
 2603TIP3    H2 7774   6.372   2.098   4.455  4.4576  2.9711 -0.2763
 2604TIP3   OH2 7775   4.997   2.671   2.422  0.7156 -0.6414  0.2222
 2604TIP3    H1 7776   5.055   2.618   2.367 -0.0329 -0.6242 -0.6003
 2604TIP3    H2 7777   4.909   2.650   2.391  0.3665  0.5454  0.3802
 2605TIP3   OH2 7778   0.985   3.157   2.900  0.6098  0.2423 -0.3634
 2605TIP3    H1 7779   1.030   3.162   2.815  0.4590  0.2746 -0.4411
 2605TIP3    H2 7780   1.048   3.113   2.957  0.6958  0.1818 -0.5032
 2606TIP3   OH2 7781   4.349   3.979   0.765 -0.1646 -0.1965 -0.5263
 2606TIP3    H1 7782   4.315   3.900   0.723 -0.6025 -1.9992  2.9276
 2606TIP3    H2 7783   4.414   3.947   0.828 -0.2607  2.2142  0.9081
 2607TIP3   OH2 7784   6.978   1.714   2.688  0.1530 -0.0411  0.0805
 2607TIP3    H1 7785   6.886   1.689   2.694  0.7806 -2.4034  1.5616
 2607TIP3    H2 7786   6.978   1.799   2.646 -2.7396  0.2612  0.5170
 2608TIP3   OH2 7787   2.017   2.855   2.858  0.0666 -0.1251  0.3020
 2608TIP3    H1 7788   2.018   2.780   2.918 -0.9754 -1.6338 -1.4558
 2608TIP3    H2 7789   2.106   2.857   2.822 -0.3851 -1.7313 -1.0054
 2609TIP3   OH2 7790   1.791   6.637   3.073 -0.1699 -0.3570 -0.3937
 2609TIP3    H1 7791   1.872   6.685   3.086  0.3442 -1.6843  1.7879
 2609TIP3    H2 7792   1.728   6.680   3.132  0.3639 -2.3833  1.7728
 2610TIP3   OH2 7793   4.580   3.384   3.056  0.0791  0.3262 -0.0937
 2610TIP3    H1 7794   4.518   3.443   3.098  0.8629  1.1376 -0.0362
 2610TIP3    H2 7795   4.651   3.375   3.119  1.7331  2.3392 -1.5355
 2611TIP3   OH2 7796   3.061   3.556   0.891  0.5958 -0.0372 -0.1257
 2611TIP3    H1 7797   2.974   3.539   0.927 -0.9039 -1.6310 -3.8667
 2611TIP3    H2 7798   3.106   3.472   0.898  0.4948 -0.2024 -1.2650
 2612TIP3   OH2 7799   0.451   4.723   1.169 -0.0003  0.4490 -0.3933
 2612TIP3    H1 7800   0.395   4.785   1.122 -1.6255  0.0809  0.9411
 2612TIP3    H2 7801   0.534   4.768   1.179 -1.3218  2.7512  1.1030
 2613TIP3   OH2 7802   2.807   3.987   4.254 -0.0993  0.6262  0.3316
 2613TIP3    H1 7803   2.777   3.917   4.196 -0.2182  0.3815  0.6839
 2613TIP3    H2 7804   2.851   4.049   4.196 -0.5629  0.5829 -0.0728
 2614TIP3   OH2 7805   0.994   2.817   2.691  0.3046  0.2884  0.3759
 2614TIP3    H1 7806   1.087   2.835   2.674 -0.0270  1.7713  0.0088
 2614TIP3    H2 7807   0.994   2.767   2.772  1.3849  1.0147  0.8413
 2615TIP3   OH2 7808   0.468   4.884   4.204  0.4905 -0.0309  0.2600
 2615TIP3    H1 7809   0.490   4.846   4.288  0.3057 -0.6537  0.0298
 2615TIP3    H2 7810   0.492   4.977   4.212  0.8088 -0.1665  0.8675
 2616TIP3   OH2 7811   3.427   5.464   1.750 -0.1915  0.0396  0.1993
 2616TIP3    H1 7812   3.466   5.434   1.832 -0.2601 -0.2014  0.1449
 2616TIP3    H2 7813   3.390   5.384   1.710 -0.2037  0.1635 -0.0392
 2617TIP3   OH2 7814   2.573   1.924   2.880  0.3788  0.0832  0.7017
 2617TIP3    H1 7815   2.599   2.004   2.835 -0.1874 -1.5751 -2.9442
 2617TIP3    H2 7816   2.507   1.952   2.943 -0.2712  2.4242 -0.9113
 2618TIP3   OH2 7817   0.635   4.615   3.286 -0.3527  0.1632 -0.0729
 2618TIP3    H1 7818   0.673   4.605   3.198  0.5390  2.6653 -0.0393
 2618TIP3    H2 7819   0.574   4.542   3.293  0.9578 -1.2458 -2.0119
 2619TIP3   OH2 7820   6.601   2.843   0.996  0.6297  0.7819 -0.0633
 2619TIP3    H1 7821   6.630   2.877   0.911 -0.6507 -1.5645 -1.5436
 2619TIP3    H2 7822   6.650   2.762   1.008 -1.9435 -0.9955 -0.5691
 2620TIP3   OH2 7823   3.057   0.066   0.916 -0.4813  0.2789  0.3381
 2620TIP3    H1 7824   3.060   0.108   0.830 -1.5244 -0.7803 -0.2561
 2620TIP3    H2 7825   3.003   0.124   0.970  0.0358  0.8636  0.2300
 2621TIP3   OH2 7826   1.200   3.918   5.523  0.1497 -0.1610 -0.2883
 2621TIP3    H1 7827   1.215   3.839   5.574  3.0993  1.5072  1.7687
 2621TIP3    H2 7828   1.201   3.889   5.432  2.5692 -2.3657  0.3237
 2622TIP3   OH2 7829   6.862   6.422   2.465  0.3718  0.2321  0.2768
 2622TIP3    H1 7830   6.881   6.407   2.372  1.6501  1.0878  0.3671
 2622TIP3    H2 7831   6.938   6.470   2.497  1.0822 -2.0500  2.3241
 2623TIP3   OH2 7832   3.122   1.528   3.526  0.1106  0.3170  0.6343
 2623TIP3    H1 7833   3.201   1.571   3.494  0.5580 -1.5954 -1.1001
 2623TIP3    H2 7834   3.152   1.473   3.599  0.3168 -0.0721  0.2611
 2624TIP3   OH2 7835   1.084   3.663   3.836  0.2811  0.1007  0.2471
 2624TIP3    H1 7836   1.179   3.669   3.825  0.6881 -0.7616  2.7408
 2624TIP3    H2 7837   1.067   3.571   3.854 -0.7028  0.5795  2.0653
 2625TIP3   OH2 7838   2.183   4.427   1.443 -0.0689  1.0460  0.4267
 2625TIP3    H1 7839   2.134   4.410   1.363  1.5340 -0.7865 -0.2542
 2625TIP3    H2 7840   2.178   4.345   1.492  1.5046  1.1062  0.7414
 2626TIP3   OH2 7841   5.838   1.320   4.414  0.4139  0.1151  0.1792
 2626TIP3    H1 7842   5.870   1.410   4.415  1.7489 -0.3106 -0.4440
 2626TIP3    H2 7843   5.800   1.309   4.326 -1.2527  0.5273  0.8141
 2627TIP3   OH2 7844   5.752   3.495   4.243  0.0016 -0.1462  0.6396
 2627TIP3    H1 7845   5.818   3.480   4.311  1.4266 -1.0624 -0.8892
 2627TIP3    H2 7846   5.728   3.408   4.213 -1.2987  0.2182  0.5752
 2628TIP3   OH2 7847   0.773   0.445   5.670  0.0274 -0.3187  0.3001
 2628TIP3    H1 7848   0.764   0.410   5.581  1.6782  1.0593 -0.4573
 2628TIP3    H2 7849   0.702   0.402   5.719 -0.8166 -1.2584 -1.6054
 2629TIP3   OH2 7850   6.456   5.290   5.401 -0.1437  0.3946  0.0813
 2629TIP3    H1 7851   6.419   5.365   5.354 -0.6646  0.1157  0.0324
 2629TIP3    H2 7852   6.408   5.288   5.484 -0.0592  0.1789  0.1246
 2630TIP3   OH2 7853   0.506   0.472   2.653 -0.1149  0.0710 -0.0851
 2630TIP3    H1 7854   0.509   0.568   2.650  0.3436  0.0756  0.5134
 2630TIP3    H2 7855   0.573   0.447   2.716  2.4565 -0.8396 -2.9624
 2631TIP3   OH2 7856   3.705   6.708   0.992  0.0979  0.0808 -0.0730
 2631TIP3    H1 7857   3.672   6.731   1.079 -0.1542  0.0762 -0.1670
 2631TIP3    H2 7858   3.627   6.685   0.942  0.2827 -0.3678 -0.1631
 2632TIP3   OH2 7859   4.235   0.721   0.731  0.6206 -0.1046  0.4519
 2632TIP3    H1 7860   4.321   0.760   0.716  1.2053 -0.8514  1.7052
 2632TIP3    H2 7861   4.253   0.641   0.781 -0.8076 -0.2091  0.8466
 2633TIP3   OH2 7862   4.840   4.408   1.134 -0.6038  0.6698 -0.2345
 2633TIP3    H1 7863   4.767   4.470   1.121  0.1764  1.5789 -0.3856
 2633TIP3    H2 7864   4.892   4.447   1.204  0.0982  0.3719 -0.5855
 2634TIP3   OH2 7865   0.037   5.073   3.273  0.4329  0.0809 -0.1402
 2634TIP3    H1 7866   0.124   5.033   3.277  1.2369  1.8125  1.5323
 2634TIP3    H2 7867   0.018   5.079   3.179  2.7055  0.7808 -0.6253
 2635TIP3   OH2 7868   1.480   6.483   2.702 -0.1485 -0.2226  0.2371
 2635TIP3    H1 7869   1.503   6.527   2.783 -0.6866  0.5447 -0.0124
 2635TIP3    H2 7870   1.439   6.401   2.729 -2.8888  1.2607  0.8491
 2636TIP3   OH2 7871   6.424   0.406   2.832 -0.6745  0.2427 -0.0054
 2636TIP3    H1 7872   6.329   0.392   2.824 -0.8839  1.5460 -0.0554
 2636TIP3    H2 7873   6.462   0.319   2.821 -1.7576 -0.0785 -1.7707
 2637TIP3   OH2 7874   1.815   2.753   4.852 -0.2676 -0.9112 -0.2458
 2637TIP3    H1 7875   1.836   2.735   4.944 -1.4032 -0.7519  0.0661
 2637TIP3    H2 7876   1.887   2.714   4.802  1.9156  1.5174  0.8158
 2638TIP3   OH2 7877   6.216   6.171   2.119  0.1437 -0.6697  0.0756
 2638TIP3    H1 7878   6.168   6.109   2.064  1.6117 -1.4125 -0.4144
 2638TIP3    H2 7879   6.192   6.147   2.208 -0.2877 -1.1106 -0.1498
 2639TIP3   OH2 7880   4.061   2.972   0.888 -0.2650 -0.1683 -0.2353
 2639TIP3    H1 7881   4.116   3.049   0.870 -1.0830  0.3930 -0.3700
 2639TIP3    H2 7882   3.973   3.000   0.866 -0.7618 -0.7351  0.9559
 2640TIP3   OH2 7883   2.108   4.748   2.658  0.4728  0.2428 -0.0086
 2640TIP3    H1 7884   2.185   4.710   2.701 -0.3982 -1.5481  0.0940
 2640TIP3    H2 7885   2.124   4.734   2.565 -0.1693 -1.1450  0.0596
 2641TIP3   OH2 7886   0.511   0.213   0.973  0.0579  0.2702  0.4747
 2641TIP3    H1 7887   0.557   0.130   0.960 -2.2303 -1.6047  3.0531
 2641TIP3    H2 7888   0.579   0.275   0.999  1.9028 -0.5856 -1.9739
 2642TIP3   OH2 7889   6.945   1.531   1.797  0.0554 -0.5186 -0.0344
 2642TIP3    H1 7890   6.909   1.481   1.724  0.5547  0.3805 -0.9255
 2642TIP3    H2 7891   6.872   1.582   1.831  0.4752  1.5795 -2.0682
 2643TIP3   OH2 7892   3.874   4.983   2.553 -0.7468 -0.4092  0.2083
 2643TIP3    H1 7893   3.856   4.889   2.554 -1.7584 -0.2326  0.2216
 2643TIP3    H2 7894   3.967   4.990   2.575 -0.4877 -1.4336 -0.4872
 2644TIP3   OH2 7895   2.615   5.844   4.290  0.1547 -0.5035 -0.1401
 2644TIP3    H1 7896   2.565   5.764   4.273 -0.2740 -0.0912 -0.8537
 2644TIP3    H2 7897   2.697   5.812   4.327 -0.5748 -1.1934  0.9291
 2645TIP3   OH2 7898   1.301   1.751   4.782  0.6728 -0.3623 -0.4437
 2645TIP3    H1 7899   1.225   1.692   4.788  0.5839 -0.2750 -0.6940
 2645TIP3    H2 7900   1.301   1.781   4.691  0.6806  0.0751 -0.3022
 2646TIP3   OH2 7901   6.411   2.767   2.332 -0.1725  0.6083  0.4338
 2646TIP3    H1 7902   6.439   2.676   2.320 -0.7665 -0.3830  5.0039
 2646TIP3    H2 7903   6.490   2.812   2.362 -0.1305  1.4358 -0.8424
 2647TIP3   OH2 7904   3.362   5.612   0.120  0.1530  0.0403  0.2478
 2647TIP3    H1 7905   3.395   5.624   0.031  0.8592 -1.1505  0.3236
 2647TIP3    H2 7906   3.419   5.544   0.157 -1.4952 -1.0713  0.8663
 2648TIP3   OH2 7907   6.263   2.908   2.977  1.0744  0.0834 -0.0960
 2648TIP3    H1 7908   6.199   2.841   2.952 -0.4684  1.7651 -0.9156
 2648TIP3    H2 7909   6.334   2.899   2.914  0.2774  0.0405 -1.0050
 2649TIP3   OH2 7910   6.392   3.708   4.028 -0.0911 -0.0026 -0.6593
 2649TIP3    H1 7911   6.306   3.719   3.988 -0.1226 -0.2182 -0.6502
 2649TIP3    H2 7912   6.425   3.626   3.992  0.0125 -0.0391 -0.4815
 2650TIP3   OH2 7913   4.488   5.560   0.794 -0.1323  0.3402  0.1446
 2650TIP3    H1 7914   4.565   5.531   0.744  0.6419 -0.4188  1.6845
 2650TIP3    H2 7915   4.413   5.532   0.742  0.6400 -0.2239 -0.6943
 2651TIP3   OH2 7916   5.322   4.328   5.196 -0.5767 -0.1006  0.1353
 2651TIP3    H1 7917   5.413   4.353   5.215 -0.4406  0.2740 -0.8913
 2651TIP3    H2 7918   5.329   4.264   5.125 -1.1305  0.3089 -0.2998
 2652TIP3   OH2 7919   0.288   5.415   1.705 -0.0776 -0.1998 -0.5874
 2652TIP3    H1 7920   0.356   5.483   1.713 -0.2257  0.0021 -1.0298
 2652TIP3    H2 7921   0.322   5.342   1.756  1.7145 -1.0972 -2.8929
 2653TIP3   OH2 7922   2.232   3.387   4.075 -0.1528 -0.3344  0.1448
 2653TIP3    H1 7923   2.289   3.405   4.000 -0.8948  1.8819  0.0401
 2653TIP3    H2 7924   2.242   3.294   4.091  1.4548 -0.5031 -1.5386
 2654TIP3   OH2 7925   0.696   2.156   0.225  0.0330  0.6774  0.0654
 2654TIP3    H1 7926   0.616   2.143   0.174 -0.0106 -0.1297  0.3274
 2654TIP3    H2 7927   0.668   2.143   0.316  0.4769  0.3156  0.1497
 2655TIP3   OH2 7928   2.228   5.113   4.042  0.3888 -0.2340  0.0608
 2655TIP3    H1 7929   2.281   5.187   4.072 -0.7380  0.6717 -0.1134
 2655TIP3    H2 7930   2.185   5.145   3.963 -0.3891 -0.9593  0.1840
 2656TIP3   OH2 7931   7.059   0.395   0.954  1.1025  0.1346 -0.4602
 2656TIP3    H1 7932   7.137   0.340   0.947  1.4602  0.2888  1.7448
 2656TIP3    H2 7933   7.044   0.403   1.048 -1.4858  0.2649 -0.8379
 2657TIP3   OH2 7934   2.230   4.389   3.437  0.1316 -0.3273 -0.4827
 2657TIP3    H1 7935   2.218   4.297   3.416  0.0132 -0.4028 -0.0986
 2657TIP3    H2 7936   2.292   4.421   3.372  0.3580 -0.7351 -0.4730
 2658TIP3   OH2 7937   1.276   2.839   2.946 -0.6017  0.1890  0.4397
 2658TIP3    H1 7938   1.359   2.883   2.929  1.7866 -2.8896  2.8015
 2658TIP3    H2 7939   1.238   2.887   3.019 -0.3985  1.0450 -0.0103
 2659TIP3   OH2 7940   2.832   2.053   5.679 -0.2105 -0.4367 -0.5988
 2659TIP3    H1 7941   2.903   2.003   5.719 -1.1696 -0.3482  1.3705
 2659TIP3    H2 7942   2.759   2.041   5.740 -1.0070  1.8472 -1.0436
 2660TIP3   OH2 7943   2.182   3.153   2.941 -0.1892 -0.3975  0.5929
 2660TIP3    H1 7944   2.255   3.178   2.884 -0.8647 -0.0073 -0.1192
 2660TIP3    H2 7945   2.145   3.076   2.899 -0.5500 -0.2436  0.6254
 2661TIP3   OH2 7946   2.716   5.507   5.615  0.2240  0.4877  0.3589
 2661TIP3    H1 7947   2.639   5.451   5.604  0.4612  0.4343 -1.1681
 2661TIP3    H2 7948   2.790   5.452   5.592  0.5321  1.1448 -0.2600
 2662TIP3   OH2 7949   6.776   4.090   3.562 -0.3374  0.0742  0.6516
 2662TIP3    H1 7950   6.764   4.145   3.484 -2.2465  0.4118  1.1334
 2662TIP3    H2 7951   6.844   4.135   3.613  1.9475 -0.8594 -1.3738
 2663TIP3   OH2 7952   2.147   3.121   5.531 -0.1819 -0.4657  0.0909
 2663TIP3    H1 7953   2.062   3.122   5.488 -0.3116 -2.4941  0.1939
 2663TIP3    H2 7954   2.200   3.182   5.480 -1.1217 -0.7264 -1.2589
 2664TIP3   OH2 7955   3.098   6.797   2.217  0.0400 -0.0243 -0.4442
 2664TIP3    H1 7956   3.088   6.709   2.252  1.6557  0.9100  2.7286
 2664TIP3    H2 7957   3.170   6.789   2.154 -1.6260 -1.3893 -2.2803
 2665TIP3   OH2 7958   0.531   5.287   4.457 -0.0013 -0.1148 -0.0300
 2665TIP3    H1 7959   0.550   5.381   4.462  1.6320 -0.4037 -0.1707
 2665TIP3    H2 7960   0.520   5.260   4.548  0.0715  0.1156  0.0478
 2666TIP3   OH2 7961   5.628   0.329   4.061 -0.2747  0.1063  0.2841
 2666TIP3    H1 7962   5.586   0.265   4.119  0.8863 -1.1587 -0.2146
 2666TIP3    H2 7963   5.655   0.279   3.985 -0.9488  1.5730 -0.9682
 2667TIP3   OH2 7964   6.931   3.803   3.018  0.2524 -0.4077 -0.1478
 2667TIP3    H1 7965   7.004   3.821   3.077 -0.8923 -0.3547  1.3131
 2667TIP3    H2 7966   6.856   3.789   3.076 -0.6038 -1.9460 -1.5243
 2668TIP3   OH2 7967   1.412   1.090   4.712 -0.0551 -0.1514 -0.0525
 2668TIP3    H1 7968   1.459   1.170   4.734 -1.8609  1.0396 -0.3756
 2668TIP3    H2 7969   1.452   1.061   4.630  1.1892 -0.1066  0.5081
 2669TIP3   OH2 7970   0.227   1.099   2.775 -0.2137 -0.4732  0.1462
 2669TIP3    H1 7971   0.234   1.061   2.862 -1.1038  1.2162  1.0173
 2669TIP3    H2 7972   0.162   1.046   2.730  0.8323 -1.8460  0.2012
 2670TIP3   OH2 7973   4.755   0.523   3.142 -0.0853  0.0283  0.2018
 2670TIP3    H1 7974   4.828   0.580   3.169 -0.3054  1.1928 -1.4933
 2670TIP3    H2 7975   4.678   0.563   3.182 -0.1574  0.5939 -0.4760
 2671TIP3   OH2 7976   7.083   0.620   5.047  0.9256 -0.2155  0.2321
 2671TIP3    H1 7977   7.048   0.667   5.123  2.4831 -0.1236  0.9304
 2671TIP3    H2 7978   7.016   0.556   5.025  0.2844  0.0118  1.4525
 2672TIP3   OH2 7979   4.387   4.875   1.082 -0.1548  0.6404 -0.4553
 2672TIP3    H1 7980   4.433   4.959   1.088 -1.0103  1.0106  1.7006
 2672TIP3    H2 7981   4.401   4.834   1.167  0.3817 -1.5291 -1.5139
 2673TIP3   OH2 7982   2.259   6.238   0.923  0.1549  0.4950  0.1496
 2673TIP3    H1 7983   2.307   6.182   0.861 -1.4304 -1.3545  0.4740
 2673TIP3    H2 7984   2.244   6.319   0.875 -0.4486 -0.6406 -1.6932
 2674TIP3   OH2 7985   1.554   3.178   0.354  0.1126 -0.1086 -0.3439
 2674TIP3    H1 7986   1.469   3.137   0.343  0.4853 -0.7150 -1.0834
 2674TIP3    H2 7987   1.608   3.111   0.396  0.0803  0.4685  0.6419
 2675TIP3   OH2 7988   3.225   6.716   1.720  0.4825 -0.4407  0.2659
 2675TIP3    H1 7989   3.138   6.694   1.754  0.0430  1.1217  0.2356
 2675TIP3    H2 7990   3.269   6.757   1.794  0.8702 -0.3939  0.0064
 2676TIP3   OH2 7991   5.392   2.697   4.260 -0.1035  0.6063 -0.3269
 2676TIP3    H1 7992   5.346   2.629   4.210 -1.9421  1.9349 -0.5467
 2676TIP3    H2 7993   5.482   2.695   4.227 -0.4612 -0.7735 -1.2963
 2677TIP3   OH2 7994   1.234   3.334   0.670  0.0705  0.2809  0.1194
 2677TIP3    H1 7995   1.312   3.358   0.619  0.8745 -1.5042  0.4395
 2677TIP3    H2 7996   1.268   3.306   0.755 -1.0675  0.8935  0.8135
 2678TIP3   OH2 7997   6.023   4.628   4.334 -0.1899  0.1316 -1.0803
 2678TIP3    H1 7998   6.032   4.533   4.343  0.5569  0.2244 -0.8496
 2678TIP3    H2 7999   6.100   4.655   4.284 -0.8772  0.5064 -1.9826
 2679TIP3   OH2 8000   5.559   3.331   0.435 -0.0369  0.0092 -0.1702
 2679TIP3    H1 8001   5.508   3.253   0.452  0.1590 -0.3886 -1.3119
 2679TIP3    H2 8002   5.647   3.311   0.467 -0.6121  0.7910  2.0354
 2680TIP3   OH2 8003   3.801   6.041   2.734  0.1487  0.2223 -0.1160
 2680TIP3    H1 8004   3.774   6.011   2.646  0.2907 -0.0241 -0.0773
 2680TIP3    H2 8005   3.850   6.121   2.718 -0.4928  0.6106 -0.1999
 2681TIP3   OH2 8006   0.667   0.646   2.457 -0.1917 -0.3954 -0.0440
 2681TIP3    H1 8007   0.748   0.642   2.407  0.2825  0.3749  0.6418
 2681TIP3    H2 8008   0.695   0.668   2.546 -1.1858  0.3336  0.1022
 2682TIP3   OH2 8009   5.879   4.204   3.813 -0.0163  0.7230 -0.1135
 2682TIP3    H1 8010   5.921   4.160   3.739 -0.3569  1.9365 -1.0538
 2682TIP3    H2 8011   5.785   4.189   3.798 -0.0288 -1.2208  1.4951
 2683TIP3   OH2 8012   6.807   0.428   3.373  0.5194 -0.4787 -0.5754
 2683TIP3    H1 8013   6.880   0.468   3.326  1.6662 -0.9296  0.7666
 2683TIP3    H2 8014   6.843   0.403   3.458 -1.7002  1.2791  1.0185
 2684TIP3   OH2 8015   4.618   0.327   0.095 -0.3548  0.1573  0.2565
 2684TIP3    H1 8016   4.592   0.409   0.053 -1.0237  1.5800  3.1909
 2684TIP3    H2 8017   4.552   0.264   0.068  0.0509  0.5802 -1.8840
 2685TIP3   OH2 8018   1.239   4.482   3.312  0.3870  0.2248  0.2392
 2685TIP3    H1 8019   1.176   4.535   3.264 -0.6545 -1.1559  0.0160
 2685TIP3    H2 8020   1.280   4.426   3.246  0.3652 -0.3062  0.6616
 2686TIP3   OH2 8021   7.183   0.141   0.946 -0.1964  0.0613  0.1677
 2686TIP3    H1 8022   7.253   0.081   0.971  0.1774  1.4975  3.0096
 2686TIP3    H2 8023   7.110   0.085   0.921  0.9162 -1.5124  0.3063
 2687TIP3   OH2 8024   3.316   5.896   0.723 -0.1007  0.0240  1.1471
 2687TIP3    H1 8025   3.302   5.942   0.640 -0.6805 -1.1531  0.5823
 2687TIP3    H2 8026   3.325   5.804   0.699  0.9788 -0.1892  2.2757
 2688TIP3   OH2 8027   0.286   1.966   1.285 -0.3374 -0.0077 -0.1569
 2688TIP3    H1 8028   0.200   1.922   1.289  0.4029 -1.4607  0.5512
 2688TIP3    H2 8029   0.264   2.060   1.283 -1.9624 -0.3584 -1.1249
 2689TIP3   OH2 8030   1.446   6.534   3.488  0.2292 -0.7022 -0.2329
 2689TIP3    H1 8031   1.383   6.531   3.416 -1.0921  1.2184  0.7313
 2689TIP3    H2 8032   1.444   6.446   3.526 -0.1306 -1.3256 -1.6446
 2690TIP3   OH2 8033   4.859   3.797   1.121  0.4074 -0.4376 -0.2190
 2690TIP3    H1 8034   4.832   3.809   1.030  2.9851 -0.6803 -1.0914
 2690TIP3    H2 8035   4.954   3.803   1.119  0.6420 -1.9181  2.2503
 2691TIP3   OH2 8036   3.786   6.598   4.558  0.1788 -0.3656 -0.6996
 2691TIP3    H1 8037   3.715   6.556   4.606 -0.3056  0.5397 -0.6016
 2691TIP3    H2 8038   3.742   6.652   4.493  0.7936 -0.2260 -1.0036
 2692TIP3   OH2 8039   4.409   1.022   0.304  0.3365  0.1620  0.6520
 2692TIP3    H1 8040   4.441   1.088   0.242  0.3510  1.4918  2.0085
 2692TIP3    H2 8041   4.390   1.072   0.384  0.0012 -1.4414  1.6124
 2693TIP3   OH2 8042   6.523   6.228   5.069 -0.1370  0.1672  0.2064
 2693TIP3    H1 8043   6.529   6.217   5.164 -0.4865  0.9149  0.3280
 2693TIP3    H2 8044   6.602   6.186   5.035 -0.2618 -0.5631  0.7826
 2694TIP3   OH2 8045   3.837   5.980   4.283  0.7364 -0.2250 -0.3199
 2694TIP3    H1 8046   3.927   5.968   4.253  0.6947  0.4824 -0.7619
 2694TIP3    H2 8047   3.814   6.069   4.254 -0.5017 -0.8210 -1.2556
 2695TIP3   OH2 8048   4.027   1.939   2.006  0.8498 -0.1500  0.3949
 2695TIP3    H1 8049   4.012   1.848   2.032 -0.0655  0.4136  1.9147
 2695TIP3    H2 8050   3.988   1.991   2.075 -1.6147  1.4808 -2.0142
 2696TIP3   OH2 8051   2.390   1.836   4.189 -0.2208  0.4493 -0.3772
 2696TIP3    H1 8052   2.358   1.747   4.173  0.6642  0.0670 -0.0544
 2696TIP3    H2 8053   2.473   1.841   4.140  0.5875  0.5275  0.9581
 2697TIP3   OH2 8054   1.943   4.789   4.825  0.4663 -0.2360  0.2191
 2697TIP3    H1 8055   1.923   4.832   4.909 -0.6720  0.1296 -0.2197
 2697TIP3    H2 8056   1.950   4.696   4.847  1.7035  0.0128  0.9651
 2698TIP3   OH2 8057   5.305   1.675   0.719 -0.2690  0.0023  0.5082
 2698TIP3    H1 8058   5.321   1.687   0.625  0.7431  2.0031  0.8729
 2698TIP3    H2 8059   5.361   1.601   0.744  0.4343  0.2759 -0.2342
 2699TIP3   OH2 8060   1.473   5.648   2.212 -0.0043 -0.0997 -0.2265
 2699TIP3    H1 8061   1.440   5.563   2.184  0.1202 -0.6979  1.3918
 2699TIP3    H2 8062   1.411   5.677   2.279  1.2099  0.0327  0.8574
 2700TIP3   OH2 8063   5.900   5.462   5.377 -0.6103 -0.5520 -0.0515
 2700TIP3    H1 8064   5.834   5.433   5.315 -0.0084  1.4101 -1.6929
 2700TIP3    H2 8065   5.899   5.557   5.371 -0.2171 -0.2932  2.6679
 2701TIP3   OH2 8066   2.465   3.858   2.376  0.4284  0.2452 -0.0410
 2701TIP3    H1 8067   2.523   3.926   2.410  0.0622  0.7230 -0.3676
 2701TIP3    H2 8068   2.377   3.890   2.394  0.2558 -0.2325 -0.0296
 2702TIP3   OH2 8069   6.675   0.658   0.031 -0.7847 -0.2934 -0.0419
 2702TIP3    H1 8070   6.747   0.699   0.078 -1.3334 -0.9209  1.4173
 2702TIP3    H2 8071   6.634   0.729  -0.019  0.7000  0.0990 -0.7523
 2703TIP3   OH2 8072   3.061   5.233   2.821  0.4041 -0.3306 -0.2509
 2703TIP3    H1 8073   3.027   5.288   2.891  2.4166 -0.0711  0.5747
 2703TIP3    H2 8074   3.084   5.150   2.864 -0.8075 -1.1776 -1.1339
 2704TIP3   OH2 8075   3.477   3.082   1.544 -0.2408 -0.0436  0.0524
 2704TIP3    H1 8076   3.566   3.093   1.576 -0.0804 -0.6920 -0.1612
 2704TIP3    H2 8077   3.458   3.163   1.497 -0.1190  0.5041  0.9256
 2705TIP3   OH2 8078   2.642   0.797   0.594 -0.1426  0.2235 -0.6269
 2705TIP3    H1 8079   2.734   0.823   0.584  0.9695 -2.8657  0.4010
 2705TIP3    H2 8080   2.610   0.789   0.504  0.5523  1.3641 -1.0019
 2706TIP3   OH2 8081   0.079   6.448   4.849 -0.5323 -0.3390  0.2308
 2706TIP3    H1 8082   0.045   6.536   4.829 -0.5241  0.2182  2.3512
 2706TIP3    H2 8083   0.056   6.395   4.773  2.2698  2.1559 -2.6583
 2707TIP3   OH2 8084   0.747   3.242   0.479 -0.3951 -0.5372 -0.4043
 2707TIP3    H1 8085   0.665   3.205   0.511 -0.4294 -0.6377 -0.6086
 2707TIP3    H2 8086   0.809   3.169   0.479 -0.1154 -0.3007  0.4194
 2708TIP3   OH2 8087   4.030   0.636   1.095 -0.0255  0.0476 -0.1815
 2708TIP3    H1 8088   3.993   0.677   1.017 -1.3503  0.8403  0.8185
 2708TIP3    H2 8089   4.010   0.697   1.166  0.8872 -0.7903  0.8295
 2709TIP3   OH2 8090   5.306   1.734   3.792  0.1511 -0.0662 -0.5920
 2709TIP3    H1 8091   5.395   1.756   3.818 -0.1030  1.3672 -0.8657
 2709TIP3    H2 8092   5.258   1.816   3.798 -1.0460 -0.7163 -0.9152
 2710TIP3   OH2 8093   3.532   4.338   2.861  0.3941 -0.2155 -0.3007
 2710TIP3    H1 8094   3.565   4.255   2.826 -0.1495 -1.4267  1.8777
 2710TIP3    H2 8095   3.521   4.322   2.955 -2.7721  1.2849 -0.2825
 2711TIP3   OH2 8096   0.224   2.670   5.276 -0.1678 -0.4958 -0.5910
 2711TIP3    H1 8097   0.148   2.654   5.332  0.4877 -0.4837  0.3274
 2711TIP3    H2 8098   0.188   2.676   5.188 -1.5302  1.6726  0.0315
 2712TIP3   OH2 8099   6.543   2.152   5.276  0.2372  0.0350  0.0809
 2712TIP3    H1 8100   6.599   2.154   5.198 -0.2634 -1.1495 -0.3395
 2712TIP3    H2 8101   6.550   2.240   5.313 -0.1655  0.8814 -1.7665
 2713TIP3   OH2 8102   3.366   2.242   1.110 -0.1563 -0.4610  0.1254
 2713TIP3    H1 8103   3.372   2.330   1.070  0.7576 -0.8444 -0.6119
 2713TIP3    H2 8104   3.301   2.252   1.179 -0.4265  0.6885 -0.2669
 2714TIP3   OH2 8105   2.978   3.125   5.189 -0.1471  0.4161 -0.2319
 2714TIP3    H1 8106   3.030   3.045   5.195 -0.4558  0.2971  1.4125
 2714TIP3    H2 8107   3.040   3.195   5.210 -0.0964  0.5223 -0.7244
 2715TIP3   OH2 8108   0.633   0.879   0.013  0.4563  0.0117  0.4389
 2715TIP3    H1 8109   0.590   0.886   0.099 -1.1553 -0.2669 -0.3010
 2715TIP3    H2 8110   0.688   0.802   0.020 -1.2092 -1.2133  0.6343
 2716TIP3   OH2 8111   2.227   4.288   4.556  0.3954  0.0853 -0.5771
 2716TIP3    H1 8112   2.134   4.274   4.576  0.5606 -0.7449 -0.3623
 2716TIP3    H2 8113   2.227   4.360   4.493 -0.4205 -0.1540 -0.8663
 2717TIP3   OH2 8114   0.103   2.117   0.200  0.8194 -0.2365 -0.4630
 2717TIP3    H1 8115   0.161   2.069   0.141  0.8522 -0.0946 -0.5490
 2717TIP3    H2 8116   0.091   2.202   0.156  0.2653 -0.3908 -0.6136
 2718TIP3   OH2 8117   1.670   1.864   1.944  0.3431 -0.6287  0.2098
 2718TIP3    H1 8118   1.635   1.942   1.902 -0.0449 -0.2360  1.2315
 2718TIP3    H2 8119   1.751   1.894   1.985  0.6978 -0.9989 -0.2082
 2719TIP3   OH2 8120   5.600   4.514   3.407 -0.4359 -0.2713  0.2026
 2719TIP3    H1 8121   5.554   4.506   3.490 -1.2707 -2.4040 -0.4015
 2719TIP3    H2 8122   5.692   4.496   3.428 -0.4212  0.4713  0.8366
 2720TIP3   OH2 8123   2.043   1.573   0.419  0.2674 -0.1566  0.2654
 2720TIP3    H1 8124   1.977   1.642   0.426 -1.0651 -1.4081  0.4754
 2720TIP3    H2 8125   2.127   1.620   0.419 -0.6245  1.7118 -3.1192
 2721TIP3   OH2 8126   0.403   6.231   2.958 -0.3902 -0.0404  0.5638
 2721TIP3    H1 8127   0.449   6.310   2.986 -0.4994  1.3127 -2.6028
 2721TIP3    H2 8128   0.317   6.236   3.001  0.1416  0.7723  1.5643
 2722TIP3   OH2 8129   4.342   2.179   4.951 -0.1782  0.5600  0.2515
 2722TIP3    H1 8130   4.252   2.212   4.951 -0.6882 -0.7325 -1.3495
 2722TIP3    H2 8131   4.334   2.086   4.974  0.3448 -0.3745 -2.8544
 2723TIP3   OH2 8132   6.567   5.185   0.910 -0.0294  0.3632 -0.1207
 2723TIP3    H1 8133   6.477   5.190   0.879 -0.0327  1.6536  0.0163
 2723TIP3    H2 8134   6.561   5.148   0.997 -0.2724 -0.9064 -0.6619
 2724TIP3   OH2 8135   0.869   2.038   0.039 -0.6422 -0.2394 -0.1654
 2724TIP3    H1 8136   0.788   2.061   0.084  0.0779 -0.8582  1.5548
 2724TIP3    H2 8137   0.929   2.013   0.110  0.8617 -0.3603 -1.4306
 2725TIP3   OH2 8138   6.852   1.811   4.427  0.2574 -0.7053 -0.1388
 2725TIP3    H1 8139   6.810   1.895   4.411  3.3445  0.5966 -2.3233
 2725TIP3    H2 8140   6.893   1.820   4.513 -2.4050 -1.4407  1.3056
 2726TIP3   OH2 8141   3.322   0.623   3.797  0.1560 -0.0924  0.0732
 2726TIP3    H1 8142   3.272   0.557   3.845 -0.0177  0.6720  0.9987
 2726TIP3    H2 8143   3.362   0.576   3.724 -1.3059 -0.8784 -0.2596
 2727TIP3   OH2 8144   6.490   6.381   2.313 -0.2875  0.0374 -0.8067
 2727TIP3    H1 8145   6.396   6.391   2.328 -1.2514 -1.3894 -4.6371
 2727TIP3    H2 8146   6.510   6.292   2.340  0.0553  0.4251  0.2482
 2728TIP3   OH2 8147   5.295   0.107   1.234  0.2001 -0.7230 -0.3657
 2728TIP3    H1 8148   5.267   0.145   1.151  0.7105  1.6777  0.4930
 2728TIP3    H2 8149   5.230   0.138   1.298  1.0451 -0.6975  0.4987
 2729TIP3   OH2 8150   6.691   4.272   1.432 -0.6418 -1.0056 -0.5219
 2729TIP3    H1 8151   6.636   4.346   1.457  0.8068  0.0624 -0.3569
 2729TIP3    H2 8152   6.708   4.226   1.515  0.7030  0.0942 -0.1616
 2730TIP3   OH2 8153   0.635   4.218   5.303  0.4308 -0.3364  0.2238
 2730TIP3    H1 8154   0.713   4.254   5.262  0.6064  0.3201  1.1044
 2730TIP3    H2 8155   0.668   4.152   5.364  0.1908 -1.0865 -0.4337
 2731TIP3   OH2 8156   6.305   1.523   2.870 -0.4740  0.4292 -0.5446
 2731TIP3    H1 8157   6.212   1.520   2.896 -0.2522 -0.0277  0.2309
 2731TIP3    H2 8158   6.320   1.438   2.828 -0.2874  0.3100 -0.2378
 2732TIP3   OH2 8159   3.529   2.051   5.782  0.1582 -0.1702 -0.2154
 2732TIP3    H1 8160   3.530   2.077   5.690 -1.1935 -3.7119 -1.3697
 2732TIP3    H2 8161   3.596   1.983   5.789 -1.5754 -1.8885  0.6879
 2733TIP3   OH2 8162   3.103   1.244   1.468  0.4267 -0.0902 -0.0596
 2733TIP3    H1 8163   3.145   1.318   1.422 -0.6972  1.2631  1.0138
 2733TIP3    H2 8164   3.172   1.177   1.472  1.5816  0.9903 -0.8027
 2734TIP3   OH2 8165   0.467   3.935   3.135 -0.3928 -0.2165  0.1361
 2734TIP3    H1 8166   0.457   4.029   3.119 -1.1794 -0.0969  1.2238
 2734TIP3    H2 8167   0.377   3.903   3.147 -0.2491 -1.3655 -1.4831
 2735TIP3   OH2 8168   4.508   0.494   1.643  0.1145 -0.0832  0.2688
 2735TIP3    H1 8169   4.470   0.409   1.621 -2.1485  0.7008  0.9025
 2735TIP3    H2 8170   4.467   0.555   1.582  1.8069  0.5994 -0.2699
 2736TIP3   OH2 8171   2.876   1.430   1.431 -0.1971 -0.1624 -0.8308
 2736TIP3    H1 8172   2.944   1.383   1.478 -1.0341 -0.4799  0.0930
 2736TIP3    H2 8173   2.807   1.365   1.416 -0.5153  0.2693 -1.3177
 2737TIP3   OH2 8174   0.353   2.639   0.790 -0.4928  0.9338  0.1859
 2737TIP3    H1 8175   0.376   2.672   0.877 -1.1703 -0.8185  1.0721
 2737TIP3    H2 8176   0.430   2.658   0.736  0.3346  1.1679  1.3984
 2738TIP3   OH2 8177   4.988   3.344   4.919  0.3971  0.1922  0.6158
 2738TIP3    H1 8178   4.893   3.330   4.923  0.2835  0.4586 -0.7037
 2738TIP3    H2 8179   5.017   3.337   5.010 -0.6817 -1.3518  0.8961
 2739TIP3   OH2 8180   1.941   6.526   4.967  0.4700  0.3073 -0.1772
 2739TIP3    H1 8181   2.031   6.530   4.933  1.1864 -0.3773  1.5061
 2739TIP3    H2 8182   1.945   6.462   5.038 -1.3137  0.4257  0.0807
 2740TIP3   OH2 8183   5.034   2.426   1.057  0.1636  0.2132  0.1152
 2740TIP3    H1 8184   5.109   2.367   1.044  0.5110  0.8390 -0.8067
 2740TIP3    H2 8185   5.074   2.512   1.066 -0.5051  0.8371 -2.2394
 2741TIP3   OH2 8186   6.821   1.512   5.300  0.0346  0.1334  0.4146
 2741TIP3    H1 8187   6.746   1.487   5.353  0.8328 -2.1250  0.5881
 2741TIP3    H2 8188   6.869   1.430   5.285  1.1772  1.0881 -1.7051
 2742TIP3   OH2 8189   2.227   0.831   2.440  0.3266  0.1737 -0.2187
 2742TIP3    H1 8190   2.225   0.918   2.479 -0.0768 -0.5947  1.5871
 2742TIP3    H2 8191   2.270   0.776   2.506 -0.6955 -1.2720 -0.6945
 2743TIP3   OH2 8192   5.716   3.392   3.853 -0.3271  0.3034  0.1897
 2743TIP3    H1 8193   5.712   3.306   3.810 -1.6131  0.0614  0.7616
 2743TIP3    H2 8194   5.792   3.435   3.813 -0.7094 -0.4100 -1.3732
 2744TIP3   OH2 8195   4.546   6.500   4.186 -0.1292  0.1421  0.5940
 2744TIP3    H1 8196   4.513   6.580   4.146  0.0716 -0.3311 -0.5699
 2744TIP3    H2 8197   4.549   6.519   4.280 -0.9811  1.1621  0.4343
 2745TIP3   OH2 8198   3.482   0.190   0.999 -0.2475 -0.1597 -0.2144
 2745TIP3    H1 8199   3.424   0.124   1.037 -0.2724  0.5268  1.0071
 2745TIP3    H2 8200   3.568   0.149   0.997 -0.3525 -0.3969  0.0930
 2746TIP3   OH2 8201   0.492   0.485   5.806  0.1151 -0.0267 -0.2094
 2746TIP3    H1 8202   0.511   0.551   5.739 -1.0148  0.2904 -0.2359
 2746TIP3    H2 8203   0.466   0.535   5.883 -0.0556 -0.4247 -0.0058
 2747TIP3   OH2 8204   1.619   5.902   4.953 -0.0441 -0.1596 -0.0064
 2747TIP3    H1 8205   1.598   5.967   4.886  0.6501  0.0112 -0.0585
 2747TIP3    H2 8206   1.651   5.954   5.027  1.4840 -0.4858 -0.4058
 2748TIP3   OH2 8207   5.549   1.130   2.123 -0.4974  0.7937  0.1349
 2748TIP3    H1 8208   5.610   1.203   2.115  1.2624 -0.5716  0.2947
 2748TIP3    H2 8209   5.556   1.103   2.215 -1.6427  0.8137  0.2479
 2749TIP3   OH2 8210   3.463   2.867   1.264  0.2403  0.3771 -0.1789
 2749TIP3    H1 8211   3.525   2.796   1.280  1.6947  1.4163 -0.9280
 2749TIP3    H2 8212   3.474   2.926   1.338 -2.2664 -0.9416  1.4059
 2750TIP3   OH2 8213   0.062   0.811   2.742  0.2389 -0.5002 -0.4773
 2750TIP3    H1 8214   0.048   0.879   2.676 -0.0499 -1.1452 -1.0923
 2750TIP3    H2 8215   0.100   0.738   2.693  2.6648 -0.0227  0.5334
 2751TIP3   OH2 8216   5.420   2.187   0.089  0.1411  0.1372  0.5994
 2751TIP3    H1 8217   5.465   2.113   0.048  0.1836 -0.3032  1.4318
 2751TIP3    H2 8218   5.332   2.186   0.050  0.8119  1.0460 -1.0902
 2752TIP3   OH2 8219   1.373   6.374   0.778 -0.2970 -0.4034 -0.4347
 2752TIP3    H1 8220   1.450   6.349   0.727  0.6309 -1.8251  1.5370
 2752TIP3    H2 8221   1.401   6.452   0.825 -0.3384 -0.4471 -0.3376
 2753TIP3   OH2 8222   6.317   2.461   5.427  0.2298  0.2489  0.1203
 2753TIP3    H1 8223   6.408   2.458   5.395  0.3988 -0.1743  0.6244
 2753TIP3    H2 8224   6.298   2.370   5.452 -1.0448 -0.1295 -1.9419
 2754TIP3   OH2 8225   0.920   3.343   3.323 -0.1600 -0.0219 -0.0080
 2754TIP3    H1 8226   0.844   3.341   3.266  0.3178 -2.1899 -0.6826
 2754TIP3    H2 8227   0.893   3.293   3.401  0.6061 -1.0837 -0.3877
 2755TIP3   OH2 8228   5.893   6.733   0.931 -0.3791  0.4755  0.0873
 2755TIP3    H1 8229   5.913   6.641   0.918  0.8246  0.8376 -0.8146
 2755TIP3    H2 8230   5.933   6.755   1.015  4.0026  1.3388 -1.9474
 2756TIP3   OH2 8231   5.769   6.387   4.842 -0.3232 -0.1283  0.0154
 2756TIP3    H1 8232   5.849   6.342   4.869 -0.5117  0.0171  0.8465
 2756TIP3    H2 8233   5.794   6.433   4.762  0.3352 -0.3458  0.0845
 2757TIP3   OH2 8234   3.969   1.344   1.870 -0.0694 -0.8015 -0.1125
 2757TIP3    H1 8235   4.018   1.347   1.953  0.6192  0.2197 -0.5356
 2757TIP3    H2 8236   3.949   1.251   1.857 -0.1203 -0.9893  1.1551
 2758TIP3   OH2 8237   2.441   0.508   1.004 -0.4296 -0.2705 -0.4766
 2758TIP3    H1 8238   2.443   0.547   0.917  1.8243  0.0362 -0.3424
 2758TIP3    H2 8239   2.496   0.565   1.058 -0.5911 -1.2665  0.7985
 2759TIP3   OH2 8240   3.000   2.811   0.127  0.2204  0.0920  0.4552
 2759TIP3    H1 8241   3.000   2.901   0.094  0.0935  0.0086  0.2256
 2759TIP3    H2 8242   3.091   2.782   0.118  0.9351  1.1206  3.0955
 2760TIP3   OH2 8243   4.399   0.788   0.463  0.0993  0.1137  0.0474
 2760TIP3    H1 8244   4.468   0.824   0.408  0.4399  0.6014  0.7767
 2760TIP3    H2 8245   4.366   0.863   0.513 -0.8107 -0.1511 -0.1321
 2761TIP3   OH2 8246   5.250   2.530   3.814 -0.4802  0.0403 -0.7549
 2761TIP3    H1 8247   5.271   2.520   3.722 -0.7262 -0.0909 -0.7980
 2761TIP3    H2 8248   5.154   2.528   3.817 -0.4864  0.4908 -0.5492
 2762TIP3   OH2 8249   5.823   3.761   2.606 -0.3179  0.0440  0.5968
 2762TIP3    H1 8250   5.850   3.686   2.659 -2.2377 -1.2579 -0.1522
 2762TIP3    H2 8251   5.785   3.722   2.527 -1.3980  1.8129  0.1835
 2763TIP3   OH2 8252   6.313   1.905   3.165  0.3168 -0.8038 -0.0954
 2763TIP3    H1 8253   6.285   1.958   3.090 -0.1411  1.2885  1.4477
 2763TIP3    H2 8254   6.400   1.939   3.186 -0.3894  0.1151  1.5271
 2764TIP3   OH2 8255   2.369   5.664   4.088 -0.6729  0.3223  0.1185
 2764TIP3    H1 8256   2.415   5.600   4.142 -0.7437 -1.0549 -1.3760
 2764TIP3    H2 8257   2.332   5.726   4.150 -1.0981 -1.4156  1.6949
 2765TIP3   OH2 8258   5.953   2.039   1.534  0.3090  0.0881 -0.1790
 2765TIP3    H1 8259   6.000   1.963   1.569 -0.4922 -0.6130 -0.5857
 2765TIP3    H2 8260   5.923   2.011   1.448 -0.0494  0.8460 -0.3099
 2766TIP3   OH2 8261   2.943   6.316   0.517  0.2712 -0.4799  0.6064
 2766TIP3    H1 8262   2.999   6.250   0.560 -0.2437 -1.0231  0.4649
 2766TIP3    H2 8263   2.914   6.372   0.589  0.0033 -0.9429  0.8648
 2767TIP3   OH2 8264   3.419   0.464   1.053 -0.3735 -0.1450 -0.5032
 2767TIP3    H1 8265   3.510   0.493   1.050 -0.2220 -0.0859  2.2237
 2767TIP3    H2 8266   3.424   0.368   1.047 -0.2642 -0.0821 -1.6331
 2768TIP3   OH2 8267   4.332   1.906   3.521  0.1994 -0.1493 -0.5862
 2768TIP3    H1 8268   4.419   1.941   3.540 -0.3755  1.1224 -0.2049
 2768TIP3    H2 8269   4.336   1.815   3.550  1.2300  0.0519 -0.0482
 2769TIP3   OH2 8270   0.840   5.338   2.073 -0.1121 -0.0110  0.2296
 2769TIP3    H1 8271   0.815   5.395   2.001  0.0505 -0.4645 -0.1956
 2769TIP3    H2 8272   0.762   5.286   2.090 -0.6979  1.2421  1.5147
 2770TIP3   OH2 8273   5.827   2.676   3.036  0.5824 -0.0114 -0.1679
 2770TIP3    H1 8274   5.790   2.693   2.949  0.4097  2.6870  0.3314
 2770TIP3    H2 8275   5.922   2.684   3.024  0.6145 -0.4670 -0.2421
 2771TIP3   OH2 8276   4.463   0.702   1.469  0.7050 -0.0969  0.4748
 2771TIP3    H1 8277   4.378   0.711   1.426 -0.1470 -0.5467  1.9764
 2771TIP3    H2 8278   4.526   0.704   1.398 -0.4847  1.2132 -0.6059
 2772TIP3   OH2 8279   2.396   0.840   5.602  0.4989 -0.4430 -0.4847
 2772TIP3    H1 8280   2.454   0.781   5.649  0.1448  1.7183  3.0237
 2772TIP3    H2 8281   2.451   0.915   5.578  0.3436 -0.8805 -2.3769
 2773TIP3   OH2 8282   1.967   1.232   0.793  0.6207  0.6509 -0.2593
 2773TIP3    H1 8283   2.061   1.235   0.812  0.6284  1.6513 -0.4135
 2773TIP3    H2 8284   1.963   1.240   0.697  0.3697  0.8233 -0.2332
 2774TIP3   OH2 8285   6.865   4.642   0.499  0.0304 -0.2173 -0.1284
 2774TIP3    H1 8286   6.959   4.656   0.494 -0.2340  1.5593 -0.9232
 2774TIP3    H2 8287   6.835   4.703   0.567 -0.2469 -2.7811  2.2222
 2775TIP3   OH2 8288   4.859   0.481   2.227  0.2847 -0.5715  0.2121
 2775TIP3    H1 8289   4.833   0.538   2.299  1.8944 -1.7377  1.7920
 2775TIP3    H2 8290   4.786   0.419   2.218 -0.0865 -0.1950  0.5723
 2776TIP3   OH2 8291   3.532   1.368   1.368 -0.6743 -0.3303  0.4216
 2776TIP3    H1 8292   3.480   1.415   1.303 -1.1621 -0.9555  0.3532
 2776TIP3    H2 8293   3.567   1.437   1.425 -1.4140  0.1129  0.3538
 2777TIP3   OH2 8294   6.001   5.441   1.670 -0.3810 -0.0706  0.3140
 2777TIP3    H1 8295   5.934   5.418   1.734  0.5785 -0.5886  1.1556
 2777TIP3    H2 8296   6.084   5.428   1.716  0.3403 -0.5648 -1.0727
 2778TIP3   OH2 8297   1.552   0.482   1.761  0.6556 -0.2853  0.2055
 2778TIP3    H1 8298   1.560   0.388   1.742  0.9128 -0.4256  0.9486
 2778TIP3    H2 8299   1.462   0.503   1.737  0.4180 -0.8610  0.5546
 2779TIP3   OH2 8300   6.534   3.830   4.872  0.1521 -0.2942  0.3405
 2779TIP3    H1 8301   6.525   3.779   4.953  2.7458 -1.2190  0.1357
 2779TIP3    H2 8302   6.539   3.921   4.902 -2.1213 -0.2720  0.8925
 2780TIP3   OH2 8303   3.899   4.615   3.833  0.1301  0.2459  0.2640
 2780TIP3    H1 8304   3.910   4.523   3.857  0.1285  0.4487  1.0876
 2780TIP3    H2 8305   3.956   4.627   3.757  0.4794 -0.3215  0.4274
 2781TIP3   OH2 8306   1.363   3.150   2.840  0.2286  0.3387  0.1082
 2781TIP3    H1 8307   1.299   3.113   2.901 -0.1933  0.2088 -0.4073
 2781TIP3    H2 8308   1.420   3.076   2.818 -0.6662 -0.0485 -0.9876
 2782TIP3   OH2 8309   2.092   1.667   1.997  0.3763  0.0898 -0.1167
 2782TIP3    H1 8310   2.120   1.668   1.906  0.6279  0.7209 -0.0381
 2782TIP3    H2 8311   2.109   1.578   2.027  2.8861  0.5739  0.1159
 2783TIP3   OH2 8312   6.038   6.185   5.662  0.1605  0.0585 -0.3723
 2783TIP3    H1 8313   6.109   6.250   5.659  0.3090 -0.1074 -0.5225
 2783TIP3    H2 8314   6.058   6.126   5.589  0.6772 -0.8265  0.4594
 2784TIP3   OH2 8315   6.492   1.296   1.207 -0.4637 -0.4388 -0.2615
 2784TIP3    H1 8316   6.527   1.341   1.130 -0.8999 -1.1817 -0.9068
 2784TIP3    H2 8317   6.494   1.203   1.184 -0.8524 -0.6558  0.5259
 2785TIP3   OH2 8318   5.483   5.377   2.320  0.6310 -0.1670  0.3954
 2785TIP3    H1 8319   5.471   5.284   2.298 -1.6297 -0.1285  1.1907
 2785TIP3    H2 8320   5.476   5.380   2.415 -0.2789  0.9146  0.3156
 2786TIP3   OH2 8321   0.061   4.428   5.556  0.2747 -0.6572 -0.6675
 2786TIP3    H1 8322   0.128   4.493   5.538 -0.5565 -0.1852 -2.2431
 2786TIP3    H2 8323   0.055   4.377   5.476 -1.7075 -0.2479 -0.8253
 2787TIP3   OH2 8324   1.402   4.915   2.926 -0.1169 -0.0990 -0.2897
 2787TIP3    H1 8325   1.385   4.827   2.894 -0.7962 -0.2984  0.5904
 2787TIP3    H2 8326   1.337   4.970   2.880  0.4368 -0.0089 -0.9890
 2788TIP3   OH2 8327   6.620   3.492   0.776  0.0086 -0.0973  0.2900
 2788TIP3    H1 8328   6.564   3.485   0.698 -1.6129  0.6025  1.3306
 2788TIP3    H2 8329   6.604   3.410   0.823  1.6225 -0.8934 -0.4556
 2789TIP3   OH2 8330   3.789   1.486   2.109  0.5143 -0.4329  0.0159
 2789TIP3    H1 8331   3.715   1.535   2.075 -0.5159 -1.3084  0.9250
 2789TIP3    H2 8332   3.789   1.404   2.060  0.5915 -0.6307  0.3396
 2790TIP3   OH2 8333   1.819   0.478   0.359 -0.5487  0.1065  0.8766
 2790TIP3    H1 8334   1.859   0.459   0.274 -1.2880  1.0836  0.2828
 2790TIP3    H2 8335   1.755   0.408   0.371 -2.4688  1.4571 -0.7688
 2791TIP3   OH2 8336   0.576   6.422   4.082 -0.5879 -0.2619 -0.1813
 2791TIP3    H1 8337   0.613   6.465   4.159 -1.1832 -0.0277 -0.0262
 2791TIP3    H2 8338   0.569   6.491   4.017  1.0470 -0.6984 -0.8715
 2792TIP3   OH2 8339   2.829   2.592   0.052  0.0841 -0.4205 -0.1830
 2792TIP3    H1 8340   2.886   2.516   0.060  2.2845  1.2625  1.0838
 2792TIP3    H2 8341   2.888   2.666   0.043 -1.9696  1.2249 -0.9501
 2793TIP3   OH2 8342   1.958   1.185   4.968  0.1267 -0.0949  0.1998
 2793TIP3    H1 8343   1.921   1.118   5.026 -1.2683 -1.4775 -2.1098
 2793TIP3    H2 8344   1.942   1.268   5.014 -2.4293 -0.9572  1.0832
 2794TIP3   OH2 8345   2.939   5.825   1.023  0.1362 -0.1013 -0.1927
 2794TIP3    H1 8346   2.958   5.770   0.948  1.6991  0.2830 -0.1366
 2794TIP3    H2 8347   2.985   5.907   1.004  0.1597  0.1664  0.9450
 2795TIP3   OH2 8348   3.967   3.542   1.545 -0.1069 -0.2454  0.2741
 2795TIP3    H1 8349   3.916   3.503   1.615  0.2680 -0.6329  0.3384
 2795TIP3    H2 8350   3.941   3.495   1.466 -0.6789  0.3295  0.1160
 2796TIP3   OH2 8351   0.236   2.701   5.005 -0.0103 -0.4268  0.0053
 2796TIP3    H1 8352   0.250   2.795   4.995  0.4524 -0.2038  2.1641
 2796TIP3    H2 8353   0.227   2.668   4.916  3.0857  1.1568 -1.0482
 2797TIP3   OH2 8354   6.567   4.720   1.051 -0.2637  0.4571  0.0309
 2797TIP3    H1 8355   6.568   4.749   1.142  0.6036  1.5546 -0.3131
 2797TIP3    H2 8356   6.659   4.712   1.027 -0.4189  2.2778 -1.3740
 2798TIP3   OH2 8357   6.876   4.759   4.973  0.0959  0.4196 -0.0393
 2798TIP3    H1 8358   6.909   4.754   5.063  0.0456  1.6522  0.0718
 2798TIP3    H2 8359   6.785   4.790   4.982 -0.3301 -0.6742 -0.4566
 2799TIP3   OH2 8360   6.094   1.582   5.696 -0.5041 -0.0208 -0.7169
 2799TIP3    H1 8361   6.045   1.617   5.770  0.3681 -1.2971  0.5098
 2799TIP3    H2 8362   6.049   1.501   5.673  0.3852 -0.6499 -0.2784
 2800TIP3   OH2 8363   0.544   2.539   4.422  0.0902  0.0468 -0.8892
 2800TIP3    H1 8364   0.569   2.448   4.407  0.6282 -0.2010  1.2285
 2800TIP3    H2 8365   0.448   2.537   4.429  0.1680 -0.5624  0.2013
 2801TIP3   OH2 8366   3.732   3.676   4.791  0.0024 -0.1382 -0.0214
 2801TIP3    H1 8367   3.675   3.704   4.719 -0.2816 -1.0493 -0.1626
 2801TIP3    H2 8368   3.711   3.583   4.803  0.7420 -0.2312  0.5952
 2802TIP3   OH2 8369   0.632   0.084   3.299 -0.0776  0.7088  0.2472
 2802TIP3    H1 8370   0.630   0.176   3.275 -0.9351  0.6209 -0.0359
 2802TIP3    H2 8371   0.629   0.083   3.394 -1.9797  0.9479  0.2224
 2803TIP3   OH2 8372   3.913   5.627   3.662 -0.5086 -0.1421 -0.4577
 2803TIP3    H1 8373   3.968   5.605   3.738 -0.1790 -2.1018 -1.2131
 2803TIP3    H2 8374   3.826   5.598   3.687 -0.8065  1.0316 -0.0835
 2804TIP3   OH2 8375   3.552   6.079   3.440  0.3456  0.0297 -0.6696
 2804TIP3    H1 8376   3.477   6.106   3.386 -1.4051 -0.9232  1.1840
 2804TIP3    H2 8377   3.545   6.132   3.519  1.9200  0.2085 -0.6114
 2805TIP3   OH2 8378   0.647   6.638   0.383  0.8164 -0.3597 -0.0478
 2805TIP3    H1 8379   0.731   6.600   0.409  0.7404  0.8153  2.1234
 2805TIP3    H2 8380   0.652   6.730   0.410 -0.5420  0.1576 -1.4170
 2806TIP3   OH2 8381   5.890   5.730   5.322 -0.3234 -0.1039  0.0741
 2806TIP3    H1 8382   5.795   5.734   5.316 -0.2485  1.1178 -0.8613
 2806TIP3    H2 8383   5.917   5.822   5.332  0.6784 -0.5527  2.2438
 2807TIP3   OH2 8384   2.623   4.871   1.905 -0.0562 -0.4462 -0.7574
 2807TIP3    H1 8385   2.639   4.846   1.996 -0.4959 -1.0943 -0.8540
 2807TIP3    H2 8386   2.584   4.958   1.911 -0.6503 -0.7381 -0.2865
 2808TIP3   OH2 8387   4.795   2.150   3.885 -0.0109  0.4734  0.4248
 2808TIP3    H1 8388   4.768   2.087   3.951 -1.9214  0.3662 -0.3989
 2808TIP3    H2 8389   4.871   2.110   3.843  0.7131  0.1640  1.9501
 2809TIP3   OH2 8390   1.772   6.312   0.859  0.3191  0.3498  0.3691
 2809TIP3    H1 8391   1.718   6.382   0.895  2.0975  0.7203  2.5146
 2809TIP3    H2 8392   1.822   6.280   0.934  1.4587 -1.4505 -1.0957
 2810TIP3   OH2 8393   1.276   1.750   0.982  0.2832  0.0224  0.3478
 2810TIP3    H1 8394   1.275   1.654   0.988 -1.0024  0.0773  1.3966
 2810TIP3    H2 8395   1.214   1.770   0.912  0.2024  0.1172  0.4476
 2811TIP3   OH2 8396   6.499   3.091   4.229 -0.1477  0.5608  0.4250
 2811TIP3    H1 8397   6.471   3.081   4.138  0.8028 -0.7264  0.2599
 2811TIP3    H2 8398   6.584   3.049   4.233  0.7026  2.2682  1.4861
 2812TIP3   OH2 8399   4.564   4.766   5.861  0.7813  0.0460 -0.5332
 2812TIP3    H1 8400   4.650   4.734   5.833  1.0325  1.4922 -1.5458
 2812TIP3    H2 8401   4.572   4.861   5.860  0.0607  0.2124  2.3484
 2813TIP3   OH2 8402   0.645   4.954   0.333  0.1086 -0.0826 -0.0034
 2813TIP3    H1 8403   0.611   4.865   0.325  2.8422 -1.2167 -0.3350
 2813TIP3    H2 8404   0.740   4.942   0.343  0.5354  2.7980  0.2105
 2814TIP3   OH2 8405   5.556   5.571   2.142  0.0102 -0.2697 -0.0852
 2814TIP3    H1 8406   5.531   5.525   2.062  0.5501 -1.4005  0.3840
 2814TIP3    H2 8407   5.521   5.517   2.213 -0.5652  0.7836  0.4595
 2815TIP3   OH2 8408   1.685   3.482   4.335 -0.0192 -0.3937  0.7815
 2815TIP3    H1 8409   1.781   3.480   4.332  0.0747  2.0461 -1.5353
 2815TIP3    H2 8410   1.658   3.440   4.254 -0.9204 -0.5922  1.1725
 2816TIP3   OH2 8411   0.944   2.832   3.681  0.0749  0.1717  0.2530
 2816TIP3    H1 8412   0.967   2.810   3.772 -0.1497  2.1334  0.8203
 2816TIP3    H2 8413   1.029   2.839   3.637  0.1854 -0.8241  0.2759
 2817TIP3   OH2 8414   6.961   4.525   0.896  0.4386  0.0697 -0.3339
 2817TIP3    H1 8415   7.023   4.514   0.968  0.1304 -0.7217 -0.1837
 2817TIP3    H2 8416   6.920   4.610   0.912  2.9548  1.6577 -1.5658
 2818TIP3   OH2 8417   3.297   4.244   1.633 -0.4830  0.0531  0.2326
 2818TIP3    H1 8418   3.319   4.237   1.540 -0.3884 -0.1277  0.2682
 2818TIP3    H2 8419   3.304   4.155   1.666  0.2710  0.2344  0.5827
 2819TIP3   OH2 8420   3.493   6.463   2.943 -0.2972 -0.3169  0.6729
 2819TIP3    H1 8421   3.535   6.396   2.890 -1.0615  0.8607 -1.5705
 2819TIP3    H2 8422   3.521   6.546   2.904 -0.5006  0.6677  2.4681
 2820TIP3   OH2 8423   2.522   2.849   4.363  0.2728  0.1518 -0.1558
 2820TIP3    H1 8424   2.514   2.929   4.311  0.3178  0.5070  0.3786
 2820TIP3    H2 8425   2.555   2.784   4.301 -1.2012  0.1464 -0.9784
 2821TIP3   OH2 8426   0.443   6.153   4.041  0.1837 -0.3242 -0.0392
 2821TIP3    H1 8427   0.450   6.181   3.949  1.4777 -2.4086 -0.6408
 2821TIP3    H2 8428   0.509   6.206   4.086 -1.7983  2.1477  0.1436
 2822TIP3   OH2 8429   2.678   5.023   3.776  0.3428 -0.0622  0.2191
 2822TIP3    H1 8430   2.682   4.979   3.691  2.3687  3.1809 -1.5996
 2822TIP3    H2 8431   2.592   5.066   3.777  0.0536 -0.6348  0.0820
 2823TIP3   OH2 8432   6.770   6.770   1.608  0.2318 -0.4987 -0.4236
 2823TIP3    H1 8433   6.739   6.739   1.693  0.6398  0.5750  0.1483
 2823TIP3    H2 8434   6.865   6.756   1.610  0.7198  2.2737  0.5956
 2824TIP3   OH2 8435   0.081   5.789   0.140 -0.2260 -0.4704  0.1480
 2824TIP3    H1 8436   0.119   5.702   0.152  1.1360  0.0900  0.1801
 2824TIP3    H2 8437   0.034   5.784   0.057 -0.3388 -1.2836  0.2521
 2825TIP3   OH2 8438   2.744   3.302   5.451  0.2780  0.8725  0.0673
 2825TIP3    H1 8439   2.755   3.358   5.375  1.7080  0.8186  0.2018
 2825TIP3    H2 8440   2.797   3.344   5.519  0.0535  0.2297  0.6505
 2826TIP3   OH2 8441   2.180   1.767   5.242  0.1625  0.5572  0.0648
 2826TIP3    H1 8442   2.220   1.841   5.196 -0.2338  0.1883 -0.8913
 2826TIP3    H2 8443   2.088   1.792   5.253 -0.1730 -0.1314 -1.0240
 2827TIP3   OH2 8444   1.929   0.019   4.343  0.3581  0.0288 -0.1561
 2827TIP3    H1 8445   1.981  -0.061   4.351 -2.4170 -1.8066  1.2856
 2827TIP3    H2 8446   1.927   0.055   4.432 -2.1735 -0.9682  0.2711
 2828TIP3   OH2 8447   2.944   4.923   3.785  0.3753  0.1479 -0.3798
 2828TIP3    H1 8448   2.857   4.963   3.777  0.2451 -0.5224 -3.6165
 2828TIP3    H2 8449   3.005   4.992   3.757  0.5295 -0.5085 -1.7206
 2829TIP3   OH2 8450   3.671   6.484   3.874  0.0893  0.1813  0.1431
 2829TIP3    H1 8451   3.616   6.421   3.921  2.0301 -0.4371  1.7287
 2829TIP3    H2 8452   3.686   6.554   3.938  0.3491  0.8264 -0.6103
 2830TIP3   OH2 8453   1.211   3.692   3.427  0.1040 -0.0557 -0.4931
 2830TIP3    H1 8454   1.137   3.722   3.482 -0.0269  0.4754 -0.9514
 2830TIP3    H2 8455   1.285   3.687   3.488 -0.6923 -2.4009  0.4014
 2831TIP3   OH2 8456   1.343   6.049   3.484  0.1926  0.0884 -0.6030
 2831TIP3    H1 8457   1.434   6.021   3.472  0.0170 -0.1278 -1.4935
 2831TIP3    H2 8458   1.310   6.065   3.395 -0.4730  0.7102 -0.2594
 2832TIP3   OH2 8459   1.103   3.871   4.810  0.5620 -0.3992 -0.4336
 2832TIP3    H1 8460   1.198   3.880   4.802  0.5495 -0.9951 -1.4890
 2832TIP3    H2 8461   1.072   3.866   4.719 -0.4953 -0.0501 -0.1022
 2833TIP3   OH2 8462   6.254   6.358   5.740 -0.0417  0.4520 -0.0881
 2833TIP3    H1 8463   6.279   6.284   5.794 -1.1822  0.3402  0.3278
 2833TIP3    H2 8464   6.336   6.403   5.719  0.5575 -0.3755  0.4557
 2834TIP3   OH2 8465   2.281   6.230   1.680 -0.0055  0.0552  0.2420
 2834TIP3    H1 8466   2.338   6.277   1.741 -0.6456 -0.2551  1.1044
 2834TIP3    H2 8467   2.339   6.169   1.634  1.0486  2.3056 -1.6432
 2835TIP3   OH2 8468   3.339   0.995   3.601 -0.1569  0.2786  0.0662
 2835TIP3    H1 8469   3.278   0.949   3.545 -0.4029 -0.0874  0.6280
 2835TIP3    H2 8470   3.344   1.083   3.564  1.8503 -0.7095 -2.2199
 2836TIP3   OH2 8471   2.805   5.354   3.742 -0.2798 -0.4164 -0.1448
 2836TIP3    H1 8472   2.747   5.300   3.688 -0.7397 -0.8195  0.7309
 2836TIP3    H2 8473   2.769   5.347   3.830  0.6484 -0.0318  0.2767
 2837TIP3   OH2 8474   1.492   1.543   4.487 -0.1697 -0.6343 -0.1782
 2837TIP3    H1 8475   1.588   1.534   4.488 -0.1162 -0.0591  0.9370
 2837TIP3    H2 8476   1.475   1.627   4.529 -1.2520 -1.6860  1.5976
 2838TIP3   OH2 8477   4.430   1.896   5.527 -0.4121 -0.1414  0.3553
 2838TIP3    H1 8478   4.457   1.947   5.451 -1.2622 -0.8387 -0.4294
 2838TIP3    H2 8479   4.499   1.829   5.537 -0.4634 -0.2452  0.0118
 2839TIP3   OH2 8480   6.571   0.129   5.860  0.5508 -0.1742  0.1013
 2839TIP3    H1 8481   6.601   0.090   5.942  1.6738  0.1994 -0.1191
 2839TIP3    H2 8482   6.646   0.124   5.801  0.8380  2.4351  0.1221
 2840TIP3   OH2 8483   0.210   3.978   4.225 -0.3070  0.1316  0.4637
 2840TIP3    H1 8484   0.200   3.914   4.155 -0.6753  0.4322  0.2401
 2840TIP3    H2 8485   0.234   3.926   4.302  2.0248 -0.0442 -0.2857
 2841TIP3   OH2 8486   2.601   3.700   3.021  0.0345  0.0526  0.0983
 2841TIP3    H1 8487   2.549   3.776   3.047 -0.1831 -0.0393 -0.0581
 2841TIP3    H2 8488   2.536   3.630   3.007  0.0810  0.2229 -1.1319
 2842TIP3   OH2 8489   2.988   4.665   3.853  0.2327  0.0376  0.4249
 2842TIP3    H1 8490   2.983   4.759   3.835 -0.2215  0.0130  0.4052
 2842TIP3    H2 8491   2.957   4.656   3.943  0.0407 -0.1152  0.3463
 2843TIP3   OH2 8492   6.888   2.758   5.139  0.8909 -0.2329  0.2035
 2843TIP3    H1 8493   6.966   2.713   5.108  0.1535  0.2501 -2.7162
 2843TIP3    H2 8494   6.820   2.689   5.140  1.0358 -0.3699  1.4165
 2844TIP3   OH2 8495   1.858   3.045   3.058  0.1262  0.4581  0.2882
 2844TIP3    H1 8496   1.920   2.989   3.010 -1.3432 -0.4017 -0.7267
 2844TIP3    H2 8497   1.809   2.984   3.113 -0.4336  0.9828  0.3784
 2845TIP3   OH2 8498   0.704   0.031   1.995  0.3067 -0.2103  0.0479
 2845TIP3    H1 8499   0.781   0.049   1.941 -1.0216  0.0874 -1.8476
 2845TIP3    H2 8500   0.690   0.113   2.043  0.5307  0.1275 -0.4465
 2846TIP3   OH2 8501   2.374   1.785   1.021 -0.1520 -0.5067  0.3771
 2846TIP3    H1 8502   2.437   1.791   1.093  0.4582  0.2335 -0.1996
 2846TIP3    H2 8503   2.428   1.787   0.942 -0.7130 -2.6460 -0.1131
 2847TIP3   OH2 8504   3.356   6.166   0.899 -0.0338  0.4332  0.0526
 2847TIP3    H1 8505   3.390   6.124   0.820  0.7285  1.3672 -0.1381
 2847TIP3    H2 8506   3.364   6.259   0.882 -1.4970  0.6771  0.5584
 2848TIP3   OH2 8507   6.188   5.606   1.447  0.7427 -0.1495  0.5972
 2848TIP3    H1 8508   6.200   5.634   1.538  0.8250 -1.2566  0.9411
 2848TIP3    H2 8509   6.101   5.566   1.446  1.1088 -0.9424  0.3962
 2849TIP3   OH2 8510   4.074   6.019   1.903  1.0811  0.5495 -0.1029
 2849TIP3    H1 8511   4.150   5.981   1.948  0.5750 -1.0125 -0.5076
 2849TIP3    H2 8512   4.024   5.943   1.873 -0.3354  1.5582 -0.3616
 2850TIP3   OH2 8513   3.015   0.701   3.129  0.1361 -0.2881  0.8848
 2850TIP3    H1 8514   2.943   0.682   3.189  0.2451 -2.0279  0.5255
 2850TIP3    H2 8515   2.972   0.718   3.045  0.0875 -0.0701  0.9537
 2851TIP3   OH2 8516   3.371   4.620   0.644  0.5444  0.3866  0.1209
 2851TIP3    H1 8517   3.282   4.592   0.668  1.4012 -0.7992  2.1577
 2851TIP3    H2 8518   3.379   4.708   0.682  0.5630  0.0880  0.8299
 2852TIP3   OH2 8519   1.639   2.728   5.545  0.3203  0.2331  0.4904
 2852TIP3    H1 8520   1.600   2.659   5.491  1.4219  0.1671 -0.2495
 2852TIP3    H2 8521   1.570   2.794   5.555  0.1401  0.3054 -1.0985
 2853TIP3   OH2 8522   5.176   1.400   2.200  0.7180  0.0725 -0.3333
 2853TIP3    H1 8523   5.149   1.309   2.190 -0.7875  0.6434 -1.8562
 2853TIP3    H2 8524   5.125   1.432   2.275  0.6419 -0.1198 -0.3038
 2854TIP3   OH2 8525   3.213   5.238   2.135 -0.2227 -0.0620  0.6524
 2854TIP3    H1 8526   3.142   5.275   2.084  1.5171  0.3676 -1.6263
 2854TIP3    H2 8527   3.276   5.310   2.145  1.4791 -1.2913 -0.5192
 2855TIP3   OH2 8528   3.743   5.086   5.701 -0.0013 -0.5279  0.1331
 2855TIP3    H1 8529   3.696   5.163   5.668  0.1524 -0.7972 -0.7356
 2855TIP3    H2 8530   3.816   5.122   5.751  0.3886 -0.0963 -0.7308
 2856TIP3   OH2 8531   2.100   4.503   1.141 -0.5833  0.8028  0.1675
 2856TIP3    H1 8532   2.149   4.561   1.200 -2.2899  1.3197  1.1387
 2856TIP3    H2 8533   2.167   4.462   1.087  0.9586  1.1452  1.7272
 2857TIP3   OH2 8534   0.573   6.579   2.748  0.0005  0.2359  0.0114
 2857TIP3    H1 8535   0.528   6.633   2.814  0.1874  0.5502 -0.1167
 2857TIP3    H2 8536   0.601   6.642   2.681  0.3378 -0.0039 -0.0734
 2858TIP3   OH2 8537   3.817   0.354   1.489  0.0200  0.0173 -0.2428
 2858TIP3    H1 8538   3.804   0.276   1.544  2.7647  1.3415  2.5626
 2858TIP3    H2 8539   3.862   0.321   1.411 -1.7105 -1.5754 -0.6398
 2859TIP3   OH2 8540   0.414   1.745   1.548 -0.6012 -0.0111  0.4356
 2859TIP3    H1 8541   0.331   1.791   1.537 -0.6746  0.0674  1.2915
 2859TIP3    H2 8542   0.411   1.674   1.483 -1.0260  0.4218 -0.0237
 2860TIP3   OH2 8543   1.381   3.388   2.380 -0.1390  0.3049 -0.1878
 2860TIP3    H1 8544   1.289   3.383   2.405  0.3069  1.0481  1.7423
 2860TIP3    H2 8545   1.413   3.299   2.388 -0.7056  0.0053 -1.0568
 2861TIP3   OH2 8546   2.428   6.280   2.891  0.4351  0.0577  0.1617
 2861TIP3    H1 8547   2.502   6.222   2.905 -0.5301 -0.8713  1.7927
 2861TIP3    H2 8548   2.371   6.264   2.966 -2.1269 -0.3673 -1.7412
 2862TIP3   OH2 8549   6.131   2.247   2.671 -0.3499 -0.1393 -0.4656
 2862TIP3    H1 8550   6.184   2.280   2.598 -0.0746  0.3686 -0.0373
 2862TIP3    H2 8551   6.191   2.192   2.721 -0.2890  0.2489 -0.1093
 2863TIP3   OH2 8552   0.388   5.154   5.559 -0.0507  0.2455  0.7870
 2863TIP3    H1 8553   0.369   5.235   5.512 -1.5939 -0.1289  0.7220
 2863TIP3    H2 8554   0.303   5.110   5.567  0.7876 -1.4785  0.6278
 2864TIP3   OH2 8555   3.659   2.930   1.873 -0.4536  0.2497 -0.1859
 2864TIP3    H1 8556   3.714   2.877   1.931 -0.2934 -0.7049 -1.1933
 2864TIP3    H2 8557   3.604   2.981   1.933 -0.3834 -0.8109  0.8120
 2865TIP3   OH2 8558   6.659   3.037   1.685 -0.4246  0.0175  0.5920
 2865TIP3    H1 8559   6.723   3.087   1.736 -1.9983  2.2625  0.5293
 2865TIP3    H2 8560   6.583   3.030   1.743 -0.7923 -0.9823  0.0078
 2866TIP3   OH2 8561   2.772   5.989   5.865  0.0035 -0.3708  0.1158
 2866TIP3    H1 8562   2.698   5.974   5.924 -1.7167 -0.1328 -1.8591
 2866TIP3    H2 8563   2.792   5.903   5.828  0.4989 -0.3793  0.4005
 2867TIP3   OH2 8564   6.033   5.816   2.605 -0.0870  0.2195 -0.0206
 2867TIP3    H1 8565   6.003   5.876   2.673 -1.3402 -0.4873  0.0783
 2867TIP3    H2 8566   6.074   5.744   2.653 -1.8315 -0.7543  0.0822
 2868TIP3   OH2 8567   1.105   5.522   1.392  0.0504 -0.0634 -0.3051
 2868TIP3    H1 8568   1.029   5.476   1.428  1.4838 -0.4766  2.4358
 2868TIP3    H2 8569   1.180   5.470   1.421  1.4651  0.4793 -2.7040
 2869TIP3   OH2 8570   4.443   4.115   3.624  0.1792 -0.0742 -0.3776
 2869TIP3    H1 8571   4.388   4.155   3.557 -1.0125 -0.2504  0.4723
 2869TIP3    H2 8572   4.519   4.174   3.630  0.2984 -0.0403 -1.8242
 2870TIP3   OH2 8573   3.816   3.134   2.713 -0.0311  0.1163 -0.2018
 2870TIP3    H1 8574   3.773   3.128   2.628 -0.0994  0.9488 -0.2363
 2870TIP3    H2 8575   3.746   3.162   2.773 -0.1139 -0.9867  0.2488
 2871TIP3   OH2 8576   1.551   4.873   3.725 -0.0171  0.5586 -0.1990
 2871TIP3    H1 8577   1.633   4.888   3.773 -0.9104  0.2654  1.5260
 2871TIP3    H2 8578   1.562   4.921   3.643  1.6495  1.0104  0.2455
 2872TIP3   OH2 8579   1.587   1.546   5.767  0.2599  0.5157 -0.2504
 2872TIP3    H1 8580   1.534   1.474   5.801 -0.1786  0.3753 -1.1982
 2872TIP3    H2 8581   1.675   1.529   5.802 -0.2590  0.6529  1.1890
 2873TIP3   OH2 8582   2.240   2.427   0.777 -0.1606  0.1849 -0.1673
 2873TIP3    H1 8583   2.220   2.519   0.763  2.0562  0.6783 -0.4732
 2873TIP3    H2 8584   2.266   2.421   0.869 -1.4112 -0.3891  0.1708
 2874TIP3   OH2 8585   4.368   5.968   3.635  0.9569  0.4368  0.1218
 2874TIP3    H1 8586   4.291   5.947   3.582  0.9042  1.5799 -0.2802
 2874TIP3    H2 8587   4.440   5.925   3.590  0.3206 -2.5876  1.7276
 2875TIP3   OH2 8588   5.579   0.295   1.373  0.3362  0.3307  0.3194
 2875TIP3    H1 8589   5.655   0.261   1.421  0.3689  0.2625  0.2200
 2875TIP3    H2 8590   5.504   0.254   1.415  0.3102  0.8893  0.8301
 2876TIP3   OH2 8591   4.868   4.886   4.011  0.1679  0.1842  0.5075
 2876TIP3    H1 8592   4.893   4.917   3.924  1.0304 -0.6753  0.4420
 2876TIP3    H2 8593   4.772   4.887   4.010  0.1744  0.4054 -0.3642
 2877TIP3   OH2 8594   3.830   5.716   2.626  0.2933  0.2790 -0.6976
 2877TIP3    H1 8595   3.901   5.654   2.614  0.8198  1.0004 -1.3822
 2877TIP3    H2 8596   3.837   5.743   2.718  1.8322  1.4268 -1.1141
 2878TIP3   OH2 8597   0.088   2.700   0.348 -0.4918 -0.1630  0.2135
 2878TIP3    H1 8598   0.008   2.753   0.350 -0.9303 -0.8012  2.0945
 2878TIP3    H2 8599   0.092   2.660   0.435  3.3326  1.9801  1.2872
 2879TIP3   OH2 8600   4.281   0.653   5.623  0.1751  0.0389 -0.2892
 2879TIP3    H1 8601   4.303   0.638   5.715 -0.4949  0.2581 -0.0882
 2879TIP3    H2 8602   4.214   0.587   5.603 -0.4781  0.6840 -0.2981
 2880TIP3   OH2 8603   1.825   4.429   0.513 -0.2259  0.0351 -0.2132
 2880TIP3    H1 8604   1.750   4.370   0.520 -0.3519 -0.0082 -1.6485
 2880TIP3    H2 8605   1.887   4.382   0.456  1.8898 -0.8972  2.6263
 2881TIP3   OH2 8606   5.863   2.671   0.377  0.5309 -0.0918  0.0669
 2881TIP3    H1 8607   5.862   2.647   0.284  0.7822 -0.7802  0.2340
 2881TIP3    H2 8608   5.835   2.763   0.378 -0.8841 -0.4813 -0.5636
 2882TIP3   OH2 8609   1.679   4.187   3.809  0.1947  0.1531 -0.2973
 2882TIP3    H1 8610   1.720   4.212   3.891 -0.0290 -2.2885  0.6397
 2882TIP3    H2 8611   1.586   4.181   3.829 -0.0110  0.6239 -1.0457
 2883TIP3   OH2 8612   5.133   2.205   0.062 -0.3442 -0.3508 -0.2698
 2883TIP3    H1 8613   5.157   2.251  -0.018 -1.6724  1.6238  0.4128
 2883TIP3    H2 8614   5.053   2.158   0.039 -2.5887  2.7495  0.6199
 2884TIP3   OH2 8615   6.211   5.969   3.707  0.0699  0.2707 -0.2305
 2884TIP3    H1 8616   6.216   5.874   3.694 -1.3705  0.3710 -1.8497
 2884TIP3    H2 8617   6.120   5.991   3.690  0.4769  2.0200 -0.3458
 2885TIP3   OH2 8618   5.993   6.705   2.169 -0.8893 -0.6335  0.0381
 2885TIP3    H1 8619   6.061   6.767   2.144  0.0592 -1.3362  0.7756
 2885TIP3    H2 8620   6.034   6.619   2.156 -0.5269 -1.0674  3.2357
 2886TIP3   OH2 8621   5.930   0.780   4.330  0.4363 -0.4199 -0.4400
 2886TIP3    H1 8622   5.892   0.805   4.246  1.1700  0.2181 -0.5948
 2886TIP3    H2 8623   5.858   0.737   4.377 -0.0883 -0.4359 -1.2385
 2887TIP3   OH2 8624   1.931   0.112   2.362 -0.2728 -0.0401 -0.1128
 2887TIP3    H1 8625   1.939   0.032   2.311 -0.1003  0.4401 -0.8503
 2887TIP3    H2 8626   1.974   0.179   2.309  1.2497  0.1817  1.3151
 2888TIP3   OH2 8627   3.819   3.045   1.664 -0.3644 -0.5622  0.3341
 2888TIP3    H1 8628   3.778   2.993   1.733 -1.0999 -1.1348 -0.5062
 2888TIP3    H2 8629   3.819   2.988   1.587 -3.0866  1.2906 -1.2171
 2889TIP3   OH2 8630   1.532   5.491   3.675  0.4226  0.0504  0.3037
 2889TIP3    H1 8631   1.596   5.463   3.741  0.2947  1.1512  0.9083
 2889TIP3    H2 8632   1.567   5.574   3.642 -1.5317  1.6093  1.9105
 2890TIP3   OH2 8633   0.161   3.717   4.112 -0.0618  0.3087  0.3999
 2890TIP3    H1 8634   0.224   3.668   4.059 -0.2485 -0.1806  0.6260
 2890TIP3    H2 8635   0.099   3.752   4.049  0.9918  1.6514  0.0566
 2891TIP3   OH2 8636   3.195   0.877   0.564 -0.0070 -0.2153  0.1864
 2891TIP3    H1 8637   3.199   0.850   0.472  0.9427 -0.9369  0.4293
 2891TIP3    H2 8638   3.228   0.802   0.613 -0.9036 -0.0019  1.1689
 2892TIP3   OH2 8639   4.046   1.966   0.283 -0.9404 -0.7167 -0.2137
 2892TIP3    H1 8640   3.967   2.013   0.307 -1.3637 -0.8177 -1.3209
 2892TIP3    H2 8641   4.065   1.910   0.358 -0.9802  0.4994  0.7191
 2893TIP3   OH2 8642   4.514   2.670   2.746  0.3378 -0.9517 -0.0711
 2893TIP3    H1 8643   4.476   2.620   2.674 -1.1432  0.0521 -0.0315
 2893TIP3    H2 8644   4.577   2.729   2.704 -1.1828  0.2811 -0.7146
 2894TIP3   OH2 8645   2.581   3.047   2.287  0.7707 -0.2559  0.2446
 2894TIP3    H1 8646   2.649   3.114   2.279 -0.0984  0.5534 -0.6277
 2894TIP3    H2 8647   2.500   3.096   2.300  0.5078 -1.2438  2.8187
 2895TIP3   OH2 8648   4.117   1.222   2.537 -0.4606  0.4734 -0.4012
 2895TIP3    H1 8649   4.148   1.167   2.609 -1.7687 -0.2488 -0.3556
 2895TIP3    H2 8650   4.068   1.292   2.580 -0.6362  0.4406 -0.5436
 2896TIP3   OH2 8651   4.961   1.315   5.006  0.0592  0.1883 -0.1385
 2896TIP3    H1 8652   4.902   1.374   5.053  0.9713  1.1225 -0.1224
 2896TIP3    H2 8653   4.947   1.229   5.047 -0.8253  0.5164  0.2699
 2897TIP3   OH2 8654   5.689   3.894   2.067  0.0324  0.3829  0.2520
 2897TIP3    H1 8655   5.646   3.978   2.051  1.2132  0.7481 -1.3114
 2897TIP3    H2 8656   5.783   3.913   2.059  0.3152 -1.1443 -0.5547
 2898TIP3   OH2 8657   1.195   6.049   0.617  0.2728  0.5334  0.3683
 2898TIP3    H1 8658   1.248   5.999   0.678 -1.0284 -2.2740 -0.6337
 2898TIP3    H2 8659   1.245   6.048   0.535 -0.6452 -1.0503 -0.2296
 2899TIP3   OH2 8660   0.475   4.999   4.512 -0.7307  0.4971  0.4410
 2899TIP3    H1 8661   0.502   5.084   4.478 -0.9425 -0.1703 -1.5564
 2899TIP3    H2 8662   0.385   4.988   4.480 -0.1673 -1.1292 -0.7051
 2900TIP3   OH2 8663   3.862   5.246   0.643 -0.8484 -0.0252 -0.5521
 2900TIP3    H1 8664   3.878   5.262   0.550 -0.6785  1.6351 -0.2701
 2900TIP3    H2 8665   3.949   5.230   0.680 -0.7522  0.6649 -0.4622
 2901TIP3   OH2 8666   3.856   3.858   0.440 -0.0525  0.1645  0.4968
 2901TIP3    H1 8667   3.858   3.839   0.534 -0.1730 -0.0003  0.4652
 2901TIP3    H2 8668   3.869   3.773   0.398  0.6599  0.3300  0.3687
 2902TIP3   OH2 8669   0.325   1.310   1.052  0.3761 -0.1679  0.1290
 2902TIP3    H1 8670   0.278   1.321   0.970 -0.3485  0.8542  0.6565
 2902TIP3    H2 8671   0.277   1.241   1.099  0.2872 -0.1607  0.0482
 2903TIP3   OH2 8672   5.194   0.033   5.553 -0.0420  0.1397  0.2206
 2903TIP3    H1 8673   5.121   0.051   5.612 -1.6573  0.7879 -1.8719
 2903TIP3    H2 8674   5.261   0.096   5.578 -0.9090  0.7766  1.0009
 2904TIP3   OH2 8675   2.968   1.434   5.420  0.2253  0.2684  0.0382
 2904TIP3    H1 8676   3.001   1.379   5.490  0.3798  0.0863 -0.1785
 2904TIP3    H2 8677   2.929   1.373   5.358  0.3995  0.4023 -0.2031
 2905TIP3   OH2 8678   4.220   4.777   4.541  0.6959 -0.3319  0.2655
 2905TIP3    H1 8679   4.219   4.685   4.567  1.7343 -0.4687 -0.1283
 2905TIP3    H2 8680   4.128   4.804   4.542  0.5192 -0.8989  1.9941
 2906TIP3   OH2 8681   6.458   6.772   2.038  0.0925  0.7381 -0.2843
 2906TIP3    H1 8682   6.382   6.737   1.992 -0.1618  0.0820  0.6023
 2906TIP3    H2 8683   6.437   6.760   2.131  0.3980  2.4010  0.0411
 2907TIP3   OH2 8684   2.906   2.320   4.386 -0.1988  0.2494 -0.0923
 2907TIP3    H1 8685   2.991   2.362   4.399 -0.6607  1.2812 -0.2537
 2907TIP3    H2 8686   2.848   2.361   4.451 -0.6379 -0.2279 -0.1760
 2908TIP3   OH2 8687   3.760   5.598   0.150  0.7518  0.0498 -0.0660
 2908TIP3    H1 8688   3.770   5.682   0.194 -0.7653 -0.3046  1.0182
 2908TIP3    H2 8689   3.696   5.613   0.081 -2.1548 -0.8657  2.2363
 2909TIP3   OH2 8690   3.890   2.652   2.781  0.1190 -0.5784 -0.5830
 2909TIP3    H1 8691   3.943   2.575   2.758  0.1449 -0.4694 -0.8988
 2909TIP3    H2 8692   3.805   2.615   2.808 -0.3225 -0.6682 -2.0106
 2910TIP3   OH2 8693   6.711   3.291   3.354 -0.0067 -0.3548 -0.4767
 2910TIP3    H1 8694   6.725   3.200   3.377  2.4981 -0.4660 -2.0820
 2910TIP3    H2 8695   6.786   3.338   3.392 -0.1751  0.6978 -1.3771
 2911TIP3   OH2 8696   3.040   6.675   2.991 -0.4563  0.1224 -0.3604
 2911TIP3    H1 8697   3.130   6.689   3.020  0.3132  2.4875 -3.4230
 2911TIP3    H2 8698   3.025   6.582   3.006  2.5936 -0.4238  0.0037
 2912TIP3   OH2 8699   6.331   5.066   2.075  0.1581  0.0072 -0.6302
 2912TIP3    H1 8700   6.343   4.989   2.131 -1.3860 -0.1465 -0.4870
 2912TIP3    H2 8701   6.257   5.044   2.019 -1.5100  2.0249  0.6263
 2913TIP3   OH2 8702   4.364   5.497   2.089  0.3196 -0.4406  0.2037
 2913TIP3    H1 8703   4.360   5.475   1.996 -1.8458 -1.2901  0.4256
 2913TIP3    H2 8704   4.343   5.591   2.092  0.1652 -0.4600 -0.1556
 2914TIP3   OH2 8705   4.721   5.271   1.274 -0.8126  0.4435 -0.4549
 2914TIP3    H1 8706   4.688   5.351   1.232  0.8114 -0.2949 -3.4256
 2914TIP3    H2 8707   4.811   5.293   1.299 -1.0616  0.1696  0.7423
 2915TIP3   OH2 8708   3.789   1.181   2.525 -0.1809 -0.1831 -0.5276
 2915TIP3    H1 8709   3.839   1.226   2.457 -0.0822  0.7661  0.1586
 2915TIP3    H2 8710   3.837   1.198   2.606  0.5806 -2.5772 -0.3819
 2916TIP3   OH2 8711   1.818   0.626   2.145  0.0474 -0.0188 -0.0890
 2916TIP3    H1 8712   1.823   0.559   2.214  2.1775 -0.3820 -0.5490
 2916TIP3    H2 8713   1.895   0.611   2.091 -0.5834  1.4732 -1.4761
 2917TIP3   OH2 8714   1.426   0.371   2.584  0.0412 -0.4903 -0.2413
 2917TIP3    H1 8715   1.507   0.409   2.551 -0.5950  0.3981 -0.8289
 2917TIP3    H2 8716   1.442   0.359   2.678  0.2607  1.3400 -0.0066
 2918TIP3   OH2 8717   2.783   0.243   4.515  0.4163 -0.3995  0.1435
 2918TIP3    H1 8718   2.726   0.185   4.464  0.5789 -0.1770 -0.2945
 2918TIP3    H2 8719   2.726   0.315   4.541  0.2851 -0.6097  0.4425
 2919TIP3   OH2 8720   5.232   5.520   4.618  0.0946 -0.0012 -0.3835
 2919TIP3    H1 8721   5.172   5.582   4.659 -1.1202  0.1715 -2.2902
 2919TIP3    H2 8722   5.189   5.435   4.628  0.6823 -0.2309  0.2788
 2920TIP3   OH2 8723   4.512   2.009   3.973  0.1689  0.3293  0.0589
 2920TIP3    H1 8724   4.465   2.085   4.006  2.3044  1.5539  0.4798
 2920TIP3    H2 8725   4.489   1.938   4.033 -1.0580  0.8983  0.2730
 2921TIP3   OH2 8726   3.559   6.413   5.113 -0.2652  0.1852  0.1042
 2921TIP3    H1 8727   3.506   6.434   5.036  1.4086 -0.6310 -1.3281
 2921TIP3    H2 8728   3.499   6.364   5.170 -1.7225  1.3701 -0.3475
 2922TIP3   OH2 8729   6.496   4.030   1.924 -0.1575  0.4676  0.1522
 2922TIP3    H1 8730   6.550   3.963   1.966 -0.2502  1.0559  1.2623
 2922TIP3    H2 8731   6.526   4.032   1.834  2.4464  1.5122  0.9521
 2923TIP3   OH2 8732   2.526   2.202   2.805  0.6683 -0.6217  0.5075
 2923TIP3    H1 8733   2.434   2.200   2.778  0.7045 -1.4931  0.4254
 2923TIP3    H2 8734   2.523   2.197   2.901  0.6273 -0.6244  0.5063
 2924TIP3   OH2 8735   4.388   3.630   1.279 -0.1051  0.4660  0.1348
 2924TIP3    H1 8736   4.465   3.671   1.241 -1.0358  0.8571 -1.4433
 2924TIP3    H2 8737   4.414   3.606   1.368  1.6321  1.0903 -0.1741
 2925TIP3   OH2 8738   0.439   5.219   2.285 -0.4680 -0.0416 -0.3820
 2925TIP3    H1 8739   0.427   5.307   2.321 -0.1877  0.4983 -1.5683
 2925TIP3    H2 8740   0.493   5.174   2.350 -0.9326  0.5331  0.4208
 2926TIP3   OH2 8741   5.722   6.122   2.379  0.3766 -0.0846  0.1810
 2926TIP3    H1 8742   5.790   6.062   2.350 -0.3873 -0.4425 -0.9446
 2926TIP3    H2 8743   5.739   6.203   2.332  1.9112  0.9399  2.3317
 2927TIP3   OH2 8744   0.088   2.322   2.788  0.2046  0.8017 -0.0399
 2927TIP3    H1 8745   0.078   2.416   2.772  1.9182  0.9683 -0.3608
 2927TIP3    H2 8746   0.179   2.303   2.764 -0.2411 -1.0478 -0.4703
 2928TIP3   OH2 8747   1.076   3.637   2.612  0.0839 -0.0442 -0.1586
 2928TIP3    H1 8748   1.115   3.723   2.602 -0.1728  0.2868  1.3971
 2928TIP3    H2 8749   0.995   3.652   2.662 -0.9901 -0.9557 -1.5425
 2929TIP3   OH2 8750   1.622   6.725   5.034 -0.3616 -0.7345 -0.5920
 2929TIP3    H1 8751   1.679   6.785   4.988  1.2045 -1.3502  0.4655
 2929TIP3    H2 8752   1.599   6.658   4.969 -1.6514  0.6397 -1.6095
 2930TIP3   OH2 8753   0.661   5.668   1.896  0.3951 -0.1606 -0.3932
 2930TIP3    H1 8754   0.597   5.646   1.827  0.9970  2.0477 -1.7424
 2930TIP3    H2 8755   0.733   5.607   1.881  0.1464 -0.2807 -1.1631
 2931TIP3   OH2 8756   5.666   3.329   2.087 -0.4060  0.5672  0.1100
 2931TIP3    H1 8757   5.614   3.330   2.167 -2.2968 -0.9576 -1.0104
 2931TIP3    H2 8758   5.724   3.253   2.097 -2.6329 -1.3995 -1.0539
 2932TIP3   OH2 8759   2.575   2.156   4.221 -0.1903 -0.5455 -0.2177
 2932TIP3    H1 8760   2.604   2.135   4.132 -1.1099  0.1905 -0.7087
 2932TIP3    H2 8761   2.645   2.211   4.256  0.1554 -0.7990 -0.4941
 2933TIP3   OH2 8762   5.279   0.839   5.620 -0.2550 -0.1561  0.2914
 2933TIP3    H1 8763   5.322   0.754   5.615 -1.5705 -0.8488  0.2002
 2933TIP3    H2 8764   5.310   0.878   5.701  1.0193 -0.3429 -0.0917
 2934TIP3   OH2 8765   5.393   6.540   4.771  0.1028  0.0474  0.2899
 2934TIP3    H1 8766   5.370   6.475   4.705  0.4311  0.8643 -0.6714
 2934TIP3    H2 8767   5.377   6.624   4.727  3.0830  0.6568  0.1618
 2935TIP3   OH2 8768   6.135   3.757   0.423 -0.0988  0.0324  0.1677
 2935TIP3    H1 8769   6.181   3.799   0.495  0.4980  0.4739 -0.4568
 2935TIP3    H2 8770   6.042   3.766   0.445  0.0488  0.9210  0.4584
 2936TIP3   OH2 8771   4.440   4.674   5.268  0.1946 -0.1552  0.3535
 2936TIP3    H1 8772   4.442   4.580   5.288 -1.6050 -0.2608  0.1457
 2936TIP3    H2 8773   4.348   4.697   5.270  0.5136  1.3564 -0.8325
 2937TIP3   OH2 8774   5.588   6.431   3.353 -1.1132  0.2564  0.0595
 2937TIP3    H1 8775   5.526   6.372   3.397 -0.1026 -2.6005 -2.0484
 2937TIP3    H2 8776   5.576   6.515   3.397 -2.9627 -1.3674  3.0297
 2938TIP3   OH2 8777   1.156   3.371   1.358 -0.3340 -0.4124 -0.1218
 2938TIP3    H1 8778   1.137   3.314   1.432  2.0642 -0.7323  0.3414
 2938TIP3    H2 8779   1.251   3.367   1.349 -0.3010  1.7947 -1.4917
 2939TIP3   OH2 8780   3.024   3.254   3.591 -0.1046 -0.4410  0.1033
 2939TIP3    H1 8781   3.077   3.330   3.615 -0.5143 -0.4130  0.9689
 2939TIP3    H2 8782   3.085   3.180   3.597 -0.0164 -0.3387  0.5330
 2940TIP3   OH2 8783   2.547   4.587   2.855 -0.2645 -0.3626  0.2053
 2940TIP3    H1 8784   2.583   4.606   2.942 -0.5148 -0.5004  0.3401
 2940TIP3    H2 8785   2.624   4.583   2.798 -0.1055 -0.1848  0.4028
 2941TIP3   OH2 8786   2.735   3.216   2.815  0.2221 -0.1702 -0.4540
 2941TIP3    H1 8787   2.820   3.254   2.795 -0.5981  1.6326 -0.7214
 2941TIP3    H2 8788   2.688   3.284   2.863 -0.0080 -2.2337  2.5472
 2942TIP3   OH2 8789   1.304   2.524   2.782 -0.1606 -0.0867  0.2280
 2942TIP3    H1 8790   1.395   2.545   2.805 -0.2276  1.1525 -0.5825
 2942TIP3    H2 8791   1.309   2.436   2.745  0.7568  0.0838 -0.0897
 2943TIP3   OH2 8792   2.913   1.088   4.533 -0.3420  0.3204 -0.0975
 2943TIP3    H1 8793   2.886   1.125   4.449 -1.4878 -0.5172 -0.1330
 2943TIP3    H2 8794   2.914   0.993   4.518 -1.4691  0.0911  1.0647
 2944TIP3   OH2 8795   5.658   4.071   4.585  0.1494  0.0351 -0.1690
 2944TIP3    H1 8796   5.565   4.092   4.577  0.6661  2.6414 -0.2262
 2944TIP3    H2 8797   5.668   4.040   4.675 -0.6837  0.2551  0.0067
 2945TIP3   OH2 8798   5.200   1.219   0.865 -0.0083 -0.0697  0.1007
 2945TIP3    H1 8799   5.189   1.131   0.901  2.0780 -0.8790 -1.1227
 2945TIP3    H2 8800   5.136   1.224   0.794  2.6533 -2.3491 -2.7528
 2946TIP3   OH2 8801   1.460   6.107   2.051 -0.0301 -0.0814 -0.2488
 2946TIP3    H1 8802   1.383   6.060   2.021 -1.1353  1.0382  0.7330
 2946TIP3    H2 8803   1.426   6.180   2.102  1.6838  0.2412  0.5231
 2947TIP3   OH2 8804   2.172   6.499   4.791  0.3253 -0.4406  0.4171
 2947TIP3    H1 8805   2.216   6.426   4.834  0.1928 -1.5879 -1.2890
 2947TIP3    H2 8806   2.115   6.457   4.726  0.2220  1.1810 -0.5933
 2948TIP3   OH2 8807   0.151   0.423   2.131  0.1736  0.0281 -0.3310
 2948TIP3    H1 8808   0.100   0.503   2.125 -1.3761 -0.9742 -1.1833
 2948TIP3    H2 8809   0.087   0.354   2.145  1.5026 -1.0473  0.7764
 2949TIP3   OH2 8810   1.905   2.465   5.190  0.4325 -0.5134 -0.5555
 2949TIP3    H1 8811   1.833   2.401   5.187  0.2278 -0.3805  0.8132
 2949TIP3    H2 8812   1.971   2.429   5.130 -0.7904 -0.5836 -1.9162
 2950TIP3   OH2 8813   3.168   0.937   1.248  0.4122  0.0404  0.1809
 2950TIP3    H1 8814   3.202   0.967   1.333  0.4313 -1.2257  0.6331
 2950TIP3    H2 8815   3.080   0.975   1.243  0.5844  0.5025  0.5534
 2951TIP3   OH2 8816   1.976   6.503   3.961 -0.2673 -0.4313 -0.6186
 2951TIP3    H1 8817   2.035   6.555   3.907  0.4459 -0.0992  0.4473
 2951TIP3    H2 8818   2.015   6.416   3.962  0.8863  0.0537  1.0046
 2952TIP3   OH2 8819   0.176   2.167   2.519 -0.6252  0.3128 -0.2422
 2952TIP3    H1 8820   0.246   2.166   2.585 -0.2323 -1.1203 -0.6384
 2952TIP3    H2 8821   0.157   2.260   2.506  1.3709  0.7784 -0.2624
 2953TIP3   OH2 8822   5.490   3.528   5.661  0.4393  0.2224 -0.8033
 2953TIP3    H1 8823   5.487   3.434   5.641 -1.6602  0.6377 -2.9054
 2953TIP3    H2 8824   5.541   3.566   5.589 -1.0169  0.9626 -1.4785
 2954TIP3   OH2 8825   6.964   3.672   0.140  0.0625 -0.8650  0.2885
 2954TIP3    H1 8826   6.946   3.749   0.194  1.0163 -0.6341  0.3019
 2954TIP3    H2 8827   6.930   3.598   0.192 -1.5396 -0.4036 -0.0679
 2955TIP3   OH2 8828   5.437   0.627   3.340  0.2554 -0.0865  0.4717
 2955TIP3    H1 8829   5.530   0.632   3.321  0.1507 -0.4750 -0.1891
 2955TIP3    H2 8830   5.430   0.563   3.410  0.3741 -1.1852 -0.4843
 2956TIP3   OH2 8831   3.108   1.160   1.738 -0.1698 -0.2873 -0.1246
 2956TIP3    H1 8832   3.107   1.250   1.770 -0.9232 -0.5515  0.6155
 2956TIP3    H2 8833   3.050   1.161   1.662  0.8633  0.1254 -0.9413
 2957TIP3   OH2 8834   0.787   4.603   4.769  0.2037  0.5299 -0.0501
 2957TIP3    H1 8835   0.794   4.520   4.722  1.1655  0.7997 -0.4111
 2957TIP3    H2 8836   0.833   4.666   4.713  1.7540  0.7749  1.4286
 2958TIP3   OH2 8837   5.574   0.999   5.781  0.3447  0.2052  0.1402
 2958TIP3    H1 8838   5.514   0.994   5.856 -2.5169 -3.6127 -2.0014
 2958TIP3    H2 8839   5.640   0.932   5.799  1.4240  1.3502  0.5216
 2959TIP3   OH2 8840   5.406   3.250   2.322 -0.5220 -0.7667  0.0269
 2959TIP3    H1 8841   5.483   3.193   2.319  0.7456  0.6945  2.2889
 2959TIP3    H2 8842   5.360   3.224   2.402 -1.1749 -0.1568 -0.1442
 2960TIP3   OH2 8843   0.857   5.881   5.244 -0.3283 -0.4230  0.6064
 2960TIP3    H1 8844   0.847   5.789   5.268  0.1721 -2.3433 -5.0619
 2960TIP3    H2 8845   0.768   5.912   5.227 -0.3381 -0.7658  0.0039
 2961TIP3   OH2 8846   1.680   6.276   1.918  0.0219  0.1927  0.0647
 2961TIP3    H1 8847   1.608   6.256   1.977  1.0751 -1.0186  0.9905
 2961TIP3    H2 8848   1.676   6.371   1.907 -1.4769  0.1807  0.3861
 2962TIP3   OH2 8849   4.427   1.570   2.442  0.3317 -0.3072 -0.2493
 2962TIP3    H1 8850   4.511   1.603   2.475  0.0499 -1.3356  1.6457
 2962TIP3    H2 8851   4.390   1.521   2.515 -2.7170  1.4491 -0.4778
 2963TIP3   OH2 8852   0.820   6.787   3.024  0.1182  0.1780 -0.0997
 2963TIP3    H1 8853   0.869   6.715   2.985  0.5005 -0.4366  1.4249
 2963TIP3    H2 8854   0.783   6.835   2.950 -1.4375 -2.4719 -1.1661
 2964TIP3   OH2 8855   3.714   5.378   2.576  0.7729  0.3258 -0.6804
 2964TIP3    H1 8856   3.804   5.410   2.580  1.0418 -0.4380 -0.4348
 2964TIP3    H2 8857   3.662   5.446   2.619  1.5816 -0.4594  1.7104
 2965TIP3   OH2 8858   4.479   1.952   3.291 -0.4874 -0.1106 -0.0142
 2965TIP3    H1 8859   4.507   1.873   3.244 -0.7088  0.8589 -1.8993
 2965TIP3    H2 8860   4.395   1.927   3.331 -1.0433 -0.5900 -1.3867
 2966TIP3   OH2 8861   2.733   4.513   0.997  0.2921 -0.3445  0.0643
 2966TIP3    H1 8862   2.755   4.436   1.051 -0.2890 -0.1778  0.5580
 2966TIP3    H2 8863   2.817   4.556   0.982  0.9351 -2.1160 -1.8957
 2967TIP3   OH2 8864   4.015   0.789   3.812  0.1592 -0.3196 -0.0356
 2967TIP3    H1 8865   3.925   0.784   3.780  0.3421  0.6522 -0.7345
 2967TIP3    H2 8866   4.049   0.700   3.801 -0.8592 -0.8194  0.7179
 2968TIP3   OH2 8867   2.912   1.849   1.187  0.3723 -0.7572  0.1018
 2968TIP3    H1 8868   2.903   1.821   1.278  1.8951 -1.1575  0.1609
 2968TIP3    H2 8869   2.892   1.943   1.188 -1.2272 -1.0901  0.5444
 2969TIP3   OH2 8870   2.563   1.999   3.359 -0.3630 -0.4840  0.1373
 2969TIP3    H1 8871   2.627   2.059   3.398  0.9104 -0.4509 -1.8798
 2969TIP3    H2 8872   2.601   1.912   3.372  0.7451 -0.3933 -2.0384
 2970TIP3   OH2 8873   1.196   5.893   4.170 -0.3844  0.1277 -0.2119
 2970TIP3    H1 8874   1.231   5.932   4.250 -2.6062  0.5046  0.6602
 2970TIP3    H2 8875   1.184   5.800   4.192 -0.8660  0.2045 -0.1233
 2971TIP3   OH2 8876   6.254   4.209   0.574 -0.3066 -0.4446  0.2650
 2971TIP3    H1 8877   6.218   4.195   0.487 -1.6520 -2.9365  1.1355
 2971TIP3    H2 8878   6.178   4.222   0.631  0.5461  1.2804  1.0998
 2972TIP3   OH2 8879   0.212   5.719   5.509 -0.0133  0.1524  0.2300
 2972TIP3    H1 8880   0.143   5.653   5.518 -0.8685  1.1364  1.2086
 2972TIP3    H2 8881   0.171   5.791   5.461  0.9607 -0.0620 -0.9885
 2973TIP3   OH2 8882   6.251   3.557   4.653  0.1163 -0.1886 -0.1359
 2973TIP3    H1 8883   6.344   3.536   4.642  0.2517  1.1436 -2.1053
 2973TIP3    H2 8884   6.251   3.648   4.684 -0.4881  0.2598 -1.3605
 2974TIP3   OH2 8885   5.451   6.576   0.469 -0.2707  0.2434 -0.3611
 2974TIP3    H1 8886   5.463   6.641   0.538 -1.9046  0.1274  0.0743
 2974TIP3    H2 8887   5.426   6.496   0.516  1.0394 -0.5266 -0.9349
 2975TIP3   OH2 8888   7.132   4.141   5.831 -0.1009  0.3823  0.2128
 2975TIP3    H1 8889   7.107   4.196   5.904 -0.1459  0.3772  0.2016
 2975TIP3    H2 8890   7.049   4.107   5.797 -0.0132 -0.5915  0.9188
 2976TIP3   OH2 8891   3.952   0.891   2.489  0.3655  0.4888 -0.1278
 2976TIP3    H1 8892   3.975   0.974   2.448 -0.8725  1.9781  2.0126
 2976TIP3    H2 8893   3.879   0.912   2.547  0.4605 -1.9652  1.0119
 2977TIP3   OH2 8894   0.912   5.901   3.742 -0.6928 -0.0677 -0.0515
 2977TIP3    H1 8895   0.958   5.983   3.761 -0.3992 -0.1750 -0.2853
 2977TIP3    H2 8896   0.845   5.894   3.810  0.0019 -0.1881  0.6337
 2978TIP3   OH2 8897   3.383   1.193   3.103  0.2084  0.2004  0.0771
 2978TIP3    H1 8898   3.334   1.262   3.058 -0.4283 -0.1587  0.2087
 2978TIP3    H2 8899   3.461   1.237   3.136 -0.0450  0.7930 -0.0980
 2979TIP3   OH2 8900   2.508   3.972   1.236  0.0836  0.4381 -0.2559
 2979TIP3    H1 8901   2.515   4.027   1.314  1.6049  0.2588 -0.2301
 2979TIP3    H2 8902   2.598   3.951   1.214 -0.4253 -3.2676  0.5987
 2980TIP3   OH2 8903   6.128   1.944   0.459  0.2314 -0.2667 -0.0578
 2980TIP3    H1 8904   6.156   1.990   0.539 -0.0581  0.8501 -0.5852
 2980TIP3    H2 8905   6.046   1.986   0.434  0.1249 -0.8585 -0.7556
 2981TIP3   OH2 8906   4.797   0.580   4.512 -0.7233  0.0144  0.1836
 2981TIP3    H1 8907   4.712   0.538   4.495 -0.9083  0.9816 -1.5207
 2981TIP3    H2 8908   4.819   0.623   4.429 -0.3803  2.9226  1.6520
 2982TIP3   OH2 8909   2.255   5.560   0.307 -0.8934 -0.2218 -0.1136
 2982TIP3    H1 8910   2.331   5.548   0.363 -1.4495 -2.0993  0.3165
 2982TIP3    H2 8911   2.186   5.589   0.367 -0.9113 -0.0012 -0.2387
 2983TIP3   OH2 8912   4.036   4.698   5.795 -0.1386  0.1844 -0.2212
 2983TIP3    H1 8913   4.008   4.648   5.872 -0.1794  0.9249  0.2518
 2983TIP3    H2 8914   3.956   4.709   5.743  0.0215 -0.9039 -0.7166
 2984TIP3   OH2 8915   0.899   3.144   4.170  0.6017 -0.0343 -0.0734
 2984TIP3    H1 8916   0.978   3.099   4.138  0.2157  0.1745 -1.3973
 2984TIP3    H2 8917   0.916   3.237   4.156  0.0852  0.0055 -0.4674
 2985TIP3   OH2 8918   6.408   0.354   4.125 -0.2721  0.4291 -0.0857
 2985TIP3    H1 8919   6.453   0.422   4.175  1.2524  1.6631 -2.8940
 2985TIP3    H2 8920   6.316   0.379   4.128 -0.1579  0.7569  1.5728
 2986TIP3   OH2 8921   1.209   5.359   5.228  0.2253 -0.1240 -0.4592
 2986TIP3    H1 8922   1.142   5.427   5.235 -1.3317 -1.3722 -2.2451
 2986TIP3    H2 8923   1.285   5.395   5.273 -0.8637  2.3706 -0.4784
 2987TIP3   OH2 8924   5.746   3.903   4.803  0.8055 -0.3504  0.5780
 2987TIP3    H1 8925   5.713   3.899   4.893  0.8881 -0.8401  0.5861
 2987TIP3    H2 8926   5.808   3.831   4.796 -0.6883 -1.5865 -0.4799
 2988TIP3   OH2 8927   0.564   6.708   3.684  0.1663  0.0138 -0.2587
 2988TIP3    H1 8928   0.488   6.758   3.653 -0.9353 -1.5430 -0.2451
 2988TIP3    H2 8929   0.629   6.717   3.615 -0.9259 -0.5014 -1.4056
 2989TIP3   OH2 8930   0.346   2.023   2.085  0.5424 -0.4595  0.1709
 2989TIP3    H1 8931   0.273   2.019   2.147  1.0328  0.7053  0.8664
 2989TIP3    H2 8932   0.340   1.942   2.035 -0.5822 -0.8757  0.9407
 2990TIP3   OH2 8933   3.033   0.750   1.628 -0.4483  0.0783  0.5731
 2990TIP3    H1 8934   2.972   0.683   1.599  1.1909 -1.9042  1.4927
 2990TIP3    H2 8935   3.088   0.707   1.693  3.3454  1.0273 -1.7151
 2991TIP3   OH2 8936   4.930   2.259   4.702 -0.1647 -0.3109  0.3913
 2991TIP3    H1 8937   5.025   2.263   4.692 -0.2784 -1.0616 -1.3207
 2991TIP3    H2 8938   4.898   2.340   4.663 -0.2787 -0.3989  0.3030
 2992TIP3   OH2 8939   1.519   3.546   0.109  0.3034 -0.0074  0.3937
 2992TIP3    H1 8940   1.596   3.564   0.055 -1.1212  3.1102 -0.8092
 2992TIP3    H2 8941   1.478   3.470   0.068  1.4272 -0.2120 -0.3970
 2993TIP3   OH2 8942   3.793   6.822   2.643 -0.2094 -0.2854 -0.1978
 2993TIP3    H1 8943   3.786   6.772   2.562 -2.0322  2.4049 -1.8821
 2993TIP3    H2 8944   3.736   6.778   2.705 -0.7624 -1.0043 -1.1983
 2994TIP3   OH2 8945   5.437   5.199   4.035 -0.3134 -0.2313 -0.1825
 2994TIP3    H1 8946   5.519   5.223   4.080 -0.6011  0.9927 -0.2739
 2994TIP3    H2 8947   5.423   5.270   3.972 -1.0715 -0.8049 -0.6665
 2995TIP3   OH2 8948   4.060   5.581   4.329 -0.3034 -0.2164  0.3290
 2995TIP3    H1 8949   3.996   5.549   4.392 -0.8781 -1.4544 -0.8324
 2995TIP3    H2 8950   4.088   5.666   4.364 -2.0478  0.0305  1.2242
 2996TIP3   OH2 8951   0.987   6.517   2.320 -0.2471 -0.4628  0.0894
 2996TIP3    H1 8952   0.917   6.530   2.385  0.3693 -0.0415  0.6835
 2996TIP3    H2 8953   0.966   6.433   2.279 -0.8179 -0.5880  0.6222
 2997TIP3   OH2 8954   4.693   2.783   5.238 -0.1858 -0.3513  0.8414
 2997TIP3    H1 8955   4.731   2.796   5.151 -1.1285 -0.9004  0.3339
 2997TIP3    H2 8956   4.688   2.871   5.275 -0.6911  0.0041 -0.0537
 2998TIP3   OH2 8957   0.103   1.558   4.941 -0.3214  0.6080  0.5066
 2998TIP3    H1 8958   0.021   1.523   4.905 -0.0882 -1.8763  2.0973
 2998TIP3    H2 8959   0.171   1.507   4.897  0.8204  4.7108 -3.1415
 2999TIP3   OH2 8960   6.816   2.581   1.425 -0.2601 -0.5658 -0.2183
 2999TIP3    H1 8961   6.878   2.647   1.456 -1.9181  1.0467 -0.1374
 2999TIP3    H2 8962   6.761   2.562   1.501  0.2982 -2.2276 -0.1884
 3000TIP3   OH2 8963   6.218   5.096   3.645 -0.3161 -0.4762  0.2646
 3000TIP3    H1 8964   6.226   5.112   3.551 -0.0421  1.5553  0.5924
 3000TIP3    H2 8965   6.134   5.136   3.669  0.2553  0.2439  1.1141
 3001TIP3   OH2 8966   3.611   3.026   2.127 -0.1069 -0.3460  0.5303
 3001TIP3    H1 8967   3.548   3.060   2.191  1.3958 -0.6265  2.2295
 3001TIP3    H2 8968   3.603   2.931   2.134 -0.2084 -0.3749  0.0188
 3002TIP3   OH2 8969   4.846   1.446   0.903 -0.4159  0.4855  0.9312
 3002TIP3    H1 8970   4.813   1.533   0.883 -0.4181  0.3200  0.1521
 3002TIP3    H2 8971   4.771   1.400   0.941 -1.2264  0.0305 -1.0603
 3003TIP3   OH2 8972   3.066   4.309   2.717 -0.2244 -0.4703  0.0405
 3003TIP3    H1 8973   3.054   4.392   2.670 -3.4123 -0.4344  0.6792
 3003TIP3    H2 8974   3.046   4.242   2.652 -0.2752 -0.5997  0.1884
 3004TIP3   OH2 8975   1.521   4.520   1.962 -0.2761 -0.0114 -0.0637
 3004TIP3    H1 8976   1.496   4.530   1.870 -2.3411  0.4300  0.5097
 3004TIP3    H2 8977   1.533   4.609   1.993 -1.9295 -0.0094  0.6701
 3005TIP3   OH2 8978   0.754   5.933   2.215  0.2565  0.2417 -0.6994
 3005TIP3    H1 8979   0.673   5.910   2.170  0.1926 -0.7772 -0.0938
 3005TIP3    H2 8980   0.814   5.861   2.196  1.3124  1.3410 -1.7854
 3006TIP3   OH2 8981   3.638   1.850   0.847  0.1902 -0.0566 -0.1414
 3006TIP3    H1 8982   3.656   1.805   0.764  0.8692 -2.7756  1.3476
 3006TIP3    H2 8983   3.543   1.856   0.851  0.1206 -0.5821 -0.8190
 3007TIP3   OH2 8984   3.456   6.484   3.195 -0.6121 -0.0968  0.0026
 3007TIP3    H1 8985   3.510   6.547   3.243 -0.9357 -1.2773  2.0544
 3007TIP3    H2 8986   3.484   6.493   3.104  1.3197  1.0322  0.6361
 3008TIP3   OH2 8987   0.126   2.198   3.036 -0.4138  0.2428 -0.0797
 3008TIP3    H1 8988   0.136   2.241   2.951  1.3045  1.1157  0.5053
 3008TIP3    H2 8989   0.151   2.107   3.020  1.6132  0.7648 -0.2263
 3009TIP3   OH2 8990   4.888   0.989   4.838 -0.1607 -0.0393  0.2792
 3009TIP3    H1 8991   4.939   0.929   4.785  0.2905  1.6821 -1.3455
 3009TIP3    H2 8992   4.941   1.004   4.916  1.5234  1.1424 -1.0390
 3010TIP3   OH2 8993   4.609   3.086   5.834  0.4506 -0.2806 -0.2041
 3010TIP3    H1 8994   4.608   3.148   5.907 -0.8473  0.2496 -0.6365
 3010TIP3    H2 8995   4.646   3.006   5.870  1.9870  0.6715  0.4157
 3011TIP3   OH2 8996   3.190   3.204   3.152 -0.0055  0.0664  0.4325
 3011TIP3    H1 8997   3.258   3.152   3.195 -0.1474  0.5364  1.2413
 3011TIP3    H2 8998   3.211   3.295   3.175 -0.1510  0.3258 -0.4077
 3012TIP3   OH2 8999   3.498   4.386   0.720  0.0162 -0.1856  0.4726
 3012TIP3    H1 9000   3.434   4.450   0.688  0.6911  0.4910  0.4586
 3012TIP3    H2 9001   3.527   4.339   0.642  0.4873  0.3868  0.2983
 3013TIP3   OH2 9002   5.733   3.500   0.873 -0.0472 -0.0719  0.1143
 3013TIP3    H1 9003   5.640   3.479   0.865 -0.2918  1.1730 -0.5062
 3013TIP3    H2 9004   5.764   3.509   0.783  0.2636  1.2223  0.3269
 3014TIP3   OH2 9005   6.413   5.702   0.859 -0.1132  0.4393 -0.0830
 3014TIP3    H1 9006   6.422   5.788   0.901 -0.2168  0.0207  0.7956
 3014TIP3    H2 9007   6.319   5.685   0.859 -0.3827  1.4622 -2.5923
 3015TIP3   OH2 9008   5.350   3.561   4.449 -0.1078 -0.3036 -0.0274
 3015TIP3    H1 9009   5.413   3.576   4.379  0.2629 -0.4000  0.2844
 3015TIP3    H2 9010   5.398   3.578   4.530 -0.9240  1.2180  0.1698
 3016TIP3   OH2 9011   5.261   4.134   0.604  0.1808 -0.4445 -0.0791
 3016TIP3    H1 9012   5.298   4.122   0.691 -1.9677 -1.9629  0.7265
 3016TIP3    H2 9013   5.269   4.048   0.562  0.3393  0.0138 -1.0173
 3017TIP3   OH2 9014   0.992   1.940   2.105  0.6331 -0.1398  0.3024
 3017TIP3    H1 9015   0.957   1.961   2.192  0.2973  1.0161 -0.0896
 3017TIP3    H2 9016   1.072   1.891   2.123  0.0087 -0.8604  1.2426
 3018TIP3   OH2 9017   1.982   4.540   4.450  0.3567  0.2600 -0.2343
 3018TIP3    H1 9018   1.933   4.621   4.437  0.1216 -0.0504 -1.4521
 3018TIP3    H2 9019   1.970   4.519   4.542 -2.9044 -0.4978 -0.7091
 3019TIP3   OH2 9020   3.666   1.212   5.891  0.2903  0.2599  0.0705
 3019TIP3    H1 9021   3.739   1.185   5.835 -0.3087 -0.2522 -0.4792
 3019TIP3    H2 9022   3.602   1.249   5.831 -0.9184 -1.4924  0.1977
 3020TIP3   OH2 9023   2.788   2.102   3.009  0.6880 -0.3205  0.4918
 3020TIP3    H1 9024   2.806   2.061   2.924  1.8880  0.6586  0.2451
 3020TIP3    H2 9025   2.836   2.048   3.072 -0.2915 -1.1119  0.5764
 3021TIP3   OH2 9026   0.407   3.889   2.230 -0.2554 -0.6247  0.0424
 3021TIP3    H1 9027   0.488   3.849   2.199  1.2572  0.5816  2.1975
 3021TIP3    H2 9028   0.381   3.950   2.160  2.4410  1.2613  0.5491
 3022TIP3   OH2 9029   5.940   1.613   2.417  0.1539  0.4035  0.0646
 3022TIP3    H1 9030   5.933   1.539   2.358  0.3677 -0.8384  1.5276
 3022TIP3    H2 9031   5.928   1.690   2.361  0.5375 -0.6914 -1.5884
 3023TIP3   OH2 9032   0.423   1.810   3.534  0.4346 -0.1637 -0.3897
 3023TIP3    H1 9033   0.333   1.825   3.560  0.7940  1.2259  0.1744
 3023TIP3    H2 9034   0.451   1.734   3.584 -0.3232 -0.4192 -0.3498
 3024TIP3   OH2 9035   5.949   0.816   3.880 -0.0097  0.4687 -0.1208
 3024TIP3    H1 9036   5.855   0.831   3.889  0.0864  0.7246  0.5353
 3024TIP3    H2 9037   5.976   0.783   3.966  0.5558  0.7012 -0.2089
 3025TIP3   OH2 9038   5.287   1.669   4.990  0.2971 -0.2384  0.3396
 3025TIP3    H1 9039   5.239   1.591   4.961 -0.0329 -0.3424  1.1372
 3025TIP3    H2 9040   5.220   1.738   4.994  0.6637  0.2080 -0.7667
 3026TIP3   OH2 9041   2.555   6.750   0.236 -0.1319 -0.3343  0.4055
 3026TIP3    H1 9042   2.475   6.725   0.190  0.4117  0.3038 -0.9226
 3026TIP3    H2 9043   2.572   6.839   0.208  0.8665 -0.3402  0.9455
 3027TIP3   OH2 9044   3.156   3.044   4.204 -0.3544  0.1773 -0.4064
 3027TIP3    H1 9045   3.104   3.016   4.128  0.1062 -0.5912 -0.4509
 3027TIP3    H2 9046   3.243   3.060   4.170 -0.3434  0.6087 -0.1781
 3028TIP3   OH2 9047   5.891   1.554   1.737  0.3622  0.6583 -0.1118
 3028TIP3    H1 9048   5.962   1.570   1.675  0.8756 -0.5229  0.1546
 3028TIP3    H2 9049   5.814   1.542   1.681  0.8305 -0.4532 -0.5507
 3029TIP3   OH2 9050   3.748   0.749   4.711 -0.4594  0.4139 -0.4046
 3029TIP3    H1 9051   3.661   0.721   4.684 -0.4682 -2.0826  1.7791
 3029TIP3    H2 9052   3.734   0.828   4.762 -1.0977  1.5067 -2.2005
 3030TIP3   OH2 9053   3.363   0.964   4.126 -0.3534  0.4261  0.3385
 3030TIP3    H1 9054   3.302   1.035   4.104  1.2557  1.5534 -0.6723
 3030TIP3    H2 9055   3.364   0.908   4.049 -2.3964 -1.3852  1.4980
 3031TIP3   OH2 9056   1.676   0.232   0.321 -0.9009 -0.3994 -0.1348
 3031TIP3    H1 9057   1.669   0.153   0.375  1.8258 -0.4975  0.2377
 3031TIP3    H2 9058   1.670   0.200   0.231 -0.3363 -0.9887  0.0233
 3032TIP3   OH2 9059   6.010   4.512   3.177 -0.2510  0.4642 -0.1996
 3032TIP3    H1 9060   5.960   4.430   3.170 -1.2152  0.7695  2.0028
 3032TIP3    H2 9061   6.029   4.520   3.271  1.1286  2.0277 -0.5666
 3033TIP3   OH2 9062   4.485   5.252   3.257  0.3939  0.4596  0.4308
 3033TIP3    H1 9063   4.398   5.228   3.226  1.1859 -0.9560 -0.8299
 3033TIP3    H2 9064   4.481   5.347   3.269 -0.7438  0.7181 -1.5748
 3034TIP3   OH2 9065   2.872   6.206   5.250  0.1616 -0.7618 -0.6753
 3034TIP3    H1 9066   2.922   6.209   5.331 -0.0753  0.0689 -0.5479
 3034TIP3    H2 9067   2.781   6.210   5.279  0.0839 -0.1205 -0.9840
 3035TIP3   OH2 9068   1.088   2.815   4.610  0.9413 -0.0092 -0.2327
 3035TIP3    H1 9069   1.140   2.774   4.679  0.3048 -0.9912 -0.3052
 3035TIP3    H2 9070   1.077   2.905   4.638  0.3772 -0.4820  1.1632
 3036TIP3   OH2 9071   4.810   0.649   2.429  0.1511  0.2740 -0.8106
 3036TIP3    H1 9072   4.878   0.664   2.495  1.3758 -1.2186 -1.6682
 3036TIP3    H2 9073   4.735   0.702   2.459  0.4411 -0.7530  2.0793
 3037TIP3   OH2 9074   0.974   4.125   4.599  0.5054 -0.0623  0.0502
 3037TIP3    H1 9075   1.038   4.146   4.531  0.8772  1.8899  0.9550
 3037TIP3    H2 9076   1.024   4.126   4.680 -0.1375 -1.3756  0.5066
 3038TIP3   OH2 9077   3.240   0.833   0.960 -0.3744 -0.1231 -0.2942
 3038TIP3    H1 9078   3.214   0.925   0.963 -1.5259 -0.4456 -0.1269
 3038TIP3    H2 9079   3.223   0.806   0.869  0.1266 -0.1407 -0.3907
 3039TIP3   OH2 9080   6.731   0.285   1.594 -0.5326  0.3981  0.2608
 3039TIP3    H1 9081   6.692   0.370   1.576 -4.3044 -1.3221 -0.4732
 3039TIP3    H2 9082   6.779   0.263   1.514  2.4727  2.5998  1.2367
 3040TIP3   OH2 9083   5.565   5.362   1.944  0.0062 -0.1893  0.5509
 3040TIP3    H1 9084   5.660   5.370   1.936  0.0711 -1.8626 -0.7320
 3040TIP3    H2 9085   5.552   5.328   2.033  0.5369  0.8044  1.0220
 3041TIP3   OH2 9086   1.197   4.724   4.285  0.0582 -0.0365  0.6657
 3041TIP3    H1 9087   1.212   4.799   4.343  1.0638 -1.1292  1.8970
 3041TIP3    H2 9088   1.273   4.668   4.298  0.2400 -0.4251 -1.6370
 3042TIP3   OH2 9089   2.691   3.043   5.574 -0.0192 -1.0265 -0.2633
 3042TIP3    H1 9090   2.674   3.136   5.554 -1.8197 -1.7320 -2.4391
 3042TIP3    H2 9091   2.719   3.006   5.490 -2.3748 -3.0348 -0.2792
 3043TIP3   OH2 9092   6.461   2.823   1.473 -0.1753  0.5722  0.3676
 3043TIP3    H1 9093   6.418   2.890   1.419  0.1122 -0.2190 -0.8682
 3043TIP3    H2 9094   6.537   2.796   1.422  1.0307  0.9376  1.8989
 3044TIP3   OH2 9095   2.946   1.631   3.728  0.0763  0.1169  0.8107
 3044TIP3    H1 9096   3.016   1.610   3.666 -0.8193  0.9216 -0.5082
 3044TIP3    H2 9097   2.865   1.617   3.679 -0.7300 -0.9766  2.3587
 3045TIP3   OH2 9098   2.365   3.119   1.235 -0.1320  0.2342  0.0694
 3045TIP3    H1 9099   2.329   3.143   1.149 -1.9695  1.2738  1.0717
 3045TIP3    H2 9100   2.358   3.199   1.287 -1.4383 -1.0180  1.9397
 3046TIP3   OH2 9101   1.600   5.181   3.832 -0.2747 -0.3610  0.4162
 3046TIP3    H1 9102   1.644   5.265   3.846  0.2923 -0.7549  1.0461
 3046TIP3    H2 9103   1.667   5.126   3.792 -1.0128 -0.1502 -1.2142
 3047TIP3   OH2 9104   6.685   1.946   2.459  0.3831  0.1658  0.4957
 3047TIP3    H1 9105   6.709   1.904   2.377 -0.7072  0.3423  0.0624
 3047TIP3    H2 9106   6.597   1.912   2.478  1.1353 -0.9416  2.3120
 3048TIP3   OH2 9107   1.342   0.822   2.908 -0.0286 -0.4380  0.2971
 3048TIP3    H1 9108   1.294   0.819   2.825  0.1139  1.0290  0.1426
 3048TIP3    H2 9109   1.382   0.909   2.910  0.9336 -0.8793  1.3762
 3049TIP3   OH2 9110   3.866   3.159   0.703  0.4688 -0.0848  0.1339
 3049TIP3    H1 9111   3.956   3.191   0.714  0.4492 -0.1026  0.3483
 3049TIP3    H2 9112   3.874   3.084   0.644  0.6393 -0.3100  0.4422
 3050TIP3   OH2 9113   4.558   0.698   5.001  0.3062  0.1767 -0.4634
 3050TIP3    H1 9114   4.471   0.724   5.030  0.1517 -2.2081  1.6225
 3050TIP3    H2 9115   4.609   0.691   5.081  2.4386  1.4139 -1.6264
 3051TIP3   OH2 9116   1.608   0.438   3.167 -0.1921 -0.0850 -0.5641
 3051TIP3    H1 9117   1.616   0.404   3.256  0.5215  3.2500  0.7819
 3051TIP3    H2 9118   1.516   0.421   3.144 -0.8062  0.2395  1.4218
 3052TIP3   OH2 9119   0.756   6.608   1.095  0.6261 -0.1403 -0.3132
 3052TIP3    H1 9120   0.806   6.686   1.116  0.8910  0.0122 -1.4550
 3052TIP3    H2 9121   0.819   6.548   1.055 -0.1508  0.2860 -2.3334
 3053TIP3   OH2 9122   2.782   6.244   0.009 -0.6333  0.6306  0.6070
 3053TIP3    H1 9123   2.738   6.159   0.008 -0.2620  0.4386 -0.8484
 3053TIP3    H2 9124   2.819   6.250   0.097  1.2454 -1.7353  0.0735
 3054TIP3   OH2 9125   2.124   0.800   5.546 -0.1919 -0.0406  0.5306
 3054TIP3    H1 9126   2.208   0.838   5.573 -0.3953  0.5539  0.3440
 3054TIP3    H2 9127   2.121   0.715   5.590  0.1782  0.2501  1.1252
 3055TIP3   OH2 9128   2.652   0.237   0.941  0.0395 -0.0389 -0.7001
 3055TIP3    H1 9129   2.573   0.201   0.981  0.4065  0.0354  0.1128
 3055TIP3    H2 9130   2.642   0.219   0.848 -1.9126  1.7741 -0.9248
 3056TIP3   OH2 9131   5.616   1.414   3.639  0.0411  0.2180 -0.9381
 3056TIP3    H1 9132   5.710   1.397   3.630  0.2558  1.6259 -1.5383
 3056TIP3    H2 9133   5.579   1.391   3.554  0.1376  1.3944 -1.3160
 3057TIP3   OH2 9134   5.991   3.133   4.322 -0.1312 -0.6629 -0.4375
 3057TIP3    H1 9135   5.941   3.188   4.261  0.3775  1.2663  0.7951
 3057TIP3    H2 9136   5.951   3.148   4.407 -0.0969 -2.4102 -0.0862
 3058TIP3   OH2 9137   6.363   4.595   2.717  0.3368  0.3278  0.1638
 3058TIP3    H1 9138   6.447   4.600   2.672 -0.5590 -1.1263 -1.8505
 3058TIP3    H2 9139   6.370   4.516   2.770  0.1227 -0.0368 -0.3388
 3059TIP3   OH2 9140   6.824   2.986   0.854 -0.4596  0.2576 -0.1734
 3059TIP3    H1 9141   6.865   2.934   0.924  0.4239 -2.4354 -2.4891
 3059TIP3    H2 9142   6.882   3.061   0.843  0.0636  0.0732  1.1052
 3060TIP3   OH2 9143   4.617   2.459   2.029  0.2268 -0.5496 -0.0164
 3060TIP3    H1 9144   4.522   2.453   2.039  0.3484  0.0833  1.7654
 3060TIP3    H2 9145   4.634   2.551   2.011  0.5090 -0.7110 -0.6308
 3061TIP3   OH2 9146   4.077   0.021   2.043 -0.1779 -0.0480 -0.0893
 3061TIP3    H1 9147   4.025  -0.021   2.111 -0.4679  0.0202 -0.2633
 3061TIP3    H2 9148   4.168   0.011   2.071 -0.3647  1.9129  1.4507
 3062TIP3   OH2 9149   1.631   4.888   1.915 -1.0060  0.2510 -0.6366
 3062TIP3    H1 9150   1.542   4.908   1.946 -0.6049  1.2040 -0.0737
 3062TIP3    H2 9151   1.661   4.817   1.972 -1.3781 -0.0343 -0.7902
 3063TIP3   OH2 9152   2.700   0.002   4.917  0.3509  0.3312  0.3827
 3063TIP3    H1 9153   2.766   0.071   4.908 -0.7880  1.8061  2.4367
 3063TIP3    H2 9154   2.620   0.048   4.940 -0.4109 -1.6917  2.0926
 3064TIP3   OH2 9155   3.110   5.234   0.615 -0.0612 -0.0882  0.2655
 3064TIP3    H1 9156   3.068   5.250   0.530 -1.8077 -1.9184  0.6997
 3064TIP3    H2 9157   3.115   5.138   0.621  0.3108  0.0159  2.0918
 3065TIP3   OH2 9158   5.093   6.176   4.779 -0.0560 -0.3836  0.0046
 3065TIP3    H1 9159   5.086   6.265   4.814  1.3492  0.2506 -1.2081
 3065TIP3    H2 9160   5.160   6.134   4.833 -0.7550 -0.7461  0.6091
 3066TIP3   OH2 9161   0.681   3.613   5.190  0.3787  0.1468 -0.1898
 3066TIP3    H1 9162   0.722   3.673   5.252 -0.6961 -0.3576  1.0495
 3066TIP3    H2 9163   0.701   3.526   5.224  1.0002 -0.1996 -1.3744
 3067TIP3   OH2 9164   7.000   0.838   4.175 -0.0380  0.4371 -0.1661
 3067TIP3    H1 9165   7.081   0.869   4.133 -0.0812  0.5391 -0.1748
 3067TIP3    H2 9166   7.017   0.746   4.194 -0.1415  0.2970 -0.7186
 3068TIP3   OH2 9167   0.090   4.165   2.327 -0.2228 -0.0969 -0.0343
 3068TIP3    H1 9168   0.120   4.253   2.306 -1.5675  0.0252 -1.5653
 3068TIP3    H2 9169   0.025   4.144   2.261 -1.0949 -1.6469  1.2245
 3069TIP3   OH2 9170   1.578   5.304   4.597 -0.2588 -0.2771  0.1464
 3069TIP3    H1 9171   1.650   5.341   4.648 -1.5632  1.8464  0.5853
 3069TIP3    H2 9172   1.604   5.214   4.579  2.1084  0.1816  0.9902
 3070TIP3   OH2 9173   3.275   6.716   4.814  0.0225  0.3986  0.2633
 3070TIP3    H1 9174   3.200   6.659   4.830  1.7822 -2.3195 -0.4887
 3070TIP3    H2 9175   3.318   6.724   4.900  1.0085 -1.3919 -0.0167
 3071TIP3   OH2 9176   0.655   1.789   5.767  0.7121  0.3044 -0.2721
 3071TIP3    H1 9177   0.735   1.840   5.772  0.2561  1.0697 -0.5672
 3071TIP3    H2 9178   0.644   1.753   5.854  1.6809 -0.2916 -0.3802
 3072TIP3   OH2 9179   1.898   5.424   2.473  0.4317  0.3339 -0.0361
 3072TIP3    H1 9180   1.967   5.425   2.406  0.3650 -0.8546 -0.1461
 3072TIP3    H2 9181   1.823   5.467   2.431  0.7023  0.4835 -0.3708
 3073TIP3   OH2 9182   5.993   1.816   3.163  0.2724  0.2469 -0.7003
 3073TIP3    H1 9183   6.035   1.746   3.212 -0.2891 -0.7499 -1.6047
 3073TIP3    H2 9184   5.970   1.881   3.229  2.8538  0.6759 -0.1334
 3074TIP3   OH2 9185   4.625   2.298   1.771 -0.2911 -0.0469  1.0724
 3074TIP3    H1 9186   4.619   2.347   1.853  2.0244 -1.0113  1.9061
 3074TIP3    H2 9187   4.694   2.342   1.722  0.1936 -1.0306  0.8360
 3075TIP3   OH2 9188   1.759   4.945   3.892 -0.1677 -0.1462 -0.0245
 3075TIP3    H1 9189   1.719   4.892   3.961 -0.7162 -0.0368 -0.2580
 3075TIP3    H2 9190   1.845   4.905   3.879 -0.3516 -0.6300  0.1997
 3076TIP3   OH2 9191   5.500   0.446   3.066 -0.4611  0.1952 -0.4196
 3076TIP3    H1 9192   5.516   0.538   3.045  0.8231  0.0618 -0.1270
 3076TIP3    H2 9193   5.556   0.398   3.005 -0.3493 -0.3469  0.0990
 3077TIP3   OH2 9194   7.016   0.359   1.955  0.2029  0.6492  0.2901
 3077TIP3    H1 9195   6.927   0.371   1.987  0.0752  0.4280  0.0213
 3077TIP3    H2 9196   7.063   0.319   2.029 -0.5241 -1.5113 -0.3381
 3078TIP3   OH2 9197   2.360   0.186   2.956 -0.2473  0.0823  0.1577
 3078TIP3    H1 9198   2.344   0.133   2.878  1.5309 -0.2565 -0.0286
 3078TIP3    H2 9199   2.279   0.234   2.970 -0.7632 -0.2041 -1.6266
 3079TIP3   OH2 9200   5.124   4.583   0.649  0.1252 -0.5023 -0.0329
 3079TIP3    H1 9201   5.097   4.559   0.560  0.2610 -0.9487  0.0433
 3079TIP3    H2 9202   5.161   4.502   0.685  1.6283  0.1059 -0.1427
 3080TIP3   OH2 9203   1.467   2.966   5.512 -0.1068  0.3310  0.6917
 3080TIP3    H1 9204   1.493   3.056   5.535  0.1544  0.6301 -0.6943
 3080TIP3    H2 9205   1.424   2.974   5.427  0.3784 -0.9260  0.3046
 3081TIP3   OH2 9206   4.628   5.309   0.049 -0.5757 -0.1923 -0.1203
 3081TIP3    H1 9207   4.602   5.382  -0.007 -1.8361 -0.8762 -0.4693
 3081TIP3    H2 9208   4.637   5.235  -0.011  0.3374 -0.4172  0.2776
 3082TIP3   OH2 9209   4.566   5.958   5.851 -0.2268 -0.1529 -0.3173
 3082TIP3    H1 9210   4.589   5.999   5.767  0.0543 -1.8512 -1.1150
 3082TIP3    H2 9211   4.631   5.888   5.861 -0.4579 -0.1752  1.1703
 3083TIP3   OH2 9212   6.426   1.824   2.488  0.2030 -0.3605  0.2168
 3083TIP3    H1 9213   6.364   1.896   2.487  1.3871  0.6865  0.0542
 3083TIP3    H2 9214   6.410   1.779   2.571  0.2537  0.8247  0.8890
 3084TIP3   OH2 9215   1.610   2.831   0.714 -0.2036  0.2342 -0.1925
 3084TIP3    H1 9216   1.668   2.798   0.782 -0.0693 -0.4118 -0.6048
 3084TIP3    H2 9217   1.668   2.876   0.652 -0.2383  0.2409 -0.2208
 3085TIP3   OH2 9218   6.331   3.347   2.121 -0.3621  0.4222  0.2282
 3085TIP3    H1 9219   6.270   3.333   2.049 -1.1315  0.3222  0.8852
 3085TIP3    H2 9220   6.417   3.322   2.085 -0.8450 -0.3600 -0.4161
 3086TIP3   OH2 9221   3.533   1.394   3.885 -0.0019  0.3059 -0.6498
 3086TIP3    H1 9222   3.528   1.422   3.976  0.1814 -2.0339  0.1391
 3086TIP3    H2 9223   3.581   1.311   3.887 -1.2131 -0.5350 -2.6800
 3087TIP3   OH2 9224   1.244   1.494   4.636  0.3152 -0.4328  0.9910
 3087TIP3    H1 9225   1.276   1.451   4.556  1.1290  0.2300  0.9480
 3087TIP3    H2 9226   1.268   1.434   4.707 -1.5681 -1.6739  0.6731
 3088TIP3   OH2 9227   1.624   3.116   5.780  0.0066  0.2340  0.2633
 3088TIP3    H1 9228   1.676   3.042   5.747  1.6327  1.2581  0.4486
 3088TIP3    H2 9229   1.538   3.078   5.798 -0.3611 -0.8540 -3.0941
 3089TIP3   OH2 9230   3.137   4.998   5.341  0.5223 -0.3151 -0.4667
 3089TIP3    H1 9231   3.148   4.966   5.430 -1.7324  0.3932  0.1334
 3089TIP3    H2 9232   3.055   4.959   5.311  0.1726  1.0863 -1.4457
 3090TIP3   OH2 9233   0.248   6.783   3.767  0.2432 -0.1013 -0.6252
 3090TIP3    H1 9234   0.176   6.734   3.807 -0.2175 -0.1629 -1.5071
 3090TIP3    H2 9235   0.205   6.846   3.709  0.8843  0.2942 -0.6794
 3091TIP3   OH2 9236   5.094   5.779   1.645 -0.0414  0.9469  0.1427
 3091TIP3    H1 9237   5.102   5.754   1.737  1.2928 -0.4377 -0.2924
 3091TIP3    H2 9238   5.028   5.848   1.643 -1.9482 -0.7385  1.8087
 3092TIP3   OH2 9239   6.789   4.480   0.238 -0.0728 -0.2982 -0.2884
 3092TIP3    H1 9240   6.852   4.423   0.282  0.7647  1.2958  0.6451
 3092TIP3    H2 9241   6.709   4.474   0.291  0.8322  1.3744  1.3516
 3093TIP3   OH2 9242   0.359   1.071   5.564  0.1864 -0.3418  0.2596
 3093TIP3    H1 9243   0.438   1.099   5.609 -0.3503  0.2586  0.8576
 3093TIP3    H2 9244   0.293   1.063   5.634 -0.1992 -1.1592 -0.1742
 3094TIP3   OH2 9245   1.529   3.529   4.622  0.0550  0.1935  0.0223
 3094TIP3    H1 9246   1.509   3.542   4.715  0.5106 -2.9300  0.6584
 3094TIP3    H2 9247   1.499   3.610   4.580 -1.9883  0.9376  2.6008
 3095TIP3   OH2 9248   2.479   4.337   2.692  0.8451  0.1675  0.0502
 3095TIP3    H1 9249   2.508   4.413   2.744 -1.9189  1.1381  0.3477
 3095TIP3    H2 9250   2.405   4.302   2.741  0.8160 -1.5308 -1.1397
 3096TIP3   OH2 9251   4.901   3.989   3.475  0.1081 -0.1109 -0.2953
 3096TIP3    H1 9252   4.846   4.045   3.422 -0.8557 -1.3806 -0.6839
 3096TIP3    H2 9253   4.872   3.900   3.455  0.4854 -0.6870  1.4883
 3097TIP3   OH2 9254   5.169   4.809   3.916 -0.1860 -0.1818  0.5229
 3097TIP3    H1 9255   5.251   4.795   3.868 -1.4933  1.3215 -2.4192
 3097TIP3    H2 9256   5.177   4.899   3.948 -0.6081 -0.0976  0.3872
 3098TIP3   OH2 9257   5.544   1.422   3.366  0.1975  0.1172 -0.5374
 3098TIP3    H1 9258   5.607   1.354   3.343 -0.8122 -1.0416  0.0293
 3098TIP3    H2 9259   5.575   1.500   3.319  1.0897 -0.8527 -1.6188
 3099TIP3   OH2 9260   6.035   4.202   1.529 -0.1869  0.0239 -0.1858
 3099TIP3    H1 9261   6.027   4.179   1.437  0.4965 -1.9014  0.1762
 3099TIP3    H2 9262   6.041   4.297   1.531  2.4180  0.0120 -2.3438
 3100TIP3   OH2 9263   3.483   2.518   0.480 -0.3998 -0.2059 -0.1613
 3100TIP3    H1 9264   3.456   2.577   0.551  0.0397  0.7869 -0.7939
 3100TIP3    H2 9265   3.518   2.441   0.524 -0.2293  0.3530  0.6976
 3101TIP3   OH2 9266   4.536   0.191   3.219 -0.3640 -0.6309 -0.1290
 3101TIP3    H1 9267   4.575   0.234   3.143  0.5411 -0.5818  0.3513
 3101TIP3    H2 9268   4.591   0.114   3.234  0.4994  0.2456  1.4658
 3102TIP3   OH2 9269   2.549   2.947   2.984 -0.1184  0.0716  0.2631
 3102TIP3    H1 9270   2.469   2.921   3.031 -1.0945  0.6629 -0.9918
 3102TIP3    H2 9271   2.611   2.876   3.000 -1.5068 -1.2905 -0.1905
 3103TIP3   OH2 9272   0.238   2.243   3.951 -0.1112 -0.4069 -0.3826
 3103TIP3    H1 9273   0.316   2.226   4.004  0.0278 -0.1004 -0.4862
 3103TIP3    H2 9274   0.165   2.216   4.007  0.0981 -1.2655 -0.5209
 3104TIP3   OH2 9275   6.116   1.038   0.388 -0.0493  0.1165 -0.2574
 3104TIP3    H1 9276   6.202   1.004   0.362  1.0243  1.1224  1.6865
 3104TIP3    H2 9277   6.107   1.119   0.338 -0.3680 -0.5149 -1.2451
 3105TIP3   OH2 9278   2.665   2.094   4.618  0.2939  0.4817 -0.1455
 3105TIP3    H1 9279   2.754   2.064   4.632  0.3988  0.7146 -0.3157
 3105TIP3    H2 9280   2.618   2.066   4.696  0.3507 -0.2690 -0.3776
 3106TIP3   OH2 9281   5.061   0.108   3.266  0.4952 -0.2334  0.0534
 3106TIP3    H1 9282   5.109   0.096   3.348  0.2051 -3.5271 -0.1260
 3106TIP3    H2 9283   5.000   0.034   3.263 -1.9607  1.6642 -1.5614
 3107TIP3   OH2 9284   4.624   4.729   2.873 -0.0375 -0.4557 -0.3134
 3107TIP3    H1 9285   4.703   4.782   2.860 -0.2420  0.3390  1.4091
 3107TIP3    H2 9286   4.648   4.642   2.841  1.3005 -0.0473 -0.4826
 3108TIP3   OH2 9287   0.576   0.194   3.556  0.1512 -0.5532 -0.0330
 3108TIP3    H1 9288   0.598   0.130   3.623  1.5708 -0.9757 -0.8558
 3108TIP3    H2 9289   0.506   0.246   3.594 -1.8708 -3.2775  0.2638
 3109TIP3   OH2 9290   4.291   6.621   5.821 -0.0018 -0.8149  0.0862
 3109TIP3    H1 9291   4.319   6.597   5.732  0.7195  0.8166 -0.1646
 3109TIP3    H2 9292   4.199   6.645   5.810  0.5766  1.3221 -0.6896
 3110TIP3   OH2 9293   3.003   5.458   5.705 -0.0845 -0.0204 -0.0679
 3110TIP3    H1 9294   3.071   5.484   5.643  0.3652  0.6834  0.7049
 3110TIP3    H2 9295   2.973   5.373   5.673  0.2808  0.2360 -1.1273
 3111TIP3   OH2 9296   5.704   3.850   0.140  0.0843 -0.1173 -0.9608
 3111TIP3    H1 9297   5.668   3.824   0.055 -0.6180  0.2005 -0.7646
 3111TIP3    H2 9298   5.787   3.803   0.145  0.6737  0.7156 -2.3047
 3112TIP3   OH2 9299   4.172   2.626   2.491 -0.4937  0.1319  0.2940
 3112TIP3    H1 9300   4.141   2.706   2.448 -2.1161 -0.7310 -0.2192
 3112TIP3    H2 9301   4.125   2.625   2.575  0.8077  0.5536  1.0551
 3113TIP3   OH2 9302   1.652   4.016   1.017 -0.2866  0.2454 -0.2774
 3113TIP3    H1 9303   1.660   4.007   0.922 -0.9773 -0.4707 -0.2719
 3113TIP3    H2 9304   1.694   4.099   1.036  0.7488 -0.0607 -1.0957
 3114TIP3   OH2 9305   5.467   0.819   0.368 -0.3783 -0.4881  0.1554
 3114TIP3    H1 9306   5.543   0.771   0.401  0.7088  0.1200 -1.3265
 3114TIP3    H2 9307   5.422   0.851   0.447  1.8077  0.5004  1.0826
 3115TIP3   OH2 9308   5.164   1.336   5.216 -0.5407 -0.2475  0.5214
 3115TIP3    H1 9309   5.252   1.371   5.234  0.5080 -2.8276  0.8130
 3115TIP3    H2 9310   5.160   1.330   5.120  0.8318 -2.7793  0.5335
 3116TIP3   OH2 9311   6.409   3.605   0.111 -0.5409 -0.2242 -0.2992
 3116TIP3    H1 9312   6.465   3.527   0.109 -1.1559 -0.6722 -0.5887
 3116TIP3    H2 9313   6.353   3.593   0.187 -0.3547  0.1431 -0.1030
 3117TIP3   OH2 9314   7.021   6.208   0.021  0.0176 -0.0476 -0.4186
 3117TIP3    H1 9315   7.009   6.134   0.080  2.4171 -0.0689  0.1460
 3117TIP3    H2 9316   7.052   6.169  -0.061 -0.3002  0.2127 -0.6663
 3118TIP3   OH2 9317   3.970   4.315   4.986 -0.1368 -0.5328 -0.3099
 3118TIP3    H1 9318   4.055   4.313   5.030 -0.6997 -0.8592  0.8150
 3118TIP3    H2 9319   3.970   4.397   4.938  0.3729  0.0400  0.6214
 3119TIP3   OH2 9320   4.128   0.265   4.264 -0.0725  0.0430  0.0825
 3119TIP3    H1 9321   4.046   0.259   4.313  0.4671 -0.4959  0.9351
 3119TIP3    H2 9322   4.106   0.319   4.188 -0.7196  1.5864  1.3083
 3120TIP3   OH2 9323   4.395   1.306   4.278  0.1219  0.5010 -0.0916
 3120TIP3    H1 9324   4.379   1.213   4.263 -1.7342  0.4939  1.4980
 3120TIP3    H2 9325   4.472   1.326   4.225  0.1336 -1.7543 -1.0461
 3121TIP3   OH2 9326   1.249   2.062   3.614  0.0368  0.3756 -0.1243
 3121TIP3    H1 9327   1.269   2.114   3.536  2.7579  1.2082  1.0184
 3121TIP3    H2 9328   1.332   2.056   3.661 -0.3825 -4.0465  0.4674
 3122TIP3   OH2 9329   0.879   1.389   4.894  0.3941  0.3180  0.5721
 3122TIP3    H1 9330   0.822   1.433   4.957  0.5603  0.8770  0.3340
 3122TIP3    H2 9331   0.861   1.432   4.811  0.4495 -0.1686  0.3095
 3123TIP3   OH2 9332   5.327   2.102   4.441  0.5192 -0.5303  0.3807
 3123TIP3    H1 9333   5.318   2.018   4.396  0.7571 -0.6545  0.5646
 3123TIP3    H2 9334   5.331   2.167   4.370 -0.8734 -0.5543  0.2611
 3124TIP3   OH2 9335   2.207   0.970   0.708  0.3289  0.0339 -0.3061
 3124TIP3    H1 9336   2.283   0.955   0.765  1.5284  2.3150 -1.1418
 3124TIP3    H2 9337   2.132   0.940   0.759  1.5731 -0.0873  1.5551
 3125TIP3   OH2 9338   7.039   3.763   2.027 -0.0467  0.0522  0.1654
 3125TIP3    H1 9339   6.979   3.738   1.957 -0.6296 -0.3085  0.7878
 3125TIP3    H2 9340   7.094   3.831   1.987  0.2398 -0.7923 -0.9211
 3126TIP3   OH2 9341   2.402   4.514   1.616 -0.0102 -0.3431  0.1860
 3126TIP3    H1 9342   2.338   4.493   1.549  0.0321  0.6478 -0.1894
 3126TIP3    H2 9343   2.482   4.535   1.567  0.1210  0.0436  0.5577
 3127TIP3   OH2 9344   6.754   6.451   4.423 -0.0024  0.1650  0.4842
 3127TIP3    H1 9345   6.666   6.466   4.458  0.7632  2.3420  1.7004
 3127TIP3    H2 9346   6.807   6.518   4.465  2.6286 -2.1792  1.1700
 3128TIP3   OH2 9347   1.297   1.366   3.763 -0.4680 -0.6318  0.0294
 3128TIP3    H1 9348   1.370   1.426   3.774 -2.1597  1.4183  0.6701
 3128TIP3    H2 9349   1.262   1.353   3.851 -1.2961 -1.0313 -0.3414
 3129TIP3   OH2 9350   7.121   4.442   1.424  0.3487  0.0607 -0.2344
 3129TIP3    H1 9351   7.122   4.474   1.334  0.1160 -1.2402 -0.7188
 3129TIP3    H2 9352   7.211   4.411   1.440  0.1310 -0.6566 -0.3796
 3130TIP3   OH2 9353   6.838   4.760   1.005 -0.3552  0.2267  0.2118
 3130TIP3    H1 9354   6.823   4.851   0.978 -0.2680  0.2844  0.3527
 3130TIP3    H2 9355   6.863   4.767   1.098 -0.3816  0.0562  0.2315
 3131TIP3   OH2 9356   3.594   1.576   0.736  0.9096 -0.1285 -0.0333
 3131TIP3    H1 9357   3.511   1.597   0.694  1.1841  0.6194 -0.2254
 3131TIP3    H2 9358   3.624   1.497   0.691  0.6174 -0.0268 -0.4202
 3132TIP3   OH2 9359   0.831   0.576   5.048 -0.0103  0.0050 -0.1382
 3132TIP3    H1 9360   0.794   0.551   4.963 -1.1351  1.2301 -0.0314
 3132TIP3    H2 9361   0.807   0.668   5.059  3.5009  1.0818 -0.2599
 3133TIP3   OH2 9362   1.487   1.385   4.827 -0.1262  0.2822 -0.5530
 3133TIP3    H1 9363   1.513   1.473   4.856  1.6378 -0.6837  1.0124
 3133TIP3    H2 9364   1.391   1.386   4.832 -0.0857  1.7205  0.7450
 3134TIP3   OH2 9365   1.431   1.173   3.585  0.4715  0.3899 -0.4567
 3134TIP3    H1 9366   1.402   1.225   3.660  0.1466 -1.4364  0.7486
 3134TIP3    H2 9367   1.350   1.153   3.538  0.2377 -1.2155  0.5771
 3135TIP3   OH2 9368   5.973   3.035   3.559 -0.1480 -0.2613 -0.2279
 3135TIP3    H1 9369   5.925   2.988   3.490 -1.5976 -1.8652  1.7515
 3135TIP3    H2 9370   6.018   2.966   3.607  1.0847  0.8595  0.2814
 3136TIP3   OH2 9371   0.083   5.984   2.932  0.3693  0.1266  0.6754
 3136TIP3    H1 9372   0.153   5.950   2.876  0.3937  0.7933  0.2920
 3136TIP3    H2 9373   0.116   5.975   3.021  1.3262  1.2635  0.4562
 3137TIP3   OH2 9374   4.433   5.905   1.766 -0.0426 -0.2787 -0.9199
 3137TIP3    H1 9375   4.352   5.884   1.719 -1.4588  2.6325 -0.0438
 3137TIP3    H2 9376   4.481   5.962   1.706  0.0953  0.1137 -0.4474
 3138TIP3   OH2 9377   4.314   4.514   1.635  0.0691 -0.2449  0.4979
 3138TIP3    H1 9378   4.318   4.596   1.685  0.0048 -0.5407  0.9933
 3138TIP3    H2 9379   4.269   4.453   1.693 -3.8307  0.4745 -1.4363
 3139TIP3   OH2 9380   2.661   3.905   2.591  0.3415  0.0063  0.3999
 3139TIP3    H1 9381   2.713   3.974   2.549  1.7956 -0.9751  0.5213
 3139TIP3    H2 9382   2.677   3.916   2.685 -0.4020  0.2642  0.4960
 3140TIP3   OH2 9383   2.567   1.560   4.229  0.5466 -0.1822  0.1941
 3140TIP3    H1 9384   2.582   1.641   4.180 -0.9516  0.5329  0.8477
 3140TIP3    H2 9385   2.592   1.490   4.169  0.1785  0.7172 -1.0431
 3141TIP3   OH2 9386   1.038   6.026   2.263  0.2042 -0.6816  0.0373
 3141TIP3    H1 9387   1.059   6.096   2.325 -0.7245 -1.2766  1.0740
 3141TIP3    H2 9388   1.088   5.951   2.294 -0.4964 -1.0655  0.2695
 3142TIP3   OH2 9389   4.510   5.313   2.233  0.1597 -0.1870 -0.6426
 3142TIP3    H1 9390   4.448   5.380   2.207  0.5596  0.4170 -0.0799
 3142TIP3    H2 9391   4.565   5.299   2.156  0.6969  0.8489 -0.4561
 3143TIP3   OH2 9392   0.835   6.487   5.009 -0.0558 -0.1336  0.5171
 3143TIP3    H1 9393   0.865   6.522   4.924  0.9038 -0.2862  0.7806
 3143TIP3    H2 9394   0.784   6.409   4.986 -0.2914  0.1539  0.0476
 3144TIP3   OH2 9395   1.303   4.673   2.804  0.3208 -0.4840  0.4267
 3144TIP3    H1 9396   1.367   4.630   2.747  1.9754  1.7259  0.5037
 3144TIP3    H2 9397   1.219   4.640   2.774  1.3300 -1.7882 -1.1786
 3145TIP3   OH2 9398   6.225   5.229   2.607 -0.4069  0.2388  0.0894
 3145TIP3    H1 9399   6.264   5.144   2.590 -2.4372 -1.0893  1.6321
 3145TIP3    H2 9400   6.291   5.277   2.656  0.3913 -0.8422  0.0936
 3146TIP3   OH2 9401   0.492   0.808   4.409  0.6274 -0.1126  0.0077
 3146TIP3    H1 9402   0.551   0.749   4.456 -1.3710 -1.7060  0.6416
 3146TIP3    H2 9403   0.450   0.859   4.478  0.9103  0.7063 -0.4089
 3147TIP3   OH2 9404   1.061   5.433   2.219 -0.4933 -0.0140 -0.7971
 3147TIP3    H1 9405   1.008   5.460   2.294 -0.2133 -0.5425 -0.4023
 3147TIP3    H2 9406   1.000   5.385   2.163 -0.6021  0.0116 -0.7016
 3148TIP3   OH2 9407   7.013   2.271   5.581  0.3073 -0.5356 -0.1627
 3148TIP3    H1 9408   7.038   2.196   5.526  0.0371 -1.5900  1.1029
 3148TIP3    H2 9409   6.920   2.284   5.562 -0.1023 -1.7025  0.9247
 3149TIP3   OH2 9410   6.641   2.650   5.063  0.1293 -0.1584  0.4710
 3149TIP3    H1 9411   6.545   2.658   5.059  0.2370  2.5699  1.3765
 3149TIP3    H2 9412   6.673   2.700   4.988  0.8669 -0.5481  0.5197
 3150TIP3   OH2 9413   5.142   5.825   2.839  0.1108 -0.5255  0.1282
 3150TIP3    H1 9414   5.098   5.766   2.778 -1.7093 -0.5615  1.3903
 3150TIP3    H2 9415   5.099   5.809   2.923 -0.0559  2.1917  0.6437
 3151TIP3   OH2 9416   3.832   1.731   5.019  0.1267 -0.0249 -0.4332
 3151TIP3    H1 9417   3.864   1.798   5.080 -1.2356 -1.2466  1.7970
 3151TIP3    H2 9418   3.911   1.691   4.983  0.9992  0.7093  0.6059
 3152TIP3   OH2 9419   5.825   3.488   1.894  0.5789 -0.2183 -0.6319
 3152TIP3    H1 9420   5.734   3.460   1.902  0.4893  0.3149  0.4269
 3152TIP3    H2 9421   5.834   3.514   1.802 -0.1906 -0.7411 -0.8645
 3153TIP3   OH2 9422   5.442   6.479   1.183 -0.5275  0.7407  0.0282
 3153TIP3    H1 9423   5.485   6.434   1.111 -0.0264  1.5483 -0.1856
 3153TIP3    H2 9424   5.379   6.415   1.216  0.6146 -0.3623  0.1593
 3154TIP3   OH2 9425   4.202   4.521   4.208 -0.3279  0.5008  0.6069
 3154TIP3    H1 9426   4.261   4.587   4.245  0.3281 -0.3959  1.1985
 3154TIP3    H2 9427   4.200   4.541   4.115  0.4172  0.9357  0.6741
 3155TIP3   OH2 9428   0.897   0.154   3.152 -0.0568 -0.4766  0.1477
 3155TIP3    H1 9429   0.810   0.121   3.174 -0.1721 -1.3279 -1.4106
 3155TIP3    H2 9430   0.896   0.161   3.056  2.3424 -2.7996 -0.1727
 3156TIP3   OH2 9431   1.288   5.367   3.878 -0.0389 -0.1049  0.9114
 3156TIP3    H1 9432   1.196   5.359   3.904 -0.8303  1.6935 -1.0140
 3156TIP3    H2 9433   1.337   5.326   3.950 -2.3125 -1.1866  1.9671
 3157TIP3   OH2 9434   3.950   0.412   5.810 -0.2409 -0.4032 -0.1475
 3157TIP3    H1 9435   4.008   0.388   5.738  0.0839  1.4282 -0.5395
 3157TIP3    H2 9436   3.975   0.353   5.881  0.0242 -1.6479 -1.2375
 3158TIP3   OH2 9437   0.322   2.372   4.649 -0.4340 -1.1929  0.1460
 3158TIP3    H1 9438   0.297   2.430   4.577  0.7588  0.7647  1.2213
 3158TIP3    H2 9439   0.332   2.430   4.724  0.9124 -2.7829  1.2693
 3159TIP3   OH2 9440   0.686   4.173   4.320  0.3724 -0.1322 -0.2886
 3159TIP3    H1 9441   0.691   4.089   4.274 -3.8400 -0.1749 -1.1080
 3159TIP3    H2 9442   0.725   4.156   4.406  2.1774 -2.0203 -1.3834
 3160TIP3   OH2 9443   0.938   3.097   2.238  0.1228 -0.1926  0.2391
 3160TIP3    H1 9444   0.946   3.086   2.333 -1.3495 -1.9728  0.2082
 3160TIP3    H2 9445   0.931   3.008   2.204 -0.2217  0.4537 -1.4576
 3161TIP3   OH2 9446   5.648   0.904   4.913 -0.1645 -0.1703  0.2612
 3161TIP3    H1 9447   5.595   0.981   4.934 -0.7387 -1.0794  2.4085
 3161TIP3    H2 9448   5.726   0.913   4.968  0.0306 -0.8398  0.1031
 3162TIP3   OH2 9449   3.090   0.036   5.723  1.2905 -0.6847 -0.4306
 3162TIP3    H1 9450   2.995   0.039   5.733  1.3174  0.3125 -0.3197
 3162TIP3    H2 9451   3.113  -0.056   5.733  0.4667 -0.7721  0.7875
 3163TIP3   OH2 9452   6.560   3.609   4.381 -0.4310  0.1322  0.1485
 3163TIP3    H1 9453   6.567   3.632   4.474 -4.8625  0.4102  0.6484
 3163TIP3    H2 9454   6.548   3.514   4.381  1.0543 -0.0852 -0.3643
 3164TIP3   OH2 9455   3.152   6.006   2.833  0.1912 -0.2595 -0.1964
 3164TIP3    H1 9456   3.165   6.099   2.850 -2.0585  0.0978 -0.0978
 3164TIP3    H2 9457   3.150   5.965   2.919 -1.6489  0.0954 -0.0139
 3165TIP3   OH2 9458   4.271   6.172   1.138  0.0614 -0.3367 -0.2317
 3165TIP3    H1 9459   4.288   6.113   1.211  2.5217  0.7519  0.1675
 3165TIP3    H2 9460   4.212   6.239   1.173 -1.1222 -1.3890 -0.1320
 3166TIP3   OH2 9461   6.714   1.247   3.231  0.2127 -0.3056  0.4078
 3166TIP3    H1 9462   6.640   1.306   3.248 -1.7421 -1.7707 -2.1798
 3166TIP3    H2 9463   6.743   1.220   3.318 -1.7367  1.0153  1.5690
 3167TIP3   OH2 9464   2.232   0.063   1.248  0.3159  0.0316 -0.7037
 3167TIP3    H1 9465   2.290   0.015   1.190  0.3193 -0.6320 -0.1659
 3167TIP3    H2 9466   2.153   0.010   1.253  0.9206 -0.7921  1.1647
 3168TIP3   OH2 9467   6.254   3.401   5.081  0.7521  0.3881 -0.0336
 3168TIP3    H1 9468   6.286   3.477   5.128 -1.9429  0.0577  2.6426
 3168TIP3    H2 9469   6.311   3.329   5.109  1.5321  0.8686 -0.3489
 3169TIP3   OH2 9470   7.039   5.125   3.451 -0.1263  0.1478 -0.3580
 3169TIP3    H1 9471   7.095   5.114   3.528 -0.5968  3.5407  0.6397
 3169TIP3    H2 9472   7.100   5.136   3.378  0.4075  0.1255  0.0797
 3170TIP3   OH2 9473   2.808   0.681   3.313  0.3544 -0.6660  0.3414
 3170TIP3    H1 9474   2.855   0.678   3.397  1.8597  1.5085 -0.3243
 3170TIP3    H2 9475   2.763   0.766   3.314  0.5599 -0.5202 -1.1190
 3171TIP3   OH2 9476   4.637   1.265   2.097  0.4837  0.0258 -0.2040
 3171TIP3    H1 9477   4.582   1.248   2.021  0.3081 -0.1716 -0.0345
 3171TIP3    H2 9478   4.586   1.232   2.172  0.8154 -0.1316 -0.0438
 3172TIP3   OH2 9479   1.173   2.455   3.988 -0.0347 -0.0141  0.3470
 3172TIP3    H1 9480   1.143   2.381   4.042 -0.9914  1.3971  1.8567
 3172TIP3    H2 9481   1.242   2.495   4.040  2.6717 -1.5389 -1.8306
 3173TIP3   OH2 9482   3.969   5.808   1.528  0.3298  0.2853  0.1578
 3173TIP3    H1 9483   3.897   5.781   1.470  1.6653  1.2958 -2.1052
 3173TIP3    H2 9484   3.984   5.900   1.506  2.4558  0.0388  0.3756
 3174TIP3   OH2 9485   6.891   6.130   2.875 -0.1947  0.1921  0.5134
 3174TIP3    H1 9486   6.840   6.208   2.895  0.4281  0.8789 -0.4548
 3174TIP3    H2 9487   6.980   6.163   2.860 -0.3517 -0.3729 -2.0795
 3175TIP3   OH2 9488   4.617   2.064   5.195 -0.0631  0.0928  0.3466
 3175TIP3    H1 9489   4.646   2.155   5.189 -1.6926  0.5504 -1.6923
 3175TIP3    H2 9490   4.557   2.053   5.122  0.1631 -2.6802  0.4703
 3176TIP3   OH2 9491   2.302   0.307   5.473 -0.7771  0.4867  0.7850
 3176TIP3    H1 9492   2.356   0.375   5.432 -2.7943  2.0532  0.5282
 3176TIP3    H2 9493   2.363   0.258   5.527  0.7592  2.7395  1.2612
 3177TIP3   OH2 9494   7.141   6.298   0.287  0.0998 -0.0707 -0.6221
 3177TIP3    H1 9495   7.105   6.298   0.198 -2.0506  1.1494  0.1728
 3177TIP3    H2 9496   7.233   6.276   0.276 -0.2672 -0.6350 -3.0780
 3178TIP3   OH2 9497   0.768   0.191   2.313  0.2913  0.5915 -0.6575
 3178TIP3    H1 9498   0.760   0.174   2.407  1.2784  0.4420 -0.5916
 3178TIP3    H2 9499   0.801   0.109   2.277 -2.0193 -0.0413 -1.4566
 3179TIP3   OH2 9500   6.974   6.028   1.106 -0.3604  0.4348  0.0923
 3179TIP3    H1 9501   6.936   5.975   1.176 -0.9796 -1.9883 -1.9129
 3179TIP3    H2 9502   6.901   6.044   1.046  0.4892  0.9022 -0.8552
 3180TIP3   OH2 9503   2.452   5.665   2.262  0.0589  0.0965  0.0949
 3180TIP3    H1 9504   2.522   5.730   2.257  0.9321 -0.6125  2.0552
 3180TIP3    H2 9505   2.373   5.716   2.277  0.7276  0.7527  1.6004
 3181TIP3   OH2 9506   3.182   3.637   2.537  0.2182 -0.2807 -0.2557
 3181TIP3    H1 9507   3.273   3.629   2.510 -0.0025 -1.7298 -0.6327
 3181TIP3    H2 9508   3.141   3.692   2.470  0.9238  0.9061  0.2502
 3182TIP3   OH2 9509   4.352   2.431   2.102  0.0669 -0.0795 -0.1196
 3182TIP3    H1 9510   4.343   2.338   2.086  0.9705  0.1869 -2.5755
 3182TIP3    H2 9511   4.263   2.462   2.117 -0.4636 -1.0366 -1.1700
 3183TIP3   OH2 9512   1.729   6.134   1.103 -0.2071  0.2633  0.1922
 3183TIP3    H1 9513   1.775   6.145   1.186  2.4445  1.2700 -1.2789
 3183TIP3    H2 9514   1.698   6.221   1.080 -1.0972 -0.0417  0.1848
 3184TIP3   OH2 9515   0.095   4.226   4.485  0.1685  0.4207  0.1925
 3184TIP3    H1 9516   0.135   4.139   4.475  1.9430  1.2322 -0.2961
 3184TIP3    H2 9517   0.101   4.245   4.578 -1.8047 -0.6533  0.5767
 3185TIP3   OH2 9518   0.675   4.893   3.366  0.0379  0.2004 -0.4321
 3185TIP3    H1 9519   0.672   4.803   3.334 -1.6741  0.8021 -2.1815
 3185TIP3    H2 9520   0.706   4.944   3.291  1.7998  1.0054  0.7912
 3186TIP3   OH2 9521   0.742   1.653   2.421  0.3772 -0.6474 -0.1731
 3186TIP3    H1 9522   0.693   1.592   2.367  1.3958 -0.4293 -1.3822
 3186TIP3    H2 9523   0.833   1.622   2.416  0.6848  0.1331  0.3764
 3187TIP3   OH2 9524   2.199   5.791   4.691 -0.0170  0.1939 -0.2841
 3187TIP3    H1 9525   2.109   5.818   4.671  0.0489  1.5329  1.0064
 3187TIP3    H2 9526   2.242   5.872   4.719  1.2616 -0.6350  0.2267
 3188TIP3   OH2 9527   4.769   1.255   0.227 -0.0476  0.4970 -0.2195
 3188TIP3    H1 9528   4.776   1.348   0.207 -1.5601  1.1339  1.8503
 3188TIP3    H2 9529   4.851   1.217   0.195  1.1767  2.7525  0.0315
 3189TIP3   OH2 9530   6.395   4.091   0.041 -0.0832  0.7841 -0.2024
 3189TIP3    H1 9531   6.386   4.058   0.131 -0.8417 -0.5331 -0.7292
 3189TIP3    H2 9532   6.363   4.019  -0.014 -0.4271  1.8831 -1.4913
 3190TIP3   OH2 9533   6.053   3.906   5.389 -0.6580 -0.3295  0.0822
 3190TIP3    H1 9534   5.961   3.877   5.381 -0.6489  0.0380 -1.7398
 3190TIP3    H2 9535   6.047   3.998   5.412 -0.7314 -0.4386  0.5118
 3191TIP3   OH2 9536   0.143   3.758   5.650  0.6780 -0.1061 -0.1118
 3191TIP3    H1 9537   0.157   3.764   5.745  1.3505  0.6024 -0.2411
 3191TIP3    H2 9538   0.064   3.705   5.640  1.3209 -1.2975  0.8102
 3192TIP3   OH2 9539   1.535   2.349   1.594 -0.1406  0.1236  0.3672
 3192TIP3    H1 9540   1.511   2.262   1.563 -1.3813 -0.4273  2.6646
 3192TIP3    H2 9541   1.473   2.368   1.664  1.2529  2.0909  1.1662
 3193TIP3   OH2 9542   5.839   6.297   0.886  0.0902  0.4703 -0.0255
 3193TIP3    H1 9543   5.907   6.288   0.819  0.7781  0.7284  0.6163
 3193TIP3    H2 9544   5.848   6.219   0.940  1.1648  1.3951  1.1871
 3194TIP3   OH2 9545   4.447   3.901   1.574 -0.1039  0.3989  0.3270
 3194TIP3    H1 9546   4.442   3.828   1.635  1.5392  0.8763  1.0792
 3194TIP3    H2 9547   4.527   3.885   1.523 -1.0522  0.3858 -1.2462
 3195TIP3   OH2 9548   0.292   0.936   4.888 -0.3890  0.4903  0.9066
 3195TIP3    H1 9549   0.345   0.940   4.967 -0.6286 -1.5741  1.2303
 3195TIP3    H2 9550   0.213   0.890   4.914  0.1796 -1.6363 -0.8208
 3196TIP3   OH2 9551   1.110   2.830   5.467 -0.3434  0.5525  0.1247
 3196TIP3    H1 9552   1.099   2.877   5.550 -1.3594  2.6299 -1.1148
 3196TIP3    H2 9553   1.042   2.763   5.469 -0.3943  0.6136  0.9484
 3197TIP3   OH2 9554   3.197   0.660   1.235 -0.0273  0.1702 -0.2428
 3197TIP3    H1 9555   3.202   0.649   1.140  1.3745  1.8335 -0.4068
 3197TIP3    H2 9556   3.197   0.754   1.248  1.2358 -0.0217  1.4491
 3198TIP3   OH2 9557   3.678   3.694   2.078  0.0421 -0.1623  0.3189
 3198TIP3    H1 9558   3.700   3.760   2.012  0.8510  0.6557  1.3681
 3198TIP3    H2 9559   3.636   3.623   2.028  0.2904  0.5880 -1.0079
 3199TIP3   OH2 9560   2.093   2.799   3.706 -0.4020 -0.0868 -0.7046
 3199TIP3    H1 9561   2.041   2.845   3.771  0.4536 -1.5963  1.1570
 3199TIP3    H2 9562   2.154   2.745   3.757  2.3518  0.8432 -2.7506
 3200TIP3   OH2 9563   6.322   4.588   0.399 -0.3664  0.4121  0.5377
 3200TIP3    H1 9564   6.328   4.653   0.469  0.3534  0.1859  0.6931
 3200TIP3    H2 9565   6.253   4.621   0.342 -0.1572  1.1972  0.7306
 3201TIP3   OH2 9566   1.544   5.012   1.174  0.0530  0.0827  0.4350
 3201TIP3    H1 9567   1.500   5.016   1.089 -1.1220  1.4480  1.0577
 3201TIP3    H2 9568   1.558   5.104   1.198 -1.4012 -0.1627  2.5575
 3202TIP3   OH2 9569   6.510   1.562   1.295  0.3664  0.0432 -0.0080
 3202TIP3    H1 9570   6.566   1.484   1.289  0.4254  0.1438 -0.8241
 3202TIP3    H2 9571   6.422   1.527   1.309  0.3117 -0.2047 -0.8973
 3203TIP3   OH2 9572   1.384   4.096   2.947 -0.5167  0.2494 -0.1140
 3203TIP3    H1 9573   1.316   4.081   2.881 -0.8619 -0.4866  0.3831
 3203TIP3    H2 9574   1.436   4.015   2.946 -0.9337 -0.0629  0.9553
 3204TIP3   OH2 9575   3.597   5.540   2.932 -0.1955 -0.0381  0.6811
 3204TIP3    H1 9576   3.590   5.537   2.837  3.4376 -1.3347  0.2966
 3204TIP3    H2 9577   3.622   5.630   2.952  1.1960 -0.2770  0.1196
 3205TIP3   OH2 9578   3.663   2.056   0.657  0.1272 -0.4125  0.3514
 3205TIP3    H1 9579   3.657   2.033   0.750  0.0414  0.9607  0.7062
 3205TIP3    H2 9580   3.645   1.974   0.611  0.4513 -1.1778  1.5392
 3206TIP3   OH2 9581   4.078   5.519   3.848  0.0299 -0.2384 -0.1043
 3206TIP3    H1 9582   4.087   5.614   3.854  3.0521 -0.1337 -3.4896
 3206TIP3    H2 9583   4.129   5.486   3.922  4.2267  0.8911 -2.2164
 3207TIP3   OH2 9584   3.653   3.777   1.408  0.4954 -0.2366 -0.4331
 3207TIP3    H1 9585   3.565   3.797   1.376  0.5821 -0.5022 -0.8393
 3207TIP3    H2 9586   3.641   3.702   1.466 -0.0105  1.5970  2.0194
 3208TIP3   OH2 9587   1.150   0.221   1.982  0.1162  0.0974  0.0736
 3208TIP3    H1 9588   1.083   0.237   2.048 -0.4232  0.6868 -0.6006
 3208TIP3    H2 9589   1.225   0.186   2.031 -0.0886  1.0188  1.0658
 3209TIP3   OH2 9590   1.332   1.915   1.700 -0.2187  0.0197 -0.0603
 3209TIP3    H1 9591   1.343   1.827   1.735 -2.1971 -0.4662 -0.5409
 3209TIP3    H2 9592   1.332   1.971   1.778  2.1546 -0.2035  0.1805
 3210TIP3   OH2 9593   6.036   2.852   5.280  0.5886 -0.1269  0.3891
 3210TIP3    H1 9594   6.057   2.758   5.285 -3.4047 -1.2056  0.9694
 3210TIP3    H2 9595   6.018   2.877   5.370 -1.6220  0.1755 -0.0662
 3211TIP3   OH2 9596   5.211   1.425   4.329  0.3623  0.7141  0.5956
 3211TIP3    H1 9597   5.240   1.380   4.409  1.7514 -1.7172 -1.1440
 3211TIP3    H2 9598   5.262   1.385   4.259 -3.8519 -0.5634 -2.1628
 3212TIP3   OH2 9599   5.151   5.409   5.476  0.1616  0.2392  0.1049
 3212TIP3    H1 9600   5.222   5.363   5.432 -0.1158  0.0503 -0.1506
 3212TIP3    H2 9601   5.113   5.465   5.409  1.3814  1.9045  0.7612
 3213TIP3   OH2 9602   6.315   3.345   0.854  0.5271  0.1521 -0.3921
 3213TIP3    H1 9603   6.397   3.307   0.823  1.7522  2.4225 -0.1498
 3213TIP3    H2 9604   6.260   3.350   0.776  1.8399  1.5293 -1.2801
 3214TIP3   OH2 9605   2.206   5.681   3.463  0.1942  0.4464 -0.0882
 3214TIP3    H1 9606   2.268   5.755   3.463  1.2305 -0.3562 -1.3779
 3214TIP3    H2 9607   2.188   5.666   3.370  1.1792 -1.8329  0.0354
 3215TIP3   OH2 9608   6.079   0.218   3.574 -0.2570  0.6935 -0.6303
 3215TIP3    H1 9609   6.157   0.166   3.596 -0.1004  1.1069 -0.1908
 3215TIP3    H2 9610   6.079   0.220   3.478 -0.9181 -1.0823 -0.7172
 3216TIP3   OH2 9611   5.792   6.208   4.276 -0.1250 -0.2108 -0.4450
 3216TIP3    H1 9612   5.725   6.141   4.293 -0.3713  0.0040 -0.5722
 3216TIP3    H2 9613   5.872   6.158   4.262 -0.6722 -0.6054 -2.4582
 3217TIP3   OH2 9614   0.388   3.048   2.934  0.2527 -0.2999 -0.1024
 3217TIP3    H1 9615   0.430   2.968   2.904 -1.3914 -1.4413  0.5032
 3217TIP3    H2 9616   0.348   3.085   2.856 -0.5649 -1.0940 -0.0763
 3218TIP3   OH2 9617   5.622   2.926   5.247 -0.6187  0.5056 -0.1093
 3218TIP3    H1 9618   5.643   2.943   5.339 -1.6847  3.3127 -0.2672
 3218TIP3    H2 9619   5.704   2.939   5.200  0.3186 -2.5146  0.4905
 3219TIP3   OH2 9620   5.894   2.370   0.690 -0.2402  0.8925 -0.3167
 3219TIP3    H1 9621   5.931   2.380   0.603 -2.8504 -1.5545 -1.8694
 3219TIP3    H2 9622   5.962   2.326   0.741  0.8395  1.1610 -1.5077
 3220TIP3   OH2 9623   4.570   3.043   0.499 -0.1654 -0.0459  0.4327
 3220TIP3    H1 9624   4.594   2.956   0.531 -1.7662 -0.4003  0.7391
 3220TIP3    H2 9625   4.537   3.028   0.411 -1.9816 -0.0036  1.0748
 3221TIP3   OH2 9626   2.147   5.998   3.043  0.1393  0.2795 -0.3834
 3221TIP3    H1 9627   2.211   5.969   2.978 -2.0218  0.0183 -2.5688
 3221TIP3    H2 9628   2.087   5.924   3.051 -0.0566  0.6004  1.4080
 3222TIP3   OH2 9629   6.392   0.395   0.528  0.6193  0.2903  0.0677
 3222TIP3    H1 9630   6.458   0.341   0.484  0.4117 -0.2352  0.3911
 3222TIP3    H2 9631   6.313   0.384   0.474  0.4528 -0.1009  0.3814
 3223TIP3   OH2 9632   0.839   1.433   4.019  0.2399 -0.3054  0.3182
 3223TIP3    H1 9633   0.856   1.520   4.054 -0.0189 -0.3967  0.6720
 3223TIP3    H2 9634   0.879   1.434   3.931 -1.7371  0.9239 -0.6180
 3224TIP3   OH2 9635   0.384   2.923   0.670 -0.3295 -0.3625 -0.2644
 3224TIP3    H1 9636   0.410   2.888   0.755 -1.2488  0.8414  0.5456
 3224TIP3    H2 9637   0.461   2.972   0.640 -0.0643 -0.6485 -0.0642
 3225TIP3   OH2 9638   0.787   3.938   3.486  0.4177 -0.2072  0.4048
 3225TIP3    H1 9639   0.866   3.890   3.512  1.0569  0.4154 -0.3046
 3225TIP3    H2 9640   0.820   4.024   3.460 -0.6332  0.4305  1.1131
 3226TIP3   OH2 9641   7.042   3.728   1.521  0.1917  0.1968  0.3376
 3226TIP3    H1 9642   6.950   3.703   1.512  0.0818  0.7343 -0.1013
 3226TIP3    H2 9643   7.084   3.691   1.444  0.7433 -1.7371  1.5007
 3227TIP3   OH2 9644   0.106   3.786   1.180 -0.2399  0.6852 -0.9737
 3227TIP3    H1 9645   0.163   3.710   1.173 -0.4746  0.2086  1.3722
 3227TIP3    H2 9646   0.017   3.751   1.181 -0.3269  0.8361  0.9265
 3228TIP3   OH2 9647   2.049   0.840   4.946  0.1082  0.8148  0.2069
 3228TIP3    H1 9648   2.116   0.778   4.975 -0.7674 -0.8968 -1.2122
 3228TIP3    H2 9649   1.991   0.849   5.021 -0.6471 -1.4319 -0.0303
 3229TIP3   OH2 9650   3.513   6.352   4.359  0.3065 -0.1427  0.5290
 3229TIP3    H1 9651   3.525   6.310   4.444 -1.0223 -1.7346 -0.0096
 3229TIP3    H2 9652   3.430   6.316   4.326  0.1231  1.4330 -0.8659
 3230TIP3   OH2 9653   4.383   0.772   3.322 -0.0260  0.1662  0.1958
 3230TIP3    H1 9654   4.319   0.782   3.393  0.4944 -1.4477  0.9420
 3230TIP3    H2 9655   4.425   0.688   3.340  1.7826  0.8370 -0.7137
 3231TIP3   OH2 9656   3.041   2.102   4.126 -0.3906 -0.3648 -0.3689
 3231TIP3    H1 9657   3.013   2.088   4.216 -0.6725 -1.6498 -0.6372
 3231TIP3    H2 9658   3.115   2.162   4.133 -1.6041  1.0811  0.5489
 3232TIP3   OH2 9659   1.022   6.215   0.234 -0.7673 -0.7183  0.2534
 3232TIP3    H1 9660   1.084   6.174   0.174 -0.9353  0.3123 -0.6551
 3232TIP3    H2 9661   1.074   6.239   0.310 -0.3491 -1.1744  0.1117
 3233TIP3   OH2 9662   1.418   3.612   1.233 -0.3045 -0.4331 -0.3710
 3233TIP3    H1 9663   1.355   3.664   1.282  0.1976  1.1985 -1.3691
 3233TIP3    H2 9664   1.413   3.525   1.272  0.0249  0.7234  2.5304
 3234TIP3   OH2 9665   5.873   0.951   5.078  0.2280 -0.3362  0.4407
 3234TIP3    H1 9666   5.907   0.883   5.136  0.6456 -0.1154  0.4594
 3234TIP3    H2 9667   5.951   0.998   5.048 -0.1578  1.2940  1.8641
 3235TIP3   OH2 9668   0.221   1.765   2.323  0.7260  0.0973 -0.3823
 3235TIP3    H1 9669   0.152   1.791   2.263  0.4772 -0.9539 -0.5696
 3235TIP3    H2 9670   0.191   1.794   2.409 -0.6242 -1.5593 -0.2489
 3236TIP3   OH2 9671   0.376   6.686   0.733  0.0206  0.2434  0.6125
 3236TIP3    H1 9672   0.458   6.657   0.772  0.0506 -0.5841 -0.0352
 3236TIP3    H2 9673   0.325   6.605   0.722  0.1310  0.3900 -1.3164
 3237TIP3   OH2 9674   6.732   2.180   5.061  0.0518 -0.8052 -0.0406
 3237TIP3    H1 9675   6.702   2.168   4.971  2.9559 -0.3279 -1.1776
 3237TIP3    H2 9676   6.781   2.100   5.081  1.5292  0.1218  0.1622
 3238TIP3   OH2 9677   4.253   4.147   5.753 -0.3463  0.2429  0.5671
 3238TIP3    H1 9678   4.296   4.161   5.838 -0.0201  0.7320  0.3273
 3238TIP3    H2 9679   4.177   4.205   5.756  1.1810  2.4529 -0.5547
 3239TIP3   OH2 9680   2.649   5.753   1.575 -0.1306 -0.1933  0.1704
 3239TIP3    H1 9681   2.576   5.717   1.625 -1.9857  1.3228 -1.2740
 3239TIP3    H2 9682   2.616   5.758   1.485  1.5433  1.0877 -0.4229
 3240TIP3   OH2 9683   2.249   6.075   4.738  0.4109 -0.0815  0.1322
 3240TIP3    H1 9684   2.297   6.147   4.779  1.2808  0.3902 -1.5815
 3240TIP3    H2 9685   2.205   6.117   4.663 -0.9603 -0.9213  0.4372
 3241TIP3   OH2 9686   2.350   3.052   1.627  0.1386 -0.5066 -0.2116
 3241TIP3    H1 9687   2.288   2.981   1.611 -1.1738  0.6701 -0.5574
 3241TIP3    H2 9688   2.301   3.117   1.676  0.8978  0.7456 -1.0345
 3242TIP3   OH2 9689   5.496   5.693   4.830 -0.2809 -0.2300  1.0168
 3242TIP3    H1 9690   5.579   5.654   4.804  0.0375  0.3204  1.2014
 3242TIP3    H2 9691   5.464   5.637   4.902 -0.9593 -1.5049 -0.2342
 3243TIP3   OH2 9692   6.334   5.158   0.306  0.0991  0.1072 -0.2461
 3243TIP3    H1 9693   6.344   5.214   0.383 -2.0697  1.4005 -0.8065
 3243TIP3    H2 9694   6.295   5.215   0.240  0.7525 -1.2924 -1.9076
 3244TIP3   OH2 9695   4.196   3.313   2.020 -0.3395 -0.7050  0.4078
 3244TIP3    H1 9696   4.102   3.327   2.030 -0.2106 -0.0298  0.7124
 3244TIP3    H2 9697   4.216   3.242   2.081 -0.8970 -1.8705 -0.7287
 3245TIP3   OH2 9698   0.697   1.590   1.155  0.2269 -0.3860 -0.4090
 3245TIP3    H1 9699   0.730   1.633   1.077  1.0102  0.2138  0.2383
 3245TIP3    H2 9700   0.625   1.645   1.185 -1.3030 -1.5761 -1.6943
 3246TIP3   OH2 9701   6.372   6.070   3.359  0.5082 -0.1901  0.0998
 3246TIP3    H1 9702   6.426   6.149   3.368  1.2210 -0.6057 -0.4199
 3246TIP3    H2 9703   6.413   6.022   3.287 -1.2745  0.0568 -1.1279
 3247TIP3   OH2 9704   5.547   5.597   3.461  0.1666  0.7306  0.2742
 3247TIP3    H1 9705   5.581   5.681   3.430  1.0174  0.0664 -0.6393
 3247TIP3    H2 9706   5.497   5.563   3.387  1.0578 -0.2292  0.0908
 3248TIP3   OH2 9707   0.050   6.440   2.521 -0.1913  0.5904  0.0191
 3248TIP3    H1 9708   0.132   6.421   2.567 -1.7758 -0.8545  2.4786
 3248TIP3    H2 9709   0.032   6.361   2.470 -0.0156  0.9695 -0.6488
 3249TIP3   OH2 9710   3.973   2.388   2.699 -0.4898 -0.3833  0.5683
 3249TIP3    H1 9711   4.020   2.368   2.780 -0.9862  0.9691  1.2125
 3249TIP3    H2 9712   4.008   2.326   2.635  2.2773  0.6471  0.9745
 3250TIP3   OH2 9713   2.218   6.724   3.270  0.3500 -0.3308  0.0071
 3250TIP3    H1 9714   2.173   6.675   3.339 -0.8982  1.3220  0.4244
 3250TIP3    H2 9715   2.309   6.729   3.301 -0.2471  0.6915  1.7742
 3251TIP3   OH2 9716   1.874   1.571   1.817 -0.0474  0.6622 -0.5589
 3251TIP3    H1 9717   1.913   1.640   1.763  0.0945  0.1106 -1.1669
 3251TIP3    H2 9718   1.944   1.506   1.827 -0.5568  0.0221 -1.0350
 3252TIP3   OH2 9719   3.737   1.969   1.530  0.5156 -0.1542 -0.0281
 3252TIP3    H1 9720   3.766   1.903   1.592 -0.3411 -1.0533 -0.5484
 3252TIP3    H2 9721   3.734   2.050   1.580 -0.7468 -0.9627  1.2873
 3253TIP3   OH2 9722   2.536   0.096   4.599  0.2563 -0.2662 -0.1368
 3253TIP3    H1 9723   2.532   0.166   4.665  0.3738 -1.0662  0.7408
 3253TIP3    H2 9724   2.459   0.111   4.544 -0.4512 -0.2073  0.8427
 3254TIP3   OH2 9725   7.073   0.908   1.894 -0.5421 -0.3415  0.3766
 3254TIP3    H1 9726   7.057   0.921   1.988 -0.0308 -0.6149  0.5022
 3254TIP3    H2 9727   7.168   0.915   1.884 -0.5824 -0.4268 -0.1062
 3255TIP3   OH2 9728   6.731   3.995   5.184 -0.1499 -0.0042 -0.0834
 3255TIP3    H1 9729   6.757   3.922   5.240  1.0041 -0.6832 -1.4451
 3255TIP3    H2 9730   6.804   4.057   5.190 -0.5871  0.4950  0.1318
 3256TIP3   OH2 9731   0.349   1.936   5.477 -0.6094 -0.0794  0.3245
 3256TIP3    H1 9732   0.297   1.900   5.405 -0.1611  0.3308 -0.2161
 3256TIP3    H2 9733   0.289   1.993   5.524 -1.6355 -2.2194  1.7942
 3257TIP3   OH2 9734   6.216   2.665   2.498  0.1170 -0.3194 -0.5673
 3257TIP3    H1 9735   6.312   2.666   2.505  0.2591 -1.8908 -1.7159
 3257TIP3    H2 9736   6.199   2.696   2.409 -0.3029 -1.8284 -1.0494
 3258TIP3   OH2 9737   6.927   2.329   1.135 -0.3040 -0.6178 -0.0610
 3258TIP3    H1 9738   6.841   2.329   1.177 -1.0750 -2.7119 -1.4684
 3258TIP3    H2 9739   6.923   2.400   1.071 -1.4941 -1.4686 -0.9831
 3259TIP3   OH2 9740   6.384   5.427   2.974 -0.3679 -0.5618  0.4971
 3259TIP3    H1 9741   6.456   5.453   2.916  0.2781 -2.4511  0.3967
 3259TIP3    H2 9742   6.374   5.501   3.033  0.5448  0.4315 -0.5315
 3260TIP3   OH2 9743   1.608   0.606   0.194 -0.1626 -0.3044  0.2123
 3260TIP3    H1 9744   1.586   0.518   0.162 -0.4654  0.2096 -1.0522
 3260TIP3    H2 9745   1.673   0.591   0.262  0.6258 -1.4514 -0.7505
 3261TIP3   OH2 9746   4.864   0.889   2.757 -0.0373 -0.2447 -0.2980
 3261TIP3    H1 9747   4.774   0.872   2.787 -0.2997 -0.5131 -1.2179
 3261TIP3    H2 9748   4.885   0.974   2.796 -0.4437 -0.4825  0.4685
 3262TIP3   OH2 9749   0.310   2.099   5.750  0.2953 -0.0001  0.4852
 3262TIP3    H1 9750   0.242   2.102   5.817  0.9371  0.3219  1.1369
 3262TIP3    H2 9751   0.267   2.132   5.671 -0.7822 -1.4418  0.4378
 3263TIP3   OH2 9752   1.662   5.950   0.916 -0.3594  0.8826 -0.3836
 3263TIP3    H1 9753   1.612   6.011   0.861 -0.2416  1.0445 -0.3109
 3263TIP3    H2 9754   1.668   5.993   1.001 -0.3400  0.7362 -0.3107
 3264TIP3   OH2 9755   1.216   6.433   2.961 -0.0151  0.1022 -1.0505
 3264TIP3    H1 9756   1.122   6.420   2.956 -0.2241  1.2364 -0.5337
 3264TIP3    H2 9757   1.253   6.367   2.903 -0.9198 -2.5497  1.1490
 3265TIP3   OH2 9758   1.338   3.371   5.368 -0.7199  0.2995 -0.0869
 3265TIP3    H1 9759   1.356   3.396   5.458 -0.5684  1.4013 -0.4136
 3265TIP3    H2 9760   1.250   3.404   5.350 -0.6898  0.2164 -0.3969
 3266TIP3   OH2 9761   0.475   5.543   5.225 -0.3836  0.4170 -0.3540
 3266TIP3    H1 9762   0.476   5.458   5.182 -1.8420  0.6849 -0.9677
 3266TIP3    H2 9763   0.520   5.602   5.164 -1.0964  0.4802 -0.8226
 3267TIP3   OH2 9764   2.452   1.360   5.169 -0.1092  0.7232  0.4345
 3267TIP3    H1 9765   2.360   1.379   5.190 -0.1521  1.3147 -0.2663
 3267TIP3    H2 9766   2.492   1.446   5.158  0.5211  0.4648  0.6703
 3268TIP3   OH2 9767   1.714   4.240   2.255  0.1772 -0.5835  0.0652
 3268TIP3    H1 9768   1.707   4.176   2.184 -2.1980  0.0189 -0.3321
 3268TIP3    H2 9769   1.624   4.253   2.285  0.6293  2.1091  0.5353
 3269TIP3   OH2 9770   4.323   5.915   1.325  0.2519  0.4494  0.0846
 3269TIP3    H1 9771   4.412   5.893   1.299  0.3457  1.5420 -0.5794
 3269TIP3    H2 9772   4.318   5.892   1.418  1.4427  1.0011  0.2978
 3270TIP3   OH2 9773   5.111   1.649   4.679  1.0947  0.3443 -0.1094
 3270TIP3    H1 9774   5.042   1.676   4.619  1.1832 -0.4855 -0.6040
 3270TIP3    H2 9775   5.103   1.553   4.683  3.0363  0.0711 -1.2085
 3271TIP3   OH2 9776   2.718   3.298   0.381 -0.5277  0.3559  0.8328
 3271TIP3    H1 9777   2.693   3.244   0.306 -1.2241  1.6832  0.0696
 3271TIP3    H2 9778   2.775   3.366   0.344  0.9875 -0.2635  1.9029
 3272TIP3   OH2 9779   1.932   0.583   5.084  0.2689 -0.4554 -0.4352
 3272TIP3    H1 9780   1.872   0.519   5.124 -0.6432 -0.8665 -2.3541
 3272TIP3    H2 9781   1.963   0.635   5.158  0.1459 -2.3570  1.0527
 3273TIP3   OH2 9782   5.386   2.273   2.257  0.0642  0.0735 -0.2711
 3273TIP3    H1 9783   5.296   2.299   2.277 -0.1083  0.1869 -1.1598
 3273TIP3    H2 9784   5.437   2.305   2.331 -0.4935  0.8640 -0.2160
 3274TIP3   OH2 9785   6.474   4.505   5.743  0.0043  0.1629 -0.0384
 3274TIP3    H1 9786   6.452   4.596   5.722  0.1080  0.2005  0.0105
 3274TIP3    H2 9787   6.569   4.505   5.750 -0.0614  0.2853  1.0214
 3275TIP3   OH2 9788   2.112   3.723   2.611 -0.5044  0.1690 -0.0616
 3275TIP3    H1 9789   2.144   3.791   2.552 -0.3947 -0.5355 -0.8299
 3275TIP3    H2 9790   2.168   3.729   2.688 -0.8209  1.2768  0.1047
 3276TIP3   OH2 9791   0.909   3.819   0.708 -0.8299  0.0562 -0.4410
 3276TIP3    H1 9792   0.824   3.857   0.729 -0.8595 -0.3926  0.2905
 3276TIP3    H2 9793   0.891   3.757   0.637 -0.8505  1.0672 -1.3426
 3277TIP3   OH2 9794   3.945   6.382   0.562  0.7346  0.2272 -0.1331
 3277TIP3    H1 9795   3.957   6.381   0.467 -1.6324 -1.9845 -0.5189
 3277TIP3    H2 9796   3.984   6.300   0.592  2.2828  1.3265  1.0111
 3278TIP3   OH2 9797   0.382   5.741   5.720  0.0282 -0.1812  0.1634
 3278TIP3    H1 9798   0.458   5.755   5.664  0.0138 -2.1489 -0.4197
 3278TIP3    H2 9799   0.309   5.727   5.659  0.0679 -2.6666  0.5789
 3279TIP3   OH2 9800   3.185   3.804   1.831 -0.6771 -0.1014  0.0369
 3279TIP3    H1 9801   3.183   3.899   1.841 -3.3547 -0.0715 -0.0917
 3279TIP3    H2 9802   3.241   3.773   1.902 -2.1775  1.3933  1.9500
 3280TIP3   OH2 9803   5.596   5.974   4.249 -0.0342 -0.2375  0.1344
 3280TIP3    H1 9804   5.589   5.929   4.164  0.7365 -1.3134  0.6069
 3280TIP3    H2 9805   5.529   5.933   4.303  2.1482 -2.5911  1.2745
 3281TIP3   OH2 9806   6.154   3.013   4.133 -0.2451 -0.4153 -0.3798
 3281TIP3    H1 9807   6.102   3.056   4.202 -0.3976 -1.4300  0.1485
 3281TIP3    H2 9808   6.120   3.050   4.051 -0.1516  0.7124  0.0762
 3282TIP3   OH2 9809   1.021   4.366   2.247  0.4004  0.0719  0.2203
 3282TIP3    H1 9810   1.044   4.405   2.163  0.1267  0.3815  0.2881
 3282TIP3    H2 9811   1.104   4.360   2.295  0.3573  1.1115  0.4381
 3283TIP3   OH2 9812   7.227   3.216   0.283 -0.1010 -0.3917  0.3536
 3283TIP3    H1 9813   7.156   3.260   0.238 -0.0055 -1.2495 -0.6621
 3283TIP3    H2 9814   7.238   3.133   0.236  0.3275 -1.0990  1.6481
 3284TIP3   OH2 9815   3.005   3.010   1.425  0.0916 -0.2311 -0.0505
 3284TIP3    H1 9816   2.937   2.958   1.383  1.1454 -2.3890  0.7844
 3284TIP3    H2 9817   2.962   3.048   1.502  0.1300 -2.9330  1.4309
 3285TIP3   OH2 9818   0.577   0.273   4.867  0.8271 -0.4784 -0.1805
 3285TIP3    H1 9819   0.567   0.180   4.883  0.8484 -1.1310 -3.3531
 3285TIP3    H2 9820   0.487   0.305   4.856  0.8779 -0.8474 -2.1444
 3286TIP3   OH2 9821   4.944   1.789   2.486 -0.5089 -0.3188 -0.0475
 3286TIP3    H1 9822   4.854   1.756   2.480 -0.3237 -0.4896 -3.5874
 3286TIP3    H2 9823   4.988   1.726   2.543 -1.8040 -2.3932 -1.2074
 3287TIP3   OH2 9824   5.540   0.685   1.145 -0.3443 -0.3941  0.1113
 3287TIP3    H1 9825   5.589   0.684   1.227  0.0020 -1.1912 -0.0962
 3287TIP3    H2 9826   5.449   0.679   1.171 -0.2259 -0.8149  0.4339
 3288TIP3   OH2 9827   6.243   5.552   2.650  0.1792  0.1187  0.2821
 3288TIP3    H1 9828   6.201   5.581   2.730 -1.5119 -1.5034  0.0444
 3288TIP3    H2 9829   6.173   5.509   2.600  1.0861  1.4028 -2.2417
 3289TIP3   OH2 9830   2.654   3.338   1.598  0.1397  0.5897 -0.3995
 3289TIP3    H1 9831   2.630   3.252   1.564  0.3182 -0.4790  1.9937
 3289TIP3    H2 9832   2.572   3.377   1.627  0.3735 -0.1939  1.4800
 3290TIP3   OH2 9833   5.183   0.789   3.519 -0.0491  0.0571  0.1312
 3290TIP3    H1 9834   5.166   0.737   3.440 -2.8216  0.1103  0.6148
 3290TIP3    H2 9835   5.131   0.747   3.587  1.0343  0.9679  1.5741
 3291TIP3   OH2 9836   1.700   0.504   5.851  0.2711  0.5288  0.5121
 3291TIP3    H1 9837   1.728   0.433   5.794 -3.5873 -1.5028  0.8143
 3291TIP3    H2 9838   1.732   0.479   5.938 -1.8045 -1.5217  0.7960
 3292TIP3   OH2 9839   5.431   3.868   3.078  0.6444 -0.0999  0.6047
 3292TIP3    H1 9840   5.445   3.797   3.015 -2.2824  0.5788 -1.0208
 3292TIP3    H2 9841   5.371   3.830   3.143  0.0508  0.5116  0.4208
 3293TIP3   OH2 9842   2.152   0.554   5.655  0.4895 -0.2028 -0.1803
 3293TIP3    H1 9843   2.085   0.490   5.681 -0.8170  1.1568 -0.0560
 3293TIP3    H2 9844   2.177   0.597   5.737  1.1132 -0.3228 -0.3071
 3294TIP3   OH2 9845   2.134   1.159   0.241 -0.6065 -0.1024  0.5042
 3294TIP3    H1 9846   2.090   1.142   0.158 -1.3396 -0.5831  0.9696
 3294TIP3    H2 9847   2.162   1.250   0.236  0.5884 -0.5253 -0.8071
 3295TIP3   OH2 9848   5.818   2.518   5.026  0.7523 -0.6653 -0.5564
 3295TIP3    H1 9849   5.731   2.552   5.045  0.1173 -2.3109 -0.3503
 3295TIP3    H2 9850   5.855   2.494   5.111  0.5462 -1.8973 -0.7877
 3296TIP3   OH2 9851   4.735   3.971   5.212  0.1072 -0.0736 -0.0102
 3296TIP3    H1 9852   4.693   4.051   5.245  1.3309  0.1132  1.1971
 3296TIP3    H2 9853   4.738   3.913   5.288  1.0896 -0.4629 -0.3273
 3297TIP3   OH2 9854   3.055   5.282   1.920 -0.2453 -0.3483 -0.3842
 3297TIP3    H1 9855   2.983   5.221   1.909  0.1643 -0.6930 -1.1867
 3297TIP3    H2 9856   3.046   5.344   1.848 -1.1710  1.0840  0.9116
 3298TIP3   OH2 9857   0.891   0.213   2.887 -0.1864  0.3466  0.1117
 3298TIP3    H1 9858   0.969   0.266   2.900  1.7135 -2.1534 -0.3961
 3298TIP3    H2 9859   0.882   0.206   2.792  1.5778 -2.7762  0.0542
 3299TIP3   OH2 9860   5.515   3.982   0.772 -0.2287 -0.0243  0.4787
 3299TIP3    H1 9861   5.533   4.076   0.782 -0.3085 -0.0572  0.9465
 3299TIP3    H2 9862   5.465   3.958   0.849  1.3039 -0.8269  1.2735
 3300TIP3   OH2 9863   4.502   0.653   2.525  0.0465 -0.6650  0.4099
 3300TIP3    H1 9864   4.530   0.564   2.546 -1.1639 -1.1213  0.1918
 3300TIP3    H2 9865   4.456   0.644   2.441  1.8644  0.5470 -0.7803
 3301TIP3   OH2 9866   5.504   2.970   5.750  0.2346  0.0172  0.1476
 3301TIP3    H1 9867   5.507   2.957   5.656 -1.9313  1.1147 -0.1253
 3301TIP3    H2 9868   5.539   2.889   5.787  2.1031 -0.0305 -1.5662
 3302TIP3   OH2 9869   0.212   4.636   5.876  0.0501 -0.3030  0.1338
 3302TIP3    H1 9870   0.243   4.658   5.788 -0.0866 -1.4218 -0.2039
 3302TIP3    H2 9871   0.281   4.668   5.934  0.7597 -0.7193 -0.4657
 3303TIP3   OH2 9872   1.463   2.392   4.037 -0.0925  0.1457  0.5671
 3303TIP3    H1 9873   1.501   2.442   3.965 -0.7922  0.6191  0.5203
 3303TIP3    H2 9874   1.496   2.434   4.116  0.9884 -0.6100  0.5476
 3304TIP3   OH2 9875   2.008   5.280   4.851 -0.5589  0.3115 -0.7026
 3304TIP3    H1 9876   2.051   5.198   4.827  0.3546  0.4292  0.4403
 3304TIP3    H2 9877   2.071   5.348   4.828 -0.4771  0.5501  0.2192
 3305TIP3   OH2 9878   0.951   4.779   4.618 -0.2818  0.6400  0.2923
 3305TIP3    H1 9879   0.972   4.837   4.545 -2.0288  0.0391 -0.7650
 3305TIP3    H2 9880   1.026   4.720   4.624  0.7429  1.8994  0.2594
 3306TIP3   OH2 9881   4.203   3.280   5.425  0.0022  0.2155  0.2884
 3306TIP3    H1 9882   4.154   3.235   5.494 -1.2712  1.1338  0.0107
 3306TIP3    H2 9883   4.187   3.373   5.441  0.6480  0.4820 -0.5641
 3307TIP3   OH2 9884   3.556   5.916   4.982 -0.3898 -0.1406 -0.3153
 3307TIP3    H1 9885   3.649   5.937   4.979 -0.3048 -0.4460  0.0943
 3307TIP3    H2 9886   3.551   5.824   4.956 -0.2539 -1.0236  2.4319
 3308TIP3   OH2 9887   3.239   3.765   3.931 -0.5879 -0.2372 -0.2139
 3308TIP3    H1 9888   3.229   3.846   3.981  0.0208 -0.3832  0.1522
 3308TIP3    H2 9889   3.334   3.754   3.922 -0.6690  0.6428 -2.8090
 3309TIP3   OH2 9890   2.051   4.558   3.559  0.4357 -0.0852 -0.4145
 3309TIP3    H1 9891   1.990   4.554   3.485  0.8406  1.1006 -0.8339
 3309TIP3    H2 9892   2.133   4.522   3.525  0.8912  1.3064 -0.8496
 3310TIP3   OH2 9893   3.213   6.430   0.926 -0.6807  0.4243 -0.0688
 3310TIP3    H1 9894   3.279   6.493   0.957 -1.6948  1.0349  0.9439
 3310TIP3    H2 9895   3.211   6.362   0.992 -0.0851 -0.3325 -0.8124
 3311TIP3   OH2 9896   3.451   3.529   4.413 -0.5445 -0.4148 -0.5585
 3311TIP3    H1 9897   3.364   3.507   4.378 -0.2250 -0.6267 -1.2260
 3311TIP3    H2 9898   3.498   3.446   4.414 -1.1867 -0.8515  2.3176
 3312TIP3   OH2 9899   6.951   1.987   1.714  0.2774  0.3664 -0.4050
 3312TIP3    H1 9900   7.023   1.969   1.653  0.2037  0.3790 -0.4957
 3312TIP3    H2 9901   6.921   2.074   1.691 -0.3677  0.0069 -0.9787
 3313TIP3   OH2 9902   0.184   3.726   2.323 -0.2783  0.2387 -0.3996
 3313TIP3    H1 9903   0.253   3.767   2.271  0.3253 -1.2196 -0.8010
 3313TIP3    H2 9904   0.222   3.719   2.411 -0.7303  1.3382 -0.1025
 3314TIP3   OH2 9905   1.576   0.362   0.060  0.3739 -0.4247 -0.1899
 3314TIP3    H1 9906   1.526   0.285   0.088 -0.1456  0.1958  0.6382
 3314TIP3    H2 9907   1.665   0.331   0.049 -0.1992 -1.6275 -1.9385
 3315TIP3   OH2 9908   0.938   0.242   1.312 -0.4601 -0.1340  0.4740
 3315TIP3    H1 9909   0.998   0.201   1.374 -1.8245 -1.4092  1.0322
 3315TIP3    H2 9910   0.854   0.247   1.359 -0.5615  2.7165  0.1560
 3316TIP3   OH2 9911   1.509   6.798   3.375  0.0293  0.6023  0.1540
 3316TIP3    H1 9912   1.501   6.703   3.387  0.9849  0.2500 -1.6302
 3316TIP3    H2 9913   1.599   6.818   3.400  0.2773  0.7662 -0.7990
 3317TIP3   OH2 9914   0.429   4.252   5.790  0.3269 -0.1643 -0.2561
 3317TIP3    H1 9915   0.342   4.287   5.769  0.5618  0.4661 -0.2112
 3317TIP3    H2 9916   0.430   4.246   5.885  0.6586  0.7332 -0.1892
 3318TIP3   OH2 9917   3.887   2.185   5.885  0.0954  0.5503 -0.1117
 3318TIP3    H1 9918   3.875   2.160   5.793 -0.8063 -0.4872  0.2801
 3318TIP3    H2 9919   3.853   2.274   5.890 -0.3102  0.4321 -0.6776
 3319TIP3   OH2 9920   1.711   0.453   2.373 -0.2599 -0.2366 -0.3335
 3319TIP3    H1 9921   1.663   0.528   2.407 -1.2527 -1.5731  1.3936
 3319TIP3    H2 9922   1.659   0.420   2.300 -2.3116 -1.8717  1.7210
 3320TIP3   OH2 9923   5.120   5.468   3.698 -0.4212 -0.3072  0.1325
 3320TIP3    H1 9924   5.129   5.560   3.671 -1.7170 -0.0700  0.4152
 3320TIP3    H2 9925   5.115   5.472   3.794  1.5547 -0.8895  0.2866
 3321TIP3   OH2 9926   4.008   4.133   1.587  0.7641  0.1799 -0.1148
 3321TIP3    H1 9927   4.061   4.059   1.558  2.6545  1.4101 -0.0275
 3321TIP3    H2 9928   3.922   4.096   1.608  1.4941 -1.8637 -0.5842
 3322TIP3   OH2 9929   5.613   4.361   5.214 -0.1007 -0.2051 -0.6202
 3322TIP3    H1 9930   5.692   4.414   5.203 -0.8260  0.8263 -1.0187
 3322TIP3    H2 9931   5.641   4.272   5.190  2.1377 -0.9217  3.6713
 3323TIP3   OH2 9932   0.110   1.015   3.737 -0.7924 -0.1895  0.2340
 3323TIP3    H1 9933   0.063   1.066   3.671 -2.0342 -1.8363 -0.1949
 3323TIP3    H2 9934   0.056   1.021   3.815 -0.7346 -0.5143  0.2984
 3324TIP3   OH2 9935   5.835   2.971   5.087  0.4996  0.0498 -0.0111
 3324TIP3    H1 9936   5.909   2.914   5.108  2.1757  1.0035 -2.7406
 3324TIP3    H2 9937   5.865   3.059   5.109 -0.9148  0.2250  1.3713
 3325TIP3   OH2 9938   3.696   0.539   3.512  0.6930  0.1606  0.1957
 3325TIP3    H1 9939   3.703   0.499   3.425 -0.4830 -1.9675  0.9966
 3325TIP3    H2 9940   3.602   0.540   3.531  0.8301  1.6712  1.0138
 3326TIP3   OH2 9941   2.428   2.108   5.443 -0.1241  0.4792  0.1618
 3326TIP3    H1 9942   2.481   2.061   5.378  1.0199  1.2305  0.5326
 3326TIP3    H2 9943   2.358   2.149   5.391 -0.8006 -1.0870 -0.2438
 3327TIP3   OH2 9944   5.842   5.143   3.428  0.3509  0.4831 -0.1604
 3327TIP3    H1 9945   5.750   5.122   3.444  0.4607  0.8947  1.0781
 3327TIP3    H2 9946   5.851   5.138   3.332 -0.5530 -1.2084 -0.2109
 3328TIP3   OH2 9947   1.954   2.133   1.478 -0.2499  0.6299 -0.3748
 3328TIP3    H1 9948   2.011   2.070   1.434  1.3790  1.8843 -0.1467
 3328TIP3    H2 9949   1.895   2.164   1.409  1.5430  1.7399 -1.5103
 3329TIP3   OH2 9950   0.770   4.585   1.123 -0.3104  0.3799  0.3481
 3329TIP3    H1 9951   0.803   4.496   1.129  0.0427  0.4945  0.1412
 3329TIP3    H2 9952   0.680   4.576   1.092  0.7737  0.2232 -3.3043
 3330TIP3   OH2 9953   5.398   5.948   3.880  0.1228 -0.4168 -0.6020
 3330TIP3    H1 9954   5.344   5.895   3.938 -0.4251  0.5508 -0.1989
 3330TIP3    H2 9955   5.365   5.930   3.793 -0.9190  0.2207 -0.3493
 3331TIP3   OH2 9956   1.034   0.039   0.338  0.6612 -0.5443  0.0675
 3331TIP3    H1 9957   1.050   0.066   0.428 -2.1845 -1.9105  1.1100
 3331TIP3    H2 9958   1.074  -0.048   0.332  0.5196 -0.6146  0.1383
 3332TIP3   OH2 9959   5.194   3.543   3.648 -0.3943  0.3425 -0.3585
 3332TIP3    H1 9960   5.099   3.553   3.641 -0.2290  1.6101 -1.2163
 3332TIP3    H2 9961   5.217   3.484   3.576 -0.6204 -0.7106  0.4181
 3333TIP3   OH2 9962   5.532   3.777   0.985  0.1148 -0.3235 -0.4213
 3333TIP3    H1 9963   5.611   3.829   1.001 -0.8805  0.9474  0.4996
 3333TIP3    H2 9964   5.491   3.768   1.071 -0.6117 -1.2137 -0.8416
 3334TIP3   OH2 9965   5.460   4.647   3.159 -0.0706  0.1931 -0.6219
 3334TIP3    H1 9966   5.386   4.696   3.196 -0.1610  0.1840 -0.7890
 3334TIP3    H2 9967   5.513   4.622   3.235 -0.4958 -0.2243 -0.4553
 3335TIP3   OH2 9968   4.850   4.776   3.174 -0.1137 -0.4188 -0.1832
 3335TIP3    H1 9969   4.769   4.733   3.201  0.0756 -0.1211  0.8928
 3335TIP3    H2 9970   4.900   4.707   3.130 -0.3246 -0.9929  0.4543
 3336TIP3   OH2 9971   4.414   1.720   1.060 -0.1751 -0.6207  0.3868
 3336TIP3    H1 9972   4.483   1.786   1.066 -1.3945  0.6248  1.4211
 3336TIP3    H2 9973   4.443   1.661   0.991  1.2073  0.7042 -0.2164
 3337TIP3   OH2 9974   5.203   1.371   0.497  0.3709  0.3538  0.0419
 3337TIP3    H1 9975   5.236   1.281   0.506 -0.3685  0.1165  0.4781
 3337TIP3    H2 9976   5.116   1.368   0.536 -1.6540  0.1079 -3.9613
 3338TIP3   OH2 9977   3.078   1.234   4.147 -0.7388  0.1549 -0.4391
 3338TIP3    H1 9978   2.990   1.270   4.155 -0.2590  1.2176  0.3914
 3338TIP3    H2 9979   3.134   1.311   4.135  0.1190 -0.4771 -0.6229
 3339TIP3   OH2 9980   3.660   5.455   2.274 -0.6384 -0.1963  0.0993
 3339TIP3    H1 9981   3.705   5.416   2.350 -0.6295  1.1092  0.7950
 3339TIP3    H2 9982   3.725   5.452   2.204 -0.0336  0.1701  0.6321
 3340TIP3   OH2 9983   0.312   2.918   2.531  0.3470  0.1889  0.1981
 3340TIP3    H1 9984   0.344   3.008   2.540 -2.0527  0.9827  2.0506
 3340TIP3    H2 9985   0.269   2.900   2.615  1.0617 -2.8651  0.0247
 3341TIP3   OH2 9986   4.181   6.446   4.752 -0.4238  0.2358 -0.1493
 3341TIP3    H1 9987   4.114   6.499   4.795 -0.6366  0.8853 -1.2603
 3341TIP3    H2 9988   4.137   6.409   4.676  0.2137 -0.1210 -0.3453
 3342TIP3   OH2 9989   3.860   5.443   2.090  0.2813  0.5376 -0.0090
 3342TIP3    H1 9990   3.846   5.350   2.073  0.8259  0.5682 -0.6654
 3342TIP3    H2 9991   3.883   5.480   2.005  0.0776  1.2749  0.2472
 3343TIP3   OH2 9992   2.539   3.880   4.637 -0.3432 -0.4358  0.0039
 3343TIP3    H1 9993   2.622   3.853   4.597  0.5777 -0.6385  1.9232
 3343TIP3    H2 9994   2.500   3.940   4.573  1.7911  0.4988 -0.5281
 3344TIP3   OH2 9995   0.379   1.095   4.380 -0.2214  0.3029  0.0478
 3344TIP3    H1 9996   0.322   1.055   4.314  2.1291 -4.0648  0.3198
 3344TIP3    H2 9997   0.323   1.105   4.457 -1.8292  1.1182 -1.1690
 3345TIP3   OH2 9998   5.276   6.002   3.622 -0.4290 -0.0774  0.7962
 3345TIP3    H1 9999   5.196   6.039   3.585  1.0307 -0.9922 -3.8932
 3345TIP3    H210000   5.337   6.075   3.624 -0.2772 -0.2019  0.7070
 3346TIP3   OH210001   5.622   6.428   5.064 -0.3731  0.0995  0.4761
 3346TIP3    H110002   5.652   6.408   4.975 -0.8919  1.1608  0.0419
 3346TIP3    H210003   5.638   6.348   5.113  1.5682  0.0731 -0.1370
 3347TIP3   OH210004   5.309   2.557   5.802 -0.0569 -0.5862 -0.0675
 3347TIP3    H110005   5.237   2.575   5.862 -0.2270  2.2084 -0.9461
 3347TIP3    H210006   5.266   2.523   5.723 -0.8622  2.8315 -1.3194
 3348TIP3   OH210007   4.771   1.158   4.651  0.3088  0.0142 -0.5993
 3348TIP3    H110008   4.725   1.103   4.587 -0.5159  0.2451 -0.2177
 3348TIP3    H210009   4.801   1.097   4.718  0.0579 -0.0668 -0.5602
 3349TIP3   OH210010   3.375   5.258   0.676  0.0680  0.9255 -0.1294
 3349TIP3    H110011   3.287   5.261   0.637 -0.0692 -1.1146 -0.0718
 3349TIP3    H210012   3.360   5.271   0.769 -0.6242 -2.4457  0.3540
 3350TIP3   OH210013   1.340   3.252   1.987  0.0110 -0.1007 -0.5873
 3350TIP3    H110014   1.347   3.321   2.053  0.7744 -1.6580  1.0636
 3350TIP3    H210015   1.246   3.243   1.971 -0.1866  0.2947  0.3068
 3351TIP3   OH210016   1.748   1.597   2.877  0.1031  0.3809  0.3415
 3351TIP3    H110017   1.714   1.672   2.925  0.6605 -0.7269  2.6068
 3351TIP3    H210018   1.842   1.614   2.869 -0.0554  0.7978 -0.8898
 3352TIP3   OH210019   4.160   3.580   3.504 -0.1846 -0.5790 -0.0320
 3352TIP3    H110020   4.103   3.503   3.499 -0.0825 -0.5734 -1.8711
 3352TIP3    H210021   4.171   3.607   3.413 -0.2632  1.6654  0.5714
 3353TIP3   OH210022   0.821   5.195   4.685  0.1419 -0.1049  0.1523
 3353TIP3    H110023   0.810   5.100   4.689  0.2519 -0.1570 -0.6354
 3353TIP3    H210024   0.746   5.230   4.732 -0.4311 -0.5659 -0.4114
 3354TIP3   OH210025   4.465   5.683   3.122  0.5539  0.3791  0.5125
 3354TIP3    H110026   4.499   5.638   3.199 -0.8086  2.5324  2.5248
 3354TIP3    H210027   4.409   5.619   3.080  1.5075 -0.9326  1.1860
 3355TIP3   OH210028   1.139   5.073   3.256  0.1072 -0.0152 -0.3483
 3355TIP3    H110029   1.136   5.147   3.317  0.9850 -0.4743  0.2868
 3355TIP3    H210030   1.193   5.103   3.183 -1.1978  0.6422 -1.0783
 3356TIP3   OH210031   2.416   0.470   2.109  0.0083 -0.3306 -0.0051
 3356TIP3    H110032   2.406   0.480   2.204 -0.1241 -0.9710  0.0529
 3356TIP3    H210033   2.342   0.415   2.082 -1.2362  1.6369 -0.8327
 3357TIP3   OH210034   0.177   4.343   3.627 -0.9225  0.1875 -0.3680
 3357TIP3    H110035   0.186   4.289   3.548 -0.3913 -0.1330 -0.0899
 3357TIP3    H210036   0.218   4.426   3.604 -2.5859  0.8511 -1.1303
 3358TIP3   OH210037   6.542   0.521   5.575 -0.3897  0.3905  0.3472
 3358TIP3    H110038   6.628   0.542   5.611  0.4531 -0.8653 -0.8238
 3358TIP3    H210039   6.513   0.445   5.626 -0.5681  0.4853  0.3877
 3359TIP3   OH210040   6.988   2.814   4.656 -0.2041  0.7924 -0.0853
 3359TIP3    H110041   7.035   2.732   4.644 -1.1728  0.3890 -1.3159
 3359TIP3    H210042   7.049   2.870   4.704  0.7366 -0.3887  0.1408
 3360TIP3   OH210043   0.461   3.093   3.816  0.2459 -0.0220 -0.2519
 3360TIP3    H110044   0.418   3.178   3.826  0.2709 -0.1633  1.2055
 3360TIP3    H210045   0.540   3.099   3.869  0.4323 -0.8344 -0.4217
 3361TIP3   OH210046   3.125   1.519   1.355 -0.5719  0.2567 -0.2722
 3361TIP3    H110047   3.053   1.488   1.301 -1.2587  1.3095  0.0130
 3361TIP3    H210048   3.169   1.585   1.301 -0.2533  0.1215 -0.1777
 3362TIP3   OH210049   1.025   3.824   3.604 -0.5166 -0.0629 -0.2222
 3362TIP3    H110050   1.035   3.917   3.626 -0.6257  0.0692 -0.7316
 3362TIP3    H210051   1.036   3.779   3.688 -0.8426  0.4356  0.0978
 3363TIP3   OH210052   5.830   3.271   0.118  0.3090 -0.4998  0.1641
 3363TIP3    H110053   5.919   3.238   0.112  0.3586 -0.8300  2.0289
 3363TIP3    H210054   5.777   3.193   0.136 -0.2187 -0.1758  0.0482
 3364TIP3   OH210055   0.386   2.218   1.088  0.1456  0.4509 -0.2429
 3364TIP3    H110056   0.328   2.284   1.050 -0.2601  0.1635 -0.1325
 3364TIP3    H210057   0.416   2.166   1.014 -0.0330  0.3734 -0.2630
 3365TIP3   OH210058   1.444   6.027   2.730 -0.1472  0.3440  0.0075
 3365TIP3    H110059   1.394   5.949   2.751  0.3850 -0.0642 -0.2142
 3365TIP3    H210060   1.524   5.994   2.689 -0.5303  1.0657 -1.3563
 3366TIP3   OH210061   5.810   0.540   4.493 -0.5629  0.8248 -0.0066
 3366TIP3    H110062   5.888   0.510   4.540 -2.2015 -1.1779  1.6779
 3366TIP3    H210063   5.815   0.496   4.408  0.5464  1.3904 -0.2401
 3367TIP3   OH210064   1.074   3.397   3.850 -0.5686 -0.1434 -0.5128
 3367TIP3    H110065   1.155   3.357   3.819  0.7423 -0.1207  2.5427
 3367TIP3    H210066   1.010   3.326   3.847  0.1731 -0.8198 -0.7115
 3368TIP3   OH210067   2.249   0.215   5.774  0.6507  0.4736  0.4128
 3368TIP3    H110068   2.255   0.155   5.848 -0.1956 -0.7731 -0.4918
 3368TIP3    H210069   2.318   0.187   5.715  1.0186  1.1651  0.5041
 3369TIP3   OH210070   6.717   5.915   4.829  0.1089  0.3077 -0.1498
 3369TIP3    H110071   6.806   5.887   4.851  0.5381 -0.3546 -2.4963
 3369TIP3    H210072   6.706   5.996   4.878  1.0184 -0.8507  2.1981
 3370TIP3   OH210073   1.576   4.309   0.011 -0.4347 -0.2365  0.4326
 3370TIP3    H110074   1.650   4.328  -0.047 -0.3776 -1.2878  0.1278
 3370TIP3    H210075   1.560   4.390   0.059  1.2516 -0.1374  0.8763
 3371TIP3   OH210076   0.339   1.631   4.006  0.3463  0.3874 -0.3308
 3371TIP3    H110077   0.293   1.714   3.994 -0.6996 -0.0530  0.4607
 3371TIP3    H210078   0.432   1.654   4.002  0.0853  1.7043  0.4748
 3372TIP3   OH210079   0.250   1.446   0.103 -0.3589  0.2126  0.1018
 3372TIP3    H110080   0.272   1.466   0.012  0.0092 -1.5281 -0.2238
 3372TIP3    H210081   0.159   1.476   0.113  0.2231  2.2177 -0.2265
 3373TIP3   OH210082   5.753   6.518   1.517 -0.2648 -0.5045 -0.4440
 3373TIP3    H110083   5.823   6.508   1.453  0.8521 -0.1312  0.6787
 3373TIP3    H210084   5.716   6.604   1.498 -1.8422 -1.5091 -2.3465
 3374TIP3   OH210085   3.892   5.142   4.325 -0.2004 -0.9161 -0.8136
 3374TIP3    H110086   3.957   5.110   4.387  0.1688 -1.3945 -1.4271
 3374TIP3    H210087   3.818   5.170   4.379  0.8937  0.6265 -0.0172
 3375TIP3   OH210088   3.106   1.594   3.960  0.2481  0.2592  1.2710
 3375TIP3    H110089   3.198   1.586   3.934  0.2099 -2.0521  1.5859
 3375TIP3    H210090   3.057   1.584   3.878  0.2477  1.4988  1.1019
 3376TIP3   OH210091   3.404   4.785   1.715  0.3075  0.8615  0.0777
 3376TIP3    H110092   3.312   4.795   1.740  0.7175  0.7362  1.7962
 3376TIP3    H210093   3.404   4.716   1.649 -0.6532 -0.5849  1.5045
 3377TIP3   OH210094   4.445   1.091   1.230 -0.1139  0.0428  0.3038
 3377TIP3    H110095   4.396   1.173   1.226 -1.8994 -0.9344  0.9493
 3377TIP3    H210096   4.418   1.042   1.153 -1.0635 -0.9551  1.2262
 3378TIP3   OH210097   1.129   5.477   0.589  0.0821 -1.0959  0.2938
 3378TIP3    H110098   1.049   5.480   0.537 -1.0767  2.6936  1.9406
 3378TIP3    H210099   1.199   5.494   0.526 -1.0092  0.7472 -0.5085
 3379TIP3   OH210100   2.629   3.822   5.294  0.3049  0.1823 -0.7675
 3379TIP3    H110101   2.566   3.767   5.246  2.3851 -1.4212 -1.8282
 3379TIP3    H210102   2.623   3.791   5.384  1.1348 -1.5901 -1.2728
 3380TIP3   OH210103   1.564   2.729   2.289 -0.1642 -0.3245 -0.5930
 3380TIP3    H110104   1.653   2.701   2.267 -0.0758  0.1082 -0.8067
 3380TIP3    H210105   1.564   2.733   2.384  0.6081  1.4000 -0.6259
 3381TIP3   OH210106   2.078   5.877   1.129 -0.2970 -0.0946 -0.0502
 3381TIP3    H110107   2.040   5.868   1.216  0.4583 -0.2129  0.2742
 3381TIP3    H210108   2.141   5.948   1.137  0.7260 -0.9522 -0.1461
 3382TIP3   OH210109   0.151   6.030   3.634  0.5976 -0.3097  0.0681
 3382TIP3    H110110   0.177   5.962   3.697  0.5018 -0.6554 -0.2616
 3382TIP3    H210111   0.115   6.100   3.689  1.0222 -0.3737  0.4350
 3383TIP3   OH210112   0.774   5.885   2.488 -0.1821 -0.5825  0.0892
 3383TIP3    H110113   0.849   5.920   2.537 -0.3412  0.4170 -0.3524
 3383TIP3    H210114   0.796   5.900   2.396 -1.2607  0.4862 -0.0195
 3384TIP3   OH210115   0.674   2.854   0.752  0.2775 -0.6162  0.7188
 3384TIP3    H110116   0.675   2.889   0.841  1.6355 -0.4859  0.6687
 3384TIP3    H210117   0.766   2.848   0.727 -0.0569  1.4928 -1.4924
 3385TIP3   OH210118   5.173   3.685   1.594  0.0661 -0.0647 -0.2460
 3385TIP3    H110119   5.243   3.619   1.600 -0.0695 -0.0988  1.2061
 3385TIP3    H210120   5.098   3.644   1.637 -0.4369  0.5116 -0.5676
 3386TIP3   OH210121   6.487   4.126   5.815  0.5665 -0.3397  0.0122
 3386TIP3    H110122   6.551   4.141   5.885  0.0468 -1.2766  0.7194
 3386TIP3    H210123   6.521   4.050   5.767 -1.1638 -2.4764  1.9166
 3387TIP3   OH210124   1.030   2.190   2.601 -0.2787 -0.5632 -0.3374
 3387TIP3    H110125   0.990   2.276   2.614 -0.0436 -0.1016 -2.3760
 3387TIP3    H210126   0.991   2.135   2.670 -0.5098  1.1122  0.9380
 3388TIP3   OH210127   0.662   0.169   1.398  0.1878 -0.3718  0.2821
 3388TIP3    H110128   0.605   0.245   1.385  2.7261  1.5172 -0.6748
 3388TIP3    H210129   0.613   0.096   1.362 -1.0982  1.3916 -1.8302
 3389TIP3   OH210130   3.906   1.128   1.418 -0.4844 -0.3982  0.0508
 3389TIP3    H110131   3.835   1.066   1.435 -0.1264 -0.8811 -0.1940
 3389TIP3    H210132   3.878   1.209   1.461 -1.0171 -0.6888  0.2608
 3390TIP3   OH210133   2.712   2.401   1.988  0.2572 -0.7748  0.4378
 3390TIP3    H110134   2.679   2.388   2.077  0.6766 -2.7520  0.3525
 3390TIP3    H210135   2.635   2.387   1.932 -0.2438  1.5022  0.4918
 3391TIP3   OH210136   5.261   2.874   1.946 -0.0935  0.0211 -0.2690
 3391TIP3    H110137   5.290   2.913   2.029 -0.5376  0.5408 -0.3499
 3391TIP3    H210138   5.212   2.944   1.903  2.1028  0.5857 -2.0533
 3392TIP3   OH210139   1.960   5.196   5.730 -0.0062  0.0667  0.0073
 3392TIP3    H110140   1.894   5.176   5.797  1.6419  0.6249  1.8768
 3392TIP3    H210141   1.992   5.110   5.702 -0.7366 -0.1734 -0.1226
 3393TIP3   OH210142   5.659   0.677   4.689  0.2854  0.2568  0.5265
 3393TIP3    H110143   5.670   0.771   4.676  1.5921  0.5524  3.1234
 3393TIP3    H210144   5.737   0.638   4.651  1.6820  0.6644  2.7631
 3394TIP3   OH210145   6.450   1.749   4.987 -0.0702  0.1593  0.2184
 3394TIP3    H110146   6.429   1.842   4.988  1.1723  0.4901 -1.4890
 3394TIP3    H210147   6.529   1.741   5.041 -1.2738 -0.2646  2.0329
 3395TIP3   OH210148   2.592   0.528   4.339 -0.0024  0.4412  0.2996
 3395TIP3    H110149   2.518   0.527   4.278 -0.0238  0.8419  0.3189
 3395TIP3    H210150   2.650   0.596   4.304 -0.9870  2.1679  1.8961
 3396TIP3   OH210151   2.688   1.033   2.320 -0.3045  0.4136  0.1199
 3396TIP3    H110152   2.743   0.989   2.385  1.7894 -0.2104 -1.9065
 3396TIP3    H210153   2.746   1.097   2.279 -1.5988  0.9481 -0.9642
 3397TIP3   OH210154   2.083   2.149   2.895  0.9902  0.2118 -0.3266
 3397TIP3    H110155   2.070   2.118   2.985  1.5925 -1.4127 -0.7502
 3397TIP3    H210156   2.035   2.231   2.891 -1.1066 -0.8596  0.8067
 3398TIP3   OH210157   1.724   3.478   3.068  0.0521 -0.2316  0.4384
 3398TIP3    H110158   1.712   3.409   3.133 -0.7062 -0.6262 -0.1133
 3398TIP3    H210159   1.773   3.436   2.997  1.5045  0.3779  1.0234
 3399TIP3   OH210160   0.357   1.061   2.100 -0.4142  0.2667 -0.4362
 3399TIP3    H110161   0.423   1.020   2.044  0.1276  0.0516  0.3406
 3399TIP3    H210162   0.393   1.054   2.189 -2.2988 -1.5853  0.2811
 3400TIP3   OH210163   6.109   5.200   4.314 -0.9558  0.2473 -0.1638
 3400TIP3    H110164   6.045   5.270   4.326 -1.3927 -0.1909  0.0948
 3400TIP3    H210165   6.104   5.148   4.395  0.5393  0.8576  0.3617
 3401TIP3   OH210166   4.524   5.505   3.340  0.1096  0.1396 -0.0395
 3401TIP3    H110167   4.447   5.496   3.396  0.1435  0.4551  0.0619
 3401TIP3    H210168   4.598   5.484   3.398  0.1357  0.3410 -0.0005
 3402TIP3   OH210169   6.309   5.865   4.592 -0.0071  0.4109  0.2488
 3402TIP3    H110170   6.261   5.839   4.670  0.0757  1.1342  0.5520
 3402TIP3    H210171   6.244   5.860   4.521 -1.0454  2.9243  0.9128
 3403TIP3   OH210172   5.589   3.335   1.358 -0.7646 -0.0877 -0.5633
 3403TIP3    H110173   5.576   3.411   1.414 -0.8798  0.7663 -1.7108
 3403TIP3    H210174   5.634   3.369   1.281  1.0933 -1.5681 -0.1942
 3404TIP3   OH210175   5.489   4.405   4.426 -0.1497  0.0561 -0.5681
 3404TIP3    H110176   5.395   4.387   4.415 -0.8162  0.7970  2.7154
 3404TIP3    H210177   5.529   4.318   4.434 -1.4559 -0.3788  3.0763
 3405TIP3   OH210178   4.733   0.282   3.047  0.2176  0.0162 -0.4130
 3405TIP3    H110179   4.828   0.272   3.056  0.3338  1.5199  0.4269
 3405TIP3    H210180   4.716   0.372   3.077 -1.0244  1.0487 -3.7510
 3406TIP3   OH210181   3.229   0.683   5.385  0.0001  0.8429 -0.2863
 3406TIP3    H110182   3.313   0.715   5.416  0.0133  0.7644 -0.2410
 3406TIP3    H210183   3.168   0.755   5.403  0.2371  1.2856 -1.2166
 3407TIP3   OH210184   1.341   5.599   0.399 -0.4731 -0.3880 -0.3738
 3407TIP3    H110185   1.369   5.527   0.343  1.3219 -1.2410  1.4857
 3407TIP3    H210186   1.268   5.639   0.352 -0.1595 -2.0854 -2.4644
 3408TIP3   OH210187   3.199   2.430   0.117  0.2189  0.2004  0.0195
 3408TIP3    H110188   3.288   2.398   0.131  0.2236  0.6275  1.0324
 3408TIP3    H210189   3.146   2.383   0.180 -0.6339 -1.4377 -1.8097
 3409TIP3   OH210190   2.941   3.782   2.923  0.8450  0.5253 -0.0302
 3409TIP3    H110191   2.903   3.694   2.926 -0.4072  1.0453 -0.0721
 3409TIP3    H210192   2.944   3.810   3.014 -0.6046  1.1824 -0.1598
 3410TIP3   OH210193   4.060   2.854   2.322  0.1682  0.1000 -0.7060
 3410TIP3    H110194   4.134   2.858   2.262  2.0878  0.9665  1.5679
 3410TIP3    H210195   3.998   2.918   2.288  1.1423  0.4975 -1.7912
 3411TIP3   OH210196   3.891   2.970   3.742 -0.6269  0.0856 -0.3426
 3411TIP3    H110197   3.865   3.018   3.820  0.2781  1.8940 -1.0867
 3411TIP3    H210198   3.865   2.879   3.759 -1.9929  0.7380  1.3200
 3412TIP3   OH210199   4.146   1.658   1.863  0.5636 -0.5766 -0.6658
 3412TIP3    H110200   4.085   1.661   1.936 -0.5701 -0.5466 -1.5851
 3412TIP3    H210201   4.232   1.671   1.903 -0.1475  0.8330  0.5180
 3413TIP3   OH210202   3.923   4.896   4.626  0.3133  0.3653  0.2752
 3413TIP3    H110203   3.940   4.903   4.719  0.8937  2.8977  0.0450
 3413TIP3    H210204   3.971   4.969   4.587 -1.9022  0.8618 -1.7241
 3414TIP3   OH210205   7.007   5.155   3.833 -0.0330  0.0954 -0.2096
 3414TIP3    H110206   7.032   5.082   3.776 -0.3268  0.1697 -0.4395
 3414TIP3    H210207   7.078   5.162   3.896  1.0941  0.9829 -1.4966
 3415TIP3   OH210208   3.315   5.224   1.123 -0.1299 -0.4683  0.1198
 3415TIP3    H110209   3.304   5.278   1.045  0.1298  0.5917  0.7938
 3415TIP3    H210210   3.266   5.144   1.104 -0.5017 -0.0123 -0.9199
 3416TIP3   OH210211   5.084   3.779   2.908 -0.4394  0.5778 -0.1969
 3416TIP3    H110212   5.009   3.734   2.946 -0.2650 -0.5611 -1.1413
 3416TIP3    H210213   5.160   3.737   2.947 -0.2516  2.0450  1.1194
 3417TIP3   OH210214   5.966   4.486   2.505  0.1909  0.4211  0.0224
 3417TIP3    H110215   5.945   4.493   2.411  0.8588 -2.8265 -0.4766
 3417TIP3    H210216   5.881   4.473   2.547  0.0333  0.0576 -0.3950
 3418TIP3   OH210217   1.844   0.999   5.132 -0.4107 -0.2548 -0.1712
 3418TIP3    H110218   1.772   0.963   5.079 -1.2531  1.5531 -0.3224
 3418TIP3    H210219   1.830   0.962   5.219 -0.2431 -1.6008 -0.6911
 3419TIP3   OH210220   4.907   3.381   0.648 -0.2238 -0.4518 -0.5983
 3419TIP3    H110221   4.991   3.336   0.660  1.0577  1.2361 -2.5728
 3419TIP3    H210222   4.862   3.329   0.581  1.1639  0.8853 -2.7186
 3420TIP3   OH210223   5.834   5.368   0.826  0.3742 -0.7091 -0.4017
 3420TIP3    H110224   5.839   5.426   0.750  0.7848  0.6501  0.6019
 3420TIP3    H210225   5.744   5.379   0.858  0.8624  0.6099  0.6528
 3421TIP3   OH210226   2.190   3.951   1.355  0.2166 -0.2782  0.2851
 3421TIP3    H110227   2.240   4.000   1.289  0.8442 -0.2737  0.7508
 3421TIP3    H210228   2.254   3.890   1.393 -0.5853 -1.6036 -0.4089
 3422TIP3   OH210229   3.161   5.001   1.086  0.3968  0.1940  0.3936
 3422TIP3    H110230   3.197   4.928   1.035 -0.6009  0.4490 -0.7098
 3422TIP3    H210231   3.099   4.960   1.146 -2.0024  0.2822 -1.8735
 3423TIP3   OH210232   6.224   5.901   4.893  0.1314 -0.2226 -0.2876
 3423TIP3    H110233   6.209   5.892   4.988  0.3867  1.1891 -0.0949
 3423TIP3    H210234   6.310   5.941   4.887  0.0053 -0.0787 -1.1290
 3424TIP3   OH210235   6.946   2.121   4.368  0.0233 -0.2805  0.1579
 3424TIP3    H110236   7.017   2.062   4.344 -0.4274 -1.0509  0.6679
 3424TIP3    H210237   6.986   2.184   4.428  0.4953 -0.0888 -0.3482
 3425TIP3   OH210238   4.122   2.907   1.637  0.7141  0.2814 -0.6032
 3425TIP3    H110239   4.103   2.983   1.692  0.1360  1.0134 -1.7573
 3425TIP3    H210240   4.090   2.932   1.550  0.1136 -1.4589 -0.9232
 3426TIP3   OH210241   5.861   2.167   2.039  0.3792 -0.0562  0.1569
 3426TIP3    H110242   5.935   2.222   2.013 -0.8371  0.8776 -1.5486
 3426TIP3    H210243   5.807   2.223   2.093  1.6125 -1.2231  2.7650
 3427TIP3   OH210244   3.769   2.303   2.158  0.2920 -0.0689 -0.0141
 3427TIP3    H110245   3.674   2.304   2.152  0.2889 -0.9182 -0.3164
 3427TIP3    H210246   3.791   2.211   2.173  1.1506 -0.1787 -1.6981
 3428TIP3   OH210247   7.117   6.010   5.784  0.4827 -0.0881 -0.8319
 3428TIP3    H110248   7.126   6.052   5.869  1.1759  0.1043 -0.9943
 3428TIP3    H210249   7.062   5.933   5.800 -0.5941  0.7339 -0.4831
 3429TIP3   OH210250   3.514   5.156   0.464  0.1627 -0.0337  0.3995
 3429TIP3    H110251   3.478   5.196   0.543  0.5923  1.0829  0.0509
 3429TIP3    H210252   3.437   5.127   0.414 -0.1591  0.4434  0.6195
 3430TIP3   OH210253   3.004   3.883   3.429 -0.1508  0.0776 -0.0526
 3430TIP3    H110254   3.079   3.914   3.479  0.5243 -0.8953 -0.4190
 3430TIP3    H210255   3.007   3.787   3.438 -1.4645  0.0185  0.0881
 3431TIP3   OH210256   6.203   2.100   0.698 -0.3094  0.2936  0.5799
 3431TIP3    H110257   6.217   2.035   0.767 -0.0946  0.3223  0.5645
 3431TIP3    H210258   6.144   2.164   0.738  0.4814  0.7641  1.0383
 3432TIP3   OH210259   0.423   3.896   5.184  0.0329  0.3983  0.2138
 3432TIP3    H110260   0.347   3.937   5.225 -0.3466 -0.2905  0.2110
 3432TIP3    H210261   0.449   3.958   5.116 -0.0795  0.9768  0.6865
 3433TIP3   OH210262   3.162   1.672   5.478  0.5884  0.4806 -0.2207
 3433TIP3    H110263   3.222   1.631   5.541  0.3254  1.7106  0.8815
 3433TIP3    H210264   3.164   1.615   5.402  1.3892 -0.7388  0.6823
 3434TIP3   OH210265   4.238   2.564   4.021 -0.1976 -0.0420  0.4260
 3434TIP3    H110266   4.230   2.658   4.003  1.5437 -0.1579 -1.3778
 3434TIP3    H210267   4.330   2.544   4.001 -1.0824 -2.5689 -1.7027
 3435TIP3   OH210268   1.442   6.653   3.947 -0.3333 -0.2299 -0.0798
 3435TIP3    H110269   1.358   6.668   3.991  0.1207  1.1660  0.3497
 3435TIP3    H210270   1.473   6.569   3.982 -1.8068 -1.0770 -0.6918
 3436TIP3   OH210271   0.576   3.978   0.551  0.3910 -0.1583 -0.4389
 3436TIP3    H110272   0.624   4.059   0.533  1.0928 -0.2258  0.9930
 3436TIP3    H210273   0.610   3.948   0.635 -0.3418 -1.5942 -0.6235
 3437TIP3   OH210274   3.632   4.873   1.457  0.1154 -0.8336  0.2414
 3437TIP3    H110275   3.713   4.882   1.407 -0.7911  0.2585 -1.1074
 3437TIP3    H210276   3.654   4.901   1.545  1.1792 -0.4642 -0.1300
 3438TIP3   OH210277   5.711   0.273   3.786 -0.0421  0.7923  0.0172
 3438TIP3    H110278   5.659   0.225   3.721 -2.1705 -0.1059  2.1962
 3438TIP3    H210279   5.799   0.237   3.778 -0.8726 -1.2687 -0.5623
 3439TIP3   OH210280   4.591   0.767   2.047 -0.2412 -0.2334 -0.1223
 3439TIP3    H110281   4.600   0.751   1.953 -1.0180  0.3452 -0.3048
 3439TIP3    H210282   4.590   0.679   2.086 -0.1444 -0.4860 -0.6793
 3440TIP3   OH210283   1.790   6.272   5.005 -1.0372 -0.4197  0.0622
 3440TIP3    H110284   1.873   6.225   5.006 -0.5305  0.3049  3.5919
 3440TIP3    H210285   1.733   6.223   5.064 -1.8976  1.0884  0.5468
 3441TIP3   OH210286   2.574   6.455   0.427  0.3644 -0.4170  0.0158
 3441TIP3    H110287   2.582   6.530   0.486  1.3843 -0.3993 -0.1185
 3441TIP3    H210288   2.645   6.467   0.364  0.9832 -1.8452  0.3919
 3442TIP3   OH210289   1.124   3.390   0.295 -0.3061 -0.0391 -0.3962
 3442TIP3    H110290   1.038   3.420   0.322 -0.7919 -1.7902  0.1974
 3442TIP3    H210291   1.118   3.294   0.300  2.0651 -0.1872  0.9955
 3443TIP3   OH210292   5.788   5.971   1.375 -0.0366 -0.3673 -0.0443
 3443TIP3    H110293   5.827   5.974   1.463 -0.8205  0.7136  0.2892
 3443TIP3    H210294   5.862   5.960   1.316  0.9377  2.5772  0.4826
 3444TIP3   OH210295   1.962   5.421   4.443  0.0499  0.4588 -0.1915
 3444TIP3    H110296   1.973   5.370   4.362  1.3639 -0.1152  0.3202
 3444TIP3    H210297   1.963   5.512   4.414  0.7706  0.2669 -0.8190
 3445TIP3   OH210298   7.183   1.694   0.124 -0.6823 -0.6366 -0.4976
 3445TIP3    H110299   7.140   1.775   0.153  0.6249 -0.9746  2.7795
 3445TIP3    H210300   7.150   1.627   0.184  0.8249 -1.8479 -0.9593
 3446TIP3   OH210301   4.517   0.642   3.634  0.7131  0.0651 -0.2661
 3446TIP3    H110302   4.482   0.712   3.690 -0.5173 -0.3676 -0.4549
 3446TIP3    H210303   4.475   0.562   3.667 -0.1095 -0.1879 -1.8252
 3447TIP3   OH210304   2.088   3.501   1.121  0.2757 -0.5270  0.3446
 3447TIP3    H110305   2.157   3.452   1.077 -0.5136 -1.7347  0.4180
 3447TIP3    H210306   2.039   3.543   1.050  1.2419  0.5963  0.3077
 3448TIP3   OH210307   4.413   5.008   5.649 -0.1236  0.3142 -0.1624
 3448TIP3    H110308   4.448   4.924   5.619 -0.4561 -0.2172  0.9044
 3448TIP3    H210309   4.445   5.071   5.584  1.1394 -0.4511 -0.3278
 3449TIP3   OH210310   2.775   0.106   4.005 -0.3845 -0.0858  0.3925
 3449TIP3    H110311   2.719   0.088   3.930 -1.0874  2.0211  0.3470
 3449TIP3    H210312   2.851   0.151   3.969 -0.2899  0.1273  0.8486
 3450TIP3   OH210313   4.653   3.998   3.325  0.3467  0.3782  0.3881
 3450TIP3    H110314   4.625   3.906   3.329  1.4270 -0.0059 -0.4439
 3450TIP3    H210315   4.670   4.014   3.232  0.0587  1.4614  0.5114
 3451TIP3   OH210316   4.508   1.770   4.498 -0.2855  0.1358  0.5730
 3451TIP3    H110317   4.472   1.690   4.460 -0.5134  0.5032 -0.0021
 3451TIP3    H210318   4.599   1.771   4.470  0.1257 -0.6655  1.8166
 3452TIP3   OH210319   2.261   2.718   0.456  1.2068  0.1029 -0.1961
 3452TIP3    H110320   2.304   2.668   0.387  0.3593 -1.3229  0.2742
 3452TIP3    H210321   2.317   2.706   0.533  1.9992  1.4566 -0.5326
 3453TIP3   OH210322   2.340   3.871   3.624 -0.1272 -0.3344  0.2648
 3453TIP3    H110323   2.418   3.870   3.680  0.6205  0.3178 -0.7385
 3453TIP3    H210324   2.268   3.887   3.685  0.5835 -0.3076  1.1317
 3454TIP3   OH210325   2.277   4.954   5.101 -0.1017  0.0632 -0.5815
 3454TIP3    H110326   2.370   4.942   5.081 -0.0644 -2.0712  0.5607
 3454TIP3    H210327   2.236   4.872   5.072 -1.1351 -0.2228  1.5125
 3455TIP3   OH210328   1.573   6.529   4.366  0.0536  0.3872 -0.1125
 3455TIP3    H110329   1.636   6.565   4.429 -0.5683  1.6059 -0.1542
 3455TIP3    H210330   1.489   6.562   4.395 -0.2303  1.1658 -1.7001
 3456TIP3   OH210331   1.169   0.392   2.466  0.2025  0.2995  0.3411
 3456TIP3    H110332   1.258   0.412   2.494 -0.1970 -0.1117  1.9848
 3456TIP3    H210333   1.166   0.296   2.463 -0.1598  0.3162  0.1715
 3457TIP3   OH210334   0.583   5.429   2.820  0.2431 -0.3787  0.2339
 3457TIP3    H110335   0.577   5.334   2.807 -1.6763 -0.3395  0.6008
 3457TIP3    H210336   0.495   5.455   2.847  0.4837  1.6600 -0.7940
 3458TIP3   OH210337   5.792   5.237   5.545  0.3047 -0.0753 -0.2410
 3458TIP3    H110338   5.780   5.148   5.512  0.0732 -0.3723  0.6018
 3458TIP3    H210339   5.880   5.237   5.583 -0.3907 -0.5496  1.4904
 3459TIP3   OH210340   6.879   5.226   2.433 -0.2560  0.1640  0.7495
 3459TIP3    H110341   6.898   5.136   2.407 -0.3219 -0.4197  2.5971
 3459TIP3    H210342   6.830   5.262   2.359 -1.8105 -1.8742  0.6999
 3460TIP3   OH210343   0.491   5.365   3.376  0.4439  0.0527  0.0819
 3460TIP3    H110344   0.397   5.376   3.390  0.0997 -0.7368 -1.3456
 3460TIP3    H210345   0.516   5.295   3.437 -0.3765 -1.2342 -0.9798
 3461TIP3   OH210346   4.633   6.096   2.454  0.2541 -0.1447 -0.1296
 3461TIP3    H110347   4.676   6.070   2.373 -0.0593  1.0084 -0.6911
 3461TIP3    H210348   4.540   6.082   2.437  0.2492 -0.7544  0.3677
 3462TIP3   OH210349   5.045   1.006   1.462 -0.3633  0.2555 -0.0151
 3462TIP3    H110350   4.960   1.027   1.499 -0.5766 -1.8206  0.8039
 3462TIP3    H210351   5.026   0.978   1.372 -0.2558  1.9065 -0.5757
 3463TIP3   OH210352   4.183   4.758   5.244 -0.2447 -0.6468 -0.0450
 3463TIP3    H110353   4.146   4.844   5.226 -0.7794 -0.7274  0.6418
 3463TIP3    H210354   4.114   4.696   5.218 -0.8410 -0.7829  1.7435
 3464TIP3   OH210355   5.358   3.160   1.369 -0.0387 -0.7984  0.1368
 3464TIP3    H110356   5.444   3.200   1.381 -1.0295  1.1172  1.3686
 3464TIP3    H210357   5.320   3.158   1.457 -1.2471 -1.6732 -0.3767
 3465TIP3   OH210358   0.517   5.887   2.103  0.1680  0.0118 -0.0756
 3465TIP3    H110359   0.440   5.939   2.124 -0.0483 -0.1900 -0.3723
 3465TIP3    H210360   0.501   5.853   2.015 -0.9504 -2.8075  1.1015
 3466TIP3   OH210361   0.166   1.488   3.293  0.3046  0.2724 -0.4313
 3466TIP3    H110362   0.076   1.517   3.277  0.8998  1.2874 -2.2781
 3466TIP3    H210363   0.210   1.501   3.209  2.2388 -0.0250  0.4868
 3467TIP3   OH210364   7.099   6.454   5.079  0.1149  0.3250 -0.0309
 3467TIP3    H110365   7.159   6.408   5.020  0.1267 -0.3107  0.4666
 3467TIP3    H210366   7.114   6.413   5.164  0.3995  1.5177  0.5053
 3468TIP3   OH210367   3.033   2.647   2.748  0.0041 -0.1730 -0.3668
 3468TIP3    H110368   3.107   2.690   2.705  0.4184 -0.9630 -0.4669
 3468TIP3    H210369   2.994   2.593   2.679  0.2950 -0.9664  0.0818
 3469TIP3   OH210370   5.389   2.650   5.488 -0.6510 -0.4517  0.0552
 3469TIP3    H110371   5.388   2.736   5.531 -0.7873 -0.7144  0.5880
 3469TIP3    H210372   5.316   2.603   5.528 -0.8794 -0.6468 -0.5853
 3470TIP3   OH210373   2.930   2.509   2.513 -0.4771  0.0635  0.2582
 3470TIP3    H110374   3.000   2.450   2.543 -0.3254  0.8961  1.6601
 3470TIP3    H210375   2.920   2.488   2.420 -0.2991 -2.0225  0.6382
 3471TIP3   OH210376   1.674   6.388   1.130  0.5053 -0.1091 -0.2669
 3471TIP3    H110377   1.695   6.482   1.129  3.8857 -0.6911  1.2001
 3471TIP3    H210378   1.607   6.379   1.197 -0.2159  1.2648 -0.7565
 3472TIP3   OH210379   3.522   6.156   4.551  0.3107 -0.0313 -0.3403
 3472TIP3    H110380   3.546   6.064   4.540 -0.8071 -0.2649 -1.0560
 3472TIP3    H210381   3.477   6.159   4.635 -1.8273 -0.6574 -1.3992
 3473TIP3   OH210382   4.818   2.066   1.086 -0.5569  0.5831 -0.0922
 3473TIP3    H110383   4.912   2.061   1.102 -0.5824  1.7968  0.5444
 3473TIP3    H210384   4.800   2.159   1.073 -1.4518  0.2333 -1.6875
 3474TIP3   OH210385   3.245   3.676   2.097  0.6206 -0.2507 -0.0748
 3474TIP3    H110386   3.296   3.752   2.125  1.2917 -0.1210 -1.5262
 3474TIP3    H210387   3.178   3.665   2.164  2.2230 -0.1011  1.6327
 3475TIP3   OH210388   0.550   3.730   4.945  0.5040 -0.3660  0.4118
 3475TIP3    H110389   0.593   3.665   4.890  3.0760  1.0680  0.5257
 3475TIP3    H210390   0.564   3.699   5.035  0.4370 -0.4068  0.4073
 3476TIP3   OH210391   5.321   0.133   3.462  0.4008 -0.0244  0.1633
 3476TIP3    H110392   5.332   0.169   3.550  2.5226  0.6661 -0.3383
 3476TIP3    H210393   5.347   0.205   3.404 -0.6878 -0.5641 -1.0383
 3477TIP3   OH210394   6.938   2.272   0.860 -0.3719  0.0145 -0.2529
 3477TIP3    H110395   6.999   2.227   0.802 -0.6197 -1.0260  0.2833
 3477TIP3    H210396   6.992   2.299   0.935  0.1261  2.0552 -1.2518
 3478TIP3   OH210397   0.573   3.550   1.051 -0.3336 -0.0218  0.1210
 3478TIP3    H110398   0.568   3.581   0.960  0.4006 -1.8813 -0.6073
 3478TIP3    H210399   0.577   3.455   1.043 -3.1593 -0.4331  2.2653
 3479TIP3   OH210400   0.018   6.431   1.606 -0.3442  0.1122  0.3636
 3479TIP3    H110401   0.085   6.477   1.656  1.2761 -2.3404  0.6100
 3479TIP3    H210402  -0.005   6.356   1.660 -0.0342 -1.4891 -1.6107
 3480TIP3   OH210403   0.904   2.769   0.888  0.1452  0.3206  0.0604
 3480TIP3    H110404   0.911   2.815   0.971  0.5984  1.1044 -0.3914
 3480TIP3    H210405   0.888   2.678   0.911 -2.6652  0.9609  0.9786
 3481TIP3   OH210406   3.820   4.161   0.628 -0.2785 -0.1202 -0.2996
 3481TIP3    H110407   3.901   4.212   0.621  0.1399 -0.5061  1.3088
 3481TIP3    H210408   3.772   4.183   0.548  0.8204  1.1396 -0.6729
 3482TIP3   OH210409   4.063   1.960   5.057  0.0147  0.1066  0.5103
 3482TIP3    H110410   4.135   1.910   5.096  0.4703  0.8773  0.6830
 3482TIP3    H210411   4.079   1.953   4.962 -2.4246 -3.7677  0.1764
 3483TIP3   OH210412   2.058   3.493   3.051  0.4816 -0.3245 -0.0382
 3483TIP3    H110413   2.000   3.528   3.119  2.8531 -1.4541  2.8247
 3483TIP3    H210414   2.000   3.450   2.989 -1.8249 -0.9240  2.3487
 3484TIP3   OH210415   2.780   2.000   1.452 -0.0619 -0.1843  0.4620
 3484TIP3    H110416   2.710   2.052   1.492 -1.4576 -2.8482  1.7362
 3484TIP3    H210417   2.782   2.028   1.360 -3.6101 -0.7544  0.0913
 3485TIP3   OH210418   4.125   5.300   1.660 -1.0655  0.5513 -0.3603
 3485TIP3    H110419   4.030   5.302   1.657 -1.2880 -2.6890  1.0915
 3485TIP3    H210420   4.150   5.220   1.615  0.8954  0.7267  0.2775
 3486TIP3   OH210421   1.584   4.807   1.602 -0.7307 -0.0291 -0.1621
 3486TIP3    H110422   1.647   4.863   1.649 -2.7924  1.5994  0.8472
 3486TIP3    H210423   1.616   4.806   1.512 -0.6103  2.9574 -0.2634
 3487TIP3   OH210424   2.770   2.738   4.059 -0.7534  0.1107 -0.0104
 3487TIP3    H110425   2.740   2.711   3.972 -0.9860  2.3252 -0.6636
 3487TIP3    H210426   2.805   2.826   4.047  0.0211  0.1333  1.9914
 3488TIP3   OH210427   2.978   4.065   4.734  0.1462  0.4075 -0.4428
 3488TIP3    H110428   2.958   4.015   4.655  1.3996  1.3142 -1.3608
 3488TIP3    H210429   3.020   4.002   4.792 -0.7841 -0.2637 -0.4649
 3489TIP3   OH210430   3.402   1.660   5.885 -0.3231  0.0572 -0.3670
 3489TIP3    H110431   3.456   1.720   5.833  0.8566 -0.5131  0.1708
 3489TIP3    H210432   3.360   1.604   5.821  0.9672 -0.5154 -0.7424
 3490TIP3   OH210433   1.397   6.463   1.125 -0.2002 -0.7273 -0.5356
 3490TIP3    H110434   1.418   6.529   1.190  0.7042 -0.2258 -1.3131
 3490TIP3    H210435   1.414   6.506   1.041 -3.9014 -0.4095 -1.2752
 3491TIP3   OH210436   1.880   1.803   3.069  0.3357 -0.2890  0.7380
 3491TIP3    H110437   1.796   1.835   3.036  0.1732 -0.3553  1.0834
 3491TIP3    H210438   1.941   1.814   2.996 -0.2265 -1.2813  0.0923
 3492TIP3   OH210439   1.362   6.430   5.242 -0.1545 -0.0809 -0.1546
 3492TIP3    H110440   1.279   6.470   5.216 -0.2204  1.4539  2.1124
 3492TIP3    H210441   1.386   6.374   5.168 -2.7174  0.1444 -1.2715
 3493TIP3   OH210442   0.975   1.178   4.113  0.1090  0.4831  0.4261
 3493TIP3    H110443   0.931   1.097   4.139 -2.9500  0.9993 -2.4440
 3493TIP3    H210444   0.927   1.248   4.157 -0.5794  0.9408 -0.9828
 3494TIP3   OH210445   4.585   0.796   5.285 -0.0669  0.2356 -0.3605
 3494TIP3    H110446   4.605   0.823   5.374  0.7476 -0.1990 -0.4005
 3494TIP3    H210447   4.601   0.874   5.232 -0.1290  0.3730 -0.1781
 3495TIP3   OH210448   5.926   6.085   0.700  0.3816  0.4616  0.6238
 3495TIP3    H110449   5.920   5.992   0.722 -0.7572  0.5334  0.6714
 3495TIP3    H210450   5.847   6.103   0.650  0.1983  1.5881  1.2948
 3496TIP3   OH210451   6.395   6.074   0.015  0.8177  0.3107 -0.3996
 3496TIP3    H110452   6.368   6.015  -0.055  0.8276 -0.2894  0.0932
 3496TIP3    H210453   6.320   6.076   0.075 -0.1078  2.5843 -1.5122
 3497TIP3   OH210454   0.664   5.646   5.025  0.7816  0.1092 -0.3811
 3497TIP3    H110455   0.725   5.653   4.952  1.2345  3.3209  0.1227
 3497TIP3    H210456   0.667   5.733   5.066 -0.2548 -1.2195  2.8026
 3498TIP3   OH210457   4.157   3.568   3.241  0.4555 -0.0303  0.1512
 3498TIP3    H110458   4.169   3.475   3.220 -1.4525  0.0461 -1.5850
 3498TIP3    H210459   4.069   3.588   3.210  1.4765  2.8124 -1.1720
 3499TIP3   OH210460   4.972   2.867   3.769 -0.7016 -0.1439 -0.2363
 3499TIP3    H110461   5.012   2.780   3.762  1.6235  0.8609 -0.4861
 3499TIP3    H210462   4.910   2.872   3.697  0.7955 -0.8171 -1.6296
 3500TIP3   OH210463   2.899   4.062   2.610 -0.7931  0.5462 -1.0086
 3500TIP3    H110464   2.978   4.009   2.621  0.5316  2.4530 -0.8947
 3500TIP3    H210465   2.870   4.082   2.699 -0.6435  0.9180 -1.0417
 3501TIP3   OH210466   0.905   3.487   5.639 -0.3290  0.2451 -0.1069
 3501TIP3    H110467   0.986   3.442   5.664 -0.7625 -1.4862 -1.5669
 3501TIP3    H210468   0.856   3.496   5.721  0.7223  0.0269  0.5617
 3502TIP3   OH210469   5.749   2.698   2.768  0.5431 -0.0524 -0.5761
 3502TIP3    H110470   5.754   2.776   2.714 -1.0866  0.5254  0.0609
 3502TIP3    H210471   5.790   2.629   2.715  2.5572  1.3204 -0.9050
 3503TIP3   OH210472   3.478   4.680   2.921 -0.7305  0.1744 -0.3093
 3503TIP3    H110473   3.425   4.602   2.904  2.7966 -2.1051 -1.9966
 3503TIP3    H210474   3.513   4.666   3.009 -0.8338  0.3626 -0.2372
 3504TIP3   OH210475   6.103   2.334   0.230  0.5841 -0.0438 -0.3968
 3504TIP3    H110476   6.160   2.410   0.244 -0.7192  0.7607  0.8228
 3504TIP3    H210477   6.085   2.335   0.137  2.3583 -0.1956 -0.7893
 3505TIP3   OH210478   5.487   6.768   4.341 -0.0499 -0.3684 -0.0403
 3505TIP3    H110479   5.538   6.799   4.266 -0.1622  0.3114  0.1589
 3505TIP3    H210480   5.525   6.813   4.416  1.7135 -2.8899  0.7118
 3506TIP3   OH210481   0.229   3.946   1.735  0.1402  0.1390 -0.1008
 3506TIP3    H110482   0.224   3.971   1.642  1.5064  1.4325  0.1231
 3506TIP3    H210483   0.284   4.014   1.774 -1.2115  0.1766  1.8669
 3507TIP3   OH210484   3.657   5.147   4.106  0.3754  0.3264 -0.1215
 3507TIP3    H110485   3.737   5.144   4.158 -0.4155  1.0631  1.2100
 3507TIP3    H210486   3.607   5.070   4.134 -0.0030  0.6635  0.1459
 3508TIP3   OH210487   6.585   6.065   3.635 -0.0445 -0.2162  0.1075
 3508TIP3    H110488   6.652   6.018   3.586 -0.1734 -0.3700  0.0775
 3508TIP3    H210489   6.567   6.143   3.583  1.9114  1.1392  1.3419
 3509TIP3   OH210490   6.891   0.774   0.161  0.2654  0.6010 -0.4553
 3509TIP3    H110491   6.889   0.789   0.256  1.3420 -1.6361  0.0074
 3509TIP3    H210492   6.915   0.859   0.124 -1.2027  1.7930  1.1625
 3510TIP3   OH210493   0.701   3.731   2.498  0.2181  0.4000 -0.2034
 3510TIP3    H110494   0.668   3.770   2.417 -0.6787  0.9383  0.3939
 3510TIP3    H210495   0.759   3.661   2.470 -1.2604 -0.4273 -1.3275
 3511TIP3   OH210496  -0.015   1.379   3.672 -0.5608 -0.1298  0.2929
 3511TIP3    H110497   0.078   1.359   3.666 -0.1993  1.8119 -2.9501
 3511TIP3    H210498  -0.059   1.304   3.632 -0.2161 -0.0924 -0.1629
 3512TIP3   OH210499   3.588   4.953   3.041  0.0358  0.2031 -0.4691
 3512TIP3    H110500   3.670   4.989   3.008  0.7627 -1.7611 -0.9539
 3512TIP3    H210501   3.527   4.958   2.967  0.0754  0.5994 -0.4722
 3513TIP3   OH210502   2.910   1.271   1.053  0.0398 -0.5200 -0.6410
 3513TIP3    H110503   2.967   1.216   1.000 -0.7989 -1.7009 -0.3443
 3513TIP3    H210504   2.845   1.305   0.992  1.4858  1.5249 -1.1561
 3514TIP3   OH210505   6.376   5.722   1.896 -0.0791 -0.2255  0.0326
 3514TIP3    H110506   6.329   5.716   1.979 -0.2504 -0.9606 -0.1139
 3514TIP3    H210507   6.434   5.646   1.895  1.1125  0.6580  0.1990
 3515TIP3   OH210508   4.165   5.699   4.759 -0.0870  0.2424 -0.3241
 3515TIP3    H110509   4.079   5.658   4.753  0.5308 -0.9790 -1.3259
 3515TIP3    H210510   4.227   5.625   4.759  0.9687  1.0868  0.4429
 3516TIP3   OH210511   1.370   1.229   2.338 -0.2644  0.4451  0.2537
 3516TIP3    H110512   1.279   1.248   2.315 -0.3619  0.0966  0.3384
 3516TIP3    H210513   1.420   1.257   2.262 -0.5963 -0.8778 -0.4948
 3517TIP3   OH210514   3.954   3.631   0.160  0.0875 -0.0356 -0.4347
 3517TIP3    H110515   3.957   3.540   0.190 -1.8232 -0.0470 -0.1452
 3517TIP3    H210516   4.031   3.672   0.199 -0.1156 -1.0529  1.1108
 3518TIP3   OH210517   3.221   2.455   2.046 -0.7174 -0.1431 -0.1369
 3518TIP3    H110518   3.250   2.461   1.955  0.7554  3.2659  0.4266
 3518TIP3    H210519   3.126   2.456   2.040 -0.6725  1.8000 -1.6454
 3519TIP3   OH210520   4.069   2.794   3.387 -0.1525  0.5671 -0.1767
 3519TIP3    H110521   4.143   2.742   3.417 -0.8158  0.2442  0.9950
 3519TIP3    H210522   4.072   2.788   3.292  0.8115 -0.1561 -0.1181
 3520TIP3   OH210523   5.730   0.847   1.043  0.0668  0.1492  0.5878
 3520TIP3    H110524   5.644   0.817   1.069 -0.7661  1.2526 -0.7171
 3520TIP3    H210525   5.787   0.828   1.118 -0.9939 -1.8568  0.9266
 3521TIP3   OH210526   6.436   1.826   0.689  0.7297  0.0505 -0.1744
 3521TIP3    H110527   6.345   1.802   0.703  0.5678  0.6232 -0.2456
 3521TIP3    H210528   6.441   1.848   0.596  0.0983  3.5567  0.5148
 3522TIP3   OH210529   5.135   1.183   5.728  0.0186  0.4608  0.0809
 3522TIP3    H110530   5.193   1.237   5.675 -0.0038  0.4849  0.0810
 3522TIP3    H210531   5.192   1.117   5.768 -0.2367 -0.8640 -1.6120
 3523TIP3   OH210532   1.663   5.322   5.530 -0.0044  0.1593 -0.2476
 3523TIP3    H110533   1.730   5.256   5.549 -0.0250 -0.0716 -0.9268
 3523TIP3    H210534   1.703   5.405   5.553  0.0730 -0.0801  0.4946
 3524TIP3   OH210535   4.463   2.103   2.157 -0.2824  0.2050 -0.1664
 3524TIP3    H110536   4.487   2.076   2.068 -0.5248 -1.1957  0.1650
 3524TIP3    H210537   4.543   2.140   2.193 -0.0707  0.4121 -0.8427
 3525TIP3   OH210538   2.597   0.385   5.205  0.7103  0.2724 -0.0558
 3525TIP3    H110539   2.685   0.348   5.212  0.1285 -1.2382 -0.2598
 3525TIP3    H210540   2.608   0.463   5.150  2.2174  1.3125  1.5999
 3526TIP3   OH210541   4.715   0.380   0.330  0.4214  0.3299 -0.2888
 3526TIP3    H110542   4.665   0.436   0.389  1.8268 -0.9715  2.3225
 3526TIP3    H210543   4.652   0.354   0.263 -2.1463 -0.3494  2.1757
 3527TIP3   OH210544   4.696   4.839   3.493  0.4957 -0.3623 -0.0058
 3527TIP3    H110545   4.679   4.782   3.418 -1.4545 -1.0837  0.9355
 3527TIP3    H210546   4.778   4.806   3.531  0.9674 -0.6056 -1.2071
 3528TIP3   OH210547   5.863   5.008   2.527  0.2749  0.2126 -0.2888
 3528TIP3    H110548   5.782   4.975   2.488 -0.3148  0.4956  0.6566
 3528TIP3    H210549   5.894   4.936   2.582  1.2012 -0.2546 -1.3753
 3529TIP3   OH210550   1.453   0.199   4.902 -0.2019 -0.1814  1.0469
 3529TIP3    H110551   1.435   0.221   4.810  1.0526 -0.2990  0.7526
 3529TIP3    H210552   1.366   0.186   4.941 -0.7504 -0.3210 -0.1682
 3530TIP3   OH210553   4.630   2.367   0.378 -0.0377  0.3375  0.2448
 3530TIP3    H110554   4.709   2.418   0.360 -0.1284  0.1759 -0.6556
 3530TIP3    H210555   4.638   2.290   0.321 -1.1395  0.6293 -0.3267
 3531TIP3   OH210556   5.226   2.890   3.619  0.2193 -0.0106 -0.0616
 3531TIP3    H110557   5.134   2.876   3.642  0.4373 -0.0782  0.7951
 3531TIP3    H210558   5.238   2.985   3.626  0.7618 -0.1856  2.0522
 3532TIP3   OH210559   3.997   3.764   4.818 -0.2159 -0.0286  0.0100
 3532TIP3    H110560   3.965   3.836   4.765 -0.7583 -0.5660 -0.4055
 3532TIP3    H210561   3.929   3.697   4.812 -0.5137  0.0673  1.7734
 3533TIP3   OH210562   4.689   3.956   0.320 -0.7110  0.0267  0.5757
 3533TIP3    H110563   4.657   4.009   0.247 -0.0705 -0.5869 -0.1735
 3533TIP3    H210564   4.763   4.007   0.354 -1.2314  0.4870  1.0411
 3534TIP3   OH210565   3.344   0.165   4.819 -0.2581  0.1247 -0.6488
 3534TIP3    H110566   3.263   0.147   4.867 -0.0356 -0.0017 -0.3149
 3534TIP3    H210567   3.413   0.158   4.885  0.0894 -0.4360 -1.0631
 3535TIP3   OH210568   6.504   2.809   0.534  0.5210  0.2396  0.1213
 3535TIP3    H110569   6.574   2.798   0.598  1.1710  0.4189 -0.5583
 3535TIP3    H210570   6.544   2.856   0.461 -0.2578  0.1860 -0.3551
 3536TIP3   OH210571   4.183   4.115   3.457 -0.0785  0.0377  0.3698
 3536TIP3    H110572   4.188   4.174   3.382 -0.2996 -0.6582 -0.2018
 3536TIP3    H210573   4.090   4.102   3.471 -0.0195 -1.1019 -0.2506
 3537TIP3   OH210574   6.661   0.851   1.086  0.0732  0.1001  0.3576
 3537TIP3    H110575   6.603   0.783   1.052  0.3014  0.6392 -1.2126
 3537TIP3    H210576   6.741   0.841   1.035  0.9696  0.0959  1.7097
 3538TIP3   OH210577   2.635   3.967   0.790  0.1349 -0.2418  0.7127
 3538TIP3    H110578   2.542   3.965   0.768 -0.3206 -1.0624  2.4620
 3538TIP3    H210579   2.640   3.927   0.877  1.9537  1.1153  1.3096
 3539TIP3   OH210580   6.816   4.740   4.237 -0.2485 -0.1367 -0.6010
 3539TIP3    H110581   6.893   4.692   4.269 -0.2420 -0.4016 -1.0058
 3539TIP3    H210582   6.790   4.794   4.311  0.8838  0.6549 -0.7516
 3540TIP3   OH210583   3.016   0.204   3.902  0.2558 -0.0066  0.0998
 3540TIP3    H110584   3.068   0.184   3.824 -0.8533  1.6044 -1.1335
 3540TIP3    H210585   3.080   0.236   3.966  1.2339 -1.7128  0.0152
 3541TIP3   OH210586   0.948   5.086   2.027  0.6707  0.0357  0.5828
 3541TIP3    H110587   0.870   5.037   2.053 -0.8593  0.7557 -2.1693
 3541TIP3    H210588   0.927   5.177   2.048  0.3356  0.3328 -0.8643
 3542TIP3   OH210589   1.985   6.335   3.182 -0.2112 -0.2003  0.0097
 3542TIP3    H110590   1.914   6.399   3.192  0.4559  0.8295 -1.4202
 3542TIP3    H210591   1.947   6.265   3.129 -0.7072 -0.6351  0.9078
 3543TIP3   OH210592   6.297   1.537   0.183 -0.2870  1.0369  0.1178
 3543TIP3    H110593   6.204   1.518   0.171 -1.1872  4.0495  1.5252
 3543TIP3    H210594   6.300   1.620   0.230  3.1017 -0.1657  2.4793
 3544TIP3   OH210595   3.142   4.623   1.267  0.3866 -0.2543 -0.0547
 3544TIP3    H110596   3.227   4.613   1.223 -0.0698  0.1103 -1.0730
 3544TIP3    H210597   3.148   4.708   1.311  0.1712  0.3123 -1.0744
 3545TIP3   OH210598   2.140   5.023   2.029 -0.1593  0.0555  0.2415
 3545TIP3    H110599   2.052   4.998   2.056  0.5560 -1.7625  0.9834
 3545TIP3    H210600   2.168   5.088   2.093 -0.4122 -0.4268  0.8398
 3546TIP3   OH210601   2.773   3.916   1.272  0.1179 -0.9790  0.1009
 3546TIP3    H110602   2.855   3.934   1.316  0.8853 -0.3952 -1.4752
 3546TIP3    H210603   2.794   3.847   1.209 -0.0942  0.4468 -1.6168
 3547TIP3   OH210604   0.044   3.107   1.035  0.4568 -0.1883 -0.2131
 3547TIP3    H110605  -0.048   3.119   1.060  0.4945 -0.3839  0.0182
 3547TIP3    H210606   0.085   3.191   1.055  0.3129 -0.0708 -0.3952
 3548TIP3   OH210607   2.474   1.293   4.329 -0.2986  0.7589  0.3886
 3548TIP3    H110608   2.543   1.350   4.364 -0.2111  0.1678  1.2051
 3548TIP3    H210609   2.522   1.224   4.282 -0.3260  0.3432  0.9636
 3549TIP3   OH210610   2.156   4.542   5.678 -0.1191  0.1363 -0.0223
 3549TIP3    H110611   2.089   4.606   5.703 -1.5099 -0.9836 -0.7729
 3549TIP3    H210612   2.234   4.595   5.661 -1.5727  1.8152 -1.8917
 3550TIP3   OH210613   0.774   5.413   1.819  0.0013  0.1066 -0.3570
 3550TIP3    H110614   0.850   5.455   1.779 -1.3198  1.2314 -1.8645
 3550TIP3    H210615   0.767   5.329   1.775 -0.5147  0.6719 -1.3939
 3551TIP3   OH210616   1.708   5.926   2.980 -0.0318 -0.7420 -0.0151
 3551TIP3    H110617   1.713   5.879   3.063 -0.1265 -0.6662  0.0333
 3551TIP3    H210618   1.661   6.006   3.000  0.3794 -0.4907 -0.0357
 3552TIP3   OH210619   7.188   4.165   4.751  0.1794  0.3067  0.1523
 3552TIP3    H110620   7.147   4.081   4.771  1.9686 -0.3152  1.3916
 3552TIP3    H210621   7.117   4.229   4.758 -1.2281 -1.0632 -0.8753
 3553TIP3   OH210622   6.245   2.220   5.549 -0.3990 -0.2481 -0.0127
 3553TIP3    H110623   6.320   2.161   5.551 -1.0043 -1.0241  0.3683
 3553TIP3    H210624   6.193   2.197   5.626 -1.4508 -0.3028 -0.7119
 3554TIP3   OH210625   5.984   6.210   3.836 -0.1666 -0.2764  0.2443
 3554TIP3    H110626   5.951   6.299   3.853 -0.3933 -0.0635 -1.2261
 3554TIP3    H210627   6.047   6.221   3.766  1.4490 -1.0119  1.5206
 3555TIP3   OH210628   0.267   3.526   0.919  0.3317 -0.2057  0.6981
 3555TIP3    H110629   0.287   3.538   1.011  1.9700  0.0343  0.3397
 3555TIP3    H210630   0.311   3.598   0.874 -0.2566 -0.4371 -0.3004
 3556TIP3   OH210631   0.967   1.205   5.535 -0.5818  0.3943 -0.2707
 3556TIP3    H110632   0.884   1.158   5.547  0.1186 -0.8669 -0.2665
 3556TIP3    H210633   0.969   1.268   5.607 -0.6112 -0.9494  0.9485
 3557TIP3   OH210634   2.738   1.438   1.748  0.2806 -0.0224  0.3532
 3557TIP3    H110635   2.722   1.344   1.743 -1.2373  0.2509 -0.3822
 3557TIP3    H210636   2.784   1.459   1.666 -3.1638  0.4911 -1.6736
 3558TIP3   OH210637   3.936   0.856   1.985 -0.8337  0.7432  0.2476
 3558TIP3    H110638   3.865   0.813   1.937  2.1591 -3.2542 -1.1487
 3558TIP3    H210639   3.922   0.833   2.076 -1.6612  0.5581  0.0751
 3559TIP3   OH210640   4.633   4.069   2.288 -0.1157 -0.3555  0.1413
 3559TIP3    H110641   4.579   4.100   2.216  0.6332  0.5661 -0.0379
 3559TIP3    H210642   4.573   4.061   2.362 -0.6217  0.0126 -0.2272
 3560TIP3   OH210643   7.032   3.099   5.796  0.0600 -0.3578  0.1115
 3560TIP3    H110644   7.086   3.024   5.823  2.4454  1.4852  0.8073
 3560TIP3    H210645   7.044   3.163   5.865 -1.3477  0.9713 -0.8108
 3561TIP3   OH210646   0.297   5.842   2.815 -0.0695 -0.0877 -0.8625
 3561TIP3    H110647   0.358   5.806   2.879  1.0639  1.3658 -1.0743
 3561TIP3    H210648   0.257   5.765   2.774  1.0565 -1.0659 -0.1887
 3562TIP3   OH210649   4.137   1.348   0.577  0.0146  0.1257  0.0639
 3562TIP3    H110650   4.138   1.444   0.579 -2.0569  0.1879  1.7595
 3562TIP3    H210651   4.059   1.326   0.525 -1.9934 -0.4884  3.1204
 3563TIP3   OH210652   2.620   5.095   5.547  0.4954 -0.0477  0.1498
 3563TIP3    H110653   2.648   5.060   5.632 -1.5012 -0.2343  0.7715
 3563TIP3    H210654   2.569   5.025   5.508 -1.0736  1.0806  0.1065
 3564TIP3   OH210655   1.386   3.907   4.800 -0.2728 -0.3096  0.4737
 3564TIP3    H110656   1.415   3.859   4.722 -0.1965 -0.6486  0.7083
 3564TIP3    H210657   1.439   3.987   4.800  0.0241 -0.5043  0.4094
 3565TIP3   OH210658   2.243   0.675   4.997  0.0957  0.1021 -0.0400
 3565TIP3    H110659   2.239   0.581   4.976 -0.3479  0.3190 -0.9812
 3565TIP3    H210660   2.321   0.706   4.952 -0.7911  0.5452 -1.3350
 3566TIP3   OH210661   3.812   2.097   5.320  0.0779 -0.5199  0.2799
 3566TIP3    H110662   3.808   2.193   5.325 -1.3113 -0.4923 -0.8552
 3566TIP3    H210663   3.899   2.075   5.355 -0.0479  1.0504  1.6875
 3567TIP3   OH210664   3.638   0.479   5.310  0.0759 -0.2400  0.7670
 3567TIP3    H110665   3.644   0.425   5.389  0.9416 -1.1740  0.1125
 3567TIP3    H210666   3.708   0.444   5.253 -1.0527 -0.1685 -0.7337
 3568TIP3   OH210667   6.882   4.999   2.058 -0.4242  0.1543 -0.6827
 3568TIP3    H110668   6.918   4.951   1.984  0.0768 -0.6930  0.0806
 3568TIP3    H210669   6.890   5.092   2.034  0.4694 -0.0854 -1.3513
 3569TIP3   OH210670   3.014   1.577   2.741 -0.0439  0.0256 -0.6607
 3569TIP3    H110671   2.923   1.584   2.711 -1.3058 -2.5864  1.9478
 3569TIP3    H210672   3.063   1.550   2.664 -1.5358  1.1665 -2.0632
 3570TIP3   OH210673   0.424   3.860   3.798 -0.6374 -0.2349 -0.0256
 3570TIP3    H110674   0.468   3.907   3.868  0.5164  0.6841 -1.3112
 3570TIP3    H210675   0.494   3.819   3.747 -1.3014  0.3588 -1.4964
 3571TIP3   OH210676   3.436   5.988   2.705 -0.9221 -0.1424  0.5433
 3571TIP3    H110677   3.465   5.912   2.756  1.9647  0.7576  0.4587
 3571TIP3    H210678   3.342   5.994   2.722 -0.7763 -2.1696  2.6374
 3572TIP3   OH210679   6.677   5.578   5.772  0.2203 -0.3431  0.4875
 3572TIP3    H110680   6.695   5.552   5.862 -0.2330 -2.2815  0.0641
 3572TIP3    H210681   6.732   5.521   5.718 -0.4996 -0.1525 -0.4981
 3573TIP3   OH210682   5.267   3.169   4.942  0.0684 -0.3568 -0.2636
 3573TIP3    H110683   5.276   3.252   4.988 -0.5647 -1.0317  1.1307
 3573TIP3    H210684   5.274   3.102   5.010 -0.7022 -1.4142 -1.1714
 3574TIP3   OH210685   6.545   3.341   4.935 -0.4416  0.2524  0.6010
 3574TIP3    H110686   6.535   3.363   5.028 -2.2041 -0.3967  0.6030
 3574TIP3    H210687   6.496   3.259   4.925  0.3868 -0.1028 -0.7610
 3575TIP3   OH210688   3.319   1.566   3.809 -0.1263  0.3610  0.4534
 3575TIP3    H110689   3.409   1.534   3.803 -0.4953 -0.4811 -1.2827
 3575TIP3    H210690   3.266   1.487   3.804 -0.9832  0.8091  1.9275
 3576TIP3   OH210691   0.028   4.526   4.656  0.2101  0.1976  0.3635
 3576TIP3    H110692   0.058   4.591   4.719  0.0453 -0.2645  0.9374
 3576TIP3    H210693  -0.066   4.517   4.675  0.3906 -0.8052  0.8712
 3577TIP3   OH210694   6.822   2.808   5.789  0.1380  0.1534  0.1113
 3577TIP3    H110695   6.804   2.782   5.698  1.0346  0.1322 -0.0635
 3577TIP3    H210696   6.917   2.807   5.796  0.0541 -0.7134  1.3165
 3578TIP3   OH210697   7.025   3.177   1.443 -0.0009  0.4333  0.6263
 3578TIP3    H110698   7.044   3.188   1.350  1.1737 -1.8860  0.5070
 3578TIP3    H210699   6.945   3.124   1.445  0.5252 -0.3741  0.8849
 3579TIP3   OH210700   6.771   0.673   4.453  0.0290 -0.1920  0.0403
 3579TIP3    H110701   6.710   0.745   4.437 -0.7176 -0.7226  0.4138
 3579TIP3    H210702   6.806   0.651   4.367 -0.4801 -0.0278 -0.2109
 3580TIP3   OH210703   5.571   3.349   4.489  0.3205  1.0147  0.3730
 3580TIP3    H110704   5.513   3.294   4.541 -0.2108  0.9277 -0.3016
 3580TIP3    H210705   5.609   3.410   4.553  0.2549  0.4358  0.9779
 3581TIP3   OH210706   0.163   4.338   1.834 -0.5535  0.0212 -0.1834
 3581TIP3    H110707   0.235   4.282   1.805 -0.4230 -0.1842  0.5242
 3581TIP3    H210708   0.085   4.299   1.796 -0.2434  0.5504 -1.4036
 3582TIP3   OH210709   3.175   0.229   2.097 -0.2935 -0.0755 -0.2891
 3582TIP3    H110710   3.225   0.229   2.015  0.9050  0.6486  0.3988
 3582TIP3    H210711   3.090   0.193   2.074  0.4910 -1.1955 -1.5593
 3583TIP3   OH210712   2.307   1.836   2.253 -0.4878 -0.3961  0.0527
 3583TIP3    H110713   2.241   1.810   2.317 -2.5525  0.7580 -1.4741
 3583TIP3    H210714   2.335   1.754   2.212 -0.7020 -0.9447  0.9803
 3584TIP3   OH210715   1.875   4.244   3.462 -0.0753 -0.0935 -0.1235
 3584TIP3    H110716   1.853   4.332   3.492  1.1107  1.3834 -3.1242
 3584TIP3    H210717   1.950   4.218   3.516  0.3667  1.3004 -0.0256
 3585TIP3   OH210718   2.955   4.670   3.203  0.4882  0.5105  0.1969
 3585TIP3    H110719   2.992   4.583   3.220  0.7236  0.7907  1.2286
 3585TIP3    H210720   3.017   4.730   3.245  0.6339  1.2209 -0.9989
 3586TIP3   OH210721   7.057   0.094   4.240 -0.0144 -0.2350  0.5894
 3586TIP3    H110722   7.088   0.089   4.149  1.2215  1.8608  0.8138
 3586TIP3    H210723   7.081   0.183   4.268  0.4718 -1.1301  3.2667
 3587TIP3   OH210724   4.381   1.582   5.361  0.4025  0.1126 -0.2312
 3587TIP3    H110725   4.435   1.523   5.414  1.2326  1.2417  0.2265
 3587TIP3    H210726   4.294   1.577   5.401  0.7717  0.1491  0.6050
 3588TIP3   OH210727   5.193   6.588   1.662 -0.0835  0.1680 -0.5229
 3588TIP3    H110728   5.138   6.586   1.584 -2.4368  0.9810  0.9992
 3588TIP3    H210729   5.195   6.680   1.687 -0.8350 -0.2636  1.2854
 3589TIP3   OH210730   1.174   2.862   3.527  0.4201 -0.4966 -0.1739
 3589TIP3    H110731   1.141   2.939   3.480 -0.3289 -1.6236 -1.5886
 3589TIP3    H210732   1.252   2.894   3.573  0.0111  1.1515 -0.5282
 3590TIP3   OH210733   2.341   4.725   0.580 -0.2531  0.5770 -0.0855
 3590TIP3    H110734   2.290   4.646   0.567  1.8211 -0.8523 -0.0794
 3590TIP3    H210735   2.278   4.790   0.610 -2.2384 -0.7044 -1.2755
 3591TIP3   OH210736   4.382   5.648   3.689 -0.1107 -0.2268 -0.1873
 3591TIP3    H110737   4.366   5.622   3.599  0.9842  0.9780 -0.7698
 3591TIP3    H210738   4.373   5.567   3.740  0.5866 -1.1954 -1.5484
 3592TIP3   OH210739   1.240   2.453   5.171  0.2722  0.1644 -0.1226
 3592TIP3    H110740   1.296   2.516   5.217 -0.6012 -0.3531  1.7757
 3592TIP3    H210741   1.156   2.458   5.218 -0.5262 -0.7705 -1.3935
 3593TIP3   OH210742   4.903   2.013   2.318  0.2423  0.1405  0.1874
 3593TIP3    H110743   4.934   1.964   2.242 -0.1146  0.1897  0.0070
 3593TIP3    H210744   4.910   1.951   2.391  3.0430  0.8612  0.6561
 3594TIP3   OH210745   5.143   5.799   1.963 -0.3918  0.2621 -0.4604
 3594TIP3    H110746   5.052   5.782   1.987 -0.2958  0.5276  0.0939
 3594TIP3    H210747   5.170   5.871   2.019  0.1336  0.2544 -0.6951
 3595TIP3   OH210748   4.578   1.473   3.781 -0.1444  0.3038  0.3246
 3595TIP3    H110749   4.663   1.514   3.763  0.6227 -1.7860 -1.0739
 3595TIP3    H210750   4.593   1.380   3.769 -1.9193 -0.4567  3.0753
 3596TIP3   OH210751   6.217   1.855   2.185 -0.4725  0.4967 -0.1271
 3596TIP3    H110752   6.204   1.767   2.152 -0.8279  1.0452 -1.5360
 3596TIP3    H210753   6.135   1.877   2.229  0.1975 -0.4349  1.6650
 3597TIP3   OH210754   1.597   4.628   0.556 -0.0651  0.9109  0.0833
 3597TIP3    H110755   1.689   4.607   0.537  0.2643  1.3760  1.1298
 3597TIP3    H210756   1.601   4.697   0.621 -1.1698  0.1427  0.9985
 3598TIP3   OH210757   1.700   2.706   0.979  0.3474  0.8045  0.1810
 3598TIP3    H110758   1.631   2.722   1.044 -0.0564  1.3290 -0.3544
 3598TIP3    H210759   1.703   2.611   0.970  0.0961  0.7498  0.6385
 3599TIP3   OH210760   3.776   6.329   3.519 -0.1214  0.2719 -0.2139
 3599TIP3    H110761   3.845   6.358   3.579 -0.5097 -1.5209  1.1734
 3599TIP3    H210762   3.700   6.381   3.544 -0.4391 -0.8706  1.2875
 3600TIP3   OH210763   3.198   3.108   1.228 -0.1949  0.5181 -0.4979
 3600TIP3    H110764   3.198   3.042   1.159 -1.5292 -0.0933  0.0514
 3600TIP3    H210765   3.130   3.080   1.288 -1.9249  3.1924 -1.0313
 3601TIP3   OH210766   4.246   5.894   0.187 -0.0681  0.0049 -1.1585
 3601TIP3    H110767   4.322   5.840   0.207 -0.0344  0.1768 -0.8207
 3601TIP3    H210768   4.173   5.850   0.230  0.0213  0.4299 -0.5586
 3602TIP3   OH210769   1.097   4.103   3.688  0.0602  0.0959  0.5931
 3602TIP3    H110770   1.181   4.078   3.652  0.8075  0.4721  1.9922
 3602TIP3    H210771   1.079   4.190   3.651  0.2488 -0.0136  0.2424
 3603TIP3   OH210772   5.314   3.342   3.475  0.3619 -0.2691  0.4340
 3603TIP3    H110773   5.249   3.357   3.407  0.4833  2.9255  0.8670
 3603TIP3    H210774   5.393   3.315   3.427 -0.9725 -3.6562 -0.1294
 3604TIP3   OH210775   3.211   5.949   3.872  0.1404  0.3190 -0.0917
 3604TIP3    H110776   3.198   5.997   3.954 -0.4882  0.2378 -0.1382
 3604TIP3    H210777   3.137   5.976   3.817  0.6618  0.5200 -0.7031
 3605TIP3   OH210778   2.630   4.764   0.723  0.0428 -0.0387 -0.7670
 3605TIP3    H110779   2.535   4.751   0.735  0.1116  0.4837  0.5018
 3605TIP3    H210780   2.657   4.690   0.669 -0.8450 -1.0132  0.0624
 3606TIP3   OH210781   2.274   6.473   0.778  0.2415 -0.0134  0.0152
 3606TIP3    H110782   2.362   6.476   0.741  0.5549 -1.2040  0.6019
 3606TIP3    H210783   2.219   6.520   0.715  0.7381 -1.9702 -1.9986
 3607TIP3   OH210784   0.856   4.227   2.532  0.1914 -0.0314 -0.0523
 3607TIP3    H110785   0.893   4.140   2.548 -0.8766 -0.2075  1.6631
 3607TIP3    H210786   0.766   4.221   2.563 -0.3143  1.3140 -1.1702
 3608TIP3   OH210787   1.944   5.483   0.434 -0.9189 -0.0276  0.0155
 3608TIP3    H110788   1.865   5.430   0.447 -0.8116 -1.2891 -3.3750
 3608TIP3    H210789   2.016   5.421   0.444 -0.4017  0.7559  1.4083
 3609TIP3   OH210790   4.897   0.942   0.695  0.1624 -0.0719  0.2647
 3609TIP3    H110791   4.855   0.999   0.632 -0.1046  0.2760  0.7554
 3609TIP3    H210792   4.942   1.001   0.756 -1.6336 -0.2732  1.8665
 3610TIP3   OH210793   0.690   3.791   2.953  0.3731  0.0538 -0.3672
 3610TIP3    H110794   0.632   3.715   2.958  0.0413  0.2513 -1.1112
 3610TIP3    H210795   0.718   3.805   3.043 -0.8573  0.0422  0.0422
 3611TIP3   OH210796   1.288   1.043   5.546 -0.6455 -0.3113  0.2150
 3611TIP3    H110797   1.274   1.078   5.458 -2.8142 -0.2715  0.5208
 3611TIP3    H210798   1.222   0.975   5.555 -0.9344  0.1571  2.0620
 3612TIP3   OH210799   1.293   4.358   0.235 -0.0823 -0.0884 -0.3422
 3612TIP3    H110800   1.243   4.359   0.153  1.4466 -2.4208 -1.4129
 3612TIP3    H210801   1.358   4.427   0.224 -0.7205  0.5066 -0.4895
 3613TIP3   OH210802   5.622   1.388   2.072 -0.2236  0.1293 -0.0954
 3613TIP3    H110803   5.590   1.400   1.982  0.8959  0.6483 -0.4472
 3613TIP3    H210804   5.569   1.447   2.125 -1.5257 -0.8569 -0.2489
 3614TIP3   OH210805   0.729   5.583   3.860  0.2458 -0.3049  0.2766
 3614TIP3    H110806   0.810   5.556   3.817  1.5482  0.9175  1.8474
 3614TIP3    H210807   0.755   5.607   3.949 -1.7089  0.8337  0.6075
 3615TIP3   OH210808   4.568   3.527   2.813 -0.2310 -0.4127 -0.0854
 3615TIP3    H110809   4.548   3.475   2.890 -0.1774  0.1255  0.3032
 3615TIP3    H210810   4.507   3.601   2.817  0.2855  0.0254 -0.1332
 3616TIP3   OH210811   5.600   2.227   1.852 -0.6171  0.6851 -0.3041
 3616TIP3    H110812   5.631   2.155   1.798  1.7470  1.0599  0.4688
 3616TIP3    H210813   5.566   2.292   1.790  1.0282  0.6426 -1.2943
 3617TIP3   OH210814   6.443   3.944   2.529  0.1443 -0.0013 -0.0218
 3617TIP3    H110815   6.428   4.038   2.529 -2.4742 -0.3293 -0.8664
 3617TIP3    H210816   6.412   3.914   2.615  0.5000 -0.1458  0.0574
 3618TIP3   OH210817   5.591   4.208   4.182 -0.2552  0.7635  0.6509
 3618TIP3    H110818   5.641   4.183   4.105 -0.0446 -2.1973  1.6211
 3618TIP3    H210819   5.657   4.234   4.247 -0.1437 -0.3257  0.9906
 3619TIP3   OH210820   3.383   1.626   1.276  0.1015 -0.3757 -0.0342
 3619TIP3    H110821   3.428   1.695   1.325 -0.5265 -0.6161  0.9036
 3619TIP3    H210822   3.351   1.669   1.197 -0.8833  0.6032  0.8594
 3620TIP3   OH210823   2.288   4.803   4.747  0.1321 -0.1684  0.3026
 3620TIP3    H110824   2.287   4.758   4.832  0.7553 -0.2522  0.2652
 3620TIP3    H210825   2.244   4.743   4.687  0.5789 -0.5474  0.3486
 3621TIP3   OH210826   6.995   3.994   3.898  0.1487 -0.3526  0.0532
 3621TIP3    H110827   6.979   4.076   3.851  0.0104 -1.0407 -1.1659
 3621TIP3    H210828   6.921   3.984   3.957  0.5237  0.7375  0.7305
 3622TIP3   OH210829   3.945   6.669   3.614 -0.0424  0.4191  0.9037
 3622TIP3    H110830   3.956   6.665   3.519 -0.4558  1.2486  0.8158
 3622TIP3    H210831   3.971   6.758   3.638 -2.2251  1.0359  1.2304
 3623TIP3   OH210832   5.302   0.553   1.698  0.0816  0.0628 -0.2276
 3623TIP3    H110833   5.239   0.498   1.652 -1.2083  0.6168  0.7990
 3623TIP3    H210834   5.310   0.513   1.785 -0.5831  1.2208  0.4005
 3624TIP3   OH210835   3.517   5.430   0.233  0.6517  0.4311  0.0916
 3624TIP3    H110836   3.565   5.368   0.178  0.1366 -0.3435  0.5068
 3624TIP3    H210837   3.575   5.446   0.307 -0.4117 -1.8867  1.5058
 3625TIP3   OH210838   5.163   0.611   1.964 -0.4880  0.2844 -0.5279
 3625TIP3    H110839   5.078   0.588   2.001 -0.7905  1.7246 -0.2478
 3625TIP3    H210840   5.159   0.582   1.873 -1.0700 -0.1343 -0.3719
 3626TIP3   OH210841   4.990   3.818   0.822 -0.3013 -1.0064  0.3366
 3626TIP3    H110842   4.973   3.781   0.735  0.5325  0.2419 -0.3735
 3626TIP3    H210843   4.930   3.892   0.828  2.1666  1.2398 -0.7506
 3627TIP3   OH210844   6.828   3.079   2.120  0.1349 -0.3552  0.4179
 3627TIP3    H110845   6.871   3.138   2.183 -0.9762  1.5169 -0.4695
 3627TIP3    H210846   6.898   3.021   2.090  1.6063  1.2980  0.4652
 3628TIP3   OH210847   1.238   6.521   5.487  0.5165 -0.0355  0.1566
 3628TIP3    H110848   1.280   6.476   5.413 -1.2788 -0.6447 -0.5325
 3628TIP3    H210849   1.281   6.606   5.490 -1.3355  1.2470 -3.5953
 3629TIP3   OH210850   5.702   2.947   0.550  0.0047  0.0967 -0.4947
 3629TIP3    H110851   5.691   2.860   0.587 -0.4896  1.4427  2.9062
 3629TIP3    H210852   5.613   2.979   0.536  0.0944  0.7766  0.3437
 3630TIP3   OH210853   2.543   2.237   5.677 -0.2023 -0.2399  0.0603
 3630TIP3    H110854   2.543   2.197   5.590  2.2938  0.1395 -0.1908
 3630TIP3    H210855   2.630   2.219   5.712  0.1895  2.7838  0.9554
 3631TIP3   OH210856   2.363   3.892   1.699  0.3154 -0.6075 -0.5146
 3631TIP3    H110857   2.331   3.823   1.757  0.7056 -0.9143 -0.6615
 3631TIP3    H210858   2.399   3.846   1.624  2.7748 -0.3952  0.4414
 3632TIP3   OH210859   4.070   6.649   3.930 -0.2484 -0.6522  0.1513
 3632TIP3    H110860   4.057   6.624   4.022  1.3015  0.8028  0.8219
 3632TIP3    H210861   3.983   6.644   3.891 -0.8537 -1.8079  1.5526
 3633TIP3   OH210862   6.106   4.935   1.193 -0.2740  0.2212 -0.1774
 3633TIP3    H110863   6.098   5.023   1.156  0.5349  1.0663  1.5623
 3633TIP3    H210864   6.080   4.944   1.284  0.3057 -1.2398  0.1664
 3634TIP3   OH210865   0.553   4.647   3.612  0.1703  0.2396 -0.4778
 3634TIP3    H110866   0.641   4.628   3.642  0.3173  1.1688 -0.2924
 3634TIP3    H210867   0.544   4.742   3.621 -0.6946  0.2118 -0.9007
 3635TIP3   OH210868   2.466   5.659   2.777 -0.1102 -0.3819 -0.0910
 3635TIP3    H110869   2.545   5.709   2.756 -0.3215  0.5354  1.1545
 3635TIP3    H210870   2.441   5.619   2.694  1.0333  0.2094 -0.7625
 3636TIP3   OH210871   0.723   5.702   1.345  0.6640  0.6905  0.4943
 3636TIP3    H110872   0.743   5.611   1.322  0.1954  1.0000 -1.3216
 3636TIP3    H210873   0.680   5.737   1.267  0.8508  2.4855  1.1551
 3637TIP3   OH210874   2.192   3.388   4.514 -0.6259 -0.0751  0.0348
 3637TIP3    H110875   2.185   3.308   4.461 -1.2333  0.7310 -1.1403
 3637TIP3    H210876   2.270   3.432   4.480 -0.7691  0.2338  0.1060
 3638TIP3   OH210877   4.561   6.024   1.535 -0.6121  0.2620 -0.7254
 3638TIP3    H110878   4.614   5.982   1.468  0.4410 -0.0977  0.2925
 3638TIP3    H210879   4.624   6.072   1.589 -1.4091  0.4539  0.0673
 3639TIP3   OH210880   4.998   1.488   4.097  0.6124 -0.5307  0.2045
 3639TIP3    H110881   5.054   1.483   4.019  2.4673 -0.9526  1.4814
 3639TIP3    H210882   5.031   1.419   4.154  0.3948  0.7960  2.0315
 3640TIP3   OH210883   3.342   6.743   4.545 -0.6081 -0.2789 -0.3689
 3640TIP3    H110884   3.302   6.820   4.505 -0.9418  0.5662  1.5088
 3640TIP3    H210885   3.323   6.751   4.638  2.1171 -0.9250  0.3464
 3641TIP3   OH210886   7.101   2.502   0.067 -0.2496 -0.4071 -0.1334
 3641TIP3    H110887   7.136   2.433   0.010 -0.8480  0.1210 -1.1826
 3641TIP3    H210888   7.035   2.458   0.120 -0.2228 -0.7695 -0.3946
 3642TIP3   OH210889   1.098   1.966   5.134  0.0922  0.2332 -0.4168
 3642TIP3    H110890   1.180   1.937   5.095  0.3318 -0.5960  0.6566
 3642TIP3    H210891   1.087   1.911   5.212 -2.6465 -1.3003 -1.7334
 3643TIP3   OH210892   5.976   3.419   3.465 -0.1920  0.2709  0.0791
 3643TIP3    H110893   6.069   3.398   3.474  0.3381  2.1530 -0.4425
 3643TIP3    H210894   5.930   3.340   3.492  1.5668 -0.8397 -0.0617
 3644TIP3   OH210895   3.935   5.527   3.203  0.6658  0.3205  0.1036
 3644TIP3    H110896   3.990   5.452   3.228 -0.0657 -0.6046 -0.9750
 3644TIP3    H210897   3.904   5.505   3.116  1.0846  2.2822 -0.5789
 3645TIP3   OH210898   1.180   1.626   5.108  0.6056 -0.1666  0.1088
 3645TIP3    H110899   1.115   1.660   5.170  0.6463  0.9580 -0.4577
 3645TIP3    H210900   1.130   1.607   5.029  0.5567 -1.5882  0.4572
 3646TIP3   OH210901   3.888   5.662   4.720  0.3507 -0.1065 -0.0709
 3646TIP3    H110902   3.836   5.716   4.660  0.1135 -1.1309 -0.8110
 3646TIP3    H210903   3.825   5.599   4.756  1.0161 -1.1870 -0.7682
 3647TIP3   OH210904   5.242   3.442   5.079  0.4128  0.3807 -0.2145
 3647TIP3    H110905   5.225   3.536   5.082 -0.7335  0.1679  1.2871
 3647TIP3    H210906   5.338   3.435   5.073  0.5165  1.6283 -0.2333
 3648TIP3   OH210907   4.057   3.599   1.041  0.3183 -0.1345 -0.3281
 3648TIP3    H110908   4.026   3.555   1.120 -1.0106  2.3522  0.6314
 3648TIP3    H210909   4.142   3.558   1.024  1.3441  0.1619  3.2250
 3649TIP3   OH210910   6.643   4.874   2.151  0.1922 -0.1565 -0.2904
 3649TIP3    H110911   6.634   4.861   2.057  0.9661 -0.9468 -0.2743
 3649TIP3    H210912   6.733   4.905   2.162 -0.0931  0.5451  0.1394
 3650TIP3   OH210913   0.183   1.061   3.382 -0.1461 -0.0302 -0.0010
 3650TIP3    H110914   0.147   0.974   3.395 -0.6871 -0.1611 -2.0272
 3650TIP3    H210915   0.114   1.121   3.409 -0.4541 -0.2536 -0.2924
 3651TIP3   OH210916   3.156   2.241   1.302 -0.2165 -0.2279  0.6302
 3651TIP3    H110917   3.101   2.169   1.273  2.0141 -1.5861 -0.4840
 3651TIP3    H210918   3.149   2.239   1.398 -1.3524 -0.9435  0.5492
 3652TIP3   OH210919   3.351   5.567   0.443 -0.1856 -0.6942  0.2638
 3652TIP3    H110920   3.361   5.522   0.359  1.9392 -0.8206  0.5345
 3652TIP3    H210921   3.438   5.564   0.483 -0.2304  2.5290  0.8675
 3653TIP3   OH210922   4.371   2.417   3.368 -0.7109  0.2575  0.2061
 3653TIP3    H110923   4.424   2.405   3.447  0.2962  2.5306 -0.0362
 3653TIP3    H210924   4.281   2.401   3.396 -0.3593  0.9161  1.8111
 3654TIP3   OH210925   1.761   5.560   3.117 -0.4415  0.6871 -0.1633
 3654TIP3    H110926   1.748   5.640   3.167 -1.6025 -0.5865  1.6818
 3654TIP3    H210927   1.673   5.531   3.093 -0.0918 -0.3927 -0.2137
 3655TIP3   OH210928   4.783   5.135   4.173 -0.3774  0.1802 -0.1250
 3655TIP3    H110929   4.748   5.221   4.195  0.7797  0.9102 -1.0166
 3655TIP3    H210930   4.761   5.122   4.081  1.2035  0.4392 -0.5651
 3656TIP3   OH210931   5.153   3.354   3.261  0.3087  0.5433  0.0384
 3656TIP3    H110932   5.062   3.383   3.263  0.4680  1.1802 -1.0564
 3656TIP3    H210933   5.176   3.352   3.167  1.4707  0.5968  0.2993
 3657TIP3   OH210934   6.804   4.797   0.046  0.0946  0.3625 -0.0243
 3657TIP3    H110935   6.861   4.758   0.112 -0.0808 -1.7499 -1.0452
 3657TIP3    H210936   6.854   4.871   0.012  2.2546 -1.3588 -0.8102
 3658TIP3   OH210937   5.465   1.291   1.671  0.1049 -0.1359 -0.4514
 3658TIP3    H110938   5.405   1.363   1.689 -1.0576 -1.0815 -0.4600
 3658TIP3    H210939   5.409   1.215   1.659  1.2407 -0.8477 -1.5099
 3659TIP3   OH210940   1.101   5.171   4.968  0.0983  0.6360 -0.2151
 3659TIP3    H110941   1.034   5.110   4.996 -0.5574  1.7218  0.6479
 3659TIP3    H210942   1.151   5.191   5.048  3.0342 -1.9600 -1.2048
 3660TIP3   OH210943   3.080   1.861   3.401  0.5549 -0.1253 -0.0884
 3660TIP3    H110944   3.159   1.912   3.417  0.2503  0.1617  0.5345
 3660TIP3    H210945   3.112   1.772   3.385  0.9857 -0.0789  0.4732
 3661TIP3   OH210946   3.252   1.158   4.412  0.0250  0.3054 -0.0117
 3661TIP3    H110947   3.189   1.228   4.428 -0.4533 -0.3386  1.0061
 3661TIP3    H210948   3.216   1.109   4.339 -0.6738 -0.0635  0.5703
 3662TIP3   OH210949   6.447   6.375   4.193 -0.0229  0.0491 -0.1049
 3662TIP3    H110950   6.378   6.309   4.184  0.8584 -1.2156  1.7294
 3662TIP3    H210951   6.527   6.330   4.167  0.3671  0.9579 -0.5180
 3663TIP3   OH210952   6.058   2.831   4.427  0.3082  0.1874 -0.1326
 3663TIP3    H110953   5.982   2.878   4.394  0.0115  1.6127  2.2918
 3663TIP3    H210954   6.127   2.848   4.363 -0.8979  0.4104 -1.4200
 3664TIP3   OH210955   2.132   3.203   1.695  0.1648 -0.9336 -0.0017
 3664TIP3    H110956   2.161   3.269   1.632  0.4229 -1.0361  0.0067
 3664TIP3    H210957   2.039   3.191   1.676 -0.4134  0.9241  1.3512
 3665TIP3   OH210958   3.511   5.178   2.158 -0.0711 -0.8174 -0.1965
 3665TIP3    H110959   3.466   5.097   2.134 -0.9579 -0.3038 -0.3038
 3665TIP3    H210960   3.478   5.199   2.246 -2.5380  1.2374 -1.4734
 3666TIP3   OH210961   3.618   6.241   2.831 -0.0910  0.0869 -0.3878
 3666TIP3    H110962   3.697   6.188   2.844 -0.4761 -0.5692 -0.6319
 3666TIP3    H210963   3.552   6.178   2.801  0.0754  1.0416 -3.1035
 3667TIP3   OH210964   4.404   5.927   0.830  0.2250  0.6799  0.5471
 3667TIP3    H110965   4.345   5.878   0.887 -0.0216  0.8673  0.4526
 3667TIP3    H210966   4.396   5.885   0.744  1.9488 -0.7751  1.0282
 3668TIP3   OH210967   0.871   2.610   5.053 -0.0211 -0.4623  0.0039
 3668TIP3    H110968   0.953   2.612   5.004 -0.0341 -0.1396 -0.0066
 3668TIP3    H210969   0.846   2.702   5.063  0.7119 -0.4187  1.8208
 3669TIP3   OH210970   1.046   0.049   4.630  0.5475  0.1945  0.3634
 3669TIP3    H110971   1.130   0.019   4.595  0.5289  0.2966  0.2289
 3669TIP3    H210972   1.065   0.136   4.665  0.6984 -0.1432  1.1360
 3670TIP3   OH210973   0.122   3.153   3.465 -0.1158  0.1133  0.9492
 3670TIP3    H110974   0.188   3.093   3.431 -0.6883 -1.0866  1.8658
 3670TIP3    H210975   0.058   3.162   3.394  0.3730  0.2655  0.5249
 3671TIP3   OH210976   0.531   5.041   2.463  0.3018 -0.2931 -0.4917
 3671TIP3    H110977   0.469   4.986   2.510 -0.4432  0.0365 -1.0773
 3671TIP3    H210978   0.596   5.065   2.530 -0.2410 -0.5629  0.1474
 3672TIP3   OH210979   5.750   1.646   4.907  0.0039 -0.3726 -0.1995
 3672TIP3    H110980   5.817   1.714   4.908 -0.4834  0.1140 -0.2369
 3672TIP3    H210981   5.777   1.586   4.839 -0.0600  0.2936 -0.8245
 3673TIP3   OH210982   0.056   3.636   2.706  0.0546  0.1664 -0.2364
 3673TIP3    H110983   0.090   3.637   2.796  0.2883 -1.2234 -0.2925
 3673TIP3    H210984   0.032   3.727   2.689  3.0763  1.1366  0.0749
 3674TIP3   OH210985   4.790   0.982   4.342 -0.8054  0.1557  0.9236
 3674TIP3    H110986   4.837   0.933   4.275 -0.9658  0.5036  0.5481
 3674TIP3    H210987   4.808   0.936   4.424  1.0355  0.8550  0.9539
 3675TIP3   OH210988   4.336   0.500   4.172  0.2342  0.5337 -0.1820
 3675TIP3    H110989   4.404   0.462   4.116 -1.6558 -1.9734 -0.9139
 3675TIP3    H210990   4.257   0.499   4.118 -1.2307 -0.2066  1.8902
 3676TIP3   OH210991   2.900   2.562   0.675 -0.2267 -0.3859  0.5000
 3676TIP3    H110992   2.984   2.543   0.634 -0.9190  1.2273 -1.8275
 3676TIP3    H210993   2.835   2.532   0.611 -1.5127 -2.2144  2.5281
 3677TIP3   OH210994   1.456   6.254   5.778 -0.2821 -0.3022  0.0338
 3677TIP3    H110995   1.490   6.292   5.697 -0.0021  0.5087  0.5213
 3677TIP3    H210996   1.483   6.315   5.846 -1.2037 -0.5609  0.6494
 3678TIP3   OH210997   3.911   3.471   0.778 -0.2901 -0.6058 -0.1942
 3678TIP3    H110998   3.982   3.451   0.838  1.1674 -0.9535 -1.9528
 3678TIP3    H210999   3.876   3.386   0.752 -1.5070 -0.4324  0.8002
 3679TIP3   OH211000   3.400   3.560   0.041 -0.6069 -0.0333 -0.0391
 3679TIP3    H111001   3.492   3.577   0.063 -0.9876  1.9855  0.1559
 3679TIP3    H211002   3.403   3.525  -0.049  0.3660 -0.4427  0.1419
 3680TIP3   OH211003   0.390   2.486   0.392 -0.0715 -0.4323  0.1234
 3680TIP3    H111004   0.390   2.415   0.328  2.2449  0.0677 -0.5412
 3680TIP3    H211005   0.433   2.559   0.346 -1.1289  0.9617  1.2458
 3681TIP3   OH211006   5.866   4.629   0.840  0.2278 -0.4900 -0.4740
 3681TIP3    H111007   5.885   4.712   0.883  0.2835 -1.0439  0.6183
 3681TIP3    H211008   5.880   4.646   0.747 -0.1481  0.8226 -0.3155
 3682TIP3   OH211009   4.483   4.951   3.604  0.0954 -0.1960  0.5501
 3682TIP3    H111010   4.422   4.918   3.538  0.4639 -1.3522  0.7760
 3682TIP3    H211011   4.570   4.940   3.564  0.2714 -0.1992  0.9328
 3683TIP3   OH211012   3.475   4.536   4.164 -0.6032 -0.4828 -0.0141
 3683TIP3    H111013   3.518   4.557   4.081 -0.9294 -0.6312 -0.2238
 3683TIP3    H211014   3.515   4.595   4.227  0.3495 -1.0434 -0.0803
 3684TIP3   OH211015   5.489   0.638   5.848 -0.7927 -0.1435 -0.1568
 3684TIP3    H111016   5.431   0.593   5.909 -0.1918 -1.4960 -0.5332
 3684TIP3    H211017   5.469   0.600   5.763  0.6879 -0.7299 -0.2763
 3685TIP3   OH211018   5.262   0.998   3.787 -0.5846  0.2479  0.2331
 3685TIP3    H111019   5.296   0.910   3.801 -0.3838 -0.0137 -1.6809
 3685TIP3    H211020   5.338   1.049   3.759 -1.2434  0.1909 -1.8891
 3686TIP3   OH211021   2.791   4.047   5.738 -0.1733 -0.1864 -0.1625
 3686TIP3    H111022   2.849   4.123   5.743 -0.7493  0.1876  1.6110
 3686TIP3    H211023   2.788   4.025   5.645  2.0990  0.3123 -0.4021
 3687TIP3   OH211024   6.656   0.724   3.360 -0.0774 -0.7140  0.3448
 3687TIP3    H111025   6.698   0.664   3.298 -1.5151 -0.5660 -0.8251
 3687TIP3    H211026   6.666   0.681   3.445 -0.8484 -2.5283 -0.4279
 3688TIP3   OH211027   5.667   5.227   4.194 -0.5224  0.2624 -0.7870
 3688TIP3    H111028   5.650   5.283   4.270  1.8081 -0.7216  0.5740
 3688TIP3    H211029   5.657   5.138   4.228 -1.9358 -0.2168 -2.3311
 3689TIP3   OH211030   2.983   3.360   2.266  0.0692 -0.2428  0.0569
 3689TIP3    H111031   2.933   3.434   2.232 -3.7423 -2.9201 -0.8132
 3689TIP3    H211032   2.977   3.370   2.361  1.1986  1.4279 -0.0020
 3690TIP3   OH211033   3.407   0.376   5.161  0.0895 -0.0589 -0.0233
 3690TIP3    H111034   3.450   0.448   5.206  1.5485  0.7763 -2.5037
 3690TIP3    H211035   3.476   0.310   5.150 -0.3895 -0.5002 -0.4497
 3691TIP3   OH211036   5.756   2.167   4.439  0.4079  0.0100  0.8155
 3691TIP3    H111037   5.767   2.101   4.371 -0.7126  2.3538 -1.8475
 3691TIP3    H211038   5.734   2.117   4.517 -2.8784 -2.7741 -1.5655
 3692TIP3   OH211039   4.569   1.020   3.396 -0.1544 -0.0830  0.0767
 3692TIP3    H111040   4.661   0.993   3.396 -0.0720 -0.0935 -2.6133
 3692TIP3    H211041   4.520   0.939   3.384 -0.2734  0.2401 -1.8762
 3693TIP3   OH211042   5.465   2.622   0.969 -0.7278 -0.2035  0.0262
 3693TIP3    H111043   5.519   2.601   1.046  0.4578 -1.5431 -1.1093
 3693TIP3    H211044   5.381   2.580   0.987  0.2681 -2.5108 -0.3427
 3694TIP3   OH211045   0.795   0.447   4.044 -1.1752  0.3249  0.2280
 3694TIP3    H111046   0.803   0.431   3.950  0.1705  0.9766  0.2056
 3694TIP3    H211047   0.859   0.388   4.084 -2.0013 -0.2149  0.7775
 3695TIP3   OH211048   4.965   2.222   4.204  0.0366  0.1812 -0.2529
 3695TIP3    H111049   5.023   2.253   4.274 -1.3403  0.8015  0.6890
 3695TIP3    H211050   4.882   2.266   4.222 -0.7960 -0.8485 -1.4081
 3696TIP3   OH211051   3.778   0.306   0.568 -0.3103 -0.5342 -0.1437
 3696TIP3    H111052   3.794   0.221   0.608 -1.0492 -0.8965 -0.5865
 3696TIP3    H211053   3.787   0.291   0.474 -0.9660 -0.2570 -0.2615
 3697TIP3   OH211054   6.840   1.216   2.276 -0.2087 -0.4008  0.4731
 3697TIP3    H111055   6.895   1.288   2.306  0.9258 -0.9344 -0.2707
 3697TIP3    H211056   6.806   1.245   2.192 -0.0616 -0.5710  0.3533
 3698TIP3   OH211057   6.770   1.955   3.064 -0.2317  0.0817 -0.5581
 3698TIP3    H111058   6.812   1.869   3.066 -2.7252 -1.2734 -1.6723
 3698TIP3    H211059   6.807   2.002   3.139 -0.2345 -2.7087  1.3505
 3699TIP3   OH211060   4.413   6.707   4.051  0.9052  0.1781 -0.7210
 3699TIP3    H111061   4.337   6.764   4.062  0.0706 -1.3049  2.0517
 3699TIP3    H211062   4.402   6.670   3.963 -0.4113  1.5631 -1.1862
 3700TIP3   OH211063   4.874   3.568   3.601 -0.0612 -0.2314 -0.2334
 3700TIP3    H111064   4.818   3.605   3.533 -0.1048  1.0456  0.4608
 3700TIP3    H211065   4.880   3.637   3.667  0.4684 -1.2119  0.7792
 3701TIP3   OH211066   4.599   3.673   0.650  0.2108 -0.4794  0.3400
 3701TIP3    H111067   4.660   3.623   0.704  1.5845  0.9700  0.2333
 3701TIP3    H211068   4.635   3.762   0.650 -0.0115 -0.2970 -2.5038
 3702TIP3   OH211069   4.121   5.374   4.922 -0.1118 -0.5991  0.1010
 3702TIP3    H111070   4.126   5.359   5.017  1.2093 -0.8050  0.0223
 3702TIP3    H211071   4.210   5.402   4.898 -0.9981  1.8711 -0.6752
 3703TIP3   OH211072   1.619   4.241   0.581 -0.4624 -0.4201  0.8082
 3703TIP3    H111073   1.635   4.215   0.672 -1.8504 -0.1339  1.1496
 3703TIP3    H211074   1.524   4.236   0.571 -0.4025  0.4973 -0.3377
 3704TIP3   OH211075   0.063   4.323   5.241  0.4543  0.0155  0.3099
 3704TIP3    H111076   0.034   4.290   5.156  0.7362 -0.0739  0.2489
 3704TIP3    H211077   0.053   4.418   5.234 -1.3283 -0.0937  0.8356
 3705TIP3   OH211078   5.211   5.181   2.272 -0.5736 -0.1412  0.0162
 3705TIP3    H111079   5.138   5.153   2.216  2.2799 -0.7793 -3.7771
 3705TIP3    H211080   5.194   5.274   2.288 -1.7466 -0.0107 -1.6538
 3706TIP3   OH211081   1.959   6.719   1.953 -0.0626 -0.3784  0.2543
 3706TIP3    H111082   2.008   6.655   1.901  0.1746 -0.3072  0.3900
 3706TIP3    H211083   1.939   6.672   2.035 -1.2376 -0.8080 -0.2610
 3707TIP3   OH211084   5.588   5.818   4.012  0.2041  0.0682  0.0770
 3707TIP3    H111085   5.536   5.880   3.962  0.7010 -0.3350 -0.9885
 3707TIP3    H211086   5.662   5.798   3.955  0.3575 -1.0512  0.6362
 3708TIP3   OH211087   3.555   2.976   4.030 -0.3496  0.3123  0.1612
 3708TIP3    H111088   3.519   3.065   4.021 -0.8577 -0.1066 -3.6959
 3708TIP3    H211089   3.497   2.933   4.092 -0.2895  2.5128  1.8778
 3709TIP3   OH211090   6.107   5.616   5.181  0.3045 -0.1433 -0.5295
 3709TIP3    H111091   6.023   5.643   5.218  1.1713 -0.2363  1.6651
 3709TIP3    H211092   6.144   5.695   5.143 -0.8246 -0.1422 -1.6864
 3710TIP3   OH211093   6.578   3.188   2.921 -0.0034 -0.5707  0.0145
 3710TIP3    H111094   6.542   3.175   3.009 -1.1317 -2.3736 -0.6503
 3710TIP3    H211095   6.672   3.192   2.934 -0.0356 -2.4078  1.1812
 3711TIP3   OH211096   1.839   2.527   2.523  0.5444  0.1614 -0.0834
 3711TIP3    H111097   1.849   2.442   2.480 -1.5254 -0.4211  0.4555
 3711TIP3    H211098   1.827   2.505   2.616 -0.0054  1.0167  0.0619
 3712TIP3   OH211099   1.381   0.041   1.309  0.2075 -0.3218 -0.2065
 3712TIP3    H111100   1.455   0.100   1.328 -0.1088 -0.2763  0.9886
 3712TIP3    H211101   1.332   0.086   1.241  1.1072 -0.1999 -0.7958
 3713TIP3   OH211102   4.553   1.729   3.149 -0.2719 -0.2224  0.1997
 3713TIP3    H111103   4.533   1.700   3.060  1.5501 -1.5556  0.1687
 3713TIP3    H211104   4.535   1.652   3.203  1.6425 -0.4648  0.5421
 3714TIP3   OH211105   3.159   6.043   4.130 -0.7778 -0.3508 -0.6760
 3714TIP3    H111106   3.127   6.123   4.089 -0.1175  0.1399 -0.2466
 3714TIP3    H211107   3.084   6.011   4.181 -1.1709 -0.2323 -1.1718
 3715TIP3   OH211108   4.855   4.579   1.724  0.6728  0.4431 -0.4147
 3715TIP3    H111109   4.825   4.649   1.783 -2.8459 -1.8741  0.8879
 3715TIP3    H211110   4.948   4.597   1.711  0.6526  3.5486  2.3614
 3716TIP3   OH211111   5.149   1.888   1.080 -0.3631  0.1415  0.1868
 3716TIP3    H111112   5.168   1.928   0.995  1.5842 -1.2392 -0.1019
 3716TIP3    H211113   5.235   1.862   1.114 -1.3054 -1.5636  1.4365
 3717TIP3   OH211114   0.065   2.118   1.097  0.3750  0.3165 -0.0597
 3717TIP3    H111115   0.129   2.054   1.064  1.0780  0.0816  1.5970
 3717TIP3    H211116   0.114   2.167   1.164 -0.4369  1.9513 -0.6241
 3718TIP3   OH211117   0.183   3.307   1.164  0.1797  0.1410  0.1580
 3718TIP3    H111118   0.217   3.396   1.178 -1.9662  0.8430  1.3719
 3718TIP3    H211119   0.183   3.267   1.251  0.2301 -0.7106 -0.2231
 3719TIP3   OH211120   5.076   6.283   0.669 -0.0971  0.3868  0.0829
 3719TIP3    H111121   5.152   6.341   0.669 -0.2996  0.6513  0.5636
 3719TIP3    H211122   5.018   6.320   0.602 -0.0276  0.4700  0.0690
 3720TIP3   OH211123   5.654   6.643   2.534  0.4482  0.2627  0.0601
 3720TIP3    H111124   5.735   6.644   2.584  0.6733  0.5388 -0.2951
 3720TIP3    H211125   5.676   6.690   2.453  0.0454 -0.0069 -0.2116
 3721TIP3   OH211126   5.332   4.383   4.045  0.0295 -0.8425 -1.2309
 3721TIP3    H111127   5.360   4.439   4.117 -0.9336 -0.7643 -0.8986
 3721TIP3    H211128   5.312   4.444   3.974 -0.7493 -0.7665 -0.9606
 3722TIP3   OH211129   6.896   5.013   3.232 -0.0589  0.5827  0.0416
 3722TIP3    H111130   6.825   4.985   3.289  0.0760 -1.8760 -0.8502
 3722TIP3    H211131   6.965   5.042   3.291 -0.6561  0.0309  1.0383
 3723TIP3   OH211132   1.227   3.310   3.210 -0.1955 -0.2279  0.5363
 3723TIP3    H111133   1.142   3.350   3.227 -0.2089 -1.0209  2.5931
 3723TIP3    H211134   1.288   3.362   3.262  0.3226 -0.7225  0.4226
 3724TIP3   OH211135   0.446   1.031   0.929  0.2756 -0.9152  0.2238
 3724TIP3    H111136   0.379   1.036   0.998 -0.5737 -1.7762 -0.4964
 3724TIP3    H211137   0.440   1.115   0.883  0.4607 -0.5563  0.8484
 3725TIP3   OH211138   3.699   5.138   4.863  0.1770 -0.2161  0.5735
 3725TIP3    H111139   3.708   5.043   4.859 -1.3151 -0.3226 -1.6227
 3725TIP3    H211140   3.785   5.171   4.835 -0.0328 -0.9598 -1.0437
 3726TIP3   OH211141   2.249   5.532   5.046 -0.0450 -0.0018 -0.0156
 3726TIP3    H111142   2.258   5.453   5.100  1.8682 -1.3352 -2.1041
 3726TIP3    H211143   2.250   5.500   4.956  1.5637  2.4412 -0.9801
 3727TIP3   OH211144   5.886   5.072   0.259 -0.1952 -0.5878 -0.1122
 3727TIP3    H111145   5.861   5.047   0.170  0.3630  0.3735 -0.5591
 3727TIP3    H211146   5.858   5.164   0.266 -1.1495 -0.9466  1.0653
 3728TIP3   OH211147   1.984   2.449   1.318 -0.4867 -0.2181  0.1521
 3728TIP3    H111148   2.024   2.431   1.232 -1.3768  1.0193 -0.5480
 3728TIP3    H211149   1.892   2.428   1.307 -0.5085 -0.5810  0.9827
 3729TIP3   OH211150   6.830   0.926   1.749  0.0419  0.2457 -0.5408
 3729TIP3    H111151   6.914   0.903   1.789  0.8232  2.8179 -0.5737
 3729TIP3    H211152   6.852   0.986   1.678 -1.8712  1.9990  0.2442
 3730TIP3   OH211153   5.707   3.230   0.986 -0.2749  0.1651  0.5227
 3730TIP3    H111154   5.713   3.322   1.011  1.4754  0.2936 -0.2483
 3730TIP3    H211155   5.715   3.182   1.069 -0.3953  0.6710  0.8332
 3731TIP3   OH211156   3.501   1.582   2.321  0.4202  0.7953  0.4589
 3731TIP3    H111157   3.482   1.577   2.415  0.4398  0.4371  0.4466
 3731TIP3    H211158   3.505   1.490   2.293 -0.0731  0.9122  0.0080
 3732TIP3   OH211159   4.395   1.163   1.527 -0.5817  0.0704  0.1504
 3732TIP3    H111160   4.425   1.177   1.437  1.1156 -0.8811  0.5262
 3732TIP3    H211161   4.305   1.133   1.517 -0.2557 -0.5640 -1.2859
 3733TIP3   OH211162   5.190   2.802   0.170  0.0930 -0.5667 -0.2601
 3733TIP3    H111163   5.125   2.745   0.129 -0.1452  0.0655 -0.7770
 3733TIP3    H211164   5.271   2.751   0.170 -0.1439 -0.9473 -0.6076
 3734TIP3   OH211165   4.715   3.311   4.981 -0.2324 -0.1625  0.6604
 3734TIP3    H111166   4.653   3.321   5.054  0.9110 -0.7146  1.7483
 3734TIP3    H211167   4.694   3.225   4.944 -2.0650  0.8866 -0.9373
 3735TIP3   OH211168   0.839   3.659   5.433 -0.1026 -0.3186 -0.1903
 3735TIP3    H111169   0.847   3.584   5.491  1.4088 -0.4275 -0.5077
 3735TIP3    H211170   0.810   3.731   5.490 -0.7633 -0.9347  0.2649
 3736TIP3   OH211171   2.086   1.736   3.721  0.1304  0.0941 -0.0065
 3736TIP3    H111172   2.079   1.822   3.763  1.2150  0.2329 -0.0611
 3736TIP3    H211173   2.181   1.718   3.721 -0.0889 -1.1568  0.1278
 3737TIP3   OH211174   3.120   2.212   4.681 -0.1890  0.2917  0.2236
 3737TIP3    H111175   3.052   2.147   4.700  0.1681  0.4016  2.0185
 3737TIP3    H211176   3.083   2.294   4.714 -0.2520  0.8635 -1.1957
 3738TIP3   OH211177   3.436   5.450   5.087  0.0772  0.1718 -0.3873
 3738TIP3    H111178   3.457   5.362   5.057 -0.7045 -0.4560  0.8340
 3738TIP3    H211179   3.354   5.472   5.041 -2.0027 -1.4193  2.2572
 3739TIP3   OH211180   1.045   1.431   4.405  0.0754  0.0246  0.4528
 3739TIP3    H111181   1.121   1.404   4.353  0.0922  1.8943 -0.5979
 3739TIP3    H211182   1.062   1.523   4.425 -1.0875 -0.0217  1.7666
 3740TIP3   OH211183   6.377   3.384   3.081 -0.2236  0.8286  0.0521
 3740TIP3    H111184   6.437   3.377   3.007 -0.3945 -0.4581  0.0073
 3740TIP3    H211185   6.423   3.436   3.145  0.3470  1.0903 -0.5619
 3741TIP3   OH211186   6.654   4.442   4.495  0.4037 -0.3999  0.5588
 3741TIP3    H111187   6.604   4.363   4.474  0.0027  0.4567 -1.9817
 3741TIP3    H211188   6.659   4.490   4.413  1.5154  1.7578  1.8079
 3742TIP3   OH211189   2.941   5.281   2.343 -0.4620  0.1544 -0.0057
 3742TIP3    H111190   2.992   5.206   2.373 -0.7002 -0.0091 -0.0082
 3742TIP3    H211191   2.936   5.339   2.420 -1.5485 -0.5213  0.4592
 3743TIP3   OH211192   3.432   6.327   1.690  0.5301 -0.6154  0.0946
 3743TIP3    H111193   3.403   6.392   1.753 -1.0168 -1.9572  0.8527
 3743TIP3    H211194   3.448   6.376   1.610  0.4670  0.8282  0.9417
 3744TIP3   OH211195   0.056   4.733   2.484  0.1430  0.5145  0.5513
 3744TIP3    H111196   0.057   4.799   2.553 -0.2162  2.0215 -0.8055
 3744TIP3    H211197   0.148   4.713   2.468  0.2944  1.1526  0.5802
 3745TIP3   OH211198   1.119   0.139   1.491  0.7236  0.6323  0.4914
 3745TIP3    H111199   1.201   0.089   1.493  0.1044 -0.5493 -1.1305
 3745TIP3    H211200   1.054   0.079   1.528 -0.2286 -0.2665 -2.4059
 3746TIP3   OH211201   6.274   4.965   0.124  0.3359 -0.5085  0.4135
 3746TIP3    H111202   6.248   5.044   0.171  0.5291  0.2040 -0.6299
 3746TIP3    H211203   6.254   4.893   0.184  0.5487  0.3568  1.5480
 3747TIP3   OH211204   0.513   2.739   4.638  0.5270  0.1367 -0.7054
 3747TIP3    H111205   0.585   2.721   4.698  0.4130 -0.2358 -0.6741
 3747TIP3    H211206   0.546   2.711   4.553  0.1847 -0.6764 -0.5831
 3748TIP3   OH211207   4.183   3.662   2.481  0.0063 -0.5546 -0.5162
 3748TIP3    H111208   4.165   3.622   2.395 -4.3808  0.4607 -0.3106
 3748TIP3    H211209   4.151   3.598   2.544  0.7687 -0.1977  0.2395
 3749TIP3   OH211210   4.733   3.257   3.770 -0.0275  0.0094  0.4401
 3749TIP3    H111211   4.786   3.273   3.692 -0.2399 -0.0381  0.2819
 3749TIP3    H211212   4.793   3.267   3.843 -0.0137  0.9280  0.3185
 3750TIP3   OH211213   1.699   6.458   4.825  0.1402  0.3304  0.0238
 3750TIP3    H111214   1.775   6.515   4.838  1.3565 -1.3994  0.9508
 3750TIP3    H211215   1.718   6.381   4.877 -1.3289 -1.0449 -1.3595
 3751TIP3   OH211216   3.356   6.779   5.758 -0.0197  0.6538  0.2905
 3751TIP3    H111217   3.359   6.722   5.835  1.0186  0.8804  0.4331
 3751TIP3    H211218   3.403   6.731   5.690 -0.1587  0.8356  0.0645
 3752TIP3   OH211219   2.793   2.310   2.826 -0.1078  0.3608  0.1105
 3752TIP3    H111220   2.804   2.301   2.921  0.6978  1.6671  0.1624
 3752TIP3    H211221   2.701   2.292   2.811 -0.6548  1.8176  1.3921
 3753TIP3   OH211222   6.361   2.851   1.719 -0.0642 -0.0631 -0.2213
 3753TIP3    H111223   6.283   2.907   1.721  0.1406  0.2846 -1.3329
 3753TIP3    H211224   6.388   2.851   1.627  0.7857 -0.8281  0.0165
 3754TIP3   OH211225   2.762   3.211   2.168 -0.0459 -0.0869 -0.2618
 3754TIP3    H111226   2.714   3.286   2.132  1.2164  0.8437 -0.0730
 3754TIP3    H211227   2.853   3.241   2.175  0.3357 -1.3459  0.6412
 3755TIP3   OH211228   0.969   0.451   2.642  0.2483  0.7402 -0.6986
 3755TIP3    H111229   0.971   0.540   2.678  1.0031  0.3198  0.3439
 3755TIP3    H211230   1.050   0.443   2.593  0.7512  0.2541  0.1856
 3756TIP3   OH211231   5.023   5.454   1.643  0.5187  0.0269  0.3660
 3756TIP3    H111232   4.992   5.544   1.632 -1.6447 -0.8240 -1.4092
 3756TIP3    H211233   5.117   5.459   1.630  0.1870  1.7573 -1.9297
 3757TIP3   OH211234   0.332   6.752   0.996  0.1031 -0.3250  0.3252
 3757TIP3    H111235   0.321   6.715   0.908 -1.0636  0.3928  0.1423
 3757TIP3    H211236   0.346   6.846   0.981  4.0862 -0.6967  0.7228
 3758TIP3   OH211237   0.728   4.769   2.250  0.1061 -0.2393 -0.1749
 3758TIP3    H111238   0.777   4.704   2.200 -1.2995 -3.0757  1.8346
 3758TIP3    H211239   0.637   4.755   2.224 -0.3290  0.1510  1.0509
 3759TIP3   OH211240   5.332   5.644   1.815  0.1823  0.2291  0.1403
 3759TIP3    H111241   5.337   5.569   1.875 -0.3363 -0.3390 -0.5138
 3759TIP3    H211242   5.264   5.699   1.854 -0.1080 -0.1056  0.1142
 3760TIP3   OH211243   1.152   2.200   0.422  0.1349  0.6827 -0.4635
 3760TIP3    H111244   1.225   2.252   0.456 -0.0011  0.9918 -0.6414
 3760TIP3    H211245   1.097   2.263   0.375  0.9432  0.0924 -2.3106
 3761TIP3   OH211246   2.356   0.234   1.039  0.4572  0.5079  0.1756
 3761TIP3    H111247   2.341   0.234   1.134 -1.0231 -0.0113 -0.0264
 3761TIP3    H211248   2.359   0.326   1.015  2.3750  0.6765  0.9169
 3762TIP3   OH211249   4.538   1.218   2.697  0.5501 -0.1555 -0.8121
 3762TIP3    H111250   4.581   1.225   2.782  0.1419 -1.0068 -0.5352
 3762TIP3    H211251   4.465   1.280   2.702  0.1330 -0.6880 -0.3047
 3763TIP3   OH211252   2.099   5.645   0.965  0.0211 -0.5856 -0.4678
 3763TIP3    H111253   2.069   5.727   1.005 -0.0637 -0.9396  0.1998
 3763TIP3    H211254   2.096   5.581   1.036 -0.2580 -1.2558 -1.0727
 3764TIP3   OH211255   3.118   3.122   1.721  0.0961 -0.1736  0.0569
 3764TIP3    H111256   3.049   3.056   1.731 -0.0870  0.0827  0.5080
 3764TIP3    H211257   3.128   3.160   1.808  0.6456 -0.0432 -0.0575
 3765TIP3   OH211258   3.912   0.055   1.795  0.1654 -0.1072 -0.2572
 3765TIP3    H111259   3.973   0.063   1.869  0.2964 -2.2102 -0.0838
 3765TIP3    H211260   3.914  -0.038   1.772 -0.7314  0.2982 -2.1997
 3766TIP3   OH211261   5.679   4.127   5.096 -0.6113  0.4180 -0.2485
 3766TIP3    H111262   5.733   4.186   5.042 -0.0486  2.0447  1.9647
 3766TIP3    H211263   5.590   4.140   5.064 -0.2070  0.7396 -1.2898
 3767TIP3   OH211264   3.477   4.846   2.705 -0.6018  0.1548 -0.8267
 3767TIP3    H111265   3.450   4.785   2.774 -0.5132  1.9017  0.8317
 3767TIP3    H211266   3.438   4.930   2.730 -1.8397  0.5723 -3.7323
 3768TIP3   OH211267   5.913   6.463   3.584  0.5488  0.0902  0.0645
 3768TIP3    H111268   5.995   6.414   3.583 -0.1230 -1.0805 -0.7371
 3768TIP3    H211269   5.894   6.477   3.676  1.1802 -0.4521  0.2856
 3769TIP3   OH211270   1.530   2.573   5.337 -0.2297  0.4214  0.9684
 3769TIP3    H111271   1.464   2.642   5.333  0.0923  0.6890  0.0525
 3769TIP3    H211272   1.571   2.573   5.250  1.8304  1.1003  1.8740
 3770TIP3   OH211273   1.874   4.808   5.268 -0.0181  0.2053 -0.2398
 3770TIP3    H111274   1.939   4.874   5.291 -0.3802  0.0014  1.5202
 3770TIP3    H211275   1.841   4.835   5.182 -1.5638  3.4794  1.2110
 3771TIP3   OH211276   0.117   1.090   5.780 -0.2953 -0.3258  0.2512
 3771TIP3    H111277   0.152   1.176   5.801 -0.3395 -0.1802 -0.2554
 3771TIP3    H211278   0.069   1.063   5.858 -0.4885  0.2160  0.3184
 3772TIP3   OH211279   5.958   0.070   3.045  0.3261  0.4752 -0.1383
 3772TIP3    H111280   6.033   0.046   3.099 -0.8981 -0.3547  1.2895
 3772TIP3    H211281   5.989   0.143   2.992  2.7885 -1.2446 -1.2426
 3773TIP3   OH211282   2.802   5.430   0.184  0.2918  0.4371  0.1202
 3773TIP3    H111283   2.843   5.454   0.101 -1.8237 -1.2751 -1.5229
 3773TIP3    H211284   2.762   5.511   0.215 -2.1468  0.3954 -2.5539
 3774TIP3   OH211285   5.797   2.344   1.040 -0.0525 -0.0112 -0.1308
 3774TIP3    H111286   5.882   2.378   1.010 -1.4554  1.6837 -2.4544
 3774TIP3    H211287   5.805   2.343   1.135  1.9428  1.9386 -0.1815
 3775TIP3   OH211288   2.816   1.069   1.924 -0.0197  0.4225 -0.2694
 3775TIP3    H111289   2.804   0.977   1.901 -0.1180  0.0910  1.0779
 3775TIP3    H211290   2.795   1.116   1.843  0.2447 -0.7340 -1.0369
 3776TIP3   OH211291   3.242   2.155   1.644 -0.3114 -0.1172 -0.5698
 3776TIP3    H111292   3.148   2.150   1.631 -0.4292 -1.0624  0.5399
 3776TIP3    H211293   3.277   2.083   1.592 -0.5351 -2.0175  1.7743
 3777TIP3   OH211294   0.514   0.659   1.545  0.0101 -0.2442  0.0973
 3777TIP3    H111295   0.434   0.613   1.520 -0.9330  1.4595 -0.1437
 3777TIP3    H211296   0.560   0.674   1.463 -1.0373  1.6165 -0.2082
 3778TIP3   OH211297   3.219   2.291   5.781  0.6892 -0.2095 -0.8485
 3778TIP3    H111298   3.182   2.203   5.773 -0.6597  0.3897 -1.6280
 3778TIP3    H211299   3.177   2.328   5.859  1.9233 -0.5445 -0.0025
 3779TIP3   OH211300   1.105   2.308   4.935 -0.2680  0.0600  0.1366
 3779TIP3    H111301   1.054   2.293   5.015  0.6543 -1.1184  0.5463
 3779TIP3    H211302   1.187   2.348   4.966 -0.6038  1.2419 -0.4311
 3780TIP3   OH211303   4.975   4.615   3.830  0.2831  0.4257 -0.0797
 3780TIP3    H111304   4.975   4.700   3.875  2.5809  0.8295 -0.6999
 3780TIP3    H211305   4.990   4.551   3.900  0.8714  0.7709  0.1216
 3781TIP3   OH211306   3.848   0.974   4.424  0.2757 -0.2912  0.2027
 3781TIP3    H111307   3.800   1.017   4.495  1.0095  0.2824  0.3627
 3781TIP3    H211308   3.870   0.888   4.459 -1.0596 -0.7655 -0.0594
 3782TIP3   OH211309   5.133   4.871   1.538  0.0769 -0.0675  0.4898
 3782TIP3    H111310   5.046   4.878   1.500  0.5345  0.3871 -0.5275
 3782TIP3    H211311   5.135   4.939   1.606 -0.5464 -0.4765  0.9294
 3783TIP3   OH211312   4.283   5.813   1.053 -0.4982  0.0921  0.2554
 3783TIP3    H111313   4.190   5.790   1.052 -0.5610  0.3462 -0.9793
 3783TIP3    H211314   4.289   5.885   1.116 -0.9296 -0.6748  1.2064
 3784TIP3   OH211315   3.770   2.436   4.256  0.6574 -0.4761 -0.9282
 3784TIP3    H111316   3.768   2.344   4.284  0.0431 -0.4478 -0.8755
 3784TIP3    H211317   3.862   2.452   4.236  0.7294 -1.1940 -1.2174
 3785TIP3   OH211318   0.775   1.635   0.533 -0.6625  0.6560 -0.0284
 3785TIP3    H111319   0.727   1.620   0.614 -0.5564 -0.6102 -0.1758
 3785TIP3    H211320   0.831   1.710   0.551 -0.2546  0.0655  1.2412
 3786TIP3   OH211321   2.860   2.805   3.188  0.4787 -1.2054 -0.0266
 3786TIP3    H111322   2.795   2.767   3.247  1.1033 -0.1758  1.3637
 3786TIP3    H211323   2.844   2.899   3.190  1.2720 -1.0399 -0.5699
 3787TIP3   OH211324   2.165   1.738   1.490  0.7131 -0.0031 -0.1450
 3787TIP3    H111325   2.237   1.688   1.453  3.0291  2.5507  0.6089
 3787TIP3    H211326   2.138   1.798   1.420  2.6031  2.2597  0.9161
 3788TIP3   OH211327   5.814   5.816   3.430 -0.5250 -0.1548 -0.1925
 3788TIP3    H111328   5.875   5.814   3.356  1.0028  3.6057  0.7596
 3788TIP3    H211329   5.821   5.729   3.469  2.8447 -0.5093 -1.2520
 3789TIP3   OH211330   1.647   3.112   0.103 -0.0644  0.2379 -0.2463
 3789TIP3    H111331   1.633   3.154   0.188 -1.1980  0.8297 -0.7114
 3789TIP3    H211332   1.706   3.039   0.122 -0.2093  0.4326  1.0231
 3790TIP3   OH211333   4.383   4.365   3.052 -0.2190 -0.1063  0.3143
 3790TIP3    H111334   4.428   4.370   2.968  0.7593  1.3481  0.8907
 3790TIP3    H211335   4.351   4.275   3.056  0.0791 -0.3257 -1.4172
 3791TIP3   OH211336   3.639   2.087   3.453 -0.1511 -0.1358 -0.4240
 3791TIP3    H111337   3.627   2.009   3.398 -1.0334 -1.7642  1.9180
 3791TIP3    H211338   3.711   2.134   3.412 -1.0815 -0.9562 -3.2309
 3792TIP3   OH211339   1.830   5.428   0.143  0.2268 -0.0563 -0.4725
 3792TIP3    H111340   1.873   5.414   0.228 -0.4093 -1.4366 -0.3476
 3792TIP3    H211341   1.902   5.453   0.085  0.9463 -0.6734  0.1147
 3793TIP3   OH211342   1.722   6.458   3.818 -0.0809 -0.4659 -0.0125
 3793TIP3    H111343   1.814   6.474   3.837  0.0689 -0.6420 -0.5659
 3793TIP3    H211344   1.680   6.451   3.904  0.5499 -1.1705  0.2410
 3794TIP3   OH211345   2.859   6.749   1.498 -0.1489  0.3754  0.1581
 3794TIP3    H111346   2.906   6.828   1.473  0.1597  0.2821  0.4325
 3794TIP3    H211347   2.830   6.766   1.588 -0.4338  0.3388  0.0736
 3795TIP3   OH211348   1.933   1.438   4.062 -0.4753  0.1891 -0.1413
 3795TIP3    H111349   1.940   1.379   4.137  1.2301  0.5714  0.0431
 3795TIP3    H211350   1.964   1.522   4.095 -0.2692  0.5072 -1.1122
 3796TIP3   OH211351   6.177   6.713   1.769  0.2076  0.2028  0.0547
 3796TIP3    H111352   6.083   6.712   1.787  0.1602 -1.1344 -0.1341
 3796TIP3    H211353   6.211   6.637   1.816  1.5746  1.8504  1.8778
 3797TIP3   OH211354   2.281   5.113   0.073  0.4647 -0.7141 -0.1263
 3797TIP3    H111355   2.359   5.064   0.046  1.1132  0.6180 -0.7616
 3797TIP3    H211356   2.313   5.176   0.137 -0.3601 -1.1062  0.6923
 3798TIP3   OH211357   1.324   4.750   2.240 -0.1862 -0.0911  0.5403
 3798TIP3    H111358   1.353   4.820   2.181 -1.6347  0.2356  0.1786
 3798TIP3    H211359   1.377   4.761   2.319  0.1620  0.9039  0.1800
 3799TIP3   OH211360   5.557   5.524   2.764 -0.1790  0.0498  0.0314
 3799TIP3    H111361   5.580   5.439   2.801  0.7080  0.0282 -0.5415
 3799TIP3    H211362   5.503   5.566   2.831  0.6417 -0.3485  0.9560
 3800TIP3   OH211363   2.366   6.294   5.324 -0.7607 -0.2387  0.1476
 3800TIP3    H111364   2.384   6.337   5.407  1.3558 -1.4307  0.3885
 3800TIP3    H211365   2.347   6.365   5.263 -1.0540  0.7442  1.3475
 3801TIP3   OH211366   1.844   4.174   4.033  0.2263 -0.3189  0.6522
 3801TIP3    H111367   1.890   4.094   4.058 -1.5716 -0.6122  3.5329
 3801TIP3    H211368   1.883   4.242   4.088 -0.7730 -0.0063  1.0006
 3802TIP3   OH211369   5.114   6.592   1.074 -0.3751 -0.0522 -0.6315
 3802TIP3    H111370   5.072   6.569   1.157 -0.0855  1.8162  0.0915
 3802TIP3    H211371   5.138   6.509   1.035 -3.6162 -1.1813 -0.5146
 3803TIP3   OH211372   7.082   0.008   1.678  0.3598 -0.4960  0.4256
 3803TIP3    H111373   7.028  -0.036   1.744 -1.2581  0.1730 -0.3974
 3803TIP3    H211374   7.058   0.100   1.684  1.2734 -0.2122 -0.1130
 3804TIP3   OH211375   7.126   3.745   3.889  0.2611 -0.7106  0.0887
 3804TIP3    H111376   7.058   3.812   3.901 -1.2524 -1.7134 -2.0761
 3804TIP3    H211377   7.079   3.662   3.898  1.0432 -1.4306 -1.8496
 3805TIP3   OH211378   0.294   1.551   0.654 -0.2781  0.3803  0.6465
 3805TIP3    H111379   0.228   1.504   0.706  0.0022  1.6401  2.2010
 3805TIP3    H211380   0.357   1.483   0.629 -0.8300 -0.3899  1.2894
 3806TIP3   OH211381   4.431   0.110   0.376 -0.4870  0.0196  0.1246
 3806TIP3    H111382   4.403   0.109   0.284 -0.5706 -0.0457  0.1504
 3806TIP3    H211383   4.349   0.104   0.425 -0.6057  1.8847  0.2349
 3807TIP3   OH211384   7.034   3.745   1.220 -0.6011  0.4513  0.2531
 3807TIP3    H111385   6.996   3.832   1.230  0.4558  0.8691  0.7920
 3807TIP3    H211386   6.963   3.691   1.185 -1.7088  1.1816  1.3083
 3808TIP3   OH211387   2.174   5.045   1.275 -0.0063 -0.1166  0.0235
 3808TIP3    H111388   2.259   5.043   1.231  1.0892 -1.7318  2.0568
 3808TIP3    H211389   2.192   5.086   1.360 -1.5441  0.6798 -0.0090
 3809TIP3   OH211390   1.158   0.301   3.525  0.0124  0.3713  0.0919
 3809TIP3    H111391   1.098   0.340   3.462  0.0713 -1.9448 -1.5256
 3809TIP3    H211392   1.226   0.367   3.538 -0.1957  1.0696 -2.0422
 3810TIP3   OH211393   3.149   6.333   2.106  0.4110 -0.5171  0.5009
 3810TIP3    H111394   3.195   6.288   2.035  0.4028 -0.0191  0.1731
 3810TIP3    H211395   3.215   6.343   2.175  0.1929 -1.7526  0.9099
 3811TIP3   OH211396   6.320   4.386   4.194  0.0552  0.3073 -0.2741
 3811TIP3    H111397   6.405   4.361   4.229  0.3635 -0.1229 -1.2892
 3811TIP3    H211398   6.332   4.475   4.162  0.0209  0.3716 -0.1122
 3812TIP3   OH211399   6.572   0.205   4.307 -0.0012  0.1466 -0.1396
 3812TIP3    H111400   6.543   0.127   4.260 -0.8544 -0.5434  1.4384
 3812TIP3    H211401   6.534   0.279   4.259 -0.7780 -0.5198 -0.5563
 3813TIP3   OH211402   1.623   4.832   0.805 -0.5487 -0.4179  0.4158
 3813TIP3    H111403   1.677   4.853   0.881  1.8625 -2.4829 -0.5714
 3813TIP3    H211404   1.618   4.914   0.755  3.5288 -0.4553 -0.4295
 3814TIP3   OH211405   5.281   6.419   3.685 -0.2201 -0.0602  0.1640
 3814TIP3    H111406   5.248   6.435   3.773 -0.6266 -0.6633  0.1207
 3814TIP3    H211407   5.371   6.388   3.698 -0.7318 -1.4603  0.4381
 3815TIP3   OH211408   7.109   4.153   2.800  0.2735 -0.0460 -0.6859
 3815TIP3    H111409   7.119   4.154   2.705 -1.6435  0.1993 -0.9279
 3815TIP3    H211410   7.015   4.138   2.814  0.5057 -0.0256  1.1723
 3816TIP3   OH211411   1.788   1.721   3.365 -0.0312  0.0815 -0.4793
 3816TIP3    H111412   1.771   1.654   3.431  1.1459 -1.6958 -1.9037
 3816TIP3    H211413   1.863   1.769   3.398 -0.7254  0.5717  0.4315
 3817TIP3   OH211414   1.100   4.146   1.175 -0.0637  0.4785 -0.2545
 3817TIP3    H111415   1.022   4.097   1.201  1.3479 -0.5941  2.3314
 3817TIP3    H211416   1.124   4.109   1.090 -0.9427 -0.9751  0.0891
 3818TIP3   OH211417   0.575   3.292   0.164 -0.0390 -0.3833  0.0203
 3818TIP3    H111418   0.605   3.340   0.087  0.3593 -0.7503 -0.0569
 3818TIP3    H211419   0.505   3.235   0.131  0.4183 -0.8503 -0.1605
 3819TIP3   OH211420   6.414   0.079   1.399 -0.1223 -0.1241  0.3056
 3819TIP3    H111421   6.429   0.174   1.397 -0.9754  0.0069 -1.9871
 3819TIP3    H211422   6.400   0.059   1.492 -0.0626  2.0024  0.8195
 3820TIP3   OH211423   4.807   6.460   4.762  0.1876  0.4110  0.0323
 3820TIP3    H111424   4.887   6.492   4.803  0.1472  1.2494 -0.5111
 3820TIP3    H211425   4.745   6.533   4.769  0.5620  1.0750 -2.5251
 3821TIP3   OH211426   3.680   2.524   4.917  0.1271 -0.2349 -0.5685
 3821TIP3    H111427   3.591   2.555   4.901 -0.2890 -0.3687  1.1877
 3821TIP3    H211428   3.697   2.547   5.009  2.0177  0.0345 -0.9480
 3822TIP3   OH211429   2.964   3.885   1.469 -0.1416 -0.1844  0.5626
 3822TIP3    H111430   2.956   3.823   1.541  0.2246  0.4742  1.1818
 3822TIP3    H211431   2.981   3.969   1.511 -0.0674  0.2377 -0.2867
 3823TIP3   OH211432   0.441   4.401   1.068  0.0902 -0.5347 -0.1694
 3823TIP3    H111433   0.463   4.488   1.102 -1.4325 -0.1198 -0.1512
 3823TIP3    H211434   0.350   4.410   1.038 -0.9671 -2.6968  1.9927
 3824TIP3   OH211435   0.187   2.115   1.587 -0.2129  0.5076  0.5146
 3824TIP3    H111436   0.180   2.020   1.595 -0.2495  0.5494  1.0013
 3824TIP3    H211437   0.204   2.130   1.493 -0.7218  0.0605  0.3487
 3825TIP3   OH211438   5.455   3.615   4.150 -0.2504 -0.0983 -0.1202
 3825TIP3    H111439   5.523   3.663   4.197  1.2457 -1.0027 -1.2648
 3825TIP3    H211440   5.425   3.676   4.083 -0.1276  0.1039  0.0069
 3826TIP3   OH211441   6.198   6.740   0.289 -0.2285 -0.1188  0.1651
 3826TIP3    H111442   6.231   6.719   0.376 -0.3222  0.1906  0.2735
 3826TIP3    H211443   6.118   6.687   0.280 -0.4480  0.1695  0.4277
 3827TIP3   OH211444   4.080   0.530   4.618 -0.2011 -0.4027  0.4563
 3827TIP3    H111445   4.049   0.447   4.583  0.7823 -0.7691  0.4319
 3827TIP3    H211446   4.133   0.506   4.694  2.8892 -0.1090 -1.4507
 3828TIP3   OH211447   0.110   2.276   4.314 -0.1459  0.2405  0.5574
 3828TIP3    H111448   0.073   2.256   4.228  0.8761  1.7436 -0.2882
 3828TIP3    H211449   0.145   2.192   4.345  0.2436 -0.1738 -0.9055
 3829TIP3   OH211450   1.590   2.029   5.466  1.0251  0.0908 -0.0983
 3829TIP3    H111451   1.579   2.124   5.452 -1.7608 -0.3383 -1.5591
 3829TIP3    H211452   1.598   2.020   5.561 -0.6307  1.7015  0.2717
 3830TIP3   OH211453   4.770   1.793   3.900  0.8544 -0.3842 -0.3951
 3830TIP3    H111454   4.837   1.861   3.892 -1.2341  1.6773 -1.9632
 3830TIP3    H211455   4.810   1.715   3.860  1.8656  1.1478 -2.5671
 3831TIP3   OH211456   3.386   6.295   5.332  0.6955 -0.0359  0.1270
 3831TIP3    H111457   3.329   6.261   5.401  0.4912 -0.3803 -0.2034
 3831TIP3    H211458   3.434   6.218   5.301  1.1523  0.2075  0.2283
 3832TIP3   OH211459   6.938   0.708   2.213 -0.1643 -0.4845  0.1198
 3832TIP3    H111460   6.878   0.695   2.140 -1.6014 -0.7869  1.3084
 3832TIP3    H211461   6.920   0.797   2.244  0.6761 -0.2326 -0.0704
 3833TIP3   OH211462   6.732   2.715   2.940  0.8441 -0.4783  0.0655
 3833TIP3    H111463   6.694   2.792   2.983  0.0624 -1.7238  1.7465
 3833TIP3    H211464   6.667   2.689   2.875 -0.3078 -1.3747  1.5049
 3834TIP3   OH211465   6.191   6.397   3.891 -0.1013  0.0664 -0.1908
 3834TIP3    H111466   6.120   6.435   3.943  1.4866  0.1050  2.0454
 3834TIP3    H211467   6.195   6.305   3.919  0.5898  0.0057 -0.4783
 3835TIP3   OH211468   0.591   6.167   5.327  0.6485 -0.5351 -0.0403
 3835TIP3    H111469   0.534   6.196   5.398  1.4671 -0.9170  0.7935
 3835TIP3    H211470   0.645   6.244   5.306  1.2501 -0.7783  0.6008
 3836TIP3   OH211471   2.742   6.017   1.268  0.6045  0.1235 -0.3600
 3836TIP3    H111472   2.694   6.024   1.350  1.3768  3.5310 -0.0454
 3836TIP3    H211473   2.680   6.047   1.201  0.1046 -2.2668 -1.0447
 3837TIP3   OH211474   4.933   4.095   0.361 -0.2620 -0.3899 -0.2673
 3837TIP3    H111475   4.969   4.161   0.420 -1.2283 -1.1725  1.2514
 3837TIP3    H211476   4.911   4.144   0.282  2.1790  0.4614 -0.4963
 3838TIP3   OH211477   3.525   0.071   5.332  0.0883 -0.3982 -1.0172
 3838TIP3    H111478   3.496  -0.018   5.312 -0.3227 -0.5581  0.2409
 3838TIP3    H211479   3.619   0.069   5.315  0.6135 -1.8646  1.4866
 3839TIP3   OH211480   4.979   2.255   3.282  0.0819 -0.5861 -0.2376
 3839TIP3    H111481   4.996   2.328   3.224  1.6293  0.7974  1.8002
 3839TIP3    H211482   4.981   2.177   3.226  0.8101  0.7071 -2.0738
 3840TIP3   OH211483   3.922   4.788   3.424 -0.0055  0.4075 -0.4989
 3840TIP3    H111484   3.841   4.810   3.379  0.2844  0.0779 -1.2116
 3840TIP3    H211485   3.959   4.716   3.373  0.2775 -0.0664  0.3548
 3841TIP3   OH211486   1.900   2.445   0.692 -0.0343 -0.1132 -0.3834
 3841TIP3    H111487   1.945   2.371   0.652  0.0376  1.0605 -2.7170
 3841TIP3    H211488   1.862   2.492   0.617 -1.7570  1.1003  1.1778
 3842TIP3   OH211489   3.908   2.162   1.835 -0.1726 -0.0779  0.1144
 3842TIP3    H111490   3.832   2.188   1.782 -0.3309  1.2559  0.9210
 3842TIP3    H211491   3.878   2.087   1.886 -0.3404 -0.7304 -0.9371
 3843TIP3   OH211492   4.088   1.603   3.850 -1.0541 -0.3157  0.4933
 3843TIP3    H111493   4.112   1.511   3.847 -2.1891 -0.6199 -0.4387
 3843TIP3    H211494   4.162   1.649   3.811 -0.6665 -0.8781  0.5601
 3844TIP3   OH211495   0.830   6.765   3.873  0.6352  0.5161  0.2419
 3844TIP3    H111496   0.851   6.673   3.858 -0.9177  0.1840 -0.1155
 3844TIP3    H211497   0.735   6.770   3.859  0.6681  2.1373  0.4336
 3845TIP3   OH211498   4.411   1.826   0.042  0.0278  0.4381  0.0616
 3845TIP3    H111499   4.447   1.754   0.094  1.2382 -0.8448 -2.3569
 3845TIP3    H211500   4.482   1.890   0.039 -0.2414  0.7588  0.4015
 3846TIP3   OH211501   1.394   6.490   1.957 -0.0784  0.6518  0.1035
 3846TIP3    H111502   1.349   6.422   2.006  0.2345  0.0387 -0.4501
 3846TIP3    H211503   1.393   6.566   2.015  0.6602 -0.1749  1.2435
 3847TIP3   OH211504   3.055   2.877   5.853  0.1209 -0.1613 -0.1069
 3847TIP3    H111505   2.987   2.886   5.787 -0.2127 -1.7794 -0.0116
 3847TIP3    H211506   3.034   2.796   5.899  1.4669 -0.0956  0.6737
 3848TIP3   OH211507   2.118   3.325   5.731 -0.0090 -0.3970  0.3250
 3848TIP3    H111508   2.208   3.356   5.744 -0.2509  0.1931  0.6749
 3848TIP3    H211509   2.124   3.260   5.661  0.6519 -0.1803  0.1732
 3849TIP3   OH211510   2.729   2.535   4.468 -0.4200  0.6384 -0.0357
 3849TIP3    H111511   2.696   2.516   4.380 -0.3846  0.1081  0.0643
 3849TIP3    H211512   2.674   2.483   4.526  2.0750 -2.2570 -0.0144
 3850TIP3   OH211513   4.387   3.073   5.009  0.1243 -0.3094  0.3022
 3850TIP3    H111514   4.462   3.024   4.974 -0.6251 -0.1206 -1.6558
 3850TIP3    H211515   4.335   3.097   4.933 -1.3996  0.4963  1.5233
 3851TIP3   OH211516   4.844   3.784   3.756  0.2732 -0.0096  0.1649
 3851TIP3    H111517   4.861   3.772   3.850 -0.7574 -0.8003  0.2640
 3851TIP3    H211518   4.788   3.861   3.752  1.1776  0.6656  0.0939
 3852TIP3   OH211519   1.798   0.821   2.517 -0.3484 -0.0536  0.4248
 3852TIP3    H111520   1.757   0.903   2.543 -1.2966 -0.7077  1.0671
 3852TIP3    H211521   1.843   0.842   2.435  0.3583  1.3585  1.1410
 3853TIP3   OH211522   1.097   1.920   2.826  0.2689  0.4154 -0.1594
 3853TIP3    H111523   1.032   1.989   2.838  0.5499  0.3139  2.7085
 3853TIP3    H211524   1.127   1.900   2.915  0.3099 -3.2808 -0.8375
 3854TIP3   OH211525   5.350   2.022   5.348 -0.0116 -0.6953  1.1083
 3854TIP3    H111526   5.342   2.019   5.444  0.4968  0.2066  1.1913
 3854TIP3    H211527   5.263   1.999   5.316 -0.5403  0.2656  1.8151
 3855TIP3   OH211528   5.139   5.471   0.857 -0.8107  0.2696  0.1608
 3855TIP3    H111529   5.180   5.393   0.896  0.7816  0.5794 -0.7836
 3855TIP3    H211530   5.099   5.516   0.931 -1.8080 -1.4532  0.7212
 3856TIP3   OH211531   7.037   2.847   4.128  0.1328 -0.6746 -0.2071
 3856TIP3    H111532   7.117   2.900   4.127  0.1229 -0.6187  0.8607
 3856TIP3    H211533   7.069   2.757   4.120  0.4213 -0.7483  1.3811
 3857TIP3   OH211534   5.151   5.780   4.653 -0.3432  0.3844 -0.5008
 3857TIP3    H111535   5.197   5.846   4.706 -0.7644  0.2593  0.0283
 3857TIP3    H211536   5.129   5.825   4.572  0.2599  0.5957 -0.5546
 3858TIP3   OH211537   2.373   6.517   1.037 -0.3404  0.3067 -0.0087
 3858TIP3    H111538   2.447   6.460   1.016 -1.5847 -1.6749  0.7069
 3858TIP3    H211539   2.316   6.510   0.961 -1.0998 -0.4872  0.6077
 3859TIP3   OH211540   5.116   6.321   3.082  0.2321 -0.3991  0.4579
 3859TIP3    H111541   5.123   6.242   3.135  0.2599 -1.8754 -1.6151
 3859TIP3    H211542   5.027   6.352   3.095 -0.1941 -1.5276  0.3170
 3860TIP3   OH211543   0.186   6.074   2.480  0.3573 -0.4962 -0.5157
 3860TIP3    H111544   0.257   6.090   2.542  0.1061  1.4259 -0.6459
 3860TIP3    H211545   0.166   6.161   2.444 -2.1551 -0.9256 -0.3596
 3861TIP3   OH211546   2.039   1.154   0.525 -0.3007 -0.7172 -0.5375
 3861TIP3    H111547   2.085   1.111   0.597  0.1899  0.1129 -0.3368
 3861TIP3    H211548   2.101   1.155   0.453 -0.9094 -1.8397 -1.0936
 3862TIP3   OH211549   6.399   6.547   4.920 -0.2948 -0.0635  0.3374
 3862TIP3    H111550   6.461   6.511   4.856 -2.6729  0.7393 -2.6534
 3862TIP3    H211551   6.424   6.640   4.927  1.1353 -0.5362  2.1595
 3863TIP3   OH211552   2.581   0.129   2.185 -0.3209  0.7643 -0.0042
 3863TIP3    H111553   2.656   0.142   2.243  0.0183 -0.2741 -0.1908
 3863TIP3    H211554   2.619   0.118   2.098 -0.6181 -0.5042  0.0086
 3864TIP3   OH211555   7.192   6.183   5.022 -0.3256  0.1620 -0.5535
 3864TIP3    H111556   7.119   6.138   5.065  0.0100 -0.3354 -0.5029
 3864TIP3    H211557   7.219   6.124   4.952 -0.7022  0.8520 -1.3116
 3865TIP3   OH211558   1.212   1.819   3.785 -0.1252  0.3044  0.1711
 3865TIP3    H111559   1.140   1.796   3.726 -0.8191  2.0991  0.2589
 3865TIP3    H211560   1.228   1.739   3.836  0.0081 -1.0663 -1.8907
 3866TIP3   OH211561   6.283   5.378   1.763 -0.5413 -0.3586  0.4579
 3866TIP3    H111562   6.268   5.393   1.856  0.5248 -0.4781  0.6636
 3866TIP3    H211563   6.358   5.319   1.760  0.2442  0.6383 -0.4806
 3867TIP3   OH211564   0.366   4.676   4.393 -0.5216 -0.6469  0.2229
 3867TIP3    H111565   0.462   4.677   4.394 -0.5282 -0.6025  0.6954
 3867TIP3    H211566   0.340   4.763   4.421 -0.7034 -0.6719  0.1340
 3868TIP3   OH211567   4.216   6.137   0.719 -0.0685 -0.1288 -0.0478
 3868TIP3    H111568   4.142   6.115   0.776  1.6532  1.4702  3.0682
 3868TIP3    H211569   4.292   6.102   0.765  1.3084 -0.2989 -2.3360
 3869TIP3   OH211570   3.184   1.552   0.348  0.3312 -0.2385  0.2855
 3869TIP3    H111571   3.155   1.462   0.330 -1.3101  0.3139 -0.0315
 3869TIP3    H211572   3.119   1.586   0.409  0.9329  0.7518  0.3895
 3870TIP3   OH211573   2.765   3.568   4.957 -0.1086 -0.3209  0.1238
 3870TIP3    H111574   2.761   3.510   5.033  1.8269 -1.1542 -0.3318
 3870TIP3    H211575   2.846   3.618   4.969 -0.5407  0.5917 -0.6584
 3871TIP3   OH211576   0.142   3.763   0.431  0.6297  0.2793 -0.5097
 3871TIP3    H111577   0.204   3.826   0.467  0.2433  0.1295  0.4494
 3871TIP3    H211578   0.060   3.811   0.424  0.4314 -0.0045 -0.1537
 3872TIP3   OH211579   6.604   5.820   2.785 -0.5075 -0.0353 -0.0729
 3872TIP3    H111580   6.572   5.909   2.799  0.5704  0.3935 -0.2543
 3872TIP3    H211581   6.618   5.814   2.691  1.0540  0.2026  0.1132
 3873TIP3   OH211582   1.852   0.934   5.594  0.7014  0.0132 -0.1231
 3873TIP3    H111583   1.929   0.927   5.538 -1.8730 -0.4463 -4.0135
 3873TIP3    H211584   1.841   0.847   5.631  1.6401 -0.1150 -0.1403
 3874TIP3   OH211585   4.974   6.772   0.160 -0.2238  0.3626  0.1886
 3874TIP3    H111586   4.991   6.862   0.130 -1.1291  0.2841 -0.6324
 3874TIP3    H211587   5.060   6.738   0.183  0.3935  0.8475 -1.2319
 3875TIP3   OH211588   4.235   3.568   3.759  0.0670  0.0780 -0.3899
 3875TIP3    H111589   4.216   3.581   3.666  0.2466 -2.5089 -0.8533
 3875TIP3    H211590   4.329   3.548   3.762 -0.4435 -2.6121 -0.0674
 3876TIP3   OH211591   5.349   0.640   5.134  0.3891  0.1245  0.7773
 3876TIP3    H111592   5.381   0.715   5.184  2.3481  0.4588 -0.8207
 3876TIP3    H211593   5.412   0.631   5.063 -0.8079 -1.9505 -0.1028
 3877TIP3   OH211594   2.935   1.100   1.268 -0.0816  0.6478  0.0485
 3877TIP3    H111595   2.898   1.159   1.202 -1.5464  0.9515  1.0774
 3877TIP3    H211596   3.001   1.153   1.312  0.1839  0.7787 -0.4930
 3878TIP3   OH211597   2.875   1.484   0.410  0.3392 -0.3352  0.4693
 3878TIP3    H111598   2.791   1.523   0.385 -0.1828 -1.3235  0.6097
 3878TIP3    H211599   2.865   1.464   0.503  0.7840 -0.3192  0.5199
 3879TIP3   OH211600   7.033   3.204   2.306  0.0905  0.2968  0.7251
 3879TIP3    H111601   7.110   3.213   2.250 -0.3500 -1.4295 -0.2595
 3879TIP3    H211602   7.067   3.177   2.391  0.6777  1.4009  0.8453
 3880TIP3   OH211603   1.334   5.455   2.108 -0.0712 -0.2752  0.0346
 3880TIP3    H111604   1.260   5.422   2.160  0.0080 -0.0966  0.2577
 3880TIP3    H211605   1.294   5.484   2.026 -0.4534  1.1268  0.6930
 3881TIP3   OH211606   5.460   3.777   5.061 -0.1653 -0.3742 -0.8384
 3881TIP3    H111607   5.539   3.727   5.040  1.0138  0.7759  0.5647
 3881TIP3    H211608   5.432   3.742   5.146  0.1408  0.6945 -0.2829
 3882TIP3   OH211609   1.612   6.747   2.626 -0.1583 -0.1518 -0.4707
 3882TIP3    H111610   1.607   6.707   2.713  0.2757 -0.4378 -0.5729
 3882TIP3    H211611   1.591   6.839   2.641  1.9141  0.2558  0.2947
 3883TIP3   OH211612   2.793   1.116   0.434  0.0443  0.0767 -0.1492
 3883TIP3    H111613   2.717   1.172   0.451  1.3582  1.6546  0.8006
 3883TIP3    H211614   2.795   1.055   0.508 -1.1991 -1.0935 -1.0188
 3884TIP3   OH211615   4.935   0.150   3.679  0.1823 -0.0184 -0.1456
 3884TIP3    H111616   5.013   0.095   3.688  0.4990  0.6711  1.7842
 3884TIP3    H211617   4.958   0.212   3.610  0.1536 -1.6855 -1.7263
 3885TIP3   OH211618   1.021   5.956   2.597 -0.1433 -0.3654  0.6471
 3885TIP3    H111619   1.053   6.027   2.542 -0.4741  0.6681  1.7511
 3885TIP3    H211620   1.101   5.913   2.629  0.1183  0.5527  1.2797
 3886TIP3   OH211621   4.269   3.930   4.125  0.3444 -0.1776  0.1093
 3886TIP3    H111622   4.184   3.932   4.081  0.3488 -0.7071  0.0693
 3886TIP3    H211623   4.322   3.995   4.078  0.3825 -0.8116 -0.7378
 3887TIP3   OH211624   2.671   4.899   3.533 -0.2728 -0.0277  0.3697
 3887TIP3    H111625   2.724   4.913   3.455 -0.7675 -1.6231 -0.3059
 3887TIP3    H211626   2.608   4.831   3.507 -1.4851  0.5501  1.6801
 3888TIP3   OH211627   3.021   0.860   5.136 -0.4502 -0.3202 -0.2262
 3888TIP3    H111628   3.107   0.890   5.166 -0.7895 -0.2455  0.7068
 3888TIP3    H211629   2.963   0.876   5.211 -1.7420  1.6792 -1.5678
 3889TIP3   OH211630   1.055   0.557   1.905 -0.4770 -0.2928  0.3866
 3889TIP3    H111631   0.964   0.531   1.913  0.0403 -2.2558  0.4621
 3889TIP3    H211632   1.069   0.618   1.978 -2.3073  2.0710 -1.1083
 3890TIP3   OH211633   5.644   5.982   0.816  0.5384  0.0878  0.1883
 3890TIP3    H111634   5.699   6.000   0.893 -0.2674  0.7458  0.6231
 3890TIP3    H211635   5.645   5.887   0.808  1.8329  0.0794  0.1132
 3891TIP3   OH211636   0.500   2.460   1.602  0.1335  0.2641  0.2785
 3891TIP3    H111637   0.526   2.469   1.511 -2.7314  0.4927 -0.5968
 3891TIP3    H211638   0.490   2.366   1.615  1.8247  0.1253  0.8038
 3892TIP3   OH211639   6.773   4.542  -0.030 -0.3264 -0.0429  0.3845
 3892TIP3    H111640   6.789   4.635  -0.016 -1.8702  0.1554  1.0799
 3892TIP3    H211641   6.746   4.509   0.056  1.4279 -1.4301  0.4438
 3893TIP3   OH211642   4.680   3.502   0.385  0.2351  0.0511 -0.6951
 3893TIP3    H111643   4.665   3.525   0.477  0.0187  1.4144 -1.0418
 3893TIP3    H211644   4.600   3.531   0.340 -0.1896 -1.7195 -1.1657
 3894TIP3   OH211645   1.055   4.457   1.634 -0.3825 -0.1264 -0.3703
 3894TIP3    H111646   1.090   4.544   1.653  0.2503 -0.2112 -1.0958
 3894TIP3    H211647   1.112   4.397   1.683 -0.4505 -0.1662 -0.3401
 3895TIP3   OH211648   7.204   1.273   4.609 -0.1469  0.4296 -0.4255
 3895TIP3    H111649   7.127   1.228   4.643 -0.6373  1.5247 -0.0413
 3895TIP3    H211650   7.278   1.219   4.638 -0.3273  2.2497  4.2480
 3896TIP3   OH211651   5.499   3.256   3.289  0.0003 -0.0801 -0.2120
 3896TIP3    H111652   5.544   3.331   3.252  0.9661 -0.8146 -0.5667
 3896TIP3    H211653   5.482   3.199   3.214  0.8743 -1.0149  0.2753
 3897TIP3   OH211654   3.656   0.111   2.473 -0.2865 -0.0936 -0.1476
 3897TIP3    H111655   3.667   0.120   2.568  0.1407 -1.3994 -0.0409
 3897TIP3    H211656   3.745   0.118   2.438 -0.1185 -1.9309 -0.1877
 3898TIP3   OH211657   2.775   1.045   0.129 -0.8521  0.8649  0.0451
 3898TIP3    H111658   2.819   0.969   0.093 -0.3170  1.6050 -0.8878
 3898TIP3    H211659   2.827   1.069   0.206 -0.6008  0.7209 -0.0803
 3899TIP3   OH211660   7.122   0.051   2.696 -0.1518  0.5822  0.2858
 3899TIP3    H111661   7.162  -0.009   2.759 -0.3301 -0.9738 -1.0099
 3899TIP3    H211662   7.195   0.079   2.640 -0.6323 -1.9515 -1.8331
 3900TIP3   OH211663   6.582   0.552   2.627  0.6269 -0.2098 -0.0218
 3900TIP3    H111664   6.587   0.645   2.608  0.3091  0.3518  2.3329
 3900TIP3    H211665   6.565   0.547   2.721 -0.9741 -2.6137 -0.3361
 3901TIP3   OH211666   6.255   2.975   4.576 -0.2845  0.2862  0.4377
 3901TIP3    H111667   6.266   2.910   4.507  1.3649  1.6104 -0.6573
 3901TIP3    H211668   6.173   3.020   4.554  0.1001  0.5308 -0.5445
 3902TIP3   OH211669   4.835   5.111   0.189 -0.3365 -0.4448  0.0478
 3902TIP3    H111670   4.795   5.167   0.255  1.9701  1.4029  0.0176
 3902TIP3    H211671   4.765   5.093   0.126 -1.3977  1.6715  0.5478
 3903TIP3   OH211672   3.432   0.782   1.415 -0.2203 -0.3965  0.2054
 3903TIP3    H111673   3.482   0.796   1.496  1.7996  0.4734 -1.1140
 3903TIP3    H211674   3.437   0.687   1.400 -1.1759 -0.6624  1.4061
 3904TIP3   OH211675   1.308   6.270   2.759  0.2945  0.0293  0.2945
 3904TIP3    H111676   1.364   6.192   2.751  1.0395  0.5296  0.5260
 3904TIP3    H211677   1.226   6.245   2.717  0.2824 -1.1090  0.9542
 3905TIP3   OH211678   2.629   4.105   2.382  0.1061  0.2596  0.1543
 3905TIP3    H111679   2.587   4.182   2.420 -1.5590 -0.4324 -0.1942
 3905TIP3    H211680   2.633   4.124   2.288 -0.0773  0.0342  0.0995
 3906TIP3   OH211681   5.699   1.659   1.076  0.2784  0.0393  0.7508
 3906TIP3    H111682   5.774   1.617   1.034  1.4174  2.1180  0.5753
 3906TIP3    H211683   5.629   1.652   1.011  1.5391  1.7025 -0.9171
 3907TIP3   OH211684   6.995   3.223   0.786 -0.2740 -0.0428  0.6108
 3907TIP3    H111685   6.943   3.259   0.714 -0.4959  0.7716  1.1598
 3907TIP3    H211686   7.086   3.238   0.761 -0.3606  0.6633  0.7022
 3908TIP3   OH211687   3.126   0.491   1.797 -0.2796  0.9248  0.2575
 3908TIP3    H111688   3.169   0.557   1.851  1.9933 -1.0298  1.0133
 3908TIP3    H211689   3.197   0.448   1.749 -1.7461 -0.4238 -0.8675
 3909TIP3   OH211690   5.058   3.397   2.336 -0.0161 -0.1352 -0.0027
 3909TIP3    H111691   5.112   3.476   2.340  1.4515 -0.9993 -1.4734
 3909TIP3    H211692   5.087   3.345   2.411 -0.4188  0.3659  0.5084
 3910TIP3   OH211693   0.815   0.214   2.615  0.7081  0.2425  0.0585
 3910TIP3    H111694   0.880   0.283   2.628  1.0045 -0.4605  3.4634
 3910TIP3    H211695   0.731   0.258   2.624  0.8807  0.3886  1.1550
 3911TIP3   OH211696   3.370   3.764   1.024  0.0108 -0.1728 -0.0803
 3911TIP3    H111697   3.287   3.760   0.976 -0.6222  1.3430  0.8369
 3911TIP3    H211698   3.376   3.680   1.070 -0.4434 -0.7468 -1.0373
 3912TIP3   OH211699   4.266   1.639   0.472 -0.5245 -0.3491 -0.0823
 3912TIP3    H111700   4.245   1.712   0.530  0.7296 -0.2377  0.2617
 3912TIP3    H211701   4.360   1.626   0.483 -0.3678 -0.7406 -1.6226
 3913TIP3   OH211702   2.106   1.803   0.666  0.1245  0.0786 -0.0536
 3913TIP3    H111703   2.028   1.788   0.613  0.1840  1.0314 -0.4355
 3913TIP3    H211704   2.083   1.769   0.753  0.0893 -1.6485 -0.7060
 3914TIP3   OH211705   3.010   3.424   2.542 -0.2482 -0.0325  0.0506
 3914TIP3    H111706   3.035   3.365   2.612  0.6567 -0.7147 -0.8201
 3914TIP3    H211707   3.092   3.466   2.515 -0.8706  1.6809  0.6774
 3915TIP3   OH211708   3.591   5.323   5.800 -0.3422  0.6404 -0.0519
 3915TIP3    H111709   3.603   5.410   5.836 -1.9461  0.7594  0.2719
 3915TIP3    H211710   3.586   5.336   5.705  0.6979  0.7195 -0.1075
 3916TIP3   OH211711   5.419   4.272   2.457 -0.5253 -0.3927  0.6551
 3916TIP3    H111712   5.367   4.264   2.378 -0.5754  0.6907  0.5762
 3916TIP3    H211713   5.421   4.365   2.476 -1.5265 -0.7186  2.6149
 3917TIP3   OH211714   5.361   1.317   2.466 -0.4800 -0.3675 -0.0476
 3917TIP3    H111715   5.389   1.369   2.391 -1.3721  2.4928  1.4469
 3917TIP3    H211716   5.310   1.246   2.427  0.8453 -0.2371 -2.2171
 3918TIP3   OH211717   6.715   2.323   2.097  0.5415  0.3569 -0.1975
 3918TIP3    H111718   6.780   2.391   2.112  1.4753 -0.4946 -0.2967
 3918TIP3    H211719   6.728   2.262   2.170  0.4690 -0.2911 -0.7233
 3919TIP3   OH211720   6.813   3.366   3.829 -0.5659 -0.0199 -0.1215
 3919TIP3    H111721   6.817   3.408   3.743 -0.1749 -0.1712 -0.1799
 3919TIP3    H211722   6.782   3.434   3.888 -0.7546  0.1094 -0.3676
 3920TIP3   OH211723   5.967   2.999   1.732 -0.2355 -0.2170 -0.0674
 3920TIP3    H111724   5.919   2.924   1.697 -1.1286  0.1964  0.2434
 3920TIP3    H211725   6.025   3.026   1.660 -0.0229 -1.0978 -0.2324
 3921TIP3   OH211726   2.276   5.365   2.729 -0.0017 -0.0268 -0.4242
 3921TIP3    H111727   2.280   5.287   2.784  0.5821  1.1714  1.3066
 3921TIP3    H211728   2.306   5.335   2.643 -1.5203 -2.0845 -0.3092
 3922TIP3   OH211729   1.750   1.597   3.598  0.1903  0.0047  0.5759
 3922TIP3    H111730   1.673   1.651   3.616 -0.2106  0.0376 -1.0890
 3922TIP3    H211731   1.781   1.570   3.684 -2.7390 -1.4902  1.2998
 3923TIP3   OH211732   3.962   5.893   2.466  0.1810 -0.4726 -0.0741
 3923TIP3    H111733   3.924   5.845   2.540  0.5525  1.6094  1.5971
 3923TIP3    H211734   4.046   5.851   2.449 -0.1144 -1.2602  0.3955
 3924TIP3   OH211735   6.191   5.736   1.164 -0.4897  0.4428  0.2035
 3924TIP3    H111736   6.286   5.748   1.165 -0.4020 -0.1621 -0.5437
 3924TIP3    H211737   6.176   5.658   1.217 -0.3838 -0.6334 -1.3047
 3925TIP3   OH211738   6.830   6.170   4.316  0.4638 -0.1614 -0.0927
 3925TIP3    H111739   6.869   6.112   4.250 -2.2625 -1.5636 -0.6142
 3925TIP3    H211740   6.748   6.199   4.276  1.0123  2.9591  0.7738
 3926TIP3   OH211741   5.734   4.089   1.615  0.3199 -0.1335  0.0473
 3926TIP3    H111742   5.824   4.054   1.615 -0.6674 -3.1879  3.4438
 3926TIP3    H211743   5.722   4.124   1.703 -1.4881  1.3559 -0.7434
 3927TIP3   OH211744   5.068   5.218   5.211 -0.0171  0.0034 -0.0572
 3927TIP3    H111745   5.128   5.280   5.253 -0.4434 -0.4825  1.3289
 3927TIP3    H211746   5.110   5.133   5.221 -0.7522 -0.2990  0.6487
 3928TIP3   OH211747   3.496   2.820   2.666 -0.1032  0.2651  0.5952
 3928TIP3    H111748   3.534   2.894   2.619  0.9444 -1.2798 -1.1035
 3928TIP3    H211749   3.428   2.859   2.721 -0.5827  2.3151 -1.3103
 3929TIP3   OH211750   2.873   1.277   2.885 -0.4095  0.0803  0.5004
 3929TIP3    H111751   2.878   1.348   2.949 -0.8493 -1.2096  2.0296
 3929TIP3    H211752   2.802   1.303   2.826  1.0543  2.0469 -0.4850
 3930TIP3   OH211753   6.772   4.108   3.116  0.2713  0.1233  0.0639
 3930TIP3    H111754   6.745   4.020   3.139  1.1361 -0.6517 -1.7181
 3930TIP3    H211755   6.868   4.104   3.112  0.4723  1.6336  1.7306
 3931TIP3   OH211756   0.102   1.277   5.123  0.1660 -0.4523 -0.7296
 3931TIP3    H111757   0.182   1.296   5.173  0.3607 -0.6210 -0.9727
 3931TIP3    H211758   0.031   1.302   5.182  0.4024  0.2110 -0.7118
 3932TIP3   OH211759   5.993   4.783   5.438 -0.1559 -0.4379 -0.3193
 3932TIP3    H111760   6.063   4.757   5.498  1.1462  1.3611 -0.9442
 3932TIP3    H211761   6.039   4.825   5.364 -1.8887  2.2652 -0.0212
 3933TIP3   OH211762   1.463   3.428   5.100  0.3293  0.4882 -0.2712
 3933TIP3    H111763   1.436   3.339   5.078  1.4294  0.3173 -1.0144
 3933TIP3    H211764   1.442   3.437   5.193  1.7203 -1.1450  0.2609
 3934TIP3   OH211765   6.437   2.265   3.566 -0.3134 -0.6943 -0.3687
 3934TIP3    H111766   6.375   2.203   3.528 -1.4715  0.0553  0.2257
 3934TIP3    H211767   6.388   2.348   3.571  0.2317 -0.4312  1.4671
 3935TIP3   OH211768   1.136   6.206   3.899 -0.1443 -0.4059  0.3029
 3935TIP3    H111769   1.075   6.164   3.960 -0.1754 -1.3463 -0.3496
 3935TIP3    H211770   1.139   6.146   3.824 -0.7444  1.1019 -0.9840
 3936TIP3   OH211771   2.120   5.036   3.437 -0.4346 -0.3919  0.5025
 3936TIP3    H111772   2.168   5.118   3.448 -1.0007 -0.3364  3.5376
 3936TIP3    H211773   2.156   4.978   3.505  0.7021 -3.1434 -2.1958
 3937TIP3   OH211774   6.353   2.636   5.138 -0.3136 -0.1186 -0.5962
 3937TIP3    H111775   6.329   2.561   5.084  1.0999 -0.0179 -1.4434
 3937TIP3    H211776   6.276   2.693   5.137 -1.0547 -1.1027 -0.7502
 3938TIP3   OH211777   2.516   1.553   1.847 -0.4407  0.1360 -0.6941
 3938TIP3    H111778   2.486   1.582   1.760  0.9170  0.7500 -0.9732
 3938TIP3    H211779   2.600   1.511   1.831 -0.7981 -0.9630  0.1734
 3939TIP3   OH211780   0.051   2.377   0.438  0.1922  0.1190  0.3414
 3939TIP3    H111781   0.112   2.448   0.414 -0.8548  1.3774  1.2284
 3939TIP3    H211782  -0.000   2.361   0.359  0.5800  0.1988  0.0700
 3940TIP3   OH211783   7.226   3.901   0.203 -0.4890  0.5118  0.1623
 3940TIP3    H111784   7.135   3.919   0.227 -0.6550  0.0716 -0.1270
 3940TIP3    H211785   7.223   3.817   0.158  0.2318 -0.0994  1.2135
 3941TIP3   OH211786   1.001   1.833   1.438  0.3497  0.0657 -0.3338
 3941TIP3    H111787   1.024   1.838   1.531  1.8034 -3.1030 -0.3821
 3941TIP3    H211788   0.911   1.800   1.439 -0.0905  1.2237 -0.0987
 3942TIP3   OH211789   3.168   2.654   4.752  0.2936  0.0106  0.5025
 3942TIP3    H111790   3.120   2.573   4.770 -1.3003  1.1182  1.5230
 3942TIP3    H211791   3.120   2.695   4.680 -0.2341  1.0079  1.3690
 3943TIP3   OH211792   4.560   4.183   5.312 -0.4888  0.2562  0.6649
 3943TIP3    H111793   4.495   4.113   5.303  0.8833 -1.1977  1.7999
 3943TIP3    H211794   4.521   4.243   5.376 -0.4043 -1.0039  1.9362
 3944TIP3   OH211795   3.728   5.485   4.886 -0.2167 -0.1505 -0.1188
 3944TIP3    H111796   3.662   5.421   4.912  2.7657 -3.2022  0.8405
 3944TIP3    H211797   3.773   5.508   4.967  1.6795 -0.4750 -1.0134
 3945TIP3   OH211798   2.423   1.741   3.433  0.0433  0.1127  0.5475
 3945TIP3    H111799   2.468   1.676   3.379 -0.7442  0.7044 -0.8720
 3945TIP3    H211800   2.439   1.824   3.389 -3.0486  0.2637 -0.5508
 3946TIP3   OH211801   6.477   0.684   1.735 -0.0168 -0.3515  0.1858
 3946TIP3    H111802   6.514   0.772   1.724  0.1456 -0.4805 -0.3486
 3946TIP3    H211803   6.469   0.673   1.830  1.3097 -0.3058  0.3336
 3947TIP3   OH211804   6.306   0.231   1.691  0.2808  0.8720  0.0066
 3947TIP3    H111805   6.305   0.137   1.711 -1.6130  1.1795  1.7167
 3947TIP3    H211806   6.375   0.266   1.747 -1.0650  0.8700  1.7734
 3948TIP3   OH211807   5.815   3.081   2.085  0.7520 -0.1377 -0.0366
 3948TIP3    H111808   5.799   3.048   1.997  1.1201 -0.2271 -0.0690
 3948TIP3    H211809   5.909   3.071   2.099  0.4073 -2.3514  1.2365
 3949TIP3   OH211810   2.228   2.315   3.112  0.2694  0.2134  0.0952
 3949TIP3    H111811   2.143   2.290   3.150  0.0761  0.6402 -0.0548
 3949TIP3    H211812   2.292   2.291   3.179 -0.1040  1.3187  0.8732
 3950TIP3   OH211813   2.962   3.046   4.404 -0.0728 -0.4168 -0.3549
 3950TIP3    H111814   3.026   3.043   4.333  1.0765 -2.1161  0.6993
 3950TIP3    H211815   2.944   2.955   4.424 -0.0025 -0.0002  1.8587
 3951TIP3   OH211816   4.937   6.788   4.714  0.1707 -0.0153  0.2008
 3951TIP3    H111817   4.904   6.862   4.664 -0.9839 -0.7086 -0.1122
 3951TIP3    H211818   4.938   6.716   4.651  0.2538 -0.5147  0.7635
 3952TIP3   OH211819   5.529   3.063   3.492  0.2314 -0.4892  0.4456
 3952TIP3    H111820   5.540   3.142   3.440 -3.1007 -0.3767 -0.3161
 3952TIP3    H211821   5.497   2.998   3.430 -0.4259 -1.3955  1.6912
 3953TIP3   OH211822   3.798   1.565   3.339 -0.4794 -0.1243 -0.4715
 3953TIP3    H111823   3.799   1.630   3.269  1.5986  0.1460 -0.2689
 3953TIP3    H211824   3.875   1.510   3.322 -1.4182 -1.6863  0.1422
 3954TIP3   OH211825   5.119   2.261   3.522  0.1192 -0.3195  0.0575
 3954TIP3    H111826   5.103   2.290   3.432 -1.7010  1.1014  0.7780
 3954TIP3    H211827   5.182   2.324   3.557 -0.6588  0.3109  0.3495
 3955TIP3   OH211828   5.979   3.204   5.186 -0.4947  0.5341 -0.0912
 3955TIP3    H111829   6.050   3.237   5.240  0.4564 -0.9917 -0.3435
 3955TIP3    H211830   5.948   3.281   5.138  0.8503  1.2768  0.1768
 3956TIP3   OH211831   0.806   1.627   0.874 -0.3593 -0.4424  0.0363
 3956TIP3    H111832   0.826   1.713   0.911 -0.5491 -0.0080 -0.8374
 3956TIP3    H211833   0.883   1.606   0.821 -0.9972 -0.0415 -1.0860
 3957TIP3   OH211834   6.146   0.763   0.117 -0.5040  0.1580 -0.2599
 3957TIP3    H111835   6.134   0.722   0.031  1.7470 -0.4348 -0.3654
 3957TIP3    H211836   6.144   0.691   0.179  0.8190  0.1745 -0.1646
 3958TIP3   OH211837   3.006   3.669   1.628  0.4193  0.3167 -0.4408
 3958TIP3    H111838   2.969   3.587   1.660 -0.3852  0.4434 -0.9881
 3958TIP3    H211839   3.067   3.697   1.696  0.8541 -0.8291 -0.3413
 3959TIP3   OH211840   4.988   4.340   3.961  0.5799  0.2916 -0.2555
 3959TIP3    H111841   4.957   4.257   3.998  1.4829  0.9183  2.1392
 3959TIP3    H211842   5.038   4.315   3.884 -1.6900 -1.0951 -1.4004
 3960TIP3   OH211843   0.813   6.555   1.367 -0.2385 -0.0367 -0.0551
 3960TIP3    H111844   0.848   6.472   1.401  0.6906  0.3699 -0.0005
 3960TIP3    H211845   0.764   6.530   1.288 -0.1913 -0.6631  0.1098
 3961TIP3   OH211846   2.989   5.217   1.506  0.3806  0.1343  0.1024
 3961TIP3    H111847   3.023   5.306   1.508  0.8200 -0.0267  2.2334
 3961TIP3    H211848   3.065   5.162   1.486 -0.0704  0.2494 -2.1867
 3962TIP3   OH211849   7.088   6.801   5.364  0.3780  0.1787  0.1186
 3962TIP3    H111850   7.153   6.855   5.410 -0.2518  1.5515 -0.5360
 3962TIP3    H211851   7.115   6.711   5.381  1.4227  0.6905  1.3295
 3963TIP3   OH211852   2.956   4.342   2.968  0.1102  0.3331 -0.0412
 3963TIP3    H111853   2.862   4.338   2.948 -0.0202 -2.4382  0.7793
 3963TIP3    H211854   2.999   4.343   2.883 -0.6349 -0.4340 -0.4442
 3964TIP3   OH211855   5.087   1.813   0.335  0.0152 -0.2654  0.1618
 3964TIP3    H111856   5.151   1.766   0.388 -1.1345 -2.6708 -0.4463
 3964TIP3    H211857   5.108   1.789   0.245  0.0250  1.2479 -0.2536
 3965TIP3   OH211858   4.910   0.114   1.964 -0.2357  0.3333 -0.4755
 3965TIP3    H111859   4.974   0.167   1.916 -0.1870  0.3590 -0.3838
 3965TIP3    H211860   4.825   0.145   1.934 -0.3241  2.4365  1.5721
 3966TIP3   OH211861   3.270   4.527   4.353  0.0438 -0.0551 -0.0958
 3966TIP3    H111862   3.338   4.501   4.292  1.1854 -0.5678  1.3496
 3966TIP3    H211863   3.196   4.469   4.333  0.0143  0.4713 -1.6373
 3967TIP3   OH211864   2.383   5.434   4.500  0.3382  0.5618 -0.3277
 3967TIP3    H111865   2.332   5.356   4.524  1.3916  0.1208  0.6089
 3967TIP3    H211866   2.319   5.505   4.497 -0.5344 -0.2183 -0.5072
 3968TIP3   OH211867   4.346   0.081   1.313  0.1355 -0.5953 -0.0556
 3968TIP3    H111868   4.306   0.010   1.364 -0.4928  0.5183  1.0386
 3968TIP3    H211869   4.439   0.058   1.309 -0.1108 -1.6554 -0.0294
 3969TIP3   OH211870   2.699   0.731   2.624 -0.6265 -0.5518 -0.6656
 3969TIP3    H111871   2.794   0.733   2.635 -0.6217 -1.0325 -0.5828
 3969TIP3    H211872   2.667   0.680   2.699 -1.3932  3.4084  2.0054
 3970TIP3   OH211873   5.940   0.268   2.687  0.6205 -0.3314  0.3231
 3970TIP3    H111874   5.903   0.256   2.600  0.3766 -0.7860  0.4844
 3970TIP3    H211875   5.865   0.275   2.745  0.7819  0.1670  0.4728
 3971TIP3   OH211876   2.160   2.096   5.728  0.6834 -0.1585 -0.0706
 3971TIP3    H111877   2.166   2.028   5.661  1.7736 -0.6033  0.4621
 3971TIP3    H211878   2.223   2.163   5.700  0.4749  0.0837  0.0334
 3972TIP3   OH211879   6.050   4.626   4.797  0.6807 -0.3318  0.0044
 3972TIP3    H111880   6.112   4.645   4.868 -1.5479  1.9992  1.5298
 3972TIP3    H211881   6.064   4.696   4.734  0.2776 -0.3578 -0.1153
 3973TIP3   OH211882   2.623   4.135   3.701 -0.4849 -0.4823 -0.1286
 3973TIP3    H111883   2.718   4.134   3.685 -0.6807  0.8365 -1.6943
 3973TIP3    H211884   2.613   4.183   3.783  0.1965 -0.3316 -0.1236
 3974TIP3   OH211885   0.533   3.261   4.907 -0.4069  0.4347  0.0675
 3974TIP3    H111886   0.561   3.205   4.835  1.1049  0.1323  0.8716
 3974TIP3    H211887   0.448   3.295   4.878 -0.1865 -0.2710 -1.5209
 3975TIP3   OH211888   4.837   2.001   0.396  0.2194  0.1480  0.2399
 3975TIP3    H111889   4.865   1.925   0.344  2.4337 -0.1834  1.7716
 3975TIP3    H211890   4.888   2.074   0.361 -0.6970  0.6090 -0.1543
 3976TIP3   OH211891   5.307   5.763   3.495  0.1340 -0.2886 -0.3002
 3976TIP3    H111892   5.379   5.705   3.520  0.8690  1.1005  0.9733
 3976TIP3    H211893   5.324   5.845   3.542 -2.6361 -0.1206  0.6105
 3977TIP3   OH211894   3.213   0.982   3.165 -0.4542 -0.5517 -0.3178
 3977TIP3    H111895   3.272   1.057   3.179  1.2643 -2.3294  3.2604
 3977TIP3    H211896   3.226   0.959   3.073 -0.3787  2.8820 -1.3164
 3978TIP3   OH211897   1.290   0.476   4.187 -0.1080 -0.4232  0.3840
 3978TIP3    H111898   1.240   0.422   4.248 -0.7082  0.0927  0.3608
 3978TIP3    H211899   1.233   0.485   4.111 -0.1850  0.5532  0.5401
 3979TIP3   OH211900   1.113   0.568   3.942  0.2917  0.1034 -0.0833
 3979TIP3    H111901   1.038   0.516   3.911 -0.4578  0.8586  0.4364
 3979TIP3    H211902   1.121   0.639   3.878 -1.7954  2.1681  1.7625
 3980TIP3   OH211903   4.433   2.719   3.817  0.5481 -0.4169 -0.1570
 3980TIP3    H111904   4.498   2.690   3.753 -0.5799 -1.9214 -0.7005
 3980TIP3    H211905   4.481   2.723   3.900  1.3315 -1.6164 -0.5154
 3981TIP3   OH211906   6.964   1.560   3.759  0.5126  0.1013 -0.3760
 3981TIP3    H111907   6.951   1.509   3.838 -2.0517  0.5103 -0.4478
 3981TIP3    H211908   7.052   1.538   3.730  0.5605 -2.0192  1.1730
 3982TIP3   OH211909   3.631   3.124   4.575  0.0574 -0.0640 -0.4343
 3982TIP3    H111910   3.646   3.167   4.491  0.2558  0.9819  0.1218
 3982TIP3    H211911   3.539   3.096   4.572 -0.6406  2.0289 -0.1104
 3983TIP3   OH211912   0.607   1.105   3.584  0.1628 -0.2139  0.2686
 3983TIP3    H111913   0.642   1.128   3.670 -0.1925 -1.6471  0.8177
 3983TIP3    H211914   0.518   1.073   3.601  0.4213 -1.4214 -0.4899
 3984TIP3   OH211915   1.969   2.931   1.191  0.0791  0.1090  0.6433
 3984TIP3    H111916   2.029   2.928   1.266  1.5283 -1.8129 -0.4810
 3984TIP3    H211917   1.900   2.869   1.213 -0.2254  0.5511  0.9431
 3985TIP3   OH211918   5.073   6.508   2.109  0.0278 -0.0292 -0.2536
 3985TIP3    H111919   5.050   6.485   2.018  1.4660 -0.6666 -0.4885
 3985TIP3    H211920   5.163   6.540   2.103  0.2852 -0.4663  1.0038
 3986TIP3   OH211921   0.899   5.450   3.619  0.2903 -0.5965  0.1600
 3986TIP3    H111922   0.943   5.529   3.650 -0.5161 -0.1069  0.0845
 3986TIP3    H211923   0.857   5.476   3.537 -2.0569 -0.3814  1.3416
 3987TIP3   OH211924   0.177   0.262   0.143  0.6819  0.3146  0.7146
 3987TIP3    H111925   0.186   0.315   0.064 -0.8040 -1.1922 -0.5580
 3987TIP3    H211926   0.191   0.323   0.215 -0.4846  2.3270 -0.6628
 3988TIP3   OH211927   5.540   3.677   3.391  0.3034  0.0891 -0.2591
 3988TIP3    H111928   5.630   3.648   3.383  0.0360 -0.5715 -0.9637
 3988TIP3    H211929   5.520   3.668   3.484  0.9182  0.1231 -0.1217
 3989TIP3   OH211930   3.092   1.511   1.005 -0.6136 -0.1329  0.3381
 3989TIP3    H111931   3.162   1.477   0.950  0.6172  1.8295  0.6194
 3989TIP3    H211932   3.035   1.435   1.020  1.1309 -1.6519 -0.3305
 3990TIP3   OH211933   0.590   4.373   4.874  0.1045 -0.2435  0.4298
 3990TIP3    H111934   0.514   4.365   4.932 -1.6452  2.3723 -1.3007
 3990TIP3    H211935   0.628   4.458   4.896  2.2389 -1.2352  0.8181
 3991TIP3   OH211936   3.821   1.472   1.237 -0.4641  0.1404  0.5160
 3991TIP3    H111937   3.760   1.484   1.310  0.6237 -2.3105  1.9680
 3991TIP3    H211938   3.785   1.399   1.187 -0.9233  1.4582 -1.1953
 3992TIP3   OH211939   0.700   3.400   4.222 -0.2614 -0.2995 -0.7716
 3992TIP3    H111940   0.696   3.439   4.135  0.5851  0.9122 -0.3022
 3992TIP3    H211941   0.771   3.448   4.266 -1.0100 -0.5245  0.7486
 3993TIP3   OH211942  -0.008   1.219   0.052 -0.4404  0.3364  0.4172
 3993TIP3    H111943   0.014   1.234  -0.040 -1.2768 -1.3144 -0.0880
 3993TIP3    H211944   0.052   1.150   0.080  1.2110  2.2283  1.7536
 3994TIP3   OH211945   0.307   2.861   1.986  0.8144 -0.0215  0.5055
 3994TIP3    H111946   0.320   2.947   1.945 -3.4154  0.9925  0.8765
 3994TIP3    H211947   0.313   2.878   2.080  1.7273 -0.5444  0.5528
 3995TIP3   OH211948   2.413   4.449   3.261 -0.6894 -0.4159 -0.0089
 3995TIP3    H111949   2.416   4.541   3.288 -0.4909 -0.5508  0.4445
 3995TIP3    H211950   2.503   4.419   3.270 -0.5092 -0.3198 -1.3747
 3996TIP3   OH211951   0.335   3.574   1.194  0.2995 -0.5024 -0.6780
 3996TIP3    H111952   0.428   3.554   1.177  0.4837 -0.0702 -0.2065
 3996TIP3    H211953   0.333   3.599   1.286 -0.2815 -0.4394 -0.7074
 3997TIP3   OH211954   0.753  -0.028   0.256  0.5181 -0.1353 -0.4571
 3997TIP3    H111955   0.828   0.029   0.272  0.0400  0.1807  0.7587
 3997TIP3    H211956   0.678   0.022   0.286 -0.4266  0.2255 -3.1336
 3998TIP3   OH211957   1.210   3.729   1.396 -0.3161  0.4536 -0.2859
 3998TIP3    H111958   1.201   3.800   1.333  0.1224  0.7941  0.0290
 3998TIP3    H211959   1.139   3.742   1.459 -1.3892 -0.4699 -1.2462
 3999TIP3   OH211960   6.307   6.046   0.272 -0.6488 -0.6467 -0.7136
 3999TIP3    H111961   6.318   6.141   0.274  0.4363 -0.7799  0.5422
 3999TIP3    H211962   6.388   6.013   0.234  0.2578 -1.2066  1.5404
 4000TIP3   OH211963   0.458   4.013   4.424  0.0521  0.0857  0.7432
 4000TIP3    H111964   0.540   4.045   4.461  0.7927 -0.8705 -0.0515
 4000TIP3    H211965   0.462   4.037   4.331  0.0567 -1.1714  0.4084
 4001TIP3   OH211966   0.818   6.190   2.364 -0.1504  0.3158 -0.7695
 4001TIP3    H111967   0.895   6.228   2.322  0.6407 -0.3979 -0.0100
 4001TIP3    H211968   0.804   6.107   2.319  1.1359 -0.7982  0.7585
 4002TIP3   OH211969   3.735   6.511   0.680  0.3003  0.1464  0.2135
 4002TIP3    H111970   3.786   6.589   0.703 -1.6827  1.5908 -0.0372
 4002TIP3    H211971   3.799   6.453   0.638  1.5617  2.2584 -0.9868
 4003TIP3   OH211972   6.275   4.715   4.520  0.7508  0.7047 -0.1787
 4003TIP3    H111973   6.255   4.627   4.551  1.4414  0.9861  1.1788
 4003TIP3    H211974   6.333   4.702   4.445  0.1566  0.0067 -0.5259
 4004TIP3   OH211975   1.042   2.883   4.356 -1.1756 -0.1539  0.1680
 4004TIP3    H111976   0.994   2.814   4.309  0.0141 -0.5792 -0.4482
 4004TIP3    H211977   1.053   2.848   4.444 -0.1574 -0.9798 -0.2712
 4005TIP3   OH211978   3.324   2.008   5.368 -0.1859 -0.2227 -0.5703
 4005TIP3    H111979   3.382   2.003   5.444 -0.9029  0.7418  0.0647
 4005TIP3    H211980   3.355   1.939   5.310  1.3590  0.0361 -0.0997
 4006TIP3   OH211981   4.789   0.516   5.620 -0.5733 -0.1107  0.2460
 4006TIP3    H111982   4.865   0.513   5.679 -0.7048  2.7611  0.7055
 4006TIP3    H211983   4.718   0.550   5.674 -1.9262 -1.6015 -0.4974
 4007TIP3   OH211984   2.408   5.751   0.157 -0.2154  0.2456 -0.3099
 4007TIP3    H111985   2.328   5.735   0.206  0.0477 -1.5755 -0.4296
 4007TIP3    H211986   2.464   5.800   0.217  0.0368 -1.8004  1.2047
 4008TIP3   OH211987   1.446   3.620   4.081  0.1045  0.2678 -0.6774
 4008TIP3    H111988   1.393   3.601   4.003  0.6864 -0.8070 -0.8291
 4008TIP3    H211989   1.535   3.631   4.047  0.2312  0.5472 -0.2531
 4009TIP3   OH211990   1.337   2.969   2.088 -0.2605 -0.0414 -0.3829
 4009TIP3    H111991   1.277   3.040   2.062  0.2793  0.5696  0.0103
 4009TIP3    H211992   1.414   3.015   2.121 -0.5557 -0.8055  1.4386
 4010TIP3   OH211993   5.851   0.603   0.213  0.5834 -0.2785 -0.1506
 4010TIP3    H111994   5.893   0.620   0.129  0.7130  0.1447  0.0001
 4010TIP3    H211995   5.772   0.554   0.190  0.2237  0.4912 -0.5826
 4011TIP3   OH211996   6.033   0.083   5.820  1.1927  0.2693 -0.0141
 4011TIP3    H111997   5.940   0.099   5.805  1.3117  1.0166  0.0031
 4011TIP3    H211998   6.051   0.001   5.774  0.5597  0.1919 -0.1332
 4012TIP3   OH211999   2.192   6.143   0.584  0.4217  0.3214 -0.0549
 4012TIP3    H112000   2.135   6.069   0.563  1.3573 -0.3115 -0.4389
 4012TIP3    H212001   2.138   6.220   0.566 -0.4386 -0.2606 -0.0345
 4013TIP3   OH212002   3.534   1.875   4.614 -0.0282 -0.0284 -0.1702
 4013TIP3    H112003   3.482   1.944   4.656 -0.1871 -0.0960 -0.2566
 4013TIP3    H212004   3.583   1.835   4.686  1.0551  1.0232 -0.2897
 4014TIP3   OH212005   4.964   3.800   3.163 -0.0786 -0.0284  0.0888
 4014TIP3    H112006   4.896   3.767   3.222 -0.5900  1.1951  0.2240
 4014TIP3    H212007   4.929   3.883   3.131  1.6903  1.0117  0.7534
 4015TIP3   OH212008   0.138   1.364   2.384 -0.3245 -0.1196 -0.2507
 4015TIP3    H112009   0.199   1.294   2.409  1.2493  0.8114 -1.3261
 4015TIP3    H212010   0.109   1.340   2.296 -2.3039 -1.0207  0.5707
 4016TIP3   OH212011   2.705   0.717   1.030 -0.1500  0.0615 -0.2894
 4016TIP3    H112012   2.735   0.635   1.069  1.1794  0.9932  0.7703
 4016TIP3    H212013   2.751   0.723   0.947 -0.2413 -0.2705 -0.3619
 4017TIP3   OH212014   6.266   2.914   5.115  0.3650 -0.3567  0.5388
 4017TIP3    H112015   6.289   3.006   5.131  0.1314 -0.2673  0.3705
 4017TIP3    H212016   6.181   2.903   5.159 -0.8250  0.1913 -1.5061
 4018TIP3   OH212017   2.582   4.180   1.430  0.4543 -0.5748  0.9562
 4018TIP3    H112018   2.613   4.210   1.515  2.3830 -0.8454  0.3885
 4018TIP3    H212019   2.554   4.259   1.385  2.2446 -0.0237  0.7522
 4019TIP3   OH212020   4.588   0.054   3.997  0.2122  0.5259 -0.2439
 4019TIP3    H112021   4.612   0.046   4.090 -1.3592 -0.4831  0.1282
 4019TIP3    H212022   4.638  -0.015   3.954 -0.3549 -0.1442  0.1520
 4020TIP3   OH212023   0.577   5.604   2.143  0.4572  0.2756  0.4746
 4020TIP3    H112024   0.617   5.584   2.058 -1.8943 -1.1961 -0.3880
 4020TIP3    H212025   0.575   5.700   2.146  2.6192  0.3936 -0.0657
 4021TIP3   OH212026   4.824   1.761   0.863  0.7707  0.5558 -0.3369
 4021TIP3    H112027   4.872   1.824   0.918  2.6653 -1.0522 -0.0341
 4021TIP3    H212028   4.888   1.732   0.798 -0.1677 -0.7834 -0.7067
 4022TIP3   OH212029   3.474   3.872   3.781 -0.2755 -0.2092 -0.0106
 4022TIP3    H112030   3.568   3.881   3.791 -0.0730 -0.4768 -1.3936
 4022TIP3    H212031   3.437   3.936   3.841  0.7427 -0.8411  1.3363
 4023TIP3   OH212032   0.597   0.133   0.407  0.2183 -0.1916 -0.2036
 4023TIP3    H112033   0.633   0.087   0.483  1.1119  0.3724 -0.2561
 4023TIP3    H212034   0.515   0.170   0.438 -0.8637 -2.3305 -0.3529
 4024TIP3   OH212035   3.248   5.791   1.025  0.4726  0.4389  0.0107
 4024TIP3    H112036   3.186   5.791   0.952 -0.7163 -0.6168  0.9726
 4024TIP3    H212037   3.304   5.867   1.009 -0.2269  0.6521 -1.5994
 4025TIP3   OH212038   0.182   0.417   5.821 -0.4552  0.0803 -0.0940
 4025TIP3    H112039   0.229   0.484   5.870  1.2363 -0.6718 -0.6278
 4025TIP3    H212040   0.127   0.374   5.886  0.4443  0.2489  0.7995
 4026TIP3   OH212041   3.151   5.082   5.838  0.3058  0.1874 -0.1699
 4026TIP3    H112042   3.232   5.054   5.881 -0.3674 -0.8402  0.4829
 4026TIP3    H212043   3.179   5.148   5.775  1.5029  0.7747  0.9167
 4027TIP3   OH212044   5.704   6.528   2.988 -0.7588  0.4702 -0.0354
 4027TIP3    H112045   5.634   6.574   3.034 -1.3601 -0.1446 -0.3137
 4027TIP3    H212046   5.718   6.579   2.909 -1.5258  0.1183 -0.4138
 4028TIP3   OH212047   2.540   3.041   4.157  0.0974 -0.3753  0.0221
 4028TIP3    H112048   2.535   3.029   4.063 -0.6414  3.0585 -0.5142
 4028TIP3    H212049   2.621   3.091   4.171 -0.4857  0.3393  0.9991
 4029TIP3   OH212050   3.963   5.026   3.113 -0.1733  0.1974  0.0852
 4029TIP3    H112051   3.917   5.029   3.029  0.2385  1.8234 -0.1203
 4029TIP3    H212052   3.895   5.045   3.178 -0.0731  1.2679 -0.1036
 4030TIP3   OH212053   6.939   4.638   4.726 -0.1625  0.1652  0.2684
 4030TIP3    H112054   6.924   4.660   4.818  0.0195  0.5882  0.2004
 4030TIP3    H212055   6.980   4.717   4.689 -3.7127  1.5757 -1.1051
 4031TIP3   OH212056   4.418   4.935   1.525 -0.3651 -0.1902 -0.3348
 4031TIP3    H112057   4.348   4.973   1.473 -0.1442  1.5402  0.5689
 4031TIP3    H212058   4.373   4.890   1.597 -0.5554  0.8984  0.2330
 4032TIP3   OH212059   3.753   0.055   0.080  0.2268  0.2015 -0.0873
 4032TIP3    H112060   3.696  -0.011   0.040  0.8405  0.7459 -1.9760
 4032TIP3    H212061   3.705   0.137   0.070 -0.5072  0.1161  2.1966
 4033TIP3   OH212062   4.770   0.658   4.206  0.0587  0.3531  0.0704
 4033TIP3    H112063   4.808   0.597   4.142  1.6589  0.4943  0.8474
 4033TIP3    H212064   4.711   0.713   4.154 -0.1926 -0.8211 -0.9206
 4034TIP3   OH212065   3.490   4.611   4.847 -0.3877  0.0015  0.0470
 4034TIP3    H112066   3.426   4.574   4.786 -0.5192  0.5236 -0.1370
 4034TIP3    H212067   3.522   4.536   4.897 -2.7505 -0.0465  1.6806
 4035TIP3   OH212068   2.625   2.535   0.876  0.1971 -0.1322  0.1850
 4035TIP3    H112069   2.663   2.455   0.840  1.2744  0.1549  0.6543
 4035TIP3    H212070   2.700   2.589   0.900 -0.5135  1.0722 -0.2107
 4036TIP3   OH212071   1.920   6.033   3.738  0.2522 -0.3401 -0.5480
 4036TIP3    H112072   1.998   6.082   3.765 -0.1487  0.8460 -1.4749
 4036TIP3    H212073   1.851   6.099   3.729 -1.0873 -1.4623  0.9551
 4037TIP3   OH212074   2.456   4.662   5.312 -0.3066  0.2967 -0.0753
 4037TIP3    H112075   2.523   4.673   5.245 -0.9089  0.0546 -0.7258
 4037TIP3    H212076   2.489   4.590   5.367  0.4167  0.8158  0.1897
 4038TIP3   OH212077   4.875   6.432   3.144  0.8380  0.1496 -0.4550
 4038TIP3    H112078   4.859   6.523   3.169 -0.5767  0.1241 -1.1560
 4038TIP3    H212079   4.804   6.411   3.083  1.8382 -1.0489 -1.2599
 4039TIP3   OH212080   1.467   1.686   3.251  0.2927  0.5358 -0.1654
 4039TIP3    H112081   1.451   1.759   3.310 -0.3366  0.7950 -0.6421
 4039TIP3    H212082   1.562   1.681   3.244  0.4642 -0.4487  2.0103
 4040TIP3   OH212083   7.131   5.417   2.361 -0.5277  0.1894 -0.6504
 4040TIP3    H112084   7.148   5.335   2.314  0.3473 -1.1240  1.7541
 4040TIP3    H212085   7.039   5.411   2.387 -0.3011 -0.4036  0.0792
 4041TIP3   OH212086   3.971   4.465   1.954  0.7908  0.1038  0.1449
 4041TIP3    H112087   3.901   4.507   2.005  1.4085 -0.7754  1.7972
 4041TIP3    H212088   4.050   4.513   1.978  0.7721  1.3812 -2.0540
 4042TIP3   OH212089   0.164   5.987   3.209 -0.7798  0.3070  0.5801
 4042TIP3    H112090   0.238   5.927   3.217 -1.0218 -0.2204 -0.8710
 4042TIP3    H212091   0.148   6.017   3.299 -0.2734 -1.3344  1.2546
 4043TIP3   OH212092   6.878   4.001   2.822  0.4641  0.5031  0.3667
 4043TIP3    H112093   6.784   4.003   2.803  0.9319 -0.2430 -2.6623
 4043TIP3    H212094   6.885   3.948   2.901 -1.5718 -1.5011 -0.6644
 4044TIP3   OH212095   1.154   0.890   4.071  0.5444  0.8141  0.0097
 4044TIP3    H112096   1.226   0.840   4.032  0.4372  1.2835 -0.8364
 4044TIP3    H212097   1.102   0.919   3.995 -0.4509  0.6080  0.5977
 4045TIP3   OH212098   5.768   5.137   1.117 -0.5372  0.2059 -1.0508
 4045TIP3    H112099   5.717   5.192   1.176 -0.9305  0.6646 -1.7987
 4045TIP3    H212100   5.853   5.181   1.111 -0.3244 -0.1154 -0.4426
 4046TIP3   OH212101   0.648   2.791   5.306  0.2805  0.3896  0.4824
 4046TIP3    H112102   0.557   2.823   5.305  0.6133  1.4340  1.3454
 4046TIP3    H212103   0.691   2.840   5.236  0.0122 -0.7007 -0.4747
 4047TIP3   OH212104   6.221   4.617   2.254  0.4176 -0.3482  0.0818
 4047TIP3    H112105   6.205   4.523   2.262 -2.2423 -0.1779 -1.6701
 4047TIP3    H212106   6.291   4.625   2.189  0.5420 -1.1219  0.1189
 4048TIP3   OH212107   2.233   5.338   5.248 -0.1044  0.3201 -0.4870
 4048TIP3    H112108   2.231   5.319   5.342  0.9606  0.6825 -0.3751
 4048TIP3    H212109   2.278   5.263   5.209 -1.5638 -0.3927 -0.8833
 4049TIP3   OH212110   0.728   3.744   1.767 -0.0716 -0.0121 -0.1542
 4049TIP3    H112111   0.661   3.808   1.792  0.3170  0.5170 -0.4573
 4049TIP3    H212112   0.768   3.718   1.849 -1.2499 -1.0218  0.1378
 4050TIP3   OH212113   7.223   5.664   5.789 -0.0284  0.7174 -0.0348
 4050TIP3    H112114   7.228   5.741   5.845 -0.1137  1.8602 -1.5279
 4050TIP3    H212115   7.163   5.689   5.719 -1.6008 -1.4200  0.4689
 4051TIP3   OH212116   1.862   0.420   0.100 -0.0393 -0.2185 -0.3471
 4051TIP3    H112117   1.867   0.454   0.011  3.2497  0.7011  0.0431
 4051TIP3    H212118   1.936   0.359   0.107  0.0165  0.0074  1.8529
 4052TIP3   OH212119   5.712   1.601   0.669  0.6757 -0.0684  0.3743
 4052TIP3    H112120   5.707   1.680   0.723  0.1391 -0.5035  0.9815
 4052TIP3    H212121   5.732   1.531   0.730 -0.8762 -0.7224  0.1838
 4053TIP3   OH212122  -0.017   6.520   3.381 -0.1032  1.3659  0.0539
 4053TIP3    H112123   0.078   6.518   3.392 -0.0947  1.1565 -0.0568
 4053TIP3    H212124  -0.045   6.430   3.397 -0.4189  1.6628  1.2742
 4054TIP3   OH212125   3.838   5.873   0.164  0.3341  0.1152 -0.7150
 4054TIP3    H112126   3.906   5.872   0.232 -0.1541 -1.3270 -0.2068
 4054TIP3    H212127   3.883   5.844   0.085  0.2327 -1.4637 -0.2421
 4055TIP3   OH212128   3.480   3.718   2.475  0.0674 -0.2381  0.6470
 4055TIP3    H112129   3.447   3.805   2.499 -1.1000 -0.3348 -0.4526
 4055TIP3    H212130   3.561   3.734   2.428 -0.3810  0.3189  0.0397
 4056TIP3   OH212131   2.308   3.069   5.830  0.5806  0.6316  0.0126
 4056TIP3    H112132   2.283   3.060   5.738  1.1849 -0.9885 -0.0385
 4056TIP3    H212133   2.316   2.978   5.861 -0.6711  1.1267  1.9746
 4057TIP3   OH212134   0.822   0.293   3.596  0.2926 -0.2033 -0.3994
 4057TIP3    H112135   0.733   0.288   3.562  0.7617  2.1254 -2.3079
 4057TIP3    H212136   0.873   0.238   3.536  0.5655  1.0704 -1.4037
 4058TIP3   OH212137   4.514   5.627   5.521  0.4985  0.1948 -0.1869
 4058TIP3    H112138   4.468   5.706   5.550  0.3940 -0.1604  0.6492
 4058TIP3    H212139   4.540   5.583   5.602 -0.2539 -1.0974 -0.6029
 4059TIP3   OH212140   5.205   6.462   4.193  0.8435 -0.1890  0.1534
 4059TIP3    H112141   5.232   6.418   4.113 -0.0548  1.0507 -0.8710
 4059TIP3    H212142   5.281   6.455   4.251  1.1174 -2.0475 -0.3707
 4060TIP3   OH212143   3.622   5.161   5.135 -0.4611 -0.6562  0.0984
 4060TIP3    H112144   3.603   5.174   5.042  0.0510 -0.6619 -0.0130
 4060TIP3    H212145   3.538   5.139   5.175 -0.6743 -0.7006 -0.3726
 4061TIP3   OH212146   4.709   2.825   0.546  0.2098  0.2657 -0.1182
 4061TIP3    H112147   4.738   2.755   0.605  1.3591  2.0354  1.5422
 4061TIP3    H212148   4.770   2.819   0.472 -1.4565 -2.1931 -1.4553
 4062TIP3   OH212149   1.655   3.728   0.981  0.3109 -0.3311 -0.7716
 4062TIP3    H112150   1.622   3.775   0.905  2.6858 -1.1158 -2.3676
 4062TIP3    H212151   1.705   3.793   1.030  1.4993 -0.5609 -1.6482
 4063TIP3   OH212152   1.932   4.282   0.294  0.4662 -0.2752  0.3340
 4063TIP3    H112153   1.857   4.225   0.309  0.9470 -0.8951  0.4695
 4063TIP3    H212154   2.008   4.228   0.318  0.9176  0.5263  0.7625
 4064TIP3   OH212155   4.570   0.527   4.378 -0.0686  0.8386 -0.2602
 4064TIP3    H112156   4.549   0.619   4.392  0.1269  0.4383  4.3784
 4064TIP3    H212157   4.486   0.482   4.381  0.0120  0.6931 -0.1719
 4065TIP3   OH212158   3.026   1.304   0.781 -0.2717  0.2694  0.0615
 4065TIP3    H112159   2.969   1.381   0.787  1.8055  1.8363  0.8154
 4065TIP3    H212160   3.066   1.311   0.695  1.0062  0.8936  0.6794
 4066TIP3   OH212161   0.928   3.629   5.058 -0.4833 -0.0387 -0.2016
 4066TIP3    H112162   0.838   3.621   5.090 -0.7598 -0.4634 -1.0571
 4066TIP3    H212163   0.978   3.569   5.114 -0.8564 -0.3439 -0.1908
 4067TIP3   OH212164   5.560   2.879   1.003  0.1058  0.1915  0.2240
 4067TIP3    H112165   5.505   2.892   1.080  0.1930 -0.5767  0.4298
 4067TIP3    H212166   5.546   2.787   0.979 -2.2479  1.0968 -2.4919
 4068TIP3   OH212167   1.461   1.298   2.631 -0.8861 -0.0193 -0.0040
 4068TIP3    H112168   1.494   1.334   2.713  0.0813 -1.5254  0.3115
 4068TIP3    H212169   1.433   1.209   2.654 -1.2862 -0.2104 -1.1632
 4069TIP3   OH212170   5.545   0.957   1.608 -0.3812 -0.2943 -0.4950
 4069TIP3    H112171   5.586   0.986   1.690  0.1041  0.1125 -0.8797
 4069TIP3    H212172   5.473   1.020   1.595 -0.2833 -0.1904 -0.5317
 4070TIP3   OH212173   4.086   0.451   3.288 -0.5368 -0.2845  0.3694
 4070TIP3    H112174   4.019   0.512   3.259  0.3614  0.4739 -0.1588
 4070TIP3    H212175   4.081   0.379   3.225 -0.2671  0.1888 -0.2037
 4071TIP3   OH212176   4.399   4.479   3.365 -0.1621 -0.1790  0.8030
 4071TIP3    H112177   4.445   4.395   3.366 -1.2356 -0.7946  0.1619
 4071TIP3    H212178   4.315   4.460   3.323  0.0720  1.4863 -0.5207
 4072TIP3   OH212179   2.576   5.850   3.124 -0.3196 -0.6927 -0.1901
 4072TIP3    H112180   2.662   5.809   3.126  0.5796  1.1180  2.3156
 4072TIP3    H212181   2.516   5.782   3.155  0.8177 -0.8120  1.8631
 4073TIP3   OH212182   4.708   1.650   3.481  0.4867  0.1387  0.0416
 4073TIP3    H112183   4.723   1.565   3.522  0.1650 -0.0117 -0.1447
 4073TIP3    H212184   4.795   1.689   3.473  1.1924 -1.7355 -3.2559
 4074TIP3   OH212185   5.452   5.722   0.523  0.6804 -0.5441 -0.0057
 4074TIP3    H112186   5.385   5.721   0.455  0.2468  1.2435  0.3264
 4074TIP3    H212187   5.460   5.631   0.551 -1.1633 -0.9021 -0.5035
 4075TIP3   OH212188   1.531   4.416   5.452 -0.3204 -0.6439  0.1762
 4075TIP3    H112189   1.595   4.454   5.512 -0.6425  0.1126  0.0558
 4075TIP3    H212190   1.583   4.379   5.382 -0.0198  0.6458 -0.3169
 4076TIP3   OH212191   3.532   4.220   1.423  0.4387  0.1543  0.4186
 4076TIP3    H112192   3.561   4.226   1.513 -0.2142 -0.4302  0.6731
 4076TIP3    H212193   3.555   4.305   1.385 -0.0490  0.7226  1.3669
 4077TIP3   OH212194   6.692   6.513   0.091 -0.6448 -0.3970 -0.2836
 4077TIP3    H112195   6.667   6.422   0.076 -2.1378  0.3897 -3.5120
 4077TIP3    H212196   6.621   6.548   0.146 -2.1680 -0.3456 -2.1699
 4078TIP3   OH212197   0.927   1.557   2.715  0.1926 -0.5361 -0.1408
 4078TIP3    H112198   0.943   1.505   2.637  0.2430 -0.1941 -0.3621
 4078TIP3    H212199   1.008   1.551   2.765  0.8522  0.7457 -0.9998
 4079TIP3   OH212200   3.041   0.422   0.113  0.1274  0.5450 -0.0811
 4079TIP3    H112201   2.982   0.460   0.048 -0.2169 -0.2063 -0.2132
 4079TIP3    H212202   3.064   0.336   0.078 -0.0880  0.1188  0.8025
 4080TIP3   OH212203   0.776   0.079   4.574  0.1668 -0.1838 -0.0725
 4080TIP3    H112204   0.754   0.157   4.625 -0.4418 -0.0371 -0.5491
 4080TIP3    H212205   0.862   0.052   4.606 -0.3763 -0.3304  1.3222
 4081TIP3   OH212206   3.983   6.789   4.619  0.1457  0.1134  0.2083
 4081TIP3    H112207   3.948   6.855   4.560  0.1089 -1.3606 -1.5082
 4081TIP3    H212208   3.926   6.713   4.607  1.6189 -1.0570  0.2260
 4082TIP3   OH212209   1.402   0.229   0.602 -0.1480  0.2055 -0.1460
 4082TIP3    H112210   1.407   0.287   0.526 -1.9512  4.8877  2.8727
 4082TIP3    H212211   1.479   0.251   0.654 -0.8226 -0.1935  1.0523
 4083TIP3   OH212212   7.005   1.951   3.232  0.1656  0.5000 -0.2462
 4083TIP3    H112213   7.028   1.887   3.299  0.2380  0.7890  0.0061
 4083TIP3    H212214   7.089   1.983   3.199  0.2426  2.7925  1.8396
 4084TIP3   OH212215   0.579   3.089   2.314 -1.1301  1.0302 -0.0469
 4084TIP3    H112216   0.639   3.137   2.370 -1.8501  1.2322  0.5683
 4084TIP3    H212217   0.614   2.999   2.312 -1.7926  0.6864  1.7903
 4085TIP3   OH212218   2.114   4.658   2.380  0.2856 -0.1270 -0.1659
 4085TIP3    H112219   2.060   4.583   2.355 -1.7126  0.9615  0.6104
 4085TIP3    H212220   2.204   4.630   2.364 -0.4760 -2.1518 -1.2362
 4086TIP3   OH212221   0.548   6.066   3.134 -0.7000  0.3604 -0.0256
 4086TIP3    H112222   0.468   6.094   3.088  0.5297  1.1596 -1.7804
 4086TIP3    H212223   0.571   5.983   3.092 -0.2574  0.4606  0.0146
 4087TIP3   OH212224   1.295   3.475   2.693  0.2684 -0.0283  0.2212
 4087TIP3    H112225   1.276   3.498   2.602 -0.9551 -1.2547  0.1427
 4087TIP3    H212226   1.253   3.545   2.744  1.6467  1.1130 -0.1365
 4088TIP3   OH212227   7.018   6.633   1.622  0.2511  1.0382  0.4656
 4088TIP3    H112228   7.092   6.573   1.609 -0.9564 -0.5925  0.8253
 4088TIP3    H212229   6.988   6.615   1.711 -1.0973  1.0414  0.0321
 4089TIP3   OH212230   6.242   0.906   1.858  0.6670 -0.0508 -0.3129
 4089TIP3    H112231   6.322   0.959   1.861 -0.2325  1.3780 -0.3256
 4089TIP3    H212232   6.259   0.833   1.917  1.2026  1.3822  1.3894
 4090TIP3   OH212233   6.538   5.856   2.258 -0.2986 -0.0381 -0.2858
 4090TIP3    H112234   6.617   5.858   2.312 -0.9494  0.1584  0.6848
 4090TIP3    H212235   6.551   5.781   2.199  0.9191  0.4386 -0.6365
 4091TIP3   OH212236   4.641   5.455   1.640  0.4354  0.1401  0.0654
 4091TIP3    H112237   4.614   5.375   1.596  0.2808  0.0964  0.2380
 4091TIP3    H212238   4.733   5.466   1.617  0.7353 -0.6279  0.8614
 4092TIP3   OH212239   4.810   6.630   2.151 -0.4066  0.4785 -0.2874
 4092TIP3    H112240   4.774   6.561   2.207  1.1254  0.4331  0.6801
 4092TIP3    H212241   4.894   6.595   2.120 -0.3747  1.2580 -1.1316
 4093TIP3   OH212242   6.514   6.672   4.621 -0.1775 -0.1193  0.1909
 4093TIP3    H112243   6.501   6.613   4.546 -0.7246 -0.0421  0.2192
 4093TIP3    H212244   6.542   6.615   4.692 -1.2602 -0.4456  0.3779
 4094TIP3   OH212245   1.327   2.730   5.265 -0.5486 -0.6789 -0.0425
 4094TIP3    H112246   1.288   2.776   5.191  0.9629  1.1384  0.2293
 4094TIP3    H212247   1.286   2.769   5.342  0.7159  0.2791  0.1873
 4095TIP3   OH212248   1.224   5.029   4.735 -0.1322 -0.1500  0.7240
 4095TIP3    H112249   1.291   5.085   4.773  0.2909 -0.7596  0.8861
 4095TIP3    H212250   1.145   5.047   4.786 -0.2870  1.0928  0.0815
 4096TIP3   OH212251   1.118   6.328   5.127 -0.4681  0.4201 -0.1675
 4096TIP3    H112252   1.072   6.294   5.203 -0.6703  1.0334 -0.0058
 4096TIP3    H212253   1.068   6.295   5.052  0.6162 -1.4620 -0.1126
 4097TIP3   OH212254   1.490   6.596   0.910 -0.4995  0.4150  0.7637
 4097TIP3    H112255   1.477   6.667   0.846 -1.0518 -0.4400 -0.1060
 4097TIP3    H212256   1.578   6.610   0.944 -0.6765  1.6431  0.7663
 4098TIP3   OH212257   2.052   3.507   5.039  0.1274  0.0431 -0.4028
 4098TIP3    H112258   2.055   3.491   4.945 -0.0581 -0.2404 -0.3601
 4098TIP3    H212259   2.140   3.540   5.060  0.5417 -0.9941 -0.4775
 4099TIP3   OH212260   0.578   6.553   3.404  0.3706  0.2819 -0.3455
 4099TIP3    H112261   0.565   6.496   3.327 -2.9190  0.4062 -0.0282
 4099TIP3    H212262   0.601   6.638   3.367  0.2014 -0.0042 -1.1380
 4100TIP3   OH212263   3.681   5.111   1.005  0.1158  0.1548 -0.3644
 4100TIP3    H112264   3.656   5.106   0.912  1.1933  0.1287 -0.6578
 4100TIP3    H212265   3.776   5.107   1.005  0.1193 -0.0988  0.7721
 4101TIP3   OH212266   4.402   1.403   1.222  0.1592 -0.2252 -0.0049
 4101TIP3    H112267   4.438   1.489   1.242  0.8680 -0.4745 -0.1746
 4101TIP3    H212268   4.311   1.420   1.198  0.0753  0.3862  0.7030
 4102TIP3   OH212269   4.792   6.210   1.550  0.4872  0.4919  0.2539
 4102TIP3    H112270   4.792   6.159   1.469 -1.3200 -0.8978  1.0889
 4102TIP3    H212271   4.751   6.293   1.526  1.9647  0.9955 -0.7187
 4103TIP3   OH212272   5.767   4.276   4.423 -0.1661  0.1497 -0.1942
 4103TIP3    H112273   5.732   4.198   4.468  0.0888 -0.4520 -1.0065
 4103TIP3    H212274   5.859   4.254   4.407  0.1023  0.9396  0.2326
 4104TIP3   OH212275   1.184   6.723   3.570 -0.1786  0.7928  0.1263
 4104TIP3    H112276   1.241   6.798   3.556 -0.4525  0.9700 -0.0802
 4104TIP3    H212277   1.131   6.719   3.490  0.1599  0.0900 -0.0695
 4105TIP3   OH212278   2.225   1.409   0.590 -0.3292  0.3505  0.2300
 4105TIP3    H112279   2.270   1.338   0.543  1.6381  1.7909 -0.2143
 4105TIP3    H212280   2.155   1.436   0.530 -0.1664 -0.2600 -0.2480
 4106TIP3   OH212281   6.248   5.052   5.579 -0.1013  0.5317  0.2803
 4106TIP3    H112282   6.242   5.104   5.498 -2.2630 -1.5632 -1.0377
 4106TIP3    H212283   6.312   4.984   5.558  0.5785  0.9473  0.9713
 4107TIP3   OH212284   4.968   5.031   3.256  0.2806  0.3866 -0.0389
 4107TIP3    H112285   4.880   5.066   3.269  0.3967  0.4891  0.4681
 4107TIP3    H212286   4.955   4.937   3.245  0.1739  0.3177  0.6864
 4108TIP3   OH212287   5.236   4.987   0.699 -0.6684 -0.0779 -0.5175
 4108TIP3    H112288   5.223   5.082   0.699  0.4919  0.1041 -0.6522
 4108TIP3    H212289   5.150   4.951   0.720 -1.4679  0.9459 -1.8861
 4109TIP3   OH212290   2.537   5.821   4.892 -0.4257 -0.7190 -0.2113
 4109TIP3    H112291   2.531   5.769   4.812  2.4892 -0.3722 -0.7668
 4109TIP3    H212292   2.495   5.768   4.959 -2.8358 -1.0825 -1.8868
 4110TIP3   OH212293   5.710   0.711   0.456 -0.5187 -0.4329 -0.4487
 4110TIP3    H112294   5.792   0.760   0.469  0.4157 -2.0270 -0.1257
 4110TIP3    H212295   5.727   0.656   0.379 -2.7352  2.0986 -3.0006
 4111TIP3   OH212296   7.177   0.563   1.872  0.5102  0.4718  0.4887
 4111TIP3    H112297   7.114   0.495   1.894  0.0284  0.1920 -1.5412
 4111TIP3    H212298   7.208   0.596   1.956 -0.7472 -0.8607  1.5134
 4112TIP3   OH212299   6.255   3.823   0.873  0.3755  0.6937 -0.4104
 4112TIP3    H112300   6.328   3.884   0.875  0.3432  0.7189 -0.0358
 4112TIP3    H212301   6.280   3.754   0.935  1.5624 -0.9853 -2.5859
 4113TIP3   OH212302   3.548   1.558   1.001  0.7933 -0.6199 -0.1190
 4113TIP3    H112303   3.599   1.589   0.926  0.5710 -2.1896 -0.9561
 4113TIP3    H212304   3.601   1.488   1.039  1.3116  0.7068  1.7663
 4114TIP3   OH212305   1.020   5.664   3.693 -0.0808 -0.2398 -0.0465
 4114TIP3    H112306   0.951   5.730   3.704  0.3234  0.0684  0.7130
 4114TIP3    H212307   1.088   5.691   3.754 -0.1150 -1.6325  0.6427
 4115TIP3   OH212308   1.050   5.217   3.988 -0.0282 -0.0734 -0.1720
 4115TIP3    H112309   1.005   5.149   3.938  0.8597 -0.2084 -0.8161
 4115TIP3    H212310   0.982   5.256   4.043 -0.7212 -0.9070 -0.4214
 4116TIP3   OH212311   2.955   4.691   5.372  0.0892 -0.2719  0.0285
 4116TIP3    H112312   3.039   4.734   5.386  0.1359 -1.0838  2.9236
 4116TIP3    H212313   2.970   4.630   5.299  2.2975 -1.0157  1.0267
 4117TIP3   OH212314   4.334   3.094   1.347  0.2345  0.1415 -0.0555
 4117TIP3    H112315   4.327   2.999   1.335  0.2765  0.3340 -2.0425
 4117TIP3    H212316   4.427   3.112   1.329 -0.1325  0.7261 -1.5287
 4118TIP3   OH212317   5.198   3.172   3.662 -0.1157 -0.0303  0.1821
 4118TIP3    H112318   5.229   3.222   3.586 -0.7635  1.2867  0.7584
 4118TIP3    H212319   5.239   3.214   3.737 -0.8056 -0.2517  0.6954
 4119TIP3   OH212320   6.768   1.656   1.943 -0.3116  0.1683  0.5964
 4119TIP3    H112321   6.825   1.690   2.012 -0.3258  0.0247  0.6792
 4119TIP3    H212322   6.687   1.631   1.988 -0.2989  0.0204  0.5355
 4120TIP3   OH212323   1.402   1.061   5.245  0.4959 -0.8365 -0.3299
 4120TIP3    H112324   1.455   1.055   5.324  1.5525  0.3711 -0.9075
 4120TIP3    H212325   1.463   1.046   5.173  0.6738  2.8443 -1.1421
 4121TIP3   OH212326   5.913   3.678   4.828 -0.4238  0.4681 -0.0401
 4121TIP3    H112327   5.958   3.613   4.773  0.2654  0.2792  0.7370
 4121TIP3    H212328   5.976   3.700   4.896 -0.5779  2.1217 -0.4027
 4122TIP3   OH212329   2.661   5.614   5.203 -0.1022 -0.4659 -0.0101
 4122TIP3    H112330   2.618   5.530   5.220 -0.0744 -0.3108  0.9202
 4122TIP3    H212331   2.589   5.677   5.195 -0.0949 -0.1514  1.8604
 4123TIP3   OH212332   6.415   0.411   5.319 -0.0019 -0.4992 -0.1123
 4123TIP3    H112333   6.448   0.345   5.257 -0.4941  0.4842 -1.4658
 4123TIP3    H212334   6.423   0.369   5.404  0.1790 -2.1232 -0.8822
 4124TIP3   OH212335   1.288   5.949   0.946  0.2197  0.1830  0.4093
 4124TIP3    H112336   1.196   5.943   0.971 -0.5295  1.2504 -1.7570
 4124TIP3    H212337   1.314   6.037   0.974  0.9318 -0.4930  1.9538
 4125TIP3   OH212338   6.791   2.498   3.348  0.3387  0.1303 -0.2814
 4125TIP3    H112339   6.723   2.543   3.396  0.4561 -0.3611  0.3592
 4125TIP3    H212340   6.814   2.422   3.402  0.4187 -0.4833 -1.1373
 4126TIP3   OH212341   1.131   6.364   1.232  0.1513 -0.2113 -0.4272
 4126TIP3    H112342   1.207   6.406   1.190  0.6433 -0.7545 -0.0936
 4126TIP3    H212343   1.169   6.296   1.287 -0.5478 -0.0470  0.2682
 4127TIP3   OH212344   6.768   2.407   0.698 -0.1385 -0.4186 -0.1323
 4127TIP3    H112345   6.723   2.331   0.660 -1.6197  0.5464 -0.3782
 4127TIP3    H212346   6.822   2.370   0.768  0.0532 -1.8266 -0.9873
 4128TIP3   OH212347   5.261   4.717   5.036  0.1729 -0.3009 -0.0776
 4128TIP3    H112348   5.329   4.681   5.093  0.5316  0.7227  0.1518
 4128TIP3    H212349   5.233   4.642   4.983  1.1854 -0.8342  0.1137
 4129TIP3   OH212350   7.190   6.644   4.641 -0.4278  0.1427 -0.3951
 4129TIP3    H112351   7.139   6.697   4.581  0.2991  1.7103  0.3098
 4129TIP3    H212352   7.268   6.697   4.659  0.5234 -1.3457  0.0375
 4130TIP3   OH212353   2.609   0.648   5.627 -0.1863 -0.3182 -0.3000
 4130TIP3    H112354   2.704   0.651   5.611  0.0190 -0.5941  0.7801
 4130TIP3    H212355   2.577   0.580   5.568  0.5216 -1.2492  0.3552
 4131TIP3   OH212356   1.600   2.278   3.664 -0.6079 -0.0140  0.2053
 4131TIP3    H112357   1.509   2.284   3.692  0.2204  0.4724  3.1436
 4131TIP3    H212358   1.621   2.185   3.668 -0.9159 -0.1131 -0.3597
 4132TIP3   OH212359   3.618   0.561   1.287 -0.4977 -0.7717  0.4306
 4132TIP3    H112360   3.641   0.609   1.208 -1.0000 -0.3471  0.5365
 4132TIP3    H212361   3.624   0.469   1.263 -0.3342 -0.6458 -0.0065
 4133TIP3   OH212362   1.838   6.625   3.487  0.1207 -0.0025  0.5307
 4133TIP3    H112363   1.841   6.718   3.463 -1.5594  0.2053  1.0189
 4133TIP3    H212364   1.824   6.625   3.581  1.0281 -0.7766  0.6766
 4134TIP3   OH212365   7.172   4.167   1.739 -0.2332  0.1640 -0.0085
 4134TIP3    H112366   7.080   4.157   1.765 -0.4427 -0.7476 -1.0472
 4134TIP3    H212367   7.171   4.157   1.644  1.1199 -1.2813  0.0957
 4135TIP3   OH212368   0.733   3.911   4.246 -0.2136  0.0841 -0.2089
 4135TIP3    H112369   0.821   3.875   4.234  0.3822  1.1898  0.6309
 4135TIP3    H212370   0.675   3.848   4.203  0.9199 -1.0259 -0.1685
 4136TIP3   OH212371   2.606   1.237   2.013 -0.1896  0.1949  0.4181
 4136TIP3    H112372   2.672   1.186   1.967 -0.8233  1.5406 -2.2198
 4136TIP3    H212373   2.655   1.299   2.067  0.5773 -1.6773  1.9971
 4137TIP3   OH212374   4.861   2.134   4.935 -0.5591  0.5242 -0.2798
 4137TIP3    H112375   4.904   2.179   4.862 -0.1180 -0.2357 -0.4978
 4137TIP3    H212376   4.932   2.114   4.996 -0.4600 -1.2657 -0.9128
 4138TIP3   OH212377   2.790   3.513   0.236  0.2234 -0.1818  0.0115
 4138TIP3    H112378   2.732   3.499   0.161 -0.5624  1.5216  0.2449
 4138TIP3    H212379   2.741   3.573   0.293  1.8328  0.5636  0.6666
 4139TIP3   OH212380   2.692   2.625   3.329  0.5906  0.0989 -0.1546
 4139TIP3    H112381   2.620   2.687   3.338 -0.1631 -0.6530 -0.7852
 4139TIP3    H212382   2.669   2.552   3.387 -0.5540 -1.3668 -2.3224
 4140TIP3   OH212383   6.329   6.715   5.453  0.3697 -0.3129 -0.0841
 4140TIP3    H112384   6.379   6.719   5.371  0.3801  0.7236 -0.0390
 4140TIP3    H212385   6.274   6.638   5.444  0.3139 -0.1644 -1.1117
 4141TIP3   OH212386   1.180   5.737   3.334 -0.3756 -0.2816  0.4558
 4141TIP3    H112387   1.271   5.760   3.353 -0.0775 -0.6845 -0.4067
 4141TIP3    H212388   1.129   5.813   3.363  0.3237  0.3383  0.0968
 4142TIP3   OH212389   3.220   6.232   5.777 -0.0642 -0.3053 -0.1950
 4142TIP3    H112390   3.205   6.320   5.811  0.6543 -0.1992 -0.1410
 4142TIP3    H212391   3.134   6.190   5.779 -0.2638  0.1357  0.5096
 4143TIP3   OH212392   2.116   4.548   1.721  0.1127 -0.9670  0.3732
 4143TIP3    H112393   2.207   4.577   1.729  0.5270 -1.9286 -0.6517
 4143TIP3    H212394   2.109   4.516   1.631 -1.1451 -1.2348  0.5540
 4144TIP3   OH212395   3.755   4.500   0.839  0.9437 -0.0393  1.0120
 4144TIP3    H112396   3.681   4.476   0.783  0.5491  0.5269  1.2827
 4144TIP3    H212397   3.769   4.423   0.894  2.8964 -1.5942 -1.4514
 4145TIP3   OH212398   0.566   2.849   3.301  0.7399 -0.1733  0.1301
 4145TIP3    H112399   0.594   2.888   3.384 -0.1100  1.1642 -0.1774
 4145TIP3    H212400   0.574   2.755   3.314 -0.8817 -0.0874  2.3052
 4146TIP3   OH212401   1.806   4.931   5.031  0.0859  0.2413 -0.0788
 4146TIP3    H112402   1.803   5.018   4.990 -0.5828 -1.5571 -4.3405
 4146TIP3    H212403   1.720   4.893   5.014  0.9625 -1.9299 -0.0088
 4147TIP3   OH212404   3.878   1.575   4.520  0.7096  0.6093  0.2002
 4147TIP3    H112405   3.954   1.607   4.570  0.0705  0.6977  1.1431
 4147TIP3    H212406   3.833   1.518   4.581  0.1765  0.3205 -0.4622
 4148TIP3   OH212407   3.612   3.375   4.690  0.0306  0.1753 -0.4810
 4148TIP3    H112408   3.606   3.286   4.653  2.1726 -1.1487  2.0028
 4148TIP3    H212409   3.684   3.415   4.641  0.2887 -0.1625 -0.3899
 4149TIP3   OH212410   3.795   3.721   2.449  0.1546  0.5266  0.2712
 4149TIP3    H112411   3.861   3.790   2.458  2.9997 -2.1151  1.2208
 4149TIP3    H212412   3.834   3.657   2.389 -2.2921 -0.4176 -0.4388
 4150TIP3   OH212413   3.715   0.305   1.146  0.3587 -0.1142 -0.2623
 4150TIP3    H112414   3.706   0.210   1.143  0.6176 -0.1130 -1.5832
 4150TIP3    H212415   3.744   0.330   1.058 -0.9529  1.3203 -0.3503
 4151TIP3   OH212416   3.247   1.165   0.596 -0.3446  0.1160 -0.3900
 4151TIP3    H112417   3.164   1.178   0.551 -0.9010 -1.3083  0.1858
 4151TIP3    H212418   3.270   1.074   0.578  2.5101  1.1384 -2.8320
 4152TIP3   OH212419   4.251   4.237   5.130  0.6357 -1.0897 -0.2716
 4152TIP3    H112420   4.302   4.158   5.150  0.8173 -0.4247  2.1974
 4152TIP3    H212421   4.250   4.241   5.035  2.8012 -2.6684 -0.4402
 4153TIP3   OH212422   0.544   1.450   4.076  0.0147 -0.3897 -0.4569
 4153TIP3    H112423   0.557   1.401   3.995 -1.3001  0.5753 -1.2874
 4153TIP3    H212424   0.593   1.531   4.065 -1.2965  0.3773 -0.9185
 4154TIP3   OH212425   3.991   5.748   1.801  0.3697 -0.4784 -0.4144
 4154TIP3    H112426   4.045   5.670   1.811  0.4759 -0.5498 -1.4943
 4154TIP3    H212427   3.999   5.772   1.709 -0.7374  0.0267 -0.3938
 4155TIP3   OH212428   6.260   2.203   4.272  0.0950 -0.0867 -0.2033
 4155TIP3    H112429   6.242   2.279   4.327 -0.6363 -0.2389 -0.2171
 4155TIP3    H212430   6.334   2.229   4.217  0.8462  0.0666  0.8568
 4156TIP3   OH212431   5.686   2.751   1.391  0.5008  0.2033 -0.1167
 4156TIP3    H112432   5.696   2.711   1.305  1.7769  0.6592 -0.2055
 4156TIP3    H212433   5.606   2.712   1.427 -0.0479  0.0066 -1.4900
 4157TIP3   OH212434   6.952   6.493   4.719  0.0347  0.0562  0.6928
 4157TIP3    H112435   6.989   6.415   4.678 -1.5319  0.0549 -0.8148
 4157TIP3    H212436   7.028   6.550   4.735  0.9940 -1.0524  0.2542
 4158TIP3   OH212437   1.310   0.453   1.129 -0.9326 -0.0636  0.0269
 4158TIP3    H112438   1.281   0.381   1.185  1.2735 -0.5269  0.6678
 4158TIP3    H212439   1.405   0.454   1.139 -0.8499  2.6249 -0.3795
 4159TIP3   OH212440   6.409   1.794   1.868  0.2779  0.6904 -0.5417
 4159TIP3    H112441   6.317   1.776   1.850 -0.1157  0.8254  1.1714
 4159TIP3    H212442   6.439   1.845   1.793 -0.7218 -0.3100 -1.6548
 4160TIP3   OH212443   5.586   5.106   0.138 -0.1694 -0.2128 -0.2269
 4160TIP3    H112444   5.557   5.194   0.115 -0.0998 -0.1180  0.0426
 4160TIP3    H212445   5.666   5.092   0.087 -1.8908 -1.3716 -2.8059
 4161TIP3   OH212446   4.459   1.597   2.913  0.6970  0.0150 -0.3225
 4161TIP3    H112447   4.408   1.668   2.874 -0.0424 -1.0208 -1.3281
 4161TIP3    H212448   4.542   1.598   2.866  1.0626  0.8026  0.3261
 4162TIP3   OH212449   5.963   1.973   1.254  0.8452  0.4967 -0.5834
 4162TIP3    H112450   5.941   1.953   1.163 -1.3271  1.3692 -0.3300
 4162TIP3    H212451   6.008   2.058   1.250 -0.1285  1.0237 -0.8082
 4163TIP3   OH212452   4.173   5.787   4.452 -0.1356 -0.3825 -0.7527
 4163TIP3    H112453   4.176   5.883   4.458 -0.8692 -0.2713 -1.8718
 4163TIP3    H212454   4.224   5.757   4.527 -0.0791  0.8826 -0.2546
 4164TIP3   OH212455   6.396   1.474   5.128 -0.0351 -0.1342  0.4555
 4164TIP3    H112456   6.479   1.476   5.080 -0.4032  0.3331 -0.1884
 4164TIP3    H212457   6.409   1.537   5.200  1.0609 -1.9708  1.9503
 4165TIP3   OH212458   2.991   5.043   0.099 -0.3998 -0.9754  0.1378
 4165TIP3    H112459   2.977   4.949   0.111 -1.9733 -0.9011 -0.8021
 4165TIP3    H212460   2.910   5.083   0.128  0.7869  0.2557  1.9108
 4166TIP3   OH212461   3.287   5.829   1.986  0.2934  0.5895 -0.5816
 4166TIP3    H112462   3.234   5.872   1.918  0.0981 -1.5727 -1.8709
 4166TIP3    H212463   3.226   5.770   2.030  0.5419  1.5891  1.2151
 4167TIP3   OH212464   0.168   6.166   4.398  0.1275 -0.6438  0.4645
 4167TIP3    H112465   0.090   6.137   4.444 -0.5256  0.7725  0.2873
 4167TIP3    H212466   0.205   6.235   4.452 -0.1412  0.4065 -0.6422
 4168TIP3   OH212467   4.015   1.716   1.172  0.0327 -0.3918 -0.1665
 4168TIP3    H112468   4.061   1.701   1.089 -0.8922  1.3945 -1.0411
 4168TIP3    H212469   3.942   1.654   1.171 -0.3584  0.0796 -0.9932
 4169TIP3   OH212470   5.339   1.627   1.029  0.1887  0.1952 -0.3056
 4169TIP3    H112471   5.321   1.624   1.123  0.7120 -1.2050 -0.2329
 4169TIP3    H212472   5.257   1.600   0.988 -0.6263  2.5370 -0.3680
 4170TIP3   OH212473   5.585   5.807   5.595 -0.3077 -0.3110  0.3100
 4170TIP3    H112474   5.656   5.747   5.616  0.5710  0.6043  0.0419
 4170TIP3    H212475   5.542   5.768   5.519  2.0714  0.7743 -1.7473
 4171TIP3   OH212476   4.512   0.879   3.090  0.5259 -0.0958  0.9122
 4171TIP3    H112477   4.487   0.831   3.169 -0.8026 -0.4070  0.3471
 4171TIP3    H212478   4.587   0.932   3.116  1.1556 -1.4261  1.9349
 4172TIP3   OH212479   6.659   4.634   2.904  0.2870 -0.1361 -0.4558
 4172TIP3    H112480   6.659   4.539   2.896  0.1222 -0.0318 -2.3507
 4172TIP3    H212481   6.681   4.665   2.815  2.8709  1.5642  0.6372
 4173TIP3   OH212482   5.165   2.190   1.688  0.7126 -0.2258  0.0011
 4173TIP3    H112483   5.079   2.183   1.729  0.1569 -0.6708 -1.1799
 4173TIP3    H212484   5.157   2.139   1.607  1.5302  1.2215 -1.0367
 4174TIP3   OH212485   4.475   4.247   5.572 -0.3314 -0.6757  0.3975
 4174TIP3    H112486   4.404   4.223   5.632  1.0227 -1.2192  1.8534
 4174TIP3    H212487   4.531   4.305   5.623  0.8381 -1.1069 -0.3501
 4175TIP3   OH212488   2.002   4.216   1.006 -0.0447  0.3252  0.0272
 4175TIP3    H112489   2.075   4.156   1.022 -0.1203  0.0194 -0.7262
 4175TIP3    H212490   2.002   4.228   0.911 -0.2976  1.1828  0.1323
 4176TIP3   OH212491   4.909   2.982   3.433  0.5205 -0.1892 -0.1619
 4176TIP3    H112492   4.916   3.062   3.484  2.1610 -0.0449 -0.5616
 4176TIP3    H212493   4.996   2.969   3.396 -0.2860 -0.9559 -1.9238
 4177TIP3   OH212494   5.613   0.227   3.537 -0.2523 -0.5853  0.0949
 4177TIP3    H112495   5.562   0.289   3.486 -0.6314 -0.3580  0.7387
 4177TIP3    H212496   5.660   0.175   3.472  1.2760  1.3688 -0.4115
 4178TIP3   OH212497   4.638   4.856   2.247  0.4259 -0.4802 -0.8833
 4178TIP3    H112498   4.650   4.779   2.303 -1.1516 -1.5435 -1.9198
 4178TIP3    H212499   4.626   4.928   2.308  1.2921 -1.1466  0.1211
 4179TIP3   OH212500   4.956   2.730   3.222  0.4927 -0.3446 -0.4264
 4179TIP3    H112501   5.014   2.697   3.291 -1.5300  0.7811  1.9816
 4179TIP3    H212502   5.004   2.803   3.183  0.6760  0.7826  1.7518
 4180TIP3   OH212503   2.586   1.329   2.856 -0.1184 -0.6606  0.2881
 4180TIP3    H112504   2.563   1.315   2.948 -0.5346 -0.4855  0.2113
 4180TIP3    H212505   2.526   1.396   2.826 -0.3640 -1.1210 -0.2718
 4181TIP3   OH212506   3.203   5.637   1.761 -0.2597 -0.0797 -0.0616
 4181TIP3    H112507   3.226   5.698   1.691  0.3065 -0.1110  0.0883
 4181TIP3    H212508   3.267   5.566   1.753  1.0421  0.8217  1.6468
 4182TIP3   OH212509   0.552   2.753   1.912 -0.1049  0.2456 -0.0273
 4182TIP3    H112510   0.533   2.766   1.819 -0.7624  3.0543  0.4085
 4182TIP3    H212511   0.487   2.806   1.957  1.1646  0.1755  1.9903
 4183TIP3   OH212512   0.515   3.492   0.365  0.1536  0.0926  0.1074
 4183TIP3    H112513   0.567   3.553   0.312  0.0279 -0.4530 -0.6738
 4183TIP3    H212514   0.549   3.406   0.342  0.8211 -0.0959  1.7512
 4184TIP3   OH212515   6.108   4.304   3.501 -0.2914 -0.0876  0.7246
 4184TIP3    H112516   6.017   4.295   3.471  0.4112 -1.9491 -1.0558
 4184TIP3    H212517   6.134   4.216   3.526  0.4876  0.7390  3.0594
 4185TIP3   OH212518   1.610   3.410   2.174  0.7346  0.2342 -0.4474
 4185TIP3    H112519   1.594   3.504   2.164 -0.1422  0.0977 -0.4059
 4185TIP3    H212520   1.550   3.382   2.244  1.4372 -0.2399 -0.0250
 4186TIP3   OH212521   3.633   2.386   1.249  0.1376  0.0481  0.8413
 4186TIP3    H112522   3.693   2.336   1.304  0.5344  1.1173  1.4260
 4186TIP3    H212523   3.660   2.367   1.160  0.5284 -0.4674  1.0646
 4187TIP3   OH212524   3.486   0.983   0.236  0.1793 -0.1927  0.0555
 4187TIP3    H112525   3.510   1.007   0.326  0.0989  0.1939 -0.0245
 4187TIP3    H212526   3.490   0.887   0.235  2.4356 -0.1318 -0.1513
 4188TIP3   OH212527   1.170   2.399   2.315 -0.1468 -0.1664 -0.3062
 4188TIP3    H112528   1.113   2.475   2.323 -0.7483 -0.5979 -0.4189
 4188TIP3    H212529   1.112   2.324   2.328  0.5156 -0.5942  0.2503
 4189TIP3   OH212530   2.108   2.533   3.622  0.6025 -0.3983 -0.0922
 4189TIP3    H112531   2.082   2.621   3.652  0.2477  0.0627 -1.6708
 4189TIP3    H212532   2.085   2.476   3.695 -0.7616  0.5984  0.3133
 4190TIP3   OH212533   1.576   0.671   2.464 -0.0563  0.5848 -0.2742
 4190TIP3    H112534   1.495   0.669   2.515 -0.5401  0.1352 -1.0355
 4190TIP3    H212535   1.635   0.726   2.515 -0.5489  0.2088  0.7285
 4191TIP3   OH212536   0.278   5.183   2.679 -0.9045 -0.1398  0.8760
 4191TIP3    H112537   0.307   5.094   2.661 -1.1280  0.0005 -0.2795
 4191TIP3    H212538   0.212   5.174   2.748 -0.2010 -0.7478  1.4866
 4192TIP3   OH212539   1.706   2.727   3.362 -0.6657  0.4027 -0.2367
 4192TIP3    H112540   1.786   2.742   3.312 -0.7852  0.3539 -0.4435
 4192TIP3    H212541   1.725   2.651   3.417 -0.7244  0.1119 -0.6165
 4193TIP3   OH212542   2.080   5.219   1.001 -0.3098  0.2412  0.1819
 4193TIP3    H112543   2.168   5.216   1.038  0.2458  3.4521 -0.6019
 4193TIP3    H212544   2.092   5.209   0.907 -0.7415  0.8071  0.0570
 4194TIP3   OH212545   0.245   1.148   4.617 -0.0495 -0.3059 -0.3074
 4194TIP3    H112546   0.247   1.188   4.704 -1.1188 -2.2346  0.6733
 4194TIP3    H212547   0.227   1.055   4.634  1.0173 -0.9845 -2.5273
 4195TIP3   OH212548   4.919   3.111   2.405  0.3104 -0.5969 -0.0145
 4195TIP3    H112549   4.943   3.053   2.332  0.9810  0.3994 -0.6248
 4195TIP3    H212550   4.829   3.138   2.385  0.6155 -0.0394 -0.6919
 4196TIP3   OH212551   6.621   4.555   2.570  0.1661 -0.0486 -0.2437
 4196TIP3    H112552   6.607   4.487   2.504 -0.5191  0.3627 -0.5443
 4196TIP3    H212553   6.697   4.604   2.538 -0.1886  0.1752 -0.7692
 4197TIP3   OH212554   2.429   6.587   1.298  0.2998  0.0783 -0.1424
 4197TIP3    H112555   2.400   6.580   1.207  2.4275 -0.8758 -0.8064
 4197TIP3    H212556   2.523   6.568   1.295  0.5164  0.4629  2.2064
 4198TIP3   OH212557   4.383   4.390   2.145 -0.0560 -0.2093  0.1928
 4198TIP3    H112558   4.352   4.330   2.213  0.0377  0.2871  0.6757
 4198TIP3    H212559   4.447   4.338   2.096  0.2103 -0.4283  0.7613
 4199TIP3   OH212560   3.346   1.958   1.468 -0.1763  0.3677 -0.1829
 4199TIP3    H112561   3.383   2.013   1.399  1.7567  0.1842  0.6567
 4199TIP3    H212562   3.405   1.882   1.473 -0.0533  0.5482  1.8881
 4200TIP3   OH212563   2.786   3.539   0.915 -0.3744  0.1893 -0.0131
 4200TIP3    H112564   2.704   3.493   0.932 -0.1537  0.1709  1.0860
 4200TIP3    H212565   2.782   3.561   0.822 -1.2069 -0.6166 -0.1847
 4201TIP3   OH212566   4.105   1.589   0.001  0.4847  0.0898 -0.1598
 4201TIP3    H112567   4.102   1.685   0.003 -2.4031  0.0871  1.6255
 4201TIP3    H212568   4.158   1.565   0.077  0.9640  0.2582 -0.4372
 4202TIP3   OH212569   6.978   6.544   1.204 -0.0964  0.3888 -0.0510
 4202TIP3    H112570   6.998   6.456   1.238  4.3201  1.0552 -0.4160
 4202TIP3    H212571   6.916   6.580   1.267 -1.0257 -2.4703  0.8335
 4203TIP3   OH212572   6.820   5.341   4.536 -0.1773 -0.1059 -0.4528
 4203TIP3    H112573   6.850   5.286   4.609 -1.6052 -0.0528  0.2076
 4203TIP3    H212574   6.791   5.421   4.578 -2.5682 -0.6917 -0.8508
 4204TIP3   OH212575   3.438   3.607   3.228  0.5545 -1.0278 -0.1910
 4204TIP3    H112576   3.383   3.594   3.306  1.0063  0.0491  0.3258
 4204TIP3    H212577   3.377   3.641   3.162  0.2659 -1.4669 -0.1522
 4205TIP3   OH212578   4.254   4.028   1.076 -0.5568  0.1820  0.5011
 4205TIP3    H112579   4.311   4.023   0.999 -3.2984  1.3998 -1.7830
 4205TIP3    H212580   4.239   3.936   1.101 -3.2064 -0.7003 -3.4475
 4206TIP3   OH212581   6.006   3.966   2.629 -0.3776 -0.2026  0.8155
 4206TIP3    H112582   5.940   4.030   2.601 -0.1552 -0.2289  0.2164
 4206TIP3    H212583   5.969   3.881   2.604  0.4529 -0.1413 -0.7716
 4207TIP3   OH212584   5.087   1.946   5.336  0.0176  0.2348 -0.2955
 4207TIP3    H112585   5.020   1.921   5.399  0.1413  0.8972  0.1060
 4207TIP3    H212586   5.039   1.972   5.258 -0.2298  1.3019  0.2017
 4208TIP3   OH212587   2.062   5.853   1.597 -0.6123  0.2767 -0.0401
 4208TIP3    H112588   2.087   5.888   1.682 -1.6937  0.3259  0.2711
 4208TIP3    H212589   2.023   5.768   1.617 -2.0798  0.8549 -0.3308
 4209TIP3   OH212590   3.566   3.712   4.583 -0.6171 -0.7681  0.4080
 4209TIP3    H112591   3.526   3.798   4.568  1.4797  0.0724 -0.9039
 4209TIP3    H212592   3.530   3.656   4.514  0.4358  0.0051 -0.8302
 4210TIP3   OH212593   5.723   5.329   2.964 -0.4664  0.2246 -0.4392
 4210TIP3    H112594   5.774   5.270   3.019 -0.4710 -0.7998 -1.5049
 4210TIP3    H212595   5.655   5.364   3.022 -0.7444 -1.1607  0.0968
 4211TIP3   OH212596   4.189   2.605   5.619  0.8062  0.2653  0.0723
 4211TIP3    H112597   4.269   2.597   5.568  0.9535  1.0505  0.1725
 4211TIP3    H212598   4.217   2.597   5.711  0.5893 -0.7757  0.0658
 4212TIP3   OH212599   5.392   5.669   2.915 -0.1205  0.3382  0.3662
 4212TIP3    H112600   5.319   5.710   2.867 -0.1968 -0.7224 -0.4522
 4212TIP3    H212601   5.460   5.736   2.915  0.1384  0.1616 -1.8597
 4213TIP3   OH212602   4.930   1.245   4.336  0.1283 -0.3544 -0.1066
 4213TIP3    H112603   4.919   1.305   4.410  1.7432 -0.6590  0.4112
 4213TIP3    H212604   4.867   1.175   4.353  0.4779 -0.4250  0.9955
 4214TIP3   OH212605   2.672   0.279   3.670  0.3143  0.1221  0.2131
 4214TIP3    H112606   2.677   0.318   3.758  0.9490  1.0553 -0.2150
 4214TIP3    H212607   2.595   0.320   3.630  1.1203  1.1616 -0.3225
 4215TIP3   OH212608   4.349   5.825   0.551  0.5197 -0.2071 -0.4902
 4215TIP3    H112609   4.411   5.810   0.479 -1.6105 -0.9778 -2.2851
 4215TIP3    H212610   4.301   5.904   0.524  0.4115  0.1431  0.6706
 4216TIP3   OH212611   3.622   0.329   5.535  0.1608  0.7936 -0.0944
 4216TIP3    H112612   3.538   0.283   5.541  0.1579  0.5049 -1.7860
 4216TIP3    H212613   3.642   0.355   5.625 -0.1693 -1.9421  0.8692
 4217TIP3   OH212614   7.078   2.160   2.254  0.1401  0.1168  0.0259
 4217TIP3    H112615   7.002   2.111   2.225 -0.2728 -1.6582  3.6111
 4217TIP3    H212616   7.044   2.225   2.315  1.3722  0.3078  0.5459
 4218TIP3   OH212617   3.759   0.731   2.975  0.0362 -0.4265 -0.0409
 4218TIP3    H112618   3.687   0.779   3.016 -0.3238 -0.6320 -0.4217
 4218TIP3    H212619   3.767   0.770   2.888 -1.3402 -2.0833 -0.9829
 4219TIP3   OH212620   1.484   1.409   0.571  0.6191 -0.9129  0.1237
 4219TIP3    H112621   1.571   1.375   0.547  1.3139 -0.1989  1.5113
 4219TIP3    H212622   1.502   1.489   0.621 -0.9440  0.6811 -1.7346
 4220TIP3   OH212623   5.443   4.212   1.653  0.4077 -0.5381  0.4577
 4220TIP3    H112624   5.514   4.162   1.613 -0.8474 -0.3152 -2.2992
 4220TIP3    H212625   5.380   4.146   1.682 -0.7864 -0.7328 -2.2740
 4221TIP3   OH212626   5.814   6.062   1.023 -0.0665  0.4031  0.1742
 4221TIP3    H112627   5.881   6.010   1.067 -0.3907 -0.0701  0.1088
 4221TIP3    H212628   5.737   6.056   1.080  0.1134  1.4235  0.5464
 4222TIP3   OH212629   5.819   3.559   0.598  0.0903 -0.1607  0.0009
 4222TIP3    H112630   5.783   3.507   0.526  2.4908 -0.4979 -1.0297
 4222TIP3    H212631   5.908   3.527   0.610  0.5733  1.5487  1.5271
 4223TIP3   OH212632   6.497   3.848   4.614 -0.2017  0.0991  0.2819
 4223TIP3    H112633   6.522   3.851   4.707  1.5921  0.5500 -0.1735
 4223TIP3    H212634   6.486   3.940   4.590 -1.2516 -0.0448  0.1772
 4224TIP3   OH212635   2.004   6.509   4.232 -0.2166  0.3062 -0.0251
 4224TIP3    H112636   2.017   6.580   4.168 -2.1148  1.2478  0.5647
 4224TIP3    H212637   1.945   6.449   4.188  1.6046 -1.1474 -0.6307
 4225TIP3   OH212638   4.832   5.622   1.262  0.3786 -0.4725  0.0483
 4225TIP3    H112639   4.863   5.676   1.189 -0.9365 -0.6864 -0.7062
 4225TIP3    H212640   4.891   5.547   1.263  0.1499 -0.6844 -1.0929
 4226TIP3   OH212641   2.943   4.742   2.204 -0.2517  0.5342  0.5914
 4226TIP3    H112642   2.995   4.818   2.176  0.1415  0.2143  0.4394
 4226TIP3    H212643   3.005   4.688   2.253 -0.1611 -0.3750 -0.4933
 4227TIP3   OH212644   0.314   2.424   5.368  0.2483 -0.3483 -0.4468
 4227TIP3    H112645   0.397   2.440   5.412 -0.8495  0.5946  1.4561
 4227TIP3    H212646   0.285   2.510   5.338 -0.3943 -0.5221 -0.3571
 4228TIP3   OH212647   4.077   1.679   3.011  0.1820 -0.1072  0.4170
 4228TIP3    H112648   4.135   1.751   3.037  0.0736 -0.2823  1.1642
 4228TIP3    H212649   3.991   1.720   3.005  0.5969  0.5135 -2.2732
 4229TIP3   OH212650   3.951   5.145   0.359  0.2418 -0.2986  0.1227
 4229TIP3    H112651   3.897   5.070   0.336 -1.0516  0.5177  0.3842
 4229TIP3    H212652   4.038   5.109   0.372 -0.0681 -1.5445 -1.0348
 4230TIP3   OH212653   4.455   0.443   5.562 -0.7435  0.1381  0.3292
 4230TIP3    H112654   4.417   0.530   5.579 -0.1043  0.5064 -0.0807
 4230TIP3    H212655   4.501   0.454   5.479 -1.9666 -1.0211 -0.5395
 4231TIP3   OH212656   2.981   3.411   5.324  0.0973  0.1578 -0.1155
 4231TIP3    H112657   2.941   3.464   5.393 -0.5682 -1.0492  0.4366
 4231TIP3    H212658   3.071   3.398   5.353 -0.2756 -0.6295  0.6945
 4232TIP3   OH212659   2.943   1.927   3.157 -0.3409 -0.6888 -0.3967
 4232TIP3    H112660   3.021   1.945   3.104 -0.9616  2.6227 -0.3968
 4232TIP3    H212661   2.976   1.918   3.246  0.0621  3.2217  0.0559
 4233TIP3   OH212662   5.967   5.771   1.981  0.3633  0.6134  0.3273
 4233TIP3    H112663   6.041   5.809   1.934 -0.3525  2.4735  0.5974
 4233TIP3    H212664   6.007   5.715   2.047  1.4911  0.6840 -0.2625
 4234TIP3   OH212665   5.071   0.983   0.904 -0.3966  0.3767 -0.0186
 4234TIP3    H112666   5.075   0.889   0.887 -0.7979  0.4045 -0.2670
 4234TIP3    H212667   5.041   0.989   0.995  0.4210  0.2547  0.2692
 4235TIP3   OH212668   1.116   6.455   0.649  0.0726  0.3174 -0.7748
 4235TIP3    H112669   1.104   6.406   0.568 -0.6165 -1.8145  0.5210
 4235TIP3    H212670   1.193   6.416   0.690 -0.0330  0.8486 -0.0439
 4236TIP3   OH212671   6.767   6.169   4.963  0.0280  0.3123 -0.2625
 4236TIP3    H112672   6.847   6.128   4.998 -0.3883 -0.6196 -0.3774
 4236TIP3    H212673   6.792   6.260   4.947  1.0513  0.0520 -0.2248
 4237TIP3   OH212674   0.609   3.579   4.734  0.1653  0.2111 -0.2860
 4237TIP3    H112675   0.637   3.627   4.656 -2.6445  0.7273 -1.0797
 4237TIP3    H212676   0.598   3.489   4.703  2.9466 -0.5211  0.5853
 4238TIP3   OH212677   0.493   4.385   0.756  1.0545  0.9571 -0.1578
 4238TIP3    H112678   0.575   4.349   0.723  2.3128  2.1371  1.4842
 4238TIP3    H212679   0.520   4.462   0.807 -0.9961  0.9457  1.0464
 4239TIP3   OH212680   0.336   4.775   5.620  0.4690 -0.1065 -0.3941
 4239TIP3    H112681   0.409   4.814   5.669  1.7959 -0.0138 -2.3587
 4239TIP3    H212682   0.270   4.845   5.617  1.0526  0.4659 -0.1911
 4240TIP3   OH212683   5.197   6.457   5.566  0.1095 -0.1969 -0.0904
 4240TIP3    H112684   5.230   6.370   5.591 -1.3564 -0.7875 -0.0781
 4240TIP3    H212685   5.102   6.451   5.582 -0.3221  0.7073 -2.0746
 4241TIP3   OH212686   3.240   0.469   4.971  0.2269  0.0810 -0.2774
 4241TIP3    H112687   3.171   0.510   5.023  0.0469  1.0313 -1.2297
 4241TIP3    H212688   3.294   0.423   5.035 -0.5738  0.3620  0.6235
 4242TIP3   OH212689   3.164   4.663   2.347 -0.5278  0.5895 -0.2731
 4242TIP3    H112690   3.227   4.655   2.419 -0.4498 -0.3039 -0.4325
 4242TIP3    H212691   3.217   4.685   2.271 -0.4941  0.4924 -0.2765
 4243TIP3   OH212692   0.651   2.067   4.249 -0.1757  0.2590  0.6237
 4243TIP3    H112693   0.692   1.983   4.229  0.9943  0.9041  0.1490
 4243TIP3    H212694   0.591   2.049   4.321  1.3161 -0.6711  1.6983
 4244TIP3   OH212695   0.909   2.905   4.888 -0.3810  0.1061 -0.0634
 4244TIP3    H112696   0.879   2.939   4.803  1.1089 -1.2474 -1.1841
 4244TIP3    H212697   0.966   2.832   4.866 -1.9326 -1.9511  2.1821
 4245TIP3   OH212698   0.989   1.481   3.457  0.2126  0.1194 -0.4075
 4245TIP3    H112699   0.905   1.440   3.478  0.7101 -1.5619 -1.5115
 4245TIP3    H212700   0.968   1.547   3.391 -0.3926  0.5849  0.2374
 4246TIP3   OH212701   5.163   4.964   2.982  0.1205 -0.5847 -0.3523
 4246TIP3    H112702   5.129   4.875   2.994  0.9248 -1.0922 -1.6424
 4246TIP3    H212703   5.098   5.007   2.926 -0.7340 -0.0295  0.9986
 4247TIP3   OH212704   1.570   2.786   2.014 -0.3755 -0.1383 -0.4737
 4247TIP3    H112705   1.554   2.763   2.106 -0.8840 -0.2791 -0.5912
 4247TIP3    H212706   1.505   2.853   1.995 -0.9005 -0.7763 -0.9892
 4248TIP3   OH212707   1.723   5.725   5.282  0.1743 -0.1888 -0.1224
 4248TIP3    H112708   1.654   5.774   5.327  1.7426 -0.2254  2.5933
 4248TIP3    H212709   1.778   5.792   5.243 -0.7686 -0.1133 -1.3748
 4249TIP3   OH212710   4.894   2.178   1.793  0.1320 -0.3794  0.2467
 4249TIP3    H112711   4.855   2.111   1.848  0.2640 -0.1168  0.6677
 4249TIP3    H212712   4.829   2.194   1.725 -0.0426 -0.6911  0.3385
 4250TIP3   OH212713   6.751   3.812   0.443  0.1700  0.3231 -0.0378
 4250TIP3    H112714   6.835   3.856   0.430  0.0804  0.1601 -1.3296
 4250TIP3    H212715   6.746   3.748   0.371 -0.3807 -0.7448  0.9092
 4251TIP3   OH212716   4.957   6.155   2.437  0.4485  0.0890 -0.2989
 4251TIP3    H112717   4.909   6.129   2.516 -0.8337 -1.2729 -1.4617
 4251TIP3    H212718   4.950   6.250   2.434  0.4660  0.1574  1.1720
 4252TIP3   OH212719   1.138   1.586   3.967  0.0024  0.3075 -0.3107
 4252TIP3    H112720   1.208   1.612   4.027  0.4245 -0.2334 -0.5584
 4252TIP3    H212721   1.136   1.491   3.973 -2.7085  0.3877  1.9258
 4253TIP3   OH212722   6.016   2.519   1.439  0.0964 -0.0435 -0.2963
 4253TIP3    H112723   6.106   2.546   1.455 -0.3164  0.3612  1.5771
 4253TIP3    H212724   6.002   2.446   1.498 -0.8453 -0.0094 -0.4622
 4254TIP3   OH212725   0.317   0.703   2.202 -0.7483 -0.1602  0.0292
 4254TIP3    H112726   0.329   0.621   2.249  0.9874  0.1606  0.2045
 4254TIP3    H212727   0.250   0.750   2.253 -0.0542 -0.4914  1.2789
 4255TIP3   OH212728   4.261   6.496   3.138  0.1644  0.3345 -0.3211
 4255TIP3    H112729   4.217   6.430   3.191  2.3513 -0.8908  0.0846
 4255TIP3    H212730   4.219   6.489   3.052 -1.6779  0.5610  0.5151
 4256TIP3   OH212731   1.227   6.467   4.669  0.0459  0.4368  0.0186
 4256TIP3    H112732   1.233   6.398   4.602 -0.7033 -0.4786  0.8762
 4256TIP3    H212733   1.293   6.531   4.642  1.7828 -1.2752 -0.0551
 4257TIP3   OH212734   2.306   6.214  -0.015  0.6446 -0.1751 -0.0078
 4257TIP3    H112735   2.317   6.119  -0.023  1.5828  0.0438 -2.2348
 4257TIP3    H212736   2.368   6.239   0.054  1.5076 -1.0403 -0.4291
 4258TIP3   OH212737   4.734   3.728   5.764 -0.0209  0.0037 -0.1134
 4258TIP3    H112738   4.802   3.775   5.814 -0.5428 -0.5888  1.2127
 4258TIP3    H212739   4.782   3.659   5.719  0.1049 -1.6472  2.3531
 4259TIP3   OH212740   2.507   3.312   4.265  0.4908 -0.2594 -0.2886
 4259TIP3    H112741   2.600   3.312   4.289  0.2230 -1.7283  0.9565
 4259TIP3    H212742   2.497   3.238   4.205  0.3844  0.8912 -1.7543
 4260TIP3   OH212743   2.335   0.903   4.789 -0.0537 -0.2193 -0.4889
 4260TIP3    H112744   2.278   0.975   4.816  0.2744  0.8269 -2.3908
 4260TIP3    H212745   2.294   0.869   4.710  0.6909 -1.0272 -0.5398
 4261TIP3   OH212746   3.749   4.781   2.724  0.3061 -0.5330 -0.3910
 4261TIP3    H112747   3.659   4.811   2.707 -0.2078  0.1087  2.8835
 4261TIP3    H212748   3.739   4.688   2.746  0.4716 -0.5175 -0.2499
 4262TIP3   OH212749   6.906   0.773   1.360 -0.0912 -0.2440 -0.2241
 4262TIP3    H112750   6.956   0.704   1.406 -1.9953 -0.7501  1.2169
 4262TIP3    H212751   6.962   0.851   1.367  0.2586 -0.6121  1.9389
 4263TIP3   OH212752   3.662   3.654   3.947 -0.0066  0.2940 -0.0255
 4263TIP3    H112753   3.689   3.742   3.922 -0.1218 -0.3476 -2.7368
 4263TIP3    H212754   3.587   3.667   4.005 -0.9588  1.9856 -1.5519
 4264TIP3   OH212755   4.443   4.837   4.691 -0.3101 -0.8235  0.5228
 4264TIP3    H112756   4.370   4.807   4.638 -1.1682  1.6633  0.1375
 4264TIP3    H212757   4.412   4.919   4.730  2.3489  0.4859  0.1104
 4265TIP3   OH212758   1.569   6.160   4.801  0.1617 -0.2671 -0.5757
 4265TIP3    H112759   1.498   6.122   4.749  0.5449 -1.3651 -0.3096
 4265TIP3    H212760   1.619   6.213   4.739 -0.2356 -0.3824 -0.9978
 4266TIP3   OH212761   0.626   0.705   1.798  0.2030 -0.1589 -0.3978
 4266TIP3    H112762   0.548   0.673   1.843  0.3663 -0.0031  0.0031
 4266TIP3    H212763   0.613   0.680   1.707 -0.8828  0.9379 -0.5695
 4267TIP3   OH212764   2.762   3.370   5.177 -0.2793 -0.1413  1.0617
 4267TIP3    H112765   2.759   3.279   5.147  0.5750  0.1263  0.1239
 4267TIP3    H212766   2.849   3.380   5.215 -0.2587  0.3572  0.8914
 4268TIP3   OH212767   4.994   5.579   0.371  0.0547  0.1566 -0.8839
 4268TIP3    H112768   5.068   5.636   0.351  0.8863 -0.5554  0.0608
 4268TIP3    H212769   4.940   5.629   0.432 -0.6820  0.9816 -2.1614
 4269TIP3   OH212770   4.292   4.031   4.675  0.1447 -0.0631  0.0972
 4269TIP3    H112771   4.356   3.960   4.685  1.6092  0.9531 -1.5333
 4269TIP3    H212772   4.262   4.024   4.584  0.6655  1.6623 -0.2393
 4270TIP3   OH212773   1.642   2.177   2.704  0.1656 -0.3426 -0.6466
 4270TIP3    H112774   1.713   2.230   2.741 -1.4624  2.1172 -0.7984
 4270TIP3    H212775   1.579   2.170   2.775 -0.9072  0.3935 -1.5012
 4271TIP3   OH212776   4.631   6.057   3.353  0.5140 -0.0029 -0.1657
 4271TIP3    H112777   4.644   5.967   3.385  0.4864 -0.0072 -0.1669
 4271TIP3    H212778   4.654   6.053   3.260 -0.7841 -0.3037 -0.4905
 4272TIP3   OH212779   4.123   0.260   0.925  0.2218 -0.4468  0.2016
 4272TIP3    H112780   4.067   0.238   0.850  0.8383 -1.3607 -0.0090
 4272TIP3    H212781   4.122   0.181   0.979  2.0005 -0.8143 -0.2534
 4273TIP3   OH212782   3.649   1.268   0.388 -0.0446  0.2798  0.0771
 4273TIP3    H112783   3.611   1.182   0.401 -4.3191  1.7368 -1.1596
 4273TIP3    H212784   3.601   1.325   0.448  1.2370  2.1619 -0.5883
 4274TIP3   OH212785   2.908   5.129   4.463  0.6918  0.2338  0.4091
 4274TIP3    H112786   2.830   5.129   4.407  1.3429  0.1478 -0.5269
 4274TIP3    H212787   2.876   5.101   4.549 -0.0472 -1.4422 -0.3484
 4275TIP3   OH212788   1.138   3.203   2.680 -0.2259  0.5912  0.6237
 4275TIP3    H112789   1.141   3.292   2.646  1.7397  0.0331 -0.8973
 4275TIP3    H212790   1.227   3.186   2.711 -1.5512  0.6003  5.1940
 4276TIP3   OH212791   6.977   6.430   5.635 -0.3585 -0.2002 -0.2464
 4276TIP3    H112792   6.895   6.417   5.586 -0.9990 -0.1328  0.7670
 4276TIP3    H212793   6.985   6.351   5.689 -0.0960  0.0906  0.1401
 4277TIP3   OH212794   0.384   4.387   2.709  0.0364 -0.5023 -0.2906
 4277TIP3    H112795   0.382   4.428   2.796  2.3232 -0.2938 -0.2835
 4277TIP3    H212796   0.295   4.354   2.696 -0.8165  0.9730  1.3893
 4278TIP3   OH212797   1.227   6.607   2.626  0.1444 -0.1719  0.4624
 4278TIP3    H112798   1.313   6.573   2.648 -0.3586 -0.6271  1.8283
 4278TIP3    H212799   1.226   6.696   2.663 -0.3559 -0.5832  1.4875
 4279TIP3   OH212800   1.673   1.294   3.421 -0.2181 -0.1390  0.2596
 4279TIP3    H112801   1.657   1.202   3.402  0.1679 -0.5057  1.6126
 4279TIP3    H212802   1.716   1.328   3.342  3.1798 -2.0920  1.0618
 4280TIP3   OH212803   4.094   6.624   0.679  0.2763  0.5186  0.1795
 4280TIP3    H112804   4.034   6.558   0.643 -0.3213  1.3609 -0.4029
 4280TIP3    H212805   4.037   6.691   0.715  0.8853  0.7846  0.6633
 4281TIP3   OH212806   0.629   2.972   2.704 -0.3266  0.8046  0.0872
 4281TIP3    H112807   0.681   2.891   2.706  1.5707  1.9726  2.0115
 4281TIP3    H212808   0.642   3.006   2.616 -2.0820 -1.4603 -1.1581
 4282TIP3   OH212809   3.292   6.759   3.027 -0.2349 -0.2567  0.1548
 4282TIP3    H112810   3.361   6.797   3.080 -1.8127 -1.1484  3.0878
 4282TIP3    H212811   3.336   6.697   2.970  1.7165  1.8190 -0.7263
 4283TIP3   OH212812   4.037   5.036   2.231  0.4100  0.0687 -0.1587
 4283TIP3    H112813   4.108   5.036   2.295 -0.2060 -0.1513  0.5482
 4283TIP3    H212814   3.985   5.113   2.255  0.9971  0.8605 -1.3545
 4284TIP3   OH212815   1.733   6.126   5.810  0.2744 -0.3709  0.1940
 4284TIP3    H112816   1.711   6.141   5.902  0.6835  0.5015  0.1572
 4284TIP3    H212817   1.810   6.180   5.794 -0.7356  0.7626 -1.0774
 4285TIP3   OH212818   4.875   5.707   2.644  0.4486  0.4866  0.4869
 4285TIP3    H112819   4.880   5.616   2.671  1.9503  0.7427  1.2265
 4285TIP3    H212820   4.789   5.737   2.674 -0.7291 -1.0605 -1.1571
 4286TIP3   OH212821   0.277   1.773   4.985  0.5496 -0.2771 -0.1852
 4286TIP3    H112822   0.352   1.747   4.931 -0.7965 -2.2130 -1.2729
 4286TIP3    H212823   0.210   1.707   4.966 -2.1988  2.4706 -0.8545
 4287TIP3   OH212824   2.833   0.114   5.460 -0.3341  1.2802 -0.4720
 4287TIP3    H112825   2.882   0.125   5.541  0.6381  1.1781 -1.0380
 4287TIP3    H212826   2.744   0.143   5.482 -0.0748  1.2763  0.6145
 4288TIP3   OH212827   1.604   3.072   4.192  0.0404  0.1578  0.4440
 4288TIP3    H112828   1.659   3.000   4.222 -0.3026 -0.9851 -1.5240
 4288TIP3    H212829   1.535   3.078   4.257  0.0449 -1.3430  0.6184
 4289TIP3   OH212830   5.287   3.123   0.963 -0.2698  0.4538  0.1476
 4289TIP3    H112831   5.311   3.196   1.020 -0.2728  0.4562  0.1457
 4289TIP3    H212832   5.368   3.071   0.955 -0.0990  0.7911 -0.3518
 4290TIP3   OH212833   4.510   1.644   1.314  1.0231 -0.6559 -0.7350
 4290TIP3    H112834   4.532   1.688   1.232  1.2886 -1.9314 -1.3701
 4290TIP3    H212835   4.588   1.592   1.335  0.7674 -0.7269  0.0639
 4291TIP3   OH212836   5.578   1.264   5.428  0.1522 -0.5181  0.4057
 4291TIP3    H112837   5.608   1.197   5.366  0.6122  0.1807 -0.1388
 4291TIP3    H212838   5.533   1.329   5.373 -1.2628 -0.9096  1.0565
 4292TIP3   OH212839   4.621   4.005   4.192 -0.5270  0.0367  0.2108
 4292TIP3    H112840   4.712   4.033   4.207 -0.6884  1.6049 -1.4232
 4292TIP3    H212841   4.628   3.912   4.169  0.6258  0.0517  0.4292
 4293TIP3   OH212842   3.677   5.538   3.742  0.3862  0.0136  0.3650
 4293TIP3    H112843   3.646   5.504   3.657  0.1601 -0.5260  0.6578
 4293TIP3    H212844   3.680   5.461   3.798  1.2029  0.2493  0.6576
 4294TIP3   OH212845   3.573   6.376   0.860 -0.4961  0.2085  0.3298
 4294TIP3    H112846   3.572   6.295   0.808  2.4646 -0.4000  1.0240
 4294TIP3    H212847   3.613   6.441   0.803 -1.0111  0.6535  0.4683
 4295TIP3   OH212848   3.558   2.837   0.972  0.4170  0.5039 -0.0930
 4295TIP3    H112849   3.570   2.827   1.067 -1.2536  1.0491  0.2095
 4295TIP3    H212850   3.473   2.881   0.963 -0.4808 -1.4360 -1.9025
 4296TIP3   OH212851   2.751   6.348   4.005  0.3910 -0.2534  0.3939
 4296TIP3    H112852   2.718   6.301   4.081  0.6804 -1.2944 -0.0963
 4296TIP3    H212853   2.705   6.310   3.931 -1.2264  1.9865  0.1532
 4297TIP3   OH212854   2.078   3.910   5.296  0.6091  0.1081 -0.2160
 4297TIP3    H112855   2.059   3.995   5.258  1.7012 -0.1904 -1.5527
 4297TIP3    H212856   2.053   3.917   5.388  1.0548  1.9983 -0.2080
 4298TIP3   OH212857   5.976   1.921   3.781 -0.1824  0.2661 -0.1385
 4298TIP3    H112858   6.018   1.842   3.814  0.5449  0.0713 -1.4649
 4298TIP3    H212859   5.920   1.951   3.853  2.2820  0.5875  1.7564
 4299TIP3   OH212860   4.938   3.431   0.346 -0.0374  0.4103 -0.0435
 4299TIP3    H112861   4.917   3.372   0.273  0.5102  1.3845 -1.0050
 4299TIP3    H212862   4.855   3.474   0.367 -0.6631 -1.3114  1.2777
 4300TIP3   OH212863   6.596   1.226   0.546 -0.4625  0.3512 -0.2588
 4300TIP3    H112864   6.580   1.147   0.598 -0.9438  0.9529  0.5254
 4300TIP3    H212865   6.598   1.297   0.610  0.2359  0.9550 -0.9230
 4301TIP3   OH212866   4.514   5.123   1.110  0.0420 -0.3672  0.5873
 4301TIP3    H112867   4.493   5.188   1.043 -0.0354 -0.3580  0.6209
 4301TIP3    H212868   4.519   5.173   1.191  1.1353 -0.2097  0.4370
 4302TIP3   OH212869   7.017   3.786   2.303  0.1442  0.6877  0.4277
 4302TIP3    H112870   7.007   3.748   2.216  0.5108 -0.1986  0.7585
 4302TIP3    H212871   7.049   3.714   2.357 -1.7087  0.7618  1.6989
 4303TIP3   OH212872   5.126   4.366   0.806 -0.0073  0.5549 -0.0620
 4303TIP3    H112873   5.152   4.275   0.819 -0.3235  0.7104  1.9425
 4303TIP3    H212874   5.036   4.361   0.774  0.1302  0.1649 -0.3896
 4304TIP3   OH212875   0.726   0.986   2.269  0.1257  0.1108 -0.4405
 4304TIP3    H112876   0.674   1.001   2.348 -1.2178  2.1673 -1.6193
 4304TIP3    H212877   0.688   0.907   2.230  0.0489 -0.2557  0.3437
 4305TIP3   OH212878   6.672   2.410   1.228  0.1368 -0.1024  0.4911
 4305TIP3    H112879   6.686   2.437   1.319 -0.6035  1.3155  0.2107
 4305TIP3    H212880   6.624   2.327   1.235 -3.4727  1.8310  1.5268
 4306TIP3   OH212881   3.168   2.208   2.258 -0.3066  0.2243 -0.3609
 4306TIP3    H112882   3.086   2.165   2.235 -1.3469  1.0674  1.5257
 4306TIP3    H212883   3.166   2.292   2.212  0.5035 -0.5621 -1.9336
 4307TIP3   OH212884   1.228   2.409   3.195  0.2366  0.0944 -0.0742
 4307TIP3    H112885   1.204   2.488   3.243 -0.3636  0.5575 -1.1037
 4307TIP3    H212886   1.146   2.362   3.182  0.4042 -0.0842 -0.5245
 4308TIP3   OH212887   6.822   2.741   2.112  0.3206  0.6429 -0.4042
 4308TIP3    H112888   6.765   2.789   2.052 -0.4942 -0.4777 -0.5740
 4308TIP3    H212889   6.774   2.739   2.194  0.4854  0.3911 -0.3123
 4309TIP3   OH212890   4.997   6.597   4.466  0.0713 -0.4739 -0.2897
 4309TIP3    H112891   4.918   6.645   4.444 -0.5399 -0.1224  2.2594
 4309TIP3    H212892   4.983   6.509   4.432 -2.0434 -0.7886  1.2023
 4310TIP3   OH212893   6.226   0.753   1.314  0.2111  0.2446 -0.1091
 4310TIP3    H112894   6.193   0.677   1.265 -0.5821  0.8828 -0.5901
 4310TIP3    H212895   6.242   0.720   1.402 -0.0893 -0.4929 -0.3259
 4311TIP3   OH212896   3.348   2.896   5.629 -0.1239 -0.2408 -0.5670
 4311TIP3    H112897   3.436   2.935   5.633  0.2835 -1.2487  1.5454
 4311TIP3    H212898   3.316   2.899   5.719 -1.6229 -1.3253 -1.0287
 4312TIP3   OH212899   4.448   3.152   4.538  0.1783  0.1511  0.2916
 4312TIP3    H112900   4.361   3.117   4.517  0.7553 -1.3110  0.2630
 4312TIP3    H212901   4.440   3.183   4.628 -0.6985  1.1736 -0.1073
 4313TIP3   OH212902   6.822   0.264   4.339  0.0634  0.6156 -0.5021
 4313TIP3    H112903   6.730   0.236   4.337  0.5513 -1.7352  2.3297
 4313TIP3    H212904   6.872   0.185   4.321  1.5012  0.8325  2.0053
 4314TIP3   OH212905   6.838   1.327   1.634 -0.0164  0.6901 -0.2615
 4314TIP3    H112906   6.828   1.234   1.654 -0.4358  0.3761 -1.8122
 4314TIP3    H212907   6.809   1.336   1.543 -0.9084  2.5070  0.1428
 4315TIP3   OH212908   3.999   2.573   0.445 -0.7400 -0.3132 -0.2312
 4315TIP3    H112909   3.968   2.659   0.414 -0.3529  0.3326  1.0973
 4315TIP3    H212910   4.051   2.593   0.523  0.6398 -1.6379 -0.7786
 4316TIP3   OH212911   5.114   1.533   1.534  0.7777 -0.0618 -0.5765
 4316TIP3    H112912   5.149   1.514   1.621 -1.5843 -3.0705 -0.1233
 4316TIP3    H212913   5.059   1.611   1.548  1.3253  0.1847  0.3316
 4317TIP3   OH212914   5.623   1.610   0.388  0.0265  0.3405 -0.6812
 4317TIP3    H112915   5.664   1.603   0.474  0.4876  1.0150 -0.8371
 4317TIP3    H212916   5.691   1.646   0.332 -0.0180 -0.8374 -1.5280
 4318TIP3   OH212917   4.310   3.256   0.296 -0.0407 -0.1131  0.3178
 4318TIP3    H112918   4.381   3.246   0.232 -0.5365  1.7186 -0.5680
 4318TIP3    H212919   4.352   3.295   0.373 -0.0302  0.7170 -0.1049
 4319TIP3   OH212920   4.257   5.035   5.870 -0.4625  0.0047 -0.0137
 4319TIP3    H112921   4.299   5.115   5.903  0.6783 -0.5417 -0.0712
 4319TIP3    H212922   4.299   5.019   5.785 -1.1464 -0.2969 -0.3000
 4320TIP3   OH212923   2.257   6.145   3.688  0.3621  0.3551  0.1843
 4320TIP3    H112924   2.211   6.202   3.750  0.2203 -0.4502  0.8320
 4320TIP3    H212925   2.198   6.137   3.614 -0.7139 -0.9084  1.1340
 4321TIP3   OH212926   2.701   0.776   3.767 -0.1851  0.2966  0.1462
 4321TIP3    H112927   2.638   0.782   3.838  1.3050  3.1393  1.3998
 4321TIP3    H212928   2.774   0.726   3.803  0.5553  1.7077  0.6656
 4322TIP3   OH212929   6.003   0.266   5.587  0.9012 -0.1720  0.0989
 4322TIP3    H112930   6.051   0.260   5.669  1.5663  0.2570 -0.2518
 4322TIP3    H212931   6.071   0.281   5.521  0.3120  0.1298 -0.4431
 4323TIP3   OH212932   7.011   1.555   0.316  0.9310 -0.2162  0.2932
 4323TIP3    H112933   6.964   1.543   0.399 -0.0339  0.1361 -0.1780
 4323TIP3    H212934   7.082   1.491   0.320  1.4458  0.4010  1.7670
 4324TIP3   OH212935   3.551   5.818   2.283 -0.7485 -0.7077  0.3611
 4324TIP3    H112936   3.547   5.753   2.213  1.4154 -0.6308  0.1132
 4324TIP3    H212937   3.507   5.895   2.245 -0.5410 -1.0055 -0.5185
 4325TIP3   OH212938   0.529   1.219   3.020 -0.4761  0.0559 -0.2500
 4325TIP3    H112939   0.463   1.171   3.070 -0.9163  0.1079 -0.7828
 4325TIP3    H212940   0.535   1.173   2.937  0.3441 -0.0985 -0.1184
 4326TIP3   OH212941   3.378   6.521   3.992  0.3197  0.4566  0.0211
 4326TIP3    H112942   3.347   6.607   3.964  0.3958  0.4241 -0.1695
 4326TIP3    H212943   3.441   6.539   4.061 -0.5688  0.4950  0.8415
 4327TIP3   OH212944   7.234   2.433   5.627  0.4176  0.2698  0.2850
 4327TIP3    H112945   7.198   2.485   5.699  0.0134  0.6391 -0.1769
 4327TIP3    H212946   7.162   2.375   5.602  0.8440 -0.4836  0.7550
 4328TIP3   OH212947   0.564   4.819   3.978 -0.4128  0.1741  0.1157
 4328TIP3    H112948   0.607   4.904   3.968 -0.5052 -0.0348 -2.6402
 4328TIP3    H212949   0.507   4.831   4.055 -2.2596  3.4624 -1.5126
 4329TIP3   OH212950   3.245   4.528   5.230  0.3254 -0.5741 -0.1940
 4329TIP3    H112951   3.240   4.433   5.231  0.4803 -0.6352 -1.8655
 4329TIP3    H212952   3.157   4.556   5.204  0.2886 -0.2608  0.2636
 4330TIP3   OH212953   3.755   0.726   5.683 -0.3112  0.0217  0.5903
 4330TIP3    H112954   3.690   0.790   5.713 -0.5228  1.2525 -2.1704
 4330TIP3    H212955   3.835   0.749   5.730 -1.0273  0.6105  1.5691
 4331TIP3   OH212956   0.110   0.071   2.274 -0.4855 -0.1245 -0.1727
 4331TIP3    H112957   0.073   0.067   2.362 -0.7752 -0.1862 -0.2958
 4331TIP3    H212958   0.081  -0.010   2.232 -0.8359  0.1788 -0.5183
 4332TIP3   OH212959   3.525   2.773   0.019 -0.3593 -0.0789  0.4910
 4332TIP3    H112960   3.565   2.778  -0.068 -0.9723  0.2976  0.2267
 4332TIP3    H212961   3.548   2.685   0.050  0.3278 -0.0147  0.1797
 4333TIP3   OH212962   2.741   6.786   3.677  0.0418 -0.0210  0.6758
 4333TIP3    H112963   2.699   6.717   3.628  0.3107  0.6654 -0.5682
 4333TIP3    H212964   2.827   6.750   3.701 -0.6897 -0.9286  2.0524
 4334TIP3   OH212965   1.363   6.541   3.214  0.1285  0.3398  0.1145
 4334TIP3    H112966   1.382   6.515   3.124 -0.1027  0.6677 -0.0331
 4334TIP3    H212967   1.271   6.515   3.227  0.8805 -2.0825  1.1228
 4335TIP3   OH212968   5.892   4.199   2.463 -0.3915 -0.6433 -0.7285
 4335TIP3    H112969   5.830   4.271   2.455  1.2090  0.7786 -0.9855
 4335TIP3    H212970   5.925   4.185   2.373  1.3033  0.2141 -0.2895
 4336TIP3   OH212971   5.507   0.677   1.572  0.3856 -0.1449  0.3379
 4336TIP3    H112972   5.521   0.765   1.608 -0.6096  0.2766 -0.2732
 4336TIP3    H212973   5.417   0.656   1.596  0.0756 -0.3210 -0.9243
 4337TIP3   OH212974   6.049   4.377   3.935  0.4740 -0.0591  0.5070
 4337TIP3    H112975   5.984   4.312   3.909  0.3536 -0.2542  1.2509
 4337TIP3    H212976   6.129   4.327   3.951  0.9035  0.2207 -0.7082
 4338TIP3   OH212977   3.541   0.841   3.098 -0.0374  0.0656 -0.0789
 4338TIP3    H112978   3.521   0.849   3.192 -0.1118  4.1428 -0.2751
 4338TIP3    H212979   3.455   0.835   3.056 -0.1535  1.0143 -0.0001
 4339TIP3   OH212980   3.350   2.218   4.533 -0.4672 -0.2304  0.1642
 4339TIP3    H112981   3.273   2.254   4.577 -1.1142  0.1007 -1.1959
 4339TIP3    H212982   3.424   2.264   4.573 -0.6614 -2.4087  3.3900
 4340TIP3   OH212983   3.329   1.679   0.603 -0.0545 -0.4107 -0.3871
 4340TIP3    H112984   3.241   1.658   0.570 -0.2715  0.1831 -0.1944
 4340TIP3    H212985   3.314   1.747   0.669  0.4854 -0.7920  0.1343
 4341TIP3   OH212986   6.474   6.789   0.468  0.0499 -0.2639  0.3246
 4341TIP3    H112987   6.533   6.781   0.543  0.6189  0.0463 -0.0837
 4341TIP3    H212988   6.397   6.738   0.493 -0.3220  0.8890  1.6665
 4342TIP3   OH212989   0.269   2.412   0.914  0.0687  0.2039 -0.0868
 4342TIP3    H112990   0.255   2.500   0.948 -0.0686 -0.1823  0.8932
 4342TIP3    H212991   0.322   2.424   0.835 -0.3111  1.1867 -0.2043
 4343TIP3   OH212992   0.319   0.362   1.936 -0.3215 -0.0539  0.3727
 4343TIP3    H112993   0.248   0.369   1.999 -1.9192  1.2071 -1.4389
 4343TIP3    H212994   0.388   0.313   1.982 -1.1571  1.2555  3.2158
 4344TIP3   OH212995   0.399   1.964   1.743  0.0756 -0.0242  0.0546
 4344TIP3    H112996   0.340   1.927   1.809 -1.8438 -1.8146 -2.4482
 4344TIP3    H212997   0.427   1.889   1.691  2.1696  1.2142 -0.7291
 4345TIP3   OH212998   6.804   3.566   1.125  0.3549 -0.0001  0.3156
 4345TIP3    H112999   6.859   3.505   1.075 -0.9874 -1.1577  0.1857
 4345TIP3    H213000   6.783   3.518   1.205  0.5034  0.9062  0.9130
 4346TIP3   OH213001   6.649   2.902   3.109 -0.2541  0.0752 -0.2857
 4346TIP3    H113002   6.578   2.959   3.139 -1.1622 -0.9476 -0.4404
 4346TIP3    H213003   6.725   2.960   3.100 -0.6714  0.9200  1.3107
 4347TIP3   OH213004   5.296   1.167   3.412  0.2407 -0.2321 -0.7051
 4347TIP3    H113005   5.234   1.132   3.476  0.4851  1.5948  0.6132
 4347TIP3    H213006   5.381   1.135   3.441  0.4014  0.9288  0.1897
 4348TIP3   OH213007   1.101   2.618   2.951  0.1276 -0.0506  0.0256
 4348TIP3    H113008   1.163   2.691   2.953 -0.2166  0.2372  0.6958
 4348TIP3    H213009   1.152   2.543   2.922 -0.1162  1.0003 -3.5135
 4349TIP3   OH213010   5.901   5.375   1.239  0.2018 -0.8585 -0.0942
 4349TIP3    H113011   5.810   5.371   1.268  0.1516 -0.3813 -0.1772
 4349TIP3    H213012   5.938   5.449   1.287  0.9263 -1.8697  0.9674
 4350TIP3   OH213013   3.869   2.718   3.885 -0.2191  0.0996 -0.0366
 4350TIP3    H113014   3.959   2.692   3.863  0.0450 -0.9790  2.0136
 4350TIP3    H213015   3.877   2.760   3.970 -1.7469 -0.8380  0.6146
 4351TIP3   OH213016   5.025   6.365   2.742 -0.2212 -0.4496 -0.4810
 4351TIP3    H113017   5.059   6.285   2.783 -0.2651 -0.1768  0.0999
 4351TIP3    H213018   4.932   6.348   2.729 -1.0652  0.7709  2.9302
 4352TIP3   OH213019   6.514   1.445   3.817  0.1926 -0.2865 -0.2759
 4352TIP3    H113020   6.500   1.467   3.909  0.6269  0.7872 -0.4542
 4352TIP3    H213021   6.512   1.349   3.815  1.6190 -0.3831  1.0894
 4353TIP3   OH213022   0.314   0.287   3.605  0.8180 -0.2550  0.9088
 4353TIP3    H113023   0.254   0.261   3.535 -0.9167  1.7138  1.5523
 4353TIP3    H213024   0.309   0.216   3.669 -0.1474 -0.5310  0.5384
 4354TIP3   OH213025   2.200   1.508   5.192  0.1790  0.5130  0.2228
 4354TIP3    H113026   2.238   1.498   5.105 -0.6449  0.4727 -0.1346
 4354TIP3    H213027   2.214   1.600   5.214  1.6683  0.2105  0.6658
 4355TIP3   OH213028   1.256   5.434   4.303 -0.0601  0.3364 -0.0147
 4355TIP3    H113029   1.320   5.402   4.240 -0.3532  1.0511 -0.6894
 4355TIP3    H213030   1.264   5.374   4.378  0.7174 -0.1514 -0.4741
 4356TIP3   OH213031   3.485   4.019   5.828 -0.5949  0.0094  0.1508
 4356TIP3    H113032   3.572   3.994   5.796 -1.0411 -2.0771  0.3915
 4356TIP3    H213033   3.498   4.039   5.921 -0.0420  1.8649 -0.2823
 4357TIP3   OH213034   5.246   1.015   2.438 -0.0704  0.1445 -0.5202
 4357TIP3    H113035   5.247   0.961   2.517 -1.1154  2.1004  0.9403
 4357TIP3    H213036   5.193   0.965   2.376 -0.9043 -0.5987  0.7322
 4358TIP3   OH213037   3.370   3.967   4.475  0.4751 -0.3026  0.1348
 4358TIP3    H113038   3.342   4.058   4.488 -2.0240 -0.9708  0.0682
 4358TIP3    H213039   3.367   3.929   4.563  1.3519 -0.3860  0.1356
 4359TIP3   OH213040   3.956   1.684   5.718 -0.5631  0.3147 -0.0229
 4359TIP3    H113041   3.910   1.730   5.648 -0.0420  0.5247 -0.2286
 4359TIP3    H213042   4.038   1.731   5.729 -1.3133  1.2885  1.8552
 4360TIP3   OH213043   3.308   2.867   2.852 -0.2068  0.1974 -0.0424
 4360TIP3    H113044   3.304   2.840   2.944 -1.2762 -1.2374 -0.4829
 4360TIP3    H213045   3.250   2.944   2.848 -1.2418 -0.5458  0.2381
 4361TIP3   OH213046   0.748   5.106   5.428 -0.2316  0.1108 -0.0622
 4361TIP3    H113047   0.713   5.020   5.451 -1.2351  0.1982 -1.1505
 4361TIP3    H213048   0.696   5.133   5.352 -0.6266  2.1115  0.8617
 4362TIP3   OH213049   6.344   3.923   1.257  0.0772  0.1754 -0.4345
 4362TIP3    H113050   6.406   3.861   1.294  0.3447  1.0133  0.5820
 4362TIP3    H213051   6.361   4.005   1.304 -0.6028  0.8922 -1.3799
 4363TIP3   OH213052   5.823   5.060   0.861  0.5859  0.4351 -0.7600
 4363TIP3    H113053   5.796   5.096   0.945  0.8612 -1.5843  0.2631
 4363TIP3    H213054   5.764   5.101   0.797 -0.8328  0.6865  0.6515
 4364TIP3   OH213055   2.729   3.418   4.086 -0.2867  0.5880  0.3306
 4364TIP3    H113056   2.779   3.487   4.042  0.5385 -0.9040 -1.1985
 4364TIP3    H213057   2.795   3.365   4.130 -0.5020 -1.0275 -1.1801
 4365TIP3   OH213058   1.475   4.610   1.154  0.0541 -0.0373  0.3586
 4365TIP3    H113059   1.524   4.681   1.195  2.2577 -0.4372 -1.4106
 4365TIP3    H213060   1.499   4.531   1.204 -0.3030  0.0362  0.6560
 4366TIP3   OH213061   0.781   6.778   1.982  0.0358 -0.0621  0.4731
 4366TIP3    H113062   0.803   6.848   1.921 -0.2254  0.2056  0.6856
 4366TIP3    H213063   0.866   6.739   2.004  0.3576  1.1655  1.5345
 4367TIP3   OH213064   1.883   3.681   4.831 -0.1830  0.1273  0.0476
 4367TIP3    H113065   1.910   3.607   4.776 -1.5048 -0.3759  0.0419
 4367TIP3    H213066   1.960   3.699   4.885  0.2676 -1.0767 -0.1485
 4368TIP3   OH213067   0.068   1.568   2.770  0.4993 -0.0161  0.1550
 4368TIP3    H113068   0.088   1.508   2.842  1.6897 -0.2366 -0.3333
 4368TIP3    H213069   0.154   1.600   2.741 -0.0104  0.6323 -0.6879
 4369TIP3   OH213070   6.446   1.768   4.632 -0.0492 -0.1292 -0.2047
 4369TIP3    H113071   6.458   1.839   4.697 -0.5126  0.0302 -0.2910
 4369TIP3    H213072   6.415   1.813   4.554 -1.7595 -0.5720  0.1717
 4370TIP3   OH213073   4.498   3.656   5.894  0.0415  0.0677  0.2114
 4370TIP3    H113074   4.466   3.617   5.813 -0.0191  1.8464 -0.6642
 4370TIP3    H213075   4.588   3.683   5.874  0.5931 -0.8745  1.2577
 4371TIP3   OH213076   6.536   5.980   1.977  0.2421  0.0438 -0.5752
 4371TIP3    H113077   6.511   5.888   1.966  0.3955  0.1199 -1.6898
 4371TIP3    H213078   6.465   6.018   2.028  0.0011 -0.6203 -0.4012
 4372TIP3   OH213079   5.157   2.649   3.377  0.4185 -0.1515  0.0598
 4372TIP3    H113080   5.205   2.590   3.319  0.1906 -0.4971  0.2266
 4372TIP3    H213081   5.202   2.733   3.367  0.7777 -0.3649 -0.1294
 4373TIP3   OH213082   6.515   4.076   5.017  0.2531 -0.3285  0.1412
 4373TIP3    H113083   6.455   4.103   5.086 -0.5516 -0.5486 -0.4614
 4373TIP3    H213084   6.596   4.053   5.063  0.1429  0.7007  0.8898
 4374TIP3   OH213085   1.167   2.264   1.281  0.3689  0.2511  0.4439
 4374TIP3    H113086   1.175   2.265   1.376 -2.3806  0.0564  0.7498
 4374TIP3    H213087   1.214   2.185   1.254  0.2184 -0.3136  1.7514
 4375TIP3   OH213088   1.370   1.088   0.918  0.1781 -0.6962 -0.2725
 4375TIP3    H113089   1.381   1.019   0.853  1.6844 -0.8701  0.1157
 4375TIP3    H213090   1.352   1.042   1.000 -3.0812 -0.4405 -0.7146
 4376TIP3   OH213091   0.336   3.970   5.600 -0.8916 -0.0867 -0.6889
 4376TIP3    H113092   0.274   3.900   5.581 -0.4138 -0.8448  0.3825
 4376TIP3    H213093   0.330   4.030   5.526 -1.4928 -1.1431 -1.5159
 4377TIP3   OH213094   1.224   5.464   3.294 -0.4312  0.6942  0.3495
 4377TIP3    H113095   1.183   5.546   3.322 -0.4095  0.9703 -0.4242
 4377TIP3    H213096   1.188   5.447   3.208  0.6412  0.6447 -0.1084
 4378TIP3   OH213097   2.031   1.883   1.291  0.4492 -0.1760 -0.4561
 4378TIP3    H113098   2.053   1.931   1.211 -1.0202  0.1846 -0.6633
 4378TIP3    H213099   1.936   1.872   1.288  0.4275 -0.6428  0.9747
 4379TIP3   OH213100   0.429   6.261   1.589 -0.0601 -0.6749 -0.1398
 4379TIP3    H113101   0.448   6.326   1.657  0.4620 -0.1560 -0.7664
 4379TIP3    H213102   0.419   6.313   1.509 -0.4878 -1.2966 -0.4932
 4380TIP3   OH213103   0.595   6.207   4.367 -0.2154 -0.3940  0.3601
 4380TIP3    H113104   0.530   6.245   4.308  0.6640 -1.0883 -1.0985
 4380TIP3    H213105   0.585   6.256   4.449 -1.1828  0.8664 -0.4861
 4381TIP3   OH213106   1.723   1.022   5.863  0.0710 -0.5509  0.0272
 4381TIP3    H113107   1.771   1.039   5.944 -1.1119  1.3909  0.3823
 4381TIP3    H213108   1.762   0.942   5.828  2.5574  0.1312  1.0317
 4382TIP3   OH213109   3.929   0.480   3.823  0.4595 -0.0166  0.1862
 4382TIP3    H113110   3.936   0.468   3.729 -1.4013  4.5209 -0.8375
 4382TIP3    H213111   3.835   0.474   3.841  0.7618 -0.5757  1.7321
 4383TIP3   OH213112   0.306   3.170   5.318 -0.3433  0.2797 -0.1309
 4383TIP3    H113113   0.386   3.128   5.289  0.5363  0.4096  1.9205
 4383TIP3    H213114   0.241   3.147   5.252  0.8245 -1.7794 -0.6521
 4384TIP3   OH213115   1.194   0.123   2.423 -0.1125  0.0003 -0.0421
 4384TIP3    H113116   1.268   0.096   2.477  0.6398  0.8171 -0.6349
 4384TIP3    H213117   1.168   0.043   2.377  0.5732 -0.2438 -0.0234
 4385TIP3   OH213118   3.205   1.479   5.786  0.5033 -0.5126  0.4924
 4385TIP3    H113119   3.144   1.508   5.854 -0.9002  0.6126 -1.1789
 4385TIP3    H213120   3.150   1.435   5.722  1.4169  0.5479 -1.0817
 4386TIP3   OH213121   1.655   2.697   3.042 -0.2031  0.1405  0.3509
 4386TIP3    H113122   1.631   2.702   3.135 -0.6559 -2.5660  0.4481
 4386TIP3    H213123   1.723   2.630   3.039 -0.0852  0.3075 -1.2735
 4387TIP3   OH213124   6.397   6.087   0.637 -0.0478  0.0644  0.3775
 4387TIP3    H113125   6.378   6.041   0.719  1.3166  0.0466  0.7038
 4387TIP3    H213126   6.484   6.057   0.612 -0.6460 -0.3713 -1.3984
 4388TIP3   OH213127   6.975   6.649   4.387  0.5661  0.1878  0.0985
 4388TIP3    H113128   7.008   6.559   4.387 -0.5863 -0.3414 -2.2319
 4388TIP3    H213129   7.001   6.684   4.302 -2.5317  0.5646 -0.8335
 4389TIP3   OH213130   0.439   6.273   3.305  0.4049  0.2958 -0.4606
 4389TIP3    H113131   0.456   6.202   3.367  0.4177 -0.0927 -0.9069
 4389TIP3    H213132   0.475   6.242   3.222 -0.1141  0.5762 -0.7960
 4390TIP3   OH213133   0.499   1.819   2.492 -0.0153  0.1457  0.1050
 4390TIP3    H113134   0.505   1.910   2.462 -0.0313  0.2031  0.2743
 4390TIP3    H213135   0.521   1.767   2.415 -0.8189  0.2681 -0.2206
 4391TIP3   OH213136   0.699   6.328   0.234 -0.1715 -0.7149 -0.1000
 4391TIP3    H113137   0.690   6.232   0.231 -2.2151 -0.5741  0.1593
 4391TIP3    H213138   0.678   6.351   0.324  0.6551 -0.0227 -0.0713
 4392TIP3   OH213139   1.037   3.165   4.963  0.1751  0.2690 -0.4594
 4392TIP3    H113140   0.968   3.228   4.980  0.7342  1.1715 -1.4324
 4392TIP3    H213141   0.992   3.081   4.957 -0.6511  0.6448  0.2896
 4393TIP3   OH213142   3.843   4.061   4.981  0.2349 -0.0918  0.2864
 4393TIP3    H113143   3.880   4.148   4.969  2.3037 -1.1030 -1.5209
 4393TIP3    H213144   3.893   4.024   5.054 -0.4178  0.1014  0.8398
 4394TIP3   OH213145   2.418   1.505   0.762  0.7363 -0.0517 -0.1131
 4394TIP3    H113146   2.347   1.476   0.703  2.3075  1.6792 -3.1100
 4394TIP3    H213147   2.398   1.597   0.779  2.8171  0.8513 -2.0969
 4395TIP3   OH213148   3.376   0.889   3.869  0.3143  0.1671  0.4515
 4395TIP3    H113149   3.372   0.796   3.844 -0.1373  0.4948 -0.7843
 4395TIP3    H213150   3.394   0.934   3.786 -0.4897  1.2658  0.8665
 4396TIP3   OH213151   0.427   0.895   0.196 -0.4089  0.6198  0.3101
 4396TIP3    H113152   0.435   0.803   0.223  0.2539  0.5567 -0.0701
 4396TIP3    H213153   0.350   0.897   0.139 -0.2834  0.2473  0.1231
 4397TIP3   OH213154   4.638   2.110   2.381  0.2210  0.8559  0.3825
 4397TIP3    H113155   4.643   2.202   2.354  2.0095  1.2477  1.8352
 4397TIP3    H213156   4.719   2.071   2.348 -0.5656 -0.2402 -0.2930
 4398TIP3   OH213157   3.374   3.288   1.367 -0.3376 -0.3941 -0.2035
 4398TIP3    H113158   3.311   3.352   1.400 -0.2884  0.8396 -2.3323
 4398TIP3    H213159   3.338   3.260   1.283  2.4190  1.2906 -2.1155
 4399TIP3   OH213160   4.844   4.283   3.349 -1.2664 -0.2770 -0.0337
 4399TIP3    H113161   4.879   4.354   3.402 -1.0380 -1.6716  1.7718
 4399TIP3    H213162   4.902   4.280   3.272 -0.2318  0.3800  0.6922
 4400TIP3   OH213163   2.517   5.977   0.964  0.6512  0.3620 -0.5407
 4400TIP3    H113164   2.471   6.013   0.888 -1.8095  0.0964  0.7218
 4400TIP3    H213165   2.530   6.052   1.022  0.4943  0.1653 -0.2505
 4401TIP3   OH213166   5.133   4.059   3.066  0.0034 -0.7868 -0.8261
 4401TIP3    H113167   5.179   3.978   3.043  0.1674 -0.7739 -0.5400
 4401TIP3    H213168   5.201   4.118   3.096 -0.2613 -0.9775  0.2014
 4402TIP3   OH213169   0.478   5.855   2.495 -0.0890  0.7907 -0.3222
 4402TIP3    H113170   0.522   5.774   2.469 -0.5318  0.0625  1.0810
 4402TIP3    H213171   0.513   5.875   2.581  0.7728  2.7024 -1.0603
 4403TIP3   OH213172   1.958   2.787   3.256 -0.1857  0.1740 -0.2211
 4403TIP3    H113173   2.038   2.797   3.309 -0.8143  0.9606  0.6033
 4403TIP3    H213174   1.985   2.731   3.183  0.9739 -0.0599  0.3590
 4404TIP3   OH213175   3.074   6.570   2.379  0.0822 -0.4013 -0.1191
 4404TIP3    H113176   3.113   6.497   2.427  0.2180 -0.5744 -0.4881
 4404TIP3    H213177   2.990   6.537   2.348 -0.0550 -0.2534  0.0869
 4405TIP3   OH213178   5.537   4.298   4.763  0.0451 -0.2422 -0.4125
 4405TIP3    H113179   5.484   4.339   4.694  0.6972  0.7849 -0.3239
 4405TIP3    H213180   5.618   4.348   4.763  1.3013 -2.1745 -0.9599
 4406TIP3   OH213181   0.307   6.493   2.934 -0.1870  0.1693 -0.5643
 4406TIP3    H113182   0.383   6.547   2.956  1.7354 -1.9911 -1.5873
 4406TIP3    H213183   0.257   6.489   3.016  1.0942  1.1356  0.3104
 4407TIP3   OH213184   0.127   2.008   4.348  0.0444  0.1168  0.1034
 4407TIP3    H113185   0.056   1.961   4.305  0.0407  0.7610 -0.6272
 4407TIP3    H213186   0.131   1.971   4.436 -0.5609 -0.5909 -0.1555
 4408TIP3   OH213187   5.340   2.129   1.898  0.2564  0.0888 -0.0170
 4408TIP3    H113188   5.282   2.161   1.829  0.1075 -0.7330 -0.2880
 4408TIP3    H213189   5.416   2.187   1.894  0.3974 -0.1496 -1.0981
 4409TIP3   OH213190   4.983   2.444   3.971  0.2870 -0.2834  0.3381
 4409TIP3    H113191   4.932   2.395   4.035 -1.0223 -1.1106 -1.2451
 4409TIP3    H213192   4.923   2.456   3.897  1.2258  1.9353 -0.1718
 4410TIP3   OH213193   3.760   5.777   1.953  0.2442  0.6334  0.2726
 4410TIP3    H113194   3.781   5.729   2.033  1.2585  1.1505  0.3319
 4410TIP3    H213195   3.834   5.759   1.895  0.1188  1.2789 -0.0889
 4411TIP3   OH213196   2.122   6.720   0.602 -0.4063  0.0393  0.2385
 4411TIP3    H113197   2.058   6.653   0.577 -1.7374  1.4926 -0.4715
 4411TIP3    H213198   2.126   6.778   0.526  1.1543  0.4763  0.6043
 4412TIP3   OH213199   0.582   0.391   2.373 -0.2650  0.4524 -0.3437
 4412TIP3    H113200   0.651   0.327   2.354 -0.4922 -0.4509  1.6492
 4412TIP3    H213201   0.615   0.442   2.446 -1.4424  0.4091  0.2501
 4413TIP3   OH213202   1.046   4.601   2.726 -0.4659  0.0648  0.1934
 4413TIP3    H113203   1.014   4.552   2.650  0.6029 -0.2042 -0.1128
 4413TIP3    H213204   1.027   4.692   2.706 -1.0628 -0.0854  0.0510
 4414TIP3   OH213205   6.663   4.766   1.845  0.3745  0.5338 -0.4272
 4414TIP3    H113206   6.748   4.728   1.868  1.1844  1.7138 -1.3081
 4414TIP3    H213207   6.621   4.701   1.790  0.5439 -0.2168  0.3123
 4415TIP3   OH213208   6.131   6.191   4.815 -0.4327  0.0772 -0.0419
 4415TIP3    H113209   6.102   6.222   4.900 -0.1077  1.6418 -0.4695
 4415TIP3    H213210   6.179   6.111   4.834 -0.6891  0.1989  1.1996
 4416TIP3   OH213211   0.980   0.271   4.134 -0.3203  0.6929  0.1111
 4416TIP3    H113212   1.024   0.280   4.219  0.1739 -0.7257  0.0296
 4416TIP3    H213213   1.052   0.261   4.071 -0.7124  0.7889 -0.3554
 4417TIP3   OH213214   5.268   3.268   3.911 -0.4044 -0.1104  0.3995
 4417TIP3    H113215   5.177   3.244   3.926 -0.4597  0.4534  1.0309
 4417TIP3    H213216   5.284   3.341   3.970  0.0693  0.6895 -0.6673
 4418TIP3   OH213217   0.588   4.249   2.640  0.3887  0.1221  0.0694
 4418TIP3    H113218   0.519   4.308   2.668 -0.0486 -0.7597  0.9160
 4418TIP3    H213219   0.581   4.174   2.699  2.4234  0.2469  0.5369
 4419TIP3   OH213220   2.835   0.032   0.060  0.4677 -0.1536 -0.0508
 4419TIP3    H113221   2.845   0.085   0.139 -1.0961  1.5842 -0.9397
 4419TIP3    H213222   2.756  -0.020   0.076  0.1731  0.1698 -0.4241
 4420TIP3   OH213223   4.559   0.165   4.312  0.7051 -0.3854 -0.4312
 4420TIP3    H113224   4.581   0.146   4.403 -0.6041  1.1268  0.2598
 4420TIP3    H213225   4.470   0.131   4.300  0.8522 -0.5479 -1.1411
 4421TIP3   OH213226   5.635   1.795   1.741  0.1033 -0.4250  0.0685
 4421TIP3    H113227   5.675   1.872   1.780  0.8022 -1.6275  1.8933
 4421TIP3    H213228   5.698   1.765   1.676  0.4804 -0.2197  0.3360
 4422TIP3   OH213229   6.255   3.686   3.467 -0.3327 -0.0135 -0.1427
 4422TIP3    H113230   6.287   3.668   3.379 -1.9034 -0.8431 -0.5685
 4422TIP3    H213231   6.161   3.702   3.456 -0.6714 -0.7195  1.4475
 4423TIP3   OH213232   3.482   4.556   1.943  0.1156 -0.1489  0.6580
 4423TIP3    H113233   3.554   4.603   1.901 -0.5633 -1.3093 -2.0372
 4423TIP3    H213234   3.498   4.464   1.923 -0.1074 -0.8679  3.3623
 4424TIP3   OH213235   5.653   3.869   1.455  0.7831  0.5019 -1.0507
 4424TIP3    H113236   5.646   3.916   1.538  2.1629 -1.2899  0.1758
 4424TIP3    H213237   5.706   3.925   1.399  0.8084  1.2279 -0.3100
 4425TIP3   OH213238   1.089   1.677   4.490 -0.5807  0.6491 -0.7067
 4425TIP3    H113239   1.161   1.643   4.543  0.0901  0.3919 -1.7493
 4425TIP3    H213240   1.065   1.760   4.531  0.3506  0.7687 -0.3853
 4426TIP3   OH213241   0.689   4.201   0.264  0.3943  0.2503 -0.1126
 4426TIP3    H113242   0.698   4.106   0.258 -1.5953  0.0183 -0.0435
 4426TIP3    H213243   0.613   4.221   0.209  0.5660  1.7523  0.1659
 4427TIP3   OH213244   2.954   5.995   1.980 -0.0873  0.2573  0.3861
 4427TIP3    H113245   2.890   5.930   1.952  0.4289 -0.7729  1.4828
 4427TIP3    H213246   3.009   6.010   1.903 -0.4924 -0.2580 -0.0093
 4428TIP3   OH213247   7.034   1.594   4.585 -0.0588  0.3330  0.5344
 4428TIP3    H113248   7.001   1.669   4.634 -1.0822 -0.4552  1.0809
 4428TIP3    H213249   6.961   1.532   4.583  0.8878 -0.8207  0.4547
 4429TIP3   OH213250   5.839   4.370   5.071 -0.0116 -0.2229 -0.2619
 4429TIP3    H113251   5.835   4.451   5.021  2.2377  0.0671 -0.0679
 4429TIP3    H213252   5.911   4.320   5.030  1.9768  0.0421  2.6022
 4430TIP3   OH213253   0.394   1.690   3.282 -0.1380  0.0875  0.2913
 4430TIP3    H113254   0.363   1.741   3.357  0.2473  1.9230 -0.7375
 4430TIP3    H213255   0.488   1.709   3.277  0.1838 -1.3601  0.3171
 4431TIP3   OH213256   3.824   3.914   0.763  0.1251 -0.6427 -0.0596
 4431TIP3    H113257   3.830   3.997   0.717 -0.5412 -0.5961 -0.0721
 4431TIP3    H213258   3.915   3.886   0.775  0.3271 -1.3459 -2.6599
 4432TIP3   OH213259   3.127   2.237   3.081 -0.3134  0.2764  0.4297
 4432TIP3    H113260   3.068   2.236   3.156 -1.2769  1.0215 -0.2781
 4432TIP3    H213261   3.134   2.146   3.053  0.8830 -0.1571  2.0147
 4433TIP3   OH213262   3.454   4.965   1.034  0.3305 -0.2613 -0.2170
 4433TIP3    H113263   3.457   4.873   1.009 -1.1330 -0.3024 -0.3206
 4433TIP3    H213264   3.542   4.997   1.018  0.5860 -1.3846 -1.1911
 4434TIP3   OH213265   1.513   4.806   5.435 -0.2644  0.8038 -0.3941
 4434TIP3    H113266   1.528   4.883   5.380 -0.8108  1.2529  0.0672
 4434TIP3    H213267   1.454   4.751   5.384 -1.9306  1.8762  0.2908
 4435TIP3   OH213268   6.053   4.143   5.134 -0.1030 -0.1198 -0.2797
 4435TIP3    H113269   6.138   4.155   5.176 -1.0005  2.7356  0.9554
 4435TIP3    H213270   6.002   4.093   5.198  0.0925 -0.3192 -0.2744
 4436TIP3   OH213271   4.032   4.010   4.031  0.1818 -0.5416 -0.7699
 4436TIP3    H113272   3.958   3.972   4.078  0.5429 -1.4472 -0.9158
 4436TIP3    H213273   4.019   4.105   4.037 -1.8706 -0.6781 -2.1849
 4437TIP3   OH213274   1.634   4.653   2.662  0.1616 -0.0552  0.0420
 4437TIP3    H113275   1.654   4.716   2.731  0.7456 -0.7595  0.5410
 4437TIP3    H213276   1.674   4.571   2.693 -0.9895 -0.7893 -0.3579
 4438TIP3   OH213277   1.543   2.436   5.796 -0.3886 -0.2231  0.1629
 4438TIP3    H113278   1.636   2.425   5.775 -0.8073 -0.6764 -1.5994
 4438TIP3    H213279   1.498   2.379   5.734 -2.0014  2.2885 -1.1395
 4439TIP3   OH213280   5.375   0.062   4.723 -0.1153 -0.7218 -1.1098
 4439TIP3    H113281   5.453   0.114   4.748  0.1035 -1.5854  0.1036
 4439TIP3    H213282   5.333   0.041   4.807 -2.1990  0.4927 -1.7765
 4440TIP3   OH213283   7.106   5.439   3.675  0.0835  0.1615  0.2128
 4440TIP3    H113284   7.155   5.359   3.654  1.1416 -0.2643  3.6396
 4440TIP3    H213285   7.035   5.409   3.731 -1.3335  1.3391 -0.8931
 4441TIP3   OH213286   5.906   3.984   0.420  0.1598  0.1153 -0.0953
 4441TIP3    H113287   5.942   3.997   0.508  0.4964 -0.8420 -0.0722
 4441TIP3    H213288   5.901   4.071   0.382  2.3754  0.3219 -0.0404
 4442TIP3   OH213289   4.787   4.963   1.683 -0.1675 -0.1082 -0.4627
 4442TIP3    H113290   4.752   4.972   1.771 -1.2533  0.2287 -0.9096
 4442TIP3    H213291   4.803   5.052   1.653  0.6824 -0.2401 -0.4331
 4443TIP3   OH213292   5.725   0.114   1.544  0.1335 -0.3670 -0.4148
 4443TIP3    H113293   5.688   0.028   1.564  0.9347 -0.7329 -0.4667
 4443TIP3    H213294   5.818   0.097   1.528  0.5013  0.6514  0.5494
 4444TIP3   OH213295   6.716   1.554   2.404  0.2696 -0.3230 -0.1090
 4444TIP3    H113296   6.713   1.561   2.500  0.7964 -0.5892 -0.0726
 4444TIP3    H213297   6.624   1.554   2.378  0.1315  0.7263  0.3227
 4445TIP3   OH213298   5.752   2.049   4.689  0.5965 -0.2222 -0.2225
 4445TIP3    H113299   5.772   2.057   4.782  1.5408 -1.1311 -0.3328
 4445TIP3    H213300   5.657   2.042   4.686  0.6436 -2.0190  0.8435
 4446TIP3   OH213301   4.860   2.309   0.724 -0.4917  0.0541 -0.0454
 4446TIP3    H113302   4.767   2.307   0.703 -0.2764  1.0200 -1.2345
 4446TIP3    H213303   4.890   2.220   0.707 -1.0411 -0.0562 -0.4561
 4447TIP3   OH213304   2.569   2.686   5.743 -0.1878 -0.3021 -0.2936
 4447TIP3    H113305   2.582   2.623   5.815 -0.2685 -1.0093 -0.8834
 4447TIP3    H213306   2.477   2.709   5.748 -0.1511 -0.2040 -0.0516
 4448TIP3   OH213307   4.761   3.305   2.182 -0.0546  0.5127 -0.0749
 4448TIP3    H113308   4.729   3.344   2.263 -0.2050  0.7334 -0.2399
 4448TIP3    H213309   4.684   3.264   2.142  0.1304 -0.0836  0.1681
 4449TIP3   OH213310   0.715   5.287   3.752  0.1479  0.2532  0.1933
 4449TIP3    H113311   0.627   5.318   3.733 -0.2051  1.1344  2.8650
 4449TIP3    H213312   0.772   5.346   3.702 -0.7198  0.3515 -0.7156
 4450TIP3   OH213313   0.893   4.109   2.069 -0.1105 -0.3753 -0.5112
 4450TIP3    H113314   0.858   4.179   2.125  0.6648 -0.4192  0.0443
 4450TIP3    H213315   0.889   4.145   1.981  1.1146  0.7438 -0.1373
 4451TIP3   OH213316   6.537   3.987   0.456  0.1279 -0.3542 -0.1895
 4451TIP3    H113317   6.534   4.031   0.541 -0.7046 -0.2345 -0.2689
 4451TIP3    H213318   6.572   3.900   0.475 -1.2909 -0.8102  0.5171
 4452TIP3   OH213319   5.231   6.655   0.274 -0.4371  0.9046  0.0214
 4452TIP3    H113320   5.315   6.651   0.321  0.4266  0.1555 -1.4793
 4452TIP3    H213321   5.221   6.567   0.237 -1.4349  1.2497 -0.5702
 4453TIP3   OH213322   4.755   3.800   5.426  0.0627  0.4869  0.0716
 4453TIP3    H113323   4.829   3.849   5.462  0.5208 -1.2642  1.6602
 4453TIP3    H213324   4.796   3.733   5.371 -0.1866 -1.1045  1.7088
 4454TIP3   OH213325   0.045   5.260   4.653  0.0227  0.4581  0.1698
 4454TIP3    H113326   0.074   5.221   4.571  1.5380  1.2458  0.2944
 4454TIP3    H213327   0.124   5.301   4.689 -0.3686 -0.6564  2.4833
 4455TIP3   OH213328   2.096   2.576   2.861 -0.2338  0.0876  0.0163
 4455TIP3    H113329   2.081   2.622   2.778  0.8446  0.4612  0.0124
 4455TIP3    H213330   2.032   2.504   2.860 -1.5681  1.2257 -0.2373
 4456TIP3   OH213331   4.261   5.439   3.132 -0.4372 -0.6140  0.5303
 4456TIP3    H113332   4.213   5.399   3.204 -1.2305  2.4725  1.8931
 4456TIP3    H213333   4.196   5.491   3.085  0.8917  1.1414  0.4989
 4457TIP3   OH213334   1.345   0.420   5.101 -0.1947  0.1299 -0.5984
 4457TIP3    H113335   1.267   0.367   5.120  0.1302 -0.0014  0.3749
 4457TIP3    H213336   1.411   0.390   5.163  0.1175  1.4102 -0.2834
 4458TIP3   OH213337   2.988   4.228   5.627  0.7410  0.3490 -0.5803
 4458TIP3    H113338   2.999   4.272   5.711 -1.2667 -0.9518  0.4507
 4458TIP3    H213339   3.065   4.172   5.619  1.1085  0.7165  0.2433
 4459TIP3   OH213340   6.684   1.067   0.323 -0.0037 -0.3906  0.0268
 4459TIP3    H113341   6.735   1.105   0.251  2.8077  0.1276  2.1269
 4459TIP3    H213342   6.643   1.143   0.366  3.0493  0.1615  2.3104
 4460TIP3   OH213343   3.584   5.973   0.180 -0.0720  0.1501 -0.3136
 4460TIP3    H113344   3.537   5.942   0.257 -0.4863  0.2380 -0.5240
 4460TIP3    H213345   3.673   5.939   0.189 -0.5031 -1.0659 -0.5261
 4461TIP3   OH213346   2.649   4.220   0.365 -0.3192  0.2223 -0.4981
 4461TIP3    H113347   2.579   4.157   0.350 -1.9205  1.4268  1.4110
 4461TIP3    H213348   2.689   4.192   0.447 -1.0479  1.6339  0.3687
 4462TIP3   OH213349   2.113   0.307   3.071  0.0308  0.3330 -0.0701
 4462TIP3    H113350   2.049   0.247   3.032 -0.0648  0.7248 -0.5127
 4462TIP3    H213351   2.150   0.257   3.145  0.6751 -0.6530 -1.0240
 4463TIP3   OH213352   1.676   3.801   4.950  0.7836  0.3800  0.0568
 4463TIP3    H113353   1.597   3.748   4.946  1.1577 -0.3081  1.3083
 4463TIP3    H213354   1.741   3.751   4.901  1.0898 -0.2669  1.0919
 4464TIP3   OH213355   5.351   4.524   4.792 -0.1822 -0.5353  0.4301
 4464TIP3    H113356   5.367   4.597   4.732 -1.1340  0.5440  1.4560
 4464TIP3    H213357   5.419   4.532   4.859  0.6569 -1.5284 -0.2630
 4465TIP3   OH213358   4.159   5.946   2.751 -0.2145  0.0823 -0.0273
 4465TIP3    H113359   4.102   5.959   2.827  0.5423  0.8447  0.4167
 4465TIP3    H213360   4.123   6.005   2.685  0.2565  0.8402  0.3734
 4466TIP3   OH213361   5.155   2.519   0.382 -0.3324  0.4121  0.2271
 4466TIP3    H113362   5.112   2.505   0.466 -1.6409  1.2410 -0.2804
 4466TIP3    H213363   5.240   2.558   0.405 -1.1084  1.6460  1.1391
 4467TIP3   OH213364   3.271   5.972   2.377  0.3153  0.4235 -0.2596
 4467TIP3    H113365   3.184   6.012   2.378 -0.4063 -1.0816 -0.4373
 4467TIP3    H213366   3.296   5.972   2.285 -1.1257 -2.3893 -0.7762
 4468TIP3   OH213367   1.486   3.295   0.002  0.7090  0.1650  0.1509
 4468TIP3    H113368   1.547   3.231   0.037  0.5433  0.0926  0.3053
 4468TIP3    H213369   1.402   3.250  -0.003  0.4041  0.6025  1.0259
 4469TIP3   OH213370   4.021   4.378   1.114 -0.2425 -0.2184  0.3157
 4469TIP3    H113371   3.960   4.442   1.151  0.9116  1.6742 -0.8879
 4469TIP3    H213372   4.061   4.336   1.190 -0.2308  1.3014  1.1744
 4470TIP3   OH213373   3.176   3.669   0.483  0.3672 -0.6361  0.3321
 4470TIP3    H113374   3.133   3.585   0.500  0.2400 -0.6636 -0.1330
 4470TIP3    H213375   3.194   3.668   0.389  0.3480 -0.1313  0.3238
 4471TIP3   OH213376   6.495   0.200   0.915  0.1336 -0.2100 -0.3193
 4471TIP3    H113377   6.461   0.115   0.943  1.6558  0.0718  2.7814
 4471TIP3    H213378   6.566   0.178   0.854  2.4628 -1.4980  2.5972
 4472TIP3   OH213379   3.651   4.524   5.677 -0.5000 -0.2658  0.0923
 4472TIP3    H113380   3.719   4.591   5.686 -0.8388 -0.0189  0.9096
 4472TIP3    H213381   3.634   4.519   5.583  0.0993  0.2164 -0.0488
 4473TIP3   OH213382   0.093   4.557   3.915 -0.5756 -0.3414 -0.1311
 4473TIP3    H113383   0.152   4.616   3.963 -1.2281 -0.3689  0.7260
 4473TIP3    H213384   0.087   4.595   3.827 -0.1529  0.2683  0.0991
 4474TIP3   OH213385   0.217   5.031   4.125  0.0435 -0.2743  0.1591
 4474TIP3    H113386   0.224   4.950   4.176  0.0831  0.2061  0.9251
 4474TIP3    H213387   0.286   5.087   4.159 -2.2963  1.5373  2.3389
 4475TIP3   OH213388   6.477   2.642   5.857  0.0738  0.6892 -0.2847
 4475TIP3    H113389   6.505   2.620   5.769 -0.9045  1.4219 -0.7951
 4475TIP3    H213390   6.402   2.700   5.845 -1.1534 -0.5266  0.9997
 4476TIP3   OH213391   0.355   3.701   2.547  0.1000  0.0852  0.3274
 4476TIP3    H113392   0.348   3.671   2.638  0.5227  0.5017  0.5071
 4476TIP3    H213393   0.401   3.785   2.554  3.6081 -1.5952 -0.5492
 4477TIP3   OH213394   4.076   2.879   5.582  0.2812 -0.5743  0.9808
 4477TIP3    H113395   4.133   2.857   5.508 -1.1824  0.3372 -0.5025
 4477TIP3    H213396   4.098   2.815   5.649  0.6103 -2.4589 -0.8112
 4478TIP3   OH213397   2.943   2.167   5.073  0.8382  0.6324  0.3338
 4478TIP3    H113398   2.967   2.075   5.059  0.6141  0.8804 -2.3706
 4478TIP3    H213399   3.024   2.209   5.101  1.7257  0.0924 -1.2994
 4479TIP3   OH213400   0.885   1.477   3.753 -0.1391  0.0897  0.1641
 4479TIP3    H113401   0.805   1.531   3.747  1.1384  2.0644 -0.0414
 4479TIP3    H213402   0.941   1.511   3.683  1.1184 -0.8467  0.6999
 4480TIP3   OH213403   6.251   6.462   3.296  0.0366 -0.4248  0.2829
 4480TIP3    H113404   6.316   6.408   3.251 -2.2121 -3.6584  0.4890
 4480TIP3    H213405   6.201   6.503   3.225  1.7112  1.4350  0.1167
 4481TIP3   OH213406   5.172   1.147   4.259 -0.2865 -0.1735  0.0902
 4481TIP3    H113407   5.182   1.165   4.165 -0.5231 -2.4279 -0.4251
 4481TIP3    H213408   5.087   1.183   4.282  0.1864  1.2674 -0.2923
 4482TIP3   OH213409   6.638   2.316   3.730  0.2967 -0.2429  0.1917
 4482TIP3    H113410   6.558   2.312   3.679  0.7018  1.8850 -0.7254
 4482TIP3    H213411   6.612   2.362   3.810  0.3138 -0.8506  0.5528
 4483TIP3   OH213412   4.244   6.690   3.704  0.1551  0.0107 -0.1859
 4483TIP3    H113413   4.162   6.670   3.750  0.2369 -0.4109 -0.2130
 4483TIP3    H213414   4.307   6.628   3.741  0.6821  0.9161  0.4631
 4484TIP3   OH213415   6.845   0.821   3.946  0.0689  0.2930 -0.3115
 4484TIP3    H113416   6.880   0.790   4.030  1.4764  0.4536 -0.8238
 4484TIP3    H213417   6.796   0.900   3.969 -0.3746 -0.1927  0.4821
 4485TIP3   OH213418   3.266   5.455   3.871 -0.3198  0.5929  0.0816
 4485TIP3    H113419   3.341   5.514   3.879 -0.4849  0.7233  0.7171
 4485TIP3    H213420   3.195   5.500   3.917 -0.0832 -0.7290  1.8381
 4486TIP3   OH213421   7.026   4.227   1.034 -0.4039  0.4236 -0.2770
 4486TIP3    H113422   7.076   4.149   1.061 -1.1308  0.6211  1.8705
 4486TIP3    H213423   6.979   4.253   1.113 -3.9402  0.2798 -2.1613
 4487TIP3   OH213424   2.413   4.289   2.013 -0.2960  0.6353  0.0105
 4487TIP3    H113425   2.318   4.293   2.025 -0.5839 -0.5517 -1.5281
 4487TIP3    H213426   2.429   4.200   1.984  1.1683  1.1058 -0.6934
 4488TIP3   OH213427   2.645   6.431   0.777 -0.7127 -0.5417 -0.5183
 4488TIP3    H113428   2.657   6.374   0.701  2.0619  1.1697 -1.4991
 4488TIP3    H213429   2.609   6.512   0.740 -1.1893 -0.3558  0.3224
 4489TIP3   OH213430   6.705   5.232   5.484 -0.3802 -0.6950  0.0326
 4489TIP3    H113431   6.618   5.243   5.444 -0.1295 -2.0618 -0.9897
 4489TIP3    H213432   6.715   5.137   5.493  0.9239 -0.5447  0.3371
 4490TIP3   OH213433   7.141   2.229   0.676  0.3604 -0.2814 -0.2785
 4490TIP3    H113434   7.218   2.173   0.685  1.2784  0.9991  0.1741
 4490TIP3    H213435   7.172   2.304   0.626 -0.7566 -0.0170 -0.6066
 4491TIP3   OH213436   1.770   4.042   3.327 -0.0859  0.4331 -0.8859
 4491TIP3    H113437   1.796   4.125   3.365 -1.4496  0.3076  0.4273
 4491TIP3    H213438   1.819   3.976   3.377 -0.5201  0.3575 -0.5542
 4492TIP3   OH213439   2.137   3.305   3.540 -0.1241 -0.1113  0.6520
 4492TIP3    H113440   2.136   3.213   3.512 -1.3198 -0.0723  0.5302
 4492TIP3    H213441   2.100   3.303   3.629  3.4343 -0.2148  2.2919
 4493TIP3   OH213442   0.541   5.244   4.731  0.2987 -0.0566  0.0668
 4493TIP3    H113443   0.531   5.328   4.775 -0.6676  0.0998 -0.4177
 4493TIP3    H213444   0.472   5.189   4.769  3.0241 -1.8090  2.9403
 4494TIP3   OH213445   5.760   5.133   1.792  0.0480  0.0106 -0.8290
 4494TIP3    H113446   5.782   5.051   1.837  1.3191  0.1292 -1.1807
 4494TIP3    H213447   5.791   5.202   1.851 -0.0253  0.2111 -1.0236
 4495TIP3   OH213448   0.591   5.774   0.501 -0.1316  0.0389 -0.7052
 4495TIP3    H113449   0.532   5.849   0.514 -0.6607 -0.4733 -0.0767
 4495TIP3    H213450   0.649   5.802   0.430  3.3482  3.2844  2.9246
 4496TIP3   OH213451   6.288   4.142   3.663  0.1163  0.0629 -0.2982
 4496TIP3    H113452   6.290   4.061   3.714  0.2699  0.0809 -0.2732
 4496TIP3    H213453   6.307   4.211   3.727  2.8199 -0.1204 -0.7594
 4497TIP3   OH213454   7.109   0.012   5.235  0.3263 -0.3415 -0.0564
 4497TIP3    H113455   7.139   0.087   5.288  1.3420  0.0748 -1.1821
 4497TIP3    H213456   7.015   0.005   5.255  0.4409  0.5419  0.8949
 4498TIP3   OH213457   4.783   0.252   5.541  0.0338  0.0585  0.3506
 4498TIP3    H113458   4.769   0.333   5.589 -1.1585 -0.2715  0.5877
 4498TIP3    H213459   4.787   0.183   5.608 -1.3257 -0.3631  0.0248
 4499TIP3   OH213460   5.272   4.922   2.569  0.0473  0.0539 -0.2502
 4499TIP3    H113461   5.295   4.944   2.478 -0.1212 -1.9579 -0.8271
 4499TIP3    H213462   5.225   4.839   2.562  0.4130 -0.3574  1.7421
 4500TIP3   OH213463   6.574   3.481   5.618 -0.0722  0.0488 -0.2415
 4500TIP3    H113464   6.499   3.441   5.576 -1.0520  1.2109  0.3398
 4500TIP3    H213465   6.562   3.463   5.711  1.2358 -1.1314 -0.2687
 4501TIP3   OH213466   0.933   4.735   1.303 -0.1254  0.0973  0.1453
 4501TIP3    H113467   0.943   4.659   1.245  1.1665  0.1096  0.3296
 4501TIP3    H213468   0.839   4.754   1.302 -0.4771 -1.5047  0.0892
 4502TIP3   OH213469   1.202   2.198   4.681 -0.0097  0.0003 -0.1530
 4502TIP3    H113470   1.218   2.215   4.774  2.3987  1.2496 -0.7011
 4502TIP3    H213471   1.177   2.283   4.645 -2.6383 -0.8132 -0.4114
 4503TIP3   OH213472   1.418   6.758   5.471 -0.2965  0.2172 -0.2629
 4503TIP3    H113473   1.383   6.826   5.529 -0.3072 -0.0322  0.0225
 4503TIP3    H213474   1.512   6.757   5.491  0.0228  1.3708 -1.5171
 4504TIP3   OH213475   3.921   1.725   4.086  0.2846 -0.1853 -0.1592
 4504TIP3    H113476   3.948   1.808   4.125  1.9997 -0.9709  0.4077
 4504TIP3    H213477   3.898   1.670   4.160  0.4352 -0.6485 -0.4509
 4505TIP3   OH213478   2.232   4.596   2.041  0.0453  0.0840 -0.0888
 4505TIP3    H113479   2.305   4.583   2.101  1.1046 -1.0707 -1.5629
 4505TIP3    H213480   2.270   4.642   1.966 -1.2310  1.4228  0.0378
 4506TIP3   OH213481   7.181   5.353   5.339 -0.1133 -0.1092 -0.0845
 4506TIP3    H113482   7.184   5.428   5.399  1.1880  1.2383 -1.7192
 4506TIP3    H213483   7.223   5.385   5.259  0.0013 -2.4415 -1.0375
 4507TIP3   OH213484   2.039   2.356   1.624  0.3001  0.3610 -0.5217
 4507TIP3    H113485   2.011   2.277   1.578  0.8429  0.4636 -1.0490
 4507TIP3    H213486   1.958   2.403   1.643 -0.2818 -1.6057  2.2748
 4508TIP3   OH213487   4.481   6.672   5.069 -0.5188 -0.3271 -0.3435
 4508TIP3    H113488   4.574   6.693   5.073 -0.5622 -0.3374  1.1744
 4508TIP3    H213489   4.462   6.665   4.975  0.5268  1.8115 -0.7727
 4509TIP3   OH213490   3.986   5.491   2.588 -0.0402 -0.2982 -0.1988
 4509TIP3    H113491   4.044   5.432   2.636  1.2257  1.8914  1.1186
 4509TIP3    H213492   4.038   5.521   2.513 -0.5621 -0.5866 -0.6859
 4510TIP3   OH213493   6.997   0.407   1.243  0.2288 -0.4075 -0.6390
 4510TIP3    H113494   7.079   0.399   1.292  0.3453 -0.2988 -0.8156
 4510TIP3    H213495   6.933   0.361   1.296  0.3610 -0.3158 -0.3970
 4511TIP3   OH213496   6.650   4.720   4.690  0.0125 -0.3188 -0.4472
 4511TIP3    H113497   6.617   4.661   4.758  0.1735  0.0844 -0.0149
 4511TIP3    H213498   6.728   4.676   4.656 -0.6173 -0.9877 -1.0507
 4512TIP3   OH213499   5.473   4.308   0.814 -0.2685 -0.3321  0.3383
 4512TIP3    H113500   5.517   4.347   0.738 -0.9249 -0.5848 -0.1929
 4512TIP3    H213501   5.512   4.351   0.890  1.1499 -0.8291 -0.0827
 4513TIP3   OH213502   5.091   1.145   4.610  0.5797 -0.1253  0.8480
 4513TIP3    H113503   5.125   1.143   4.521  1.9348  0.7122  1.3135
 4513TIP3    H213504   4.999   1.120   4.601  0.3926  1.0165 -0.9230
 4514TIP3   OH213505   3.981   6.308   5.181  0.2641  0.4601  0.4796
 4514TIP3    H113506   3.965   6.242   5.248  1.1268  0.6723  0.9115
 4514TIP3    H213507   4.049   6.364   5.218 -0.8411  1.9461  0.3631
 4515TIP3   OH213508   2.546   4.275   1.067 -0.0563  0.0110 -0.3953
 4515TIP3    H113509   2.627   4.224   1.055 -0.3492 -0.7329  0.6517
 4515TIP3    H213510   2.556   4.316   1.153  0.1285  1.6817 -1.1823
 4516TIP3   OH213511   0.582   4.270   1.889 -0.3359 -0.1173 -0.0923
 4516TIP3    H113512   0.577   4.357   1.928  2.1923 -0.3137  0.8586
 4516TIP3    H213513   0.674   4.261   1.861 -0.6118 -2.3383 -0.5016
 4517TIP3   OH213514   3.293   6.605   0.689  0.4283  0.3962 -0.3682
 4517TIP3    H113515   3.308   6.690   0.730  1.0782 -0.2988  0.8841
 4517TIP3    H213516   3.257   6.550   0.759  0.6070 -0.5303 -0.9843
 4518TIP3   OH213517   5.686   0.115   5.245 -0.2493 -1.0294 -0.7075
 4518TIP3    H113518   5.599   0.156   5.248  0.7520  1.2169 -0.2488
 4518TIP3    H213519   5.717   0.119   5.335  0.9951 -0.2068 -1.1515
 4519TIP3   OH213520   3.179   4.918   5.593 -0.3416 -0.2091 -0.1626
 4519TIP3    H113521   3.255   4.874   5.631 -0.8008 -0.4969  0.4452
 4519TIP3    H213522   3.147   4.975   5.663  0.0851  0.8919 -0.8540
 4520TIP3   OH213523   0.928   2.467   2.605 -0.6019  0.3889  0.3033
 4520TIP3    H113524   0.935   2.488   2.511  0.9215  0.0256  0.3033
 4520TIP3    H213525   0.997   2.519   2.646 -1.1290  0.3907  1.2035
 4521TIP3   OH213526   2.711   5.856   2.729  0.0269  0.3358  0.1048
 4521TIP3    H113527   2.729   5.762   2.727 -0.1211  0.2675  1.3898
 4521TIP3    H213528   2.785   5.896   2.682  1.0392 -0.3031  1.1006
 4522TIP3   OH213529   0.625   5.494   2.403  0.7857  0.3029 -0.1446
 4522TIP3    H113530   0.537   5.472   2.433  1.2036  0.4781  1.3033
 4522TIP3    H213531   0.615   5.514   2.310 -0.7934  0.8299  0.1157
 4523TIP3   OH213532   0.166   6.149   5.725  0.2302  0.4736 -0.0525
 4523TIP3    H113533   0.171   6.205   5.648 -0.2662 -1.9850 -1.9886
 4523TIP3    H213534   0.073   6.127   5.733  0.4221 -0.1687  0.5482
 4524TIP3   OH213535   4.167   1.103   2.773  0.0838  0.6483 -0.0986
 4524TIP3    H113536   4.179   1.014   2.805 -1.8251  0.4199  0.0879
 4524TIP3    H213537   4.078   1.127   2.800 -0.6815  1.4119 -2.9244
 4525TIP3   OH213538   5.825   5.343   0.228 -0.1296  0.8415 -0.0520
 4525TIP3    H113539   5.903   5.396   0.209  0.5422 -0.5789 -1.4610
 4525TIP3    H213540   5.757   5.380   0.173  0.3936  0.1509 -1.1975
 4526TIP3   OH213541   2.903   6.795   4.972  0.1362  0.1988 -0.0407
 4526TIP3    H113542   2.899   6.826   5.062 -0.3032  0.6319 -0.2082
 4526TIP3    H213543   2.940   6.707   4.979  4.1823  1.6767  0.2478
 4527TIP3   OH213544   4.375   2.132   1.586 -0.0911  0.1407 -0.1667
 4527TIP3    H113545   4.451   2.190   1.573 -0.2312  0.5259  0.7024
 4527TIP3    H213546   4.410   2.044   1.569  0.9166  0.1645  1.5587
 4528TIP3   OH213547   2.163   1.491   1.759  0.2838 -0.1092 -0.2401
 4528TIP3    H113548   2.202   1.576   1.738  0.4318  0.0673  0.6841
 4528TIP3    H213549   2.238   1.433   1.772  0.1852 -0.3592 -0.7780
 4529TIP3   OH213550   3.145   3.681   1.361 -0.3462 -0.2372 -0.3878
 4529TIP3    H113551   3.140   3.632   1.444 -0.0151 -0.5769 -0.5671
 4529TIP3    H213552   3.088   3.756   1.375  0.6814  0.3921  0.6152
 4530TIP3   OH213553   2.992   3.739   5.728  0.2860  0.3289 -0.5294
 4530TIP3    H113554   3.005   3.644   5.727  0.1250  0.3073 -1.4334
 4530TIP3    H213555   2.934   3.754   5.803  1.3027 -0.1377  0.3721
 4531TIP3   OH213556   6.183   5.874   5.164 -0.3578 -0.0057 -0.0583
 4531TIP3    H113557   6.117   5.938   5.191 -0.6329 -0.3362  0.0582
 4531TIP3    H213558   6.257   5.890   5.223 -0.2733  0.4611 -0.2853
 4532TIP3   OH213559   0.702   6.124   1.579  0.0567  0.3119  0.0833
 4532TIP3    H113560   0.629   6.124   1.517  0.5562  2.3681 -0.5844
 4532TIP3    H213561   0.771   6.076   1.534 -0.5767 -0.9258  0.3795
 4533TIP3   OH213562   6.934   5.722   1.885  0.5048  0.1388  0.0140
 4533TIP3    H113563   6.865   5.705   1.948  0.0978  1.1462 -0.1350
 4533TIP3    H213564   7.003   5.660   1.906 -0.0142 -0.1586  0.8473
 4534TIP3   OH213565   7.021   0.841   0.599 -0.2015 -0.3217  0.3066
 4534TIP3    H113566   7.020   0.759   0.648  1.4764 -1.2580 -1.1207
 4534TIP3    H213567   6.938   0.843   0.553  0.1139 -1.7183 -0.3760
 4535TIP3   OH213568   3.239   0.065   1.125  0.7020  0.1161 -0.0627
 4535TIP3    H113569   3.213   0.132   1.188 -0.3962  0.2861 -0.6689
 4535TIP3    H213570   3.178   0.076   1.052  2.9843  1.0590 -1.9484
 4536TIP3   OH213571   2.897   0.370   3.066  0.0728 -0.0852  0.1370
 4536TIP3    H113572   2.879   0.288   3.112  0.4708 -0.4090 -0.2870
 4536TIP3    H213573   2.990   0.387   3.082  0.3653 -0.5186 -1.0567
 4537TIP3   OH213574   5.994   6.663   4.935 -0.1290  0.2846 -0.3631
 4537TIP3    H113575   6.037   6.740   4.972 -0.1101  0.2411 -0.2951
 4537TIP3    H213576   5.901   6.686   4.935 -0.1475  0.2155 -0.1236
 4538TIP3   OH213577   2.097   0.535   0.962 -0.1885 -0.1827 -0.1591
 4538TIP3    H113578   2.160   0.598   0.996 -0.6398 -0.1393  0.6128
 4538TIP3    H213579   2.084   0.473   1.033 -0.5161 -0.5683 -0.5493
 4539TIP3   OH213580   2.501   0.773   0.073 -0.3905 -0.5571 -0.2455
 4539TIP3    H113581   2.536   0.840   0.015  0.9006  0.6423  1.7929
 4539TIP3    H213582   2.412   0.803   0.094  0.6042  1.2951  1.6457
 4540TIP3   OH213583   3.484   2.403   4.305 -0.2052  0.2874 -0.1167
 4540TIP3    H113584   3.459   2.446   4.387  0.7763 -2.3315  1.6926
 4540TIP3    H213585   3.579   2.416   4.299 -0.5029  2.3264 -2.1189
 4541TIP3   OH213586   2.734   1.820   4.367 -0.8254  0.5823 -0.1068
 4541TIP3    H113587   2.761   1.911   4.358 -0.1410  0.1799 -2.6746
 4541TIP3    H213588   2.801   1.780   4.423  0.0546  1.1642 -0.7488
 4542TIP3   OH213589   3.618   1.892   3.641  0.7991  0.1659  0.4118
 4542TIP3    H113590   3.607   1.979   3.602 -0.5371 -0.5921 -0.9818
 4542TIP3    H213591   3.545   1.883   3.701  1.2957  0.2397  1.0353
 4543TIP3   OH213592   1.323   0.914   4.909 -0.0415  0.3935  0.1469
 4543TIP3    H113593   1.383   0.943   4.978 -1.1198  2.3808  0.3101
 4543TIP3    H213594   1.325   0.984   4.844  0.8356 -1.3624 -1.8565
 4544TIP3   OH213595   7.020   0.720   3.601 -0.2253  0.0533  0.1970
 4544TIP3    H113596   7.112   0.739   3.620 -0.0180 -1.9926  1.4681
 4544TIP3    H213597   6.991   0.666   3.674 -1.3077 -2.6814 -2.0893
 4545TIP3   OH213598   6.895   2.566   2.486 -0.1804 -0.0428 -0.2386
 4545TIP3    H113599   6.849   2.483   2.497 -0.3269  0.0243 -0.3376
 4545TIP3    H213600   6.846   2.628   2.540 -0.7583  0.2317 -1.0566
 4546TIP3   OH213601   0.628   4.053   2.396  0.6585 -0.6390 -0.0713
 4546TIP3    H113602   0.545   4.067   2.442  0.1182 -0.7039 -0.9988
 4546TIP3    H213603   0.692   4.036   2.465 -0.2288 -1.2194  0.6159
 4547TIP3   OH213604   1.790   3.331   1.975 -0.7542 -0.5035 -0.3351
 4547TIP3    H113605   1.698   3.331   2.002 -0.6316  2.2396  0.3752
 4547TIP3    H213606   1.801   3.413   1.928  1.4944 -0.4259  0.2168
 4548TIP3   OH213607   2.242   2.334   5.569  0.2224 -0.2353 -0.3787
 4548TIP3    H113608   2.307   2.345   5.638 -0.2121  0.9618 -0.1199
 4548TIP3    H213609   2.279   2.380   5.494 -0.5632  1.0259 -0.0357
 4549TIP3   OH213610   3.005   4.102   1.607 -0.0070 -0.5747  0.3884
 4549TIP3    H113611   2.954   4.135   1.681  1.4074 -0.2759  1.2725
 4549TIP3    H213612   3.051   4.179   1.573  0.6647 -1.0137  0.2859
 4550TIP3   OH213613   4.811   6.059   2.237 -0.4688  0.2734  0.2800
 4550TIP3    H113614   4.854   6.100   2.161  1.5531  1.5334  1.9945
 4550TIP3    H213615   4.875   6.066   2.307 -3.1334  1.3919  2.8001
 4551TIP3   OH213616   0.491   1.699   0.046 -0.1529  0.2362  0.5238
 4551TIP3    H113617   0.583   1.705   0.022 -0.1519 -0.8778  0.1768
 4551TIP3    H213618   0.491   1.699   0.142  0.3025 -0.7624  0.5359
 4552TIP3   OH213619   0.614   6.365   3.095  0.6114 -0.1156 -0.2658
 4552TIP3    H113620   0.615   6.447   3.046  0.7930 -0.4449 -0.8271
 4552TIP3    H213621   0.661   6.303   3.038  2.5437 -0.0491  1.1387
 4553TIP3   OH213622   1.957   4.438   2.323 -0.3080  0.3597  0.3883
 4553TIP3    H113623   1.934   4.366   2.264  0.7949  0.1761  0.1514
 4553TIP3    H213624   1.898   4.509   2.298 -0.4240  0.0088 -0.3829
 4554TIP3   OH213625   4.923   5.005   4.651 -0.4601  0.2285  0.2518
 4554TIP3    H113626   4.841   4.968   4.686 -1.2279  1.3791 -0.2780
 4554TIP3    H213627   4.992   4.951   4.689 -1.4900 -1.0772  0.3318
 4555TIP3   OH213628   0.686   2.624   4.821 -0.0033  0.2610  0.2267
 4555TIP3    H113629   0.773   2.584   4.816  0.0680  0.2106  1.5029
 4555TIP3    H213630   0.641   2.576   4.891 -0.3069  1.6715  1.0361
 4556TIP3   OH213631   4.518   4.747   5.557 -0.6226 -0.1821  0.0434
 4556TIP3    H113632   4.499   4.706   5.472  2.1323 -1.0173 -0.2748
 4556TIP3    H213633   4.474   4.692   5.621 -1.7302 -0.2567 -0.7483
 4557TIP3   OH213634   3.670   4.764   1.114  0.3024 -0.2248  0.1098
 4557TIP3    H113635   3.738   4.790   1.176  0.5507  0.7001 -0.5259
 4557TIP3    H213636   3.698   4.801   1.031  0.6670 -2.5728 -0.8863
 4558TIP3   OH213637   6.171   3.762   2.811 -0.2445  0.2319 -0.1166
 4558TIP3    H113638   6.138   3.696   2.872 -1.7314  2.0375  1.1230
 4558TIP3    H213639   6.096   3.819   2.793  1.2999  2.4471  0.0428
 4559TIP3   OH213640   5.240   4.320   4.350  0.2351  0.1267 -0.6639
 4559TIP3    H113641   5.194   4.368   4.281 -0.3964 -1.4839 -1.4287
 4559TIP3    H213642   5.203   4.354   4.431 -0.9797  0.2138 -1.2174
 4560TIP3   OH213643   2.873   6.771   5.259 -0.3072  0.2901 -0.4384
 4560TIP3    H113644   2.925   6.694   5.236 -0.8716  0.1282 -1.2178
 4560TIP3    H213645   2.801   6.737   5.312 -1.0492  0.1472 -1.5202
 4561TIP3   OH213646   5.599   6.322   1.017 -0.0292 -0.0265 -0.0526
 4561TIP3    H113647   5.683   6.277   1.008 -0.4382 -1.0686  1.0870
 4561TIP3    H213648   5.621   6.415   1.007  1.5405 -0.1385  1.7422
 4562TIP3   OH213649   2.465   2.150   1.227 -0.4068  0.1217 -0.2506
 4562TIP3    H113650   2.532   2.209   1.193 -1.2160  1.8835  1.0692
 4562TIP3    H213651   2.407   2.206   1.278 -1.6885 -1.7029  0.4094
 4563TIP3   OH213652   6.041   5.287   5.704 -0.0582 -0.2897  0.3549
 4563TIP3    H113653   6.055   5.199   5.740  0.2032 -0.4918 -0.2440
 4563TIP3    H213654   6.108   5.340   5.746 -0.0626 -0.4199  0.5323
 4564TIP3   OH213655   2.181   2.233   5.218  0.4140 -0.7777 -0.0465
 4564TIP3    H113656   2.168   2.277   5.134 -0.3473  0.1533  0.5406
 4564TIP3    H213657   2.196   2.304   5.281 -1.5565 -1.2739  1.0508
 4565TIP3   OH213658   4.017   2.938   0.260  0.3080 -0.1500  0.0733
 4565TIP3    H113659   3.931   2.964   0.228 -0.0800 -1.6059 -0.1107
 4565TIP3    H213660   4.040   3.005   0.325 -0.7862  0.4516 -0.1383
 4566TIP3   OH213661   6.607   2.746   1.912 -0.0000  0.7034  0.1122
 4566TIP3    H113662   6.658   2.704   1.843  0.9619  1.8224  0.0933
 4566TIP3    H213663   6.543   2.800   1.866  0.4512  1.2265  0.0918
 4567TIP3   OH213664   6.596   0.264   0.394 -0.1464 -0.2101  0.2660
 4567TIP3    H113665   6.632   0.345   0.359 -0.5035 -0.3783 -0.5121
 4567TIP3    H213666   6.649   0.195   0.354 -0.4821 -0.3981  0.1377
 4568TIP3   OH213667   5.468   5.658   4.528 -0.4012 -0.2276  0.1775
 4568TIP3    H113668   5.525   5.656   4.606 -0.8966 -2.0775  0.5522
 4568TIP3    H213669   5.381   5.640   4.562 -1.2357  2.2732 -0.4334
 4569TIP3   OH213670   4.493   5.334   3.864  0.3658  0.2032  0.0804
 4569TIP3    H113671   4.442   5.255   3.851  2.1906 -1.1476  0.6636
 4569TIP3    H213672   4.490   5.350   3.958 -0.5323  1.2375 -0.1076
 4570TIP3   OH213673   0.432   2.058   0.087  0.5973 -0.0964 -0.0761
 4570TIP3    H113674   0.468   2.035   0.001  0.4544  0.6976 -0.3533
 4570TIP3    H213675   0.385   1.979   0.114  1.5799 -0.7517 -0.2114
 4571TIP3   OH213676   6.060   1.001   2.424  0.3258  0.0545 -0.0683
 4571TIP3    H113677   6.091   1.088   2.397 -0.8002  0.6531  0.4789
 4571TIP3    H213678   6.109   0.981   2.503  0.5407  0.2139 -0.1584
 4572TIP3   OH213679   5.968   0.348   4.627  0.0669 -0.2506 -0.5537
 4572TIP3    H113680   5.896   0.347   4.691  0.3866 -0.8825 -0.1895
 4572TIP3    H213681   6.047   0.358   4.680  0.2456  0.6079 -0.9670
 4573TIP3   OH213682   7.032   4.066   5.216  0.3012  0.2425  0.1564
 4573TIP3    H113683   7.117   4.099   5.185 -0.0968  0.9683 -0.1825
 4573TIP3    H213684   7.051   4.029   5.302  1.1805 -0.6350 -0.4015
 4574TIP3   OH213685   3.814   5.146  -0.009  0.2385 -0.1463 -0.2026
 4574TIP3    H113686   3.851   5.059  -0.024 -0.6682 -0.4858 -0.5251
 4574TIP3    H213687   3.764   5.138   0.071  0.3005  0.1348 -0.1336
 4575TIP3   OH213688   6.630   6.620   2.371  0.2033  0.0440  0.5927
 4575TIP3    H113689   6.661   6.599   2.458  0.0353 -0.6770  0.4864
 4575TIP3    H213690   6.569   6.549   2.349  0.3441  0.1439 -0.1581
 4576TIP3   OH213691   5.053   3.525   4.044 -0.1589  0.5413 -0.1142
 4576TIP3    H113692   5.107   3.447   4.058  0.0229  0.4427 -1.2455
 4576TIP3    H213693   5.114   3.598   4.051 -0.1555  0.5244  0.0393
 4577TIP3   OH213694   4.948   3.075   5.638  0.0262 -0.6243 -0.0825
 4577TIP3    H113695   4.914   3.136   5.573  0.0365 -0.3621  0.1543
 4577TIP3    H213696   4.895   2.997   5.628 -1.4746  0.1942  1.0892
 4578TIP3   OH213697   2.569   4.756   4.730 -0.5178 -0.2890 -0.2141
 4578TIP3    H113698   2.482   4.790   4.750  0.2437  1.5259  0.2785
 4578TIP3    H213699   2.627   4.831   4.744  0.8624 -0.7290 -2.9298
 4579TIP3   OH213700   5.969   6.466   5.143 -0.1494 -0.3793  0.1368
 4579TIP3    H113701   5.973   6.520   5.064 -0.8773  0.3386  0.5864
 4579TIP3    H213702   6.061   6.454   5.168  0.0215  0.7758  0.1125
 4580TIP3   OH213703   2.229   5.491   3.648 -0.1466 -0.5107  0.5097
 4580TIP3    H113704   2.189   5.541   3.719 -0.3956 -0.1464  0.1157
 4580TIP3    H213705   2.257   5.557   3.585  1.7663 -0.6867  1.1111
 4581TIP3   OH213706   3.286   1.921   1.851 -0.2937  0.1947 -0.4960
 4581TIP3    H113707   3.325   1.906   1.937  0.4286 -1.4162 -1.0599
 4581TIP3    H213708   3.315   2.009   1.826  2.4120 -0.6026 -0.5263
 4582TIP3   OH213709   0.091   6.372   1.349  0.5820 -0.7147 -0.1058
 4582TIP3    H113710   0.071   6.391   1.441 -0.6546 -1.1047 -0.2747
 4582TIP3    H213711   0.010   6.334   1.314  1.1514 -0.9100 -1.2651
 4583TIP3   OH213712   0.840   5.387   0.018 -0.5925 -0.0469 -0.1132
 4583TIP3    H113713   0.828   5.354   0.108 -1.5945 -0.3386 -0.3388
 4583TIP3    H213714   0.828   5.482   0.026  0.8495  0.1224  0.2990
 4584TIP3   OH213715   2.503   4.885   3.229  0.2854 -0.8375  0.1047
 4584TIP3    H113716   2.511   4.977   3.255 -0.7706 -1.1721  1.7501
 4584TIP3    H213717   2.480   4.889   3.136  1.0231  0.5241 -0.0505
 4585TIP3   OH213718   5.364   1.939   0.739  0.2979 -0.4277  0.1729
 4585TIP3    H113719   5.325   1.853   0.753  1.6483 -0.7820  2.1376
 4585TIP3    H213720   5.388   1.939   0.646  0.7888 -2.4345  0.2340
 4586TIP3   OH213721   5.031   5.566   5.271 -0.3328 -0.6729  0.0465
 4586TIP3    H113722   5.036   5.652   5.230  2.1481 -0.6671  0.2131
 4586TIP3    H213723   5.061   5.505   5.202 -2.2140 -1.4592 -0.1252
 4587TIP3   OH213724   3.404   1.999   3.009 -0.3689 -0.4067 -0.3193
 4587TIP3    H113725   3.440   1.988   2.921 -0.3508 -0.0178 -0.3625
 4587TIP3    H213726   3.446   2.078   3.043  0.0925 -0.8898  0.2782
 4588TIP3   OH213727   5.146   0.210   5.126  0.2888  0.0512  0.4143
 4588TIP3    H113728   5.197   0.150   5.180  2.6448  0.7531 -0.8776
 4588TIP3    H213729   5.163   0.296   5.164  0.4615  0.3390 -0.2899
 4589TIP3   OH213730   3.030   5.652   4.829  0.3094  0.2785 -0.0430
 4589TIP3    H113731   2.998   5.600   4.903  2.9289 -0.4544  0.6565
 4589TIP3    H213732   2.959   5.714   4.812 -1.7353 -1.6509  0.9250
 4590TIP3   OH213733   4.183   6.381   3.459  0.0152 -0.1108  0.0195
 4590TIP3    H113734   4.264   6.351   3.418 -1.3122 -1.4812 -1.7658
 4590TIP3    H213735   4.163   6.313   3.524 -0.0906 -0.1353 -0.0401
 4591TIP3   OH213736  -0.012   2.583   3.918  0.1758 -0.7896 -0.1733
 4591TIP3    H113737  -0.061   2.640   3.859  0.9298 -0.2915 -0.3359
 4591TIP3    H213738   0.079   2.588   3.886  0.5826 -0.5474  0.9979
 4592TIP3   OH213739   4.720   2.873   3.969  0.1063  0.5386 -0.1885
 4592TIP3    H113740   4.800   2.885   4.020  0.6396 -1.9181 -0.3265
 4592TIP3    H213741   4.748   2.884   3.878 -0.3399  2.4100 -0.1503
 4593TIP3   OH213742   0.649   4.158   3.272 -0.3812 -0.5542  0.1243
 4593TIP3    H113743   0.615   4.069   3.273 -2.0286  0.0046 -1.0125
 4593TIP3    H213744   0.574   4.212   3.246  0.8481  1.0410 -0.2971
 4594TIP3   OH213745   5.032   3.818   2.442 -0.2085 -0.7495 -0.1490
 4594TIP3    H113746   5.122   3.841   2.418  0.6265 -1.5817  1.9112
 4594TIP3    H213747   4.981   3.895   2.419  0.9577 -0.3834 -1.6828
 4595TIP3   OH213748   6.704   1.787   3.274 -0.0553  0.0190 -0.3032
 4595TIP3    H113749   6.617   1.772   3.312 -0.0925 -0.4572 -0.5684
 4595TIP3    H213750   6.739   1.862   3.323 -0.3382 -0.2197  0.2715
 4596TIP3   OH213751   6.358   6.359   2.866 -0.1893  0.4073 -1.0751
 4596TIP3    H113752   6.339   6.331   2.776 -2.1851 -1.0573 -0.2736
 4596TIP3    H213753   6.289   6.318   2.918  1.7462  0.0207  1.3417
 4597TIP3   OH213754   2.188   5.587   3.179  0.1550 -0.4916 -0.7018
 4597TIP3    H113755   2.184   5.492   3.190 -0.5655 -0.3603  0.3685
 4597TIP3    H213756   2.265   5.602   3.124 -0.7852 -1.8000 -2.4454
 4598TIP3   OH213757   4.847   5.492   4.076  0.0201 -0.1805 -0.1429
 4598TIP3    H113758   4.752   5.503   4.068 -0.1138 -1.5333 -0.8001
 4598TIP3    H213759   4.866   5.412   4.026  1.8326  1.2657 -1.9918
 4599TIP3   OH213760   4.613   4.361   0.084 -0.4192 -0.0453 -0.3523
 4599TIP3    H113761   4.700   4.321   0.086  0.7517  2.3248 -0.2746
 4599TIP3    H213762   4.599   4.391   0.174 -1.7811 -1.2424 -0.1347
 4600TIP3   OH213763   5.988   4.056   3.603  0.0116 -0.0301 -0.3218
 4600TIP3    H113764   5.936   4.009   3.539  0.7182 -0.0223 -0.9166
 4600TIP3    H213765   6.075   4.016   3.598  0.4258  0.8443 -0.3154
 4601TIP3   OH213766   7.042   1.474   4.858  0.5089 -0.1462  0.1347
 4601TIP3    H113767   7.044   1.462   4.763 -2.5863 -0.7182  0.0387
 4601TIP3    H213768   7.036   1.385   4.893 -2.6014  0.0861  0.5270
 4602TIP3   OH213769   3.627   5.135   1.755 -0.3450 -0.3843 -0.3406
 4602TIP3    H113770   3.647   5.102   1.668  0.7304  2.1526 -1.1515
 4602TIP3    H213771   3.542   5.178   1.746  0.6229  1.5567 -0.7082
 4603TIP3   OH213772   1.949   4.245   4.648 -0.1549  0.2995  0.1023
 4603TIP3    H113773   1.892   4.207   4.715  1.2382 -0.0341  1.1269
 4603TIP3    H213774   1.927   4.197   4.568 -1.4397  0.3212  0.4074
 4604TIP3   OH213775   0.637   1.642   5.368 -0.6691  0.1018  0.2232
 4604TIP3    H113776   0.731   1.628   5.378 -0.4454 -0.1101 -1.7719
 4604TIP3    H213777   0.627   1.737   5.370 -0.5731  0.0997  1.4939
 4605TIP3   OH213778   6.594   3.340   4.333 -0.0568  0.3998 -0.3765
 4605TIP3    H113779   6.682   3.345   4.296 -0.8777  0.3429 -2.5232
 4605TIP3    H213780   6.556   3.260   4.294 -1.5147  1.1837 -0.6479
 4606TIP3   OH213781   3.443   6.047   5.223 -0.1039  0.2357 -0.3110
 4606TIP3    H113782   3.486   5.994   5.156  0.0943  1.3468 -1.0860
 4606TIP3    H213783   3.426   5.985   5.295  0.8072 -0.7047 -0.8694
 4607TIP3   OH213784   3.041   2.409   4.107  0.3224  0.1122 -0.1717
 4607TIP3    H113785   3.019   2.401   4.015 -1.1280  1.0291  0.0681
 4607TIP3    H213786   2.985   2.344   4.150  1.2707 -0.5873  0.0523
 4608TIP3   OH213787   4.458   0.191   3.511 -0.2051  0.1724  0.1880
 4608TIP3    H113788   4.453   0.217   3.419 -0.1771  3.4102  0.9720
 4608TIP3    H213789   4.424   0.267   3.559 -2.9554 -2.4569  2.7961
 4609TIP3   OH213790   6.408   2.709   3.833  0.0668 -0.0012  0.6165
 4609TIP3    H113791   6.385   2.656   3.757  0.2895 -2.2118  1.9898
 4609TIP3    H213792   6.499   2.686   3.852 -0.3039 -0.3574  2.1498
 4610TIP3   OH213793   0.730   4.340   3.544  0.4037  0.0898  0.4335
 4610TIP3    H113794   0.806   4.302   3.500  0.6801  0.0324  0.9404
 4610TIP3    H213795   0.728   4.431   3.516  1.6391  0.5315  1.6533
 4611TIP3   OH213796   7.157   2.889   4.866 -0.6207 -0.0743 -0.1015
 4611TIP3    H113797   7.218   2.963   4.858  1.0072 -1.3208  0.1452
 4611TIP3    H213798   7.082   2.925   4.914  0.7432  1.0938  1.2919
 4612TIP3   OH213799   3.452   4.433   2.316  0.5130 -0.1346  0.0111
 4612TIP3    H113800   3.526   4.381   2.287  0.4935 -1.0514  1.5192
 4612TIP3    H213801   3.490   4.500   2.373  0.3566  0.5476 -0.6571
 4613TIP3   OH213802   6.117   4.021   3.288  0.0706 -0.3326  0.2969
 4613TIP3    H113803   6.191   4.065   3.330  1.1087 -0.6871 -1.0585
 4613TIP3    H213804   6.148   4.005   3.198 -1.8100 -0.1345 -0.4217
 4614TIP3   OH213805   1.631   5.647   4.810 -0.1323 -0.2531 -0.2556
 4614TIP3    H113806   1.594   5.647   4.898 -0.3552  0.1940 -0.3484
 4614TIP3    H213807   1.634   5.554   4.785 -2.2060 -0.2609 -0.6671
 4615TIP3   OH213808   4.858   6.746   3.578 -0.4521 -0.6855  0.2305
 4615TIP3    H113809   4.763   6.746   3.570 -0.3003  0.4149 -2.6215
 4615TIP3    H213810   4.888   6.676   3.520  0.5012 -0.6210  0.6192
 4616TIP3   OH213811   4.201   2.143   0.789  0.1676 -0.5824  0.0169
 4616TIP3    H113812   4.117   2.163   0.832 -0.2165 -3.0384  0.5294
 4616TIP3    H213813   4.263   2.133   0.861  0.2824 -1.3931 -0.1861
 4617TIP3   OH213814   0.077   3.893   3.429  0.3349  0.1044  0.0229
 4617TIP3    H113815   0.169   3.870   3.430  0.3726  0.1976 -0.8811
 4617TIP3    H213816   0.065   3.949   3.506  1.1122  0.4074 -0.0749
 4618TIP3   OH213817   1.667   1.801   5.344  0.0991 -0.4467  0.3284
 4618TIP3    H113818   1.646   1.888   5.380  0.5435 -0.3914  0.4647
 4618TIP3    H213819   1.596   1.782   5.283  1.1533  1.0508 -1.4958
 4619TIP3   OH213820   3.590   3.170   0.694 -0.3250  0.0133 -0.4470
 4619TIP3    H113821   3.549   3.252   0.720  0.7499  0.7198 -0.9457
 4619TIP3    H213822   3.679   3.176   0.727  0.9438  0.7076 -3.6859
 4620TIP3   OH213823   0.534   3.956   0.206  0.4043  0.1265 -0.7033
 4620TIP3    H113824   0.446   3.922   0.186  0.1732  0.9215 -1.0994
 4620TIP3    H213825   0.565   3.902   0.278 -1.5990  1.6100  1.4479
 4621TIP3   OH213826   3.608   6.153   1.851 -0.4044  0.5558 -0.1503
 4621TIP3    H113827   3.571   6.230   1.809 -0.0611  0.4783 -0.5992
 4621TIP3    H213828   3.567   6.079   1.807  1.9535  0.4074 -2.2868
 4622TIP3   OH213829   6.016   3.300   2.767  0.1006 -0.3266 -0.4112
 4622TIP3    H113830   6.105   3.313   2.735  0.5997  2.5457  1.7182
 4622TIP3    H213831   6.025   3.236   2.837  0.6173  0.3629  0.1657
 4623TIP3   OH213832   0.929   1.875   0.936 -0.2490 -0.1897  0.9152
 4623TIP3    H113833   0.924   1.884   1.032  0.0963 -0.2650  0.9429
 4623TIP3    H213834   0.978   1.953   0.908 -1.3026  0.4049  0.6877
 4624TIP3   OH213835   0.736   1.708   3.690 -0.0365  0.2035  0.2378
 4624TIP3    H113836   0.723   1.702   3.596  0.5979  0.3300  0.1395
 4624TIP3    H213837   0.735   1.802   3.709  1.5879  0.2839  0.0881
 4625TIP3   OH213838   6.801   0.847   5.102  0.6066 -0.4701  0.2313
 4625TIP3    H113839   6.824   0.775   5.161  0.3036 -1.7512 -1.1587
 4625TIP3    H213840   6.722   0.885   5.141  0.9549 -0.6843  1.1669
 4626TIP3   OH213841   0.497   6.382   2.560  0.3375 -0.3023 -0.0447
 4626TIP3    H113842   0.550   6.303   2.571  0.4757 -0.1487  0.3767
 4626TIP3    H213843   0.522   6.439   2.632  0.5039  0.2823 -0.5520
 4627TIP3   OH213844   4.543   1.530   0.188  0.5131  0.3151  0.0756
 4627TIP3    H113845   4.561   1.483   0.106 -1.1390  2.2207 -1.4857
 4627TIP3    H213846   4.615   1.591   0.198  0.2759  0.6863 -0.4543
 4628TIP3   OH213847   5.193   4.830   2.297 -0.1537 -0.6592 -0.1187
 4628TIP3    H113848   5.171   4.778   2.375  2.5485  0.6047  1.6549
 4628TIP3    H213849   5.266   4.783   2.257 -0.6665 -0.5936 -1.1499
 4629TIP3   OH213850   0.058   3.917   2.740 -0.0337  0.3040  0.6586
 4629TIP3    H113851   0.015   3.984   2.688  1.5109  2.0589  1.5365
 4629TIP3    H213852   0.041   3.942   2.830 -0.7237 -1.3948  1.0393
 4630TIP3   OH213853   2.777   5.602   2.777 -0.1588 -0.0696 -0.0762
 4630TIP3    H113854   2.745   5.525   2.824 -0.9058 -0.8677 -1.7871
 4630TIP3    H213855   2.845   5.638   2.833  0.9178 -2.5685  0.3289
 4631TIP3   OH213856   6.260   5.123   4.693 -0.6831  0.0039  0.0269
 4631TIP3    H113857   6.175   5.167   4.687 -0.9460 -0.2497  1.4804
 4631TIP3    H213858   6.291   5.143   4.781  0.6408 -0.1619 -0.3764
 4632TIP3   OH213859   0.992   6.266   5.380 -0.4614 -0.1315 -0.9822
 4632TIP3    H113860   0.902   6.263   5.348 -0.4282 -0.6683 -1.0374
 4632TIP3    H213861   0.991   6.214   5.460  0.0418 -1.1712 -1.6217
 4633TIP3   OH213862   5.149   2.518   5.063  0.1430  0.1145 -0.4081
 4633TIP3    H113863   5.105   2.534   4.980  1.3340  1.7315 -0.7736
 4633TIP3    H213864   5.223   2.462   5.041 -1.4523 -2.4111  0.1725
 4634TIP3   OH213865   3.077   3.817   0.862  0.2354 -0.1785 -0.6984
 4634TIP3    H113866   3.068   3.830   0.957  1.4269  2.1501 -0.8293
 4634TIP3    H213867   3.076   3.722   0.851 -1.0126 -0.5003  1.5094
 4635TIP3   OH213868   5.202   3.506   5.674  0.0091  0.5035  0.5084
 4635TIP3    H113869   5.204   3.491   5.768  0.0716  0.1340  0.4507
 4635TIP3    H213870   5.290   3.537   5.653 -0.1476  1.0451  0.6431
 4636TIP3   OH213871   1.070   3.853   4.534 -0.2407 -0.4711 -0.0029
 4636TIP3    H113872   1.134   3.879   4.468 -0.3373  0.4653  0.2555
 4636TIP3    H213873   0.985   3.871   4.494 -0.2963  0.3861  0.4709
 4637TIP3   OH213874   4.068   4.487   3.435 -0.0676  0.2607 -0.1860
 4637TIP3    H113875   4.093   4.423   3.368  0.6229 -0.5258  0.7892
 4637TIP3    H213876   4.110   4.568   3.407  0.4712 -0.1303 -0.5421
 4638TIP3   OH213877   2.799   5.094   3.045 -0.1200 -0.4058 -0.0490
 4638TIP3    H113878   2.814   5.000   3.050 -3.1510 -0.9177  2.8156
 4638TIP3    H213879   2.754   5.107   2.961 -1.6658 -1.9152  0.5036
 4639TIP3   OH213880   4.776   6.061   0.549  0.5348  0.1892  0.0560
 4639TIP3    H113881   4.775   6.054   0.454  2.0899 -0.7757  0.0818
 4639TIP3    H213882   4.747   6.151   0.566  2.6693  1.2565 -1.4771
 4640TIP3   OH213883   0.337   0.591   4.611  0.0703 -0.2398  0.1007
 4640TIP3    H113884   0.355   0.498   4.596 -0.1609 -0.2865  0.1205
 4640TIP3    H213885   0.304   0.623   4.527 -1.0008 -0.4480  0.4281
 4641TIP3   OH213886   2.669   5.087   2.801  0.1059  0.0212 -0.5725
 4641TIP3    H113887   2.697   5.114   2.713 -0.0170 -1.7350 -1.1864
 4641TIP3    H213888   2.643   4.996   2.791 -1.3444  0.2223  0.9966
 4642TIP3   OH213889   2.876   0.451   1.672 -0.4974 -0.0086  0.5766
 4642TIP3    H113890   2.948   0.462   1.734 -0.2155  1.2300  0.0464
 4642TIP3    H213891   2.801   0.491   1.716 -0.7767 -0.8903  0.9330
 4643TIP3   OH213892   2.948   4.501   3.633 -0.3378 -0.5152  0.2349
 4643TIP3    H113893   2.946   4.561   3.558 -0.8626 -1.4448 -0.5108
 4643TIP3    H213894   2.957   4.559   3.709 -0.0133  0.4562 -0.5213
 4644TIP3   OH213895   5.842   2.558   1.815  0.0279  0.1321  0.1621
 4644TIP3    H113896   5.804   2.581   1.900 -0.6615 -2.7517  0.7460
 4644TIP3    H213897   5.936   2.574   1.825 -0.0151 -0.3325  1.5829
 4645TIP3   OH213898   3.257   6.338   2.590 -0.3154  0.0417 -0.1875
 4645TIP3    H113899   3.189   6.312   2.528 -0.8298  1.6296 -0.3332
 4645TIP3    H213900   3.334   6.286   2.565 -1.1545 -0.9752 -0.7155
 4646TIP3   OH213901   3.052   3.872   4.898 -0.2723  0.4952 -0.0922
 4646TIP3    H113902   3.004   3.914   4.969 -1.4335 -1.4311  0.3198
 4646TIP3    H213903   3.081   3.788   4.933  1.6700  0.7049 -1.0077
 4647TIP3   OH213904   3.360   6.681   0.440  0.0212  0.1019 -0.1462
 4647TIP3    H113905   3.279   6.708   0.396  0.4691  1.7310 -0.0280
 4647TIP3    H213906   3.332   6.660   0.529 -0.2965  0.5307 -0.1420
 4648TIP3   OH213907   2.244   4.689   3.193  0.2862 -0.4530 -0.2979
 4648TIP3    H113908   2.170   4.743   3.222 -0.5340 -0.3912 -2.2773
 4648TIP3    H213909   2.309   4.752   3.163  0.0461 -0.5232 -0.9857
 4649TIP3   OH213910   0.877   4.932   4.278 -0.2899  0.3815 -0.3521
 4649TIP3    H113911   0.957   4.901   4.235  0.2786  2.0159 -0.5780
 4649TIP3    H213912   0.821   4.960   4.206 -0.4548  0.6001 -0.1406
 4650TIP3   OH213913   5.063   2.283   2.761  0.5200  0.0662  0.1741
 4650TIP3    H113914   4.972   2.312   2.755 -0.2087 -2.0760  0.2364
 4650TIP3    H213915   5.083   2.248   2.674  2.0414  2.3703 -0.5254
 4651TIP3   OH213916   5.600   0.351   5.710 -0.4152  0.1328  0.6261
 4651TIP3    H113917   5.666   0.340   5.779  1.0588 -1.2718 -0.9254
 4651TIP3    H213918   5.611   0.441   5.680  0.2785  0.1426  0.8934
 4652TIP3   OH213919   2.068   2.092   1.080  0.7775 -0.0693  0.2295
 4652TIP3    H113920   1.979   2.078   1.049  0.8384 -0.2224  0.1241
 4652TIP3    H213921   2.092   2.179   1.048  1.9160 -1.3326 -2.7196
 4653TIP3   OH213922   2.140   4.054   2.734 -0.2495 -0.1719 -0.0840
 4653TIP3    H113923   2.167   3.996   2.804  0.3744 -0.1022 -0.2621
 4653TIP3    H213924   2.173   4.140   2.759 -0.2261 -0.1012 -0.3484
 4654TIP3   OH213925   4.148   6.062   4.450 -0.0764 -0.5091  0.0414
 4654TIP3    H113926   4.089   6.077   4.524 -0.0754 -1.5535  0.2698
 4654TIP3    H213927   4.134   6.137   4.393 -0.1942  0.2396  1.0205
 4655TIP3   OH213928   0.516   3.356   3.638  0.0883  0.4267 -0.0035
 4655TIP3    H113929   0.582   3.424   3.631 -0.5251  1.0712  0.3079
 4655TIP3    H213930   0.514   3.315   3.551  0.7286  0.5409 -0.0770
 4656TIP3   OH213931   4.852   0.530   0.784  0.0583  0.0289  0.2210
 4656TIP3    H113932   4.859   0.443   0.746 -1.7873  0.0158 -0.1705
 4656TIP3    H213933   4.854   0.516   0.879 -0.0808 -0.4110  0.1580
 4657TIP3   OH213934   4.428   1.269   3.441 -0.0141 -0.1757  0.1018
 4657TIP3    H113935   4.377   1.192   3.467  0.6707 -0.7534 -0.2398
 4657TIP3    H213936   4.492   1.235   3.378  0.6820  0.5741  0.3916
 4658TIP3   OH213937   3.886   5.436   1.050 -0.0669 -0.1318  0.8797
 4658TIP3    H113938   3.792   5.421   1.064 -0.0863 -1.6699 -0.5761
 4658TIP3    H213939   3.899   5.419   0.957  1.5810  0.6222  0.9458
 4659TIP3   OH213940   1.693   5.459   5.266  0.0414 -0.1926  0.0657
 4659TIP3    H113941   1.719   5.550   5.276  0.2989 -0.1590 -0.8273
 4659TIP3    H213942   1.715   5.418   5.350 -0.1282  0.5737  0.4867
 4660TIP3   OH213943   1.620   4.726   4.625  1.0153  0.5687  0.2580
 4660TIP3    H113944   1.648   4.642   4.661  0.6716 -0.8820 -2.5335
 4660TIP3    H213945   1.564   4.703   4.550 -0.8279  3.3277  0.6239
 4661TIP3   OH213946   5.341   3.645   0.045 -0.5983 -0.9517  0.2951
 4661TIP3    H113947   5.346   3.574   0.109 -0.3464 -0.9231  0.3088
 4661TIP3    H213948   5.283   3.611  -0.024 -1.3330 -0.7607  0.8125
 4662TIP3   OH213949   4.029   5.518   2.292  0.5332 -0.3540 -0.4644
 4662TIP3    H113950   4.015   5.583   2.223  1.3354 -1.2668 -1.5267
 4662TIP3    H213951   3.975   5.443   2.265  0.5460 -0.5793  0.1205
 4663TIP3   OH213952   5.202   3.224   1.865 -0.1179 -0.7805  0.2673
 4663TIP3    H113953   5.141   3.223   1.938 -1.5197 -0.1161 -0.8422
 4663TIP3    H213954   5.276   3.277   1.896 -0.2692 -1.2501  1.4837
 4664TIP3   OH213955   3.413   6.016   2.150 -0.7739  0.2159  0.0033
 4664TIP3    H113956   3.440   6.081   2.085  2.2271  0.2223  1.1039
 4664TIP3    H213957   3.360   5.954   2.101 -0.7390  1.5887 -1.8697
 4665TIP3   OH213958   1.660   4.363   3.257 -0.0173  0.0339  0.7102
 4665TIP3    H113959   1.656   4.352   3.352  0.7867 -1.3013  0.6180
 4665TIP3    H213960   1.573   4.337   3.226 -0.3088  0.5513  1.0762
 4666TIP3   OH213961   5.791   1.768   2.235  0.1725  0.5513  0.9174
 4666TIP3    H113962   5.719   1.715   2.270 -2.0350  3.8375  1.8012
 4666TIP3    H213963   5.797   1.741   2.143 -0.2429 -1.7405  1.4901
 4667TIP3   OH213964   3.022   1.269   0.491  0.5124  0.0328 -0.4880
 4667TIP3    H113965   2.999   1.345   0.439 -0.4306  0.7847  0.9513
 4667TIP3    H213966   2.948   1.209   0.480 -0.8781  1.1728  1.7166
 4668TIP3   OH213967   4.281   4.354   1.843  0.5368  0.1040 -0.1175
 4668TIP3    H113968   4.321   4.279   1.799  1.0261  0.0479  0.4139
 4668TIP3    H213969   4.253   4.319   1.928  1.8622  0.7999  0.6327
 4669TIP3   OH213970   0.022   3.061   4.137  0.7481 -0.0658  0.1723
 4669TIP3    H113971   0.045   3.152   4.121  0.8618  0.1726  1.5961
 4669TIP3    H213972   0.095   3.011   4.099  2.1217  0.5672  1.8782
 4670TIP3   OH213973   4.982   0.133   2.623 -0.1642 -0.6126 -0.1438
 4670TIP3    H113974   4.976   0.099   2.713 -0.4954  0.8309  0.4057
 4670TIP3    H213975   5.018   0.220   2.633 -0.3522 -0.3791 -1.4129
 4671TIP3   OH213976   1.578   5.739   0.412  0.6230 -0.3489 -0.0499
 4671TIP3    H113977   1.606   5.713   0.324  0.3205 -0.3027 -0.1628
 4671TIP3    H213978   1.491   5.700   0.421  0.3404  0.2662 -0.0588
 4672TIP3   OH213979   2.653   5.107   1.041 -0.4172 -0.3238 -0.3337
 4672TIP3    H113980   2.646   5.020   1.079  1.1137 -0.1852  0.3241
 4672TIP3    H213981   2.698   5.159   1.108  1.5768  0.1470 -1.9458
 4673TIP3   OH213982   5.728   1.232   3.069  0.1193  0.1430 -0.1044
 4673TIP3    H113983   5.741   1.286   2.992 -0.4779  3.4599  1.9279
 4673TIP3    H213984   5.634   1.218   3.074  0.2030 -0.5131 -0.2285
 4674TIP3   OH213985   2.195   4.926   0.738  0.1086  0.0935  0.0604
 4674TIP3    H113986   2.249   4.931   0.817 -0.1619  1.7043  0.1803
 4674TIP3    H213987   2.180   5.018   0.713 -2.1042 -0.2953 -0.2748
 4675TIP3   OH213988   6.587   4.820   2.441  0.0659 -0.3446 -0.5842
 4675TIP3    H113989   6.602   4.813   2.347 -0.2468  0.0359 -0.6679
 4675TIP3    H213990   6.564   4.732   2.469  0.4899 -0.5274 -0.8034
 4676TIP3   OH213991   0.831   5.978   2.919  0.5456 -0.4953 -0.1322
 4676TIP3    H113992   0.846   5.944   3.007 -0.6758  0.8899  0.6506
 4676TIP3    H213993   0.909   6.029   2.899  0.4259 -0.0160  0.5728
 4677TIP3   OH213994   3.538   3.303   3.108 -0.3207  0.1048 -0.4983
 4677TIP3    H113995   3.518   3.349   3.189  1.2045 -1.8892  1.1246
 4677TIP3    H213996   3.484   3.346   3.042 -1.5979  1.8423  1.5429
 4678TIP3   OH213997   3.088   5.260   4.749 -0.5572  0.0507 -0.0039
 4678TIP3    H113998   3.018   5.314   4.785 -1.1095  1.0308 -2.3951
 4678TIP3    H213999   3.148   5.322   4.709  0.3597 -0.9445 -0.2037
 4679TIP3   OH214000   5.566   3.212   5.299 -0.4570  0.4174 -0.4031
 4679TIP3    H114001   5.512   3.231   5.376 -0.7830  2.1845 -1.0215
 4679TIP3    H214002   5.534   3.271   5.232  0.6775 -0.1903 -1.5350
 4680TIP3   OH214003   6.784   1.980   1.271  0.0821  0.4675 -0.2358
 4680TIP3    H114004   6.797   2.050   1.335  3.3137 -1.5446  1.5959
 4680TIP3    H214005   6.847   1.998   1.202  1.2748 -0.7714  0.4765
 4681TIP3   OH214006   5.307   2.033   5.596 -0.1354 -0.5210  0.2569
 4681TIP3    H114007   5.225   2.001   5.632  0.0484 -1.0263  0.2346
 4681TIP3    H214008   5.343   2.090   5.665 -0.4192 -0.4356  0.3343
 4682TIP3   OH214009   5.319   5.421   4.258  0.3826 -0.9702 -0.8698
 4682TIP3    H114010   5.365   5.481   4.199 -0.9497  2.5487  1.3635
 4682TIP3    H214011   5.384   5.395   4.323 -0.0619  2.1495  0.9671
 4683TIP3   OH214012   4.301   0.809   5.044 -0.4569 -0.4847 -0.0810
 4683TIP3    H114013   4.331   0.900   5.050  1.0032 -0.8009 -1.8331
 4683TIP3    H214014   4.207   0.817   5.029  0.0027  0.9194 -2.9396
 4684TIP3   OH214015   3.958   0.237   2.673 -0.5065  0.6304  0.0389
 4684TIP3    H114016   3.916   0.319   2.646  1.8514  1.8777 -0.1448
 4684TIP3    H214017   3.923   0.219   2.760 -1.7525  1.3036 -0.2971
 4685TIP3   OH214018   1.669   3.679   1.638 -0.5517  0.3412 -0.5712
 4685TIP3    H114019   1.673   3.666   1.543 -0.7530  0.6435 -0.6217
 4685TIP3    H214020   1.745   3.734   1.657 -1.0542  1.0842 -0.6933
 4686TIP3   OH214021   3.431   1.802   4.891 -0.4082  0.6406 -0.0421
 4686TIP3    H114022   3.415   1.894   4.868 -1.2270  0.3619 -0.6342
 4686TIP3    H214023   3.349   1.758   4.871  0.1133 -0.3027 -0.1465
 4687TIP3   OH214024   7.074   1.452   5.414  0.3781  0.4446  0.7890
 4687TIP3    H114025   7.068   1.371   5.365 -1.5884  0.2276  1.3019
 4687TIP3    H214026   7.015   1.440   5.489  0.8048  1.9653  1.4258
 4688TIP3   OH214027   4.252   1.360   4.663 -0.0033 -0.2326 -0.1898
 4688TIP3    H114028   4.165   1.330   4.689  0.6637 -0.9346  1.3880
 4688TIP3    H214029   4.309   1.285   4.678  0.8735  0.1641 -1.3438
 4689TIP3   OH214030   6.732   3.278   2.651  0.5187  0.2213  0.8546
 4689TIP3    H114031   6.705   3.365   2.619 -1.0681 -0.3768  0.4562
 4689TIP3    H214032   6.786   3.296   2.728  0.0929  1.5637  0.8659
 4690TIP3   OH214033   4.902   6.423   0.842 -0.1227  0.4893 -0.6798
 4690TIP3    H114034   4.870   6.346   0.796 -0.3752 -0.0575  0.3896
 4690TIP3    H214035   4.849   6.428   0.921  0.6982  1.0589 -0.1475
 4691TIP3   OH214036   0.455   4.269   3.498 -0.2115  0.1455 -0.2927
 4691TIP3    H114037   0.550   4.278   3.491 -0.0615  0.0910  1.2140
 4691TIP3    H214038   0.423   4.359   3.504 -0.1756  0.1449 -0.0734
 4692TIP3   OH214039   5.002   2.914   2.219  0.0961 -0.0257  0.2866
 4692TIP3    H114040   4.982   2.861   2.296 -0.1240 -1.0999 -0.4852
 4692TIP3    H214041   5.095   2.896   2.201  0.2594  0.5364  0.5136
 4693TIP3   OH214042   6.593   5.176   0.638  0.3500 -0.0642  0.3470
 4693TIP3    H114043   6.572   5.083   0.637 -1.1671  0.2480  0.1042
 4693TIP3    H214044   6.609   5.197   0.730  2.7417 -0.9461  0.1958
 4694TIP3   OH214045   4.816   3.669   2.907 -0.3501  0.0624 -0.1738
 4694TIP3    H114046   4.734   3.621   2.901 -0.1056 -0.2758 -1.0226
 4694TIP3    H214047   4.791   3.757   2.937 -0.8497 -0.4379  0.9380
 4695TIP3   OH214048   1.447   5.069   5.757 -0.2509 -0.2873  0.4543
 4695TIP3    H114049   1.495   5.119   5.823  0.6639  1.4092 -1.4100
 4695TIP3    H214050   1.512   5.009   5.721 -0.1599  0.2752 -0.3431
 4696TIP3   OH214051   0.386   5.067   1.603  0.0695  0.2975 -0.4302
 4696TIP3    H114052   0.356   5.007   1.671 -1.4524  0.8994 -0.5378
 4696TIP3    H214053   0.472   5.032   1.577 -0.0047 -0.8193  0.7051
 4697TIP3   OH214054   5.101   2.648   1.949 -0.4425  0.3005 -0.3371
 4697TIP3    H114055   5.166   2.718   1.954  1.2425 -1.2060 -0.2967
 4697TIP3    H214056   5.153   2.568   1.943 -2.3066 -1.0414  0.6854
 4698TIP3   OH214057   3.990   4.883   5.443 -0.0952 -0.3461  0.5453
 4698TIP3    H114058   4.037   4.962   5.472 -0.0856 -0.2960  0.3943
 4698TIP3    H214059   3.934   4.914   5.371  0.5368 -0.6464 -0.0773
 4699TIP3   OH214060   3.967   1.170   2.118  0.2406  0.0820  0.4356
 4699TIP3    H114061   4.006   1.114   2.185 -1.9310 -0.1608  1.5999
 4699TIP3    H214062   3.894   1.118   2.083  1.4963  0.0540 -2.4438
 4700TIP3   OH214063   0.995   6.431   4.789  0.1806 -0.1838  0.0516
 4700TIP3    H114064   1.010   6.342   4.820  0.9994 -0.2830 -0.5967
 4700TIP3    H214065   1.078   6.458   4.750 -0.0268  0.8980  0.2992
 4701TIP3   OH214066   6.821   1.191   5.376  0.1090  0.3212 -0.0312
 4701TIP3    H114067   6.734   1.219   5.404 -0.8267 -1.5155 -0.8875
 4701TIP3    H214068   6.843   1.119   5.436  1.3234  1.1628  0.5562
 4702TIP3   OH214069   4.342   5.091   4.772 -0.0495  0.3161  0.0222
 4702TIP3    H114070   4.406   5.160   4.755 -0.5618  0.9021  0.4585
 4702TIP3    H214071   4.263   5.120   4.726 -0.5191  0.4231  0.8934
 4703TIP3   OH214072   6.421   0.042   4.921 -0.3612  0.0023 -0.3042
 4703TIP3    H114073   6.512   0.059   4.899 -0.8531  0.8169 -1.8502
 4703TIP3    H214074   6.388  -0.009   4.847 -1.1572 -0.3438  0.2736
 4704TIP3   OH214075   2.364   5.264   1.056  0.4462 -0.1834 -0.2716
 4704TIP3    H114076   2.459   5.265   1.070  0.3626  0.2039  0.2640
 4704TIP3    H214077   2.329   5.322   1.123 -0.4075 -2.2897  1.1758
 4705TIP3   OH214078   3.042   3.277   2.762  0.4457  0.0886 -0.7489
 4705TIP3    H114079   3.071   3.364   2.791 -1.8385  0.6880  0.0420
 4705TIP3    H214080   3.071   3.218   2.830  1.2150  0.3664 -0.8234
 4706TIP3   OH214081   4.162   2.745   3.745  0.1293  0.3017  0.4267
 4706TIP3    H114082   4.160   2.824   3.799  1.3906  0.8315 -0.2890
 4706TIP3    H214083   4.251   2.711   3.754  1.2664  1.8212 -3.2702
 4707TIP3   OH214084   5.591   5.194   2.144  0.2457 -0.3768 -0.2297
 4707TIP3    H114085   5.531   5.126   2.114 -0.8867  0.1325  0.7600
 4707TIP3    H214086   5.676   5.169   2.109 -0.9896  0.5020 -4.3828
 4708TIP3   OH214087   5.857   3.265   1.579 -0.1369 -0.4435  0.3369
 4708TIP3    H114088   5.771   3.307   1.571 -0.3756 -0.9875 -0.0993
 4708TIP3    H214089   5.858   3.230   1.668 -0.2475 -0.1729  0.4448
 4709TIP3   OH214090   4.738   1.556   1.651 -0.0990  0.0117  0.3665
 4709TIP3    H114091   4.772   1.471   1.623 -0.9757  0.2137 -1.5026
 4709TIP3    H214092   4.648   1.559   1.617  0.2781  2.1096 -0.6556
 4710TIP3   OH214093   1.550   1.907   0.332  0.1062 -0.2278 -0.2351
 4710TIP3    H114094   1.643   1.891   0.350  0.2268 -0.7181 -1.2385
 4710TIP3    H214095   1.546   2.001   0.312  0.1331  0.1123  1.2172
 4711TIP3   OH214096   6.050   1.740   2.921  0.2123 -0.0672  0.1150
 4711TIP3    H114097   6.010   1.781   2.998 -0.8142 -1.0504  0.1383
 4711TIP3    H214098   6.072   1.651   2.950  0.6793 -0.1422 -0.4563
 4712TIP3   OH214099   2.543   6.717   1.585  0.2674  0.3114  0.5956
 4712TIP3    H114100   2.492   6.796   1.599  0.7837  1.0511 -1.3156
 4712TIP3    H214101   2.520   6.689   1.496 -0.4006 -2.0933  1.4212
 4713TIP3   OH214102   5.791   0.515   2.226  0.4355  0.0250  0.2280
 4713TIP3    H114103   5.804   0.422   2.208 -0.9910 -0.3990  1.2348
 4713TIP3    H214104   5.806   0.524   2.320 -2.3850  0.1758  0.7649
 4714TIP3   OH214105   0.954   6.517   5.482  0.1819 -0.5226 -0.1016
 4714TIP3    H114106   0.951   6.437   5.429  0.5590  0.2429 -1.3309
 4714TIP3    H214107   1.043   6.551   5.469 -0.1409  0.3772 -0.0310
 4715TIP3   OH214108   2.580   0.731   0.333  0.0458  0.1167 -0.3925
 4715TIP3    H114109   2.496   0.706   0.371 -1.1467  2.2447 -1.4362
 4715TIP3    H214110   2.563   0.737   0.239  0.9686  1.8786 -0.4972
 4716TIP3   OH214111   4.959   5.259   3.965  0.4573  0.4259  0.1031
 4716TIP3    H114112   4.992   5.269   3.876 -1.0192  2.6962 -0.2682
 4716TIP3    H214113   5.038   5.249   4.019  1.3695 -1.2889 -1.4368
 4717TIP3   OH214114   4.533   5.305   4.777  0.3611  0.5359  0.0990
 4717TIP3    H114115   4.608   5.336   4.726 -0.2305  1.2414 -0.3509
 4717TIP3    H214116   4.572   5.249   4.845  1.2910  0.9045 -0.1201
 4718TIP3   OH214117   1.771   0.941   2.837 -0.3855 -0.1803  0.2471
 4718TIP3    H114118   1.860   0.906   2.830 -0.8010 -1.4628  1.0349
 4718TIP3    H214119   1.761   0.996   2.760  1.5292  1.0116  0.7801
 4719TIP3   OH214120   2.932   1.972   0.113  0.2511  0.2737 -0.1652
 4719TIP3    H114121   2.928   2.053   0.164  1.9440  0.0597  0.3625
 4719TIP3    H214122   3.002   1.987   0.049  1.3262 -1.1355  0.6363
 4720TIP3   OH214123   6.081   6.596  -0.000  0.1084 -0.2393 -0.1319
 4720TIP3    H114124   6.040   6.617   0.084 -0.7181 -0.8995 -0.3613
 4720TIP3    H214125   6.051   6.507  -0.020  0.7787 -0.3162 -0.8406
 4721TIP3   OH214126   5.798   4.916   3.648 -0.1720  0.0947 -0.0161
 4721TIP3    H114127   5.730   4.939   3.584 -0.4382  0.8346  0.5129
 4721TIP3    H214128   5.844   4.842   3.609 -1.1535 -0.2886 -0.4819
 4722TIP3   OH214129   4.264   6.225   1.658 -0.0519 -0.1105  0.0384
 4722TIP3    H114130   4.222   6.269   1.732 -1.0549 -0.0299 -0.5712
 4722TIP3    H214131   4.357   6.228   1.679 -0.2082  1.1203  0.6451
 4723TIP3   OH214132   7.075   1.752   1.131 -0.3943  0.1027 -0.3569
 4723TIP3    H114133   6.991   1.794   1.111 -0.3365  0.4237  0.0580
 4723TIP3    H214134   7.052   1.671   1.175 -0.4845  0.2703 -0.0957
 4724TIP3   OH214135   0.811   2.677   2.015 -0.4673  0.3209  0.1638
 4724TIP3    H114136   0.804   2.594   1.968 -0.7425  1.6128 -2.2338
 4724TIP3    H214137   0.723   2.714   2.011  0.1398  1.7482 -0.8936
 4725TIP3   OH214138   0.256   1.801   5.753  0.4585  0.1992  0.2211
 4725TIP3    H114139   0.284   1.892   5.742 -1.5076  0.7732 -0.3941
 4725TIP3    H214140   0.268   1.761   5.667 -1.2636  0.6713 -0.2701
 4726TIP3   OH214141   0.263   5.640   0.831  0.0110  0.1077 -0.6381
 4726TIP3    H114142   0.193   5.699   0.802 -2.0269 -2.3348 -1.0565
 4726TIP3    H214143   0.229   5.599   0.911  1.7939  0.2162  0.2109
 4727TIP3   OH214144   4.567   4.489   0.317  0.4538  0.4637 -0.4805
 4727TIP3    H114145   4.578   4.563   0.377 -0.8247  0.0739  0.2843
 4727TIP3    H214146   4.481   4.452   0.341  1.2682 -1.5474 -0.5090
 4728TIP3   OH214147   6.721   2.375   0.073 -0.6069  0.2159  0.0131
 4728TIP3    H114148   6.736   2.395  -0.019 -2.2274  0.4420 -0.2323
 4728TIP3    H214149   6.807   2.351   0.107  0.2286  1.2911 -1.2581
 4729TIP3   OH214150   1.531   5.415   0.855 -0.8976  0.1026  0.1082
 4729TIP3    H114151   1.620   5.380   0.865 -1.4492 -0.9865  1.4831
 4729TIP3    H214152   1.487   5.352   0.799 -1.4959 -0.7561  1.4801
 4730TIP3   OH214153   4.111   3.911   5.042 -0.3331  0.3213 -0.0370
 4730TIP3    H114154   4.205   3.903   5.024 -0.0311  0.3466  1.3946
 4730TIP3    H214155   4.069   3.879   4.962  0.8857  0.2861 -0.7017
 4731TIP3   OH214156   3.385   4.809   5.716  0.7641  0.3633  0.4524
 4731TIP3    H114157   3.380   4.720   5.752  0.7119  0.3275  0.3569
 4731TIP3    H214158   3.467   4.844   5.750 -0.0344  0.8978  1.9150
 4732TIP3   OH214159   5.660   4.667   5.446 -0.3009 -0.6942 -0.2937
 4732TIP3    H114160   5.701   4.748   5.477 -2.6726  0.7293 -0.6254
 4732TIP3    H214161   5.638   4.620   5.527 -1.4315  0.3675  0.0517
 4733TIP3   OH214162   0.158   5.328   0.611  0.0128  0.1491  0.2846
 4733TIP3    H114163   0.234   5.363   0.564  1.3381  1.1046  2.9513
 4733TIP3    H214164   0.181   5.236   0.627 -0.2687 -0.0736 -0.5435
 4734TIP3   OH214165   2.142   6.133   2.554  0.2259 -0.4564  0.1103
 4734TIP3    H114166   2.107   6.127   2.643  1.6754 -0.4769  0.7043
 4734TIP3    H214167   2.179   6.046   2.538 -0.6543 -0.6853 -0.8141
 4735TIP3   OH214168   5.411   5.544   3.732 -0.0775 -0.6331 -0.4873
 4735TIP3    H114169   5.465   5.563   3.655  0.1650  0.4721 -0.0713
 4735TIP3    H214170   5.336   5.495   3.697 -0.3690  0.5200 -1.5709
 4736TIP3   OH214171   6.501   1.703   0.992 -0.2261 -0.6693  0.5496
 4736TIP3    H114172   6.411   1.690   1.022 -0.7992 -0.2999 -0.9120
 4736TIP3    H214173   6.497   1.783   0.940  0.7610 -1.1389 -0.2781
 4737TIP3   OH214174   2.758   5.514   4.576 -0.0010  0.2556 -0.3180
 4737TIP3    H114175   2.853   5.509   4.572  0.3185  1.5358  2.9167
 4737TIP3    H214176   2.730   5.424   4.595  0.5934  0.0206 -0.5385
 4738TIP3   OH214177   1.034   0.299   2.212  0.4427 -0.1666  0.2816
 4738TIP3    H114178   0.948   0.264   2.236  0.2228  0.0595 -0.1530
 4738TIP3    H214179   1.089   0.283   2.288  0.3596 -1.4842  0.0925
 4739TIP3   OH214180   0.805   6.155   1.873 -1.2151 -0.2308  0.3408
 4739TIP3    H114181   0.898   6.142   1.852 -0.5016  2.2428  1.5217
 4739TIP3    H214182   0.759   6.142   1.790  0.3116 -0.5076 -0.4958
 4740TIP3   OH214183   0.421   2.347   5.888  0.8012  0.5662  0.0944
 4740TIP3    H114184   0.359   2.411   5.853 -0.2419 -1.0296 -1.1051
 4740TIP3    H214185   0.391   2.263   5.855  1.9824 -0.6168  1.8190
 4741TIP3   OH214186   2.033   5.038   5.257 -0.2359 -0.4457  0.5901
 4741TIP3    H114187   2.096   5.039   5.185 -0.1079 -0.8739  0.6956
 4741TIP3    H214188   1.978   5.115   5.242 -0.1955 -0.5219  0.0477
 4742TIP3   OH214189   2.019   2.769   0.553  0.1220 -0.0066  0.4096
 4742TIP3    H114190   2.111   2.742   0.552 -0.0431 -0.5698  0.1296
 4742TIP3    H214191   1.995   2.770   0.646 -0.4694 -2.9629  0.3873
 4743TIP3   OH214192   0.779   0.307   1.611  0.3831 -0.4211  0.2355
 4743TIP3    H114193   0.725   0.259   1.549  1.2956 -1.4003  0.1692
 4743TIP3    H214194   0.721   0.325   1.685 -1.0461  1.6862 -1.2576
 4744TIP3   OH214195   1.659   6.113   3.382 -0.1777  0.3067 -0.6454
 4744TIP3    H114196   1.755   6.115   3.378 -0.1447  1.4002  0.3420
 4744TIP3    H214197   1.636   6.182   3.444 -1.5683 -0.6707 -0.0425
 4745TIP3   OH214198   4.893   0.053   5.065  0.1708 -0.1620  0.0444
 4745TIP3    H114199   4.961  -0.014   5.063 -1.2775 -1.7538 -2.5838
 4745TIP3    H214200   4.934   0.130   5.027  1.0690 -0.4477  0.4107
 4746TIP3   OH214201   5.610   4.302   3.222  0.0742 -0.2454  0.0198
 4746TIP3    H114202   5.685   4.327   3.168  0.1087 -0.8639 -0.2261
 4746TIP3    H214203   5.606   4.369   3.290 -1.0897  1.5902 -1.7597
 4747TIP3   OH214204   6.626   2.791   3.365 -0.7347 -0.3301 -0.2085
 4747TIP3    H114205   6.624   2.718   3.428 -0.0732 -0.2390 -0.0823
 4747TIP3    H214206   6.645   2.750   3.281  1.9107 -0.0884  0.2049
 4748TIP3   OH214207   4.800   3.720   3.383 -0.3694 -0.2222  0.4662
 4748TIP3    H114208   4.848   3.641   3.358  2.2389  1.3537  0.1530
 4748TIP3    H214209   4.709   3.701   3.359  0.5372 -2.2260 -1.8215
 4749TIP3   OH214210   3.497   5.036   4.339 -0.1775  0.2595  0.1072
 4749TIP3    H114211   3.426   5.082   4.294 -1.4173 -2.9440 -1.5048
 4749TIP3    H214212   3.460   5.012   4.424  0.3944  1.9096  0.8584
 4750TIP3   OH214213   4.751   4.376   2.175 -0.1349  0.9429 -1.0007
 4750TIP3    H114214   4.842   4.356   2.197 -0.4048  0.1693 -0.5355
 4750TIP3    H214215   4.727   4.311   2.110 -0.5734  0.6710 -0.5798
 4751TIP3   OH214216   1.189   1.572   2.817 -1.0126 -0.1900 -0.0243
 4751TIP3    H114217   1.260   1.553   2.877  0.6132  1.7801 -1.1980
 4751TIP3    H214218   1.176   1.491   2.767 -1.2260 -1.2869  1.7318
 4752TIP3   OH214219   5.860   1.982   4.039 -0.3042 -0.5184 -0.4375
 4752TIP3    H114220   5.828   1.932   4.114 -2.6258 -1.7136 -2.0926
 4752TIP3    H214221   5.812   2.065   4.045  0.1306 -0.2853 -0.1628
 4753TIP3   OH214222   2.606   5.955   4.044 -0.4705 -0.2952  0.4440
 4753TIP3    H114223   2.607   5.925   4.135  0.4927  0.1819  0.6006
 4753TIP3    H214224   2.531   6.015   4.039  0.6586  1.2600  1.4654
 4754TIP3   OH214225   4.242   3.493   2.952  0.4502  0.4677 -0.3330
 4754TIP3    H114226   4.331   3.523   2.972  0.2077  0.9938 -0.0311
 4754TIP3    H214227   4.202   3.564   2.903  0.0327  0.4420 -0.0388
 4755TIP3   OH214228   4.474   4.187   1.707  0.0838 -0.1353 -0.8161
 4755TIP3    H114229   4.519   4.253   1.654  1.0993 -0.5163 -0.4631
 4755TIP3    H214230   4.449   4.119   1.644  1.1656 -0.5234 -0.8624
 4756TIP3   OH214231   1.322   4.255   0.508 -0.1177  0.0235  0.2614
 4756TIP3    H114232   1.253   4.188   0.509  2.8197 -3.3752  1.5689
 4756TIP3    H214233   1.322   4.289   0.419 -1.3832 -2.2863 -0.7112
 4757TIP3   OH214234   0.020   3.945   1.920  0.3572 -0.0577  0.5623
 4757TIP3    H114235  -0.021   4.028   1.894  0.3218 -0.2457  0.0006
 4757TIP3    H214236   0.089   3.932   1.855 -0.1060 -0.8313  0.2123
 4758TIP3   OH214237   0.458   5.747   5.398 -0.4967  0.2578  0.2739
 4758TIP3    H114238   0.498   5.670   5.357  0.4960  0.4016  0.9351
 4758TIP3    H214239   0.367   5.721   5.415 -1.0354  0.2910 -2.2167
 4759TIP3   OH214240   5.067   5.359   2.083 -0.6019  0.0064  0.3774
 4759TIP3    H114241   4.989   5.413   2.091 -0.9281 -0.4832  0.5703
 4759TIP3    H214242   5.137   5.412   2.122 -0.9313  0.2621  0.6282
 4760TIP3   OH214243   2.013   1.673   4.162  0.3687 -0.4475 -0.2439
 4760TIP3    H114244   2.107   1.674   4.143  0.6240 -1.6348  0.8168
 4760TIP3    H214245   1.987   1.765   4.156  1.8100  0.0358  0.3525
 4761TIP3   OH214246   3.823   4.640   0.204  0.5242 -0.3255 -0.0092
 4761TIP3    H114247   3.749   4.599   0.159 -0.6792  1.4298  0.2983
 4761TIP3    H214248   3.895   4.635   0.141 -0.9577  1.5742 -1.9974
 4762TIP3   OH214249   6.483   3.668   5.072 -0.8684  0.1083 -0.5229
 4762TIP3    H114250   6.517   3.602   5.133 -1.0437 -0.7697 -1.3464
 4762TIP3    H214251   6.413   3.711   5.120  0.6396  1.1921  0.8063
 4763TIP3   OH214252   1.007   5.689   1.996 -0.1377  0.4784 -0.2434
 4763TIP3    H114253   0.945   5.749   1.954 -0.1968  0.8274  0.3292
 4763TIP3    H214254   0.978   5.684   2.087  0.8808  0.9196  0.1231
 4764TIP3   OH214255   1.344   3.869   2.087  0.3871  0.9795  0.3517
 4764TIP3    H114256   1.337   3.827   2.001  2.1650  1.8093 -0.2311
 4764TIP3    H214257   1.253   3.875   2.117 -0.1361 -1.0666 -0.5882
 4765TIP3   OH214258   4.902   6.699   3.163 -0.1193 -0.2929  0.4791
 4765TIP3    H114259   4.838   6.754   3.207  1.9297  3.5499 -0.8811
 4765TIP3    H214260   4.984   6.714   3.209  0.9043 -0.6458 -1.1152
 4766TIP3   OH214261   3.235   0.039   4.266 -0.5588 -0.4708  0.4563
 4766TIP3    H114262   3.262   0.006   4.352  0.4200  1.1940  0.8401
 4766TIP3    H214263   3.140   0.026   4.263 -0.7219  0.0912  2.1111
 4767TIP3   OH214264   6.808   1.706   3.960  0.3070  0.9362  0.0154
 4767TIP3    H114265   6.816   1.680   3.868  0.2073  0.9029  0.0165
 4767TIP3    H214266   6.740   1.650   3.995  0.9870  0.2964  0.3480
 4768TIP3   OH214267   1.372   1.679   0.390 -0.5355 -0.3827  0.2151
 4768TIP3    H114268   1.326   1.603   0.355 -2.6389  0.5548  0.8058
 4768TIP3    H214269   1.363   1.672   0.485 -1.0339  0.7576  0.2640
 4769TIP3   OH214270   0.854   4.880   2.899  0.4410  0.1503  0.2075
 4769TIP3    H114271   0.768   4.885   2.858 -0.0859  0.1798  1.2813
 4769TIP3    H214272   0.913   4.855   2.828 -0.6065 -0.8883 -0.3366
 4770TIP3   OH214273   6.023   3.977   0.893  0.2144  0.4842 -0.0172
 4770TIP3    H114274   6.059   3.889   0.901  1.5008  0.8598 -1.2384
 4770TIP3    H214275   6.094   4.035   0.920 -1.0059  1.1646  1.9650
 4771TIP3   OH214276   5.431   4.777   3.786 -0.3154  0.0931 -0.0011
 4771TIP3    H114277   5.499   4.739   3.841  0.1408  0.5452 -0.2401
 4771TIP3    H214278   5.429   4.870   3.811 -2.0388 -0.2221  1.2278
 4772TIP3   OH214279   2.314   5.949   5.006  0.5741  0.4744  0.4801
 4772TIP3    H114280   2.396   5.936   4.958  0.2279 -0.1040  0.0258
 4772TIP3    H214281   2.249   5.967   4.938  0.1922  0.2177  0.7724
 4773TIP3   OH214282   5.513   5.805   2.418 -0.0755  0.2657  0.1477
 4773TIP3    H114283   5.419   5.820   2.421 -0.2208 -0.6938  0.6661
 4773TIP3    H214284   5.544   5.833   2.505 -0.0629 -0.5327  0.4068
 4774TIP3   OH214285   1.658   2.168   0.778 -0.6346  0.5352  0.1161
 4774TIP3    H114286   1.579   2.144   0.827 -0.7130  0.0288 -0.2477
 4774TIP3    H214287   1.726   2.176   0.844 -0.3028 -1.9538  0.1483
 4775TIP3   OH214288   3.429   1.461   5.172  0.3869  0.0914  0.0541
 4775TIP3    H114289   3.444   1.378   5.218 -0.9493  0.7397  1.7633
 4775TIP3    H214290   3.501   1.517   5.198  0.0033  0.2296  0.8534
 4776TIP3   OH214291   5.731   4.891   4.078  0.3048  0.0410 -0.0409
 4776TIP3    H114292   5.663   4.916   4.015  2.1470  1.3765 -1.6382
 4776TIP3    H214293   5.703   4.929   4.161 -1.6663 -0.8430 -0.2565
 4777TIP3   OH214294   7.165   5.499   0.666  0.3689  0.1927  0.1466
 4777TIP3    H114295   7.091   5.460   0.712  0.4458  2.1194  2.0157
 4777TIP3    H214296   7.226   5.426   0.653 -0.6171 -0.8379  1.1097
 4778TIP3   OH214297   2.056   2.643   5.420 -0.0984 -0.5607  0.0659
 4778TIP3    H114298   2.052   2.717   5.359 -1.6220 -0.3563  0.3754
 4778TIP3    H214299   2.010   2.572   5.375 -0.0783 -0.8098  0.4311
 4779TIP3   OH214300   7.077   3.014   2.617  0.2098  0.4919 -0.3540
 4779TIP3    H114301   7.143   3.083   2.614  1.0546 -0.3194 -1.5294
 4779TIP3    H214302   7.128   2.934   2.635 -0.3296 -0.2539 -1.9555
 4780TIP3   OH214303   3.710   1.309   0.688 -0.1281  0.4863 -0.4777
 4780TIP3    H114304   3.709   1.215   0.708  0.2015  0.7245  0.7260
 4780TIP3    H214305   3.786   1.342   0.735 -1.8022  1.8431  1.4243
 4781TIP3   OH214306   5.244   5.716   2.438  0.0279  0.3580  0.0796
 4781TIP3    H114307   5.240   5.670   2.521  0.9411 -0.3524 -0.2555
 4781TIP3    H214308   5.198   5.798   2.454 -1.3226 -0.5108  0.7789
 4782TIP3   OH214309   7.077   2.822   0.849  0.0162  0.5453  0.2532
 4782TIP3    H114310   7.169   2.838   0.829 -0.2792  0.1348 -1.5960
 4782TIP3    H214311   7.060   2.733   0.817 -1.0748  0.6829  0.3896
 4783TIP3   OH214312   2.317   2.819   4.703  0.4092 -0.1340  0.2131
 4783TIP3    H114313   2.391   2.817   4.764 -0.3548 -0.6863  1.1622
 4783TIP3    H214314   2.241   2.837   4.759 -0.3248 -0.7803 -0.5534
 4784TIP3   OH214315   2.898   6.560   3.792 -0.2728  0.2467 -0.0203
 4784TIP3    H114316   2.919   6.596   3.878 -0.6146  0.9942 -0.2375
 4784TIP3    H214317   2.811   6.522   3.802  0.0861 -0.5444  0.2080
 4785TIP3   OH214318   4.624   0.497   3.942  0.1588  0.1772  0.6955
 4785TIP3    H114319   4.538   0.491   3.901  0.1322  1.0389  0.5982
 4785TIP3    H214320   4.658   0.407   3.941  0.1922  0.1756 -1.2958
 4786TIP3   OH214321   1.201   3.076   3.063 -0.1728 -0.1827 -0.1758
 4786TIP3    H114322   1.209   3.164   3.102 -1.1296 -0.1439 -0.0505
 4786TIP3    H214323   1.149   3.026   3.126  0.8512 -1.0204  0.0263
 4787TIP3   OH214324   3.651   1.214   2.062  0.6532  0.1550  0.5110
 4787TIP3    H114325   3.664   1.123   2.087  1.4693 -0.0395 -0.5250
 4787TIP3    H214326   3.662   1.214   1.967  0.7944  1.3509  0.5145
 4788TIP3   OH214327   4.019   6.209   0.113 -0.6935  0.0866  0.3506
 4788TIP3    H114328   4.095   6.162   0.081 -0.7793  0.0511  0.1980
 4788TIP3    H214329   3.961   6.215   0.038 -0.2250  1.3799  0.0734
 4789TIP3   OH214330   0.590   3.556   2.722  0.1186 -0.7427  0.0985
 4789TIP3    H114331   0.614   3.596   2.638  0.6816 -0.5581  0.3381
 4789TIP3    H214332   0.602   3.462   2.708 -0.9344 -0.8240 -0.3800
 4790TIP3   OH214333   6.995   6.287   3.390  0.0945 -0.1015  0.3528
 4790TIP3    H114334   7.046   6.214   3.425  1.8287  1.6883  1.8479
 4790TIP3    H214335   6.970   6.338   3.467 -0.3198  1.3414 -0.6865
 4791TIP3   OH214336   5.803   0.062   0.828  0.3471 -0.0777 -0.2229
 4791TIP3    H114337   5.747   0.116   0.884  1.2392 -0.1817  0.7942
 4791TIP3    H214338   5.864   0.124   0.789  1.4458 -0.3205  1.0337
 4792TIP3   OH214339   0.200   2.231   4.905  0.2679  0.5152  0.3410
 4792TIP3    H114340   0.211   2.325   4.915 -0.1624  0.4880  1.1757
 4792TIP3    H214341   0.269   2.193   4.959 -0.6469  0.3658  1.4606
 4793TIP3   OH214342   2.621   1.198   4.082 -0.2908 -0.0375 -0.5960
 4793TIP3    H114343   2.586   1.118   4.041  2.0581 -1.2034 -0.5156
 4793TIP3    H214344   2.671   1.240   4.012  1.8898 -0.8665  0.3656
 4794TIP3   OH214345   7.060   5.388   4.355 -0.4735  0.3240  0.1424
 4794TIP3    H114346   6.971   5.352   4.355 -0.3562 -0.0703  1.8739
 4794TIP3    H214347   7.073   5.420   4.445  1.5085 -0.6375  0.2637
 4795TIP3   OH214348   2.631   4.252   5.875  0.1063  0.4752  0.0355
 4795TIP3    H114349   2.684   4.172   5.877 -0.4286  0.1187 -0.0352
 4795TIP3    H214350   2.591   4.251   5.788  0.5350  1.1061 -0.1742
 4796TIP3   OH214351   0.732   0.121   5.093 -0.3293  0.4774 -0.2828
 4796TIP3    H114352   0.724   0.202   5.043  0.8409  0.1163 -1.1315
 4796TIP3    H214353   0.811   0.133   5.146 -0.2152 -0.0413 -0.3229
 4797TIP3   OH214354   4.821   5.347   0.405 -0.2363 -0.1560  0.8377
 4797TIP3    H114355   4.862   5.432   0.417 -0.2382  0.1216 -0.9234
 4797TIP3    H214356   4.887   5.284   0.434  1.2547  0.3021 -1.3388
 4798TIP3   OH214357   3.151   3.023   3.873  0.2959  0.1771  0.2653
 4798TIP3    H114358   3.222   2.959   3.886 -0.1320 -0.4507 -0.4084
 4798TIP3    H214359   3.141   3.028   3.778  1.2774  2.3386  0.2333
 4799TIP3   OH214360   4.717   2.666   0.173  0.2261 -0.3059 -0.0909
 4799TIP3    H114361   4.643   2.657   0.233  0.0559  0.7445 -0.1284
 4799TIP3    H214362   4.778   2.597   0.199 -0.0039 -0.0828  1.0554
 4800TIP3   OH214363   0.202   4.290   3.888 -0.1539 -0.2738 -0.4863
 4800TIP3    H114364   0.195   4.265   3.796 -0.7096 -1.0777 -0.2445
 4800TIP3    H214365   0.163   4.377   3.893  0.3267 -0.0167 -1.0865
 4801TIP3   OH214366   3.513   5.959   1.690 -0.5113  0.1410  0.4291
 4801TIP3    H114367   3.559   5.875   1.690 -0.6525  0.0646  0.5485
 4801TIP3    H214368   3.443   5.949   1.626 -0.2831  0.3017  0.1510
 4802TIP3   OH214369   0.834   0.543   4.532  0.1701 -0.2861  0.2326
 4802TIP3    H114370   0.830   0.633   4.565 -1.9192 -0.3568  0.3158
 4802TIP3    H214371   0.789   0.491   4.598  1.7061 -1.4998  0.3813
 4803TIP3   OH214372   2.725   3.004   5.279  0.3677 -0.3339  0.1746
 4803TIP3    H114373   2.809   3.048   5.269 -1.0666  2.6696 -0.0577
 4803TIP3    H214374   2.708   2.964   5.194  0.3693  1.4966 -0.7463
 4804TIP3   OH214375   4.165   3.569   5.432 -0.2060 -0.2323  0.4825
 4804TIP3    H114376   4.084   3.611   5.462 -0.8542  0.4563 -2.0240
 4804TIP3    H214377   4.223   3.642   5.410  1.1899 -0.7162  2.3253
 4805TIP3   OH214378   6.149   1.236   4.166 -0.4797 -0.1457  0.6076
 4805TIP3    H114379   6.106   1.154   4.190 -0.2709  0.1286  2.0492
 4805TIP3    H214380   6.167   1.228   4.073  0.8162 -2.3325  0.9825
 4806TIP3   OH214381   1.063   2.520   5.797  0.5227  1.1036 -0.2314
 4806TIP3    H114382   1.111   2.535   5.878 -0.5698  2.0165  0.2608
 4806TIP3    H214383   0.973   2.544   5.817  0.2637  1.4948 -1.7573
 4807TIP3   OH214384   1.675   5.261   1.257  0.2560 -0.5383 -0.4821
 4807TIP3    H114385   1.764   5.246   1.289  0.7225 -0.4838 -1.7119
 4807TIP3    H214386   1.675   5.353   1.231 -0.0296 -0.6488 -0.8712
 4808TIP3   OH214387   3.907   6.170   0.765  0.1494  0.2213  0.2961
 4808TIP3    H114388   3.815   6.188   0.785  0.1126  1.3717 -0.7753
 4808TIP3    H214389   3.949   6.162   0.850 -0.4496  2.3897  0.8682
 4809TIP3   OH214390   0.073   6.593   2.833 -0.2471 -0.2384 -0.4231
 4809TIP3    H114391   0.115   6.658   2.776 -0.2608  0.8267  0.7421
 4809TIP3    H214392   0.145   6.537   2.861  0.4851  1.4941  1.4495
 4810TIP3   OH214393   1.514   4.250   2.013  0.8226 -0.0174 -0.4614
 4810TIP3    H114394   1.532   4.339   1.982  1.5912 -0.2883 -0.8221
 4810TIP3    H214395   1.594   4.202   1.994  1.1370 -0.3366  1.4876
 4811TIP3   OH214396   0.685   1.223   3.898 -0.1072 -0.3093  0.0540
 4811TIP3    H114397   0.707   1.315   3.883 -0.8842 -0.0512  0.4730
 4811TIP3    H214398   0.748   1.194   3.964  0.1013 -0.0654 -0.0350
 4812TIP3   OH214399   5.322   0.059   1.972  0.1623  0.5325  0.3817
 4812TIP3    H114400   5.367  -0.025   1.964 -0.0950  0.4669 -0.4945
 4812TIP3    H214401   5.384   0.114   2.019 -0.3515 -0.6252  2.5377
 4813TIP3   OH214402   1.387   5.998   0.119  0.0466 -0.6424 -0.3837
 4813TIP3    H114403   1.444   5.943   0.064 -1.3644  0.0048 -2.6190
 4813TIP3    H214404   1.299   5.978   0.089 -0.8762 -0.6240  2.0958
 4814TIP3   OH214405   2.224   3.668   5.417  0.7513  0.6345 -0.5044
 4814TIP3    H114406   2.313   3.665   5.383  0.6578  1.2190 -0.8125
 4814TIP3    H214407   2.190   3.753   5.389  0.2738  0.6398  0.0543
 4815TIP3   OH214408   1.140   3.979   0.443 -0.2113  0.8154  0.2576
 4815TIP3    H114409   1.182   3.990   0.358 -0.5390 -1.0210 -0.1980
 4815TIP3    H214410   1.198   3.919   0.490 -0.1557  1.6331  1.2562
 4816TIP3   OH214411   1.042   4.727   2.266  0.1277 -0.4190  0.1200
 4816TIP3    H114412   0.995   4.736   2.349  0.3053 -0.3968  0.2190
 4816TIP3    H214413   1.134   4.720   2.291  0.6900  3.5117 -0.2166
 4817TIP3   OH214414   2.991   3.653   5.070  0.3371 -0.6626 -0.3332
 4817TIP3    H114415   3.074   3.675   5.113  0.8771 -0.7632 -1.2841
 4817TIP3    H214416   2.927   3.712   5.109  0.8695 -0.5256  0.3552
 4818TIP3   OH214417   1.734   5.070   1.583  0.1500 -0.0576  0.3238
 4818TIP3    H114418   1.752   5.151   1.534  0.9251  0.0410  0.7520
 4818TIP3    H214419   1.686   5.099   1.660 -0.7747 -0.1724 -0.2041
 4819TIP3   OH214420   6.476   6.693   1.426 -0.2209 -0.2984  0.0550
 4819TIP3    H114421   6.563   6.710   1.462  0.7884  0.1067 -2.3688
 4819TIP3    H214422   6.418   6.751   1.474  1.0268  0.2210  0.9811
 4820TIP3   OH214423   4.316   0.804   0.116 -0.0173 -0.3218 -0.3540
 4820TIP3    H114424   4.347   0.868   0.180  0.2307 -0.5917 -0.2022
 4820TIP3    H214425   4.359   0.722   0.141 -0.7380 -0.6720 -0.2272
 4821TIP3   OH214426   0.793   6.804   4.989  0.1748  0.5172  0.1261
 4821TIP3    H114427   0.720   6.761   5.033 -0.6431  1.7917  0.0666
 4821TIP3    H214428   0.803   6.757   4.906  1.4119 -1.5876  1.3861
 4822TIP3   OH214429   5.418   1.431   0.827  0.3330 -0.1601 -0.5014
 4822TIP3    H114430   5.328   1.400   0.817  0.2446 -0.4097  0.7999
 4822TIP3    H214431   5.414   1.493   0.900  1.5056 -1.6559  0.9292
 4823TIP3   OH214432   1.152   6.367   1.633  0.2959 -0.3140  0.3136
 4823TIP3    H114433   1.120   6.402   1.716  1.9066  0.1598  0.7632
 4823TIP3    H214434   1.073   6.353   1.581 -0.6252  0.9485  1.3147
 4824TIP3   OH214435   0.876   2.131   3.880  0.4697 -0.5473  0.4043
 4824TIP3    H114436   0.797   2.133   3.935  0.3304  0.4043  0.1828
 4824TIP3    H214437   0.843   2.141   3.790  0.7970 -0.7836  0.2551
 4825TIP3   OH214438   2.492   5.113   3.373  0.2661 -0.4595 -0.1925
 4825TIP3    H114439   2.538   5.177   3.318 -1.2118  0.8907  0.0673
 4825TIP3    H214440   2.400   5.139   3.367  0.0122 -0.4358  2.7036
 4826TIP3   OH214441   6.596   2.576   5.613  0.3735 -0.0676  0.0158
 4826TIP3    H114442   6.507   2.565   5.580 -0.3441  1.5575  1.2448
 4826TIP3    H214443   6.639   2.631   5.547  0.0781  0.1658  0.0143
 4827TIP3   OH214444   0.091   6.803   1.588 -0.3409 -0.1507  0.3575
 4827TIP3    H114445   0.146   6.728   1.611  0.2216 -0.2995 -1.3268
 4827TIP3    H214446   0.007   6.786   1.631  0.3467 -0.8342  1.4655
 4828TIP3   OH214447   0.186   6.724   0.016  0.3440  1.0944  1.0051
 4828TIP3    H114448   0.155   6.635   0.005  1.3540  0.7881  0.5405
 4828TIP3    H214449   0.111   6.771   0.053  0.1503 -0.1906  2.3642
 4829TIP3   OH214450   1.601   4.043   1.730 -0.1261 -0.1399 -0.4595
 4829TIP3    H114451   1.549   3.982   1.678  0.3241  0.8163 -2.1236
 4829TIP3    H214452   1.553   4.126   1.725  0.4587  0.2234 -0.2325
 4830TIP3   OH214453   1.737   6.644   1.008 -0.2652 -0.1214  0.2526
 4830TIP3    H114454   1.739   6.717   1.070  0.1856  0.0682  0.0196
 4830TIP3    H214455   1.813   6.659   0.951  0.0636 -0.9893  0.4476
 4831TIP3   OH214456   4.040   6.160   4.945 -0.4250  0.2823  0.1373
 4831TIP3    H114457   4.108   6.101   4.979  0.5192  0.3526 -1.5480
 4831TIP3    H214458   4.040   6.234   5.006  2.4845  1.2610 -0.9054
 4832TIP3   OH214459   2.853   4.713   0.063  0.0286  0.2172  0.1210
 4832TIP3    H114460   2.775   4.685   0.015 -0.0807 -1.7814  1.3674
 4832TIP3    H214461   2.918   4.645   0.046  1.2187  1.3613 -0.1026
 4833TIP3   OH214462   5.996   6.084   4.077 -0.0304  0.1949  0.2787
 4833TIP3    H114463   5.972   6.001   4.036 -0.1915  0.8912 -1.0959
 4833TIP3    H214464   5.987   6.149   4.007  1.9010  1.1125  0.8108
 4834TIP3   OH214465   4.604   4.167   5.848 -0.2383  0.1697  0.5395
 4834TIP3    H114466   4.614   4.232   5.778 -1.8689  0.2110  0.3222
 4834TIP3    H214467   4.542   4.207   5.910  0.0941 -0.4591  1.3014
 4835TIP3   OH214468   3.815   5.974   3.230  0.2531  0.7390  0.1290
 4835TIP3    H114469   3.814   5.969   3.326 -0.5636 -0.9602  0.0635
 4835TIP3    H214470   3.722   5.980   3.206  0.3938  0.1013 -0.5877
 4836TIP3   OH214471   0.729   4.610   5.182  0.0553  0.1797 -0.4631
 4836TIP3    H114472   0.656   4.648   5.134  0.5987 -0.2792 -1.6964
 4836TIP3    H214473   0.802   4.671   5.169 -0.5368  1.6836  2.4004
 4837TIP3   OH214474   6.820   4.295   2.637  0.1933  0.1417  0.3756
 4837TIP3    H114475   6.767   4.318   2.561 -1.5060  2.2716  2.0888
 4837TIP3    H214476   6.814   4.200   2.644 -4.4587  0.2852  1.1047
 4838TIP3   OH214477   0.804   0.718   1.063  0.3029  0.8423  0.1346
 4838TIP3    H114478   0.784   0.811   1.049 -0.6713  0.3249 -2.2955
 4838TIP3    H214479   0.873   0.699   0.999 -0.4012 -0.3945 -0.2678
 4839TIP3   OH214480   1.004   3.682   1.967 -0.1830 -0.5319 -0.2623
 4839TIP3    H114481   1.064   3.750   1.938 -0.7277 -0.4385 -1.1918
 4839TIP3    H214482   1.025   3.606   1.913  0.4641 -1.1323  0.8105
 4840TIP3   OH214483   4.099   1.119   4.654  0.0517 -0.0656 -0.7960
 4840TIP3    H114484   4.186   1.101   4.689  0.0960  0.5092 -0.5995
 4840TIP3    H214485   4.045   1.047   4.684  0.5514 -0.6423 -1.2615
 4841TIP3   OH214486   2.327   2.037   0.697  0.1967  0.1968 -0.1708
 4841TIP3    H114487   2.254   1.976   0.709  0.6017 -0.2525  0.0343
 4841TIP3    H214488   2.327   2.090   0.776  1.1917 -0.9924  0.6853
 4842TIP3   OH214489   2.108   0.946   2.084 -0.4867  0.8900 -0.2864
 4842TIP3    H114490   2.194   0.975   2.054  0.7322 -3.2018 -1.5158
 4842TIP3    H214491   2.059   0.931   2.003 -1.0474 -0.1432  0.2218
 4843TIP3   OH214492   6.385   4.228   1.660  0.0129  0.3383  0.1009
 4843TIP3    H114493   6.451   4.293   1.683 -0.7514  0.6886  1.4126
 4843TIP3    H214494   6.432   4.162   1.610  0.9095  1.6277 -0.7990
 4844TIP3   OH214495   7.203   1.661   5.611  0.2500 -0.3506 -0.1526
 4844TIP3    H114496   7.142   1.621   5.549 -0.5758  0.1552  0.3131
 4844TIP3    H214497   7.169   1.750   5.624  1.0922 -0.0568  0.1196
 4845TIP3   OH214498   1.289   6.086   3.226 -0.6907  0.0182  0.1716
 4845TIP3    H114499   1.287   6.017   3.159 -0.8648  0.4552 -0.2806
 4845TIP3    H214500   1.202   6.126   3.222 -0.3489  0.7497 -0.0865
 4846TIP3   OH214501   2.414   0.033   0.845 -0.0582 -0.2876  1.0509
 4846TIP3    H114502   2.360  -0.042   0.818  1.6349 -1.5921  1.1529
 4846TIP3    H214503   2.419   0.025   0.940 -0.1499  0.1643  1.0933
 4847TIP3   OH214504   2.589   3.096   1.489 -0.4776 -0.0863  0.3112
 4847TIP3    H114505   2.594   3.011   1.444 -0.9597  0.0310  0.0307
 4847TIP3    H214506   2.518   3.086   1.552 -0.3243  0.0054  0.4978
 4848TIP3   OH214507   7.055   6.380   4.399 -0.0016 -0.1304  0.2914
 4848TIP3    H114508   7.104   6.361   4.319 -1.1582 -1.6674 -0.0891
 4848TIP3    H214509   6.976   6.327   4.392 -0.0993 -0.3554  2.5039
 4849TIP3   OH214510   4.827   1.422   3.522 -0.3296  0.3563  0.5520
 4849TIP3    H114511   4.920   1.418   3.542 -0.6399 -1.5825  1.8835
 4849TIP3    H214512   4.786   1.366   3.588 -2.3785  0.6499 -0.3964
 4850TIP3   OH214513   1.215   2.665   1.448  0.2360  0.2770  0.6392
 4850TIP3    H114514   1.145   2.681   1.511  0.5004  0.4915  0.8800
 4850TIP3    H214515   1.177   2.602   1.386 -0.8413  1.8387 -0.3619
 4851TIP3   OH214516   4.697   1.791   5.305  0.1169 -0.0864  0.2033
 4851TIP3    H114517   4.683   1.878   5.267 -0.9631 -0.3830 -0.1110
 4851TIP3    H214518   4.629   1.736   5.266  0.9912 -1.1699  0.1287
 4852TIP3   OH214519   2.272   3.631   4.220 -0.3719  0.2330 -0.3577
 4852TIP3    H114520   2.245   3.567   4.154  0.7679  1.3925 -2.0504
 4852TIP3    H214521   2.368   3.621   4.224 -0.5236 -1.0066  2.4863
 4853TIP3   OH214522   6.640   0.766   1.341  0.5010  0.3264  0.1501
 4853TIP3    H114523   6.606   0.797   1.256  1.2958  0.1296 -0.2513
 4853TIP3    H214524   6.734   0.784   1.336  0.7452 -0.8160  0.4977
 4854TIP3   OH214525   2.796   0.739   2.329  0.2267  0.3581 -0.1504
 4854TIP3    H114526   2.814   0.705   2.241  1.8241 -0.3644  0.4174
 4854TIP3    H214527   2.701   0.738   2.336  0.0719  0.2960 -1.8085
 4855TIP3   OH214528   2.337   2.357   2.465 -0.3332 -0.0006 -0.7699
 4855TIP3    H114529   2.383   2.382   2.385  1.0418  1.2027  0.3211
 4855TIP3    H214530   2.260   2.309   2.435  0.9496 -0.9884 -2.7581
 4856TIP3   OH214531   1.481   1.622   4.123  0.1890  0.1650  0.5261
 4856TIP3    H114532   1.507   1.714   4.115 -0.7623  0.5514  1.5746
 4856TIP3    H214533   1.489   1.587   4.035  0.2257  1.3613  0.0366
 4857TIP3   OH214534   1.912   4.891   1.420 -0.4331 -0.9469 -0.9509
 4857TIP3    H114535   1.855   4.835   1.368 -1.4194  1.1662 -2.3150
 4857TIP3    H214536   1.916   4.973   1.370  3.0834 -0.6765 -0.4260
 4858TIP3   OH214537   2.225   5.747   1.996 -0.4951 -0.9667 -0.4169
 4858TIP3    H114538   2.310   5.710   1.972 -0.2154 -0.9600  0.5241
 4858TIP3    H214539   2.205   5.809   1.926  0.7476 -0.2308 -0.1456
 4859TIP3   OH214540   6.763   3.239   4.060 -0.2209  0.1589 -0.3108
 4859TIP3    H114541   6.672   3.233   4.032 -0.4651  1.1598  0.2285
 4859TIP3    H214542   6.806   3.287   3.989  0.2966 -1.8573 -1.4259
 4860TIP3   OH214543   0.427   3.615   2.993 -0.0087  0.0808  0.3574
 4860TIP3    H114544   0.500   3.554   2.994 -1.0026 -1.1551  1.1959
 4860TIP3    H214545   0.436   3.664   3.074 -1.3965 -1.7510  1.7067
 4861TIP3   OH214546   6.859   3.089   3.761  0.2672  0.4441 -1.3202
 4861TIP3    H114547   6.951   3.065   3.769  0.2609  0.7631 -0.0693
 4861TIP3    H214548   6.856   3.183   3.779 -0.3757  0.3079 -0.6460
 4862TIP3   OH214549   2.931   2.345   3.881  0.0875  0.0275  0.0265
 4862TIP3    H114550   2.924   2.287   3.805  0.1614 -1.1798  0.9186
 4862TIP3    H214551   2.840   2.359   3.909  0.1659 -1.5941  1.2114
 4863TIP3   OH214552   2.105   2.887   4.853  0.0016 -0.1084 -0.2903
 4863TIP3    H114553   2.048   2.927   4.919 -0.0795 -2.2705  1.0680
 4863TIP3    H214554   2.048   2.824   4.809  0.5565 -0.0221 -1.1471
 4864TIP3   OH214555   3.878   2.142   0.485 -0.6851 -0.1490  0.4697
 4864TIP3    H114556   3.914   2.210   0.542  0.7277 -0.2777 -0.2299
 4864TIP3    H214557   3.797   2.116   0.528 -1.2282  1.9093  0.8069
 4865TIP3   OH214558   1.918   0.775   3.640 -0.2283 -0.6553  0.3222
 4865TIP3    H114559   1.922   0.778   3.545 -0.2178  0.8981  0.3362
 4865TIP3    H214560   1.866   0.698   3.660 -1.4931 -0.1887 -1.0063
 4866TIP3   OH214561   6.516   4.824   0.031  0.3260 -0.0746  0.1924
 4866TIP3    H114562   6.500   4.747   0.086 -1.1329  1.5486  2.1429
 4866TIP3    H214563   6.612   4.827   0.022  0.3945 -2.5256 -0.6483
 4867TIP3   OH214564   5.274   5.816   0.883  0.0509 -0.4771  0.5711
 4867TIP3    H114565   5.344   5.754   0.861  0.1237  0.0724 -0.8908
 4867TIP3    H214566   5.306   5.863   0.959  1.7498  0.4407 -0.6534
 4868TIP3   OH214567   2.333   4.872   1.022  0.0991  0.3628  0.1932
 4868TIP3    H114568   2.362   4.948   0.972  1.3970  1.0128  1.8784
 4868TIP3    H214569   2.387   4.800   0.990 -0.2246  0.4103 -0.4777
 4869TIP3   OH214570   5.885   1.341   5.065 -0.1824 -0.3565  0.0563
 4869TIP3    H114571   5.963   1.394   5.051 -0.5103 -0.1791 -1.1545
 4869TIP3    H214572   5.820   1.402   5.100 -0.4783 -0.0038 -1.0888
 4870TIP3   OH214573   5.194   0.086   1.723 -0.8740 -0.5434  0.3475
 4870TIP3    H114574   5.242   0.076   1.805 -1.0510 -2.1971  0.2920
 4870TIP3    H214575   5.111   0.127   1.748 -0.5867 -0.2793  0.8727
 4871TIP3   OH214576   2.797   0.523   1.178 -0.0996 -0.0539 -0.2497
 4871TIP3    H114577   2.721   0.488   1.224 -1.3779  1.8166 -0.7911
 4871TIP3    H214578   2.863   0.536   1.246 -0.1816 -1.8144  0.2150
 4872TIP3   OH214579   3.504   1.792   2.773 -0.0408  0.2128  0.1721
 4872TIP3    H114580   3.462   1.730   2.713 -0.9405  0.2718  0.7297
 4872TIP3    H214581   3.515   1.872   2.722 -1.2407  0.4195  0.2104
 4873TIP3   OH214582   3.454   1.319   5.769 -0.0631 -0.2515  1.0185
 4873TIP3    H114583   3.428   1.242   5.719  0.6671  0.5242 -0.6026
 4873TIP3    H214584   3.372   1.364   5.788 -0.6300 -1.9626  2.9911
 4874TIP3   OH214585   2.477   1.105   0.317 -0.2112 -0.6746 -0.1454
 4874TIP3    H114586   2.465   1.159   0.238 -1.8837 -0.8729 -0.0596
 4874TIP3    H214587   2.537   1.036   0.289  0.8918  0.4296 -0.6355
 4875TIP3   OH214588   5.648   3.010   0.083 -0.2932  0.1357 -0.7152
 4875TIP3    H114589   5.567   3.041   0.123 -1.1569 -1.8583 -0.7535
 4875TIP3    H214590   5.619   2.943   0.020  1.3618 -0.5788 -0.7780
 4876TIP3   OH214591   6.564   3.186   0.898 -0.0839  0.4841  0.1088
 4876TIP3    H114592   6.527   3.129   0.829 -1.0199  0.4689  0.6041
 4876TIP3    H214593   6.657   3.164   0.900 -0.2328 -0.2432 -0.4660
 4877TIP3   OH214594   4.691   6.682   1.131  0.8320  0.4252  0.1674
 4877TIP3    H114595   4.620   6.716   1.076 -0.4630 -0.6370  1.1135
 4877TIP3    H214596   4.689   6.736   1.209  0.5710 -0.0551  0.5007
 4878TIP3   OH214597   6.024   1.888   5.585  0.0570  0.1906 -0.3057
 4878TIP3    H114598   5.971   1.817   5.550 -0.8549  1.3321 -1.3201
 4878TIP3    H214599   6.033   1.869   5.678 -0.7489 -0.8799 -0.4426
 4879TIP3   OH214600   3.429   4.444   3.360  0.8509  0.2616 -0.1110
 4879TIP3    H114601   3.486   4.446   3.438  1.2107 -4.7629  0.1133
 4879TIP3    H214602   3.474   4.385   3.300 -1.5947  0.3721 -2.2057
 4880TIP3   OH214603   6.061   5.259   5.437 -0.2363  0.3709  0.6303
 4880TIP3    H114604   6.065   5.264   5.532 -3.0263  1.1315  0.7938
 4880TIP3    H214605   6.004   5.332   5.412  0.8570  0.5086 -1.6890
 4881TIP3   OH214606   0.490   1.908   0.427 -0.5110  0.1746 -0.6175
 4881TIP3    H114607   0.497   1.832   0.370 -1.9995 -1.9793  1.8432
 4881TIP3    H214608   0.464   1.872   0.512  1.2983  3.1721  1.4152
 4882TIP3   OH214609   5.753   5.704   1.107 -0.4816 -0.7602  0.4566
 4882TIP3    H114610   5.671   5.681   1.064 -1.9839  1.9106  1.6324
 4882TIP3    H214611   5.731   5.705   1.201  0.8453  0.1115  0.7874
 4883TIP3   OH214612   1.604   2.600   5.053  0.0931 -0.3849 -0.3924
 4883TIP3    H114613   1.545   2.664   5.013 -0.2461 -0.4885 -0.0669
 4883TIP3    H214614   1.619   2.535   4.984  0.1409 -0.1555 -0.6023
 4884TIP3   OH214615   0.322   3.274   0.748  0.0855  0.3332  0.3855
 4884TIP3    H114616   0.296   3.351   0.799 -1.7686 -0.2081  0.3374
 4884TIP3    H214617   0.240   3.240   0.711  1.1055 -0.5466 -1.2049
 4885TIP3   OH214618   3.047   1.308   0.192  0.6946 -0.1695  0.4558
 4885TIP3    H114619   3.050   1.217   0.222 -0.4605 -0.3785 -0.0169
 4885TIP3    H214620   3.138   1.332   0.178  0.9303 -1.8294 -1.1213
 4886TIP3   OH214621   3.665   3.553   3.429  0.2401 -0.1423 -0.0972
 4886TIP3    H114622   3.589   3.504   3.397 -0.2896  0.0877  0.7744
 4886TIP3    H214623   3.673   3.528   3.521  0.7559  0.4119  0.0130
 4887TIP3   OH214624   1.507   1.146   2.114  0.8948 -0.5189  0.6316
 4887TIP3    H114625   1.560   1.192   2.049  1.3521 -0.5087  1.0093
 4887TIP3    H214626   1.500   1.057   2.082 -1.0081  0.0439 -0.7468
 4888TIP3   OH214627   6.502   4.097   3.140  0.3469 -0.4021 -0.1665
 4888TIP3    H114628   6.452   4.111   3.220 -2.2140 -2.9109 -1.1621
 4888TIP3    H214629   6.594   4.098   3.168 -0.3151  1.4989  2.2551
 4889TIP3   OH214630   0.566   1.944   3.322 -0.0896  0.0825 -0.2802
 4889TIP3    H114631   0.535   1.894   3.398 -0.1646 -0.5093 -0.6935
 4889TIP3    H214632   0.607   1.878   3.265  0.0885  0.5428 -0.6899
 4890TIP3   OH214633   6.847   1.121   4.620  0.3860 -0.6699  0.7757
 4890TIP3    H114634   6.864   1.078   4.536  0.7988  0.6685  0.1459
 4890TIP3    H214635   6.810   1.052   4.675 -0.8687 -1.3523 -0.8211
 4891TIP3   OH214636   1.882   6.135   1.805 -0.0778  0.3403 -0.8515
 4891TIP3    H114637   1.808   6.178   1.847  0.1545 -0.7277  0.7544
 4891TIP3    H214638   1.879   6.164   1.714 -1.3137  1.8183 -0.3752
 4892TIP3   OH214639   2.238   2.660   2.320  0.0690  0.2250  0.1224
 4892TIP3    H114640   2.258   2.578   2.276 -0.0035 -0.4958  1.3781
 4892TIP3    H214641   2.210   2.719   2.250  0.8866 -0.5710 -0.8971
 4893TIP3   OH214642   5.752   5.553   2.557 -0.5169 -0.2506  0.1670
 4893TIP3    H114643   5.675   5.562   2.613 -0.3432 -0.3570  0.4249
 4893TIP3    H214644   5.789   5.469   2.582  0.2715  0.2670  0.7796
 4894TIP3   OH214645   0.510   4.088   1.053  0.0390 -0.1160  0.0233
 4894TIP3    H114646   0.552   4.170   1.026 -1.7223  0.6070 -0.6771
 4894TIP3    H214647   0.430   4.115   1.097  0.7189 -1.4330  2.2052
 4895TIP3   OH214648   1.744   3.832   5.457 -0.3413 -0.2442  0.6900
 4895TIP3    H114649   1.782   3.817   5.543  0.8783  1.4846  0.5054
 4895TIP3    H214650   1.682   3.904   5.469  1.2701  1.3626 -0.1760
 4896TIP3   OH214651   1.669   1.652   0.409  0.6931 -0.0877 -0.1366
 4896TIP3    H114652   1.575   1.667   0.410  0.2839 -2.1574 -1.5441
 4896TIP3    H214653   1.680   1.568   0.364  3.1621 -0.3481  0.7788
 4897TIP3   OH214654   1.969   3.037   0.936 -0.2608 -0.4143 -0.0463
 4897TIP3    H114655   1.964   2.955   0.887 -0.9997 -0.8279  0.7012
 4897TIP3    H214656   1.937   3.015   1.024  0.1222  0.5301  0.3468
 4898TIP3   OH214657   4.997   5.954   5.808  0.2229  0.0689 -0.4335
 4898TIP3    H114658   5.081   5.989   5.837  0.8061 -1.5081 -0.1723
 4898TIP3    H214659   5.019   5.896   5.735 -0.9085  1.5141 -2.0146
 4899TIP3   OH214660   4.863   1.146   1.943 -0.2783 -0.1882  0.3157
 4899TIP3    H114661   4.882   1.060   1.905 -0.1934 -0.2083  0.4037
 4899TIP3    H214662   4.813   1.127   2.022  1.7591 -0.3077  1.6682
 4900TIP3   OH214663   0.862   1.693   5.523  0.4370 -0.1832 -0.1461
 4900TIP3    H114664   0.938   1.659   5.572  0.2998  1.5186  1.3704
 4900TIP3    H214665   0.825   1.759   5.581 -1.2961  0.1289 -1.5433
 4901TIP3   OH214666   6.596   6.737   0.695 -0.3922  0.5023 -0.2167
 4901TIP3    H114667   6.580   6.764   0.786  2.5907  1.5920  0.0859
 4901TIP3    H214668   6.651   6.658   0.703  0.4747  1.0037 -1.0493
 4902TIP3   OH214669   7.034   4.397   0.341 -0.0249 -0.3794 -0.4170
 4902TIP3    H114670   7.108   4.439   0.298 -0.1908 -1.7603 -2.1660
 4902TIP3    H214671   7.073   4.333   0.400  0.1892 -0.2828 -0.4544
 4903TIP3   OH214672   0.523   2.713   0.586 -0.6608 -0.6557  0.3955
 4903TIP3    H114673   0.493   2.764   0.511  0.9012 -0.7715 -0.3346
 4903TIP3    H214674   0.585   2.771   0.631 -1.0422 -0.8569  1.2060
 4904TIP3   OH214675   0.320   1.325   2.008  0.6796  0.3188  0.5105
 4904TIP3    H114676   0.361   1.240   2.021  0.2379  0.2590  1.5680
 4904TIP3    H214677   0.234   1.318   2.050 -0.0662  0.7464 -0.8654
 4905TIP3   OH214678   5.397   5.001   2.139 -0.3916  0.1490  0.4738
 4905TIP3    H114679   5.406   4.914   2.177  0.1458  0.4199  0.9874
 4905TIP3    H214680   5.328   5.043   2.190 -1.3164 -0.2824 -0.3778
 4906TIP3   OH214681   6.340   2.861   4.355 -0.0047  0.2513 -0.1519
 4906TIP3    H114682   6.337   2.826   4.266 -1.4106  1.4065 -0.6013
 4906TIP3    H214683   6.384   2.946   4.346  0.5718  0.0131  0.3928
 4907TIP3   OH214684   1.409   5.236   3.646 -0.3198 -0.0768  0.3384
 4907TIP3    H114685   1.402   5.168   3.578  0.9660  0.5861 -0.5001
 4907TIP3    H214686   1.479   5.204   3.704  0.9631  0.9259 -0.5936
 4908TIP3   OH214687   6.238   2.567   0.178  0.0386  0.0722  0.2470
 4908TIP3    H114688   6.272   2.559   0.088  0.8516 -0.6909  0.6036
 4908TIP3    H214689   6.317   2.570   0.232 -0.4118  1.6538  0.8779
 4909TIP3   OH214690   1.886   3.391   2.294  0.0714  0.2528 -0.5493
 4909TIP3    H114691   1.816   3.402   2.230  0.1451  1.3077 -0.4766
 4909TIP3    H214692   1.905   3.480   2.323  0.8794 -0.1002  0.0357
 4910TIP3   OH214693   1.902   4.950   2.117  0.2826  0.1443 -0.0418
 4910TIP3    H114694   1.823   4.967   2.066  1.1006  0.0299 -1.3995
 4910TIP3    H214695   1.881   4.872   2.167 -0.7604  0.6114  0.2843
 4911TIP3   OH214696   4.896   0.140   2.368  0.1387 -0.1721  0.3272
 4911TIP3    H114697   4.980   0.146   2.323 -0.3670  0.4288 -0.5474
 4911TIP3    H214698   4.917   0.162   2.459  0.8567  0.4094  0.0368
 4912TIP3   OH214699   2.259   1.292   0.865 -0.2399 -0.1376  0.1856
 4912TIP3    H114700   2.253   1.370   0.810  0.4859  0.1668  0.5323
 4912TIP3    H214701   2.345   1.256   0.847 -1.1844 -1.8437 -1.2539
 4913TIP3   OH214702   5.745   2.014   2.892  0.1355 -0.0562  0.1012
 4913TIP3    H114703   5.688   2.023   2.969 -0.3254 -0.3049 -0.2108
 4913TIP3    H214704   5.780   1.925   2.899  0.4561  0.0785  0.2647
 4914TIP3   OH214705   4.178   1.426   0.828  0.3747 -0.3616 -0.3451
 4914TIP3    H114706   4.207   1.352   0.882 -0.8961 -0.2807  0.4943
 4914TIP3    H214707   4.166   1.389   0.741 -0.2295 -1.1515  0.0614
 4915TIP3   OH214708   1.423   2.115   2.861  1.3312  0.8176 -0.0619
 4915TIP3    H114709   1.418   2.119   2.957  1.1986  0.0484 -0.0314
 4915TIP3    H214710   1.396   2.026   2.839 -0.7915  1.6308 -0.9698
 4916TIP3   OH214711   4.791   4.615   4.331  0.3049  0.1644 -0.3515
 4916TIP3    H114712   4.840   4.600   4.412  0.3431  0.4085 -0.3266
 4916TIP3    H214713   4.836   4.562   4.265  0.2771 -0.0307 -0.2124
 4917TIP3   OH214714   3.507   0.718   5.442  0.5630 -0.0070 -0.0059
 4917TIP3    H114715   3.562   0.718   5.520  1.0473  0.3521 -0.3394
 4917TIP3    H214716   3.510   0.628   5.411 -1.2868 -0.6643  1.5112
 4918TIP3   OH214717   5.662   4.149   3.621 -0.6505 -0.4780  0.2559
 4918TIP3    H114718   5.621   4.064   3.602  0.0743 -0.9555  0.7412
 4918TIP3    H214719   5.594   4.198   3.669 -0.0005 -2.0927  3.0670
 4919TIP3   OH214720   6.647   2.596   2.328 -0.5952  0.1250  0.4701
 4919TIP3    H114721   6.687   2.509   2.335  3.0465  1.4376 -0.9940
 4919TIP3    H214722   6.675   2.642   2.408 -2.0129  0.1616  0.9660
 4920TIP3   OH214723   1.681   5.016   3.524  0.3066 -0.3275  0.3682
 4920TIP3    H114724   1.716   5.104   3.508  0.1385 -0.1911  0.7341
 4920TIP3    H214725   1.605   5.010   3.467 -0.1121  0.0415  0.8781
 4921TIP3   OH214726   3.601   1.797   2.164  0.1463 -0.2601 -0.1882
 4921TIP3    H114727   3.516   1.831   2.140  1.0279  2.2817  0.0231
 4921TIP3    H214728   3.583   1.708   2.197 -2.3071  0.0147 -0.6123
 4922TIP3   OH214729   0.899   5.900   0.316  0.3304 -0.4946 -0.0506
 4922TIP3    H114730   0.840   5.828   0.339 -0.0987 -0.1099  0.0815
 4922TIP3    H214731   0.860   5.976   0.359 -1.1048  0.4663 -2.7935
 4923TIP3   OH214732   1.733   1.522   2.610 -0.2989 -0.2182 -0.0181
 4923TIP3    H114733   1.722   1.548   2.701 -0.8300 -1.8533  0.4266
 4923TIP3    H214734   1.806   1.460   2.611  0.5473  0.7253 -0.9293
 4924TIP3   OH214735   4.234   5.593   1.243  0.5871  0.9357 -0.1803
 4924TIP3    H114736   4.226   5.618   1.335  0.9558  1.1128 -0.1943
 4924TIP3    H214737   4.328   5.579   1.229  0.5618  1.1282 -0.5805
 4925TIP3   OH214738   7.166   2.511   5.108  0.1776  0.2272 -0.1683
 4925TIP3    H114739   7.211   2.544   5.031 -0.8469 -0.2077 -0.9840
 4925TIP3    H214740   7.143   2.421   5.086  0.1642 -0.0123  0.7803
 4926TIP3   OH214741   4.216   2.092   2.913  0.0531  0.4045  0.2533
 4926TIP3    H114742   4.252   2.181   2.922  1.4875 -0.0830 -0.4742
 4926TIP3    H214743   4.177   2.091   2.826 -0.1803  0.3956  0.3586
 4927TIP3   OH214744   5.287   0.304   4.889  0.6622 -0.1450  0.3651
 4927TIP3    H114745   5.225   0.283   4.820  0.9759  2.4458 -0.8060
 4927TIP3    H214746   5.242   0.280   4.970 -1.2306  0.2307 -0.5395
 4928TIP3   OH214747   1.667   0.552   5.174 -0.0020  0.7271  0.1998
 4928TIP3    H114748   1.622   0.468   5.184 -1.8037  1.6438  0.2111
 4928TIP3    H214749   1.693   0.576   5.263  2.7610 -0.9019 -0.0403
 4929TIP3   OH214750   1.035   5.125   0.261  0.2540 -0.5685 -0.2251
 4929TIP3    H114751   0.962   5.182   0.283 -0.5441 -1.5091 -0.3340
 4929TIP3    H214752   1.083   5.114   0.344 -0.3920 -0.8563  0.1124
 4930TIP3   OH214753   0.379   4.194   1.736 -0.2956  0.1205 -0.3133
 4930TIP3    H114754   0.409   4.194   1.645 -1.0634 -0.3270 -0.5732
 4930TIP3    H214755   0.455   4.224   1.786 -0.0929  1.0878 -1.1692
 4931TIP3   OH214756   6.732   5.485   4.236 -0.4600  0.0689  0.2869
 4931TIP3    H114757   6.684   5.470   4.317 -0.6735  0.4729  0.2378
 4931TIP3    H214758   6.676   5.450   4.167 -0.4015 -0.0269  0.2874
 4932TIP3   OH214759   3.244   4.384   2.139 -0.0546  0.3234  0.2580
 4932TIP3    H114760   3.226   4.478   2.143  1.0928  0.5802 -0.3259
 4932TIP3    H214761   3.297   4.366   2.217 -0.3825  0.1234  0.4390
 4933TIP3   OH214762   0.210   3.551   0.282 -0.0623 -0.1448 -0.3570
 4933TIP3    H114763   0.181   3.639   0.305  1.9274 -0.0463  2.2417
 4933TIP3    H214764   0.305   3.553   0.295 -0.1577 -3.1664  1.8286
 4934TIP3   OH214765   6.458   5.860   1.202 -0.4580  0.1251  0.1201
 4934TIP3    H114766   6.548   5.893   1.209 -0.2306 -0.4171 -0.1579
 4934TIP3    H214767   6.417   5.882   1.286 -0.2300  0.8523  0.0446
 4935TIP3   OH214768   6.275   2.752   4.751 -0.2033  0.1404 -0.3924
 4935TIP3    H114769   6.237   2.828   4.705  0.9270 -0.2596 -2.1135
 4935TIP3    H214770   6.360   2.784   4.782  0.2157 -0.3491 -1.0029
 4936TIP3   OH214771   7.115   3.614   5.676  0.5420 -0.0502 -0.4719
 4936TIP3    H114772   7.069   3.591   5.595 -0.6901 -0.4282  0.3099
 4936TIP3    H214773   7.061   3.682   5.715  0.8951 -0.1791  0.2449
 4937TIP3   OH214774   1.674   1.120   1.195 -0.1205  0.9801  0.0320
 4937TIP3    H114775   1.725   1.046   1.227 -0.3000 -0.0654 -1.9335
 4937TIP3    H214776   1.650   1.169   1.274 -0.2445 -1.2080  1.4359
 4938TIP3   OH214777   0.162   0.563   2.607  0.4916 -0.6938 -1.0370
 4938TIP3    H114778   0.193   0.536   2.520 -0.6851  0.2160 -1.7666
 4938TIP3    H214779   0.071   0.533   2.610  0.5963 -0.9289 -0.0109
 4939TIP3   OH214780   4.513   2.248   4.751 -0.0925 -0.0245  0.2145
 4939TIP3    H114781   4.484   2.313   4.687 -1.0232 -1.5747 -1.0038
 4939TIP3    H214782   4.443   2.246   4.817  0.2648  0.6669  0.6271
 4940TIP3   OH214783   5.180   0.702   2.354  0.2377 -0.1090  0.1260
 4940TIP3    H114784   5.258   0.731   2.307  0.7059  0.5543  1.2894
 4940TIP3    H214785   5.164   0.614   2.321  2.0238 -0.6254  0.5480
 4941TIP3   OH214786   5.805   1.016   2.541 -0.1758  0.1835 -0.4023
 4941TIP3    H114787   5.899   1.014   2.521  0.1734  0.2817  1.1329
 4941TIP3    H214788   5.770   0.937   2.501  0.8254 -0.5756  0.1983
 4942TIP3   OH214789   0.895   2.321   0.296 -0.2359 -0.1711 -0.2460
 4942TIP3    H114790   0.835   2.252   0.266 -1.7344  1.4885 -1.2969
 4942TIP3    H214791   0.917   2.370   0.217 -0.2458  1.3082  0.6222
 4943TIP3   OH214792   5.053   1.517   2.884  0.0517 -0.1643  0.1092
 4943TIP3    H114793   5.095   1.573   2.819  0.4948  0.9704  1.3107
 4943TIP3    H214794   5.125   1.487   2.940 -0.0675 -2.6528 -0.9842
 4944TIP3   OH214795   6.679   6.456   1.106  0.2968 -0.8356  0.0196
 4944TIP3    H114796   6.743   6.503   1.054  0.3283  1.2105  1.7709
 4944TIP3    H214797   6.628   6.406   1.042  0.9875  0.7137 -1.8332
 4945TIP3   OH214798   1.689   5.472   2.810 -0.7117 -0.1706  0.2968
 4945TIP3    H114799   1.731   5.441   2.730 -1.7839  0.4398 -0.5350
 4945TIP3    H214800   1.708   5.566   2.812  0.1838 -0.3583  1.3266
 4946TIP3   OH214801   2.782   1.883   0.529 -0.2564 -0.0821  0.1321
 4946TIP3    H114802   2.781   1.824   0.455 -0.6863 -0.2806  0.2892
 4946TIP3    H214803   2.785   1.826   0.606  0.1718  0.1200  0.2707
 4947TIP3   OH214804   0.508   3.837   1.933  0.4131  0.0056 -0.3582
 4947TIP3    H114805   0.540   3.891   1.861 -0.8294  0.0526 -0.9064
 4947TIP3    H214806   0.430   3.883   1.964  0.4335 -0.4826  0.4437
 4948TIP3   OH214807   4.445   0.012   3.708 -0.8281 -0.1533  0.2333
 4948TIP3    H114808   4.375   0.036   3.769 -0.0281  0.0362  1.1062
 4948TIP3    H214809   4.457   0.090   3.654 -0.1406  0.4635  1.2271
 4949TIP3   OH214810   3.455   3.061   2.356 -0.1611  0.1827  0.2111
 4949TIP3    H114811   3.412   3.140   2.389 -1.2296 -0.6830  0.9459
 4949TIP3    H214812   3.386   3.013   2.310  0.8712  0.4731 -1.7898
 4950TIP3   OH214813   2.225   3.458   3.304  0.5576 -0.3606  0.1340
 4950TIP3    H114814   2.167   3.448   3.228  1.1551 -0.8223 -0.2682
 4950TIP3    H214815   2.189   3.396   3.369 -0.1342  0.2524  0.3531
 4951TIP3   OH214816   0.996   3.064   2.505  0.6585  0.0581 -0.2218
 4951TIP3    H114817   1.068   3.100   2.558  0.3910  0.6977 -0.2799
 4951TIP3    H214818   0.987   2.974   2.535  2.7992 -0.6861 -1.5820
 4952TIP3   OH214819   2.931   5.624   0.499 -0.4524 -0.8286  0.6004
 4952TIP3    H114820   2.876   5.591   0.569 -1.0148 -2.5227 -0.5565
 4952TIP3    H214821   2.870   5.653   0.432  0.0744  0.6000  0.7092
 4953TIP3   OH214822   4.677   4.231   4.611 -0.2202 -0.0254 -0.2805
 4953TIP3    H114823   4.634   4.155   4.573  0.2093 -0.1762 -0.4665
 4953TIP3    H214824   4.763   4.235   4.568  0.0151  0.1796  0.1978
 4954TIP3   OH214825   5.320   3.771   1.852  0.2712 -0.2747 -0.4167
 4954TIP3    H114826   5.369   3.853   1.848 -1.4888  0.8010 -1.4394
 4954TIP3    H214827   5.295   3.754   1.761  1.4746 -2.5513 -0.3881
 4955TIP3   OH214828   4.147   1.118   3.783 -0.1493 -0.0512  0.1543
 4955TIP3    H114829   4.076   1.067   3.744  0.0040 -0.0388 -0.1393
 4955TIP3    H214830   4.102   1.189   3.829 -0.4335 -1.0908  1.5403
 4956TIP3   OH214831   0.436   4.645   2.637 -0.2320 -1.0565 -0.9718
 4956TIP3    H114832   0.420   4.562   2.682 -1.9928 -0.8472 -1.1584
 4956TIP3    H214833   0.509   4.626   2.578  1.1059 -1.7464  0.8107
 4957TIP3   OH214834   0.268   6.741   4.398  0.3241 -0.3714  0.2889
 4957TIP3    H114835   0.265   6.805   4.327 -2.1280 -1.7993 -1.0342
 4957TIP3    H214836   0.221   6.783   4.470 -0.6604 -0.4023 -0.3265
 4958TIP3   OH214837   5.700   0.896   3.226 -0.6255  0.0184 -0.2049
 4958TIP3    H114838   5.631   0.962   3.219 -0.3950  0.2562 -0.2555
 4958TIP3    H214839   5.716   0.868   3.136  0.3346  1.0015 -0.3763
 4959TIP3   OH214840   1.658   0.186   2.979  0.2582 -0.0674 -0.6924
 4959TIP3    H114841   1.643   0.158   3.070  0.2054 -1.0238 -0.9865
 4959TIP3    H214842   1.748   0.160   2.961  0.3953  0.4811 -0.7855
 4960TIP3   OH214843   3.250   0.370   5.493  0.2105 -0.3416  0.0799
 4960TIP3    H114844   3.197   0.292   5.480 -0.8650  0.6049 -1.5148
 4960TIP3    H214845   3.320   0.363   5.428  0.0944  0.0500 -0.0871
 4961TIP3   OH214846   0.613   3.659   2.188 -0.3779  0.0157 -0.3149
 4961TIP3    H114847   0.625   3.598   2.115  1.3671  0.0302 -0.0921
 4961TIP3    H214848   0.658   3.738   2.160 -2.2982  1.1217 -0.4377
 4962TIP3   OH214849   1.952   3.851   3.474 -0.2617  0.1786 -0.0370
 4962TIP3    H114850   1.961   3.905   3.552  0.4231 -0.5491  0.4107
 4962TIP3    H214851   2.031   3.797   3.473 -0.3973 -0.0317 -1.0769
 4963TIP3   OH214852   3.733   4.203   3.757 -0.2341 -0.0848 -0.7322
 4963TIP3    H114853   3.661   4.266   3.763 -0.3338 -0.2849  0.2958
 4963TIP3    H214854   3.800   4.237   3.816 -0.6462 -1.3872  0.5383
 4964TIP3   OH214855   6.343   3.751   5.721  0.1195 -0.1578  0.4346
 4964TIP3    H114856   6.400   3.814   5.677 -0.1791 -0.2618 -0.1081
 4964TIP3    H214857   6.270   3.738   5.661 -1.4415  1.3677  1.9107
 4965TIP3   OH214858   1.618   0.892   0.631  0.7201  0.2265  1.2173
 4965TIP3    H114859   1.582   0.815   0.586 -0.6303 -0.3880  3.2409
 4965TIP3    H214860   1.707   0.900   0.595  0.0514 -0.7749 -0.8236
 4966TIP3   OH214861   3.389   5.127   5.241 -0.0503  0.4802  0.3600
 4966TIP3    H114862   3.408   5.216   5.269  1.3106  0.3945 -0.2191
 4966TIP3    H214863   3.345   5.087   5.316  1.6512  0.8754  1.6186
 4967TIP3   OH214864   4.729   6.635   3.830  0.4256  0.2245 -0.1786
 4967TIP3    H114865   4.753   6.542   3.828 -0.4288  0.0043 -0.3272
 4967TIP3    H214866   4.813   6.681   3.827  0.9543 -0.5402  1.6474
 4968TIP3   OH214867   2.173   2.850   1.812 -0.0528 -1.0472  0.4770
 4968TIP3    H114868   2.229   2.886   1.881  1.2632 -1.0113 -0.5700
 4968TIP3    H214869   2.084   2.867   1.842  0.4892 -1.1156  2.1965
 4969TIP3   OH214870   0.235   4.484   3.232 -0.1814 -0.2016 -0.2940
 4969TIP3    H114871   0.149   4.523   3.217 -0.9045 -0.8146  1.9306
 4969TIP3    H214872   0.217   4.396   3.264  1.2357 -0.2271  0.5360
 4970TIP3   OH214873   5.058   3.611   4.756  0.4658  0.0058  0.5331
 4970TIP3    H114874   5.071   3.642   4.667 -0.3621 -0.1874  0.3336
 4970TIP3    H214875   5.074   3.687   4.811  0.7634  0.1828  0.2045
 4971TIP3   OH214876   1.792   2.679   0.474 -0.0797 -0.0471 -0.3165
 4971TIP3    H114877   1.806   2.602   0.419 -0.2974 -1.7586  1.9006
 4971TIP3    H214878   1.880   2.705   0.501 -0.0495  0.0852 -0.5401
 4972TIP3   OH214879   0.350   6.459   5.227  0.1087 -0.4254 -0.2058
 4972TIP3    H114880   0.367   6.435   5.135 -0.0042 -2.0970  0.1788
 4972TIP3    H214881   0.368   6.379   5.276  0.1352  0.4446  1.2469
 4973TIP3   OH214882   2.473   2.758   4.935 -0.3937  0.6399  0.8539
 4973TIP3    H114883   2.531   2.695   4.891 -0.0738  1.6258 -0.1677
 4973TIP3    H214884   2.403   2.703   4.973 -0.2444 -0.3213 -0.1977
 4974TIP3   OH214885   6.374   4.969   1.456  0.3865 -0.8586 -0.1519
 4974TIP3    H114886   6.364   5.064   1.444 -0.2631 -1.0102 -0.8228
 4974TIP3    H214887   6.300   4.943   1.510  0.0340 -1.1292 -0.7531
 4975TIP3   OH214888   1.868   1.618   3.851  0.4979 -0.4859  0.7880
 4975TIP3    H114889   1.947   1.651   3.809 -0.1291  0.1833  0.0997
 4975TIP3    H214890   1.899   1.549   3.910  1.3026 -2.1497 -1.4642
 4976TIP3   OH214891   4.177   0.904   1.199  0.0225  0.2575  0.4364
 4976TIP3    H114892   4.224   0.917   1.116 -0.5652 -3.8010 -0.7518
 4976TIP3    H214893   4.086   0.926   1.179  0.2545  1.7580  0.8543
 4977TIP3   OH214894   1.077   1.190   0.516  0.0647  0.2839  0.1200
 4977TIP3    H114895   1.089   1.190   0.421 -1.1444  0.3698 -0.0566
 4977TIP3    H214896   0.982   1.200   0.527  0.0972 -0.5268  1.3192
 4978TIP3   OH214897   2.316   2.188   4.227 -0.1649 -0.0721 -0.3298
 4978TIP3    H114898   2.411   2.186   4.215 -0.2910  0.6965 -1.6715
 4978TIP3    H214899   2.299   2.271   4.271 -0.1682 -0.5297  0.5544
 4979TIP3   OH214900   0.764   0.271   0.811  0.2749  0.0962 -0.0227
 4979TIP3    H114901   0.792   0.361   0.827  1.5347 -0.3233  0.2929
 4979TIP3    H214902   0.780   0.226   0.895  0.7195 -0.6526 -0.4928
 4980TIP3   OH214903   7.097   4.587   1.182  0.1200 -0.0168  0.1135
 4980TIP3    H114904   7.175   4.626   1.142 -0.1628 -0.2921 -0.7326
 4980TIP3    H214905   7.037   4.661   1.193 -0.0112 -0.0302 -0.4956
 4981TIP3   OH214906   1.119   5.910   4.826  0.7338  0.2041 -0.4847
 4981TIP3    H114907   1.120   5.817   4.847 -1.1443  0.4608  1.1385
 4981TIP3    H214908   1.049   5.920   4.761 -0.3757  0.6523  0.7200
 4982TIP3   OH214909   1.318   1.790   3.460  0.1557 -0.2290  0.0153
 4982TIP3    H114910   1.244   1.817   3.513  0.6439  2.0715 -0.3548
 4982TIP3    H214911   1.330   1.697   3.480 -1.3747 -0.0942  1.8026
 4983TIP3   OH214912   2.350   4.940   1.678 -0.5388 -0.3017 -0.2804
 4983TIP3    H114913   2.399   4.966   1.601  3.3967 -1.3904  1.5884
 4983TIP3    H214914   2.356   5.015   1.737 -0.2133 -0.8155  0.3528
 4984TIP3   OH214915   0.504   0.247   2.123 -0.2339 -0.4859 -0.6309
 4984TIP3    H114916   0.546   0.300   2.190  0.4321 -0.5206 -1.0105
 4984TIP3    H214917   0.472   0.170   2.170  1.3116 -1.1105 -0.5250
 4985TIP3   OH214918   3.883   1.111   0.889  0.1878 -0.0388  0.0895
 4985TIP3    H114919   3.905   1.060   0.811  0.3392  1.4451 -0.8661
 4985TIP3    H214920   3.960   1.166   0.904 -0.0576  0.0795  0.9712
 4986TIP3   OH214921   1.346   4.095   3.589  0.0109 -0.1921 -0.2095
 4986TIP3    H114922   1.361   4.183   3.554 -1.7386  0.4161  0.4649
 4986TIP3    H214923   1.397   4.038   3.531 -0.3230  1.0722 -1.8341
 4987TIP3   OH214924   4.910   5.979   2.709 -0.5024  0.0727 -0.1027
 4987TIP3    H114925   4.850   5.987   2.783  0.5214 -0.0091  0.7646
 4987TIP3    H214926   4.911   5.886   2.688  0.0872 -0.0779  0.5556
 4988TIP3   OH214927   3.565   0.637   2.620  0.5746 -1.1693 -0.1108
 4988TIP3    H114928   3.654   0.669   2.635 -0.0179  1.3418 -1.3955
 4988TIP3    H214929   3.532   0.692   2.550 -2.1279 -1.8390  0.5501
 4989TIP3   OH214930   1.908   5.018   4.321 -0.3888  0.1922 -0.3579
 4989TIP3    H114931   1.949   4.939   4.286 -0.2493 -0.2788  0.8234
 4989TIP3    H214932   1.830   4.987   4.367  0.2426  0.6007  1.0467
 4990TIP3   OH214933   0.177   0.810   4.437  0.4306 -0.3985 -0.2848
 4990TIP3    H114934   0.185   0.797   4.532  0.1784 -0.9516 -0.3353
 4990TIP3    H214935   0.211   0.729   4.400  0.3911 -0.2396 -0.6647
 4991TIP3   OH214936   2.856   1.476   0.059 -0.4843 -0.0683 -0.2042
 4991TIP3    H114937   2.820   1.507   0.142  0.7001  1.6677 -0.3035
 4991TIP3    H214938   2.937   1.431   0.083 -1.0509 -1.1947 -0.2897
 4992TIP3   OH214939   0.693   6.101   1.096 -0.2322  0.3904 -0.5854
 4992TIP3    H114940   0.724   6.013   1.114 -0.5416  0.4565  0.3100
 4992TIP3    H214941   0.773   6.154   1.091 -0.0709  0.1367 -0.7143
 4993TIP3   OH214942   1.842   1.740   2.456  0.5015 -0.0290 -0.8200
 4993TIP3    H114943   1.809   1.671   2.513  0.9431 -0.0405 -0.5764
 4993TIP3    H214944   1.764   1.774   2.412  0.2720 -0.6219 -0.8791
 4994TIP3   OH214945   2.586   6.285   3.791 -0.0602 -0.8103  0.0501
 4994TIP3    H114946   2.580   6.379   3.772  1.5106 -0.7870 -0.4501
 4994TIP3    H214947   2.497   6.252   3.778 -0.5016  0.4976 -0.3847
 4995TIP3   OH214948   1.053   1.809   3.541 -0.1914  0.6386  0.0271
 4995TIP3    H114949   1.035   1.795   3.448 -0.1856  0.6205  0.0289
 4995TIP3    H214950   1.071   1.903   3.548 -1.6252  0.9295  0.2372
 4996TIP3   OH214951   5.893   1.436   2.221  0.1845  0.0550  0.5506
 4996TIP3    H114952   5.903   1.481   2.137 -1.1519 -0.2320  0.2283
 4996TIP3    H214953   5.799   1.425   2.232  0.2153  1.3764  2.7849
 4997TIP3   OH214954   1.797   3.062   4.651 -0.0810 -0.6338 -0.1008
 4997TIP3    H114955   1.740   3.116   4.596 -0.4778  0.3778  1.2156
 4997TIP3    H214956   1.843   3.126   4.707  0.3828 -1.5951  0.6491
 4998TIP3   OH214957   2.393   1.865   2.680 -0.0987  0.1878 -0.3769
 4998TIP3    H114958   2.458   1.863   2.751  0.1628 -0.7963 -0.6242
 4998TIP3    H214959   2.416   1.791   2.625 -2.4365 -1.2781  0.4444
 4999TIP3   OH214960   6.293   0.642   5.203  0.1171 -0.1030 -0.1944
 4999TIP3    H114961   6.321   0.699   5.274  0.1067  1.5821 -1.4834
 4999TIP3    H214962   6.325   0.555   5.228  0.9986  0.6194  1.3524
 5000TIP3   OH214963   2.628   6.144   0.327  0.5150  0.7848 -0.0534
 5000TIP3    H114964   2.721   6.142   0.306  0.8137  1.9487  1.0450
 5000TIP3    H214965   2.622   6.201   0.404 -1.1385  1.0068 -0.3139
 5001TIP3   OH214966   1.806   6.306   4.093  0.1611  0.3472 -0.4134
 5001TIP3    H114967   1.826   6.239   4.158 -0.0352 -0.9052 -1.5794
 5001TIP3    H214968   1.856   6.280   4.015 -0.5174  1.1193 -1.1386
 5002TIP3   OH214969   3.033   2.432   4.831  0.5940  0.0156 -0.4992
 5002TIP3    H114970   3.082   2.431   4.913  0.6835  0.8407 -0.5425
 5002TIP3    H214971   2.956   2.377   4.849  0.8684 -0.2232 -0.0273
 5003TIP3   OH214972   3.539   4.345   4.917 -0.6984  0.7055 -0.1869
 5003TIP3    H114973   3.588   4.339   4.835  1.7863  1.9624  1.1114
 5003TIP3    H214974   3.475   4.273   4.911  1.5704 -1.3697 -1.8179
 5004TIP3   OH214975   1.714   0.762   5.017 -0.3109 -0.0793 -0.1556
 5004TIP3    H114976   1.804   0.731   5.016 -0.0915  0.5330  0.0194
 5004TIP3    H214977   1.665   0.694   5.063  0.0678 -0.3863 -0.2017
 5005TIP3   OH214978   5.927   1.371   5.407 -0.3137 -0.3714 -0.1554
 5005TIP3    H114979   5.847   1.357   5.356 -0.9099  1.6229  0.1675
 5005TIP3    H214980   5.983   1.298   5.382 -2.5729 -2.4306  0.3531
 5006TIP3   OH214981   1.833   3.658   1.363  0.0641  0.2225  0.4249
 5006TIP3    H114982   1.848   3.721   1.292  3.3115 -0.3315  0.4801
 5006TIP3    H214983   1.869   3.576   1.330  0.5405 -0.3506  2.2603
 5007TIP3   OH214984   1.178   5.095   1.854  0.5236 -0.2057 -0.0576
 5007TIP3    H114985   1.115   5.095   1.782  1.3293  0.4430 -0.7754
 5007TIP3    H214986   1.124   5.081   1.932 -0.5951  0.9163 -0.5868
 5008TIP3   OH214987   2.836   6.625   1.096 -0.5285 -0.2033  0.1010
 5008TIP3    H114988   2.845   6.695   1.160 -0.7117 -1.6163  1.7389
 5008TIP3    H214989   2.897   6.649   1.026  0.6456  0.7617  1.3943
 5009TIP3   OH214990   4.802   3.222   5.444  0.4375 -0.7484 -0.4014
 5009TIP3    H114991   4.738   3.153   5.422  0.4839 -0.7617 -0.4979
 5009TIP3    H214992   4.752   3.285   5.495  0.5066 -1.0811  0.0863
 5010TIP3   OH214993   4.945   6.009   3.531  0.0664  0.1608 -0.4771
 5010TIP3    H114994   4.980   6.096   3.548 -0.7460  0.3888  0.1160
 5010TIP3    H214995   4.907   6.015   3.443 -1.9824  1.1171  0.3904
 5011TIP3   OH214996   3.038   2.665   4.180  0.4743  0.6052 -0.4814
 5011TIP3    H114997   3.063   2.572   4.183  1.5009  0.8727  2.0405
 5011TIP3    H214998   2.946   2.664   4.154  0.3996 -1.1464 -0.2884
 5012TIP3   OH214999   0.593   2.594   3.379  0.1110  0.1555  0.1379
 5012TIP3    H115000   0.641   2.567   3.458  1.7129 -1.3924 -1.2812
 5012TIP3    H215001   0.503   2.568   3.395  0.2209  0.7023  1.8120
 5013TIP3   OH215002   0.504   3.886   1.488  0.0842  0.0683 -0.0632
 5013TIP3    H115003   0.418   3.864   1.525 -1.0924  1.2287 -1.9627
 5013TIP3    H215004   0.553   3.804   1.489 -0.8306 -0.5036  1.5357
 5014TIP3   OH215005   6.488   0.908   3.272  0.3525  0.2371 -0.1142
 5014TIP3    H115006   6.546   0.833   3.280 -1.9512 -1.5762  0.9165
 5014TIP3    H215007   6.486   0.946   3.360 -1.2262 -0.7429  0.3093
 5015TIP3   OH215008   0.283   0.504   2.364 -0.3253  0.5138  0.3490
 5015TIP3    H115009   0.238   0.463   2.290 -0.2491  0.7408  0.1735
 5015TIP3    H215010   0.337   0.434   2.402 -0.0449  0.4971 -0.0672
 5016TIP3   OH215011   3.292   6.215   4.297 -0.2358  0.1252  0.2095
 5016TIP3    H115012   3.269   6.182   4.383 -0.0051  1.4827  0.8244
 5016TIP3    H215013   3.276   6.142   4.237  0.2833 -1.0699  1.4823
 5017TIP3   OH215014   4.229   3.339   5.155  0.0212  0.4636 -0.1098
 5017TIP3    H115015   4.212   3.345   5.249  0.4490 -0.3374  0.0219
 5017TIP3    H215016   4.166   3.274   5.124  0.5865 -0.0413 -0.1985
 5018TIP3   OH215017   3.768   2.007   2.216  0.4245  0.3717 -0.3774
 5018TIP3    H115018   3.719   1.937   2.173 -1.2258  0.9383  0.4893
 5018TIP3    H215019   3.846   1.964   2.252  0.0526 -0.7686 -0.8831
 5019TIP3   OH215020   6.709   2.046   4.463  0.0881 -0.2467  0.6136
 5019TIP3    H115021   6.751   2.093   4.535 -1.0235 -0.7731  1.6558
 5019TIP3    H215022   6.623   2.022   4.498 -0.2674 -0.9903 -0.7123
 5020TIP3   OH215023   5.999   1.272   0.790  0.0362  0.3874 -0.3948
 5020TIP3    H115024   5.936   1.287   0.860  0.9401  0.0690  0.4959
 5020TIP3    H215025   5.948   1.230   0.720 -0.7255  0.1119  0.3180
 5021TIP3   OH215026   5.556   0.393   4.967  0.9237  0.2116 -0.4970
 5021TIP3    H115027   5.520   0.481   4.952  0.4229  0.0393 -0.3136
 5021TIP3    H215028   5.486   0.333   4.940  0.5090 -0.1242  1.2029
 5022TIP3   OH215029   2.236   4.496   4.374 -0.6014  0.5330 -0.2024
 5022TIP3    H115030   2.141   4.483   4.378 -0.8947  2.1027 -1.1586
 5022TIP3    H215031   2.249   4.588   4.399  0.9323 -0.2552  2.3238
 5023TIP3   OH215032   7.076   3.911   3.243  0.0704 -0.1590  0.4247
 5023TIP3    H115033   7.051   3.997   3.277  0.8572 -0.0186  0.6673
 5023TIP3    H215034   7.150   3.885   3.297 -0.6762 -1.3623  0.8862
 5024TIP3   OH215035   4.761   6.223   0.305 -0.5074 -0.3193  0.4486
 5024TIP3    H115036   4.800   6.293   0.358 -2.5039  0.5515  0.8477
 5024TIP3    H215037   4.831   6.196   0.246  0.6331  1.2923  0.9948
 5025TIP3   OH215038   1.395   3.300   4.230 -0.0483  0.2379 -0.4107
 5025TIP3    H115039   1.433   3.232   4.287  0.0406  1.4687  1.0619
 5025TIP3    H215040   1.471   3.341   4.189 -0.0687 -0.1352 -0.8330
 5026TIP3   OH215041   2.878   4.240   3.615  0.0019  0.2556 -0.6178
 5026TIP3    H115042   2.897   4.333   3.624 -1.0122  0.3291  1.6017
 5026TIP3    H215043   2.963   4.197   3.624  0.5434  0.9337 -2.1234
 5027TIP3   OH215044   1.789   2.470   1.627  0.2115 -0.3612 -0.4090
 5027TIP3    H115045   1.726   2.399   1.613  1.8370 -1.8518 -0.5521
 5027TIP3    H215046   1.743   2.533   1.682 -1.4818 -1.2576 -0.7463
 5028TIP3   OH215047   6.438   4.598   0.137  0.2089 -0.5126 -0.2656
 5028TIP3    H115048   6.344   4.616   0.142  0.6437  2.1599 -0.5248
 5028TIP3    H215049   6.454   4.541   0.212 -1.5040 -0.5493  0.1319
 5029TIP3   OH215050   4.967   2.337   5.169 -0.3489 -0.0357 -0.2038
 5029TIP3    H115051   5.037   2.401   5.153 -0.2719  0.3705  1.6132
 5029TIP3    H215052   5.011   2.252   5.162 -0.2759  0.0965 -1.7739
 5030TIP3   OH215053   7.135   3.967   5.538 -0.2520 -1.0506 -0.6036
 5030TIP3    H115054   7.175   4.032   5.596  0.1365 -2.8085  1.2206
 5030TIP3    H215055   7.208   3.920   5.500 -0.4736 -2.6551  0.8247
 5031TIP3   OH215056   1.791   5.496   1.180 -0.6117 -0.2936  0.5813
 5031TIP3    H115057   1.783   5.565   1.114 -1.2407  0.2011  1.1662
 5031TIP3    H215058   1.883   5.499   1.206 -0.7433  0.7008  0.9909
 5032TIP3   OH215059   4.011   2.220   1.131  0.4510 -0.5000 -0.7737
 5032TIP3    H115060   3.963   2.163   1.070  1.2434 -2.1037  0.0476
 5032TIP3    H215061   3.965   2.208   1.215 -0.6643  1.7258 -0.9864
 5033TIP3   OH215062   5.674   0.798   2.398 -0.0582  0.2344 -0.2765
 5033TIP3    H115063   5.657   0.782   2.305  1.2682  1.2264 -0.7065
 5033TIP3    H215064   5.603   0.751   2.443 -0.3522 -0.8090 -1.7435
 5034TIP3   OH215065   1.585   0.004   0.948 -0.0141  0.0235 -0.2426
 5034TIP3    H115066   1.627  -0.031   1.026  0.8710 -1.1816 -1.2124
 5034TIP3    H215067   1.567   0.095   0.969 -0.6379 -0.4928  1.6868
 5035TIP3   OH215068   6.727   0.332   2.532  0.4702 -0.1528  0.3012
 5035TIP3    H115069   6.691   0.410   2.573 -0.0218 -0.4286  0.4010
 5035TIP3    H215070   6.657   0.266   2.539  1.2837 -0.9576  1.2611
 5036TIP3   OH215071   6.037   2.387   3.672  0.5801 -0.7336 -0.1699
 5036TIP3    H115072   6.075   2.305   3.705  1.2188 -0.2612  0.2930
 5036TIP3    H215073   6.112   2.443   3.656  0.0661  0.3101  0.9844
 5037TIP3   OH215074   3.049   5.189   3.706  0.0810  0.0735  0.1008
 5037TIP3    H115075   3.058   5.258   3.771  1.0918 -0.7734  0.9052
 5037TIP3    H215076   2.956   5.185   3.686  0.1479  2.6649 -1.1000
 5038TIP3   OH215077   2.815   0.524   3.906  0.2295  0.3624  0.1091
 5038TIP3    H115078   2.856   0.510   3.991 -1.1506 -0.1646  0.7272
 5038TIP3    H215079   2.725   0.491   3.917 -1.2477  3.8227 -0.3481
 5039TIP3   OH215080   5.037   0.450   4.604 -0.3769 -0.4445  0.0658
 5039TIP3    H115081   5.044   0.355   4.611  0.4854 -0.2294  4.1302
 5039TIP3    H215082   4.943   0.466   4.597 -0.6113 -1.5679  0.3959
 5040TIP3   OH215083   6.645   6.214   4.098 -0.4469 -0.1618  0.6492
 5040TIP3    H115084   6.621   6.254   4.014 -2.2907 -0.0124  1.2114
 5040TIP3    H215085   6.677   6.127   4.074  0.4214  0.3838 -0.3038
 5041TIP3   OH215086   5.565   1.933   2.028  0.6521 -0.0985  0.0347
 5041TIP3    H115087   5.649   1.948   1.983  1.1497 -1.1534  0.5626
 5041TIP3    H215088   5.588   1.935   2.121  0.1484 -0.7169  0.1739
 5042TIP3   OH215089   1.368   5.576   2.846 -0.0525 -0.6417  0.5067
 5042TIP3    H115090   1.439   5.640   2.843  0.0890 -0.8290 -0.1304
 5042TIP3    H215091   1.405   5.496   2.808 -0.1100 -1.2242  1.6190
 5043TIP3   OH215092   7.163   6.175   2.732  0.7827 -0.5775  0.0643
 5043TIP3    H115093   7.196   6.127   2.808  0.2064 -0.1356  0.6038
 5043TIP3    H215094   7.218   6.253   2.727  1.0638 -0.7884 -0.2066
 5044TIP3   OH215095   0.908   2.249   3.448 -0.0922 -0.2525  0.1833
 5044TIP3    H115096   0.969   2.320   3.468 -1.0037  0.5631  0.1057
 5044TIP3    H215097   0.965   2.174   3.431  0.9493  0.7135 -0.8279
 5045TIP3   OH215098   6.394   5.332   0.525 -1.4969  0.2834  0.0730
 5045TIP3    H115099   6.454   5.265   0.557 -2.6237  0.0291  1.8258
 5045TIP3    H215100   6.425   5.414   0.563 -0.4175  0.7347 -1.6590
 5046TIP3   OH215101   3.458   4.292   0.090  0.1088  0.4627 -0.0777
 5046TIP3    H115102   3.374   4.253   0.064  0.0724  1.2689 -1.2181
 5046TIP3    H215103   3.523   4.245   0.039  0.1846  1.0057 -0.4864
 5047TIP3   OH215104   6.150   3.751   3.915  0.1337 -0.2997  0.1550
 5047TIP3    H115105   6.129   3.835   3.956 -0.4847  0.4421 -1.5547
 5047TIP3    H215106   6.095   3.688   3.960  1.1434  0.0655  1.9681
 5048TIP3   OH215107   1.440   3.358   1.290  0.3120  0.0456 -0.0051
 5048TIP3    H115108   1.421   3.276   1.336 -0.1783  0.2099  0.0828
 5048TIP3    H215109   1.536   3.365   1.293  0.2666  0.7405  2.2327
 5049TIP3   OH215110   0.935   3.987   0.209  0.2656 -0.1530  0.3723
 5049TIP3    H115111   0.998   3.972   0.280 -1.0552  0.9331  1.8412
 5049TIP3    H215112   0.898   3.900   0.192  3.5593 -1.2852 -2.0484
 5050TIP3   OH215113   3.212   5.580   0.671 -0.6715  0.5471  0.0410
 5050TIP3    H115114   3.245   5.573   0.581 -2.7798 -2.2875 -0.6639
 5050TIP3    H215115   3.275   5.531   0.724 -0.5212  0.4049 -0.2659
 5051TIP3   OH215116   6.688   1.706   4.779 -0.3415  0.2216  0.2651
 5051TIP3    H115117   6.632   1.685   4.705 -1.2681  3.1864  0.0303
 5051TIP3    H215118   6.637   1.679   4.856 -0.1971 -1.0586 -0.0680
 5052TIP3   OH215119   7.108   0.599   1.598  0.2467  0.3319 -0.1370
 5052TIP3    H115120   7.159   0.613   1.677  0.1138 -0.0263  0.0133
 5052TIP3    H215121   7.018   0.617   1.624  0.2293  0.4392 -0.2670
 5053TIP3   OH215122   4.003   1.511   3.192  0.2859 -0.0880 -0.0805
 5053TIP3    H115123   4.029   1.584   3.136 -2.5990 -0.1196 -1.6132
 5053TIP3    H215124   4.036   1.433   3.148  1.0618  0.0968  0.1587
 5054TIP3   OH215125   2.305   2.809   5.438 -0.2381  0.1128  0.0590
 5054TIP3    H115126   2.249   2.858   5.498  1.0285 -0.6750  1.9629
 5054TIP3    H215127   2.251   2.735   5.410 -1.5491  1.5656 -1.4577
 5055TIP3   OH215128   4.017   2.166   4.370  0.1540 -0.0432  0.2361
 5055TIP3    H115129   4.030   2.187   4.462  0.3638  1.7474 -0.1571
 5055TIP3    H215130   4.103   2.180   4.329 -0.2692  0.6260 -0.4608
 5056TIP3   OH215131   1.230   0.601   4.921 -0.1985 -0.2675  0.2314
 5056TIP3    H115132   1.260   0.562   4.838 -1.3159  0.3041 -0.4516
 5056TIP3    H215133   1.271   0.546   4.988  0.6328 -0.8178 -0.6899
 5057TIP3   OH215134   3.727   4.632   4.715 -0.3091  0.6194  0.3738
 5057TIP3    H115135   3.723   4.538   4.731  1.0449  0.7388  1.5862
 5057TIP3    H215136   3.638   4.663   4.728 -0.1587  0.0152  3.6217
 5058TIP3   OH215137   3.390   5.020   3.577 -0.2059 -0.3365 -0.7119
 5058TIP3    H115138   3.472   4.972   3.565 -0.7791 -1.1800 -1.3459
 5058TIP3    H215139   3.381   5.028   3.672  1.9253  2.1084 -0.6312
 5059TIP3   OH215140   1.613   0.875   2.201  0.3603 -0.5278 -0.1815
 5059TIP3    H115141   1.646   0.903   2.116  0.1997 -0.9800 -0.3942
 5059TIP3    H215142   1.686   0.828   2.241  0.4522 -0.2736 -0.0449
 5060TIP3   OH215143   7.141   1.981   1.911  0.2952 -0.5494 -0.2576
 5060TIP3    H115144   7.067   2.002   1.853  0.0856  0.0807  0.2236
 5060TIP3    H215145   7.202   2.053   1.899  0.8485 -1.0757 -0.6593
 5061TIP3   OH215146   2.494   3.045   2.643 -0.0651  0.2081 -0.1158
 5061TIP3    H115147   2.541   3.077   2.566  0.5809  0.3889  0.3446
 5061TIP3    H215148   2.560   3.041   2.711 -0.0897 -2.2085 -0.1598
 5062TIP3   OH215149   7.094   2.571   4.611  0.6938 -0.3042 -0.3188
 5062TIP3    H115150   7.143   2.493   4.639 -0.1993 -0.4695  0.8567
 5062TIP3    H215151   7.017   2.536   4.566  0.0982 -0.1249  0.5393
 5063TIP3   OH215152   4.937   2.036   3.575  0.6018 -0.2849  0.1143
 5063TIP3    H115153   4.851   2.055   3.535  0.0662  0.3664  1.5223
 5063TIP3    H215154   4.993   2.107   3.545  0.1480  0.3187  0.6650
 5064TIP3   OH215155   5.040   5.439   4.283  0.4028 -0.6238  0.4107
 5064TIP3    H115156   5.038   5.478   4.196 -0.0608 -0.7814  0.3499
 5064TIP3    H215157   5.132   5.448   4.310  0.2568  0.7921  0.5335
 5065TIP3   OH215158   0.357   3.333   4.244  0.2756  0.3569  0.2956
 5065TIP3    H115159   0.370   3.395   4.315  2.9144  1.2040 -0.8165
 5065TIP3    H215160   0.418   3.262   4.262 -0.7393 -0.5871  0.1063
 5066TIP3   OH215161   2.025   5.964   4.924 -0.4735 -0.1038  0.8345
 5066TIP3    H115162   1.968   6.012   4.863  0.1448 -1.2611 -0.7340
 5066TIP3    H215163   2.003   5.872   4.909 -1.8202 -0.4084  3.9528
 5067TIP3   OH215164   2.516   2.203   3.600  0.3980 -0.2037 -0.1499
 5067TIP3    H115165   2.447   2.205   3.666  0.9265  0.0625  0.4116
 5067TIP3    H215166   2.550   2.113   3.605 -0.6664 -0.6821 -1.2451
 5068TIP3   OH215167   1.368   4.522   4.694  0.2034 -0.1857 -0.5581
 5068TIP3    H115168   1.276   4.499   4.690 -0.1041  1.0985 -1.3883
 5068TIP3    H215169   1.370   4.609   4.734  1.0715 -0.2913 -0.3374
 5069TIP3   OH215170   7.056   3.385   0.160 -0.1569  0.3780 -0.2592
 5069TIP3    H115171   6.985   3.416   0.215 -1.9612 -1.2011 -1.5608
 5069TIP3    H215172   7.020   3.386   0.071  1.2089 -1.1016 -0.8842
 5070TIP3   OH215173   3.931   1.308   0.403 -0.2887  0.3854 -0.0662
 5070TIP3    H115174   3.939   1.241   0.334  0.8171  1.8704 -1.4621
 5070TIP3    H215175   3.837   1.309   0.425 -0.5364 -0.6707 -1.0000
 5071TIP3   OH215176   6.339   4.591   3.773  0.5007 -0.3660 -0.3588
 5071TIP3    H115177   6.251   4.561   3.749 -0.0966  0.9945  0.0081
 5071TIP3    H215178   6.324   4.674   3.818  2.0646  0.5987 -1.5139
 5072TIP3   OH215179   7.069   5.212   5.627 -0.4954 -0.7332  0.9592
 5072TIP3    H115180   7.154   5.168   5.634 -0.0477 -0.0214  0.2456
 5072TIP3    H215181   7.079   5.271   5.552 -1.4374 -0.2248  1.2170
 5073TIP3   OH215182   4.683   6.468   1.944 -0.2950 -0.2670  0.3442
 5073TIP3    H115183   4.726   6.542   1.987 -0.5648 -0.1613  0.4310
 5073TIP3    H215184   4.628   6.508   1.876 -0.7186 -0.3628  0.6289
 5074TIP3   OH215185   2.260   0.482   1.272  0.4294 -0.2962  0.5707
 5074TIP3    H115186   2.342   0.509   1.230 -0.7107 -0.6047 -2.0055
 5074TIP3    H215187   2.215   0.564   1.293  0.4778 -0.1488  0.0945
 5075TIP3   OH215188   2.576   4.754   4.093 -0.5185 -0.4084 -0.3791
 5075TIP3    H115189   2.508   4.811   4.129 -0.0498 -0.2418  0.2785
 5075TIP3    H215190   2.563   4.758   3.998 -1.2834 -0.2104 -0.2709
 5076TIP3   OH215191   0.881   3.718   0.199 -0.4310  0.1747  0.2502
 5076TIP3    H115192   0.865   3.644   0.257  0.1047  1.0354  1.5441
 5076TIP3    H215193   0.905   3.679   0.116 -0.1486 -1.1028  0.9086
 5077TIP3   OH215194   6.618   3.863   3.393 -0.9358 -0.0479  0.2335
 5077TIP3    H115195   6.659   3.932   3.445 -0.4407  0.9823 -1.4313
 5077TIP3    H215196   6.547   3.830   3.448  0.1729  0.3004  1.9231
 5078TIP3   OH215197   0.157   4.973   1.967 -0.2955  0.1546  0.1843
 5078TIP3    H115198   0.153   4.892   1.916  1.8651 -0.2365  0.5094
 5078TIP3    H215199   0.072   4.980   2.009 -0.7121 -1.6809 -0.2696
 5079TIP3   OH215200   1.425   2.454   2.445  0.2734 -0.7120 -0.2543
 5079TIP3    H115201   1.402   2.392   2.514  0.2933 -1.1004 -0.5927
 5079TIP3    H215202   1.345   2.460   2.391  0.2579 -0.4120 -0.1965
 5080TIP3   OH215203   2.215   4.269   2.478 -0.0976  0.1142 -0.5864
 5080TIP3    H115204   2.214   4.293   2.570 -0.1965  0.5931 -0.7114
 5080TIP3    H215205   2.132   4.302   2.443 -0.3618 -0.6422 -0.7028
 5081TIP3   OH215206   1.182   0.289   3.955 -0.0130  0.0886 -0.3110
 5081TIP3    H115207   1.160   0.370   3.909 -1.3594 -0.1521 -0.1353
 5081TIP3    H215208   1.263   0.260   3.914 -0.2579  0.7902 -1.3508
 5082TIP3   OH215209   5.867   4.295   0.386  0.1251  0.3484 -0.3968
 5082TIP3    H115210   5.793   4.287   0.445  1.0353  0.0776  0.7482
 5082TIP3    H215211   5.829   4.323   0.303 -1.3913 -0.8976 -0.1652
 5083TIP3   OH215212   4.309   2.426   0.709 -0.7670 -0.1752 -0.2061
 5083TIP3    H115213   4.275   2.510   0.678 -0.7737 -0.2335 -0.3568
 5083TIP3    H215214   4.255   2.406   0.786 -1.0113 -0.2214 -0.3880
 5084TIP3   OH215215   2.715   3.158   4.372 -0.3548 -0.2308  0.2190
 5084TIP3    H115216   2.727   3.206   4.454 -0.1964  1.9519 -1.0138
 5084TIP3    H215217   2.798   3.113   4.358 -0.0028  0.2610  0.7020
 5085TIP3   OH215218   3.803   2.638   1.484 -0.0620  0.2198 -0.0919
 5085TIP3    H115219   3.727   2.636   1.542 -0.5814 -1.8741 -0.7625
 5085TIP3    H215220   3.871   2.592   1.532 -0.6858 -2.1021 -1.2778
 5086TIP3   OH215221   5.292   1.134   4.918  0.4472  0.3225  0.2759
 5086TIP3    H115222   5.301   1.091   4.833  1.3912  0.5600  0.2426
 5086TIP3    H215223   5.201   1.118   4.943  0.4215 -0.5753 -0.3278
 5087TIP3   OH215224   6.564   1.212   2.374 -0.2703 -0.2095 -0.3720
 5087TIP3    H115225   6.548   1.233   2.282  0.6284 -1.6458 -0.8834
 5087TIP3    H215226   6.649   1.253   2.393  0.1084 -0.9044 -0.5373
 5088TIP3   OH215227   5.058   0.823   4.024 -0.3400 -0.2949 -0.1193
 5088TIP3    H115228   5.017   0.736   4.029 -0.4089 -0.2599 -0.0895
 5088TIP3    H215229   4.990   0.880   3.989 -0.2612 -0.2743 -0.2402
 5089TIP3   OH215230   7.174   0.089   0.680  0.6261  0.2874 -0.4819
 5089TIP3    H115231   7.180   0.107   0.774 -2.5765 -2.9206  0.5757
 5089TIP3    H215232   7.145   0.172   0.642  0.3013  1.2370  1.6543
 5090TIP3   OH215233   6.420   0.384   1.401  0.0757  0.3708 -0.6117
 5090TIP3    H115234   6.477   0.439   1.454 -0.2728 -0.5636  0.7738
 5090TIP3    H215235   6.331   0.411   1.424 -0.0792  0.1602 -0.9513
 5091TIP3   OH215236   5.372   0.567   5.586  0.2379 -0.0305  0.6552
 5091TIP3    H115237   5.430   0.529   5.520 -0.6137 -1.2895  0.5867
 5091TIP3    H215238   5.288   0.576   5.542 -0.2016 -0.3781  1.3957
 5092TIP3   OH215239   4.539   1.968   0.302  0.6556  0.0227 -0.1615
 5092TIP3    H115240   4.464   1.998   0.251  0.9562  2.9523  0.9245
 5092TIP3    H215241   4.510   1.975   0.393  1.4078 -1.3397  0.1975
 5093TIP3   OH215242   1.389   5.964   2.303 -0.1710  0.4130 -0.4198
 5093TIP3    H115243   1.453   5.948   2.233 -1.1759 -0.5527 -1.1665
 5093TIP3    H215244   1.426   6.035   2.354  1.5315 -0.1726 -0.7811
 5094TIP3   OH215245   4.384   6.577   5.506 -0.2709 -0.1603  0.1711
 5094TIP3    H115246   4.330   6.507   5.471 -1.2992  0.0158  1.3508
 5094TIP3    H215247   4.472   6.558   5.474 -0.9453 -0.6197 -1.5424
 5095TIP3   OH215248   6.634   5.964   0.582  0.3393  0.3031 -0.0261
 5095TIP3    H115249   6.667   5.876   0.600  0.1051 -0.0524 -1.2452
 5095TIP3    H215250   6.700   6.003   0.525 -0.0248  0.5792 -0.2589
 5096TIP3   OH215251   4.400   0.221   5.241  0.3455 -0.8307 -0.1226
 5096TIP3    H115252   4.478   0.229   5.296  1.6069 -2.4618 -1.5424
 5096TIP3    H215253   4.427   0.255   5.156 -0.9985 -0.0041 -0.2435
 5097TIP3   OH215254   3.594   3.109   2.914  0.3986  0.2085 -0.9167
 5097TIP3    H115255   3.604   3.037   2.977 -2.2409 -0.6772 -1.3400
 5097TIP3    H215256   3.570   3.184   2.968  1.6550  0.3971 -0.5979
 5098TIP3   OH215257   3.803   0.818   4.140 -0.5047 -0.1344  0.0352
 5098TIP3    H115258   3.774   0.877   4.209  0.1725  1.1424 -0.7370
 5098TIP3    H215259   3.745   0.837   4.066 -0.4830 -0.6734 -0.1241
 5099TIP3   OH215260   1.169   4.322   5.709  0.3575 -0.4432  0.5479
 5099TIP3    H115261   1.250   4.315   5.759  1.0064  0.6986 -0.2879
 5099TIP3    H215262   1.194   4.301   5.619 -0.1107  0.6214  0.1550
 5100TIP3   OH215263   2.223   3.947   2.497  0.4961 -0.2710  0.4334
 5100TIP3    H115264   2.250   4.021   2.444 -0.9744  0.5183  0.7475
 5100TIP3    H215265   2.191   3.985   2.578 -0.6903 -1.1973  0.4354
 5101TIP3   OH215266   0.632   4.727   4.422  0.1177  0.2343  0.0222
 5101TIP3    H115267   0.716   4.768   4.442 -0.2931  2.0430 -1.6301
 5101TIP3    H215268   0.645   4.634   4.441  1.6969  0.8234  2.1377
 5102TIP3   OH215269   1.941   0.124   2.630  0.0020  0.4315 -0.7425
 5102TIP3    H115270   1.903   0.138   2.543 -1.2197  2.0333  0.0041
 5102TIP3    H215271   1.946   0.211   2.669  0.5045 -0.2520  0.8175
 5103TIP3   OH215272   1.028   1.429   3.094 -0.1785 -0.1238 -0.4069
 5103TIP3    H115273   1.089   1.395   3.160 -0.0053  2.7848  1.0814
 5103TIP3    H215274   1.083   1.478   3.033 -0.8935  4.2612  2.0582
 5104TIP3   OH215275   3.343   3.993   5.048  0.2446  0.6219 -0.4743
 5104TIP3    H115276   3.323   3.912   5.001  1.5138  0.2377 -0.4027
 5104TIP3    H215277   3.275   3.999   5.115 -0.1484 -0.1322 -0.7852
 5105TIP3   OH215278   4.346   4.553   1.352  0.6609 -0.1097 -0.6389
 5105TIP3    H115279   4.319   4.564   1.444 -0.6589  0.7022 -1.0910
 5105TIP3    H215280   4.379   4.463   1.348 -0.5423 -0.6385  0.3460
 5106TIP3   OH215281   0.790   5.426   1.277  0.1260 -0.3164 -0.1234
 5106TIP3    H115282   0.834   5.365   1.218 -1.1915 -1.8178  0.3736
 5106TIP3    H215283   0.709   5.449   1.231  0.4781  0.8708 -0.1790
 5107TIP3   OH215284   5.273   5.006   5.233  0.5102  0.0074 -0.0880
 5107TIP3    H115285   5.239   4.953   5.161 -0.1153 -1.7938  1.4612
 5107TIP3    H215286   5.355   4.962   5.259 -0.0356 -0.2827  1.2377
 5108TIP3   OH215287   2.290   3.315   5.424 -0.3929  0.2882  0.3141
 5108TIP3    H115288   2.329   3.383   5.479  0.8027 -0.6746  0.7043
 5108TIP3    H215289   2.365   3.260   5.398 -1.0582  0.2159 -1.5519
 5109TIP3   OH215290   3.743   6.073   2.381  0.1245  0.0035  0.1478
 5109TIP3    H115291   3.778   5.985   2.387 -0.0386 -0.3425 -2.6854
 5109TIP3    H215292   3.648   6.062   2.383  0.0919  0.3464  1.6984
 5110TIP3   OH215293   2.230   3.614   1.662  0.5061  0.3397 -0.1773
 5110TIP3    H115294   2.151   3.651   1.703  0.5838 -1.1115  1.4162
 5110TIP3    H215295   2.256   3.679   1.597 -0.6846  1.9339  0.8531
 5111TIP3   OH215296   4.323   1.744   2.726  0.5108  0.6116  0.3894
 5111TIP3    H115297   4.374   1.768   2.648 -2.6419  0.5332 -1.8573
 5111TIP3    H215298   4.242   1.793   2.718 -1.3209 -1.9425  1.8452
 5112TIP3   OH215299   1.723   2.272   5.164 -0.3420 -0.5091  0.2097
 5112TIP3    H115300   1.757   2.199   5.217  0.7107 -0.5744 -0.5167
 5112TIP3    H215301   1.690   2.230   5.085  2.6357 -0.0834 -1.4127
 5113TIP3   OH215302   6.941   5.998   4.120  0.0110  0.0843 -0.4749
 5113TIP3    H115303   6.975   5.909   4.125  0.8702  0.4202 -0.1962
 5113TIP3    H215304   7.008   6.047   4.072 -1.0042  0.3284 -1.6920
 5114TIP3   OH215305   0.224   1.893   3.947  0.2101  0.5500  0.0887
 5114TIP3    H115306   0.153   1.947   3.911  0.9946  0.7941 -1.1625
 5114TIP3    H215307   0.242   1.931   4.033  0.5647  2.1583 -0.6545
 5115TIP3   OH215308   1.365   3.112   1.422 -0.1819  0.0578 -0.1489
 5115TIP3    H115309   1.302   3.079   1.357 -1.0695  0.6368  0.4005
 5115TIP3    H215310   1.333   3.080   1.506  0.9112 -0.6115  0.0379
 5116TIP3   OH215311   1.797   4.496   0.866 -0.4134  0.2413  0.2900
 5116TIP3    H115312   1.718   4.442   0.866  0.1777 -0.7604 -2.5353
 5116TIP3    H215313   1.785   4.557   0.794  0.6737  1.2615  0.9272
 5117TIP3   OH215314   1.928   6.492   2.891 -0.1171  0.1544 -0.1745
 5117TIP3    H115315   1.856   6.534   2.938 -1.0875 -0.5027 -1.0414
 5117TIP3    H215316   1.971   6.437   2.957 -0.3133  0.6536  0.3796
 5118TIP3   OH215317   4.710   3.195   1.826  0.2976 -0.5496  0.7293
 5118TIP3    H115318   4.663   3.204   1.909  0.7161  0.3306  0.8761
 5118TIP3    H215319   4.700   3.280   1.783  0.7179 -0.7556  0.2056
 5119TIP3   OH215320   7.012   5.410   0.876 -0.1905  0.0888 -0.1729
 5119TIP3    H115321   6.989   5.431   0.967 -0.0547 -1.5843  0.2758
 5119TIP3    H215322   7.093   5.360   0.883  0.7882  1.4341 -1.3731
 5120TIP3   OH215323   2.581   5.376   1.353  0.4084 -1.0487 -0.1989
 5120TIP3    H115324   2.602   5.453   1.405 -0.9355  0.2649 -1.5215
 5120TIP3    H215325   2.656   5.318   1.365  1.1314  0.1481  1.3838
 5121TIP3   OH215326   5.754   3.225   3.636  0.6160  0.0343  0.1317
 5121TIP3    H115327   5.694   3.154   3.610  0.5840  0.0047  0.2812
 5121TIP3    H215328   5.839   3.182   3.645  0.3957 -0.1986  1.2290
 5122TIP3   OH215329   4.743   5.285   2.055  0.0680 -0.2984  0.1545
 5122TIP3    H115330   4.740   5.378   2.034 -0.6394 -0.7285 -1.8731
 5122TIP3    H215331   4.801   5.279   2.130  1.1240  1.6413 -0.4484
 5123TIP3   OH215332   5.861   6.342   1.972  0.0697 -0.5801  0.3125
 5123TIP3    H115333   5.846   6.251   1.949 -1.4866 -0.3054  0.1349
 5123TIP3    H215334   5.810   6.392   1.908  1.5123  0.4632 -0.0776
 5124TIP3   OH215335   1.902   0.574   4.808  0.2140 -0.1930  0.0048
 5124TIP3    H115336   1.934   0.569   4.898 -0.5032  0.2905  0.2939
 5124TIP3    H215337   1.836   0.505   4.803  2.1086 -2.0422 -0.9582
 5125TIP3   OH215338   6.492   3.139   3.172  0.3279  0.8001  1.1169
 5125TIP3    H115339   6.427   3.208   3.185  0.4802  0.8204  1.7790
 5125TIP3    H215340   6.530   3.125   3.258  0.9069  0.4911  0.8165
 5126TIP3   OH215341   2.086   3.209   2.238  0.2285 -0.4033  0.6317
 5126TIP3    H115342   2.017   3.273   2.254  0.9276  0.2618  1.0702
 5126TIP3    H215343   2.071   3.179   2.148 -0.3601  0.0482  0.5737
 5127TIP3   OH215344   3.364   3.170   2.745  0.3236 -0.5558  0.3264
 5127TIP3    H115345   3.440   3.130   2.787  0.6144 -2.2108 -1.5827
 5127TIP3    H215346   3.316   3.213   2.816  2.7734  0.1542  1.6586
 5128TIP3   OH215347   6.604   3.703   1.025 -0.4224 -0.5594 -0.2029
 5128TIP3    H115348   6.600   3.669   0.935  1.1806  1.1341 -0.9885
 5128TIP3    H215349   6.684   3.664   1.061 -0.4324 -0.3285  0.0714
 5129TIP3   OH215350   5.761   0.053   3.339  0.8638  0.5134  0.4706
 5129TIP3    H115351   5.788   0.139   3.307  1.4557 -0.4530 -1.8268
 5129TIP3    H215352   5.843   0.011   3.365  0.8048 -0.0051 -0.1677
 5130TIP3   OH215353   5.376   0.241   1.585  0.3202 -0.0559  0.2672
 5130TIP3    H115354   5.394   0.326   1.626 -1.7640  0.4198  0.2949
 5130TIP3    H215355   5.320   0.195   1.648 -0.8623 -0.3150 -0.9246
 5131TIP3   OH215356   5.342   2.314   5.002 -0.5563 -0.0823  0.0722
 5131TIP3    H115357   5.379   2.226   4.994 -0.9480 -0.2616  0.1839
 5131TIP3    H215358   5.336   2.346   4.913  0.7477  0.3264  0.1129
 5132TIP3   OH215359   0.138   3.534   0.583  0.2816 -0.3783 -0.1252
 5132TIP3    H115360   0.125   3.603   0.518  1.7876  0.5192  0.4561
 5132TIP3    H215361   0.231   3.540   0.606 -0.0941 -0.9626  1.7662
 5133TIP3   OH215362   0.270   2.516   5.740  0.4839 -0.0551 -0.1389
 5133TIP3    H115363   0.187   2.503   5.693  0.0762  0.1115  0.5102
 5133TIP3    H215364   0.311   2.590   5.695 -0.7081  1.2395  0.7993
 5134TIP3   OH215365   2.416   2.120   0.149 -0.5337  0.4165 -0.0208
 5134TIP3    H115366   2.464   2.145   0.070 -2.2608 -2.9792 -2.4230
 5134TIP3    H215367   2.478   2.064   0.197 -0.6564 -0.5177 -0.9247
 5135TIP3   OH215368   6.733   5.143   3.907 -0.6217  0.0998  0.5417
 5135TIP3    H115369   6.695   5.066   3.866  1.6065 -0.4074 -0.7202
 5135TIP3    H215370   6.823   5.146   3.876 -0.4350  2.8962  1.0107
 5136TIP3   OH215371   2.846   0.359   3.479 -0.0331  0.1210 -0.2683
 5136TIP3    H115372   2.898   0.392   3.553  1.9883  0.5277 -1.7653
 5136TIP3    H215373   2.779   0.305   3.520  0.7237  0.6720  1.8905
 5137TIP3   OH215374   5.756   4.551   1.565 -0.3822  0.2720 -0.2047
 5137TIP3    H115375   5.826   4.490   1.584  0.7902  1.7306  0.3674
 5137TIP3    H215376   5.686   4.527   1.626  0.1402 -0.3651  0.1501
 5138TIP3   OH215377   3.077   4.462   0.877 -0.1796  0.2986 -0.0156
 5138TIP3    H115378   3.129   4.406   0.936  1.7333 -0.6052 -2.3722
 5138TIP3    H215379   3.064   4.543   0.926  3.7609  0.6903  0.7395
 5139TIP3   OH215380   3.610   0.522   1.743 -0.3183  0.4673  0.3014
 5139TIP3    H115381   3.636   0.430   1.753 -1.2931  0.1114 -0.2963
 5139TIP3    H215382   3.661   0.553   1.668 -2.0896 -0.4589 -1.3803
 5140TIP3   OH215383   2.149   0.345   2.087  0.1784 -0.0987  0.6483
 5140TIP3    H115384   2.096   0.280   2.041  0.6618  0.7048 -1.1075
 5140TIP3    H215385   2.113   0.347   2.176  0.2169 -2.8045  0.7892
 5141TIP3   OH215386   6.201   4.147   2.570  0.4381 -0.2953  0.7518
 5141TIP3    H115387   6.169   4.062   2.600 -0.3647 -0.2688  0.0166
 5141TIP3    H215388   6.197   4.142   2.474 -1.8234  1.3243  0.6504
 5142TIP3   OH215389   4.962   4.215   4.706 -1.1173 -0.5505  0.2292
 5142TIP3    H115390   5.048   4.246   4.734 -0.8228 -0.6790 -0.5077
 5142TIP3    H215391   4.935   4.278   4.639 -2.4178  0.5494  1.6869
 5143TIP3   OH215392   5.202   5.986   2.438  0.0654  0.2374  0.2131
 5143TIP3    H115393   5.267   6.046   2.474 -0.3374 -0.0057  1.3946
 5143TIP3    H215394   5.122   6.039   2.432  0.2506  0.4308 -0.8892
 5144TIP3   OH215395   0.199   5.321   3.149 -0.0823 -0.1116  0.0843
 5144TIP3    H115396   0.195   5.416   3.161  2.0995  0.0444 -0.0184
 5144TIP3    H215397   0.131   5.302   3.084 -0.4483  1.3814 -0.0108
 5145TIP3   OH215398   5.640   3.007   3.101 -0.8698  0.2310  0.4188
 5145TIP3    H115399   5.603   2.920   3.086 -0.0088 -0.3914  1.7536
 5145TIP3    H215400   5.564   3.065   3.102 -1.5194 -0.5879  0.1102
 5146TIP3   OH215401   5.910   5.585   1.439 -0.7809  0.1545  0.8154
 5146TIP3    H115402   5.821   5.596   1.404 -0.2814  2.9325  0.1875
 5146TIP3    H215403   5.897   5.552   1.528 -2.2485 -2.5940 -0.2678
 5147TIP3   OH215404   3.702   3.057   1.203 -0.5162  0.3665 -0.4699
 5147TIP3    H115405   3.737   2.984   1.152 -1.0057  0.0088 -0.2996
 5147TIP3    H215406   3.731   3.040   1.292  1.9614  1.9696 -0.8564
 5148TIP3   OH215407   6.054   0.997   3.128 -0.2561  0.1957  0.5271
 5148TIP3    H115408   6.026   0.907   3.141  0.2601  0.3241  3.0830
 5148TIP3    H215409   6.148   0.996   3.144 -0.0272  1.0213 -0.5878
 5149TIP3   OH215410   5.694   1.259   2.459  0.6060  0.1800 -0.1418
 5149TIP3    H115411   5.734   1.185   2.507  0.8018  0.2984 -0.1208
 5149TIP3    H215412   5.606   1.229   2.438 -0.2777  0.9157  2.1779
 5150TIP3   OH215413   1.580   0.416   3.869 -0.0901 -0.3558  0.1165
 5150TIP3    H115414   1.499   0.413   3.817  0.2741  1.5609 -0.6559
 5150TIP3    H215415   1.558   0.373   3.951 -2.0670  0.5228  0.1053
 5151TIP3   OH215416   4.566   2.416   0.030  0.1028  0.0642 -0.5446
 5151TIP3    H115417   4.592   2.356   0.100  0.8709  0.7085 -0.2597
 5151TIP3    H215418   4.509   2.480   0.073 -1.2254 -0.7962 -0.9752
 5152TIP3   OH215419   3.028   0.881   2.380 -0.1805  0.2024  0.1174
 5152TIP3    H115420   2.932   0.877   2.389 -0.1796 -0.6653 -0.1444
 5152TIP3    H215421   3.047   0.827   2.303  0.4788  0.8507 -0.1866
 5153TIP3   OH215422   0.820   0.803   0.267 -0.5405 -0.1763  0.1973
 5153TIP3    H115423   0.834   0.769   0.356  0.1381 -0.2414  0.0707
 5153TIP3    H215424   0.739   0.760   0.238  0.4995 -2.0295 -0.1171
 5154TIP3   OH215425   7.078   4.827   0.671 -0.1394  0.5706  0.0255
 5154TIP3    H115426   7.105   4.919   0.683  0.1559  0.2113  3.0343
 5154TIP3    H215427   7.129   4.780   0.737 -1.3332 -1.5677 -0.5196
 5155TIP3   OH215428   2.442   1.013   1.403 -0.2963  0.1593 -0.3115
 5155TIP3    H115429   2.415   1.088   1.455  0.0657 -0.4105  0.7352
 5155TIP3    H215430   2.507   0.968   1.458 -0.6234 -1.0024 -0.8352
 5156TIP3   OH215431   5.502   6.186   1.848 -0.3391  0.0240  0.0021
 5156TIP3    H115432   5.596   6.199   1.844 -0.0242 -1.4005  1.4930
 5156TIP3    H215433   5.465   6.273   1.832  1.1328  0.3111 -2.2115
 5157TIP3   OH215434   0.925   3.890   5.041  0.3733  0.6075  0.0098
 5157TIP3    H115435   0.983   3.895   4.965  0.3649  0.7174  0.0099
 5157TIP3    H215436   0.931   3.799   5.071  0.4324  0.5826 -0.0785
 5158TIP3   OH215437   3.563   1.622   3.509 -0.2445  0.7632  0.4152
 5158TIP3    H115438   3.646   1.614   3.462 -0.6097 -0.3015 -0.0829
 5158TIP3    H215439   3.567   1.708   3.551  2.3737 -0.3359  2.8050
 5159TIP3   OH215440   0.983   3.957   5.804 -0.5351  0.2452 -0.1518
 5159TIP3    H115441   0.924   3.886   5.778  0.2831 -0.0440 -1.2807
 5159TIP3    H215442   0.930   4.037   5.795 -0.8110 -0.0223 -0.9985
 5160TIP3   OH215443   5.721   1.592   5.172 -0.1805 -0.3747  0.1092
 5160TIP3    H115444   5.725   1.625   5.082  1.3570 -0.0600  0.2604
 5160TIP3    H215445   5.667   1.656   5.218 -0.7709 -0.4023 -0.5271
 5161TIP3   OH215446   4.957   5.533   5.786 -0.0346 -0.1498  0.0206
 5161TIP3    H115447   5.007   5.459   5.751 -1.5096 -1.3854  0.4063
 5161TIP3    H215448   4.911   5.569   5.710 -0.8902 -0.9373  0.1439
 5162TIP3   OH215449   5.538   2.093   3.613 -0.0212  0.5594  0.0721
 5162TIP3    H115450   5.615   2.057   3.569 -0.3992  0.1601 -0.2814
 5162TIP3    H215451   5.468   2.087   3.547 -0.5783  0.0273  0.6955
 5163TIP3   OH215452   1.532   3.347   1.634 -0.1772 -0.4522  0.2001
 5163TIP3    H115453   1.505   3.300   1.555 -1.9384  1.5571 -0.4942
 5163TIP3    H215454   1.613   3.391   1.609  0.9428 -2.2043  0.5473
 5164TIP3   OH215455   1.888   5.320   1.490  0.4616  0.4499 -0.5194
 5164TIP3    H115456   1.983   5.326   1.487  0.5852 -0.9076  0.0793
 5164TIP3    H215457   1.867   5.318   1.583 -0.1539  0.6583 -0.6492
 5165TIP3   OH215458   2.844   5.042   0.853  0.0092  0.1603 -0.0446
 5165TIP3    H115459   2.916   5.092   0.892  1.6393 -2.6737  0.8937
 5165TIP3    H215460   2.772   5.051   0.916 -0.4842  2.7752 -0.8416
 5166TIP3   OH215461   3.746   2.548   4.520 -0.2971 -0.0772 -0.4296
 5166TIP3    H115462   3.775   2.638   4.507 -0.1322  0.0731  0.8489
 5166TIP3    H215463   3.763   2.504   4.437  1.7383  0.5073 -0.3748
 5167TIP3   OH215464   0.802   2.438   3.815  0.1160  0.2727  0.3505
 5167TIP3    H115465   0.763   2.367   3.764 -0.3673  0.0928  0.9704
 5167TIP3    H215466   0.734   2.466   3.875  1.5040 -1.4874  2.9619
 5168TIP3   OH215467   5.974   0.824   0.872  0.0676 -0.2479  0.1855
 5168TIP3    H115468   6.035   0.897   0.865 -0.4641  0.3928  1.7812
 5168TIP3    H215469   6.030   0.746   0.877  0.7480  0.2791  1.0382
 5169TIP3   OH215470   0.676   0.371   5.394  0.2499 -0.1479 -0.4706
 5169TIP3    H115471   0.626   0.297   5.361  2.1596 -2.6791  1.8551
 5169TIP3    H215472   0.612   0.443   5.399 -2.2167 -2.1643 -1.0009
 5170TIP3   OH215473   2.702   4.998   0.609 -0.0618  0.2457 -0.0658
 5170TIP3    H115474   2.755   5.042   0.676 -2.7823  0.0741  2.3912
 5170TIP3    H215475   2.668   4.920   0.652 -1.0367 -0.4701 -2.0228
 5171TIP3   OH215476   6.489   4.461   2.295 -0.1563 -0.0492 -0.5926
 5171TIP3    H115477   6.410   4.454   2.348  0.5710  0.8309  0.6552
 5171TIP3    H215478   6.468   4.528   2.229 -0.5683 -0.0752 -0.4893
 5172TIP3   OH215479   4.360   6.013   4.259 -0.3391 -0.0904  0.2771
 5172TIP3    H115480   4.293   6.037   4.323 -1.4332  0.7450 -1.1371
 5172TIP3    H215481   4.387   6.096   4.220  0.9216 -0.5058  0.2087
 5173TIP3   OH215482   6.942   3.955   4.522  0.2352 -0.2133  0.1034
 5173TIP3    H115483   6.873   3.904   4.563  0.3505 -0.5792 -0.1492
 5173TIP3    H215484   6.984   3.894   4.461 -0.3570  0.5023 -1.0412
 5174TIP3   OH215485   4.888   0.512   4.927  0.4180  0.3008  0.2862
 5174TIP3    H115486   4.822   0.538   4.864 -0.3896  0.6424  1.2380
 5174TIP3    H215487   4.883   0.579   4.996  1.8052  0.3737  0.3512
 5175TIP3   OH215488   3.940   3.803   3.521 -0.2170 -0.6520 -0.4610
 5175TIP3    H115489   3.978   3.848   3.596  1.2400 -2.4929 -0.0297
 5175TIP3    H215490   3.916   3.716   3.555  0.4789 -1.5272 -2.1094
 5176TIP3   OH215491   3.425   1.550   5.586 -0.3350 -0.3128 -0.2477
 5176TIP3    H115492   3.378   1.487   5.532 -2.0685 -0.0719  0.9210
 5176TIP3    H215493   3.476   1.497   5.647 -0.8754 -0.5970 -0.0385
 5177TIP3   OH215494   4.648   1.838   1.069 -0.1694 -0.6956  0.3826
 5177TIP3    H115495   4.669   1.813   0.979 -1.0775  0.8906 -0.3163
 5177TIP3    H215496   4.707   1.912   1.088  1.0104 -1.8911  1.6389
 5178TIP3   OH215497   0.327   1.267   2.585  0.3124 -0.1823  0.1566
 5178TIP3    H115498   0.387   1.337   2.610  0.1222 -0.3330  1.0496
 5178TIP3    H215499   0.267   1.258   2.660 -0.2785 -0.6272 -0.3542
 5179TIP3   OH215500   0.704   2.667   1.651  0.6103  0.2523 -0.3737
 5179TIP3    H115501   0.783   2.616   1.670 -0.0791 -0.3837  0.8713
 5179TIP3    H215502   0.632   2.604   1.655 -0.3042  1.3284  1.5894
 5180TIP3   OH215503   6.130   6.239   3.607 -0.0200  0.0338 -0.1323
 5180TIP3    H115504   6.080   6.199   3.536 -1.8024 -3.1924  2.5934
 5180TIP3    H215505   6.195   6.173   3.630  0.2137  0.7718  1.4574
 5181TIP3   OH215506   4.579   3.270   0.215 -0.8133  0.2018  0.1676
 5181TIP3    H115507   4.638   3.319   0.272 -0.5267 -0.2132  0.2288
 5181TIP3    H215508   4.600   3.300   0.127 -0.5636  0.1058  0.1952
 5182TIP3   OH215509   1.408   5.802   3.738  0.4674 -0.3132 -0.0241
 5182TIP3    H115510   1.459   5.862   3.791  0.4081  0.7740 -1.1593
 5182TIP3    H215511   1.323   5.798   3.781  0.9594 -0.8090  0.9198
 5183TIP3   OH215512   5.641   4.432   0.618 -0.1656 -0.7123  0.0385
 5183TIP3    H115513   5.621   4.509   0.565 -0.4619 -1.0019 -0.2706
 5183TIP3    H215514   5.660   4.363   0.555  1.0312 -0.6666  0.3110
 5184TIP3   OH215515   2.828   2.654   4.792  0.5293 -0.8577 -0.0094
 5184TIP3    H115516   2.740   2.620   4.781  0.5415 -1.1303  0.6917
 5184TIP3    H215517   2.884   2.577   4.797  0.8578 -0.6787 -0.8278
 5185TIP3   OH215518   2.905   6.196   5.562  0.5235 -0.0564  0.0860
 5185TIP3    H115519   2.906   6.100   5.552 -2.9567 -0.1761 -0.2980
 5185TIP3    H215520   2.877   6.210   5.653 -0.8291  0.4961 -0.3876
 5186TIP3   OH215521   4.787   5.284   3.392  0.3255 -0.0842 -0.5728
 5186TIP3    H115522   4.789   5.210   3.332 -0.2526  0.4839 -1.3120
 5186TIP3    H215523   4.721   5.261   3.457 -1.5748  0.7277 -2.1048
 5187TIP3   OH215524   6.074   1.309   2.375 -0.2341 -0.0559 -0.2847
 5187TIP3    H115525   6.021   1.314   2.455 -1.7233  1.0532 -1.2605
 5187TIP3    H215526   6.013   1.336   2.306  1.4075  0.4472 -1.5921
 5188TIP3   OH215527   4.969   3.453   2.980 -0.1989 -0.6315  0.8408
 5188TIP3    H115528   4.897   3.426   3.037 -1.0473  0.1370  0.1666
 5188TIP3    H215529   4.939   3.535   2.941  0.8906 -0.5001  0.2454
 5189TIP3   OH215530   7.195   0.625   2.143 -0.5658 -0.1439 -0.2191
 5189TIP3    H115531   7.234   0.705   2.179  0.0356 -0.3041 -0.5096
 5189TIP3    H215532   7.101   0.638   2.155 -0.5442  1.0618 -1.1666
 5190TIP3   OH215533   1.198   3.836   1.855 -0.3617  0.2127 -0.1823
 5190TIP3    H115534   1.148   3.893   1.796  0.9756  1.8238  0.1492
 5190TIP3    H215535   1.268   3.800   1.800 -1.9865 -2.3320 -0.7396
 5191TIP3   OH215536   2.339   0.513   4.604  0.0183 -0.2483 -0.7154
 5191TIP3    H115537   2.303   0.601   4.621  1.7013  0.5788 -1.2258
 5191TIP3    H215538   2.324   0.499   4.511  1.4277  0.3264 -1.0478
 5192TIP3   OH215539   4.426   6.587   4.431 -0.2494 -0.5677 -0.0625
 5192TIP3    H115540   4.455   6.673   4.459 -2.3009  0.1348  0.0954
 5192TIP3    H215541   4.436   6.532   4.509  1.6774 -0.6844 -0.3437
 5193TIP3   OH215542   5.360   2.558   2.269  0.2087 -0.1699 -0.0828
 5193TIP3    H115543   5.388   2.593   2.353  1.8517  2.1659 -1.4842
 5193TIP3    H215544   5.267   2.537   2.281 -0.0735  1.8330  1.7930
 5194TIP3   OH215545   4.808   6.569   1.641  0.0882  0.1475  0.8343
 5194TIP3    H115546   4.775   6.657   1.624 -0.1750 -0.0102  0.4972
 5194TIP3    H215547   4.757   6.513   1.582  0.2067 -0.2375  1.0917
 5195TIP3   OH215548   3.237   5.641   4.394 -0.0133  0.2266 -0.3992
 5195TIP3    H115549   3.280   5.708   4.446  0.4614  0.1511 -0.6898
 5195TIP3    H215550   3.267   5.657   4.305 -1.6889  1.0513 -0.8497
 5196TIP3   OH215551   4.343   3.090   3.396 -0.2912  0.3880 -0.3850
 5196TIP3    H115552   4.313   3.013   3.444 -0.1893  0.1873 -0.6416
 5196TIP3    H215553   4.422   3.061   3.350 -0.1818  0.6798 -0.3864
 5197TIP3   OH215554   3.296   3.108   0.653 -0.2696  0.2201  0.1184
 5197TIP3    H115555   3.376   3.128   0.605  0.5295  0.1958  1.4026
 5197TIP3    H215556   3.248   3.191   0.656  0.8209  0.8378  1.3539
 5198TIP3   OH215557   4.333   2.208   4.060 -0.1843 -0.1010  0.3817
 5198TIP3    H115558   4.277   2.246   3.992 -0.5287 -0.0677  0.6814
 5198TIP3    H215559   4.291   2.233   4.142  0.9994  1.0803  0.6582
 5199TIP3   OH215560   3.340   3.541   1.639  1.1112 -0.0729  0.4576
 5199TIP3    H115561   3.338   3.554   1.734  2.1928 -0.4959  0.5512
 5199TIP3    H215562   3.261   3.490   1.620  0.6476  0.4116  1.0587
 5200TIP3   OH215563   0.065   3.972   3.715  0.2371  0.1545  0.0580
 5200TIP3    H115564   0.135   4.030   3.687 -1.9180  2.9182 -0.0007
 5200TIP3    H215565   0.100   3.927   3.792  2.1786  1.1054 -0.2148
 5201TIP3   OH215566   0.515   6.451   1.758  0.0532  0.2121  0.1745
 5201TIP3    H115567   0.451   6.508   1.801  0.0879 -0.1109  0.6519
 5201TIP3    H215568   0.569   6.417   1.828  1.0068  0.7783 -0.2677
 5202TIP3   OH215569   5.210   3.769   3.233  0.1921 -0.3513  0.3301
 5202TIP3    H115570   5.125   3.804   3.206 -0.0593 -1.1320  0.0701
 5202TIP3    H215571   5.201   3.674   3.222  2.6642 -0.3221 -4.4322
 5203TIP3   OH215572   4.667   4.232   3.070 -1.0451  0.0090  0.4024
 5203TIP3    H115573   4.603   4.268   3.132 -1.0065  0.2614  0.2995
 5203TIP3    H215574   4.692   4.307   3.016  0.5431  0.2953  1.4687
 5204TIP3   OH215575   3.743   0.139   1.616  0.1712 -0.7663 -0.2559
 5204TIP3    H115576   3.804   0.109   1.683  0.0004  2.9420  1.8150
 5204TIP3    H215577   3.658   0.106   1.644  0.3232 -0.5166  0.5138
 5205TIP3   OH215578   1.283   5.306   1.107  0.4117  0.2268 -0.3456
 5205TIP3    H115579   1.317   5.356   1.033  0.2414 -0.1606 -0.6933
 5205TIP3    H215580   1.189   5.323   1.106  0.1566 -1.0176 -1.2099
 5206TIP3   OH215581   5.689   0.842   5.371  0.4656  0.2013 -0.4207
 5206TIP3    H115582   5.645   0.909   5.319 -1.8537 -0.7501  0.1896
 5206TIP3    H215583   5.715   0.775   5.307  2.5769  1.4605 -0.9976
 5207TIP3   OH215584   6.236   6.758   3.075 -0.1268 -0.0305  0.2384
 5207TIP3    H115585   6.167   6.692   3.070  0.4669 -0.6254 -0.3221
 5207TIP3    H215586   6.290   6.742   2.998 -0.1356  1.3098 -0.0678
 5208TIP3   OH215587   0.260   1.742   5.243 -0.0703 -0.2938 -0.4348
 5208TIP3    H115588   0.210   1.661   5.257 -0.3936 -0.1149 -0.5519
 5208TIP3    H215589   0.264   1.752   5.148 -1.1556  0.5113 -0.4188
 5209TIP3   OH215590   7.086   1.884   4.292 -0.4095 -0.0420 -0.0634
 5209TIP3    H115591   7.112   1.833   4.216 -0.4038 -0.5298  0.2578
 5209TIP3    H215592   7.003   1.845   4.320 -0.7677  0.5844 -0.2349
 5210TIP3   OH215593   2.796   1.504   4.390 -0.3892  0.1057 -0.2379
 5210TIP3    H115594   2.868   1.501   4.327  0.1992 -2.2234  0.4446
 5210TIP3    H215595   2.720   1.533   4.339  0.7381  1.3439 -1.2629
 5211TIP3   OH215596   3.110   3.486   5.646 -0.3521  0.3573 -0.6682
 5211TIP3    H115597   3.173   3.506   5.716 -0.3712  0.9776 -0.8246
 5211TIP3    H215598   3.114   3.391   5.637  0.5084  0.3806 -0.6200
 5212TIP3   OH215599   5.421   6.137   2.495 -0.0390  0.6049 -0.5757
 5212TIP3    H115600   5.512   6.129   2.468 -0.0822  1.6374 -1.1031
 5212TIP3    H215601   5.408   6.231   2.508 -1.2845  0.5947 -1.4786
 5213TIP3   OH215602   3.813   6.493   1.964 -0.3235  0.1235  0.1558
 5213TIP3    H115603   3.895   6.542   1.971 -0.4135  0.2311  0.5108
 5213TIP3    H215604   3.839   6.406   1.934 -0.1861  0.4503 -0.7045
 5214TIP3   OH215605   3.821   3.029   4.002 -0.1656 -0.2631  0.0524
 5214TIP3    H115606   3.730   3.026   4.031  0.1013  1.1719  1.1057
 5214TIP3    H215607   3.865   2.964   4.057  0.3067  2.3139  2.9747
 5215TIP3   OH215608   6.186   1.015   1.211  0.8101 -0.7142 -0.0853
 5215TIP3    H115609   6.244   1.013   1.135  1.3491 -0.7194  0.3106
 5215TIP3    H215610   6.190   0.926   1.246  0.2732 -0.8108 -0.2581
 5216TIP3   OH215611   0.742   5.044   0.871  0.1817 -0.0818 -0.5960
 5216TIP3    H115612   0.652   5.053   0.901  0.5133 -1.2669  0.9267
 5216TIP3    H215613   0.778   4.972   0.925  2.0143  0.3437 -1.1684
 5217TIP3   OH215614   4.465   4.196   2.567 -0.5841 -0.4333 -0.2687
 5217TIP3    H115615   4.391   4.165   2.515 -1.1469 -1.9599  1.3569
 5217TIP3    H215616   4.480   4.126   2.631 -0.1584  1.4933  1.8482
 5218TIP3   OH215617   4.722   5.948   0.816 -0.2600  0.5112  0.7865
 5218TIP3    H115618   4.770   6.009   0.761  2.5951 -1.8828  0.3543
 5218TIP3    H215619   4.672   5.894   0.754 -0.4745  0.5619  0.9145
 5219TIP3   OH215620   0.923   1.877   5.794 -0.4068  0.1370  0.2938
 5219TIP3    H115621   0.913   1.845   5.883  1.0907 -0.3689  0.3180
 5219TIP3    H215622   1.008   1.921   5.794 -0.9600  1.2465 -0.5713
 5220TIP3   OH215623   4.121   0.836   2.891  0.6289 -0.2486 -0.1830
 5220TIP3    H115624   4.164   0.799   2.814 -0.4357 -2.0832  0.0279
 5220TIP3    H215625   4.129   0.768   2.959 -0.8281  0.1481  0.4485
 5221TIP3   OH215626   5.470   3.946   5.478  0.2760  0.0255 -0.6863
 5221TIP3    H115627   5.428   4.030   5.458 -0.8373 -0.8097 -1.9377
 5221TIP3    H215628   5.564   3.965   5.469  0.1350  1.4620  0.4083
 5222TIP3   OH215629   1.812   3.971   5.120 -0.0128 -0.0973 -0.4318
 5222TIP3    H115630   1.806   3.948   5.213  0.0229  0.6847 -0.2313
 5222TIP3    H215631   1.781   3.893   5.074  0.7678 -0.8036  0.2055
 5223TIP3   OH215632   5.421   0.865   0.876 -0.2515  0.3581  0.0055
 5223TIP3    H115633   5.414   0.890   0.968  0.0178 -1.4505  0.5432
 5223TIP3    H215634   5.445   0.946   0.831 -2.7014  1.8337  1.1553
 5224TIP3   OH215635   2.312   5.349   4.135 -0.5065 -0.2458  0.2440
 5224TIP3    H115636   2.267   5.421   4.180  2.9982  1.4433  1.4509
 5224TIP3    H215637   2.327   5.381   4.046 -0.3641 -0.1427  0.3043
 5225TIP3   OH215638   6.055   2.465   0.493 -0.0846  0.0519  0.5509
 5225TIP3    H115639   6.031   2.557   0.482  1.4848  0.4685  0.3665
 5225TIP3    H215640   6.058   2.430   0.404 -0.3866 -0.1142  0.6020
 5226TIP3   OH215641   1.551   3.088   2.207  0.4654 -0.4418  0.4305
 5226TIP3    H115642   1.614   3.064   2.140 -0.3052  0.9557 -0.8535
 5226TIP3    H215643   1.602   3.091   2.288  1.8211 -0.3090 -0.4014
 5227TIP3   OH215644   1.010   4.522   0.489  0.1647  0.5743 -0.3846
 5227TIP3    H115645   0.979   4.458   0.425  0.3639 -0.8289  0.8865
 5227TIP3    H215646   1.104   4.531   0.469  0.3397 -0.2578  0.0246
 5228TIP3   OH215647   6.146   1.618   2.041  0.2134 -0.0950 -0.0720
 5228TIP3    H115648   6.099   1.563   1.978 -2.8878  1.3845  0.7531
 5228TIP3    H215649   6.193   1.556   2.097  2.0700 -1.5002 -2.9272
 5229TIP3   OH215650   0.281   4.560   5.392  0.5054 -0.2726  0.3633
 5229TIP3    H115651   0.320   4.575   5.306 -1.2867 -2.8770 -1.0495
 5229TIP3    H215652   0.312   4.473   5.418 -0.7141 -0.4571  1.3038
 5230TIP3   OH215653   2.979   2.533   5.250  0.5587 -0.3422  0.1947
 5230TIP3    H115654   3.037   2.472   5.204 -1.4697 -0.4815 -2.3806
 5230TIP3    H215655   2.911   2.477   5.287  0.5147  0.0941  0.7921
 5231TIP3   OH215656   4.693   0.737   0.678  0.2492 -0.5796 -0.0340
 5231TIP3    H115657   4.736   0.661   0.718  0.4965  0.0803  0.9865
 5231TIP3    H215658   4.763   0.800   0.662  0.2700 -1.0636 -2.1845
 5232TIP3   OH215659   3.518   2.399   2.749 -0.1214 -0.2996  0.0525
 5232TIP3    H115660   3.575   2.453   2.694  0.6024 -1.0653  0.0120
 5232TIP3    H215661   3.560   2.398   2.834  0.3224 -1.4159 -0.1530
 5233TIP3   OH215662   6.652   2.924   2.349  0.0325  0.2538  0.1679
 5233TIP3    H115663   6.722   2.962   2.403  2.0139  0.8557 -2.5812
 5233TIP3    H215664   6.642   2.986   2.276 -0.1713 -2.0255 -1.8720
 5234TIP3   OH215665   3.927   1.093   5.016  0.4094  0.5405 -0.0637
 5234TIP3    H115666   3.921   0.998   5.008  1.2996  0.6157 -4.7147
 5234TIP3    H215667   3.971   1.108   5.099  0.5358 -3.1295  0.6771
 5235TIP3   OH215668   6.870   2.894   1.125  0.4620 -0.1757  0.0171
 5235TIP3    H115669   6.852   2.977   1.170  3.7451  0.4917  0.3402
 5235TIP3    H215670   6.964   2.880   1.137  0.2131 -3.4532 -0.9339
 5236TIP3   OH215671   4.444   3.576   0.270 -0.1170  0.4215  0.2657
 5236TIP3    H115672   4.371   3.547   0.215  0.4784  2.5170 -1.7679
 5236TIP3    H215673   4.465   3.663   0.238  1.2782  1.1585  2.8913
 5237TIP3   OH215674   6.048   4.478   1.580  0.2123 -0.2055 -0.3464
 5237TIP3    H115675   6.136   4.500   1.611 -0.5758  1.6555  0.7293
 5237TIP3    H215676   6.018   4.556   1.534 -1.1534 -0.5236 -0.0441
 5238TIP3   OH215677   2.603   0.331   4.884 -0.1288  0.1311  0.5657
 5238TIP3    H115678   2.695   0.304   4.885  0.0530  0.5960 -0.6902
 5238TIP3    H215679   2.593   0.375   4.799 -0.9829  1.9732  1.5706
 5239TIP3   OH215680   0.033   0.588   3.180  0.0906  0.1883 -0.3155
 5239TIP3    H115681  -0.011   0.612   3.099  0.3943  0.1263 -0.4995
 5239TIP3    H215682   0.126   0.583   3.157  0.1859  0.2425  0.0525
 5240TIP3   OH215683   6.294   1.572   4.452  0.4659 -0.1482  0.1816
 5240TIP3    H115684   6.365   1.619   4.497  0.7311 -0.1373 -0.2401
 5240TIP3    H215685   6.214   1.619   4.477  0.6973  0.3471  0.0096
 5241TIP3   OH215686   2.676   4.528   2.387  0.3793  0.2576  0.6248
 5241TIP3    H115687   2.600   4.469   2.387 -0.0081  0.6572 -1.8209
 5241TIP3    H215688   2.744   4.480   2.339  0.4689  1.2567 -0.2915
 5242TIP3   OH215689   3.962   2.913   2.851 -0.4039 -0.5594 -0.3087
 5242TIP3    H115690   3.938   2.820   2.849 -0.2992 -0.6703  1.7474
 5242TIP3    H215691   3.902   2.954   2.789 -0.7377 -1.9371 -0.9347
 5243TIP3   OH215692   0.925   4.009   1.502 -0.2328 -0.1334  0.2084
 5243TIP3    H115693   0.848   4.066   1.497  0.1372  0.3975  0.5486
 5243TIP3    H215694   0.932   3.971   1.415 -0.3555  0.4992 -0.0839
 5244TIP3   OH215695   6.791   5.082   0.283  0.0193  0.2350  0.6840
 5244TIP3    H115696   6.705   5.039   0.288  0.3872 -1.2782 -2.9141
 5244TIP3    H215697   6.848   5.028   0.338 -0.6921 -0.6198  0.6036
 5245TIP3   OH215698   4.520   2.254   3.539  0.8238  0.0081  0.6937
 5245TIP3    H115699   4.610   2.255   3.507  2.0951 -1.3210  3.8391
 5245TIP3    H215700   4.506   2.165   3.571 -1.3931  0.3565  0.8458
 5246TIP3   OH215701   3.901   0.685   3.260 -0.3924  0.4027 -0.6066
 5246TIP3    H115702   3.986   0.727   3.246 -0.5306  1.8053  2.1912
 5246TIP3    H215703   3.842   0.731   3.200  0.3108  1.2066 -0.7049
 5247TIP3   OH215704   1.993   0.773   2.814  0.5479 -0.0853  0.2899
 5247TIP3    H115705   2.086   0.773   2.837  0.8787 -1.4869 -0.8726
 5247TIP3    H215706   1.984   0.702   2.750 -0.6500  2.3343 -2.4248
 5248TIP3   OH215707   5.566   4.594   5.703  0.5937  0.0189 -0.5402
 5248TIP3    H115708   5.557   4.503   5.732 -0.9755 -0.6017 -2.6864
 5248TIP3    H215709   5.481   4.633   5.721  0.8214  0.6724 -0.8526
 5249TIP3   OH215710   6.687   1.661   5.093  0.0251  0.5089 -0.0151
 5249TIP3    H115711   6.765   1.687   5.043  0.4040  1.1214  0.8780
 5249TIP3    H215712   6.719   1.597   5.157 -1.0050 -3.0521 -2.6932
 5250TIP3   OH215713   1.319   1.205   5.782  0.1385  0.0261  0.0749
 5250TIP3    H115714   1.378   1.278   5.763 -1.1666  1.1363  0.1120
 5250TIP3    H215715   1.297   1.168   5.697 -0.6519  0.8959 -0.1227
 5251TIP3   OH215716   5.153   5.154   1.370  0.3150 -0.7125  0.0949
 5251TIP3    H115717   5.181   5.132   1.459  0.6416  1.4489  0.5952
 5251TIP3    H215718   5.070   5.108   1.358 -0.2529 -0.2262  1.9291
 5252TIP3   OH215719   0.174   5.263   3.645 -0.6853  0.7769  0.0414
 5252TIP3    H115720   0.190   5.327   3.714 -1.1097  0.6100  0.2993
 5252TIP3    H215721   0.135   5.188   3.690  0.4851  0.0233 -0.1311
 5253TIP3   OH215722   3.192   3.098   5.535  0.2682 -0.4331  0.2619
 5253TIP3    H115723   3.226   3.018   5.574 -0.1972 -0.5107  0.5128
 5253TIP3    H215724   3.255   3.166   5.560  1.3263 -0.9228 -0.9755
 5254TIP3   OH215725   0.332   6.654   4.668 -0.5854 -0.7671 -0.7142
 5254TIP3    H115726   0.295   6.700   4.744  1.0531 -0.5683  0.0030
 5254TIP3    H215727   0.337   6.720   4.600 -0.9018 -0.6227 -0.6002
 5255TIP3   OH215728   4.992   0.505   5.403 -0.3733 -0.3822  0.6027
 5255TIP3    H115729   4.998   0.592   5.441 -0.9100 -0.5067  0.9750
 5255TIP3    H215730   4.944   0.453   5.467  2.4096 -1.7421  1.7937
 5256TIP3   OH215731   1.039   4.223   0.777 -0.1895 -0.2255 -0.1965
 5256TIP3    H115732   1.032   4.226   0.682  0.9764 -0.4943 -0.3060
 5256TIP3    H215733   0.989   4.299   0.808  0.9701  0.9675 -1.1250
 5257TIP3   OH215734   2.988   5.915   5.107 -0.6458 -0.5676 -0.3157
 5257TIP3    H115735   2.955   6.004   5.117  1.5276  0.6034 -2.4036
 5257TIP3    H215736   2.938   5.879   5.034 -1.1274 -0.8606  0.1550
 5258TIP3   OH215737   5.217   0.567   0.687  0.2103  0.2620  0.0492
 5258TIP3    H115738   5.266   0.487   0.704 -0.9650 -1.5179 -3.6622
 5258TIP3    H215739   5.170   0.585   0.768 -0.1894 -3.3906  0.7835
 5259TIP3   OH215740   0.450   1.235   0.756 -0.1459  0.5456 -0.5624
 5259TIP3    H115741   0.478   1.195   0.674 -1.0116 -0.5708 -0.3569
 5259TIP3    H215742   0.502   1.314   0.764  1.7564 -0.6107 -0.9461
 5260TIP3   OH215743   2.422   3.384   4.756  0.1408 -0.4706 -0.1719
 5260TIP3    H115744   2.429   3.455   4.692  0.7122  0.2776  0.6988
 5260TIP3    H215745   2.503   3.390   4.807 -0.1828 -1.2342  0.4472
 5261TIP3   OH215746   3.674   5.812   5.494 -0.4728 -0.2365 -0.0912
 5261TIP3    H115747   3.652   5.776   5.408  1.6347  1.9924 -1.6939
 5261TIP3    H215748   3.768   5.830   5.490 -0.6950  1.8821  1.9080
 5262TIP3   OH215749   5.470   1.784   4.198 -0.1079  0.0264  0.7936
 5262TIP3    H115750   5.438   1.839   4.126 -1.0078 -0.7729  0.5670
 5262TIP3    H215751   5.409   1.799   4.270 -1.8420 -2.4441 -0.0439
 5263TIP3   OH215752   1.452   5.320   2.706 -0.1048 -0.4182 -0.4052
 5263TIP3    H115753   1.479   5.231   2.730 -1.5688 -1.2618 -1.6808
 5263TIP3    H215754   1.534   5.365   2.686  0.6560 -1.5239  0.1037
 5264TIP3   OH215755   2.510   2.808   3.359 -0.5815 -0.1264  1.2289
 5264TIP3    H115756   2.487   2.865   3.433  1.6917  1.7549  0.5991
 5264TIP3    H215757   2.459   2.842   3.286  1.3761  1.7539  0.6583
 5265TIP3   OH215758   2.536   5.522   0.061  0.1411 -0.3206  0.5066
 5265TIP3    H115759   2.554   5.494   0.151  0.3566 -1.0437  0.2450
 5265TIP3    H215760   2.491   5.606   0.070  1.1830  0.1722  1.2619
 5266TIP3   OH215761   2.932   0.358   0.694 -0.0793 -0.7030  0.3045
 5266TIP3    H115762   3.011   0.305   0.687  0.7201  0.6352 -1.4270
 5266TIP3    H215763   2.860   0.296   0.679  0.7184 -1.6024  0.1096
 5267TIP3   OH215764   3.695   0.431   3.256 -0.7300 -0.8566 -0.3614
 5267TIP3    H115765   3.635   0.447   3.183 -0.8195  1.9318  0.1948
 5267TIP3    H215766   3.768   0.490   3.240 -0.3117 -0.8738  1.2936
 5268TIP3   OH215767   2.718   5.286   4.232 -0.2473 -0.1747  0.0608
 5268TIP3    H115768   2.745   5.219   4.171 -1.3159 -0.0608 -0.5728
 5268TIP3    H215769   2.795   5.342   4.244  0.2630 -0.7810 -0.3816
 5269TIP3   OH215770   1.809   1.993   1.676  0.2232 -0.0991 -0.1650
 5269TIP3    H115771   1.848   2.042   1.603  0.5692 -0.4472 -0.2202
 5269TIP3    H215772   1.873   1.999   1.746  0.1492 -0.2481 -0.0836
 5270TIP3   OH215773   3.457   4.681   0.929  0.4049 -0.0193  0.2187
 5270TIP3    H115774   3.478   4.636   1.011 -1.4257 -2.8771 -0.6997
 5270TIP3    H215775   3.540   4.686   0.882  0.9764 -0.9911  1.0761
 5271TIP3   OH215776   1.784   2.801   1.724 -0.3391  0.1493  0.0419
 5271TIP3    H115777   1.773   2.857   1.800 -2.0506  0.5953 -0.4925
 5271TIP3    H215778   1.801   2.862   1.652  0.9523 -0.2461 -0.0121
 5272TIP3   OH215779   4.755   1.809   4.720  0.1082  0.4018 -0.0154
 5272TIP3    H115780   4.763   1.777   4.810  0.5628  2.3967  0.7131
 5272TIP3    H215781   4.842   1.843   4.699 -0.1585  0.5044 -0.9864
 5273TIP3   OH215782   6.061   1.587   0.425  0.1379  0.3409  0.6029
 5273TIP3    H115783   6.004   1.579   0.349  0.3979 -1.9264  0.5851
 5273TIP3    H215784   6.092   1.678   0.422 -0.0810  0.4033 -1.8361
 5274TIP3   OH215785   1.932   4.395   4.195  0.1315  0.1629 -0.6933
 5274TIP3    H115786   1.960   4.450   4.122 -0.4274 -0.2203 -1.2101
 5274TIP3    H215787   1.936   4.452   4.272  1.4927  0.3439 -0.8897
 5275TIP3   OH215788   2.280   1.285   1.142  0.2017  0.1155  0.1418
 5275TIP3    H115789   2.275   1.289   1.046 -1.3072  0.5378  0.2176
 5275TIP3    H215790   2.190   1.295   1.171  0.3793 -1.9359  1.5712
 5276TIP3   OH215791   5.570   2.355   3.528 -0.4126  0.1470 -0.6184
 5276TIP3    H115792   5.566   2.272   3.575  1.9443 -0.0927 -0.7049
 5276TIP3    H215793   5.620   2.334   3.449  0.0017  1.5892 -0.7597
 5277TIP3   OH215794   4.113   5.262   2.694  0.3445 -0.4554 -0.7080
 5277TIP3    H115795   4.187   5.256   2.633  0.0203 -0.5820 -1.0937
 5277TIP3    H215796   4.120   5.183   2.747  0.3914 -0.5479 -0.8512
 5278TIP3   OH215797   3.324   3.705   4.938 -0.0129 -0.0678  0.1377
 5278TIP3    H115798   3.312   3.642   4.867 -0.9695  0.1909  0.0595
 5278TIP3    H215799   3.391   3.666   4.994  0.4890 -0.4454 -0.7059
 5279TIP3   OH215800   4.859   0.857   2.043 -0.0052 -0.3239  0.0650
 5279TIP3    H115801   4.916   0.851   2.120 -0.0763  0.8778  0.2296
 5279TIP3    H215802   4.779   0.811   2.068 -0.6951  1.4482  1.3639
 5280TIP3   OH215803   4.474   1.793   4.769 -0.0823 -0.6169  0.7729
 5280TIP3    H115804   4.470   1.803   4.674 -1.7746 -0.3796  0.8383
 5280TIP3    H215805   4.556   1.835   4.795  1.0684 -1.8237 -0.6920
 5281TIP3   OH215806   0.167   0.506   1.131  0.1245 -0.0592  0.3855
 5281TIP3    H115807   0.245   0.541   1.175  0.2495 -1.2857  1.1914
 5281TIP3    H215808   0.105   0.491   1.202 -0.1362 -0.8989 -0.0171
 5282TIP3   OH215809   6.219   6.065   1.503  0.0450 -0.0334  0.5445
 5282TIP3    H115810   6.241   6.118   1.580  0.9528 -0.5178  0.6308
 5282TIP3    H215811   6.293   6.005   1.494 -0.4651 -0.5558 -0.1989
 5283TIP3   OH215812   5.019   3.255   2.083  0.2166 -0.2183  0.8788
 5283TIP3    H115813   4.925   3.268   2.076  0.4267  0.8803 -0.3351
 5283TIP3    H215814   5.043   3.295   2.167 -0.5821 -1.9352  1.9829
 5284TIP3   OH215815   5.554   6.386   4.578  0.0820 -0.3203  0.3067
 5284TIP3    H115816   5.569   6.424   4.491 -0.3138  0.5158  0.5943
 5284TIP3    H215817   5.622   6.424   4.633  0.2134 -0.6981  0.4054
 5285TIP3   OH215818   5.833   2.081   4.946  0.0284 -0.5329  0.2337
 5285TIP3    H115819   5.865   1.991   4.955  0.2887 -0.3800  0.9415
 5285TIP3    H215820   5.912   2.135   4.948 -0.1948 -0.2130  1.0562
 5286TIP3   OH215821   5.323   2.464   3.565  0.2552 -0.5669  0.1847
 5286TIP3    H115822   5.317   2.534   3.499  1.3074 -2.3499 -1.9235
 5286TIP3    H215823   5.413   2.434   3.560 -0.3132 -2.4929  0.5622
 5287TIP3   OH215824   0.096   1.689   4.645  0.0212 -0.4834  0.1892
 5287TIP3    H115825   0.168   1.626   4.642 -0.2322 -0.7536 -2.3712
 5287TIP3    H215826   0.018   1.639   4.620 -0.7158  0.2602  0.9116
 5288TIP3   OH215827   0.912   3.084   1.324 -0.8142  0.2810 -0.1116
 5288TIP3    H115828   0.955   3.120   1.402 -0.9611  0.1202  0.0439
 5288TIP3    H215829   0.844   3.148   1.303 -1.8801 -0.4883  0.8861
 5289TIP3   OH215830   3.032   2.077   1.977 -0.0026  0.3467  0.0393
 5289TIP3    H115831   3.011   2.023   1.901  0.5025 -1.4142  1.0912
 5289TIP3    H215832   2.992   2.032   2.051 -0.8111  2.2284  0.8249
 5290TIP3   OH215833   4.322   2.588   5.258 -0.1140 -0.1769  0.0572
 5290TIP3    H115834   4.409   2.566   5.225 -0.5756  0.4080 -1.6662
 5290TIP3    H215835   4.276   2.623   5.181 -2.1876 -1.3943  0.6922
 5291TIP3   OH215836   7.066   5.370   1.383  0.1550 -0.3681 -0.1203
 5291TIP3    H115837   7.118   5.448   1.364 -0.4820 -0.0761 -0.7106
 5291TIP3    H215838   7.009   5.396   1.455 -0.3654 -0.1481 -0.6108
 5292TIP3   OH215839   2.296   0.839   0.239 -0.4246  0.2193 -0.0078
 5292TIP3    H115840   2.253   0.924   0.251  1.5807  1.2947 -0.0185
 5292TIP3    H215841   2.240   0.777   0.286 -1.7400  1.6013  0.3161
 5293TIP3   OH215842   3.733   1.387   2.928 -0.4683  0.4007 -0.0479
 5293TIP3    H115843   3.757   1.480   2.923 -0.8125  0.4893 -0.0784
 5293TIP3    H215844   3.667   1.376   2.859  0.7106 -0.2226 -1.1363
 5294TIP3   OH215845   2.665   0.475   3.178  0.2052  0.3457  0.0997
 5294TIP3    H115846   2.699   0.553   3.221 -0.6478  1.1318 -0.6120
 5294TIP3    H215847   2.742   0.432   3.141  1.0204 -0.5551  2.6667
 5295TIP3   OH215848   6.479   3.581   3.309  0.0789 -0.4471  0.2167
 5295TIP3    H115849   6.475   3.649   3.242  0.0436  0.9964  1.6077
 5295TIP3    H215850   6.569   3.585   3.341 -0.4912  0.5327  1.8256
 5296TIP3   OH215851   4.911   0.256   4.866  0.1538 -0.5489 -0.0199
 5296TIP3    H115852   4.988   0.253   4.808  0.0572 -0.2120 -0.1647
 5296TIP3    H215853   4.909   0.346   4.899 -1.2998  0.0140 -1.5340
 5297TIP3   OH215854   4.191   2.758   2.095  0.7668  0.0025  0.4592
 5297TIP3    H115855   4.177   2.674   2.139  1.9211 -1.0938 -1.1642
 5297TIP3    H215856   4.178   2.740   2.002  1.8498  1.4206 -0.0156
 5298TIP3   OH215857   2.586   6.558   5.304  0.7208 -0.6684 -0.0727
 5298TIP3    H115858   2.653   6.508   5.351  0.7602 -1.3120 -0.8056
 5298TIP3    H215859   2.589   6.525   5.214  0.4186  0.3234 -0.4564
 5299TIP3   OH215860   0.436   6.337   0.824 -0.6105 -0.0401  0.5422
 5299TIP3    H115861   0.354   6.379   0.800  0.0178  0.7046 -0.3531
 5299TIP3    H215862   0.488   6.407   0.864  0.1454 -0.1313 -0.2458
 5300TIP3   OH215863   1.585   4.820   4.364 -0.3908  0.0869 -0.5451
 5300TIP3    H115864   1.671   4.785   4.340 -0.1562 -0.4250  0.9749
 5300TIP3    H215865   1.528   4.743   4.362 -0.8622  0.4480 -1.6788
 5301TIP3   OH215866   6.172   3.704   5.520  0.3598  0.4533  0.2069
 5301TIP3    H115867   6.093   3.651   5.511  0.4057  0.6173 -1.3358
 5301TIP3    H215868   6.145   3.793   5.496  0.7878  0.7159  0.6608
 5302TIP3   OH215869   5.180   3.618   0.328 -0.2568  0.3926 -0.5587
 5302TIP3    H115870   5.094   3.577   0.340  0.5574 -1.1759  0.3151
 5302TIP3    H215871   5.230   3.554   0.277  0.6160  0.9513 -0.4295
 5303TIP3   OH215872   3.007   4.645   5.121  0.0997 -0.0577  0.2301
 5303TIP3    H115873   2.974   4.606   5.040 -1.2870 -0.3815  0.9220
 5303TIP3    H215874   3.032   4.734   5.096  1.5732 -0.7596 -0.9622
 5304TIP3   OH215875   3.023   3.332   0.233  0.0805 -0.2538 -0.3729
 5304TIP3    H115876   2.968   3.256   0.215  0.8264 -0.5703 -1.4681
 5304TIP3    H215877   3.011   3.388   0.157  1.4235 -0.4388 -0.7463
 5305TIP3   OH215878   4.185   6.668   2.564 -0.4960  0.5773 -0.1148
 5305TIP3    H115879   4.242   6.617   2.622 -1.8904 -0.5125  0.3573
 5305TIP3    H215880   4.218   6.649   2.476 -0.1759 -0.1017  0.1447
 5306TIP3   OH215881   4.525   6.104   0.315  0.2354  0.0131 -0.4938
 5306TIP3    H115882   4.605   6.155   0.309  0.1241  0.1115 -1.1936
 5306TIP3    H215883   4.478   6.142   0.389  1.5648 -1.1026  0.9904
 5307TIP3   OH215884   0.779   6.147   5.860  0.3727 -0.3066 -0.3651
 5307TIP3    H115885   0.691   6.111   5.858  1.0229 -1.9704 -0.8347
 5307TIP3    H215886   0.809   6.143   5.769 -0.5071  4.2194 -1.1134
 5308TIP3   OH215887   2.390   4.302   0.506  0.0484  0.4662  0.1954
 5308TIP3    H115888   2.453   4.273   0.571 -0.6405  0.9502  1.1094
 5308TIP3    H215889   2.443   4.331   0.432  0.8076 -1.1593  0.0709
 5309TIP3   OH215890   5.182   5.192   3.310 -0.1280  0.3124 -0.4118
 5309TIP3    H115891   5.113   5.129   3.288 -0.1202  0.1698 -0.0332
 5309TIP3    H215892   5.236   5.196   3.231  0.4882 -0.9585 -0.0713
 5310TIP3   OH215893   3.610   2.704   2.890 -0.1794  0.0336  0.3292
 5310TIP3    H115894   3.605   2.736   2.800  1.6682  0.4069  0.3315
 5310TIP3    H215895   3.606   2.783   2.944  0.0178 -0.0848  0.5180
 5311TIP3   OH215896   4.751   2.623   1.611 -0.4792  0.2393  0.4605
 5311TIP3    H115897   4.781   2.633   1.701  1.7377  0.3033 -0.2222
 5311TIP3    H215898   4.657   2.638   1.615 -0.4265  0.2624  2.7497
 5312TIP3   OH215899   0.610   5.993   3.665  0.7490  0.0804 -0.4075
 5312TIP3    H115900   0.659   6.073   3.684  1.5459 -0.5387  0.2217
 5312TIP3    H215901   0.620   5.939   3.744 -0.7155 -0.1891 -0.3788
 5313TIP3   OH215902   6.849   2.260   4.131 -0.3184 -0.0783 -0.7568
 5313TIP3    H115903   6.863   2.243   4.037  0.2839 -0.6182 -0.5811
 5313TIP3    H215904   6.837   2.354   4.137 -0.7466 -0.0858 -1.4294
 5314TIP3   OH215905   2.431   1.552   2.762 -0.4514 -0.0190  0.2137
 5314TIP3    H115906   2.336   1.544   2.774 -0.5448 -2.0846 -1.3977
 5314TIP3    H215907   2.445   1.531   2.670  1.7807 -2.1830  0.9616
 5315TIP3   OH215908   1.117   4.597   3.974  0.5130 -0.3485  0.2772
 5315TIP3    H115909   1.039   4.556   3.936  0.7266 -0.3709 -0.1425
 5315TIP3    H215910   1.190   4.560   3.924  0.6228  1.9029 -1.4210
 5316TIP3   OH215911   5.507   0.564   2.504 -0.0803 -1.2727  0.4239
 5316TIP3    H115912   5.510   0.488   2.446 -0.8974 -1.4151  0.5540
 5316TIP3    H215913   5.458   0.533   2.581 -0.5500 -0.5816  0.4113
 5317TIP3   OH215914   2.317   4.057   0.689 -0.1906  0.2171 -0.1430
 5317TIP3    H115915   2.344   3.965   0.678 -0.3495  0.0185  0.9904
 5317TIP3    H215916   2.253   4.071   0.619  0.2045 -0.3850 -0.6418
 5318TIP3   OH215917   2.782   3.586   0.650 -0.9402  0.0279 -0.3912
 5318TIP3    H115918   2.817   3.675   0.644 -2.3814  0.6262 -0.3459
 5318TIP3    H215919   2.851   3.531   0.613  0.6747  0.9498  1.0449
 5319TIP3   OH215920   3.427   1.267   4.601 -0.2929 -0.1186 -0.9898
 5319TIP3    H115921   3.376   1.194   4.565  0.2715 -0.2633 -1.5335
 5319TIP3    H215922   3.375   1.345   4.583  0.0462 -0.1691 -2.3002
 5320TIP3   OH215923   1.946   5.747   0.321  0.2194  0.2170  0.1786
 5320TIP3    H115924   1.954   5.660   0.361  0.6955  0.7446  1.2589
 5320TIP3    H215925   1.856   5.750   0.288  0.3372 -0.8493 -0.2749
 5321TIP3   OH215926   6.461   6.754   5.801 -0.2273 -0.1896 -0.3167
 5321TIP3    H115927   6.445   6.661   5.781  1.6228 -0.7206  0.4572
 5321TIP3    H215928   6.398   6.801   5.746 -1.9650 -1.9156  0.0760
 5322TIP3   OH215929   3.313   4.521   5.809 -0.1579 -0.3814  0.3792
 5322TIP3    H115930   3.362   4.530   5.891  0.6874  0.5084 -0.2078
 5322TIP3    H215931   3.325   4.429   5.784 -0.8378 -0.7941  1.4932
 5323TIP3   OH215932   4.789   5.294   5.220  0.6012 -0.4567  0.0403
 5323TIP3    H115933   4.762   5.296   5.311  1.4713  0.2332  0.3001
 5323TIP3    H215934   4.884   5.282   5.223  0.6168 -0.6102 -0.7750
 5324TIP3   OH215935   3.244   2.747   1.143  0.3730 -0.0561 -0.1239
 5324TIP3    H115936   3.326   2.759   1.190  0.5201  0.4068 -0.4871
 5324TIP3    H215937   3.199   2.677   1.190  0.2124  0.8365  1.1090
 5325TIP3   OH215938   1.999   2.292   2.038  0.2324  0.5314 -0.0960
 5325TIP3    H115939   2.002   2.312   2.132 -0.5740 -1.3348  0.3769
 5325TIP3    H215940   1.912   2.318   2.011 -1.4695 -3.4043  0.9018
 5326TIP3   OH215941   6.786   1.895   0.422  0.4219  0.5681 -0.5884
 5326TIP3    H115942   6.805   1.803   0.438  1.2154  0.6611 -0.9314
 5326TIP3    H215943   6.819   1.940   0.500 -0.1268  0.5520 -0.3408
 5327TIP3   OH215944   6.017   2.089   4.311  0.3637 -0.5200  0.0041
 5327TIP3    H115945   6.107   2.104   4.282  0.3251  1.4722  0.7469
 5327TIP3    H215946   5.966   2.153   4.261 -0.5468 -1.1338  0.1270
 5328TIP3   OH215947   2.343   2.321   5.826  0.5771 -0.0922 -0.5599
 5328TIP3    H115948   2.353   2.306   5.920 -0.7086  3.1290  0.2267
 5328TIP3    H215949   2.429   2.302   5.789  0.7560 -2.7688  0.9487
 5329TIP3   OH215950   3.454   0.902   1.137  0.1350 -0.1003  0.3386
 5329TIP3    H115951   3.422   0.863   1.218 -1.5065  0.6816  0.1255
 5329TIP3    H215952   3.384   0.886   1.074  0.0440  1.8552 -0.1287
 5330TIP3   OH215953   2.438   1.166   4.604 -0.0174  0.3788 -0.0538
 5330TIP3    H115954   2.420   1.077   4.633 -2.5638  0.6799 -0.4510
 5330TIP3    H215955   2.456   1.158   4.511 -2.7175  0.4102 -0.6758
 5331TIP3   OH215956   6.329   2.692   1.142 -0.0097  0.0417  0.2030
 5331TIP3    H115957   6.326   2.680   1.237  0.0133 -0.0329  0.1947
 5331TIP3    H215958   6.238   2.681   1.114 -0.0575  0.3199  0.2460
 5332TIP3   OH215959   4.722   4.695   5.144  0.3901 -0.0299 -0.9332
 5332TIP3    H115960   4.780   4.621   5.161  0.8619  0.6802  0.7510
 5332TIP3    H215961   4.642   4.656   5.110  0.9997 -1.2093 -1.0587
 5333TIP3   OH215962   0.976   0.498   1.112  0.5288  0.0050  0.4397
 5333TIP3    H115963   0.936   0.412   1.120 -0.8941  0.8124  4.1761
 5333TIP3    H215964   0.910   0.559   1.147  1.4968  2.6621 -1.9637
 5334TIP3   OH215965   0.945   5.458   5.130  0.2541  0.0346  0.1664
 5334TIP3    H115966   0.908   5.369   5.128  0.2532  0.0364 -1.7415
 5334TIP3    H215967   0.881   5.509   5.178 -1.5364 -0.3114 -1.6813
 5335TIP3   OH215968   1.193   5.056   2.810  0.0263  0.5271 -0.3375
 5335TIP3    H115969   1.128   5.017   2.751  0.7951  0.9152 -1.4870
 5335TIP3    H215970   1.142   5.102   2.876 -0.8705 -0.0562 -0.6194
 5336TIP3   OH215971   2.208   3.339   1.473  0.0051 -0.2579 -0.1989
 5336TIP3    H115972   2.302   3.327   1.461 -0.0546 -1.3591  0.3725
 5336TIP3    H215973   2.196   3.434   1.477  0.8519 -0.0370 -2.0622
 5337TIP3   OH215974   3.274   4.232   1.330 -0.2450 -0.4869 -0.0664
 5337TIP3    H115975   3.264   4.207   1.238  0.3586 -0.9530 -0.0111
 5337TIP3    H215976   3.369   4.242   1.343 -0.1929 -1.8601  0.8633
 5338TIP3   OH215977   0.421   2.302   3.510  0.1697  0.2417  0.3085
 5338TIP3    H115978   0.352   2.254   3.466  1.0395 -0.5012 -0.2880
 5338TIP3    H215979   0.502   2.261   3.480  0.8153 -0.4477  2.7757
 5339TIP3   OH215980   2.334   6.195   5.630 -0.0749 -0.1119  0.1648
 5339TIP3    H115981   2.416   6.148   5.612 -0.6244 -1.2354  0.4758
 5339TIP3    H215982   2.273   6.126   5.657 -0.7595  0.8701  1.1979
 5340TIP3   OH215983   6.845   1.302   3.011  0.0211  0.3456  0.0589
 5340TIP3    H115984   6.791   1.266   3.081 -0.4206 -1.6490 -1.2131
 5340TIP3    H215985   6.933   1.305   3.048 -0.0523 -1.4853  0.4755
 5341TIP3   OH215986   6.598   3.622   2.866  0.1914 -0.4170  0.8516
 5341TIP3    H115987   6.547   3.553   2.823 -2.1010  1.0937  0.9912
 5341TIP3    H215988   6.601   3.596   2.958 -2.2027  0.4626  1.2367
 5342TIP3   OH215989   0.339   2.965   3.438  0.1422  0.4318  0.1035
 5342TIP3    H115990   0.339   2.897   3.370 -1.6878 -0.6094  1.0631
 5342TIP3    H215991   0.401   2.934   3.503 -0.4094 -0.1652  0.3589
 5343TIP3   OH215992   5.071   6.683   0.489  0.0641  0.6703 -0.6081
 5343TIP3    H115993   5.130   6.692   0.415 -0.7894 -0.2298 -1.4213
 5343TIP3    H215994   5.128   6.682   0.566  0.8446  3.8460 -1.0118
 5344TIP3   OH215995   2.179   1.187   3.678  0.3262 -0.3725 -0.0972
 5344TIP3    H115996   2.232   1.175   3.757  1.9839  1.8343 -0.7520
 5344TIP3    H215997   2.239   1.165   3.606  0.0492  1.0781 -0.8189
 5345TIP3   OH215998   0.308   1.874   0.684  0.2853 -1.0899  0.2545
 5345TIP3    H115999   0.246   1.944   0.705  0.0163 -0.6583 -1.7563
 5345TIP3    H216000   0.255   1.805   0.644  0.5060 -2.6227  2.4327
 5346TIP3   OH216001   0.827   6.112   0.458  0.1051 -0.2910  0.3965
 5346TIP3    H116002   0.908   6.163   0.447 -0.6109  0.9105  0.4506
 5346TIP3    H216003   0.822   6.096   0.552 -0.8866  1.7102  0.7355
 5347TIP3   OH216004   6.954   3.460   5.102 -0.2877  0.2202  0.0065
 5347TIP3    H116005   6.876   3.509   5.074 -1.8051 -0.6563  2.3339
 5347TIP3    H216006   6.962   3.480   5.195  1.8402 -0.3590 -0.0074
 5348TIP3   OH216007   1.148   2.829   1.118 -0.0833  0.0403  0.5960
 5348TIP3    H116008   1.056   2.857   1.121 -0.2613 -0.3469 -0.6231
 5348TIP3    H216009   1.154   2.758   1.182 -0.8693 -0.5612  0.0176
 5349TIP3   OH216010   0.792   6.415   1.681  0.5915 -0.0331  0.8962
 5349TIP3    H116011   0.790   6.359   1.604  1.5035  0.9845  0.0998
 5349TIP3    H216012   0.700   6.431   1.702  0.3337 -0.2419 -0.0389
 5350TIP3   OH216013   1.690   5.949   2.279  0.5917  0.5391 -0.4041
 5350TIP3    H116014   1.716   5.933   2.188  1.5099  1.4537 -0.3240
 5350TIP3    H216015   1.773   5.948   2.327 -0.0183 -1.7357  0.7375
 5351TIP3   OH216016   0.874   5.078   3.846  0.1296 -0.9195 -0.0026
 5351TIP3    H116017   0.808   5.133   3.804  0.6052  0.8481  1.4075
 5351TIP3    H216018   0.914   5.028   3.775 -1.9682 -1.2390 -1.0154
 5352TIP3   OH216019   0.606   4.359   5.583  0.0565 -0.7219 -0.2846
 5352TIP3    H116020   0.552   4.332   5.509 -0.0141  0.1297 -0.5579
 5352TIP3    H216021   0.551   4.342   5.660 -0.6663  0.2221 -0.5642
 5353TIP3   OH216022   6.091   1.299   1.212  0.2335  0.3314  0.6834
 5353TIP3    H116023   6.183   1.303   1.240  0.3386 -0.8200  0.5613
 5353TIP3    H216024   6.040   1.314   1.291  0.5230  0.9728  0.7529
 5354TIP3   OH216025   4.930   0.930   1.789  0.2439 -0.4252 -0.2523
 5354TIP3    H116026   4.921   0.898   1.879  0.5060 -2.2628 -0.8506
 5354TIP3    H216027   5.025   0.930   1.773  0.4119  2.2914  0.2519
 5355TIP3   OH216028   1.013   4.536   4.417  0.0990 -0.3468 -0.1283
 5355TIP3    H116029   0.988   4.466   4.357  0.2673 -0.6865  0.1962
 5355TIP3    H216030   1.038   4.608   4.359 -0.9253 -0.2414 -0.4566
 5356TIP3   OH216031   2.559   0.378   3.931  0.2038 -0.3686 -0.0347
 5356TIP3    H116032   2.504   0.423   3.995 -0.4578 -0.6683 -0.3757
 5356TIP3    H216033   2.504   0.306   3.900  0.8468 -0.7498 -0.2894
 5357TIP3   OH216034   4.618   0.002   2.379  0.0092 -0.5814 -0.0875
 5357TIP3    H116035   4.664  -0.055   2.317 -0.1202  0.3807 -1.0885
 5357TIP3    H216036   4.680   0.073   2.395 -0.2390 -0.4665  0.3569
 5358TIP3   OH216037   5.312   3.300   2.921  0.2987  0.0444 -0.0123
 5358TIP3    H116038   5.385   3.333   2.868  0.5733 -3.8838 -2.3936
 5358TIP3    H216039   5.237   3.299   2.861 -0.0011 -2.1635  0.3224
 5359TIP3   OH216040   6.245   1.978   1.671 -0.0494 -0.0954  0.7146
 5359TIP3    H116041   6.307   2.042   1.705 -0.2132 -0.1105  1.0516
 5359TIP3    H216042   6.182   1.966   1.742 -1.5364  1.3438 -0.2808
 5360TIP3   OH216043   4.310   1.274   5.278  0.5627  0.5926 -0.2203
 5360TIP3    H116044   4.317   1.179   5.287 -0.3227  0.6113  0.9822
 5360TIP3    H216045   4.372   1.309   5.342  0.0367  0.8085  0.1773
 5361TIP3   OH216046   6.949   0.642   5.311  0.0729  0.1104  0.2304
 5361TIP3    H116047   6.858   0.615   5.311 -0.9650  2.8134  3.7921
 5361TIP3    H216048   6.994   0.576   5.364 -0.2166 -0.1570  0.1428
 5362TIP3   OH216049   4.398   6.697   1.273 -0.2129 -0.0372  0.0763
 5362TIP3    H116050   4.480   6.724   1.313 -0.9290  2.1669  0.1864
 5362TIP3    H216051   4.415   6.609   1.240  1.5952 -0.3642  1.7216
 5363TIP3   OH216052   0.289   0.057   5.870  0.0154  0.1851 -0.1534
 5363TIP3    H116053   0.210   0.004   5.860 -0.4910  0.6299  1.2728
 5363TIP3    H216054   0.349   0.024   5.803 -1.7730  0.6115 -2.0705
 5364TIP3   OH216055   4.674   2.840   2.592  0.2921  0.3012  0.0639
 5364TIP3    H116056   4.685   2.923   2.639 -1.1580  0.5933 -0.0756
 5364TIP3    H216057   4.621   2.863   2.515 -0.0507 -0.7343 -0.0179
 5365TIP3   OH216058   6.942   5.196   4.743  0.6991  0.1328 -0.3495
 5365TIP3    H116059   6.989   5.113   4.738 -0.4885 -0.6221  0.4618
 5365TIP3    H216060   6.973   5.237   4.824  0.2274 -0.2013  0.0032
 5366TIP3   OH216061   5.419   2.756   1.515 -0.2489  0.0471 -0.4515
 5366TIP3    H116062   5.358   2.693   1.477 -1.4130  1.6362 -1.3814
 5366TIP3    H216063   5.365   2.806   1.576  0.1133  1.3966 -1.1930
 5367TIP3   OH216064   3.489   0.780   5.787  0.2797  0.2649  0.4727
 5367TIP3    H116065   3.424   0.714   5.760  1.8313 -1.2682  0.3315
 5367TIP3    H216066   3.523   0.746   5.870  0.8950  1.0527  0.5449
 5368TIP3   OH216067   1.708   5.148   3.171  0.7943  0.1725  0.1828
 5368TIP3    H116068   1.698   5.054   3.186  0.5826  0.2819  0.7513
 5368TIP3    H216069   1.729   5.184   3.258 -1.3223  0.9460  0.4243
 5369TIP3   OH216070   2.278   4.100   1.124 -0.0144  0.2397 -0.0769
 5369TIP3    H116071   2.279   4.194   1.142  1.1653  0.4769 -1.2186
 5369TIP3    H216072   2.369   4.073   1.135 -0.6169 -1.1355  1.8901
 5370TIP3   OH216073   1.395   4.201   0.758  0.8901 -0.1415 -0.5471
 5370TIP3    H116074   1.371   4.254   0.681 -1.5342  1.2145  0.9992
 5370TIP3    H216075   1.312   4.164   0.788  1.8251 -0.9477  1.1840
 5371TIP3   OH216076   4.490   3.687   1.757 -0.3965 -0.6929  0.8538
 5371TIP3    H116077   4.474   3.613   1.816 -0.8931 -0.0807  1.5064
 5371TIP3    H216078   4.585   3.691   1.749 -0.3919 -2.1928 -0.2288
 5372TIP3   OH216079   3.358   6.053   0.493  0.2387  0.2887 -0.3245
 5372TIP3    H116080   3.299   6.125   0.468  0.2132 -0.2371 -1.9179
 5372TIP3    H216081   3.365   6.000   0.414  2.7130  0.2304 -0.1478
 5373TIP3   OH216082   4.766   3.130   3.084  0.6515  0.0834 -0.7822
 5373TIP3    H116083   4.780   3.208   3.138  1.6393 -1.1403  0.7861
 5373TIP3    H216084   4.749   3.165   2.996 -1.1869  2.1510  0.2908
 5374TIP3   OH216085   4.286   3.888   5.732 -0.1503 -0.1138  0.2448
 5374TIP3    H116086   4.360   3.878   5.673 -0.7330  0.1930 -0.5481
 5374TIP3    H216087   4.271   3.982   5.737  0.6759 -0.0239  1.8923
 5375TIP3   OH216088   1.560   5.756   2.810 -0.5703 -0.3469  0.2827
 5375TIP3    H116089   1.590   5.781   2.723 -1.9779 -0.0732 -0.1467
 5375TIP3    H216090   1.613   5.810   2.869  0.5516 -0.6992 -0.3721
 5376TIP3   OH216091   1.832   2.462   3.909  0.6599 -0.2040  0.5515
 5376TIP3    H116092   1.905   2.523   3.917 -0.7920  1.3997  3.1015
 5376TIP3    H216093   1.755   2.514   3.934 -0.8269 -2.7647  1.7511
 5377TIP3   OH216094   3.240   3.246   2.265  0.0922 -0.1193  0.5874
 5377TIP3    H116095   3.277   3.292   2.339  1.6537 -1.7177  0.8653
 5377TIP3    H216096   3.154   3.286   2.252  0.3498  1.1112  2.3683
 5378TIP3   OH216097  -0.009   6.287   4.196  0.5435  0.5349  0.2530
 5378TIP3    H116098  -0.006   6.221   4.128  0.0587  0.3971  0.3643
 5378TIP3    H216099   0.059   6.260   4.258  0.0258 -0.1242  0.5414
 5379TIP3   OH216100   6.150   1.771   4.579 -0.1874  0.1585 -0.1121
 5379TIP3    H116101   6.093   1.848   4.591  1.2789  1.5386 -1.4770
 5379TIP3    H216102   6.192   1.760   4.664  0.0253  1.2741 -0.0467
 5380TIP3   OH216103   6.120   0.791   4.797 -0.1107  0.0848 -0.7002
 5380TIP3    H116104   6.060   0.817   4.728  0.5575  0.8881 -0.9971
 5380TIP3    H216105   6.081   0.713   4.835 -2.1964  1.4734  0.2029
 5381TIP3   OH216106   0.400   5.371   5.742  0.1909  0.3603 -0.1053
 5381TIP3    H116107   0.435   5.454   5.710  2.7200  0.2866  2.1008
 5381TIP3    H216108   0.409   5.311   5.668  1.2575  1.3294 -0.7964
 5382TIP3   OH216109   3.690   4.786   3.263  0.1071 -0.2374  0.2294
 5382TIP3    H116110   3.702   4.706   3.212  0.3272  0.1944 -0.4137
 5382TIP3    H216111   3.645   4.846   3.203 -1.4956 -0.3914  1.2177
 5383TIP3   OH216112   2.419   6.406   1.878  0.1508 -0.6472 -0.4750
 5383TIP3    H116113   2.505   6.404   1.835  1.6625 -0.7541  2.2628
 5383TIP3    H216114   2.409   6.496   1.909 -1.1461 -0.4329 -1.4406
 5384TIP3   OH216115   0.310   2.124   0.440 -0.0062 -0.3716  0.3223
 5384TIP3    H116116   0.369   2.052   0.416 -0.7740 -0.7340 -0.5154
 5384TIP3    H216117   0.257   2.139   0.362 -1.2815 -0.3053  1.1722
 5385TIP3   OH216118   0.084   2.354   3.248 -0.0144  0.9105  0.6483
 5385TIP3    H116119   0.047   2.307   3.322  0.1210  0.2102  0.2787
 5385TIP3    H216120   0.100   2.287   3.182  2.3798  1.0845  0.9625
 5386TIP3   OH216121   4.396   1.311   0.507  0.2674 -0.1496 -0.7510
 5386TIP3    H116122   4.440   1.396   0.507  1.1970 -0.6044 -1.4737
 5386TIP3    H216123   4.309   1.329   0.543  0.1458  1.2713 -1.6604
 5387TIP3   OH216124   3.562   3.959   0.442  0.4568  0.4592  0.0586
 5387TIP3    H116125   3.650   3.923   0.442  1.1436  2.0430  1.4247
 5387TIP3    H216126   3.508   3.891   0.482  1.2398 -0.0889  0.2045
 5388TIP3   OH216127   3.336   2.176   1.946  1.0186  0.3528 -0.6036
 5388TIP3    H116128   3.329   2.257   1.896 -0.0871  2.2664  2.3796
 5388TIP3    H216129   3.245   2.146   1.955  1.0893  0.4967  0.8069
 5389TIP3   OH216130   7.046   5.533   2.053  0.3348 -0.0953  0.0668
 5389TIP3    H116131   7.095   5.474   1.996  0.3661 -0.4002  0.4041
 5389TIP3    H216132   7.099   5.540   2.132 -0.6093 -1.2089  0.8457
 5390TIP3   OH216133   5.120   1.267   1.887 -0.2438 -0.5363 -0.3646
 5390TIP3    H116134   5.166   1.203   1.941  1.2643 -0.6147 -1.6380
 5390TIP3    H216135   5.028   1.241   1.890 -0.1349 -0.7974  1.7318
 5391TIP3   OH216136   6.462   1.525   4.816 -0.5590 -0.3686  0.1131
 5391TIP3    H116137   6.445   1.568   4.900  0.0997  0.1487 -0.0141
 5391TIP3    H216138   6.419   1.582   4.752 -0.6276 -0.4933  0.0482
 5392TIP3   OH216139   4.113   1.449   1.220  0.3530  0.3626 -0.5520
 5392TIP3    H116140   4.023   1.481   1.215 -0.1390 -0.7953  0.4653
 5392TIP3    H216141   4.105   1.358   1.247  1.8589  0.4431  0.3004
 5393TIP3   OH216142   6.833   5.868   3.093 -0.3635 -0.5667 -0.1713
 5393TIP3    H116143   6.900   5.934   3.075 -0.1083 -0.7211  0.2009
 5393TIP3    H216144   6.803   5.840   3.006 -3.0229  2.5380 -0.4778
 5394TIP3   OH216145   5.785   1.626   3.916  0.5519  0.0676 -0.6978
 5394TIP3    H116146   5.840   1.666   3.984 -0.3954 -0.7501  0.6078
 5394TIP3    H216147   5.830   1.544   3.894 -0.0939 -0.6064  0.3772
 5395TIP3   OH216148  -0.006   4.583   5.314 -0.3027 -0.2142  0.5327
 5395TIP3    H116149  -0.061   4.626   5.380 -0.2430 -1.8074  1.6839
 5395TIP3    H216150   0.084   4.597   5.344 -0.2340 -0.1945  0.3198
 5396TIP3   OH216151   3.023   0.852   4.833  1.0894  0.0095  0.1742
 5396TIP3    H116152   3.033   0.854   4.928 -1.9400  0.9334  0.5776
 5396TIP3    H216153   2.945   0.799   4.817  0.3202  1.5511 -1.6242
 5397TIP3   OH216154   5.396   2.064   4.928 -1.0228  0.2638  0.4916
 5397TIP3    H116155   5.474   2.010   4.939 -1.8459 -0.5410  3.0174
 5397TIP3    H216156   5.352   2.026   4.851 -0.9514 -1.9589  1.4602
 5398TIP3   OH216157   4.188   3.887   1.546  1.1618 -0.1840 -0.5650
 5398TIP3    H116158   4.280   3.885   1.573  1.4347 -1.8827 -1.4717
 5398TIP3    H216159   4.190   3.861   1.454 -0.2444 -0.3279 -0.5743
 5399TIP3   OH216160   0.968   4.477   2.511  0.6774 -0.2068  0.1744
 5399TIP3    H116161   1.024   4.484   2.433  3.3607 -0.1653  1.9625
 5399TIP3    H216162   0.929   4.390   2.504 -1.1043  0.6706 -2.3334
 5400TIP3   OH216163   2.872   3.359   1.423  0.4801 -0.0286 -0.7914
 5400TIP3    H116164   2.807   3.382   1.489  1.8088  3.0618 -0.3564
 5400TIP3    H216165   2.823   3.313   1.355 -1.8381  0.7381  0.2606
 5401TIP3   OH216166   4.375   3.932   1.910  0.3419 -0.1315  0.1395
 5401TIP3    H116167   4.378   3.853   1.963  1.5254 -0.3361 -0.1972
 5401TIP3    H216168   4.447   3.922   1.847  0.0464  0.8724 -0.3911
 5402TIP3   OH216169   5.198   3.573   1.143  0.3084 -0.6678  0.0582
 5402TIP3    H116170   5.137   3.572   1.070 -0.7465  0.1894  0.8964
 5402TIP3    H216171   5.147   3.607   1.217  1.8673  0.4063  0.7017
 5403TIP3   OH216172   3.727   1.282   1.083  0.6664  0.1842 -0.7496
 5403TIP3    H116173   3.772   1.262   1.000 -1.3549 -0.8761 -1.6664
 5403TIP3    H216174   3.695   1.197   1.114  0.0422  0.7869  0.3124
 5404TIP3   OH216175   1.062   4.219   4.061  0.3256 -0.0883 -0.0149
 5404TIP3    H116176   1.128   4.181   4.003  1.2348 -1.5077  1.8385
 5404TIP3    H216177   1.005   4.269   4.003  1.1833 -1.4052 -2.1023
 5405TIP3   OH216178   2.955   6.202   5.851  0.5819 -0.3560 -0.1247
 5405TIP3    H116179   2.903   6.275   5.884  0.3890 -0.6852  0.3041
 5405TIP3    H216180   2.901   6.125   5.866  1.0047 -0.6503 -0.0821
 5406TIP3   OH216181   3.576   0.461   2.362 -0.5893  0.2956 -0.7624
 5406TIP3    H116182   3.484   0.474   2.384 -0.2215  0.6936  0.6235
 5406TIP3    H216183   3.574   0.417   2.277 -2.0058  2.0803 -1.7178
 5407TIP3   OH216184   0.691   5.883   3.916 -0.3815  0.0228 -0.0146
 5407TIP3    H116185   0.675   5.943   3.990  1.2894 -0.0642  0.4534
 5407TIP3    H216186   0.671   5.796   3.951 -0.5360  0.0743  0.0279
 5408TIP3   OH216187   6.552   3.478   0.502 -0.3490 -0.3653  0.1202
 5408TIP3    H116188   6.485   3.488   0.434 -0.9793 -0.7854  0.6572
 5408TIP3    H216189   6.635   3.483   0.456 -0.7324  0.9847 -0.4648
 5409TIP3   OH216190   3.704   6.678   2.170 -0.4430 -0.2415  0.1314
 5409TIP3    H116191   3.725   6.611   2.105 -0.0566 -0.5026  0.5283
 5409TIP3    H216192   3.609   6.669   2.183 -0.1000 -2.0656  1.6749
 5410TIP3   OH216193   1.570   5.360   3.051 -0.5919  0.2644  0.3701
 5410TIP3    H116194   1.637   5.298   3.080  1.1414  1.9005  0.1140
 5410TIP3    H216195   1.600   5.388   2.964  0.0760  3.1929  1.4205
 5411TIP3   OH216196   3.007   2.748   2.357 -0.1732  0.5190  0.1356
 5411TIP3    H116197   3.018   2.833   2.399 -0.7897 -0.0003  1.4142
 5411TIP3    H216198   3.002   2.686   2.430 -1.3082 -0.4208 -0.6906
 5412TIP3   OH216199   1.891   6.105   4.263 -0.7132  0.1904  0.5024
 5412TIP3    H116200   1.952   6.042   4.225 -0.0114  1.2949 -0.2738
 5412TIP3    H216201   1.854   6.060   4.339  0.5664 -0.7561  0.5969
 5413TIP3   OH216202   1.497   0.703   3.482  0.4162  0.0994  0.1943
 5413TIP3    H116203   1.505   0.728   3.390 -0.6039 -0.3181 -0.0201
 5413TIP3    H216204   1.407   0.671   3.490 -0.4515  2.6425  1.9216
 5414TIP3   OH216205   6.674   0.606   5.282  0.1839 -0.4530  0.2724
 5414TIP3    H116206   6.625   0.615   5.200  1.1552 -0.5469 -0.3323
 5414TIP3    H216207   6.612   0.565   5.343 -0.8933  0.6136 -0.0801
 5415TIP3   OH216208   5.396   0.959   1.283 -0.4665  0.0177 -0.2375
 5415TIP3    H116209   5.491   0.947   1.275 -0.4672 -0.0923 -0.0870
 5415TIP3    H216210   5.369   0.893   1.347 -0.5115  0.6807  0.4279
 5416TIP3   OH216211   1.619   0.013   4.972 -0.7228  0.0268 -0.6222
 5416TIP3    H116212   1.701   0.060   4.962  1.0328 -2.5897  0.3087
 5416TIP3    H216213   1.551   0.079   4.958  1.5026  2.6319  0.0312
 5417TIP3   OH216214   2.465   4.414   4.531  0.0496  0.3312  0.3548
 5417TIP3    H116215   2.396   4.454   4.478  0.0495 -1.7004 -1.3075
 5417TIP3    H216216   2.546   4.451   4.497 -0.0024 -0.3541 -0.5426
 5418TIP3   OH216217   1.879   3.128   1.591  0.2445  0.1459  0.5302
 5418TIP3    H116218   1.931   3.057   1.554  0.6341  0.2287  0.9065
 5418TIP3    H216219   1.788   3.102   1.576  0.3880  0.2883 -0.6739
 5419TIP3   OH216220   6.376   4.916   1.184 -0.2094  0.9469  0.4314
 5419TIP3    H116221   6.288   4.909   1.147  0.1231  0.2138 -0.2574
 5419TIP3    H216222   6.363   4.912   1.279 -0.9152  0.8647  0.3343
 5420TIP3   OH216223   2.933   4.601   4.137 -0.1949 -0.2673 -0.1099
 5420TIP3    H116224   3.001   4.544   4.174  0.0238  0.3487  0.4416
 5420TIP3    H216225   2.851   4.554   4.155 -0.0725 -0.1030  0.9376
 5421TIP3   OH216226   0.327   1.676   2.662 -0.2709  0.9088 -0.3460
 5421TIP3    H116227   0.368   1.727   2.593 -0.9548  1.0501 -0.6613
 5421TIP3    H216228   0.377   1.595   2.665 -0.3039  0.8497 -1.0968
 5422TIP3   OH216229   1.746   3.343   5.050  0.5440  0.2986  0.3226
 5422TIP3    H116230   1.771   3.410   5.114 -1.2027  0.7362  0.5904
 5422TIP3    H216231   1.652   3.335   5.059  0.3449 -0.1869 -1.6739
 5423TIP3   OH216232   1.509   4.573   1.705  0.1394  0.3968  0.2085
 5423TIP3    H116233   1.442   4.549   1.641 -1.3270  1.3449  1.3227
 5423TIP3    H216234   1.557   4.644   1.663  0.1508  0.0257 -0.4212
 5424TIP3   OH216235   0.089   4.693   3.688  0.5024  0.0371 -0.3156
 5424TIP3    H116236   0.028   4.727   3.623  0.5179 -0.3645 -0.5429
 5424TIP3    H216237   0.169   4.673   3.639  1.2901  1.7656  0.1943
 5425TIP3   OH216238   1.422   1.026   1.203  0.3956  0.1947  0.0183
 5425TIP3    H116239   1.399   1.119   1.205  1.0242  0.3898 -1.0521
 5425TIP3    H216240   1.513   1.024   1.173 -0.4665 -0.8396 -2.9118
 5426TIP3   OH216241   3.554   6.263   3.992 -0.4548  0.1872 -0.8392
 5426TIP3    H116242   3.463   6.234   3.985  0.0481 -2.9005  2.2952
 5426TIP3    H216243   3.604   6.200   3.939  0.1393 -1.1748  1.2039
 5427TIP3   OH216244   2.025   6.323   1.008  0.0153  0.4048  0.0316
 5427TIP3    H116245   2.056   6.243   0.966  0.1289  1.8308 -2.8128
 5427TIP3    H216246   2.104   6.363   1.045  0.4460  0.5493 -1.0099
 5428TIP3   OH216247   3.682   1.605   5.214 -0.1109 -0.9424 -0.3426
 5428TIP3    H116248   3.739   1.528   5.212  1.3726  0.1306 -1.6631
 5428TIP3    H216249   3.726   1.670   5.160 -1.2892  0.8845  0.7464
 5429TIP3   OH216250   4.454   0.383   3.743  0.4763  0.6283  0.4599
 5429TIP3    H116251   4.531   0.327   3.755  1.0075  1.4440  0.8914
 5429TIP3    H216252   4.389   0.346   3.803  0.7350  0.3158  0.5565
 5430TIP3   OH216253   1.529   1.753   3.666 -0.1706  0.1696  0.2567
 5430TIP3    H116254   1.448   1.791   3.633  0.1621 -0.0328 -0.8319
 5430TIP3    H216255   1.582   1.828   3.692 -0.3704  0.3437  0.1644
 5431TIP3   OH216256   5.994   1.905   2.324  0.7406 -0.0097 -0.1129
 5431TIP3    H116257   5.929   1.857   2.272  1.0609 -1.8445  1.0569
 5431TIP3    H216258   5.951   1.987   2.346 -1.1016 -1.0362  0.3675
 5432TIP3   OH216259   1.764   1.249   3.031  0.0307 -0.3697  0.0931
 5432TIP3    H116260   1.802   1.223   2.947 -0.0744 -0.3572  0.0415
 5432TIP3    H216261   1.840   1.267   3.087  0.2023  3.1117 -1.0355
 5433TIP3   OH216262   3.851   0.312   2.157  0.4931 -0.1669  0.1928
 5433TIP3    H116263   3.882   0.242   2.214 -0.4246 -0.2845  0.5652
 5433TIP3    H216264   3.930   0.361   2.134  0.9704 -0.5455  0.9811
 5434TIP3   OH216265   4.720   1.601   2.449  0.1963 -0.0749 -0.5126
 5434TIP3    H116266   4.686   1.640   2.368 -1.2400  0.1887  0.1774
 5434TIP3    H216267   4.763   1.520   2.420 -1.0247 -0.4169 -1.4675
 5435TIP3   OH216268   6.682   2.178   1.008  0.0613  0.7386  0.3913
 5435TIP3    H116269   6.600   2.206   0.966 -1.1768 -2.6669  0.2105
 5435TIP3    H216270   6.749   2.234   0.969 -1.5735  0.5454 -3.1192
 5436TIP3   OH216271   0.503   4.667   0.284  0.3426  0.7780  0.1574
 5436TIP3    H116272   0.551   4.650   0.203  0.7547 -0.2795  0.6084
 5436TIP3    H216273   0.566   4.649   0.353 -0.8000 -1.1732  0.7844
 5437TIP3   OH216274   5.367   0.338   0.803 -0.0068 -0.3214  0.2603
 5437TIP3    H116275   5.420   0.415   0.824 -1.7747  1.2918 -0.9138
 5437TIP3    H216276   5.424   0.285   0.748  1.0367  0.4100  0.5791
 5438TIP3   OH216277   1.997   4.291   1.809  0.0579 -0.2997  0.5536
 5438TIP3    H116278   2.033   4.276   1.722  0.6147 -0.4791  0.8053
 5438TIP3    H216279   1.908   4.324   1.794 -0.2298 -1.3296 -0.0593
 5439TIP3   OH216280   4.067   6.377   0.905  0.3071 -0.2240  0.3926
 5439TIP3    H116281   3.977   6.384   0.872 -0.1059 -0.2166  1.4935
 5439TIP3    H216282   4.110   6.456   0.872 -0.4083  0.3465  0.7969
 5440TIP3   OH216283   3.633   5.349   3.129  0.3353  0.1172  0.2358
 5440TIP3    H116284   3.615   5.411   3.059 -0.6596 -0.7069 -0.2591
 5440TIP3    H216285   3.569   5.279   3.117  0.7492 -0.4987  1.4099
 5441TIP3   OH216286   3.160   2.614   0.790 -1.2508 -0.0187  0.4405
 5441TIP3    H116287   3.189   2.570   0.710  1.4723  0.4205  1.0647
 5441TIP3    H216288   3.147   2.705   0.763  0.7397  0.3785  0.5993
 5442TIP3   OH216289   5.145   1.656   2.643 -0.1741 -0.6916  0.1607
 5442TIP3    H116290   5.205   1.729   2.658 -1.6671  0.4265  1.0841
 5442TIP3    H216291   5.182   1.608   2.570  0.7910  1.1022 -0.5837
 5443TIP3   OH216292   6.072   6.246   2.700 -0.1645  0.2917  0.3283
 5443TIP3    H116293   6.028   6.308   2.758  1.1428  0.6271  0.9911
 5443TIP3    H216294   6.146   6.296   2.664 -0.0730 -0.3846 -0.4488
 5444TIP3   OH216295   0.856   5.279   4.186  0.4219  0.2942  0.3615
 5444TIP3    H116296   0.815   5.362   4.163 -1.0654 -0.5478 -0.2125
 5444TIP3    H216297   0.883   5.290   4.277 -0.4579  1.1454  0.5368
 5445TIP3   OH216298   6.745   4.573   5.751  0.3274  0.0003 -0.1945
 5445TIP3    H116299   6.835   4.543   5.742  0.2592  0.2503 -2.0902
 5445TIP3    H216300   6.726   4.616   5.667 -1.6896 -0.4294  0.0073
 5446TIP3   OH216301   4.109   3.007   3.546  0.0788  0.6895  0.1822
 5446TIP3    H116302   4.098   2.927   3.495 -0.1232  0.7927  0.0625
 5446TIP3    H216303   4.044   3.001   3.615 -2.2441  2.2498 -1.7176
 5447TIP3   OH216304   3.804   2.910   1.431 -0.0908 -0.1392  0.2910
 5447TIP3    H116305   3.777   2.821   1.455 -0.9975 -0.0559 -0.3806
 5447TIP3    H216306   3.891   2.898   1.392  0.3998 -0.5454  1.4389
 5448TIP3   OH216307   3.753   2.576   3.390  0.5788  0.3953 -0.2549
 5448TIP3    H116308   3.675   2.523   3.408  1.1080 -0.7828 -1.2353
 5448TIP3    H216309   3.804   2.571   3.471 -1.0090  2.4486  0.9520
 5449TIP3   OH216310   6.330   6.593   4.041 -0.0968 -0.0761 -0.2952
 5449TIP3    H116311   6.362   6.582   4.131  1.1541 -0.0142 -0.7212
 5449TIP3    H216312   6.306   6.505   4.013 -2.0514  0.1024  0.6315
 5450TIP3   OH216313   4.932   0.065   5.694  0.1266  0.0619 -0.3996
 5450TIP3    H116314   4.933  -0.005   5.759  1.7075 -0.3794 -0.8613
 5450TIP3    H216315   4.927   0.020   5.610 -0.1152  0.5593 -0.6556
 5451TIP3   OH216316   4.215   4.492   4.665  0.5212 -0.0285  0.3029
 5451TIP3    H116317   4.164   4.484   4.584  0.1166  0.4526  0.5053
 5451TIP3    H216318   4.293   4.437   4.650 -0.0618 -0.7977 -0.0021
 5452TIP3   OH216319   2.197   6.631   3.842 -0.1261  0.8279  0.3948
 5452TIP3    H116320   2.231   6.577   3.771 -2.4642 -1.1897  0.6659
 5452TIP3    H216321   2.157   6.707   3.798 -2.5721 -0.9515 -0.6869
 5453TIP3   OH216322   5.139   0.189   4.663  0.1872  0.2212  0.4013
 5453TIP3    H116323   5.230   0.178   4.636 -0.3047 -1.7653 -0.6438
 5453TIP3    H216324   5.095   0.109   4.634 -2.1947  1.6856 -0.3464
 5454TIP3   OH216325   7.122   6.116   2.452 -0.4669 -0.7916  0.0512
 5454TIP3    H116326   7.088   6.146   2.536 -0.9017 -2.2949  0.4369
 5454TIP3    H216327   7.191   6.054   2.475 -1.5663 -2.3305 -0.6606
 5455TIP3   OH216328   2.256   2.358   1.933  0.0678  0.3526  0.9393
 5455TIP3    H116329   2.242   2.438   1.883  2.6096  0.3607  0.1089
 5455TIP3    H216330   2.169   2.335   1.966 -1.5825  0.9778 -2.5401
 5456TIP3   OH216331   6.193   4.705   2.531 -0.0595  0.1785 -0.0361
 5456TIP3    H116332   6.196   4.640   2.462  1.3614 -0.7066  0.8119
 5456TIP3    H216333   6.251   4.671   2.599 -1.7172  0.8046  1.7822
 5457TIP3   OH216334   4.681   0.279   5.279 -0.9064  0.2812 -0.1366
 5457TIP3    H116335   4.644   0.365   5.298  1.7958  1.6016 -0.3386
 5457TIP3    H216336   4.732   0.257   5.357  0.2138 -0.0739 -0.9429
 5458TIP3   OH216337   2.525   2.188   3.094 -0.0919 -0.4275  0.5942
 5458TIP3    H116338   2.613   2.156   3.073  0.0639  0.8819 -0.9322
 5458TIP3    H216339   2.541   2.266   3.148 -0.2943 -0.0779  0.1547
 5459TIP3   OH216340   4.104   5.363   0.229  0.0499  0.1264 -0.8478
 5459TIP3    H116341   4.032   5.313   0.269 -0.7786  1.7713 -0.1977
 5459TIP3    H216342   4.183   5.327   0.270 -0.5856 -0.0482  0.2781
 5460TIP3   OH216343   5.125   3.309   0.479 -0.0910  0.3349 -0.0413
 5460TIP3    H116344   5.065   3.367   0.433  0.2370  0.5330 -0.2233
 5460TIP3    H216345   5.102   3.221   0.449 -1.7319  0.1800  1.5092
 5461TIP3   OH216346   1.668   6.285   3.595 -0.7157 -0.1586  0.1078
 5461TIP3    H116347   1.713   6.360   3.634 -0.1724 -0.4646  0.0846
 5461TIP3    H216348   1.583   6.282   3.639 -1.2573  1.2210 -0.7708
 5462TIP3   OH216349   0.149   1.592   1.148 -0.0830 -0.1878 -0.2743
 5462TIP3    H116350   0.215   1.626   1.088  0.2982  1.0442  0.7944
 5462TIP3    H216351   0.198   1.572   1.228 -0.8869  0.0850  0.2990
 5463TIP3   OH216352   4.391   4.627   2.393  0.3154  0.0031  0.4241
 5463TIP3    H116353   4.435   4.542   2.397 -2.1094 -1.7691 -3.7579
 5463TIP3    H216354   4.413   4.662   2.307 -3.2255  0.7032 -0.3651
 5464TIP3   OH216355   4.940   1.067   5.294  0.1369  0.5068  0.0691
 5464TIP3    H116356   4.872   1.090   5.357  0.5101 -0.1746  0.7371
 5464TIP3    H216357   5.017   1.046   5.348  0.8285  1.0937 -0.6641
 5465TIP3   OH216358   6.539   0.663   0.289  0.4441 -1.0080 -0.1348
 5465TIP3    H116359   6.606   0.657   0.220 -0.9641  2.0867 -1.9662
 5465TIP3    H216360   6.476   0.595   0.266  0.2206 -0.3095 -1.7265
 5466TIP3   OH216361   1.224   1.285   4.836  0.5908 -1.0356 -0.0757
 5466TIP3    H116362   1.142   1.244   4.809 -0.4798  0.6824  0.3812
 5466TIP3    H216363   1.219   1.287   4.932  0.0936  1.0492 -0.0963
 5467TIP3   OH216364   4.575   6.442   5.360 -0.5481  0.0932  0.6787
 5467TIP3    H116365   4.530   6.435   5.276  0.0055 -0.6458  0.4321
 5467TIP3    H216366   4.659   6.399   5.346  0.5336  2.0035  0.9433
 5468TIP3   OH216367   5.053   3.850   0.239 -0.0763 -0.0303  0.1705
 5468TIP3    H116368   5.132   3.813   0.278  0.3842 -1.1291 -1.7015
 5468TIP3    H216369   5.048   3.939   0.275  2.1671  0.1570  0.1356
 5469TIP3   OH216370   4.608   0.833   5.555  0.0342  0.1648  0.7348
 5469TIP3    H116371   4.547   0.839   5.629 -0.3000  0.5562  0.4364
 5469TIP3    H216372   4.691   0.864   5.590 -0.1901  0.6158  0.8767
 5470TIP3   OH216373   4.810   0.614   0.207  0.0925 -0.8232 -0.1282
 5470TIP3    H116374   4.734   0.635   0.153  0.2540 -0.6119 -0.2758
 5470TIP3    H216375   4.786   0.534   0.252 -0.3268 -0.6082  0.0375
 5471TIP3   OH216376   6.701   5.151   2.623 -0.1157  0.2646  0.5603
 5471TIP3    H116377   6.778   5.204   2.604 -0.3765  0.8999  1.2511
 5471TIP3    H216378   6.631   5.188   2.569  0.6471 -2.0660 -2.3035
 5472TIP3   OH216379   6.765   3.524   5.417  0.5771  0.0966  0.2271
 5472TIP3    H116380   6.815   3.443   5.413  1.6780  0.7324  0.5798
 5472TIP3    H216381   6.735   3.529   5.507  1.2797  0.5094  0.4477
 5473TIP3   OH216382   4.239   0.097   3.321  0.7031 -0.3114  0.1204
 5473TIP3    H116383   4.330   0.104   3.349  1.0342  0.7974 -1.1513
 5473TIP3    H216384   4.232   0.155   3.246 -1.2280  0.1126  0.5722
 5474TIP3   OH216385   6.403   3.496   5.841 -0.6100  0.3173 -0.1775
 5474TIP3    H116386   6.384   3.588   5.824 -0.5361  1.3711  4.1525
 5474TIP3    H216387   6.325   3.462   5.885  0.3167 -0.8774  0.6446
 5475TIP3   OH216388   0.744   1.469   2.061 -0.0174  1.1391  0.0562
 5475TIP3    H116389   0.786   1.554   2.072 -1.7474  1.9489  0.9042
 5475TIP3    H216390   0.659   1.479   2.104 -0.9324 -0.5027 -1.2575
 5476TIP3   OH216391   3.162   2.208   5.283 -0.7923 -0.6198 -0.1810
 5476TIP3    H116392   3.217   2.131   5.299  1.0802  0.7662  0.2830
 5476TIP3    H216393   3.152   2.248   5.369  2.4779  2.3565 -0.9725
 5477TIP3   OH216394   0.199   0.216   3.027  0.0499 -0.2332  0.1255
 5477TIP3    H116395   0.261   0.259   3.086  1.9676 -2.0978 -0.4014
 5477TIP3    H216396   0.255   0.169   2.964 -1.9150  0.2413 -2.0999
 5478TIP3   OH216397   1.251   3.346   4.725  0.0048 -0.2674  0.6279
 5478TIP3    H116398   1.190   3.380   4.790 -0.8136  1.2501 -0.8804
 5478TIP3    H216399   1.299   3.423   4.694  0.7764 -1.0433 -0.1565
 5479TIP3   OH216400   2.049   6.716   5.832 -0.0777  0.6386  0.0754
 5479TIP3    H116401   2.111   6.649   5.803 -1.2817 -0.1156 -0.7922
 5479TIP3    H216402   2.057   6.785   5.766  0.1256  0.7300  0.1925
 5480TIP3   OH216403   6.157   2.128   3.704  0.3951 -0.6628  0.5728
 5480TIP3    H116404   6.082   2.069   3.703 -0.8101  0.7646 -1.5434
 5480TIP3    H216405   6.191   2.125   3.615  1.0513  0.8816  0.7418
 5481TIP3   OH216406   2.048   1.503   2.427  0.0299  0.3061  0.2234
 5481TIP3    H116407   2.008   1.580   2.386  0.2865  0.4916  0.3225
 5481TIP3    H216408   2.127   1.487   2.377 -1.4631 -1.6845 -1.7288
 5482TIP3   OH216409   6.406   3.185   0.345 -0.1829 -0.6302  0.3280
 5482TIP3    H116410   6.326   3.141   0.319 -0.2339 -1.0178  1.1037
 5482TIP3    H216411   6.381   3.277   0.356 -0.3875 -0.6505  0.0179
 5483TIP3   OH216412   2.924   2.893   4.953 -0.3028  0.2894 -0.0457
 5483TIP3    H116413   2.919   2.819   4.893  0.1718  0.0964  0.1470
 5483TIP3    H216414   2.869   2.868   5.027  1.4673 -0.7848  0.9704
 5484TIP3   OH216415   1.116   0.359   5.642 -0.3546  0.3274  0.3417
 5484TIP3    H116416   1.120   0.393   5.731 -0.1360  1.1411  0.0318
 5484TIP3    H216417   1.119   0.437   5.586 -0.8762 -0.1439 -0.3711
 5485TIP3   OH216418   2.043   2.893   1.563  0.4122  0.3362 -0.0602
 5485TIP3    H116419   1.998   2.810   1.547 -0.2614  0.3324  1.6378
 5485TIP3    H216420   2.091   2.879   1.645 -0.4616  1.8755  0.7705
 5486TIP3   OH216421   3.629   1.947   4.198 -0.1525  0.8267 -0.9064
 5486TIP3    H116422   3.561   2.009   4.225  0.4810  1.0211  0.2596
 5486TIP3    H216423   3.665   1.913   4.279  0.2928 -0.2376 -1.5245
 5487TIP3   OH216424   4.017   1.659   2.570 -0.3790  0.2253 -0.1204
 5487TIP3    H116425   4.088   1.653   2.506 -0.2524 -2.4747  0.1552
 5487TIP3    H216426   3.937   1.664   2.517 -0.1338  1.0465 -0.4341
 5488TIP3   OH216427   2.724   2.279   0.044  0.3997  0.0997 -0.2603
 5488TIP3    H116428   2.669   2.229  -0.016  2.0475  0.4106 -2.1488
 5488TIP3    H216429   2.811   2.274   0.006  1.2157  1.7299  1.2503
 5489TIP3   OH216430   0.820   0.702   4.122 -0.1788  0.5224 -0.1947
 5489TIP3    H116431   0.733   0.690   4.162  0.5986 -0.7127  1.2510
 5489TIP3    H216432   0.832   0.625   4.067 -0.2611  1.0323 -0.9373
 5490TIP3   OH216433   6.632   0.128   0.669  0.5041  0.8304 -0.0974
 5490TIP3    H116434   6.592   0.182   0.601 -1.9910 -0.2881  0.3420
 5490TIP3    H216435   6.654   0.046   0.626 -1.8450 -0.1989  0.4692
 5491TIP3   OH216436   3.190   0.078   1.486  0.6645 -0.0944  0.4885
 5491TIP3    H116437   3.163   0.149   1.544  1.8487  0.2368  0.6776
 5491TIP3    H216438   3.224   0.123   1.408 -3.7869 -0.5167 -2.0112
 5492TIP3   OH216439   1.492   3.919   0.563 -0.7896 -0.4772 -0.2586
 5492TIP3    H116440   1.430   3.850   0.539 -0.9387 -0.2438 -0.5524
 5492TIP3    H216441   1.438   3.995   0.583 -0.6319 -0.4898  0.2233
 5493TIP3   OH216442   1.603   6.334   5.561 -0.1716 -0.2827  0.3590
 5493TIP3    H116443   1.662   6.319   5.488 -0.7010 -1.2856  0.1111
 5493TIP3    H216444   1.631   6.417   5.599  0.4668 -0.0318 -0.6316
 5494TIP3   OH216445   2.499   1.547   3.258 -0.2678 -0.2708  0.0825
 5494TIP3    H116446   2.594   1.553   3.244 -0.0258 -1.2916  1.1167
 5494TIP3    H216447   2.461   1.597   3.186  1.0601  0.3416 -0.2258
 5495TIP3   OH216448   6.150   4.290   2.087 -0.0426  0.0541 -0.7798
 5495TIP3    H116449   6.239   4.267   2.059  0.6706  1.9502 -0.2713
 5495TIP3    H216450   6.119   4.351   2.020 -1.6287 -1.7990 -1.8071
 5496TIP3   OH216451   3.959   0.313   1.257  0.4247 -0.1750  0.3975
 5496TIP3    H116452   3.874   0.343   1.224 -0.1326 -1.5762  0.5115
 5496TIP3    H216453   4.007   0.394   1.275 -0.7366  0.6403 -0.0402
 5497TIP3   OH216454   1.927   2.169   5.292  0.2940  0.9498  0.4754
 5497TIP3    H116455   2.023   2.173   5.293  0.4457 -1.2048 -0.7060
 5497TIP3    H216456   1.902   2.180   5.384  1.8311 -0.8660  1.1686
 5498TIP3   OH216457   6.227   6.494   1.915  0.1264 -0.1918  0.2140
 5498TIP3    H116458   6.304   6.440   1.933  0.7566  1.3247  2.3787
 5498TIP3    H216459   6.165   6.471   1.984 -0.4170  0.3710 -0.0803
 5499TIP3   OH216460   6.783   3.944   2.303  0.0887 -0.4583  0.2341
 5499TIP3    H116461   6.758   3.953   2.395 -0.3360  0.5766  0.0385
 5499TIP3    H216462   6.867   3.898   2.305  1.2241  1.5252  1.2904
 5500TIP3   OH216463   2.506   3.575   4.548 -0.4451  0.1679  0.4704
 5500TIP3    H116464   2.520   3.648   4.607 -0.4420  0.3148  0.2883
 5500TIP3    H216465   2.575   3.513   4.570 -1.1493 -0.3031  1.4286
 5501TIP3   OH216466   4.159   0.269   2.146 -0.2491  0.3305 -0.6061
 5501TIP3    H116467   4.109   0.194   2.114 -0.6625  0.8220 -1.1228
 5501TIP3    H216468   4.152   0.264   2.241 -0.1371 -0.3784 -0.6340
 5502TIP3   OH216469   0.912   2.388   1.422 -0.3844 -0.0574 -1.1635
 5502TIP3    H116470   0.847   2.322   1.397  0.3116 -0.8161 -1.0204
 5502TIP3    H216471   0.996   2.348   1.401  0.1950 -0.2306  1.1873
 5503TIP3   OH216472   6.382   2.904   2.091  0.2126 -0.3643 -0.0045
 5503TIP3    H116473   6.406   2.834   2.151  0.1533 -1.5049 -1.2458
 5503TIP3    H216474   6.345   2.973   2.146 -1.2662 -1.9898  1.1126
 5504TIP3   OH216475   2.942   5.959   4.280  0.0697 -0.7469  0.8166
 5504TIP3    H116476   2.910   5.877   4.318 -0.0666 -0.6198  0.9729
 5504TIP3    H216477   2.864   6.005   4.252  0.1049 -0.3453  1.3805
 5505TIP3   OH216478   4.427   4.148   4.018  0.1953 -0.1372  0.1146
 5505TIP3    H116479   4.418   4.237   4.053 -1.1716 -0.2217  0.0226
 5505TIP3    H216480   4.493   4.107   4.074  0.4015  0.7442  0.5383
 5506TIP3   OH216481   3.136   0.840   4.353 -0.7425 -0.6781  0.0218
 5506TIP3    H116482   3.206   0.868   4.411 -0.7358  0.3975 -0.4848
 5506TIP3    H216483   3.112   0.753   4.385  0.8420 -1.0935  0.1708
 5507TIP3   OH216484   6.927   4.439   3.020 -0.5327 -0.8098  0.1559
 5507TIP3    H116485   6.857   4.381   2.990 -0.8525 -1.6752  2.3627
 5507TIP3    H216486   6.883   4.499   3.081 -0.0114  1.1492 -1.2825
 5508TIP3   OH216487   7.033   1.008   1.360  0.4906  0.3082  0.1021
 5508TIP3    H116488   7.020   1.024   1.266 -2.4722  1.1985  0.5559
 5508TIP3    H216489   7.126   1.021   1.374  0.8331  1.2855 -2.5233
 5509TIP3   OH216490   6.575   1.811   0.052  0.3390 -0.3887  0.0091
 5509TIP3    H116491   6.620   1.853   0.125  3.3638  1.6183 -2.7212
 5509TIP3    H216492   6.499   1.867   0.035  0.6176  0.1488  0.5230
 5510TIP3   OH216493   3.807   6.452   1.478 -0.5897  0.1702 -0.5362
 5510TIP3    H116494   3.899   6.430   1.495  0.3850  2.2114 -2.6329
 5510TIP3    H216495   3.758   6.385   1.525  1.9667 -1.4393  0.0672
 5511TIP3   OH216496   5.911   6.098   0.376 -0.2236  0.8421 -0.3355
 5511TIP3    H116497   5.886   6.007   0.388  0.4424  0.9134  2.0176
 5511TIP3    H216498   6.006   6.096   0.367 -0.1647  1.3220  0.1084
 5512TIP3   OH216499   1.398   1.496   2.003 -0.3445 -0.6439 -0.1815
 5512TIP3    H116500   1.349   1.429   1.956  1.1129 -1.6820 -0.2685
 5512TIP3    H216501   1.488   1.464   2.006  0.1581  0.7254  0.8641
 5513TIP3   OH216502   1.296   0.461   4.657 -0.2353  0.2977  0.5536
 5513TIP3    H116503   1.377   0.513   4.652  0.2584 -0.5142 -0.4508
 5513TIP3    H216504   1.234   0.508   4.602  0.1322 -0.0076 -0.1461
 5514TIP3   OH216505   0.331   6.372   0.420 -0.3913  0.0317  0.8635
 5514TIP3    H116506   0.422   6.346   0.439  0.4836  2.3413  0.1831
 5514TIP3    H216507   0.340   6.446   0.360 -2.7087  0.8458  1.4397
 5515TIP3   OH216508   0.917   2.138   2.834  0.1683  0.5923  0.5777
 5515TIP3    H116509   0.840   2.082   2.823 -1.4820  3.0589 -1.6077
 5515TIP3    H216510   0.882   2.225   2.850  2.5498  1.5760  0.9371
 5516TIP3   OH216511   0.524   2.690   0.271  0.9276 -0.3246  0.5128
 5516TIP3    H116512   0.583   2.716   0.200  0.5709 -1.2806 -0.1497
 5516TIP3    H216513   0.466   2.766   0.282  1.0617 -0.1176 -0.1425
 5517TIP3   OH216514   2.727   5.157   0.130  0.0199  0.5603 -0.3333
 5517TIP3    H116515   2.744   5.238   0.178 -1.9882  1.5126 -1.0993
 5517TIP3    H216516   2.717   5.185   0.039 -1.2473 -0.4511 -0.5283
 5518TIP3   OH216517   1.060   0.720   4.293  0.1919  0.4908  0.3454
 5518TIP3    H116518   1.060   0.785   4.223 -1.3778  0.7538  0.5456
 5518TIP3    H216519   0.976   0.674   4.283  0.9106 -0.9673  0.7033
 5519TIP3   OH216520   4.141   6.377   1.847  0.3231  0.2317  0.7707
 5519TIP3    H116521   4.177   6.410   1.929 -1.9756  0.5223  1.7225
 5519TIP3    H216522   4.059   6.335   1.871  0.5852 -1.5629 -1.1298
 5520TIP3   OH216523   1.124   6.457   4.040 -0.6267 -0.7384  0.1751
 5520TIP3    H116524   1.113   6.447   3.946 -1.0426 -0.1047  0.1481
 5520TIP3    H216525   1.191   6.393   4.064  0.7936  0.3015 -0.8428
 5521TIP3   OH216526   0.395   1.225   1.372 -0.8283  0.3295 -0.1216
 5521TIP3    H116527   0.440   1.159   1.424  1.0413  2.1770  0.7734
 5521TIP3    H216528   0.451   1.236   1.294 -2.0602 -0.3520 -1.1327
 5522TIP3   OH216529   2.733   5.828   2.163 -0.4930  0.4764  0.1358
 5522TIP3    H116530   2.664   5.878   2.206  0.4980  0.5843  1.6878
 5522TIP3    H216531   2.783   5.789   2.235  1.2956  0.7244 -0.9068
 5523TIP3   OH216532   1.421   4.309   4.305 -0.4836  0.1223  0.1798
 5523TIP3    H116533   1.498   4.258   4.279 -0.9745 -0.0779 -0.9483
 5523TIP3    H216534   1.347   4.254   4.278 -1.0725  2.1824 -2.7782
 5524TIP3   OH216535   4.373   5.490   0.175  0.1608 -0.4899  0.3023
 5524TIP3    H116536   4.319   5.427   0.126  0.1889 -0.6495  0.4738
 5524TIP3    H216537   4.395   5.558   0.111 -0.5515 -0.2317  0.3280
 5525TIP3   OH216538   6.449   1.962   4.010  0.8520 -0.0732  0.2098
 5525TIP3    H116539   6.448   1.891   4.075  0.9887 -0.3391 -0.0728
 5525TIP3    H216540   6.374   2.016   4.032 -1.4935 -2.2531 -1.6594
 5526TIP3   OH216541   3.094   2.073   1.077  0.2535 -0.2322  0.2574
 5526TIP3    H116542   3.171   2.056   1.131  0.4553 -1.7478 -0.4279
 5526TIP3    H216543   3.129   2.102   0.993  0.0093  0.6205  0.4466
 5527TIP3   OH216544   3.378   3.332   3.403  0.3827  0.6085  0.2545
 5527TIP3    H116545   3.466   3.298   3.416 -0.4190 -2.2451 -0.8675
 5527TIP3    H216546   3.348   3.355   3.491  1.6025 -0.1669  0.8964
 5528TIP3   OH216547   5.710   4.184   0.963 -0.0198  0.0826 -0.1430
 5528TIP3    H116548   5.631   4.236   0.976  0.5826  0.5172  2.1357
 5528TIP3    H216549   5.765   4.238   0.907  0.0902  1.3662  1.1713
 5529TIP3   OH216550   5.580   1.534   4.077  0.5747 -0.1888 -0.3021
 5529TIP3    H116551   5.630   1.561   4.000  1.0885  0.7243  0.3249
 5529TIP3    H216552   5.529   1.611   4.101  0.0466 -0.6214 -0.0078
 5530TIP3   OH216553   6.677   1.880   3.646  0.1967  0.8286 -0.2410
 5530TIP3    H116554   6.617   1.951   3.670  0.4787  1.3305 -1.0196
 5530TIP3    H216555   6.627   1.827   3.584  0.8372  1.7340 -1.5731
 5531TIP3   OH216556   3.683   0.860   0.055 -0.1651  0.0355 -0.0730
 5531TIP3    H116557   3.626   0.936   0.067  0.1247  0.3643 -0.7153
 5531TIP3    H216558   3.766   0.896   0.025 -0.1789 -0.5576 -0.8754
 5532TIP3   OH216559   3.169   3.301   3.968 -0.1186 -0.4727  0.8205
 5532TIP3    H116560   3.124   3.226   3.929 -1.4997  0.3029  0.8486
 5532TIP3    H216561   3.166   3.368   3.900  1.6683 -0.6080  0.5561
 5533TIP3   OH216562   6.275   0.843   5.011  0.3865  0.0223 -0.1801
 5533TIP3    H116563   6.227   0.792   4.946 -1.4910  0.9013  0.4676
 5533TIP3    H216564   6.288   0.782   5.084  2.2754 -0.8873 -1.1864
 5534TIP3   OH216565   1.632   1.329   3.712 -0.5732  0.6416 -0.1114
 5534TIP3    H116566   1.648   1.333   3.617  0.7762  0.9209  0.1003
 5534TIP3    H216567   1.639   1.236   3.734  1.6376  0.7921  0.0655
 5535TIP3   OH216568   0.339   5.756   4.782 -0.6401  0.4045 -0.3307
 5535TIP3    H116569   0.417   5.732   4.733 -0.1440  0.9705  0.1715
 5535TIP3    H216570   0.292   5.816   4.725 -0.8935 -0.2048 -0.7760
 5536TIP3   OH216571   3.822   2.891   4.671  0.0579  0.3323  0.1836
 5536TIP3    H116572   3.824   2.863   4.763 -1.9608 -2.3909 -0.4996
 5536TIP3    H216573   3.729   2.903   4.652  0.3999  0.2229 -1.6760
 5537TIP3   OH216574   4.304   4.225   4.879  0.2748 -0.4521 -0.0604
 5537TIP3    H116575   4.363   4.298   4.862  1.0969 -0.8869  0.8185
 5537TIP3    H216576   4.296   4.179   4.796 -0.4208  0.7351 -0.6786
 5538TIP3   OH216577   2.325   0.003   0.116  0.1960  0.1952 -0.0031
 5538TIP3    H116578   2.239  -0.037   0.131  1.0890 -1.2503  1.5407
 5538TIP3    H216579   2.327   0.079   0.174 -0.5795  1.1798 -1.1898
 5539TIP3   OH216580   0.871   5.860   3.179  0.1231 -0.1977 -0.2383
 5539TIP3    H116581   0.784   5.848   3.216 -0.1741 -0.0270 -0.8641
 5539TIP3    H216582   0.924   5.890   3.252 -0.4821  0.2510  0.0247
 5540TIP3   OH216583   4.654  -0.029   5.167 -0.1239 -0.2157 -0.8527
 5540TIP3    H116584   4.724   0.035   5.170  0.3718 -0.7737  0.8392
 5540TIP3    H216585   4.599  -0.002   5.094  1.4899  0.6012 -1.7982
 5541TIP3   OH216586   1.710   3.685   3.410 -0.0137 -0.0123 -0.1611
 5541TIP3    H116587   1.778   3.752   3.414  0.1601  0.0896 -2.9104
 5541TIP3    H216588   1.742   3.615   3.467  1.0600  1.1374  0.7105
 5542TIP3   OH216589   2.007   1.875   0.114  0.0529  0.0074 -0.3003
 5542TIP3    H116590   2.096   1.902   0.135  0.2788 -0.1412 -1.0179
 5542TIP3    H216591   1.952   1.949   0.141 -0.0856 -1.2868  3.5666
 5543TIP3   OH216592   5.490   3.873   2.719 -0.0591 -0.4975 -0.0428
 5543TIP3    H116593   5.397   3.851   2.724 -0.2708 -0.0021 -1.4304
 5543TIP3    H216594   5.497   3.929   2.642  1.7151 -2.3560 -1.3500
 5544TIP3   OH216595   4.813   4.026   1.352  0.5525  0.0862  0.2023
 5544TIP3    H116596   4.884   3.992   1.298  1.4946  0.1174  1.3892
 5544TIP3    H216597   4.851   4.102   1.396  0.4389 -1.0483  2.3638
 5545TIP3   OH216598   3.568   4.242   0.492  0.6313 -0.0911 -0.2071
 5545TIP3    H116599   3.517   4.278   0.420 -1.1275 -0.7714  0.6308
 5545TIP3    H216600   3.557   4.147   0.483  1.6043 -0.2399  0.1124
 5546TIP3   OH216601   6.043   3.387   4.727 -0.5148  0.2238  0.0397
 5546TIP3    H116602   6.116   3.445   4.704 -1.3069  0.7703 -1.2033
 5546TIP3    H216603   6.083   3.303   4.745  0.3501  0.2115 -1.7493
 5547TIP3   OH216604   2.159   4.171   0.407  0.3386 -0.1811 -0.0793
 5547TIP3    H116605   2.186   4.103   0.346  1.2344  0.8996 -0.9155
 5547TIP3    H216606   2.237   4.190   0.458 -0.2026 -0.5345  0.9131
 5548TIP3   OH216607   1.775   6.015   5.526  0.1943 -0.0585 -0.3789
 5548TIP3    H116608   1.793   6.064   5.606 -0.4022  1.4111 -1.0913
 5548TIP3    H216609   1.829   5.936   5.533  0.8629  0.4893  1.0345
 5549TIP3   OH216610   4.250   6.084  -0.004  0.3533  0.5098  0.1011
 5549TIP3    H116611   4.316   6.130   0.048  1.3241  0.3009 -0.9098
 5549TIP3    H216612   4.227   6.007   0.048 -0.1845  1.3344  1.1213
 5550TIP3   OH216613   2.664   1.354   0.882  0.2058  0.2186  0.3102
 5550TIP3    H116614   2.619   1.388   0.959  0.7658  1.1150  0.2628
 5550TIP3    H216615   2.612   1.279   0.854  1.0992 -1.4517  2.7636
 5551TIP3   OH216616   5.780   2.907   2.509 -0.1943 -0.4085 -0.2260
 5551TIP3    H116617   5.697   2.953   2.510 -0.4268 -0.7745 -1.4367
 5551TIP3    H216618   5.837   2.958   2.567 -1.2275 -0.1137  0.5481
 5552TIP3   OH216619   1.707   6.127   5.217  0.0811  0.3944 -0.4998
 5552TIP3    H116620   1.796   6.094   5.217 -1.0361 -3.0640  0.3530
 5552TIP3    H216621   1.706   6.194   5.286  2.0331  0.7594 -0.7776
 5553TIP3   OH216622   5.960   1.373   2.610 -0.3429  0.0671 -0.0813
 5553TIP3    H116623   5.923   1.461   2.603 -0.7539  0.0496  1.4648
 5553TIP3    H216624   6.022   1.378   2.682 -1.9937 -1.3768  1.5605
 5554TIP3   OH216625   0.460   1.927   2.953 -0.1865  0.6438  0.1975
 5554TIP3    H116626   0.366   1.919   2.973 -0.4680  0.7120 -0.9868
 5554TIP3    H216627   0.481   2.018   2.973 -0.2089  0.4559  1.0974
 5555TIP3   OH216628   3.997   4.629   2.626  0.0780  0.2711 -0.1503
 5555TIP3    H116629   4.044   4.712   2.640 -0.1320  0.4043 -0.2343
 5555TIP3    H216630   3.909   4.655   2.601 -0.8317  0.0382  2.5093
 5556TIP3   OH216631   1.942   2.780   0.823 -0.0129 -0.1986 -0.6160
 5556TIP3    H116632   1.866   2.748   0.871  0.5594  0.1054  0.5449
 5556TIP3    H216633   2.010   2.714   0.838  0.9452  1.0927  1.1679
 5557TIP3   OH216634   3.097   5.867   5.356 -0.1851  0.2727  0.9555
 5557TIP3    H116635   3.015   5.880   5.403 -0.4991 -2.2996  1.2514
 5557TIP3    H216636   3.071   5.854   5.265 -0.4154 -2.6282  1.3460
 5558TIP3   OH216637   5.199   0.512   2.931 -0.1219  0.3245  0.4354
 5558TIP3    H116638   5.133   0.576   2.955  0.2590  0.7003  0.4907
 5558TIP3    H216639   5.169   0.430   2.971 -0.7428  0.4062  0.1448
 5559TIP3   OH216640   6.168   4.973   4.462  0.2494 -0.1416  0.3458
 5559TIP3    H116641   6.212   4.888   4.462  0.3311 -0.1015  0.7417
 5559TIP3    H216642   6.199   5.016   4.542  0.5322  0.4313 -0.0684
 5560TIP3   OH216643   3.215   5.924   1.254 -0.0321 -0.2360  0.1179
 5560TIP3    H116644   3.125   5.926   1.286 -0.1841 -0.8786 -0.2667
 5560TIP3    H216645   3.210   5.885   1.167  0.7861 -1.7366  0.7002
 5561TIP3   OH216646   2.114   3.696   0.582 -0.0344  0.0818  0.1562
 5561TIP3    H116647   2.053   3.659   0.517  1.0672 -0.6642 -0.4737
 5561TIP3    H216648   2.157   3.768   0.536  0.6406 -0.3535  0.0916
 5562TIP3   OH216649   3.449   5.233   4.921  0.5721 -0.4002  0.5713
 5562TIP3    H116650   3.379   5.180   4.958  0.7164 -0.7007  0.4137
 5562TIP3    H216651   3.512   5.170   4.886  0.7305 -0.1281  0.3569
 5563TIP3   OH216652   0.656   4.525   2.439 -0.4381 -0.5825  0.0643
 5563TIP3    H116653   0.710   4.586   2.389  0.2276 -0.4930  0.8667
 5563TIP3    H216654   0.698   4.520   2.525 -0.9670 -1.5150  0.2907
 5564TIP3   OH216655   4.949   1.755   3.460 -0.0784 -0.0738  0.1732
 5564TIP3    H116656   5.027   1.717   3.500  0.0754 -0.8713 -0.8295
 5564TIP3    H216657   4.955   1.849   3.477  1.6081  0.0185 -0.6951
 5565TIP3   OH216658   2.475   1.290   3.149  0.0346  0.1235 -0.0637
 5565TIP3    H116659   2.470   1.234   3.226  1.8951 -0.1573 -0.0899
 5565TIP3    H216660   2.483   1.379   3.183 -6.9564  1.2489  0.0604
 5566TIP3   OH216661   0.040   1.286   4.336 -0.5174  0.0730 -0.0373
 5566TIP3    H116662   0.110   1.350   4.324 -1.3100  0.6050 -2.2488
 5566TIP3    H216663   0.005   1.305   4.423  0.6938  1.1846  0.2360
 5567TIP3   OH216664   1.241   6.599   2.359  0.5562 -0.1875 -0.0920
 5567TIP3    H116665   1.159   6.568   2.321  1.3827 -0.9521 -1.3259
 5567TIP3    H216666   1.226   6.596   2.454 -0.9253 -0.0246 -0.2889
 5568TIP3   OH216667   1.563   1.929   4.793 -0.3459 -0.2127 -0.0376
 5568TIP3    H116668   1.534   1.919   4.702 -0.8678  1.6441 -0.1086
 5568TIP3    H216669   1.487   1.903   4.845 -1.6714  2.9487 -0.2141
 5569TIP3   OH216670   1.457   6.681   0.466  0.1860  0.3714 -0.2631
 5569TIP3    H116671   1.545   6.644   0.477 -0.2928 -0.5719  0.6291
 5569TIP3    H216672   1.456   6.757   0.523 -0.1733 -0.7370  1.2694
 5570TIP3   OH216673   0.166   4.005   1.461 -0.5712 -0.6786 -0.3259
 5570TIP3    H116674   0.165   3.956   1.379  1.7658 -0.2176 -0.7019
 5570TIP3    H216675   0.099   4.073   1.448  0.8148  0.3836 -2.5544
 5571TIP3   OH216676   3.600   1.949   2.537 -0.1411 -0.0015  0.4124
 5571TIP3    H116677   3.538   1.978   2.471 -1.6228  0.4950  1.9735
 5571TIP3    H216678   3.672   2.012   2.533 -0.4001  0.2412 -0.4415
 5572TIP3   OH216679   3.336   4.854   4.502 -0.1256 -0.4310 -0.1209
 5572TIP3    H116680   3.317   4.841   4.410  1.5032  3.7809 -1.2739
 5572TIP3    H216681   3.262   4.904   4.536  0.6852  0.7494 -0.0298
 5573TIP3   OH216682   5.141   3.852   4.904  0.1669  0.1649  0.0363
 5573TIP3    H116683   5.231   3.877   4.881  0.4834  0.8434  1.8298
 5573TIP3    H216684   5.108   3.926   4.954 -1.3698 -0.1422 -0.4807
 5574TIP3   OH216685   2.962   4.686   1.019  0.0956  0.3102  0.8838
 5574TIP3    H116686   3.037   4.742   0.999  1.1311 -1.1248  0.5871
 5574TIP3    H216687   2.973   4.663   1.111  0.6000 -0.7050  0.5847
 5575TIP3   OH216688   1.131   4.048   3.282 -0.8006 -0.3690 -0.1132
 5575TIP3    H116689   1.080   3.983   3.234 -0.8476 -1.3122  1.1612
 5575TIP3    H216690   1.218   4.009   3.290 -0.5479  0.1714 -0.2118
 5576TIP3   OH216691   4.712   5.343   5.493 -0.2561  0.8612  0.2383
 5576TIP3    H116692   4.732   5.282   5.563 -2.1015  1.8350  1.6961
 5576TIP3    H216693   4.770   5.418   5.509  0.0715  0.6453  0.0754
 5577TIP3   OH216694   5.859   0.851   1.716 -0.0256  0.3828  0.5142
 5577TIP3    H116695   5.857   0.783   1.648 -1.0219 -0.4180  1.3261
 5577TIP3    H216696   5.934   0.827   1.771 -0.1605  0.1427  0.5949
 5578TIP3   OH216697   2.755   1.781   3.043 -0.2074 -0.1167 -0.5407
 5578TIP3    H116698   2.706   1.833   2.979  0.2823  0.9957 -0.0452
 5578TIP3    H216699   2.831   1.836   3.064 -1.2246  0.3790  2.3174
 5579TIP3   OH216700   2.490   5.564   0.963 -0.5370 -0.7069  0.3989
 5579TIP3    H116701   2.570   5.563   1.015 -0.4445  1.1794  0.3578
 5579TIP3    H216702   2.448   5.647   0.985 -0.8888 -0.1931 -1.9313
 5580TIP3   OH216703   2.105   6.210   4.993  0.1871 -0.2552  0.1301
 5580TIP3    H116704   2.184   6.237   4.946  1.0644 -0.5014  1.3993
 5580TIP3    H216705   2.091   6.119   4.966  0.1271 -0.0944 -0.3787
 5581TIP3   OH216706   1.394   4.058   4.148  0.1155  0.1378  0.2976
 5581TIP3    H116707   1.394   4.056   4.053  1.5925 -0.0367  0.2776
 5581TIP3    H216708   1.480   4.092   4.172  0.2287 -0.9300  1.5633
 5582TIP3   OH216709   1.578   1.808   4.330 -0.3519 -0.6128  0.2952
 5582TIP3    H116710   1.602   1.885   4.278 -0.8710  0.4153  1.5296
 5582TIP3    H216711   1.650   1.746   4.316  0.9366  0.7613  0.6033
 5583TIP3   OH216712   5.801   0.333   3.311  0.3276  0.2166  0.6445
 5583TIP3    H116713   5.861   0.382   3.366  0.5796  1.5045 -0.7205
 5583TIP3    H216714   5.722   0.387   3.306  0.5640  0.4748 -0.7900
 5584TIP3   OH216715   3.897   3.334   0.164 -0.1803  0.4421 -0.2439
 5584TIP3    H116716   3.973   3.331   0.105 -0.1686 -0.9603 -0.1856
 5584TIP3    H216717   3.822   3.339   0.105 -0.0794  1.5917 -0.3055
 5585TIP3   OH216718   1.991   0.857   0.103  0.1451  0.3046  0.3786
 5585TIP3    H116719   2.000   0.943   0.062  0.1940  0.1301  0.0205
 5585TIP3    H216720   1.913   0.865   0.159  0.2710  0.6434  0.5048
 5586TIP3   OH216721   0.024   3.467   3.166  0.2500  0.0668 -0.1129
 5586TIP3    H116722   0.049   3.497   3.254  0.3548  1.2454 -0.5277
 5586TIP3    H216723  -0.028   3.389   3.182 -1.0137  1.1082  1.0968
 5587TIP3   OH216724   3.960   2.680   5.261  0.3166  0.1480  0.1107
 5587TIP3    H116725   3.943   2.625   5.338  0.2687 -0.7487 -0.5271
 5587TIP3    H216726   4.019   2.628   5.207 -0.8364  0.1010 -1.1628
 5588TIP3   OH216727   7.015   2.761   2.776 -0.1376  0.1038 -0.0520
 5588TIP3    H116728   6.945   2.811   2.736 -0.4852 -0.0926  0.3047
 5588TIP3    H216729   7.018   2.793   2.867  1.1156  1.0676 -0.3930
 5589TIP3   OH216730   4.129   3.132   5.716  0.3027  0.0739  0.1466
 5589TIP3    H116731   4.223   3.147   5.728  0.2439  0.1388  0.5623
 5589TIP3    H216732   4.123   3.055   5.661  0.6100  0.8329 -0.9833
 5590TIP3   OH216733   2.955   1.945   1.761 -0.1539  0.9412  0.2236
 5590TIP3    H116734   2.940   2.001   1.685  0.3061  0.7605 -0.0004
 5590TIP3    H216735   2.877   1.889   1.765 -0.0136  0.6928 -0.3427
 5591TIP3   OH216736   6.441   0.622   3.069 -0.2271  0.7930 -0.7267
 5591TIP3    H116737   6.399   0.540   3.045  0.5685  0.7415 -2.0307
 5591TIP3    H216738   6.369   0.681   3.089 -0.8150 -0.1275 -0.0084
 5592TIP3   OH216739   0.504   3.202   3.395 -0.0450  0.1185 -0.0980
 5592TIP3    H116740   0.503   3.227   3.302  0.9758  0.6451  0.0180
 5592TIP3    H216741   0.435   3.137   3.402  1.0019 -1.2577 -1.6178
 5593TIP3   OH216742   6.835   6.025   2.394 -0.5215  0.3378  0.1357
 5593TIP3    H116743   6.925   6.049   2.417  0.2811 -0.4460 -1.9200
 5593TIP3    H216744   6.845   5.952   2.333 -2.5793  0.1003  0.0110
 5594TIP3   OH216745   3.149   6.277   1.161 -0.4100  0.8349 -0.0522
 5594TIP3    H116746   3.145   6.365   1.199  1.3143  0.6530  0.6321
 5594TIP3    H216747   3.095   6.224   1.220  1.1951  0.8181  1.4840
 5595TIP3   OH216748   2.807   1.481   0.688 -0.2620 -0.3762 -0.2540
 5595TIP3    H116749   2.755   1.436   0.756  1.0575 -0.7616  0.5348
 5595TIP3    H216750   2.742   1.531   0.638 -1.2773 -0.0133  1.3420
 5596TIP3   OH216751   2.554   4.458   1.861 -0.2011  0.5324  0.0238
 5596TIP3    H116752   2.492   4.425   1.927  0.3820  0.8039  0.7205
 5596TIP3    H216753   2.505   4.456   1.779 -0.9058  0.0771  0.4470
 5597TIP3   OH216754   0.097   3.121   5.126 -0.1055  0.0090 -0.2138
 5597TIP3    H116755   0.028   3.064   5.160  0.4289 -0.5809 -0.1021
 5597TIP3    H216756   0.058   3.208   5.125 -0.6065 -0.1982  0.5578
 5598TIP3   OH216757   2.128   4.378   5.453  0.2140  0.3694  0.3088
 5598TIP3    H116758   2.149   4.419   5.369  0.8662  0.0886  0.3323
 5598TIP3    H216759   2.143   4.447   5.518 -0.4946  0.6512  0.1817
 5599TIP3   OH216760   3.908   0.113   2.333 -0.4911 -0.0293 -0.3255
 5599TIP3    H116761   3.998   0.117   2.365  0.6506  2.1772 -3.3264
 5599TIP3    H216762   3.900   0.026   2.293  0.3566 -0.1927 -0.1450
 5600TIP3   OH216763   0.598   4.531   2.977  0.6556  0.0079 -0.5275
 5600TIP3    H116764   0.612   4.439   2.998  0.7709 -0.2116 -1.5213
 5600TIP3    H216765   0.503   4.543   2.983  0.7305  0.1129  0.6971
 5601TIP3   OH216766   3.843   5.491   0.779 -0.2466  0.1241 -0.1283
 5601TIP3    H116767   3.764   5.502   0.833 -1.4012  0.9037 -1.8742
 5601TIP3    H216768   3.826   5.410   0.730  1.3323 -1.2572  1.4666
 5602TIP3   OH216769   5.789   6.030   5.534 -0.2869  0.1971  0.0732
 5602TIP3    H116770   5.760   5.948   5.575  0.5403  0.2209  0.7415
 5602TIP3    H216771   5.826   6.004   5.450 -1.1020  0.0324 -0.2458
 5603TIP3   OH216772   5.066   3.065   4.540  0.2529  0.4109 -0.3439
 5603TIP3    H116773   5.136   3.067   4.475  0.3744 -2.6406 -0.4583
 5603TIP3    H216774   5.005   3.132   4.511  1.4384  0.7554 -2.2554
 5604TIP3   OH216775   1.826   1.799   1.010  0.3926 -1.0746 -0.0441
 5604TIP3    H116776   1.914   1.781   0.978 -0.0237  1.6486 -3.3057
 5604TIP3    H216777   1.771   1.800   0.931 -1.4664  2.6561  1.0467
 5605TIP3   OH216778   1.288   1.907   5.428  0.4959 -0.5808 -0.5789
 5605TIP3    H116779   1.319   1.875   5.513  1.9565  1.5892 -0.2309
 5605TIP3    H216780   1.362   1.954   5.391 -0.9508  0.8152 -1.8591
 5606TIP3   OH216781   1.587   0.699   3.171  0.3164 -0.8815  0.6844
 5606TIP3    H116782   1.674   0.725   3.200  0.2162 -1.1831  1.2917
 5606TIP3    H216783   1.596   0.606   3.148  0.1244 -0.9612  0.9165
 5607TIP3   OH216784   3.227   1.583   1.911  0.4196 -0.4477  0.0430
 5607TIP3    H116785   3.216   1.600   2.005  1.4474  0.2647  0.0601
 5607TIP3    H216786   3.285   1.507   1.907 -0.2822 -0.9813 -0.0205
 5608TIP3   OH216787   6.860   3.334   2.884 -0.0715  0.2647 -0.2446
 5608TIP3    H116788   6.799   3.388   2.933 -0.5201  1.8829 -2.4347
 5608TIP3    H216789   6.917   3.396   2.839  1.3063 -1.1590 -0.5626
 5609TIP3   OH216790   4.896   6.677   5.392  0.3290  0.0036 -0.1796
 5609TIP3    H116791   4.874   6.733   5.317  0.9122  0.0285 -0.3387
 5609TIP3    H216792   4.948   6.606   5.354 -1.3120 -1.2611 -0.1570
 5610TIP3   OH216793   2.419   4.877   1.281 -0.6917 -0.1886 -0.1632
 5610TIP3    H116794   2.403   4.866   1.187  0.3612  0.4188 -0.4305
 5610TIP3    H216795   2.355   4.820   1.323 -1.2785 -0.3534 -1.2471
 5611TIP3   OH216796   3.226   0.829   3.396  0.0846 -0.1872 -1.0354
 5611TIP3    H116797   3.232   0.876   3.313 -2.5142 -0.0679 -1.2242
 5611TIP3    H216798   3.137   0.795   3.398 -0.4014  0.9567  2.3122
 5612TIP3   OH216799   1.732   1.121   2.342  0.4439  0.5341 -0.1473
 5612TIP3    H116800   1.778   1.053   2.293  2.0859  2.0924 -0.8770
 5612TIP3    H216801   1.657   1.144   2.288 -0.6593 -1.2737  0.5346
 5613TIP3   OH216802   3.452   4.760   0.224 -0.1137  0.2745 -0.4627
 5613TIP3    H116803   3.503   4.684   0.195 -1.6126 -1.4226  1.1315
 5613TIP3    H216804   3.373   4.758   0.172 -0.6036  0.1369  0.2701
 5614TIP3   OH216805   5.691   6.661   1.204  0.2494  0.1343  0.1467
 5614TIP3    H116806   5.626   6.596   1.229 -0.3004  0.2927 -0.8037
 5614TIP3    H216807   5.770   6.637   1.253 -0.3327 -0.4457  0.8140
 5615TIP3   OH216808   5.749   1.226   1.722  0.0144  0.0964  0.0382
 5615TIP3    H116809   5.659   1.249   1.702  0.2167  0.3716 -0.5613
 5615TIP3    H216810   5.783   1.187   1.642  0.3232 -0.3415  0.3719
 5616TIP3   OH216811   5.041   3.293   1.024  0.0183  0.2346 -0.1034
 5616TIP3    H116812   5.117   3.314   1.078  0.5004 -0.9021 -0.3153
 5616TIP3    H216813   5.033   3.367   0.964 -0.9309  1.8691  1.8710
 5617TIP3   OH216814   6.696   0.480   4.015 -0.4940 -0.1207  0.3928
 5617TIP3    H116815   6.694   0.568   3.979  0.7763 -0.6774 -1.1906
 5617TIP3    H216816   6.642   0.428   3.955 -0.1114 -0.6610  0.5042
 5618TIP3   OH216817  -0.011   5.842   5.158  0.0588  0.7402  0.0903
 5618TIP3    H116818  -0.064   5.854   5.237 -1.2315 -3.2679  0.0680
 5618TIP3    H216819   0.079   5.833   5.190 -0.4335 -0.6912  1.1315
 5619TIP3   OH216820   5.355   5.861   4.334  0.0080  0.0507  0.0414
 5619TIP3    H116821   5.406   5.783   4.355  0.0678  0.3094  0.8928
 5619TIP3    H216822   5.354   5.912   4.415  1.0332  1.5526 -0.8354
 5620TIP3   OH216823   6.253   6.476   5.143 -0.7016  0.0387  0.0279
 5620TIP3    H116824   6.323   6.485   5.078  0.8405 -1.8650  1.2862
 5620TIP3    H216825   6.285   6.523   5.220 -0.0329 -2.0710  1.1167
 5621TIP3   OH216826   2.284   4.639   2.883  0.1668  0.4740  0.2665
 5621TIP3    H116827   2.374   4.625   2.854  0.2868  2.0365 -0.2461
 5621TIP3    H216828   2.269   4.573   2.950  1.8230  0.4254  0.6202
 5622TIP3   OH216829   6.385   1.305   3.494  0.2506  0.2282  0.0033
 5622TIP3    H116830   6.460   1.346   3.451  0.2679 -0.1400 -0.3239
 5622TIP3    H216831   6.310   1.355   3.463  0.4389  1.1636  1.0258
 5623TIP3   OH216832   4.578   5.057   4.427 -0.0369  0.3644  0.3536
 5623TIP3    H116833   4.582   5.145   4.464 -1.7062  1.2242 -1.3312
 5623TIP3    H216834   4.499   5.058   4.372  0.0858 -2.0866  0.0335
 5624TIP3   OH216835   3.602   4.077   2.407 -0.2438  0.0831 -0.2544
 5624TIP3    H116836   3.515   4.049   2.436 -0.1354  1.4786  1.6241
 5624TIP3    H216837   3.597   4.077   2.312 -1.5375 -2.0922 -0.2438
 5625TIP3   OH216838   2.569   1.787   2.351  0.2673 -0.0845  0.0649
 5625TIP3    H116839   2.498   1.838   2.312 -0.3940 -0.2783  0.9788
 5625TIP3    H216840   2.619   1.754   2.277 -0.2608  0.5310 -0.5790
 5626TIP3   OH216841   1.436   3.266   5.618 -0.2332 -0.2839 -0.2453
 5626TIP3    H116842   1.352   3.229   5.592  0.4029 -1.6710 -0.4666
 5626TIP3    H216843   1.456   3.225   5.702 -0.6363  1.4832  0.7419
 5627TIP3   OH216844   3.284   4.632   4.642  0.1086 -0.3651  0.0632
 5627TIP3    H116845   3.328   4.710   4.608  0.5659 -0.5281  0.2847
 5627TIP3    H216846   3.269   4.577   4.565 -0.4656  0.0614 -0.1366
 5628TIP3   OH216847   3.219   1.621   5.219 -0.2713 -0.1123 -0.0696
 5628TIP3    H116848   3.297   1.579   5.254 -1.4163 -1.4355  0.9939
 5628TIP3    H216849   3.156   1.549   5.207 -1.8430  1.1012  0.5539
 5629TIP3   OH216850   3.119   4.649   1.843  0.1239 -0.5124  0.0348
 5629TIP3    H116851   3.163   4.607   1.768  1.9941 -3.1032  2.3810
 5629TIP3    H216852   3.027   4.654   1.817  0.4539 -2.6975 -1.8736
 5630TIP3   OH216853   5.025   4.569   0.985  0.1035  0.0786 -0.5406
 5630TIP3    H116854   5.073   4.528   0.913 -1.1505 -1.7128 -0.4257
 5630TIP3    H216855   5.011   4.498   1.048 -0.8691  1.0525  0.3739
 5631TIP3   OH216856   2.818   2.961   0.779  0.0707  0.0041  0.3879
 5631TIP3    H116857   2.820   2.943   0.685 -0.5365 -1.2728  0.5966
 5631TIP3    H216858   2.819   3.057   0.785  0.7613  0.0957 -0.8897
 5632TIP3   OH216859   0.428   1.118   2.373  0.2073 -0.2965  0.2996
 5632TIP3    H116860   0.487   1.063   2.424  0.1393  1.5240  2.4726
 5632TIP3    H216861   0.362   1.149   2.435 -1.1924  0.3029 -1.3694
 5633TIP3   OH216862   4.446   6.644   2.372 -0.0318  0.0823  0.0813
 5633TIP3    H116863   4.506   6.706   2.412  1.4513 -0.4521 -1.2147
 5633TIP3    H216864   4.449   6.567   2.429  0.1821  0.2178  0.2506
 5634TIP3   OH216865   0.055   0.713   4.849 -0.6850  0.2954 -0.3086
 5634TIP3    H116866   0.111   0.637   4.833 -1.0436  0.2260 -1.3489
 5634TIP3    H216867  -0.007   0.683   4.915 -0.1152  0.0561  0.1226
 5635TIP3   OH216868   2.645   2.978   4.939  0.5493 -0.2615  0.6608
 5635TIP3    H116869   2.678   2.954   4.852 -0.9421  2.0324 -0.6505
 5635TIP3    H216870   2.628   2.894   4.982  0.9809 -1.4927 -1.4036
 5636TIP3   OH216871   2.693   3.700   2.420 -0.6027  0.6119  0.4046
 5636TIP3    H116872   2.703   3.768   2.487  1.3865  1.8632 -1.0359
 5636TIP3    H216873   2.613   3.725   2.373 -0.5756  1.2387  0.6819
 5637TIP3   OH216874   1.511   1.035   4.025 -0.4845  0.2355  0.0123
 5637TIP3    H116875   1.466   0.953   4.003  1.9176 -1.4222  0.8964
 5637TIP3    H216876   1.574   1.048   3.954  0.3444  0.3580  0.7513
 5638TIP3   OH216877   7.101   5.223   0.494 -0.2477 -0.0826  0.1053
 5638TIP3    H116878   7.071   5.156   0.432 -0.1112 -1.1179  1.1321
 5638TIP3    H216879   7.191   5.242   0.467 -0.3357 -0.2152 -0.2855
 5639TIP3   OH216880   1.499   5.546   1.796 -0.5012 -0.5078 -0.4395
 5639TIP3    H116881   1.419   5.589   1.825 -0.1011 -0.8596  1.2898
 5639TIP3    H216882   1.482   5.453   1.811 -0.6547 -0.8414 -2.3847
 5640TIP3   OH216883   3.595   1.776   0.237 -0.6170 -0.0638 -0.6045
 5640TIP3    H116884   3.680   1.751   0.200 -1.1045 -2.5382 -0.2237
 5640TIP3    H216885   3.543   1.695   0.235 -2.7664  1.2355 -0.2493
 5641TIP3   OH216886   1.385   5.651   4.379  0.2471 -0.4432  0.3784
 5641TIP3    H116887   1.326   5.577   4.392  1.1456 -0.9064  2.2998
 5641TIP3    H216888   1.335   5.727   4.408 -0.3697 -0.4069 -0.7436
 5642TIP3   OH216889   2.275   3.447   0.918  0.0646  0.0895 -0.4585
 5642TIP3    H116890   2.240   3.519   0.866 -0.4988 -0.0803 -0.3237
 5642TIP3    H216891   2.280   3.374   0.857 -0.3915 -0.0501 -0.3348
 5643TIP3   OH216892   2.559   3.400   2.882  0.1882  0.0480 -0.5328
 5643TIP3    H116893   2.547   3.451   2.802 -0.8316  1.0188  0.1957
 5643TIP3    H216894   2.470   3.382   2.913  0.5622 -0.4212  0.3101
 5644TIP3   OH216895   6.408   5.359   5.664 -0.6017 -0.7048 -0.0746
 5644TIP3    H116896   6.478   5.311   5.708 -1.1782 -0.9477  0.6128
 5644TIP3    H216897   6.339   5.366   5.731 -0.4936  1.1925 -0.1008
 5645TIP3   OH216898   3.971   4.032   1.272 -0.2032 -0.1590  0.3685
 5645TIP3    H116899   4.056   4.011   1.232 -0.5461 -2.0781  0.5320
 5645TIP3    H216900   3.952   3.956   1.328 -0.9418  1.3031  2.1922
 5646TIP3   OH216901   6.297   2.465   0.623  0.1095  0.0375  0.2214
 5646TIP3    H116902   6.224   2.413   0.590  0.1403 -0.0734  0.3284
 5646TIP3    H216903   6.347   2.488   0.545  0.9567 -1.3898  0.3124
 5647TIP3   OH216904   5.586   2.072   5.219 -0.3143  0.0283 -0.1844
 5647TIP3    H116905   5.504   2.099   5.259 -0.1858  0.6603 -0.3436
 5647TIP3    H216906   5.593   2.126   5.140  0.0714 -0.2866 -0.3665
 5648TIP3   OH216907   0.812   2.915   3.456  0.1738 -0.1074 -0.2452
 5648TIP3    H116908   0.824   2.838   3.401  0.6990  0.6504 -1.2314
 5648TIP3    H216909   0.845   2.889   3.542 -0.6522 -1.3112 -0.2776
 5649TIP3   OH216910   4.623   0.393   2.571 -0.5077 -0.1120 -0.2451
 5649TIP3    H116911   4.690   0.430   2.629 -0.3220 -0.0969 -0.4662
 5649TIP3    H216912   4.580   0.325   2.623 -1.6153  1.1653  0.5609
 5650TIP3   OH216913   5.386   6.540   2.728 -0.3177  0.0757 -0.3853
 5650TIP3    H116914   5.400   6.463   2.783  0.9191 -0.9536 -2.0252
 5650TIP3    H216915   5.448   6.528   2.656 -1.7507  1.4474 -1.8994
 5651TIP3   OH216916   2.547   3.466   0.537 -0.0392  0.6497 -0.3729
 5651TIP3    H116917   2.620   3.516   0.572  0.6606  0.7937 -1.9400
 5651TIP3    H216918   2.586   3.381   0.513 -0.9448 -0.2267  1.1029
 5652TIP3   OH216919   0.931   3.626   3.166  0.0156 -0.0514 -0.3858
 5652TIP3    H116920   0.956   3.568   3.094 -0.5054  0.4899 -1.0196
 5652TIP3    H216921   0.956   3.579   3.245  0.2116 -0.8433 -0.9100
 5653TIP3   OH216922   1.130   5.354   0.009  0.3082 -0.1146  0.0525
 5653TIP3    H116923   1.037   5.376   0.008  0.4095  0.8871  3.0228
 5653TIP3    H216924   1.133   5.258   0.013 -0.5184 -0.2126 -1.3038
 5654TIP3   OH216925   4.610   0.992   4.852  0.1680  0.2985 -0.5284
 5654TIP3    H116926   4.704   0.997   4.835  0.0788  0.4228 -1.0033
 5654TIP3    H216927   4.598   0.909   4.897  0.8063  1.2784  1.5651
 5655TIP3   OH216928   0.782   5.614   2.850  0.2022  0.2894  0.2927
 5655TIP3    H116929   0.704   5.559   2.842  0.1090  0.4876 -0.1872
 5655TIP3    H216930   0.803   5.639   2.760 -0.2491  1.7463  0.5754
 5656TIP3   OH216931   0.841   0.688   3.618  0.5319  0.5012 -0.0997
 5656TIP3    H116932   0.867   0.762   3.673  1.6289  0.7335 -0.8945
 5656TIP3    H216933   0.819   0.728   3.534 -0.2777  0.0607 -0.1028
 5657TIP3   OH216934   2.191   5.100   2.901  0.3742 -0.2282 -0.0298
 5657TIP3    H116935   2.125   5.085   2.833  0.2318  2.5144 -0.5954
 5657TIP3    H216936   2.143   5.093   2.983 -0.3010  0.2565 -0.3773
 5658TIP3   OH216937   3.812   6.629   4.056 -0.1826  0.4730  0.5274
 5658TIP3    H116938   3.838   6.695   4.119 -0.3852 -0.0354  1.1545
 5658TIP3    H216939   3.736   6.586   4.095  0.7175 -1.0034  0.7541
 5659TIP3   OH216940   4.124   1.869   0.010  0.4265  0.0196 -0.4886
 5659TIP3    H116941   4.217   1.845   0.008  0.2537 -0.6347 -2.5755
 5659TIP3    H216942   4.123   1.953   0.056  2.1410  0.3661 -0.9930
 5660TIP3   OH216943   4.404   1.934   5.050  0.1199 -0.7365 -0.2740
 5660TIP3    H116944   4.347   1.860   5.072 -0.2027 -0.5274 -0.4017
 5660TIP3    H216945   4.432   1.917   4.960  1.1548 -1.4102  0.1669
 5661TIP3   OH216946   2.189   1.743   4.767 -0.5191  0.8394  0.4763
 5661TIP3    H116947   2.265   1.776   4.720  1.1623 -0.5364  2.1086
 5661TIP3    H216948   2.123   1.730   4.698  1.3501  0.2214 -1.3246
 5662TIP3   OH216949   6.316   4.862   3.847 -0.0732  0.1381 -0.0907
 5662TIP3    H116950   6.287   4.927   3.783 -0.6058 -0.9419 -0.9660
 5662TIP3    H216951   6.412   4.867   3.845 -0.1003  0.5290 -0.5251
 5663TIP3   OH216952   0.290   4.766   0.112 -0.2488  0.7490  0.1889
 5663TIP3    H116953   0.368   4.747   0.164 -0.2527 -0.3083 -0.1732
 5663TIP3    H216954   0.322   4.819   0.039  0.0749  0.6506  0.2561
 5664TIP3   OH216955   6.494   2.882   4.932 -0.1783  0.2107  0.0540
 5664TIP3    H116956   6.413   2.873   4.982  0.6335  0.5574  1.5161
 5664TIP3    H216957   6.508   2.976   4.926 -0.0146  0.1564 -0.4030
 5665TIP3   OH216958   3.155   3.445   4.439 -0.5788 -0.1975 -0.7941
 5665TIP3    H116959   3.144   3.530   4.483 -0.0136 -0.5772  0.1146
 5665TIP3    H216960   3.150   3.381   4.510  1.5458 -0.7567 -1.0945
 5666TIP3   OH216961   7.116   0.705   2.956  0.8608  0.0597  0.0046
 5666TIP3    H116962   7.064   0.627   2.939  1.7001 -0.3435 -0.7402
 5666TIP3    H216963   7.157   0.727   2.873  0.3104  1.5530  0.0934
 5667TIP3   OH216964   6.989   0.288   2.764 -0.4267 -0.1568  0.5426
 5667TIP3    H116965   7.065   0.333   2.800  0.9371 -0.4940 -1.7531
 5667TIP3    H216966   7.007   0.195   2.778 -1.3111 -0.1942  1.5994
 5668TIP3   OH216967   2.656   0.955   3.108 -0.4069 -0.1639 -0.3627
 5668TIP3    H116968   2.673   0.979   3.199  0.0590 -1.9473  0.0688
 5668TIP3    H216969   2.723   1.000   3.058 -1.0337  1.3230  0.0822
 5669TIP3   OH216970   3.106   5.759   0.187  0.6043 -0.3485 -0.6120
 5669TIP3    H116971   3.163   5.684   0.170  0.0015 -1.4148  1.5997
 5669TIP3    H216972   3.026   5.740   0.138 -0.1123 -1.9992  1.0474
 5670TIP3   OH216973   6.323   3.555   5.352 -0.2816  0.2034  0.1658
 5670TIP3    H116974   6.342   3.469   5.388 -0.2496  0.5849  1.0807
 5670TIP3    H216975   6.289   3.606   5.426 -0.8808  0.7956 -0.4991
 5671TIP3   OH216976   3.820   4.646   4.457  0.1170  0.2607  0.4353
 5671TIP3    H116977   3.825   4.673   4.548  0.0495  1.0225  0.2204
 5671TIP3    H216978   3.893   4.691   4.414  0.3299 -0.3260  0.1693
 5672TIP3   OH216979   4.195   5.640   5.726 -0.0136  0.3480 -0.5455
 5672TIP3    H116980   4.128   5.653   5.792  1.5350 -1.3528  1.4829
 5672TIP3    H216981   4.246   5.721   5.728  0.1132  0.2543  0.4737
 5673TIP3   OH216982   2.894   4.136   3.366 -0.2840 -0.7444  0.7514
 5673TIP3    H116983   2.885   4.185   3.447 -0.1232  0.4223  0.0814
 5673TIP3    H216984   2.919   4.048   3.394 -2.4539 -1.0087  2.0717
 5674TIP3   OH216985   5.046   6.284   5.875  0.8481 -0.1113  0.6457
 5674TIP3    H116986   5.102   6.326   5.810 -0.0420 -0.1150 -0.1448
 5674TIP3    H216987   4.969   6.254   5.825  0.3897 -0.5811  1.6038
 5675TIP3   OH216988   5.080   2.919   0.999 -0.1784 -0.9035 -0.2672
 5675TIP3    H116989   5.048   2.975   0.929 -1.8908  0.0383  1.1836
 5675TIP3    H216990   5.165   2.957   1.023 -1.1486  0.9275  0.4639
 5676TIP3   OH216991   4.849   6.364   3.775 -0.5904  0.1630  0.4209
 5676TIP3    H116992   4.844   6.325   3.862  1.4047 -1.0035  0.0832
 5676TIP3    H216993   4.911   6.437   3.785 -1.2215  0.7458  0.1928
 5677TIP3   OH216994   0.348   2.885   0.360 -0.0588  0.4868  0.3289
 5677TIP3    H116995   0.257   2.862   0.342  0.1494 -1.7156  1.7309
 5677TIP3    H216996   0.349   2.914   0.451  0.7345 -0.1096  0.5225
 5678TIP3   OH216997   2.254   2.453   4.303 -0.4801 -0.1031  0.5718
 5678TIP3    H116998   2.281   2.495   4.222  1.9814 -0.4546  1.1458
 5678TIP3    H216999   2.237   2.525   4.363  0.1751  0.1227  0.4867
 5679TIP3   OH217000   4.420   1.088   1.794  0.2641 -0.5201  0.3508
 5679TIP3    H117001   4.422   1.113   1.702  0.2018 -0.5164  0.3504
 5679TIP3    H217002   4.379   1.162   1.838  1.7147  0.1650  0.5984
 5680TIP3   OH217003   6.801   5.616   3.576  1.0667  0.1306  0.5431
 5680TIP3    H117004   6.803   5.698   3.527  0.9924  0.7952  1.6049
 5680TIP3    H217005   6.818   5.643   3.667  0.6560 -0.9896  0.9633
 5681TIP3   OH217006   2.632   0.262   2.981 -0.9024 -0.3020  0.6768
 5681TIP3    H117007   2.540   0.237   2.982 -1.3481  1.1799 -0.2251
 5681TIP3    H217008   2.636   0.344   3.030  0.0746 -0.7509  1.3781
 5682TIP3   OH217009   2.608   6.759   4.542 -0.2357  0.0441 -0.0844
 5682TIP3    H117010   2.610   6.712   4.459 -0.5421 -0.4044  0.1551
 5682TIP3    H217011   2.549   6.832   4.527 -0.3872 -0.1072 -0.2261
 5683TIP3   OH217012   5.145   4.255   2.363 -0.0478 -0.0383  0.0152
 5683TIP3    H117013   5.104   4.341   2.367 -1.2201 -0.5887  0.8585
 5683TIP3    H217014   5.174   4.246   2.272 -0.9805  0.7754 -0.3891
 5684TIP3   OH217015   6.030   2.096   3.303  0.3487 -0.1847  0.3386
 5684TIP3    H117016   6.049   2.120   3.212 -0.6876 -0.7934 -0.0662
 5684TIP3    H217017   5.967   2.162   3.332 -0.9742 -1.1906 -0.1216
 5685TIP3   OH217018   5.680   2.541   2.339 -0.1989 -0.2638  0.3945
 5685TIP3    H117019   5.642   2.612   2.288  1.2223  0.1572 -0.1173
 5685TIP3    H217020   5.709   2.477   2.274  0.6503 -0.2167  0.7040
 5686TIP3   OH217021   6.270   6.188   4.159  0.1249 -0.4703 -0.5992
 5686TIP3    H117022   6.269   6.110   4.215  0.2573 -0.2584 -0.2973
 5686TIP3    H217023   6.284   6.154   4.071 -2.4453 -1.0344 -0.8749
 5687TIP3   OH217024   4.970   1.359   5.429 -0.1875  0.2074  0.0732
 5687TIP3    H117025   4.934   1.270   5.420 -0.7573  0.4486 -0.0806
 5687TIP3    H217026   5.045   1.360   5.370  0.6502 -0.5917  1.0765
 5688TIP3   OH217027   2.884   5.074   1.962 -0.2819  0.3329  0.4425
 5688TIP3    H117028   2.820   5.107   2.025 -0.4542 -0.1156  0.5024
 5688TIP3    H217029   2.836   5.010   1.910  0.6134 -1.4674  1.7480
 5689TIP3   OH217030   1.560   2.298   5.360  0.0437 -0.0262 -0.1206
 5689TIP3    H117031   1.572   2.388   5.391  2.7180 -0.8002  1.4385
 5689TIP3    H217032   1.621   2.289   5.287 -0.1312 -0.5984 -0.1985
 5690TIP3   OH217033   5.815   3.052   5.726 -0.8230 -0.1160  0.1021
 5690TIP3    H117034   5.733   3.023   5.767 -0.4520 -0.5196  0.5678
 5690TIP3    H217035   5.793   3.063   5.633 -1.3734 -0.3480  0.2029
 5691TIP3   OH217036   6.152   2.621   1.752 -0.0754  0.7820 -0.0261
 5691TIP3    H117037   6.212   2.696   1.762 -0.2844  0.7364  2.3685
 5691TIP3    H217038   6.209   2.546   1.739  0.1878  1.1873 -1.3431
 5692TIP3   OH217039   5.093   1.068   3.568  0.5997  0.2276  0.7654
 5692TIP3    H117040   5.144   1.052   3.647  0.1896 -0.7979  0.8479
 5692TIP3    H217041   5.024   1.001   3.571 -0.5610  1.3696  0.5088
 5693TIP3   OH217042   2.862   1.413   4.622 -0.4442 -0.4362  0.1551
 5693TIP3    H117043   2.783   1.383   4.666 -0.7596 -1.9169 -1.3078
 5693TIP3    H217044   2.834   1.426   4.531  0.5218  1.0497  0.0471
 5694TIP3   OH217045   1.940   4.236   0.739  0.1670  0.0422  0.0705
 5694TIP3    H117046   1.927   4.194   0.654  0.4144 -0.8843  0.4769
 5694TIP3    H217047   1.963   4.327   0.718 -0.1619 -0.0730 -0.8325
 5695TIP3   OH217048   6.517   5.022   5.286  0.0485 -0.3193 -0.4353
 5695TIP3    H117049   6.562   5.089   5.234  0.5235  0.9245  1.4631
 5695TIP3    H217050   6.476   5.071   5.357 -0.1999 -1.9867  0.6156
 5696TIP3   OH217051   0.849   1.626   1.653  0.0860 -0.5201  0.6770
 5696TIP3    H117052   0.840   1.628   1.557  0.8096  0.7453  0.6080
 5696TIP3    H217053   0.806   1.545   1.679 -0.4415 -0.7165 -0.6899
 5697TIP3   OH217054   1.980   5.475   0.765 -0.2548  0.3302 -0.1368
 5697TIP3    H117055   1.945   5.515   0.685 -2.0299  0.5625  0.6983
 5697TIP3    H217056   2.006   5.549   0.819 -3.2489  0.5184  1.2790
 5698TIP3   OH217057   3.987   4.588   5.148  0.4888  0.3279 -0.3089
 5698TIP3    H117058   3.920   4.656   5.143  2.4715  2.3930 -0.3396
 5698TIP3    H217059   4.005   4.564   5.057  2.3131  2.4932 -0.6039
 5699TIP3   OH217060   3.513   1.626   2.988 -0.0559  0.2200  0.0597
 5699TIP3    H117061   3.525   1.690   2.918 -0.8356  0.3753  0.0599
 5699TIP3    H217062   3.432   1.653   3.032  0.8881  0.6562  1.5963
 5700TIP3   OH217063   4.618   2.012   4.867  0.3983 -0.1552  0.2057
 5700TIP3    H117064   4.711   2.036   4.865  0.0892  1.2987  1.3957
 5700TIP3    H217065   4.573   2.093   4.842 -0.6709  0.3816  3.3777
 5701TIP3   OH217066   1.335   2.831   0.622  0.5309 -0.0899  0.1669
 5701TIP3    H117067   1.280   2.784   0.685  1.5986 -2.5866 -0.6156
 5701TIP3    H217068   1.424   2.822   0.657  0.8190  0.9536 -0.2671
 5702TIP3   OH217069   7.135   3.320   2.732 -0.2556 -0.2463  0.0077
 5702TIP3    H117070   7.181   3.320   2.648 -1.0871  1.0635 -0.4823
 5702TIP3    H217071   7.081   3.399   2.729 -1.0442 -0.7077  1.3755
 5703TIP3   OH217072   5.887   3.350   2.303  0.0320  0.3099 -0.2824
 5703TIP3    H117073   5.886   3.339   2.208 -1.4598 -2.4037 -0.0644
 5703TIP3    H217074   5.978   3.373   2.323  0.5081  0.4323 -2.3100
 5704TIP3   OH217075   0.104   2.913   3.667  0.3956 -0.2265 -0.5937
 5704TIP3    H117076   0.152   2.978   3.614 -1.2001  1.5416  0.0355
 5704TIP3    H217077   0.173   2.863   3.710  1.7317  1.8151 -0.1998
 5705TIP3   OH217078   2.559   1.183   5.354 -0.0479  0.1593 -0.5981
 5705TIP3    H117079   2.518   1.097   5.339  0.4612 -0.2603  0.3576
 5705TIP3    H217080   2.524   1.238   5.284 -0.4376 -0.8086 -1.1889
 5706TIP3   OH217081   2.518   3.686   4.822  0.1033  0.5669 -0.4741
 5706TIP3    H117082   2.583   3.626   4.859 -0.2941  1.1487  1.2671
 5706TIP3    H217083   2.569   3.753   4.777  0.6037 -0.2067 -1.0873
 5707TIP3   OH217084   4.191   2.312   3.816 -0.2280  0.5491  0.1350
 5707TIP3    H117085   4.154   2.393   3.849 -0.6723  0.0027  1.0299
 5707TIP3    H217086   4.253   2.339   3.748 -2.6369  1.4741 -1.8487
 5708TIP3   OH217087   0.443   4.156   1.477  0.8145 -0.0153 -0.0351
 5708TIP3    H117088   0.399   4.198   1.403  0.7833  0.1874  0.0971
 5708TIP3    H217089   0.457   4.066   1.449  0.9208  0.0960 -0.3382
 5709TIP3   OH217090   3.391   6.391   4.880  0.1789  0.2344  0.1494
 5709TIP3    H117091   3.403   6.303   4.844  0.4500  0.4303 -0.2294
 5709TIP3    H217092   3.317   6.427   4.832  2.4413  1.7039 -2.5256
 5710TIP3   OH217093   4.668   3.808   1.451  0.7888 -0.4287 -0.5397
 5710TIP3    H117094   4.692   3.746   1.382  3.0221 -0.9373  0.6253
 5710TIP3    H217095   4.725   3.883   1.438  0.4737 -0.0635  0.1253
 5711TIP3   OH217096   2.276   2.965   0.347 -0.1657  0.2987 -0.4704
 5711TIP3    H117097   2.255   2.937   0.258 -0.7166  1.4144 -0.7141
 5711TIP3    H217098   2.264   2.887   0.401  0.2743 -0.4143 -1.3846
 5712TIP3   OH217099   3.392   5.114   3.867 -0.6058 -0.8216 -0.6947
 5712TIP3    H117100   3.420   5.076   3.951  0.9526  2.4540  0.4514
 5712TIP3    H217101   3.297   5.114   3.871 -0.5687 -0.4579  1.2807
 5713TIP3   OH217102   4.834   5.170   2.298  0.4503  0.2548  0.0895
 5713TIP3    H117103   4.793   5.152   2.383 -0.0778  0.6766 -0.0698
 5713TIP3    H217104   4.895   5.097   2.286  1.8968  1.1279  1.6574
 5714TIP3   OH217105   0.190   5.015   3.834 -0.1616  0.3094 -1.0733
 5714TIP3    H117106   0.130   5.006   3.908 -0.2884 -3.0013 -1.4594
 5714TIP3    H217107   0.267   5.057   3.871 -1.4065  1.6108  0.1773
 5715TIP3   OH217108   0.889   2.680   5.397 -0.1268  0.6234 -0.0541
 5715TIP3    H117109   0.810   2.730   5.376 -0.3478  0.2608 -0.0873
 5715TIP3    H217110   0.861   2.589   5.392  0.0520  0.5088  0.8605
 5716TIP3   OH217111  -0.008   1.006   4.003 -0.1658 -0.3961  0.0597
 5716TIP3    H117112   0.080   0.997   4.040 -0.0055  0.5322 -0.0801
 5716TIP3    H217113  -0.043   1.084   4.045 -0.8929 -0.7088  0.0406
 5717TIP3   OH217114   5.214   4.429   3.502 -0.0823 -0.1979  0.0690
 5717TIP3    H117115   5.220   4.417   3.407 -0.2017 -0.5081  0.0990
 5717TIP3    H217116   5.303   4.451   3.529  0.2677 -1.5333  0.0755
 5718TIP3   OH217117   0.974   1.835   0.214  0.4413  0.1822 -0.4414
 5718TIP3    H117118   1.001   1.745   0.198  0.7339  0.1809  0.0307
 5718TIP3    H217119   0.883   1.828   0.242  0.4259  0.0439 -0.5272
 5719TIP3   OH217120   1.768   1.557   5.216  0.5541 -0.2216 -0.4240
 5719TIP3    H117121   1.701   1.500   5.180  0.3205  0.6339 -1.3849
 5719TIP3    H217122   1.722   1.611   5.280 -0.1999  1.7966 -2.5378
 5720TIP3   OH217123   1.756   4.404   1.698 -0.1531 -0.1746  0.5324
 5720TIP3    H117124   1.668   4.440   1.708  0.2285  1.1056 -0.4234
 5720TIP3    H217125   1.767   4.392   1.604  0.0612 -2.0661  0.7455
 5721TIP3   OH217126   1.306   5.966   5.034  0.0842 -0.2639 -0.0702
 5721TIP3    H117127   1.329   6.059   5.043 -0.1362 -0.2393  0.2573
 5721TIP3    H217128   1.252   5.963   4.955  0.5653 -0.2028 -0.4034
 5722TIP3   OH217129   5.568   1.674   5.474 -0.4250 -0.4457 -0.4280
 5722TIP3    H117130   5.499   1.699   5.536 -0.9945 -0.4884 -1.0313
 5722TIP3    H217131   5.536   1.705   5.389  0.6226  0.1592 -0.6207
 5723TIP3   OH217132   0.218   3.348   3.636  0.4513  0.2884  0.4099
 5723TIP3    H117133   0.207   3.273   3.578  0.0317  2.7381 -2.9813
 5723TIP3    H217134   0.310   3.372   3.627  0.3655  0.7369  0.6936
 5724TIP3   OH217135   4.518   5.269   4.140  0.1896 -0.2823  0.3498
 5724TIP3    H117136   4.471   5.194   4.175 -1.0173 -0.3720 -1.3219
 5724TIP3    H217137   4.552   5.315   4.216 -0.9960 -1.2849  1.5181
 5725TIP3   OH217138   6.800   0.160   5.694 -0.3426  0.7944 -0.1578
 5725TIP3    H117139   6.833   0.249   5.683 -1.8925  1.2788 -1.2506
 5725TIP3    H217140   6.878   0.105   5.686  0.4635  1.9787 -0.8367
 5726TIP3   OH217141   5.241   0.575   3.816  0.2022 -0.8091 -0.1226
 5726TIP3    H117142   5.222   0.550   3.907  0.0221 -1.6578 -0.3849
 5726TIP3    H217143   5.155   0.594   3.779  0.4064  1.3055  0.3603
 5727TIP3   OH217144   6.113   5.010   1.891  0.0911  0.4925 -0.4290
 5727TIP3    H117145   6.025   5.048   1.888 -0.1727  0.0517  0.9880
 5727TIP3    H217146   6.101   4.923   1.928  1.0877  0.3093 -0.4958
 5728TIP3   OH217147   1.266   2.422   0.182  0.1141 -0.3477  0.1526
 5728TIP3    H117148   1.343   2.406   0.237 -0.4976 -1.3030  0.7761
 5728TIP3    H217149   1.294   2.487   0.118  1.1994 -0.0971  0.8675
 5729TIP3   OH217150   4.587   3.395   4.546 -0.3501  0.0436  0.6334
 5729TIP3    H117151   4.521   3.326   4.550 -1.5744  1.2276  1.5653
 5729TIP3    H217152   4.556   3.462   4.607  2.0997  0.3235  1.6856
 5730TIP3   OH217153   2.189   0.249   5.216  0.1201  0.0999  0.0665
 5730TIP3    H117154   2.195   0.163   5.258  0.2257  0.4764  0.8341
 5730TIP3    H217155   2.191   0.312   5.288  0.6657  0.7763 -0.5156
 5731TIP3   OH217156   2.682   4.736   2.125  0.0500  0.0178 -0.0597
 5731TIP3    H117157   2.771   4.743   2.160 -0.2704  3.0962  0.3684
 5731TIP3    H217158   2.674   4.644   2.100  3.2277 -0.4499  0.1907
 5732TIP3   OH217159   2.713   3.646   1.467  0.5846 -0.3471 -0.1289
 5732TIP3    H117160   2.737   3.737   1.448  2.2877 -0.5548  0.8347
 5732TIP3    H217161   2.715   3.640   1.563  1.9375 -1.7185 -0.1974
 5733TIP3   OH217162   4.610   4.564   1.061 -0.0927  0.1040  0.4295
 5733TIP3    H117163   4.584   4.643   1.108 -1.0474 -0.2623  0.5425
 5733TIP3    H217164   4.534   4.506   1.068  0.4642 -0.6905  0.0542
 5734TIP3   OH217165   3.681   0.044   5.718 -0.1614  1.0908 -0.0256
 5734TIP3    H117166   3.596   0.017   5.684  0.1036  0.7396 -0.4213
 5734TIP3    H217167   3.666   0.131   5.755 -0.3447  1.7154 -1.5000
 5735TIP3   OH217168   4.147   5.134   5.530  0.5496  0.2892 -0.0996
 5735TIP3    H117169   4.134   5.217   5.578 -0.5257  1.0653 -1.6641
 5735TIP3    H217170   4.242   5.128   5.520  0.6442  1.4619 -0.1348
 5736TIP3   OH217171   6.534   1.324   4.658  0.0379  0.6455  0.3526
 5736TIP3    H117172   6.498   1.399   4.705 -0.4128  1.3033 -0.9775
 5736TIP3    H217173   6.624   1.348   4.638 -0.2603  1.0824 -0.5286
 5737TIP3   OH217174   2.376   4.436   3.688 -0.0349  1.1564 -0.2755
 5737TIP3    H117175   2.452   4.383   3.665 -0.0838  0.0525  1.8330
 5737TIP3    H217176   2.327   4.445   3.606  0.7474 -0.7941 -1.0188
 5738TIP3   OH217177   4.509   2.865   5.619 -0.0612 -0.6992 -0.1648
 5738TIP3    H117178   4.524   2.884   5.712 -0.6590 -1.5237  0.1132
 5738TIP3    H217179   4.459   2.783   5.619  0.5407 -1.0902 -1.2347
 5739TIP3   OH217180   1.124   6.067   3.662 -0.4726 -0.3205 -0.6840
 5739TIP3    H117181   1.070   6.127   3.610 -0.2466 -0.2070 -0.7895
 5739TIP3    H217182   1.206   6.059   3.612  0.8488  1.9170  0.9319
 5740TIP3   OH217183   3.527   3.585   5.093  0.3224 -0.4172  0.1814
 5740TIP3    H117184   3.590   3.652   5.066 -0.0097 -0.6648 -1.2984
 5740TIP3    H217185   3.498   3.613   5.179 -0.5126  1.8984 -0.7688
 5741TIP3   OH217186   6.415   3.008   3.519  0.2091 -0.4752 -0.0648
 5741TIP3    H117187   6.378   2.981   3.435  2.7494 -0.1390 -1.3992
 5741TIP3    H217188   6.509   3.012   3.503  0.6611  0.9289  2.4502
 5742TIP3   OH217189   6.266   4.107   5.324  0.1343  0.2797  0.1344
 5742TIP3    H117190   6.329   4.175   5.303 -0.9386  1.1466 -0.3411
 5742TIP3    H217191   6.277   4.093   5.418  0.9523  0.4971  0.0751
 5743TIP3   OH217192   5.440   5.445   3.083 -0.1790 -0.4679 -0.3592
 5743TIP3    H117193   5.352   5.423   3.114  0.2476  1.0527  2.2045
 5743TIP3    H217194   5.427   5.521   3.025 -0.6533 -1.1407 -1.1582
 5744TIP3   OH217195   1.779   2.205   1.027 -0.3537 -0.1679 -0.1367
 5744TIP3    H117196   1.805   2.297   1.023  2.3318 -0.8133  0.6637
 5744TIP3    H217197   1.698   2.205   1.078  0.8063  1.6047  1.8663
 5745TIP3   OH217198   3.603   1.024   4.791  0.6933  0.8841  0.1530
 5745TIP3    H117199   3.611   1.054   4.700  0.3774  2.0836  0.5089
 5745TIP3    H217200   3.550   1.091   4.834  1.2990  0.6158  1.3571
 5746TIP3   OH217201   5.763   1.892   2.516 -0.3084  0.6670  0.0739
 5746TIP3    H117202   5.837   1.933   2.470 -1.5258  1.7413 -0.9905
 5746TIP3    H217203   5.722   1.964   2.564 -0.7417  0.0966  0.5674
 5747TIP3   OH217204   3.747   2.459   5.847  0.5901  0.3372  0.0305
 5747TIP3    H117205   3.658   2.488   5.828  0.8469  0.8098 -0.4892
 5747TIP3    H217206   3.798   2.490   5.773  0.8447 -1.6967 -0.7077
 5748TIP3   OH217207   0.778   2.607   3.581 -0.4878  0.2811 -0.1815
 5748TIP3    H117208   0.842   2.669   3.616 -0.8063  0.4794  0.0524
 5748TIP3    H217209   0.785   2.530   3.638 -1.1856  0.7007  0.4870
 5749TIP3   OH217210   0.518   6.198   5.041 -0.4642  0.0006 -0.3270
 5749TIP3    H117211   0.567   6.201   5.123 -1.1384 -0.1688  0.0838
 5749TIP3    H217212   0.426   6.209   5.066 -0.7026 -0.3134 -1.0287
 5750TIP3   OH217213   5.837   5.522   5.622  0.4404 -0.3994  0.4486
 5750TIP3    H117214   5.900   5.594   5.624 -0.7606  0.7361 -0.3763
 5750TIP3    H217215   5.860   5.471   5.544  0.6949 -0.3442  0.4878
 5751TIP3   OH217216   4.673   0.141   2.827 -0.3375 -0.1073  0.2296
 5751TIP3    H117217   4.708   0.152   2.915  0.7754  0.0591 -0.2194
 5751TIP3    H217218   4.609   0.212   2.817  0.5609  0.7387  0.3964
 5752TIP3   OH217219   3.029   2.032   3.859  0.0446  0.3100  0.2100
 5752TIP3    H117220   3.016   1.937   3.860 -0.3266  0.3611  0.3014
 5752TIP3    H217221   3.043   2.056   3.951  2.2544  0.0616 -0.0265
 5753TIP3   OH217222   5.555   2.941   3.754 -0.1202 -0.5273 -0.1641
 5753TIP3    H117223   5.515   2.974   3.674  1.4804 -0.2138 -0.8710
 5753TIP3    H217224   5.552   3.014   3.815 -0.8374 -0.5901 -0.1158
 5754TIP3   OH217225   7.049   5.019   4.965  0.5981 -0.1746 -0.1235
 5754TIP3    H117226   7.018   4.928   4.969  0.1545 -0.0265 -0.0943
 5754TIP3    H217227   6.976   5.071   4.999  1.2635  0.1150  0.9164
 5755TIP3   OH217228   1.929   2.909   3.881  0.3262 -0.3728 -0.0404
 5755TIP3    H117229   1.921   2.838   3.945  0.5650  0.2565  0.7019
 5755TIP3    H217230   1.904   2.987   3.929 -2.2023 -0.1898 -1.4295
 5756TIP3   OH217231   5.977   3.401   0.993 -0.3287  0.1855 -0.0207
 5756TIP3    H117232   5.911   3.447   0.941  0.1419 -0.2683 -1.0473
 5756TIP3    H217233   6.057   3.453   0.982  0.0299 -0.4779 -0.6047
 5757TIP3   OH217234   4.103   4.104   2.853 -0.1692  0.1944  0.0511
 5757TIP3    H117235   4.068   4.179   2.805  1.9781  0.0653 -1.8859
 5757TIP3    H217236   4.099   4.032   2.791  0.1166 -0.6860  1.0335
 5758TIP3   OH217237   2.505   0.691   1.965 -0.2485  0.2942 -0.2165
 5758TIP3    H117238   2.464   0.607   1.988 -2.0746  1.2543  0.2173
 5758TIP3    H217239   2.504   0.741   2.047  1.2152  0.6105 -0.3656
 5759TIP3   OH217240   5.566   0.273   2.389 -0.0176 -0.1120 -0.3375
 5759TIP3    H117241   5.534   0.283   2.300 -2.2263  1.8934  0.5814
 5759TIP3    H217242   5.523   0.193   2.421 -1.1853  0.4934 -0.3327
 5760TIP3   OH217243   4.734   4.915   4.997 -0.0180  0.4506 -0.0037
 5760TIP3    H117244   4.723   4.871   4.912 -2.8982  0.3702  0.3101
 5760TIP3    H217245   4.736   4.844   5.061  1.0377  0.5645  0.1073
 5761TIP3   OH217246   6.343   4.534   5.406  0.1421 -0.6892  0.0753
 5761TIP3    H117247   6.257   4.539   5.448  0.1840  0.7785  0.0470
 5761TIP3    H217248   6.351   4.617   5.359  1.7559 -0.6116  0.4415
 5762TIP3   OH217249   2.761   0.123   5.747  0.2229  0.2258 -0.0697
 5762TIP3    H117250   2.696   0.179   5.789  0.5376 -0.1370  0.9364
 5762TIP3    H217251   2.721   0.036   5.745  0.8967 -0.1362  1.1338
 5763TIP3   OH217252   3.112   3.794   2.333  0.5028  0.6965 -0.2651
 5763TIP3    H117253   3.181   3.832   2.279  1.0691 -0.2555 -0.2293
 5763TIP3    H217254   3.033   3.844   2.310  0.4888 -0.3338 -2.7353
 5764TIP3   OH217255   4.762   0.330   4.287 -0.0709 -0.0850  0.0550
 5764TIP3    H117256   4.686   0.272   4.291 -1.3576  1.2592 -2.1995
 5764TIP3    H217257   4.726   0.418   4.301  0.6010  0.8005 -2.8824
 5765TIP3   OH217258   2.338   3.581   0.675 -0.0831 -0.3992 -0.3659
 5765TIP3    H117259   2.269   3.603   0.613 -1.6137 -1.5233  0.8694
 5765TIP3    H217260   2.402   3.532   0.624 -0.5271  0.0337 -1.3664
 5766TIP3   OH217261   6.380   0.894   3.581  0.7058 -0.0294  0.4389
 5766TIP3    H117262   6.362   0.802   3.564  1.2254 -0.1650  0.6238
 5766TIP3    H217263   6.307   0.923   3.638  0.1641 -0.1374 -0.1887
 5767TIP3   OH217264   3.799   2.739   0.326 -0.0906  0.0610  0.0077
 5767TIP3    H117265   3.741   2.720   0.399 -0.8923  1.2127 -0.2973
 5767TIP3    H217266   3.748   2.718   0.248 -0.5282  2.0059 -0.2981
 5768TIP3   OH217267   2.393   2.134   4.545 -0.1999 -0.4035  0.3702
 5768TIP3    H117268   2.349   2.075   4.484  0.2393  0.4106 -0.7718
 5768TIP3    H217269   2.482   2.099   4.551  0.1128  0.2295 -0.4508
 5769TIP3   OH217270   2.531   4.776   3.819 -0.6025 -0.1522 -0.6499
 5769TIP3    H117271   2.574   4.841   3.764  1.7051 -0.2879  0.8339
 5769TIP3    H217272   2.537   4.695   3.770  1.3630 -0.2571 -0.3318
 5770TIP3   OH217273   2.323   6.454   5.576 -0.0018 -0.4609  0.0670
 5770TIP3    H117274   2.335   6.363   5.605 -0.6203 -0.2423  1.0858
 5770TIP3    H217275   2.228   6.465   5.571  0.0780 -0.5081 -2.2580
 5771TIP3   OH217276   6.095   2.772   3.594  0.3327 -0.0264  0.3714
 5771TIP3    H117277   6.017   2.724   3.620  0.1740 -1.9138 -3.0317
 5771TIP3    H217278   6.167   2.709   3.605  0.8604  0.5354  0.2034
 5772TIP3   OH217279   1.119   6.630   5.172 -0.2211  0.5582 -0.1392
 5772TIP3    H117280   1.033   6.596   5.147 -0.6902  0.6008  1.3646
 5772TIP3    H217281   1.173   6.616   5.094 -1.3126 -0.4298 -0.7544
 5773TIP3   OH217282   0.814   5.549   0.746  0.4049 -0.5399  0.8261
 5773TIP3    H117283   0.845   5.471   0.792  0.4313 -0.3348  1.1590
 5773TIP3    H217284   0.730   5.570   0.787 -0.9227 -1.9205 -1.0086
 5774TIP3   OH217285   4.712   5.511   3.682  0.2164 -0.3867 -0.3550
 5774TIP3    H117286   4.710   5.441   3.746  2.3284 -0.6803 -0.5479
 5774TIP3    H217287   4.669   5.585   3.725 -0.8230 -1.3781  0.3469
 5775TIP3   OH217288   4.681   6.671   4.813  0.0295  0.1123 -0.1785
 5775TIP3    H117289   4.654   6.740   4.753  2.0508 -0.1447 -1.4895
 5775TIP3    H217290   4.751   6.710   4.865  2.1079 -1.1648 -1.7989
 5776TIP3   OH217291   3.209   3.053   3.598 -0.3855 -0.2545  0.3293
 5776TIP3    H117292   3.298   3.018   3.597  0.2302  1.2341 -1.1713
 5776TIP3    H217293   3.183   3.054   3.506 -1.2068  1.1315  0.5547
 5777TIP3   OH217294   4.610   4.104   1.177  0.1657  0.3993 -0.2389
 5777TIP3    H117295   4.674   4.138   1.114  0.9135 -0.9240 -0.2334
 5777TIP3    H217296   4.663   4.066   1.247 -0.6207 -0.3235 -0.0154
 5778TIP3   OH217297   3.854   4.783   2.368 -0.3073  0.7325 -0.6348
 5778TIP3    H117298   3.935   4.833   2.356  0.3668 -0.2849 -0.4253
 5778TIP3    H217299   3.800   4.806   2.292  1.4566 -1.0060 -2.5153
 5779TIP3   OH217300   4.321   1.469   3.098  0.3110  0.0327  0.1927
 5779TIP3    H117301   4.379   1.515   3.037  0.0994  0.6103  0.4234
 5779TIP3    H217302   4.343   1.376   3.086 -0.5011  0.0275 -1.5655
 5780TIP3   OH217303   0.742   3.307   0.998  0.1024 -0.3552  0.4197
 5780TIP3    H117304   0.833   3.324   1.019  0.3288 -0.0044 -0.7531
 5780TIP3    H217305   0.730   3.344   0.910 -0.4019 -2.8199 -0.6542
 5781TIP3   OH217306   6.600   0.499   0.725  0.1064 -0.2165 -0.3204
 5781TIP3    H117307   6.682   0.450   0.721 -0.3381 -0.9439 -1.1120
 5781TIP3    H217308   6.537   0.442   0.680 -0.3386  1.2778 -1.6696
 5782TIP3   OH217309   6.203   1.978   2.513 -0.3595 -0.5636 -0.1058
 5782TIP3    H117310   6.139   1.933   2.458  0.2957 -0.9724 -0.5475
 5782TIP3    H217311   6.205   2.068   2.480  0.5284 -0.9715 -1.2211
 5783TIP3   OH217312   6.697   3.807   3.153 -0.5399  0.0392 -0.0562
 5783TIP3    H117313   6.700   3.812   3.248  1.7139  0.8079 -0.0969
 5783TIP3    H217314   6.604   3.805   3.131 -1.1043  0.2629  2.1309
 5784TIP3   OH217315   4.527   4.023   2.918  0.1709  0.1716 -0.1260
 5784TIP3    H117316   4.576   4.012   2.837  0.0422 -3.3722  0.1305
 5784TIP3    H217317   4.586   4.073   2.975  1.1199  0.8805 -1.6653
 5785TIP3   OH217318   4.611   2.552   4.869 -0.2277  0.4988 -0.3601
 5785TIP3    H117319   4.669   2.504   4.928 -0.8554  1.4713  1.1203
 5785TIP3    H217320   4.657   2.553   4.785  1.3995  0.3306  0.4943
 5786TIP3   OH217321   1.500   1.349   5.595  0.4848  0.0934 -0.1520
 5786TIP3    H117322   1.515   1.358   5.501 -2.0104  0.9107 -0.5483
 5786TIP3    H217323   1.579   1.385   5.635  2.0121 -1.1392 -1.8936
 5787TIP3   OH217324   4.644   4.943   5.275 -0.0735  0.2560 -0.4205
 5787TIP3    H117325   4.582   4.986   5.215  0.3103 -0.2849 -1.2225
 5787TIP3    H217326   4.660   4.858   5.235  2.1614  0.8447 -0.9163
 5788TIP3   OH217327   0.591   1.317   1.151 -0.2285  0.4755 -0.0775
 5788TIP3    H117328   0.631   1.403   1.139 -0.5417  0.3389 -2.5555
 5788TIP3    H217329   0.507   1.322   1.105 -0.2919 -1.1018 -0.1850
 5789TIP3   OH217330   1.921   2.315   5.554  0.3659 -0.4335 -0.0022
 5789TIP3    H117331   2.017   2.322   5.563  0.4377  1.2747 -1.6243
 5789TIP3    H217332   1.888   2.399   5.584 -0.7784 -1.4342  1.6966
 5790TIP3   OH217333   1.710   0.146   4.623  0.4838 -0.3273 -0.6899
 5790TIP3    H117334   1.691   0.054   4.640 -0.3585 -0.5656 -2.7130
 5790TIP3    H217335   1.794   0.145   4.576 -0.3295 -0.2343 -2.1967
 5791TIP3   OH217336   2.231   1.971   0.324  0.0815  0.1318 -0.8220
 5791TIP3    H117337   2.291   2.021   0.268  0.3419 -0.4421 -1.0692
 5791TIP3    H217338   2.177   2.037   0.366  2.7199  0.9365  1.6209
 5792TIP3   OH217339   7.167   1.893   0.793  0.0914  0.0096 -0.1014
 5792TIP3    H117340   7.075   1.884   0.820  0.1011  1.3360  0.4233
 5792TIP3    H217341   7.174   1.835   0.716 -0.6837 -1.5584  0.9518
 5793TIP3   OH217342   4.270   0.303   1.520 -0.0695  0.4851  0.2515
 5793TIP3    H117343   4.303   0.240   1.455  0.2791 -0.4814  1.3359
 5793TIP3    H217344   4.203   0.353   1.473 -0.0219 -0.3802 -0.7760
 5794TIP3   OH217345   3.666   0.520   2.086 -0.1494 -0.2117 -0.4787
 5794TIP3    H117346   3.734   0.586   2.104 -2.5311  3.0003 -2.1000
 5794TIP3    H217347   3.704   0.465   2.017  1.1671  0.9352 -0.7160
 5795TIP3   OH217348   1.122   4.696   1.774  0.0184 -0.2282 -0.2341
 5795TIP3    H117349   1.096   4.751   1.848  1.2452  0.0762 -0.0146
 5795TIP3    H217350   1.199   4.739   1.738 -0.4210 -0.4948 -1.5652
 5796TIP3   OH217351   6.965   6.031   5.119  0.0775 -0.0975 -0.0366
 5796TIP3    H117352   6.998   6.037   5.208  2.1572 -0.1948 -0.7369
 5796TIP3    H217353   6.940   5.939   5.109  0.8222 -0.3371  0.1643
 5797TIP3   OH217354   5.347   0.365   1.881 -0.3079  0.3074 -0.2221
 5797TIP3    H117355   5.372   0.378   1.972 -1.1041 -0.5482  0.1449
 5797TIP3    H217356   5.419   0.316   1.842  0.0682  0.7416 -0.0670
 5798TIP3   OH217357   4.228   0.799   3.563  0.2757 -0.0065  0.2472
 5798TIP3    H117358   4.180   0.717   3.570  0.1226 -0.0338 -0.8988
 5798TIP3    H217359   4.272   0.809   3.647  0.0217 -1.0908  0.5204
 5799TIP3   OH217360   3.338   0.501   1.395  0.0625 -0.0100 -0.5124
 5799TIP3    H117361   3.295   0.545   1.321  0.0096 -0.5099 -0.7798
 5799TIP3    H217362   3.380   0.425   1.356 -1.0453 -1.0070  0.1615
 5800TIP3   OH217363   0.109   4.763   1.128 -0.3383 -0.4266  0.2709
 5800TIP3    H117364   0.159   4.836   1.092 -3.3398  0.8694 -1.6805
 5800TIP3    H217365   0.096   4.785   1.220  0.5429  0.4209  0.2024
 5801TIP3   OH217366   4.441   1.652   3.616  0.2553 -0.6362 -0.2468
 5801TIP3    H117367   4.475   1.616   3.698 -0.8576  0.2107  0.6113
 5801TIP3    H217368   4.518   1.657   3.559  1.0713 -1.1506  0.7670
 5802TIP3   OH217369   2.707   1.569   3.590 -0.3591  0.4032  0.1743
 5802TIP3    H117370   2.645   1.500   3.567  0.6906 -0.4396 -0.2211
 5802TIP3    H217371   2.712   1.624   3.511 -0.8889  0.7173  0.3496
 5803TIP3   OH217372   3.797   2.198   3.218  0.6929  0.4746  0.1409
 5803TIP3    H117373   3.885   2.168   3.195  0.4189  0.1697 -0.5142
 5803TIP3    H217374   3.786   2.279   3.167 -0.1716 -0.5556 -1.3780
 5804TIP3   OH217375   2.156   5.977   1.835 -0.1184  0.7714  0.8156
 5804TIP3    H117376   2.209   6.026   1.897 -0.5365  1.3947  0.6871
 5804TIP3    H217377   2.070   6.019   1.838 -0.9858 -0.9761  1.9220
 5805TIP3   OH217378   1.894   1.578   5.510 -0.1393  0.6991  0.3629
 5805TIP3    H117379   1.874   1.667   5.538 -1.9350  0.0981  1.1437
 5805TIP3    H217380   1.861   1.572   5.421 -0.6959  0.6115  0.5710
 5806TIP3   OH217381   6.536   5.418   4.064  0.3530  0.1827  0.0732
 5806TIP3    H117382   6.538   5.336   4.016 -0.3393  0.9807 -1.3852
 5806TIP3    H217383   6.457   5.413   4.118 -0.1895  0.2611 -0.7070
 5807TIP3   OH217384   2.895   4.874   0.435  0.3239 -0.4269 -0.1608
 5807TIP3    H117385   2.849   4.941   0.485 -0.7428 -0.3784 -1.1701
 5807TIP3    H217386   2.914   4.805   0.499 -0.7881 -0.2554  0.3749
 5808TIP3   OH217387   1.048   1.230   5.235  0.2643  0.2633 -0.0660
 5808TIP3    H117388   1.052   1.321   5.264  2.7296  0.3487 -0.5133
 5808TIP3    H217389   1.038   1.179   5.316  0.7150  0.8443  0.3628
 5809TIP3   OH217390   4.172   0.770   1.437  1.0424 -0.1867  0.1309
 5809TIP3    H117391   4.182   0.815   1.353  0.4106  0.6752  0.5112
 5809TIP3    H217392   4.158   0.840   1.501  0.6622 -0.8802  0.8254
 5810TIP3   OH217393   2.726   3.296   1.198  0.1910  0.0284  0.1248
 5810TIP3    H117394   2.663   3.343   1.144 -1.0880 -0.2326  1.3104
 5810TIP3    H217395   2.729   3.208   1.161  0.1016  0.1342 -0.1325
 5811TIP3   OH217396   6.433   1.468   0.421  0.5629 -0.1622 -0.1781
 5811TIP3    H117397   6.516   1.429   0.394 -0.3845 -1.1594 -1.8535
 5811TIP3    H217398   6.392   1.496   0.339 -2.2541 -2.7890  0.1565
 5812TIP3   OH217399   5.039   0.456   5.767  0.3602 -0.1191  0.2722
 5812TIP3    H117400   4.992   0.381   5.804  0.2245 -0.2377 -0.1309
 5812TIP3    H217401   5.125   0.421   5.745  0.7937  0.2020  1.3983
 5813TIP3   OH217402   0.343   3.332   1.723  0.0020  0.4358 -0.2661
 5813TIP3    H117403   0.358   3.400   1.788 -0.5691  0.8906 -0.5944
 5813TIP3    H217404   0.247   3.330   1.712 -0.0010 -0.5469 -0.1273
 5814TIP3   OH217405   6.334   0.892   0.297 -0.6443 -0.4872 -0.7046
 5814TIP3    H117406   6.405   0.829   0.307 -0.7889 -0.6848 -0.9001
 5814TIP3    H217407   6.274   0.851   0.234 -0.7747 -0.1866 -0.7802
 5815TIP3   OH217408   3.538   2.238   3.910  0.0785  0.3187 -0.3060
 5815TIP3    H117409   3.449   2.205   3.905 -0.3013  1.2119  0.3113
 5815TIP3    H217410   3.562   2.256   3.819  0.7236 -2.6274 -0.8199
 5816TIP3   OH217411   6.763   5.261   1.523 -0.4608 -0.7510 -0.5636
 5816TIP3    H117412   6.782   5.247   1.431 -1.0737  0.4698 -0.8955
 5816TIP3    H217413   6.785   5.352   1.539 -1.2990 -0.6643  0.2413
 5817TIP3   OH217414   5.133   5.888   5.550 -0.0970  0.5716  0.0210
 5817TIP3    H117415   5.047   5.876   5.509 -0.3527 -1.5133  1.0329
 5817TIP3    H217416   5.196   5.855   5.485 -0.1378  1.1485 -0.3168
 5818TIP3   OH217417   5.962   1.615   4.154  0.1609  0.1146  0.1808
 5818TIP3    H117418   6.031   1.560   4.116  1.2007  2.0904 -0.9104
 5818TIP3    H217419   6.004   1.699   4.172 -1.2848  0.4944  2.1881
 5819TIP3   OH217420   6.882   5.632   4.580  0.3277 -0.0936 -0.2832
 5819TIP3    H117421   6.917   5.638   4.491  2.0513  1.0985  0.4003
 5819TIP3    H217422   6.800   5.682   4.577  2.6379  4.2347 -0.2880
 5820TIP3   OH217423   2.989   4.936   1.292 -0.5157  0.2874 -0.2356
 5820TIP3    H117424   2.931   4.864   1.317  1.1948 -0.9712  0.3811
 5820TIP3    H217425   3.068   4.922   1.345  1.5555  0.1318 -3.1146
 5821TIP3   OH217426   2.846   4.988   1.650  0.2623 -0.3860  0.1371
 5821TIP3    H117427   2.868   5.064   1.595 -0.9047 -1.3378 -1.7653
 5821TIP3    H217428   2.931   4.953   1.678  0.8433  1.9742  1.7088
 5822TIP3   OH217429   2.159   0.833   3.315  0.4732  0.4597  0.6183
 5822TIP3    H117430   2.214   0.870   3.246  0.5433 -0.4326  0.1834
 5822TIP3    H217431   2.079   0.886   3.313 -0.4732 -0.9271 -1.6768
 5823TIP3   OH217432   0.829   3.319   4.991  0.0244 -0.3668 -0.0378
 5823TIP3    H117433   0.800   3.335   5.081  0.5225 -1.6380  0.3708
 5823TIP3    H217434   0.747   3.310   4.942 -0.2794 -1.0241  0.5562
 5824TIP3   OH217435   6.402   2.385   4.849 -0.7205 -0.1356 -0.9000
 5824TIP3    H117436   6.383   2.368   4.941  0.6150 -1.3012 -0.8110
 5824TIP3    H217437   6.318   2.411   4.811 -0.9866  2.1880  1.0024
 5825TIP3   OH217438   1.817   4.723   4.270 -0.8677  0.6028 -0.2948
 5825TIP3    H117439   1.771   4.727   4.187  0.5334  0.9934 -1.0832
 5825TIP3    H217440   1.909   4.709   4.247 -0.4159  0.9085  1.1708
 5826TIP3   OH217441   0.611   1.689   3.961  0.2678 -0.4438  0.0133
 5826TIP3    H117442   0.685   1.741   3.993 -0.0998 -0.2074  0.5038
 5826TIP3    H217443   0.625   1.682   3.867  0.6018  0.0981  0.0171
 5827TIP3   OH217444   2.135   4.445   3.064 -0.3208  0.3750 -0.4804
 5827TIP3    H117445   2.166   4.513   3.123 -0.4463  1.2805 -1.4318
 5827TIP3    H217446   2.091   4.382   3.121  1.4888  0.0811  0.6392
 5828TIP3   OH217447   5.617   1.216   0.403  0.0759 -0.2212 -0.1272
 5828TIP3    H117448   5.633   1.227   0.497 -0.9051  0.1469  0.0015
 5828TIP3    H217449   5.697   1.173   0.371  1.3521  1.5657  0.4778
 5829TIP3   OH217450   2.258   3.903   2.091  0.3140 -0.8272 -0.4070
 5829TIP3    H117451   2.213   3.974   2.137 -0.1922 -1.2242 -0.2849
 5829TIP3    H217452   2.255   3.829   2.152 -1.1210 -1.6262 -1.3924
 5830TIP3   OH217453   6.621   4.817   5.066 -0.0762 -0.7517 -0.2063
 5830TIP3    H117454   6.565   4.743   5.043  1.0580 -2.1410  1.2646
 5830TIP3    H217455   6.567   4.872   5.123 -0.7856 -0.6464 -0.9617
 5831TIP3   OH217456   3.645   5.064   0.694  0.1117  0.6452  0.4648
 5831TIP3    H117457   3.602   5.087   0.612 -0.9112  1.2761  1.1539
 5831TIP3    H217458   3.725   5.117   0.694  0.2492  0.4532 -0.2212
 5832TIP3   OH217459   3.797   3.334   3.062  0.1343 -0.4217 -0.2329
 5832TIP3    H117460   3.818   3.421   3.095  0.2500 -0.5128 -0.0662
 5832TIP3    H217461   3.707   3.319   3.090  0.1730 -0.4269 -0.1123
 5833TIP3   OH217462   0.505   1.401   0.220  0.4801  0.2855 -0.1717
 5833TIP3    H117463   0.418   1.414   0.183  0.9203  0.7840 -1.0626
 5833TIP3    H217464   0.517   1.306   0.219  0.0216  0.2263 -0.2144
 5834TIP3   OH217465   5.903   2.322   3.413  0.5137 -0.3047 -0.0987
 5834TIP3    H117466   5.880   2.413   3.393 -0.8123 -0.2839  1.3226
 5834TIP3    H217467   5.963   2.329   3.488 -1.2011 -0.6119  1.3747
 5835TIP3   OH217468   4.707   2.629   5.703  0.0900  0.1614 -0.3513
 5835TIP3    H117469   4.653   2.610   5.626  0.4918  0.0775 -0.6136
 5835TIP3    H217470   4.786   2.669   5.668 -0.1560  1.0546  0.1010
 5836TIP3   OH217471   1.678   1.885   2.907  0.1369  0.4104  0.1827
 5836TIP3    H117472   1.664   1.979   2.916  1.6616  0.5149  1.9707
 5836TIP3    H217473   1.601   1.854   2.858 -0.4053  2.5526 -0.4251
 5837TIP3   OH217474   6.410   4.488   3.527 -0.3035  0.1727  0.4027
 5837TIP3    H117475   6.394   4.525   3.613 -1.1829 -0.9614  0.7530
 5837TIP3    H217476   6.439   4.398   3.545  0.7379  0.3215 -0.4470
 5838TIP3   OH217477   3.189   3.021   2.554  0.0555 -0.3544 -0.0965
 5838TIP3    H117478   3.247   3.091   2.584  0.2484 -0.9414  0.9449
 5838TIP3    H217479   3.103   3.062   2.548 -0.0548 -0.2859  1.6086
 5839TIP3   OH217480   4.298   4.144   2.221 -0.3286 -0.2914  0.0172
 5839TIP3    H117481   4.211   4.180   2.201 -1.0017 -1.7698  0.1632
 5839TIP3    H217482   4.290   4.051   2.202  0.4902 -0.9078  2.3284
 5840TIP3   OH217483   4.195   0.176   4.586 -0.1446  0.0013 -0.1621
 5840TIP3    H117484   4.174   0.191   4.678  0.6903 -0.3930  0.1043
 5840TIP3    H217485   4.236   0.257   4.557  1.5389 -0.5911  0.4227
 5841TIP3   OH217486   6.457   2.201   2.086 -0.2546  0.3507  0.1177
 5841TIP3    H117487   6.531   2.261   2.073  0.0004 -0.3887 -2.3267
 5841TIP3    H217488   6.498   2.117   2.107 -0.4845  0.2499  0.1692
 5842TIP3   OH217489   5.043   1.489   3.232  0.1171 -0.2499  0.9016
 5842TIP3    H117490   5.125   1.539   3.228 -0.9599  1.4944 -1.0044
 5842TIP3    H217491   4.976   1.554   3.253 -1.1069 -1.2128  0.1172
 5843TIP3   OH217492   3.495   4.293   3.137 -0.4145  0.0599  0.2129
 5843TIP3    H117493   3.405   4.260   3.141 -0.2636 -0.4110 -0.0645
 5843TIP3    H217494   3.548   4.218   3.163 -0.0653  0.1299 -0.2856
 5844TIP3   OH217495   5.947   1.583   0.975  0.1062 -0.0659  0.1147
 5844TIP3    H117496   5.998   1.597   1.055 -1.9592 -0.7735  1.6299
 5844TIP3    H217497   5.998   1.627   0.907  1.9615  0.5367  1.7871
 5845TIP3   OH217498   4.029   6.125   5.637 -0.6939 -0.9061  0.0504
 5845TIP3    H117499   4.104   6.179   5.661 -2.2542  2.1056 -1.2334
 5845TIP3    H217500   3.983   6.109   5.719 -1.0262  1.1877  0.3211
 5846TIP3   OH217501   2.673   4.821   1.110  0.0763 -0.3157  0.0847
 5846TIP3    H117502   2.748   4.766   1.092 -0.8505 -1.7717  0.4633
 5846TIP3    H217503   2.599   4.776   1.069 -0.9398 -0.1377  1.6163
 5847TIP3   OH217504   1.809   1.451   1.435 -0.1800  0.3119  0.6610
 5847TIP3    H117505   1.727   1.473   1.391 -1.2137 -0.8803  1.9431
 5847TIP3    H217506   1.818   1.517   1.503  0.4151  0.9643 -0.0165
 5848TIP3   OH217507   0.865   2.196   1.018  0.0739  0.5427  0.1286
 5848TIP3    H117508   0.915   2.165   0.943 -0.4850 -0.6195  0.2031
 5848TIP3    H217509   0.891   2.138   1.090 -1.8881 -0.6111 -0.0135
 5849TIP3   OH217510   2.897   0.225   2.036  0.7005  0.4613  0.2464
 5849TIP3    H117511   2.853   0.157   1.985 -0.2031  0.7592  0.6237
 5849TIP3    H217512   2.832   0.294   2.045  0.3108 -0.1319  2.9721
 5850TIP3   OH217513   3.227   0.953   1.513 -0.3551  0.6971 -0.0776
 5850TIP3    H117514   3.184   0.887   1.568 -1.6208 -0.1852 -1.9693
 5850TIP3    H217515   3.304   0.908   1.477 -1.1608  0.2149 -1.2857
 5851TIP3   OH217516   7.193   4.798   3.459 -0.3814 -0.3365  0.1065
 5851TIP3    H117517   7.279   4.784   3.419 -0.8115  1.9367 -1.8959
 5851TIP3    H217518   7.132   4.751   3.402 -0.6644 -0.0346  0.1532
 5852TIP3   OH217519   3.792   2.773   2.442  0.3706  0.1438 -0.6039
 5852TIP3    H117520   3.774   2.697   2.387  1.2590  0.3926 -1.2553
 5852TIP3    H217521   3.828   2.737   2.522  1.6598 -0.0969 -1.2670
 5853TIP3   OH217522   0.124   1.839   1.589 -0.4198  0.2037  0.2894
 5853TIP3    H117523   0.078   1.865   1.509 -0.8143  0.2715  0.5409
 5853TIP3    H217524   0.057   1.799   1.644 -0.2512  0.6453  0.8115
 5854TIP3   OH217525   0.744   4.692   0.445 -0.0204 -0.0935 -0.0832
 5854TIP3    H117526   0.808   4.727   0.382  1.8064 -2.0975  0.5440
 5854TIP3    H217527   0.768   4.733   0.528 -0.4988  0.2428 -0.1076
 5855TIP3   OH217528   5.692   4.419   2.558  0.2502 -0.2867 -0.6458
 5855TIP3    H117529   5.650   4.505   2.553  2.4729  0.9663  0.7513
 5855TIP3    H217530   5.624   4.361   2.592 -0.6299  1.4316  0.6782
 5856TIP3   OH217531   0.631   1.906   5.512  0.7451  0.0201  0.1056
 5856TIP3    H117532   0.630   1.867   5.599  1.5409 -0.5114 -0.1139
 5856TIP3    H217533   0.538   1.920   5.491  0.4306 -1.5893  0.2775
 5857TIP3   OH217534   4.280   0.461   1.208  0.3663  0.3705 -0.0070
 5857TIP3    H117535   4.212   0.478   1.143 -0.4970 -1.2956  0.4044
 5857TIP3    H217536   4.241   0.485   1.291 -0.2705 -1.7991  0.3885
 5858TIP3   OH217537   4.397   4.276   0.675  0.2526  0.0369  0.1311
 5858TIP3    H117538   4.339   4.341   0.714 -0.7482 -0.1083 -1.0558
 5858TIP3    H217539   4.391   4.200   0.733  0.4693  0.5547  0.8462
 5859TIP3   OH217540   1.528   5.358   0.115  0.5416 -0.0511  0.0208
 5859TIP3    H117541   1.613   5.390   0.145  1.0263 -1.3011  0.0273
 5859TIP3    H217542   1.546   5.270   0.081 -0.7815 -0.3983  0.1700
 5860TIP3   OH217543   2.568   6.338   4.725  0.4344 -0.4178  0.1690
 5860TIP3    H117544   2.645   6.285   4.745  1.8688  0.3518 -2.7197
 5860TIP3    H217545   2.594   6.428   4.744 -0.1719 -0.2657  0.3085
 5861TIP3   OH217546   6.486   6.620   1.728  0.4588  0.0994  0.0692
 5861TIP3    H117547   6.550   6.681   1.764  3.3135 -1.3643 -2.0778
 5861TIP3    H217548   6.435   6.672   1.667  0.5720  1.0345  0.7607
 5862TIP3   OH217549   4.861   5.431   4.893  0.3219 -0.8726 -0.0463
 5862TIP3    H117550   4.812   5.365   4.943  0.1951 -0.5164  0.3114
 5862TIP3    H217551   4.794   5.496   4.869  0.7361  0.0616  1.1803
 5863TIP3   OH217552   6.931   1.809   4.709  0.4627 -0.1147 -0.0558
 5863TIP3    H117553   6.965   1.887   4.753  1.1990 -0.5739  0.2206
 5863TIP3    H217554   6.843   1.798   4.743  0.0348  1.0649 -0.7195
 5864TIP3   OH217555   4.879   0.514   1.950  0.3719 -0.1720  0.3860
 5864TIP3    H117556   4.810   0.449   1.939 -0.1753  0.4992 -0.3016
 5864TIP3    H217557   4.895   0.518   2.044  1.0495 -1.9273  0.3757
 5865TIP3   OH217558   6.251   1.292   4.545  0.2391 -0.0291  0.2764
 5865TIP3    H117559   6.269   1.376   4.502  1.5728 -0.4133  0.0431
 5865TIP3    H217560   6.320   1.284   4.611  0.3789 -1.1429  0.0092
 5866TIP3   OH217561   5.038   6.085   0.844  0.0471  0.2579  0.5243
 5866TIP3    H117562   5.067   6.151   0.780  0.2324  0.2213  0.5721
 5866TIP3    H217563   5.043   6.002   0.796  1.6318  0.0275  1.0412
 5867TIP3   OH217564   0.305   3.742   3.232  0.1435  0.4566 -0.3721
 5867TIP3    H117565   0.229   3.687   3.252  0.2058  0.6326  0.3986
 5867TIP3    H217566   0.335   3.772   3.318  1.9956 -0.7976 -0.5396
 5868TIP3   OH217567   2.643   0.460   1.835 -0.0681  0.0275 -0.3983
 5868TIP3    H117568   2.608   0.374   1.812  1.6764 -0.6598 -0.6555
 5868TIP3    H217569   2.679   0.447   1.923  1.9140 -0.0955 -1.1718
 5869TIP3   OH217570   1.227   0.626   3.527  0.1499  0.5972  0.3006
 5869TIP3    H117571   1.194   0.658   3.611  0.3353 -1.8273  1.3855
 5869TIP3    H217572   1.160   0.652   3.464 -1.2720  0.3010  1.6169
 5870TIP3   OH217573   4.345   6.660   2.135  0.2635  0.0768  0.2476
 5870TIP3    H117574   4.357   6.688   2.225 -0.6562  0.0802  0.3766
 5870TIP3    H217575   4.315   6.569   2.141 -1.5285  0.6248  0.0322
 5871TIP3   OH217576   6.161   0.949   4.349  0.6440  0.2431 -0.5067
 5871TIP3    H117577   6.090   0.890   4.322 -1.7070  2.5862  0.1088
 5871TIP3    H217578   6.122   1.004   4.416  3.4237  1.0165  0.6131
 5872TIP3   OH217579   5.949   2.597   0.870  0.4727 -0.1474  0.7881
 5872TIP3    H117580   5.938   2.664   0.802  0.1597 -0.8003  0.1796
 5872TIP3    H217581   5.906   2.519   0.834  0.2606 -0.4919  1.7637
 5873TIP3   OH217582   1.943   5.384   3.009  0.2400  0.2997  0.7330
 5873TIP3    H117583   1.887   5.461   3.013 -0.8039 -0.2331 -1.6366
 5873TIP3    H217584   1.909   5.333   2.936  1.7213 -1.7782  1.3758
 5874TIP3   OH217585   1.477   0.405   4.428 -1.0492  0.0398 -0.4184
 5874TIP3    H117586   1.458   0.496   4.453  0.1469  0.2048 -0.0636
 5874TIP3    H217587   1.471   0.404   4.332  0.4636  0.8841 -0.5531
 5875TIP3   OH217588   2.269   6.568   5.811  0.6611  0.1620 -0.0925
 5875TIP3    H117589   2.313   6.518   5.879 -0.8406  0.4640  1.1547
 5875TIP3    H217590   2.309   6.538   5.729  3.3766  0.6809  0.9589
 5876TIP3   OH217591   6.137   6.616   1.444 -0.4475  0.5717  0.4783
 5876TIP3    H117592   6.169   6.693   1.397 -1.7050  0.2869 -0.9238
 5876TIP3    H217593   6.202   6.548   1.426 -0.1411  0.8758  0.4188
 5877TIP3   OH217594   1.401   6.297   3.629 -0.5210  0.7585  0.3298
 5877TIP3    H117595   1.402   6.270   3.721  1.9715 -2.3083 -0.4292
 5877TIP3    H217596   1.369   6.220   3.582 -1.8334  2.2917 -1.4410
 5878TIP3   OH217597   2.022   6.364   4.606 -0.0089 -0.4008  0.0205
 5878TIP3    H117598   1.930   6.338   4.603  0.2354 -1.4273  0.7035
 5878TIP3    H217599   2.069   6.292   4.562  0.4627  0.1330 -0.3641
 5879TIP3   OH217600   1.019   2.239   5.176  0.2532  0.0343  0.0535
 5879TIP3    H117601   1.055   2.237   5.264  3.3063  0.9557 -1.0223
 5879TIP3    H217602   1.039   2.152   5.140 -0.9909 -0.3442  0.2568
 5880TIP3   OH217603   3.981   0.563   3.545 -0.4699 -0.0461  0.6948
 5880TIP3    H117604   4.022   0.525   3.468 -0.0800 -0.4767  1.1117
 5880TIP3    H217605   3.894   0.589   3.515 -0.2434 -0.0077  0.0568
 5881TIP3   OH217606   1.907   3.056   5.471 -0.5837 -0.4556 -0.0041
 5881TIP3    H117607   1.842   3.113   5.512  0.2615 -0.1397  0.9451
 5881TIP3    H217608   1.901   2.974   5.520 -0.7396 -0.6698 -0.3748
 5882TIP3   OH217609   1.745   5.643   2.244 -0.0752 -0.0831 -0.3685
 5882TIP3    H117610   1.768   5.725   2.289  0.0995 -0.6996  0.6928
 5882TIP3    H217611   1.656   5.658   2.212 -0.6041  0.0300  1.0582
 5883TIP3   OH217612   3.422   3.222   5.599 -0.3484  0.0153  0.1703
 5883TIP3    H117613   3.474   3.292   5.637  0.5037  0.0364 -0.9773
 5883TIP3    H217614   3.465   3.141   5.628 -0.5382 -0.0051  0.3990
 5884TIP3   OH217615   4.356   2.835   4.591  0.5662 -0.1619  0.2646
 5884TIP3    H117616   4.450   2.841   4.573  0.6505 -0.7497  0.4744
 5884TIP3    H217617   4.340   2.741   4.601 -0.2162 -0.1480 -0.6917
 5885TIP3   OH217618   0.352   3.931   2.763  0.2696 -0.0370  0.0069
 5885TIP3    H117619   0.378   3.957   2.675  0.4225  1.3864  0.4467
 5885TIP3    H217620   0.260   3.906   2.755  0.9378 -2.4580 -1.0318
 5886TIP3   OH217621   0.831   3.084   5.281  0.0052  0.0346 -0.1086
 5886TIP3    H117622   0.873   3.169   5.282 -1.0475  0.5840 -0.5299
 5886TIP3    H217623   0.782   3.080   5.363  0.9646 -0.6551  0.4444
 5887TIP3   OH217624   0.909   3.902   1.269 -0.1284  0.4120 -0.0384
 5887TIP3    H117625   0.854   3.825   1.254 -1.3064  0.6380  2.5110
 5887TIP3    H217626   0.995   3.878   1.236 -0.6121 -1.7975  0.1761
 5888TIP3   OH217627   5.025   1.710   0.683  0.4564  0.1702  0.3103
 5888TIP3    H117628   5.111   1.678   0.710  0.4969  0.1029  0.1051
 5888TIP3    H217629   5.042   1.797   0.647  0.2354  0.7760  1.6170
 5889TIP3   OH217630   1.558   1.586   1.018 -0.4765  0.4072 -0.3485
 5889TIP3    H117631   1.626   1.605   0.952  2.0169 -0.8080  1.6825
 5889TIP3    H217632   1.523   1.501   0.991  1.5253 -0.7749  0.5110
 5890TIP3   OH217633   3.678   2.434   2.959  0.1808  0.4959 -0.2085
 5890TIP3    H117634   3.760   2.447   3.007  0.3767  0.3847 -0.5117
 5890TIP3    H217635   3.648   2.523   2.939 -0.0430  0.5559  0.3455
 5891TIP3   OH217636   1.013   4.146   5.450 -0.1133  0.0020  0.2351
 5891TIP3    H117637   0.939   4.091   5.422  0.4435 -0.2260 -0.8332
 5891TIP3    H217638   1.074   4.085   5.491  1.3665 -0.5941 -2.6118
 5892TIP3   OH217639   1.077   2.135   5.539 -0.0203  0.1908 -0.4629
 5892TIP3    H117640   1.159   2.086   5.540  0.2276  0.5802 -1.2259
 5892TIP3    H217641   1.009   2.068   5.525  0.2315 -0.0335 -0.6110
 5893TIP3   OH217642   1.912   2.107   0.565 -0.0603 -0.1300 -0.0707
 5893TIP3    H117643   1.924   2.138   0.654  0.2638 -3.8846  1.3708
 5893TIP3    H217644   1.994   2.128   0.520  1.6688 -2.0778  1.9377
 5894TIP3   OH217645   4.315   6.804   0.319 -0.5478  0.4149 -0.7004
 5894TIP3    H117646   4.321   6.756   0.402 -1.1386  0.4544 -0.6314
 5894TIP3    H217647   4.367   6.752   0.258 -2.2663 -1.0931 -0.9689
 5895TIP3   OH217648   1.096   0.309   4.735  0.5589 -0.0903 -0.1386
 5895TIP3    H117649   1.182   0.348   4.723  0.3078  1.3166  2.0053
 5895TIP3    H217650   1.047   0.375   4.784 -0.9760 -1.7797  0.7093
 5896TIP3   OH217651   6.934   0.420   5.674  0.2198  0.5890  0.6507
 5896TIP3    H117652   6.988   0.417   5.594 -0.8214 -1.8820 -0.0589
 5896TIP3    H217653   6.997   0.439   5.744  1.9024 -1.2675 -0.2536
 5897TIP3   OH217654   1.216   4.507   2.089 -0.6650  0.1934  0.2148
 5897TIP3    H117655   1.228   4.508   1.994  1.5939 -0.1126  0.4520
 5897TIP3    H217656   1.244   4.593   2.118 -0.7978  0.0845  0.6722
 5898TIP3   OH217657   1.160   2.653   3.314  0.1567  0.3402 -0.0478
 5898TIP3    H117658   1.086   2.689   3.264 -0.0982  0.6470  0.5407
 5898TIP3    H217659   1.186   2.724   3.373 -0.8809 -0.7041  1.7272
 5899TIP3   OH217660   2.771   6.421   5.490  0.6770 -0.2093  0.2315
 5899TIP3    H117661   2.840   6.479   5.522  1.1366 -0.9945  0.6905
 5899TIP3    H217662   2.790   6.336   5.530  0.0491 -0.6954 -0.4683
 5900TIP3   OH217663   0.605   3.951   5.616 -0.1125  0.1655 -0.5444
 5900TIP3    H117664   0.600   3.884   5.547  1.1777 -1.9573  1.2758
 5900TIP3    H217665   0.518   3.951   5.656  0.1493 -1.2488  0.0913
 5901TIP3   OH217666   6.250   2.992   0.553  0.0672 -0.3525 -0.4145
 5901TIP3    H117667   6.198   2.986   0.472 -0.0106  1.6144 -0.5619
 5901TIP3    H217668   6.315   2.923   0.545 -0.3058 -0.5663 -1.9019
 5902TIP3   OH217669   6.206   5.424   2.011  0.6301  0.2925 -0.4241
 5902TIP3    H117670   6.245   5.466   2.087  1.1696  2.2077 -1.6897
 5902TIP3    H217671   6.160   5.348   2.047  2.6534 -0.1215  1.5299
 5903TIP3   OH217672   7.002   3.154   0.441  0.1602  0.1551 -0.7314
 5903TIP3    H117673   6.996   3.242   0.479 -0.0418  0.6217 -1.8134
 5903TIP3    H217674   7.083   3.156   0.390  0.1020 -0.2592 -0.8386
 5904TIP3   OH217675   0.474   3.120   2.008  1.0947 -0.0506 -0.0786
 5904TIP3    H117676   0.530   3.086   2.078 -0.8473 -1.0440  1.0833
 5904TIP3    H217677   0.412   3.177   2.053 -1.3359 -2.0988 -0.5983
 5905TIP3   OH217678   6.772   0.855   0.458 -0.1727  0.0228  0.3187
 5905TIP3    H117679   6.744   0.923   0.397  1.1847  0.6906  0.3944
 5905TIP3    H217680   6.710   0.860   0.530 -0.6041  0.5769 -0.0804
 5906TIP3   OH217681   5.748   5.656   2.322  0.2321 -0.0203  0.3368
 5906TIP3    H117682   5.803   5.595   2.274  0.0517 -0.4695  0.7008
 5906TIP3    H217683   5.738   5.617   2.409 -2.2561 -0.9566 -0.2690
 5907TIP3   OH217684   4.821   5.837   0.277  0.1019  0.2316 -0.2649
 5907TIP3    H117685   4.794   5.763   0.223  1.4293 -1.0497  0.7693
 5907TIP3    H217686   4.900   5.871   0.234  1.3908 -1.0368  1.0184
 5908TIP3   OH217687   5.955   0.642   2.000 -0.7889 -0.1624 -0.1340
 5908TIP3    H117688   5.944   0.728   2.040 -1.5254 -0.0442 -0.5684
 5908TIP3    H217689   5.898   0.584   2.051  0.7635 -0.7088  1.0524
 5909TIP3   OH217690   0.839   4.919   3.581 -0.2858 -0.0733  0.8984
 5909TIP3    H117691   0.807   4.862   3.651 -0.9771 -0.0495  0.5997
 5909TIP3    H217692   0.772   4.915   3.513 -0.8674  1.8980  1.2819
 5910TIP3   OH217693   3.876   0.595   4.298  0.0130 -0.6099 -0.0077
 5910TIP3    H117694   3.827   0.645   4.233 -2.4342 -0.3049  1.9019
 5910TIP3    H217695   3.811   0.574   4.366  1.9318 -2.7147  1.3300
 5911TIP3   OH217696   2.490   3.983   2.980 -0.2518  0.4852  0.5479
 5911TIP3    H117697   2.404   3.954   2.949  0.2686  1.1515 -1.7205
 5911TIP3    H217698   2.472   4.056   3.039 -1.2872 -0.5128  1.5058
 5912TIP3   OH217699   5.099   2.075   1.465 -0.0184  0.9152 -0.3941
 5912TIP3    H117700   5.109   2.101   1.374  1.2231 -0.0976 -0.5776
 5912TIP3    H217701   5.004   2.065   1.477 -0.1548  0.2250 -1.8213
 5913TIP3   OH217702   2.309   2.879   0.985  0.0516 -0.2539  0.3427
 5913TIP3    H117703   2.404   2.894   0.986  0.2010 -1.0917 -0.2773
 5913TIP3    H217704   2.271   2.967   0.992  0.8609  0.0169  1.7458
 5914TIP3   OH217705   2.341   2.569   1.261  0.1807 -0.4738 -0.3750
 5914TIP3    H117706   2.289   2.646   1.238  0.9783  0.0979 -0.2938
 5914TIP3    H217707   2.316   2.550   1.352 -0.2737 -0.5268 -0.5090
 5915TIP3   OH217708   3.234   4.466   3.616 -0.2145 -0.4131  0.2460
 5915TIP3    H117709   3.138   4.461   3.617 -0.2395 -0.0076  1.7799
 5915TIP3    H217710   3.255   4.490   3.526 -1.6182  0.3767  0.0872
 5916TIP3   OH217711   6.552   1.766   3.013  0.0308  0.4737  0.6817
 5916TIP3    H117712   6.488   1.764   3.083 -0.3136  0.5496  0.3738
 5916TIP3    H217713   6.625   1.816   3.049 -0.4726  1.2031  0.7196
 5917TIP3   OH217714   6.132   4.829   0.786 -0.0821  0.4656  0.2087
 5917TIP3    H117715   6.062   4.790   0.734 -0.7286  2.9186 -0.9171
 5917TIP3    H217716   6.109   4.809   0.876 -0.3614 -1.6335 -0.2683
 5918TIP3   OH217717   4.639   5.848   2.623 -0.1682 -0.3451 -0.3319
 5918TIP3    H117718   4.673   5.935   2.602 -1.3011 -0.2537 -2.0581
 5918TIP3    H217719   4.547   5.863   2.646 -0.1520 -0.9938  0.1724
 5919TIP3   OH217720   1.549   2.957   3.438 -0.7834  0.1928 -0.0733
 5919TIP3    H117721   1.612   2.893   3.404  1.0766  1.3500  0.9870
 5919TIP3    H217722   1.601   3.037   3.450 -2.3949  1.1097  1.1880
 5920TIP3   OH217723   6.702   6.265   0.375  0.1441  0.0959 -0.8447
 5920TIP3    H117724   6.661   6.186   0.340 -0.0137 -0.5841  0.7783
 5920TIP3    H217725   6.791   6.237   0.398 -0.0509  0.2593  0.1478
 5921TIP3   OH217726   1.188   1.021   0.048  0.3824  0.1883 -0.1169
 5921TIP3    H117727   1.232   0.937   0.056 -1.5425 -0.9892 -1.0211
 5921TIP3    H217728   1.218   1.056  -0.036 -1.1108 -1.1134 -1.2497
 5922TIP3   OH217729   5.213   0.491   4.085  0.3616 -0.1725  0.3240
 5922TIP3    H117730   5.198   0.550   4.159  1.1394 -0.8054  0.9919
 5922TIP3    H217731   5.127   0.451   4.069  0.2247 -0.1527  0.9833
 5923TIP3   OH217732   1.548   0.887   4.320  0.5727  0.3028 -0.4723
 5923TIP3    H117733   1.573   0.916   4.408  1.2968  1.8839 -1.1487
 5923TIP3    H217734   1.500   0.961   4.284 -0.5459 -0.6949 -1.0927
 5924TIP3   OH217735   4.174   0.796   2.616  0.4609  0.2309 -0.4476
 5924TIP3    H117736   4.097   0.842   2.584  0.3206  0.9932  0.9174
 5924TIP3    H217737   4.246   0.858   2.602  0.6456 -0.0356 -0.6848
 5925TIP3   OH217738   6.439   3.472   2.435  0.3109 -0.6322  0.5161
 5925TIP3    H117739   6.457   3.546   2.377 -2.1762  0.8666  1.5204
 5925TIP3    H217740   6.512   3.473   2.497  1.3818 -0.3417 -0.6914
 5926TIP3   OH217741   1.141   0.324   2.898  0.0078  0.3393 -0.0433
 5926TIP3    H117742   1.231   0.292   2.902 -0.5627 -1.3935 -0.1536
 5926TIP3    H217743   1.148   0.414   2.866  1.7618  0.6384  1.0791
 5927TIP3   OH217744   2.566   0.957   4.276  0.2452  0.1893  0.0789
 5927TIP3    H117745   2.542   0.959   4.183 -0.0404 -2.2384  0.0361
 5927TIP3    H217746   2.485   0.935   4.322  0.4646  1.0051  0.8751
 5928TIP3   OH217747   4.465   5.830   2.344  0.0420 -0.5895  0.5338
 5928TIP3    H117748   4.531   5.804   2.280 -0.1325 -0.0354  0.1145
 5928TIP3    H217749   4.495   5.793   2.427  1.1680  0.1106  0.4560
 5929TIP3   OH217750   7.002   6.525   0.470  0.5510 -0.2035 -0.5264
 5929TIP3    H117751   6.954   6.608   0.465 -1.0309 -1.0236  0.4509
 5929TIP3    H217752   7.058   6.526   0.393  0.7048  1.8472 -0.4549
 5930TIP3   OH217753   6.356   5.504   5.308  0.3966  0.0734  0.0524
 5930TIP3    H117754   6.426   5.545   5.257  0.6944 -1.9057 -1.2407
 5930TIP3    H217755   6.275   5.537   5.267  0.6338 -1.1290 -1.4518
 5931TIP3   OH217756   3.872   0.325   4.780 -0.2265  0.0249  0.8211
 5931TIP3    H117757   3.815   0.355   4.710 -0.9961  0.2997  1.5458
 5931TIP3    H217758   3.902   0.239   4.751 -0.9207 -0.0755  0.3667
 5932TIP3   OH217759   1.520   2.408   3.250 -0.4831  0.5359  0.6572
 5932TIP3    H117760   1.498   2.422   3.342 -0.3600  2.9193  0.3909
 5932TIP3    H217761   1.442   2.436   3.202 -0.6790 -1.0270  0.0151
 5933TIP3   OH217762   0.547   5.500   5.536 -0.0891  0.2630 -0.0395
 5933TIP3    H117763   0.613   5.485   5.468 -0.0407  1.0458 -0.1764
 5933TIP3    H217764   0.582   5.572   5.588 -0.9673  0.9189 -0.3188
 5934TIP3   OH217765   5.197   5.143   5.809  0.1319  0.2727  0.4750
 5934TIP3    H117766   5.260   5.190   5.864 -1.0790  0.4276  1.7975
 5934TIP3    H217767   5.190   5.057   5.849  1.6788 -0.8119 -1.4256
 5935TIP3   OH217768   3.908   6.399   3.741 -0.4074  0.4010  0.5210
 5935TIP3    H117769   3.940   6.488   3.727  0.8819  0.1758  1.7758
 5935TIP3    H217770   3.831   6.410   3.798 -1.2894  0.7958 -0.7022
 5936TIP3   OH217771   5.910   1.927   0.955  0.1049  0.2544  0.0068
 5936TIP3    H117772   5.846   1.863   0.924 -0.5665  0.0221  1.7506
 5936TIP3    H217773   5.903   2.001   0.894 -0.7818 -0.3675 -0.6610
 5937TIP3   OH217774   4.145   1.036   0.508 -0.2239  0.1103 -0.1016
 5937TIP3    H117775   4.147   1.018   0.414 -2.0544 -0.4375 -0.0636
 5937TIP3    H217776   4.147   1.132   0.513 -0.8078  0.1617 -0.7220
 5938TIP3   OH217777   3.400   5.708   5.868  0.0127  0.1752 -0.1612
 5938TIP3    H117778   3.471   5.769   5.889 -0.5057  0.8981 -0.4726
 5938TIP3    H217779   3.436   5.621   5.888  0.4789  0.6288  1.0703
 5939TIP3   OH217780   2.433   4.119   4.495 -0.0971  0.6951  0.2383
 5939TIP3    H117781   2.411   4.206   4.526 -1.4235  0.5875 -0.3493
 5939TIP3    H217782   2.359   4.093   4.439  0.9220 -0.2288 -0.7411
 5940TIP3   OH217783   1.173   2.731   0.853  0.5862  0.4704  0.0792
 5940TIP3    H117784   1.082   2.750   0.829  0.2854  1.1888  1.6544
 5940TIP3    H217785   1.189   2.784   0.931  1.5117 -1.6232  1.4030
 5941TIP3   OH217786   5.948   0.505   2.482  0.0435 -0.4512 -0.1406
 5941TIP3    H117787   6.025   0.529   2.533  0.6385  0.9450 -1.6255
 5941TIP3    H217788   5.978   0.432   2.427 -0.0720 -0.7343  0.1657
 5942TIP3   OH217789   4.242   4.592   0.228 -0.5099  0.0282  0.1402
 5942TIP3    H117790   4.241   4.528   0.299  0.7229  1.2806  1.3340
 5942TIP3    H217791   4.298   4.662   0.259  0.7269  0.2836 -2.4021
 5943TIP3   OH217792   4.312   4.650   4.985  0.1930 -0.4565  0.0612
 5943TIP3    H117793   4.347   4.591   5.052 -0.2194  0.1986  0.8626
 5943TIP3    H217794   4.233   4.606   4.954  0.0731 -0.4942  0.4132
 5944TIP3   OH217795   6.165   5.291   5.191  0.4088 -0.4508  0.4067
 5944TIP3    H117796   6.136   5.260   5.277 -1.8253  0.9162  0.2385
 5944TIP3    H217797   6.126   5.378   5.183  0.6714 -0.4873 -1.9188
 5945TIP3   OH217798   5.228   4.855   3.579 -0.3590 -0.0816  0.1639
 5945TIP3    H117799   5.246   4.949   3.574 -1.0610  0.0223 -2.9697
 5945TIP3    H217800   5.314   4.814   3.584  0.0118  0.7072  0.3779
 5946TIP3   OH217801   5.755   0.537   3.851 -0.2498 -0.5737  0.2625
 5946TIP3    H117802   5.729   0.446   3.836 -2.6625  0.0956 -0.0870
 5946TIP3    H217803   5.691   0.569   3.914  1.1622  0.6397  1.1353
 5947TIP3   OH217804   2.760   0.753   4.309  0.0266  0.5147  0.2222
 5947TIP3    H117805   2.744   0.843   4.283  1.3113  0.4391 -0.9492
 5947TIP3    H217806   2.802   0.760   4.395 -1.7479  0.9023  1.0967
 5948TIP3   OH217807   4.885   4.397   0.680  0.3491  0.4694  0.1529
 5948TIP3    H117808   4.834   4.476   0.699 -2.2922 -1.3763  1.3268
 5948TIP3    H217809   4.831   4.348   0.619  2.1671 -0.2738 -0.9423
 5949TIP3   OH217810   5.795   5.259   2.621  0.1265 -0.1330 -0.4336
 5949TIP3    H117811   5.722   5.231   2.676  0.0526 -0.6232 -0.7813
 5949TIP3    H217812   5.832   5.178   2.587  0.2498  0.1628 -1.0109
 5950TIP3   OH217813   3.592   4.534   0.126  0.1141 -0.3845 -0.3570
 5950TIP3    H117814   3.608   4.540   0.032  1.9723 -3.3898 -0.3719
 5950TIP3    H217815   3.545   4.451   0.137 -0.2860  0.0310  1.3335
 5951TIP3   OH217816   0.088   0.342   4.761 -0.7504  0.2558  0.0653
 5951TIP3    H117817   0.082   0.318   4.669  0.2966  2.5079 -0.6604
 5951TIP3    H217818  -0.001   0.364   4.787 -1.0623 -0.4797 -0.3602
 5952TIP3   OH217819   4.299   2.572   1.155  0.4960 -0.4346  0.1695
 5952TIP3    H117820   4.252   2.619   1.086 -2.4252 -0.5331  1.9120
 5952TIP3    H217821   4.329   2.640   1.215 -1.0540 -0.5275  1.1124
 5953TIP3   OH217822   2.157   0.604   1.766  0.1663 -1.2505  0.0467
 5953TIP3    H117823   2.237   0.645   1.736 -0.7137  0.4358 -0.1536
 5953TIP3    H217824   2.088   0.645   1.714 -0.8516 -2.4173  0.4314
 5954TIP3   OH217825   3.439   3.140   0.399 -0.1051 -0.4199  0.0220
 5954TIP3    H117826   3.534   3.144   0.407 -0.1734 -0.9969  1.5987
 5954TIP3    H217827   3.413   3.230   0.378  0.6580  0.2663  1.7567
 5955TIP3   OH217828   6.947   0.022   3.004 -0.1588 -0.3466  0.1397
 5955TIP3    H117829   6.907   0.073   3.075 -0.0690  0.9703 -0.7308
 5955TIP3    H217830   7.036   0.056   2.998 -0.5285  0.4144 -1.3825
 5956TIP3   OH217831   3.034   6.676   4.013 -0.0065 -0.0732  0.4093
 5956TIP3    H117832   3.114   6.679   3.961 -0.5807  1.7622 -0.4696
 5956TIP3    H217833   3.056   6.621   4.088  1.9043 -0.0381 -0.0684
 5957TIP3   OH217834   1.055   2.547   3.760 -0.3929 -0.0722  0.2801
 5957TIP3    H117835   0.973   2.511   3.793 -0.2663  0.3418  1.0571
 5957TIP3    H217836   1.123   2.502   3.810 -0.0607 -1.3108 -1.1962
 5958TIP3   OH217837   3.027   4.360   2.425 -0.5083  0.9249 -0.3209
 5958TIP3    H117838   3.054   4.450   2.404 -1.4401  0.9279 -1.6240
 5958TIP3    H217839   2.961   4.339   2.359 -0.9067 -0.4310  0.4770
 5959TIP3   OH217840   1.059   6.165   2.963 -0.3876 -0.3380  0.3724
 5959TIP3    H117841   1.051   6.190   3.055  0.4473 -0.3325  0.4470
 5959TIP3    H217842   1.125   6.097   2.961 -0.0412  0.0022 -0.2797
 5960TIP3   OH217843   0.434   2.155   5.289 -0.5536  0.5013  0.3531
 5960TIP3    H117844   0.405   2.244   5.307 -0.3558  0.4771  0.8063
 5960TIP3    H217845   0.385   2.101   5.351  0.2040  0.4242  0.9033
 5961TIP3   OH217846   2.208   2.721   0.784  0.4873  0.2137  0.1324
 5961TIP3    H117847   2.236   2.776   0.857  1.7878  0.1206 -0.2766
 5961TIP3    H217848   2.289   2.689   0.744 -0.0786  1.9349 -2.6766
 5962TIP3   OH217849   5.127   3.895   2.187 -0.4517 -0.0853 -0.0108
 5962TIP3    H117850   5.132   3.990   2.178 -0.6928  0.1931  2.3511
 5962TIP3    H217851   5.046   3.871   2.141 -0.2569  0.7787 -0.8540
 5963TIP3   OH217852   3.258   5.858   4.551  0.2716 -0.6959  0.1530
 5963TIP3    H117853   3.212   5.942   4.556  1.2867 -0.1813  1.4347
 5963TIP3    H217854   3.345   5.876   4.586  0.3617 -2.3831  0.9071
 5964TIP3   OH217855   6.680   1.022   2.977  0.6318 -0.3316 -0.0113
 5964TIP3    H117856   6.765   0.979   2.988  0.4702 -0.3523  1.3144
 5964TIP3    H217857   6.650   1.039   3.067 -0.1867  0.8160 -0.4790
 5965TIP3   OH217858   3.599   0.754   2.325  0.1698  0.4541 -0.4482
 5965TIP3    H117859   3.587   0.662   2.350  1.0181  0.4496  0.0066
 5965TIP3    H217860   3.693   0.761   2.308  0.8590  2.0267  3.0348
 5966TIP3   OH217861   6.907   5.499   1.551  0.6357 -0.4185  0.4533
 5966TIP3    H117862   6.882   5.579   1.506  0.0791  0.6473  2.5346
 5966TIP3    H217863   6.992   5.518   1.590  0.9235 -1.1743  0.2266
 5967TIP3   OH217864   5.041   0.429   2.601 -0.0650 -0.2037  0.3864
 5967TIP3    H117865   5.123   0.385   2.580 -0.0392  0.5363 -1.3088
 5967TIP3    H217866   5.066   0.521   2.613 -0.3155 -0.3612  2.4042
 5968TIP3   OH217867   2.280   4.267   2.862  0.4341 -0.1062 -0.1481
 5968TIP3    H117868   2.331   4.231   2.934  1.8205  1.8162 -0.0823
 5968TIP3    H217869   2.226   4.335   2.902  0.6316  0.4396 -0.7802
 5969TIP3   OH217870   5.781   4.598   2.271  0.1217 -0.3070  0.1689
 5969TIP3    H117871   5.704   4.617   2.324  0.3110  0.4692  0.1662
 5969TIP3    H217872   5.746   4.558   2.191 -0.2293 -0.5292  0.4320
 5970TIP3   OH217873   0.250   4.751   3.382 -0.7127 -0.8597 -0.1917
 5970TIP3    H117874   0.279   4.830   3.427 -3.0804 -0.5725  0.9733
 5970TIP3    H217875   0.246   4.776   3.290 -0.1496 -0.0544 -0.0028
 5971TIP3   OH217876   3.700   2.217   1.641  0.0203  0.0915 -0.0999
 5971TIP3    H117877   3.617   2.223   1.594 -0.3753  0.3395  0.6192
 5971TIP3    H217878   3.755   2.284   1.601 -0.3653  0.4017 -0.1205
 5972TIP3   OH217879   2.355   0.436   2.390 -0.3680 -0.1312  0.3018
 5972TIP3    H117880   2.314   0.494   2.454  0.3511  0.2372  0.4357
 5972TIP3    H217881   2.298   0.359   2.388 -1.0618  0.3617  0.4896
 5973TIP3   OH217882   0.358   2.462   4.933 -0.0634 -0.0332  0.7310
 5973TIP3    H117883   0.438   2.434   4.978  0.0263  0.4586  0.8889
 5973TIP3    H217884   0.342   2.551   4.966 -0.1875  0.2060  0.0361
 5974TIP3   OH217885   4.401   5.415   5.038 -0.0994  0.5191  0.4077
 5974TIP3    H117886   4.456   5.457   4.973 -3.1362  2.8159 -0.9334
 5974TIP3    H217887   4.436   5.443   5.122  1.5803  0.6797 -0.3213
 5975TIP3   OH217888   4.131   3.477   1.282 -0.1056 -0.0744 -0.4795
 5975TIP3    H117889   4.138   3.396   1.334  0.0873 -0.5519 -1.2272
 5975TIP3    H217890   4.203   3.531   1.312 -0.2730 -0.1537  0.0769
 5976TIP3   OH217891   1.589   4.464   4.097  0.8402 -0.3637 -0.5593
 5976TIP3    H117892   1.546   4.458   4.182  2.5488 -0.3368  0.3664
 5976TIP3    H217893   1.652   4.392   4.096 -0.6199 -1.7183 -2.7463
 5977TIP3   OH217894   3.919   1.005   3.152  0.4688  0.3775  0.0897
 5977TIP3    H117895   3.888   1.010   3.243  1.0857 -0.2622  0.3430
 5977TIP3    H217896   4.000   1.055   3.152  1.2989 -0.9318  0.2674
 5978TIP3   OH217897   4.052   5.131   4.582 -0.1224  0.5039 -0.6499
 5978TIP3    H117898   3.994   5.196   4.622  0.2219  0.3727  0.0757
 5978TIP3    H217899   4.137   5.175   4.576  0.0646  0.1938 -0.3336
 5979TIP3   OH217900   1.606   2.561   2.804  0.0499  0.0799 -0.2508
 5979TIP3    H117901   1.683   2.503   2.806  0.4589  0.6403  0.4422
 5979TIP3    H217902   1.611   2.611   2.885  0.7746  2.4675 -1.7024
 5980TIP3   OH217903   0.620   6.584   0.844  0.3531 -0.0857 -0.3636
 5980TIP3    H117904   0.703   6.554   0.809  0.7097 -0.5472  0.8106
 5980TIP3    H217905   0.640   6.669   0.883  0.0972  0.1540 -0.7511
 5981TIP3   OH217906   2.435   6.154   0.726 -0.2651  0.2745  0.3467
 5981TIP3    H117907   2.374   6.170   0.653  1.3200 -1.4300 -1.4433
 5981TIP3    H217908   2.515   6.201   0.702 -0.2274  1.0748  1.8574
 5982TIP3   OH217909   1.315   5.765   5.850  0.8047  0.1777 -0.6467
 5982TIP3    H117910   1.247   5.779   5.784 -0.1198  2.5663  0.6653
 5982TIP3    H217911   1.391   5.813   5.816  0.1620  1.8692  0.1639
 5983TIP3   OH217912   3.677   4.097   4.538 -0.3478 -0.3281  0.6710
 5983TIP3    H117913   3.590   4.137   4.540  0.9757  2.8915  0.4647
 5983TIP3    H217914   3.711   4.118   4.451  0.6328 -1.5639  0.7301
 5984TIP3   OH217915   3.272   6.337   0.444 -0.3942  0.4535 -0.4112
 5984TIP3    H117916   3.344   6.399   0.454  0.0307 -0.1791  0.5761
 5984TIP3    H217917   3.223   6.342   0.526 -1.8668  1.3201 -1.2867
 5985TIP3   OH217918   2.186   0.550   0.152  0.5994  0.0141  0.1341
 5985TIP3    H117919   2.154   0.619   0.093  0.5088  0.1646  0.3571
 5985TIP3    H217920   2.278   0.539   0.129 -0.1151 -1.9697 -2.0492
 5986TIP3   OH217921   3.982   4.185   4.408 -0.6761  0.4730  0.1654
 5986TIP3    H117922   3.903   4.196   4.355 -1.0884  1.5205  0.9526
 5986TIP3    H217923   4.052   4.222   4.355 -0.5121 -1.2849 -0.9269
 5987TIP3   OH217924   0.724   3.516   1.961  0.7471 -0.1049 -0.1903
 5987TIP3    H117925   0.735   3.431   2.004  0.5338 -0.3189 -0.5542
 5987TIP3    H217926   0.811   3.556   1.965  1.2920 -1.0687 -1.5417
 5988TIP3   OH217927   5.078   5.007   2.096  0.1120  0.0885 -0.1059
 5988TIP3    H117928   4.990   4.972   2.097  0.7897 -1.7144 -0.7425
 5988TIP3    H217929   5.126   4.954   2.159  0.8514  0.7688 -0.0767
 5989TIP3   OH217930   6.808   5.857   3.381 -0.0737  0.1176 -0.6843
 5989TIP3    H117931   6.851   5.844   3.297 -3.2711  1.7158 -2.7591
 5989TIP3    H217932   6.778   5.948   3.378  2.4658  1.4136  3.6906
 5990TIP3   OH217933   2.749   2.246   0.855 -0.2068  0.0440  0.5606
 5990TIP3    H117934   2.809   2.222   0.784  0.2520 -0.4100  1.0966
 5990TIP3    H217935   2.695   2.168   0.868  0.4330 -0.2676  1.4361
 5991TIP3   OH217936   1.553   2.673   2.561 -0.1201  0.1214 -0.0792
 5991TIP3    H117937   1.605   2.635   2.632  1.2928  1.1991 -0.4962
 5991TIP3    H217938   1.514   2.597   2.517 -1.1161 -0.5643  1.8666
 5992TIP3   OH217939   3.549   5.342   5.527 -0.0770 -0.3325 -0.4160
 5992TIP3    H117940   3.503   5.342   5.443  1.2424  1.7630 -1.2161
 5992TIP3    H217941   3.628   5.394   5.511  0.4384 -0.2563  2.0138
 5993TIP3   OH217942   0.833   5.544   3.363 -0.0450  0.8439 -0.1181
 5993TIP3    H117943   0.914   5.582   3.331  0.5348  0.3994  0.7630
 5993TIP3    H217944   0.818   5.467   3.308  0.8115  0.2238  0.4818
 5994TIP3   OH217945   0.737   5.205   1.636  0.0860 -0.5544 -0.1921
 5994TIP3    H117946   0.668   5.141   1.623  0.5121 -0.9726 -0.4498
 5994TIP3    H217947   0.816   5.161   1.605  0.8414 -0.8694  1.9953
 5995TIP3   OH217948   0.949   1.977   1.193 -0.1496  0.1750 -0.4133
 5995TIP3    H117949   0.866   1.956   1.236  0.3134  0.3523  0.5887
 5995TIP3    H217950   1.016   1.954   1.257  0.5784  0.1690 -1.1558
 5996TIP3   OH217951   2.524   5.566   3.868  0.1121  0.2695 -0.3435
 5996TIP3    H117952   2.556   5.476   3.878 -1.0557 -0.1214 -0.0106
 5996TIP3    H217953   2.478   5.585   3.950  1.9130  1.8572  0.3782
 5997TIP3   OH217954   3.522   1.319   2.277  0.1802 -0.5121 -0.2595
 5997TIP3    H117955   3.577   1.281   2.209  1.4002  0.0303  0.3880
 5997TIP3    H217956   3.462   1.249   2.302  0.9680 -1.3154 -0.5735
 5998TIP3   OH217957   4.859   0.998   3.884  0.0115 -0.9263  0.3790
 5998TIP3    H117958   4.803   1.050   3.942 -0.9523 -2.9370  1.3583
 5998TIP3    H217959   4.798   0.958   3.822  1.0470  1.4232 -2.3637
 5999TIP3   OH217960   6.989   6.139   1.892  0.1258  0.7965  0.1787
 5999TIP3    H117961   6.925   6.157   1.823  0.1498 -0.1151 -0.0992
 5999TIP3    H217962   6.936   6.120   1.970  0.0213 -0.2108 -0.1135
 6000TIP3   OH217963   5.368   6.542   5.343  0.4850  0.5649  0.4369
 6000TIP3    H117964   5.459   6.519   5.363 -0.2228 -1.8400  1.2127
 6000TIP3    H217965   5.319   6.515   5.420 -0.9199  1.7229 -0.0196
 6001TIP3   OH217966   1.555   6.277   1.353 -0.1043 -0.5677  0.6069
 6001TIP3    H117967   1.604   6.202   1.385  1.0158  0.1445  0.6406
 6001TIP3    H217968   1.468   6.243   1.333  0.0677 -1.6406  1.5974
 6002TIP3   OH217969   6.066   3.533   2.018 -0.1181 -0.0858  0.7008
 6002TIP3    H117970   5.993   3.514   1.959  0.3217  0.8498 -0.1812
 6002TIP3    H217971   6.025   3.556   2.101 -0.8539  0.5995  0.1711
 6003TIP3   OH217972   4.869   1.396   2.678  0.1730  0.3639 -0.0309
 6003TIP3    H117973   4.934   1.433   2.738  0.2444  0.0824  0.0634
 6003TIP3    H217974   4.803   1.465   2.670  0.0504  0.3209  0.5398
 6004TIP3   OH217975   3.928   0.962   1.125  0.8607  0.0053 -0.0526
 6004TIP3    H117976   3.883   1.022   1.065  0.2540  0.2222  0.6106
 6004TIP3    H217977   3.883   0.973   1.208  1.7176 -0.2725  0.4588
 6005TIP3   OH217978   6.984   0.103   3.556  0.0288  0.3076  0.4585
 6005TIP3    H117979   6.940   0.021   3.531  1.5809 -0.6810  0.8227
 6005TIP3    H217980   6.960   0.115   3.648 -0.6085  0.5454  0.2664
 6006TIP3   OH217981   3.105   3.471   3.171 -0.0130  0.2410 -0.0022
 6006TIP3    H117982   3.140   3.542   3.117 -1.9609  2.3459  1.2773
 6006TIP3    H217983   3.048   3.515   3.234 -1.1272 -2.4762  1.0608
 6007TIP3   OH217984   3.926   6.079   3.608  0.2310 -0.0603  0.1747
 6007TIP3    H117985   3.895   6.123   3.528  0.9854  0.4736  0.1607
 6007TIP3    H217986   3.927   6.148   3.674  0.4262 -0.3037  0.4268
 6008TIP3   OH217987   6.315   1.776   0.322 -0.0127  0.1764  0.0419
 6008TIP3    H117988   6.406   1.801   0.335 -0.5255  3.1102 -1.2889
 6008TIP3    H217989   6.264   1.849   0.359 -1.8071 -0.8864 -0.2052
 6009TIP3   OH217990   1.292   3.525   1.948 -0.2995  0.1591 -0.2890
 6009TIP3    H117991   1.384   3.519   1.975 -0.6866 -0.0299  1.0392
 6009TIP3    H217992   1.295   3.569   1.863  1.1355 -1.2330 -1.0104
 6010TIP3   OH217993   5.248   1.454   1.757 -0.2052  0.9352  0.1742
 6010TIP3    H117994   5.295   1.503   1.824  1.0534 -0.8295  0.6730
 6010TIP3    H217995   5.185   1.401   1.805  1.1425 -0.8214  0.1129
 6011TIP3   OH217996   3.665   3.266   1.970 -0.4036  0.3739 -0.0595
 6011TIP3    H117997   3.649   3.208   2.044  1.1550  0.4684  0.3947
 6011TIP3    H217998   3.585   3.261   1.918 -0.0228 -2.9053 -0.5358
 6012TIP3   OH217999   6.825   6.718   1.345  0.3631 -0.4046  0.0615
 6012TIP3    H118000   6.820   6.745   1.437  1.3610 -0.8112  0.2462
 6012TIP3    H218001   6.757   6.769   1.302  0.4007  0.3761  0.8884
 6013TIP3   OH218002   3.657   1.303   3.172  0.1445  0.3998 -0.2050
 6013TIP3    H118003   3.687   1.299   3.081 -2.5315  2.6058 -1.3634
 6013TIP3    H218004   3.642   1.397   3.188 -1.0484 -0.0812  1.9428
 6014TIP3   OH218005   2.821   2.707   0.902 -0.4919 -0.1002 -0.1986
 6014TIP3    H118006   2.787   2.791   0.870  2.0529  1.1102 -0.0406
 6014TIP3    H218007   2.859   2.665   0.825  2.9273  1.4273  0.4519
 6015TIP3   OH218008   2.000   5.340   3.294 -0.1053  0.4430  0.4786
 6015TIP3    H118009   1.991   5.333   3.199  0.7043  3.0957  0.1339
 6015TIP3    H218010   2.081   5.294   3.314  0.2521  0.7363 -0.2619
 6016TIP3   OH218011   4.265   3.769   3.111  0.3333  0.4818  0.2006
 6016TIP3    H118012   4.286   3.814   3.193 -1.3540 -0.1307  1.0152
 6016TIP3    H218013   4.214   3.693   3.138  0.5867 -0.2728 -1.3623
 6017TIP3   OH218014   5.239   6.185   5.614  0.0183 -0.2166 -0.1491
 6017TIP3    H118015   5.191   6.109   5.583  1.2521 -0.9257 -0.3864
 6017TIP3    H218016   5.319   6.149   5.654  0.2977  0.9065  0.3519
 6018TIP3   OH218017   1.351   3.623   3.770  0.2462 -0.0573  0.1736
 6018TIP3    H118018   1.355   3.528   3.771 -1.6449 -0.1603  0.6596
 6018TIP3    H218019   1.377   3.647   3.681 -2.1675 -1.2416 -0.9514
 6019TIP3   OH218020   6.232   1.703   3.848  0.5015 -0.1328 -0.4807
 6019TIP3    H118021   6.190   1.766   3.906  1.0442  0.5452 -0.8031
 6019TIP3    H218022   6.315   1.683   3.890  0.6424 -0.0787 -0.7274
 6020TIP3   OH218023   6.199   0.911   3.782  0.3758 -0.5740 -0.0671
 6020TIP3    H118024   6.207   0.940   3.873 -1.1023 -0.6331  0.1020
 6020TIP3    H218025   6.120   0.858   3.780  0.4351 -0.6556 -1.3779
 6021TIP3   OH218026   5.355   1.758   4.698 -0.0641  0.0268  0.2594
 6021TIP3    H118027   5.408   1.685   4.666 -0.1626 -0.2310  0.6637
 6021TIP3    H218028   5.265   1.724   4.698 -0.2585  0.5216 -0.5978
 6022TIP3   OH218029   0.247   5.436   4.807 -0.3167 -0.4439 -0.8302
 6022TIP3    H118030   0.339   5.411   4.801 -0.3774 -1.7909  2.2661
 6022TIP3    H218031   0.246   5.510   4.867 -1.3951 -2.0150  1.2001
 6023TIP3   OH218032   5.290   5.766   5.376  0.3875 -0.7231 -0.1018
 6023TIP3    H118033   5.240   5.735   5.301 -1.6643 -1.5503  1.5063
 6023TIP3    H218034   5.345   5.691   5.400  0.2152 -0.8569 -0.1171
 6024TIP3   OH218035   4.900   0.550   1.056 -0.0330  0.9436 -0.4153
 6024TIP3    H118036   4.934   0.573   1.143  1.3866  0.9653 -0.9416
 6024TIP3    H218037   4.846   0.472   1.071  1.4383  0.0132  0.2867
 6025TIP3   OH218038   1.532   2.614   1.217  0.1495 -0.0154 -0.6253
 6025TIP3    H118039   1.586   2.542   1.249 -0.5709  0.4615  1.8016
 6025TIP3    H218040   1.446   2.575   1.200  0.5451 -0.2842 -2.2286
 6026TIP3   OH218041   2.034   6.764   3.022  0.0444 -0.1722 -0.2824
 6026TIP3    H118042   2.085   6.762   3.103  0.8390  0.5588 -0.7565
 6026TIP3    H218043   2.099   6.776   2.953 -0.6885 -0.1478 -0.9795
 6027TIP3   OH218044   6.390   3.170   5.206  0.1691  0.0548 -0.2630
 6027TIP3    H118045   6.472   3.150   5.252 -0.0217 -0.3493 -0.0923
 6027TIP3    H218046   6.324   3.176   5.275  0.0264  0.2286 -0.4134
 6028TIP3   OH218047   1.085   2.663   4.908 -0.1154  0.2542 -0.2539
 6028TIP3    H118048   1.124   2.714   4.979  1.8935 -0.8575 -0.4951
 6028TIP3    H218049   1.158   2.641   4.851 -0.6566 -3.5417  0.2462
 6029TIP3   OH218050   2.670   1.985   5.280 -0.2263 -0.3297  0.5095
 6029TIP3    H118051   2.718   1.959   5.201  0.0207  1.7806 -0.0952
 6029TIP3    H218052   2.736   2.025   5.336 -0.8724  0.5393  0.6634
 6030TIP3   OH218053   0.145   3.694   1.665  0.3854  0.5804 -0.2862
 6030TIP3    H118054   0.054   3.687   1.695  0.9139  0.1010  1.2807
 6030TIP3    H218055   0.179   3.772   1.708  1.7442 -1.2115  2.1275
 6031TIP3   OH218056   1.959   2.428   3.354  0.5810 -0.7179  0.4000
 6031TIP3    H118057   1.875   2.420   3.399 -0.8094 -0.8151 -2.0359
 6031TIP3    H218058   2.021   2.453   3.422 -1.9478  2.1779  1.8677
 6032TIP3   OH218059   4.947   3.991   1.821  0.4177 -0.8404 -0.2767
 6032TIP3    H118060   4.864   3.990   1.869  0.9137 -1.8333  0.5985
 6032TIP3    H218061   4.933   3.934   1.746  0.5741 -1.7260  0.3574
 6033TIP3   OH218062   5.534   5.504   5.148  0.0773 -0.2556 -0.8593
 6033TIP3    H118063   5.463   5.469   5.094 -0.5752 -2.5949  1.3135
 6033TIP3    H218064   5.594   5.430   5.159  1.5233  0.9254 -0.4903
 6034TIP3   OH218065   4.069   3.178   0.418 -0.7254  0.4636  0.1726
 6034TIP3    H118066   4.020   3.230   0.354 -0.7561 -1.3173 -1.3236
 6034TIP3    H218067   4.158   3.178   0.386 -0.5018  0.4967  0.7766
 6035TIP3   OH218068   0.494   3.487   2.355  0.7547 -0.2366  0.0009
 6035TIP3    H118069   0.556   3.543   2.308  0.5684 -0.8348 -0.9923
 6035TIP3    H218070   0.451   3.545   2.418  2.9955 -0.0079  1.4104
 6036TIP3   OH218071   2.487   1.664   3.010  0.0700  0.0568 -0.4187
 6036TIP3    H118072   2.570   1.709   2.995 -0.5831  1.2230 -0.6851
 6036TIP3    H218073   2.444   1.664   2.924 -0.3396 -0.2542 -0.2182
 6037TIP3   OH218074   5.762   0.998   0.740  0.3863  0.1718 -0.0489
 6037TIP3    H118075   5.685   1.047   0.769 -0.1550  0.4823 -1.8996
 6037TIP3    H218076   5.796   1.048   0.666  0.8355 -1.3435 -0.9088
 6038TIP3   OH218077   6.847   2.060   0.627 -0.5098  0.1064 -0.4893
 6038TIP3    H118078   6.908   2.130   0.651  0.8410 -0.8340 -1.0612
 6038TIP3    H218079   6.843   2.004   0.704 -1.1548  0.4868 -0.2344
 6039TIP3   OH218080   3.865   1.381   5.226 -0.3748 -0.4707  0.6141
 6039TIP3    H118081   3.939   1.322   5.238 -0.2651 -0.3023  0.7628
 6039TIP3    H218082   3.805   1.332   5.170 -0.3465 -0.7778  0.8470
 6040TIP3   OH218083   2.137   1.473   5.477  0.3575  0.0430  0.2675
 6040TIP3    H118084   2.151   1.465   5.383  2.2687  1.2364  0.4027
 6040TIP3    H218085   2.052   1.517   5.485 -0.6014 -1.5016 -0.8156
 6041TIP3   OH218086   6.821   3.703   2.688 -0.5395 -0.1936  0.2893
 6041TIP3    H118087   6.907   3.667   2.710 -0.4015  0.2597  0.5206
 6041TIP3    H218088   6.773   3.700   2.771 -0.9381 -0.9596  0.0344
 6042TIP3   OH218089   4.828   4.517   4.818 -0.4566 -0.2147 -0.2642
 6042TIP3    H118090   4.814   4.431   4.858  0.9837 -0.7089 -0.7683
 6042TIP3    H218091   4.753   4.569   4.847 -1.4771 -1.6913 -0.1271
 6043TIP3   OH218092   1.395   5.417   4.995 -0.3827  0.1066  0.5223
 6043TIP3    H118093   1.389   5.506   4.960  0.8866  1.5020  3.4762
 6043TIP3    H218094   1.323   5.411   5.058 -1.1129 -1.3883 -0.4164
 6044TIP3   OH218095   4.554   1.968   3.710  0.3512  0.1214  0.2811
 6044TIP3    H118096   4.552   1.998   3.801 -1.4602  1.1102 -0.0199
 6044TIP3    H218097   4.555   1.872   3.716 -0.8109  0.1470  1.3912
 6045TIP3   OH218098   1.463   3.380   0.550 -0.0774  0.7145 -0.6212
 6045TIP3    H118099   1.508   3.454   0.590 -1.0039  1.9316 -1.7165
 6045TIP3    H218100   1.505   3.371   0.464  3.1423 -3.0213  1.0600
 6046TIP3   OH218101   4.253   3.065   2.114  0.1022  0.3845 -0.0850
 6046TIP3    H118102   4.202   3.041   2.037  0.0378 -1.8369  0.5724
 6046TIP3    H218103   4.304   2.986   2.133 -0.2218  0.7182  2.4001
 6047TIP3   OH218104   0.858   2.890   1.126  0.2139  0.0505 -0.1065
 6047TIP3    H118105   0.778   2.918   1.080  0.2298  0.3920  0.0751
 6047TIP3    H218106   0.846   2.920   1.216  1.7838  2.6956 -0.6611
 6048TIP3   OH218107   2.011   6.628   1.603  0.0851  0.4963 -0.5437
 6048TIP3    H118108   2.070   6.591   1.537  1.3947  2.0430 -0.3112
 6048TIP3    H218109   2.008   6.561   1.672  1.2869  0.2115 -0.7383
 6049TIP3   OH218110   3.291   5.304   5.683 -0.0309  0.0326 -0.2759
 6049TIP3    H118111   3.270   5.348   5.766 -0.8474 -3.6303  1.6493
 6049TIP3    H218112   3.387   5.297   5.684 -0.1035 -1.2214  1.1334
 6050TIP3   OH218113   4.239   5.092   3.202 -0.0384 -0.1926  0.0684
 6050TIP3    H118114   4.285   5.008   3.203  1.1505  0.3305 -2.3875
 6050TIP3    H218115   4.150   5.070   3.174  0.5219 -0.5931 -1.5073
 6051TIP3   OH218116   2.794   6.451   2.420 -0.3175  0.0557 -0.1910
 6051TIP3    H118117   2.788   6.533   2.371 -1.1986 -0.5015 -1.0458
 6051TIP3    H218118   2.708   6.442   2.462  0.1087  0.0557  0.7157
 6052TIP3   OH218119   6.251   3.346   1.145 -0.3376  0.0027 -0.8612
 6052TIP3    H118120   6.177   3.342   1.205  0.1059 -2.2956 -0.3680
 6052TIP3    H218121   6.246   3.265   1.095  2.1547 -0.5307 -0.3864
 6053TIP3   OH218122   0.666   2.561   4.179  0.2199 -0.3638  0.3460
 6053TIP3    H118123   0.632   2.513   4.103 -1.2335  0.0417  0.6978
 6053TIP3    H218124   0.655   2.500   4.252 -1.5894  0.4124  0.7859
 6054TIP3   OH218125   5.893   4.308   2.179 -0.3487 -0.4541  0.4814
 6054TIP3    H118126   5.876   4.400   2.158  0.1975 -0.7091 -1.2946
 6054TIP3    H218127   5.984   4.294   2.154 -0.5515 -1.5843  0.2987
 6055TIP3   OH218128   5.464   4.018   2.483  0.4785  0.0079 -0.7499
 6055TIP3    H118129   5.538   3.985   2.432 -0.2599 -1.0053 -1.2035
 6055TIP3    H218130   5.484   4.110   2.498  1.7508 -0.2098 -1.0057
 6056TIP3   OH218131   0.305   4.536   1.712 -0.3847  0.1224 -0.0328
 6056TIP3    H118132   0.246   4.543   1.637  0.6230 -0.2672 -0.8832
 6056TIP3    H218133   0.266   4.467   1.767 -0.8269  0.0115 -0.4827
 6057TIP3   OH218134   2.028   3.292   2.677 -0.2417  0.6438  0.4007
 6057TIP3    H118135   2.116   3.258   2.687 -0.4587 -0.6804 -1.5809
 6057TIP3    H218136   1.986   3.276   2.762  1.1814  0.6428  1.1280
 6058TIP3   OH218137   1.736   6.457   3.300  0.2129  0.5069  0.4098
 6058TIP3    H118138   1.779   6.528   3.348 -1.4298  2.7929 -1.2502
 6058TIP3    H218139   1.645   6.459   3.331  0.3576 -1.6993  1.1369
 6059TIP3   OH218140   3.506   1.353   3.609  0.2606 -0.5995  0.3438
 6059TIP3    H118141   3.533   1.428   3.556 -0.2903  1.0058  2.1993
 6059TIP3    H218142   3.525   1.379   3.699 -0.8794 -2.2877  1.1325
 6060TIP3   OH218143   1.962   3.799   2.934  0.1673 -0.3771  0.1786
 6060TIP3    H118144   1.924   3.711   2.929  0.3728 -0.4180 -1.1480
 6060TIP3    H218145   1.899   3.850   2.984 -0.0783 -1.2121  0.7500
 6061TIP3   OH218146   6.935   3.423   0.566  0.1674  0.0284 -0.1363
 6061TIP3    H118147   6.933   3.508   0.610  0.5627 -0.3300  0.6006
 6061TIP3    H218148   6.891   3.438   0.482 -0.5246  0.7472  0.3409
 6062TIP3   OH218149   4.069   0.566   2.459 -0.1670  0.0002  0.0249
 6062TIP3    H118150   4.063   0.634   2.527 -1.5261  0.7400 -0.7703
 6062TIP3    H218151   3.984   0.522   2.462 -0.3719  0.2500 -1.3790
 6063TIP3   OH218152   4.490   2.646   3.112 -0.5766  0.0542  0.2987
 6063TIP3    H118153   4.428   2.626   3.041 -1.5249  0.1455  1.0698
 6063TIP3    H218154   4.516   2.736   3.097  0.3922 -0.3934 -0.7750
 6064TIP3   OH218155   4.321   5.286   0.387 -0.2763 -0.2052  0.2311
 6064TIP3    H118156   4.403   5.270   0.339 -1.1930 -2.2291 -0.8173
 6064TIP3    H218157   4.348   5.332   0.466  1.6983  0.4043 -0.7213
 6065TIP3   OH218158   1.772   0.100   3.244  0.4339  0.2728 -0.2854
 6065TIP3    H118159   1.778   0.082   3.337 -0.6864 -0.7509 -0.3851
 6065TIP3    H218160   1.845   0.051   3.205 -0.8196 -1.7449 -0.2276
 6066TIP3   OH218161   1.014   6.780   2.506 -0.0566  0.3029 -0.2881
 6066TIP3    H118162   1.033   6.696   2.548 -1.3913  1.4698  2.9190
 6066TIP3    H218163   1.100   6.814   2.482  0.6066 -1.3385 -0.3780
 6067TIP3   OH218164   6.103   4.992   0.427 -0.0057 -0.1931  0.9402
 6067TIP3    H118165   6.026   5.010   0.373  1.2520  1.5159 -0.4172
 6067TIP3    H218166   6.102   5.062   0.493  1.2508  0.8881 -0.1380
 6068TIP3   OH218167   3.419   1.551   2.644  0.0551  0.6774  0.3200
 6068TIP3    H118168   3.343   1.502   2.613  0.3768  1.3992 -1.7715
 6068TIP3    H218169   3.479   1.484   2.677  0.7003 -0.5398 -2.9385
 6069TIP3   OH218170   6.213   6.060   1.176 -0.4763 -0.0161 -0.1795
 6069TIP3    H118171   6.219   6.086   1.268  0.7935  1.3681 -0.6149
 6069TIP3    H218172   6.151   5.987   1.176 -1.6193  0.8730  1.5656
 6070TIP3   OH218173   7.000   2.897   3.026 -0.6474  0.2209  0.5064
 6070TIP3    H118174   6.996   2.819   3.081 -1.0907 -1.0170 -1.1895
 6070TIP3    H218175   7.088   2.933   3.040  0.3460 -1.7890 -0.1957
 6071TIP3   OH218176   0.971   4.818   4.037  0.4860  0.0694  0.6259
 6071TIP3    H118177   1.047   4.763   4.020 -0.0753 -0.3515 -0.6226
 6071TIP3    H218178   0.902   4.757   4.063 -0.8467 -0.2055 -3.0870
 6072TIP3   OH218179   6.107   0.570   4.301  0.2573  0.1904 -0.0061
 6072TIP3    H118180   6.135   0.572   4.393 -1.2271 -0.8322  0.5109
 6072TIP3    H218181   6.071   0.657   4.285  1.7003  0.8089 -0.0422
 6073TIP3   OH218182   3.553   1.855   3.286 -0.0400 -0.1279  0.2813
 6073TIP3    H118183   3.467   1.841   3.245 -0.1665 -0.3708  0.6249
 6073TIP3    H218184   3.615   1.812   3.227 -0.1732 -0.1001  0.1198
 6074TIP3   OH218185   3.703   0.392   4.011 -0.3834  0.0837  0.0526
 6074TIP3    H118186   3.694   0.308   3.967  1.9031 -0.1536 -0.0705
 6074TIP3    H218187   3.666   0.377   4.098 -1.2702 -0.6157 -0.4282
 6075TIP3   OH218188   4.008   1.318   4.828 -0.2804 -0.3053 -0.3417
 6075TIP3    H118189   4.003   1.222   4.827 -0.7729 -0.3127  1.0590
 6075TIP3    H218190   4.062   1.338   4.904  0.8635  0.5211 -1.3387
 6076TIP3   OH218191   5.155   4.180   4.113  0.7852 -0.2569  0.0885
 6076TIP3    H118192   5.189   4.266   4.089  0.2917  0.0286  0.3799
 6076TIP3    H218193   5.210   4.152   4.186 -1.9640  2.0387  3.4272
 6077TIP3   OH218194   2.300   5.394   5.858  0.3227 -0.0274  0.3458
 6077TIP3    H118195   2.278   5.360   5.945  0.3503  0.2830  0.4759
 6077TIP3    H218196   2.286   5.320   5.799 -1.3364  0.2355  0.3742
 6078TIP3   OH218197   6.885   0.219   5.322 -0.0934 -0.2108 -0.4098
 6078TIP3    H118198   6.808   0.167   5.347 -0.6856  1.0083  0.3748
 6078TIP3    H218199   6.873   0.235   5.228 -1.2244  0.6299 -0.1425
 6079TIP3   OH218200   3.324   4.659   2.587  0.2715 -0.4540  0.3159
 6079TIP3    H118201   3.318   4.588   2.650  0.9649 -0.2728  0.6019
 6079TIP3    H218202   3.381   4.723   2.629  1.0018 -0.4675 -0.6223
 6080TIP3   OH218203   5.763   4.885   1.981  0.1770  0.4168  0.3150
 6080TIP3    H118204   5.777   4.858   2.072 -0.4169  0.1322  0.3334
 6080TIP3    H218205   5.784   4.807   1.929  0.2086  0.4793  0.2336
 6081TIP3   OH218206   1.339   4.111   1.292 -0.5592 -0.4510 -0.3801
 6081TIP3    H118207   1.258   4.123   1.241 -0.9928 -0.5095  0.2740
 6081TIP3    H218208   1.373   4.026   1.263 -0.5808 -0.3011 -0.8596
 6082TIP3   OH218209   5.026   0.703   2.633  0.2544 -0.0090  0.1222
 6082TIP3    H118210   4.978   0.778   2.668  0.0759 -1.1291  2.4710
 6082TIP3    H218211   5.114   0.737   2.616 -0.3273  1.1646 -0.7004
 6083TIP3   OH218212  -0.029   0.891   5.473  0.4084  0.3434 -0.3099
 6083TIP3    H118213   0.017   0.852   5.399 -0.2902 -1.0645 -0.0277
 6083TIP3    H218214   0.036   0.950   5.513  0.6644  1.4626 -2.2590
 6084TIP3   OH218215   1.960   3.423   4.092 -0.1200  0.6092  0.2707
 6084TIP3    H118216   2.055   3.424   4.077 -0.3817 -0.7678 -2.0015
 6084TIP3    H218217   1.933   3.514   4.080  0.6451  0.6360 -1.5229
 6085TIP3   OH218218   3.803   5.710   2.229  0.0590 -0.0452  0.0969
 6085TIP3    H118219   3.866   5.751   2.289  2.2595 -0.8383 -1.5369
 6085TIP3    H218220   3.724   5.698   2.282 -1.0101  6.3560  0.7845
 6086TIP3   OH218221   3.163   2.275   0.349  0.2069  0.3372 -0.3372
 6086TIP3    H118222   3.226   2.224   0.401 -0.3123  0.2920  0.2545
 6086TIP3    H218223   3.091   2.214   0.332 -0.2583  0.7674  0.0766
 6087TIP3   OH218224   1.565   0.604   1.009 -0.3146 -0.0451 -0.4639
 6087TIP3    H118225   1.587   0.695   0.991 -1.0189  0.3432  0.5292
 6087TIP3    H218226   1.481   0.590   0.966 -1.4168  0.5353  1.3808
 6088TIP3   OH218227   0.151   2.879   4.567 -0.0173 -0.2012 -0.3227
 6088TIP3    H118228   0.117   2.943   4.630 -2.1008 -0.9654 -0.5885
 6088TIP3    H218229   0.091   2.885   4.493  1.1338 -0.8431 -1.3312
 6089TIP3   OH218230   0.859   5.035   3.158 -0.4196 -0.2163  0.3067
 6089TIP3    H118231   0.869   4.995   3.071 -2.0774 -1.9676  0.8575
 6089TIP3    H218232   0.949   5.046   3.190  0.1559 -1.4898 -0.7805
 6090TIP3   OH218233   1.775   5.274   3.448 -0.3965  0.0901 -0.1529
 6090TIP3    H118234   1.699   5.313   3.405  0.3492  1.0019 -0.6790
 6090TIP3    H218235   1.850   5.321   3.412  0.2535  1.3312  2.5496
 6091TIP3   OH218236   6.440   4.678   2.114 -0.3295 -0.5970  0.0441
 6091TIP3    H118237   6.488   4.643   2.039 -0.9697  0.5653 -0.9482
 6091TIP3    H218238   6.475   4.767   2.126 -2.1820  0.2832 -0.7109
 6092TIP3   OH218239   2.379   3.551   5.628 -0.1258 -0.1380 -0.0824
 6092TIP3    H118240   2.318   3.593   5.567  0.0664 -0.7957 -0.7408
 6092TIP3    H218241   2.355   3.587   5.714 -1.8985 -0.8553 -0.2199
 6093TIP3   OH218242   1.840   1.486   1.067  0.2516  0.9575  0.1928
 6093TIP3    H118243   1.900   1.558   1.050  0.5302  0.7382  0.2406
 6093TIP3    H218244   1.753   1.527   1.073  0.3913  1.2667  0.0804
 6094TIP3   OH218245   0.635   3.704   4.055  0.1362  0.3481  0.7798
 6094TIP3    H118246   0.658   3.770   3.989 -1.5587 -1.0248 -1.3374
 6094TIP3    H218247   0.685   3.627   4.030 -1.4644 -0.5742  0.2464
 6095TIP3   OH218248   2.886   5.592   3.664  0.3126  0.0382 -0.3081
 6095TIP3    H118249   2.855   5.501   3.674 -1.1425  0.5218 -0.1369
 6095TIP3    H218250   2.952   5.602   3.733  0.7027 -0.9603 -0.5091
 6096TIP3   OH218251   0.255   0.531   0.301  0.1301 -0.1348 -0.4138
 6096TIP3    H118252   0.188   0.538   0.233 -0.1249 -0.0485 -0.1554
 6096TIP3    H218253   0.215   0.570   0.378  0.5468  0.0841 -0.3062
 6097TIP3   OH218254   5.253   3.842   3.634 -0.2891  0.1704 -0.2672
 6097TIP3    H118255   5.200   3.776   3.591  0.8547 -0.5909 -0.5439
 6097TIP3    H218256   5.263   3.810   3.724  2.1262 -1.2516 -0.9628
 6098TIP3   OH218257   4.536   6.251   1.706 -0.1828  0.0356 -0.0093
 6098TIP3    H118258   4.540   6.238   1.800 -0.1129  0.2353  0.0154
 6098TIP3    H218259   4.620   6.289   1.683 -0.2948  0.2226 -0.1148
 6099TIP3   OH218260   2.061   6.082   2.267  0.0857  0.4681 -0.4296
 6099TIP3    H118261   2.057   6.095   2.362 -1.5737 -1.6533 -0.1127
 6099TIP3    H218262   1.988   6.135   2.233 -0.5756 -0.2981 -0.2508
 6100TIP3   OH218263   0.990   3.407   4.109 -0.0036  0.3515  0.1404
 6100TIP3    H118264   1.045   3.460   4.167 -1.0755  0.3551  1.1813
 6100TIP3    H218265   1.033   3.414   4.023  1.4056  0.6481  0.8390
 6101TIP3   OH218266   6.073   4.178   2.884  0.0171 -0.0735 -0.3298
 6101TIP3    H118267   6.047   4.136   2.802 -3.1181  0.1171  0.4271
 6101TIP3    H218268   6.049   4.270   2.872  1.7187  0.4332 -0.0133
 6102TIP3   OH218269   4.868   0.848   0.341 -0.2636  0.3258 -0.3935
 6102TIP3    H118270   4.934   0.815   0.402 -1.0011  0.1428  0.3234
 6102TIP3    H218271   4.820   0.771   0.314 -0.3175  0.4842 -0.7508
 6103TIP3   OH218272   5.628   1.719   3.057  0.4305 -0.8339 -0.0967
 6103TIP3    H118273   5.647   1.809   3.030 -0.3626 -0.1366  1.4631
 6103TIP3    H218274   5.685   1.705   3.133  0.6751 -1.7288 -0.4386
 6104TIP3   OH218275   4.640   6.787   3.282 -0.3327  0.0899  0.3005
 6104TIP3    H118276   4.586   6.834   3.346 -0.9316  1.3247 -1.0715
 6104TIP3    H218277   4.619   6.695   3.296 -0.8816  0.3762  1.4908
 6105TIP3   OH218278   1.457   4.244   4.866  0.4131 -0.2006 -0.3671
 6105TIP3    H118279   1.510   4.258   4.787 -0.4653  1.1759 -0.7357
 6105TIP3    H218280   1.367   4.247   4.835  0.0464  0.9705  0.7751
 6106TIP3   OH218281   5.070   3.541   0.882 -0.3489  0.4692 -0.3386
 6106TIP3    H118282   5.152   3.517   0.839 -0.8038  0.3632 -1.1762
 6106TIP3    H218283   5.043   3.622   0.838 -0.1715  1.0787  0.6507
 6107TIP3   OH218284   6.924   4.093   4.274  0.3300 -0.3188 -0.1966
 6107TIP3    H118285   6.895   4.056   4.357 -0.2967  0.0974 -0.2269
 6107TIP3    H218286   6.905   4.025   4.209  0.2643 -0.4075 -0.0850
 6108TIP3   OH218287   6.659   3.814   2.081  0.2127  0.3127 -0.6409
 6108TIP3    H118288   6.606   3.743   2.117  1.2102 -0.4076 -0.5527
 6108TIP3    H218289   6.726   3.830   2.148  1.5545 -0.4412 -1.7713
 6109TIP3   OH218290   3.421   5.171   3.132  0.3802  0.3070 -0.0148
 6109TIP3    H118291   3.356   5.207   3.072 -0.3942 -0.8676  0.0913
 6109TIP3    H218292   3.434   5.081   3.102  0.2305 -0.1927  1.3419
 6110TIP3   OH218293   4.681   4.403   5.694  0.4732  0.4084 -0.2984
 6110TIP3    H118294   4.693   4.443   5.608  2.1971  1.2736  0.2962
 6110TIP3    H218295   4.702   4.472   5.757  1.8106 -0.9090  0.7871
 6111TIP3   OH218296   5.832   2.854   1.046 -0.1159 -0.2136  0.2122
 6111TIP3    H118297   5.894   2.885   0.981 -0.0274  2.0957  1.3078
 6111TIP3    H218298   5.746   2.870   1.007 -0.0757  1.7618  0.8585
 6112TIP3   OH218299   2.885   6.222   0.936 -0.0288  0.1594 -0.1201
 6112TIP3    H118300   2.907   6.307   0.900 -0.2403  0.3717  0.2417
 6112TIP3    H218301   2.789   6.222   0.941 -0.0357 -0.1475 -0.2387
 6113TIP3   OH218302   4.615   4.939   0.411  0.1912 -0.0183  0.1078
 6113TIP3    H118303   4.703   4.918   0.380  0.4230  0.8148  0.1985
 6113TIP3    H218304   4.600   5.029   0.383 -0.5782 -0.1023  0.2265
 6114TIP3   OH218305   4.833   2.847   5.002 -0.5918  0.8765 -0.0259
 6114TIP3    H118306   4.903   2.913   5.003 -1.2376  1.7096 -2.5509
 6114TIP3    H218307   4.767   2.883   4.943 -2.2435 -0.8383  0.6599
 6115TIP3   OH218308   2.677   6.518   1.442  0.3566 -0.0592  0.2089
 6115TIP3    H118309   2.748   6.468   1.403  0.2289 -0.4705  0.4918
 6115TIP3    H218310   2.715   6.604   1.461  0.5752 -0.0467 -0.2810
 6116TIP3   OH218311   0.253   5.966   0.792 -0.0791 -0.2458  0.0748
 6116TIP3    H118312   0.280   5.924   0.873  1.0473 -0.2897 -0.3066
 6116TIP3    H218313   0.318   6.035   0.777 -2.1325  2.0014  0.9316
 6117TIP3   OH218314   0.981   2.948   3.149 -0.0096  0.0373 -0.1529
 6117TIP3    H118315   0.955   2.858   3.168 -1.6305  0.4146 -0.4721
 6117TIP3    H218316   0.899   2.994   3.129  0.8782  1.3385 -1.0193
 6118TIP3   OH218317   1.573   3.883   2.947  0.0084  0.0359  0.2017
 6118TIP3    H118318   1.602   3.827   2.875  2.4656  0.3062  0.8917
 6118TIP3    H218319   1.571   3.825   3.024  3.1457  0.8180  1.0489
 6119TIP3   OH218320   4.955   1.447   2.034 -1.1990  0.5029  0.2851
 6119TIP3    H118321   4.911   1.364   2.014 -1.6396  0.4741  1.3045
 6119TIP3    H218322   5.048   1.426   2.033 -1.3236 -0.1429  1.0513
 6120TIP3   OH218323   3.522   2.805   4.743  0.3999 -0.1419 -0.6943
 6120TIP3    H118324   3.517   2.806   4.839  0.5860  1.4273 -0.6696
 6120TIP3    H218325   3.484   2.721   4.718  1.2037 -0.9946  0.7894
 6121TIP3   OH218326   7.191   1.582   1.505 -0.4550  0.1700  0.2513
 6121TIP3    H118327   7.159   1.669   1.479 -2.4695 -0.0205  1.8612
 6121TIP3    H218328   7.181   1.581   1.600 -2.4939 -2.5692  0.0935
 6122TIP3   OH218329   6.355   1.034   2.342 -0.3236  0.1121 -0.6837
 6122TIP3    H118330   6.368   0.956   2.397 -0.5545 -0.5467 -1.5535
 6122TIP3    H218331   6.432   1.088   2.361 -0.1483 -0.3238 -0.0795
 6123TIP3   OH218332   2.792   3.092   3.789  0.6457 -0.6302 -0.3725
 6123TIP3    H118333   2.845   3.147   3.732  0.0925 -0.6462 -0.9116
 6123TIP3    H218334   2.822   3.003   3.772  0.1559 -0.6840 -1.0100
 6124TIP3   OH218335   3.656   1.806   5.822  0.1509  0.3372 -0.8096
 6124TIP3    H118336   3.713   1.854   5.883 -0.9578  0.6489  0.0203
 6124TIP3    H218337   3.704   1.726   5.802  0.3717  0.0434  0.8013
 6125TIP3   OH218338   6.917   2.491   2.155  0.1988  0.2805  0.2762
 6125TIP3    H118339   6.984   2.477   2.221  1.4942  1.1528 -0.8165
 6125TIP3    H218340   6.886   2.580   2.169 -0.3184  0.0831  0.4084
 6126TIP3   OH218341   4.251   3.421   4.897  0.0950 -0.0241  0.3306
 6126TIP3    H118342   4.258   3.413   4.992  0.8453  3.1833  0.6766
 6126TIP3    H218343   4.171   3.374   4.875  0.9302 -2.5433  2.2209
 6127TIP3   OH218344   3.105   4.017   5.187 -0.1943  0.1126 -0.0010
 6127TIP3    H118345   3.073   3.939   5.233 -1.9613  2.3562  2.9064
 6127TIP3    H218346   3.032   4.043   5.130 -0.0004  0.2412 -0.1909
 6128TIP3   OH218347   6.232   0.676   1.588 -0.0966  0.1511 -0.0555
 6128TIP3    H118348   6.174   0.637   1.653 -0.3426  1.9691  0.8954
 6128TIP3    H218349   6.319   0.672   1.628 -0.2210  1.1037  0.3493
 6129TIP3   OH218350   0.470   2.704   4.007 -0.2147  0.4726 -0.3333
 6129TIP3    H118351   0.529   2.684   4.079 -1.2048 -0.4861  0.2375
 6129TIP3    H218352   0.524   2.697   3.929  0.1187 -1.9647  0.0375
 6130TIP3   OH218353   1.419   0.121   3.278  0.1149 -0.3963 -0.1742
 6130TIP3    H118354   1.435   0.090   3.189  0.9082 -0.9377  0.1491
 6130TIP3    H218355   1.375   0.048   3.321  0.5930 -0.4923  0.1511
 6131TIP3   OH218356   6.072   4.471   1.884 -0.3181  0.1487  0.0065
 6131TIP3    H118357   6.039   4.531   1.818  0.8397  0.8115  0.0056
 6131TIP3    H218358   6.097   4.392   1.835 -0.2373  0.3202 -0.2274
 6132TIP3   OH218359   3.567   6.692   2.759 -0.0263  0.0656  0.1850
 6132TIP3    H118360   3.513   6.755   2.806 -2.5844 -1.6431 -0.2998
 6132TIP3    H218361   3.512   6.662   2.687  2.0566 -0.8792 -1.0974
 6133TIP3   OH218362   0.620   4.804   2.787  0.4971  0.3070 -0.0696
 6133TIP3    H118363   0.601   4.740   2.719  0.1444  1.9200 -1.5562
 6133TIP3    H218364   0.541   4.806   2.841 -0.1351  0.6580 -0.9904
 6134TIP3   OH218365   4.071   6.150   2.418  0.7735 -0.6369  0.4749
 6134TIP3    H118366   4.040   6.146   2.328  3.2765 -0.8370 -0.4372
 6134TIP3    H218367   4.015   6.088   2.465 -1.9795  0.9819 -0.3916
 6135TIP3   OH218368   6.849   3.135   3.044  0.0283 -0.7522 -0.0829
 6135TIP3    H118369   6.921   3.076   3.019 -0.4216 -0.8062 -1.3085
 6135TIP3    H218370   6.866   3.215   2.995  0.0908 -0.1980  0.8278
 6136TIP3   OH218371   4.420   6.107   3.955 -0.1173  0.1487  0.1996
 6136TIP3    H118372   4.505   6.106   3.910  1.1940  0.3914  2.5123
 6136TIP3    H218373   4.368   6.042   3.909  1.0306  0.5490 -1.7814
 6137TIP3   OH218374   1.227   3.694   2.868  0.0789 -0.3806  0.0391
 6137TIP3    H118375   1.184   3.766   2.915  0.2223 -0.5928  0.5065
 6137TIP3    H218376   1.308   3.679   2.916  0.1790 -0.6755 -0.2186
 6138TIP3   OH218377   0.279   6.385   4.540  0.4855  0.1412  0.6436
 6138TIP3    H118378   0.309   6.442   4.610  0.7334  0.5215  0.2365
 6138TIP3    H218379   0.251   6.445   4.470  0.6122 -0.2320  0.2666
 6139TIP3   OH218380   2.635   6.428   1.044 -0.4249 -0.5462  0.1353
 6139TIP3    H118381   2.705   6.489   1.064 -0.2226 -1.3654  2.2638
 6139TIP3    H218382   2.641   6.412   0.950  0.2210  1.7947 -0.2651
 6140TIP3   OH218383   5.756   2.706   0.638 -0.0022 -0.2832  0.7270
 6140TIP3    H118384   5.715   2.633   0.685 -1.7408 -1.2560 -1.9889
 6140TIP3    H218385   5.842   2.672   0.611 -0.0544 -0.6582  1.0249
 6141TIP3   OH218386   1.213   2.278   5.816  0.0457  0.0363  0.2672
 6141TIP3    H118387   1.274   2.293   5.744  0.2043  2.9032  0.8856
 6141TIP3    H218388   1.146   2.346   5.805 -1.6665 -1.4371  1.0672
 6142TIP3   OH218389   0.567   3.090   5.474 -0.2428  0.5239  0.0183
 6142TIP3    H118390   0.488   3.038   5.483  0.6540 -1.1920 -1.3062
 6142TIP3    H218391   0.539   3.180   5.488 -1.6653 -0.3062  3.5391
 6143TIP3   OH218392   0.016   0.844   1.530 -0.4393 -0.5781  0.0197
 6143TIP3    H118393   0.010   0.754   1.563  0.4138 -1.3417 -1.7538
 6143TIP3    H218394   0.101   0.875   1.561 -0.6188 -0.4829  0.4140
 6144TIP3   OH218395   4.069   2.918   1.352  0.3485 -1.0489 -0.1235
 6144TIP3    H118396   4.064   2.906   1.258  1.6706 -1.5452 -0.1582
 6144TIP3    H218397   4.150   2.874   1.378 -0.8429 -2.4524  1.5021
 6145TIP3   OH218398   0.444   0.174   5.388 -0.4141 -0.4030 -0.4731
 6145TIP3    H118399   0.390   0.181   5.467  0.1957 -1.2667  0.0414
 6145TIP3    H218400   0.389   0.208   5.318 -0.9335  0.4715  0.3415
 6146TIP3   OH218401   1.023   0.686   0.491 -0.5131  0.0780 -0.0499
 6146TIP3    H118402   0.931   0.713   0.498 -0.1084  1.7065 -0.6056
 6146TIP3    H218403   1.072   0.756   0.535  0.4734 -0.7252  0.1557
 6147TIP3   OH218404   1.371   2.055   1.264 -0.4853  0.5812  0.3438
 6147TIP3    H118405   1.385   1.975   1.214 -0.5724  1.7782 -1.7279
 6147TIP3    H218406   1.400   2.034   1.352  3.5710 -0.5476 -1.0266
 6148TIP3   OH218407   6.517   2.316   1.522  0.0989 -0.1785  0.0471
 6148TIP3    H118408   6.464   2.294   1.599  0.9265 -0.9799  0.4026
 6148TIP3    H218409   6.476   2.267   1.451  1.4168 -2.3355  0.6754
 6149TIP3   OH218410   6.227   3.735   4.280  0.2048  0.2763 -0.3123
 6149TIP3    H118411   6.256   3.650   4.315  1.0660  0.3823 -0.7364
 6149TIP3    H218412   6.289   3.754   4.209 -1.4866  0.0555 -1.9384
 6150TIP3   OH218413   5.007   6.480   1.838  0.0822 -0.1806 -0.1706
 6150TIP3    H118414   4.927   6.500   1.789  0.1974  1.5162  0.2746
 6150TIP3    H218415   5.077   6.522   1.786  0.1565  2.0857  1.5889
 6151TIP3   OH218416   3.824   4.132   2.008  0.5165  0.1080  0.2322
 6151TIP3    H118417   3.814   4.104   1.917  1.2005  0.6652 -0.0244
 6151TIP3    H218418   3.855   4.053   2.054  2.3255  0.3695 -0.4580
 6152TIP3   OH218419   6.559   0.965   1.749 -0.3472  0.0380  0.2872
 6152TIP3    H118420   6.650   0.934   1.754 -0.1603  0.4403 -0.6036
 6152TIP3    H218421   6.532   0.971   1.841 -0.2834 -2.4346  0.5478
 6153TIP3   OH218422   1.936   1.889   5.280 -0.3046 -0.1047 -0.0971
 6153TIP3    H118423   1.937   1.982   5.259 -0.5051 -0.1905 -0.5028
 6153TIP3    H218424   1.845   1.869   5.301  0.1842  0.3787  2.7941
 6154TIP3   OH218425   5.871   1.542   3.525 -0.0425  0.5020 -0.2838
 6154TIP3    H118426   5.913   1.613   3.574 -0.6819  0.4903  0.2970
 6154TIP3    H218427   5.941   1.479   3.509  0.3042  0.7867  0.1005
 6155TIP3   OH218428   6.758   6.339   2.193  0.7890  0.0372 -0.1905
 6155TIP3    H118429   6.760   6.261   2.138  1.9356  0.9065 -1.4322
 6155TIP3    H218430   6.689   6.320   2.257 -0.9143 -0.8628 -2.1371
 6156TIP3   OH218431   0.108   1.866   3.274 -0.2651  0.5323  0.6211
 6156TIP3    H118432   0.075   1.785   3.235  1.3497  0.0671  0.1140
 6156TIP3    H218433   0.061   1.874   3.357 -0.3547 -1.0082  0.7463
 6157TIP3   OH218434   0.026   0.696   0.360  0.2164  0.0321 -0.3976
 6157TIP3    H118435  -0.060   0.655   0.351 -0.0127  0.3689  0.1759
 6157TIP3    H218436   0.045   0.689   0.454 -0.6541  2.8346  0.0848
 6158TIP3   OH218437   5.526   2.348   5.529 -0.1177  0.0466 -0.2565
 6158TIP3    H118438   5.492   2.260   5.514  0.0031  0.1483 -1.1733
 6158TIP3    H218439   5.491   2.401   5.457  0.0360  0.6875  0.1248
 6159TIP3   OH218440   2.627   1.541   0.289 -0.6993 -0.0352 -0.3404
 6159TIP3    H118441   2.557   1.556   0.226 -1.4772  1.0197  0.7445
 6159TIP3    H218442   2.605   1.458   0.330 -1.3417  0.3083  0.0204
 6160TIP3   OH218443   6.547   6.306   3.858 -0.3143  0.3254 -0.0188
 6160TIP3    H118444   6.467   6.313   3.806  0.0840 -0.8985 -0.8575
 6160TIP3    H218445   6.617   6.331   3.797  0.1187 -0.7154  0.0221
 6161TIP3   OH218446   1.648   1.036   3.725  0.3458 -0.5970  0.0740
 6161TIP3    H118447   1.588   1.067   3.656 -1.2896 -0.2283  1.5970
 6161TIP3    H218448   1.622   0.945   3.740 -2.0931  0.4034  2.8784
 6162TIP3   OH218449   5.289   5.461   1.625  0.0614  0.3774  0.5996
 6162TIP3    H118450   5.314   5.535   1.681  4.3433  0.6130 -1.2164
 6162TIP3    H218451   5.341   5.388   1.657 -1.3328 -0.8917  0.0702
 6163TIP3   OH218452   3.877   1.115   5.722  0.0079 -0.5905 -0.6807
 6163TIP3    H118453   3.849   1.089   5.635  0.7768  0.3062 -1.2281
 6163TIP3    H218454   3.944   1.051   5.746 -0.8151 -1.3481 -0.3677
 6164TIP3   OH218455   4.864   4.451   5.223 -0.1965  0.0516 -0.2012
 6164TIP3    H118456   4.820   4.447   5.308 -0.7279 -2.3205 -0.5163
 6164TIP3    H218457   4.952   4.416   5.240  0.1002  0.6824 -0.4164
 6165TIP3   OH218458   1.977   3.045   5.035 -0.1191 -0.0188 -0.4402
 6165TIP3    H118459   1.896   3.044   5.086 -0.3663 -0.3581 -0.8332
 6165TIP3    H218460   2.031   3.113   5.077 -0.4216 -0.1084  0.1034
 6166TIP3   OH218461   0.377   6.070   2.682 -0.2475  0.1514 -0.0901
 6166TIP3    H118462   0.455   6.084   2.736 -1.0988 -0.0964  1.2679
 6166TIP3    H218463   0.346   5.983   2.708  1.1332 -1.5170 -3.4125
 6167TIP3   OH218464   3.462   2.319   5.881 -0.6652  0.1268 -0.6672
 6167TIP3    H118465   3.367   2.308   5.873 -0.5843 -0.0701 -1.5582
 6167TIP3    H218466   3.498   2.236   5.849 -0.2051 -0.2107  0.6743
 6168TIP3   OH218467   3.459   5.107   2.807 -0.1871  0.1827  0.4165
 6168TIP3    H118468   3.433   5.189   2.850 -2.2576  0.0624 -0.5078
 6168TIP3    H218469   3.537   5.129   2.758  1.8416  0.5234  3.5112
 6169TIP3   OH218470   4.601   1.286   5.037  0.5270 -0.2415  0.3490
 6169TIP3    H118471   4.586   1.303   4.944 -1.0588 -2.3562  0.1245
 6169TIP3    H218472   4.607   1.372   5.077 -0.7252  0.7547 -1.4526
 6170TIP3   OH218473   4.375   6.621   4.807 -0.2782 -0.0541 -0.4178
 6170TIP3    H118474   4.302   6.569   4.774  0.1117 -1.3748  0.7073
 6170TIP3    H218475   4.452   6.585   4.762 -0.1326  0.3278 -0.4827
 6171TIP3   OH218476   2.535   5.468   0.347 -0.1072 -0.2748  0.1208
 6171TIP3    H118477   2.501   5.522   0.419 -0.4251  0.3286 -0.4717
 6171TIP3    H218478   2.616   5.431   0.381  0.9665  1.8505 -0.0040
 6172TIP3   OH218479   1.330   3.856   2.577 -0.0836 -0.0935 -0.4464
 6172TIP3    H118480   1.385   3.784   2.545 -0.7449 -1.2909  1.0511
 6172TIP3    H218481   1.281   3.884   2.499  1.5658  0.0595 -1.4927
 6173TIP3   OH218482   3.117   3.518   0.044 -0.0509 -0.1606 -0.2860
 6173TIP3    H118483   3.132   3.594   0.100  0.0227  0.8544 -1.6251
 6173TIP3    H218484   3.204   3.493   0.013 -0.0544 -0.9208  0.2956
 6174TIP3   OH218485   2.292   2.694   4.462 -0.4083  0.9390 -0.8889
 6174TIP3    H118486   2.360   2.744   4.416 -0.8198  1.3628 -1.0512
 6174TIP3    H218487   2.305   2.715   4.554  0.9253 -0.5352 -0.6976
 6175TIP3   OH218488   3.004   2.862   1.078 -0.4008 -0.1191  0.0884
 6175TIP3    H118489   3.095   2.838   1.093 -0.1467  1.6150  1.7681
 6175TIP3    H218490   2.974   2.802   1.010  2.1219 -0.3834 -0.8884
 6176TIP3   OH218491   3.219   2.419   3.311  0.0113 -0.1998  0.2788
 6176TIP3    H118492   3.201   2.504   3.351 -2.3726 -0.5767  0.1208
 6176TIP3    H218493   3.198   2.355   3.379 -1.3117 -0.7473 -0.6164
 6177TIP3   OH218494   2.449   2.633   0.663 -0.4770  0.0423 -0.4717
 6177TIP3    H118495   2.509   2.616   0.736 -2.0817 -1.0922  0.6439
 6177TIP3    H218496   2.506   2.666   0.593  1.1841  0.7077  1.1031
 6178TIP3   OH218497   6.508   6.336   1.525  0.5891 -0.6250 -0.0854
 6178TIP3    H118498   6.495   6.278   1.600 -2.7238  2.0234  1.7031
 6178TIP3    H218499   6.562   6.407   1.559 -0.1552  0.1312 -0.4463
 6179TIP3   OH218500   6.968   1.002   0.046 -0.7071  0.4244 -0.4190
 6179TIP3    H118501   7.013   1.073   0.091 -0.4209 -1.3519  2.3189
 6179TIP3    H218502   6.951   1.036  -0.042  0.1625  3.5130  0.4983
 6180TIP3   OH218503   3.238   5.133   1.430 -0.1368 -0.4363  0.2020
 6180TIP3    H118504   3.249   5.222   1.399 -0.6645 -0.6251 -0.5480
 6180TIP3    H218505   3.275   5.078   1.361 -0.1542 -0.8082  0.4838
 6181TIP3   OH218506   3.953   6.372   4.073 -0.4588  0.0248 -0.3650
 6181TIP3    H118507   3.930   6.351   3.983 -0.4305  0.3517 -0.4468
 6181TIP3    H218508   3.875   6.349   4.124  0.4720 -2.9064 -0.0812
 6182TIP3   OH218509   3.934   2.345   4.591 -0.0886  0.2590 -0.3786
 6182TIP3    H118510   3.890   2.294   4.659  1.1148 -0.8283 -0.3929
 6182TIP3    H218511   3.869   2.411   4.565 -0.9232  0.0508  1.0914
 6183TIP3   OH218512   0.831   6.542   0.142  0.0000 -0.1248  0.1127
 6183TIP3    H118513   0.766   6.588   0.089 -0.2487 -2.6746 -1.9516
 6183TIP3    H218514   0.790   6.459   0.166 -0.0598  0.9620  4.8528
 6184TIP3   OH218515   3.415   0.094   4.079  0.2299  0.5615  0.1639
 6184TIP3    H118516   3.373   0.067   3.998  0.7083  0.3326 -0.0091
 6184TIP3    H218517   3.348   0.079   4.146  0.5109 -1.2161  0.1062
 6185TIP3   OH218518   6.349   2.134   0.195  0.0027 -0.3857 -0.4002
 6185TIP3    H118519   6.273   2.180   0.231 -0.2104 -0.4054 -0.8179
 6185TIP3    H218520   6.375   2.186   0.119 -1.5434 -2.0531 -2.1589
 6186TIP3   OH218521   2.720   0.159   0.679 -0.0082 -0.3039 -0.7554
 6186TIP3    H118522   2.752   0.069   0.674  0.7455 -0.1865  1.0566
 6186TIP3    H218523   2.630   0.155   0.649  0.4939 -1.3671 -2.2057
 6187TIP3   OH218524   2.137   5.635   2.706 -0.0675 -0.2227 -0.2141
 6187TIP3    H118525   2.187   5.554   2.711  1.1485  0.5386  0.5771
 6187TIP3    H218526   2.166   5.685   2.783  1.2358  2.0816 -2.0786
 6188TIP3   OH218527   7.148   5.877   1.367  0.3182 -0.3962  0.1805
 6188TIP3    H118528   7.207   5.945   1.334  0.8141 -0.9423 -0.0683
 6188TIP3    H218529   7.163   5.876   1.462 -0.6663  0.7516  0.3844
 6189TIP3   OH218530   2.515   0.526   3.411 -0.0778  0.2143  0.1151
 6189TIP3    H118531   2.550   0.615   3.420 -0.2893  0.5792 -2.0689
 6189TIP3    H218532   2.571   0.485   3.345 -1.4344 -0.4373 -0.6695
 6190TIP3   OH218533   7.141   4.372   3.732  0.3674  1.0476 -0.0631
 6190TIP3    H118534   7.207   4.348   3.667  0.3070  2.7416 -0.8093
 6190TIP3    H218535   7.101   4.452   3.697 -0.9395  0.9801  1.1771
 6191TIP3   OH218536   4.719   1.777   0.161  0.1650  0.8051 -0.6808
 6191TIP3    H118537   4.782   1.785   0.089  0.4520  1.3812 -0.3716
 6191TIP3    H218538   4.671   1.860   0.160  0.0021  0.7157 -0.3569
 6192TIP3   OH218539   6.928   1.733   5.450  0.1876 -0.2628  0.4304
 6192TIP3    H118540   6.885   1.723   5.535 -1.1283  0.2202 -0.1584
 6192TIP3    H218541   6.897   1.658   5.399  0.3290 -0.1017  0.1075
 6193TIP3   OH218542   1.933   2.413   2.272 -0.4659 -0.4983 -0.1269
 6193TIP3    H118543   1.907   2.504   2.281  0.1819 -0.1470 -1.5082
 6193TIP3    H218544   1.853   2.363   2.291 -0.3692  0.2122  2.6357
 6194TIP3   OH218545   6.812   3.038   5.081 -0.1514 -1.1912  0.2714
 6194TIP3    H118546   6.791   3.042   4.987  3.8684 -1.4741 -0.8167
 6194TIP3    H218547   6.833   2.946   5.096  0.4835 -0.9089  1.1338
 6195TIP3   OH218548   4.001   5.723   4.089 -0.2398  0.1674 -0.2371
 6195TIP3    H118549   3.940   5.660   4.049 -1.3309  0.9340  0.1620
 6195TIP3    H218550   4.032   5.679   4.168  2.3505 -1.5854 -2.0513
 6196TIP3   OH218551   4.450   6.186   0.945 -0.1038  0.2610  0.2950
 6196TIP3    H118552   4.375   6.181   1.004  0.4775  1.0602  1.1155
 6196TIP3    H218553   4.492   6.101   0.953 -0.3822  0.1451  0.5488
 6197TIP3   OH218554   6.922   2.278   1.691  0.7618 -0.0049  0.3574
 6197TIP3    H118555   6.949   2.324   1.612  0.0206 -1.0036 -0.5078
 6197TIP3    H218556   6.944   2.338   1.763 -0.2030  1.7145 -0.7190
 6198TIP3   OH218557   4.091   5.973   4.117 -0.4007 -0.4165  0.2737
 6198TIP3    H118558   4.180   5.981   4.084 -0.5853  0.8891  0.0425
 6198TIP3    H218559   4.065   5.883   4.095 -0.1413  0.0348 -2.2449
 6199TIP3   OH218560   6.847   0.645   1.026 -0.5584  0.7194  0.0688
 6199TIP3    H118561   6.806   0.595   1.097 -0.3086  0.4566  0.0299
 6199TIP3    H218562   6.941   0.638   1.044 -0.4673  0.2258 -0.5710
 6200TIP3   OH218563   3.605   6.747   4.405  0.5392 -0.2332  0.0670
 6200TIP3    H118564   3.532   6.730   4.465  1.6190 -0.6412  1.3224
 6200TIP3    H218565   3.612   6.843   4.403  0.0434 -0.1935  0.0214
 6201TIP3   OH218566   5.920   2.781   2.309  0.3795 -0.3311 -0.1024
 6201TIP3    H118567   5.894   2.823   2.392 -0.0026  0.1603 -0.4593
 6201TIP3    H218568   5.839   2.781   2.257  0.2830 -1.8657  0.0253
 6202TIP3   OH218569   0.667   4.631   5.461 -0.5441 -0.6362 -0.3391
 6202TIP3    H118570   0.699   4.592   5.380 -0.9062  0.2764 -0.9248
 6202TIP3    H218571   0.678   4.561   5.526  0.2461 -1.1965 -1.0476
 6203TIP3   OH218572   1.959   3.475   4.357 -0.3094 -0.7748  0.5585
 6203TIP3    H118573   1.984   3.451   4.267 -1.1758  1.4955 -0.3672
 6203TIP3    H218574   2.041   3.495   4.400  0.0097 -0.3520 -0.2288
 6204TIP3   OH218575   6.692   4.356   2.901 -0.2577 -0.0700 -0.1000
 6204TIP3    H118576   6.727   4.341   2.813 -0.5412  0.3235 -0.2830
 6204TIP3    H218577   6.647   4.275   2.923 -0.0259 -0.2394 -0.2381
 6205TIP3   OH218578   2.778   6.428   3.161 -0.3068 -0.1976  0.0874
 6205TIP3    H118579   2.835   6.503   3.179 -1.6534  1.3235 -1.6013
 6205TIP3    H218580   2.837   6.358   3.135  0.8898  0.8142  0.0010
 6206TIP3   OH218581   0.811   4.659   3.064 -0.1831  0.2917  0.3406
 6206TIP3    H118582   0.836   4.741   3.021 -2.0066  1.2719  1.0719
 6206TIP3    H218583   0.736   4.627   3.014 -2.1684  1.3077  2.5020
 6207TIP3   OH218584   2.481   1.177   3.418  0.1292 -0.2563 -0.1350
 6207TIP3    H118585   2.414   1.117   3.451  0.5527 -1.5566 -1.5455
 6207TIP3    H218586   2.557   1.162   3.474 -0.3895  0.4495  0.7869
 6208TIP3   OH218587   5.719   1.906   3.488  0.0750 -0.2057 -0.4237
 6208TIP3    H118588   5.758   1.885   3.403  0.4713 -1.1279 -0.0327
 6208TIP3    H218589   5.694   1.821   3.524 -0.7668  0.2315  0.0746
 6209TIP3   OH218590   4.410   0.777   4.410 -0.1683 -0.1168 -0.1614
 6209TIP3    H118591   4.404   0.872   4.398  1.1207  0.0378  0.3393
 6209TIP3    H218592   4.344   0.742   4.350  0.9213  0.9771 -2.1210
 6210TIP3   OH218593   5.252   3.549   2.459 -0.0409  0.0854 -0.2764
 6210TIP3    H118594   5.261   3.630   2.408  0.3362 -0.3104 -0.8485
 6210TIP3    H218595   5.333   3.542   2.509  1.1268 -1.2887 -2.2331
 6211TIP3   OH218596   2.324   2.170   3.329 -0.5134 -0.2040  0.0735
 6211TIP3    H118597   2.399   2.111   3.339 -0.7923 -0.5359  0.2212
 6211TIP3    H218598   2.276   2.162   3.411 -0.5797  0.1903  0.0718
 6212TIP3   OH218599   2.862   0.211   4.860  0.6636 -0.2541  0.2402
 6212TIP3    H118600   2.856   0.306   4.854  0.8598 -0.2028  0.7492
 6212TIP3    H218601   2.939   0.188   4.809  0.0813 -0.2380 -0.6652
 6213TIP3   OH218602   5.586   4.988   3.867  0.2267 -0.6445 -0.1589
 6213TIP3    H118603   5.561   5.077   3.843 -0.8194 -0.9221 -0.1797
 6213TIP3    H218604   5.673   4.976   3.829  0.5182  0.4669  0.1180
 6214TIP3   OH218605   5.130   3.927   1.018 -0.0972 -0.3265 -0.2722
 6214TIP3    H118606   5.080   3.901   0.941 -0.3621 -0.1675 -0.1572
 6214TIP3    H218607   5.199   3.984   0.984 -0.9398  0.7215 -0.2686
 6215TIP3   OH218608   0.070   5.011   4.779  0.6894  0.0081  0.3210
 6215TIP3    H118609   0.003   4.991   4.845 -1.4348 -0.6962 -1.8917
 6215TIP3    H218610   0.052   5.101   4.753  0.9197 -0.0182  0.0614
 6216TIP3   OH218611   6.742   1.028   0.810  0.2155  0.0508  0.3058
 6216TIP3    H118612   6.782   0.942   0.821  1.0052  0.0146 -2.2387
 6216TIP3    H218613   6.651   1.008   0.785  0.7637 -0.1407 -1.6660
 6217TIP3   OH218614   5.122   0.403   2.264 -0.1064  0.0231  0.2711
 6217TIP3    H118615   5.143   0.327   2.209 -1.5426 -0.2423  0.0635
 6217TIP3    H218616   5.027   0.413   2.256 -0.4375 -0.2892  3.0384
 6218TIP3   OH218617   1.642   0.714   4.721  0.3172 -0.2650  0.3242
 6218TIP3    H118618   1.725   0.720   4.767  0.1574 -0.8443  0.7027
 6218TIP3    H218619   1.588   0.656   4.776  0.1814 -1.1161 -0.6793
 6219TIP3   OH218620   0.864   6.481   4.146  0.3830 -0.1524  1.0261
 6219TIP3    H118621   0.950   6.441   4.128 -0.6087 -1.3777 -1.5826
 6219TIP3    H218622   0.870   6.569   4.110  0.9355  0.2447  2.0578
 6220TIP3   OH218623   0.824   5.376   5.405 -0.1039  0.2453 -0.1222
 6220TIP3    H118624   0.768   5.313   5.450  0.7863 -0.2854  0.2772
 6220TIP3    H218625   0.913   5.342   5.417  0.4927  2.0093  0.8561
 6221TIP3   OH218626   0.749   5.127   5.013  0.0771 -0.3050 -0.5859
 6221TIP3    H118627   0.807   5.064   5.056  0.0597 -0.3203 -0.5849
 6221TIP3    H218628   0.714   5.081   4.937  0.7085 -0.0217 -1.0604
 6222TIP3   OH218629   6.514   3.117   2.599 -0.6684 -0.1293 -0.8723
 6222TIP3    H118630   6.539   3.116   2.507 -1.0633 -2.7865 -1.0346
 6222TIP3    H218631   6.591   3.152   2.645  1.0572 -2.3379 -1.9066
 6223TIP3   OH218632   0.650   5.167   3.027 -0.2729 -0.5639 -0.0385
 6223TIP3    H118633   0.596   5.188   3.103  1.5217  2.7033  0.4860
 6223TIP3    H218634   0.721   5.114   3.063 -0.3734 -0.5238  0.2217
 6224TIP3   OH218635   3.738   4.141   3.066 -0.6319  0.2056  0.2260
 6224TIP3    H118636   3.706   4.114   3.152 -0.1551 -0.6980  0.1395
 6224TIP3    H218637   3.776   4.061   3.029  0.3655  0.8823 -0.2700
 6225TIP3   OH218638   6.607   1.244   1.781  0.0750  0.1863 -0.0036
 6225TIP3    H118639   6.565   1.172   1.734 -0.5110  1.1149 -0.9443
 6225TIP3    H218640   6.616   1.314   1.716  2.4506  0.2957  0.3406
 6226TIP3   OH218641   2.561   2.643   2.944 -0.3527  0.2477  0.2644
 6226TIP3    H118642   2.493   2.576   2.949 -1.3052  1.2342  0.9093
 6226TIP3    H218643   2.597   2.634   2.856  0.3376 -1.8389  0.6904
 6227TIP3   OH218644   6.576   4.081   0.720 -0.8166  0.3627 -0.4465
 6227TIP3    H118645   6.589   4.171   0.749 -0.3707  0.7356 -1.7764
 6227TIP3    H218646   6.574   4.030   0.801  0.0122  1.4252  0.2608
 6228TIP3   OH218647   2.797   0.694   4.830  0.5954  0.2225 -0.1182
 6228TIP3    H118648   2.709   0.725   4.807  0.6300 -0.0438 -0.6124
 6228TIP3    H218649   2.782   0.610   4.874  0.6457 -0.2108 -0.9125
 6229TIP3   OH218650   2.771   2.485   3.108  0.1306  0.4030  0.3212
 6229TIP3    H118651   2.709   2.538   3.058 -0.7194  0.9432  1.9137
 6229TIP3    H218652   2.784   2.533   3.190 -0.1981 -1.5270  1.5586
 6230TIP3   OH218653   4.371   5.220   2.593 -0.0127 -0.0343 -0.3783
 6230TIP3    H118654   4.436   5.247   2.528 -0.4169  0.1170 -0.7175
 6230TIP3    H218655   4.397   5.267   2.673 -0.2105  0.7114 -0.7419
 6231TIP3   OH218656   3.412   6.403   2.308 -0.3561  0.1989  0.0189
 6231TIP3    H118657   3.421   6.376   2.216  3.5030  2.1825 -0.3997
 6231TIP3    H218658   3.440   6.326   2.358 -0.5196 -0.2461 -0.5535
 6232TIP3   OH218659   5.786   5.633   2.970 -0.7567 -0.5511 -0.0808
 6232TIP3    H118660   5.850   5.590   2.912  0.4993 -0.3858  1.1420
 6232TIP3    H218661   5.812   5.725   2.969 -0.4305 -0.6251  1.1119
 6233TIP3   OH218662   0.448   6.479   5.530  0.4847 -0.5210  0.3849
 6233TIP3    H118663   0.496   6.406   5.569  0.5096 -1.2833 -0.9831
 6233TIP3    H218664   0.364   6.440   5.504  0.5076 -0.0820 -0.3816
 6234TIP3   OH218665   2.255   5.847   4.281 -0.3381  0.7124  0.8468
 6234TIP3    H118666   2.300   5.924   4.314 -1.0072  0.5002  2.3254
 6234TIP3    H218667   2.184   5.883   4.227 -0.6214  1.1405  1.4897
 6235TIP3   OH218668   4.800   2.382   3.716 -0.2163 -0.1096 -0.0110
 6235TIP3    H118669   4.806   2.354   3.625  0.5269 -0.6984  0.2123
 6235TIP3    H218670   4.780   2.303   3.765  3.2020 -0.6566  0.7832
 6236TIP3   OH218671   3.783   2.159   4.065  0.1307 -0.0307 -0.2381
 6236TIP3    H118672   3.737   2.205   3.994 -0.4646  0.6175  0.5463
 6236TIP3    H218673   3.742   2.073   4.070  1.1653 -0.6505 -1.6371
 6237TIP3   OH218674   6.512   0.730   2.294 -0.1520 -0.4818 -0.3624
 6237TIP3    H118675   6.453   0.753   2.366 -0.5415  0.0044 -0.8293
 6237TIP3    H218676   6.531   0.637   2.307  0.1005 -0.3063  0.5990
 6238TIP3   OH218677   6.884   4.099   0.494 -0.2918 -0.3286 -0.3007
 6238TIP3    H118678   6.823   4.171   0.478 -1.1133 -1.0142 -0.3417
 6238TIP3    H218679   6.895   4.097   0.589  1.2043  1.0128 -0.4082
 6239TIP3   OH218680   4.711   4.952   5.583 -0.0280 -0.1536  0.0582
 6239TIP3    H118681   4.668   4.869   5.562  1.1184 -0.6730 -0.3768
 6239TIP3    H218682   4.705   5.004   5.503  2.8482 -1.4694 -1.1569
 6240TIP3   OH218683   3.199   5.950   3.106  0.0426  0.2216 -0.3318
 6240TIP3    H118684   3.230   6.003   3.179 -0.4462 -0.7427  0.6014
 6240TIP3    H218685   3.165   5.870   3.146 -0.9011 -0.0348 -1.5574
 6241TIP3   OH218686   7.151   1.029   4.410 -0.5390 -0.4995  0.2881
 6241TIP3    H118687   7.211   1.104   4.414 -0.1668 -0.8277  2.4271
 6241TIP3    H218688   7.208   0.954   4.393 -0.5253 -0.6158  0.8138
 6242TIP3   OH218689   5.919   0.871   2.170  0.2764 -0.1738 -0.2695
 6242TIP3    H118690   5.990   0.935   2.157 -0.6839  1.2017  1.0326
 6242TIP3    H218691   5.926   0.846   2.262  0.9973 -2.4743 -0.8720
 6243TIP3   OH218692   3.868   4.796   1.881 -0.1060  0.6224  0.4733
 6243TIP3    H118693   3.776   4.814   1.857  0.5021  2.0773 -0.9625
 6243TIP3    H218694   3.906   4.883   1.895  1.2189  0.0724  0.3935
 6244TIP3   OH218695   4.940   0.088   3.957  0.1122 -0.5313  0.2815
 6244TIP3    H118696   4.964   0.118   3.869  0.5452  1.8892  1.1630
 6244TIP3    H218697   5.007   0.022   3.978  1.4130  0.5360 -0.3221
 6245TIP3   OH218698   5.002   3.652   0.578  0.2497  0.1929  0.6650
 6245TIP3    H118699   4.964   3.567   0.602  1.8799 -0.6334  0.4194
 6245TIP3    H218700   4.949   3.682   0.504  0.0217 -0.8812  0.3803
 6246TIP3   OH218701   1.585   5.044   5.314  0.1876  0.0308  0.0281
 6246TIP3    H118702   1.534   5.118   5.281 -0.4182 -0.2261  0.3770
 6246TIP3    H218703   1.613   4.997   5.235 -0.5053 -0.0809 -0.1543
 6247TIP3   OH218704   4.234   2.918   2.814  0.4724  0.0367 -0.0967
 6247TIP3    H118705   4.259   3.011   2.812  1.9713 -0.2839  1.4819
 6247TIP3    H218706   4.141   2.919   2.836  0.3957  1.1816 -0.4162
 6248TIP3   OH218707   1.203   6.746   3.018 -0.3006  0.1578  0.4249
 6248TIP3    H118708   1.130   6.754   3.080  0.0747 -2.9961  1.4607
 6248TIP3    H218709   1.198   6.656   2.987  1.5593  0.6801 -1.6048
 6249TIP3   OH218710   7.175   4.998   3.666 -0.2152  0.1616  0.2773
 6249TIP3    H118711   7.240   4.957   3.722  0.8114 -0.1291 -1.0680
 6249TIP3    H218712   7.181   4.950   3.583  0.5001  2.4430 -1.1020
 6250TIP3   OH218713   1.276   6.476   4.963 -0.0881 -0.5059  0.6056
 6250TIP3    H118714   1.232   6.422   5.028 -1.4001 -1.3008 -0.8748
 6250TIP3    H218715   1.255   6.435   4.879  2.3217 -0.0831 -0.2957
 6251TIP3   OH218716   6.311   1.896   0.064  0.0232 -0.5056 -0.0031
 6251TIP3    H118717   6.307   1.981   0.107  0.3254 -1.1457  1.3591
 6251TIP3    H218718   6.283   1.834   0.132 -2.0845 -1.3178 -1.5248
 6252TIP3   OH218719   4.998   6.784   0.918 -0.3219  0.8450  0.2440
 6252TIP3    H118720   5.077   6.775   0.864 -0.3340  0.3804  0.2994
 6252TIP3    H218721   5.009   6.718   0.986  0.1253  2.0324  1.3579
 6253TIP3   OH218722   4.962   6.012   3.091 -0.7937  0.8551  0.0809
 6253TIP3    H118723   4.874   6.031   3.059 -0.7404  0.3442 -0.3796
 6253TIP3    H218724   4.970   5.917   3.084  0.2054  0.9923 -0.9755
 6254TIP3   OH218725   5.692   2.142   1.293  0.5073  0.1411 -0.0751
 6254TIP3    H118726   5.770   2.151   1.348  0.1364 -0.4941  0.5584
 6254TIP3    H218727   5.695   2.052   1.262  1.0563  0.6538 -1.6383
 6255TIP3   OH218728   2.449   3.602   3.312  0.4067 -0.1112 -1.4021
 6255TIP3    H118729   2.488   3.580   3.228  0.4908 -1.9619 -0.9078
 6255TIP3    H218730   2.379   3.538   3.325  1.2510 -0.7129  0.5273
 6256TIP3   OH218731   2.028   4.248   3.215  0.1057 -0.0299  0.0379
 6256TIP3    H118732   1.972   4.272   3.289  0.0971 -2.4756  0.9136
 6256TIP3    H218733   2.006   4.157   3.196  3.9063 -1.2788  0.6487
 6257TIP3   OH218734   2.943   4.370   3.253  0.3143  0.1059  0.3249
 6257TIP3    H118735   2.967   4.366   3.161 -1.5885 -0.0469 -0.2117
 6257TIP3    H218736   2.916   4.281   3.275  0.5773  0.1834  0.9736
 6258TIP3   OH218737   7.095   1.422   0.605  0.0654 -0.2942 -0.1013
 6258TIP3    H118738   7.040   1.344   0.608 -1.2702  0.6298  0.5158
 6258TIP3    H218739   7.113   1.442   0.697  1.5000 -0.6034 -0.2895
 6259TIP3   OH218740   0.791   1.404   1.791 -0.0169 -0.2269  0.1686
 6259TIP3    H118741   0.857   1.342   1.760  2.0141  1.0588  1.6843
 6259TIP3    H218742   0.800   1.403   1.887 -0.6562  1.6275  0.2788
 6260TIP3   OH218743   1.882   4.806   4.549  0.0493 -0.6640  0.1471
 6260TIP3    H118744   1.914   4.827   4.636 -2.6852  1.3308  0.8301
 6260TIP3    H218745   1.793   4.774   4.563 -0.5800  0.0088 -1.8788
 6261TIP3   OH218746   6.992   1.173   2.580 -0.0718  0.6603 -0.3326
 6261TIP3    H118747   6.982   1.268   2.580 -0.5723  0.6098 -0.0010
 6261TIP3    H218748   6.941   1.143   2.655  0.5182  0.1702 -0.1192
 6262TIP3   OH218749   5.996   1.817   3.488  0.1233  0.1256  0.3666
 6262TIP3    H118750   5.942   1.885   3.527 -0.5464 -0.1090 -0.1397
 6262TIP3    H218751   6.085   1.836   3.520 -0.1904  0.7299  0.9017
 6263TIP3   OH218752   2.427   6.181   3.996 -0.2796 -0.0637  0.2600
 6263TIP3    H118753   2.447   6.256   4.051 -0.7621  0.5058 -0.3281
 6263TIP3    H218754   2.339   6.199   3.962 -0.8084 -1.3281  0.8454
 6264TIP3   OH218755   5.859   5.126   2.054  0.6034  0.5298  0.7360
 6264TIP3    H118756   5.930   5.098   2.112 -0.5870 -0.2065  1.9261
 6264TIP3    H218757   5.807   5.046   2.042  1.4322  0.3520 -2.3736
 6265TIP3   OH218758   6.485   1.692   2.776 -0.0822 -0.0355 -0.3481
 6265TIP3    H118759   6.509   1.717   2.866 -2.3668  1.2410 -0.0085
 6265TIP3    H218760   6.413   1.630   2.787  0.7526 -1.2159 -1.3267
 6266TIP3   OH218761   4.153   4.972   1.755 -0.2218  0.0157 -0.2801
 6266TIP3    H118762   4.093   5.004   1.822  1.7483  1.2450  1.0046
 6266TIP3    H218763   4.239   5.002   1.784  0.7782  0.2243 -3.1620
 6267TIP3   OH218764   4.066   4.479   4.439  0.3808  0.0247 -0.1074
 6267TIP3    H118765   3.984   4.527   4.429  1.1960  1.4752 -0.0517
 6267TIP3    H218766   4.105   4.478   4.351  1.1975  1.0405  0.2219
 6268TIP3   OH218767   6.421   6.281   0.382 -0.3394 -0.1262 -0.1481
 6268TIP3    H118768   6.378   6.345   0.325  0.3524  1.7184  1.2920
 6268TIP3    H218769   6.514   6.292   0.365 -0.2129 -0.8880 -0.0015
 6269TIP3   OH218770   3.316   3.682   5.527  0.4589  0.3488 -0.3909
 6269TIP3    H118771   3.410   3.695   5.519  0.5884  0.4662  1.0885
 6269TIP3    H218772   3.300   3.676   5.621 -0.8327 -1.0307 -0.6593
 6270TIP3   OH218773   6.467   2.115   1.747 -0.5720 -0.5795 -0.4271
 6270TIP3    H118774   6.537   2.171   1.780 -0.1665  0.0596 -2.2838
 6270TIP3    H218775   6.511   2.041   1.706 -1.0015 -0.5652 -0.9305
 6271TIP3   OH218776   2.149   3.118   4.019 -0.2388 -0.0914 -0.6049
 6271TIP3    H118777   2.158   3.050   4.086 -1.1017  0.1180 -0.2558
 6271TIP3    H218778   2.054   3.123   4.003 -0.3235  1.7205  0.1310
 6272TIP3   OH218779   4.370   0.862   1.933 -0.3992 -0.1483 -0.3523
 6272TIP3    H118780   4.444   0.857   1.994 -0.4719 -0.8214 -0.3159
 6272TIP3    H218781   4.394   0.933   1.873  0.8924 -1.1991 -1.1375
 6273TIP3   OH218782   6.067   0.128   1.941  0.0574  1.0804  0.5297
 6273TIP3    H118783   6.035   0.149   1.853 -0.5996 -0.2552  0.4360
 6273TIP3    H218784   6.002   0.069   1.977  1.3767 -0.0529  1.1334
 6274TIP3   OH218785   6.198   3.928   0.622 -0.1299 -0.5330 -0.1605
 6274TIP3    H118786   6.207   4.023   0.617 -0.9639 -0.5066 -1.9230
 6274TIP3    H218787   6.254   3.903   0.695  0.4083  1.2719  0.1042
 6275TIP3   OH218788   3.929   6.752   1.637  0.3411 -0.5006 -0.2451
 6275TIP3    H118789   3.839   6.721   1.638  0.6382 -1.4062  1.2629
 6275TIP3    H218790   3.981   6.671   1.636  1.1386 -0.0098  0.7032
 6276TIP3   OH218791   2.907   0.218   1.355  0.0207 -0.0894  0.2670
 6276TIP3    H118792   2.987   0.247   1.398 -0.0370 -0.0471  0.3446
 6276TIP3    H218793   2.900   0.125   1.377 -0.3665  0.0865  0.9043
 6277TIP3   OH218794   1.871   0.635   0.567  0.3096  0.3323  0.4443
 6277TIP3    H118795   1.849   0.599   0.652 -0.8719  0.1642  0.0879
 6277TIP3    H218796   1.847   0.566   0.505  0.6834  0.6448 -0.0580
 6278TIP3   OH218797   4.320   4.930   5.069 -0.1151 -0.2476 -0.0526
 6278TIP3    H118798   4.341   4.837   5.065 -0.0089 -0.3219  1.6327
 6278TIP3    H218799   4.291   4.952   4.981 -0.8702 -2.0562 -0.2883
 6279TIP3   OH218800   2.548   4.981   0.016  0.0030 -0.6443 -0.4030
 6279TIP3    H118801   2.627   5.004   0.064 -0.0974 -0.8394 -0.1416
 6279TIP3    H218802   2.557   5.025  -0.069 -0.9982  1.9052  0.6923
 6280TIP3   OH218803   5.479   6.259   0.277 -0.9625 -0.2718 -0.3181
 6280TIP3    H118804   5.420   6.214   0.216 -1.2280 -1.4276  0.7558
 6280TIP3    H218805   5.495   6.195   0.347  1.5423  0.0290 -0.5329
 6281TIP3   OH218806   3.874   4.843   4.906  0.1959  0.4092  0.0145
 6281TIP3    H118807   3.791   4.801   4.883  2.3637 -3.2106 -2.1713
 6281TIP3    H218808   3.878   4.836   5.001 -0.7067 -2.2413 -0.0648
 6282TIP3   OH218809   6.428   4.108   4.578  0.6229 -0.4846 -0.0720
 6282TIP3    H118810   6.342   4.098   4.619 -0.2168 -0.2634 -1.7094
 6282TIP3    H218811   6.476   4.167   4.637 -1.2345  1.4756 -0.3785
 6283TIP3   OH218812   2.807   5.871   4.891 -0.1744 -0.4293 -0.0222
 6283TIP3    H118813   2.713   5.856   4.903 -0.1580 -0.1126  0.5086
 6283TIP3    H218814   2.814   5.964   4.868 -0.0750 -0.6857 -1.1024
 6284TIP3   OH218815   3.259   5.093   1.895  0.4789 -0.4191  0.1220
 6284TIP3    H118816   3.210   5.164   1.936  0.9587  1.1443 -1.8238
 6284TIP3    H218817   3.334   5.079   1.952  0.5389  0.8962  0.4071
 6285TIP3   OH218818   0.913   1.449   0.388 -0.4038  0.3364  0.6907
 6285TIP3    H118819   0.838   1.468   0.444 -0.4184  2.9353 -0.0783
 6285TIP3    H218820   0.874   1.426   0.304 -0.3923  1.5477  0.3317
 6286TIP3   OH218821   7.192   2.030   3.896 -0.2446  0.3308  0.3722
 6286TIP3    H118822   7.139   2.068   3.826  0.4657 -0.6539 -0.7357
 6286TIP3    H218823   7.142   1.955   3.927  0.8778 -1.1922 -1.3472
 6287TIP3   OH218824   5.630   5.181   0.695  0.8301 -0.2303  0.0659
 6287TIP3    H118825   5.589   5.097   0.716 -0.2975  0.2302 -0.1927
 6287TIP3    H218826   5.618   5.190   0.600 -1.1339  1.2287  0.3769
 6288TIP3   OH218827   6.930   1.966   2.594 -0.1935 -0.6391 -0.3075
 6288TIP3    H118828   6.952   2.058   2.610 -1.3422 -0.4563  0.4078
 6288TIP3    H218829   6.838   1.969   2.567 -1.5637 -1.8226  3.5787
 6289TIP3   OH218830   4.571   2.981   3.250  0.0004 -0.1921 -0.2685
 6289TIP3    H118831   4.648   3.034   3.272 -0.0807  0.1671 -0.8362
 6289TIP3    H218832   4.566   2.985   3.155  0.6962 -2.2202 -0.4199
 6290TIP3   OH218833   5.634   1.223   4.636 -0.5674  0.1620 -0.0090
 6290TIP3    H118834   5.697   1.215   4.708 -0.5384 -0.0687 -0.0600
 6290TIP3    H218835   5.687   1.251   4.561 -0.7802  1.6285  0.3485
 6291TIP3   OH218836   2.034   1.388   1.242  0.3277  0.6586 -0.1444
 6291TIP3    H118837   1.973   1.348   1.304  0.3835  2.9210  1.5087
 6291TIP3    H218838   1.978   1.424   1.174  0.2482 -1.6516 -1.3972
 6292TIP3   OH218839   2.032   2.283   2.561 -0.0942 -0.3231 -0.0349
 6292TIP3    H118840   1.988   2.306   2.643  1.1991 -0.3011  0.6876
 6292TIP3    H218841   1.961   2.267   2.499 -1.0902  0.7050  0.7995
 6293TIP3   OH218842   5.849   6.538   3.824  0.6128 -0.2720  0.4923
 6293TIP3    H118843   5.852   6.632   3.841  0.7851 -0.4987  1.7395
 6293TIP3    H218844   5.830   6.498   3.909 -0.7800 -1.2922 -0.2414
 6294TIP3   OH218845   4.522   2.785   2.353 -0.0262  0.3337 -0.0081
 6294TIP3    H118846   4.458   2.835   2.404  2.1942  2.7977  0.5414
 6294TIP3    H218847   4.506   2.811   2.262  0.9036  1.8669  0.2451
 6295TIP3   OH218848   1.050   4.837   2.007  0.0033  0.6413 -0.2855
 6295TIP3    H118849   0.993   4.913   2.006 -0.2975  0.4178 -0.3336
 6295TIP3    H218850   1.060   4.815   2.100  0.3099  0.8999 -0.2557
 6296TIP3   OH218851   1.614   6.433   2.193  0.8074  0.0662  0.1723
 6296TIP3    H118852   1.531   6.478   2.176  0.0699 -0.7465  1.4240
 6296TIP3    H218853   1.623   6.435   2.288  2.0073 -0.2619  0.0814
 6297TIP3   OH218854   0.306   3.254   4.754 -0.0886 -0.2041  0.0389
 6297TIP3    H118855   0.271   3.332   4.710 -0.3738 -0.2907  0.1057
 6297TIP3    H218856   0.358   3.210   4.686  0.3219  0.1980  0.0863
 6298TIP3   OH218857   3.080   2.881   0.737  0.7010  0.2980  0.6368
 6298TIP3    H118858   3.113   2.948   0.676  0.1910 -1.0213 -1.1626
 6298TIP3    H218859   2.991   2.909   0.759  0.3127 -0.0094 -0.4947
 6299TIP3   OH218860   6.474   1.058   1.086 -0.1712 -0.1668  0.4345
 6299TIP3    H118861   6.555   1.009   1.077 -0.0069  0.1605  0.1190
 6299TIP3    H218862   6.425   1.040   1.006 -0.3248 -0.2011  0.5342
 6300TIP3   OH218863   4.168   0.050   0.511  0.5725  0.1560 -0.1564
 6300TIP3    H118864   4.157   0.130   0.459 -0.9865 -0.1557 -0.3344
 6300TIP3    H218865   4.108   0.060   0.584  0.4613 -0.7966 -0.1053
 6301TIP3   OH218866   4.548   1.172   3.859 -0.2945 -0.2510  0.0845
 6301TIP3    H118867   4.614   1.131   3.915  1.2304 -0.9105 -2.0855
 6301TIP3    H218868   4.468   1.123   3.877  0.0492 -0.2097  1.9101
 6302TIP3   OH218869   2.117   3.530   4.761  0.4742 -0.5604 -0.8835
 6302TIP3    H118870   2.145   3.473   4.690 -0.7441  0.1092 -1.9350
 6302TIP3    H218871   2.147   3.617   4.735 -0.6694 -0.1843 -0.9773
 6303TIP3   OH218872   3.974   6.252   2.795  0.2737  0.3138 -0.3012
 6303TIP3    H118873   3.936   6.329   2.751  0.1189 -0.1568 -1.0046
 6303TIP3    H218874   4.066   6.254   2.770  1.1372  2.2280  2.4876
 6304TIP3   OH218875   4.081   2.067   3.691 -0.2288 -0.0069  0.5970
 6304TIP3    H118876   4.142   1.995   3.702 -0.9754 -0.6178  0.8178
 6304TIP3    H218877   4.112   2.134   3.752  0.5214 -0.0944  0.3239
 6305TIP3   OH218878   0.653   5.076   2.757 -1.0807 -0.4983 -0.1163
 6305TIP3    H118879   0.667   5.117   2.842  2.2311 -0.9286 -0.3476
 6305TIP3    H218880   0.619   4.989   2.778 -2.8164  0.2991  0.5857
 6306TIP3   OH218881   3.679   3.820   3.386  0.5395 -0.1287  0.4772
 6306TIP3    H118882   3.672   3.725   3.372  0.3318  0.3696 -4.3618
 6306TIP3    H218883   3.771   3.834   3.410  0.8872 -1.4509 -0.0017
 6307TIP3   OH218884   6.531   6.286   0.102  0.1457 -0.8313 -0.5207
 6307TIP3    H118885   6.472   6.349   0.062 -0.6139 -0.6646  0.8269
 6307TIP3    H218886   6.517   6.205   0.052 -2.1534 -1.1429  0.5340
 6308TIP3   OH218887   4.776   1.082   0.448  0.0330 -0.2165 -0.5242
 6308TIP3    H118888   4.741   1.140   0.381  1.4186  0.9908 -0.2358
 6308TIP3    H218889   4.812   1.008   0.400  0.8442  0.5486 -1.1040
 6309TIP3   OH218890   1.903   5.839   2.434  0.5232 -0.0406 -0.6145
 6309TIP3    H118891   1.919   5.800   2.520  1.7943  0.0470 -0.7817
 6309TIP3    H218892   1.978   5.809   2.381 -0.1381  0.0615 -1.6339
 6310TIP3   OH218893   4.160   6.776   3.189 -0.3404  0.0402  0.2771
 6310TIP3    H118894   4.208   6.702   3.151 -0.7327 -1.0016  1.7017
 6310TIP3    H218895   4.081   6.783   3.137  0.4574  0.5575 -0.9102
 6311TIP3   OH218896   4.129   3.261   3.782  0.0272 -0.3012  0.2518
 6311TIP3    H118897   4.210   3.258   3.731  1.8219 -0.7116  2.9300
 6311TIP3    H218898   4.116   3.171   3.811 -2.5803 -0.6568 -1.7221
 6312TIP3   OH218899   4.531   2.692   1.279  0.3094  0.0247  0.1075
 6312TIP3    H118900   4.541   2.601   1.252 -0.3632 -0.1871  0.5408
 6312TIP3    H218901   4.614   2.714   1.321  0.0718 -0.7552  1.0196
 6313TIP3   OH218902   1.774   2.247   2.437  0.4127  0.1757  0.1216
 6313TIP3    H118903   1.777   2.176   2.373  1.9324  0.8671 -0.6341
 6313TIP3    H218904   1.719   2.214   2.508  0.3355 -1.3861 -0.6263
 6314TIP3   OH218905   6.616   6.532   0.438  0.1907 -0.2808  0.0722
 6314TIP3    H118906   6.569   6.556   0.358 -0.0883 -0.3151  0.2251
 6314TIP3    H218907   6.665   6.453   0.415  1.0848  0.3920 -0.4275
 6315TIP3   OH218908   4.114   2.552   1.391 -0.1697  0.0625 -0.0927
 6315TIP3    H118909   4.162   2.565   1.310  0.5467 -0.7976  0.1785
 6315TIP3    H218910   4.022   2.555   1.365  0.0537 -0.1700 -0.9398
 6316TIP3   OH218911   3.657   4.130   2.704  0.1277  0.0014  0.1663
 6316TIP3    H118912   3.621   4.111   2.617 -1.3900  0.0580  0.7531
 6316TIP3    H218913   3.735   4.181   2.686 -0.2273  0.1235 -1.1736
 6317TIP3   OH218914   3.155   4.973   0.596  0.2759  0.0461 -0.1480
 6317TIP3    H118915   3.231   4.963   0.653  0.3207 -2.4120 -0.5265
 6317TIP3    H218916   3.091   4.911   0.632 -1.0661  1.1385 -0.6056
 6318TIP3   OH218917   5.003   0.697   3.685  0.4353 -0.0572 -0.5807
 6318TIP3    H118918   4.945   0.726   3.755  0.3353  2.3808 -1.5526
 6318TIP3    H218919   4.948   0.640   3.630 -0.9424  1.7222 -1.1490
 6319TIP3   OH218920   6.549   0.127   2.861  0.4334 -0.2409 -0.1273
 6319TIP3    H118921   6.624   0.068   2.865  0.2029 -0.6733 -1.5718
 6319TIP3    H218922   6.542   0.151   2.769 -0.9418  0.1485  0.0532
 6320TIP3   OH218923   3.522   5.699   4.743  0.2402 -0.0560 -0.2622
 6320TIP3    H118924   3.577   5.624   4.724  0.0722  0.0644 -1.3063
 6320TIP3    H218925   3.439   5.662   4.772 -0.2097 -0.3246 -1.8029
 6321TIP3   OH218926   7.105   5.640   1.079  0.3361 -0.1944 -0.2337
 6321TIP3    H118927   7.051   5.683   1.146  0.3159 -1.5544  0.6475
 6321TIP3    H218928   7.140   5.713   1.027 -1.9648  0.7541 -0.5580
 6322TIP3   OH218929   1.435   2.074   3.139 -0.0317  0.1598 -0.2839
 6322TIP3    H118930   1.510   2.016   3.152  0.3335  0.2683 -1.7499
 6322TIP3    H218931   1.422   2.115   3.224 -0.0417 -1.7506  0.6999
 6323TIP3   OH218932   5.506   1.196   3.789 -0.1033  0.0231 -0.1612
 6323TIP3    H118933   5.563   1.181   3.865 -1.2650  1.7325  1.1125
 6323TIP3    H218934   5.536   1.279   3.753 -1.8074  1.0037  0.5879
 6324TIP3   OH218935   2.950   3.936   4.488  0.3710 -0.4900  0.2358
 6324TIP3    H118936   3.021   3.996   4.463 -0.3702  0.9544  1.3987
 6324TIP3    H218937   2.894   3.933   4.411  0.3827  0.3949  0.1826
 6325TIP3   OH218938   3.252   5.700   3.511  0.3645 -0.5392  0.3942
 6325TIP3    H118939   3.270   5.609   3.536  0.7155 -0.6931 -0.4162
 6325TIP3    H218940   3.337   5.744   3.518  0.5825 -0.7092 -1.0491
 6326TIP3   OH218941   1.257   5.534   3.590 -0.0089 -0.1569 -0.4506
 6326TIP3    H118942   1.308   5.604   3.549  0.8079  0.0309  0.8394
 6326TIP3    H218943   1.167   5.566   3.586  0.3891  1.1744  0.4598
 6327TIP3   OH218944   0.918   6.518   3.782 -0.0107  0.3409 -0.2992
 6327TIP3    H118945   1.011   6.506   3.765 -0.0239 -0.4935  0.1534
 6327TIP3    H218946   0.874   6.483   3.705  0.0426  0.5197 -0.4110
 6328TIP3   OH218947   3.120   2.697   4.435 -0.2481 -0.4120 -0.4889
 6328TIP3    H118948   3.126   2.712   4.341 -3.3061 -0.5474 -0.8305
 6328TIP3    H218949   3.034   2.731   4.459 -0.1729 -1.7096  1.9814
 6329TIP3   OH218950   3.228   3.415   3.698 -0.2649 -0.2668 -0.7964
 6329TIP3    H118951   3.279   3.495   3.688 -1.9579  0.6413 -3.3968
 6329TIP3    H218952   3.293   3.346   3.705  1.2560  1.1429 -0.3011
 6330TIP3   OH218953   1.051   2.116   0.844  0.1100  0.0162  0.3942
 6330TIP3    H118954   1.018   2.119   0.754 -0.0076 -0.0688  0.4333
 6330TIP3    H218955   1.102   2.196   0.854 -0.3725  0.3229  0.4386
 6331TIP3   OH218956   4.307   3.724   0.726  0.5099 -0.7067 -0.2309
 6331TIP3    H118957   4.397   3.692   0.735  0.5023 -1.2758 -1.8759
 6331TIP3    H218958   4.274   3.683   0.646 -1.2401 -0.5346  0.3465
 6332TIP3   OH218959   3.684   3.295   4.360 -0.2582 -0.3905 -0.1153
 6332TIP3    H118960   3.761   3.345   4.388 -0.4789 -0.3636  0.4500
 6332TIP3    H218961   3.653   3.342   4.282 -0.1954  0.0883  0.1418
 6333TIP3   OH218962   6.742   0.807   1.986 -0.7527  0.2305 -0.3142
 6333TIP3    H118963   6.711   0.862   2.058 -1.5047 -0.7172  0.1034
 6333TIP3    H218964   6.765   0.869   1.917 -1.8334  1.0605  0.0463
 6334TIP3   OH218965   5.925   0.781   1.208 -0.1457 -0.6416 -0.1564
 6334TIP3    H118966   5.884   0.767   1.294 -1.5825 -0.1174 -0.7097
 6334TIP3    H218967   5.988   0.710   1.199 -0.0280 -0.7613  1.2886
 6335TIP3   OH218968   4.787   5.164   0.686  0.0680 -0.0655  0.2411
 6335TIP3    H118969   4.708   5.111   0.680  0.4524 -0.4783 -2.3728
 6335TIP3    H218970   4.761   5.240   0.738 -1.7028 -0.7438  0.4152
 6336TIP3   OH218971   6.927   2.339   0.259  0.3590 -0.4217  0.0234
 6336TIP3    H118972   6.881   2.267   0.302 -0.2883 -0.2478 -0.3608
 6336TIP3    H218973   6.918   2.412   0.319  0.7757 -0.5854  0.2870
 6337TIP3   OH218974   5.646   3.889   0.465  0.5056  0.3198  0.1900
 6337TIP3    H118975   5.731   3.929   0.443  0.3319  0.2342 -0.6791
 6337TIP3    H218976   5.645   3.808   0.414 -0.2199  0.4601 -0.0222
 6338TIP3   OH218977   6.605   3.991   5.612 -0.3093  0.3416 -0.2315
 6338TIP3    H118978   6.658   4.066   5.584 -0.1024  0.1067 -0.4738
 6338TIP3    H218979   6.575   3.951   5.530 -2.1329  1.3505 -0.1198
 6339TIP3   OH218980   1.738   3.288   3.268  0.0480  0.4931  0.0657
 6339TIP3    H118981   1.677   3.226   3.228  0.2622 -0.9007  1.7824
 6339TIP3    H218982   1.767   3.245   3.348  4.5936  0.3082 -1.3963
 6340TIP3   OH218983   6.995   4.445   5.683 -0.0002 -0.2264  0.1052
 6340TIP3    H118984   6.974   4.352   5.678 -1.1052  0.0022  0.2054
 6340TIP3    H218985   7.086   4.451   5.654 -0.7202 -1.0134 -2.6844
 6341TIP3   OH218986   6.168   4.648   5.639 -0.2600  0.0642  0.3005
 6341TIP3    H118987   6.175   4.702   5.718 -3.1671  1.1799 -0.1043
 6341TIP3    H218988   6.191   4.560   5.670  0.4513  0.7744  1.9476
 6342TIP3   OH218989   1.639   1.276   1.902  0.3777 -0.0793  0.4983
 6342TIP3    H118990   1.639   1.187   1.868  0.3805  0.0011  0.2862
 6342TIP3    H218991   1.714   1.318   1.860  0.5977 -0.0850  0.8830
 6343TIP3   OH218992   0.511   2.189   2.959 -0.0201  0.1913  0.0982
 6343TIP3    H118993   0.487   2.246   3.032 -3.2233 -0.3732 -0.3532
 6343TIP3    H218994   0.590   2.228   2.923  1.3462  0.8383  3.4126
 6344TIP3   OH218995   1.762   4.418   2.747  0.2302  0.0620  0.2673
 6344TIP3    H118996   1.726   4.330   2.731  0.1288  0.1507 -0.0033
 6344TIP3    H218997   1.789   4.416   2.838  1.8393 -0.8347 -0.1826
 6345TIP3   OH218998   4.498   2.808   0.922  0.0787  0.0582  0.0549
 6345TIP3    H118999   4.563   2.800   0.992 -0.7453  0.8314  0.9323
 6345TIP3    H219000   4.516   2.733   0.865  0.9879 -0.4016  0.9054
 6346TIP3   OH219001   6.794   2.591   1.763  0.8231  0.5037 -0.4504
 6346TIP3    H119002   6.866   2.569   1.822  0.5920  1.1498  0.0893
 6346TIP3    H219003   6.833   2.650   1.698  0.9223  0.3430 -0.5375
 6347TIP3   OH219004   0.847   1.042   2.940  0.1644 -0.2744  0.1594
 6347TIP3    H119005   0.868   1.135   2.939  1.5939 -0.5774 -0.4296
 6347TIP3    H219006   0.904   1.004   2.873  0.0718 -1.6738  0.8408
 6348TIP3   OH219007   3.453   0.279   0.724  0.0478  0.3035  0.1185
 6348TIP3    H119008   3.454   0.283   0.819  2.9802  0.8817  0.1565
 6348TIP3    H219009   3.496   0.196   0.702 -0.8529  0.0308 -0.7435
 6349TIP3   OH219010   6.227   2.054   1.976  0.5312  0.0494  0.1128
 6349TIP3    H119011   6.320   2.055   1.955  0.2662 -4.3591 -2.4560
 6349TIP3    H219012   6.221   2.000   2.056  0.1683  0.6384  0.4927
 6350TIP3   OH219013   4.616   5.523   5.219  0.2049 -0.1261  0.0437
 6350TIP3    H119014   4.607   5.562   5.306  0.1758  0.3466 -0.1717
 6350TIP3    H219015   4.704   5.483   5.221  1.2706  2.0366 -0.5481
 6351TIP3   OH219016   3.683   3.468   1.359 -0.2477 -0.2863  0.7254
 6351TIP3    H119017   3.706   3.381   1.390  0.9230 -0.6384 -0.9918
 6351TIP3    H219018   3.706   3.468   1.266 -1.4792  1.4223  0.3542
 6352TIP3   OH219019   3.605   2.138   2.004 -0.2991  0.4046  0.3438
 6352TIP3    H119020   3.513   2.149   1.982 -0.7296  0.7351  2.2033
 6352TIP3    H219021   3.605   2.093   2.088  1.2640 -0.5676 -0.1347
 6353TIP3   OH219022   6.279   5.714   3.715  0.4058  0.2649  0.6159
 6353TIP3    H119023   6.284   5.707   3.810 -1.9208 -2.0985  0.7046
 6353TIP3    H219024   6.322   5.635   3.682  1.1032  1.0050 -0.3195
 6354TIP3   OH219025   3.482   3.243   4.012  0.1995  0.4340 -0.0129
 6354TIP3    H119026   3.408   3.283   4.057  0.1990 -0.4933  0.8564
 6354TIP3    H219027   3.559   3.285   4.051  0.2369 -0.9648  1.5411
 6355TIP3   OH219028   6.281   1.086   1.446  0.0390  0.3731  0.4091
 6355TIP3    H119029   6.261   1.101   1.353  0.3791  1.5014  0.5004
 6355TIP3    H219030   6.223   1.015   1.472 -0.2462  0.2211 -0.6058
 6356TIP3   OH219031   2.550   4.781   2.357 -0.5939 -0.3068 -0.2504
 6356TIP3    H119032   2.579   4.867   2.329 -1.3339  0.1096  0.2192
 6356TIP3    H219033   2.611   4.720   2.317 -1.4907  0.2678 -2.6275
 6357TIP3   OH219034   2.009   2.298   5.878  0.3080 -0.6592 -1.1404
 6357TIP3    H119035   2.080   2.250   5.835  1.1494  0.4223 -1.0035
 6357TIP3    H219036   2.053   2.368   5.926 -0.8583  0.0794 -1.1094
 6358TIP3   OH219037   3.919   1.756   3.544 -0.2384  0.2865  0.0156
 6358TIP3    H119038   3.998   1.705   3.562  2.1619  2.4931 -3.1034
 6358TIP3    H219039   3.870   1.703   3.481  0.4396  0.2710 -0.5100
 6359TIP3   OH219040   4.400   2.243   5.309 -0.2391  0.2244  0.1848
 6359TIP3    H119041   4.387   2.326   5.264 -0.1361  0.0260 -0.2149
 6359TIP3    H219042   4.330   2.186   5.277  0.1851 -0.1023 -0.1841
 6360TIP3   OH219043   3.503   0.779   4.268  0.0372 -0.0326 -0.1124
 6360TIP3    H119044   3.460   0.837   4.205 -0.3026  2.4523  2.2210
 6360TIP3    H219045   3.559   0.838   4.320 -1.2703 -1.5087  3.2354
 6361TIP3   OH219046   2.923   2.963   4.020  0.5620 -0.2086  0.1886
 6361TIP3    H119047   2.873   3.043   4.004  0.1659 -0.1300  1.6180
 6361TIP3    H219048   2.996   2.967   3.959 -0.1664  0.5929 -0.6603
 6362TIP3   OH219049   6.215   1.572   2.483  0.0502  0.0750  0.3306
 6362TIP3    H119050   6.121   1.571   2.467  0.3739 -0.4028 -1.9278
 6362TIP3    H219051   6.226   1.622   2.564 -2.1706 -0.4755  1.0375
 6363TIP3   OH219052   4.799   5.984   5.026  0.6553  0.1730  0.0918
 6363TIP3    H119053   4.800   5.923   4.952  3.3639 -0.0372  0.2199
 6363TIP3    H219054   4.796   6.071   4.985 -2.0619  0.0690 -0.1065
 6364TIP3   OH219055   4.539   0.568   3.360 -0.4533 -0.2565 -0.6955
 6364TIP3    H119056   4.482   0.493   3.376  0.6805 -0.9518  0.2408
 6364TIP3    H219057   4.568   0.595   3.447  3.1123 -1.9306 -1.1918
 6365TIP3   OH219058   2.546   4.442   1.318 -0.4464  0.3838  0.1282
 6365TIP3    H119059   2.639   4.424   1.307 -0.5596 -0.1956  0.0506
 6365TIP3    H219060   2.541   4.533   1.347  0.1163  0.5531 -0.3077
 6366TIP3   OH219061   0.445   0.193   4.351 -0.5228  0.5621 -0.0637
 6366TIP3    H119062   0.494   0.253   4.296  2.8005  1.5297  3.4656
 6366TIP3    H219063   0.498   0.113   4.353 -1.4182 -0.0450  0.4633
 6367TIP3   OH219064   4.482   4.389   4.110 -0.1779  0.4448 -0.0209
 6367TIP3    H119065   4.567   4.396   4.067 -0.7137  2.2707 -0.8948
 6367TIP3    H219066   4.494   4.433   4.194  0.3077 -1.3090  0.8816
 6368TIP3   OH219067   0.933   2.129   0.586 -0.3359 -0.4320  0.0818
 6368TIP3    H119068   0.845   2.112   0.550 -0.5742  0.4189  0.2360
 6368TIP3    H219069   0.986   2.153   0.510 -0.2375 -0.9065 -0.0057
 6369TIP3   OH219070   5.112   4.877   4.478  0.1146 -0.6700  0.2788
 6369TIP3    H119071   5.112   4.882   4.382  0.5550 -2.1974  0.1667
 6369TIP3    H219072   5.019   4.874   4.502 -0.0145 -2.5559 -0.2936
 6370TIP3   OH219073   2.097   1.829   2.447  0.2320 -0.0716 -0.0898
 6370TIP3    H119074   2.001   1.818   2.447  0.2230 -0.0027 -0.3339
 6370TIP3    H219075   2.113   1.897   2.512  0.3812 -2.2260  2.2859
 6371TIP3   OH219076   1.141   5.749   5.647 -0.3387 -0.0274 -0.8394
 6371TIP3    H119077   1.181   5.682   5.591  0.6859 -0.4348  0.3287
 6371TIP3    H219078   1.085   5.799   5.588 -0.2405 -1.1983 -1.9759
 6372TIP3   OH219079   1.171   1.107   4.444  0.1803 -0.6056 -0.1943
 6372TIP3    H119080   1.198   1.087   4.354 -1.0059  1.1172 -0.9934
 6372TIP3    H219081   1.236   1.170   4.475 -0.3747  0.1304 -0.4990
 6373TIP3   OH219082   5.931   4.931   4.956 -0.3249  0.8135  0.3167
 6373TIP3    H119083   6.008   4.986   4.964 -1.4597  2.5130  0.0190
 6373TIP3    H219084   5.893   4.954   4.871 -0.7755 -0.5267  0.1292
 6374TIP3   OH219085   2.849   4.012   5.478 -0.1428 -0.1610 -0.0036
 6374TIP3    H119086   2.817   4.064   5.404  3.5553 -0.3308 -1.9486
 6374TIP3    H219087   2.923   4.062   5.512  1.1134 -2.2798  0.5530
 6375TIP3   OH219088   5.308   0.216   3.739  0.2616 -0.1845 -0.4298
 6375TIP3    H119089   5.334   0.215   3.831 -0.3899 -2.0241 -0.2194
 6375TIP3    H219090   5.230   0.161   3.736  0.6605 -0.7123 -2.1905
 6376TIP3   OH219091   3.254   4.803   3.981  0.2899  0.2787  0.9794
 6376TIP3    H119092   3.280   4.721   3.940  0.4453  1.5748 -1.6855
 6376TIP3    H219093   3.189   4.841   3.922 -0.7985  1.4942  2.8223
 6377TIP3   OH219094   0.656   6.176   2.597  0.2242  0.3514  0.3563
 6377TIP3    H119095   0.669   6.086   2.627  0.2742  0.1100 -0.3649
 6377TIP3    H219096   0.709   6.182   2.517 -2.3431 -0.0084 -1.5059
 6378TIP3   OH219097   0.100   4.716   4.835 -0.9823  0.0742 -0.0143
 6378TIP3    H119098   0.079   4.744   4.923 -2.6017 -0.7844 -0.0932
 6378TIP3    H219099   0.095   4.795   4.782 -0.2049  0.5545  0.6082
 6379TIP3   OH219100   2.161   1.817   1.753 -0.7687 -0.0800 -0.4757
 6379TIP3    H119101   2.113   1.890   1.793  0.1009  1.4852 -2.1478
 6379TIP3    H219102   2.166   1.840   1.660  2.2044 -0.6966 -0.5622
 6380TIP3   OH219103   5.505   4.956   0.757 -0.0236  0.3578 -0.1519
 6380TIP3    H119104   5.411   4.962   0.741  0.0714  0.4060 -0.7177
 6380TIP3    H219105   5.522   4.863   0.772 -0.1213  0.3157 -0.3059
 6381TIP3   OH219106   1.078   6.130   1.839  0.0480  0.0894 -0.0317
 6381TIP3    H119107   1.109   6.054   1.888 -0.1628 -0.0527 -0.1154
 6381TIP3    H219108   1.141   6.140   1.768  0.6185  0.5808  0.5289
 6382TIP3   OH219109   0.799   5.691   4.805  0.5399 -0.2862 -0.2821
 6382TIP3    H119110   0.833   5.760   4.748 -0.0219 -1.5067 -2.2040
 6382TIP3    H219111   0.844   5.612   4.775 -0.5054 -1.1317  0.3094
 6383TIP3   OH219112   0.962   6.567   0.392  0.1131 -0.2161  0.0856
 6383TIP3    H119113   1.056   6.552   0.402  0.0519 -0.6197  0.0723
 6383TIP3    H219114   0.935   6.507   0.322 -0.3280 -0.8187  0.7451
 6384TIP3   OH219115   0.081   5.156   5.830  0.1107 -0.2794  0.3627
 6384TIP3    H119116   0.154   5.142   5.890 -1.3366 -1.4027  1.9384
 6384TIP3    H219117   0.115   5.132   5.744  2.0472  0.7807  0.7784
 6385TIP3   OH219118   3.588   4.304   1.837  0.1003  0.1027 -0.0668
 6385TIP3    H119119   3.675   4.309   1.796  1.4222 -0.9801  2.3505
 6385TIP3    H219120   3.563   4.212   1.828 -1.4781  0.6441 -1.8777
 6386TIP3   OH219121   3.901   1.429   0.894  0.2438 -0.3877  0.1328
 6386TIP3    H119122   3.905   1.473   0.979  0.7169  0.3381 -0.2599
 6386TIP3    H219123   3.991   1.433   0.861 -0.1010  0.0638 -0.7705
 6387TIP3   OH219124   1.130   1.306   3.301 -0.3549 -0.1544  0.1260
 6387TIP3    H119125   1.194   1.278   3.365 -0.4887 -0.4754  0.1233
 6387TIP3    H219126   1.076   1.371   3.346  1.4595  1.9616 -0.5872
 6388TIP3   OH219127   2.465   3.612   5.229 -0.0380 -0.2224  0.5821
 6388TIP3    H119128   2.426   3.565   5.155 -1.5240 -0.3519  1.4012
 6388TIP3    H219129   2.534   3.554   5.260  0.5123 -0.2332 -0.6004
 6389TIP3   OH219130   4.020   6.464   0.247  0.0764 -0.2951 -0.0931
 6389TIP3    H119131   3.979   6.528   0.189 -0.1831 -0.6673 -0.3195
 6389TIP3    H219132   4.045   6.392   0.190  0.4590 -0.3526  0.1476
 6390TIP3   OH219133   4.828   0.934   5.658  0.1858 -0.4879 -0.1751
 6390TIP3    H119134   4.837   1.026   5.632 -0.0543 -0.1513  0.8793
 6390TIP3    H219135   4.826   0.937   5.754 -1.6896 -1.3938 -0.1430
 6391TIP3   OH219136   2.819   6.204   3.594 -0.2346  0.3776 -0.4079
 6391TIP3    H119137   2.859   6.291   3.588  0.3672  0.1721  0.3838
 6391TIP3    H219138   2.731   6.221   3.628  0.6915  0.5393  2.1443
 6392TIP3   OH219139   0.937   1.895   2.378  0.0665 -0.1831 -0.3088
 6392TIP3    H119140   0.987   1.848   2.445 -0.0527 -0.7974 -0.6405
 6392TIP3    H219141   0.879   1.829   2.340 -2.2906  0.8742  1.2355
 6393TIP3   OH219142   1.151   2.141   3.882 -0.0246  0.6481  0.3714
 6393TIP3    H119143   1.168   2.130   3.788  0.0666 -0.6894  0.5337
 6393TIP3    H219144   1.055   2.144   3.888 -0.5466 -5.3996  0.7290
 6394TIP3   OH219145   5.704   6.536   1.811  0.0518 -0.5065  0.0554
 6394TIP3    H119146   5.618   6.575   1.804  1.0333  1.5285 -1.7501
 6394TIP3    H219147   5.739   6.537   1.722  2.2860 -0.3590  0.8487
 6395TIP3   OH219148   5.937   5.514   2.172 -0.8293  0.2740  0.2393
 6395TIP3    H119149   5.921   5.432   2.220 -0.8009 -0.3735 -0.8114
 6395TIP3    H219150   6.031   5.528   2.180 -0.4326 -1.0200 -1.3771
 6396TIP3   OH219151   0.889   6.660   1.659  0.1590 -0.0917  0.2296
 6396TIP3    H119152   0.845   6.719   1.599  0.7601 -1.5278 -1.7081
 6396TIP3    H219153   0.862   6.573   1.632  0.3425 -0.8004  2.1594
 6397TIP3   OH219154   1.136   5.798   0.504 -0.3431 -0.0695 -0.0610
 6397TIP3    H119155   1.115   5.782   0.412 -3.8634 -2.7188  0.9658
 6397TIP3    H219156   1.104   5.886   0.522  2.3483  1.3921 -1.6778
 6398TIP3   OH219157   0.790   1.403   0.116 -0.2771 -0.2875  0.2597
 6398TIP3    H119158   0.807   1.321   0.070 -1.2995 -0.4123  0.0841
 6398TIP3    H219159   0.695   1.405   0.127 -0.1179 -0.0671  1.9943
 6399TIP3   OH219160   4.788   2.398   5.369  0.5849  0.6093  0.0669
 6399TIP3    H119161   4.721   2.463   5.350 -1.3512 -0.8272  1.5461
 6399TIP3    H219162   4.826   2.377   5.284 -1.1660  1.1345 -0.8956
 6400TIP3   OH219163   6.044   3.413   0.644 -0.1961  0.3835 -0.3813
 6400TIP3    H119164   6.056   3.383   0.554  2.2191  2.3595 -0.8386
 6400TIP3    H219165   5.987   3.348   0.684  0.2512 -1.6224 -2.7748
 6401TIP3   OH219166   7.168   5.448   4.100 -0.1623 -0.2706  0.8080
 6401TIP3    H119167   7.144   5.439   4.192 -0.4389  3.2230  1.1877
 6401TIP3    H219168   7.098   5.500   4.061  0.0954 -1.4260 -1.3705
 6402TIP3   OH219169   0.083   1.973   5.079 -0.2633 -0.7476  0.0156
 6402TIP3    H119170   0.078   1.919   5.157  1.9452  0.3575  1.0103
 6402TIP3    H219171   0.138   1.923   5.019  1.3385  0.1034  0.7325
 6403TIP3   OH219172   0.133   3.447   5.678  0.4380  0.6988  0.4926
 6403TIP3    H119173   0.115   3.453   5.584 -0.5967  0.5419  0.6758
 6403TIP3    H219174   0.048   3.430   5.718  1.0293 -0.2988  1.3681
 6404TIP3   OH219175   6.125   0.176   3.275 -0.4333  0.2495  0.3723
 6404TIP3    H119176   6.169   0.095   3.251 -1.0379  0.1448 -0.4217
 6404TIP3    H219177   6.128   0.230   3.196 -3.0969 -0.3867 -0.2610
 6405TIP3   OH219178   6.423   6.348   2.044  0.0269 -0.7350  0.1804
 6405TIP3    H119179   6.466   6.384   2.121  0.1203 -1.5344  0.5049
 6405TIP3    H219180   6.345   6.305   2.078 -0.2534 -0.5639 -0.2403
 6406TIP3   OH219181   3.752   2.179   4.345  0.0988  0.4248  0.1460
 6406TIP3    H119182   3.744   2.163   4.251  1.0731 -1.6840  0.3693
 6406TIP3    H219183   3.845   2.170   4.363 -0.1718 -0.0876  1.4305
 6407TIP3   OH219184   5.349   1.967   4.054 -0.2592 -0.1191 -0.2444
 6407TIP3    H119185   5.288   2.041   4.061  0.3451  0.4995 -1.2182
 6407TIP3    H219186   5.415   1.997   3.992 -0.4361 -1.7944 -1.2849
 6408TIP3   OH219187   3.814   6.705   3.250 -0.6926  0.2944  0.2020
 6408TIP3    H119188   3.821   6.732   3.158 -0.7874 -0.6486 -0.0905
 6408TIP3    H219189   3.903   6.677   3.273 -1.1187 -1.6068 -0.3035
 6409TIP3   OH219190   1.416   2.066   0.876  0.0170  0.2860 -0.6910
 6409TIP3    H119191   1.387   2.068   0.785  0.3163 -0.7041 -0.8207
 6409TIP3    H219192   1.377   1.987   0.912 -1.2327  1.3776  0.4458
 6410TIP3   OH219193   5.602   3.538   4.682 -0.1841 -0.4200 -0.3866
 6410TIP3    H119194   5.560   3.586   4.754 -2.3374  0.1309 -1.9259
 6410TIP3    H219195   5.638   3.606   4.625  0.4222 -0.8099 -0.4770
 6411TIP3   OH219196   0.423   3.246   2.483 -0.3796  0.4307  0.1214
 6411TIP3    H119197   0.466   3.181   2.427  2.0540  0.0439  2.2389
 6411TIP3    H219198   0.446   3.330   2.444 -1.0868  0.1419 -0.9816
 6412TIP3   OH219199   2.530   4.466   5.477  0.0381 -0.3488  0.3030
 6412TIP3    H119200   2.518   4.378   5.513 -0.4912  0.4503  2.2013
 6412TIP3    H219201   2.625   4.476   5.469  0.1398 -0.7710  0.9227
 6413TIP3   OH219202   6.592   2.377   1.837  0.1990 -0.8660  0.1088
 6413TIP3    H119203   6.654   2.409   1.772 -0.0502 -1.9707 -0.7212
 6413TIP3    H219204   6.634   2.392   1.921  0.3554  0.9831 -0.2714
 6414TIP3   OH219205   6.035   0.276   2.335  0.1350 -0.0502 -0.2016
 6414TIP3    H119206   5.977   0.220   2.386 -1.5784  2.0742  0.3153
 6414TIP3    H219207   6.008   0.262   2.244  0.5749 -0.9780 -0.1933
 6415TIP3   OH219208   6.497   2.528   3.007 -0.0243 -0.4144  0.3128
 6415TIP3    H119209   6.553   2.468   3.055 -1.8406 -0.1155  3.0497
 6415TIP3    H219210   6.422   2.542   3.065 -1.4226  1.6210 -1.8070
 6416TIP3   OH219211   2.847   6.112   2.774  0.3148 -0.9832 -0.3498
 6416TIP3    H119212   2.777   6.120   2.839  1.4871 -1.5246  1.0563
 6416TIP3    H219213   2.910   6.051   2.814  1.8314 -0.1108 -1.2929
 6417TIP3   OH219214   2.838   6.030   3.392 -0.2559 -0.5169  0.6117
 6417TIP3    H119215   2.886   5.958   3.432  0.3940 -0.2594  0.3042
 6417TIP3    H219216   2.825   6.093   3.464  0.6842 -0.1699  0.4881
 6418TIP3   OH219217   0.854   6.030   0.747 -0.0933  0.3337  0.0872
 6418TIP3    H119218   0.899   5.945   0.740  0.4692  0.6761 -0.5941
 6418TIP3    H219219   0.913   6.084   0.800  1.4234  1.4535 -2.5154
 6419TIP3   OH219220   6.689   2.569   0.274 -0.4033 -0.4009  0.5305
 6419TIP3    H119221   6.687   2.504   0.204  0.6210  1.9195 -1.8364
 6419TIP3    H219222   6.756   2.538   0.334  0.7344 -1.0826 -1.0362
 6420TIP3   OH219223   0.469   0.219   3.951  0.1188  0.0525 -0.1725
 6420TIP3    H119224   0.375   0.198   3.945  0.0499  0.1712  0.4395
 6420TIP3    H219225   0.480   0.251   4.041  0.6634  0.4574 -0.3853
 6421TIP3   OH219226   1.615   2.255   0.051  0.3453  0.1866  0.1063
 6421TIP3    H119227   1.539   2.313   0.045 -1.0889 -1.2086  2.7934
 6421TIP3    H219228   1.581   2.168   0.030  1.3130 -0.3895  0.8191
 6422TIP3   OH219229   1.184   3.084   0.522  0.3288 -0.0488 -0.8146
 6422TIP3    H119230   1.229   3.013   0.568  1.9747  0.5755 -1.3650
 6422TIP3    H219231   1.210   3.163   0.570  0.1254  0.3699 -1.3808
 6423TIP3   OH219232   5.774   1.440   1.332  0.0004 -0.0669  0.1233
 6423TIP3    H119233   5.728   1.360   1.357  0.2692 -0.2012  0.1918
 6423TIP3    H219234   5.722   1.475   1.259 -1.0905  0.6181  1.1984
 6424TIP3   OH219235   1.174   1.096   3.134  0.5291  0.2165  0.0990
 6424TIP3    H119236   1.135   1.108   3.047 -0.4600 -1.4851  0.2527
 6424TIP3    H219237   1.165   1.181   3.177 -1.1838  0.4343 -0.6181
 6425TIP3   OH219238   5.258   1.754   5.476  0.7965  0.6704 -0.0589
 6425TIP3    H119239   5.261   1.838   5.522 -0.5432  0.6725  0.0509
 6425TIP3    H219240   5.293   1.774   5.389  1.4992  1.0946  0.3115
 6426TIP3   OH219241   3.275   0.187   1.782  0.6391 -0.4388  0.2500
 6426TIP3    H119242   3.354   0.133   1.787 -0.2826 -2.0929 -1.6372
 6426TIP3    H219243   3.298   0.258   1.721  0.5108 -1.3212 -0.8683
 6427TIP3   OH219244   4.991   3.062   5.074  0.2053 -0.5229  0.1753
 6427TIP3    H119245   4.987   3.137   5.134  0.5477  0.3097 -0.8216
 6427TIP3    H219246   5.053   3.088   5.006 -0.0883 -1.4925 -0.4921
 6428TIP3   OH219247   1.089   0.626   1.628 -0.2715 -0.2261  0.8513
 6428TIP3    H119248   1.051   0.697   1.578  1.3519 -0.4143 -0.7253
 6428TIP3    H219249   1.069   0.647   1.719 -3.0132  0.2857  0.2030
 6429TIP3   OH219250   5.920   6.224   5.047  0.7656 -0.2277  0.0035
 6429TIP3    H119251   5.912   6.306   5.095 -2.4851 -0.3412 -0.1391
 6429TIP3    H219252   5.942   6.159   5.114 -0.7878  0.1025  0.8675
 6430TIP3   OH219253   1.610   3.356   4.068  0.4785  0.5238 -0.3371
 6430TIP3    H119254   1.656   3.391   3.992 -2.4803  0.0872 -2.4928
 6430TIP3    H219255   1.599   3.263   4.049  1.4114 -0.0367  1.6184
 6431TIP3   OH219256   1.141   0.046   2.964  0.1324  0.2867  0.1448
 6431TIP3    H119257   1.188   0.016   3.042  1.0184 -0.5873 -0.7023
 6431TIP3    H219258   1.132   0.141   2.977 -0.8464 -0.0027  1.8708
 6432TIP3   OH219259   4.252   6.392   2.119 -0.4957 -0.1580  0.1766
 6432TIP3    H119260   4.177   6.355   2.165 -1.3567 -0.5759 -1.4979
 6432TIP3    H219261   4.321   6.326   2.129 -0.4024  0.1217  1.5142
 6433TIP3   OH219262   0.123   4.739   1.832  0.0174  0.0192 -0.0583
 6433TIP3    H119263   0.128   4.673   1.901  0.3709  1.9478  1.8690
 6433TIP3    H219264   0.077   4.695   1.760 -0.5996 -2.0128  1.4814
 6434TIP3   OH219265   2.539   4.888   5.054 -0.1934 -0.7405  0.4385
 6434TIP3    H119266   2.614   4.906   5.110 -0.9375 -0.3550  1.3492
 6434TIP3    H219267   2.551   4.797   5.026  1.9325  0.0712 -1.5783
 6435TIP3   OH219268   6.616   6.491   4.779 -0.2247  0.1509  0.1167
 6435TIP3    H119269   6.711   6.495   4.774 -0.2458  1.5739  0.3913
 6435TIP3    H219270   6.592   6.413   4.727  1.0883 -0.4358  0.3609
 6436TIP3   OH219271   4.120   2.688   1.828 -0.4294 -0.3226 -0.0639
 6436TIP3    H119272   4.077   2.609   1.796 -0.3206  0.2102 -1.6507
 6436TIP3    H219273   4.143   2.736   1.748  0.2837  0.8933  0.8387
 6437TIP3   OH219274   4.569   1.830   1.736  0.7245  0.5092  0.1265
 6437TIP3    H119275   4.489   1.821   1.685  0.0318  0.0986  1.2507
 6437TIP3    H219276   4.627   1.761   1.701  0.0040 -0.2249  0.3534
 6438TIP3   OH219277   3.185   0.292   1.271  0.1834  0.6184  0.0912
 6438TIP3    H119278   3.122   0.342   1.219 -0.0379  1.9276  1.5644
 6438TIP3    H219279   3.212   0.351   1.341  0.9272 -0.8746  1.1324
 6439TIP3   OH219280   6.331   1.044   3.096  0.2005  0.0164 -0.0480
 6439TIP3    H119281   6.386   1.022   3.172 -1.9070 -0.7841  1.3296
 6439TIP3    H219282   6.292   1.128   3.119 -0.3044 -0.1424 -0.3131
 6440TIP3   OH219283   3.613   2.908   3.085 -0.3675  0.0935  0.2041
 6440TIP3    H119284   3.521   2.911   3.111 -0.5650  1.8952 -0.5363
 6440TIP3    H219285   3.659   2.877   3.163 -1.3999  1.1758  1.2928
 6441TIP3   OH219286   1.266   4.052   0.210  0.6820  0.1221  0.3160
 6441TIP3    H119287   1.281   4.145   0.227  0.4388  0.0864  0.7737
 6441TIP3    H219288   1.262   4.044   0.115  1.2595  0.4868  0.2616
 6442TIP3   OH219289   0.385   4.799   1.767 -0.6347 -0.0079 -0.1603
 6442TIP3    H119290   0.389   4.723   1.709 -2.1992 -0.8807  0.8121
 6442TIP3    H219291   0.317   4.777   1.830  1.4709  0.5732  2.4946
 6443TIP3   OH219292   0.141   4.550   0.162 -0.2531 -0.4208 -0.6212
 6443TIP3    H119293   0.191   4.512   0.234 -0.9812  0.4946  0.4321
 6443TIP3    H219294   0.196   4.620   0.128 -1.8215  2.7338  2.6022
 6444TIP3   OH219295   6.955   3.893   1.744  0.5912  0.3812 -0.1941
 6444TIP3    H119296   6.889   3.824   1.749 -0.6344  1.4476 -0.9493
 6444TIP3    H219297   7.015   3.864   1.676 -0.0526  0.1535 -0.6724
 6445TIP3   OH219298   3.929   0.497   0.681 -0.3556 -0.0953 -0.0791
 6445TIP3    H119299   3.852   0.455   0.643 -3.4573  3.2142  1.8994
 6445TIP3    H219300   3.983   0.522   0.606 -0.9201 -2.8558 -1.5176
 6446TIP3   OH219301   0.644   3.896   0.798 -0.2939 -0.4587 -0.2519
 6446TIP3    H119302   0.608   3.959   0.861 -0.4808 -1.0035  0.1962
 6446TIP3    H219303   0.604   3.813   0.822 -1.6560 -0.3878 -2.1537
 6447TIP3   OH219304   6.725   5.676   1.435 -0.0354 -0.1082 -0.2465
 6447TIP3    H119305   6.651   5.737   1.432 -0.5608 -0.7349 -0.0683
 6447TIP3    H219306   6.697   5.601   1.383  0.3949 -0.4382 -0.0099
 6448TIP3   OH219307   2.476   5.658   1.863  0.2258  0.1589 -0.3459
 6448TIP3    H119308   2.486   5.620   1.776 -0.6365 -0.9234  0.0149
 6448TIP3    H219309   2.564   5.656   1.901  0.2000 -1.5056 -0.3324
 6449TIP3   OH219310   0.805   1.156   4.356 -0.4267  0.1351 -0.4253
 6449TIP3    H119311   0.748   1.228   4.384 -0.5977 -0.1456 -0.0423
 6449TIP3    H219312   0.868   1.146   4.427 -0.0088  0.3227 -0.7655
 6450TIP3   OH219313   0.759   4.139   5.759  0.2259 -0.1064 -0.0397
 6450TIP3    H119314   0.701   4.068   5.730 -0.1498 -0.3793  1.3159
 6450TIP3    H219315   0.725   4.217   5.715  0.5238 -0.7030 -1.3999
 6451TIP3   OH219316   4.108   3.463   2.639 -0.2926 -0.4543  0.0505
 6451TIP3    H119317   4.091   3.463   2.733 -0.0254  0.8311  0.1158
 6451TIP3    H219318   4.114   3.370   2.616  0.6401 -0.7936  1.4907
 6452TIP3   OH219319   3.417   0.281   3.128  0.0180  0.1305  0.5166
 6452TIP3    H119320   3.491   0.315   3.076  1.0116 -1.9836  0.4211
 6452TIP3    H219321   3.340   0.319   3.086  0.9317  0.5633 -0.8807
 6453TIP3   OH219322   1.751   5.017   2.527 -0.1987 -0.4664 -0.0700
 6453TIP3    H119323   1.755   4.937   2.474  1.9231 -1.8750  2.0370
 6453TIP3    H219324   1.810   5.001   2.600 -0.8813  2.4719  1.2834
 6454TIP3   OH219325   0.337   2.865   3.146 -0.0460 -0.0719 -0.0926
 6454TIP3    H119326   0.380   2.909   3.074  0.4197 -0.6048 -0.1496
 6454TIP3    H219327   0.405   2.856   3.213 -0.0647 -0.9132 -0.1793
 6455TIP3   OH219328   5.825   0.724   2.680 -0.1193  0.6358 -0.7556
 6455TIP3    H119329   5.731   0.710   2.665 -0.0976 -0.6832  0.1566
 6455TIP3    H219330   5.868   0.663   2.620  0.1621  0.9211 -0.8494
 6456TIP3   OH219331   3.729   6.256   4.193  0.3312 -0.5054 -0.9041
 6456TIP3    H119332   3.674   6.287   4.265 -0.5122  0.8985 -2.1179
 6456TIP3    H219333   3.675   6.267   4.115  0.3560 -4.0469 -1.6168
 6457TIP3   OH219334   4.095   5.312   3.331  0.6913  0.8620 -0.3764
 6457TIP3    H119335   4.168   5.250   3.339 -0.3746 -0.7232 -2.0378
 6457TIP3    H219336   4.044   5.300   3.411  1.5630  1.0792  0.2267
 6458TIP3   OH219337   6.738   3.868   3.838 -0.2176 -0.5269 -0.5567
 6458TIP3    H119338   6.795   3.945   3.831 -0.2911 -0.5021 -0.9462
 6458TIP3    H219339   6.671   3.894   3.901  1.0840 -1.1272  1.1688
 6459TIP3   OH219340   6.307   0.714   4.605 -0.2565  0.5779  0.0664
 6459TIP3    H119341   6.249   0.762   4.665  2.7883  2.4954  1.7091
 6459TIP3    H219342   6.366   0.780   4.571  0.8884 -1.2430 -1.6880
 6460TIP3   OH219343   7.137   1.447   2.552  0.4947 -0.1401  0.3274
 6460TIP3    H119344   7.218   1.424   2.507  0.4072 -0.5357  0.3718
 6460TIP3    H219345   7.068   1.435   2.486  0.6083  1.6488 -0.1832
 6461TIP3   OH219346   0.348   3.641   4.684 -0.7133  0.6697 -0.2336
 6461TIP3    H119347   0.337   3.734   4.664 -1.0955  0.2805 -1.9646
 6461TIP3    H219348   0.434   3.636   4.727 -1.1110  1.9310  0.7646
 6462TIP3   OH219349   0.480   5.145   0.996  0.1036  0.3003 -0.2971
 6462TIP3    H119350   0.489   5.183   1.083  1.6633  0.6925 -0.6084
 6462TIP3    H219351   0.437   5.213   0.945  0.4710  0.6171 -0.1867
 6463TIP3   OH219352   5.830   4.174   1.880 -0.4563 -0.3414 -0.1205
 6463TIP3    H119353   5.811   4.219   1.962  0.7628  2.3044 -1.1735
 6463TIP3    H219354   5.924   4.158   1.882 -0.7276 -2.0822 -0.1796
 6464TIP3   OH219355   2.586   4.861   2.678  0.2796 -0.7215 -0.2615
 6464TIP3    H119356   2.590   4.892   2.588 -0.1964 -2.4066 -0.8937
 6464TIP3    H219357   2.542   4.777   2.673 -0.1339 -0.6613  1.6132
 6465TIP3   OH219358   1.886   3.876   2.667  0.2134 -0.3130 -0.1626
 6465TIP3    H119359   1.934   3.918   2.738  2.7251  0.0690 -1.9747
 6465TIP3    H219360   1.934   3.796   2.648 -1.4205 -1.3130 -0.3356
 6466TIP3   OH219361   4.887   4.284   4.456  0.1677 -0.5363 -0.4742
 6466TIP3    H119362   4.894   4.254   4.365 -0.0448  0.4489 -0.8341
 6466TIP3    H219363   4.917   4.375   4.453 -0.4049 -0.3129  0.3378
 6467TIP3   OH219364   5.611   1.175   1.073 -0.1355  0.3703  0.3417
 6467TIP3    H119365   5.610   1.213   1.161  0.5492  1.1204  0.0415
 6467TIP3    H219366   5.702   1.149   1.059 -0.8091 -2.8207  1.0947
 6468TIP3   OH219367   4.041   5.911   3.788 -0.0408 -0.5698 -0.1098
 6468TIP3    H119368   3.966   5.871   3.832 -0.0733  0.2269  0.5966
 6468TIP3    H219369   4.002   5.968   3.721  0.0058 -1.7111 -1.1258
 6469TIP3   OH219370   1.481   2.709   3.562 -0.4313  0.2902 -0.6724
 6469TIP3    H119371   1.558   2.673   3.518 -0.6767  0.0493 -0.9086
 6469TIP3    H219372   1.481   2.802   3.539 -1.0745 -0.0016 -1.9685
 6470TIP3   OH219373   3.438   6.151   2.491 -0.1637 -0.1471  0.0741
 6470TIP3    H119374   3.501   6.106   2.547 -0.9419 -0.2161  0.9130
 6470TIP3    H219375   3.373   6.084   2.469 -0.6048  0.2233  0.2232
 6471TIP3   OH219376   6.960   3.895   4.979  0.2425 -0.2759 -0.9440
 6471TIP3    H119377   7.036   3.914   4.924  1.4934 -0.3700  0.6624
 6471TIP3    H219378   6.968   3.955   5.054 -0.8980 -0.7492 -0.4071
 6472TIP3   OH219379   4.511   4.662   0.542 -0.6418 -0.1647 -0.2007
 6472TIP3    H119380   4.530   4.751   0.512  0.6366  0.0335  1.1068
 6472TIP3    H219381   4.424   4.668   0.581 -0.1236  0.8030  0.8867
 6473TIP3   OH219382   4.392   4.830   0.265  0.7367 -0.4547 -0.0474
 6473TIP3    H119383   4.317   4.846   0.322 -1.3559 -2.4570 -2.0251
 6473TIP3    H219384   4.467   4.863   0.314 -1.3249  1.0440  2.3274
 6474TIP3   OH219385   1.099   0.524   4.479 -0.4338 -0.4938  0.0942
 6474TIP3    H119386   1.117   0.579   4.402  0.0264 -1.9336 -0.8607
 6474TIP3    H219387   1.004   0.528   4.489 -0.4822 -0.1524 -0.4474
 6475TIP3   OH219388   6.123   3.923   1.775  0.1264 -0.2065 -0.4141
 6475TIP3    H119389   6.141   4.015   1.793 -1.9017  0.1247  0.1103
 6475TIP3    H219390   6.157   3.876   1.852 -4.0041  0.7331  2.2621
 6476TIP3   OH219391   4.295   6.251   5.712 -0.5339  0.8028  0.4218
 6476TIP3    H119392   4.265   6.342   5.721 -2.2129  0.1674  1.9705
 6476TIP3    H219393   4.362   6.242   5.781 -0.0326  0.9723 -0.0358
 6477TIP3   OH219394   5.235   5.186   4.881 -0.6253 -0.3164  0.0814
 6477TIP3    H119395   5.244   5.091   4.874 -1.1367 -0.4306  0.8689
 6477TIP3    H219396   5.151   5.206   4.840 -0.5277 -0.2049 -0.0660
 6478TIP3   OH219397   3.039   5.157   5.051  0.5425 -0.3535  0.5197
 6478TIP3    H119398   2.979   5.216   5.006 -0.0193 -1.1427  0.2221
 6478TIP3    H219399   2.983   5.098   5.101  0.9850 -1.7966 -0.6125
 6479TIP3   OH219400   6.589   0.095   4.019 -0.1392  0.8405 -0.1849
 6479TIP3    H119401   6.529   0.170   4.021 -2.4589 -0.8246 -1.6538
 6479TIP3    H219402   6.534   0.022   3.990  2.2461 -1.2308  0.2046
 6480TIP3   OH219403   6.921   4.573   3.704  0.2936  0.3738 -0.5496
 6480TIP3    H119404   6.984   4.627   3.752 -1.1578  0.4754  1.3810
 6480TIP3    H219405   6.862   4.635   3.663  0.0963  0.2703 -0.4225
 6481TIP3   OH219406   4.361   0.467   3.036 -0.2687 -0.2609  0.1894
 6481TIP3    H119407   4.344   0.516   2.955 -1.3046  0.6639  0.9523
 6481TIP3    H219408   4.367   0.534   3.104  1.6619 -0.9284  0.7626
 6482TIP3   OH219409   6.652   1.902   0.848  0.2364 -0.4672  0.4012
 6482TIP3    H119410   6.594   1.921   0.774 -2.2951 -1.5856  1.9634
 6482TIP3    H219411   6.623   1.963   0.917  0.4577 -1.5025  1.4284
 6483TIP3   OH219412   5.801   3.176   2.960  0.4085 -0.3429 -0.6321
 6483TIP3    H119413   5.778   3.126   3.039 -0.3099  0.4058 -0.3543
 6483TIP3    H219414   5.872   3.126   2.920  0.5975 -0.8833  0.3437
 6484TIP3   OH219415   1.540   1.730   5.575  0.0971  0.0014  0.1477
 6484TIP3    H119416   1.561   1.681   5.654 -1.7733 -0.4261  0.4181
 6484TIP3    H219417   1.612   1.792   5.565  0.3069  0.1519  2.2375
 6485TIP3   OH219418   4.846   5.874   5.476 -0.3113  0.4267  0.2344
 6485TIP3    H119419   4.847   5.970   5.478  0.0872  0.4415 -0.4816
 6485TIP3    H219420   4.765   5.852   5.430 -0.0479  0.4417 -0.2490
 6486TIP3   OH219421   6.247   0.232   2.114 -0.1920 -0.2119  0.2815
 6486TIP3    H119422   6.178   0.227   2.048  1.0042 -1.2232 -0.9587
 6486TIP3    H219423   6.225   0.163   2.177 -0.3595 -0.4644 -0.0537
 6487TIP3   OH219424   5.432   3.721   1.243 -0.5250 -0.1110 -0.6654
 6487TIP3    H119425   5.350   3.676   1.223 -0.1374 -1.7838  1.1724
 6487TIP3    H219426   5.471   3.670   1.314  1.2431  1.6814 -0.2356
 6488TIP3   OH219427   2.459   3.270   1.924  0.8133 -0.4442 -0.2293
 6488TIP3    H119428   2.483   3.359   1.949 -0.6695  0.1257 -0.7651
 6488TIP3    H219429   2.493   3.260   1.835  2.1762 -0.9239  0.3112
 6489TIP3   OH219430   4.216   6.794   5.531  0.1545  0.3331 -0.1920
 6489TIP3    H119431   4.260   6.834   5.606 -0.2594 -0.0651  0.2745
 6489TIP3    H219432   4.272   6.720   5.507 -0.3987 -0.3592  0.5955
 6490TIP3   OH219433   0.997   4.829   0.681 -0.0725  0.1503 -0.0364
 6490TIP3    H119434   1.087   4.809   0.656 -0.5651 -0.7538 -1.1462
 6490TIP3    H219435   0.948   4.749   0.662 -1.2421  0.8687 -0.1273
 6491TIP3   OH219436   4.682   5.751   2.973 -0.5581  0.2051  0.0972
 6491TIP3    H119437   4.662   5.679   2.913 -3.9350  0.5239  0.6758
 6491TIP3    H219438   4.615   5.746   3.040  0.7022  2.3422  1.6353
 6492TIP3   OH219439   2.717   1.657   2.742 -0.5147 -0.0313  0.1859
 6492TIP3    H119440   2.724   1.740   2.695  1.4388 -0.5831 -0.5851
 6492TIP3    H219441   2.629   1.625   2.722 -1.4163  1.9562  0.7229
 6493TIP3   OH219442   2.349   2.701   4.073 -0.4304 -0.1971  0.1662
 6493TIP3    H119443   2.253   2.703   4.076 -0.4868  1.9926 -1.0724
 6493TIP3    H219444   2.373   2.779   4.024  2.0209 -0.6661  0.4947
 6494TIP3   OH219445   2.793   2.301   4.791  0.1607  0.0669  0.1300
 6494TIP3    H119446   2.756   2.256   4.867  1.5192  0.0210  0.7917
 6494TIP3    H219447   2.724   2.295   4.724 -0.4026 -1.3734  0.7922
 6495TIP3   OH219448   1.140   3.237   3.645  0.4122 -0.0323  0.2184
 6495TIP3    H119449   1.081   3.198   3.709  0.3194  0.7314  0.6106
 6495TIP3    H219450   1.142   3.174   3.573 -2.0473  0.5576 -0.4791
 6496TIP3   OH219451   1.647   1.935   0.642 -0.1569  0.1890  0.0117
 6496TIP3    H119452   1.660   2.027   0.665  1.2254  0.0303 -0.0582
 6496TIP3    H219453   1.552   1.925   0.634 -0.2840  1.8275 -0.8978
 6497TIP3   OH219454   5.723   3.727   5.709 -0.2738 -0.2781  0.2281
 6497TIP3    H119455   5.772   3.759   5.784 -0.3558  0.0836  0.1274
 6497TIP3    H219456   5.657   3.669   5.746 -1.1315  0.8865  0.5532
 6498TIP3   OH219457   5.202   1.153   1.244 -0.1134  0.0352 -0.1326
 6498TIP3    H119458   5.145   1.144   1.320 -1.8047 -1.2716 -1.4695
 6498TIP3    H219459   5.263   1.080   1.250 -0.4594 -0.2614 -0.1833
 6499TIP3   OH219460   7.109   1.453   0.879 -0.7151 -0.5159 -0.1913
 6499TIP3    H119461   7.169   1.436   0.952 -0.2523  0.0919 -0.4155
 6499TIP3    H219462   7.038   1.503   0.918 -0.5637 -0.3563 -0.1161
 6500TIP3   OH219463   4.700   5.751   1.774  0.1918  0.1303  0.7511
 6500TIP3    H119464   4.622   5.805   1.758  0.9769  0.8503 -0.9050
 6500TIP3    H219465   4.679   5.666   1.737  0.1545  0.2990  0.3813
 6501TIP3   OH219466   5.970   0.809   0.460 -0.3551 -0.3910  0.2483
 6501TIP3    H119467   6.005   0.890   0.423  0.2866 -0.8543 -0.1711
 6501TIP3    H219468   6.038   0.779   0.520 -1.0359 -0.0772  1.2077
 6502TIP3   OH219469   2.949   0.575   2.526  0.0592  0.2843  0.1026
 6502TIP3    H119470   2.888   0.500   2.531  0.1187  0.1471 -0.9626
 6502TIP3    H219471   2.908   0.635   2.464  0.5344  0.6453  0.1319
 6503TIP3   OH219472   5.441   2.833   0.483  0.1771 -0.3263 -0.0011
 6503TIP3    H119473   5.461   2.758   0.539  1.0003 -0.6486 -0.7031
 6503TIP3    H219474   5.434   2.797   0.395 -1.8509  0.0603 -0.0484
 6504TIP3   OH219475   4.229   5.353   5.699 -0.2489 -0.4952  0.1847
 6504TIP3    H119476   4.238   5.430   5.755  0.7699 -0.1089 -0.4957
 6504TIP3    H219477   4.318   5.321   5.687 -0.4839 -0.7743 -0.9231
 6505TIP3   OH219478   5.325   6.831   0.036  0.3401  0.0673 -0.3892
 6505TIP3    H119479   5.344   6.793  -0.050  0.7657  0.1058 -0.3173
 6505TIP3    H219480   5.327   6.757   0.096  2.2610  0.3258 -0.0835
 6506TIP3   OH219481   3.548   0.500   3.027 -0.0036 -0.2203 -0.2476
 6506TIP3    H119482   3.455   0.526   3.026  0.1028  0.4058  1.4847
 6506TIP3    H219483   3.596   0.582   3.012  0.2696 -0.4048 -0.3822
 6507TIP3   OH219484   4.592   0.940   1.597 -0.2985  0.1728 -0.3030
 6507TIP3    H119485   4.525   0.946   1.529 -1.3455 -0.2758  0.6520
 6507TIP3    H219486   4.548   0.969   1.677  0.9981  1.0235  0.1470
 6508TIP3   OH219487   3.709   6.579   2.447  0.2695 -0.6335  0.3698
 6508TIP3    H119488   3.733   6.567   2.355 -0.0257  2.0362 -0.1231
 6508TIP3    H219489   3.613   6.576   2.446  0.1965  1.0208  0.2819
 6509TIP3   OH219490   6.783   4.420   0.713 -0.1620  0.2804  0.3452
 6509TIP3    H119491   6.864   4.435   0.763 -0.2931  0.1906  0.5876
 6509TIP3    H219492   6.791   4.477   0.637  0.1516  0.2388  0.3449
 6510TIP3   OH219493   7.241   1.880   1.351  0.6017 -0.3013  0.3500
 6510TIP3    H119494   7.183   1.945   1.391  1.3525  0.7552 -0.2242
 6510TIP3    H219495   7.191   1.846   1.277  0.1003 -0.5776  0.8100
 6511TIP3   OH219496   1.015   0.258   0.189  0.0717 -0.7002  0.6542
 6511TIP3    H119497   1.105   0.289   0.196  0.4624 -1.4673 -0.5826
 6511TIP3    H219498   1.013   0.175   0.237  0.2032 -0.9976  0.1588
 6512TIP3   OH219499   2.841   5.862   3.927 -0.2750 -0.3074  0.2040
 6512TIP3    H119500   2.751   5.895   3.939  0.0032  1.1786 -1.3891
 6512TIP3    H219501   2.893   5.940   3.913  1.0773 -1.2458 -0.1629
 6513TIP3   OH219502   2.805   6.668   2.253  0.3945 -0.0993 -0.6385
 6513TIP3    H119503   2.795   6.762   2.239  0.5946 -0.2982 -2.2342
 6513TIP3    H219504   2.765   6.627   2.177  0.6342 -1.3109 -0.1443
 6514TIP3   OH219505   5.841   0.275   2.104 -0.1386  0.4865  0.4291
 6514TIP3    H119506   5.863   0.322   2.024  1.4730  0.5107  0.8458
 6514TIP3    H219507   5.801   0.194   2.075  0.8440  0.2911 -0.4194
 6515TIP3   OH219508   2.522   5.405   2.149 -0.7790 -0.0026  0.2281
 6515TIP3    H119509   2.482   5.484   2.185  0.1940  1.0599 -0.9050
 6515TIP3    H219510   2.471   5.386   2.070 -0.9267 -0.4496  0.4234
 6516TIP3   OH219511   5.873   5.551   0.603  0.1044  0.0618 -0.0279
 6516TIP3    H119512   5.906   5.477   0.551 -2.4872 -0.1972 -1.4702
 6516TIP3    H219513   5.882   5.627   0.545 -1.3313  0.0448 -0.3214
 6517TIP3   OH219514   5.774   3.911   0.980  0.4020 -0.2966 -0.0238
 6517TIP3    H119515   5.717   3.988   0.978  1.0404  0.1679 -0.7409
 6517TIP3    H219516   5.862   3.946   0.968  0.8429 -1.0168  1.0269
 6518TIP3   OH219517   0.988   1.245   1.683 -0.1039  0.1101 -0.4696
 6518TIP3    H119518   1.034   1.266   1.602  1.8893 -0.0447  0.5569
 6518TIP3    H219519   1.043   1.179   1.726 -1.7998 -0.8222  0.4120
 6519TIP3   OH219520   6.912   2.814   3.860  0.2234 -0.2410  0.2858
 6519TIP3    H119521   6.872   2.897   3.834 -3.2415 -1.3618  1.4910
 6519TIP3    H219522   6.943   2.829   3.949 -0.7524 -0.3119  0.6474
 6520TIP3   OH219523   4.972   4.475   1.373  0.0465 -0.0512  0.0364
 6520TIP3    H119524   5.065   4.455   1.363 -0.4871 -2.3725 -0.8140
 6520TIP3    H219525   4.963   4.500   1.465  1.4387 -0.2082  0.2324
 6521TIP3   OH219526   4.479   2.645   1.655 -0.4639  0.0916  0.2081
 6521TIP3    H119527   4.413   2.581   1.627 -0.8623  0.6793 -0.2288
 6521TIP3    H219528   4.441   2.685   1.734 -0.2921 -0.0954  0.3846
 6522TIP3   OH219529   3.310   0.576   2.372  0.5772  0.0529  0.0520
 6522TIP3    H119530   3.221   0.562   2.339  0.6461 -0.8150  0.2076
 6522TIP3    H219531   3.299   0.639   2.444  0.1586  0.3586 -0.2785
 6523TIP3   OH219532   5.011   3.599   2.618 -0.3272  0.0102 -0.0252
 6523TIP3    H119533   5.077   3.536   2.588 -1.3485 -0.6399 -0.9803
 6523TIP3    H219534   5.020   3.673   2.558  0.4957  0.5679  0.7539
 6524TIP3   OH219535   2.480   1.549   2.497 -0.7455 -0.3077  0.1647
 6524TIP3    H119536   2.505   1.620   2.438 -0.5394 -1.0904 -0.7058
 6524TIP3    H219537   2.414   1.499   2.449 -0.5580 -0.9753  0.5911
 6525TIP3   OH219538   3.146   3.243   5.861 -0.4761  0.2619 -0.3344
 6525TIP3    H119539   3.188   3.326   5.837 -1.4540  1.3154  1.3402
 6525TIP3    H219540   3.080   3.229   5.793 -0.2268  0.8133 -0.6996
 6526TIP3   OH219541   1.707   1.440   0.791 -0.0449  0.4695 -0.1513
 6526TIP3    H119542   1.766   1.412   0.862 -0.8666  0.5437  0.5839
 6526TIP3    H219543   1.641   1.372   0.787 -0.5759  0.9802 -0.1504
 6527TIP3   OH219544   1.907   5.673   3.983  0.2029  0.6898  0.0679
 6527TIP3    H119545   1.894   5.629   4.067  1.1202  2.4483  1.1928
 6527TIP3    H219546   1.998   5.657   3.960 -0.5993 -1.7687 -1.8763
 6528TIP3   OH219547   6.679   1.854   5.779 -0.0643  0.0133  0.3766
 6528TIP3    H119548   6.642   1.832   5.865 -1.5004  0.1748 -0.1781
 6528TIP3    H219549   6.683   1.950   5.779 -1.0814  0.0663 -0.1280
 6529TIP3   OH219550   0.919   6.052   1.460  0.1455  0.0196 -0.2757
 6529TIP3    H119551   0.940   6.008   1.377  0.1034  0.5870 -0.5942
 6529TIP3    H219552   0.951   5.992   1.527 -0.1392 -0.6141 -0.6948
 6530TIP3   OH219553   4.932   4.725   5.538 -0.6518  0.4696  0.0541
 6530TIP3    H119554   4.964   4.778   5.465  0.2070  1.4373  1.0873
 6530TIP3    H219555   4.912   4.789   5.607 -0.3552 -0.4957  1.0657
 6531TIP3   OH219556   6.846   1.085   1.546 -0.5567 -0.4883 -0.4354
 6531TIP3    H119557   6.771   1.135   1.514 -0.3454 -0.6391 -1.1872
 6531TIP3    H219558   6.897   1.066   1.467  0.5715  0.0990  0.1318
 6532TIP3   OH219559   4.811   3.999   3.012  0.2918  0.4208  0.0686
 6532TIP3    H119560   4.869   4.034   2.945 -0.0900 -0.4186 -0.7201
 6532TIP3    H219561   4.766   4.076   3.048  1.9913  1.1083  0.8242
 6533TIP3   OH219562   5.522   1.629   2.245  0.1910 -0.4166 -0.0789
 6533TIP3    H119563   5.565   1.578   2.314  2.1568 -0.9694 -1.6266
 6533TIP3    H219564   5.470   1.694   2.292 -0.5355 -2.3386  1.9368
 6534TIP3   OH219565   6.159   0.016   0.057 -0.2224 -0.5155  0.1537
 6534TIP3    H119566   6.115  -0.010   0.138 -0.3625 -1.3034 -0.1663
 6534TIP3    H219567   6.252   0.025   0.081 -0.2051 -1.1228  0.3197
 6535TIP3   OH219568   4.165   5.600   2.894  0.0936 -0.9704 -0.4136
 6535TIP3    H119569   4.212   5.626   2.814  0.5637  3.3812  0.9987
 6535TIP3    H219570   4.073   5.607   2.871  0.2117  1.2519 -0.4568
 6536TIP3   OH219571   5.660   0.252   0.945  0.0959  0.2475  0.8063
 6536TIP3    H119572   5.615   0.313   1.003 -0.0826 -0.5278  1.5049
 6536TIP3    H219573   5.604   0.246   0.868  0.3287  1.2771  0.5425
 6537TIP3   OH219574   2.843   3.645   3.928 -0.8631  0.3184 -0.4789
 6537TIP3    H119575   2.833   3.689   3.843  0.4835 -0.5123 -1.1055
 6537TIP3    H219576   2.928   3.601   3.922 -0.4736  0.7203  1.5485
 6538TIP3   OH219577   4.040   5.024   3.787  0.4837 -0.2626 -0.1328
 6538TIP3    H119578   4.028   5.026   3.692  1.3679 -0.3385 -0.2486
 6538TIP3    H219579   4.002   5.107   3.816 -2.1014 -1.3228 -0.2449
 6539TIP3   OH219580   5.764   3.910   5.500  0.1902 -0.6444 -0.0868
 6539TIP3    H119581   5.741   3.855   5.574  2.0656  0.1131  1.1371
 6539TIP3    H219582   5.783   3.996   5.538 -1.2196  0.4965 -1.7725
 6540TIP3   OH219583   6.848   1.279   1.078  0.1268 -0.4567 -0.2988
 6540TIP3    H119584   6.756   1.295   1.055 -0.1012  0.2379  0.9428
 6540TIP3    H219585   6.895   1.355   1.044 -0.3548  1.0809  2.1340
 6541TIP3   OH219586   3.878   0.915   2.778  0.0374 -0.0743 -0.1227
 6541TIP3    H119587   3.830   0.962   2.846 -1.6135 -1.8535  0.0332
 6541TIP3    H219588   3.968   0.908   2.812 -0.2461  0.9112  0.8791
 6542TIP3   OH219589   4.887   1.169   3.397  0.6137  0.2571  0.8858
 6542TIP3    H119590   4.835   1.247   3.417  0.4175 -0.0642  1.6567
 6542TIP3    H219591   4.949   1.162   3.470 -0.2990 -1.0941  1.5810
 6543TIP3   OH219592   5.358   4.927   4.086 -0.5444  0.2306  0.3692
 6543TIP3    H119593   5.422   4.873   4.131 -1.6252 -0.8935  0.6187
 6543TIP3    H219594   5.396   5.015   4.086  2.8130 -0.9478 -2.9164
 6544TIP3   OH219595   0.679   0.403   2.859  0.5778  0.1003  0.0691
 6544TIP3    H119596   0.615   0.364   2.919 -1.1201  1.5625 -0.6953
 6544TIP3    H219597   0.762   0.361   2.882 -0.6817 -2.1013  0.9169
 6545TIP3   OH219598   5.938   4.681   0.590  0.1722  0.7426  0.0647
 6545TIP3    H119599   5.974   4.596   0.566 -0.9175  0.5087 -0.7740
 6545TIP3    H219600   5.894   4.713   0.511 -2.9315  0.2511  1.4305
 6546TIP3   OH219601   2.421   4.330   4.111  0.0619  0.0886 -0.3032
 6546TIP3    H119602   2.410   4.357   4.202 -1.2230  2.0183 -0.9465
 6546TIP3    H219603   2.411   4.235   4.112  0.3431  0.0369  1.5796
 6547TIP3   OH219604   6.510   6.293   5.453 -0.0851  0.1357 -0.2631
 6547TIP3    H119605   6.504   6.383   5.483 -0.3164  0.3499 -0.9384
 6547TIP3    H219606   6.429   6.278   5.404  0.1186 -0.3148 -0.4715
 6548TIP3   OH219607   3.877   3.557   2.215 -0.0939 -0.0893  0.2963
 6548TIP3    H119608   3.863   3.464   2.199  0.9568 -0.0292 -1.1554
 6548TIP3    H219609   3.819   3.601   2.153  1.4404  0.1630 -1.0523
 6549TIP3   OH219610   3.279   6.469   3.517  0.3173  0.3552 -0.2350
 6549TIP3    H119611   3.231   6.429   3.444  0.8883  0.0256 -0.4363
 6549TIP3    H219612   3.311   6.552   3.482 -0.3234  0.6987 -0.0182
 6550TIP3   OH219613   3.971   6.775   1.016 -0.5133 -0.6439  0.7700
 6550TIP3    H119614   3.891   6.732   1.045 -0.0744 -1.8477  0.2663
 6550TIP3    H219615   4.027   6.777   1.094 -0.5280 -1.0364  0.7946
 6551TIP3   OH219616   1.893   3.604   2.497 -0.5918 -0.4259 -0.0852
 6551TIP3    H119617   1.842   3.547   2.555 -1.1025  0.1134  0.0048
 6551TIP3    H219618   1.974   3.620   2.546  0.4549 -2.6722 -0.9524
 6552TIP3   OH219619   4.740   3.949   4.931  0.3292  0.0552 -0.2278
 6552TIP3    H119620   4.822   3.906   4.952 -0.0597  0.2464  1.8653
 6552TIP3    H219621   4.714   3.993   5.012 -0.2238  2.7249 -1.7273
 6553TIP3   OH219622   7.065   4.057   2.226  0.2221  0.3532  0.2797
 6553TIP3    H119623   6.971   4.069   2.236 -0.5400 -2.1108 -2.3979
 6553TIP3    H219624   7.081   3.967   2.254  1.0099 -0.5093 -2.5280
 6554TIP3   OH219625   4.766   6.735  -0.007 -0.1406  0.3010  0.3833
 6554TIP3    H119626   4.843   6.740   0.049 -0.1378  0.6684  0.3538
 6554TIP3    H219627   4.754   6.642  -0.024  0.1717  0.2272  0.5603
 6555TIP3   OH219628   0.261   2.711   3.829 -0.2740 -0.0896  0.5414
 6555TIP3    H119629   0.328   2.718   3.896 -0.1682 -2.8800  0.8502
 6555TIP3    H219630   0.283   2.630   3.782 -2.8552 -0.5944  0.0477
 6556TIP3   OH219631   5.422   0.769   3.714 -0.2713  0.3140  0.1977
 6556TIP3    H119632   5.363   0.791   3.642 -2.7101  1.7063  2.4241
 6556TIP3    H219633   5.376   0.701   3.763  0.9349 -0.0157  0.9313
 6557TIP3   OH219634   4.526   5.759   2.038  0.1024 -0.6123  0.0381
 6557TIP3    H119635   4.605   5.746   2.090 -0.7459  1.5935  2.0616
 6557TIP3    H219636   4.558   5.776   1.949  1.7660 -1.6687  0.3989
 6558TIP3   OH219637   7.161   4.776   4.401  0.2175  0.4332 -0.4280
 6558TIP3    H119638   7.197   4.765   4.313 -1.5291  1.3394 -1.2945
 6558TIP3    H219639   7.101   4.703   4.412  0.7261  0.0943  0.2036
 6559TIP3   OH219640   1.967   0.612   2.587  0.3999  0.1287  0.5158
 6559TIP3    H119641   1.895   0.674   2.577  1.8161  2.1173  1.7150
 6559TIP3    H219642   2.007   0.607   2.500 -0.5960 -0.2418  0.0727
 6560TIP3   OH219643   1.295   1.906   4.039 -0.4514  0.4235  0.1005
 6560TIP3    H119644   1.255   1.939   3.958  0.7837 -0.4956 -0.9351
 6560TIP3    H219645   1.247   1.826   4.059  1.0299 -0.8992 -1.3681
 6561TIP3   OH219646   7.128   0.379   0.613  0.1376  0.0277  0.1843
 6561TIP3    H119647   7.040   0.401   0.641 -0.5170 -2.4127  0.2012
 6561TIP3    H219648   7.185   0.424   0.675 -1.1724 -1.2303  2.4328
 6562TIP3   OH219649   2.812   1.140   4.274 -0.3205 -0.3222  0.1463
 6562TIP3    H119650   2.871   1.082   4.226 -1.2136 -2.4746  1.5309
 6562TIP3    H219651   2.741   1.159   4.212 -0.5514 -1.6134 -0.0079
 6563TIP3   OH219652   2.539   3.580   4.269 -0.4664  0.1162 -0.1286
 6563TIP3    H119653   2.533   3.593   4.364 -0.1792  0.2499 -0.1278
 6563TIP3    H219654   2.542   3.484   4.259  3.5225  0.0130  0.2971
 6564TIP3   OH219655   6.670   4.245   0.354 -0.0515 -0.7064  0.6191
 6564TIP3    H119656   6.636   4.316   0.408  2.8740  0.8629  0.6088
 6564TIP3    H219657   6.612   4.171   0.371 -2.2498  1.2032  1.8953
 6565TIP3   OH219658   3.241   4.146   3.214 -0.2066 -0.2406 -0.2411
 6565TIP3    H119659   3.210   4.137   3.304  0.0171  1.4276  0.0346
 6565TIP3    H219660   3.164   4.128   3.161 -0.0303 -2.6221  0.1766
 6566TIP3   OH219661   5.537   3.429   5.031  0.2653  0.2505  0.1380
 6566TIP3    H119662   5.609   3.488   5.056  0.1568  0.8953 -0.9875
 6566TIP3    H219663   5.573   3.376   4.961 -0.1550  0.1108  0.0249
 6567TIP3   OH219664   0.178   2.126   0.664  0.2247  0.0205 -0.6410
 6567TIP3    H119665   0.256   2.169   0.700 -1.1347  2.3927 -0.2736
 6567TIP3    H219666   0.194   2.122   0.569 -0.1596  2.8664 -0.9168
 6568TIP3   OH219667   2.484   6.037   4.461  0.6247  0.1051  0.4421
 6568TIP3    H119668   2.524   5.968   4.408 -0.0629  1.1787 -1.6055
 6568TIP3    H219669   2.553   6.064   4.522  1.8760 -0.3952 -0.6985
 6569TIP3   OH219670   2.011   3.169   1.985 -0.5660 -0.1076 -0.1194
 6569TIP3    H119671   1.951   3.244   1.987  0.4214  0.7502 -1.4132
 6569TIP3    H219672   2.056   3.177   1.902 -0.0345 -1.8487 -0.0246
 6570TIP3   OH219673   5.088   3.971   1.314  0.2969  0.0491 -0.5461
 6570TIP3    H119674   5.097   3.974   1.219 -0.9356  1.9043 -0.6656
 6570TIP3    H219675   5.177   3.980   1.347  0.8024 -1.2220 -1.5042
 6571TIP3   OH219676   4.170   1.680   0.945 -0.0018  0.1628 -0.4371
 6571TIP3    H119677   4.251   1.692   0.994 -1.7665 -1.0073  3.0690
 6571TIP3    H219678   4.172   1.588   0.919 -0.9243 -0.3871  1.2788
 6572TIP3   OH219679   3.164   0.107   2.768  0.2824  0.8780  0.2630
 6572TIP3    H119680   3.092   0.092   2.706  0.2874  1.4200  0.1203
 6572TIP3    H219681   3.233   0.148   2.716  0.7614  0.2124  0.3665
 6573TIP3   OH219682   2.681   2.207   5.065 -0.0631  0.0928 -0.0695
 6573TIP3    H119683   2.774   2.206   5.088 -0.2424  2.2421  1.0473
 6573TIP3    H219684   2.637   2.233   5.147 -1.4498  0.8650 -1.0220
 6574TIP3   OH219685   3.036   4.478   0.097 -0.8505  0.0920 -0.4671
 6574TIP3    H119686   3.092   4.423   0.150 -1.2734  0.0857 -0.0189
 6574TIP3    H219687   2.980   4.417   0.049  0.9870 -0.0178 -2.6378
 6575TIP3   OH219688   6.537   3.297   4.595 -0.2121 -0.9092 -0.2512
 6575TIP3    H119689   6.532   3.371   4.655  4.9147 -1.6055  1.5669
 6575TIP3    H219690   6.553   3.335   4.509 -0.7010  0.0787  0.0869
 6576TIP3   OH219691   5.368   5.936   1.103 -0.4835  0.3195  0.6169
 6576TIP3    H119692   5.358   6.023   1.065 -0.8071  0.7848  1.7323
 6576TIP3    H219693   5.447   5.942   1.157 -0.8510  0.1130  1.1880
 6577TIP3   OH219694   6.888   4.337   2.169  0.0195  0.0763 -0.2710
 6577TIP3    H119695   6.888   4.426   2.133 -0.0138  1.1178  2.0882
 6577TIP3    H219696   6.861   4.349   2.260  1.4764 -2.1838  0.5307
 6578TIP3   OH219697   2.168   6.062   3.346 -0.4939 -0.0972 -0.0335
 6578TIP3    H119698   2.242   6.014   3.384 -0.5798  0.4000  0.7982
 6578TIP3    H219699   2.203   6.098   3.265  0.0135 -0.3398  0.0676
 6579TIP3   OH219700   0.372   1.538   1.329 -0.6645  0.1081 -0.1919
 6579TIP3    H119701   0.404   1.591   1.256 -0.4944 -0.8713 -0.8394
 6579TIP3    H219702   0.444   1.478   1.349 -1.1389 -0.3876  0.0447
 6580TIP3   OH219703   3.061   5.867   0.423 -0.0365  0.0441 -0.3376
 6580TIP3    H119704   3.088   5.854   0.332  1.0296 -1.6096  0.1623
 6580TIP3    H219705   3.053   5.778   0.458 -1.1282  0.6335  1.0089
 6581TIP3   OH219706   5.710   3.025   1.824  0.1185 -0.3778 -0.8111
 6581TIP3    H119707   5.806   3.017   1.819  0.0064 -1.4548 -1.9147
 6581TIP3    H219708   5.681   3.011   1.734 -1.0530  0.5335 -0.5937
 6582TIP3   OH219709   0.778   0.532   2.048 -0.3190 -0.6133 -0.6298
 6582TIP3    H119710   0.687   0.562   2.047 -0.9588 -2.4272 -0.1272
 6582TIP3    H219711   0.819   0.582   2.119 -0.5475  1.1443 -1.6808
 6583TIP3   OH219712   6.595   4.918   3.790 -0.3680 -0.5206  0.0187
 6583TIP3    H119713   6.621   4.906   3.699  1.3040 -0.1190  0.4111
 6583TIP3    H219714   6.640   4.848   3.837 -2.8810 -2.0652  0.3266
 6584TIP3   OH219715   5.996   0.520   0.413  0.6343 -0.3470 -0.4131
 6584TIP3    H119716   6.050   0.593   0.443 -0.7975  0.2707  0.7579
 6584TIP3    H219717   5.952   0.553   0.335 -0.1273  0.1134  0.2014
 6585TIP3   OH219718   1.798   4.421   5.068  0.1211 -0.1962  0.3577
 6585TIP3    H119719   1.860   4.492   5.087  0.7697 -0.2801 -1.2768
 6585TIP3    H219720   1.852   4.354   5.026 -1.1566 -0.0776 -1.5507
 6586TIP3   OH219721   1.210   5.658   1.633 -0.1047 -0.2761 -0.6001
 6586TIP3    H119722   1.208   5.640   1.539 -0.5113  0.3135 -0.7083
 6586TIP3    H219723   1.295   5.698   1.648 -0.1493 -0.1165 -0.7668
 6587TIP3   OH219724   6.422   3.788   3.095 -0.8284 -0.5157 -0.5649
 6587TIP3    H119725   6.401   3.876   3.062  0.3392 -0.3743 -0.9560
 6587TIP3    H219726   6.339   3.741   3.088 -0.7571 -0.4287 -3.5027
 6588TIP3   OH219727   0.880   2.837   1.798  0.1071 -0.4123 -0.6051
 6588TIP3    H119728   0.790   2.821   1.769  0.0837  0.1690 -0.8760
 6588TIP3    H219729   0.888   2.787   1.879  0.1557 -2.0103 -1.5567
 6589TIP3   OH219730   6.081   1.333   3.453 -0.5865  0.7481  0.1206
 6589TIP3    H119731   6.123   1.285   3.382  0.0851  2.6126 -0.8174
 6589TIP3    H219732   6.012   1.275   3.484 -0.2647 -0.5131 -1.3908
 6590TIP3   OH219733   0.993   1.129   4.876  0.2992  0.4112  0.1364
 6590TIP3    H119734   0.989   1.069   4.950  1.8866  0.6662  0.4499
 6590TIP3    H219735   0.952   1.209   4.908  0.6862  0.4138  0.6324
 6591TIP3   OH219736   2.265   3.167   4.387 -0.4309  0.2643  1.1475
 6591TIP3    H119737   2.260   3.079   4.350 -0.2312  0.0162  1.7135
 6591TIP3    H219738   2.327   3.213   4.330 -2.0204  0.6441 -0.3541
 6592TIP3   OH219739   0.028   2.886   5.533  0.0569 -0.2534 -0.4319
 6592TIP3    H119740   0.000   2.839   5.612  1.8790 -1.1618 -0.2780
 6592TIP3    H219741   0.004   2.828   5.461  1.4655 -1.0347 -0.2998
 6593TIP3   OH219742   0.025   5.332   1.981 -0.0258 -0.4551  0.4360
 6593TIP3    H119743   0.116   5.307   1.995 -0.1854 -0.8730  0.7746
 6593TIP3    H219744  -0.024   5.275   2.040 -0.5551 -0.6683 -0.2008
 6594TIP3   OH219745   0.956   0.593   5.819 -0.1220  0.1320  0.2731
 6594TIP3    H119746   1.017   0.620   5.750 -0.4713  0.7022  0.1809
 6594TIP3    H219747   0.899   0.528   5.776  0.0404  0.0447  0.1899
 6595TIP3   OH219748   4.446   0.564   0.184  0.1052 -0.5779  0.3655
 6595TIP3    H119749   4.380   0.496   0.173 -0.8064  0.3660 -0.1553
 6595TIP3    H219750   4.463   0.566   0.278 -4.9556  2.9759  1.6958
 6596TIP3   OH219751   5.864   1.524   4.707 -0.5258 -0.0025 -0.1602
 6596TIP3    H119752   5.916   1.571   4.643  0.5976 -1.6338 -0.5205
 6596TIP3    H219753   5.850   1.437   4.668 -0.2488 -0.8730  1.5582
 6597TIP3   OH219754   4.042   1.917   2.682  0.2456 -0.7073  0.4067
 6597TIP3    H119755   4.002   1.891   2.765  0.0048 -1.2993  0.1047
 6597TIP3    H219756   4.034   1.841   2.626 -0.4363 -0.0043 -0.4815
 6598TIP3   OH219757   6.880   0.637   1.721  0.2234  0.5048 -0.8353
 6598TIP3    H119758   6.821   0.603   1.653 -1.3126  1.4022 -0.0186
 6598TIP3    H219759   6.846   0.725   1.739  0.8619  0.4393  0.7779
 6599TIP3   OH219760   7.220   3.965   3.024  0.3090 -0.2325  0.5057
 6599TIP3    H119761   7.169   3.956   3.105  0.0479 -0.4972  0.3154
 6599TIP3    H219762   7.183   4.042   2.981  0.1676 -0.3339  0.4426
 6600TIP3   OH219763   2.689   2.615   2.704 -0.0370 -0.2596 -0.1375
 6600TIP3    H119764   2.742   2.536   2.714 -0.3914 -0.3862  0.9774
 6600TIP3    H219765   2.719   2.655   2.623  0.7497 -1.0837 -0.2671
 6601TIP3   OH219766   2.014   0.771   0.835 -0.4870 -0.2514  0.1102
 6601TIP3    H119767   1.933   0.758   0.885 -0.2024 -0.9075  0.4210
 6601TIP3    H219768   2.036   0.683   0.804 -0.4033  0.0727 -0.7797
 6602TIP3   OH219769   3.862   6.761   0.765 -0.4620 -0.0607 -0.2899
 6602TIP3    H119770   3.828   6.850   0.760  0.3463  0.2475 -0.3798
 6602TIP3    H219771   3.863   6.740   0.859 -0.3190  0.1612 -0.2418
 6603TIP3   OH219772   6.234   4.102   1.082 -0.1829 -0.5140  0.6403
 6603TIP3    H119773   6.310   4.159   1.091  1.0070 -1.9715  0.2572
 6603TIP3    H219774   6.250   4.030   1.143 -0.4669 -1.6429 -0.5671
 6604TIP3   OH219775   6.078   4.986   3.028 -0.3378  0.3694 -0.4773
 6604TIP3    H119776   6.094   4.917   3.092 -0.2162  0.6033 -0.2575
 6604TIP3    H219777   6.143   5.052   3.047 -0.3669  0.4867 -0.7774
 6605TIP3   OH219778   6.995   0.447   3.060 -0.1453  0.4597 -0.5838
 6605TIP3    H119779   6.923   0.388   3.037 -0.7897  0.2501  1.7035
 6605TIP3    H219780   7.070   0.390   3.072  0.0581  0.5105 -1.5372
 6606TIP3   OH219781   1.125   4.010   1.668 -0.1741 -0.3993  0.0832
 6606TIP3    H119782   1.203   3.987   1.616 -0.9202 -0.6312 -0.9623
 6606TIP3    H219783   1.053   4.011   1.605 -0.9231  0.4692  0.9134
 6607TIP3   OH219784   3.127   1.259   2.802 -0.2009 -0.0908  0.1158
 6607TIP3    H119785   3.041   1.268   2.844  0.3432  0.4436  1.1811
 6607TIP3    H219786   3.186   1.304   2.862  1.0947 -1.9261  0.3058
 6608TIP3   OH219787   0.207   5.070   2.268  0.1350 -0.8097  0.2977
 6608TIP3    H119788   0.293   5.113   2.272  0.0422 -0.5943 -0.0367
 6608TIP3    H219789   0.224   4.988   2.223  0.0633 -0.5180 -0.2614
 6609TIP3   OH219790   1.623   2.673   4.522  0.2836 -0.7044 -0.2543
 6609TIP3    H119791   1.643   2.629   4.605  1.2051 -1.8184 -1.0267
 6609TIP3    H219792   1.704   2.717   4.498  0.3557 -1.2395 -1.0476
 6610TIP3   OH219793   2.770   3.071   1.046 -0.1005 -0.0125  0.2077
 6610TIP3    H119794   2.851   3.022   1.031  1.1178  1.5874  1.2694
 6610TIP3    H219795   2.701   3.013   1.013  1.3146 -2.0678  0.6564
 6611TIP3   OH219796   2.913   0.992   1.564  0.0882  0.0691  0.2075
 6611TIP3    H119797   2.937   1.030   1.479  1.8047  0.8048  0.9766
 6611TIP3    H219798   2.972   0.916   1.573 -1.1070 -0.8945  0.1134
 6612TIP3   OH219799   3.473   2.359   4.733  0.1404  0.3793  0.4377
 6612TIP3    H119800   3.471   2.418   4.808  2.5868  1.3897 -0.2050
 6612TIP3    H219801   3.497   2.414   4.659  0.3340 -1.0505 -0.6103
 6613TIP3   OH219802   4.795   0.463   2.768  0.2713  0.0003  0.5240
 6613TIP3    H119803   4.803   0.440   2.860 -0.3477 -2.2181  0.0987
 6613TIP3    H219804   4.885   0.463   2.735  0.3882 -0.6119  0.8364
 6614TIP3   OH219805   4.217   4.102   2.476  0.1619  0.2769  0.0029
 6614TIP3    H119806   4.134   4.149   2.477  0.0017  0.0150  1.4552
 6614TIP3    H219807   4.221   4.062   2.389 -1.6035 -0.3275  0.1597
 6615TIP3   OH219808   0.928   0.809   0.847  0.5049 -0.0363  0.3931
 6615TIP3    H119809   0.987   0.878   0.877  1.5888 -0.4116 -0.7730
 6615TIP3    H219810   0.845   0.854   0.831  1.5101  1.2840 -1.4796
 6616TIP3   OH219811   1.115   6.226   2.478  0.0073 -0.2924 -0.0962
 6616TIP3    H119812   1.204   6.259   2.472  0.2643 -0.6922  1.1725
 6616TIP3    H219813   1.076   6.274   2.551  0.3417 -2.5745  1.6922
 6617TIP3   OH219814   6.253   6.256   5.325 -0.2889  0.5338  0.0475
 6617TIP3    H119815   6.260   6.324   5.257  0.7277  0.4868  0.0915
 6617TIP3    H219816   6.182   6.199   5.294  0.5111  0.2096 -1.2566
 6618TIP3   OH219817   3.617   3.683   5.683 -0.3471  0.2585 -0.2909
 6618TIP3    H119818   3.693   3.730   5.718 -0.0554 -0.4604  0.0599
 6618TIP3    H219819   3.570   3.748   5.631  0.6571  0.6347 -0.7330
 6619TIP3   OH219820   0.977   5.653   3.038  0.0508 -0.0748 -0.3433
 6619TIP3    H119821   0.901   5.633   2.983  0.1866 -1.3855 -0.0805
 6619TIP3    H219822   0.943   5.712   3.105 -1.0876 -1.7076  0.5843
 6620TIP3   OH219823   1.475   1.330   0.972 -0.0947 -0.1921 -0.2769
 6620TIP3    H119824   1.437   1.257   0.924  1.0510 -1.3821  0.5539
 6620TIP3    H219825   1.456   1.310   1.064 -0.8006  1.1835 -0.1028
 6621TIP3   OH219826   4.550   0.485   1.257  0.3310 -0.0378  0.1095
 6621TIP3    H119827   4.581   0.458   1.170 -1.7831  1.5026 -1.2402
 6621TIP3    H219828   4.455   0.476   1.252  0.1173  0.7021  2.0689
 6622TIP3   OH219829   0.393   2.992   0.101  0.7419 -0.3591  0.4588
 6622TIP3    H119830   0.372   3.081   0.073 -0.7454 -1.0147 -0.7075
 6622TIP3    H219831   0.378   2.993   0.196 -0.7416  0.2899  0.2593
 6623TIP3   OH219832   3.802   2.813   4.399  0.2318 -0.0391 -0.3147
 6623TIP3    H119833   3.765   2.853   4.477  1.5623 -1.2037  0.9921
 6623TIP3    H219834   3.889   2.852   4.391  0.8021 -1.2302 -0.1276
 6624TIP3   OH219835   0.247   2.976   1.141  0.0630  0.1355  0.0186
 6624TIP3    H119836   0.322   2.984   1.082  0.6443  1.2946  0.8836
 6624TIP3    H219837   0.182   3.037   1.105  0.5235  1.0519  0.7137
 6625TIP3   OH219838   2.438   1.645   2.127 -0.1742 -0.2841 -0.7448
 6625TIP3    H119839   2.462   1.554   2.147  1.6786  0.4417  0.5515
 6625TIP3    H219840   2.426   1.646   2.032  4.1518 -1.0178 -1.4979
 6626TIP3   OH219841   1.776   3.037   5.232 -0.2993 -0.1825  0.0161
 6626TIP3    H119842   1.840   3.033   5.303  0.9423  0.8721 -0.9981
 6626TIP3    H219843   1.699   3.079   5.271  0.2073  0.0090  0.8337
 6627TIP3   OH219844   0.710   2.884   5.059 -0.1604  0.1392 -0.2323
 6627TIP3    H119845   0.768   2.939   5.006  1.2491 -0.3082  0.7703
 6627TIP3    H219846   0.675   2.820   4.997 -0.6651  1.2231 -1.1197
 6628TIP3   OH219847   4.855   3.122   0.521 -0.2599 -0.1361  0.5866
 6628TIP3    H119848   4.906   3.068   0.462 -0.0264  0.1907  0.4847
 6628TIP3    H219849   4.764   3.098   0.504 -0.1736 -0.2943  0.3475
 6629TIP3   OH219850   3.955   4.250   2.454 -0.3860 -0.0354 -0.5432
 6629TIP3    H119851   3.954   4.292   2.540  0.5650  0.7387 -0.8977
 6629TIP3    H219852   3.965   4.322   2.392  0.0059 -0.6746 -1.2373
 6630TIP3   OH219853   6.112   5.018   5.293  0.4958 -0.2857 -0.1521
 6630TIP3    H119854   6.107   5.104   5.337  0.1975  0.0912 -0.9129
 6630TIP3    H219855   6.191   5.024   5.239  0.0687 -0.2157 -0.7749
 6631TIP3   OH219856   0.813   1.887   5.075  0.2039  0.0431  0.1474
 6631TIP3    H119857   0.903   1.902   5.104  0.0230  0.4484  0.5065
 6631TIP3    H219858   0.764   1.962   5.108 -0.7321 -1.2747  1.9169
 6632TIP3   OH219859   6.165   6.117   0.878  0.0756  0.4765 -0.0874
 6632TIP3    H119860   6.138   6.126   0.970 -1.9340 -0.1591 -0.5471
 6632TIP3    H219861   6.082   6.119   0.829  1.1768  1.8322 -1.9912
 6633TIP3   OH219862   2.956   1.485   4.172  0.0441 -0.3818 -0.3440
 6633TIP3    H119863   3.017   1.514   4.104 -0.1472 -1.1424 -0.8493
 6633TIP3    H219864   2.869   1.490   4.130 -0.1207 -0.4472 -0.0142
 6634TIP3   OH219865   5.911   1.171   0.559 -0.2385 -0.2206  0.4521
 6634TIP3    H119866   5.969   1.246   0.548  0.5069 -0.9412 -0.7546
 6634TIP3    H219867   5.942   1.107   0.496 -1.5276 -1.1485  0.7127
 6635TIP3   OH219868   1.118   5.564   5.868 -0.4590  0.2042 -0.2478
 6635TIP3    H119869   1.069   5.594   5.791  1.2249  1.8041 -0.7802
 6635TIP3    H219870   1.206   5.599   5.855  0.0168  0.0778  2.1792
 6636TIP3   OH219871   1.692   4.783   1.287  0.8004  0.0307  0.0305
 6636TIP3    H119872   1.729   4.707   1.242 -0.0194  0.7116 -1.9327
 6636TIP3    H219873   1.671   4.844   1.216 -3.1911  0.0860  1.0349
 6637TIP3   OH219874   1.256   2.906   5.009 -0.2582 -0.3723 -0.6298
 6637TIP3    H119875   1.284   2.954   4.931  0.3152  0.2548 -0.0620
 6637TIP3    H219876   1.184   2.958   5.044 -0.2488 -0.4295 -0.5263
 6638TIP3   OH219877   0.295   5.009   3.477 -0.5601 -0.4620  0.1068
 6638TIP3    H119878   0.249   5.090   3.500 -0.3437 -0.5251  0.7977
 6638TIP3    H219879   0.385   5.023   3.507  0.1256  0.0097 -2.0447
 6639TIP3   OH219880   1.804   0.914   4.155 -0.6533  0.1730  0.3678
 6639TIP3    H119881   1.721   0.878   4.186 -1.2074  1.7719  0.7836
 6639TIP3    H219882   1.793   0.918   4.060  0.6841 -3.8011 -0.1422
 6640TIP3   OH219883   6.670   0.578   2.902 -0.8868 -0.5033  0.2511
 6640TIP3    H119884   6.652   0.488   2.928  0.3594 -0.7173  0.4230
 6640TIP3    H219885   6.587   0.623   2.913 -1.9319 -1.9450 -1.2580
 6641TIP3   OH219886   2.268   5.268   3.471  0.9571 -0.1994  0.1926
 6641TIP3    H119887   2.267   5.317   3.554 -0.7380 -0.2237  0.2018
 6641TIP3    H219888   2.285   5.336   3.405  0.6627  0.0804  0.3997
 6642TIP3   OH219889   6.606   6.222   5.846 -0.0785  0.2713 -0.2412
 6642TIP3    H119890   6.627   6.135   5.812  0.0595  0.8794 -1.7852
 6642TIP3    H219891   6.511   6.222   5.856 -0.5558  0.9827 -3.5170
 6643TIP3   OH219892   1.636   6.698   3.717 -0.0513  0.1250 -0.1038
 6643TIP3    H119893   1.663   6.612   3.749  0.7925  1.3545  2.7701
 6643TIP3    H219894   1.553   6.715   3.760 -1.4016 -0.1286 -2.4459
 6644TIP3   OH219895   5.620   5.266   3.798 -0.2338 -0.0968  0.0884
 6644TIP3    H119896   5.683   5.333   3.825 -2.3203  1.5941  1.0974
 6644TIP3    H219897   5.580   5.302   3.719  0.4438 -1.4243 -0.8824
 6645TIP3   OH219898   0.882   0.810   1.815 -0.8682 -0.1109  0.1817
 6645TIP3    H119899   0.799   0.767   1.797 -0.1552 -1.1659 -0.6859
 6645TIP3    H219900   0.897   0.795   1.908 -0.5696 -1.8766 -0.1312
 6646TIP3   OH219901   0.794   3.979   2.588 -1.1737 -0.0371  0.0730
 6646TIP3    H119902   0.830   3.981   2.677 -0.9838  1.6323 -0.0030
 6646TIP3    H219903   0.764   3.889   2.576  0.9319 -0.9136  0.9691
 6647TIP3   OH219904   1.112   5.134   5.795 -0.1285  0.0856 -0.1846
 6647TIP3    H119905   1.163   5.192   5.851 -1.1289  2.0504 -1.1926
 6647TIP3    H219906   1.161   5.131   5.713 -0.6434  0.4487 -0.5149
 6648TIP3   OH219907   0.836   0.768   5.414  0.0281 -0.0365 -0.5639
 6648TIP3    H119908   0.870   0.679   5.408  2.8546  0.8370  0.6243
 6648TIP3    H219909   0.788   0.770   5.497  1.5426 -0.0435  0.3527
 6649TIP3   OH219910   3.771   3.888   5.829  0.3006 -0.1491 -0.3999
 6649TIP3    H119911   3.856   3.858   5.862  0.1569 -1.3672 -1.0717
 6649TIP3    H219912   3.792   3.965   5.776  0.8575  0.1554  0.2444
 6650TIP3   OH219913   6.931   3.745   4.352  0.0370  0.6223 -0.1669
 6650TIP3    H119914   6.920   3.709   4.264 -1.1322 -1.8501  0.8933
 6650TIP3    H219915   7.017   3.715   4.380 -0.4714 -0.4235  0.3008
 6651TIP3   OH219916   1.573   2.559   3.852 -0.1547 -0.1865  0.2115
 6651TIP3    H119917   1.558   2.647   3.886  2.0053  0.5720 -0.6083
 6651TIP3    H219918   1.596   2.573   3.760 -0.5441 -1.6810 -0.1260
 6652TIP3   OH219919   6.499   3.917   5.376  0.1255  0.5266  0.0911
 6652TIP3    H119920   6.421   3.970   5.357  2.1338  4.7129  2.0078
 6652TIP3    H219921   6.554   3.928   5.298  0.6117  1.5117  0.5559
 6653TIP3   OH219922   7.024   1.510   4.133 -0.5260  0.0137  0.7223
 6653TIP3    H119923   6.934   1.493   4.107 -0.9785 -0.3970  2.5008
 6653TIP3    H219924   7.072   1.430   4.110 -0.7873 -0.1162  0.6328
 6654TIP3   OH219925   2.731   2.318   1.543  0.4049  0.8617 -0.4275
 6654TIP3    H119926   2.675   2.392   1.568 -0.3750 -0.3897  1.8283
 6654TIP3    H219927   2.673   2.242   1.547  1.3058  0.0118 -2.2319
 6655TIP3   OH219928   0.382   2.889   5.523 -0.2601  0.0427 -0.3084
 6655TIP3    H119929   0.356   2.888   5.431 -0.7714  0.0702 -0.1714
 6655TIP3    H219930   0.438   2.812   5.533 -0.7666 -0.3595 -0.4938
 6656TIP3   OH219931   5.669   3.904   2.345 -0.6596 -0.0941 -0.1790
 6656TIP3    H119932   5.657   3.886   2.252  1.6005  2.0604 -1.0231
 6656TIP3    H219933   5.742   3.848   2.372 -0.4008  0.2744 -0.0963
 6657TIP3   OH219934   3.055   5.275   5.302  0.8197 -0.6904  0.2442
 6657TIP3    H119935   3.064   5.247   5.211  0.8087 -2.7498  0.8189
 6657TIP3    H219936   3.098   5.206   5.353  2.6407  1.3943  1.7450
 6658TIP3   OH219937   1.229   3.999   2.373 -0.1642  0.6377 -0.4466
 6658TIP3    H119938   1.145   3.963   2.344 -0.5348  1.2497 -0.1368
 6658TIP3    H219939   1.253   4.062   2.305  0.1088  0.3734 -0.5978
 6659TIP3   OH219940   5.468   2.441   1.379  0.0740  0.7922  0.2840
 6659TIP3    H119941   5.380   2.452   1.417  0.0676  1.5211  0.0692
 6659TIP3    H219942   5.527   2.450   1.454 -0.0582 -0.4776  0.5640
 6660TIP3   OH219943   3.745   5.714   1.390  0.7357 -0.0621 -0.3661
 6660TIP3    H119944   3.724   5.710   1.297  0.1381 -1.4143 -0.2052
 6660TIP3    H219945   3.713   5.631   1.425  0.7803  0.4941  1.0810
 6661TIP3   OH219946   0.249   5.927   5.883 -0.3302  0.2953 -0.1255
 6661TIP3    H119947   0.285   5.848   5.842  2.0294  1.1711  0.1300
 6661TIP3    H219948   0.243   5.990   5.811  0.9305  0.8806  0.2543
 6662TIP3   OH219949   6.795   6.734   0.459  0.1017 -0.0004  0.6135
 6662TIP3    H119950   6.720   6.675   0.451  0.1619  0.0842 -0.7073
 6662TIP3    H219951   6.776   6.807   0.400  2.4391 -1.3185 -1.9797
 6663TIP3   OH219952   3.816   3.260   2.389  0.4156  0.8121  0.0329
 6663TIP3    H119953   3.783   3.172   2.408 -1.5491  1.5006  0.0790
 6663TIP3    H219954   3.752   3.319   2.429  0.4999  2.2828 -1.8434
 6664TIP3   OH219955   6.076   0.552   5.830  0.8407  0.5073 -0.3220
 6664TIP3    H119956   6.068   0.474   5.885 -0.2333  0.8206 -0.0095
 6664TIP3    H219957   6.169   0.574   5.833  1.0516 -0.4031  0.0802
 6665TIP3   OH219958   0.164   3.549   3.419  0.0189  0.0189  0.0425
 6665TIP3    H119959   0.122   3.577   3.500  1.1264  0.7882  0.3682
 6665TIP3    H219960   0.208   3.467   3.442 -0.3890 -0.2242 -0.0236
 6666TIP3   OH219961   6.267   6.189   1.770  0.0724 -0.0599 -0.3830
 6666TIP3    H119962   6.352   6.145   1.776 -0.5414 -1.1354  1.7420
 6666TIP3    H219963   6.286   6.281   1.789  0.9223 -0.0235 -1.3398
 6667TIP3   OH219964   1.861   2.811   4.540  0.3252  0.0323 -0.2374
 6667TIP3    H119965   1.838   2.893   4.585 -1.3519  0.6025 -1.9999
 6667TIP3    H219966   1.922   2.767   4.600 -0.8533  1.2823  1.9965
 6668TIP3   OH219967   1.711   4.219   5.747 -0.6211  0.1888 -0.3328
 6668TIP3    H119968   1.719   4.192   5.655  2.6146  0.9433 -0.3984
 6668TIP3    H219969   1.662   4.301   5.744 -1.8303 -0.5379 -1.2027
 6669TIP3   OH219970   3.163   0.358   4.304 -0.0152  0.1058 -0.2692
 6669TIP3    H119971   3.176   0.286   4.365  0.4838  1.0707  0.8019
 6669TIP3    H219972   3.252   0.389   4.285 -0.2644  1.1708  0.2099
 6670TIP3   OH219973   3.232   2.706   0.041 -0.1751  0.3562 -0.1054
 6670TIP3    H119974   3.252   2.612   0.048  0.7085  0.6052  1.2287
 6670TIP3    H219975   3.316   2.749   0.055 -0.9795  1.3803  2.0290
 6671TIP3   OH219976   4.814   2.084   1.528  0.6636 -0.6252 -0.0611
 6671TIP3    H119977   4.750   2.018   1.503 -0.0193 -0.3398  0.8914
 6671TIP3    H219978   4.775   2.167   1.501  1.1100 -0.5321 -0.4325
 6672TIP3   OH219979   2.916   6.353   1.562  0.3813  0.3580  0.7283
 6672TIP3    H119980   2.883   6.263   1.569 -1.4802  0.9661  0.3945
 6672TIP3    H219981   2.888   6.395   1.643  0.2707  0.9332  0.3945
 6673TIP3   OH219982   5.842   4.788   4.468  1.3974  0.6713 -0.2480
 6673TIP3    H119983   5.803   4.705   4.497  2.3434  0.1628 -0.4049
 6673TIP3    H219984   5.922   4.762   4.422  1.0700  1.5915 -1.3881
 6674TIP3   OH219985   0.373   2.627   2.540 -0.3964  0.0864  0.7314
 6674TIP3    H119986   0.458   2.613   2.498 -1.2144  0.4073 -1.1422
 6674TIP3    H219987   0.360   2.722   2.539 -0.8210  0.0349  0.8723
 6675TIP3   OH219988   3.147   1.666   0.097 -0.3004  0.0333 -0.3157
 6675TIP3    H119989   3.173   1.631   0.182 -1.4163 -0.3996 -0.1351
 6675TIP3    H219990   3.219   1.723   0.072 -0.0390  0.3169  1.0037
 6676TIP3   OH219991   1.640   5.090   0.701  0.2874  0.4513  0.1773
 6676TIP3    H119992   1.681   5.145   0.768  2.6458  2.3425 -2.6025
 6676TIP3    H219993   1.550   5.123   0.696  1.0157  2.6309  0.1335
 6677TIP3   OH219994   0.651   1.576   4.909  0.1598 -0.5556 -0.0069
 6677TIP3    H119995   0.561   1.580   4.877  0.3529 -1.0833 -0.6257
 6677TIP3    H219996   0.700   1.638   4.854  0.2332 -0.4847  0.1362
 6678TIP3   OH219997   2.314   0.964   4.347  0.8806  0.3352 -0.2411
 6678TIP3    H119998   2.238   0.969   4.289 -0.0612 -2.7438  0.5810
 6678TIP3    H219999   2.284   1.001   4.430  1.5144  2.5490 -0.9213
 6679TIP3   OH220000   0.200   5.525   0.206 -0.2151 -0.5108 -0.2094
 6679TIP3    H120001   0.135   5.460   0.180  0.2658 -1.2171  0.3212
 6679TIP3    H220002   0.175   5.549   0.295 -0.1410 -0.2845 -0.2491
 6680TIP3   OH220003   3.822   4.753   5.632  0.1721 -0.0667  0.3874
 6680TIP3    H120004   3.752   4.800   5.588 -0.8905 -0.4880  1.5705
 6680TIP3    H220005   3.902   4.789   5.595 -0.6518  1.0003 -0.4155
 6681TIP3   OH220006   1.254   4.235   2.088  0.5123 -0.3805  0.0981
 6681TIP3    H120007   1.243   4.327   2.112  3.3192  0.4537 -1.4567
 6681TIP3    H220008   1.342   4.229   2.050  0.6615 -3.8282  0.6064
 6682TIP3   OH220009   0.605   0.687   2.191  0.0646 -0.0458 -0.4833
 6682TIP3    H120010   0.611   0.684   2.287 -1.2036  0.4107 -0.3602
 6682TIP3    H220011   0.511   0.696   2.174  0.3496  0.8092 -1.7390
 6683TIP3   OH220012   5.050   6.440   4.890  0.0797  0.4568  0.4820
 6683TIP3    H120013   5.033   6.441   4.984  0.2580  2.2523  0.5268
 6683TIP3    H220014   5.129   6.493   4.879  0.6637 -0.5793 -0.5994
 6684TIP3   OH220015   1.917   1.459   4.773 -0.3567 -0.0194  0.0075
 6684TIP3    H120016   1.929   1.426   4.862 -0.5944  0.4753  0.2259
 6684TIP3    H220017   1.880   1.547   4.784  1.8773  1.0843 -0.4966
 6685TIP3   OH220018   3.183   0.445   3.936  0.0412  0.5622 -0.0538
 6685TIP3    H120019   3.163   0.448   4.029  0.1004  0.0754 -0.0230
 6685TIP3    H220020   3.268   0.401   3.931 -0.1719  0.1814 -0.3666
 6686TIP3   OH220021   4.285   5.214   3.556 -0.1317 -0.8399 -0.0706
 6686TIP3    H120022   4.242   5.185   3.637  1.2469 -0.4078  0.8447
 6686TIP3    H220023   4.325   5.134   3.520  0.1156 -0.8450  0.2145
 6687TIP3   OH220024   5.968   6.409   4.065 -0.0804 -0.0028 -0.3518
 6687TIP3    H120025   5.997   6.362   4.143 -1.6897 -0.1253  0.2256
 6687TIP3    H220026   5.960   6.500   4.094 -1.9872 -0.2516  0.0928
 6688TIP3   OH220027   5.323   1.319   2.751  0.1106 -1.0728 -0.0347
 6688TIP3    H120028   5.388   1.383   2.780 -0.1451 -0.6830 -0.3104
 6688TIP3    H220029   5.331   1.318   2.655  0.1850 -1.5307 -0.0255
 6689TIP3   OH220030   1.336   1.783   0.116 -0.2932 -0.0581  0.0704
 6689TIP3    H120031   1.295   1.837   0.048  1.2666  1.0786 -0.0239
 6689TIP3    H220032   1.340   1.695   0.077  1.8936  0.8409 -1.9920
 6690TIP3   OH220033   3.437   3.064   3.224 -0.6069 -0.3601  0.1082
 6690TIP3    H120034   3.471   3.042   3.311 -2.1761  3.5776  1.9701
 6690TIP3    H220035   3.490   3.138   3.196 -0.5506 -1.1776 -2.0869
 6691TIP3   OH220036   4.890   5.452   2.742  0.3070  0.3193  0.2643
 6691TIP3    H120037   4.932   5.409   2.816 -0.6754  0.1033  0.7143
 6691TIP3    H220038   4.866   5.381   2.683  2.1608  0.5809 -0.8616
 6692TIP3   OH220039   4.939   4.480   3.489  0.0564 -0.2412 -0.2090
 6692TIP3    H120040   4.927   4.572   3.512  0.3640 -0.6668  1.7730
 6692TIP3    H220041   5.029   4.460   3.514  0.1895 -0.9474 -1.1903
 6693TIP3   OH220042   0.537   2.427   3.932  0.0945 -0.3098 -0.7095
 6693TIP3    H120043   0.553   2.333   3.939  0.0022 -0.2693  0.0799
 6693TIP3    H220044   0.475   2.435   3.859 -0.7972 -0.9685 -0.0519
 6694TIP3   OH220045   7.114   0.230  -0.013 -0.4568 -0.1018  0.6580
 6694TIP3    H120046   7.159   0.272   0.061  0.2802 -0.6165  0.5118
 6694TIP3    H220047   7.117   0.137   0.007  1.9762 -0.5064 -1.1685
 6695TIP3   OH220048   0.953   1.086   4.599  0.3426 -0.0011  0.7603
 6695TIP3    H120049   1.023   1.088   4.533  1.0108 -2.4332  1.2893
 6695TIP3    H220050   0.988   1.135   4.673  1.0859 -0.3265  0.6331
 6696TIP3   OH220051   2.836   3.603   1.230  0.2543 -0.0191  0.0325
 6696TIP3    H120052   2.833   3.590   1.325 -0.4445 -0.4171 -0.0351
 6696TIP3    H220053   2.804   3.521   1.194 -1.1508  0.7238 -0.4899
 6697TIP3   OH220054   4.880   3.086   2.684  0.4451 -0.1732 -0.0422
 6697TIP3    H120055   4.828   3.156   2.724  0.8364  0.8501 -1.2458
 6697TIP3    H220056   4.873   3.101   2.590  1.4841 -1.0608 -0.2888
 6698TIP3   OH220057   6.288   0.164   4.443 -0.2430  0.2925 -0.3183
 6698TIP3    H120058   6.341   0.243   4.429  1.4776 -0.9566 -1.1453
 6698TIP3    H220059   6.198   0.193   4.427  0.4575  1.8386 -1.8099
 6699TIP3   OH220060   6.260   4.089   5.653 -0.1017  0.2135  0.0408
 6699TIP3    H120061   6.185   4.043   5.691 -1.8355  0.9360 -2.2951
 6699TIP3    H220062   6.325   4.090   5.723 -1.6151 -1.9178  1.6090
 6700TIP3   OH220063   6.628   5.793   5.483 -0.4298 -0.1119  0.3258
 6700TIP3    H120064   6.640   5.722   5.421  1.6668  1.0054 -0.6533
 6700TIP3    H220065   6.642   5.752   5.569  1.3713 -0.8206 -0.2514
 6701TIP3   OH220066   5.099   1.148   3.978  0.8664 -0.2613  0.2644
 6701TIP3    H120067   5.036   1.079   3.998  1.1637 -0.3347  1.0171
 6701TIP3    H220068   5.169   1.104   3.930  0.1733 -0.1013 -0.9223
 6702TIP3   OH220069   3.678   4.357   4.667 -0.4734 -0.0699 -0.4810
 6702TIP3    H120070   3.659   4.387   4.578  1.0521 -0.9707 -1.1378
 6702TIP3    H220071   3.769   4.329   4.665 -0.1513  0.6453  1.5980
 6703TIP3   OH220072   6.594   5.224   5.114  0.2752 -0.0585  0.0748
 6703TIP3    H120073   6.593   5.190   5.025 -0.6547  0.4769 -0.1334
 6703TIP3    H220074   6.569   5.316   5.105 -3.2775 -0.7322  1.1290
 6704TIP3   OH220075   4.755   2.237   2.085  0.3278  0.1447 -0.4375
 6704TIP3    H120076   4.738   2.166   2.024  2.4297  0.0178 -0.9610
 6704TIP3    H220077   4.706   2.311   2.050  1.1305 -0.0526 -2.0537
 6705TIP3   OH220078   5.685   4.594   2.023  0.5518  0.4937 -0.0425
 6705TIP3    H120079   5.612   4.634   2.070 -0.4943 -1.4966  0.1276
 6705TIP3    H220080   5.660   4.601   1.931  0.9049  1.1710 -0.0985
 6706TIP3   OH220081   0.485   1.044   3.937 -0.0990 -0.2102  0.5302
 6706TIP3    H120082   0.471   1.021   4.029 -1.7042  2.7813  1.1536
 6706TIP3    H220083   0.557   1.108   3.938 -0.0551 -0.2252 -0.3118
 6707TIP3   OH220084   6.881   3.279   5.423 -0.0740 -0.4870 -0.1430
 6707TIP3    H120085   6.970   3.314   5.431 -0.4758  0.3576  0.9555
 6707TIP3    H220086   6.888   3.187   5.449  0.3174 -0.1748  0.8677
 6708TIP3   OH220087   6.440   3.168   0.625 -0.6799 -0.2379 -0.3940
 6708TIP3    H120088   6.455   3.200   0.536  0.6738 -2.8830 -1.2424
 6708TIP3    H220089   6.357   3.120   0.619 -0.8927  0.0843 -0.0613
 6709TIP3   OH220090   2.839   5.691   4.389  0.4003  0.0811  0.2730
 6709TIP3    H120091   2.799   5.652   4.467 -1.9468  0.4634 -0.6688
 6709TIP3    H220092   2.879   5.618   4.343 -1.5891 -0.8295 -0.1011
 6710TIP3   OH220093   5.340   0.934   5.148  0.1356 -0.3754  0.1196
 6710TIP3    H120094   5.265   0.953   5.091  0.5225  1.4620  0.1610
 6710TIP3    H220095   5.310   0.960   5.236  0.1143 -1.6285  0.4986
 6711TIP3   OH220096   2.507   5.431   4.953  0.0066  0.0010  0.1254
 6711TIP3    H120097   2.536   5.483   4.878  1.7622 -1.9143 -0.6078
 6711TIP3    H220098   2.482   5.496   5.018  0.1964  1.7413 -1.4441
 6712TIP3   OH220099   3.923   0.056   4.714 -0.3197  0.0237 -0.2269
 6712TIP3    H120100   3.895  -0.019   4.766  0.8110  0.1184  0.5375
 6712TIP3    H220101   4.005   0.028   4.674  0.0282  0.7960 -0.0661
 6713TIP3   OH220102   3.865   5.288   1.689 -0.6732 -0.2752 -0.3990
 6713TIP3    H120103   3.792   5.232   1.661  0.4391 -1.5356 -0.8637
 6713TIP3    H220104   3.822   5.366   1.726 -2.2379 -0.1225 -2.3729
 6714TIP3   OH220105   4.236   5.604   0.688 -0.4645  0.6827 -0.1873
 6714TIP3    H120106   4.262   5.683   0.641  0.6713  1.2000  1.2193
 6714TIP3    H220107   4.181   5.635   0.760  0.0551  0.2204  0.4242
 6715TIP3   OH220108   7.009   3.557   2.836  0.2167 -0.5308  0.5113
 6715TIP3    H120109   6.992   3.627   2.900 -0.2659  0.7885 -0.9947
 6715TIP3    H220110   7.104   3.562   2.821  0.0563  0.4578 -0.2753
 6716TIP3   OH220111   6.715   0.838   5.684  0.6183  0.2342  0.4452
 6716TIP3    H120112   6.736   0.746   5.699  0.1205 -0.4058 -2.2831
 6716TIP3    H220113   6.798   0.884   5.699  1.3471 -0.9051  0.0538
 6717TIP3   OH220114   0.528   5.108   0.537  0.6783  0.0125 -0.1746
 6717TIP3    H120115   0.596   5.088   0.602  0.2966 -1.9561 -0.2901
 6717TIP3    H220116   0.562   5.072   0.455  0.3983  0.9304 -0.7053
 6718TIP3   OH220117   6.006   0.164   1.638  0.4236 -0.4166 -0.3675
 6718TIP3    H120118   6.037   0.075   1.619  0.2993 -0.6529  0.4571
 6718TIP3    H220119   6.085   0.217   1.643  0.7772 -1.0387  1.8639
 6719TIP3   OH220120   0.439   2.125   4.475 -0.5290  0.3948 -0.3319
 6719TIP3    H120121   0.402   2.209   4.504 -0.7818 -0.1925  1.1234
 6719TIP3    H220122   0.400   2.060   4.534  3.3510 -0.2143  1.9193
 6720TIP3   OH220123   5.999   5.663   4.113 -0.2916  0.0766 -0.6922
 6720TIP3    H120124   5.907   5.637   4.116 -0.2414  0.0026  0.9247
 6720TIP3    H220125   6.023   5.679   4.205  1.3913 -0.2187 -1.0428
 6721TIP3   OH220126   1.192   4.238   4.771 -0.7158  0.0938 -0.6159
 6721TIP3    H120127   1.171   4.321   4.729 -1.9485  0.2704  0.2843
 6721TIP3    H220128   1.125   4.228   4.839 -0.3881 -1.4773 -0.4849
 6722TIP3   OH220129   1.174   6.785   0.700  0.2250  0.7080  0.5107
 6722TIP3    H120130   1.171   6.729   0.622 -1.3472 -3.2417  3.0456
 6722TIP3    H220131   1.267   6.789   0.722  0.3890 -2.2248  0.8665
 6723TIP3   OH220132   4.580   5.753   3.828  0.2210 -0.6376 -0.5818
 6723TIP3    H120133   4.615   5.828   3.779 -0.4631 -1.4737 -2.4481
 6723TIP3    H220134   4.506   5.723   3.775 -0.9723 -1.2340  1.3227
 6724TIP3   OH220135   4.711   4.433   3.954  0.0987  0.1693  1.1106
 6724TIP3    H120136   4.701   4.374   3.879 -1.5543 -0.5069  1.8188
 6724TIP3    H220137   4.802   4.419   3.983  1.3275  1.6076 -1.6438
 6725TIP3   OH220138   4.651   5.783   3.400 -0.3331  0.3796 -0.9988
 6725TIP3    H120139   4.597   5.706   3.385 -0.1114  0.3992 -1.9143
 6725TIP3    H220140   4.734   5.749   3.433 -0.1863  0.2101 -1.5308
 6726TIP3   OH220141   2.173   5.980   5.710  0.9596 -0.1531 -0.1606
 6726TIP3    H120142   2.207   5.968   5.799  2.6180  2.4310 -0.3246
 6726TIP3    H220143   2.150   5.892   5.681  0.4851 -1.0896  2.7573
 6727TIP3   OH220144   2.896   2.054   4.394 -0.3187  0.2966 -0.0976
 6727TIP3    H120145   2.989   2.037   4.402 -0.5594 -0.3853  1.6570
 6727TIP3    H220146   2.889   2.149   4.390  0.5133  0.3327 -1.8073
 6728TIP3   OH220147   0.843   0.021   4.132 -0.1257 -0.0014  0.7117
 6728TIP3    H120148   0.923  -0.021   4.164 -0.9790 -2.6789 -0.4613
 6728TIP3    H220149   0.875   0.089   4.072  1.2917 -0.5773  0.7673
 6729TIP3   OH220150   4.961   4.543   4.560 -0.5165  0.0236  0.2701
 6729TIP3    H120151   5.051   4.567   4.582 -0.8009  0.9970  0.3897
 6729TIP3    H220152   4.916   4.540   4.645 -0.9316  0.9385  0.0861
 6730TIP3   OH220153   6.861   6.611   0.954 -0.1025 -0.5687  0.0002
 6730TIP3    H120154   6.914   6.601   1.033  1.0661  0.9171 -0.5422
 6730TIP3    H220155   6.923   6.637   0.886 -1.5482  2.0906 -0.4695
 6731TIP3   OH220156   6.890   1.450   5.630 -0.5136  0.1603 -0.8484
 6731TIP3    H120157   6.807   1.408   5.655  0.2301 -0.0883  1.4559
 6731TIP3    H220158   6.890   1.533   5.678  0.3883  0.3459 -1.1623
 6732TIP3   OH220159   4.541   2.080   0.722 -0.2004 -0.4707 -0.2081
 6732TIP3    H120160   4.473   2.062   0.787 -1.1439 -1.8279 -1.4870
 6732TIP3    H220161   4.534   2.174   0.705 -0.7044 -0.3115  0.7934
 6733TIP3   OH220162   1.163   3.875   1.173  0.3361  0.4073 -0.5533
 6733TIP3    H120163   1.122   3.891   1.088  1.1434 -0.7725 -1.1779
 6733TIP3    H220164   1.256   3.864   1.154  0.5276  0.1305  0.4837
 6734TIP3   OH220165   1.320   4.222   5.512  0.3747  0.3758 -0.7569
 6734TIP3    H120166   1.397   4.279   5.506  1.7574 -1.3558 -0.3131
 6734TIP3    H220167   1.276   4.232   5.427  2.0073  0.1890 -1.6695
 6735TIP3   OH220168   2.065   0.358   3.747 -0.0588  0.1689 -0.0659
 6735TIP3    H120169   1.972   0.356   3.723 -0.2583  2.0603  0.3600
 6735TIP3    H220170   2.109   0.311   3.677 -1.2097  0.4870 -1.0415
 6736TIP3   OH220171   2.140   6.755   4.909  0.2369  0.2138 -0.0629
 6736TIP3    H120172   2.177   6.668   4.891 -2.2098 -0.6923 -1.1951
 6736TIP3    H220173   2.172   6.810   4.837 -0.6089 -0.5713 -1.0813
 6737TIP3   OH220174   6.459   3.863   2.791 -0.4743  0.1629 -0.6030
 6737TIP3    H120175   6.514   3.797   2.832 -1.8744  0.3720  1.7888
 6737TIP3    H220176   6.370   3.841   2.820 -0.9546  3.3080  0.7115
 6738TIP3   OH220177   6.701   6.606   2.663  0.1957  0.0595  0.2650
 6738TIP3    H120178   6.790   6.571   2.667  0.8956  0.4094 -4.8622
 6738TIP3    H220179   6.713   6.701   2.656 -0.5361  0.1073 -0.4996
 6739TIP3   OH220180   1.844   4.380   0.032 -0.0398  0.6222 -0.2487
 6739TIP3    H120181   1.849   4.333   0.115  0.7822  1.8812  0.4600
 6739TIP3    H220182   1.852   4.313  -0.035  0.5860 -0.2887  0.7126
 6740TIP3   OH220183   0.174   3.181   2.278  0.1074 -0.3736 -0.3921
 6740TIP3    H120184   0.246   3.236   2.246  1.4806 -1.8221  0.1070
 6740TIP3    H220185   0.214   3.096   2.295 -1.4740 -0.8872  1.0607
 6741TIP3   OH220186   5.857   1.041   1.510 -0.3976  0.3507  0.0828
 6741TIP3    H120187   5.837   0.973   1.575  1.0425  0.9136  1.1743
 6741TIP3    H220188   5.945   1.018   1.478 -0.4027  1.0132 -0.4294
 6742TIP3   OH220189   5.047   0.463   0.471 -0.4159 -0.1709 -0.0516
 6742TIP3    H120190   4.994   0.406   0.527 -0.0822 -0.5905 -0.1606
 6742TIP3    H220191   5.115   0.498   0.529  0.0595 -0.7733 -0.2317
 6743TIP3   OH220192   4.622   0.225   0.588  0.4718 -0.3066  0.5724
 6743TIP3    H120193   4.570   0.294   0.629  0.4084 -0.2505  0.3976
 6743TIP3    H220194   4.593   0.224   0.497  1.3832  0.3128  0.2626
 6744TIP3   OH220195   2.081   1.295   4.609 -0.0909  0.5028 -0.2130
 6744TIP3    H120196   2.027   1.368   4.636  0.2424  1.2757 -1.5738
 6744TIP3    H220197   2.170   1.320   4.635 -0.2859 -0.6366  1.7583
 6745TIP3   OH220198   1.524   2.939   2.654  0.4778 -0.2654  0.3084
 6745TIP3    H120199   1.557   3.009   2.598 -0.6462 -0.0182 -0.0708
 6745TIP3    H220200   1.544   2.859   2.606 -1.6655 -0.0007 -1.1679
 6746TIP3   OH220201   4.255   1.350   3.622  0.1035 -0.0190  0.5470
 6746TIP3    H120202   4.300   1.347   3.707  1.0650  0.7741  0.0908
 6746TIP3    H220203   4.325   1.339   3.558 -0.5564 -0.1440 -0.1621
 6747TIP3   OH220204   3.926   1.920   2.936  0.3029 -0.2289  0.2646
 6747TIP3    H120205   3.992   1.965   2.988  0.9889  1.2589 -1.7762
 6747TIP3    H220206   3.862   1.988   2.914 -0.8577 -1.1948  0.5011
 6748TIP3   OH220207   7.214   1.579   5.209  0.0306  0.1395  0.2124
 6748TIP3    H120208   7.230   1.527   5.131  0.5491  0.6430 -0.0224
 6748TIP3    H220209   7.165   1.520   5.267  1.4997 -0.9901  0.3791
 6749TIP3   OH220210   5.230   1.001   5.407 -0.0913  0.1933 -0.0903
 6749TIP3    H120211   5.261   1.081   5.449  0.8452  0.0462 -0.4885
 6749TIP3    H220212   5.246   0.932   5.471 -1.7438  0.4233  0.6269
 6750TIP3   OH220213   3.302   1.385   5.400  0.6392  0.5321 -0.3685
 6750TIP3    H120214   3.379   1.339   5.366  0.0917 -0.0724 -0.8418
 6750TIP3    H220215   3.230   1.353   5.345  0.0769  1.1913 -0.0269
 6751TIP3   OH220216   3.102   0.155   0.655 -0.0425  0.4375  0.3716
 6751TIP3    H120217   3.053   0.128   0.576 -1.2784 -0.7724  1.4994
 6751TIP3    H220218   3.180   0.100   0.654 -0.1582  0.2743  0.1079
 6752TIP3   OH220219   0.215   4.103   5.333  0.2474  0.5316  0.1095
 6752TIP3    H120220   0.142   4.041   5.332  0.3527  0.4122 -0.3186
 6752TIP3    H220221   0.182   4.178   5.283  0.0108  0.9521  0.8775
 6753TIP3   OH220222   0.578   3.170   4.268 -0.2208 -0.1689 -0.0134
 6753TIP3    H120223   0.601   3.261   4.249  1.1447 -0.5691 -0.4484
 6753TIP3    H220224   0.632   3.148   4.344  1.1721 -1.2261 -1.2224
 6754TIP3   OH220225   4.198   4.973   0.424 -0.0594 -0.3336 -0.0594
 6754TIP3    H120226   4.135   4.941   0.488 -1.0651  0.9001 -0.3975
 6754TIP3    H220227   4.268   5.013   0.477  0.3419 -1.4882  0.3076
 6755TIP3   OH220228   0.573   1.488   5.157  0.4729  0.2419 -0.6532
 6755TIP3    H120229   0.592   1.546   5.231  0.7077 -0.6942  0.0455
 6755TIP3    H220230   0.631   1.519   5.087 -0.3646  1.6715 -0.7393
 6756TIP3   OH220231   6.143   0.578   0.804 -0.4558 -0.2954  0.0703
 6756TIP3    H120232   6.197   0.509   0.843 -0.4117  0.2442  1.0198
 6756TIP3    H220233   6.054   0.543   0.807 -0.3887 -0.4606  0.2162
 6757TIP3   OH220234   5.902   1.372   1.919 -0.5451 -0.0995 -0.3216
 6757TIP3    H120235   5.922   1.435   1.850  3.6879 -1.2961 -0.4960
 6757TIP3    H220236   5.849   1.304   1.876 -1.8775  1.3891 -1.1073
 6758TIP3   OH220237   3.574   2.284   2.403 -0.6006  0.4825 -0.3754
 6758TIP3    H120238   3.563   2.352   2.469  0.8540  2.0909 -1.7056
 6758TIP3    H220239   3.525   2.315   2.327 -0.4135 -0.2624 -0.8183
 6759TIP3   OH220240   2.739   6.516   2.002  0.1001 -0.2863  0.0756
 6759TIP3    H120241   2.755   6.561   1.919  1.8588 -0.5215  0.2441
 6759TIP3    H220242   2.795   6.439   1.998 -2.0148 -1.9206  0.2634
 6760TIP3   OH220243   4.976   3.661   1.913  0.1165 -0.3544  0.4478
 6760TIP3    H120244   4.912   3.668   1.984 -0.7482  1.3662 -0.4339
 6760TIP3    H220245   5.061   3.677   1.955 -0.0140 -2.4456  1.5919
 6761TIP3   OH220246   5.229   0.208   0.393  0.9146  0.3476 -0.3009
 6761TIP3    H120247   5.172   0.265   0.341 -2.2119 -2.0958  0.1794
 6761TIP3    H220248   5.308   0.199   0.340  0.0034  2.0910 -2.1146
 6762TIP3   OH220249   0.955   6.672   2.765 -0.3461  0.0311 -0.1982
 6762TIP3    H120250   0.900   6.749   2.754 -0.4382 -0.3532 -3.4042
 6762TIP3    H220251   1.045   6.703   2.751 -0.4769 -0.5167 -2.8397
 6763TIP3   OH220252   4.700   3.333   5.692 -0.4342 -0.2731  0.1642
 6763TIP3    H120253   4.704   3.239   5.711  0.5595 -0.1202  0.7365
 6763TIP3    H220254   4.720   3.376   5.776 -0.1226  0.4426 -0.2647
 6764TIP3   OH220255   3.525   6.417   1.127  0.4119  0.6754 -0.4558
 6764TIP3    H120256   3.494   6.504   1.102  0.5294  0.9730  0.4118
 6764TIP3    H220257   3.566   6.382   1.047 -0.6407  0.9507 -1.1272
 6765TIP3   OH220258   5.794   4.883   5.575 -0.4770  0.3377  0.4447
 6765TIP3    H120259   5.877   4.877   5.528 -0.3087  0.6314  0.7043
 6765TIP3    H220260   5.819   4.891   5.667 -0.8097 -1.2881  0.7161
 6766TIP3   OH220261   2.175   2.224   2.274  0.4808  0.2622  0.0347
 6766TIP3    H120262   2.093   2.175   2.283  1.2084 -0.9819  0.2746
 6766TIP3    H220263   2.149   2.311   2.247 -0.9813  0.1608  1.0128
 6767TIP3   OH220264   3.156   2.405   5.091  0.2527 -0.1127 -0.6353
 6767TIP3    H120265   3.174   2.344   5.163 -2.2700  0.5558  0.6701
 6767TIP3    H220266   3.229   2.466   5.092  0.4907 -0.3911  1.0885
 6768TIP3   OH220267   5.777   3.834   0.705 -0.1398  0.4041  0.2068
 6768TIP3    H120268   5.817   3.859   0.788  0.4979 -0.1620  0.0863
 6768TIP3    H220269   5.811   3.745   0.688  0.7035  0.9576 -1.2250
 6769TIP3   OH220270   1.975   6.286   0.476 -0.0490 -0.3342  0.2747
 6769TIP3    H120271   1.903   6.223   0.482  0.2099 -0.5683  1.0046
 6769TIP3    H220272   2.017   6.265   0.393 -0.2449 -0.8319  0.2939
 6770TIP3   OH220273   6.090   4.427   2.788  0.1158  0.5449  0.1112
 6770TIP3    H120274   6.102   4.515   2.824  1.3129  1.2428 -1.8431
 6770TIP3    H220275   6.079   4.441   2.694  0.3282 -1.3880 -0.2325
 6771TIP3   OH220276   3.467   6.536   1.884  0.0394 -0.1729 -0.2075
 6771TIP3    H120277   3.435   6.598   1.949 -1.7691 -0.2540 -0.9511
 6771TIP3    H220278   3.525   6.587   1.828 -0.9246  0.7332 -0.4292
 6772TIP3   OH220279   2.301   6.562   3.599 -0.8771  0.2194  0.4864
 6772TIP3    H120280   2.212   6.563   3.564 -0.1052  0.3691 -1.5972
 6772TIP3    H220281   2.336   6.477   3.572 -0.3759  0.1653  1.2849
 6773TIP3   OH220282   3.167   4.036   1.944 -0.1654 -0.3271  0.4784
 6773TIP3    H120283   3.190   4.123   1.912 -2.5927  0.3631  0.3861
 6773TIP3    H220284   3.113   4.053   2.021 -0.5055 -1.7676  0.5854
 6774TIP3   OH220285   2.569   4.628   3.493  0.3955 -0.0961  0.3963
 6774TIP3    H120286   2.580   4.579   3.575 -2.5553  0.3899  1.2081
 6774TIP3    H220287   2.630   4.586   3.432  0.3813 -2.6012  1.9480
 6775TIP3   OH220288   0.914   3.034   0.519  0.0196  0.0160  0.4708
 6775TIP3    H120289   0.928   2.942   0.498 -1.6076 -0.2058  0.2872
 6775TIP3    H220290   0.963   3.048   0.600 -0.3564 -1.2087  0.9229
 6776TIP3   OH220291   0.708   5.749   1.050  0.4796  0.3368 -0.2201
 6776TIP3    H120292   0.658   5.668   1.052  0.6380  0.2543  0.4327
 6776TIP3    H220293   0.671   5.798   0.976  0.7108 -0.5287 -0.9127
 6777TIP3   OH220294   6.415   5.447   3.667  0.1473  0.4320  0.2820
 6777TIP3    H120295   6.412   5.360   3.708 -1.8926  0.3224 -0.0178
 6777TIP3    H220296   6.450   5.431   3.580  2.4703  0.3606  1.1569
 6778TIP3   OH220297   3.409   4.009   1.135  0.1706  0.2077 -0.4650
 6778TIP3    H120298   3.395   3.921   1.101 -1.0716  0.2255 -0.0532
 6778TIP3    H220299   3.329   4.056   1.113  0.2157  0.8116  0.6081
 6779TIP3   OH220300   2.761   2.604   1.499  0.0973  0.0987  0.3380
 6779TIP3    H120301   2.807   2.677   1.458  2.6160 -2.1212 -1.1480
 6779TIP3    H220302   2.831   2.547   1.532 -1.7393 -1.4468  1.7913
 6780TIP3   OH220303   3.801   4.920   2.154 -0.3327 -0.4462 -0.2627
 6780TIP3    H120304   3.890   4.955   2.163 -0.3310 -0.4707 -0.1827
 6780TIP3    H220305   3.759   4.977   2.089 -0.5638  0.1494  0.3999
 6781TIP3   OH220306   2.403   6.729   5.458  0.2603  0.3039  0.0385
 6781TIP3    H120307   2.443   6.655   5.412  1.0402  0.4542  0.4459
 6781TIP3    H220308   2.400   6.799   5.393  2.1144  0.7714  0.3954
 6782TIP3   OH220309   3.577   6.679   3.357 -0.0008 -0.3525  0.3593
 6782TIP3    H120310   3.578   6.648   3.447 -2.0922 -1.2099  0.1322
 6782TIP3    H220311   3.670   6.686   3.333  0.5744 -1.1976  2.1986
 6783TIP3   OH220312   0.869   5.637   5.368  0.7437  0.1148 -0.1535
 6783TIP3    H120313   0.861   5.680   5.453 -0.8126 -0.1164 -0.1507
 6783TIP3    H220314   0.851   5.545   5.386 -1.7116  0.3646 -1.0019
 6784TIP3   OH220315   3.329   1.627   1.583 -0.2563 -0.4927 -0.1122
 6784TIP3    H120316   3.250   1.670   1.615 -0.9459 -0.2055 -2.0703
 6784TIP3    H220317   3.299   1.573   1.509  1.1697 -1.4248 -0.0453
 6785TIP3   OH220318   2.410   0.956   5.289 -0.0345  0.1348 -0.9824
 6785TIP3    H120319   2.450   0.979   5.206  0.6215  0.8424 -0.4857
 6785TIP3    H220320   2.325   1.000   5.288  0.6248  1.4570 -0.6345
 6786TIP3   OH220321   3.610   4.058   4.790  0.5321 -0.5300  0.6271
 6786TIP3    H120322   3.698   4.050   4.826  1.3449 -0.8786 -1.2860
 6786TIP3    H220323   3.625   4.075   4.697 -1.4323 -1.7337  0.0426
 6787TIP3   OH220324   2.156   5.827   2.267 -0.0754 -0.0736 -0.2056
 6787TIP3    H120325   2.162   5.922   2.261  3.9828 -0.1308 -0.3383
 6787TIP3    H220326   2.173   5.796   2.178  1.2773 -0.8698  0.3042
 6788TIP3   OH220327   3.989   4.816   4.339 -0.1676 -0.6914  0.1830
 6788TIP3    H120328   4.049   4.798   4.267 -2.1905 -2.0605 -1.2834
 6788TIP3    H220329   3.936   4.889   4.308 -0.2625 -0.5049  0.7841
 6789TIP3   OH220330   4.414   6.396   5.126  0.3380  0.0233  0.5798
 6789TIP3    H120331   4.391   6.338   5.054  1.9613 -0.5619  0.4814
 6789TIP3    H220332   4.389   6.483   5.096  2.4568  0.0366 -1.4643
 6790TIP3   OH220333   4.476   4.886   3.187 -0.0674 -0.5720  0.4651
 6790TIP3    H120334   4.553   4.916   3.138 -2.0234  0.9207 -1.9193
 6790TIP3    H220335   4.459   4.798   3.152 -0.4259 -0.2110 -0.2883
 6791TIP3   OH220336   5.542   2.198   1.572 -0.2315  0.2704 -0.3255
 6791TIP3    H120337   5.537   2.232   1.482 -1.1503  1.7937  0.2565
 6791TIP3    H220338   5.506   2.110   1.567 -0.4572  0.4138 -1.4289
 6792TIP3   OH220339   0.118   6.603   1.795 -0.5646 -0.6417 -0.0830
 6792TIP3    H120340   0.078   6.683   1.829 -0.1719 -0.5196  0.1085
 6792TIP3    H220341   0.192   6.587   1.854 -0.4825 -0.9971 -0.2803
 6793TIP3   OH220342   1.044   1.565   5.696  0.3664  0.1050 -0.0332
 6793TIP3    H120343   1.032   1.607   5.781 -1.6824 -0.7043  0.1336
 6793TIP3    H220344   1.139   1.555   5.687  0.6483  0.7061  1.8890
 6794TIP3   OH220345   4.655   4.279   0.525 -0.0920 -0.5662  0.1798
 6794TIP3    H120346   4.574   4.275   0.576 -1.1592 -0.7418 -1.4587
 6794TIP3    H220347   4.645   4.355   0.469  0.1265 -1.5418 -1.2314
 6795TIP3   OH220348   5.474   1.080   0.214 -0.5897 -0.3287 -0.1693
 6795TIP3    H120349   5.449   1.001   0.263 -0.8087  0.9527  1.9086
 6795TIP3    H220350   5.512   1.138   0.280  0.1507  1.0808 -1.7582
 6796TIP3   OH220351   2.228   0.316   1.761  0.4121  0.0969 -0.4296
 6796TIP3    H120352   2.189   0.288   1.678 -0.1000 -0.9845  0.1653
 6796TIP3    H220353   2.208   0.410   1.766 -1.0377 -0.1732 -0.7376
 6797TIP3   OH220354   6.951   4.784   2.758  0.0040  0.2493  0.1997
 6797TIP3    H120355   6.948   4.816   2.848 -0.2165 -0.5272  0.4718
 6797TIP3    H220356   6.871   4.818   2.718 -0.1392  0.1973  0.4371
 6798TIP3   OH220357   0.939   1.613   1.924  0.1440 -0.0664  0.6349
 6798TIP3    H120358   0.893   1.613   1.839  0.3769  1.1028  0.4858
 6798TIP3    H220359   0.996   1.690   1.920  1.3731 -0.9192  1.2249
 6799TIP3   OH220360   2.572   1.076   5.906  0.4513  0.0126  0.3953
 6799TIP3    H120361   2.570   1.079   5.810  0.2976 -0.6184  0.3717
 6799TIP3    H220362   2.514   1.147   5.934 -1.7568 -1.5233 -0.0137
 6800TIP3   OH220363   1.493   5.991   0.671  0.8542 -0.0669 -0.4936
 6800TIP3    H120364   1.446   6.000   0.588 -0.0454  2.1553  0.1788
 6800TIP3    H220365   1.582   6.019   0.653  0.4682  1.1569 -0.5783
 6801TIP3   OH220366   4.530   3.188   2.446  0.0298 -0.0928  0.3388
 6801TIP3    H120367   4.457   3.181   2.384 -0.0807 -0.9234  0.5519
 6801TIP3    H220368   4.574   3.269   2.422  0.3987 -0.7331 -1.2818
 6802TIP3   OH220369   2.429   1.620   0.109 -0.6981 -0.0095  0.5012
 6802TIP3    H120370   2.437   1.715   0.114 -0.8457  0.2455 -2.3551
 6802TIP3    H220371   2.335   1.603   0.107 -0.6986 -0.0035 -0.7886
 6803TIP3   OH220372   6.766   6.076   2.087  0.0844  0.0355  0.9945
 6803TIP3    H120373   6.796   5.994   2.125  0.3889 -1.1474 -1.5429
 6803TIP3    H220374   6.685   6.052   2.041  0.7109  0.8764 -0.6244
 6804TIP3   OH220375   0.103   5.447   2.550  0.0507  0.1079 -0.2695
 6804TIP3    H120376   0.058   5.462   2.467 -0.0384  1.6178  0.0101
 6804TIP3    H220377   0.051   5.381   2.595 -0.1523 -0.3895 -1.2142
 6805TIP3   OH220378   6.757   3.939  -0.007 -0.6480  0.2488  0.2632
 6805TIP3    H120379   6.727   4.017   0.040 -1.5094 -0.5253  1.0428
 6805TIP3    H220380   6.704   3.868   0.029  0.3035 -0.7429 -0.2542
 6806TIP3   OH220381   4.320   0.064   4.249 -0.2485 -0.2880 -0.4622
 6806TIP3    H120382   4.254   0.131   4.269  0.7778  0.4437  0.6213
 6806TIP3    H220383   4.281   0.012   4.179 -1.5410  0.7601 -0.5620
 6807TIP3   OH220384   4.117   0.633   1.721 -0.0587 -0.0146 -0.4785
 6807TIP3    H120385   4.173   0.608   1.648 -0.2975 -0.7817 -0.4058
 6807TIP3    H220386   4.106   0.553   1.772 -1.9148 -0.1080 -0.9515
 6808TIP3   OH220387   3.454   4.631   1.492  0.0469 -0.1358  0.4412
 6808TIP3    H120388   3.510   4.561   1.525  1.3991 -0.7341 -2.6975
 6808TIP3    H220389   3.514   4.700   1.466 -1.0294  0.9352  0.7217
 6809TIP3   OH220390   2.281   0.785   4.556 -0.2973  0.7087  0.3695
 6809TIP3    H120391   2.200   0.755   4.515  0.2959 -0.5276  0.0608
 6809TIP3    H220392   2.340   0.800   4.482 -0.4876  2.4672  0.5270
 6810TIP3   OH220393   5.418   5.387   4.926 -0.2493 -0.1038 -0.0708
 6810TIP3    H120394   5.371   5.304   4.917  0.1792 -0.1619 -2.2226
 6810TIP3    H220395   5.464   5.398   4.843  1.3348  1.3155  0.9241
 6811TIP3   OH220396   3.059   3.759   1.125  0.0131 -0.3692  0.2005
 6811TIP3    H120397   3.127   3.726   1.183 -0.1948  0.3847  0.8818
 6811TIP3    H220398   2.999   3.685   1.115  0.2425 -0.6206  0.6420
 6812TIP3   OH220399   2.802   4.369   1.248  0.5383  0.4166 -0.6456
 6812TIP3    H120400   2.893   4.393   1.268  0.1745  2.4088 -1.1309
 6812TIP3    H220401   2.807   4.279   1.216  2.4388  0.6732 -1.1938
 6813TIP3   OH220402   6.538   4.220   4.291 -0.2169  0.1880 -0.2812
 6813TIP3    H120403   6.536   4.126   4.304  0.7690 -0.2383 -2.7279
 6813TIP3    H220404   6.629   4.240   4.268 -0.6199  1.5514 -0.8547
 6814TIP3   OH220405   5.434   0.231   5.275 -0.4555 -0.4329 -0.3321
 6814TIP3    H120406   5.403   0.321   5.263  0.6886  0.3234  1.7546
 6814TIP3    H220407   5.357   0.177   5.261 -1.4843  0.9875 -0.3657
 6815TIP3   OH220408   0.429   3.231   3.122  0.2940 -0.5510  0.2590
 6815TIP3    H120409   0.359   3.288   3.089  0.0941 -1.0049 -0.1210
 6815TIP3    H220410   0.419   3.150   3.071  1.3790 -0.4571 -0.1271
 6816TIP3   OH220411   3.463   6.205   0.109  0.0616  0.4873  0.5676
 6816TIP3    H120412   3.512   6.258   0.172  0.4361  0.8713 -0.0470
 6816TIP3    H220413   3.484   6.115   0.132  1.8869  0.6564 -0.3299
 6817TIP3   OH220414   3.035   3.296   1.075  0.3392  0.1360  0.6890
 6817TIP3    H120415   2.958   3.261   1.119  0.8394 -1.4404  0.3497
 6817TIP3    H220416   3.109   3.259   1.123  0.9038  1.1655  0.6474
 6818TIP3   OH220417   4.585   5.017   2.522 -1.0576 -0.0107  0.1528
 6818TIP3    H120418   4.520   5.054   2.581 -0.0687  2.8287 -0.3934
 6818TIP3    H220419   4.666   5.062   2.544 -0.0245 -0.9538 -1.4877
 6819TIP3   OH220420   5.102   0.607   4.363 -0.0919  0.5938 -0.2652
 6819TIP3    H120421   5.096   0.562   4.447  2.0911 -0.3974 -0.5880
 6819TIP3    H220422   5.116   0.699   4.386 -1.3864  0.6564  0.3989
 6820TIP3   OH220423   3.712   6.411   5.384  0.4533 -0.1759  0.5682
 6820TIP3    H120424   3.789   6.462   5.407  0.7598  0.1097 -0.9623
 6820TIP3    H220425   3.705   6.420   5.289 -1.2236 -0.5334  0.6199
 6821TIP3   OH220426   5.734   1.629   5.716  0.8987 -0.4695 -1.1775
 6821TIP3    H120427   5.728   1.670   5.630 -2.6481  4.1850  0.8839
 6821TIP3    H220428   5.660   1.569   5.719  1.3110 -1.0012 -1.4902
 6822TIP3   OH220429   0.472   2.697   1.060  0.3430 -0.4576 -0.3300
 6822TIP3    H120430   0.509   2.757   1.124 -1.5641  0.8901 -0.4380
 6822TIP3    H220431   0.549   2.652   1.023  1.8434  1.8580 -0.2267
 6823TIP3   OH220432   6.070   3.032   1.994 -0.0515 -0.1792  0.0585
 6823TIP3    H120433   6.061   3.028   1.898  0.1243  1.0708 -0.0332
 6823TIP3    H220434   6.154   2.990   2.012 -0.6432 -1.5224 -0.2024
 6824TIP3   OH220435   5.680   6.054   5.032  0.2746 -0.0506  0.5177
 6824TIP3    H120436   5.753   6.112   5.056  1.0393 -0.9906  0.4875
 6824TIP3    H220437   5.668   5.999   5.108  0.5430 -0.8515 -0.0099
 6825TIP3   OH220438   3.652   1.197   3.988  0.1412 -0.1665  0.0010
 6825TIP3    H120439   3.685   1.115   3.950  0.7507  0.7766 -1.6347
 6825TIP3    H220440   3.642   1.178   4.081  1.2823 -1.7852 -0.1545
 6826TIP3   OH220441   6.416   2.004   2.793 -0.2349  0.0873  0.0162
 6826TIP3    H120442   6.468   1.926   2.775 -0.1186  0.1870 -0.0778
 6826TIP3    H220443   6.335   1.970   2.832 -0.1667 -0.0773  0.0155
 6827TIP3   OH220444   6.256   1.606   3.445  0.1066 -0.6860 -0.0948
 6827TIP3    H120445   6.299   1.607   3.359  0.8683  1.5258  0.2563
 6827TIP3    H220446   6.168   1.638   3.428  0.5516  0.6909  0.0311
 6828TIP3   OH220447   1.330   2.537   0.767 -0.6312  0.3589  0.2381
 6828TIP3    H120448   1.264   2.597   0.802 -3.2144 -0.6592 -2.5549
 6828TIP3    H220449   1.330   2.463   0.828  0.9982  2.0100  2.4684
 6829TIP3   OH220450   1.928   3.715   2.134  0.9867  0.2091 -0.2415
 6829TIP3    H120451   1.906   3.808   2.130  1.0164  0.3500  1.8082
 6829TIP3    H220452   1.848   3.670   2.111  0.8151  0.7433 -0.7092
 6830TIP3   OH220453   0.723   1.821   4.265  0.1886 -0.1427 -0.4171
 6830TIP3    H120454   0.664   1.759   4.306  0.8865  0.5541  1.7896
 6830TIP3    H220455   0.784   1.767   4.214 -0.1613 -1.1441  0.2044
 6831TIP3   OH220456   5.718   0.707   0.742 -0.5431 -0.5075 -0.6699
 6831TIP3    H120457   5.649   0.643   0.760  0.1283 -1.2822 -0.7369
 6831TIP3    H220458   5.726   0.706   0.646 -1.1807  0.3974 -0.7378
 6832TIP3   OH220459   2.891   4.504   4.567 -0.0500 -0.3377 -0.5923
 6832TIP3    H120460   2.796   4.502   4.577 -0.2843 -1.0014 -2.5467
 6832TIP3    H220461   2.917   4.590   4.600 -1.1104 -0.7122  1.3715
 6833TIP3   OH220462   3.175   4.298   1.876  0.6628  0.2228 -0.2350
 6833TIP3    H120463   3.202   4.354   1.949 -0.6085 -1.0471  1.2829
 6833TIP3    H220464   3.234   4.322   1.805  1.9776  1.4945  1.1954
 6834TIP3   OH220465   3.748   2.344   5.326  0.0242  0.0278 -0.4775
 6834TIP3    H120466   3.798   2.413   5.369  1.6347  0.0498 -2.2603
 6834TIP3    H220467   3.690   2.391   5.265  0.5630 -0.1388 -1.1283
 6835TIP3   OH220468   6.924   2.783   5.474  0.5002  0.0924  0.3636
 6835TIP3    H120469   6.857   2.755   5.412  1.2582  2.1446 -1.5247
 6835TIP3    H220470   7.000   2.728   5.454  0.2536 -0.3500  0.6178
 6836TIP3   OH220471   4.316   0.764   4.148  0.0263 -0.5489  0.1241
 6836TIP3    H120472   4.319   0.671   4.125  1.0336 -0.3522 -0.6134
 6836TIP3    H220473   4.231   0.794   4.114  0.0608 -1.0098 -0.3850
 6837TIP3   OH220474   0.886   5.069   0.666  0.0140 -0.5178 -0.1956
 6837TIP3    H120475   0.914   4.979   0.676  0.5796 -0.3329 -0.1045
 6837TIP3    H220476   0.816   5.080   0.730 -1.4978 -1.4784 -1.5958
 6838TIP3   OH220477   4.668   0.329   0.979 -0.0153 -0.0700 -0.4699
 6838TIP3    H120478   4.580   0.306   1.009  0.1310  0.6946  0.6014
 6838TIP3    H220479   4.674   0.291   0.891 -1.5296  0.1727 -0.7035
 6839TIP3   OH220480   5.523   0.075   4.427 -0.1959  0.4793 -0.2925
 6839TIP3    H120481   5.451   0.123   4.387  0.2480  1.0812 -0.3858
 6839TIP3    H220482   5.481   0.007   4.479 -0.8952  1.7598  0.8826
 6840TIP3   OH220483   4.941   5.687   2.364  0.4636 -0.6559 -0.0042
 6840TIP3    H120484   4.923   5.706   2.456 -2.3968 -4.4108  0.4585
 6840TIP3    H220485   5.022   5.636   2.365 -0.2808 -1.8856  0.7113
 6841TIP3   OH220486   0.179   0.172   3.375 -0.4830 -0.5128  0.0762
 6841TIP3    H120487   0.199   0.241   3.312  0.8493 -0.5119  0.4834
 6841TIP3    H220488   0.249   0.108   3.364 -0.8060 -1.0136  0.8356
 6842TIP3   OH220489   0.393   4.475   0.518  0.2088  0.3504  0.1193
 6842TIP3    H120490   0.483   4.488   0.487  0.0767  0.8707 -0.0627
 6842TIP3    H220491   0.403   4.449   0.609  0.5427  0.4078  0.1033
 6843TIP3   OH220492   2.243   4.788   3.903  0.1083  0.5271  0.1611
 6843TIP3    H120493   2.335   4.811   3.888  0.0010  0.8657  0.0300
 6843TIP3    H220494   2.246   4.694   3.923  0.3995  0.3401 -0.6768
 6844TIP3   OH220495   4.822   0.161   1.177 -0.2911  0.8538  0.3422
 6844TIP3    H120496   4.755   0.205   1.126 -2.0663 -0.7452  1.1888
 6844TIP3    H220497   4.774   0.107   1.240  1.7887  0.6298  1.8703
 6845TIP3   OH220498   5.666   3.602   5.449  0.1181 -0.4530  0.4875
 6845TIP3    H120499   5.728   3.584   5.378 -1.2580 -0.4870 -0.7511
 6845TIP3    H220500   5.714   3.660   5.508 -0.2652  4.0759 -3.1160
 6846TIP3   OH220501   0.972   1.531   0.696  0.3854 -0.6482  0.0105
 6846TIP3    H120502   0.914   1.527   0.620  0.4799  1.8982 -0.2870
 6846TIP3    H220503   1.039   1.465   0.678 -0.7676 -1.5981 -1.0440
 6847TIP3   OH220504   5.777   4.327   0.140  0.4072  0.4162  0.4073
 6847TIP3    H120505   5.779   4.280   0.057  0.1971 -1.3733  1.3804
 6847TIP3    H220506   5.685   4.326   0.167  0.4885  0.8817  0.7218
 6848TIP3   OH220507   0.904   4.574   2.081 -0.1816  0.0518  0.5968
 6848TIP3    H120508   0.979   4.621   2.117  0.4621 -0.6418  0.1828
 6848TIP3    H220509   0.892   4.611   1.994 -1.3825  1.3266  1.2516
 6849TIP3   OH220510   2.282   2.477   3.404  0.0902 -0.1933 -0.1050
 6849TIP3    H120511   2.217   2.495   3.473  0.0398 -0.3791 -0.1033
 6849TIP3    H220512   2.274   2.383   3.388 -1.5521  0.1991 -2.0143
 6850TIP3   OH220513   0.686   4.891   1.290  0.7390 -0.3072 -0.5039
 6850TIP3    H120514   0.651   4.915   1.375 -0.2880  0.0355 -1.0077
 6850TIP3    H220515   0.746   4.962   1.267 -1.0988  1.0690 -1.2909
 6851TIP3   OH220516   6.987   4.686   0.206  0.0034 -0.3047 -0.3666
 6851TIP3    H120517   6.932   4.616   0.241 -0.3964  0.3754  0.3945
 6851TIP3    H220518   7.046   4.708   0.278  0.0829  0.1820 -0.5794
 6852TIP3   OH220519   7.030   2.239   2.632 -0.0513  0.3309  0.0489
 6852TIP3    H120520   7.005   2.331   2.641 -0.6901  0.2711 -0.9923
 6852TIP3    H220521   7.125   2.238   2.648 -0.2196  0.9892  1.1985
 6853TIP3   OH220522   4.770   4.613   2.320 -0.0590  0.5272  0.0685
 6853TIP3    H120523   4.838   4.566   2.368  2.3476  2.2971 -1.3650
 6853TIP3    H220524   4.743   4.553   2.251  0.2001 -0.1477  0.5495
 6854TIP3   OH220525   1.326   3.042   5.303 -0.1111 -0.0022  0.1758
 6854TIP3    H120526   1.323   3.135   5.279 -0.7622  0.2199  1.0635
 6854TIP3    H220527   1.237   3.011   5.287 -0.1301 -0.2463  0.7444
 6855TIP3   OH220528   5.876   6.644   4.199  0.3633  0.1241 -0.4753
 6855TIP3    H120529   5.968   6.661   4.176  0.2053  1.6909 -0.0684
 6855TIP3    H220530   5.881   6.593   4.280  0.9151  2.1019  0.7991
 6856TIP3   OH220531   5.911   3.548   3.721 -0.5539  0.7136 -0.1206
 6856TIP3    H120532   5.947   3.529   3.634 -0.8778  0.7894 -0.2718
 6856TIP3    H220533   5.872   3.635   3.712 -0.5640  0.7343  0.1091
 6857TIP3   OH220534   5.225   3.106   4.325  0.1734 -0.0274  0.1612
 6857TIP3    H120535   5.303   3.056   4.349 -0.1112 -0.0160  1.1784
 6857TIP3    H220536   5.194   3.064   4.245  0.8482 -0.4534  0.1075
 6858TIP3   OH220537   2.380   5.105   4.687  0.7082  0.4708  0.1466
 6858TIP3    H120538   2.460   5.090   4.738  2.0621  0.5804 -1.8107
 6858TIP3    H220539   2.343   5.018   4.674  0.8004  0.3606  0.5914
 6859TIP3   OH220540   7.058   4.876   5.577 -0.1160 -0.4569 -0.0781
 6859TIP3    H120541   7.139   4.921   5.555 -0.1908 -0.9750 -1.5105
 6859TIP3    H220542   7.014   4.934   5.640  1.0480  0.1289  0.2102
 6860TIP3   OH220543   1.600   2.547   4.256 -0.3188  0.1167  0.2924
 6860TIP3    H120544   1.581   2.547   4.350 -0.4647 -1.9476  0.2997
 6860TIP3    H220545   1.695   2.553   4.251 -0.0255 -2.7946  0.7425
 6861TIP3   OH220546   5.649   2.269   5.006 -0.3597  0.7198  0.6050
 6861TIP3    H120547   5.685   2.351   4.973 -3.9915  1.3230 -2.5227
 6861TIP3    H220548   5.696   2.201   4.958  0.8269  1.0824  1.2236
 6862TIP3   OH220549   5.750   6.638   5.192 -0.8161  0.4600  0.2212
 6862TIP3    H120550   5.833   6.593   5.178 -1.5062 -0.4082 -1.2624
 6862TIP3    H220551   5.684   6.578   5.158 -2.2926  0.1965  3.2128
 6863TIP3   OH220552   1.875   4.619   3.021 -0.0327  0.1486 -0.3705
 6863TIP3    H120553   1.969   4.603   3.029  0.0284  0.5279 -0.3103
 6863TIP3    H220554   1.835   4.533   3.033  0.1504  0.3756  2.6111
 6864TIP3   OH220555   4.460   6.645   3.502 -0.3571  0.3122  0.0645
 6864TIP3    H120556   4.457   6.551   3.486 -1.3243  0.2719  0.4539
 6864TIP3    H220557   4.377   6.665   3.545  0.7425  0.9645  1.9844
 6865TIP3   OH220558   5.094   0.102   2.876  0.2250  0.9066 -0.1663
 6865TIP3    H120559   5.167   0.080   2.819 -0.6546  0.9884 -1.3799
 6865TIP3    H220560   5.064   0.018   2.911  1.9300  1.0137  1.7359
 6866TIP3   OH220561   3.914   6.583   2.776 -0.5475 -0.4284 -0.4674
 6866TIP3    H120562   3.829   6.558   2.739  0.0717 -1.4352 -1.2703
 6866TIP3    H220563   3.975   6.576   2.702  0.2720  0.0769  0.1487
 6867TIP3   OH220564   4.461   3.857   5.003  0.2029 -0.3053  0.0440
 6867TIP3    H120565   4.410   3.806   4.940 -1.8889  0.4256  1.0620
 6867TIP3    H220566   4.540   3.882   4.955  0.1714 -2.4300 -1.2372
 6868TIP3   OH220567   0.861   6.210   0.012 -0.1007  0.6807 -0.0319
 6868TIP3    H120568   0.903   6.131   0.046 -2.5532 -0.4399  0.5640
 6868TIP3    H220569   0.839   6.261   0.089 -0.9209  0.6514 -0.2371
 6869TIP3   OH220570   5.044   2.881   0.587  0.3829 -0.1605  0.0469
 6869TIP3    H120571   5.013   2.817   0.523 -0.9126  0.4138  0.0682
 6869TIP3    H220572   5.099   2.941   0.537  0.6950 -0.6371 -0.1900
 6870TIP3   OH220573   7.076   6.130   2.179  0.6085 -0.2993  0.0591
 6870TIP3    H120574   7.123   6.057   2.138 -1.2734 -1.5733  0.0779
 6870TIP3    H220575   7.113   6.135   2.268  1.2863 -0.7158 -0.1906
 6871TIP3   OH220576   1.021   6.640   2.054  0.5363 -0.0734 -0.4204
 6871TIP3    H120577   1.011   6.562   2.000 -0.9323 -0.3666  0.2352
 6871TIP3    H220578   1.035   6.606   2.143  2.7547  0.4011 -0.5213
 6872TIP3   OH220579   3.807   1.817   5.511  0.1834  0.4168 -0.4347
 6872TIP3    H120580   3.718   1.820   5.476 -0.3643  1.5788  0.9549
 6872TIP3    H220581   3.856   1.879   5.457 -0.2528  1.0024 -0.1576
 6873TIP3   OH220582   0.533   5.407   4.006  0.2696  0.2928 -0.1540
 6873TIP3    H120583   0.536   5.493   4.048 -0.9078 -0.1352  0.8693
 6873TIP3    H220584   0.625   5.381   3.996  0.6022  0.5541  1.8963
 6874TIP3   OH220585   6.506   1.068   4.567 -0.1008 -0.1162 -0.6769
 6874TIP3    H120586   6.425   1.053   4.617 -0.7932 -0.1522 -1.7777
 6874TIP3    H220587   6.549   1.139   4.613 -0.6017 -0.3023  0.1116
 6875TIP3   OH220588   1.365   3.031   5.860 -0.3446  0.2978  0.2201
 6875TIP3    H120589   1.318   2.982   5.792  1.4385 -0.6202 -0.4040
 6875TIP3    H220590   1.319   3.009   5.941 -1.3873 -0.0487 -0.4461
 6876TIP3   OH220591   2.942   0.506   4.159  0.3094 -0.7171  0.1655
 6876TIP3    H120592   2.982   0.436   4.211  0.2546 -1.5027 -0.8103
 6876TIP3    H220593   2.914   0.571   4.223  1.0116 -1.2567  1.0439
 6877TIP3   OH220594   3.404   6.218   3.194 -0.2466 -0.3022 -0.2722
 6877TIP3    H120595   3.313   6.208   3.224 -0.3005 -0.8279 -0.5873
 6877TIP3    H220596   3.420   6.312   3.197 -0.7401 -0.2195 -0.0337
 6878TIP3   OH220597   2.452   4.817   0.347  0.2790 -0.2141 -0.4796
 6878TIP3    H120598   2.466   4.905   0.383 -1.2149 -0.6387  1.3459
 6878TIP3    H220599   2.419   4.766   0.422 -2.5641 -1.3027 -2.3048
 6879TIP3   OH220600   5.264   2.626   2.711  0.0812 -0.0794  0.1228
 6879TIP3    H120601   5.190   2.627   2.650 -0.1578 -0.1372  0.4090
 6879TIP3    H220602   5.339   2.653   2.658  0.1115 -1.3099 -0.5001
 6880TIP3   OH220603   5.005   3.595   5.355  0.1602  0.2389 -0.1454
 6880TIP3    H120604   5.020   3.595   5.450  1.0834 -1.3085 -0.2574
 6880TIP3    H220605   5.072   3.652   5.319  0.5436 -0.0848  0.0494
 6881TIP3   OH220606   4.302   5.489   3.483 -0.2358  0.5743  0.3847
 6881TIP3    H120607   4.221   5.516   3.440 -1.1485  0.3324  1.8887
 6881TIP3    H220608   4.281   5.405   3.524  1.5774 -0.8757 -1.4039
 6882TIP3   OH220609   7.075   6.725   5.846  0.3906 -0.4459  0.8225
 6882TIP3    H120610   7.118   6.699   5.764  0.1485  0.6226  0.3425
 6882TIP3    H220611   6.982   6.727   5.825  0.4553  1.8065  0.5058
 6883TIP3   OH220612   3.356   3.170   0.053  0.9180  0.0804  0.0135
 6883TIP3    H120613   3.434   3.116   0.069 -0.1745 -1.8441 -0.7524
 6883TIP3    H220614   3.317   3.182   0.139 -0.8896 -3.8177 -0.0058
 6884TIP3   OH220615   2.927   5.568   5.071  0.1063 -0.3489 -0.5848
 6884TIP3    H120616   2.992   5.579   5.140 -0.0684  2.0975 -0.7004
 6884TIP3    H220617   2.843   5.579   5.115 -0.0422  0.2897 -1.0119
 6885TIP3   OH220618   6.200   5.766   1.657 -0.1539 -0.7725 -0.0226
 6885TIP3    H120619   6.208   5.734   1.747 -1.1164  0.8224  0.6719
 6885TIP3    H220620   6.280   5.818   1.643 -0.9652  0.7586  0.7239
 6886TIP3   OH220621   3.693   5.234   4.487  0.9574  0.3969  0.0848
 6886TIP3    H120622   3.688   5.257   4.580 -1.7543 -1.4390  0.5215
 6886TIP3    H220623   3.646   5.151   4.481 -0.1884  1.1407 -3.1115
 6887TIP3   OH220624   1.741   4.883   3.202 -0.3772  0.5510  0.0399
 6887TIP3    H120625   1.825   4.846   3.230  0.0462 -0.9199 -2.7646
 6887TIP3    H220626   1.675   4.824   3.238 -0.1024  0.6620  0.7386
 6888TIP3   OH220627   5.953   6.011   2.799  0.3726 -0.1409 -0.0972
 6888TIP3    H120628   5.875   6.059   2.772  0.0022 -0.0382  1.0883
 6888TIP3    H220629   6.026   6.071   2.781 -0.1635  1.3933  2.3459
 6889TIP3   OH220630   5.530   3.625   2.921  0.2784  0.0054  0.2170
 6889TIP3    H120631   5.602   3.670   2.876  1.5016 -0.5243  1.5698
 6889TIP3    H220632   5.508   3.552   2.863  0.9314  0.0911 -0.1541
 6890TIP3   OH220633   3.969   4.527   2.868 -0.1817  0.3285 -0.2285
 6890TIP3    H120634   3.884   4.560   2.840  0.0059  1.1703  0.1430
 6890TIP3    H220635   4.030   4.557   2.800 -0.2604 -0.8101 -0.8232
 6891TIP3   OH220636   4.332   0.614   2.317 -0.1832  0.7809 -0.4753
 6891TIP3    H120637   4.239   0.622   2.337 -0.0504  0.1358  0.4403
 6891TIP3    H220638   4.337   0.622   2.221 -1.2369  0.2075 -0.5866
 6892TIP3   OH220639   2.439   0.054   5.618  0.1161  0.0152 -0.1995
 6892TIP3    H120640   2.421  -0.031   5.577 -0.2110  0.2423 -0.5277
 6892TIP3    H220641   2.505   0.094   5.563 -1.5564  1.0673 -1.5458
 6893TIP3   OH220642   1.354   4.827   1.759  0.1426  0.2343  0.0378
 6893TIP3    H120643   1.332   4.900   1.700  0.5792  1.1984  1.0367
 6893TIP3    H220644   1.446   4.809   1.742 -0.4443 -1.4716 -1.6468
 6894TIP3   OH220645   2.112   3.785   1.867  0.0842  0.3300 -0.2910
 6894TIP3    H120646   2.022   3.817   1.856 -0.2114 -0.3252  0.1644
 6894TIP3    H220647   2.151   3.846   1.930 -0.5900 -0.3741  0.8511
 6895TIP3   OH220648   6.615   2.616   3.578 -0.1534 -0.0295 -0.1058
 6895TIP3    H120649   6.523   2.592   3.563  0.3184 -2.0106 -0.0809
 6895TIP3    H220650   6.626   2.609   3.672 -0.4108  2.0552  0.1256
 6896TIP3   OH220651   3.153   0.785   2.134 -0.4648 -0.2715 -0.5150
 6896TIP3    H120652   3.192   0.710   2.179 -0.8630  0.4520  1.1415
 6896TIP3    H220653   3.172   0.771   2.042  0.0720 -2.0427 -0.1700
 6897TIP3   OH220654   3.321   1.827   3.727 -0.4714 -0.0409 -0.2033
 6897TIP3    H120655   3.339   1.733   3.735  1.9496  0.4907  2.1046
 6897TIP3    H220656   3.314   1.858   3.817 -3.6831  1.6851 -0.9173
 6898TIP3   OH220657   2.459   3.408   1.378 -0.0931 -0.2596  0.5896
 6898TIP3    H120658   2.485   3.469   1.309 -1.3950 -2.1284 -1.7028
 6898TIP3    H220659   2.534   3.349   1.386  0.1528  0.0981  0.9768
 6899TIP3   OH220660   6.018   0.572   4.946 -0.0161  0.2519  0.3880
 6899TIP3    H120661   5.990   0.635   5.012  1.0702  0.4935  0.6324
 6899TIP3    H220662   6.056   0.499   4.996  1.6314  0.8283  0.0532
 6900TIP3   OH220663   4.587   3.380   3.495  0.1478 -0.1144 -0.1538
 6900TIP3    H120664   4.610   3.454   3.552  0.9906 -0.2556 -0.2989
 6900TIP3    H220665   4.658   3.376   3.431 -1.1655  0.5216 -1.7240
 6901TIP3   OH220666   4.775   2.624   0.774 -0.2057  0.0121  0.5508
 6901TIP3    H120667   4.792   2.530   0.769 -0.8851 -0.1794  1.4880
 6901TIP3    H220668   4.818   2.651   0.855  1.4718  0.8728 -0.5670
 6902TIP3   OH220669   4.808   0.184   1.561 -0.0010 -0.3312 -0.1346
 6902TIP3    H120670   4.763   0.213   1.640  3.1049  1.1725  1.2336
 6902TIP3    H220671   4.806   0.259   1.503  1.4653  0.0970  0.3280
 6903TIP3   OH220672   2.522   2.709   1.884 -0.2629  0.2606  0.1904
 6903TIP3    H120673   2.503   2.773   1.953 -1.8951 -0.7705  0.7683
 6903TIP3    H220674   2.593   2.655   1.921 -0.0518  0.6855  0.4090
 6904TIP3   OH220675   7.111   1.134   3.561  0.2686 -0.0611  0.4201
 6904TIP3    H120676   7.066   1.091   3.634 -1.9442  0.8717 -0.3105
 6904TIP3    H220677   7.063   1.105   3.483  2.8919 -1.4772 -0.8302
 6905TIP3   OH220678   0.471   4.330   3.945  0.1285 -0.0318 -0.1505
 6905TIP3    H120679   0.538   4.303   3.883  1.1261  0.3828  0.7221
 6905TIP3    H220680   0.391   4.335   3.893  0.9923  0.5920 -1.4664
 6906TIP3   OH220681   6.452   0.674   0.879  0.1371  0.6415 -0.6303
 6906TIP3    H120682   6.392   0.648   0.949 -0.4998  0.1226 -1.3437
 6906TIP3    H220683   6.487   0.592   0.845  2.3665  0.9911  0.6859
 6907TIP3   OH220684   4.166   1.511   5.532  0.2225  0.3544 -0.3342
 6907TIP3    H120685   4.184   1.416   5.528  1.7883  0.6648 -2.5954
 6907TIP3    H220686   4.114   1.522   5.612  1.1474 -2.2279  0.7430
 6908TIP3   OH220687   2.096   4.009   0.860 -0.1790 -0.0761 -0.2848
 6908TIP3    H120688   2.026   4.057   0.816  1.0099  0.5054 -1.6171
 6908TIP3    H220689   2.176   4.041   0.819  0.7621 -2.0104 -0.0677
 6909TIP3   OH220690   4.474   1.391   1.805 -0.5010 -0.3014 -0.0450
 6909TIP3    H120691   4.396   1.383   1.861 -1.6895 -1.5265 -1.7716
 6909TIP3    H220692   4.439   1.406   1.717  1.1526 -1.8853 -1.0348
 6910TIP3   OH220693   0.831   0.767   3.329  0.8852  0.1271  0.2361
 6910TIP3    H120694   0.786   0.846   3.300  0.2497  0.3754  1.8020
 6910TIP3    H220695   0.923   0.791   3.330  0.6880  0.9125  0.8371
 6911TIP3   OH220696   4.895   4.853   0.384  0.3197 -0.2382  0.4442
 6911TIP3    H120697   4.909   4.840   0.478  0.3605  0.8240  0.6045
 6911TIP3    H220698   4.938   4.779   0.342  2.4137  0.4855  1.1522
 6912TIP3   OH220699   5.861   4.432   4.749  0.0616  0.2190 -0.6218
 6912TIP3    H120700   5.910   4.355   4.721  0.6282 -0.2119  1.4011
 6912TIP3    H220701   5.928   4.496   4.773 -0.4060  1.1986 -1.8471
 6913TIP3   OH220702   2.453   5.065   2.320  0.0013 -0.5739  0.1814
 6913TIP3    H120703   2.408   4.996   2.272  0.6496 -1.1363  0.3602
 6913TIP3    H220704   2.503   5.112   2.253  1.6372 -1.9301  0.3765
 6914TIP3   OH220705   1.225   5.488   0.889  0.1212  0.0607  0.2638
 6914TIP3    H120706   1.167   5.508   0.962  0.5830  2.0112  0.1551
 6914TIP3    H220707   1.166   5.478   0.814 -0.3744 -2.1656  0.8730
 6915TIP3   OH220708   0.948   6.547   3.257  0.1873 -0.2002  0.0661
 6915TIP3    H120709   0.944   6.534   3.162 -1.9962  0.9606 -0.0642
 6915TIP3    H220710   0.936   6.641   3.269 -0.0459 -0.3910  1.5084
 6916TIP3   OH220711   3.655   4.946   4.559  0.1399 -0.4035 -0.2342
 6916TIP3    H120712   3.749   4.956   4.572  0.1575 -1.2585  0.3336
 6916TIP3    H220713   3.621   4.927   4.646 -0.6043  0.1760 -0.3856
 6917TIP3   OH220714   2.301   4.393   0.992  0.1017  0.4017 -0.2265
 6917TIP3    H120715   2.380   4.338   0.992 -0.6018 -0.6258 -0.5320
 6917TIP3    H220716   2.275   4.397   0.900  0.0418  1.1202 -0.1873
 6918TIP3   OH220717   3.343   4.251   5.729  0.2686  0.3517 -0.1421
 6918TIP3    H120718   3.420   4.197   5.749  0.6244  0.6012 -0.7850
 6918TIP3    H220719   3.307   4.213   5.649 -0.0399  0.4786 -0.0640
 6919TIP3   OH220720   5.086   1.522   0.895 -0.5273  0.0902 -0.5720
 6919TIP3    H120721   5.008   1.489   0.939  0.1010 -0.9787 -0.2337
 6919TIP3    H220722   5.084   1.481   0.808 -0.0265 -0.4530 -0.3390
 6920TIP3   OH220723   3.876   0.984   0.448 -0.5789 -0.1789  0.9700
 6920TIP3    H120724   3.905   1.000   0.358 -1.3736  1.8527  1.0293
 6920TIP3    H220725   3.949   0.938   0.488  0.3235  0.0166 -0.3596
 6921TIP3   OH220726   5.080   0.627   0.251  0.4463  0.1615  1.4828
 6921TIP3    H120727   4.989   0.630   0.221  0.5247 -0.2342  1.1953
 6921TIP3    H220728   5.075   0.589   0.339  0.2911  0.5642  1.6480
 6922TIP3   OH220729   3.483   0.217   4.454 -0.4038  0.6977 -0.3333
 6922TIP3    H120730   3.393   0.199   4.480  0.2624 -1.7669  0.6203
 6922TIP3    H220731   3.534   0.207   4.535  0.7453  2.1390 -0.8273
 6923TIP3   OH220732   3.537   1.793   5.441 -0.5461 -0.1250 -0.0039
 6923TIP3    H120733   3.511   1.756   5.357 -1.5762  1.0013 -0.2113
 6923TIP3    H220734   3.489   1.740   5.506  1.2492 -1.8408  0.0099
 6924TIP3   OH220735   2.278   0.458   3.892 -0.3416  0.7369  0.5936
 6924TIP3    H120736   2.197   0.481   3.846  1.5101  2.6591 -2.0030
 6924TIP3    H220737   2.313   0.384   3.842  0.1901  0.8467  0.8029
 6925TIP3   OH220738   2.484   5.321   5.559 -0.2206  0.4015 -0.2848
 6925TIP3    H120739   2.522   5.235   5.539  1.7069  1.2682 -0.5521
 6925TIP3    H220740   2.416   5.302   5.624 -0.1499 -1.3763 -0.6799
 6926TIP3   OH220741   1.564   6.504   2.446 -0.0715  0.0884  0.2489
 6926TIP3    H120742   1.558   6.597   2.424 -0.6656  0.0031  0.0488
 6926TIP3    H220743   1.549   6.501   2.541  0.4488  0.2400  0.3437
 6927TIP3   OH220744   6.575   2.993   5.899 -0.6389 -0.1975 -0.0413
 6927TIP3    H120745   6.495   2.954   5.862 -0.1699 -0.1449 -1.1363
 6927TIP3    H220746   6.644   2.930   5.879 -0.1473  0.4540 -0.4353
 6928TIP3   OH220747   3.391   3.448   2.913 -0.1165 -0.4717 -0.3219
 6928TIP3    H120748   3.299   3.473   2.919 -0.3395 -1.0880 -1.0270
 6928TIP3    H220749   3.432   3.517   2.862 -0.6574 -1.2997 -1.9528
 6929TIP3   OH220750   4.157   5.901   3.445  0.5141  0.1949 -0.1278
 6929TIP3    H120751   4.089   5.889   3.511  0.2344 -0.8986 -0.5838
 6929TIP3    H220752   4.141   5.831   3.381  2.1095 -0.1436 -0.2038
 6930TIP3   OH220753   1.907   1.706   1.580 -0.5658 -0.3118 -0.4776
 6930TIP3    H120754   2.001   1.717   1.567 -0.7195 -0.8974 -2.4603
 6930TIP3    H220755   1.868   1.787   1.546 -0.7989 -0.1053  0.2579
 6931TIP3   OH220756   5.558   0.469   5.403 -0.6626 -0.8960  0.1926
 6931TIP3    H120757   5.644   0.485   5.440  0.0905  0.0810 -1.8365
 6931TIP3    H220758   5.573   0.406   5.332 -1.4234  0.0247 -0.8271
 6932TIP3   OH220759   5.440   3.977   3.953  0.0302 -0.2404  0.0316
 6932TIP3    H120760   5.478   3.889   3.945  0.9245  0.1768 -0.5276
 6932TIP3    H220761   5.345   3.963   3.949  0.1384 -1.2428  0.7215
 6933TIP3   OH220762   7.000   6.676   3.256  0.4713  0.0410 -0.6499
 6933TIP3    H120763   7.039   6.762   3.241  0.6499  0.2071  0.6523
 6933TIP3    H220764   7.071   6.623   3.291  0.1359 -0.3699 -0.5756
 6934TIP3   OH220765   5.828   5.919   3.038  0.2941 -0.4791 -0.3500
 6934TIP3    H120766   5.884   5.915   3.115 -0.4459 -1.4806  0.1580
 6934TIP3    H220767   5.885   5.953   2.969  1.6955 -2.0023 -0.0062
 6935TIP3   OH220768   0.247   3.896   4.614  0.4341  0.3207  0.2951
 6935TIP3    H120769   0.297   3.918   4.536  0.1422  1.2732  0.3622
 6935TIP3    H220770   0.299   3.931   4.686 -0.2145  1.1558  0.3778
 6936TIP3   OH220771   4.043   4.863   0.890 -0.4282  0.9587 -0.3878
 6936TIP3    H120772   4.115   4.924   0.875  0.2487  0.0115 -1.0566
 6936TIP3    H220773   4.067   4.784   0.843 -1.3046  0.1637  0.4378
 6937TIP3   OH220774   2.833   0.628   0.234  0.0798 -0.2985 -0.3215
 6937TIP3    H120775   2.865   0.545   0.270 -1.9125 -1.1926 -0.4762
 6937TIP3    H220776   2.743   0.636   0.267 -0.0914  1.3466 -1.0689
 6938TIP3   OH220777   6.246   4.041   4.356 -0.1138 -0.1053 -0.2416
 6938TIP3    H120778   6.281   3.960   4.393 -1.0436  0.6121  2.4888
 6938TIP3    H220779   6.306   4.109   4.388 -1.4584  0.6435  0.8506
 6939TIP3   OH220780   1.910   6.655   5.506 -0.2283 -0.0746 -0.6576
 6939TIP3    H120781   1.988   6.710   5.516  0.0149 -0.6791  1.1568
 6939TIP3    H220782   1.896   6.650   5.411  1.0466  1.2661 -0.9571
 6940TIP3   OH220783   3.328   1.868   2.129 -0.0892 -0.5634  0.0443
 6940TIP3    H120784   3.302   1.778   2.145 -0.8279 -0.1784  1.1735
 6940TIP3    H220785   3.248   1.919   2.142  0.6939  0.4227  1.2947
 6941TIP3   OH220786   4.200   2.720   0.230 -0.0995  0.4356  0.4755
 6941TIP3    H120787   4.132   2.787   0.229 -0.6411 -0.0804  1.3436
 6941TIP3    H220788   4.217   2.704   0.323  0.9086  0.2580  0.2694
 6942TIP3   OH220789   6.039   4.431   5.287  0.1359  0.2516 -0.6589
 6942TIP3    H120790   6.040   4.484   5.367  1.1460 -0.2026 -0.3507
 6942TIP3    H220791   5.947   4.419   5.267 -0.1359  0.2940  0.5002
 6943TIP3   OH220792   3.017   5.817   2.674 -0.0040  0.3442  0.6347
 6943TIP3    H120793   3.061   5.733   2.683 -1.5340 -0.4196  1.3432
 6943TIP3    H220794   3.078   5.880   2.711  1.2239 -0.4066 -0.0302
 6944TIP3   OH220795   6.204   3.142   5.429 -0.6467  0.7975 -0.1063
 6944TIP3    H120796   6.122   3.191   5.427 -1.5013 -0.4473  1.5764
 6944TIP3    H220797   6.177   3.050   5.438  0.9244  0.3113 -0.0190
 6945TIP3   OH220798   5.806   0.391   0.581  0.5255  0.4601  0.2630
 6945TIP3    H120799   5.746   0.372   0.509  0.9372 -1.0766  0.2970
 6945TIP3    H220800   5.881   0.434   0.540 -0.0844  1.3544  0.0635
 6946TIP3   OH220801   4.157   0.618   5.206  0.0448 -0.1034  0.1631
 6946TIP3    H120802   4.201   0.628   5.121  0.6200  2.4864  0.6690
 6946TIP3    H220803   4.145   0.524   5.216  0.4958 -0.5271 -2.5124
 6947TIP3   OH220804   2.323   0.507   3.150  0.0233  0.2095 -0.5104
 6947TIP3    H120805   2.393   0.514   3.215  0.4637  2.2096 -1.1369
 6947TIP3    H220806   2.243   0.506   3.202  0.4026  0.8114  0.1069
 6948TIP3   OH220807   3.170   0.499   0.937  0.4854  0.0219 -0.4205
 6948TIP3    H120808   3.134   0.410   0.932 -2.3065  0.9677  0.5375
 6948TIP3    H220809   3.247   0.490   0.992 -0.4980 -1.6553  0.8048
 6949TIP3   OH220810   0.020   5.127   1.542 -0.1182 -0.0350 -0.6934
 6949TIP3    H120811  -0.010   5.152   1.629  0.2155  1.0270 -0.8620
 6949TIP3    H220812   0.038   5.211   1.498  0.8083 -0.5761 -1.3925
 6950TIP3   OH220813   5.157   4.194   0.105  0.1017 -0.0001 -0.1483
 6950TIP3    H120814   5.209   4.199   0.185  1.3282 -0.2665 -0.9103
 6950TIP3    H220815   5.175   4.107   0.069  0.2379  0.4236 -1.1493
 6951TIP3   OH220816   1.993   0.173   4.562  0.7003  0.3295  0.2804
 6951TIP3    H120817   1.992   0.120   4.641  1.0350  0.8613  0.6523
 6951TIP3    H220818   2.075   0.223   4.568  1.3399 -0.5231 -1.0072
 6952TIP3   OH220819   3.421   0.348   3.886  0.1546  0.3300 -0.2096
 6952TIP3    H120820   3.509   0.342   3.923  0.8565  1.8874 -1.4852
 6952TIP3    H220821   3.421   0.286   3.813  0.4133  0.7304 -0.5594
 6953TIP3   OH220822   6.392   4.473   4.689 -0.3099 -0.3333 -0.0837
 6953TIP3    H120823   6.408   4.435   4.775 -0.0026 -1.3906 -0.5902
 6953TIP3    H220824   6.472   4.455   4.639 -0.2115  0.8713 -0.3901
 6954TIP3   OH220825   1.255   3.025   1.664  0.5405 -0.1601  0.1803
 6954TIP3    H120826   1.211   2.940   1.668  1.7704 -0.8723 -0.6168
 6954TIP3    H220827   1.316   3.024   1.738 -0.6782  0.7936  1.2426
 6955TIP3   OH220828   3.625   2.298   0.583  0.1029  0.1556 -0.5023
 6955TIP3    H120829   3.631   2.216   0.632  0.5196  0.3862 -0.1571
 6955TIP3    H220830   3.715   2.327   0.573 -0.0681  0.8198 -0.1889
 6956TIP3   OH220831   3.940   5.420   5.824  0.1668 -0.6453 -0.2634
 6956TIP3    H120832   3.949   5.427   5.729 -0.1078 -0.9118 -0.3137
 6956TIP3    H220833   3.977   5.335   5.845  0.8598 -0.2884 -0.0402
 6957TIP3   OH220834   4.001   5.132   5.812 -0.5125  0.2937  0.0883
 6957TIP3    H120835   4.049   5.120   5.894 -0.3999 -0.3870 -0.0680
 6957TIP3    H220836   4.058   5.095   5.745 -0.5257  1.0069 -0.3254
 6958TIP3   OH220837   4.458   1.561   0.819  0.3647 -0.0398  0.0599
 6958TIP3    H120838   4.420   1.473   0.817  0.0973  0.0522  0.8570
 6958TIP3    H220839   4.474   1.582   0.727 -0.5182 -0.5149 -0.2121
 6959TIP3   OH220840   4.639   0.926   0.124 -0.8234  0.0487 -0.2943
 6959TIP3    H120841   4.715   0.983   0.139 -0.8702 -0.1777  0.9183
 6959TIP3    H220842   4.569   0.986   0.099 -0.8128  0.5236  0.7522
 6960TIP3   OH220843   4.258   3.103   4.174 -0.0215  0.0813 -0.3182
 6960TIP3    H120844   4.166   3.107   4.145  0.1260  0.1718 -0.7785
 6960TIP3    H220845   4.263   3.022   4.225 -0.8143  1.0323  1.3333
 6961TIP3   OH220846   3.872   5.830   3.457  0.2110  0.1825  0.3038
 6961TIP3    H120847   3.895   5.741   3.484  0.0921  0.3828  1.0821
 6961TIP3    H220848   3.854   5.876   3.539 -0.5134  0.7056 -0.1347
 6962TIP3   OH220849   5.225   3.804   5.437 -0.0471 -0.4928 -0.5161
 6962TIP3    H120850   5.277   3.881   5.458 -0.6874 -0.5115  1.2895
 6962TIP3    H220851   5.139   3.821   5.476 -0.5254 -1.6735 -0.9870
 6963TIP3   OH220852   2.113   5.154   4.512  0.4977 -0.3563  0.3797
 6963TIP3    H120853   2.114   5.131   4.604 -1.5777  0.4937  0.6582
 6963TIP3    H220854   2.039   5.213   4.502  1.4283  0.5995 -1.6026
 6964TIP3   OH220855   4.054   5.747   5.017  0.0227  0.3858  0.2108
 6964TIP3    H120856   4.129   5.706   5.061 -0.3952  1.4224  2.0069
 6964TIP3    H220857   4.075   5.743   4.924  2.5394  1.0813  0.6867
 6965TIP3   OH220858   1.158   4.171   4.360 -0.3233  0.8912  0.6499
 6965TIP3    H120859   1.183   4.138   4.274 -0.6206 -1.6641  1.4463
 6965TIP3    H220860   1.074   4.214   4.346 -0.2044  0.8086 -0.3859
 6966TIP3   OH220861   1.944   0.103   1.143 -0.5168  0.5663  0.2635
 6966TIP3    H120862   1.940   0.197   1.160  0.7443  0.6042  0.4029
 6966TIP3    H220863   2.015   0.093   1.080  0.4622 -0.4448  1.4842
 6967TIP3   OH220864   5.322   3.695   3.907 -0.5251  0.0810  0.6359
 6967TIP3    H120865   5.401   3.693   3.852 -0.8742  2.0156 -0.0153
 6967TIP3    H220866   5.268   3.623   3.874 -0.1884  0.4406 -0.7723
 6968TIP3   OH220867   6.119   1.234   4.843  0.4867  0.1224 -0.0039
 6968TIP3    H120868   6.128   1.319   4.886  2.0093  0.7496 -1.4259
 6968TIP3    H220869   6.031   1.235   4.806  0.6571  1.3475 -0.4529
 6969TIP3   OH220870   1.860   2.870   5.662 -0.1922  0.0517 -0.5416
 6969TIP3    H120871   1.860   2.828   5.748 -0.1869  0.2209 -0.4580
 6969TIP3    H220872   1.797   2.820   5.610 -2.1686  1.5067  0.3355
 6970TIP3   OH220873   1.768   2.526   5.651 -0.1612 -0.8417  0.4266
 6970TIP3    H120874   1.733   2.589   5.589 -1.2758 -1.4293  0.4348
 6970TIP3    H220875   1.798   2.579   5.725 -1.4433 -0.3246  0.6090
 6971TIP3   OH220876   3.286   5.392   0.902  0.5963 -0.4608 -0.0425
 6971TIP3    H120877   3.224   5.415   0.833 -1.2357 -1.6106  1.1549
 6971TIP3    H220878   3.301   5.474   0.949  0.0655 -0.1480 -0.4074
 6972TIP3   OH220879   1.623   0.836   0.894  0.7064  0.0000  0.5622
 6972TIP3    H120880   1.622   0.857   0.800  0.2493  1.2438  0.8309
 6972TIP3    H220881   1.675   0.906   0.934  0.3366 -0.1479  1.3209
 6973TIP3   OH220882   5.080   4.459   0.409 -0.0443  0.3763  0.5685
 6973TIP3    H120883   4.987   4.456   0.386 -0.5300  1.2206  2.2435
 6973TIP3    H220884   5.116   4.526   0.352 -0.1698 -0.8243 -0.9714
 6974TIP3   OH220885   5.580   1.991   3.119 -0.2438  0.4697 -0.8297
 6974TIP3    H120886   5.609   2.070   3.163  1.3357 -0.0213 -0.9234
 6974TIP3    H220887   5.491   1.976   3.152  0.0512  1.3578  0.4361
 6975TIP3   OH220888   6.635   1.388   5.452 -0.4069 -0.1510 -0.4710
 6975TIP3    H120889   6.543   1.366   5.437 -0.0854 -0.8287 -1.5067
 6975TIP3    H220890   6.639   1.407   5.546 -1.5345 -0.4451 -0.3427
 6976TIP3   OH220891   6.616   5.928   5.136  0.6665 -0.1130  0.7021
 6976TIP3    H120892   6.688   5.869   5.115 -0.2275 -1.6049  1.6568
 6976TIP3    H220893   6.565   5.934   5.055  1.8414  0.9835  0.0118
 6977TIP3   OH220894   7.131   1.828   5.302  0.6196 -0.3408  0.5434
 6977TIP3    H120895   7.175   1.747   5.278  1.1908  0.3627 -0.8823
 6977TIP3    H220896   7.052   1.799   5.348  0.6069 -1.7219 -0.2752
 6978TIP3   OH220897   3.599   2.861   5.022  0.1068  0.5814  0.4120
 6978TIP3    H120898   3.683   2.885   5.061  0.7029 -1.7768  0.6915
 6978TIP3    H220899   3.544   2.837   5.097  0.3027 -1.1215  0.0509
 6979TIP3   OH220900   0.755   3.380   1.688  0.0837  0.0799 -0.4098
 6979TIP3    H120901   0.734   3.433   1.765 -1.4489 -0.9115 -0.1022
 6979TIP3    H220902   0.710   3.297   1.702  1.6476 -0.9930 -1.3215
 6980TIP3   OH220903   4.094   1.058   2.326 -1.0768  0.0484 -0.1247
 6980TIP3    H120904   4.182   1.022   2.320 -0.7656  0.6966  0.3873
 6980TIP3    H220905   4.102   1.131   2.388 -2.4300 -1.2842  1.7358
 6981TIP3   OH220906   6.096   6.723   3.430 -0.0056 -0.6479 -0.3464
 6981TIP3    H120907   6.105   6.628   3.444 -1.6599 -0.7437  0.3434
 6981TIP3    H220908   6.012   6.732   3.385 -0.1651  0.5284  0.1618
 6982TIP3   OH220909   6.443   1.644   5.373  0.2951  0.1379  0.2030
 6982TIP3    H120910   6.359   1.604   5.394  0.7418 -1.5248 -0.9687
 6982TIP3    H220911   6.496   1.634   5.452 -0.6308  1.3938  1.0267
 6983TIP3   OH220912   1.168   2.560   2.008 -0.6568 -0.1622 -0.3652
 6983TIP3    H120913   1.128   2.505   2.076 -1.8018  0.2642 -0.6854
 6983TIP3    H220914   1.216   2.627   2.057 -3.5855  1.7539  0.1548
 6984TIP3   OH220915   4.859   3.953   2.647  0.1437  0.6980  0.3111
 6984TIP3    H120916   4.904   3.889   2.592  0.7273  1.4027 -0.0467
 6984TIP3    H220917   4.905   3.949   2.731  0.6737  1.1798  0.0499
 6985TIP3   OH220918   2.828   0.261   5.215 -0.7695  1.0469  0.1250
 6985TIP3    H120919   2.812   0.220   5.300  0.5500  0.9324  0.3475
 6985TIP3    H220920   2.919   0.238   5.195 -1.1861  0.7104 -1.5263
 6986TIP3   OH220921   0.184   5.361   4.199  0.4854 -0.0248  0.3180
 6986TIP3    H120922   0.117   5.424   4.170  0.6319  0.5904  1.2600
 6986TIP3    H220923   0.267   5.406   4.182  0.6350 -0.4730 -0.1381
 6987TIP3   OH220924   3.476   5.091   0.095  0.3914  0.1469  0.1364
 6987TIP3    H120925   3.557   5.132   0.125  0.2518  0.6230 -0.1177
 6987TIP3    H220926   3.445   5.040   0.170  1.9908 -1.7371 -0.3957
 6988TIP3   OH220927   2.899   6.229   0.256 -0.1698 -0.4598  0.8410
 6988TIP3    H120928   2.985   6.214   0.217 -0.5429 -1.1795  0.2790
 6988TIP3    H220929   2.917   6.284   0.332  0.7666 -0.4552  0.6313
 6989TIP3   OH220930   5.528   4.392   1.061 -0.7993  0.3641  0.8561
 6989TIP3    H120931   5.583   4.441   1.122  0.1479  2.2405 -1.3684
 6989TIP3    H220932   5.439   4.424   1.078 -0.5029  1.0903  1.0765
 6990TIP3   OH220933   6.667   1.074   3.866  0.3756 -0.4733  0.4628
 6990TIP3    H120934   6.606   1.085   3.939  0.1902 -2.4559  0.6422
 6990TIP3    H220935   6.614   1.094   3.788  0.5544  1.5688  0.7902
 6991TIP3   OH220936   1.227   6.311   4.451  0.3026 -0.6244 -0.4488
 6991TIP3    H120937   1.136   6.284   4.461  0.3959 -1.9408 -2.5599
 6991TIP3    H220938   1.240   6.318   4.357  2.2794 -0.0547 -0.1787
 6992TIP3   OH220939   5.417   3.272   5.529 -0.6998 -0.6765 -0.2735
 6992TIP3    H120940   5.375   3.198   5.572 -0.1816 -1.3414 -0.9054
 6992TIP3    H220941   5.345   3.321   5.490 -0.9125 -1.8542 -1.4243
 6993TIP3   OH220942   5.393   6.462   1.811  0.0251 -0.3425  0.2629
 6993TIP3    H120943   5.372   6.494   1.724  0.1883 -0.8239  0.0415
 6993TIP3    H220944   5.361   6.529   1.870  0.7613  0.4382 -0.2033
 6994TIP3   OH220945   7.205   3.696   3.622  0.0279  0.0711 -0.0402
 6994TIP3    H120946   7.245   3.758   3.562 -0.1697  0.5648  0.3323
 6994TIP3    H220947   7.167   3.750   3.691  2.4415 -0.5710  1.9372
 6995TIP3   OH220948   3.838   0.650   2.675  0.0993 -0.7937  0.5139
 6995TIP3    H120949   3.909   0.616   2.729  0.5670 -0.3727  0.1773
 6995TIP3    H220950   3.857   0.744   2.667 -0.9966 -0.4857  1.1849
 6996TIP3   OH220951   5.288   1.619   3.192  0.5544  0.3350  0.2817
 6996TIP3    H120952   5.329   1.672   3.260  0.6215 -0.1171  0.5900
 6996TIP3    H220953   5.347   1.626   3.117  2.6296 -2.4418  1.5205
 6997TIP3   OH220954   3.579   5.618   2.642 -0.2990  0.2547  0.1506
 6997TIP3    H120955   3.657   5.670   2.620 -0.3648  1.0828  1.6685
 6997TIP3    H220956   3.529   5.612   2.561  1.2700 -0.1710 -0.8235
 6998TIP3   OH220957   5.326   2.774   3.907 -0.6589  0.6581  0.2693
 6998TIP3    H120958   5.338   2.816   3.822  1.0180  0.7590  0.5150
 6998TIP3    H220959   5.276   2.695   3.889 -1.2769  1.2453 -0.6428
 6999TIP3   OH220960   2.548   1.747   0.801 -0.3012  0.2271 -0.5187
 6999TIP3    H120961   2.620   1.735   0.863 -0.5243 -1.2613 -0.4936
 6999TIP3    H220962   2.577   1.701   0.722  0.5354  3.1691 -2.0574
 7000TIP3   OH220963   1.177   6.294   0.442  0.1591  0.1135  0.0732
 7000TIP3    H120964   1.235   6.221   0.460  0.9697  0.5201 -0.8231
 7000TIP3    H220965   1.235   6.368   0.422 -0.6486  0.7960  0.1600
 7001TIP3   OH220966   0.153   5.433   5.155 -0.2102 -0.1367 -0.2046
 7001TIP3    H120967   0.199   5.502   5.106  2.4247 -0.0638  2.1247
 7001TIP3    H220968   0.151   5.358   5.095  0.3306  0.7923 -1.4180
 7002TIP3   OH220969   4.220   4.919   3.509  0.5705 -0.0627 -0.1067
 7002TIP3    H120970   4.218   4.844   3.448 -0.4458  0.6547 -0.9826
 7002TIP3    H220971   4.131   4.953   3.508  0.6387  0.2508  1.4753
 7003TIP3   OH220972   2.994   1.267   2.025 -0.6143  0.0953  0.3760
 7003TIP3    H120973   2.921   1.329   2.031  0.7620  1.6521  1.8113
 7003TIP3    H220974   2.956   1.190   1.981 -3.0650  0.9036  0.9269
 7004TIP3   OH220975   2.528   6.374   4.441  0.7042  0.1945 -0.5075
 7004TIP3    H120976   2.525   6.349   4.534  0.9261  1.0476 -0.2628
 7004TIP3    H220977   2.621   6.390   4.424  0.5222  1.3547 -0.5039
 7005TIP3   OH220978   2.816   0.088   2.862  0.7691 -0.1857  0.5637
 7005TIP3    H120979   2.753   0.139   2.914 -0.0586  0.7996 -1.2784
 7005TIP3    H220980   2.761   0.037   2.803  1.6320  1.0989 -1.4600
 7006TIP3   OH220981   2.327   3.608   2.988  0.2500  0.0443  0.2333
 7006TIP3    H120982   2.296   3.628   2.899  0.4948  0.4068  0.2284
 7006TIP3    H220983   2.252   3.565   3.030  0.6410 -1.6269 -0.6647
 7007TIP3   OH220984   5.803   6.552   4.631  0.9496  0.3278 -0.6029
 7007TIP3    H120985   5.851   6.525   4.552  1.4545  0.0797 -0.2191
 7007TIP3    H220986   5.790   6.646   4.620 -1.3644 -0.0988 -2.2513
 7008TIP3   OH220987   6.465   5.106   2.401  0.0670 -0.1358  0.1507
 7008TIP3    H120988   6.537   5.043   2.410 -0.3800 -0.5040  1.2728
 7008TIP3    H220989   6.401   5.061   2.346  0.1279 -0.3095  0.2213
 7009TIP3   OH220990   3.059   1.755   0.510  0.9233 -0.0323  1.0625
 7009TIP3    H120991   3.026   1.803   0.434  0.5627 -1.6815  0.1301
 7009TIP3    H220992   2.990   1.761   0.575  0.0770 -0.8105  0.2707
 7010TIP3   OH220993   6.077   2.217   4.852 -0.3640 -0.4701  0.3050
 7010TIP3    H120994   6.050   2.298   4.809  2.7399  0.1061 -0.8453
 7010TIP3    H220995   6.080   2.152   4.782 -0.8295 -1.0623  0.8229
 7011TIP3   OH220996   0.855   6.693   4.727  0.0938 -0.5548 -0.1641
 7011TIP3    H120997   0.874   6.599   4.728 -0.6638 -0.7992 -2.6573
 7011TIP3    H220998   0.916   6.730   4.664  0.1753  0.6019  0.5537
 7012TIP3   OH220999   6.157   6.268   0.556  0.3993  0.0325  0.2298
 7012TIP3    H121000   6.093   6.219   0.607 -0.3672  0.5673 -0.1965
 7012TIP3    H221001   6.108   6.343   0.522  0.9482 -0.1793 -1.0792
 7013TIP3   OH221002   0.875   2.280   4.152 -0.2012  0.6098  0.7189
 7013TIP3    H121003   0.962   2.244   4.133 -0.0782  0.6151  1.2612
 7013TIP3    H221004   0.829   2.277   4.068  0.5089  1.1262  0.2986
 7014TIP3   OH221005   4.787   6.238   2.663  0.1396  0.3021  0.3861
 7014TIP3    H121006   4.747   6.211   2.581  1.1984 -0.3952  0.0901
 7014TIP3    H221007   4.722   6.216   2.730 -0.0309 -0.7085 -0.0986
 7015TIP3   OH221008   2.859   4.444   5.505 -0.4134 -0.1621 -0.1202
 7015TIP3    H121009   2.920   4.397   5.561  0.8332  0.2032 -1.1405
 7015TIP3    H221010   2.904   4.525   5.483 -2.0978  1.1027  0.7615
 7016TIP3   OH221011   0.555   0.654   0.234 -0.3242  0.0855 -0.6171
 7016TIP3    H121012   0.593   0.576   0.192 -0.8587  0.0024 -0.9492
 7016TIP3    H221013   0.512   0.621   0.312 -1.1036 -0.0550 -1.0903
 7017TIP3   OH221014   6.342   4.354   5.910 -0.5633 -0.3022 -0.3573
 7017TIP3    H121015   6.376   4.428   5.858  0.8425 -0.2598  0.5566
 7017TIP3    H221016   6.386   4.278   5.872  0.8147 -0.2237  0.9807
 7018TIP3   OH221017   4.895   4.204   2.550  0.6587 -0.0033  0.1832
 7018TIP3    H121018   4.929   4.172   2.466 -0.1975 -0.6940  0.0855
 7018TIP3    H221019   4.870   4.125   2.597  1.5046  0.3493  1.2712
 7019TIP3   OH221020   5.461   2.515   1.768  0.2190  0.3744 -0.6066
 7019TIP3    H121021   5.429   2.481   1.852  1.0133  0.2479 -0.3434
 7019TIP3    H221022   5.391   2.495   1.706 -1.1453  2.0048  0.3395
 7020TIP3   OH221023   5.121   5.245   0.694  0.2000  0.6694 -0.3773
 7020TIP3    H121024   5.113   5.319   0.754 -0.5546  0.9348 -0.7771
 7020TIP3    H221025   5.032   5.234   0.659  0.2725 -0.5115 -0.2284
 7021TIP3   OH221026   7.017   5.271   5.073  0.3677  0.0882  0.2848
 7021TIP3    H121027   7.087   5.312   5.023  1.0199  0.1593  1.2401
 7021TIP3    H221028   6.941   5.327   5.059  0.9298  0.9297  0.5623
 7022TIP3   OH221029   6.429   1.867   4.267 -0.8508  0.4512  0.2917
 7022TIP3    H121030   6.430   1.904   4.356  1.7962  1.6730 -0.1421
 7022TIP3    H221031   6.504   1.807   4.266 -0.2178  1.2231 -1.3784
 7023TIP3   OH221032   4.588   2.919   4.866  0.0448 -0.2135 -0.4558
 7023TIP3    H121033   4.646   2.966   4.806  0.7219  0.1096  0.4227
 7023TIP3    H221034   4.571   2.835   4.823  1.1053 -0.2814 -0.7678
 7024TIP3   OH221035   6.178   2.446   4.398 -0.7068  0.2614  0.4665
 7024TIP3    H121036   6.111   2.403   4.451 -0.9914  0.8375  0.5811
 7024TIP3    H221037   6.228   2.497   4.460 -0.8088  0.6474  0.2330
 7025TIP3   OH221038   3.045   2.888   1.935  0.4268  0.0434  0.0417
 7025TIP3    H121039   2.978   2.847   1.879  1.0855 -1.1637  0.1038
 7025TIP3    H221040   2.994   2.938   1.999 -0.3629  0.6903 -1.0538
 7026TIP3   OH221041   6.435   6.628   2.909 -0.0789 -0.0830 -0.6286
 7026TIP3    H121042   6.516   6.659   2.868  1.0022 -0.5422  1.0384
 7026TIP3    H221043   6.429   6.536   2.885  0.0482 -0.1185 -0.5257
 7027TIP3   OH221044   7.000   2.087   3.697  0.0114  0.4272  0.9467
 7027TIP3    H121045   6.948   2.006   3.697 -0.2380  0.5283  2.7426
 7027TIP3    H221046   6.953   2.146   3.638 -0.0420 -0.5870 -0.0439
 7028TIP3   OH221047   5.947   5.383   3.222  0.3996 -0.4059 -0.0380
 7028TIP3    H121048   5.871   5.437   3.241 -0.4386 -2.3559  2.7432
 7028TIP3    H221049   5.922   5.330   3.146 -0.8688 -0.7331  0.5987
 7029TIP3   OH221050   6.010   2.364   5.851 -0.0185  0.4158  0.0337
 7029TIP3    H121051   6.015   2.272   5.825  2.7034  0.3191  0.5955
 7029TIP3    H221052   6.101   2.393   5.854 -0.4995  2.1399  3.2923
 7030TIP3   OH221053   7.142   0.708   1.098 -0.2875 -0.1962 -0.3309
 7030TIP3    H121054   7.134   0.788   1.151 -3.0540 -0.2263 -0.5387
 7030TIP3    H221055   7.228   0.672   1.122  0.5273  2.1775  0.6687
 7031TIP3   OH221056   4.983   3.693   0.001  0.2863 -0.5431 -0.2458
 7031TIP3    H121057   5.007   3.714   0.091  0.6292 -0.8811 -0.2559
 7031TIP3    H221058   4.888   3.709  -0.003  0.5910  1.5608 -0.4222
 7032TIP3   OH221059   4.361   3.492   0.560 -0.2357  0.1881  0.6159
 7032TIP3    H121060   4.453   3.519   0.557 -0.1106 -0.2730  0.1242
 7032TIP3    H221061   4.361   3.409   0.606 -0.3025 -0.1923 -0.0518
 7033TIP3   OH221062   6.293   6.362   4.637  0.0348  0.0226  0.4192
 7033TIP3    H121063   6.267   6.454   4.642  0.5460  0.1868  0.1613
 7033TIP3    H221064   6.248   6.320   4.710  0.3881  0.6261  0.9980
 7034TIP3   OH221065   0.997   5.005   1.546 -0.0381 -0.4283  0.0204
 7034TIP3    H121066   1.012   5.099   1.561 -1.5402 -0.2931  0.8807
 7034TIP3    H221067   1.085   4.968   1.540  0.6032  1.1546 -1.2400
 7035TIP3   OH221068   1.491   1.080   0.419 -0.4935 -0.1781 -0.2618
 7035TIP3    H121069   1.478   1.052   0.510  3.0896  0.7641  0.6953
 7035TIP3    H221070   1.457   1.008   0.366 -1.1086 -1.5276  1.8410
 7036TIP3   OH221071   5.471   6.182   2.129 -0.0673 -0.2516 -0.2763
 7036TIP3    H121072   5.393   6.140   2.166  0.7983 -1.8254 -0.1367
 7036TIP3    H221073   5.481   6.142   2.043 -1.3415  2.4751 -1.8021
 7037TIP3   OH221074   4.111   5.708   2.111  0.2708 -0.2609 -0.3542
 7037TIP3    H121075   4.065   5.685   2.030  0.8869  0.1779 -0.8388
 7037TIP3    H221076   4.157   5.789   2.090 -0.9772  0.8487  0.9693
 7038TIP3   OH221077   0.669   5.777   1.606 -0.2833 -0.0073  0.2414
 7038TIP3    H121078   0.675   5.745   1.516 -1.2768 -0.1889  0.2289
 7038TIP3    H221079   0.753   5.820   1.622  0.0131 -0.2284 -0.6729
 7039TIP3   OH221080   2.809   4.394   0.233 -0.3878 -0.0413  0.0238
 7039TIP3    H121081   2.754   4.341   0.291  0.4876  0.3347  1.2242
 7039TIP3    H221082   2.799   4.483   0.265 -0.8885  0.3633 -1.2199
 7040TIP3   OH221083   6.480   5.297   2.673 -0.0623 -0.3429  0.1286
 7040TIP3    H121084   6.523   5.343   2.744  0.5682  0.7444 -0.9330
 7040TIP3    H221085   6.463   5.209   2.708 -0.2551  0.3168  1.7856
 7041TIP3   OH221086   3.346   2.638   1.758 -1.0422  0.0401 -0.5451
 7041TIP3    H121087   3.292   2.694   1.702 -1.2183  1.2793  0.8306
 7041TIP3    H221088   3.296   2.557   1.766 -2.5882  1.0666  0.4841
 7042TIP3   OH221089   4.139   1.912   1.724 -0.3654  0.0792  0.6743
 7042TIP3    H121090   4.108   1.934   1.812 -0.5596 -2.2998  1.2885
 7042TIP3    H221091   4.137   1.816   1.722  2.7245 -0.0946 -0.7766
 7043TIP3   OH221092   2.352   2.449   2.916  0.2654  0.3868  0.1527
 7043TIP3    H121093   2.318   2.406   2.994  0.4870 -0.9708 -0.4740
 7043TIP3    H221094   2.314   2.400   2.843  1.1605  0.7557 -0.5778
 7044TIP3   OH221095   2.000   5.762   3.086  0.2708  0.2771 -0.4511
 7044TIP3    H121096   1.923   5.729   3.133 -0.1885  2.3388  0.3563
 7044TIP3    H221097   2.070   5.701   3.109 -0.6739 -0.5104  0.4248
 7045TIP3   OH221098   5.768   2.814   3.868 -0.3985  0.2631 -0.1868
 7045TIP3    H121099   5.797   2.744   3.810 -1.1165 -0.5674  0.4373
 7045TIP3    H221100   5.695   2.855   3.821 -1.2195 -0.6435  0.2666
 7046TIP3   OH221101   4.102   3.425   3.989 -0.1468  0.0666  0.1975
 7046TIP3    H121102   4.126   3.368   3.915  0.5128  1.3045 -0.5694
 7046TIP3    H221103   4.063   3.365   4.053  1.9583 -1.5299  0.0964
 7047TIP3   OH221104   4.602   3.072   1.304 -0.0064 -0.4462  0.7714
 7047TIP3    H121105   4.651   3.098   1.227 -0.2511  0.1800  0.8264
 7047TIP3    H221106   4.665   3.080   1.376 -0.6420  2.1237  1.1267
 7048TIP3   OH221107   1.090   1.017   0.873 -0.2625 -0.1411  0.1672
 7048TIP3    H121108   1.166   1.012   0.816 -2.4745 -0.9489 -3.0207
 7048TIP3    H221109   1.106   1.093   0.928  2.9050 -0.4375 -0.1675
 7049TIP3   OH221110   1.349   0.579   1.535 -0.2658 -0.3288 -0.5084
 7049TIP3    H121111   1.263   0.589   1.574  0.4845  0.3459  1.0527
 7049TIP3    H221112   1.371   0.666   1.502  0.6264  0.0249  0.9252
 7050TIP3   OH221113   3.539   4.868   4.854  0.0855 -0.0819  0.5179
 7050TIP3    H121114   3.461   4.878   4.909 -0.9875 -0.0539 -0.9558
 7050TIP3    H221115   3.543   4.775   4.835  0.2429 -0.0409  0.3469
 7051TIP3   OH221116   5.496   2.415   2.803  0.1680  0.3659  0.0067
 7051TIP3    H121117   5.401   2.414   2.790  0.0435  0.9990  0.7769
 7051TIP3    H221118   5.515   2.504   2.833  1.0662  0.3651 -0.5322
 7052TIP3   OH221119   5.058   2.447   1.345 -0.0720 -0.4264  0.1889
 7052TIP3    H121120   5.062   2.396   1.264 -1.4405 -1.5865  0.8138
 7052TIP3    H221121   4.999   2.398   1.402 -0.4072  1.1911  1.3114
 7053TIP3   OH221122   1.657   0.145   2.415 -0.0516 -0.2853  0.1666
 7053TIP3    H121123   1.664   0.239   2.400  1.4763 -0.1616  1.4300
 7053TIP3    H221124   1.739   0.109   2.380  0.3149 -0.8555  1.5237
 7054TIP3   OH221125   0.556   5.269   5.104  0.1617  0.4190  0.2325
 7054TIP3    H121126   0.505   5.195   5.139  0.6315 -0.6262 -1.2251
 7054TIP3    H221127   0.634   5.229   5.066  0.2062  1.6133 -1.0055
 7055TIP3   OH221128   3.040   6.607   1.971  0.3609 -0.0699 -0.7090
 7055TIP3    H121129   3.125   6.650   1.979  0.7355 -0.4951 -2.0987
 7055TIP3    H221130   3.044   6.533   2.031  0.5223  0.5753  0.0901
 7056TIP3   OH221131   4.457   2.646   4.269 -0.0948 -0.3122 -0.6029
 7056TIP3    H121132   4.521   2.713   4.244  1.3591 -1.9919 -1.5656
 7056TIP3    H221133   4.484   2.568   4.222 -0.6903 -2.0858  1.7984
 7057TIP3   OH221134   4.021   6.389   2.553  0.4918 -0.0862 -0.2467
 7057TIP3    H121135   3.927   6.375   2.554  0.7298 -2.1909  1.4753
 7057TIP3    H221136   4.058   6.308   2.518  1.6842  0.4244 -0.2504
 7058TIP3   OH221137   6.210   3.869   3.664 -0.2199 -0.1223  0.2350
 7058TIP3    H121138   6.225   3.814   3.587  1.6431 -0.0716  0.5092
 7058TIP3    H221139   6.172   3.810   3.729 -1.4539 -0.2517 -0.5689
 7059TIP3   OH221140   5.053   1.980   5.712 -0.1533 -0.2793  0.5432
 7059TIP3    H121141   5.037   1.980   5.806 -0.7937 -3.2138  0.5352
 7059TIP3    H221142   4.967   1.991   5.672 -0.0429 -0.2733  0.3019
 7060TIP3   OH221143   3.376   3.009   4.367 -0.0689  0.3165  0.0077
 7060TIP3    H121144   3.286   3.026   4.338 -0.0329  0.7234  0.1226
 7060TIP3    H221145   3.371   3.005   4.462 -0.0603 -0.2598 -0.0110
 7061TIP3   OH221146   5.943   6.126   4.622 -0.1403  0.1799  0.8335
 7061TIP3    H121147   6.012   6.159   4.680 -0.4277 -0.4261  1.5304
 7061TIP3    H221148   5.985   6.120   4.536  1.0356 -1.2734  1.4755
 7062TIP3   OH221149   6.110   6.739   4.085 -0.1334  0.2974  0.8336
 7062TIP3    H121150   6.187   6.687   4.062 -1.2882 -0.1304 -2.6625
 7062TIP3    H221151   6.144   6.807   4.145  2.4500 -1.2007  1.2128
 7063TIP3   OH221152   2.003   1.322   4.320  1.1232 -0.3565  0.2232
 7063TIP3    H121153   2.040   1.360   4.400  0.1853  0.4997  0.2770
 7063TIP3    H221154   1.949   1.249   4.351  1.5464 -0.6513  0.2759
 7064TIP3   OH221155   0.649   0.362   3.258  0.5133 -0.0854 -0.0959
 7064TIP3    H121156   0.699   0.415   3.197  1.9238  0.8567  1.7843
 7064TIP3    H221157   0.624   0.422   3.328 -1.9557 -0.8793 -0.1639
 7065TIP3   OH221158   0.488   3.182   0.567 -0.7747  0.1355 -0.3977
 7065TIP3    H121159   0.447   3.203   0.651  0.7365  2.8675 -0.2086
 7065TIP3    H221160   0.427   3.216   0.502 -1.8224 -1.7486 -0.4645
 7066TIP3   OH221161   5.386   0.305   4.256 -0.2987 -0.5453 -0.7199
 7066TIP3    H121162   5.415   0.358   4.331 -0.1111 -0.6970 -0.6853
 7066TIP3    H221163   5.344   0.368   4.197 -2.5162 -0.7565  0.5382
 7067TIP3   OH221164   6.295   5.352   4.215  0.1199  0.8810 -0.4120
 7067TIP3    H121165   6.233   5.296   4.262 -0.2119  1.1745 -0.4966
 7067TIP3    H221166   6.272   5.342   4.123 -0.2163  1.4742 -0.3995
 7068TIP3   OH221167   5.939   2.475   5.560  0.5003  0.3471 -0.7400
 7068TIP3    H121168   5.977   2.412   5.622 -0.1270 -0.5900 -1.2690
 7068TIP3    H221169   5.885   2.533   5.614  1.8784  1.0777 -0.1131
 7069TIP3   OH221170   1.574   2.008   3.756 -0.0601  0.2118  0.1159
 7069TIP3    H121171   1.525   2.018   3.838 -0.7851 -0.4363 -0.2299
 7069TIP3    H221172   1.653   1.960   3.781 -0.6227 -0.6128  0.3177
 7070TIP3   OH221173   4.579   6.499   0.203  0.0764 -0.2659  0.5556
 7070TIP3    H121174   4.500   6.549   0.184  1.3236  1.4148 -0.4937
 7070TIP3    H221175   4.629   6.502   0.121  0.7619 -2.2134  0.8486
 7071TIP3   OH221176   4.860   0.641   5.179 -0.4009  0.1697 -0.3425
 7071TIP3    H121177   4.831   0.719   5.226  1.7681  0.1654  1.1659
 7071TIP3    H221178   4.880   0.578   5.249  0.3998 -0.7962 -1.4161
 7072TIP3   OH221179   3.498   4.747   3.454  0.0529  0.0298 -0.1215
 7072TIP3    H121180   3.564   4.757   3.385 -0.0240 -0.1308 -0.2185
 7072TIP3    H221181   3.522   4.665   3.498 -1.0449 -0.9134 -1.2148
 7073TIP3   OH221182   3.157   2.427   4.469  0.1814 -0.5588 -0.5563
 7073TIP3    H121183   3.252   2.437   4.463  0.0127  1.4565 -0.5088
 7073TIP3    H221184   3.123   2.516   4.461 -1.6756 -1.1705  0.0670
 7074TIP3   OH221185   5.462   5.553   3.993 -0.3022  0.2291 -0.4238
 7074TIP3    H121186   5.468   5.543   3.898  0.8060 -0.3549 -0.3141
 7074TIP3    H221187   5.472   5.647   4.007  4.6759  0.0235 -0.6824
 7075TIP3   OH221188   5.092   2.212   2.491  0.0355  0.3068  0.2633
 7075TIP3    H121189   5.029   2.266   2.442 -0.6141 -1.3088 -0.7486
 7075TIP3    H221190   5.118   2.144   2.429  0.4362 -0.8651  1.6623
 7076TIP3   OH221191   2.225   0.102   1.513 -0.0586  0.1641 -0.4784
 7076TIP3    H121192   2.244   0.095   1.420 -0.4278 -0.6292 -0.5005
 7076TIP3    H221193   2.246   0.016   1.549 -1.9312 -0.2174 -0.2044
 7077TIP3   OH221194   4.925   1.143   2.903 -0.0062  0.1006 -0.2296
 7077TIP3    H121195   5.007   1.117   2.861  2.4030  1.9314  2.8760
 7077TIP3    H221196   4.952   1.183   2.986 -4.1766 -0.6055  1.7461
 7078TIP3   OH221197   5.082   3.280   2.788 -0.1028 -0.0835  0.3217
 7078TIP3    H121198   5.028   3.347   2.830  2.1978  1.0453  1.7443
 7078TIP3    H221199   5.035   3.198   2.802 -1.9643  0.9426  0.4169
 7079TIP3   OH221200   5.930   6.698   1.871  0.4762  0.2906 -0.1875
 7079TIP3    H121201   5.945   6.701   1.965 -0.4019 -2.1032  0.0993
 7079TIP3    H221202   5.849   6.648   1.861 -0.5373  2.1299 -2.1619
 7080TIP3   OH221203   5.615   0.832   4.334 -0.1464 -0.7609 -0.4082
 7080TIP3    H121204   5.532   0.789   4.313 -0.5800 -1.1310  1.7928
 7080TIP3    H221205   5.597   0.880   4.415  1.7923 -0.8982  0.1527
 7081TIP3   OH221206   2.191   1.989   5.086  0.0320 -0.5427 -0.2261
 7081TIP3    H121207   2.206   2.068   5.138  0.8220  0.6874 -2.2078
 7081TIP3    H221208   2.201   2.018   4.995  0.8890 -3.0461 -1.0055
 7082TIP3   OH221209   5.482   5.307   2.594  0.5026  0.0224 -0.1757
 7082TIP3    H121210   5.449   5.386   2.636 -2.0568 -0.9598 -0.1938
 7082TIP3    H221211   5.473   5.238   2.660  0.5076 -0.6946 -0.9042
 7083TIP3   OH221212   3.330   5.487   2.189  0.4203  0.2888  0.6813
 7083TIP3    H121213   3.410   5.538   2.183  0.8172  0.0699  2.9200
 7083TIP3    H221214   3.260   5.551   2.177  0.9306  0.8864  0.7962
 7084TIP3   OH221215   1.082   3.982   0.925 -0.5773 -0.2662 -0.0115
 7084TIP3    H121216   1.055   3.924   0.854 -0.3731 -0.4960  0.0991
 7084TIP3    H221217   1.064   4.070   0.891 -1.1720 -0.4020 -0.0590
 7085TIP3   OH221218   3.158   1.998   5.018 -0.0912 -0.3867 -0.0817
 7085TIP3    H121219   3.123   1.949   5.092 -0.7308 -0.4959 -0.4515
 7085TIP3    H221220   3.191   2.079   5.056 -0.8694 -0.2243  0.2618
 7086TIP3   OH221221   5.234   0.238   5.842 -0.2171  0.0335 -0.6390
 7086TIP3    H121222   5.295   0.264   5.773  0.7120  0.0820  0.1832
 7086TIP3    H221223   5.270   0.157   5.877  1.2621  1.6850  2.0204
 7087TIP3   OH221224   5.131   4.599   1.623  0.2064 -0.3952 -0.2142
 7087TIP3    H121225   5.117   4.690   1.596  0.6468 -0.3483 -0.2880
 7087TIP3    H221226   5.226   4.589   1.626  0.1651 -0.9798 -0.6280
 7088TIP3   OH221227   1.874   4.607   1.850 -0.1589  0.6657 -0.0119
 7088TIP3    H121228   1.829   4.529   1.817  0.3597  0.4330 -0.1837
 7088TIP3    H221229   1.967   4.591   1.831  0.0503  0.9287  0.7670
 7089TIP3   OH221230   4.271   2.273   4.321 -1.0339  0.4949  0.3916
 7089TIP3    H121231   4.263   2.354   4.370 -1.7476  0.2578  0.6735
 7089TIP3    H221232   4.349   2.230   4.358 -1.3858  0.4642  1.1050
 7090TIP3   OH221233   0.369   1.034   3.691 -0.4611 -0.3940 -0.2965
 7090TIP3    H121234   0.402   1.030   3.780 -0.2987 -0.9882 -0.3789
 7090TIP3    H221235   0.282   0.994   3.695 -1.4477  1.6654  0.0278
 7091TIP3   OH221236   4.644   0.268   5.010 -0.3788 -0.0381 -0.0959
 7091TIP3    H121237   4.659   0.252   5.103 -0.2541  1.3817  0.1497
 7091TIP3    H221238   4.732   0.275   4.973 -0.3612 -2.6007 -0.7501
 7092TIP3   OH221239   3.776   4.632   2.075 -0.0718 -0.2762 -0.3122
 7092TIP3    H121240   3.711   4.679   2.127  1.3981  0.8739  0.5631
 7092TIP3    H221241   3.820   4.700   2.024  0.5658 -1.0143 -0.7711
 7093TIP3   OH221242   4.735   6.222   4.876 -0.0154  0.1021  0.4181
 7093TIP3    H121243   4.642   6.244   4.877 -0.0620 -0.0992  0.6757
 7093TIP3    H221244   4.778   6.299   4.839 -0.4669 -0.5075 -1.4853
 7094TIP3   OH221245   6.045   6.545   3.096  0.8245 -0.1204 -0.3234
 7094TIP3    H121246   5.973   6.509   3.148 -1.6220  3.0100 -1.2344
 7094TIP3    H221247   6.037   6.502   3.011 -1.2369  1.4009 -0.9878
 7095TIP3   OH221248   1.771   6.127   1.485  0.4631 -0.4658  0.2195
 7095TIP3    H121249   1.825   6.054   1.457  1.9343 -0.1988  2.1403
 7095TIP3    H221250   1.826   6.204   1.469 -1.1477  0.3081 -1.9991
 7096TIP3   OH221251   6.693   5.504   3.179 -0.3282 -0.5601  0.7245
 7096TIP3    H121252   6.710   5.410   3.169 -0.3430 -0.6759  1.6913
 7096TIP3    H221253   6.773   5.546   3.148 -0.1597 -0.9128  0.6749
 7097TIP3   OH221254   6.188   4.063   4.701  0.1252  0.2150  0.0292
 7097TIP3    H121255   6.102   4.038   4.666  0.6838 -1.3120 -0.3181
 7097TIP3    H221256   6.189   4.026   4.789  0.0424  1.1453  0.4360
 7098TIP3   OH221257   6.616   3.807   1.346 -0.2064 -0.7945  0.4250
 7098TIP3    H121258   6.649   3.841   1.263 -0.0333  0.7395  1.0889
 7098TIP3    H221259   6.574   3.724   1.323  1.1641 -1.1464 -0.9475
 7099TIP3   OH221260   0.878   6.147   5.623  0.6118  0.1546 -0.1028
 7099TIP3    H121261   0.974   6.147   5.622  0.6294  1.3765  0.3457
 7099TIP3    H221262   0.854   6.078   5.562  1.7833 -2.7123  2.3905
 7100TIP3   OH221263   3.245   0.801   2.530  0.3584 -0.2092  0.3994
 7100TIP3    H121264   3.167   0.808   2.474  0.0136 -0.2006  0.8808
 7100TIP3    H221265   3.234   0.869   2.596  1.4232  0.6821 -0.3080
 7101TIP3   OH221266   2.601   1.259   1.446  0.2070  0.2209  0.7158
 7101TIP3    H121267   2.519   1.301   1.472  0.4777  1.0226  0.2783
 7101TIP3    H221268   2.587   1.235   1.354  1.0241  1.8065  0.1380
 7102TIP3   OH221269   5.587   3.629   2.158  0.0006 -0.1031 -0.0437
 7102TIP3    H121270   5.589   3.722   2.136 -0.3964  0.1900  1.0938
 7102TIP3    H221271   5.626   3.585   2.082 -2.3675  0.7160 -1.8558
 7103TIP3   OH221272   6.683   3.167   5.274  0.3758  0.2912  0.3525
 7103TIP3    H121273   6.753   3.228   5.296 -0.0861  1.3465 -0.9889
 7103TIP3    H221274   6.723   3.107   5.211  0.1262  0.8070 -0.3053
 7104TIP3   OH221275   4.739   1.582   4.150  0.3821  0.1606 -0.1052
 7104TIP3    H121276   4.755   1.666   4.106  1.3963  1.6645  2.8549
 7104TIP3    H221277   4.824   1.538   4.151  0.1202 -0.3673 -0.5998
 7105TIP3   OH221278   6.771   3.128   1.228 -0.1614  0.1014 -0.4653
 7105TIP3    H121279   6.748   3.094   1.314  0.5241  2.5082  0.7471
 7105TIP3    H221280   6.694   3.179   1.201  0.9154  2.3396  0.4335
 7106TIP3   OH221281   4.157   5.493   1.009  0.3875  0.3317 -0.6794
 7106TIP3    H121282   4.064   5.508   1.019  0.4379  0.3726 -0.2773
 7106TIP3    H221283   4.198   5.537   1.083  0.4867 -2.2318  0.9207
 7107TIP3   OH221284   2.625   5.059   4.842  0.0403 -0.1993  0.8777
 7107TIP3    H121285   2.716   5.037   4.826 -0.3387 -0.3695 -1.2838
 7107TIP3    H221286   2.601   5.006   4.918  1.7394 -0.0717  1.5533
 7108TIP3   OH221287   5.612   5.262   0.425 -0.1286 -0.1741 -0.4958
 7108TIP3    H121288   5.695   5.278   0.382  0.2590  2.5313  1.0404
 7108TIP3    H221289   5.547   5.264   0.354  0.8722  0.0877 -1.4246
 7109TIP3   OH221290   5.514   6.606   4.032 -0.5855  0.1646  0.9423
 7109TIP3    H121291   5.559   6.686   4.058  0.0768 -0.7665  2.8925
 7109TIP3    H221292   5.584   6.545   4.009 -1.0010 -0.3235  0.9367
 7110TIP3   OH221293   0.310   4.910   0.994 -0.0676  0.4505 -0.0992
 7110TIP3    H121294   0.252   4.932   0.921  0.7474 -0.8199 -1.1656
 7110TIP3    H221295   0.378   4.978   0.990  1.0960 -0.7226 -1.8542
 7111TIP3   OH221296   2.525   6.569   3.760  0.0491  0.8536  0.3471
 7111TIP3    H121297   2.432   6.558   3.742 -0.6376  1.1785  3.1602
 7111TIP3    H221298   2.567   6.574   3.674 -2.2974 -0.9567 -0.9901
 7112TIP3   OH221299   1.092   5.640   4.266 -0.1425  0.7079  0.3901
 7112TIP3    H121300   1.008   5.625   4.224 -0.7314  0.4035  1.6393
 7112TIP3    H221301   1.133   5.554   4.272  1.2291  1.0921 -2.0894
 7113TIP3   OH221302   2.071   1.422   2.119  0.4710 -1.0159 -0.0361
 7113TIP3    H121303   2.072   1.330   2.094  1.5415 -0.7947 -0.8780
 7113TIP3    H221304   1.981   1.438   2.149 -0.7595 -1.5023 -3.1021
 7114TIP3   OH221305   1.187   0.719   3.131 -0.1174  0.2954 -0.2297
 7114TIP3    H121306   1.107   0.708   3.080  0.8995 -0.7949 -1.6658
 7114TIP3    H221307   1.245   0.770   3.074  0.3842  0.6928  0.6136
 7115TIP3   OH221308   0.621   5.936   2.772  0.4700  0.1613  0.1573
 7115TIP3    H121309   0.608   5.850   2.811  1.4985 -0.1448 -0.1335
 7115TIP3    H221310   0.701   5.970   2.813 -0.0481  1.0853  0.4385
 7116TIP3   OH221311   1.860   0.943   3.876  0.1459  0.0970  0.2011
 7116TIP3    H121312   1.826   1.008   3.814  0.4043 -0.7902 -0.9194
 7116TIP3    H221313   1.880   0.867   3.821 -1.8792 -1.6126  1.6918
 7117TIP3   OH221314   0.253   4.627   0.744  0.0589  0.1346  0.0221
 7117TIP3    H121315   0.338   4.656   0.775 -0.9843  1.4252  1.9109
 7117TIP3    H221316   0.259   4.630   0.649  2.4532 -0.9507  0.0626
 7118TIP3   OH221317   0.234   1.192   0.244 -0.1759  0.0603  0.1204
 7118TIP3    H121318   0.263   1.248   0.171  0.1303  0.3955  0.4959
 7118TIP3    H221319   0.279   1.108   0.228  1.4093  0.7064  0.9392
 7119TIP3   OH221320   6.935   5.598   4.067  0.2973  0.1266 -0.0867
 7119TIP3    H121321   6.890   5.554   3.994 -0.2608  0.6766 -0.0793
 7119TIP3    H221322   6.891   5.566   4.145  0.7347 -0.2747 -0.0026
 7120TIP3   OH221323   3.874   5.376   2.979 -0.0310  0.0789 -0.4236
 7120TIP3    H121324   3.798   5.338   3.024 -0.9565  0.1967 -1.8180
 7120TIP3    H221325   3.904   5.306   2.921  1.9182 -0.5112  1.1739
 7121TIP3   OH221326   0.412   5.141   3.186 -0.9243  0.4335  0.0437
 7121TIP3    H121327   0.328   5.186   3.182 -1.5199 -0.7090 -1.4147
 7121TIP3    H221328   0.402   5.079   3.258 -1.2755  0.4328 -0.0020
 7122TIP3   OH221329   3.156   1.122   0.937 -0.7367  0.4670  0.2624
 7122TIP3    H121330   3.247   1.152   0.941 -0.7150  0.5018 -0.3817
 7122TIP3    H221331   3.112   1.186   0.881 -0.9840  0.0307 -0.0460
 7123TIP3   OH221332   1.136   6.662   0.941  0.0613  0.3123  0.4828
 7123TIP3    H121333   1.119   6.701   0.855 -0.3857 -1.1694 -0.1236
 7123TIP3    H221334   1.206   6.716   0.978 -0.4782  1.6417 -0.3341
 7124TIP3   OH221335   6.294   5.224   0.843 -0.1109 -0.3409 -0.2595
 7124TIP3    H121336   6.225   5.283   0.874 -0.6602 -0.1069 -1.8374
 7124TIP3    H221337   6.263   5.194   0.758  1.6859 -0.3204 -0.9684
 7125TIP3   OH221338   1.842   0.283   4.055 -0.5704 -0.0261 -0.5298
 7125TIP3    H121339   1.829   0.371   4.091  2.3261 -0.1890  1.1912
 7125TIP3    H221340   1.770   0.231   4.091 -0.6976  1.0189  0.7694
 7126TIP3   OH221341   0.858   0.130   1.050 -0.4533 -0.5230  0.3261
 7126TIP3    H121342   0.907   0.078   0.985  0.9459 -0.2478  1.1341
 7126TIP3    H221343   0.850   0.072   1.125 -0.3307 -0.1410  0.6338
 7127TIP3   OH221344   5.799   0.408   4.853  1.4723  0.2405  0.0693
 7127TIP3    H121345   5.848   0.482   4.887  1.8683  0.5836 -1.1862
 7127TIP3    H221346   5.718   0.407   4.904  0.9018  2.3033 -0.7064
 7128TIP3   OH221347   0.308   5.761   3.505  0.6244  0.1641 -0.3232
 7128TIP3    H121348   0.300   5.665   3.497  0.7200  0.1964 -0.8546
 7128TIP3    H221349   0.287   5.779   3.596  0.3145 -0.3398 -0.2875
 7129TIP3   OH221350   5.324   2.790   4.953  0.3177 -0.0573 -0.5151
 7129TIP3    H121351   5.273   2.843   4.891  0.9840  0.3420 -0.7264
 7129TIP3    H221352   5.319   2.839   5.035 -0.3240 -0.4405 -0.3172
 7130TIP3   OH221353   0.470   0.563   5.374 -0.2260  0.2385  0.4762
 7130TIP3    H121354   0.490   0.555   5.281 -1.0224 -1.5002  0.4286
 7130TIP3    H221355   0.394   0.621   5.377 -0.7388 -0.3927 -0.0401
 7131TIP3   OH221356   4.739   3.029   1.547 -0.1976  0.2887  0.6377
 7131TIP3    H121357   4.723   3.023   1.642  1.2250  1.6304  1.0019
 7131TIP3    H221358   4.814   3.088   1.539  0.3075 -0.5369 -1.2864
 7132TIP3   OH221359   0.423   4.962   2.955  0.1349 -0.6909 -0.6261
 7132TIP3    H121360   0.348   4.996   2.906  0.2364 -2.3199 -2.0065
 7132TIP3    H221361   0.454   5.036   3.007 -0.7561  0.7625 -2.0951
 7133TIP3   OH221362   4.210   1.863   4.804 -0.0169 -0.2504  0.3554
 7133TIP3    H121363   4.281   1.839   4.744 -0.7984  0.0307 -0.7044
 7133TIP3    H221364   4.145   1.905   4.748 -1.8700 -2.1474  0.9486
 7134TIP3   OH221365   4.138   0.953   1.798 -0.0905  0.3530 -0.5386
 7134TIP3    H121366   4.075   0.901   1.848  0.5779  0.4606  0.4416
 7134TIP3    H221367   4.224   0.921   1.826  0.3465  1.9000  0.0467
 7135TIP3   OH221368   0.631   3.755   3.654  0.0017  0.1733 -0.2217
 7135TIP3    H121369   0.694   3.809   3.607 -0.1750  0.2594 -0.3578
 7135TIP3    H221370   0.650   3.665   3.625  0.0902  0.1949 -0.2295
 7136TIP3   OH221371   0.302   4.896   2.622 -0.0748  0.3422 -0.1946
 7136TIP3    H121372   0.207   4.890   2.630 -0.1338  0.4730 -0.7481
 7136TIP3    H221373   0.335   4.814   2.658 -0.3605  0.5343  0.5299
 7137TIP3   OH221374   3.626   3.589   1.586  0.0110  0.1243 -0.0263
 7137TIP3    H121375   3.652   3.513   1.533  0.1177  0.5664 -0.6213
 7137TIP3    H221376   3.548   3.560   1.633  1.1465 -1.0000  1.2451
 7138TIP3   OH221377   5.553   0.963   4.589  0.3349  0.2738 -0.9221
 7138TIP3    H121378   5.483   0.945   4.651  0.3118 -0.2638 -1.1043
 7138TIP3    H221379   5.575   1.055   4.604 -1.1292  0.7582 -1.5657
 7139TIP3   OH221380   4.020   5.777   0.361 -0.6183 -0.1329 -0.5809
 7139TIP3    H121381   4.043   5.685   0.378  1.5629  0.5568  0.5357
 7139TIP3    H221382   4.033   5.821   0.445  1.0189  1.6620 -1.6841
 7140TIP3   OH221383   5.519   1.109   5.047  0.1745 -0.1304  0.4541
 7140TIP3    H121384   5.453   1.163   5.003  0.4331 -1.2376 -1.4340
 7140TIP3    H221385   5.470   1.033   5.078  0.4000 -0.5546 -0.2077
 7141TIP3   OH221386   3.400   6.116   4.817 -0.0102 -0.1823 -0.1584
 7141TIP3    H121387   3.345   6.055   4.769  0.9281 -1.3222  0.1590
 7141TIP3    H221388   3.458   6.060   4.870 -0.3086  1.0015  1.5073
 7142TIP3   OH221389   7.085   5.799   4.406 -0.5408 -0.5957  0.3711
 7142TIP3    H121390   7.138   5.745   4.349  0.3795 -0.5061  1.1133
 7142TIP3    H221391   6.995   5.778   4.382 -0.1953 -1.7877  0.0399
 7143TIP3   OH221392   0.287   4.608   1.391 -0.8250 -0.0531 -0.0316
 7143TIP3    H121393   0.320   4.642   1.307 -2.1938 -1.3266 -1.1325
 7143TIP3    H221394   0.236   4.680   1.427  0.2260  0.7056  0.0134
 7144TIP3   OH221395   7.192   6.320   5.333  0.1610 -0.0495 -0.3064
 7144TIP3    H121396   7.137   6.264   5.388  0.2705 -0.9169 -1.0582
 7144TIP3    H221397   7.281   6.307   5.367  0.1289  0.0224 -0.1940
 7145TIP3   OH221398   0.850   1.799   4.807 -0.3392  0.0584 -0.4489
 7145TIP3    H121399   0.841   1.850   4.888  0.6103 -1.1404  0.4564
 7145TIP3    H221400   0.805   1.851   4.741  1.0854  2.3461  0.2797
 7146TIP3   OH221401   1.437   6.215   5.063 -0.1360  0.0555 -0.0211
 7146TIP3    H121402   1.488   6.199   4.983 -1.3236 -1.2417 -0.5625
 7146TIP3    H221403   1.496   6.191   5.134  0.4004 -0.3209 -0.5774
 7147TIP3   OH221404   6.870   5.862   2.778  0.4786  0.0249 -0.0977
 7147TIP3    H121405   6.884   5.955   2.794 -1.1224  0.5197 -1.2977
 7147TIP3    H221406   6.777   5.847   2.798  1.1402 -1.7941  2.0326
 7148TIP3   OH221407   1.226   5.540   2.415 -0.0262 -0.0950  0.5983
 7148TIP3    H121408   1.231   5.453   2.457  0.7555 -0.8141 -0.9164
 7148TIP3    H221409   1.185   5.524   2.330  0.9199  0.8661 -0.0676
 7149TIP3   OH221410   5.882   5.885   2.384 -1.2712  0.0928  0.2926
 7149TIP3    H121411   5.834   5.810   2.349  0.2355 -1.0938  0.6630
 7149TIP3    H221412   5.937   5.848   2.453  0.8051  1.2324 -0.6774
 7150TIP3   OH221413   5.636   1.253   5.708 -0.2158 -0.1114 -0.0461
 7150TIP3    H121414   5.588   1.179   5.745 -0.0152  0.5929  1.6821
 7150TIP3    H221415   5.630   1.240   5.613  0.2016 -2.5856  0.1988
 7151TIP3   OH221416   6.547   1.460   3.347  0.1887  0.1536  0.3592
 7151TIP3    H121417   6.539   1.468   3.252  0.8723 -1.5380  0.1184
 7151TIP3    H221418   6.545   1.550   3.379 -1.5114  0.7013 -1.1160
 7152TIP3   OH221419   2.613   0.091   3.352  0.1647  0.0428  0.4206
 7152TIP3    H121420   2.529   0.070   3.312  0.3049  0.5963 -0.1909
 7152TIP3    H221421   2.593   0.105   3.445 -0.8100  2.1713 -0.0408
 7153TIP3   OH221422   1.440   2.680   5.788 -0.1692  0.0832  0.5262
 7153TIP3    H121423   1.353   2.696   5.824 -0.1476 -0.6299  0.8955
 7153TIP3    H221424   1.460   2.590   5.812  0.8071  0.3449  0.7327
 7154TIP3   OH221425   5.663   2.471   1.582  0.8601  0.2820  0.7084
 7154TIP3    H121426   5.587   2.494   1.635  0.8821  1.2642  0.3341
 7154TIP3    H221427   5.734   2.461   1.645  0.4968 -0.3111  1.0266
 7155TIP3   OH221428   1.741   2.820   1.303 -0.4456  0.1335 -0.4731
 7155TIP3    H121429   1.775   2.802   1.391 -1.0525 -0.7995 -0.4179
 7155TIP3    H221430   1.664   2.763   1.295 -2.3340  2.5213 -0.4061
 7156TIP3   OH221431   3.585   5.330   3.885 -0.0626  0.1132 -0.0699
 7156TIP3    H121432   3.611   5.264   3.950 -1.0015  1.4853  1.8172
 7156TIP3    H221433   3.520   5.286   3.831 -0.1532 -0.7368  0.6975
 7157TIP3   OH221434   2.044   4.245   1.281  0.0270  0.0947  0.2375
 7157TIP3    H121435   2.011   4.170   1.331  1.0594  0.0814  0.9297
 7157TIP3    H221436   2.025   4.223   1.190 -1.7336  0.0347  0.5689
 7158TIP3   OH221437   6.005   4.715   1.448 -0.4657 -0.1133 -0.3826
 7158TIP3    H121438   6.012   4.677   1.360  0.4908 -0.3667 -0.2017
 7158TIP3    H221439   6.000   4.809   1.433 -0.3004 -0.1538 -0.7060
 7159TIP3   OH221440   1.261   5.506   5.535  0.1718 -0.4866 -0.1903
 7159TIP3    H121441   1.315   5.553   5.471  0.3755 -0.5655 -0.0764
 7159TIP3    H221442   1.313   5.429   5.559  0.1537 -0.3910  0.1661
 7160TIP3   OH221443   5.059   5.756   3.634 -0.2866 -0.3615  0.5278
 7160TIP3    H121444   5.150   5.784   3.621 -0.4501 -0.5714 -1.3506
 7160TIP3    H221445   5.008   5.836   3.630 -0.4781 -0.5221 -2.0188
 7161TIP3   OH221446   5.102   4.399   5.332 -0.3511  0.0955  0.4374
 7161TIP3    H121447   5.131   4.477   5.379 -1.1571  0.4237  0.4199
 7161TIP3    H221448   5.180   4.365   5.289  0.0156  0.8761  0.4763
 7162TIP3   OH221449   1.087   3.553   0.571  0.1297 -0.1676 -0.3536
 7162TIP3    H121450   1.148   3.480   0.567  0.3830  0.0675 -0.8241
 7162TIP3    H221451   1.094   3.586   0.661 -1.1719 -1.7252  0.3555
 7163TIP3   OH221452   0.224   1.646   0.400 -0.4710  0.0601 -0.0494
 7163TIP3    H121453   0.266   1.615   0.481  1.6870  0.3521 -1.0133
 7163TIP3    H221454   0.184   1.567   0.363  0.4512 -0.5382  0.1913
 7164TIP3   OH221455   5.426   4.194   4.997  0.6309 -0.5822  0.3287
 7164TIP3    H121456   5.407   4.113   4.949 -0.6519  0.1363 -0.4212
 7164TIP3    H221457   5.464   4.253   4.932  1.2542 -0.4591  0.7966
 7165TIP3   OH221458   0.286   3.277   0.345 -0.2195  0.3444  0.1094
 7165TIP3    H121459   0.204   3.236   0.318 -0.1244  0.8977 -1.0573
 7165TIP3    H221460   0.265   3.370   0.354  0.1827  0.4247  0.2484
 7166TIP3   OH221461   1.860   4.555   3.373 -0.1790 -0.3978 -0.1588
 7166TIP3    H121462   1.876   4.558   3.279  2.5544 -0.9971  0.2130
 7166TIP3    H221463   1.764   4.555   3.381 -0.4783  0.2423 -2.8797
 7167TIP3   OH221464   0.194   2.599   0.578 -0.0904  0.1544  0.9848
 7167TIP3    H121465   0.241   2.635   0.654  0.0821  0.3626  0.7794
 7167TIP3    H221466   0.262   2.567   0.519 -0.2651 -2.7783  2.2117
 7168TIP3   OH221467   6.681   1.874   5.384  0.5153  0.6628  0.1897
 7168TIP3    H121468   6.680   1.778   5.378 -1.7853  0.3776  2.9389
 7168TIP3    H221469   6.767   1.894   5.422  1.1319 -0.2467 -0.6816
 7169TIP3   OH221470   4.502   2.081   4.496 -0.3152  0.2272 -0.4310
 7169TIP3    H121471   4.514   2.129   4.578  1.6027 -0.9989  0.0668
 7169TIP3    H221472   4.496   1.989   4.523 -0.4292 -0.1210 -1.6021
 7170TIP3   OH221473   5.798   1.877   5.243 -0.1081  0.4479  0.0971
 7170TIP3    H121474   5.723   1.936   5.253 -0.4283  0.4567 -1.8854
 7170TIP3    H221475   5.854   1.921   5.179  1.0683 -0.0723  0.7468
 7171TIP3   OH221476   4.948   2.742   5.577  0.5151  0.2404  0.2465
 7171TIP3    H121477   4.994   2.760   5.659 -0.3247 -0.8463  0.9779
 7171TIP3    H221478   5.000   2.786   5.510 -0.2214  3.5181  1.6286
 7172TIP3   OH221479   1.577   5.325   2.106  0.0143 -0.2591 -0.1768
 7172TIP3    H121480   1.496   5.373   2.089  0.1099 -0.6345 -1.8702
 7172TIP3    H221481   1.552   5.259   2.171 -1.0823 -0.4836 -0.7997
 7173TIP3   OH221482   0.395   1.396   3.439 -0.3657  0.4888  0.3013
 7173TIP3    H121483   0.332   1.443   3.384  0.7130  1.6235 -0.0331
 7173TIP3    H221484   0.462   1.365   3.377  0.3549  0.9260  0.8451
 7174TIP3   OH221485   6.881   2.493   0.466 -0.1975 -0.0205  0.5939
 7174TIP3    H121486   6.951   2.547   0.503 -1.6444  1.5952  1.1102
 7174TIP3    H221487   6.833   2.461   0.542  0.3100 -1.6536  0.2706
 7175TIP3   OH221488   6.239   3.951   2.061  0.8175  0.3045  0.4459
 7175TIP3    H121489   6.286   3.902   2.128  2.6083  0.1102 -0.8768
 7175TIP3    H221490   6.304   3.967   1.992 -0.3204  2.5231 -0.2185
 7176TIP3   OH221491   1.520   3.924   3.339 -0.0795 -0.4062  0.2214
 7176TIP3    H121492   1.595   3.980   3.317 -0.9037  0.3111 -0.8960
 7176TIP3    H221493   1.501   3.877   3.258  0.1348 -1.7801  0.9485
 7177TIP3   OH221494   5.047   0.006   0.496 -0.1834 -0.0975 -0.3379
 7177TIP3    H121495   5.121   0.062   0.474 -0.5365 -0.0242 -1.3843
 7177TIP3    H221496   5.008  -0.017   0.411 -0.7353 -0.9787  0.1386
 7178TIP3   OH221497   1.945   3.548   5.714 -0.3521  0.1447  0.0763
 7178TIP3    H121498   1.871   3.591   5.757 -2.6177 -2.9224 -0.4431
 7178TIP3    H221499   1.970   3.478   5.774  0.4330 -0.4267 -0.8871
 7179TIP3   OH221500   7.013   0.978   5.028  0.1600 -0.4531  0.0915
 7179TIP3    H121501   7.047   0.911   4.968 -0.1893 -0.5220 -0.0286
 7179TIP3    H221502   6.932   0.940   5.062 -0.1803  0.0276 -0.1820
 7180TIP3   OH221503   6.672   5.804   1.703 -0.6621 -0.5345 -0.3079
 7180TIP3    H121504   6.758   5.808   1.661 -0.9130 -1.0884 -0.8857
 7180TIP3    H221505   6.688   5.762   1.787 -0.3185 -0.3205 -0.2610
 7181TIP3   OH221506   3.087   2.984   3.322  0.5754  0.0569  0.2670
 7181TIP3    H121507   3.024   2.929   3.276  0.8939  1.1537 -1.5853
 7181TIP3    H221508   3.063   3.073   3.299  2.5589  0.5203 -0.1870
 7182TIP3   OH221509   1.538   0.058   1.621  0.2156  0.2554 -0.1089
 7182TIP3    H121510   1.471   0.020   1.677  0.4842 -0.9188 -0.5523
 7182TIP3    H221511   1.496   0.133   1.580 -0.3047  0.5040  0.8623
 7183TIP3   OH221512   4.080   5.550   0.040 -0.5064  0.2862 -0.1197
 7183TIP3    H121513   4.097   5.468   0.086  0.5761  1.1277  1.0354
 7183TIP3    H221514   4.066   5.614   0.109  1.4535  1.6499 -0.8844
 7184TIP3   OH221515   6.889   3.529   4.613 -0.2902 -0.2462  0.0913
 7184TIP3    H121516   6.832   3.465   4.656 -1.4817  0.2242 -0.7354
 7184TIP3    H221517   6.888   3.505   4.521  2.5127 -1.4423  0.2746
 7185TIP3   OH221518   2.387   5.921   3.437  0.5149 -0.5118  0.1119
 7185TIP3    H121519   2.418   5.867   3.509  1.3089 -0.9467 -0.5429
 7185TIP3    H221520   2.464   5.970   3.408 -0.1514  0.8896  0.5976
 7186TIP3   OH221521   5.278   5.362   3.501 -0.2825  0.2572 -0.2158
 7186TIP3    H121522   5.200   5.371   3.556 -0.1861 -0.7894  0.1173
 7186TIP3    H221523   5.249   5.308   3.427  0.1250 -0.1813 -0.0634
 7187TIP3   OH221524   3.460   5.575   0.768  0.3815 -0.2261  0.1307
 7187TIP3    H121525   3.519   5.547   0.699  1.1470  1.6020 -0.0222
 7187TIP3    H221526   3.454   5.500   0.827 -1.9983 -2.6750 -2.8940
 7188TIP3   OH221527   3.666   0.771   3.641  0.2287  0.6639 -0.2051
 7188TIP3    H121528   3.634   0.802   3.556 -0.9917  0.4641  0.1682
 7188TIP3    H221529   3.701   0.684   3.623 -3.0013 -0.8289  0.0034
 7189TIP3   OH221530   3.091   2.248   0.839 -0.2652 -0.3195 -0.1923
 7189TIP3    H121531   3.029   2.247   0.766 -0.8528  0.0539  0.2837
 7189TIP3    H221532   3.051   2.308   0.902  0.9486  0.5055 -0.1837
 7190TIP3   OH221533   2.478   4.349   2.424  0.6633 -0.3882 -0.2281
 7190TIP3    H121534   2.389   4.322   2.402  0.6442 -1.1995  0.7919
 7190TIP3    H221535   2.478   4.357   2.520  1.3082  0.9992 -0.3162
 7191TIP3   OH221536   5.143   2.708   0.785  0.0918 -0.3731  0.2693
 7191TIP3    H121537   5.102   2.769   0.723 -0.7416 -0.8790  0.3026
 7191TIP3    H221538   5.104   2.732   0.869  0.7056 -0.1393  0.4873
 7192TIP3   OH221539   2.093   6.516   3.427 -0.5815 -0.0633  0.0728
 7192TIP3    H121540   2.078   6.456   3.354 -1.0698  0.0122  0.1082
 7192TIP3    H221541   2.007   6.526   3.468 -0.3536  0.0734  0.5207
 7193TIP3   OH221542   1.432   1.304   1.729  0.2810 -0.0478  0.2791
 7193TIP3    H121543   1.510   1.345   1.767  1.2622 -1.8303  0.2905
 7193TIP3    H221544   1.382   1.272   1.805  0.8756 -1.2055  0.2036
 7194TIP3   OH221545   6.316   4.317   0.281 -0.0332 -0.0532 -0.1511
 7194TIP3    H121546   6.335   4.392   0.338  2.0466 -0.3720 -0.3508
 7194TIP3    H221547   6.233   4.339   0.239 -0.5453  1.1467  1.3997
 7195TIP3   OH221548   6.453   2.029   3.737 -0.1403  0.0560  0.1239
 7195TIP3    H121549   6.463   2.124   3.724  2.9207 -0.2528 -0.5090
 7195TIP3    H221550   6.463   2.017   3.832 -2.2014  0.4177  0.4581
 7196TIP3   OH221551   4.697   0.245   3.814 -0.4943  0.3992  0.1187
 7196TIP3    H121552   4.776   0.243   3.761  0.1352  1.5480  0.9746
 7196TIP3    H221553   4.705   0.170   3.873  1.5243  2.2052  2.3180
 7197TIP3   OH221554   3.893   1.336   2.340 -0.2165 -0.2274 -0.1965
 7197TIP3    H121555   3.858   1.416   2.303  0.0428 -0.1000 -0.1674
 7197TIP3    H221556   3.908   1.278   2.265 -0.2539 -0.1904 -0.2321
 7198TIP3   OH221557   3.298   0.545   5.701 -0.1839  0.4170 -0.1501
 7198TIP3    H121558   3.293   0.457   5.738  1.4078  0.4236  0.1230
 7198TIP3    H221559   3.266   0.535   5.611 -2.0248 -0.0028  0.4894
 7199TIP3   OH221560   4.970   5.193   4.395 -0.1309 -0.1495 -0.6187
 7199TIP3    H121561   5.000   5.272   4.350 -0.6965 -0.2845 -1.2447
 7199TIP3    H221562   4.974   5.215   4.488 -0.0633  0.5387 -0.7827
 7200TIP3   OH221563   4.470   0.889   0.751 -0.0340 -0.7827 -0.3690
 7200TIP3    H121564   4.502   0.965   0.703  0.0566  0.6229  1.7852
 7200TIP3    H221565   4.547   0.832   0.758  0.6821  0.2344  0.3901
 7201TIP3   OH221566   3.247   5.403   1.329 -0.1411  0.0387 -0.2747
 7201TIP3    H121567   3.287   5.349   1.261  1.3783 -1.3453  1.5883
 7201TIP3    H221568   3.304   5.480   1.335 -0.0696 -0.0100 -0.3312
 7202TIP3   OH221569   2.321   0.668   5.286 -0.4048  0.3679 -0.2176
 7202TIP3    H121570   2.287   0.681   5.198  0.7765  0.9481 -0.6119
 7202TIP3    H221571   2.352   0.754   5.313  1.4797 -0.2531 -0.2214
 7203TIP3   OH221572   3.316   1.644   3.389 -0.4734  0.0438 -0.2725
 7203TIP3    H121573   3.330   1.683   3.303 -1.4247  0.6302 -0.1790
 7203TIP3    H221574   3.403   1.644   3.430  0.1389 -0.9746 -1.5170
 7204TIP3   OH221575   2.170   3.656   3.913 -0.1749  0.3293 -0.2851
 7204TIP3    H121576   2.164   3.749   3.892 -1.5130  0.8526  1.9974
 7204TIP3    H221577   2.263   3.636   3.910  0.4605  2.4748  1.7196
 7205TIP3   OH221578   1.298   2.738   2.225  0.1799  0.3583  0.6632
 7205TIP3    H121579   1.386   2.736   2.263  0.7048 -1.6895 -0.5666
 7205TIP3    H221580   1.295   2.820   2.176  1.9962 -0.2883 -0.5975
 7206TIP3   OH221581   1.077   0.889   5.057 -0.1466  0.3341  0.4024
 7206TIP3    H121582   0.996   0.859   5.099 -0.8378 -0.0089 -1.1188
 7206TIP3    H221583   1.132   0.917   5.130 -0.4798 -2.1644  1.7232
 7207TIP3   OH221584   4.931   4.900   2.341 -0.5127 -0.3172 -0.7237
 7207TIP3    H121585   4.891   4.865   2.421  0.6110 -1.8082 -0.7787
 7207TIP3    H221586   4.967   4.823   2.296  0.1828  0.6728 -1.9299
 7208TIP3   OH221587   7.207   1.908   2.484 -0.4798  0.1534 -0.5964
 7208TIP3    H121588   7.251   1.985   2.520 -2.2512  1.0262 -0.1562
 7208TIP3    H221589   7.117   1.915   2.517 -0.8592 -1.7450 -1.1190
 7209TIP3   OH221590   2.721   5.557   0.769  0.3149  0.0529  0.2046
 7209TIP3    H121591   2.661   5.551   0.843  1.1288 -0.7409  0.8267
 7209TIP3    H221592   2.779   5.481   0.779 -0.2791 -0.7699 -1.8918
 7210TIP3   OH221593   6.490   6.451   4.447  0.3679 -0.0337 -0.9419
 7210TIP3    H121594   6.493   6.414   4.359 -1.3734  0.1773 -1.1406
 7210TIP3    H221595   6.449   6.383   4.501  1.2554 -0.0929 -0.3200
 7211TIP3   OH221596   3.737   4.357   2.199 -0.1636 -0.2021  0.1573
 7211TIP3    H121597   3.777   4.300   2.133 -4.6955 -2.8808 -0.6959
 7211TIP3    H221598   3.703   4.431   2.149 -1.8877 -1.2679 -0.3516
 7212TIP3   OH221599   7.222   4.878   2.723 -0.0060  0.4070  0.1327
 7212TIP3    H121600   7.201   4.954   2.777  0.1787 -0.1990  1.0688
 7212TIP3    H221601   7.137   4.842   2.698 -0.0954  0.9989 -0.4377
 7213TIP3   OH221602   2.973   6.005   3.715 -0.8756  0.7932  0.1022
 7213TIP3    H121603   2.931   6.080   3.672 -2.8568 -0.1241  0.3471
 7213TIP3    H221604   2.985   5.942   3.644  0.2852  1.1051  0.0051
 7214TIP3   OH221605   6.032   1.461   2.903 -0.0592 -0.2473 -0.5247
 7214TIP3    H121606   6.039   1.366   2.918  0.1878 -0.4418 -1.7410
 7214TIP3    H221607   5.937   1.477   2.904 -0.1616 -0.7117 -1.3724
 7215TIP3   OH221608   5.983   2.303   4.567  0.0353 -0.3303  0.2019
 7215TIP3    H121609   5.932   2.336   4.641 -0.1303  2.4679 -1.0208
 7215TIP3    H221610   5.918   2.285   4.499  0.4411  1.8102 -0.8470
 7216TIP3   OH221611   4.697   1.436   1.302  0.3497  0.2142 -0.2185
 7216TIP3    H121612   4.793   1.430   1.302  0.3977  0.8462  0.0666
 7216TIP3    H221613   4.667   1.346   1.310  0.9344  0.0512  0.2178
 7217TIP3   OH221614   2.840   4.696   1.823 -0.1679  0.5775  0.5849
 7217TIP3    H121615   2.820   4.682   1.730  0.3472 -0.2311  0.5877
 7217TIP3    H221616   2.775   4.761   1.852  0.0748  1.3271 -0.4926
 7218TIP3   OH221617   6.571   4.514   1.957  0.3470  0.4550 -0.0358
 7218TIP3    H121618   6.542   4.426   1.980  1.4329 -0.0110 -0.3691
 7218TIP3    H221619   6.552   4.523   1.863 -1.0420  1.1124  0.2901
 7219TIP3   OH221620   6.137   5.973   5.516 -0.1601 -0.3023  0.1509
 7219TIP3    H121621   6.215   5.955   5.464  0.3856  2.0029  0.0610
 7219TIP3    H221622   6.073   6.007   5.454  0.1566  1.5296  0.7559
 7220TIP3   OH221623   4.116   4.232   2.043  0.7388 -0.3070  0.2424
 7220TIP3    H121624   4.036   4.280   2.021  1.2022 -0.1429 -1.2274
 7220TIP3    H221625   4.109   4.150   1.994  0.8647 -0.8985  1.1819
 7221TIP3   OH221626   4.363   0.031   2.477 -0.2767 -0.1999 -0.5425
 7221TIP3    H121627   4.431   0.033   2.410 -0.9196  0.6118 -1.1955
 7221TIP3    H221628   4.390  -0.039   2.537  0.7798 -0.3268 -1.1440
 7222TIP3   OH221629   5.281   2.434   1.591  0.2377 -0.2318  0.4795
 7222TIP3    H121630   5.209   2.495   1.605  0.3896  0.1657 -0.4533
 7222TIP3    H221631   5.247   2.349   1.620 -0.9543 -0.2392 -0.8605
 7223TIP3   OH221632   0.498   3.204   1.205 -0.1255 -1.3742 -0.2196
 7223TIP3    H121633   0.433   3.165   1.264 -0.2351 -0.0271  0.5794
 7223TIP3    H221634   0.560   3.248   1.264  0.3901 -0.9389 -1.0694
 7224TIP3   OH221635   4.489   1.909   2.522  0.3256  0.3407 -0.3564
 7224TIP3    H121636   4.546   1.983   2.499 -0.2508  0.7417 -0.4961
 7224TIP3    H221637   4.419   1.911   2.458 -0.5596  0.6441  0.5977
 7225TIP3   OH221638   2.244   6.128   1.212 -0.4368  0.5649  0.4203
 7225TIP3    H121639   2.250   6.177   1.130  2.5788 -0.8525 -0.3424
 7225TIP3    H221640   2.306   6.172   1.271  0.0982 -0.5223  0.6987
 7226TIP3   OH221641   1.699   1.728   0.782  0.3417  0.0036  0.6004
 7226TIP3    H121642   1.735   1.657   0.728 -1.2352 -0.6558  0.3612
 7226TIP3    H221643   1.681   1.798   0.720 -0.3712 -0.3149  0.4363
 7227TIP3   OH221644   0.240   1.330   3.954  0.3472  0.0168  0.1782
 7227TIP3    H121645   0.242   1.307   3.861 -0.0716  0.9754 -0.0877
 7227TIP3    H221646   0.313   1.391   3.965  0.5554 -0.2942  0.5391
 7228TIP3   OH221647   0.333   1.603   5.482 -0.4518  0.0139 -0.4049
 7228TIP3    H121648   0.378   1.621   5.399  0.5304 -1.2237 -0.1745
 7228TIP3    H221649   0.402   1.609   5.548 -1.4159  1.9961  0.4950
 7229TIP3   OH221650   0.730   1.959   2.888 -0.0696  0.2477 -0.4164
 7229TIP3    H121651   0.724   1.898   2.815 -1.0371 -0.3982  0.1765
 7229TIP3    H221652   0.640   1.987   2.904  0.2316  1.0056  0.0078
 7230TIP3   OH221653   4.700   6.002   4.474 -0.0093  0.3603 -0.7062
 7230TIP3    H121654   4.741   6.019   4.559  0.6032  0.9286 -1.1060
 7230TIP3    H221655   4.680   6.089   4.440 -0.3232  0.1301 -1.1128
 7231TIP3   OH221656   3.572   6.158   0.646 -0.0409  0.8086 -0.0798
 7231TIP3    H121657   3.657   6.139   0.605 -0.3660 -0.4584 -0.2005
 7231TIP3    H221658   3.509   6.149   0.575 -0.5178 -0.5464  0.4832
 7232TIP3   OH221659   0.505   1.090   2.791  0.0031 -0.8706  0.1187
 7232TIP3    H121660   0.430   1.097   2.732 -0.0249  0.1570  0.2705
 7232TIP3    H221661   0.535   0.999   2.781  0.3985 -0.5560 -1.9506
 7233TIP3   OH221662   4.408   6.262   0.133 -0.2649  0.1788 -0.6600
 7233TIP3    H121663   4.440   6.191   0.188 -0.3518  0.1686 -0.6214
 7233TIP3    H221664   4.469   6.334   0.147 -0.1996  0.1249 -0.6683
 7234TIP3   OH221665   3.042   4.365   4.258 -0.5580  0.2473  0.0956
 7234TIP3    H121666   3.076   4.281   4.289  0.5379  0.2187 -1.0938
 7234TIP3    H221667   2.947   4.359   4.272 -0.5284 -1.2809 -0.1369
 7235TIP3   OH221668   0.309   4.233   1.239  0.4407 -0.0547 -0.3872
 7235TIP3    H121669   0.377   4.277   1.188  1.8144 -0.1965  1.2248
 7235TIP3    H221670   0.230   4.284   1.222  1.8089  2.7019  0.8348
 7236TIP3   OH221671   0.989   1.580   0.124  0.3062 -0.2480 -0.0765
 7236TIP3    H121672   0.922   1.512   0.133  0.7541 -0.4846  1.8157
 7236TIP3    H221673   1.060   1.537   0.076  0.6344 -1.1693  1.2052
 7237TIP3   OH221674   5.029   1.853   4.988  0.1304  0.0210 -0.1727
 7237TIP3    H121675   4.940   1.827   5.011 -0.1117  0.1518 -0.9391
 7237TIP3    H221676   5.023   1.881   4.897  0.6092  1.7035  0.2848
 7238TIP3   OH221677   5.710   2.646   5.342  0.2414  0.3290 -0.2189
 7238TIP3    H121678   5.620   2.663   5.314 -0.1529 -0.1962  0.6996
 7238TIP3    H221679   5.731   2.560   5.305 -1.2115 -1.6281  3.1135
 7239TIP3   OH221680   3.540   3.860   0.840 -0.5235  0.0906  0.4392
 7239TIP3    H121681   3.471   3.824   0.896 -0.5115 -2.1718 -0.8930
 7239TIP3    H221682   3.521   3.824   0.753  2.1240 -0.2966 -0.0429
 7240TIP3   OH221683   5.722   2.190   3.236  0.1894 -0.8264  0.3850
 7240TIP3    H121684   5.764   2.263   3.190  1.2138 -1.5104  0.2022
 7240TIP3    H221685   5.741   2.205   3.329 -1.2382  0.1526  0.5346
 7241TIP3   OH221686   6.152   0.294   1.133 -0.1697 -0.1311  0.2540
 7241TIP3    H121687   6.128   0.227   1.196 -1.2486  0.1280  0.1332
 7241TIP3    H221688   6.078   0.298   1.073 -0.1132  1.1358  0.2450
 7242TIP3   OH221689   3.882   4.345   1.728  0.2322 -0.1512 -0.1440
 7242TIP3    H121690   3.917   4.360   1.815  1.9313  1.3404 -1.0172
 7242TIP3    H221691   3.952   4.300   1.681 -0.9824 -1.7167 -0.5343
 7243TIP3   OH221692   5.095   2.305   2.036 -0.3344  0.0867 -0.0956
 7243TIP3    H121693   5.047   2.280   1.957  0.0268 -0.6713 -0.0871
 7243TIP3    H221694   5.065   2.244   2.103  0.4107 -0.2031 -0.0130
 7244TIP3   OH221695   1.074   3.204   1.555  0.3977  0.0129  0.0790
 7244TIP3    H121696   1.138   3.134   1.574 -0.8127 -1.5894 -1.4407
 7244TIP3    H221697   0.999   3.183   1.610 -0.1600 -0.1994 -0.7461
 7245TIP3   OH221698   3.761   5.482   1.830 -0.0716 -0.2611 -0.2902
 7245TIP3    H121699   3.706   5.546   1.786 -0.0895 -1.4754 -2.1331
 7245TIP3    H221700   3.703   5.439   1.893 -1.2783 -1.4594 -2.1291
 7246TIP3   OH221701   1.473   2.608   0.021 -0.1105 -0.7056 -0.0491
 7246TIP3    H121702   1.437   2.681   0.071  1.2906  0.2068 -0.3013
 7246TIP3    H221703   1.557   2.589   0.064  0.4973 -0.7862 -1.2402
 7247TIP3   OH221704   6.948   5.801   1.627  0.2332  0.1005 -0.0833
 7247TIP3    H121705   7.035   5.840   1.637 -0.6888  2.0554  1.0783
 7247TIP3    H221706   6.938   5.744   1.703  1.0387 -1.3815 -1.0349
 7248TIP3   OH221707   6.567   3.164   5.595 -0.2554  0.0482  0.4782
 7248TIP3    H121708   6.558   3.085   5.649  0.8617  0.9355  2.0342
 7248TIP3    H221709   6.661   3.174   5.582 -0.4228  0.7474 -0.2980
 7249TIP3   OH221710   7.143   2.227   5.019  0.2311  0.6848  0.3056
 7249TIP3    H121711   7.214   2.237   4.956  0.1278  1.3738  0.2985
 7249TIP3    H221712   7.171   2.155   5.075  0.2608 -0.0495 -0.6150
 7250TIP3   OH221713   4.229   1.838   0.709  0.4206  0.0093 -1.0396
 7250TIP3    H121714   4.227   1.930   0.738  1.4062 -0.3300  0.1876
 7250TIP3    H221715   4.218   1.788   0.789  0.8358 -0.9573 -1.5727
 7251TIP3   OH221716   1.078   5.257   3.442 -0.2673 -0.0320 -0.0090
 7251TIP3    H121717   1.156   5.308   3.423  2.4298 -3.5156  0.6492
 7251TIP3    H221718   1.026   5.313   3.500  2.6583  1.8173  1.0724
 7252TIP3   OH221719   0.286   3.169   2.688  0.0428  0.1782  0.3573
 7252TIP3    H121720   0.283   3.239   2.753  1.3285 -2.0201  3.0066
 7252TIP3    H221721   0.334   3.206   2.615 -0.6862  2.5044  0.9684
 7253TIP3   OH221722   5.947   2.131   0.350  0.4356 -0.1255 -0.1653
 7253TIP3    H121723   6.004   2.196   0.309  0.0516 -0.2517 -0.9290
 7253TIP3    H221724   5.859   2.152   0.317 -0.6080  2.1105  3.4714
 7254TIP3   OH221725   2.819   0.948   4.060  0.6967 -0.4344  0.0391
 7254TIP3    H121726   2.901   0.899   4.047  1.6767  1.6253 -2.1536
 7254TIP3    H221727   2.751   0.887   4.032  1.8887 -0.5793 -2.9068
 7255TIP3   OH221728   5.227   6.722   5.673 -0.2791 -0.8114 -0.3176
 7255TIP3    H121729   5.292   6.760   5.614  0.7701 -1.6625  0.2738
 7255TIP3    H221730   5.199   6.641   5.630 -0.1571 -0.9895 -0.0616
 7256TIP3   OH221731   5.510   1.397   0.219  0.5415 -0.0475 -0.3346
 7256TIP3    H121732   5.511   1.326   0.284  0.6723 -0.2474 -0.5552
 7256TIP3    H221733   5.573   1.461   0.252  1.1409 -0.4813 -0.6391
 7257TIP3   OH221734   7.122   3.344   4.222  0.1846 -0.3925  0.4023
 7257TIP3    H121735   7.147   3.306   4.306  1.0814 -3.6672 -1.1706
 7257TIP3    H221736   7.196   3.325   4.164 -0.4705  1.5818 -1.2228
 7258TIP3   OH221737   2.092   5.719   5.176  0.5157  0.3573 -0.2380
 7258TIP3    H121738   2.143   5.659   5.122  0.4140 -1.1909  1.2896
 7258TIP3    H221739   2.082   5.798   5.123  1.4063 -0.6546 -1.9710
 7259TIP3   OH221740   6.827   4.374   1.738 -0.0651 -0.4226 -0.3187
 7259TIP3    H121741   6.744   4.414   1.710 -0.3774 -1.0011 -0.2256
 7259TIP3    H221742   6.875   4.446   1.778 -0.1613  0.1181 -1.1412
 7260TIP3   OH221743   5.827   2.922   3.334 -0.5676  0.2092 -0.0839
 7260TIP3    H121744   5.896   2.860   3.309 -1.6445 -1.2798  0.4857
 7260TIP3    H221745   5.810   2.971   3.253  1.6297  1.1603 -0.0559
 7261TIP3   OH221746   3.652   4.482   5.418  0.6641 -0.1710  0.5402
 7261TIP3    H121747   3.611   4.534   5.349  1.1496  2.9860  2.4140
 7261TIP3    H221748   3.719   4.430   5.373 -0.9095 -0.4123 -1.6612
 7262TIP3   OH221749   3.394   2.556   4.516 -1.2523  0.8560  0.0428
 7262TIP3    H121750   3.311   2.603   4.519 -0.5576  2.3112 -1.4671
 7262TIP3    H221751   3.456   2.620   4.481 -0.0466 -0.9460 -1.2998
 7263TIP3   OH221752   0.913   4.892   0.309  0.0456 -0.2147  0.1094
 7263TIP3    H121753   0.963   4.973   0.307 -1.3710  0.7124  0.6618
 7263TIP3    H221754   0.967   4.829   0.261  1.7881  0.6706  0.8488
 7264TIP3   OH221755   1.305   0.581   0.891  0.6026  0.2634 -0.2139
 7264TIP3    H121756   1.300   0.514   0.960  1.5706 -1.1476 -1.4369
 7264TIP3    H221757   1.263   0.540   0.815 -2.8568  2.7770  0.1511
 7265TIP3   OH221758   2.930   1.400   5.049 -0.2711 -0.1102 -0.4281
 7265TIP3    H121759   2.924   1.322   4.994 -1.9943 -0.0612 -0.3808
 7265TIP3    H221760   2.889   1.374   5.132 -0.1124  0.6013 -0.1129
 7266TIP3   OH221761   6.832   1.635   0.080 -0.1461  0.4521  0.0516
 7266TIP3    H121762   6.800   1.723   0.101  4.3322  2.7800 -1.6186
 7266TIP3    H221763   6.885   1.610   0.156 -1.5085 -0.9975  0.5804
 7267TIP3   OH221764   4.045   2.100   3.142 -1.2728 -0.5214  0.1938
 7267TIP3    H121765   4.056   2.047   3.221 -0.4233  1.2169  1.3268
 7267TIP3    H221766   4.127   2.088   3.094 -0.9993 -0.1074  0.5478
 7268TIP3   OH221767   0.337   3.820   3.484  0.4059  0.1354 -0.1942
 7268TIP3    H121768   0.377   3.898   3.446  1.0164  0.5268  1.1687
 7268TIP3    H221769   0.392   3.799   3.560 -1.6938  0.4203  1.5097
 7269TIP3   OH221770   5.308   6.316   4.015  0.2032  0.0672 -0.3678
 7269TIP3    H121771   5.240   6.278   3.958 -1.2835  3.6587 -1.2802
 7269TIP3    H221772   5.390   6.299   3.969 -0.3899 -1.6764 -0.8592
 7270TIP3   OH221773   0.154   0.085   1.701  0.3798 -0.0998  0.0843
 7270TIP3    H121774   0.112   0.086   1.787 -0.9201 -3.1539 -0.3993
 7270TIP3    H221775   0.095   0.134   1.645  0.4190  0.5166  0.5641
 7271TIP3   OH221776   2.668   1.491   1.149  0.3534 -0.0802  0.0348
 7271TIP3    H121777   2.617   1.410   1.151 -0.1365  0.2267  0.0677
 7271TIP3    H221778   2.742   1.474   1.207  1.0113 -0.9993 -1.0360
 7272TIP3   OH221779   4.476   1.409   5.519  0.1456  0.2260  0.7424
 7272TIP3    H121780   4.480   1.453   5.603  0.8358 -0.6922  1.2035
 7272TIP3    H221781   4.501   1.318   5.537 -2.9321 -0.8655  0.1476
 7273TIP3   OH221782   3.157   5.770   5.731 -0.4157  0.3046  0.5990
 7273TIP3    H121783   3.232   5.764   5.790  1.3657  0.6692 -1.4880
 7273TIP3    H221784   3.172   5.702   5.666 -1.5218  0.8586 -0.2781
 7274TIP3   OH221785   5.363   2.256   4.178  0.3659 -0.0487 -0.8243
 7274TIP3    H121786   5.306   2.333   4.180 -0.4619 -0.6612  0.4354
 7274TIP3    H221787   5.401   2.257   4.090 -0.4766  1.1798 -1.2095
 7275TIP3   OH221788   2.060   2.687   2.586  0.2377  0.0309  0.2983
 7275TIP3    H121789   2.015   2.772   2.579 -0.1857  0.0964  2.9824
 7275TIP3    H221790   1.989   2.623   2.584  0.5388 -0.3136 -1.4044
 7276TIP3   OH221791   5.967   5.799   0.728 -0.0687  0.5898  0.2869
 7276TIP3    H121792   6.026   5.832   0.660 -0.3887  0.9848  0.1970
 7276TIP3    H221793   5.925   5.722   0.688 -0.8515  1.2823 -0.2725
 7277TIP3   OH221794   4.242   2.842   5.367 -0.2344  0.2998 -0.6985
 7277TIP3    H121795   4.274   2.764   5.321 -1.7263 -0.2665 -0.8636
 7277TIP3    H221796   4.283   2.916   5.322  0.4911 -0.3615 -1.1407
 7278TIP3   OH221797   6.426   0.940   2.846  0.0066  0.0456  0.0199
 7278TIP3    H121798   6.376   0.962   2.925 -0.9894 -0.8477 -0.3406
 7278TIP3    H221799   6.517   0.937   2.876 -0.3779 -0.5851  1.2094
 7279TIP3   OH221800   3.130   2.492   0.535 -0.2024  0.6147 -0.4744
 7279TIP3    H121801   3.128   2.577   0.491  0.9560  0.3633 -1.0627
 7279TIP3    H221802   3.146   2.429   0.465 -1.9077 -0.2042 -0.1636
 7280TIP3   OH221803   0.567   1.484   0.831 -0.5084 -0.8935 -0.2885
 7280TIP3    H121804   0.602   1.571   0.849 -1.4088 -0.5406 -0.1660
 7280TIP3    H221805   0.472   1.495   0.838 -0.6054 -2.4521  2.3721
 7281TIP3   OH221806   2.596   4.626   5.059  0.3885  0.3058 -0.4047
 7281TIP3    H121807   2.559   4.539   5.070  0.3661  0.4602  0.8444
 7281TIP3    H221808   2.685   4.611   5.028  0.5588 -0.1780  0.3119
 7282TIP3   OH221809   2.495   1.849   3.707 -0.1537  0.8566  0.1492
 7282TIP3    H121810   2.574   1.877   3.753  1.1150  0.4705 -1.6688
 7282TIP3    H221811   2.527   1.793   3.636 -2.2453 -1.2730  0.7395
 7283TIP3   OH221812   3.634   6.747   5.003  0.2573 -0.1567  0.1139
 7283TIP3    H121813   3.665   6.657   4.995 -0.4290 -0.2654 -1.7104
 7283TIP3    H221814   3.546   6.739   5.040  0.8878 -0.0807  1.7151
 7284TIP3   OH221815   5.575   3.510   3.181  0.0888  0.0273 -0.1328
 7284TIP3    H121816   5.561   3.546   3.093  0.3528 -1.5377 -0.8636
 7284TIP3    H221817   5.557   3.583   3.240  0.4244  1.2786 -1.5025
 7285TIP3   OH221818   5.960   5.434   2.837  0.2592  0.4524  0.2591
 7285TIP3    H121819   5.868   5.407   2.846  0.5541 -0.0820  1.8259
 7285TIP3    H221820   6.009   5.353   2.839  0.9813  0.8930  2.5514
 7286TIP3   OH221821   4.940   0.989   1.163  0.4695 -0.2936 -0.1006
 7286TIP3    H121822   4.885   0.928   1.113  0.5342 -0.9497  0.6173
 7286TIP3    H221823   4.881   1.061   1.186  0.2758 -0.2984 -0.5643
 7287TIP3   OH221824   0.528   3.617   0.789 -0.3105 -0.5682 -0.1236
 7287TIP3    H121825   0.591   3.551   0.761  0.0647  0.5264 -2.0001
 7287TIP3    H221826   0.484   3.645   0.709  1.2958  3.2159  0.0768
 7288TIP3   OH221827   0.741   3.344   1.306  0.0505 -0.0869 -0.3084
 7288TIP3    H121828   0.763   3.358   1.214  0.3919  0.4007 -0.1611
 7288TIP3    H221829   0.811   3.390   1.354 -0.8929  0.8867  0.1842
 7289TIP3   OH221830   6.865   2.523   4.482  0.3208 -0.5568 -0.2426
 7289TIP3    H121831   6.832   2.609   4.508  0.9902 -0.5681  0.6774
 7289TIP3    H221832   6.791   2.464   4.496  1.2511 -1.0178  4.1050
 7290TIP3   OH221833   5.758   5.419   4.985 -0.6363  0.8662  0.0063
 7290TIP3    H121834   5.792   5.356   5.048  0.8156  0.9785 -0.6175
 7290TIP3    H221835   5.757   5.370   4.902 -2.7572  0.6383  0.1286
 7291TIP3   OH221836   0.661   5.362   5.834  0.3272 -0.2591  0.6310
 7291TIP3    H121837   0.740   5.340   5.784  0.2430  1.0009 -0.1094
 7291TIP3    H221838   0.591   5.311   5.794  0.0396  1.5691 -1.3553
 7292TIP3   OH221839   5.358   3.378   2.052 -0.6830  0.4029 -0.0330
 7292TIP3    H121840   5.315   3.463   2.062 -0.5595  0.4312  0.2479
 7292TIP3    H221841   5.337   3.331   2.132  1.8105  1.2846  1.2381
 7293TIP3   OH221842   0.900   5.065   1.290 -0.0090  0.3925 -0.5798
 7293TIP3    H121843   0.968   5.032   1.231 -1.2610 -0.5086 -1.5795
 7293TIP3    H221844   0.928   5.035   1.377  2.0913  2.1190 -0.5793
 7294TIP3   OH221845   4.359   1.272   2.375 -0.3951  0.4417  0.3787
 7294TIP3    H121846   4.295   1.257   2.444 -2.8789  1.1392 -1.6098
 7294TIP3    H221847   4.355   1.367   2.359 -0.9568  0.1397 -1.5893
 7295TIP3   OH221848   3.933   6.568   4.810  0.3471  0.0540  0.3898
 7295TIP3    H121849   3.886   6.555   4.728  0.1218  0.3013  0.4799
 7295TIP3    H221850   3.864   6.571   4.877  0.5342 -0.2278  0.5962
 7296TIP3   OH221851   3.513   1.444   1.663 -0.0080  0.4631 -0.7732
 7296TIP3    H121852   3.590   1.500   1.657  0.5370 -0.1080  0.4053
 7296TIP3    H221853   3.439   1.502   1.646  0.6681  1.0144 -1.9295
 7297TIP3   OH221854   4.829   6.677   2.866 -0.0581  0.1036  0.1548
 7297TIP3    H121855   4.751   6.632   2.900  0.6547 -0.3238  1.3138
 7297TIP3    H221856   4.894   6.666   2.936  0.4711  2.0574  0.0096
 7298TIP3   OH221857   6.051   3.607   1.266  0.1623  0.1088  0.1141
 7298TIP3    H121858   5.991   3.639   1.200 -1.9360  0.5530  2.1145
 7298TIP3    H221859   6.038   3.512   1.267 -1.7949  0.3361  1.6126
 7299TIP3   OH221860   5.114   3.676   4.487 -0.1922 -0.4040 -0.4341
 7299TIP3    H121861   5.193   3.628   4.467 -1.2043 -1.7809 -1.3046
 7299TIP3    H221862   5.118   3.753   4.431  0.9161  0.0004  0.1670
 7300TIP3   OH221863   4.849   3.795   4.026  0.0098 -0.2479  0.0316
 7300TIP3    H121864   4.933   3.772   4.066  0.9294 -0.7167 -2.0424
 7300TIP3    H221865   4.784   3.758   4.085  1.2806 -0.8722  1.1046
 7301TIP3   OH221866   3.162   2.362   2.504 -0.7001  0.1867 -0.0787
 7301TIP3    H121867   3.133   2.298   2.570  3.9244 -0.9553  1.1814
 7301TIP3    H221868   3.188   2.308   2.429  2.2781  0.4740  0.6154
 7302TIP3   OH221869   2.179   4.448   0.752  0.4606 -0.1455  0.3412
 7302TIP3    H121870   2.211   4.448   0.661 -1.1350  0.5425 -0.2546
 7302TIP3    H221871   2.121   4.524   0.756  0.7157 -0.0121  2.0370
 7303TIP3   OH221872   7.132   4.926   4.119  0.1132 -0.3133 -0.2820
 7303TIP3    H121873   7.059   4.965   4.167 -1.2609 -2.5640 -0.3714
 7303TIP3    H221874   7.210   4.953   4.167 -0.8164  1.5067  0.2900
 7304TIP3   OH221875   1.622   5.031   4.555  0.5534 -0.7941  0.0425
 7304TIP3    H121876   1.536   5.000   4.528 -0.3653  1.2110  0.4439
 7304TIP3    H221877   1.684   4.969   4.516 -1.0122 -1.5785 -1.3106
 7305TIP3   OH221878   1.835   2.066   2.250  0.0327  0.3731  0.7296
 7305TIP3    H121879   1.897   2.012   2.202 -0.8412  0.3206 -0.3947
 7305TIP3    H221880   1.768   2.004   2.281  0.2981  0.4852  1.5323
 7306TIP3   OH221881   5.554   0.187   0.675 -0.4668  0.2407  0.7571
 7306TIP3    H121882   5.572   0.240   0.597 -0.9474  0.0140  0.4912
 7306TIP3    H221883   5.540   0.099   0.641  2.1655 -0.5013  1.3434
 7307TIP3   OH221884   4.634   4.795   1.849 -0.1437 -0.2990 -0.3007
 7307TIP3    H121885   4.624   4.787   1.754 -2.5064 -0.4515 -0.1167
 7307TIP3    H221886   4.586   4.719   1.884  0.4425 -0.0813  1.0282
 7308TIP3   OH221887   2.249   6.037   5.259 -0.5166  0.2400 -0.0354
 7308TIP3    H121888   2.283   6.029   5.170 -0.8723  0.5503 -0.1996
 7308TIP3    H221889   2.291   6.116   5.294 -1.4653  0.9418 -0.4279
 7309TIP3   OH221890   3.071   6.379   4.255 -0.0676  0.0566  0.2911
 7309TIP3    H121891   3.145   6.319   4.257 -0.6172 -0.6324  0.9097
 7309TIP3    H221892   3.105   6.460   4.292  0.2297 -0.4514  1.1867
 7310TIP3   OH221893   0.891   2.433   2.909 -0.4063 -1.0876 -0.2422
 7310TIP3    H121894   0.945   2.512   2.907 -0.1287 -1.2754 -0.4294
 7310TIP3    H221895   0.803   2.464   2.927 -0.5110 -0.6071 -1.4574
 7311TIP3   OH221896   4.476   3.301   4.769 -0.3978  0.3967  0.1668
 7311TIP3    H121897   4.399   3.340   4.811  0.4854  2.9153 -0.4345
 7311TIP3    H221898   4.549   3.324   4.827  0.0127 -1.6743  0.5509
 7312TIP3   OH221899   2.522   0.411   0.452 -0.2596 -0.1802 -0.3675
 7312TIP3    H121900   2.480   0.496   0.464 -1.0295 -0.5209 -0.5510
 7312TIP3    H221901   2.496   0.360   0.529 -1.0822 -0.7363 -0.9866
 7313TIP3   OH221902   2.050   6.249   0.189  0.2911 -0.1427 -0.5434
 7313TIP3    H121903   1.995   6.238   0.111  0.1056 -1.4210 -0.2421
 7313TIP3    H221904   2.139   6.242   0.156  0.2373  0.1538 -0.7601
 7314TIP3   OH221905   2.099   0.211   3.990 -0.6394  0.1666 -0.1410
 7314TIP3    H121906   2.015   0.208   4.035  0.2694  0.5458  1.6713
 7314TIP3    H221907   2.083   0.264   3.912 -2.1406 -0.0639 -0.0106
 7315TIP3   OH221908   3.922   3.260   4.092 -0.0603  0.4225 -0.4095
 7315TIP3    H121909   3.846   3.310   4.063 -0.2508  0.5307  0.2552
 7315TIP3    H221910   3.903   3.170   4.067 -0.7446  0.3318  0.3955
 7316TIP3   OH221911   0.784   2.920   4.609 -0.4264 -0.0031 -0.2019
 7316TIP3    H121912   0.830   2.985   4.556  0.3868 -0.2349  0.2037
 7316TIP3    H221913   0.742   2.863   4.545  0.0006  0.1078 -0.5864
 7317TIP3   OH221914   0.520   0.424   3.744  0.0586  0.2221 -0.2250
 7317TIP3    H121915   0.443   0.393   3.697  0.2773 -0.2694 -0.2729
 7317TIP3    H221916   0.537   0.356   3.809  1.1148 -0.2532 -0.9667
 7318TIP3   OH221917   1.826   5.217   0.412  0.0891 -0.3378  0.1016
 7318TIP3    H121918   1.826   5.125   0.439  0.4857 -0.9734 -1.9156
 7318TIP3    H221919   1.830   5.214   0.316 -2.2930  1.7593 -0.1552
 7319TIP3   OH221920   4.882   3.259   3.540 -0.9065  0.4129  0.2099
 7319TIP3    H121921   4.962   3.248   3.489 -2.1294 -0.6529 -1.5707
 7319TIP3    H221922   4.842   3.339   3.505 -0.3087  1.3887  1.6263
 7320TIP3   OH221923   3.257   1.953   5.863  0.2762 -0.0314 -0.6050
 7320TIP3    H121924   3.229   1.951   5.771  0.8212  0.0321 -0.7748
 7320TIP3    H221925   3.344   1.993   5.861  0.1373  0.3189 -0.0176
 7321TIP3   OH221926   4.286   5.448   5.401 -0.5577 -0.0878 -0.2608
 7321TIP3    H121927   4.363   5.488   5.442 -0.0823 -0.7663 -0.4739
 7321TIP3    H221928   4.225   5.434   5.474 -0.2734 -0.0278 -0.0108
 7322TIP3   OH221929   0.135   6.448   0.036  0.0962  0.1039 -0.1822
 7322TIP3    H121930   0.172   6.365   0.063  1.4798  0.8599  0.3286
 7322TIP3    H221931   0.152   6.453  -0.058  1.5465  0.5320  0.0791
 7323TIP3   OH221932   0.911   5.829   4.359  0.2496 -0.0613  0.3556
 7323TIP3    H121933   0.846   5.836   4.289 -0.7634 -1.7097  1.0758
 7323TIP3    H221934   0.969   5.758   4.331  0.8170  0.3546  0.4530
 7324TIP3   OH221935   0.284   6.493   3.398 -0.3566  0.2969  0.2785
 7324TIP3    H121936   0.321   6.411   3.368 -0.8704  0.3596 -0.5366
 7324TIP3    H221937   0.325   6.507   3.484  0.2396 -0.4612  0.1320
 7325TIP3   OH221938   0.520   5.466   4.875  0.0772  0.1318  0.1409
 7325TIP3    H121939   0.551   5.555   4.888  0.5960 -0.0041 -0.1211
 7325TIP3    H221940   0.526   5.425   4.961 -1.8140  0.8308  0.6646
 7326TIP3   OH221941   5.486   6.480   5.891 -0.3637 -0.5217 -0.3039
 7326TIP3    H121942   5.576   6.506   5.907 -0.9418  1.0440  0.6847
 7326TIP3    H221943   5.484   6.456   5.798  1.1160 -0.8612 -0.2667
 7327TIP3   OH221944   1.748   3.212   3.755  0.1576 -0.7630  0.8720
 7327TIP3    H121945   1.753   3.298   3.795  0.8231 -0.1586 -0.4261
 7327TIP3    H221946   1.696   3.159   3.816 -0.5863  0.6476  1.4983
 7328TIP3   OH221947   0.572   1.263   4.770 -0.4896  0.5533 -0.2156
 7328TIP3    H121948   0.570   1.304   4.684 -0.3382  2.0139  0.4497
 7328TIP3    H221949   0.664   1.267   4.797 -0.1709 -1.6562 -0.7595
 7329TIP3   OH221950   1.472   5.648   1.507  0.2060  0.0776 -0.1850
 7329TIP3    H121951   1.486   5.719   1.570 -3.9970  1.0162  0.0247
 7329TIP3    H221952   1.466   5.569   1.560 -0.0314  0.3643  0.2236
 7330TIP3   OH221953   5.610   3.024   1.523 -0.1973  0.0211 -0.1562
 7330TIP3    H121954   5.702   3.018   1.494  0.8256 -2.9047  3.0671
 7330TIP3    H221955   5.572   2.939   1.500 -2.4576  1.4427 -2.1033
 7331TIP3   OH221956   6.670   4.156   0.103 -0.8348 -0.0025  0.2636
 7331TIP3    H121957   6.575   4.158   0.095 -0.9616  0.0804  1.6345
 7331TIP3    H221958   6.688   4.182   0.193  0.5122  0.4460 -0.0959
 7332TIP3   OH221959   2.567   6.177   5.031  0.4377  0.7561  0.2672
 7332TIP3    H121960   2.558   6.095   5.080 -1.1346  1.5839  1.4524
 7332TIP3    H221961   2.640   6.161   4.971 -0.5526 -1.9076 -0.3595
 7333TIP3   OH221962   5.527   4.553   5.002  0.3603 -0.4915 -0.0211
 7333TIP3    H121963   5.548   4.490   5.071 -1.0210 -0.4758  0.4504
 7333TIP3    H221964   5.595   4.620   5.008  1.2193 -1.3692  0.1982
 7334TIP3   OH221965   5.219   5.305   2.847  0.7376 -0.0027  0.2457
 7334TIP3    H121966   5.147   5.338   2.901  1.3400 -1.1685  1.8340
 7334TIP3    H221967   5.190   5.219   2.819  1.0003  0.0388 -0.1525
 7335TIP3   OH221968   7.160   6.025   4.559 -0.9414 -0.4453 -0.4847
 7335TIP3    H121969   7.168   5.966   4.634 -1.0637 -0.9225 -0.8411
 7335TIP3    H221970   7.125   5.970   4.489  0.5672 -0.3837 -1.3346
 7336TIP3   OH221971   6.519   0.947   5.506 -0.0248  0.1930  0.3349
 7336TIP3    H121972   6.607   0.925   5.535  0.4135 -0.3151 -1.2935
 7336TIP3    H221973   6.492   1.019   5.564  0.9204 -0.5133  1.7162
 7337TIP3   OH221974   4.108   0.098   1.138  0.0757  0.1063 -0.3680
 7337TIP3    H121975   4.024   0.126   1.176 -0.7005 -1.8904 -0.4886
 7337TIP3    H221976   4.169   0.098   1.211 -0.9171 -1.7778  0.5230
 7338TIP3   OH221977   5.848   5.681   5.022 -0.1454 -0.4529 -0.2621
 7338TIP3    H121978   5.813   5.595   4.997 -0.4541 -0.5608  0.5018
 7338TIP3    H221979   5.814   5.696   5.110  1.0484 -0.1868  0.1845
 7339TIP3   OH221980   6.162   1.993   2.932  0.0458 -0.0962  0.4427
 7339TIP3    H121981   6.122   1.907   2.922  0.3591 -0.2385  0.3785
 7339TIP3    H221982   6.089   2.052   2.949 -0.2113 -0.3175  0.1299
 7340TIP3   OH221983   5.920   1.012   5.904  0.0526  0.0267  0.4365
 7340TIP3    H121984   5.981   1.039   5.835  1.0803 -0.9906  0.9193
 7340TIP3    H221985   5.856   0.957   5.858 -0.9535  1.6430 -0.1971
 7341TIP3   OH221986   4.878   1.265   5.778 -1.0226 -0.3485  0.1501
 7341TIP3    H121987   4.970   1.239   5.785 -0.9485  0.2413  1.6979
 7341TIP3    H221988   4.842   1.251   5.865 -2.2564 -0.0005 -0.2792
 7342TIP3   OH221989   3.463   2.318   5.286  0.6546  0.3801 -0.0810
 7342TIP3    H121990   3.443   2.236   5.241  0.2346  0.0258  0.7261
 7342TIP3    H221991   3.485   2.292   5.375  1.3604  1.0800 -0.0311
 7343TIP3   OH221992   4.579   2.528   5.209  0.0515 -0.2583  0.2664
 7343TIP3    H121993   4.615   2.479   5.135  0.7195 -2.7986  2.1399
 7343TIP3    H221994   4.618   2.615   5.200  0.6404 -0.6736 -1.9567
 7344TIP3   OH221995   0.571   5.084   3.525  0.0261 -0.1588  0.9531
 7344TIP3    H121996   0.639   5.049   3.467 -0.8077  1.2751 -0.9923
 7344TIP3    H221997   0.566   5.021   3.596  3.5132 -0.2524  1.2967
 7345TIP3   OH221998   6.498   5.542   2.169 -0.5606 -0.4899 -0.0501
 7345TIP3    H121999   6.508   5.459   2.121 -0.7764 -0.1946 -0.6166
 7345TIP3    H222000   6.507   5.517   2.261 -1.7625 -1.3447 -0.1251
 7346TIP3   OH222001   3.387   5.383   4.432 -0.4224  0.0061  0.0215
 7346TIP3    H122002   3.357   5.474   4.425  0.5645  0.5091  1.6908
 7346TIP3    H222003   3.307   5.331   4.424 -1.0867  1.0468 -0.4002
 7347TIP3   OH222004   0.377   0.773   0.953  0.0990 -0.4979  1.0669
 7347TIP3    H122005   0.440   0.845   0.949  0.8419 -1.0726  2.0411
 7347TIP3    H222006   0.293   0.814   0.933  0.8661  0.1107 -1.3197
 7348TIP3   OH222007   1.384   5.028   0.973 -0.0235 -0.2504 -0.2352
 7348TIP3    H122008   1.351   5.106   0.928 -0.2217  0.1754  0.6409
 7348TIP3    H222009   1.327   4.957   0.941  0.5446 -0.1681 -1.5061
 7349TIP3   OH222010   3.546   3.206   0.989  0.5274 -0.2001  0.0467
 7349TIP3    H122011   3.583   3.152   1.059  1.5373 -0.1504 -0.4335
 7349TIP3    H222012   3.492   3.146   0.937 -2.1498  0.2017  2.1420
 7350TIP3   OH222013   5.869   4.746   1.773  0.0860 -0.2130  0.6509
 7350TIP3    H122014   5.834   4.676   1.717  1.7223 -1.4527  1.1282
 7350TIP3    H222015   5.846   4.827   1.726  0.3230 -1.1588 -1.2001
 7351TIP3   OH222016   6.040   2.957   5.554 -0.2737  0.5947  0.1594
 7351TIP3    H122017   6.027   2.875   5.602 -0.3298 -0.0289 -0.8952
 7351TIP3    H222018   5.959   3.007   5.570 -1.1758 -0.4595 -0.8951
 7352TIP3   OH222019   0.640   2.188   3.998 -0.2512  0.0653 -0.0203
 7352TIP3    H122020   0.605   2.108   3.960  0.1636  0.0995 -0.4893
 7352TIP3    H222021   0.656   2.166   4.090  1.3079 -0.8961 -0.4698
 7353TIP3   OH222022   3.271   3.400   0.704  0.5501 -0.1831  0.1120
 7353TIP3    H122023   3.349   3.430   0.657 -0.1130 -1.9242 -2.3214
 7353TIP3    H222024   3.299   3.394   0.795  2.3472  2.0329 -0.2052
 7354TIP3   OH222025   6.795   0.484   0.344  0.4607 -0.2889 -0.1537
 7354TIP3    H122026   6.884   0.490   0.310  0.9971  0.0449  1.2276
 7354TIP3    H222027   6.777   0.572   0.378 -0.5005 -0.2839 -0.6348
 7355TIP3   OH222028   5.371   1.930   0.475 -0.5523 -0.5107  0.1133
 7355TIP3    H122029   5.422   1.990   0.421 -0.9374  0.3519  0.6721
 7355TIP3    H222030   5.378   1.845   0.431  0.3132 -0.1373 -0.4906
 7356TIP3   OH222031   1.272   0.352   0.158 -0.4914 -0.4121 -0.8302
 7356TIP3    H122032   1.301   0.268   0.123  1.4780  0.0389 -0.4160
 7356TIP3    H222033   1.284   0.414   0.086  1.8766  0.1919  0.0100
 7357TIP3   OH222034   4.204   5.426   4.129  0.0445 -0.1563 -0.0696
 7357TIP3    H122035   4.154   5.488   4.182 -0.5729 -0.4115 -0.3452
 7357TIP3    H222036   4.295   5.438   4.157  0.4006  2.9420 -2.1035
 7358TIP3   OH222037   2.257   3.783   4.702  0.0663  0.0608  0.3620
 7358TIP3    H122038   2.350   3.783   4.725  0.4909 -2.5005 -1.0350
 7358TIP3    H222039   2.253   3.828   4.618 -0.0659  0.6731  0.6890
 7359TIP3   OH222040   4.571   2.344   0.675 -0.1594  0.2266 -0.2762
 7359TIP3    H122041   4.601   2.347   0.584  1.3217  0.8318  0.1897
 7359TIP3    H222042   4.484   2.383   0.673 -0.7705 -1.1300 -1.6341
 7360TIP3   OH222043   5.060   4.952   4.207 -0.0575 -0.2057 -0.2841
 7360TIP3    H122044   5.036   4.881   4.147  1.0117 -1.3695  0.6093
 7360TIP3    H222045   5.149   4.976   4.181 -0.3778  0.7648 -0.5206
 7361TIP3   OH222046   6.801   2.220   2.846  0.2536 -0.1297  0.4561
 7361TIP3    H122047   6.846   2.149   2.893  1.9179  0.4355 -0.1878
 7361TIP3    H222048   6.821   2.299   2.898  0.3104  0.1875 -0.0419
 7362TIP3   OH222049   6.331   2.561   1.403  0.3665  0.1047  0.1249
 7362TIP3    H122050   6.336   2.480   1.453  1.4112 -0.6671 -1.1703
 7362TIP3    H222051   6.391   2.621   1.448 -1.3623  0.6455  1.8414
 7363TIP3   OH222052   0.747   0.740   0.527 -0.0260  0.4770 -0.1758
 7363TIP3    H122053   0.699   0.806   0.578  0.8272  0.0814  1.1948
 7363TIP3    H222054   0.690   0.664   0.527  1.1085 -0.5110  2.7432
 7364TIP3   OH222055   3.104   1.666   4.398  0.1226  0.0463 -0.2118
 7364TIP3    H122056   3.188   1.697   4.432  1.1536 -0.7996 -1.8852
 7364TIP3    H222057   3.120   1.575   4.374 -1.8581 -0.7698  1.2541
 7365TIP3   OH222058   0.569   5.684   4.638 -0.4928  0.5959  0.0876
 7365TIP3    H122059   0.595   5.609   4.586 -1.6510  0.8503 -0.9026
 7365TIP3    H222060   0.651   5.720   4.672  0.4783  1.2059 -2.6500
 7366TIP3   OH222061   4.107   6.270   4.285  0.3310 -0.7934 -0.7121
 7366TIP3    H122062   4.038   6.313   4.234 -0.2676  0.9739  1.4448
 7366TIP3    H222063   4.188   6.289   4.237  0.0587  2.5316 -0.0934
 7367TIP3   OH222064   2.175   6.507   1.418 -0.1322  0.0280 -0.0445
 7367TIP3    H122065   2.153   6.420   1.451 -1.4798  0.4098  0.1348
 7367TIP3    H222066   2.262   6.497   1.381  1.7801 -0.3602  4.0028
 7368TIP3   OH222067   0.062   0.824   3.376  0.4811  0.6733  0.1229
 7368TIP3    H122068   0.107   0.741   3.393  0.7505 -0.1130 -3.5487
 7368TIP3    H222069  -0.006   0.801   3.312 -0.0671  3.1578 -0.2875
 7369TIP3   OH222070   4.827   3.001   0.252  0.4690 -0.0569  0.4297
 7369TIP3    H122071   4.823   3.097   0.260 -0.9074 -0.1714  1.2806
 7369TIP3    H222072   4.736   2.973   0.244  0.8983 -1.2440 -0.7868
 7370TIP3   OH222073   5.912   0.055   3.734  0.1994 -0.1734 -0.1043
 7370TIP3    H122074   5.978   0.103   3.685  0.2114  0.5157  0.5728
 7370TIP3    H222075   5.949  -0.033   3.744  0.5499 -0.0896 -0.6204
 7371TIP3   OH222076   0.257   1.300   3.656  0.2930 -0.1017  0.2763
 7371TIP3    H122077   0.251   1.205   3.649  3.0005 -0.4439  1.4936
 7371TIP3    H222078   0.293   1.329   3.572 -0.9073 -0.0686 -0.2446
 7372TIP3   OH222079   5.025   2.951   3.096 -0.1526  0.2337  0.0927
 7372TIP3    H122080   5.077   3.009   3.152  0.1296 -0.8378  0.9712
 7372TIP3    H222081   4.937   2.988   3.098  0.5639  2.2620 -1.6739
 7373TIP3   OH222082   0.007   5.921   1.624 -0.1526 -0.3140  0.2758
 7373TIP3    H122083   0.047   6.002   1.655  1.1468 -1.1448  0.8085
 7373TIP3    H222084   0.061   5.851   1.660  1.2091 -1.3966 -3.3304
 7374TIP3   OH222085   2.562   5.758   5.610 -0.3912 -0.3159 -0.5264
 7374TIP3    H122086   2.622   5.683   5.620 -0.3577 -0.2205  0.0623
 7374TIP3    H222087   2.500   5.748   5.682 -0.2313  0.3597 -0.2826
 7375TIP3   OH222088   3.894   3.902   5.247 -0.1515 -0.3576 -0.6233
 7375TIP3    H122089   3.865   3.835   5.185 -1.6370 -0.9637  0.6622
 7375TIP3    H222090   3.988   3.912   5.230 -0.1275 -1.9610 -1.5994
 7376TIP3   OH222091   5.441   1.218   2.987 -0.1160  0.0569 -0.2459
 7376TIP3    H122092   5.363   1.193   3.037  0.5316 -0.7777  0.3560
 7376TIP3    H222093   5.413   1.211   2.895 -0.7257 -0.2977 -0.0415
 7377TIP3   OH222094   1.324   4.103   4.557  0.3374  0.4891  0.4555
 7377TIP3    H122095   1.264   4.127   4.487  1.3998  1.5175 -0.1322
 7377TIP3    H222096   1.277   4.124   4.638 -0.4153  0.4637  0.0303
 7378TIP3   OH222097   1.836   1.822   5.599  0.2213 -0.4421  0.0288
 7378TIP3    H122098   1.915   1.780   5.632 -0.1759 -0.7775  0.5683
 7378TIP3    H222099   1.834   1.908   5.641  0.2808 -0.4463  0.0398
 7379TIP3   OH222100   6.679   4.817   4.448  0.3936  0.0420 -0.2214
 7379TIP3    H122101   6.658   4.910   4.443  0.8224  0.0695 -2.8240
 7379TIP3    H222102   6.638   4.788   4.529 -1.8080  2.0129 -0.5046
 7380TIP3   OH222103   5.727   1.220   3.329 -0.9526  0.0775 -0.2799
 7380TIP3    H122104   5.744   1.220   3.234 -1.9717  1.0613 -0.4823
 7380TIP3    H222105   5.808   1.186   3.367 -1.0640 -1.7803 -1.5829
 7381TIP3   OH222106   2.534   5.453   3.541 -0.3337 -0.8065 -0.5280
 7381TIP3    H122107   2.596   5.502   3.594 -0.6165 -0.6978 -0.3010
 7381TIP3    H222108   2.588   5.390   3.493 -0.0505 -0.7184 -0.3213
 7382TIP3   OH222109   1.216   4.795   5.359 -0.2011  0.5777  0.8301
 7382TIP3    H122110   1.268   4.714   5.361  0.0156  0.7028  0.4273
 7382TIP3    H222111   1.140   4.773   5.304  0.2824  0.8899  0.0207
 7383TIP3   OH222112   6.867   5.822   2.221  0.7810 -0.4545  0.3201
 7383TIP3    H122113   6.826   5.743   2.186  1.3158 -0.5672 -0.0465
 7383TIP3    H222114   6.959   5.800   2.231  1.2814  0.6421 -1.4026
 7384TIP3   OH222115   1.903   3.192   0.452  0.1322  0.4964  0.2432
 7384TIP3    H122116   1.833   3.252   0.426 -0.5879 -0.7534 -0.8143
 7384TIP3    H222117   1.900   3.191   0.547 -1.9139 -0.2282  0.2016
 7385TIP3   OH222118   0.708   1.256   2.685  0.3055  0.1286 -0.4273
 7385TIP3    H122119   0.758   1.284   2.762 -1.8462  2.0518  0.3922
 7385TIP3    H222120   0.641   1.197   2.720  0.4731 -0.5085 -1.1442
 7386TIP3   OH222121   2.507   4.207   5.565  0.1456  0.3369  0.2868
 7386TIP3    H122122   2.412   4.194   5.568  0.3624 -1.7112  3.8924
 7386TIP3    H222123   2.535   4.158   5.488 -1.7419  1.8791 -1.4893
 7387TIP3   OH222124   3.964   5.034   3.511  0.2215 -0.3823  0.0590
 7387TIP3    H122125   3.917   5.086   3.446 -0.8984  0.4775  1.4767
 7387TIP3    H222126   3.938   4.944   3.493 -0.1607 -0.1500 -0.6144
 7388TIP3   OH222127   5.337   3.923   5.732  0.4761 -0.0382 -0.0070
 7388TIP3    H122128   5.245   3.906   5.714  0.4710  1.2963 -1.4599
 7388TIP3    H222129   5.384   3.884   5.659  0.7954  1.9116 -0.8978
 7389TIP3   OH222130   6.973   4.448   3.379  0.7198  0.1430 -0.1594
 7389TIP3    H122131   6.896   4.398   3.354  0.9255  0.4827 -1.5401
 7389TIP3    H222132   6.948   4.540   3.365  0.3915  0.4882  2.2070
 7390TIP3   OH222133   0.006   3.312   2.089 -0.0453  0.8168  0.4308
 7390TIP3    H122134   0.088   3.274   2.122  0.3994 -1.6393 -2.9857
 7390TIP3    H222135   0.026   3.405   2.077  1.8885  0.4723  0.6800
 7391TIP3   OH222136   4.361   6.279   4.176  0.3269  0.8154 -0.1589
 7391TIP3    H122137   4.425   6.350   4.178  1.7789 -0.4484  0.8636
 7391TIP3    H222138   4.380   6.233   4.095 -0.4480  1.4387 -0.6991
 7392TIP3   OH222139   3.962   3.700   5.601 -0.1039 -0.0778 -0.2894
 7392TIP3    H122140   4.011   3.680   5.681  1.1869  0.9379 -0.8037
 7392TIP3    H222141   3.931   3.790   5.614  0.2807  0.1611 -1.0125
 7393TIP3   OH222142   4.181   4.822   2.929 -0.1575  0.0082  0.2965
 7393TIP3    H122143   4.232   4.903   2.930  0.7969 -0.5757  0.0384
 7393TIP3    H222144   4.247   4.752   2.926 -0.9624 -0.7848  0.7242
 7394TIP3   OH222145   1.521   5.028   2.691  0.5701 -0.2688 -0.1108
 7394TIP3    H122146   1.557   5.046   2.778  0.3339  3.3735 -0.6312
 7394TIP3    H222147   1.597   5.016   2.635  0.7275 -3.1164  0.5564
 7395TIP3   OH222148   6.502   1.134   3.654  0.1252 -0.0580  0.0395
 7395TIP3    H122149   6.470   1.047   3.632  0.3554 -0.7706  2.2386
 7395TIP3    H222150   6.446   1.194   3.604 -1.1123 -1.4165 -0.2751
 7396TIP3   OH222151   0.514   1.482   2.622  0.1346 -0.2563 -0.5425
 7396TIP3    H122152   0.538   1.533   2.545  1.9808 -1.3310 -0.7358
 7396TIP3    H222153   0.594   1.435   2.646 -1.0412 -1.8048  0.5811
 7397TIP3   OH222154   0.750   6.079   4.950  0.6962 -0.3634  0.2122
 7397TIP3    H122155   0.680   6.140   4.975  0.1038 -1.0270  0.2136
 7397TIP3    H222156   0.729   5.998   4.997  1.9864 -0.3081  0.9492
 7398TIP3   OH222157   7.173   1.608   3.157 -0.3296 -0.0992  0.1319
 7398TIP3    H122158   7.153   1.628   3.065  0.0761  0.5161  0.1730
 7398TIP3    H222159   7.088   1.583   3.194  0.0779 -4.9903 -1.4687
 7399TIP3   OH222160   7.050   1.225   5.787  0.7005  0.2404  0.0881
 7399TIP3    H122161   7.095   1.248   5.706 -0.2372 -1.0289 -0.8470
 7399TIP3    H222162   7.045   1.306   5.837 -0.8749  1.6673 -2.2060
 7400TIP3   OH222163   1.828   2.297   4.861 -0.0240 -0.2108 -0.0218
 7400TIP3    H122164   1.912   2.330   4.893  0.8327 -1.6642 -0.6931
 7400TIP3    H222165   1.816   2.214   4.905  0.5192 -1.6001 -2.2997
 7401TIP3   OH222166   1.912   4.490   4.761 -0.0209  0.3231 -0.3841
 7401TIP3    H122167   1.819   4.512   4.768  0.0468  0.8113 -0.8828
 7401TIP3    H222168   1.913   4.402   4.724 -0.2921 -0.0668  0.5250
 7402TIP3   OH222169   1.211   1.793   1.246  0.3018 -0.3238  0.3832
 7402TIP3    H122170   1.200   1.727   1.177  0.3234 -0.1506  0.2147
 7402TIP3    H222171   1.127   1.795   1.291 -0.2268  0.6507 -0.5932
 7403TIP3   OH222172   0.403   3.114   0.963 -0.3288 -0.3817  0.0781
 7403TIP3    H122173   0.409   3.160   1.047  0.3903 -0.0100 -0.1611
 7403TIP3    H222174   0.376   3.181   0.901 -0.5052 -0.5726 -0.0520
 7404TIP3   OH222175   5.089   0.677   0.908  0.4698 -0.7628 -0.1033
 7404TIP3    H122176   5.135   0.673   0.992  0.9746  0.4185 -0.2986
 7404TIP3    H222177   5.016   0.616   0.917  0.9714 -1.2266  0.9123
 7405TIP3   OH222178   6.333   6.710   2.268 -0.0460 -0.2542  0.1219
 7405TIP3    H122179   6.387   6.763   2.326 -0.4815  0.6469 -0.2726
 7405TIP3    H222180   6.308   6.635   2.320  0.6348 -0.1054  0.6783
 7406TIP3   OH222181   1.598   2.554   1.852 -0.4814  0.4026  0.1314
 7406TIP3    H122182   1.514   2.588   1.823  0.2436  2.2570  0.1082
 7406TIP3    H222183   1.610   2.591   1.940  1.0596  1.5989 -0.5382
 7407TIP3   OH222184   5.960   4.025   2.097 -0.7287  0.5348 -0.5271
 7407TIP3    H122185   5.957   4.108   2.143 -0.3042 -0.1937  0.8493
 7407TIP3    H222186   6.053   4.005   2.088 -0.8247 -0.4604  0.4469
 7408TIP3   OH222187   0.569   0.256   5.708 -0.0839 -0.1357 -0.6145
 7408TIP3    H122188   0.512   0.319   5.751  0.5795  1.0765 -1.4328
 7408TIP3    H222189   0.603   0.201   5.779 -1.6996 -0.4554 -0.0444
 7409TIP3   OH222190   0.523   4.676   1.541 -0.7547 -0.1105 -0.0498
 7409TIP3    H122191   0.585   4.606   1.563  0.2795  0.3731 -1.2682
 7409TIP3    H222192   0.445   4.630   1.509 -0.8161 -0.7223  0.9566
 7410TIP3   OH222193   0.200   6.476   0.762  0.4844 -0.1007  0.4094
 7410TIP3    H122194   0.152   6.436   0.834  0.1727  0.6087  0.6078
 7410TIP3    H222195   0.150   6.452   0.684 -0.4626  0.9789  0.6536
 7411TIP3   OH222196   4.503   3.843   4.703 -0.0054 -0.5276  0.5523
 7411TIP3    H122197   4.441   3.779   4.740  0.8780 -1.3152  0.7097
 7411TIP3    H222198   4.582   3.792   4.685  0.9478  0.6542  1.2749
 7412TIP3   OH222199   3.283   3.324   0.272 -0.0132  0.2105  0.0844
 7412TIP3    H122200   3.313   3.411   0.244 -0.3689 -0.1079 -1.3653
 7412TIP3    H222201   3.189   3.325   0.255  0.2112 -0.9677 -1.4428
 7413TIP3   OH222202   3.177   1.938   5.595 -0.0861  0.1331 -0.8983
 7413TIP3    H122203   3.154   1.849   5.571 -2.8594  0.1568  1.2276
 7413TIP3    H222204   3.217   1.975   5.516  1.1438 -2.9043 -1.8358
 7414TIP3   OH222205   6.721   3.516   2.515  0.1354 -0.2818  0.4183
 7414TIP3    H122206   6.757   3.599   2.546  1.2269 -0.3801 -0.4790
 7414TIP3    H222207   6.788   3.482   2.455 -0.6421 -1.4245  0.1510
 7415TIP3   OH222208   0.444   6.007   3.424  0.2232 -0.3028  0.2123
 7415TIP3    H122209   0.379   5.946   3.459  0.9922 -0.6610  1.0657
 7415TIP3    H222210   0.513   6.008   3.491  1.2288 -0.1642 -0.8106
 7416TIP3   OH222211   7.032   3.192   1.171  0.4235  0.1158 -0.8866
 7416TIP3    H122212   6.943   3.160   1.187  0.8601 -0.2584  1.1511
 7416TIP3    H222213   7.021   3.266   1.112 -1.1401 -0.4790 -1.3969
 7417TIP3   OH222214   4.696   2.809   3.427  0.3015 -0.1162 -0.1435
 7417TIP3    H122215   4.656   2.853   3.352  0.6234  0.6512  0.1175
 7417TIP3    H222216   4.789   2.831   3.420  0.7156 -1.9117 -0.7739
 7418TIP3   OH222217   5.813   2.523   0.082 -0.1977 -0.0310 -0.1299
 7418TIP3    H122218   5.756   2.553   0.011  0.0703  0.2225 -0.2421
 7418TIP3    H222219   5.888   2.582   0.078 -0.8542  0.9607  1.3453
 7419TIP3   OH222220   2.238   0.098   2.692 -0.6528  0.0390  0.7848
 7419TIP3    H122221   2.149   0.113   2.660  0.1436  0.7242 -1.2530
 7419TIP3    H222222   2.273   0.029   2.636  0.6390  0.9307  0.4410
 7420TIP3   OH222223   2.247   0.196   0.264 -0.3754  0.1075 -0.2433
 7420TIP3    H122224   2.173   0.209   0.205 -0.4071  3.5258  0.3480
 7420TIP3    H222225   2.209   0.201   0.352  0.2563 -0.3482  0.0598
 7421TIP3   OH222226   3.541   3.335   4.954  0.7724  0.1123  0.0248
 7421TIP3    H122227   3.572   3.340   4.864  2.5088  0.7098  0.6180
 7421TIP3    H222228   3.523   3.426   4.979  0.1023 -0.0688  0.2353
 7422TIP3   OH222229   4.886   2.823   4.493 -0.0895 -0.1087  0.4234
 7422TIP3    H122230   4.852   2.738   4.521  0.3463 -0.5668 -0.4155
 7422TIP3    H222231   4.979   2.820   4.514 -0.0896  0.2010  0.4751
 7423TIP3   OH222232   2.505   3.363   3.940 -0.6724 -0.4287 -0.1793
 7423TIP3    H122233   2.568   3.368   4.011 -0.1803  0.7097 -0.6756
 7423TIP3    H222234   2.508   3.449   3.898 -0.9399 -1.0718 -1.5900
 7424TIP3   OH222235   0.163   2.752   1.780 -0.3728  0.5443 -0.2723
 7424TIP3    H122236   0.232   2.776   1.842 -2.5954 -1.3877  3.3020
 7424TIP3    H222237   0.182   2.661   1.757  0.3040  1.1753 -2.4208
 7425TIP3   OH222238   4.050   1.977   3.391 -0.6287  0.5929  0.0742
 7425TIP3    H122239   4.099   2.034   3.451 -0.3643  1.3420 -0.8279
 7425TIP3    H222240   4.023   1.903   3.445  2.1780 -0.2722  0.4917
 7426TIP3   OH222241   4.925   6.432   2.356 -0.3268  0.3006 -0.3304
 7426TIP3    H122242   4.838   6.437   2.316 -0.5131  3.6401  0.2232
 7426TIP3    H222243   4.982   6.480   2.295  0.4689  0.8379  0.8093
 7427TIP3   OH222244   2.199   6.150   4.499  0.2626  0.0261 -0.3439
 7427TIP3    H122245   2.284   6.107   4.510  0.8202  1.1387 -0.1749
 7427TIP3    H222246   2.200   6.182   4.409 -0.3488 -0.7309 -0.6214
 7428TIP3   OH222247   1.311   5.412   1.535  0.5603  0.0207  0.7881
 7428TIP3    H122248   1.347   5.382   1.618  0.3312 -0.4942  0.7052
 7428TIP3    H222249   1.335   5.344   1.472  0.6812  0.3765  0.4436
 7429TIP3   OH222250   1.399   6.202   3.878  0.1722 -0.0498  0.2011
 7429TIP3    H122251   1.317   6.193   3.927  0.3299  1.5727  0.8188
 7429TIP3    H222252   1.467   6.185   3.943  0.3637  1.0953  0.3122
 7430TIP3   OH222253   2.292   4.656   4.981  0.0281 -0.4989 -0.1114
 7430TIP3    H122254   2.354   4.614   5.041 -0.2960  0.9161  1.2787
 7430TIP3    H222255   2.214   4.601   4.985  0.5016 -1.2049 -0.3609
 7431TIP3   OH222256   3.085   0.603   4.469  0.0904 -0.4357 -0.3535
 7431TIP3    H122257   3.126   0.535   4.416 -0.5214 -0.9928 -0.1198
 7431TIP3    H222258   3.143   0.611   4.545  0.7256  0.0494 -0.8743
 7432TIP3   OH222259   5.402   0.403   2.165 -0.4293 -0.0726  0.1180
 7432TIP3    H122260   5.433   0.494   2.171  1.6570 -0.6428 -1.0203
 7432TIP3    H222261   5.313   0.406   2.199  0.1333  2.1058  1.6204
 7433TIP3   OH222262   4.119   3.245   1.439 -0.3434  0.1224 -0.4412
 7433TIP3    H122263   4.136   3.244   1.533  0.4502  0.4738 -0.5654
 7433TIP3    H222264   4.182   3.183   1.403 -0.5658  0.0752 -0.7464
 7434TIP3   OH222265   0.283   0.512   1.485 -0.3218 -0.2033  0.1907
 7434TIP3    H122266   0.251   0.452   1.553 -0.2642 -1.0407 -0.5005
 7434TIP3    H222267   0.208   0.523   1.427 -0.4234  0.6482  0.4693
 7435TIP3   OH222268   6.379   5.712   2.484  0.2050  0.0706  0.1251
 7435TIP3    H122269   6.469   5.706   2.514  0.2278  1.8827  0.5082
 7435TIP3    H222270   6.327   5.673   2.554  0.5903  0.2758  0.5256
 7436TIP3   OH222271   5.339   4.149   3.222 -0.0992 -0.0935  0.5873
 7436TIP3    H122272   5.419   4.097   3.218  0.0025  0.1146 -1.1252
 7436TIP3    H222273   5.293   4.117   3.299  1.1734 -0.8878  1.0567
 7437TIP3   OH222274   0.187   4.945   4.428  0.2914 -0.0433  0.3388
 7437TIP3    H122275   0.123   4.875   4.430  1.1844 -0.9644 -1.1950
 7437TIP3    H222276   0.138   5.022   4.399 -0.3403 -0.4424  0.3286
 7438TIP3   OH222277   6.314   4.935   5.036  0.3204 -0.4639  0.3239
 7438TIP3    H122278   6.257   5.007   5.008 -0.7911 -0.7128  1.8276
 7438TIP3    H222279   6.355   4.904   4.955  0.1127  1.2403 -0.4804
 7439TIP3   OH222280   6.098   0.546   1.780 -0.0126  0.2789 -0.0909
 7439TIP3    H122281   6.026   0.570   1.837 -1.2712 -2.0323 -0.5886
 7439TIP3    H222282   6.165   0.513   1.840  0.6524  2.2555  0.3544
 7440TIP3   OH222283   1.683   5.160   2.861  0.4948  0.2467 -0.1342
 7440TIP3    H122284   1.761   5.148   2.806  1.8381 -1.0024  1.9059
 7440TIP3    H222285   1.710   5.131   2.948 -2.4495 -0.8241  0.5454
 7441TIP3   OH222286   3.688   3.665   0.119  0.1400  0.8618  0.7169
 7441TIP3    H122287   3.665   3.617   0.198 -1.3486 -0.9304 -0.6917
 7441TIP3    H222288   3.784   3.662   0.116  0.1673 -0.0614  1.8519
 7442TIP3   OH222289   3.095   1.389   2.249  0.6008  0.2186 -0.3286
 7442TIP3    H122290   3.032   1.357   2.183 -0.8140 -1.4969  1.7335
 7442TIP3    H222291   3.122   1.311   2.297 -0.9441  1.6615  3.2345
 7443TIP3   OH222292   1.065   3.088   4.671 -0.5096 -0.3239  0.1982
 7443TIP3    H122293   1.076   3.115   4.762  0.3884 -0.6634  0.2020
 7443TIP3    H222294   1.094   3.163   4.620  3.0534 -1.5307  0.2011
 7444TIP3   OH222295   6.397   2.449   2.612 -0.1309 -0.1013 -0.0294
 7444TIP3    H122296   6.454   2.400   2.671  0.7441  0.3179 -0.4925
 7444TIP3    H222297   6.399   2.539   2.646 -0.3660 -0.0482 -0.1516
 7445TIP3   OH222298   5.549   3.262   1.662 -0.4213  0.0328 -0.1113
 7445TIP3    H122299   5.562   3.235   1.753  1.7666  1.5564  0.1110
 7445TIP3    H222300   5.552   3.181   1.612 -2.1503 -0.8864  1.1600
 7446TIP3   OH222301   1.111   1.036   1.854  0.1491 -0.0615 -0.2251
 7446TIP3    H122302   1.191   0.990   1.830 -0.8663 -1.0633 -1.9370
 7446TIP3    H222303   1.067   0.977   1.916 -0.1427 -0.4332 -0.7722
 7447TIP3   OH222304   4.523   3.664   2.289 -0.3112 -0.0688  0.1609
 7447TIP3    H122305   4.571   3.741   2.259 -0.9579  0.1760 -0.2644
 7447TIP3    H222306   4.465   3.642   2.216  0.0076 -1.0841  0.1901
 7448TIP3   OH222307   5.718   3.654   5.032  0.4203  0.8623 -0.0476
 7448TIP3    H122308   5.757   3.708   5.101 -0.1826 -1.6286  2.4764
 7448TIP3    H222309   5.790   3.637   4.971  1.4120  1.9821  0.7580
 7449TIP3   OH222310   6.003   1.687   1.243  0.5723  0.1505 -0.2892
 7449TIP3    H122311   5.965   1.629   1.309 -1.2515  0.0753 -1.3521
 7449TIP3    H222312   5.986   1.776   1.276  0.7903  0.1144 -0.0712
 7450TIP3   OH222313   0.525   0.661   4.161  0.0777 -0.0964 -0.1637
 7450TIP3    H122314   0.502   0.703   4.078 -0.0135 -1.3911 -0.8276
 7450TIP3    H222315   0.494   0.721   4.228  0.0682  0.9374 -1.0708
 7451TIP3   OH222316   3.582   5.649   5.287  0.4933 -0.1239 -0.3884
 7451TIP3    H122317   3.575   5.574   5.228 -1.5465 -0.1226 -0.2127
 7451TIP3    H222318   3.492   5.675   5.305  1.0044  0.1130  2.4483
 7452TIP3   OH222319   6.997   2.456   1.902 -0.0986  0.0554 -0.6126
 7452TIP3    H122320   7.091   2.457   1.918 -0.1929 -0.3329 -0.0160
 7452TIP3    H222321   6.958   2.475   1.987 -0.5804 -0.6359 -0.6757
 7453TIP3   OH222322   5.409   5.627   1.236 -0.5974 -0.2437 -0.0127
 7453TIP3    H122323   5.368   5.541   1.249 -0.7324 -0.1796 -0.0207
 7453TIP3    H222324   5.339   5.690   1.251 -0.6639 -0.1567 -0.6712
 7454TIP3   OH222325   1.542   2.815   4.844  0.3532  0.6929 -0.1559
 7454TIP3    H122326   1.520   2.862   4.925 -0.0748  0.8704 -0.3703
 7454TIP3    H222327   1.636   2.799   4.850  0.4433  1.2900  0.0726
 7455TIP3   OH222328   1.945   1.334   3.809  0.0436  1.0717  0.2369
 7455TIP3    H122329   1.975   1.312   3.897 -0.9403 -0.8618  0.1587
 7455TIP3    H222330   1.858   1.371   3.822 -0.7981 -0.7038  0.0589
 7456TIP3   OH222331   4.383   1.053   5.086 -0.8393 -0.1949  0.0536
 7456TIP3    H122332   4.362   1.111   5.013 -0.6403  0.9763  0.9023
 7456TIP3    H222333   4.474   1.073   5.107 -1.6495  1.4776  2.3570
 7457TIP3   OH222334   7.102   5.874   3.330 -0.1483  0.2393 -0.4831
 7457TIP3    H122335   7.090   5.900   3.239 -0.3023  1.7231 -0.0644
 7457TIP3    H222336   7.101   5.956   3.379  0.6102 -0.4723  0.7916
 7458TIP3   OH222337   2.617   2.552   1.226  0.4489 -0.0705  0.0561
 7458TIP3    H122338   2.526   2.545   1.255  0.0366 -1.6194 -1.4271
 7458TIP3    H222339   2.664   2.584   1.303 -1.0008 -1.3132  1.5378
 7459TIP3   OH222340   3.206   5.337   3.246 -0.2745 -0.0446 -0.4476
 7459TIP3    H122341   3.161   5.344   3.330  0.7660  3.7884 -0.0124
 7459TIP3    H222342   3.293   5.303   3.268 -0.3521 -0.0540 -0.1475
 7460TIP3   OH222343   0.700   4.721   0.084  0.1146 -0.6257  0.1841
 7460TIP3    H122344   0.780   4.678   0.053  1.1371  0.6664  0.9251
 7460TIP3    H222345   0.676   4.781   0.014  1.5853  1.2211  1.1925
 7461TIP3   OH222346   6.129   1.109   5.346 -0.3409 -0.8772 -0.1528
 7461TIP3    H122347   6.135   1.024   5.390  0.7444 -0.8555 -0.2114
 7461TIP3    H222348   6.162   1.092   5.258  2.4853  0.1021  0.6065
 7462TIP3   OH222349   6.934   6.151   0.409 -0.1544 -0.5177 -0.1608
 7462TIP3    H122350   7.016   6.196   0.388  0.3474 -0.8331  1.0233
 7462TIP3    H222351   6.957   6.093   0.482 -1.4973 -0.4196  0.3568
 7463TIP3   OH222352   3.507   4.630   5.243 -0.2378 -0.1251 -0.7266
 7463TIP3    H122353   3.473   4.714   5.273 -0.5015 -0.2417 -0.7030
 7463TIP3    H222354   3.430   4.579   5.219 -0.1536 -0.7755  0.3215
 7464TIP3   OH222355   6.626   5.627   4.837  0.1852 -0.1255 -0.6289
 7464TIP3    H122356   6.539   5.648   4.805  0.4374  0.8535 -0.7240
 7464TIP3    H222357   6.684   5.687   4.789  0.7280  0.3708  0.6013
 7465TIP3   OH222358   1.382   5.219   0.712  0.4225  0.1007  0.4205
 7465TIP3    H122359   1.291   5.191   0.711  0.3022  0.5047 -0.4386
 7465TIP3    H222360   1.392   5.273   0.634  1.7654 -1.1157 -0.2914
 7466TIP3   OH222361   3.425   0.066   5.587  0.1544 -0.2251  0.5822
 7466TIP3    H122362   3.331   0.048   5.581  0.0869 -0.3093  1.5938
 7466TIP3    H222363   3.456   0.066   5.497 -0.9330  0.4157  0.1942
 7467TIP3   OH222364   6.582   5.003   4.681 -0.2235 -0.1322 -0.3152
 7467TIP3    H122365   6.489   4.998   4.700 -0.1126  1.2140  0.7171
 7467TIP3    H222366   6.617   4.917   4.704 -0.9130 -0.0588  1.0509
 7468TIP3   OH222367   4.352   0.387   2.000 -0.2443  0.3663  0.0362
 7468TIP3    H122368   4.352   0.483   1.999 -0.1503  0.3850 -1.6546
 7468TIP3    H222369   4.269   0.363   2.041 -1.0289  1.2106 -0.9922
 7469TIP3   OH222370   1.077   5.597   4.822  0.4942  0.2301 -0.0173
 7469TIP3    H122371   1.056   5.628   4.910  1.5500  0.5358  0.1478
 7469TIP3    H222372   1.026   5.518   4.811 -1.5907  1.5144 -0.1043
 7470TIP3   OH222373   4.036   1.983   2.310 -0.0210  0.4995  0.3486
 7470TIP3    H122374   4.116   1.932   2.298 -0.4561  0.2460 -1.9431
 7470TIP3    H222375   4.062   2.074   2.296 -0.2120  0.3567 -1.0910
 7471TIP3   OH222376   3.452   0.008   3.235  0.1978  0.1334  0.2186
 7471TIP3    H122377   3.420   0.078   3.179  0.4934  0.5273  0.5327
 7471TIP3    H222378   3.521   0.049   3.288  0.8627 -0.5543 -0.0813
 7472TIP3   OH222379   0.134   2.182   1.873 -0.1364 -0.2078 -0.1227
 7472TIP3    H122380   0.136   2.174   1.778 -3.0241 -3.0814 -0.1187
 7472TIP3    H222381   0.211   2.133   1.903  0.0576 -0.4110 -0.9313
 7473TIP3   OH222382   1.889   4.888   3.634 -0.0601  0.0236 -0.4246
 7473TIP3    H122383   1.951   4.954   3.602 -1.7827  2.4834  1.0475
 7473TIP3    H222384   1.805   4.914   3.597 -1.3091  0.4352  2.4460
 7474TIP3   OH222385   6.272   2.401   5.820  0.7216 -0.7983  0.3872
 7474TIP3    H122386   6.325   2.321   5.819  0.2198 -1.1450  0.9198
 7474TIP3    H222387   6.319   2.462   5.763  0.7922 -1.6722 -0.5095
 7475TIP3   OH222388   2.384   2.592   2.604  0.8280  0.1232  0.0339
 7475TIP3    H122389   2.356   2.500   2.609  1.7418 -0.1134  1.3506
 7475TIP3    H222390   2.479   2.588   2.609  0.8503  1.1602  0.7469
 7476TIP3   OH222391   1.782   0.615   3.844  0.3036 -0.3589 -0.1010
 7476TIP3    H122392   1.719   0.543   3.850  1.0580 -1.0247  0.0461
 7476TIP3    H222393   1.801   0.639   3.934 -0.9881  0.9863 -0.1513
 7477TIP3   OH222394   2.437   3.620   3.814  0.0077 -0.2301 -0.1685
 7477TIP3    H122395   2.472   3.708   3.829  1.3863 -1.0169  1.5646
 7477TIP3    H222396   2.482   3.589   3.735  0.8210 -0.0084  0.2014
 7478TIP3   OH222397   0.614   3.996   1.728  0.3577  0.2900 -0.5963
 7478TIP3    H122398   0.592   3.973   1.638  2.4226 -0.1754 -1.0256
 7478TIP3    H222399   0.660   4.079   1.721 -0.6324  0.9334  0.1984
 7479TIP3   OH222400   1.360   6.302   4.184  0.7669 -0.6742 -0.7686
 7479TIP3    H122401   1.422   6.373   4.166  1.5547 -1.3294 -0.7321
 7479TIP3    H222402   1.408   6.223   4.161  1.3545 -1.4916  2.7428
 7480TIP3   OH222403   5.263   3.410   4.168  0.1680  0.1478  0.4195
 7480TIP3    H122404   5.330   3.477   4.179  0.1130  0.2105  0.3743
 7480TIP3    H222405   5.298   3.333   4.212  1.4638 -0.6605 -1.8907
 7481TIP3   OH222406   2.495   4.531   0.364 -0.0095 -0.5272  0.3719
 7481TIP3    H122407   2.465   4.621   0.352  1.0087 -0.3750 -1.3404
 7481TIP3    H222408   2.590   4.536   0.356  0.0159 -1.8286 -0.4483
 7482TIP3   OH222409   0.805   5.309   0.285  0.1985  0.2461  0.0830
 7482TIP3    H122410   0.715   5.295   0.314 -0.4841 -0.3411 -2.1697
 7482TIP3    H222411   0.848   5.351   0.360 -1.5483 -0.7448  1.7173
 7483TIP3   OH222412   7.034   6.278   1.257 -0.9240 -0.0398  0.0040
 7483TIP3    H122413   7.020   6.209   1.192 -2.4993  1.0363 -0.8642
 7483TIP3    H222414   6.998   6.241   1.338 -0.1778 -0.8716 -0.0254
 7484TIP3   OH222415   5.670   4.094   3.944  0.0313 -0.5104  0.1650
 7484TIP3    H122416   5.584   4.053   3.937 -1.0027  1.1971  1.9312
 7484TIP3    H222417   5.731   4.020   3.947 -1.6362 -1.9359  1.7494
 7485TIP3   OH222418   1.365   6.058   0.407  0.1614  0.0603  0.1319
 7485TIP3    H122419   1.363   6.022   0.318  1.5826 -1.4810  0.6593
 7485TIP3    H222420   1.447   6.108   0.410 -0.6622  1.4481  0.1232
 7486TIP3   OH222421   3.635   0.970   2.552 -0.9545  0.4092 -0.3234
 7486TIP3    H122422   3.701   1.037   2.538  1.4282 -1.8875 -0.8338
 7486TIP3    H222423   3.569   0.987   2.485 -0.2259  1.9795 -0.6852
 7487TIP3   OH222424   6.947   1.891   0.156 -0.3082 -0.9919  0.1943
 7487TIP3    H122425   6.877   1.954   0.135 -0.2867 -0.6955  1.0020
 7487TIP3    H222426   6.946   1.884   0.251 -0.0295 -1.9060  0.1421
 7488TIP3   OH222427   0.395   0.337   0.417 -0.5140  0.0833  0.3488
 7488TIP3    H122428   0.456   0.364   0.485 -2.8015  1.7477  1.9017
 7488TIP3    H222429   0.357   0.418   0.384 -1.4547 -0.8417 -0.9781
 7489TIP3   OH222430   3.923   0.310   4.471 -1.0830  0.5827 -0.2841
 7489TIP3    H122431   3.861   0.373   4.507 -0.2361  0.2513  1.9864
 7489TIP3    H222432   3.890   0.225   4.501  0.9916  0.4776  2.0939
 7490TIP3   OH222433   7.152   0.287   3.499  0.0850  0.0803  0.0617
 7490TIP3    H122434   7.224   0.230   3.472 -0.6881 -0.7888 -0.2179
 7490TIP3    H222435   7.083   0.227   3.527 -0.9112  0.8531 -0.6449
 7491TIP3   OH222436   4.964   3.132   1.239 -0.1985  0.6528  0.9182
 7491TIP3    H122437   5.017   3.195   1.191 -0.2769 -0.3899 -0.5946
 7491TIP3    H222438   4.909   3.091   1.173  0.4956 -1.6501  1.6599
 7492TIP3   OH222439   6.689   3.450   1.845  0.3893 -0.3230 -0.0075
 7492TIP3    H122440   6.642   3.415   1.921  0.3987 -3.6662 -1.3936
 7492TIP3    H222441   6.754   3.383   1.823  1.4155  1.2270 -2.0656
 7493TIP3   OH222442   4.860   0.217   4.524 -0.2600  0.3943 -0.5409
 7493TIP3    H122443   4.873   0.256   4.437 -0.5476 -0.2937 -0.8975
 7493TIP3    H222444   4.766   0.224   4.539 -0.4363 -0.8524 -0.9500
 7494TIP3   OH222445   0.858   4.107   3.829  0.0968  0.2028  0.2179
 7494TIP3    H122446   0.933   4.113   3.770 -0.5378  0.4548 -0.5707
 7494TIP3    H222447   0.865   4.019   3.867  0.3366 -0.0766 -0.4574
 7495TIP3   OH222448   5.425   2.870   4.676 -0.1156  0.2080 -0.6765
 7495TIP3    H122449   5.408   2.830   4.590 -0.8543 -0.8935 -0.0376
 7495TIP3    H222450   5.339   2.902   4.704  0.6209  3.4167 -1.6874
 7496TIP3   OH222451   5.399   1.791   3.403  0.2982 -0.0749 -0.9768
 7496TIP3    H122452   5.462   1.749   3.462  3.5861  1.5674 -3.0095
 7496TIP3    H222453   5.369   1.868   3.451  0.7959 -0.2391 -0.3842
 7497TIP3   OH222454   1.053   1.623   4.860  0.1390  0.3928  0.1713
 7497TIP3    H122455   0.984   1.677   4.823  0.1180 -0.6897 -1.4891
 7497TIP3    H222456   1.022   1.533   4.849  1.2574 -0.0618  0.5677
 7498TIP3   OH222457   5.902   4.754   0.330  0.1259  0.2538 -0.0389
 7498TIP3    H122458   5.858   4.699   0.265  1.1147  0.8777 -1.2870
 7498TIP3    H222459   5.856   4.838   0.326  1.7537  1.1589 -1.8864
 7499TIP3   OH222460   4.790   3.518   0.853  0.0694  0.3953 -0.1501
 7499TIP3    H122461   4.836   3.508   0.936  0.0684 -1.7081 -0.3343
 7499TIP3    H222462   4.844   3.471   0.789 -0.3558  1.2484 -1.1758
 7500TIP3   OH222463   2.802   0.424   0.436 -0.0683 -0.7728  0.0635
 7500TIP3    H122464   2.708   0.421   0.452 -0.1182  1.5485  0.4563
 7500TIP3    H222465   2.840   0.446   0.520  0.5138  1.5007 -0.7326
 7501TIP3   OH222466   6.152   4.919   2.761 -0.0750  0.3331 -0.2142
 7501TIP3    H122467   6.117   4.842   2.716  2.8481  0.2380 -2.7419
 7501TIP3    H222468   6.139   4.901   2.854 -0.2124 -2.8864 -0.7360
 7502TIP3   OH222469   2.706   6.200   0.644  0.0547  0.1441 -0.0096
 7502TIP3    H122470   2.725   6.126   0.701 -1.0990 -0.5896 -0.5452
 7502TIP3    H222471   2.768   6.192   0.572  1.7857  1.2944  1.2613
 7503TIP3   OH222472   2.759   2.480   5.681 -0.2493 -0.8438  0.8693
 7503TIP3    H122473   2.670   2.459   5.651 -0.2535 -1.0467  1.0198
 7503TIP3    H222474   2.748   2.502   5.773 -0.1024 -1.1612  0.9640
 7504TIP3   OH222475   0.775   4.001   5.403  0.1334 -0.0464  0.2505
 7504TIP3    H122476   0.723   3.984   5.482 -0.3885  1.4714  0.2558
 7504TIP3    H222477   0.791   3.914   5.366 -1.4426 -0.6247  0.8646
 7505TIP3   OH222478   4.560   3.469   4.281 -0.5203 -0.0942  0.3229
 7505TIP3    H122479   4.559   3.405   4.353  1.9687 -0.8571 -0.2048
 7505TIP3    H222480   4.536   3.418   4.204  0.2902 -0.1292  0.0876
 7506TIP3   OH222481   2.744   4.938   5.751  0.0782  0.2193  0.5306
 7506TIP3    H122482   2.806   4.872   5.719  0.4290  1.0594 -0.5741
 7506TIP3    H222483   2.793   4.987   5.817  0.0359 -0.1756  0.8627
 7507TIP3   OH222484   1.829   6.060   0.186 -0.3704  0.6311 -0.5291
 7507TIP3    H122485   1.819   5.979   0.236  2.2167  0.4431 -0.1873
 7507TIP3    H222486   1.785   6.042   0.103  1.2663 -1.6872 -0.9935
 7508TIP3   OH222487   4.680   1.857   2.836 -0.1259 -0.0503 -0.2115
 7508TIP3    H122488   4.688   1.920   2.764 -1.6542  0.3907 -0.0281
 7508TIP3    H222489   4.612   1.893   2.892 -0.6393 -1.5983  0.2066
 7509TIP3   OH222490   1.707   4.940   0.470  0.1568 -0.3964  0.4523
 7509TIP3    H122491   1.769   4.873   0.498  0.1502 -1.0676 -1.0289
 7509TIP3    H222492   1.707   5.005   0.540  1.8037 -0.8641  0.9113
 7510TIP3   OH222493   5.621   4.901   2.406 -0.2699 -0.2800 -0.2581
 7510TIP3    H122494   5.606   4.858   2.321 -0.0014  0.1568 -0.5293
 7510TIP3    H222495   5.568   4.980   2.403 -0.2631 -0.2666 -0.0182
 7511TIP3   OH222496   3.007   5.829   3.515  0.4810 -0.1695 -0.8297
 7511TIP3    H122497   3.099   5.809   3.499  0.8025  0.3954  0.1913
 7511TIP3    H222498   2.971   5.749   3.554  1.2381  0.4492  1.2834
 7512TIP3   OH222499   0.098   5.591   0.447 -0.0552 -0.1713  0.5452
 7512TIP3    H122500   0.056   5.532   0.510 -1.6017 -0.0485 -0.3108
 7512TIP3    H222501   0.065   5.678   0.471 -1.6202 -0.2604 -1.1123
 7513TIP3   OH222502   4.088   2.261   4.878 -0.1349 -0.1118 -0.1405
 7513TIP3    H122503   4.000   2.296   4.861 -0.3348  0.2415  1.4581
 7513TIP3    H222504   4.101   2.196   4.809 -1.3436  0.3473 -0.8461
 7514TIP3   OH222505   3.819   2.298   4.852 -0.1604 -0.4671 -0.3757
 7514TIP3    H122506   3.786   2.246   4.926 -0.0368  1.1951  0.9095
 7514TIP3    H222507   3.765   2.377   4.853  0.2485 -0.1581 -1.7206
 7515TIP3   OH222508   3.982   6.487   3.043 -0.2491 -0.7737  0.2832
 7515TIP3    H122509   3.952   6.405   3.083 -1.8738 -0.0546  0.6670
 7515TIP3    H222510   3.933   6.493   2.961  0.1985 -0.4086  0.0398
 7516TIP3   OH222511   4.922   6.463   1.250  0.0706  0.0021 -0.1773
 7516TIP3    H122512   4.861   6.462   1.176  2.6003  0.5901 -2.4384
 7516TIP3    H222513   4.955   6.373   1.255 -0.8775 -0.3046  1.0148
 7517TIP3   OH222514   4.200   6.157   5.394  0.0913 -0.1833 -0.2762
 7517TIP3    H122515   4.160   6.155   5.481  1.1502 -0.9119  0.2183
 7517TIP3    H222516   4.186   6.068   5.360  1.8601 -0.6928  0.2072
 7518TIP3   OH222517   6.581   1.936   1.581 -0.8189 -0.4288 -0.1914
 7518TIP3    H122518   6.638   1.872   1.624 -1.4834  0.1558  1.6595
 7518TIP3    H222519   6.634   1.971   1.510  0.2862 -1.5520  0.0394
 7519TIP3   OH222520   1.981   1.420   3.516  0.3895  0.1654  0.2424
 7519TIP3    H122521   1.888   1.436   3.497  0.4279  0.3995  0.2401
 7519TIP3    H222522   2.028   1.474   3.452  0.5494 -1.1014 -0.7421
 7520TIP3   OH222523   1.267   6.122   1.597 -0.2094 -1.0905 -0.0731
 7520TIP3    H122524   1.361   6.119   1.614 -0.4628  0.4907  2.0313
 7520TIP3    H222525   1.251   6.212   1.569 -1.3067 -0.8116  1.3374
 7521TIP3   OH222526   4.291   0.463   3.467  0.4604 -0.2919  0.0004
 7521TIP3    H122527   4.258   0.438   3.553  0.1542  0.5986  0.1488
 7521TIP3    H222528   4.212   0.481   3.416  0.6560 -0.3711 -0.3343
 7522TIP3   OH222529   2.359   2.449   0.313  0.1734 -0.5010 -0.2724
 7522TIP3    H122530   2.387   2.397   0.388  0.7689  0.8389  0.4776
 7522TIP3    H222531   2.439   2.492   0.282 -0.4828  0.9964 -0.0033
 7523TIP3   OH222532   3.464   0.191   2.194  0.6640  0.2515  0.5050
 7523TIP3    H122533   3.375   0.228   2.193  0.5680  0.0355  1.0401
 7523TIP3    H222534   3.495   0.206   2.283  1.0117 -0.0468  0.4333
 7524TIP3   OH222535   2.189   4.730   5.335 -0.1423 -0.2519  0.1144
 7524TIP3    H122536   2.266   4.674   5.331 -0.1442 -0.2653  0.2726
 7524TIP3    H222537   2.208   4.802   5.274 -0.7328 -1.1759 -1.2035
 7525TIP3   OH222538   4.801   1.747   1.298 -0.1308  0.2742  0.3420
 7525TIP3    H122539   4.883   1.699   1.284  0.2149  1.0589 -0.4589
 7525TIP3    H222540   4.750   1.730   1.218 -0.8539 -0.3824  0.9246
 7526TIP3   OH222541   2.541   0.978   1.144 -0.3059 -0.0183  0.3059
 7526TIP3    H122542   2.599   0.903   1.156 -2.5661 -1.9104  0.0450
 7526TIP3    H222543   2.492   0.984   1.227  0.6008  1.9439  0.7726
 7527TIP3   OH222544   3.694   2.600   5.214 -0.3244 -0.3714 -0.0024
 7527TIP3    H122545   3.621   2.655   5.242 -1.4211 -1.0149 -1.4171
 7527TIP3    H222546   3.769   2.630   5.265 -1.3311  1.0609  0.6899
 7528TIP3   OH222547   5.462   5.598   0.226 -0.1541  0.6779 -0.5069
 7528TIP3    H122548   5.403   5.598   0.151  0.5985 -0.7803 -1.1289
 7528TIP3    H222549   5.466   5.507   0.254  0.0543  1.0977  0.9436
 7529TIP3   OH222550   1.147   0.111   1.138 -0.3625  0.3047 -0.8334
 7529TIP3    H122551   1.077   0.135   1.199 -1.1906 -0.7505 -1.3361
 7529TIP3    H222552   1.119   0.146   1.054  0.0366  0.4534 -0.9046
 7530TIP3   OH222553   2.103   3.096   3.200 -0.3339 -0.0985  0.5078
 7530TIP3    H122554   2.011   3.098   3.175 -0.3556  0.5162  0.6212
 7530TIP3    H222555   2.149   3.132   3.124 -0.0636 -1.5980 -0.0544
 7531TIP3   OH222556   5.751   0.929   0.082 -0.2094  0.3280 -0.4645
 7531TIP3    H122557   5.834   0.927   0.034 -0.4433  0.8019 -0.8949
 7531TIP3    H222558   5.698   0.859   0.043 -0.4658  0.8297 -1.0233
 7532TIP3   OH222559   4.200   1.713   5.108  0.3604  0.3936 -0.7183
 7532TIP3    H122560   4.153   1.682   5.186  1.7351 -0.5301 -0.2217
 7532TIP3    H222561   4.191   1.642   5.045  1.0657  0.2167 -0.6236
 7533TIP3   OH222562   6.560   2.247   2.702 -0.2335  0.5387  0.4625
 7533TIP3    H122563   6.627   2.214   2.762  0.5253  0.8477 -0.1846
 7533TIP3    H222564   6.500   2.174   2.690  0.2884  0.0735  0.6482
 7534TIP3   OH222565   0.696   1.029   1.080  0.2406 -0.5038 -0.3916
 7534TIP3    H122566   0.683   1.121   1.103 -1.0731 -1.0860  1.4650
 7534TIP3    H222567   0.615   1.002   1.038  0.2315 -1.0303 -0.0573
 7535TIP3   OH222568   7.177   3.155   2.973 -0.5761  0.2494  0.7500
 7535TIP3    H122569   7.144   3.184   2.888  1.3527 -1.9000 -0.8641
 7535TIP3    H222570   7.226   3.231   3.006 -0.7576  0.8989 -0.4124
 7536TIP3   OH222571   1.151   6.451   5.754 -0.0428 -0.4674 -0.7194
 7536TIP3    H122572   1.160   6.359   5.731  0.8069 -0.2193 -1.4601
 7536TIP3    H222573   1.196   6.498   5.684  0.3637  0.4566  0.1222
 7537TIP3   OH222574   4.391   5.357   1.383 -0.5667 -0.0576  0.5345
 7537TIP3    H122575   4.420   5.293   1.449 -0.0577 -0.1881  0.1914
 7537TIP3    H222576   4.470   5.409   1.365 -0.5522 -0.3890 -0.3855
 7538TIP3   OH222577   6.852   5.774   5.147  0.0400 -0.5612  0.2010
 7538TIP3    H122578   6.797   5.710   5.193  3.0715 -1.8774  2.3798
 7538TIP3    H222579   6.934   5.727   5.130  1.0117  1.6247 -1.6990
 7539TIP3   OH222580   5.281   1.869   2.931  0.2655  0.5274  0.1231
 7539TIP3    H122581   5.266   1.962   2.945  0.5621  0.5376  0.3986
 7539TIP3    H222582   5.194   1.830   2.930  0.1704  0.7197  0.6667
 7540TIP3   OH222583   0.336   5.492   1.307  0.4036  0.2585  0.4040
 7540TIP3    H122584   0.340   5.405   1.346  0.7473  0.3893  0.6685
 7540TIP3    H222585   0.291   5.545   1.372  1.0682  0.5003  0.6762
 7541TIP3   OH222586   3.411   6.550   2.586 -0.3397 -0.2715 -0.0498
 7541TIP3    H122587   3.334   6.603   2.606  0.3232  0.9214 -0.5425
 7541TIP3    H222588   3.376   6.462   2.567 -1.4932  0.0691  0.4421
 7542TIP3   OH222589   4.623   1.455   3.255 -0.4355 -0.5640  0.2193
 7542TIP3    H122590   4.689   1.437   3.189 -0.6783  0.1302 -0.2282
 7542TIP3    H222591   4.672   1.462   3.337  0.2079  0.9922 -0.2619
 7543TIP3   OH222592   1.844   3.473   0.234  0.0063  0.2049  0.1200
 7543TIP3    H122593   1.938   3.480   0.249  0.8758 -1.2802 -3.3757
 7543TIP3    H222594   1.806   3.550   0.276  3.0012  1.7438  0.2653
 7544TIP3   OH222595   6.098   5.210   1.140 -0.1388  0.2414 -0.2440
 7544TIP3    H122596   6.116   5.253   1.056 -0.6318  0.7798 -0.0767
 7544TIP3    H222597   6.049   5.275   1.190 -1.8369 -0.8740 -0.3884
 7545TIP3   OH222598   2.539   2.113   1.559  0.5174  0.0961  0.2493
 7545TIP3    H122599   2.536   2.029   1.607  1.5903  0.5900  1.2346
 7545TIP3    H222600   2.447   2.140   1.554  0.4176  1.1210  4.1269
 7546TIP3   OH222601  -0.024   3.601   2.449 -0.5049  0.4593  0.0226
 7546TIP3    H122602   0.051   3.622   2.393 -0.7459  0.3304 -0.3552
 7546TIP3    H222603   0.015   3.581   2.534 -0.1975  1.5044  0.1443
 7547TIP3   OH222604   4.503   2.115   5.761  0.4174 -0.2694  0.0731
 7547TIP3    H122605   4.526   2.169   5.836 -1.2503  1.8495 -0.8361
 7547TIP3    H222606   4.585   2.108   5.712  1.3926 -1.2158  1.7510
 7548TIP3   OH222607   2.415   4.654   5.659  0.0254  0.5079  0.4117
 7548TIP3    H122608   2.448   4.580   5.609 -2.0380  1.1764 -2.1446
 7548TIP3    H222609   2.462   4.730   5.623  0.5085  0.7230  1.4547
 7549TIP3   OH222610   7.136   5.090   0.732 -0.2007  0.4487 -0.3809
 7549TIP3    H122611   7.094   5.147   0.667 -2.1123  0.8160  1.0898
 7549TIP3    H222612   7.183   5.150   0.790 -0.8421  0.3954  0.2038
 7550TIP3   OH222613   5.758   2.415   3.083  0.4608 -0.0750  0.6895
 7550TIP3    H122614   5.784   2.504   3.060 -0.1541 -0.5970 -2.6586
 7550TIP3    H222615   5.819   2.360   3.034 -0.6753 -1.4217  0.7226
 7551TIP3   OH222616   0.482   6.374   0.058  0.0039 -0.6549 -0.1730
 7551TIP3    H122617   0.534   6.330   0.127  0.0382 -1.6262 -0.7964
 7551TIP3    H222618   0.541   6.377  -0.017 -0.3186 -0.3510 -0.4139
 7552TIP3   OH222619   5.705   3.315   5.769  0.0787 -0.3468 -0.0178
 7552TIP3    H122620   5.762   3.240   5.751 -0.2846 -0.6912  0.2614
 7552TIP3    H222621   5.627   3.277   5.809 -1.5141 -0.1786 -2.7700
 7553TIP3   OH222622   3.244   6.731   3.841 -0.5569 -0.2656 -0.2112
 7553TIP3    H122623   3.177   6.721   3.774 -1.1514  0.1741  0.3012
 7553TIP3    H222624   3.305   6.795   3.805 -1.7408  1.1963  0.3116
 7554TIP3   OH222625   3.210   6.586   4.358  0.3331  0.2224 -0.0624
 7554TIP3    H122626   3.175   6.670   4.329  1.4813  1.3723  1.6860
 7554TIP3    H222627   3.269   6.608   4.430  0.4380 -2.1165  0.6604
 7555TIP3   OH222628   3.471   5.873   3.787 -0.3278 -0.6141  0.0810
 7555TIP3    H122629   3.451   5.788   3.827  1.0472 -1.1825 -0.3817
 7555TIP3    H222630   3.391   5.924   3.800 -0.8038 -1.5997  1.3491
 7556TIP3   OH222631   4.409   1.523   4.894 -0.2244  0.3299 -0.2156
 7556TIP3    H122632   4.386   1.595   4.835 -2.2350  0.5783  0.7745
 7556TIP3    H222633   4.442   1.455   4.837  0.3431  1.5054 -1.3383
 7557TIP3   OH222634   5.412   2.000   1.000 -0.4121  0.5025  0.1613
 7557TIP3    H122635   5.387   2.092   0.995  1.5355  1.0304 -1.4487
 7557TIP3    H222636   5.394   1.965   0.912  0.7592 -0.0781  0.1267
 7558TIP3   OH222637   0.292   4.653   4.067 -0.2090 -0.4346 -0.6853
 7558TIP3    H122638   0.306   4.584   4.131 -2.0887 -0.6420 -0.4163
 7558TIP3    H222639   0.354   4.722   4.090 -0.8700 -0.4787  1.4347
 7559TIP3   OH222640   3.801   3.931   0.074 -0.0525 -0.1795 -0.0981
 7559TIP3    H122641   3.894   3.908   0.080 -0.5181 -2.1233  0.4585
 7559TIP3    H222642   3.756   3.847   0.076 -1.9316  0.7914  1.8734
 7560TIP3   OH222643   6.321   4.163   3.397  0.2462 -0.0492  0.3603
 7560TIP3    H122644   6.333   4.133   3.487 -2.5705  0.3945  0.9858
 7560TIP3    H222645   6.272   4.245   3.405 -2.9184 -1.5628 -1.5688
 7561TIP3   OH222646   2.809   3.546   2.925  0.4293 -0.6565  0.6203
 7561TIP3    H122647   2.793   3.525   2.833  3.0960 -0.8732  0.1411
 7561TIP3    H222648   2.734   3.601   2.950 -0.5776 -0.9508 -1.5216
 7562TIP3   OH222649   1.872   3.185   2.487 -0.0216  0.2751 -0.2437
 7562TIP3    H122650   1.918   3.215   2.565 -0.2838  1.4464 -0.5276
 7562TIP3    H222651   1.891   3.252   2.421 -0.6980 -0.1423 -0.8658
 7563TIP3   OH222652   1.979   0.389   2.721  0.0918  0.5155  0.3563
 7563TIP3    H122653   1.977   0.464   2.661 -0.0214 -0.1535 -0.4885
 7563TIP3    H222654   1.907   0.406   2.782  0.5325  1.4611  0.6388
 7564TIP3   OH222655   2.896   6.193   3.128  0.0113 -0.2819 -0.6230
 7564TIP3    H122656   2.877   6.161   3.216  0.5000  0.1853 -0.3371
 7564TIP3    H222657   2.923   6.116   3.080  0.1172 -0.4801 -0.2503
 7565TIP3   OH222658   5.426   5.249   1.731  0.0739 -0.1166 -0.1483
 7565TIP3    H122659   5.475   5.167   1.731  2.4564  1.1955  2.1430
 7565TIP3    H222660   5.459   5.298   1.806 -1.9324  2.5899 -0.8641
 7566TIP3   OH222661   0.167   2.874   1.456  0.4503  0.3294 -0.1575
 7566TIP3    H122662   0.131   2.890   1.543  1.8675 -0.1071  0.5262
 7566TIP3    H222663   0.129   2.943   1.402 -3.2121 -1.3565 -0.0413
 7567TIP3   OH222664   3.239   5.737   4.138  0.2675 -0.6166  0.2578
 7567TIP3    H122665   3.296   5.740   4.061 -1.0432 -1.0249 -0.7744
 7567TIP3    H222666   3.216   5.829   4.154 -1.3718 -0.6829 -1.3839
 7568TIP3   OH222667   3.574   4.497   3.580  0.0792  0.5109 -0.5453
 7568TIP3    H122668   3.665   4.468   3.575  0.0468  0.6084 -2.9883
 7568TIP3    H222669   3.558   4.511   3.673  1.8765 -1.6042  0.1513
 7569TIP3   OH222670   0.454   3.348   5.764  0.3389 -0.2842  0.0533
 7569TIP3    H122671   0.402   3.381   5.837  0.5218  0.2764 -0.0613
 7569TIP3    H222672   0.392   3.301   5.709 -0.1629  0.8092 -0.3470
 7570TIP3   OH222673   5.217   0.433   5.275 -0.0846 -0.1982  0.3468
 7570TIP3    H122674   5.134   0.451   5.319  0.7804  0.1880  1.8854
 7570TIP3    H222675   5.242   0.516   5.235 -0.0775 -0.1285  0.4976
 7571TIP3   OH222676   1.521   4.811   5.730 -0.0437 -0.2280 -0.5556
 7571TIP3    H122677   1.609   4.847   5.719  0.0908 -1.0048 -2.2098
 7571TIP3    H222678   1.490   4.794   5.641 -0.5472 -3.1290  0.0786
 7572TIP3   OH222679   1.349   3.078   4.784 -0.5345  0.2594 -0.2993
 7572TIP3    H122680   1.437   3.095   4.817 -0.1811 -0.3456 -0.8865
 7572TIP3    H222681   1.314   3.164   4.763  0.1050  0.4818 -0.4957
 7573TIP3   OH222682   4.410   3.494   1.540  0.2821  0.0513  0.3126
 7573TIP3    H122683   4.329   3.446   1.522  0.5933  0.3856 -2.3099
 7573TIP3    H222684   4.388   3.553   1.612 -1.8155  0.1370 -0.3384
 7574TIP3   OH222685   3.412   0.602   3.503  0.0636  0.0298 -0.2066
 7574TIP3    H122686   3.453   0.672   3.451 -1.1121  2.3283  1.7352
 7574TIP3    H222687   3.318   0.618   3.495 -0.2042 -0.8464  0.9294
 7575TIP3   OH222688   3.551   3.988   2.902 -0.3535  0.4168  0.0757
 7575TIP3    H122689   3.618   3.919   2.898 -1.9440 -1.2672  0.8072
 7575TIP3    H222690   3.581   4.054   2.839  1.3882 -0.8047 -0.4628
 7576TIP3   OH222691   4.929   4.840   2.661  0.6656 -0.1258 -0.0442
 7576TIP3    H122692   4.895   4.921   2.621 -0.7798  0.3735  2.0187
 7576TIP3    H222693   4.898   4.844   2.752  0.8039 -2.8795  0.1892
 7577TIP3   OH222694   4.869   5.834   1.959 -0.2271 -0.3866 -0.0147
 7577TIP3    H122695   4.870   5.930   1.949  1.6222 -0.3227  0.4940
 7577TIP3    H222696   4.811   5.804   1.889  0.6975  0.9980 -1.4423
 7578TIP3   OH222697   5.138   1.768   4.092  0.6199 -0.2037  0.4977
 7578TIP3    H122698   5.150   1.675   4.069 -1.5601 -0.0457 -1.7309
 7578TIP3    H222699   5.219   1.810   4.064  0.8183 -1.1443 -0.4090
 7579TIP3   OH222700   1.692   4.428   3.645  0.2276  0.1362 -0.2781
 7579TIP3    H122701   1.687   4.343   3.687 -0.7619  0.4651  0.3179
 7579TIP3    H222702   1.727   4.487   3.712 -1.2450  0.6383  0.1009
 7580TIP3   OH222703   0.535   6.099   1.347 -0.4952 -0.2507  0.4264
 7580TIP3    H122704   0.588   6.132   1.274 -1.5864 -1.7194 -1.1061
 7580TIP3    H222705   0.471   6.169   1.363 -0.7343 -0.2254 -0.5636
 7581TIP3   OH222706   4.819   5.656   0.835 -0.1154 -0.3871 -0.2386
 7581TIP3    H122707   4.729   5.683   0.817 -0.5275 -1.0426  0.7487
 7581TIP3    H222708   4.865   5.737   0.857 -0.6604 -0.1446  0.0211
 7582TIP3   OH222709   4.375   0.124   0.108 -0.0599 -0.1953  0.1106
 7582TIP3    H122710   4.368   0.166   0.022  0.5901 -0.0176  0.1400
 7582TIP3    H222711   4.355   0.032   0.091 -0.3278 -0.0913 -0.1586
 7583TIP3   OH222712   2.979   5.673   0.804  0.5549 -0.0751  0.2297
 7583TIP3    H122713   2.885   5.659   0.790 -0.0621  3.5361 -0.2416
 7583TIP3    H222714   3.020   5.636   0.726 -0.6338 -0.3314 -0.3043
 7584TIP3   OH222715   0.993   5.923   3.428 -0.7741  0.0583  0.3740
 7584TIP3    H122716   0.965   6.015   3.425  1.4907  0.7878 -1.7034
 7584TIP3    H222717   1.008   5.906   3.521  2.8833  3.2803  0.6219
 7585TIP3   OH222718   3.692   5.454   1.503 -0.0642  0.2631  0.8162
 7585TIP3    H122719   3.654   5.410   1.427 -1.8394  4.2674 -0.9515
 7585TIP3    H222720   3.786   5.442   1.494 -0.3656 -1.3660 -0.6294
 7586TIP3   OH222721   6.703   0.821   2.627  0.1342 -0.6600 -0.1414
 7586TIP3    H122722   6.783   0.782   2.664  0.4332 -0.1055 -0.1861
 7586TIP3    H222723   6.735   0.872   2.553 -0.3400 -0.9124 -0.5183
 7587TIP3   OH222724   0.929   4.436   0.902 -0.6277 -0.4696  0.0399
 7587TIP3    H122725   0.921   4.382   0.981  1.1825 -0.6735  0.1295
 7587TIP3    H222726   0.992   4.504   0.926 -0.6366 -0.0739 -0.9995
 7588TIP3   OH222727   1.091   4.794   0.937  0.2113 -0.3562  0.0601
 7588TIP3    H122728   1.075   4.794   0.843  0.4233  0.2896  0.0169
 7588TIP3    H222729   1.136   4.711   0.954  1.8455  0.3149 -0.7229
 7589TIP3   OH222730   5.247   0.662   1.190 -0.3289 -0.1006 -0.0297
 7589TIP3    H122731   5.272   0.580   1.232  0.2656  0.6555  1.1849
 7589TIP3    H222732   5.218   0.718   1.263  0.4886  1.1860 -0.6580
 7590TIP3   OH222733   5.017   3.954   5.823  0.2618  0.0891  0.3762
 7590TIP3    H122734   4.982   4.014   5.889  2.5371  0.6004  1.2052
 7590TIP3    H222735   5.039   3.874   5.871  0.0016 -0.3196 -0.1718
 7591TIP3   OH222736   3.834   5.937   5.012 -0.1098  0.0195  0.1167
 7591TIP3    H122737   3.900   5.868   5.009  1.5418  1.5783 -1.4924
 7591TIP3    H222738   3.884   6.018   5.020 -1.7929  1.2766 -1.4119
 7592TIP3   OH222739   4.044   0.772   4.460  0.3357 -0.0696 -0.2223
 7592TIP3    H122740   4.063   0.689   4.505 -1.3431 -0.9310 -0.9776
 7592TIP3    H222741   4.023   0.746   4.371 -1.8392  0.9585 -0.0767
 7593TIP3   OH222742   7.008   5.899   5.385 -0.8380 -0.3882  0.2166
 7593TIP3    H122743   6.992   5.858   5.470 -0.2197  0.5936  0.8206
 7593TIP3    H222744   6.921   5.926   5.354 -1.0674 -0.8016  0.5095
 7594TIP3   OH222745   4.512   4.566   1.933  0.0111 -0.0423  0.6625
 7594TIP3    H122746   4.499   4.596   2.023 -3.1303  1.9523 -0.3090
 7594TIP3    H222747   4.456   4.489   1.925 -1.8090  1.2823 -0.1700
 7595TIP3   OH222748   2.186   3.653   2.197 -0.4273  0.3493 -0.4793
 7595TIP3    H122749   2.166   3.600   2.274  0.3577 -1.2215 -1.2767
 7595TIP3    H222750   2.101   3.681   2.164 -1.3849 -3.7359 -2.1970
 7596TIP3   OH222751   0.305   4.074   3.676  0.9632 -0.1938 -0.3325
 7596TIP3    H122752   0.330   3.988   3.711  1.1204 -0.2697 -0.6237
 7596TIP3    H222753   0.384   4.128   3.687  0.9987 -0.2057 -0.5308
 7597TIP3   OH222754   2.501   1.155   0.796  0.4721  0.2517  0.0219
 7597TIP3    H122755   2.569   1.148   0.729  1.1819 -0.5259  0.7930
 7597TIP3    H222756   2.458   1.069   0.795  0.1941  0.3874  0.2697
 7598TIP3   OH222757   5.761   0.173   5.508  0.2567 -0.0684 -0.0222
 7598TIP3    H122758   5.715   0.209   5.584  0.1030  0.2665 -0.2707
 7598TIP3    H222759   5.853   0.188   5.527  0.4119 -2.2162  1.2410
 7599TIP3   OH222760   3.658   3.613   3.050  0.4803 -0.1337 -0.1251
 7599TIP3    H122761   3.587   3.640   3.109  0.7907  0.4094  0.0097
 7599TIP3    H222762   3.628   3.530   3.013  0.4114 -0.6560  1.0501
 7600TIP3   OH222763   4.304   5.913   2.014 -0.6433  0.2437  0.0732
 7600TIP3    H122764   4.337   5.972   1.947  0.3262 -1.0258 -0.6162
 7600TIP3    H222765   4.377   5.854   2.032 -0.8095  0.6202  2.3712
 7601TIP3   OH222766   1.798   1.461   2.224 -0.5684  0.4514 -0.1562
 7601TIP3    H122767   1.734   1.430   2.288 -1.7038 -1.1751 -1.9826
 7601TIP3    H222768   1.746   1.481   2.146  0.6843  3.0343 -0.4437
 7602TIP3   OH222769   4.971   4.729   1.942 -0.4701  0.1859  0.4884
 7602TIP3    H122770   4.919   4.791   1.993  1.5084  0.8128  1.9044
 7602TIP3    H222771   5.059   4.768   1.940 -0.1565 -0.3854 -2.4936
 7603TIP3   OH222772   6.896   5.439   1.134  0.0774  0.5203  0.5455
 7603TIP3    H122773   6.821   5.418   1.190  0.4528  0.4008  1.0118
 7603TIP3    H222774   6.932   5.519   1.172  1.0877 -0.2450  1.2513
 7604TIP3   OH222775   1.744   2.510   3.556 -0.4058  0.1606  0.7331
 7604TIP3    H122776   1.781   2.564   3.627  0.1409 -0.4772  0.9443
 7604TIP3    H222777   1.700   2.438   3.601  1.4780 -1.2541  0.4427
 7605TIP3   OH222778   5.254   6.680   4.520 -0.3099 -0.3567  0.3485
 7605TIP3    H122779   5.159   6.682   4.517 -0.3647 -0.0222  1.6103
 7605TIP3    H222780   5.280   6.635   4.440 -1.5564 -1.3576  0.4781
 7606TIP3   OH222781   0.272   6.046   2.148  0.4495  0.1324 -0.2516
 7606TIP3    H122782   0.203   6.013   2.091 -0.5280  1.3978  0.1449
 7606TIP3    H222783   0.238   6.032   2.237 -0.1305  2.3523 -0.0727
 7607TIP3   OH222784   1.255   3.706   5.673  0.3226  0.2270 -0.1626
 7607TIP3    H122785   1.189   3.649   5.712 -0.1733  0.3677 -0.7749
 7607TIP3    H222786   1.323   3.646   5.640  0.4910  0.0809  0.4397
 7608TIP3   OH222787   3.713   2.110   5.034  0.4586  0.7049 -0.2348
 7608TIP3    H122788   3.620   2.089   5.035  0.8518 -1.1511 -0.1001
 7608TIP3    H222789   3.749   2.067   5.112  1.8249 -0.6671 -1.5514
 7609TIP3   OH222790   1.889   4.193   4.970  0.0482  0.2127 -0.2882
 7609TIP3    H122791   1.881   4.121   5.033  0.5404  1.1043  0.8301
 7609TIP3    H222792   1.803   4.196   4.928 -0.8715  0.5989  1.4966
 7610TIP3   OH222793   0.473  -0.012   5.114  0.4288  0.3492  0.5233
 7610TIP3    H122794   0.557   0.033   5.101 -0.1162  1.3136  0.2644
 7610TIP3    H222795   0.407   0.052   5.087 -0.3637 -0.6752 -0.0625
 7611TIP3   OH222796   5.547   4.623   1.768 -0.0867  0.4080  0.8451
 7611TIP3    H122797   5.477   4.576   1.723  1.9480 -1.0607 -1.0370
 7611TIP3    H222798   5.528   4.715   1.752 -1.9195  0.0979  0.9881
 7612TIP3   OH222799   3.671   5.194   0.242  0.2442  0.6821  0.4395
 7612TIP3    H122800   3.624   5.183   0.324  0.5489  1.9144  0.8046
 7612TIP3    H222801   3.762   5.210   0.268  0.4017  0.7640 -0.1454
 7613TIP3   OH222802   2.492   1.131   3.812  0.7024 -0.2407 -0.1099
 7613TIP3    H122803   2.414   1.169   3.851  0.5596 -1.5522  0.9486
 7613TIP3    H222804   2.469   1.039   3.797  1.6377 -0.3631 -0.9343
 7614TIP3   OH222805   2.375   5.940   1.639  0.1350 -0.5524 -0.9446
 7614TIP3    H122806   2.311   5.962   1.707  1.3848  0.2084  0.0433
 7614TIP3    H222807   2.337   5.864   1.594 -1.6920  0.1951 -0.7596
 7615TIP3   OH222808   3.316   1.320   0.186 -0.4674  0.5651 -0.1705
 7615TIP3    H122809   3.352   1.235   0.209 -2.2248  0.0830  1.0399
 7615TIP3    H222810   3.389   1.381   0.199  0.5338 -0.6052 -0.0662
 7616TIP3   OH222811   6.307   1.025   4.739 -0.2346 -0.0291  0.3271
 7616TIP3    H122812   6.244   1.095   4.753 -0.3735 -0.1637  0.3861
 7616TIP3    H222813   6.316   0.982   4.824  0.0152  0.0534  0.3427
 7617TIP3   OH222814   1.538   1.430   2.365 -0.3935  0.0899  0.0821
 7617TIP3    H122815   1.584   1.443   2.448 -1.1155 -1.3402  0.7408
 7617TIP3    H222816   1.481   1.355   2.380 -0.4244 -0.3159 -1.7699
 7618TIP3   OH222817   0.811   1.291   1.356  0.1504  0.5118  0.3310
 7618TIP3    H122818   0.832   1.201   1.379  0.5204 -0.1239 -2.2048
 7618TIP3    H222819   0.749   1.283   1.283 -0.4501  2.3221  0.5947
 7619TIP3   OH222820   3.604   1.012   0.482 -0.4364  0.0019  0.4343
 7619TIP3    H122821   3.698   1.024   0.500 -0.4470 -0.2805  0.6784
 7619TIP3    H222822   3.578   0.938   0.537 -0.4897 -0.8327 -0.6762
 7620TIP3   OH222823   4.080   0.499   4.048 -1.0550 -0.4345 -0.3956
 7620TIP3    H122824   4.003   0.494   3.991  0.5309  1.2423 -2.9154
 7620TIP3    H222825   4.071   0.584   4.091  0.0704  0.4780 -1.8852
 7621TIP3   OH222826   5.420   5.944   5.179  0.3143  0.2940 -0.4602
 7621TIP3    H122827   5.406   6.006   5.250 -1.0144 -0.2614 -0.1965
 7621TIP3    H222828   5.340   5.892   5.177  0.6250 -0.1755 -1.9032
 7622TIP3   OH222829   0.526   2.643   5.567 -0.2034  0.1870  0.4078
 7622TIP3    H122830   0.575   2.623   5.488  1.1475  1.0987  0.9901
 7622TIP3    H222831   0.591   2.642   5.637 -1.1092  0.8619  1.2889
 7623TIP3   OH222832   0.622   4.925   1.593  0.2776 -0.4045 -0.1795
 7623TIP3    H122833   0.707   4.886   1.611 -0.2442 -1.4482  0.0938
 7623TIP3    H222834   0.562   4.851   1.587 -0.1647  0.0925 -3.1568
 7624TIP3   OH222835   4.374   5.062   2.174  0.2485 -0.2426 -0.0330
 7624TIP3    H122836   4.344   5.044   2.263  1.2735 -0.5487  0.2650
 7624TIP3    H222837   4.409   5.151   2.179  0.5073 -0.3415 -0.0694
 7625TIP3   OH222838   5.571   2.744   4.055 -0.6374 -0.1502 -0.2377
 7625TIP3    H122839   5.650   2.765   4.004 -0.1041 -0.2312  0.5287
 7625TIP3    H222840   5.499   2.779   4.003 -0.3013 -1.8808 -1.9811
 7626TIP3   OH222841   5.609   3.042   2.272 -0.1808  0.1239  0.4031
 7626TIP3    H122842   5.623   2.947   2.276  1.1644  0.3615  2.3741
 7626TIP3    H222843   5.672   3.073   2.208 -0.0651 -0.2182  0.3505
 7627TIP3   OH222844   2.866   6.671   3.395 -0.2231  0.0492 -0.2599
 7627TIP3    H122845   2.872   6.755   3.440 -0.0408 -0.3581  0.4900
 7627TIP3    H222846   2.955   6.652   3.367 -0.3213  0.2602 -0.7192
 7628TIP3   OH222847   4.577   5.887   1.246 -0.2226 -0.5483  0.1564
 7628TIP3    H122848   4.609   5.800   1.222  1.0630 -0.1066  0.2302
 7628TIP3    H222849   4.596   5.942   1.170 -1.7133 -0.4650 -0.1954
 7629TIP3   OH222850   2.923   0.255   1.067 -0.2350 -0.1630  0.3284
 7629TIP3    H122851   2.870   0.333   1.048  0.0984  0.5224  2.0333
 7629TIP3    H222852   2.882   0.216   1.144 -0.1342 -1.4445 -0.2454
 7630TIP3   OH222853   6.725   6.035   3.882  0.0127 -0.5260 -0.1522
 7630TIP3    H122854   6.764   5.948   3.891 -0.1046 -0.6958 -1.1004
 7630TIP3    H222855   6.663   6.026   3.809 -0.5920  0.1521  0.2618
 7631TIP3   OH222856   5.044   5.165   0.037 -0.7025 -0.1845 -0.4494
 7631TIP3    H122857   5.009   5.228  -0.027 -0.1993  2.0834  1.3534
 7631TIP3    H222858   4.976   5.161   0.105 -0.3946 -1.0612 -0.1850
 7632TIP3   OH222859   6.130   1.221   0.138 -0.2511 -0.0208 -0.0886
 7632TIP3    H122860   6.124   1.294   0.077  0.5028 -0.4291 -0.6722
 7632TIP3    H222861   6.223   1.219   0.164  0.3274 -2.2639 -2.0016
 7633TIP3   OH222862   3.139   3.596   2.835 -0.0839  0.0397  0.0771
 7633TIP3    H122863   3.141   3.620   2.742 -0.8012 -0.2347 -0.0149
 7633TIP3    H222864   3.097   3.670   2.878  0.3194  0.2014  0.2040
 7634TIP3   OH222865   2.717   1.425   2.459  0.5566 -0.0562 -0.7247
 7634TIP3    H122866   2.650   1.488   2.483  1.9920  1.4471 -0.4549
 7634TIP3    H222867   2.713   1.358   2.528  0.7225  1.1444  0.5010
 7635TIP3   OH222868   3.169   0.185   0.031  0.3939  0.5571 -0.0329
 7635TIP3    H122869   3.120   0.133  -0.033 -0.5630 -1.2536  2.0654
 7635TIP3    H222870   3.221   0.122   0.080  1.9124  2.0237  0.3438
 7636TIP3   OH222871   1.834   3.898   1.690 -0.4525  0.1912 -0.1044
 7636TIP3    H122872   1.867   3.929   1.606  1.3818 -0.9233  0.1726
 7636TIP3    H222873   1.761   3.957   1.710 -2.5004 -0.9067 -3.5395
 7637TIP3   OH222874   4.282   2.220   0.502  0.3763  0.2128  0.0871
 7637TIP3    H122875   4.260   2.135   0.538 -0.2397  0.7881  1.1225
 7637TIP3    H222876   4.273   2.281   0.575  0.2827  1.2459 -0.7489
 7638TIP3   OH222877   5.961   5.982   1.593 -0.0882  0.1024 -0.1579
 7638TIP3    H122878   6.044   5.953   1.556 -0.8586  0.4567 -2.3327
 7638TIP3    H222879   5.950   6.071   1.560 -0.9533  0.3610  0.7714
 7639TIP3   OH222880   0.381   3.611   3.957  0.3222  0.4536  0.2883
 7639TIP3    H122881   0.435   3.656   4.021  1.4093  0.4913 -0.6301
 7639TIP3    H222882   0.379   3.669   3.881 -1.0098  0.4443  0.2774
 7640TIP3   OH222883   2.302   2.232   1.674  0.6434  0.1573 -0.0448
 7640TIP3    H122884   2.255   2.239   1.757 -0.7475 -0.4702 -0.7506
 7640TIP3    H222885   2.235   2.246   1.607  1.9006  1.5535 -1.0716
 7641TIP3   OH222886   4.640   0.863   1.283 -0.2891 -0.2431 -0.0585
 7641TIP3    H122887   4.650   0.958   1.287  1.7894 -0.4474  0.3477
 7641TIP3    H222888   4.674   0.839   1.197 -2.3614 -0.4977 -0.8651
 7642TIP3   OH222889   0.955   6.145   1.125  0.3316  0.1087  0.1586
 7642TIP3    H122890   1.007   6.071   1.156  0.7397  0.2645 -0.1350
 7642TIP3    H222891   1.000   6.174   1.045 -2.1147 -1.9210 -2.1683
 7643TIP3   OH222892   6.033   1.094   1.878  0.6831 -0.0226 -0.0488
 7643TIP3    H122893   6.077   1.017   1.841 -0.7784 -1.5395  1.1580
 7643TIP3    H222894   6.064   1.097   1.969  0.0987  0.2931  0.1441
 7644TIP3   OH222895   1.335   4.355   3.100 -0.6475  0.0277 -0.1785
 7644TIP3    H122896   1.345   4.277   3.046 -0.0213  0.9419 -1.4399
 7644TIP3    H222897   1.394   4.419   3.061  0.0095  0.6752  1.7540
 7645TIP3   OH222898   0.289   6.319   2.379 -0.1951 -0.1039 -0.4895
 7645TIP3    H122899   0.332   6.260   2.317 -0.9976 -0.2681 -0.9129
 7645TIP3    H222900   0.360   6.358   2.429  0.4548 -0.1291 -1.3803
 7646TIP3   OH222901   6.238   0.721   4.004  0.4219  0.2690 -0.0083
 7646TIP3    H122902   6.246   0.780   4.078  0.6073  2.6816 -1.8191
 7646TIP3    H222903   6.327   0.717   3.967  0.0728  0.2769 -0.8884
 7647TIP3   OH222904   6.712   2.394   5.794  0.4839 -0.1728 -0.0247
 7647TIP3    H122905   6.669   2.468   5.752 -0.2589  0.7204  2.2005
 7647TIP3    H222906   6.773   2.433   5.856  1.1988 -1.4364  0.1062
 7648TIP3   OH222907   1.795   3.417   1.582  0.1515  0.3840  0.7812
 7648TIP3    H122908   1.802   3.323   1.598 -1.2892  0.2966  0.9771
 7648TIP3    H222909   1.836   3.430   1.497  0.8717 -0.3258  1.0123
 7649TIP3   OH222910   3.003   0.512   1.417  0.2388 -0.0031  0.6905
 7649TIP3    H122911   3.020   0.514   1.511 -0.3362  3.0790  0.8052
 7649TIP3    H222912   3.081   0.551   1.378 -1.0311  2.2254  0.2419
 7650TIP3   OH222913   6.812   0.261   1.014  0.9394  0.1845 -0.1192
 7650TIP3    H122914   6.887   0.311   0.984  1.1723 -0.3573 -0.4659
 7650TIP3    H222915   6.796   0.292   1.103  1.2403  0.6791 -0.2361
 7651TIP3   OH222916   5.012   5.959   1.119 -0.5695 -0.4681 -0.0075
 7651TIP3    H122917   5.104   5.937   1.103 -0.5957 -1.3363  0.9200
 7651TIP3    H222918   4.981   5.996   1.036  0.5879 -0.2495 -0.3531
 7652TIP3   OH222919   7.050   2.049   2.862 -0.4622  0.0054  0.2179
 7652TIP3    H122920   7.016   2.103   2.791  0.4632 -1.2591 -1.2578
 7652TIP3    H222921   7.144   2.062   2.859 -0.4982  1.3925  2.5092
 7653TIP3   OH222922   3.633   6.088   3.815  0.1120  0.4492 -0.2395
 7653TIP3    H122923   3.609   6.140   3.739  1.0116  0.0252 -0.8301
 7653TIP3    H222924   3.583   6.006   3.806  1.1907 -0.1397 -1.0887
 7654TIP3   OH222925   7.162   4.081   2.557  0.1001  0.2728  0.5695
 7654TIP3    H122926   7.213   4.112   2.482 -0.0826  1.4929  0.9261
 7654TIP3    H222927   7.093   4.027   2.519 -0.1932  1.1561 -0.1764
 7655TIP3   OH222928   3.954   3.280   2.167 -0.2848  0.2370  0.0172
 7655TIP3    H122929   3.898   3.304   2.242  1.2458 -0.0883  1.3203
 7655TIP3    H222930   3.951   3.184   2.166 -2.5551  0.2145 -2.1879
 7656TIP3   OH222931   0.294   0.964   1.167 -0.1322 -0.1307 -0.3869
 7656TIP3    H122932   0.211   0.996   1.202  0.1972 -0.7509  1.0266
 7656TIP3    H222933   0.333   0.914   1.239  0.7154 -1.2252 -1.5560
 7657TIP3   OH222934   4.047   1.187   4.379 -0.3527 -0.5719  0.1555
 7657TIP3    H122935   4.075   1.162   4.467 -1.8425 -0.3413  0.7203
 7657TIP3    H222936   3.966   1.140   4.364 -0.6127  0.1092 -0.7319
 7658TIP3   OH222937   1.090   5.716   0.232  0.0364 -0.9039  0.1931
 7658TIP3    H122938   1.063   5.681   0.148  0.3862 -0.3246 -0.1657
 7658TIP3    H222939   1.027   5.785   0.252 -0.0680 -1.0637  0.4260
 7659TIP3   OH222940   1.801   5.401   1.768  0.0584 -0.0452  0.0428
 7659TIP3    H122941   1.837   5.336   1.829 -0.7220 -1.3609 -0.8476
 7659TIP3    H222942   1.771   5.472   1.824  1.0080 -0.4008  1.0424
 7660TIP3   OH222943   1.428   1.101   2.864  0.2793  0.3350 -0.1030
 7660TIP3    H122944   1.434   1.149   2.947  1.4424 -0.1790  0.1343
 7660TIP3    H222945   1.519   1.078   2.844 -0.1947 -1.2487 -0.5118
 7661TIP3   OH222946   5.656   5.903   0.434  0.0761 -0.0789 -0.1918
 7661TIP3    H122947   5.689   5.858   0.355  1.9645  0.9724 -0.0631
 7661TIP3    H222948   5.588   5.845   0.467 -0.0232 -1.0828 -2.0010
 7662TIP3   OH222949   7.018   4.785   5.836  0.0679  0.4732  0.0724
 7662TIP3    H122950   7.012   4.803   5.742 -0.5585 -2.1246 -0.4521
 7662TIP3    H222951   7.112   4.776   5.853  0.2426  1.7198 -0.0887
 7663TIP3   OH222952   0.774   3.773   5.762 -0.2819  1.0217 -0.1200
 7663TIP3    H122953   0.703   3.709   5.763 -1.9891  2.7139  2.3567
 7663TIP3    H222954   0.733   3.853   5.730  0.7299  1.8395  0.5604
 7664TIP3   OH222955   0.299   2.971   5.004 -0.1284 -0.2249  0.1842
 7664TIP3    H122956   0.310   3.026   4.926  0.7428  0.4050  0.7240
 7664TIP3    H222957   0.241   3.022   5.060 -1.8113 -1.2483 -0.5398
 7665TIP3   OH222958   0.161   1.826   3.666 -0.0152  0.4547 -0.3032
 7665TIP3    H122959   0.130   1.793   3.751  0.8252  1.0937  0.2660
 7665TIP3    H222960   0.081   1.846   3.618 -0.5144 -0.3238  0.1651
 7666TIP3   OH222961   1.600   2.174   3.380 -0.0769  0.1708  0.0361
 7666TIP3    H122962   1.590   2.229   3.302 -2.4702 -1.2232 -0.7446
 7666TIP3    H222963   1.554   2.222   3.449  1.2477  0.9667  0.3944
 7667TIP3   OH222964   5.541   4.929   5.709  0.5565 -0.1969  0.6647
 7667TIP3    H122965   5.624   4.931   5.663  0.8310 -0.9106  1.1112
 7667TIP3    H222966   5.558   4.974   5.792  0.3985 -0.0170  0.6005
 7668TIP3   OH222967   4.527   4.165   2.028 -0.0904  0.0793  0.8553
 7668TIP3    H122968   4.589   4.185   1.958 -0.2892  0.9701  0.9224
 7668TIP3    H222969   4.472   4.094   1.992  1.4927 -1.3355  1.1197
 7669TIP3   OH222970   6.253   0.364   4.782 -0.6909 -0.1570  0.2276
 7669TIP3    H122971   6.201   0.290   4.812 -0.8990 -0.4514 -0.7969
 7669TIP3    H222972   6.287   0.404   4.862 -2.7655  0.2542  0.9794
 7670TIP3   OH222973   5.671   3.552   0.119 -0.1878  0.0631  0.5392
 7670TIP3    H122974   5.687   3.464   0.086 -1.5826 -0.4701  1.2251
 7670TIP3    H222975   5.654   3.605   0.040 -1.7699 -0.8232  0.2429
 7671TIP3   OH222976   0.511   6.669   3.003 -0.0029  0.0292 -0.4679
 7671TIP3    H122977   0.511   6.671   3.098  3.5440  0.2107 -0.3358
 7671TIP3    H222978   0.512   6.762   2.977  1.5441  0.0324 -0.5135
 7672TIP3   OH222979   0.753   4.824   5.667 -0.2444 -0.2866 -0.1655
 7672TIP3    H122980   0.722   4.767   5.597 -0.5961 -0.3607  0.0459
 7672TIP3    H222981   0.674   4.868   5.700  0.1871  1.4701 -1.3141
 7673TIP3   OH222982   5.255   2.738   5.249 -0.0831 -0.2175  0.5765
 7673TIP3    H122983   5.321   2.703   5.310 -0.8033  0.7110  1.9455
 7673TIP3    H222984   5.203   2.661   5.224  0.0701 -0.5790  1.3340
 7674TIP3   OH222985   5.901   4.633   3.855  0.1184  0.1315 -0.2310
 7674TIP3    H122986   5.954   4.556   3.875  0.3044  0.5828  1.1218
 7674TIP3    H222987   5.934   4.701   3.914 -2.4425  0.2130  1.2579
 7675TIP3   OH222988   5.680   6.375   4.032 -0.3286 -0.0845 -0.3462
 7675TIP3    H122989   5.625   6.304   3.998  3.1234 -2.2672 -1.8306
 7675TIP3    H222990   5.728   6.335   4.105  0.0333  1.4368  0.2752
 7676TIP3   OH222991   2.111   5.379   2.288 -0.7289  0.0877 -0.1392
 7676TIP3    H122992   2.056   5.373   2.211  0.5469 -0.9077 -1.0247
 7676TIP3    H222993   2.181   5.439   2.263  0.4481 -1.2927 -0.2981
 7677TIP3   OH222994   4.926   3.560   5.644  0.8438  0.4154 -0.7052
 7677TIP3    H122995   4.872   3.483   5.627  0.1928  0.3887  1.1933
 7677TIP3    H222996   5.010   3.525   5.673  0.8251  0.4137 -0.6513
 7678TIP3   OH222997   1.215   5.944   5.281 -0.0641  0.2869 -0.6354
 7678TIP3    H122998   1.289   5.995   5.316  0.7593 -1.3335  0.0965
 7678TIP3    H222999   1.232   5.940   5.187  0.1756  0.8611 -0.6230
 7679TIP3   OH223000   6.325   5.230   1.319 -0.2881  0.1499  0.5227
 7679TIP3    H123001   6.265   5.190   1.256 -1.2139  1.6926  0.3650
 7679TIP3    H223002   6.267   5.276   1.380  0.6913  0.5635  1.1488
 7680TIP3   OH223003   2.921   3.784   3.182  0.4027 -0.0052  0.0361
 7680TIP3    H123004   2.951   3.853   3.242  1.4279 -0.3098 -0.1033
 7680TIP3    H223005   2.925   3.704   3.233 -0.0241 -0.0698 -0.0357
 7681TIP3   OH223006   4.663   3.969   0.603 -0.2133 -0.4344 -0.7105
 7681TIP3    H123007   4.693   4.008   0.521 -0.9141 -1.2538 -1.3723
 7681TIP3    H223008   4.568   3.963   0.593 -0.1881 -1.6037 -0.3141
 7682TIP3   OH223009   4.296   4.113   0.257 -0.0047  0.5962 -0.5316
 7682TIP3    H123010   4.213   4.076   0.287 -0.1269  1.4865  0.2803
 7682TIP3    H223011   4.299   4.201   0.296  2.0998 -0.0313  0.9190
 7683TIP3   OH223012   4.583   0.337   4.604  0.1487 -0.1972 -0.0881
 7683TIP3    H123013   4.621   0.423   4.621  0.6217 -0.0112 -1.8247
 7683TIP3    H223014   4.496   0.356   4.568 -1.1220 -0.5879  2.5087
 7684TIP3   OH223015   4.141   5.002   4.162  0.1297 -0.5018 -0.2604
 7684TIP3    H123016   4.125   4.930   4.100 -0.4819 -0.4217 -0.1993
 7684TIP3    H223017   4.108   5.080   4.117  0.2801 -0.3435 -0.0965
 7685TIP3   OH223018   6.295   1.778   5.785 -0.2551  0.2786  0.3114
 7685TIP3    H123019   6.333   1.697   5.821 -0.5372 -0.6200 -1.3148
 7685TIP3    H223020   6.207   1.752   5.758  0.0702  0.8142 -1.3098
 7686TIP3   OH223021   0.903   6.810   0.192 -0.3682  0.4232  0.1644
 7686TIP3    H123022   0.959   6.834   0.266 -0.8437 -1.4033  1.1782
 7686TIP3    H223023   0.903   6.714   0.192 -0.9566  0.3795 -1.7884
 7687TIP3   OH223024   4.008   3.943   3.740  0.2966 -0.5818 -0.4767
 7687TIP3    H123025   4.005   4.024   3.690 -1.0792  0.7567  1.6462
 7687TIP3    H223026   4.054   3.966   3.821  0.8832 -2.2366 -0.2995
 7688TIP3   OH223027   6.528   6.277   3.460 -0.5847  0.2864 -0.0349
 7688TIP3    H123028   6.464   6.343   3.431 -0.5326 -0.1057 -1.0787
 7688TIP3    H223029   6.602   6.328   3.492  0.1617  0.7748 -2.3971
 7689TIP3   OH223030   4.962   1.238   3.147 -0.7315 -0.2567  0.1998
 7689TIP3    H123031   4.937   1.199   3.231  1.3170 -0.8639  0.5812
 7689TIP3    H223032   4.983   1.329   3.167 -0.7425 -0.2643  0.2443
 7690TIP3   OH223033   0.894   4.398   5.540  0.7702 -0.0146  0.4767
 7690TIP3    H123034   0.810   4.366   5.509  0.3648 -0.1337  1.6519
 7690TIP3    H223035   0.948   4.319   5.547  0.6842 -0.0602  0.6234
 7691TIP3   OH223036   6.989   4.360   4.778  0.0075 -0.0011  0.1756
 7691TIP3    H123037   6.976   4.362   4.873  1.5973  1.1550  0.4009
 7691TIP3    H223038   6.963   4.446   4.747 -0.7566 -0.4582 -0.4900
 7692TIP3   OH223039   4.599   4.458   1.632  0.2532 -0.7878  0.1061
 7692TIP3    H123040   4.648   4.524   1.681 -0.5185 -0.0544 -0.0890
 7692TIP3    H223041   4.510   4.493   1.626  0.2559 -0.9765 -1.6038
 7693TIP3   OH223042   2.001   2.742   0.284  0.1560 -0.0795  0.5312
 7693TIP3    H123043   2.008   2.744   0.379  0.7385 -1.1599  0.5267
 7693TIP3    H223044   2.090   2.756   0.253 -0.1659  1.1917  0.1062
 7694TIP3   OH223045   6.506   5.675   0.104 -0.5292  1.0666 -0.0635
 7694TIP3    H123046   6.415   5.667   0.077 -1.0095  1.8406  1.2551
 7694TIP3    H223047   6.530   5.588   0.134  0.1640  0.0266 -3.1908
 7695TIP3   OH223048   1.657   4.754   4.063 -0.3264  0.3986  0.4871
 7695TIP3    H123049   1.563   4.762   4.080 -0.2597 -0.3349  1.2471
 7695TIP3    H223050   1.665   4.678   4.005 -0.1620  0.1698  0.8097
 7696TIP3   OH223051   6.146   0.271   0.445 -0.1510  0.0792  0.0907
 7696TIP3    H123052   6.140   0.236   0.356  1.3638 -0.5371  0.2093
 7696TIP3    H223053   6.074   0.334   0.451 -0.7960 -0.4962 -1.2782
 7697TIP3   OH223054   5.927   0.934   3.409  0.3105 -0.1295 -0.1359
 7697TIP3    H123055   5.869   0.914   3.335 -0.0967  0.9681 -0.1432
 7697TIP3    H223056   6.010   0.960   3.368  1.2185 -2.7257 -0.1050
 7698TIP3   OH223057   1.807   0.328   3.705 -0.0347  0.2698  0.7266
 7698TIP3    H123058   1.777   0.251   3.657  1.2398 -1.0623  1.9444
 7698TIP3    H223059   1.755   0.329   3.785 -0.4375  1.0289  0.4658
 7699TIP3   OH223060   1.558   6.106   4.128  0.8596  0.3324 -0.4239
 7699TIP3    H123061   1.549   6.069   4.216 -0.5891  0.6469 -0.4289
 7699TIP3    H223062   1.630   6.056   4.089 -0.4563 -1.9486 -0.1147
 7700TIP3   OH223063   2.327   6.574   2.240 -0.6568  0.2400  0.5643
 7700TIP3    H123064   2.284   6.496   2.275 -0.5531 -0.4626 -0.8047
 7700TIP3    H223065   2.410   6.542   2.204 -2.1685  0.1783 -3.3959
 7701TIP3   OH223066   4.263   2.847   4.034 -0.4752  0.4364  0.4027
 7701TIP3    H123067   4.254   2.933   3.993 -1.0467 -0.4463 -1.4148
 7701TIP3    H223068   4.346   2.852   4.083 -0.0214  1.7025 -0.4550
 7702TIP3   OH223069   1.898   4.644   0.150  0.1152 -0.1256  0.0895
 7702TIP3    H123070   1.839   4.684   0.214  1.1785  1.1779  0.3035
 7702TIP3    H223071   1.866   4.555   0.141  0.1344 -0.4926  2.7376
 7703TIP3   OH223072   7.054   1.190   4.823 -0.0571  0.2429  0.0177
 7703TIP3    H123073   7.050   1.134   4.900 -1.5660  1.2085  0.6909
 7703TIP3    H223074   6.978   1.164   4.770  1.1573 -0.6617 -1.3708
 7704TIP3   OH223075   4.221   0.378   0.137 -0.3511 -0.2421  0.5399
 7704TIP3    H123076   4.209   0.324   0.216  0.2584 -0.4247  0.5152
 7704TIP3    H223077   4.258   0.318   0.073 -0.1005  0.0952  0.3656
 7705TIP3   OH223078   5.175   3.977   3.935 -0.6783  0.0476  0.2412
 7705TIP3    H123079   5.159   4.059   3.982 -0.2032 -0.6331  1.6450
 7705TIP3    H223080   5.143   3.994   3.846 -0.4983  1.7791  0.4663
 7706TIP3   OH223081   2.390   6.326   3.521 -0.5847 -0.0242  0.1273
 7706TIP3    H123082   2.369   6.235   3.543 -2.1468 -0.0228 -1.1415
 7706TIP3    H223083   2.410   6.324   3.427 -0.2117  0.8787  0.1736
 7707TIP3   OH223084   0.821   0.537   3.161 -0.0567 -0.3176  0.2517
 7707TIP3    H123085   0.798   0.606   3.223  1.6855  0.6787 -0.1423
 7707TIP3    H223086   0.874   0.581   3.094 -0.1526 -1.7641 -0.8375
 7708TIP3   OH223087   5.275   1.992   3.744  0.0115 -0.3538  0.0729
 7708TIP3    H123088   5.268   2.035   3.659  0.2811 -1.1833 -0.3763
 7708TIP3    H223089   5.361   2.019   3.778  1.4343 -2.6722 -1.4357
 7709TIP3   OH223090   4.304   2.643   2.913 -0.7127 -0.3572  0.1517
 7709TIP3    H123091   4.268   2.732   2.909  1.3549  0.5037 -1.0883
 7709TIP3    H223092   4.380   2.645   2.855  0.6947 -2.3317  1.7689
 7710TIP3   OH223093   0.990   3.155   0.301 -0.2052 -0.5595  0.7164
 7710TIP3    H123094   0.900   3.137   0.276  0.1787 -1.4931 -0.0535
 7710TIP3    H223095   0.997   3.122   0.391 -1.0096  0.8752  1.3444
 7711TIP3   OH223096   7.012   3.380   0.991 -0.7555 -0.4992 -0.1998
 7711TIP3    H123097   7.006   3.313   0.922  2.5836 -1.2769  0.1180
 7711TIP3    H223098   7.067   3.448   0.953 -0.0086 -0.2867  1.2046
 7712TIP3   OH223099   5.634   4.962   3.025  0.4017 -0.4240  1.1913
 7712TIP3    H123100   5.640   4.869   3.003 -0.4682 -0.2997  0.3288
 7712TIP3    H223101   5.547   4.971   3.063 -1.0176  0.5876 -1.9206
 7713TIP3   OH223102   0.620   0.104   2.942 -0.2414  0.2769  0.0045
 7713TIP3    H123103   0.704   0.089   2.901  0.0724  2.5926 -0.3285
 7713TIP3    H223104   0.616   0.040   3.013  1.2566 -0.6353 -0.6924
 7714TIP3   OH223105   3.667   6.620   5.676 -0.7117  0.0269  0.9013
 7714TIP3    H123106   3.664   6.534   5.718 -0.8880 -1.0346 -1.1194
 7714TIP3    H223107   3.601   6.614   5.606 -1.3720  2.1421  1.2762
 7715TIP3   OH223108   0.620   1.763   1.825 -0.3796  0.1062  0.6475
 7715TIP3    H123109   0.654   1.681   1.788  1.3403  1.0219  0.0599
 7715TIP3    H223110   0.525   1.753   1.824 -0.2325 -1.5467 -0.1796
 7716TIP3   OH223111   1.380   5.985   4.706  0.8675  0.6035  0.0355
 7716TIP3    H123112   1.290   5.956   4.719  1.0198  0.6474  1.3245
 7716TIP3    H223113   1.429   5.905   4.685  0.5018  0.6154 -0.9040
 7717TIP3   OH223114   0.501   1.428   0.527 -0.1363  0.1960  0.6208
 7717TIP3    H123115   0.502   1.436   0.431  0.5456  0.8944  0.6777
 7717TIP3    H223116   0.571   1.366   0.546 -1.5658 -1.4991  0.5596
 7718TIP3   OH223117   5.547   5.829   0.125 -0.2871  0.8929  0.6000
 7718TIP3    H123118   5.535   5.741   0.160  1.2204  0.5191  0.2441
 7718TIP3    H223119   5.461   5.870   0.134 -1.0405 -0.6298  0.7089
 7719TIP3   OH223120   6.675   5.950   1.336 -0.1120 -0.0968  0.0950
 7719TIP3    H123121   6.763   5.967   1.369  0.3505  0.2145 -1.2343
 7719TIP3    H223122   6.647   6.033   1.297 -0.2495 -0.6683 -1.0857
 7720TIP3   OH223123   6.547   3.238   2.329  0.0885 -0.9762 -0.7634
 7720TIP3    H123124   6.525   3.328   2.352  1.3861 -1.0851  1.1284
 7720TIP3    H223125   6.463   3.196   2.311 -0.6364  0.2728 -0.3899
 7721TIP3   OH223126   1.897   0.692   3.380 -0.1098 -0.2068  0.2589
 7721TIP3    H123127   1.914   0.690   3.286  2.3532 -1.1261  0.6525
 7721TIP3    H223128   1.850   0.611   3.399 -0.4176 -0.1191 -0.1221
 7722TIP3   OH223129   3.358   1.858   0.829 -0.1354 -0.2551  0.6177
 7722TIP3    H123130   3.341   1.946   0.797 -0.0000 -1.1474 -2.1556
 7722TIP3    H223131   3.282   1.836   0.883 -0.5332  1.2393  0.6966
 7723TIP3   OH223132   5.912   1.062   1.167 -0.3613 -0.3240  0.0878
 7723TIP3    H123133   5.927   0.971   1.142 -0.7106  0.1579 -2.0024
 7723TIP3    H223134   5.998   1.096   1.190 -0.3437 -1.3808  1.7430
 7724TIP3   OH223135   0.605   0.962   4.770  0.1680  0.0885 -0.1393
 7724TIP3    H123136   0.524   0.947   4.720  0.8615 -0.1796 -1.2105
 7724TIP3    H223137   0.610   1.057   4.780 -0.8902  0.0477  0.9927
 7725TIP3   OH223138   4.959   6.499   3.503 -0.2850  0.3629 -0.2914
 7725TIP3    H123139   5.034   6.510   3.445 -0.8909  0.6046 -1.0449
 7725TIP3    H223140   4.940   6.406   3.501  1.2034 -0.0187  1.4601
 7726TIP3   OH223141   2.662   4.697   3.067  0.0150  0.0704  0.6486
 7726TIP3    H123142   2.620   4.742   3.141  1.5124  3.9823 -0.5815
 7726TIP3    H223143   2.756   4.703   3.087  0.3312 -1.4654 -0.2493
 7727TIP3   OH223144   4.785   4.315   2.815  0.2548 -0.5631 -0.5246
 7727TIP3    H123145   4.848   4.254   2.776  1.0507  0.1871 -0.4486
 7727TIP3    H223146   4.731   4.343   2.741  0.5263 -0.6106 -0.7452
 7728TIP3   OH223147   1.289   4.840   5.864 -0.1812  0.3073  0.2469
 7728TIP3    H123148   1.379   4.850   5.834 -0.2414 -0.6012 -0.2645
 7728TIP3    H223149   1.238   4.897   5.806  0.0233  0.6044  0.3553
 7729TIP3   OH223150   3.337   4.010   0.206 -0.5188  0.2240  0.4814
 7729TIP3    H123151   3.425   3.993   0.237 -1.4192  0.9972  3.8068
 7729TIP3    H223152   3.344   4.005   0.110  3.0490  0.1729  0.6216
 7730TIP3   OH223153   3.434   1.030   5.726 -0.4630  0.6202  0.6221
 7730TIP3    H123154   3.341   1.014   5.707  0.1616 -1.0125 -1.3271
 7730TIP3    H223155   3.466   0.947   5.760  0.7557  0.5272 -0.7113
 7731TIP3   OH223156   0.282   0.218   5.637 -0.2096 -0.0485  0.3392
 7731TIP3    H123157   0.354   0.181   5.688  0.1775  0.1924 -0.0183
 7731TIP3    H223158   0.251   0.292   5.688 -0.5583 -0.4771  0.7499
 7732TIP3   OH223159   0.854   3.727   2.761 -0.1188  0.1892 -0.2443
 7732TIP3    H123160   0.785   3.703   2.699 -2.1830  3.9136  0.3277
 7732TIP3    H223161   0.808   3.740   2.845  1.5582  1.0534  0.6033
 7733TIP3   OH223162   0.405   3.647   0.548  0.1159 -0.1332  0.4178
 7733TIP3    H123163   0.440   3.730   0.516  0.6028 -0.7148 -0.5836
 7733TIP3    H223164   0.417   3.586   0.476 -2.6386 -0.4768  0.1404
 7734TIP3   OH223165   4.397   4.707   3.864  0.1084 -0.7462 -0.8966
 7734TIP3    H123166   4.489   4.681   3.864 -0.1197 -1.7537 -3.0146
 7734TIP3    H223167   4.392   4.778   3.929  2.4008 -0.5167 -0.8984
 7735TIP3   OH223168   3.528   0.856   1.646 -0.3949  0.1751  0.4701
 7735TIP3    H123169   3.485   0.926   1.695  0.0591  1.6239 -1.1109
 7735TIP3    H223170   3.614   0.893   1.623 -0.3729 -0.6821 -0.8874
 7736TIP3   OH223171   7.111   0.283   1.663  0.4086  0.4010 -0.1886
 7736TIP3    H123172   7.050   0.304   1.735  0.2022  0.0171 -0.2505
 7736TIP3    H223173   7.189   0.334   1.683  0.7853 -0.5752  0.9417
 7737TIP3   OH223174   3.765   1.844   4.438 -0.3267  0.0540  0.4456
 7737TIP3    H123175   3.681   1.876   4.469 -0.7956 -0.9133  0.2027
 7737TIP3    H223176   3.781   1.764   4.488  0.0022 -0.2768 -0.1703
 7738TIP3   OH223177   5.257   2.577   2.962 -0.3540 -0.2794 -0.0040
 7738TIP3    H123178   5.247   2.601   2.870 -0.7824  1.4427  0.4464
 7738TIP3    H223179   5.171   2.594   3.000  0.6794  2.5884  1.4003
 7739TIP3   OH223180   1.732   1.267   0.491  0.1434 -0.5241  0.7014
 7739TIP3    H123181   1.689   1.182   0.477 -0.2254 -0.1358 -0.7211
 7739TIP3    H223182   1.818   1.245   0.526 -0.3214 -1.4281  1.3362
 7740TIP3   OH223183   3.935   2.757   0.027 -0.0975  0.4741 -0.1828
 7740TIP3    H123184   3.918   2.674  -0.017  0.2397 -0.1958  0.9027
 7740TIP3    H223185   3.943   2.734   0.120 -1.9689  1.9947  0.4306
 7741TIP3   OH223186   7.104   4.613   2.274 -0.2858 -0.2900 -0.0612
 7741TIP3    H123187   7.147   4.655   2.348 -0.5188 -2.2438  1.2628
 7741TIP3    H223188   7.167   4.548   2.242 -1.0196 -0.9802 -0.1423
 7742TIP3   OH223189   0.240   5.777   2.404 -0.8037  0.5003 -0.2983
 7742TIP3    H123190   0.306   5.840   2.434 -0.2797 -0.7869  1.4014
 7742TIP3    H223191   0.196   5.748   2.484 -0.8151 -1.5106 -0.9719
 7743TIP3   OH223192   4.433   6.259   3.710  0.1279  0.2911  0.6525
 7743TIP3    H123193   4.500   6.301   3.656  0.7525  1.2795  2.1299
 7743TIP3    H223194   4.453   6.166   3.705  0.4836  0.4059 -0.3844
 7744TIP3   OH223195   2.378   4.934   4.151  0.0405  0.4047 -0.2146
 7744TIP3    H123196   2.366   5.012   4.205 -0.9915  1.5537 -1.9967
 7744TIP3    H223197   2.322   4.949   4.075  0.9683 -1.4064 -1.3228
 7745TIP3   OH223198   3.969   4.616   0.713 -0.0533  0.0823  0.4628
 7745TIP3    H123199   3.903   4.618   0.783 -1.3307 -0.4194 -0.6706
 7745TIP3    H223200   3.933   4.555   0.649  2.1723 -1.2177  0.3907
 7746TIP3   OH223201   1.541   2.041   1.554  0.4952 -0.3499  0.1565
 7746TIP3    H123202   1.622   1.994   1.573  0.8911  0.9464  1.9715
 7746TIP3    H223203   1.472   1.989   1.596  0.9405  0.6600  2.2341
 7747TIP3   OH223204   3.404   0.782   4.818 -0.7597 -0.2652  0.4473
 7747TIP3    H123205   3.374   0.782   4.909 -1.9455  0.0753  0.0727
 7747TIP3    H223206   3.444   0.868   4.805 -1.4745  0.0636  0.3777
 7748TIP3   OH223207   5.546   6.410   5.622  0.1369  0.2037  0.5419
 7748TIP3    H123208   5.590   6.339   5.575 -0.3192  0.0591  0.3263
 7748TIP3    H223209   5.597   6.488   5.601 -0.9379  0.4223 -1.4765
 7749TIP3   OH223210   1.519   0.315   5.311  0.0949  0.2154  0.0684
 7749TIP3    H123211   1.580   0.252   5.350 -0.4383 -1.0795 -1.1242
 7749TIP3    H223212   1.442   0.311   5.368 -0.7428 -1.7889 -1.0863
 7750TIP3   OH223213   6.951   1.151   0.621 -0.1285 -0.6995  0.3268
 7750TIP3    H123214   6.883   1.148   0.688 -0.4481 -1.3891 -0.0233
 7750TIP3    H223215   6.987   1.062   0.618 -0.8293 -0.9669 -1.1331
 7751TIP3   OH223216   2.296   1.703   0.488  0.1985 -0.1469  0.2678
 7751TIP3    H123217   2.310   1.782   0.436 -1.4046 -1.0009 -1.5898
 7751TIP3    H223218   2.242   1.731   0.561 -2.0345  0.2027 -1.4325
 7752TIP3   OH223219   4.236   2.002   1.187 -0.2108  0.3502 -0.1685
 7752TIP3    H123220   4.197   2.031   1.269  0.5439  0.0610  0.3099
 7752TIP3    H223221   4.195   1.917   1.170 -0.1352  0.2641  0.0786
 7753TIP3   OH223222   4.899   4.061   2.307 -0.2249 -0.2715  0.5259
 7753TIP3    H123223   4.937   4.094   2.226  1.3176 -1.2187  0.8196
 7753TIP3    H223224   4.804   4.071   2.295 -0.0192 -0.1851 -1.2931
 7754TIP3   OH223225   4.059   1.618   4.896 -0.1412 -0.2145 -0.2376
 7754TIP3    H123226   4.026   1.533   4.865 -0.7467  0.0412 -0.3053
 7754TIP3    H223227   4.117   1.648   4.827  0.0016 -0.5334 -0.2577
 7755TIP3   OH223228   1.789   3.130   3.500  0.8794  0.2506 -0.5274
 7755TIP3    H123229   1.871   3.083   3.514 -0.1631 -1.6686 -0.6344
 7755TIP3    H223230   1.763   3.161   3.587  0.8076 -0.7211 -0.1940
 7756TIP3   OH223231   5.453   6.514   4.299 -0.3537 -0.1216  0.0582
 7756TIP3    H123232   5.493   6.519   4.212  1.2621  1.5092  0.8345
 7756TIP3    H223233   5.444   6.605   4.326  0.6103 -0.6239  2.2212
 7757TIP3   OH223234   0.639   6.364   1.989 -0.1497 -0.3454 -0.0178
 7757TIP3    H123235   0.571   6.297   2.000 -0.8401  0.2067 -0.7549
 7757TIP3    H223236   0.717   6.315   1.963 -0.5992 -0.8868 -0.3758
 7758TIP3   OH223237   1.617   3.029   1.511  0.1065 -0.8730 -0.3919
 7758TIP3    H123238   1.577   3.072   1.436  0.8470 -0.4939 -0.5751
 7758TIP3    H223239   1.569   2.946   1.519 -0.7134 -0.4333 -0.5974
 7759TIP3   OH223240   1.135   5.069   0.015  0.2778 -0.3211  0.0297
 7759TIP3    H123241   1.058   5.046  -0.037 -0.3595  3.2830 -0.8269
 7759TIP3    H223242   1.103   5.078   0.104  0.2971 -1.3001  0.1530
 7760TIP3   OH223243   4.773   4.714   0.819 -0.2051  0.2095  0.1970
 7760TIP3    H123244   4.800   4.633   0.860 -1.3781  1.3973  3.6357
 7760TIP3    H223245   4.691   4.692   0.774 -0.3739 -0.5684  0.8675
 7761TIP3   OH223246   2.856   5.353   4.885  0.6670  0.4996  0.1966
 7761TIP3    H123247   2.795   5.334   4.814  1.7105  2.1521 -1.2185
 7761TIP3    H223248   2.822   5.432   4.926  0.1692 -0.3473  1.4633
 7762TIP3   OH223249   4.326   4.379   0.410 -0.2237  0.5009 -0.0874
 7762TIP3    H123250   4.233   4.368   0.432 -0.4333  0.7647 -0.8168
 7762TIP3    H223251   4.371   4.373   0.494 -0.7249 -1.3110  0.0970
 7763TIP3   OH223252   2.350   5.120   4.357  0.6068  0.0658  0.0677
 7763TIP3    H123253   2.286   5.108   4.427 -0.0769 -0.7642 -0.6807
 7763TIP3    H223254   2.311   5.186   4.300  0.7610  0.1017  0.0032
 7764TIP3   OH223255   5.301   4.431   3.225 -0.1090 -0.2220  0.9374
 7764TIP3    H123256   5.370   4.486   3.189  0.3441 -0.6439  1.1513
 7764TIP3    H223257   5.337   4.342   3.223  0.1242 -0.2059  2.8394
 7765TIP3   OH223258   3.708   3.815   5.036  0.1130  0.1236 -0.1486
 7765TIP3    H123259   3.720   3.769   4.953  1.8645  0.3709 -0.0730
 7765TIP3    H223260   3.736   3.905   5.017  0.8755  0.0951  0.7862
 7766TIP3   OH223261   4.354   5.061   3.826 -0.0863  0.1417  0.2902
 7766TIP3    H123262   4.260   5.045   3.838 -0.1778  0.4969  0.0650
 7766TIP3    H223263   4.378   5.005   3.752 -0.5420  1.4534 -0.9039
 7767TIP3   OH223264   0.855   1.343   0.950  0.2145  0.2339 -0.6745
 7767TIP3    H123265   0.761   1.344   0.966  0.0402  0.5652 -1.6513
 7767TIP3    H223266   0.876   1.433   0.924  0.9654  0.3886  0.3581
 7768TIP3   OH223267   5.665   0.911   1.331  0.3278 -0.0329 -0.1498
 7768TIP3    H123268   5.673   0.890   1.425  3.3769 -0.1614 -0.3322
 7768TIP3    H223269   5.741   0.967   1.313 -1.4699  1.9198 -2.1130
 7769TIP3   OH223270   4.634   6.783   1.391 -0.5842  0.2403  0.1748
 7769TIP3    H123271   4.644   6.725   1.467 -1.7319 -0.3899 -0.1382
 7769TIP3    H223272   4.689   6.858   1.412  0.3519 -0.6208  0.9292
 7770TIP3   OH223273   6.850   5.384   2.192  0.5185  0.1933  0.3640
 7770TIP3    H123274   6.775   5.361   2.136 -0.1587 -0.0861  1.3505
 7770TIP3    H223275   6.914   5.422   2.132 -0.5005  0.6490 -0.4761
 7771TIP3   OH223276   6.263   5.571   4.974 -0.0195 -0.3007 -0.4859
 7771TIP3    H123277   6.201   5.567   5.047  0.5033 -0.4924 -0.0468
 7771TIP3    H223278   6.227   5.638   4.916  1.1683  2.1924  1.4819
 7772TIP3   OH223279   2.873   1.325   3.620  0.1041  0.0500 -0.2925
 7772TIP3    H123280   2.797   1.278   3.586  1.6095 -1.7921 -1.3260
 7772TIP3    H223281   2.843   1.415   3.631 -3.4332 -1.2778  3.3244
 7773TIP3   OH223282   5.285   1.611   1.301  0.2152  0.0043 -0.4291
 7773TIP3    H123283   5.360   1.667   1.324 -0.8057  1.1457  0.2330
 7773TIP3    H223284   5.240   1.596   1.384 -0.2994 -0.6903 -0.8224
 7774TIP3   OH223285   2.038   5.890   0.548 -0.1484 -0.0407 -0.1325
 7774TIP3    H123286   2.017   5.828   0.478  0.2978  0.0787 -0.3791
 7774TIP3    H223287   1.971   5.876   0.614 -0.4193 -0.3435 -0.4683
 7775TIP3   OH223288   3.418   2.507   2.465  0.3283 -0.4105 -0.0475
 7775TIP3    H123289   3.327   2.481   2.480  0.0940  0.4830  0.0997
 7775TIP3    H223290   3.412   2.587   2.413  1.0650 -1.1845 -1.3761
 7776TIP3   OH223291   5.294   1.549   2.004 -0.2498 -0.3362 -0.3881
 7776TIP3    H123292   5.259   1.496   2.075 -2.6487  1.6663  0.0691
 7776TIP3    H223293   5.332   1.625   2.048 -1.0329  0.5352 -1.1779
 7777TIP3   OH223294   3.532   0.328   4.201  0.4177 -0.0186  0.0678
 7777TIP3    H123295   3.520   0.321   4.295  0.1628 -0.2177  0.0209
 7777TIP3    H223296   3.503   0.244   4.166 -2.6231  1.1415 -0.4990
 7778TIP3   OH223297   7.059   1.216   5.234 -0.6049 -0.4020  0.0051
 7778TIP3    H123298   7.044   1.166   5.154 -0.9409 -0.1071 -0.1160
 7778TIP3    H223299   6.982   1.198   5.288 -0.9721  0.3760 -0.2407
 7779TIP3   OH223300   0.013   3.013   0.108 -0.0917 -0.1970 -0.6103
 7779TIP3    H123301   0.103   2.982   0.115 -0.3912 -1.2332 -1.2020
 7779TIP3    H223302  -0.040   2.934   0.109 -0.8265  0.1970 -3.0986
 7780TIP3   OH223303   2.504   0.041   0.377 -0.2887 -0.5561 -0.3842
 7780TIP3    H123304   2.421   0.082   0.401 -0.4470 -0.9109 -0.3250
 7780TIP3    H223305   2.482  -0.050   0.356  0.0241 -0.5544 -0.7518
 7781TIP3   OH223306   2.586   6.374   2.189 -0.4922  0.5421 -0.1004
 7781TIP3    H123307   2.611   6.434   2.119 -1.0561  1.4530  0.4557
 7781TIP3    H223308   2.664   6.369   2.245 -0.2418  0.2824 -0.4705
 7782TIP3   OH223309   4.137   6.721   1.235  0.5626 -0.0484  0.4662
 7782TIP3    H123310   4.230   6.738   1.250  0.2163  3.4522 -0.4677
 7782TIP3    H223311   4.092   6.780   1.295 -1.0546 -0.6173 -0.1421
 7783TIP3   OH223312   4.863   5.580   5.508  0.6295  0.1035  0.1189
 7783TIP3    H123313   4.938   5.560   5.453  0.7923  1.7421 -0.3098
 7783TIP3    H223314   4.853   5.675   5.501 -1.2822 -0.0348  0.4184
 7784TIP3   OH223315   0.661   1.757   3.154  0.0216 -0.0337  0.2296
 7784TIP3    H123316   0.751   1.773   3.126  0.1172  0.0439  0.5811
 7784TIP3    H223317   0.623   1.705   3.084  0.5724 -0.7374  0.4488
 7785TIP3   OH223318   5.270   6.662   3.902 -0.0163  0.1581 -0.4685
 7785TIP3    H123319   5.312   6.732   3.851  1.2424 -1.7291 -2.2298
 7785TIP3    H223320   5.343   6.614   3.940 -0.7578 -1.0452 -0.5193
 7786TIP3   OH223321   0.519   6.654   2.301 -0.2116 -0.8504 -0.2590
 7786TIP3    H123322   0.520   6.630   2.208 -0.5709 -1.8200 -0.0318
 7786TIP3    H223323   0.599   6.705   2.313  0.2203 -1.3291 -0.9547
 7787TIP3   OH223324   4.518   2.237   3.183  0.0819 -0.0705 -0.0888
 7787TIP3    H123325   4.529   2.175   3.256 -2.2807 -0.1272  0.3002
 7787TIP3    H223326   4.509   2.322   3.225  0.4973  0.1580 -0.4521
 7788TIP3   OH223327   0.940   5.369   4.462 -0.5061  0.1862 -0.2459
 7788TIP3    H123328   0.934   5.286   4.509  0.0323  1.0473  1.4201
 7788TIP3    H223329   1.024   5.406   4.489  0.8869 -0.1924 -3.5618
 7789TIP3   OH223330   6.545   4.443   3.285 -0.4960 -0.0790  0.1898
 7789TIP3    H123331   6.471   4.436   3.225 -0.8415 -0.5122  0.6599
 7789TIP3    H223332   6.506   4.467   3.369 -0.0345  0.3571  0.2874
 7790TIP3   OH223333   2.221   4.675   1.329  0.6055 -0.0723 -0.2445
 7790TIP3    H123334   2.147   4.728   1.359  0.9711 -0.6513  1.8868
 7790TIP3    H223335   2.220   4.598   1.386  1.6153 -1.1267 -1.5681
 7791TIP3   OH223336   5.602   6.204   2.856 -0.2287  0.0084  0.3059
 7791TIP3    H123337   5.530   6.256   2.818  0.4484  0.8968  0.2196
 7791TIP3    H223338   5.631   6.149   2.784 -0.0473  0.4963  0.0003
 7792TIP3   OH223339   6.455   1.188   4.325 -0.4615  0.0663  0.3182
 7792TIP3    H123340   6.410   1.231   4.397  0.2403 -1.4345  1.7374
 7792TIP3    H223341   6.481   1.103   4.361  1.9925  0.1953 -0.9600
 7793TIP3   OH223342   6.353   4.785   5.263  0.4015 -0.6330 -0.2951
 7793TIP3    H123343   6.424   4.842   5.293  0.4899 -0.5012 -0.7438
 7793TIP3    H223344   6.323   4.825   5.181 -0.9133 -0.0862  0.4262
 7794TIP3   OH223345   4.884   3.510   1.434 -0.0261 -0.3407 -0.6275
 7794TIP3    H123346   4.907   3.482   1.523  0.3732 -0.0142 -0.6273
 7794TIP3    H223347   4.966   3.543   1.398 -0.0618 -0.9788 -1.3096
 7795TIP3   OH223348   5.547   1.076   3.488  0.2239  0.0219  0.1410
 7795TIP3    H123349   5.579   1.048   3.575  1.5167  0.6602 -0.0963
 7795TIP3    H223350   5.618   1.131   3.454 -1.5957  2.4927  0.0275
 7796TIP3   OH223351   0.761   0.731   2.707  0.1378  0.2397 -0.5252
 7796TIP3    H123352   0.847   0.771   2.724  0.3461  0.0387 -1.0640
 7796TIP3    H223353   0.708   0.754   2.783  0.5484  0.7129 -0.3746
 7797TIP3   OH223354   2.901   1.636   4.915 -0.0285 -0.2203 -0.2635
 7797TIP3    H123355   2.896   1.616   4.821  0.5933 -1.2767 -0.0941
 7797TIP3    H223356   2.910   1.550   4.957 -0.7536  0.2057  0.8087
 7798TIP3   OH223357   6.267   5.440   4.562  0.4686 -0.0637 -0.4163
 7798TIP3    H123358   6.224   5.520   4.530 -0.5703 -0.3887  0.1160
 7798TIP3    H223359   6.353   5.442   4.521 -0.3150  0.2178 -2.1615
 7799TIP3   OH223360   4.001   2.748   3.135  0.2013  0.2830 -0.5961
 7799TIP3    H123361   4.001   2.830   3.086  0.9817  0.7223  0.1052
 7799TIP3    H223362   4.026   2.681   3.072  2.0499  0.9569 -0.6225
 7800TIP3   OH223363   0.911   0.526   0.837 -0.2256 -0.0435  0.4703
 7800TIP3    H123364   0.961   0.516   0.918  0.8863  0.0802 -0.1764
 7800TIP3    H223365   0.920   0.618   0.814 -1.1591  0.0848  0.5829
 7801TIP3   OH223366   1.645   1.319   5.072 -0.1184  0.2434 -0.1316
 7801TIP3    H123367   1.616   1.323   4.981 -1.0480  0.0219  0.1444
 7801TIP3    H223368   1.711   1.250   5.074  1.0549  1.3004 -0.9282
 7802TIP3   OH223369   4.127   2.471   4.442 -0.3751  0.4500 -0.0886
 7802TIP3    H123370   4.170   2.499   4.522 -0.5547 -0.7311  0.4411
 7802TIP3    H223371   4.051   2.420   4.472 -1.3869  1.3544 -1.0022
 7803TIP3   OH223372   5.667   3.880   4.226  0.1589  0.2375  0.1264
 7803TIP3    H123373   5.601   3.943   4.255  1.0096  0.4351  1.7509
 7803TIP3    H223374   5.750   3.922   4.245  0.7469 -0.8801  0.1040
 7804TIP3   OH223375   3.215   2.384   1.769 -0.3629  0.3560  0.0663
 7804TIP3    H123376   3.236   2.306   1.719  0.2458  0.4079  0.2367
 7804TIP3    H223377   3.129   2.366   1.808  1.1363 -1.6254  2.8089
 7805TIP3   OH223378   4.152   1.724   4.384 -0.0280  0.2144 -0.5085
 7805TIP3    H123379   4.097   1.796   4.355  1.0561  1.4228  0.3162
 7805TIP3    H223380   4.177   1.679   4.303 -4.3221 -2.1474 -0.8343
 7806TIP3   OH223381   1.601   4.744   3.376 -0.5046 -0.4753 -0.1899
 7806TIP3    H123382   1.634   4.730   3.464  0.0221 -1.6199 -0.5486
 7806TIP3    H223383   1.517   4.698   3.374 -0.3715 -0.7149 -0.3698
 7807TIP3   OH223384   2.851   6.362   4.436 -0.6608  0.2082  0.2629
 7807TIP3    H123385   2.900   6.429   4.483 -0.5895 -0.6670  1.4944
 7807TIP3    H223386   2.890   6.360   4.349 -1.3410  2.4492 -0.1536
 7808TIP3   OH223387   2.477   2.883   2.087 -0.3713  0.0488 -0.1034
 7808TIP3    H123388   2.426   2.945   2.035 -1.6316 -1.1347 -0.3469
 7808TIP3    H223389   2.517   2.936   2.156 -1.0046  1.1943 -0.5899
 7809TIP3   OH223390   2.060   1.346   1.549  0.0578 -0.7885  0.5170
 7809TIP3    H123391   2.082   1.395   1.628 -1.0354 -1.1739  1.0843
 7809TIP3    H223392   2.002   1.405   1.500  1.4446 -0.1920 -0.4521
 7810TIP3   OH223393   5.991   1.266   3.099 -0.8999  0.0568  0.0274
 7810TIP3    H123394   5.896   1.259   3.093 -0.9411 -1.1181  1.6078
 7810TIP3    H223395   6.022   1.176   3.099  0.3131  0.4437 -1.4326
 7811TIP3   OH223396   1.607   5.166   1.872  0.2066  0.4722 -0.4572
 7811TIP3    H123397   1.609   5.205   1.959 -1.6637 -1.8815  0.7560
 7811TIP3    H223398   1.632   5.074   1.886  1.5832  0.4074 -2.7132
 7812TIP3   OH223399   4.124   1.570   3.551 -0.2835 -0.1773  0.2418
 7812TIP3    H123400   4.167   1.491   3.586 -3.2349 -2.2980 -0.4903
 7812TIP3    H223401   4.169   1.588   3.469  0.7033 -0.8643  0.6179
 7813TIP3   OH223402   2.224   5.577   5.532 -0.0399  0.0555 -0.2458
 7813TIP3    H123403   2.169   5.530   5.469 -0.2622  1.1717 -0.9254
 7813TIP3    H223404   2.274   5.639   5.478  0.9357 -0.0534  0.5154
 7814TIP3   OH223405   0.221   0.909   2.991 -0.4212 -0.0463  0.5049
 7814TIP3    H123406   0.224   0.829   3.044 -0.6239 -0.0651  0.4872
 7814TIP3    H223407   0.209   0.876   2.901 -1.7121  0.0522  0.6306
 7815TIP3   OH223408   4.812   4.906   4.384 -0.4176  0.5159  0.1280
 7815TIP3    H123409   4.807   4.814   4.412  1.1331  0.2418 -0.3772
 7815TIP3    H223410   4.724   4.940   4.398 -1.6184 -1.6091 -1.5919
 7816TIP3   OH223411   6.789   1.404   4.001  0.9424  0.6283 -0.2179
 7816TIP3    H123412   6.701   1.430   3.973  1.7602  2.7041 -1.0526
 7816TIP3    H223413   6.817   1.341   3.935 -0.2216 -0.7627  0.5570
 7817TIP3   OH223414   2.872   3.254   0.834 -0.5872  0.4329  0.0555
 7817TIP3    H123415   2.860   3.346   0.813 -1.1413  0.4603  0.4652
 7817TIP3    H223416   2.937   3.253   0.904 -2.4628  0.7341  1.9076
 7818TIP3   OH223417   7.146   0.129   3.948  0.0518 -0.1070  0.1788
 7818TIP3    H123418   7.071   0.074   3.922 -0.6083  0.3541  1.0512
 7818TIP3    H223419   7.127   0.215   3.912 -1.6784  0.9878  3.3058
 7819TIP3   OH223420   6.468   4.567   4.971  0.4351 -0.4673  0.4338
 7819TIP3    H123421   6.545   4.530   5.013 -0.2494 -3.4651 -0.6596
 7819TIP3    H223422   6.396   4.548   5.032  0.1625 -0.2598  0.1832
 7820TIP3   OH223423   0.090   1.237   0.531  0.1109 -0.4623 -0.1278
 7820TIP3    H123424   0.033   1.307   0.498 -1.4597 -0.7491  1.8404
 7820TIP3    H223425   0.043   1.156   0.511 -0.1605 -0.7102  1.3846
 7821TIP3   OH223426   5.283   1.087   1.621  0.2948  0.7595  0.8869
 7821TIP3    H123427   5.280   0.992   1.610  1.9327  0.9117 -1.5539
 7821TIP3    H223428   5.193   1.116   1.608  0.4306 -0.1238 -3.0082
 7822TIP3   OH223429   2.722   3.792   0.996  0.0642 -0.1872 -0.1562
 7822TIP3    H123430   2.765   3.708   0.984 -0.0617 -0.2070 -0.4648
 7822TIP3    H223431   2.628   3.773   0.989 -0.0398 -0.2628  1.2174
 7823TIP3   OH223432   2.443   4.888   5.478  0.1330  0.4998  0.5160
 7823TIP3    H123433   2.354   4.920   5.471  1.1935  3.3319 -2.2223
 7823TIP3    H223434   2.444   4.807   5.428 -0.9549  0.1719  0.9961
 7824TIP3   OH223435   1.554   6.123   3.105  0.4564  1.1514  0.0946
 7824TIP3    H123436   1.459   6.136   3.109  0.3021  0.1551 -0.0764
 7824TIP3    H223437   1.581   6.121   3.197 -0.4260 -3.3363  0.4834
 7825TIP3   OH223438   3.079   0.469   2.213 -0.3307 -0.0437 -0.1408
 7825TIP3    H123439   3.040   0.421   2.286  0.5338  0.3242  0.5887
 7825TIP3    H223440   3.131   0.404   2.166 -2.2396 -0.6893 -1.4981
 7826TIP3   OH223441   3.441   4.849   5.367  0.5716  0.0516  0.6217
 7826TIP3    H123442   3.519   4.882   5.411  0.8997 -0.8711  0.7588
 7826TIP3    H223443   3.385   4.817   5.437 -0.0134  0.8451  0.5368
 7827TIP3   OH223444   6.712   6.452   3.570 -0.4792 -0.4200 -0.1166
 7827TIP3    H123445   6.742   6.488   3.653 -1.2823  0.2712 -0.1236
 7827TIP3    H223446   6.734   6.519   3.505 -1.1514 -0.3279 -0.2554
 7828TIP3   OH223447   3.586   1.567   1.960  0.0994 -0.2881  1.1071
 7828TIP3    H123448   3.506   1.518   1.978 -0.4695  0.3874  0.5177
 7828TIP3    H223449   3.561   1.628   1.890  1.4117 -0.7887  0.1599
 7829TIP3   OH223450   3.757   6.334   2.252 -0.6488  0.0962 -0.1995
 7829TIP3    H123451   3.690   6.347   2.185 -2.0300  1.3131  1.3317
 7829TIP3    H223452   3.728   6.257   2.300  0.4738 -0.9281 -1.1017
 7830TIP3   OH223453   3.336   3.965   1.654  0.0766 -0.1718 -0.5815
 7830TIP3    H123454   3.294   3.883   1.678 -1.5910  0.9298  0.4488
 7830TIP3    H223455   3.351   3.958   1.560 -1.1295 -1.1848 -0.7166
 7831TIP3   OH223456   4.293   5.156   2.941 -0.5306  0.4144  0.0090
 7831TIP3    H123457   4.290   5.142   3.035 -0.6495  2.4351  0.3589
 7831TIP3    H223458   4.353   5.090   2.908  0.3260  0.3417  1.6405
 7832TIP3   OH223459   6.114   2.321   0.866 -0.1121 -0.2501 -0.1952
 7832TIP3    H123460   6.182   2.388   0.876  0.3238 -0.6622 -0.3408
 7832TIP3    H223461   6.075   2.313   0.953  0.7738 -0.7890  0.1637
 7833TIP3   OH223462   3.701   4.503   1.262  0.3512 -0.7341  0.0632
 7833TIP3    H123463   3.771   4.503   1.327  0.5934 -0.7075 -0.1976
 7833TIP3    H223464   3.732   4.562   1.193 -0.1701 -0.2814  0.2047
 7834TIP3   OH223465   2.872   0.737   5.472  0.1259 -0.6442  0.3198
 7834TIP3    H123466   2.922   0.798   5.527 -0.3939 -1.2772  1.5192
 7834TIP3    H223467   2.834   0.793   5.404 -2.3073  0.8945  2.7192
 7835TIP3   OH223468   5.390   6.125   4.971  0.3685 -0.4575  0.3463
 7835TIP3    H123469   5.350   6.195   5.022  0.5338  0.7487 -1.0836
 7835TIP3    H223470   5.477   6.114   5.009 -0.1159 -0.7853  1.3779
 7836TIP3   OH223471   5.793   3.438   1.171  0.7237  0.4412  0.2333
 7836TIP3    H123472   5.809   3.529   1.143  1.0566  0.4886  0.5526
 7836TIP3    H223473   5.855   3.386   1.119  1.1356  0.4973  0.6524
 7837TIP3   OH223474   6.759   3.447   2.192  0.9408 -0.3757  0.1255
 7837TIP3    H123475   6.820   3.449   2.266  0.6156  0.0361  0.3940
 7837TIP3    H223476   6.812   3.419   2.117  1.2313 -0.9984  0.5527
 7838TIP3   OH223477   6.073   0.368   5.138  0.3217 -0.1554 -0.0800
 7838TIP3    H123478   6.119   0.311   5.077 -0.7266 -1.7934  0.5919
 7838TIP3    H223479   6.117   0.354   5.222  0.2336  0.2303  0.0323
 7839TIP3   OH223480   0.065   4.892   0.238 -0.9566 -0.4841 -0.5535
 7839TIP3    H123481   0.149   4.856   0.213  0.1586  1.0096  0.7982
 7839TIP3    H223482   0.033   4.834   0.308 -0.2494 -0.1635  0.0528
 7840TIP3   OH223483   5.717   0.617   5.186  1.0767 -0.2847 -0.5382
 7840TIP3    H123484   5.629   0.616   5.150  0.9019 -0.5673 -0.1198
 7840TIP3    H223485   5.734   0.526   5.209  1.4844 -0.2331 -0.6341
 7841TIP3   OH223486   5.309   4.142   5.429 -0.1696  0.0842 -0.4358
 7841TIP3    H123487   5.218   4.112   5.433  0.1277 -1.0100 -1.3943
 7841TIP3    H223488   5.314   4.193   5.347  0.4642 -1.3033 -1.2985
 7842TIP3   OH223489   0.294   3.638   5.447 -0.1454  0.2238 -0.3268
 7842TIP3    H123490   0.232   3.641   5.374 -1.8120 -1.0740  0.9511
 7842TIP3    H223491   0.253   3.691   5.516  0.5234 -0.0244  0.2821
 7843TIP3   OH223492   6.971   5.511   2.629 -0.2219  0.5949 -0.1942
 7843TIP3    H123493   7.022   5.453   2.685 -1.1844  0.1990  0.3134
 7843TIP3    H223494   6.904   5.454   2.591  0.1217  0.9519 -1.3913
 7844TIP3   OH223495   0.691   0.048   5.483 -0.0381  0.3013  0.2357
 7844TIP3    H123496   0.701   0.135   5.522 -0.5205 -0.0515  1.1918
 7844TIP3    H223497   0.645   0.063   5.400 -0.2380  0.9447  0.4567
 7845TIP3   OH223498   3.283   0.853   2.935 -0.0442 -0.3645 -0.2855
 7845TIP3    H123499   3.273   0.761   2.908  1.7006 -0.4653 -0.6530
 7845TIP3    H223500   3.266   0.903   2.855  1.3761 -0.5004 -0.7007
 7846TIP3   OH223501   1.570   1.312   4.189 -0.0678 -0.6552 -0.4204
 7846TIP3    H123502   1.556   1.406   4.179 -0.8405 -0.5216  1.5120
 7846TIP3    H223503   1.551   1.275   4.103  0.4517  0.9613 -1.2634
 7847TIP3   OH223504   2.037   6.647   2.663 -0.1297  0.8977  0.3122
 7847TIP3    H123505   1.981   6.618   2.735 -0.6295  1.3192  0.1008
 7847TIP3    H223506   2.123   6.658   2.702 -0.1143 -0.0706  0.5722
 7848TIP3   OH223507   2.104   1.906   3.166 -0.0651  0.3188 -0.1525
 7848TIP3    H123508   2.036   1.839   3.174  0.9691 -0.9149 -1.0560
 7848TIP3    H223509   2.075   1.978   3.221 -2.5719  0.2528 -1.2708
 7849TIP3   OH223510   5.974   4.110   0.651 -0.5283  0.2184 -0.2381
 7849TIP3    H123511   5.911   4.176   0.677  0.8911  1.0050  1.3905
 7849TIP3    H223512   5.979   4.051   0.726 -0.1052 -0.4406 -0.7725
 7850TIP3   OH223513   6.531   3.548   4.724  0.3239 -0.0221  0.2120
 7850TIP3    H123514   6.545   3.517   4.813  1.1148 -1.7118 -0.4587
 7850TIP3    H223515   6.522   3.643   4.732 -0.0361 -0.1914  2.1182
 7851TIP3   OH223516   5.788   1.611   3.256 -0.0576  0.1031 -0.3841
 7851TIP3    H123517   5.815   1.602   3.348  0.3684 -0.5219 -0.5618
 7851TIP3    H223518   5.870   1.615   3.208 -0.2826  0.0839 -0.7714
 7852TIP3   OH223519   5.160   0.735   1.453  0.1102  0.5839 -0.1185
 7852TIP3    H123520   5.076   0.706   1.418 -0.1860  3.1617 -1.8204
 7852TIP3    H223521   5.137   0.790   1.528  0.1330  2.0492 -1.1356
 7853TIP3   OH223522   6.476   2.940   2.808 -0.3444 -0.8696 -0.5424
 7853TIP3    H123523   6.480   3.008   2.876  0.1341 -0.9816 -0.4587
 7853TIP3    H223524   6.494   2.987   2.726  0.2010 -0.9292 -0.4599
 7854TIP3   OH223525   0.417   5.572   0.543  0.1082  0.1590 -0.3628
 7854TIP3    H123526   0.478   5.644   0.528  0.3631  0.1885  0.7221
 7854TIP3    H223527   0.364   5.600   0.618 -0.6384 -0.2561 -0.7222
 7855TIP3   OH223528   6.598   2.624   0.759 -0.2440 -0.0073 -0.4091
 7855TIP3    H123529   6.670   2.572   0.721  1.3517 -0.2876  2.7165
 7855TIP3    H223530   6.610   2.617   0.853 -3.1825  1.7364  0.2227
 7856TIP3   OH223531   5.893   6.248   1.607 -0.4553 -0.2934  0.2420
 7856TIP3    H123532   5.822   6.286   1.557 -0.5496 -0.4238  0.2758
 7856TIP3    H223533   5.951   6.321   1.627  0.6955 -0.5566 -1.8753
 7857TIP3   OH223534   4.802   4.929   2.048  0.6452 -0.1249 -0.3509
 7857TIP3    H123535   4.736   4.884   1.996  0.4485 -1.6411  1.1160
 7857TIP3    H223536   4.762   4.939   2.134  1.9844 -0.2945  0.3285
 7858TIP3   OH223537   4.049   6.582   3.347  0.1893  0.5937  0.6564
 7858TIP3    H123538   4.092   6.512   3.396  0.7675 -0.8043 -1.6546
 7858TIP3    H223539   4.121   6.635   3.314 -0.0068  0.1546 -0.5328
 7859TIP3   OH223540   0.997   1.213   3.627 -0.3161 -0.6282 -0.0832
 7859TIP3    H123541   0.932   1.228   3.558  1.1300 -1.3291 -1.6440
 7859TIP3    H223542   0.989   1.290   3.684 -0.8996  0.4343 -1.5554
 7860TIP3   OH223543   5.339   3.010   2.155  0.4526  0.0304 -0.0210
 7860TIP3    H123544   5.432   3.010   2.180  0.7194  1.4829 -0.8554
 7860TIP3    H223545   5.302   3.084   2.202  0.1723  0.6290 -1.1397
 7861TIP3   OH223546   6.327   0.146   3.695 -0.4315 -0.1048  0.3018
 7861TIP3    H123547   6.370   0.224   3.662  0.7742 -1.1928 -0.8035
 7861TIP3    H223548   6.324   0.159   3.790 -0.3337  1.3044  0.1316
 7862TIP3   OH223549   3.430   3.796   5.257  0.4270  0.0128 -0.0327
 7862TIP3    H123550   3.336   3.784   5.269  0.6070 -0.3285  1.2326
 7862TIP3    H223551   3.439   3.884   5.222 -0.2582  0.9367  1.9553
 7863TIP3   OH223552   6.272   5.186   3.048  0.3411  0.0237 -0.1017
 7863TIP3    H123553   6.299   5.273   3.019  3.0631 -0.0431  1.8828
 7863TIP3    H223554   6.251   5.196   3.140 -2.2718 -0.9080 -0.5161
 7864TIP3   OH223555   4.078   3.892   2.658 -0.1773 -0.5539 -0.4741
 7864TIP3    H123556   4.116   3.960   2.602  0.3046  0.0367  0.5429
 7864TIP3    H223557   4.079   3.813   2.604  2.0361 -0.4380 -0.6791
 7865TIP3   OH223558   3.445   2.019   0.254 -0.0337  0.3667  0.2203
 7865TIP3    H123559   3.526   1.970   0.242  0.8974  1.7248  0.7814
 7865TIP3    H223560   3.394   2.001   0.175  0.4248 -1.1692  0.2309
 7866TIP3   OH223561   4.488   5.621   1.057  0.0757  0.6127  0.4726
 7866TIP3    H123562   4.510   5.619   0.964 -0.2427 -3.0251  0.3114
 7866TIP3    H223563   4.414   5.681   1.063 -0.0890  0.6940 -1.6837
 7867TIP3   OH223564   3.894   2.390   0.608 -0.6090 -0.4156 -0.0085
 7867TIP3    H123565   3.940   2.416   0.688 -1.5710 -0.6842  0.6501
 7867TIP3    H223566   3.934   2.443   0.539 -0.2960  0.3940  0.7755
 7868TIP3   OH223567   6.428   3.099   1.877  0.2297  0.0900  0.5134
 7868TIP3    H123568   6.428   3.032   1.945  1.5192  0.3632  0.8112
 7868TIP3    H223569   6.482   3.170   1.914  0.7727  0.3302 -0.7062
 7869TIP3   OH223570   3.078   3.726   3.704 -0.4240  0.5334  0.1094
 7869TIP3    H123571   3.125   3.728   3.788  1.0681  0.7285 -0.7050
 7869TIP3    H223572   3.115   3.650   3.658 -2.4047 -0.5825  0.2552
 7870TIP3   OH223573   5.642   5.632   1.362  0.5992 -0.3479  0.6667
 7870TIP3    H123574   5.615   5.657   1.451  0.0405 -2.6965  1.2266
 7870TIP3    H223575   5.560   5.616   1.315  0.8443  1.8244 -0.6686
 7871TIP3   OH223576   6.682   3.437   3.085 -0.3943 -0.8653  0.2476
 7871TIP3    H123577   6.680   3.367   3.150 -1.8048 -1.3728 -0.2866
 7871TIP3    H223578   6.746   3.500   3.118 -0.9035 -1.2219  1.9885
 7872TIP3   OH223579   6.228   6.425   0.238  0.1470  0.1323 -0.6483
 7872TIP3    H123580   6.153   6.469   0.277 -0.2152 -0.5083 -0.6008
 7872TIP3    H223581   6.194   6.385   0.158  0.0782 -1.3336  0.0793
 7873TIP3   OH223582   0.454   2.319   2.433  0.5244 -0.3589  0.5840
 7873TIP3    H123583   0.413   2.348   2.514 -0.7780  1.5240 -0.6611
 7873TIP3    H223584   0.386   2.328   2.366  2.5242  1.8914 -1.3810
 7874TIP3   OH223585   1.659   3.362   0.830  0.3101 -0.7075 -0.3408
 7874TIP3    H123586   1.628   3.277   0.797  0.3514  0.1660 -2.7603
 7874TIP3    H223587   1.580   3.415   0.836  0.5797 -0.2298 -1.0007
 7875TIP3   OH223588   4.914   6.337   4.527 -0.2611  0.0586  0.0791
 7875TIP3    H123589   4.938   6.255   4.569  2.8769 -1.1585 -3.4845
 7875TIP3    H223590   4.890   6.396   4.599  0.2383 -3.0487  3.0034
 7876TIP3   OH223591   2.815   1.687   2.246  0.1863  0.6951 -0.0696
 7876TIP3    H123592   2.902   1.652   2.225  0.7242  1.6521  0.4913
 7876TIP3    H223593   2.801   1.757   2.183  1.3497  2.8619  1.9098
 7877TIP3   OH223594   7.008   4.190   0.114 -0.0406  0.0029  0.2026
 7877TIP3    H123595   7.090   4.235   0.095  0.5671 -0.4202  1.7032
 7877TIP3    H223596   6.970   4.238   0.187 -0.6735 -0.3592  0.1217
 7878TIP3   OH223597   6.215   3.129   1.416 -0.2425  0.1183 -0.2569
 7878TIP3    H123598   6.242   3.146   1.506 -0.8459 -1.2741  0.2134
 7878TIP3    H223599   6.167   3.046   1.420 -0.6460  0.2380 -1.7925
 7879TIP3   OH223600   1.997   2.198   4.019  0.5361  0.0182  0.3715
 7879TIP3    H123601   1.982   2.136   4.091  1.1683  0.3668  0.8162
 7879TIP3    H223602   1.910   2.222   3.989  0.2694 -0.3393  0.8401
 7880TIP3   OH223603   1.091   5.525   1.127  0.6151 -0.1742 -0.3283
 7880TIP3    H123604   1.001   5.559   1.129  0.0467 -1.5940 -0.4934
 7880TIP3    H223605   1.118   5.524   1.219  1.2103  2.0597 -0.4286
 7881TIP3   OH223606   6.857   0.158   3.813 -0.0795  0.3660  0.4359
 7881TIP3    H123607   6.786   0.133   3.754 -0.1152  0.9327  0.2335
 7881TIP3    H223608   6.814   0.177   3.897 -0.0603 -0.1671  0.5676
 7882TIP3   OH223609   7.174   5.863   4.037 -0.3877  0.0980 -0.1403
 7882TIP3    H123610   7.257   5.881   4.082 -0.7571  0.9676  0.2098
 7882TIP3    H223611   7.178   5.770   4.016  0.6942  0.1375 -0.1582
 7883TIP3   OH223612   0.819   5.287   2.702  0.5648 -0.0633 -0.2698
 7883TIP3    H123613   0.758   5.213   2.691  0.2817  0.3768 -1.8057
 7883TIP3    H223614   0.763   5.360   2.728  0.7056 -0.1022  0.1627
 7884TIP3   OH223615   1.250   3.840   4.298  0.6089  0.0136 -0.0530
 7884TIP3    H123616   1.324   3.798   4.342  0.2945 -2.6845 -1.8816
 7884TIP3    H223617   1.289   3.894   4.230  0.9684 -1.9592 -1.4802
 7885TIP3   OH223618   3.531   5.888   4.558  0.5303 -0.1098  0.1924
 7885TIP3    H123619   3.525   5.828   4.633  0.3460  0.7270  0.8655
 7885TIP3    H223620   3.624   5.902   4.546  0.5952 -0.8579 -0.2454
 7886TIP3   OH223621   4.566   3.491   5.391  0.5683 -0.3313 -0.7443
 7886TIP3    H123622   4.554   3.569   5.337  0.8631  0.3682  0.1644
 7886TIP3    H223623   4.560   3.418   5.330  1.3778  0.4544 -1.8018
 7887TIP3   OH223624   2.945   1.965   4.677  0.1954 -0.5973  0.0255
 7887TIP3    H123625   2.943   1.869   4.677  1.2484 -0.6263  0.4075
 7887TIP3    H223626   2.965   1.988   4.586 -0.0558 -0.7319 -0.0665
 7888TIP3   OH223627   2.508   4.147   0.042  0.1390  0.3007  0.0339
 7888TIP3    H123628   2.517   4.233   0.084  1.8912  0.1656  0.0331
 7888TIP3    H223629   2.440   4.159  -0.024  0.2352  1.6481  0.1560
 7889TIP3   OH223630   5.371   3.197   0.028  0.6994 -0.3681 -0.1962
 7889TIP3    H123631   5.291   3.145   0.038  0.0505  0.6346 -0.0445
 7889TIP3    H223632   5.408   3.168  -0.056 -0.5109  0.0397 -0.8986
 7890TIP3   OH223633   2.538   3.889   3.827 -0.5214  0.1809  0.4444
 7890TIP3    H123634   2.578   3.864   3.910  1.9162  0.2181 -0.6443
 7890TIP3    H223635   2.590   3.964   3.797 -1.9986  0.8239 -0.6401
 7891TIP3   OH223636   2.278   3.051   1.983 -0.3905 -0.1486  0.2508
 7891TIP3    H123637   2.186   3.077   1.976 -0.3677  0.0592  0.7129
 7891TIP3    H223638   2.327   3.131   1.965 -0.3103 -0.0976  0.6789
 7892TIP3   OH223639   0.046   0.981   4.690  0.0665  0.1903  0.5158
 7892TIP3    H123640   0.062   0.912   4.755  2.1616 -1.6588 -1.7596
 7892TIP3    H223641  -0.041   0.961   4.656 -0.2608  0.0279  1.4124
 7893TIP3   OH223642   5.847   5.415   3.857  0.2994 -0.3160 -0.3416
 7893TIP3    H123643   5.864   5.369   3.940  2.0117 -0.7751 -0.9131
 7893TIP3    H223644   5.933   5.441   3.826 -0.2502 -0.6752 -2.2962
 7894TIP3   OH223645   2.844   4.712   1.353  0.0557  0.1637  0.1842
 7894TIP3    H123646   2.750   4.713   1.339  0.2046  0.3136 -0.8698
 7894TIP3    H223647   2.858   4.646   1.421 -0.6544 -1.1073 -0.8697
 7895TIP3   OH223648   1.885   3.266   2.896  0.3585  0.4066  0.2999
 7895TIP3    H123649   1.899   3.207   2.970  0.2994 -1.5014 -1.1219
 7895TIP3    H223650   1.795   3.249   2.869  0.5188  0.7459 -0.4831
 7896TIP3   OH223651   6.117   0.336   4.124 -0.2709 -0.5538 -0.0868
 7896TIP3    H123652   6.079   0.299   4.203  0.8836  0.9495  1.2271
 7896TIP3    H223653   6.073   0.420   4.113 -0.6251 -0.8722 -1.2287
 7897TIP3   OH223654   7.195   2.560   3.071  0.8635 -0.2372  0.3083
 7897TIP3    H123655   7.207   2.483   3.126 -1.7822  0.3820  1.9651
 7897TIP3    H223656   7.135   2.531   3.002  1.5457 -0.1724 -0.3219
 7898TIP3   OH223657   2.230   4.221   3.850  0.3208 -0.6038 -0.1062
 7898TIP3    H123658   2.260   4.212   3.941  0.2432  0.4908  0.0511
 7898TIP3    H223659   2.290   4.285   3.812 -0.2200 -0.3471 -0.5432
 7899TIP3   OH223660   1.963   6.019   5.195  0.1910  0.3023  0.6303
 7899TIP3    H123661   2.053   6.048   5.206  0.0736  1.4765 -1.1508
 7899TIP3    H223662   1.961   5.973   5.111 -0.8363  0.1534  0.7156
 7900TIP3   OH223663   2.982   5.456   1.720  0.4036 -0.0273 -0.1940
 7900TIP3    H123664   2.940   5.492   1.642 -0.7014 -1.9535 -0.5493
 7900TIP3    H223665   3.041   5.526   1.750  0.5877  0.9074 -2.5130
 7901TIP3   OH223666   6.732   0.442   2.194 -0.4477  0.0922 -0.6778
 7901TIP3    H123667   6.690   0.379   2.136 -0.5311  0.0736 -0.5972
 7901TIP3    H223668   6.672   0.450   2.268  0.7200 -1.6125  0.5232
 7902TIP3   OH223669   2.483   4.658   0.995 -0.8755  0.2492  0.1844
 7902TIP3    H123670   2.568   4.619   0.972  0.3827  1.5479  2.3162
 7902TIP3    H223671   2.422   4.584   0.995 -0.1251 -0.5092 -2.8113
 7903TIP3   OH223672   4.431   5.898   2.794 -0.4673  0.4205  0.6049
 7903TIP3    H123673   4.343   5.876   2.763 -0.4388  2.1527 -0.9087
 7903TIP3    H223674   4.417   5.929   2.884 -1.2484 -0.3108  0.7475
 7904TIP3   OH223675   2.605   6.053   1.530  0.3315 -0.1803 -0.0253
 7904TIP3    H123676   2.539   5.991   1.561  1.8882 -1.1128  1.6277
 7904TIP3    H223677   2.583   6.136   1.572 -0.1328 -0.3340  0.0344
 7905TIP3   OH223678   6.346   4.542   0.959  0.1888  0.4773 -0.5856
 7905TIP3    H123679   6.426   4.591   0.945  1.2094 -1.0192 -0.2788
 7905TIP3    H223680   6.327   4.502   0.873  1.1179 -1.0314 -0.1360
 7906TIP3   OH223681   0.683   2.194   0.768  0.2219  0.2978 -0.0181
 7906TIP3    H123682   0.737   2.206   0.846  0.7594  1.6063 -0.5579
 7906TIP3    H223683   0.676   2.282   0.731  0.7045 -0.4285 -1.9320
 7907TIP3   OH223684   2.605   3.729   5.567  0.2666  0.1243 -0.3300
 7907TIP3    H123685   2.572   3.658   5.623 -0.9280  0.2953 -0.7818
 7907TIP3    H223686   2.661   3.781   5.625 -0.5614  0.0214  0.5901
 7908TIP3   OH223687   4.966   6.313   4.210 -0.6425 -0.3047 -0.2118
 7908TIP3    H123688   5.004   6.239   4.257  0.0912  0.6261  0.7301
 7908TIP3    H223689   5.042   6.367   4.185 -1.2594  1.2587  1.1289
 7909TIP3   OH223690   1.590   3.688   3.157  0.3265  0.3348  0.0364
 7909TIP3    H123691   1.646   3.623   3.115  3.3364  2.4752  0.4230
 7909TIP3    H223692   1.603   3.675   3.251 -2.3865 -1.1198  0.3102
 7910TIP3   OH223693   1.399   0.556   3.020 -0.0414 -0.1587 -0.2250
 7910TIP3    H123694   1.313   0.552   3.063  0.4170 -0.6017  0.6748
 7910TIP3    H223695   1.400   0.642   2.977 -1.2092 -0.4395 -0.8607
 7911TIP3   OH223696   6.127   0.362   3.065  0.7423  0.6519  0.1282
 7911TIP3    H123697   6.039   0.398   3.074 -0.0826 -0.8181 -1.3459
 7911TIP3    H223698   6.155   0.389   2.977  1.1372 -0.1274  0.0005
 7912TIP3   OH223699   2.760   2.876   5.758 -0.5971 -0.0285  0.3160
 7912TIP3    H123700   2.712   2.793   5.753 -0.7252 -0.0008  0.9715
 7912TIP3    H223701   2.713   2.935   5.699 -1.1909 -0.0893  0.7202
 7913TIP3   OH223702   6.835   1.206   2.002  0.3956  0.0516  0.2515
 7913TIP3    H123703   6.750   1.234   1.967  1.6026  2.5885 -0.9374
 7913TIP3    H223704   6.888   1.189   1.924  0.5932 -3.2695  0.9437
 7914TIP3   OH223705   6.796   2.967   1.460 -0.4039  0.2258 -0.1227
 7914TIP3    H123706   6.744   3.010   1.529 -1.3158  1.4524 -1.5205
 7914TIP3    H223707   6.735   2.904   1.421 -0.0920 -0.0068 -0.2334
 7915TIP3   OH223708   6.953   6.772   2.074  0.5211 -0.0576  0.6476
 7915TIP3    H123709   7.024   6.760   2.137  1.1924 -0.6925 -0.2101
 7915TIP3    H223710   6.894   6.698   2.089 -0.6168  1.0932  2.1599
 7916TIP3   OH223711   4.940   5.248   3.639 -0.0779  0.8693 -0.4303
 7916TIP3    H123712   4.870   5.271   3.578 -0.3442  0.3451 -0.3308
 7916TIP3    H223713   5.000   5.323   3.638 -0.6600  1.3367 -0.4893
 7917TIP3   OH223714   5.214   6.021   1.473 -0.2842  0.4598  0.1002
 7917TIP3    H123715   5.302   5.990   1.496  0.4210  1.5949 -0.9335
 7917TIP3    H223716   5.163   6.008   1.553  0.6870 -0.6599  0.5802
 7918TIP3   OH223717   6.984   0.572   3.846  0.2299  0.5860  0.1101
 7918TIP3    H123718   7.006   0.483   3.818 -0.6729  0.7299 -1.1129
 7918TIP3    H223719   6.894   0.585   3.818  1.3738  3.1496 -3.0740
 7919TIP3   OH223720   4.573   3.656   3.935  0.0223  0.0541 -0.2769
 7919TIP3    H123721   4.633   3.650   3.860  0.1391 -0.6517 -0.1309
 7919TIP3    H223722   4.558   3.565   3.961  0.4512  0.3137  0.9292
 7920TIP3   OH223723   0.049   3.269   0.645  0.6604  0.0251  0.0909
 7920TIP3    H123724   0.061   3.361   0.620  0.1034 -0.0199 -0.3679
 7920TIP3    H223725   0.049   3.221   0.562 -0.0623 -0.2630  0.2473
 7921TIP3   OH223726   0.926   4.409   3.883  0.0446  0.5983 -0.9242
 7921TIP3    H123727   0.833   4.390   3.880 -0.1688  1.5712 -0.6965
 7921TIP3    H223728   0.946   4.445   3.796  0.1621  0.6181 -0.8902
 7922TIP3   OH223729   0.827   2.501   2.234  0.0091  0.3911  0.2252
 7922TIP3    H123730   0.859   2.413   2.216 -1.4550 -0.3983  1.2997
 7922TIP3    H223731   0.814   2.541   2.148  0.2880 -0.5841 -0.2746
 7923TIP3   OH223732   6.259   3.009   2.571  0.1279  0.1396  0.3297
 7923TIP3    H123733   6.279   3.012   2.477 -0.5569 -0.4463  0.1650
 7923TIP3    H223734   6.345   3.017   2.613  0.4173  0.7176 -0.3350
 7924TIP3   OH223735   2.571   1.937   0.266  0.1942 -0.1987 -0.3296
 7924TIP3    H123736   2.588   1.969   0.354  0.7073 -0.4081 -0.3483
 7924TIP3    H223737   2.647   1.883   0.245 -0.9330 -1.9477 -0.0604
 7925TIP3   OH223738   1.528   0.612   4.225 -0.2571  0.2925 -0.3691
 7925TIP3    H123739   1.501   0.687   4.278  0.2331  0.4648 -0.3666
 7925TIP3    H223740   1.445   0.578   4.189 -0.8067 -0.8177  1.7839
 7926TIP3   OH223741   3.768   5.480   5.440  0.0410 -0.4163 -0.0540
 7926TIP3    H123742   3.857   5.510   5.457  0.3551 -1.5551  0.3531
 7926TIP3    H223743   3.724   5.557   5.401  1.2804  0.0408 -0.5932
 7927TIP3   OH223744   2.143   1.045   2.607 -0.3896 -0.2580  0.0525
 7927TIP3    H123745   2.052   1.056   2.580  0.3426  1.1071 -2.0993
 7927TIP3    H223746   2.140   1.046   2.703 -2.5629  0.2667  0.0238
 7928TIP3   OH223747   2.867   3.941   1.938  0.0555 -0.0127  0.3824
 7928TIP3    H123748   2.950   3.978   1.908 -0.0595 -0.6541 -0.7791
 7928TIP3    H223749   2.880   3.846   1.934 -1.0293 -0.1375 -0.7377
 7929TIP3   OH223750   6.398   5.051   2.777 -0.2477 -0.5019  0.1007
 7929TIP3    H123751   6.454   4.997   2.833 -0.0768 -2.1718 -1.5846
 7929TIP3    H223752   6.318   4.999   2.767 -0.2499 -0.2816 -1.2330
 7930TIP3   OH223753   3.166   5.301   0.167 -0.1650 -0.8157 -0.1920
 7930TIP3    H123754   3.143   5.213   0.197  0.0101 -0.5918  0.6250
 7930TIP3    H223755   3.153   5.357   0.244  1.2860 -0.3923 -0.2186
 7931TIP3   OH223756   0.290   5.293   1.482  0.0812 -0.7156  0.0735
 7931TIP3    H123757   0.318   5.215   1.530  1.8169  0.7441  1.5899
 7931TIP3    H223758   0.270   5.357   1.550  0.1724  0.6371 -1.1215
 7932TIP3   OH223759   0.379   1.147   0.512  0.0147 -0.3711 -0.1239
 7932TIP3    H123760   0.421   1.195   0.441 -1.4563 -0.0818 -0.8500
 7932TIP3    H223761   0.288   1.136   0.482 -0.5281 -0.6198  1.5369
 7933TIP3   OH223762   4.171   3.788   1.254  0.4069 -0.8052 -0.5016
 7933TIP3    H123763   4.091   3.749   1.290  0.6311 -0.1932  0.7029
 7933TIP3    H223764   4.238   3.722   1.271  0.3915 -0.7929 -0.3934
 7934TIP3   OH223765   3.208   4.791   0.909 -0.4077  0.6006 -0.0933
 7934TIP3    H123766   3.161   4.747   0.838  0.0183  2.6378 -1.7503
 7934TIP3    H223767   3.297   4.756   0.905 -0.6656 -0.1172  0.2167
 7935TIP3   OH223768   6.390   3.323   5.480 -0.0035  0.1292 -0.2184
 7935TIP3    H123769   6.452   3.264   5.523 -0.3525  0.0071  0.1219
 7935TIP3    H223770   6.310   3.272   5.470 -0.1559  0.3902 -0.3580
 7936TIP3   OH223771   3.812   2.131   2.520  0.5874 -0.0422 -0.2016
 7936TIP3    H123772   3.760   2.175   2.452  0.4526  1.1930  0.6738
 7936TIP3    H223773   3.892   2.102   2.475 -0.7641 -1.9337 -1.5643
 7937TIP3   OH223774   1.202   5.742   3.887  0.3069 -0.0774  0.2511
 7937TIP3    H123775   1.250   5.680   3.941 -0.4281 -0.0954  0.8852
 7937TIP3    H223776   1.174   5.810   3.947 -2.5842 -1.2834  0.4043
 7938TIP3   OH223777   1.913   6.004   3.300  0.1532 -0.8095  0.4794
 7938TIP3    H123778   1.995   6.024   3.345 -0.2380  0.9951  0.4906
 7938TIP3    H223779   1.929   6.031   3.209 -0.9446  1.2648  0.8463
 7939TIP3   OH223780   4.236   1.060   3.519 -0.4495  0.6281 -0.0812
 7939TIP3    H123781   4.234   0.965   3.516 -1.9155  0.6563 -0.9705
 7939TIP3    H223782   4.234   1.081   3.612  1.3643 -0.1846  0.1864
 7940TIP3   OH223783   1.875   6.491   2.440 -0.4275 -0.0652  0.5238
 7940TIP3    H123784   1.948   6.538   2.480 -0.6172  1.8389 -1.2389
 7940TIP3    H223785   1.822   6.463   2.515  0.8021  0.6593  1.7252
 7941TIP3   OH223786   1.793   1.692   4.828  0.2785 -0.0924 -0.1244
 7941TIP3    H123787   1.828   1.744   4.900  1.2303  1.7481 -1.8387
 7941TIP3    H223788   1.700   1.683   4.848  0.4772  0.5619  1.2047
 7942TIP3   OH223789   2.895   5.208   5.619  0.1976 -0.6567 -0.1904
 7942TIP3    H123790   2.852   5.208   5.533 -1.0438  0.7397  0.3819
 7942TIP3    H223791   2.899   5.116   5.643 -2.0749 -0.9211 -0.5315
 7943TIP3   OH223792   0.312   2.929   2.258  0.1868  0.0284  0.7647
 7943TIP3    H123793   0.279   2.898   2.342 -1.0279 -0.1878  0.2326
 7943TIP3    H223794   0.406   2.942   2.272 -0.0503  0.2922  2.2315
 7944TIP3   OH223795   1.471   5.087   3.354  0.0831  0.0900  0.3535
 7944TIP3    H123796   1.387   5.050   3.326 -0.1633  0.3457  0.7405
 7944TIP3    H223797   1.474   5.174   3.313  0.1806  0.0644  0.3055
 7945TIP3   OH223798   1.282   1.276   5.107 -0.0537 -0.3425  0.1477
 7945TIP3    H123799   1.312   1.185   5.110 -1.1686 -0.7531 -0.6540
 7945TIP3    H223800   1.199   1.275   5.153  0.3837  0.4845  0.9913
 7946TIP3   OH223801   6.731   2.064   0.126  0.0841 -0.5095  0.3130
 7946TIP3    H123802   6.672   2.102   0.062 -0.9106 -2.6092 -0.0999
 7946TIP3    H223803   6.723   2.122   0.203  0.0179  1.0758 -0.8421
 7947TIP3   OH223804   1.933   1.974   4.190  0.0582  0.1527  0.0090
 7947TIP3    H123805   1.975   1.977   4.276  0.2965 -2.2043  0.0437
 7947TIP3    H223806   1.840   1.991   4.208  0.4407  2.0623  0.3704
 7948TIP3   OH223807   1.064   1.977   4.566 -0.6563  0.2067  0.7508
 7948TIP3    H123808   1.120   2.043   4.606 -1.2567  1.4052 -0.3026
 7948TIP3    H223809   1.049   2.009   4.477 -2.1656 -0.6108  0.6788
 7949TIP3   OH223810   6.205   4.128   2.304 -0.0919 -0.0186 -0.2168
 7949TIP3    H123811   6.238   4.064   2.241  0.9833 -0.9066  1.1880
 7949TIP3    H223812   6.193   4.208   2.253 -0.9215 -1.1572 -1.8954
 7950TIP3   OH223813   4.185   4.263   4.260  0.2579  0.0560 -0.2449
 7950TIP3    H123814   4.149   4.254   4.172 -0.9770  2.8874 -0.1339
 7950TIP3    H223815   4.225   4.349   4.261 -0.0874  0.2646  2.0743
 7951TIP3   OH223816   3.697   1.577   1.468 -0.0844 -0.1794  0.3417
 7951TIP3    H123817   3.780   1.607   1.505  0.5086 -1.1139 -0.2108
 7951TIP3    H223818   3.649   1.658   1.451 -0.0206  0.3308  2.2682
 7952TIP3   OH223819   2.895   1.714   1.444 -0.6881 -0.1815 -0.2070
 7952TIP3    H123820   2.819   1.667   1.412  0.3553 -0.9095 -1.7273
 7952TIP3    H223821   2.937   1.653   1.505 -0.9247 -0.0571  0.0832
 7953TIP3   OH223822   0.305   1.158   3.126 -0.1945 -0.1936  0.2842
 7953TIP3    H123823   0.262   1.155   3.211  1.3718 -1.7554  1.0915
 7953TIP3    H223824   0.276   1.077   3.082  0.4912 -0.3520  0.1182
 7954TIP3   OH223825   1.619   4.468   5.728 -0.6654  0.0118  0.1568
 7954TIP3    H123826   1.667   4.494   5.807 -2.3111  0.5287  1.0359
 7954TIP3    H223827   1.555   4.538   5.715 -0.2373  0.1021 -1.8501
 7955TIP3   OH223828   4.521   6.465   3.225  0.3815 -0.1478  0.7867
 7955TIP3    H123829   4.435   6.491   3.193  0.9864  1.2026  0.1263
 7955TIP3    H223830   4.505   6.390   3.282 -1.4721  1.3302  2.3327
 7956TIP3   OH223831   5.529   6.265   3.118 -0.4854  0.0053 -0.4252
 7956TIP3    H123832   5.612   6.272   3.165 -0.2854 -0.6406 -0.6700
 7956TIP3    H223833   5.553   6.267   3.025 -0.5658 -1.7958 -0.5211
 7957TIP3   OH223834   2.651   4.504   4.712 -0.4315  0.2303 -0.2227
 7957TIP3    H123835   2.626   4.595   4.724  0.7085  0.5659 -0.2610
 7957TIP3    H223836   2.572   4.461   4.679 -0.9974  1.1788 -0.1296
 7958TIP3   OH223837   1.947   2.828   1.981  0.1877 -0.1162 -0.1095
 7958TIP3    H123838   1.881   2.890   2.012 -1.1459 -0.8331 -1.4164
 7958TIP3    H223839   1.896   2.757   1.941  1.7579 -0.4543 -1.5941
 7959TIP3   OH223840   2.048   6.600   4.481  0.2039  0.2479 -0.0450
 7959TIP3    H123841   2.055   6.527   4.542  0.8428  1.6475  1.6208
 7959TIP3    H223842   2.017   6.560   4.399  1.8220 -2.0656  0.3960
 7960TIP3   OH223843   4.615   6.273   0.646  0.0873 -0.8699  0.0955
 7960TIP3    H123844   4.561   6.338   0.601  0.2899  0.0892  1.1888
 7960TIP3    H223845   4.558   6.239   0.715  0.6665 -0.2845  0.8773
 7961TIP3   OH223846   1.891   0.679   3.106 -0.2560  0.0209 -0.4103
 7961TIP3    H123847   1.896   0.734   3.027 -0.1766  1.1209  0.3413
 7961TIP3    H223848   1.870   0.592   3.073 -2.7377  0.9417 -1.4688
 7962TIP3   OH223849   5.812   5.327   2.350  0.0545 -0.2397 -0.3993
 7962TIP3    H123850   5.797   5.292   2.438 -0.6848  0.2212 -0.3333
 7962TIP3    H223851   5.726   5.356   2.321  0.6785  1.8261 -0.3254
 7963TIP3   OH223852   0.745   2.718   2.640  0.2465 -0.2567  0.1463
 7963TIP3    H123853   0.726   2.650   2.576  0.2824 -0.3441  0.2295
 7963TIP3    H223854   0.837   2.740   2.627 -0.5973  2.4201 -2.4611
 7964TIP3   OH223855   2.115   1.034   4.529 -0.4466  0.0381 -0.2274
 7964TIP3    H123856   2.058   1.028   4.453  0.5639  0.3070 -1.0280
 7964TIP3    H223857   2.098   1.121   4.565  0.9136  0.9702 -1.6951
 7965TIP3   OH223858   2.651   2.391   3.892 -0.1037 -0.0143 -0.0609
 7965TIP3    H123859   2.582   2.398   3.958  1.6296 -0.7481  1.9508
 7965TIP3    H223860   2.642   2.471   3.840 -0.1716  1.7609  2.4829
 7966TIP3   OH223861   5.077   3.701   1.349  0.7598 -0.2632  0.4396
 7966TIP3    H123862   5.051   3.790   1.329 -1.9928 -0.6806  1.6963
 7966TIP3    H223863   5.114   3.705   1.438 -2.2141 -0.6828  1.8239
 7967TIP3   OH223864   6.844   1.948   5.147  0.2579 -0.6091  0.1211
 7967TIP3    H123865   6.786   1.924   5.219  0.8439 -3.4928 -0.2416
 7967TIP3    H223866   6.887   1.866   5.122  1.0207  0.5165 -2.6991
 7968TIP3   OH223867   3.457   2.059   5.075  0.4451 -0.2404  0.1861
 7968TIP3    H123868   3.430   2.073   4.984 -0.5078  0.5087  0.5612
 7968TIP3    H223869   3.421   1.974   5.098 -0.9565  0.3739  0.4112
 7969TIP3   OH223870   4.332   1.039   3.962 -0.4188 -0.2432 -0.2602
 7969TIP3    H123871   4.272   1.092   3.910 -1.0836 -1.3858 -0.6867
 7969TIP3    H223872   4.286   1.022   4.044 -0.2267 -0.1901 -0.1404
 7970TIP3   OH223873   0.876   4.749   1.626 -0.9348  0.8025 -0.0022
 7970TIP3    H123874   0.902   4.791   1.545 -0.5725 -0.3396 -0.5046
 7970TIP3    H223875   0.959   4.730   1.671 -1.1300  1.3746  0.6059
 7971TIP3   OH223876   4.656   0.589   4.774 -0.4872 -0.1130 -0.1128
 7971TIP3    H123877   4.613   0.633   4.847  0.4646 -0.2174  0.5303
 7971TIP3    H223878   4.667   0.657   4.708  2.5194  1.1568  1.5176
 7972TIP3   OH223879   0.071   0.545   0.051 -0.0733 -0.1016  0.1634
 7972TIP3    H123880   0.130   0.518  -0.019 -0.1467  1.4381 -0.5299
 7972TIP3    H223881   0.043   0.633   0.026 -2.6356 -0.7583  0.5006
 7973TIP3   OH223882   7.007   6.292   3.101  0.4510 -0.0486 -0.3967
 7973TIP3    H123883   7.039   6.381   3.084 -0.0711  0.2224  0.0351
 7973TIP3    H223884   6.996   6.288   3.196  3.6656 -1.6574  0.0568
 7974TIP3   OH223885   2.412   6.296   1.351 -0.2084  0.1245  0.3835
 7974TIP3    H123886   2.448   6.276   1.438  0.7499 -0.6554 -0.1736
 7974TIP3    H223887   2.427   6.390   1.340  0.8722 -0.0257  0.5243
 7975TIP3   OH223888   3.812   6.134   5.357 -0.2304  0.3362 -1.4224
 7975TIP3    H123889   3.761   6.053   5.357  1.2592 -0.6459 -0.0980
 7975TIP3    H223890   3.760   6.194   5.410 -0.2772 -0.4937 -0.5027
 7976TIP3   OH223891   5.971   6.521   0.740  0.0689  0.1898  0.1352
 7976TIP3    H123892   6.056   6.559   0.760 -0.6058  2.1053 -0.4649
 7976TIP3    H223893   5.979   6.492   0.648  0.5916 -1.2648  0.6011
 7977TIP3   OH223894   5.454   1.805   1.363 -0.1500 -0.5941 -0.2003
 7977TIP3    H123895   5.503   1.850   1.294 -0.3063 -1.1847 -0.7135
 7977TIP3    H223896   5.451   1.867   1.436  0.7195 -0.2667 -0.4305
 7978TIP3   OH223897   4.493   5.308   0.917 -0.6817  0.3095 -0.5616
 7978TIP3    H123898   4.575   5.345   0.884  0.3689 -0.2581  1.2633
 7978TIP3    H223899   4.442   5.384   0.946 -0.5225  0.6219 -1.1025
 7979TIP3   OH223900   2.164   3.653   1.331 -0.5243  0.1518  0.3373
 7979TIP3    H123901   2.166   3.587   1.261 -1.5852 -2.1591  2.3379
 7979TIP3    H223902   2.098   3.716   1.302 -1.1732 -0.9278 -0.6372
 7980TIP3   OH223903   5.829   6.287   2.991  0.1560  0.3398 -0.4903
 7980TIP3    H123904   5.755   6.234   2.961 -2.2855 -0.6338  5.8484
 7980TIP3    H223905   5.795   6.377   2.993  1.1886  0.8540 -2.5130
 7981TIP3   OH223906   2.304   1.533   4.934 -0.1302 -0.1401 -0.0086
 7981TIP3    H123907   2.283   1.606   4.875  0.2151  0.0920  0.1569
 7981TIP3    H223908   2.303   1.456   4.877 -1.1359 -0.0996 -0.0657
 7982TIP3   OH223909   5.896   0.348   1.815  0.5942 -0.6993  0.0485
 7982TIP3    H123910   5.834   0.418   1.796  0.3874 -0.5162  1.3061
 7982TIP3    H223911   5.914   0.308   1.730 -0.5738 -0.1915 -0.4549
 7983TIP3   OH223912   2.920   1.555   3.346 -0.0067  0.6191  0.0229
 7983TIP3    H123913   2.990   1.531   3.406 -0.6487 -0.3406  0.4224
 7983TIP3    H223914   2.919   1.485   3.280  0.7377  1.6989 -1.1653
 7984TIP3   OH223915   1.771   3.590   0.707 -0.4537  0.1545  0.2574
 7984TIP3    H123916   1.715   3.518   0.735 -1.0319  0.3994 -0.2427
 7984TIP3    H223917   1.732   3.667   0.748 -0.4646  0.3221 -0.0674
 7985TIP3   OH223918   0.315   5.543   2.221 -0.3478 -0.0990 -0.4750
 7985TIP3    H123919   0.411   5.554   2.219 -0.2085 -1.1501 -0.0016
 7985TIP3    H223920   0.287   5.596   2.296 -0.0187 -0.5762 -0.0091
 7986TIP3   OH223921   5.526   6.204   3.894 -0.4593  0.0346 -0.1952
 7986TIP3    H123922   5.517   6.110   3.911  1.0071  0.1241  1.3430
 7986TIP3    H223923   5.505   6.213   3.801 -4.4134 -1.2069  0.4170
 7987TIP3   OH223924   6.489   5.136   4.015  0.0369 -0.0227  0.1036
 7987TIP3    H123925   6.472   5.053   4.060  0.1657 -0.3739 -0.4817
 7987TIP3    H223926   6.575   5.123   3.973 -0.8027 -0.3430 -1.6402
 7988TIP3   OH223927   6.833   2.276   3.553 -0.3025  0.3593 -0.2043
 7988TIP3    H123928   6.889   2.339   3.599  1.6354 -0.8457 -0.8006
 7988TIP3    H223929   6.749   2.282   3.598  0.1473  2.5125  0.4981
 7989TIP3   OH223930   5.304   1.824   4.406 -0.1081 -0.6653 -0.9939
 7989TIP3    H123931   5.217   1.784   4.407 -0.3461 -0.1818  0.4082
 7989TIP3    H223932   5.340   1.804   4.493  0.9610 -0.3917 -1.3570
 7990TIP3   OH223933   1.163   1.476   0.938  0.4485 -0.0428 -0.7327
 7990TIP3    H123934   1.187   1.447   0.850  1.2078 -0.7801 -0.3039
 7990TIP3    H223935   1.167   1.397   0.992 -1.0485  0.1960 -0.2253
 7991TIP3   OH223936   3.259   5.619   4.937 -0.5206 -0.4489 -0.1513
 7991TIP3    H123937   3.191   5.628   4.870  0.0774  2.1315 -0.5150
 7991TIP3    H223938   3.274   5.708   4.967  2.5076 -0.9677  0.1297
 7992TIP3   OH223939   3.504   3.014   5.285 -0.1906  0.8435  0.4927
 7992TIP3    H123940   3.499   3.050   5.196 -1.4279  2.3473  1.1191
 7992TIP3    H223941   3.592   3.038   5.315 -0.3002  1.6512  0.1953
 7993TIP3   OH223942   6.333   4.151   4.024 -0.4348 -0.1762 -0.4622
 7993TIP3    H123943   6.365   4.224   3.972  1.3117 -0.8742 -0.4436
 7993TIP3    H223944   6.349   4.176   4.114 -2.2645  0.4883 -0.2909
 7994TIP3   OH223945   0.666   6.000   4.188  0.1650 -0.6337 -0.0246
 7994TIP3    H123946   0.667   6.039   4.275  1.4258 -3.0653  1.1586
 7994TIP3    H223947   0.574   6.002   4.162 -0.2841 -0.1532  1.4934
 7995TIP3   OH223948   5.130   6.116   4.336  0.4787  0.3952 -0.7243
 7995TIP3    H123949   5.177   6.111   4.419 -0.3520 -1.0520 -0.3118
 7995TIP3    H223950   5.199   6.131   4.271  0.9956  3.1821  0.3151
 7996TIP3   OH223951   2.128   3.194   0.050  0.1395  0.4525 -0.1007
 7996TIP3    H123952   2.144   3.189   0.145 -0.9362 -0.0484  0.0707
 7996TIP3    H223953   2.033   3.203   0.043 -0.0293 -1.6485 -1.1819
 7997TIP3   OH223954   6.712   5.648   2.011  0.2267  0.7252  0.6638
 7997TIP3    H123955   6.624   5.633   2.046  0.9389 -0.1908  2.1090
 7997TIP3    H223956   6.734   5.567   1.966  0.5867  0.7232  0.8457
 7998TIP3   OH223957   1.392   0.947   3.273 -0.0699  0.3465  0.1457
 7998TIP3    H123958   1.412   0.959   3.181  0.7291 -0.5270  0.1985
 7998TIP3    H223959   1.296   0.955   3.278 -0.1612 -0.0652 -0.8238
 7999TIP3   OH223960   0.426   0.071   1.716  0.5496 -0.6235  0.0706
 7999TIP3    H123961   0.442   0.165   1.711 -0.2182 -0.5327 -1.3129
 7999TIP3    H223962   0.331   0.062   1.708  0.6124 -1.5107  0.1417
 8000TIP3   OH223963   3.232   0.737   1.873  0.2886  0.0182  0.3460
 8000TIP3    H123964   3.319   0.696   1.871  0.4544  0.3398  0.8201
 8000TIP3    H223965   3.250   0.831   1.874 -0.0207  0.0830  1.7232
 8001TIP3   OH223966   0.276   5.983   0.067 -1.0325  0.9284  0.7184
 8001TIP3    H123967   0.246   5.896   0.042  1.6773  0.1999 -0.2774
 8001TIP3    H223968   0.245   5.994   0.158 -2.2265 -0.6360  0.5444
 8002TIP3   OH223969   5.241   0.900   4.244 -0.0335  0.0799  0.5164
 8002TIP3    H123970   5.206   0.988   4.258  0.6377  0.4103  0.1320
 8002TIP3    H223971   5.187   0.863   4.174  0.2585  0.5166  0.0588
 8003TIP3   OH223972   4.580   1.346   4.764 -0.3396  0.2768 -0.0673
 8003TIP3    H123973   4.645   1.277   4.750 -0.2558  0.2258  0.5585
 8003TIP3    H223974   4.604   1.415   4.702 -1.2427 -0.8056 -1.7068
 8004TIP3   OH223975   6.351   0.437   0.229 -0.8729  0.1673 -0.0150
 8004TIP3    H123976   6.400   0.364   0.193  0.1062  0.6744  0.2661
 8004TIP3    H223977   6.270   0.439   0.178 -0.9293 -1.1224 -0.0095
 8005TIP3   OH223978   1.686   4.761   2.900 -0.1129  0.1476  0.1103
 8005TIP3    H123979   1.642   4.806   2.972 -0.4919 -0.4378  0.2594
 8005TIP3    H223980   1.743   4.697   2.943 -2.0723 -1.8688 -0.0438
 8006TIP3   OH223981   0.169   6.242   3.842 -0.2388  0.3952  0.3152
 8006TIP3    H123982   0.178   6.298   3.919 -1.5751  1.1570 -0.0504
 8006TIP3    H223983   0.259   6.225   3.814  0.2388  3.1647 -0.0986
 8007TIP3   OH223984   4.551  -0.004   5.518  0.3518  0.5249 -0.0470
 8007TIP3    H123985   4.556   0.085   5.555 -0.3950  0.3062  0.6107
 8007TIP3    H223986   4.642  -0.032   5.511  0.5737 -0.3999  4.1113
 8008TIP3   OH223987   5.459   6.426   2.263 -0.3682  0.5931 -0.0771
 8008TIP3    H123988   5.478   6.407   2.354 -0.2375  0.7059 -0.0807
 8008TIP3    H223989   5.450   6.340   2.222 -1.7449  0.5302  0.3107
 8009TIP3   OH223990   2.815   4.581   0.570 -0.4465 -0.2672 -0.0191
 8009TIP3    H123991   2.816   4.600   0.476  0.4731 -0.8755 -0.1553
 8009TIP3    H223992   2.778   4.493   0.575  1.3694 -1.0952 -0.0387
 8010TIP3   OH223993   4.354   6.082   2.392  0.2916 -0.7014  0.4700
 8010TIP3    H123994   4.343   5.987   2.381 -0.9129 -0.5128 -0.0895
 8010TIP3    H223995   4.265   6.116   2.399  0.5579  0.6747 -1.8256
 8011TIP3   OH223996   2.386   4.411   0.116 -0.6244 -0.5751  0.1275
 8011TIP3    H123997   2.294   4.433   0.125  0.3076  3.7329  1.4012
 8011TIP3    H223998   2.424   4.427   0.202  1.9415  2.2201 -1.3061
 8012TIP3   OH223999   5.286   0.451   1.339 -0.2057 -0.9653 -0.0260
 8012TIP3    H124000   5.193   0.451   1.360  0.1174  0.3520  1.6747
 8012TIP3    H224001   5.326   0.401   1.410  0.5021 -0.2703  0.0809
 8013TIP3   OH224002   6.035   2.380   2.275  0.1110  0.3829 -0.4156
 8013TIP3    H124003   6.080   2.412   2.197 -0.7460  1.0634 -0.6485
 8013TIP3    H224004   6.057   2.444   2.343  1.2506 -0.4667  0.0533
 8014TIP3   OH224005   3.508   0.806   0.849  0.2520 -0.2488  0.6059
 8014TIP3    H124006   3.420   0.812   0.885  0.4962 -1.5860  1.4883
 8014TIP3    H224007   3.500   0.750   0.771  0.2736 -0.1135  0.5055
 8015TIP3   OH224008   2.322   4.168   5.843 -0.0326  0.2451 -0.0420
 8015TIP3    H124009   2.295   4.149   5.753  0.5152  1.8470 -0.5816
 8015TIP3    H224010   2.257   4.232   5.874  1.1522  1.5835 -0.1953
 8016TIP3   OH224011   1.700   4.032   4.770 -0.4114 -0.3060 -0.2168
 8016TIP3    H124012   1.750   3.989   4.700 -2.1728 -1.3954 -0.8732
 8016TIP3    H224013   1.681   3.962   4.832  0.0223  0.3892  0.7235
 8017TIP3   OH224014   6.382   4.744   5.868 -0.1076 -0.3061 -0.3723
 8017TIP3    H124015   6.464   4.703   5.897  0.1475  0.5948  0.2196
 8017TIP3    H224016   6.404   4.838   5.861 -0.6059 -0.2842 -1.9266
 8018TIP3   OH224017   3.105   6.125   0.650  0.1391  0.0145  0.0952
 8018TIP3    H124018   3.043   6.057   0.623 -0.6377  0.4977  0.5953
 8018TIP3    H224019   3.150   6.088   0.726 -0.2718  0.0492  0.3578
 8019TIP3   OH224020   6.412   2.594   3.264  0.3342  0.0733 -0.2049
 8019TIP3    H124021   6.474   2.521   3.260  1.1774  0.6390  1.6595
 8019TIP3    H224022   6.358   2.575   3.341 -0.4294  0.6694 -0.5870
 8020TIP3   OH224023   3.535   5.961   3.126 -0.0379  0.1684  0.0655
 8020TIP3    H124024   3.502   5.913   3.202  0.1427  0.9757  0.6647
 8020TIP3    H224025   3.496   6.048   3.134  0.3007  0.3847 -0.5515
 8021TIP3   OH224026   6.148   2.866   1.488  0.5984 -0.3347  0.1468
 8021TIP3    H124027   6.066   2.902   1.453  1.1481  0.9364  0.1365
 8021TIP3    H224028   6.129   2.773   1.500 -0.3089 -0.3963 -1.4540
 8022TIP3   OH224029   2.273   5.733   1.449 -0.2204  0.4375 -0.6530
 8022TIP3    H124030   2.194   5.743   1.503  0.9935  0.9209  1.1241
 8022TIP3    H224031   2.254   5.783   1.369 -2.0300 -0.2121 -0.6741
 8023TIP3   OH224032   6.177   3.447   4.384  0.1395  0.2264 -0.3188
 8023TIP3    H124033   6.167   3.467   4.477  0.0763  1.0029 -0.4831
 8023TIP3    H224034   6.201   3.355   4.381 -0.5342  0.0208  0.4315
 8024TIP3   OH224035   1.050   2.076   3.276 -0.0298  0.3203 -1.1110
 8024TIP3    H124036   1.035   1.992   3.233 -2.3094  0.9432 -1.6538
 8024TIP3    H224037   1.008   2.141   3.220 -2.5532  1.2474  1.5616
 8025TIP3   OH224038   4.185   1.644   2.360 -0.1397 -0.0916  0.2721
 8025TIP3    H124039   4.199   1.722   2.306 -0.1207 -0.3411 -0.0795
 8025TIP3    H224040   4.273   1.617   2.387 -0.1998  0.5815  1.2121
 8026TIP3   OH224041   1.930   6.678   5.231 -0.0911 -0.0720  0.0515
 8026TIP3    H124042   1.909   6.671   5.137 -0.0490  0.6152 -0.0153
 8026TIP3    H224043   2.010   6.731   5.233 -0.3304  0.2678  0.5042
 8027TIP3   OH224044   5.666   0.980   1.868  0.0644  0.5068 -0.2515
 8027TIP3    H124045   5.735   0.921   1.838  0.5379  0.2167  1.3436
 8027TIP3    H224046   5.685   1.063   1.824  1.9736  0.6910  0.8061
 8028TIP3   OH224047   0.645   4.443   0.441 -0.3014  0.0546 -0.2947
 8028TIP3    H124048   0.695   4.403   0.369  0.5546  2.4139 -1.1189
 8028TIP3    H224049   0.691   4.526   0.458 -1.5303  0.3525  1.8054
 8029TIP3   OH224050   5.340   4.752   5.698  0.3143  0.3500 -0.4013
 8029TIP3    H124051   5.292   4.790   5.771 -0.0096 -1.3938  0.3520
 8029TIP3    H224052   5.410   4.814   5.680 -0.0404  1.1675  0.9179
 8030TIP3   OH224053   3.148   1.012   5.725  0.1795 -0.3675  0.6394
 8030TIP3    H124054   3.141   0.919   5.747 -1.5949 -0.3331  0.3059
 8030TIP3    H224055   3.124   1.058   5.806  0.6825 -0.1804  0.6915
 8031TIP3   OH224056   4.356   6.274   4.884 -0.2059  0.4146  0.3014
 8031TIP3    H124057   4.283   6.312   4.835 -0.0420 -1.2597 -1.3381
 8031TIP3    H224058   4.409   6.231   4.818 -1.3057 -4.1894  2.0549
 8032TIP3   OH224059   7.174   0.035   0.376  0.0255  0.3047 -0.3626
 8032TIP3    H124060   7.133   0.119   0.353  2.0971  2.1350  2.0802
 8032TIP3    H224061   7.230   0.015   0.301 -0.1294  1.3721 -0.7918
 8033TIP3   OH224062   3.062   4.911   4.380 -0.3389  0.1051  0.5373
 8033TIP3    H124063   3.019   4.901   4.294  1.7487 -0.0283 -0.5511
 8033TIP3    H224064   3.029   4.995   4.413  0.3281  1.2060 -1.3743
 8034TIP3   OH224065   2.638   4.802   1.650  0.1663 -0.4107  0.7448
 8034TIP3    H124066   2.714   4.859   1.636 -0.1273 -0.1340  0.2271
 8034TIP3    H224067   2.615   4.815   1.742  0.3220  0.0417  0.7254
 8035TIP3   OH224068   1.294   2.297   2.671  0.4348 -0.3783 -0.1685
 8035TIP3    H124069   1.206   2.260   2.659  0.0467  0.4772 -0.0928
 8035TIP3    H224070   1.342   2.231   2.720  0.2207 -1.3990 -1.2795
 8036TIP3   OH224071   6.429   3.606   1.636 -0.6310  0.6162 -0.3191
 8036TIP3    H124072   6.386   3.690   1.620  1.6078  1.8415 -0.2880
 8036TIP3    H224073   6.504   3.628   1.691  3.0876 -0.4590 -4.4464
 8037TIP3   OH224074   4.228   4.251   1.231 -0.1851 -0.0264  0.5500
 8037TIP3    H124075   4.321   4.263   1.247 -0.1634 -0.7715  1.0185
 8037TIP3    H224076   4.221   4.163   1.193 -0.6928  0.0440  0.4665
 8038TIP3   OH224077   0.199   0.930   4.177  0.0720  0.3318  0.3770
 8038TIP3    H124078   0.220   0.892   4.262  2.1316 -1.2713 -0.7540
 8038TIP3    H224079   0.202   0.856   4.116  1.2635  1.8229 -1.4847
 8039TIP3   OH224080   6.323   2.858   3.236  0.5810 -0.6146  0.1848
 8039TIP3    H124081   6.369   2.779   3.263 -0.2857 -0.6045  1.8449
 8039TIP3    H224082   6.321   2.854   3.141  0.4308 -2.6691  0.2383
 8040TIP3   OH224083   4.598   4.963   0.778  0.1399  0.0885 -0.3782
 8040TIP3    H124084   4.545   4.962   0.858 -2.4507  1.6331 -1.9347
 8040TIP3    H224085   4.669   4.901   0.795 -0.6712 -0.1110  2.8464
 8041TIP3   OH224086   5.482   5.961   1.522 -0.4631  0.2611  0.3467
 8041TIP3    H124087   5.536   5.884   1.503  1.8235  1.4769  1.5177
 8041TIP3    H224088   5.535   6.036   1.494 -2.1814  1.4800  0.1965
 8042TIP3   OH224089   5.238   5.832   4.070  0.2285  0.0189  0.1524
 8042TIP3    H124090   5.269   5.870   4.152 -0.7891  1.3724 -0.0519
 8042TIP3    H224091   5.143   5.824   4.081  0.2866 -1.5230 -0.2245
 8043TIP3   OH224092   3.743   1.621   3.848 -0.2397  0.2852 -0.5804
 8043TIP3    H124093   3.722   1.529   3.866  0.2416  0.4665  1.1052
 8043TIP3    H224094   3.662   1.668   3.868 -0.1129  0.3470 -0.2023
 8044TIP3   OH224095   1.338   2.806   3.877 -0.1568 -0.4086 -0.1972
 8044TIP3    H124096   1.383   2.793   3.961 -1.0060 -0.0968  0.3237
 8044TIP3    H224097   1.310   2.719   3.851 -1.2875 -0.3364  0.6691
 8045TIP3   OH224098   2.573   2.320   2.235 -0.7523 -0.0956  0.2163
 8045TIP3    H124099   2.551   2.227   2.244  0.9096 -0.5083  0.4073
 8045TIP3    H224100   2.638   2.335   2.304  0.2304  0.7836 -0.8719
 8046TIP3   OH224101   5.069   3.999   4.593 -0.3193 -0.2149  0.6748
 8046TIP3    H124102   4.996   3.942   4.618 -0.0243 -0.9232 -0.0179
 8046TIP3    H224103   5.056   4.079   4.644 -0.8539 -0.8260  1.5256
 8047TIP3   OH224104   6.990   0.786   3.217 -0.2540 -0.1702 -0.5679
 8047TIP3    H124105   6.921   0.720   3.214 -0.6512  0.2062  0.1692
 8047TIP3    H224106   7.060   0.750   3.161 -2.2152  0.8145 -3.9853
 8048TIP3   OH224107   0.404   0.072   4.731 -0.7830 -0.0134  0.4536
 8048TIP3    H124108   0.466   0.058   4.659 -2.0810  1.9461 -1.1530
 8048TIP3    H224109   0.328   0.020   4.707 -1.2657  0.7414  0.3231
 8049TIP3   OH224110   3.806   1.534   4.258 -0.1011 -0.5069  0.6359
 8049TIP3    H124111   3.844   1.562   4.342  1.8532  2.8094 -1.1597
 8049TIP3    H224112   3.876   1.487   4.215 -0.3855 -0.3940  0.0485
 8050TIP3   OH224113   0.857   3.485   0.384 -0.0193 -0.0257  0.1785
 8050TIP3    H124114   0.903   3.520   0.461  0.4019 -1.3617  0.5518
 8050TIP3    H224115   0.821   3.402   0.414  0.3409 -0.6780 -1.1451
 8051TIP3   OH224116   4.869   4.078   3.955  0.1862  0.3050  0.3709
 8051TIP3    H124117   4.789   4.029   3.938  0.7475 -0.9993  1.3148
 8051TIP3    H224118   4.927   4.056   3.882  0.2840 -0.0931  0.5691
 8052TIP3   OH224119   6.394   5.977   0.922 -0.1093 -0.1910 -0.3520
 8052TIP3    H124120   6.390   5.946   1.012  1.1049 -0.3052 -0.3125
 8052TIP3    H224121   6.317   6.033   0.912  0.4499  0.9071  1.1742
 8053TIP3   OH224122   5.570   3.976   3.277 -0.2279 -0.9515 -0.2994
 8053TIP3    H124123   5.641   4.008   3.221  0.2512 -0.1890  0.7086
 8053TIP3    H224124   5.526   3.910   3.224 -1.0851  1.1369 -2.3887
 8054TIP3   OH224125   2.652   3.443   2.056  0.4213 -0.0071 -0.4128
 8054TIP3    H124126   2.698   3.449   1.972 -1.0511  0.0150 -1.2481
 8054TIP3    H224127   2.615   3.530   2.069  1.1322  0.1670  0.5836
 8055TIP3   OH224128   3.570   6.553   4.731 -0.0681 -0.4545 -0.1359
 8055TIP3    H124129   3.521   6.494   4.789  0.4073 -0.5831  0.1471
 8055TIP3    H224130   3.505   6.614   4.698 -0.6899 -1.5121 -0.9155
 8056TIP3   OH224131   5.014   4.450   4.215 -0.3948 -0.7689  0.1819
 8056TIP3    H124132   5.069   4.528   4.202 -0.8942  0.0762  2.5664
 8056TIP3    H224133   5.011   4.408   4.129  2.6510 -0.0040 -0.4305
 8057TIP3   OH224134   2.194   4.561   4.716 -0.5785  0.0932 -0.7464
 8057TIP3    H124135   2.262   4.495   4.701 -0.7081 -0.1244 -0.3893
 8057TIP3    H224136   2.116   4.510   4.740 -0.2151  0.4141  1.3614
 8058TIP3   OH224137   4.954   0.638   1.319  0.1864 -0.0460 -0.0622
 8058TIP3    H124138   4.909   0.565   1.362 -1.2812  0.3831 -0.8087
 8058TIP3    H224139   4.904   0.715   1.346 -0.0034  0.3649 -1.4847
 8059TIP3   OH224140   3.876   2.531   1.144  0.7502  0.4555  0.7090
 8059TIP3    H124141   3.795   2.568   1.178  1.7345  2.2436  1.2438
 8059TIP3    H224142   3.848   2.461   1.085 -1.1517  0.9563  0.9562
 8060TIP3   OH224143   4.945   0.893   2.325 -0.1543  0.4542 -0.2432
 8060TIP3    H124144   4.968   0.813   2.373 -0.4762  0.2599 -0.4141
 8060TIP3    H224145   4.860   0.918   2.361 -0.1644  0.5880 -0.3626
 8061TIP3   OH224146   4.436   4.370   4.543 -0.6008 -0.3419 -0.6956
 8061TIP3    H124147   4.513   4.330   4.583 -1.6332 -0.5845  1.1618
 8061TIP3    H224148   4.470   4.417   4.467  1.4401 -0.1273  0.2899
 8062TIP3   OH224149   5.383   3.941   1.370  0.3905  0.5213 -0.3831
 8062TIP3    H124150   5.458   3.931   1.430  1.7628  1.8209 -1.7946
 8062TIP3    H224151   5.391   3.866   1.311 -0.2365 -0.0759  0.2693
 8063TIP3   OH224152   1.307   0.815   2.610  0.0829 -0.3033 -0.0602
 8063TIP3    H124153   1.360   0.885   2.573  0.1769  0.2548  1.0640
 8063TIP3    H224154   1.222   0.855   2.628  0.6683  0.0973  2.2383
 8064TIP3   OH224155   5.290   2.905   5.562  0.1567 -0.1807 -0.6524
 8064TIP3    H124156   5.271   2.962   5.488 -1.0790 -1.0665 -1.0360
 8064TIP3    H224157   5.215   2.914   5.620  0.4092 -0.6716 -0.2392
 8065TIP3   OH224158   0.679   3.556   3.287 -0.0205  1.0586 -0.3782
 8065TIP3    H124159   0.637   3.535   3.203  1.3519  0.6845 -1.0088
 8065TIP3    H224160   0.741   3.625   3.265  2.5847 -1.1091 -0.3860
 8066TIP3   OH224161   2.678   2.156   0.470 -0.0552 -0.5456 -0.3184
 8066TIP3    H124162   2.584   2.153   0.452 -0.2990  2.2553  0.0396
 8066TIP3    H224163   2.691   2.090   0.538 -1.2727 -2.6799 -2.0175
 8067TIP3   OH224164   1.514   2.415   0.322  0.0671 -0.5914  0.9800
 8067TIP3    H124165   1.589   2.427   0.263 -1.1978  1.4282 -0.3352
 8067TIP3    H224166   1.538   2.464   0.401 -0.8323  2.3724 -0.4444
 8068TIP3   OH224167   4.986   4.101   2.844 -0.1184 -0.0147 -0.0613
 8068TIP3    H124168   5.047   4.117   2.771  0.2893  0.5124  0.3889
 8068TIP3    H224169   5.040   4.110   2.923 -0.9987  1.6418  0.4000
 8069TIP3   OH224170   1.867   4.715   0.560 -0.0260 -0.5550 -0.3003
 8069TIP3    H124171   1.877   4.635   0.510 -2.6162 -1.3062  0.1945
 8069TIP3    H224172   1.932   4.708   0.630  0.2998 -1.8491 -0.7074
 8070TIP3   OH224173   5.320   4.770   0.523 -0.5031 -0.5502 -0.0993
 8070TIP3    H124174   5.307   4.849   0.576  1.9549 -0.0466 -0.1122
 8070TIP3    H224175   5.261   4.705   0.561 -1.4966  0.8623  0.8682
 8071TIP3   OH224176   6.641   0.174   3.634 -0.0352  0.1783  0.1416
 8071TIP3    H124177   6.604   0.091   3.666  0.6520 -0.1076  0.2053
 8071TIP3    H224178   6.606   0.183   3.545  0.2396 -0.4073 -0.0301
 8072TIP3   OH224179   1.248   4.719   0.683 -0.0477  0.1724 -0.0757
 8072TIP3    H124180   1.304   4.699   0.758  0.3576  2.4149  0.3001
 8072TIP3    H224181   1.277   4.659   0.615 -0.1360 -1.6348  1.4041
 8073TIP3   OH224182   1.423   6.705   2.158 -0.6886 -0.2608  0.8008
 8073TIP3    H124183   1.376   6.783   2.129 -1.6274 -1.0378  0.1816
 8073TIP3    H224184   1.363   6.660   2.216 -0.8043 -1.3431 -0.1172
 8074TIP3   OH224185   6.610   6.149   2.377 -0.7885 -0.3613  0.3731
 8074TIP3    H124186   6.703   6.123   2.373 -0.8643 -0.8990  1.7681
 8074TIP3    H224187   6.563   6.074   2.340 -0.6629  0.0639 -0.6876
 8075TIP3   OH224188   3.147   1.960   2.973 -0.1858  0.2536  0.2721
 8075TIP3    H124189   3.232   2.003   2.963 -0.1437  0.2398  0.5570
 8075TIP3    H224190   3.126   1.926   2.886 -0.1230  0.6741  0.0907
 8076TIP3   OH224191   1.001   5.772   0.756  0.0258 -0.4340  0.2413
 8076TIP3    H124192   0.966   5.683   0.758 -0.1321 -0.3604  1.1177
 8076TIP3    H224193   1.054   5.774   0.676 -1.8934 -0.5538 -1.1174
 8077TIP3   OH224194   0.063   3.584   2.074 -0.2860 -0.9086  0.9379
 8077TIP3    H124195   0.115   3.604   2.152  0.6363 -1.3884  0.4577
 8077TIP3    H224196   0.011   3.663   2.059  2.1446  0.5882 -0.0362
 8078TIP3   OH224197   0.627   1.001   3.312 -0.5319  0.1277  0.4693
 8078TIP3    H124198   0.570   0.978   3.385 -3.8282  1.2916 -1.4811
 8078TIP3    H224199   0.646   1.094   3.325 -0.0483  0.0297  0.4875
 8079TIP3   OH224200   1.701   6.576   5.634 -0.0246  0.3316  0.0448
 8079TIP3    H124201   1.711   6.602   5.726  1.1732 -1.7750  0.5801
 8079TIP3    H224202   1.777   6.613   5.590 -0.6465  1.4207 -0.1601
 8080TIP3   OH224203   3.015   2.554   1.619 -0.4009 -0.4383 -0.4503
 8080TIP3    H124204   3.065   2.486   1.662 -1.9828 -0.0076  2.2583
 8080TIP3    H224205   3.081   2.607   1.574  1.3314 -1.1871  1.0832
 8081TIP3   OH224206   6.132   5.386   0.529  0.4152 -0.0124 -0.2346
 8081TIP3    H124207   6.105   5.319   0.592 -0.8277  0.4026 -0.3060
 8081TIP3    H224208   6.225   5.367   0.513  0.3702 -1.0324  0.5837
 8082TIP3   OH224209   6.490   2.294   3.222  0.7609 -0.2928 -0.3961
 8082TIP3    H124210   6.493   2.237   3.145  1.3606 -0.6610 -0.1076
 8082TIP3    H224211   6.533   2.243   3.291 -1.0333 -0.5763  0.5728
 8083TIP3   OH224212   0.939   5.364   4.846  0.4305  0.4150 -0.1504
 8083TIP3    H124213   0.984   5.312   4.913 -0.3557  0.5739  0.5173
 8083TIP3    H224214   0.904   5.299   4.785  0.0507  0.1857  0.3022
 8084TIP3   OH224215   0.921   0.936   3.743  0.0645 -0.0811  0.2612
 8084TIP3    H124216   0.929   1.020   3.697  1.1116 -0.3070  0.0221
 8084TIP3    H224217   0.872   0.958   3.823  1.7594  1.1145  1.0318
 8085TIP3   OH224218   5.422   5.108   2.419 -0.5129  0.0314 -0.1858
 8085TIP3    H124219   5.442   5.174   2.484 -0.2655  0.1396 -0.3678
 8085TIP3    H224220   5.330   5.120   2.398 -0.9115 -0.7828  1.0194
 8086TIP3   OH224221   5.183   4.484   2.645  0.4253 -0.0736  0.2169
 8086TIP3    H124222   5.234   4.483   2.725 -0.1192 -2.2899  0.5962
 8086TIP3    H224223   5.191   4.396   2.610  1.1618  0.9804 -2.5486
 8087TIP3   OH224224   6.662   4.311   5.594 -0.3069 -0.1466 -0.2462
 8087TIP3    H124225   6.589   4.339   5.649  0.6851  0.2946  0.9251
 8087TIP3    H224226   6.663   4.372   5.521 -0.5483  0.4235  0.2222
 8088TIP3   OH224227   4.227   1.795   3.257 -0.1794 -0.1653 -0.2281
 8088TIP3    H124228   4.184   1.843   3.328  0.7625  0.2264  0.1033
 8088TIP3    H224229   4.260   1.715   3.299  1.6001  0.7044  0.1558
 8089TIP3   OH224230   3.901   1.593   0.302 -0.1034  0.5218  0.0981
 8089TIP3    H124231   3.924   1.513   0.351  0.6010  1.3003  1.0842
 8089TIP3    H224232   3.906   1.663   0.367 -1.5899  1.2686 -0.5394
 8090TIP3   OH224233   4.670   3.853   0.030 -0.2334  0.1236  0.0080
 8090TIP3    H124234   4.752   3.903   0.036 -0.8660  1.1213  0.7218
 8090TIP3    H224235   4.696   3.770  -0.010  1.4074 -0.1821  1.5453
 8091TIP3   OH224236   3.657   0.158   4.974 -0.0963  0.4185  0.6375
 8091TIP3    H124237   3.672   0.106   5.053  1.3452 -1.1377 -0.5682
 8091TIP3    H224238   3.743   0.197   4.955 -0.2069  0.1136 -0.5689
 8092TIP3   OH224239   6.999   0.985   2.153  0.1297  0.1474  0.4756
 8092TIP3    H124240   6.957   1.067   2.127  0.2290 -0.0994 -0.5336
 8092TIP3    H224241   7.034   1.002   2.240 -2.5723  0.1694  1.6493
 8093TIP3   OH224242   0.515   5.220   1.259  0.3495  0.1579  0.7880
 8093TIP3    H124243   0.423   5.213   1.284  0.3738 -2.7117  0.4123
 8093TIP3    H224244   0.563   5.219   1.342  0.0868  1.4301  0.9731
 8094TIP3   OH224245   1.157   1.759   0.669 -0.2368 -0.7222 -0.2678
 8094TIP3    H124246   1.086   1.806   0.626 -0.8212  0.3006  1.7115
 8094TIP3    H224247   1.124   1.670   0.683 -0.9338 -0.3966  0.1675
 8095TIP3   OH224248   6.059   5.703   4.852 -0.2740  0.2467 -0.2031
 8095TIP3    H124249   6.105   5.787   4.850 -0.8405  0.5526 -1.1721
 8095TIP3    H224250   5.993   5.713   4.921  0.9848 -0.1498  1.1033
 8096TIP3   OH224251   4.167   6.217   3.665 -0.0340  0.4912 -0.3068
 8096TIP3    H124252   4.147   6.124   3.652 -0.7443  0.6904 -0.6724
 8096TIP3    H224253   4.252   6.217   3.708 -0.9860 -0.4039  1.7001
 8097TIP3   OH224254   0.312   4.524   2.957 -0.3423  0.3280 -0.2224
 8097TIP3    H124255   0.264   4.503   3.038  0.5815 -0.3309  0.1641
 8097TIP3    H224256   0.250   4.578   2.907 -2.1230 -1.8031 -0.4694
 8098TIP3   OH224257   1.472   3.529   5.623 -0.2253 -0.0733  0.2855
 8098TIP3    H124258   1.473   3.434   5.637  1.2722 -0.0250  0.6797
 8098TIP3    H224259   1.528   3.543   5.547  1.6611  0.6576  1.7190
 8099TIP3   OH224260   4.524   3.798   5.582  0.4226  0.9633 -0.0031
 8099TIP3    H124261   4.584   3.817   5.509 -0.2729 -2.5658 -1.7147
 8099TIP3    H224262   4.582   3.770   5.653  0.9518  0.8652 -0.4643
 8100TIP3   OH224263   4.456   0.422   0.731 -0.0224 -0.1534  0.0507
 8100TIP3    H124264   4.369   0.389   0.751  0.4134 -1.1018  0.4628
 8100TIP3    H224265   4.478   0.478   0.806  0.0984 -0.6969  0.4338
 8101TIP3   OH224266   5.560   4.134   2.111 -0.4154 -0.1802  0.2343
 8101TIP3    H124267   5.626   4.158   2.176  0.4279 -1.6041 -0.0554
 8101TIP3    H224268   5.497   4.206   2.113  1.2858  1.3731  0.3197
 8102TIP3   OH224269   4.365   1.844   1.555 -0.0880 -0.8360 -0.3167
 8102TIP3    H124270   4.297   1.894   1.600  1.4402  2.8914 -1.7450
 8102TIP3    H224271   4.318   1.797   1.486 -1.5033 -0.4605  0.3437
 8103TIP3   OH224272   1.255   6.526   0.366 -0.0606  0.3841 -0.0959
 8103TIP3    H124273   1.295   6.502   0.283  1.1868 -0.2236  0.6634
 8103TIP3    H224274   1.315   6.589   0.405 -1.3512  1.8010 -0.2722
 8104TIP3   OH224275   6.547   2.161   1.273  0.1072  0.1732  0.8885
 8104TIP3    H124276   6.471   2.102   1.281  0.1175  0.1969  1.1566
 8104TIP3    H224277   6.606   2.115   1.214 -0.7648  0.8279 -0.5531
 8105TIP3   OH224278   0.830   0.535   1.470  0.3730 -0.8902  0.4017
 8105TIP3    H124279   0.920   0.560   1.489 -0.3431  0.9367  1.7152
 8105TIP3    H224280   0.810   0.469   1.536  0.3759 -0.3515  0.9557
 8106TIP3   OH224281   5.699   0.901   3.835  0.3640  0.5439 -0.5973
 8106TIP3    H124282   5.636   0.948   3.890  0.3627 -0.8389  0.6323
 8106TIP3    H224283   5.646   0.838   3.786  0.7867 -0.9365  0.7752
 8107TIP3   OH224284   4.392   3.447   1.897  0.7985  0.2029  0.5991
 8107TIP3    H124285   4.334   3.398   1.957  0.6728  0.4237  0.6577
 8107TIP3    H224286   4.425   3.380   1.837  0.2383  0.1235  0.3708
 8108TIP3   OH224287   1.589   6.324   0.617  0.1281 -0.3888  0.0791
 8108TIP3    H124288   1.610   6.376   0.539 -1.3201  0.0309 -0.0716
 8108TIP3    H224289   1.656   6.256   0.619  1.6304  1.0051 -0.1604
 8109TIP3   OH224290   2.906   4.814   2.483  0.4092  0.1951  0.1941
 8109TIP3    H124291   2.945   4.777   2.403 -0.4208 -0.1014 -0.0792
 8109TIP3    H224292   2.834   4.868   2.452 -0.3339 -0.4412  0.7679
 8110TIP3   OH224293   0.770   1.293   3.470 -0.4008 -0.2426  0.1094
 8110TIP3    H124294   0.706   1.306   3.400 -0.9878  0.4217  0.7646
 8110TIP3    H224295   0.736   1.219   3.520 -0.7758  0.2357  0.5752
 8111TIP3   OH224296   4.074   0.874   4.076  0.6691  0.5627 -0.2740
 8111TIP3    H124297   4.027   0.862   3.993  0.2622 -0.2170  0.0558
 8111TIP3    H224298   4.006   0.885   4.141  1.0116  2.9520 -0.2581
 8112TIP3   OH224299   1.470   6.730   5.864 -0.3716  0.3100 -0.2534
 8112TIP3    H124300   1.516   6.796   5.916 -1.4654  0.9836 -0.1241
 8112TIP3    H224301   1.407   6.779   5.813 -1.7992 -0.7107  0.4614
 8113TIP3   OH224302   2.002   6.400   5.560 -0.0880  0.4739 -0.2002
 8113TIP3    H124303   1.928   6.368   5.507 -0.4706  0.2127  0.4854
 8113TIP3    H224304   1.981   6.493   5.576  1.0368  1.1382 -2.2129
 8114TIP3   OH224305   5.713   6.258   5.258  0.4355  0.1554 -0.4270
 8114TIP3    H124306   5.708   6.308   5.339 -0.1868 -2.7323  1.4565
 8114TIP3    H224307   5.791   6.203   5.268 -0.6230 -1.5277 -0.9144
 8115TIP3   OH224308   1.247   1.887   3.050 -0.0658  0.3147 -0.0336
 8115TIP3    H124309   1.299   1.954   3.095  0.4026 -1.1292  1.6990
 8115TIP3    H224310   1.311   1.821   3.024 -0.8498 -0.9207  1.0544
 8116TIP3   OH224311   1.949   5.207   1.916  0.6273  0.2169 -0.1320
 8116TIP3    H124312   2.030   5.165   1.946  0.2492  0.1003  0.7555
 8116TIP3    H224313   1.911   5.246   1.995  0.8658  2.0864 -0.8958
 8117TIP3   OH224314   5.929   5.432   4.394 -0.2080  0.5410 -0.3021
 8117TIP3    H124315   5.891   5.509   4.352 -0.7999  0.4224  0.0029
 8117TIP3    H224316   5.904   5.440   4.486  1.0439  0.7764  0.0278
 8118TIP3   OH224317   0.169   4.361   1.482  0.2271 -0.1838  0.2679
 8118TIP3    H124318   0.215   4.281   1.504 -0.5023 -0.6060  0.2960
 8118TIP3    H224319   0.235   4.416   1.440  0.6308 -0.9705 -0.1536
 8119TIP3   OH224320   5.114   2.474   2.269  0.0756  0.2564 -0.3939
 8119TIP3    H124321   5.112   2.453   2.176  1.1276 -0.8915 -0.1831
 8119TIP3    H224322   5.060   2.407   2.311  1.6266 -0.7446  0.0606
 8120TIP3   OH224323   2.296   1.502   1.374  0.1584 -0.1571  1.0146
 8120TIP3    H124324   2.365   1.470   1.316  0.6577 -0.7308  1.8828
 8120TIP3    H224325   2.217   1.455   1.346  0.1758  0.3059  0.1823
 8121TIP3   OH224326   5.602   4.770   2.666  0.8750 -0.0496 -0.2150
 8121TIP3    H124327   5.624   4.813   2.583  1.6069 -1.1962 -0.6485
 8121TIP3    H224328   5.524   4.815   2.697  0.2455  0.0332 -1.8277
 8122TIP3   OH224329   0.920   4.197   3.115  0.0667 -0.0725 -0.1244
 8122TIP3    H124330   0.869   4.204   3.195 -0.7899  0.9095 -0.7351
 8122TIP3    H224331   1.002   4.154   3.142 -0.0460  0.5961  1.3408
 8123TIP3   OH224332   2.926   2.250   5.867 -0.3021  0.2551 -0.2207
 8123TIP3    H124333   2.915   2.225   5.775 -1.7567 -0.4160  0.1029
 8123TIP3    H224334   2.862   2.319   5.880 -0.0081  0.4373  0.2658
 8124TIP3   OH224335   0.505   4.973   5.739  0.2148 -0.3503 -0.4258
 8124TIP3    H124336   0.471   5.042   5.682  0.7432  2.0702  1.9856
 8124TIP3    H224337   0.494   5.008   5.828  1.8761 -2.7822  0.8370
 8125TIP3   OH224338   3.877   4.293   0.217 -0.0075 -0.0980 -0.1114
 8125TIP3    H124339   3.914   4.322   0.133 -0.9879 -0.1375 -0.5715
 8125TIP3    H224340   3.842   4.206   0.199 -0.4581 -0.0008  0.2669
 8126TIP3   OH224341   4.101   3.733   2.079 -0.2640  0.1679 -0.2195
 8126TIP3    H124342   4.030   3.669   2.067 -0.6088  0.1866  1.5435
 8126TIP3    H224343   4.062   3.816   2.052 -0.2489 -0.1273 -1.1977
 8127TIP3   OH224344   7.085   2.068   1.467 -0.3120  0.3568 -0.2066
 8127TIP3    H124345   7.121   2.143   1.515  1.6064 -2.0437  2.4878
 8127TIP3    H224346   6.992   2.087   1.459 -0.5310  1.5960  3.4773
 8128TIP3   OH224347   2.749   5.667   1.953 -0.8281  0.1375 -0.3030
 8128TIP3    H124348   2.748   5.588   2.006 -0.1945  0.6784  0.5566
 8128TIP3    H224349   2.747   5.739   2.017  2.0674  0.8310 -0.8475
 8129TIP3   OH224350   2.876   4.993   3.349  0.0901 -0.2844 -0.0964
 8129TIP3    H124351   2.959   4.996   3.397 -1.1178  2.0776  2.0815
 8129TIP3    H224352   2.895   5.040   3.267  0.9327  0.2730  0.3970
 8130TIP3   OH224353   5.195   4.650   4.152  0.3781 -0.3353  0.0161
 8130TIP3    H124354   5.201   4.715   4.081  0.4201 -0.2604  0.0880
 8130TIP3    H224355   5.281   4.652   4.193  1.1190 -2.0226 -1.3485
 8131TIP3   OH224356   2.771   5.079   4.027  0.0461  0.1338  0.0000
 8131TIP3    H124357   2.699   5.059   3.967  0.7742 -1.3423 -0.4328
 8131TIP3    H224358   2.806   4.993   4.051  2.1545  0.8350 -0.3979
 8132TIP3   OH224359   2.462   1.885   1.716  0.1723 -0.0524  0.0788
 8132TIP3    H124360   2.420   1.903   1.800  0.4664 -1.4246  0.5440
 8132TIP3    H224361   2.415   1.809   1.682  1.2937 -0.6855 -0.0917
 8133TIP3   OH224362   2.754   0.169   0.280  0.0205  0.4460 -0.1412
 8133TIP3    H124363   2.779   0.209   0.363  1.3230 -1.6720  0.5683
 8133TIP3    H224364   2.669   0.129   0.297  0.2677  0.0495  0.1797
 8134TIP3   OH224365   3.084   1.703   1.688  0.4304 -0.1653 -0.5107
 8134TIP3    H124366   3.046   1.791   1.697  0.6788 -0.0797 -0.2979
 8134TIP3    H224367   3.139   1.693   1.765  1.3506 -0.0405 -1.1258
 8135TIP3   OH224368   5.191   2.887   4.144 -0.0716  0.1476  0.6544
 8135TIP3    H124369   5.252   2.819   4.173  0.3686 -0.3381 -1.2814
 8135TIP3    H224370   5.212   2.900   4.052 -1.3110  1.7003  0.5589
 8136TIP3   OH224371   0.805   2.461   3.255  0.1973 -0.1010  0.4614
 8136TIP3    H124372   0.832   2.423   3.339  1.0460  1.0155  0.7211
 8136TIP3    H224373   0.732   2.519   3.277 -1.2343 -1.6860  0.0359
 8137TIP3   OH224374   0.355   0.309   4.580 -0.1937 -0.9959  0.3781
 8137TIP3    H124375   0.341   0.226   4.624  1.5691 -1.5256  0.0207
 8137TIP3    H224376   0.386   0.285   4.492 -0.0339  0.0297  0.1337
 8138TIP3   OH224377   5.417   1.334   1.262 -0.8291  0.0147 -0.0072
 8138TIP3    H124378   5.378   1.421   1.260  2.3855  1.6137  0.7270
 8138TIP3    H224379   5.346   1.275   1.235 -2.9878  2.8579 -0.9996
 8139TIP3   OH224380   6.539   4.880   0.590  0.3149 -0.0786 -0.3631
 8139TIP3    H124381   6.460   4.880   0.645  0.0583  0.2686 -0.7224
 8139TIP3    H224382   6.610   4.858   0.650 -0.1708 -1.3425 -0.2121
 8140TIP3   OH224383   4.868   6.059   4.684 -0.5156  0.4365 -0.1608
 8140TIP3    H124384   4.961   6.081   4.690 -0.6186  1.9037 -2.7081
 8140TIP3    H224385   4.829   6.097   4.763  1.0419 -0.3474  1.0265
 8141TIP3   OH224386   4.451   1.840   5.816  0.3511 -0.4749  0.7279
 8141TIP3    H124387   4.458   1.893   5.737 -1.4716 -1.8982 -0.4733
 8141TIP3    H224388   4.451   1.903   5.888  2.5067  0.8317 -0.3343
 8142TIP3   OH224389   2.926   1.134   4.938 -0.0506  0.1646  0.0718
 8142TIP3    H124390   2.874   1.133   4.858 -0.8267  1.0218  0.5451
 8142TIP3    H224391   2.966   1.047   4.943  0.9389  0.4542 -1.8412
 8143TIP3   OH224392   2.401   5.579   1.621 -0.4400 -0.4860 -0.3982
 8143TIP3    H124393   2.381   5.624   1.538  0.4272 -0.4395 -0.5955
 8143TIP3    H224394   2.346   5.501   1.620  0.6495 -1.2854 -1.7475
 8144TIP3   OH224395   2.465   2.392   4.502  0.9713  0.1159 -0.5714
 8144TIP3    H124396   2.446   2.298   4.509 -1.5695  0.6856  2.3581
 8144TIP3    H224397   2.434   2.417   4.415  0.9774 -1.6124 -1.1002
 8145TIP3   OH224398   5.030   2.629   3.648 -0.2060 -0.3256  0.3864
 8145TIP3    H124399   4.976   2.553   3.629 -0.3080  0.0799 -1.0633
 8145TIP3    H224400   5.066   2.655   3.563 -2.3528  2.8720  0.2293
 8146TIP3   OH224401   0.001   5.195   4.007 -0.8701  0.5284  0.6232
 8146TIP3    H124402   0.046   5.143   4.073 -1.2250 -0.0495  0.4156
 8146TIP3    H224403   0.005   5.285   4.039 -0.9691  0.2602  1.3862
 8147TIP3   OH224404   2.818   6.691   2.597 -0.9943  0.2045 -1.0446
 8147TIP3    H124405   2.735   6.724   2.565 -1.6470 -0.6791 -0.3158
 8147TIP3    H224406   2.822   6.601   2.566 -1.5689 -0.6257  1.0946
 8148TIP3   OH224407   3.544   6.336   2.062 -0.2161  0.3505 -0.3150
 8148TIP3    H124408   3.550   6.265   1.998  0.4622  0.3679 -0.2810
 8148TIP3    H224409   3.536   6.416   2.009  0.3389  0.3649 -0.3871
 8149TIP3   OH224410   5.370   0.082   3.198  0.2141 -0.3731  0.8401
 8149TIP3    H124411   5.395   0.007   3.144  0.0515 -1.3480  2.0569
 8149TIP3    H224412   5.331   0.042   3.276 -1.4527  1.0279  0.7656
 8150TIP3   OH224413   6.857   3.609   4.118  0.0616  0.3014 -0.4928
 8150TIP3    H124414   6.788   3.622   4.054 -0.5676  0.3203  0.1694
 8150TIP3    H224415   6.927   3.564   4.071 -0.0647  1.0185 -1.3768
 8151TIP3   OH224416   1.652   1.869   2.327 -0.0074  0.2412 -0.2367
 8151TIP3    H124417   1.595   1.931   2.374  0.0232  0.4680 -0.4933
 8151TIP3    H224418   1.591   1.815   2.277 -0.3563 -2.2978  2.6266
 8152TIP3   OH224419   1.216   0.649   2.332  0.2303 -0.4164  0.2599
 8152TIP3    H124420   1.246   0.707   2.402 -2.3685  0.4271  0.7819
 8152TIP3    H224421   1.193   0.567   2.376 -1.4652  0.1359  0.4494
 8153TIP3   OH224422   0.978   6.053   4.079 -0.0452 -0.2593 -0.4582
 8153TIP3    H124423   1.046   5.995   4.113  1.7472  0.9645 -1.7895
 8153TIP3    H224424   0.902   5.996   4.064  1.0402 -1.8790 -0.0061
 8154TIP3   OH224425   2.298   5.329   4.828 -0.4850  0.2143  0.3745
 8154TIP3    H124426   2.386   5.358   4.853  0.3557 -2.3375  0.6190
 8154TIP3    H224427   2.313   5.262   4.762 -2.4111  1.6497 -1.6363
 8155TIP3   OH224428   2.149   3.215   0.315 -0.0101 -0.5495 -0.6410
 8155TIP3    H124429   2.060   3.199   0.344  0.4773 -1.0151  0.6495
 8155TIP3    H224430   2.202   3.152   0.363  1.2111  0.7827 -0.1650
 8156TIP3   OH224431   3.962   5.459   1.411  0.2916  0.1712  0.5552
 8156TIP3    H124432   3.951   5.530   1.347  1.0210 -0.1195  0.0904
 8156TIP3    H224433   4.034   5.488   1.467 -2.1818  1.7663  3.1561
 8157TIP3   OH224434   0.317   5.385   5.444  0.3920  0.3475  0.1533
 8157TIP3    H124435   0.283   5.403   5.356 -1.1125  1.2593  0.8779
 8157TIP3    H224436   0.379   5.457   5.460  0.8223  0.0679 -0.2219
 8158TIP3   OH224437   0.034   3.079   1.605 -0.0401 -0.1128  0.2883
 8158TIP3    H124438  -0.026   3.014   1.642 -1.9577  0.6542 -1.2599
 8158TIP3    H224439  -0.008   3.105   1.523  1.3164  2.1408  0.2370
 8159TIP3   OH224440   3.035   6.652   0.093  0.0857 -0.0968  0.1689
 8159TIP3    H124441   3.088   6.571   0.092 -0.6152 -0.5670  0.8034
 8159TIP3    H224442   3.030   6.677   0.000 -0.3754 -1.2468 -0.1402
 8160TIP3   OH224443   6.883   0.087   2.572 -0.3232 -0.1373 -0.4577
 8160TIP3    H124444   6.868   0.181   2.585  0.4938  0.0429 -0.7418
 8160TIP3    H224445   6.970   0.072   2.609 -1.0610 -1.0977  0.9870
 8161TIP3   OH224446   5.776   5.944   4.464 -0.1655  0.3503  0.3531
 8161TIP3    H124447   5.863   5.909   4.444  0.7216  2.3970  0.4183
 8161TIP3    H224448   5.734   5.953   4.379  0.2481  0.7464  0.1894
 8162TIP3   OH224449   2.218   3.632   0.076  0.1215  0.1552 -0.4437
 8162TIP3    H124450   2.204   3.576  -0.000  1.4189  0.5178 -0.9831
 8162TIP3    H224451   2.137   3.683   0.083  0.2437  0.6308 -2.0374
 8163TIP3   OH224452   0.232   4.227   0.830 -0.5392  0.1241  0.3516
 8163TIP3    H124453   0.321   4.260   0.817 -0.5301 -0.5806 -1.7094
 8163TIP3    H224454   0.179   4.306   0.843  0.2976  0.5716  1.2210
 8164TIP3   OH224455   3.750   1.611   2.771  0.3139  0.5051  0.1335
 8164TIP3    H124456   3.831   1.643   2.731  1.4146 -2.7225 -0.5375
 8164TIP3    H224457   3.687   1.610   2.699  0.0124  1.8657  0.3619
 8165TIP3   OH224458   3.416   6.593   1.577 -0.4637 -0.0991 -0.2030
 8165TIP3    H124459   3.364   6.551   1.508 -1.2685 -1.4395  1.1497
 8165TIP3    H224460   3.351   6.635   1.633  0.0706 -0.0931  0.4244
 8166TIP3   OH224461   3.921   2.276   3.591 -0.2870  0.3416 -0.1317
 8166TIP3    H124462   3.843   2.282   3.646 -0.7655  0.6089 -0.8222
 8166TIP3    H224463   3.963   2.194   3.616  0.6800  1.4374  2.1407
 8167TIP3   OH224464   1.821   5.760   1.071 -0.5259 -0.5133  0.2847
 8167TIP3    H124465   1.884   5.832   1.079 -0.8549 -0.3202  1.3604
 8167TIP3    H224466   1.756   5.792   1.009 -0.4932 -0.0003  0.5060
 8168TIP3   OH224467   3.748   1.071   5.444  0.5989  0.2510 -0.5621
 8168TIP3    H124468   3.800   1.128   5.387  1.2929 -1.2042 -1.4526
 8168TIP3    H224469   3.752   0.985   5.402 -1.0904 -0.2961  0.3019
 8169TIP3   OH224470   6.082   5.302   1.452  0.0382 -0.2620  0.5611
 8169TIP3    H124471   6.092   5.372   1.517  0.9828  0.3348 -0.1996
 8169TIP3    H224472   5.989   5.281   1.452 -0.2137  0.8417  0.9637
 8170TIP3   OH224473   2.410   3.168   3.758  0.3756  0.1402 -0.1790
 8170TIP3    H124474   2.436   3.222   3.684  2.3960  0.4386  0.6554
 8170TIP3    H224475   2.427   3.223   3.835  0.4261 -0.9186  0.5967
 8171TIP3   OH224476   0.819   4.347   5.135 -0.5980 -0.0889  0.3875
 8171TIP3    H124477   0.913   4.359   5.143 -0.6484 -0.5484  2.2536
 8171TIP3    H224478   0.782   4.435   5.148 -0.4280  0.1102 -0.4624
 8172TIP3   OH224479   0.092   3.269   2.517  0.0669  0.1783 -0.7007
 8172TIP3    H124480   0.156   3.221   2.569  1.5043  2.3020 -0.3673
 8172TIP3    H224481   0.110   3.244   2.426  1.2076  0.5072 -0.5842
 8173TIP3   OH224482   3.527   0.740   0.566 -0.0683 -0.1986  0.1590
 8173TIP3    H124483   3.570   0.668   0.613 -1.1146 -0.8759  0.1036
 8173TIP3    H224484   3.488   0.699   0.489 -1.7392  0.1789  0.7646
 8174TIP3   OH224485   6.542   4.954   0.315  0.3087  0.0650 -0.6555
 8174TIP3    H124486   6.539   4.917   0.403  0.2581 -0.4605 -0.8749
 8174TIP3    H224487   6.458   4.999   0.306 -0.0704 -0.6395 -0.7557
 8175TIP3   OH224488   1.374   1.671   1.460 -0.1518 -0.3370 -0.2312
 8175TIP3    H124489   1.347   1.726   1.386 -0.7075  1.9678  1.5722
 8175TIP3    H224490   1.302   1.609   1.472 -0.1187 -0.6486 -1.5003
 8176TIP3   OH224491   3.328   5.957   1.505  0.4164  0.6221  0.1343
 8176TIP3    H124492   3.294   5.936   1.418 -1.2609  0.4114  0.7973
 8176TIP3    H224493   3.276   6.033   1.533 -0.2733 -0.3378  1.6009
 8177TIP3   OH224494   5.862   4.862   2.228  0.4999 -0.5198 -0.2832
 8177TIP3    H124495   5.827   4.774   2.234 -1.9109  0.4625  3.8601
 8177TIP3    H224496   5.906   4.877   2.312  0.4175  2.3548 -0.6387
 8178TIP3   OH224497   3.936   0.207   2.959  0.1471 -0.3564  0.0854
 8178TIP3    H124498   3.923   0.119   2.994  0.2982  0.4429  2.2530
 8178TIP3    H224499   4.004   0.245   3.014 -0.2989  1.3137 -0.4589
 8179TIP3   OH224500   6.923   1.634   3.281  0.1071 -0.0577  0.0213
 8179TIP3    H124501   6.844   1.686   3.265  1.1663  1.9628  0.9258
 8179TIP3    H224502   6.895   1.564   3.339 -1.2924 -0.2734 -0.8652
 8180TIP3   OH224503   3.801   6.063   0.522 -0.2569  0.6516 -0.6970
 8180TIP3    H124504   3.838   6.090   0.606 -0.1851  0.0362 -0.5293
 8180TIP3    H224505   3.862   6.099   0.457 -0.2700  1.0608 -0.4873
 8181TIP3   OH224506   3.529   5.382   4.691  0.0511 -0.7218  0.1850
 8181TIP3    H124507   3.472   5.370   4.615 -2.5996  3.4270  1.2047
 8181TIP3    H224508   3.486   5.333   4.761  0.4355 -1.4738 -0.0901
 8182TIP3   OH224509   3.527   5.688   1.630  0.0790 -0.1322 -0.1493
 8182TIP3    H124510   3.568   5.616   1.583  0.6704 -0.0623  0.2522
 8182TIP3    H224511   3.482   5.646   1.704 -0.6636 -0.2189 -0.6424
 8183TIP3   OH224512   3.572   4.121   5.190 -0.2084  0.8623 -0.3518
 8183TIP3    H124513   3.629   4.188   5.153 -0.1982  2.1092  1.7719
 8183TIP3    H224514   3.513   4.098   5.119  1.8142  0.7641 -2.1066
 8184TIP3   OH224515   4.584   2.411   1.228  0.0058  0.0844 -0.2506
 8184TIP3    H124516   4.607   2.375   1.143 -1.8867  0.9449 -1.1888
 8184TIP3    H224517   4.522   2.347   1.265  0.2811  0.0589  0.1786
 8185TIP3   OH224518   5.063   6.665   1.423  0.3248 -0.8021  0.1089
 8185TIP3    H124519   5.083   6.715   1.344  0.7170  0.0496  0.7321
 8185TIP3    H224520   4.996   6.602   1.395  1.7348 -1.7439 -1.3276
 8186TIP3   OH224521   0.009   0.420   2.856  0.0305 -0.3879 -0.5363
 8186TIP3    H124522   0.026   0.361   2.929  0.8013  0.0570 -0.3479
 8186TIP3    H224523   0.085   0.479   2.854 -0.8343  0.7683 -0.5611
 8187TIP3   OH224524   3.340   3.381   0.970  0.5382  0.1345  0.1599
 8187TIP3    H124525   3.426   3.344   0.991  0.5267  0.5648  1.0143
 8187TIP3    H224526   3.307   3.413   1.054 -0.4931 -0.0939 -0.1467
 8188TIP3   OH224527   6.758   2.174   1.459 -0.5268 -0.3197 -0.9224
 8188TIP3    H124528   6.791   2.202   1.545  1.2871 -1.4256 -1.2069
 8188TIP3    H224529   6.678   2.225   1.447 -0.7348 -0.0031  1.3359
 8189TIP3   OH224530   2.043   0.775   4.190  0.1448  0.1396 -0.5880
 8189TIP3    H124531   1.965   0.829   4.181 -0.1253 -0.2007 -0.3491
 8189TIP3    H224532   2.013   0.699   4.241  0.4762 -0.3109 -1.0591
 8190TIP3   OH224533   3.269   4.336   0.482 -0.4237  0.1878 -0.0272
 8190TIP3    H124534   3.262   4.376   0.395  1.4168  0.8808  0.0923
 8190TIP3    H224535   3.207   4.386   0.536 -1.5062 -0.1836 -0.8894
 8191TIP3   OH224536   4.438   5.310   0.634  0.1492 -0.1706 -0.4522
 8191TIP3    H124537   4.524   5.347   0.616  0.2598 -0.9087 -1.5579
 8191TIP3    H224538   4.430   5.313   0.729  0.9535  0.8642 -0.3997
 8192TIP3   OH224539   1.988   1.835   4.967  0.0579  0.3129 -0.0576
 8192TIP3    H124540   2.039   1.882   5.033  1.9623  0.3583 -1.4707
 8192TIP3    H224541   2.053   1.783   4.919 -1.2258  0.3413 -1.9242
 8193TIP3   OH224542   4.955   2.638   4.848 -0.1807 -0.3102 -0.0220
 8193TIP3    H124543   4.898   2.676   4.915 -0.1521  0.8549 -0.6346
 8193TIP3    H224544   4.900   2.629   4.771  0.0450 -0.7154 -0.1385
 8194TIP3   OH224545   5.997   6.454   1.045 -0.4470  0.4167 -0.6025
 8194TIP3    H124546   5.957   6.405   0.973 -1.0953 -2.1576  1.3184
 8194TIP3    H224547   6.091   6.455   1.024 -0.8345  1.6881 -2.4951
 8195TIP3   OH224548   6.964   4.735   3.261  0.7784 -0.2215  0.5488
 8195TIP3    H124549   6.977   4.809   3.201  1.4141  0.3141  1.3235
 8195TIP3    H224550   6.884   4.693   3.230  1.5710 -0.5288 -1.2402
 8196TIP3   OH224551   3.133   2.635   3.460 -0.3718  0.0117 -0.0906
 8196TIP3    H124552   3.077   2.713   3.462 -0.5989 -0.1620  0.9997
 8196TIP3    H224553   3.146   2.613   3.553  2.4794  0.7497 -0.2347
 8197TIP3   OH224554   1.889   2.425   4.211 -0.1113  0.4231  0.4975
 8197TIP3    H124555   1.877   2.353   4.149 -0.8621  0.9884 -0.0207
 8197TIP3    H224556   1.930   2.494   4.160  1.9191 -0.0845  1.3125
 8198TIP3   OH224557   5.389   4.868   2.865  0.2669 -0.5755 -0.0103
 8198TIP3    H124558   5.363   4.777   2.869 -0.3881 -0.3554  0.8409
 8198TIP3    H224559   5.316   4.917   2.902  0.4707  0.3279 -0.7459
 8199TIP3   OH224560   3.963   4.300   4.671  0.3271  0.3982 -0.2764
 8199TIP3    H124561   4.050   4.335   4.686  1.2519 -1.8272 -0.0163
 8199TIP3    H224562   3.974   4.237   4.599 -1.2995  0.8725 -0.9969
 8200TIP3   OH224563   6.761   3.732   0.704  0.4484 -0.5167 -0.5097
 8200TIP3    H124564   6.719   3.646   0.713  1.1066 -0.7397  0.7047
 8200TIP3    H224565   6.739   3.760   0.616 -1.7344 -0.8914 -0.1462
 8201TIP3   OH224566   3.447   0.975   5.450  0.0533  0.0684  0.0096
 8201TIP3    H124567   3.484   1.008   5.532 -1.2148  0.3495  0.4961
 8201TIP3    H224568   3.461   0.880   5.454 -1.3838 -0.1432  1.3379
 8202TIP3   OH224569   2.039   2.651   4.727 -0.4779 -0.0025  0.5121
 8202TIP3    H124570   2.061   2.577   4.784 -1.3071 -0.3614  0.3851
 8202TIP3    H224571   2.028   2.612   4.640 -1.9293  0.0865  0.6312
 8203TIP3   OH224572   1.995   3.709   4.095 -0.2987  0.4090 -0.1270
 8203TIP3    H124573   2.067   3.699   4.033 -1.6289  0.1192 -1.6875
 8203TIP3    H224574   2.014   3.791   4.141  0.7889  0.5537 -0.7947
 8204TIP3   OH224575   1.405   4.576   4.430  0.0513  0.2430 -0.2099
 8204TIP3    H124576   1.395   4.559   4.524 -0.5004  0.7898 -0.1567
 8204TIP3    H224577   1.400   4.490   4.388 -0.9397  0.1047  0.1677
 8205TIP3   OH224578   1.335   2.062   1.952  0.1416 -0.8118 -0.3352
 8205TIP3    H124579   1.425   2.083   1.927  0.3656 -0.3927  0.7845
 8205TIP3    H224580   1.315   2.124   2.022 -1.1040 -0.7480 -0.7268
 8206TIP3   OH224581   0.700   5.993   5.492  0.4658  0.0301 -0.1519
 8206TIP3    H124582   0.683   6.039   5.410  1.4607 -1.5177 -1.2702
 8206TIP3    H224583   0.620   6.005   5.544 -0.1083  1.1766 -1.2612
 8207TIP3   OH224584   6.091   5.973   1.861  0.3827  0.1353  0.6221
 8207TIP3    H124585   6.151   6.046   1.846  0.1562  0.1309 -0.3478
 8207TIP3    H224586   6.057   5.951   1.774  0.4120 -1.0986  0.9049
 8208TIP3   OH224587   2.611   6.538   5.028 -0.2487 -0.3663  0.2632
 8208TIP3    H124588   2.680   6.472   5.029  0.3751  0.2060  3.0041
 8208TIP3    H224589   2.602   6.562   4.936  3.5410 -0.1548 -0.1926
 8209TIP3   OH224590   3.432   5.229   3.418 -0.7097 -0.1832 -0.3494
 8209TIP3    H124591   3.427   5.154   3.476 -1.5412 -1.0456 -1.4908
 8209TIP3    H224592   3.441   5.192   3.330  0.6317  1.0768 -0.8071
 8210TIP3   OH224593   1.519   4.015   2.234 -0.1789 -0.7307 -1.2897
 8210TIP3    H124594   1.447   3.959   2.205 -2.8944  1.9185 -0.1856
 8210TIP3    H224595   1.536   4.073   2.160 -0.4684 -0.1691 -0.9221
 8211TIP3   OH224596   5.771   4.633   5.181  0.2852 -0.0492  0.1623
 8211TIP3    H124597   5.848   4.669   5.226 -0.3806 -0.5358  1.7898
 8211TIP3    H224598   5.703   4.631   5.249 -0.2874 -2.4534 -0.3915
 8212TIP3   OH224599   3.995   6.100   4.671 -0.1267  0.4649 -0.7944
 8212TIP3    H124600   3.995   6.194   4.653  0.6112  0.1593 -2.5550
 8212TIP3    H224601   4.012   6.094   4.765 -2.1604  2.1153 -0.2241
 8213TIP3   OH224602   5.021   1.652   1.194 -0.3728  0.5939  0.4578
 8213TIP3    H124603   5.088   1.584   1.205 -1.0242  0.0202  1.0565
 8213TIP3    H224604   5.066   1.723   1.149  0.7842  0.4353  1.3047
 8214TIP3   OH224605   1.786   1.871   3.878  0.0631  0.0575 -0.0048
 8214TIP3    H124606   1.812   1.780   3.862 -2.4879 -0.4675 -1.6708
 8214TIP3    H224607   1.869   1.918   3.886  1.4811 -2.0785 -1.0793
 8215TIP3   OH224608   7.135   3.441   3.707 -0.6043  0.2726 -0.4192
 8215TIP3    H124609   7.210   3.382   3.696 -1.6252 -1.1746  0.0780
 8215TIP3    H224610   7.167   3.526   3.678  2.1330  0.3720  2.3818
 8216TIP3   OH224611   4.848   2.040   0.695 -0.6243 -0.4209 -0.2563
 8216TIP3    H124612   4.780   1.974   0.704 -2.1110  0.5451 -3.3083
 8216TIP3    H224613   4.907   2.006   0.628  0.9457 -0.3822  1.0209
 8217TIP3   OH224614   5.678   1.556   2.467  0.0350  0.1696  0.1947
 8217TIP3    H124615   5.687   1.462   2.482 -0.6084  0.1970  0.8035
 8217TIP3    H224616   5.756   1.594   2.506 -0.1196 -0.0385  0.7148
 8218TIP3   OH224617   6.800   3.900   4.139 -0.1149 -0.7033  0.2478
 8218TIP3    H124618   6.717   3.933   4.105  0.1790 -0.6009 -0.3879
 8218TIP3    H224619   6.781   3.811   4.167 -0.1748 -1.1302 -1.0462
 8219TIP3   OH224620   7.132   6.358   3.662 -0.1197  0.0976 -0.0456
 8219TIP3    H124621   7.214   6.342   3.710 -0.3462 -3.1174 -0.5151
 8219TIP3    H224622   7.064   6.324   3.721 -0.6562 -1.2412 -1.3789
 8220TIP3   OH224623   5.774   1.742   1.482  0.0519 -0.4154 -0.3617
 8220TIP3    H124624   5.684   1.768   1.460 -0.3638 -0.9385  0.6259
 8220TIP3    H224625   5.773   1.646   1.475  0.1092 -0.5428  1.0942
 8221TIP3   OH224626   1.788   5.943   3.979  0.4999  0.3625 -0.4809
 8221TIP3    H124627   1.784   5.848   3.971 -1.2248  0.3171  0.4160
 8221TIP3    H224628   1.807   5.974   3.891 -1.9856 -0.7080 -1.4825
 8222TIP3   OH224629   4.841   0.868   3.411  0.2539 -0.1589 -0.5221
 8222TIP3    H124630   4.837   0.941   3.349  0.2876 -0.5567 -0.9964
 8222TIP3    H224631   4.893   0.801   3.366 -0.6085 -0.8618 -0.4994
 8223TIP3   OH224632   4.712   1.759   4.998  0.2278  0.8922  0.0226
 8223TIP3    H124633   4.692   1.840   4.951  1.0371  0.8561 -0.4018
 8223TIP3    H224634   4.639   1.748   5.059  0.4979  2.3874  0.6653
 8224TIP3   OH224635   3.166   0.114   5.412  0.7832 -0.3312 -0.7062
 8224TIP3    H124636   3.157   0.020   5.427  0.3935 -0.3327 -0.9498
 8224TIP3    H224637   3.129   0.128   5.325  1.1491 -0.0043 -0.8109
 8225TIP3   OH224638   0.273   4.195   4.948 -0.0585  0.3916 -0.5133
 8225TIP3    H124639   0.268   4.165   4.857  0.1521 -0.3094 -0.2991
 8225TIP3    H224640   0.277   4.291   4.941 -1.3009  0.4165 -1.1819
 8226TIP3   OH224641   5.840   1.131   0.278 -0.5832 -0.2868 -0.5684
 8226TIP3    H124642   5.927   1.118   0.239  0.9981 -0.9945  2.8309
 8226TIP3    H224643   5.790   1.054   0.250  1.1197 -1.7903  0.2966
 8227TIP3   OH224644   5.353   3.426   0.219 -0.8521 -0.9088 -0.1473
 8227TIP3    H124645   5.381   3.382   0.138 -0.6536 -0.3247 -0.4088
 8227TIP3    H224646   5.419   3.400   0.284  0.2611  0.3113 -0.7171
 8228TIP3   OH224647   5.216   1.161   3.139  0.5953  0.6291 -0.3779
 8228TIP3    H124648   5.248   1.147   3.228  1.1959  1.5481 -0.4294
 8228TIP3    H224649   5.127   1.194   3.150  0.3795 -0.0249 -0.1509
 8229TIP3   OH224650   5.331   2.526   3.233  0.5757  0.6118 -0.0967
 8229TIP3    H124651   5.273   2.531   3.157 -2.0655 -2.1554  1.4891
 8229TIP3    H224652   5.400   2.466   3.206  1.0324  1.5430 -1.0491
 8230TIP3   OH224653   2.324   2.874   3.153 -0.1210 -0.3045  0.0142
 8230TIP3    H124654   2.260   2.942   3.135  0.4848 -0.1703 -1.7766
 8230TIP3    H224655   2.276   2.792   3.141 -0.3992 -0.2183  0.4809
 8231TIP3   OH224656   0.536   0.319   0.670 -0.1937  0.3261 -0.8316
 8231TIP3    H124657   0.500   0.398   0.711 -1.4031 -0.8581  0.4960
 8231TIP3    H224658   0.615   0.299   0.720 -0.2145  0.3531 -0.7885
 8232TIP3   OH224659   3.379   5.203   1.678  0.3088  0.2308  0.1975
 8232TIP3    H124660   3.337   5.151   1.746 -1.5849  0.7354 -0.5232
 8232TIP3    H224661   3.339   5.173   1.596  2.0858  0.0667 -0.6732
 8233TIP3   OH224662   2.888   3.571   5.519 -0.2672 -0.1807 -0.5164
 8233TIP3    H124663   2.848   3.653   5.551  0.0379 -0.0868 -0.3783
 8233TIP3    H224664   2.969   3.563   5.569 -0.0948 -0.3561 -0.8273
 8234TIP3   OH224665   2.159   4.643   0.234  0.2501  0.4640 -0.0289
 8234TIP3    H124666   2.079   4.654   0.183  0.8204 -0.5199 -1.1970
 8234TIP3    H224667   2.220   4.707   0.198  0.3987  0.3093 -0.0565
 8235TIP3   OH224668   4.123   5.330   5.195  0.8341  0.0634 -0.4399
 8235TIP3    H124669   4.108   5.270   5.269 -1.8319  2.3652  1.0747
 8235TIP3    H224670   4.204   5.376   5.218  1.3049 -0.8619 -0.1789
 8236TIP3   OH224671   3.172   6.157   1.562 -0.5124  0.2061  0.1130
 8236TIP3    H124672   3.223   6.239   1.564 -2.1124  1.2468  1.2455
 8236TIP3    H224673   3.101   6.175   1.500  0.1558 -1.0199 -1.0330
 8237TIP3   OH224674   6.268   5.577   3.391  0.2418 -0.1201 -0.0592
 8237TIP3    H124675   6.356   5.540   3.399  0.4749  0.7428  1.8917
 8237TIP3    H224676   6.279   5.670   3.414 -1.3195 -0.2127  1.1782
 8238TIP3   OH224677   6.523   5.512   5.062  0.2149 -0.3609  0.4874
 8238TIP3    H124678   6.583   5.519   4.988 -0.4535 -2.1180 -0.2660
 8238TIP3    H224679   6.437   5.531   5.024 -0.0431 -0.5827  0.9606
 8239TIP3   OH224680   4.612   2.633   3.627  0.3642 -0.3722  0.5040
 8239TIP3    H124681   4.623   2.685   3.547  0.1557 -0.0125  0.7071
 8239TIP3    H224682   4.680   2.566   3.621 -0.8219 -1.5279 -0.8952
 8240TIP3   OH224683   3.824   5.024   2.879  0.5985 -0.3475  0.4538
 8240TIP3    H124684   3.827   4.934   2.848 -0.9314 -0.7530  1.3653
 8240TIP3    H224685   3.758   5.066   2.824  1.3104  0.2244  0.0283
 8241TIP3   OH224686   6.025   2.672   0.025 -0.0595 -0.0767 -0.2527
 8241TIP3    H124687   6.087   2.745   0.033 -0.4694  0.2017  0.3974
 8241TIP3    H224688   6.078   2.594   0.038  0.3348  0.1075 -0.6953
 8242TIP3   OH224689   1.098   5.280   5.520  0.2775 -0.1142 -0.0314
 8242TIP3    H124690   1.171   5.219   5.524  0.1514 -0.3215 -0.7801
 8242TIP3    H224691   1.136   5.365   5.542  1.2930  0.2527 -2.8742
 8243TIP3   OH224692   3.293   1.504   4.937  0.0307 -0.0238  0.0290
 8243TIP3    H124693   3.231   1.431   4.940  0.8999 -0.7501  0.6494
 8243TIP3    H224694   3.320   1.516   5.028  1.5753 -0.4003 -0.3514
 8244TIP3   OH224695   4.373   4.835   2.568  0.1120 -0.4300 -0.2187
 8244TIP3    H124696   4.465   4.862   2.566 -0.7092  2.8529  0.1739
 8244TIP3    H224697   4.369   4.759   2.511  3.0276 -0.5891 -0.3689
 8245TIP3   OH224698   4.458   3.259   4.100 -0.0486 -0.5297  0.6561
 8245TIP3    H124699   4.448   3.268   4.005  0.4896  1.2198  0.7312
 8245TIP3    H224700   4.388   3.200   4.126 -0.8447 -0.2395 -0.7040
 8246TIP3   OH224701   3.123   2.572   3.732 -0.2398  0.0182 -0.1718
 8246TIP3    H124702   3.079   2.491   3.759 -2.9753  1.6508  0.6929
 8246TIP3    H224703   3.200   2.578   3.789 -0.8567 -1.1981  0.8308
 8247TIP3   OH224704   2.388   4.210   3.123  0.2984 -0.0380 -0.1542
 8247TIP3    H124705   2.373   4.294   3.166  1.3476  0.8938 -1.5445
 8247TIP3    H224706   2.409   4.150   3.195 -1.4105  0.6177  0.9574
 8248TIP3   OH224707   6.636   6.293   0.882 -0.2940  0.2681  0.4478
 8248TIP3    H124708   6.672   6.206   0.899  1.5730  1.0246  0.5841
 8248TIP3    H224709   6.701   6.336   0.826 -1.8690  1.0899 -0.8688
 8249TIP3   OH224710   6.341   2.406   1.728  0.6419 -0.2284  0.1123
 8249TIP3    H124711   6.423   2.405   1.778 -0.0865  2.4888  1.5870
 8249TIP3    H224712   6.297   2.325   1.754  2.4556 -1.3395 -0.0747
 8250TIP3   OH224713   3.244   2.191   3.810 -0.4608  0.4262 -0.2156
 8250TIP3    H124714   3.228   2.259   3.876 -0.0324 -1.6560  2.2196
 8250TIP3    H224715   3.161   2.143   3.805 -0.2840  0.1687 -0.7407
 8251TIP3   OH224716   3.673   5.291   1.252  0.0436  0.0752  0.6428
 8251TIP3    H124717   3.738   5.228   1.284  1.0637  0.3905 -0.7069
 8251TIP3    H224718   3.610   5.238   1.203 -0.5791 -0.1979  1.7169
 8252TIP3   OH224719   4.504   2.403   5.876  0.2412 -0.3535 -0.2965
 8252TIP3    H124720   4.509   2.413   5.780  0.0340 -0.7431 -0.3484
 8252TIP3    H224721   4.553   2.478   5.910 -0.3315  0.2072 -0.6963
 8253TIP3   OH224722   3.360   3.527   4.719  0.4049 -0.3022 -0.4982
 8253TIP3    H124723   3.290   3.467   4.693  0.2222  0.9102 -3.1077
 8253TIP3    H224724   3.438   3.495   4.674  0.7447  0.3432 -0.3794
 8254TIP3   OH224725   1.504   5.056   4.279  0.8237 -0.2886  0.1081
 8254TIP3    H124726   1.551   4.975   4.297 -0.8397 -0.6579  3.8213
 8254TIP3    H224727   1.427   5.028   4.229 -0.0588 -1.2402  1.8806
 8255TIP3   OH224728   4.914   4.897   5.317 -0.3006  0.0024  0.1261
 8255TIP3    H124729   4.828   4.930   5.292 -0.5481 -1.7746 -1.6221
 8255TIP3    H224730   4.953   4.866   5.235  0.8229 -1.8477  1.2795
 8256TIP3   OH224731   1.246   0.839   4.463 -0.1058  0.1543 -0.5658
 8256TIP3    H124732   1.195   0.785   4.402 -0.0371  1.4024 -1.8068
 8256TIP3    H224733   1.198   0.922   4.466  1.3975  1.0905 -1.1524
 8257TIP3   OH224734   4.443   5.525   1.805 -0.3105 -0.0899 -0.0221
 8257TIP3    H124735   4.501   5.504   1.731  2.2226 -1.8985  2.2788
 8257TIP3    H224736   4.486   5.598   1.849 -0.9968  0.0359  0.4524
 8258TIP3   OH224737   5.472   4.111   2.963  0.4638 -0.8084  0.3744
 8258TIP3    H124738   5.506   4.173   3.027  2.0963 -1.0255 -0.2538
 8258TIP3    H224739   5.447   4.035   3.014 -1.2349  0.1855  1.1128
 8259TIP3   OH224740   5.167   5.773   1.318  0.1725 -0.1835 -0.1734
 8259TIP3    H124741   5.131   5.743   1.402  1.8912 -0.7373  0.4028
 8259TIP3    H224742   5.168   5.868   1.326  3.6950 -0.2422  2.0354
 8260TIP3   OH224743   3.636   3.274   3.397  0.4258  0.0741 -0.0381
 8260TIP3    H124744   3.654   3.183   3.422  0.5733  0.1198  0.0244
 8260TIP3    H224745   3.721   3.307   3.366 -0.2570 -0.8249 -3.2587
 8261TIP3   OH224746   2.285   5.296   1.884 -0.2099  0.6572 -0.1016
 8261TIP3    H124747   2.254   5.332   1.801 -1.7439 -1.1136 -0.3564
 8261TIP3    H224748   2.251   5.357   1.950 -0.4267  1.1522 -0.6526
 8262TIP3   OH224749   4.150   0.192   2.401 -0.1495 -0.2833 -0.5386
 8262TIP3    H124750   4.214   0.134   2.443 -2.5503 -2.3815  0.4963
 8262TIP3    H224751   4.124   0.252   2.470  0.5375  0.4633 -0.9141
 8263TIP3   OH224752   5.306   3.804   2.366  0.0928  0.1454  0.2273
 8263TIP3    H124753   5.277   3.861   2.295  1.3329  0.6882  0.1421
 8263TIP3    H224754   5.355   3.861   2.425  0.7423 -0.6818  0.5167
 8264TIP3   OH224755   2.057   0.243   5.576  0.3388 -0.4145  0.0428
 8264TIP3    H124756   2.137   0.267   5.531 -1.3475  1.5217 -2.1346
 8264TIP3    H224757   2.084   0.230   5.667  3.1933 -0.4976 -0.7235
 8265TIP3   OH224758   7.135   0.204   3.127 -0.3926  0.8054  0.4431
 8265TIP3    H124759   7.114   0.155   3.206 -1.1670  1.4619  0.6594
 8265TIP3    H224760   7.226   0.181   3.107 -0.1936  0.6248  1.5143
 8266TIP3   OH224761   1.152   3.421   5.746 -0.5654 -0.2594  0.1860
 8266TIP3    H124762   1.168   3.347   5.688  0.6009  1.1449 -1.3698
 8266TIP3    H224763   1.225   3.419   5.808  1.1734  1.2258 -1.6865
 8267TIP3   OH224764   3.542   1.511   0.256  0.5000 -0.3450  0.3147
 8267TIP3    H124765   3.635   1.497   0.275  0.2849 -1.5275  0.5698
 8267TIP3    H224766   3.496   1.461   0.323 -0.3001 -1.8766 -1.2919
 8268TIP3   OH224767   0.107   6.328   0.553 -0.6296 -0.0759  1.1813
 8268TIP3    H124768   0.047   6.331   0.479 -0.5796  2.0885  1.1898
 8268TIP3    H224769   0.194   6.342   0.516 -0.6492  1.5010  1.6448
 8269TIP3   OH224770   1.307   1.544   5.594  0.1013 -0.0613  0.5878
 8269TIP3    H124771   1.367   1.472   5.610  1.6654  1.4130  1.8055
 8269TIP3    H224772   1.363   1.618   5.573 -1.3954  1.0205  0.1962
 8270TIP3   OH224773   2.624   2.478   0.244  0.8822 -0.1561 -0.5400
 8270TIP3    H124774   2.684   2.549   0.221 -0.6393  0.9750 -1.1156
 8270TIP3    H224775   2.631   2.416   0.171  0.9927  0.1995 -0.8312
 8271TIP3   OH224776   6.579   6.115   2.845  0.0488  0.0963  0.0875
 8271TIP3    H124777   6.616   6.201   2.863  1.1465  0.1264 -2.0802
 8271TIP3    H224778   6.484   6.129   2.844  0.1785  1.0651  0.6669
 8272TIP3   OH224779   0.100   0.878   2.221  0.2971 -0.0071 -0.1471
 8272TIP3    H124780   0.149   0.947   2.177  1.3174 -0.7117 -0.1530
 8272TIP3    H224781   0.052   0.923   2.291  1.7136  0.5894  0.4775
 8273TIP3   OH224782   2.138   0.982   1.321 -0.2577 -0.0566  0.5229
 8273TIP3    H124783   2.230   0.989   1.347 -0.2117 -1.0212  0.6784
 8273TIP3    H224784   2.140   0.989   1.226 -0.0438  0.1515  0.5421
 8274TIP3   OH224785   1.911   5.684   4.347 -0.0064 -0.2871 -0.4101
 8274TIP3    H124786   1.824   5.680   4.387 -1.3392  1.5740 -2.8321
 8274TIP3    H224787   1.955   5.757   4.390 -1.0859  1.1312 -1.6429
 8275TIP3   OH224788   1.721   4.113   0.361  0.3810 -0.1808 -0.5085
 8275TIP3    H124789   1.648   4.079   0.310  1.0163  0.3111 -1.7954
 8275TIP3    H224790   1.683   4.135   0.446 -0.9079 -0.1642 -1.0676
 8276TIP3   OH224791   0.789   0.841   4.628  0.7764 -0.0935 -0.1385
 8276TIP3    H124792   0.829   0.922   4.596  0.2109 -0.0139 -0.6345
 8276TIP3    H224793   0.710   0.870   4.674  0.3041 -0.4028 -0.7512
 8277TIP3   OH224794   0.543   5.611   0.811  0.3594  0.3134 -0.4180
 8277TIP3    H124795   0.448   5.620   0.810  0.3891  0.9690  0.9896
 8277TIP3    H224796   0.577   5.700   0.812  0.9719  0.0903 -0.1898
 8278TIP3   OH224797   2.833   1.761   0.265  0.2628  0.1033 -0.2693
 8278TIP3    H124798   2.901   1.693   0.269 -0.4150 -0.5393  0.7755
 8278TIP3    H224799   2.875   1.834   0.219  0.8994 -1.1283 -1.7406
 8279TIP3   OH224800   2.250   3.039   5.187 -0.2362 -0.4732 -0.0498
 8279TIP3    H124801   2.319   3.049   5.252  1.3855 -1.7279 -1.4948
 8279TIP3    H224802   2.208   3.125   5.183  0.9917  0.2206  1.1197
 8280TIP3   OH224803   2.377   2.422   0.029  0.1669  0.4395  0.0038
 8280TIP3    H124804   2.461   2.452  -0.007  0.5797 -0.2005  0.4255
 8280TIP3    H224805   2.390   2.424   0.123 -0.8092  1.8181  0.1414
 8281TIP3   OH224806   4.130   0.848   3.257  0.1949 -0.0392 -0.1762
 8281TIP3    H124807   4.219   0.816   3.272 -0.5774 -2.0889  0.3291
 8281TIP3    H224808   4.142   0.937   3.223  2.3209  1.1707  3.2412
 8282TIP3   OH224809   1.139   1.289   2.192  0.2952  0.4445 -0.2979
 8282TIP3    H124810   1.046   1.279   2.209  0.4809 -0.9294  0.0439
 8282TIP3    H224811   1.150   1.382   2.171 -0.8021  1.0838  1.7140
 8283TIP3   OH224812   0.271   6.409   4.041  0.3492  0.3040  0.1654
 8283TIP3    H124813   0.355   6.440   4.008  0.2878 -0.3229 -0.6149
 8283TIP3    H224814   0.261   6.451   4.127  1.8898 -0.3220  0.6838
 8284TIP3   OH224815   4.380   2.609   0.060 -0.0279  0.3881  0.1466
 8284TIP3    H124816   4.333   2.665   0.121 -0.1908 -0.7980  1.1459
 8284TIP3    H224817   4.312   2.554   0.021  0.2298  0.3309 -0.2276
 8285TIP3   OH224818   4.509   2.897   4.150  0.2282  0.1736 -0.1661
 8285TIP3    H124819   4.530   2.945   4.230  1.0182 -1.3386  0.5712
 8285TIP3    H224820   4.584   2.912   4.092 -0.0113  0.6750 -0.3518
 8286TIP3   OH224821   1.674   4.273   5.269  0.2358  0.5451 -0.1337
 8286TIP3    H124822   1.742   4.240   5.327  0.7950  2.4987  0.3875
 8286TIP3    H224823   1.721   4.318   5.200 -0.5105  0.8941 -0.4214
 8287TIP3   OH224824   1.976   1.879   2.125 -0.3426 -0.4589  0.4861
 8287TIP3    H124825   1.985   1.831   2.207  0.4941  0.4833  0.9748
 8287TIP3    H224826   2.001   1.817   2.057 -1.1962 -1.2973  0.9163
 8288TIP3   OH224827   2.717   2.441   0.514 -0.6594 -0.5523 -0.2337
 8288TIP3    H124828   2.659   2.488   0.454  0.4527  0.1101 -0.8231
 8288TIP3    H224829   2.701   2.348   0.495 -1.7391 -0.3878 -0.1647
 8289TIP3   OH224830   5.837   2.612   3.335 -0.4494 -0.4409  0.1777
 8289TIP3    H124831   5.799   2.646   3.254  0.1678 -0.5525 -0.1605
 8289TIP3    H224832   5.930   2.631   3.328 -0.5659  0.8510  1.4922
 8290TIP3   OH224833   4.219   2.746   0.936  0.3718  0.0066  0.2119
 8290TIP3    H124834   4.178   2.804   0.872 -0.2891 -1.1852 -0.4638
 8290TIP3    H224835   4.308   2.779   0.944 -0.2603  1.7447  0.6192
 8291TIP3   OH224836   0.682   3.819   3.244 -0.0534 -0.7861  0.1673
 8291TIP3    H124837   0.603   3.854   3.203 -1.7815 -3.9600  0.4250
 8291TIP3    H224838   0.690   3.868   3.326 -0.1498  1.3889 -1.0555
 8292TIP3   OH224839   0.581   6.574   4.324  0.4974  0.0319  0.0859
 8292TIP3    H124840   0.549   6.597   4.411  0.3651 -0.2926  0.1248
 8292TIP3    H224841   0.571   6.654   4.273  2.3707  0.8254  0.8670
 8293TIP3   OH224842   4.203   0.664   1.992 -0.0992  0.0460  0.8975
 8293TIP3    H124843   4.277   0.717   1.963  0.1559  0.2968  1.9737
 8293TIP3    H224844   4.129   0.697   1.941  0.4961 -0.1072 -0.0808
 8294TIP3   OH224845   3.644   6.363   0.255  0.7606 -0.1341 -0.7147
 8294TIP3    H124846   3.597   6.392   0.333 -0.4245 -0.5666 -1.2473
 8294TIP3    H224847   3.726   6.412   0.257  1.8987 -1.9116  2.1280
 8295TIP3   OH224848   0.486   1.771   2.200  0.5042 -0.2404 -0.0389
 8295TIP3    H124849   0.509   1.692   2.150 -1.1003 -0.7343 -0.0564
 8295TIP3    H224850   0.391   1.766   2.209  0.5210  1.0547  1.0656
 8296TIP3   OH224851   6.014   4.808   4.060  1.1811  0.2260 -0.0286
 8296TIP3    H124852   5.931   4.833   4.100  1.7635 -1.3549  2.3507
 8296TIP3    H224853   6.068   4.887   4.065  0.6260  0.5677  0.6696
 8297TIP3   OH224854   2.637   3.782   4.077 -0.2024  0.1320 -0.1021
 8297TIP3    H124855   2.711   3.736   4.038  0.2436  0.8936 -0.1842
 8297TIP3    H224856   2.606   3.724   4.146  1.0238  0.1672  0.5067
 8298TIP3   OH224857   2.511   2.722   5.284  0.0045  0.1500  0.1361
 8298TIP3    H124858   2.476   2.723   5.194 -0.4060  0.9060  0.2886
 8298TIP3    H224859   2.436   2.747   5.338 -0.4588 -2.7063  0.9875
 8299TIP3   OH224860   0.913   6.775   0.597 -0.3351  0.2289  0.6293
 8299TIP3    H124861   0.910   6.689   0.556 -1.1028  0.2208  0.6812
 8299TIP3    H224862   0.990   6.772   0.654  0.7702  0.2513 -0.8036
 8300TIP3   OH224863   0.249   5.671   1.483 -0.0553 -0.4526 -0.4201
 8300TIP3    H124864   0.312   5.661   1.553  0.3647  1.6920 -0.4139
 8300TIP3    H224865   0.265   5.759   1.448  0.9862 -2.0313 -4.4454
 8301TIP3   OH224866   5.589   6.628   3.533  0.1186  0.4456 -0.0333
 8301TIP3    H124867   5.619   6.719   3.541 -0.0577  0.8510 -2.9438
 8301TIP3    H224868   5.659   6.576   3.573  3.9962  1.4774 -4.5401
 8302TIP3   OH224869   1.036   6.231   3.226  0.0091  0.3969  0.2711
 8302TIP3    H124870   1.051   6.322   3.252  1.7631  1.2847 -3.2509
 8302TIP3    H224871   0.944   6.214   3.251 -0.2497  2.9405  1.3763
 8303TIP3   OH224872   5.679   0.541   1.731 -0.1558  0.1441  0.0453
 8303TIP3    H124873   5.610   0.579   1.676 -0.4060  0.4624  0.5731
 8303TIP3    H224874   5.647   0.552   1.821 -0.0280 -0.9184  0.2374
 8304TIP3   OH224875   1.570   1.091   0.100 -0.0548 -0.1842  0.1747
 8304TIP3    H124876   1.602   1.071   0.188  1.6780 -1.6478 -0.7121
 8304TIP3    H224877   1.504   1.024   0.083  2.0813 -2.1900 -0.8489
 8305TIP3   OH224878   1.873   0.203   0.729  0.1600  0.0055 -0.6678
 8305TIP3    H124879   1.950   0.194   0.785  1.0943 -0.0632 -1.8936
 8305TIP3    H224880   1.855   0.114   0.699  0.6795  0.2318 -1.7121
 8306TIP3   OH224881   1.973   0.923   1.863 -0.1513 -0.3089 -0.0005
 8306TIP3    H124882   1.943   0.867   1.791  0.2037  1.3505 -1.4895
 8306TIP3    H224883   2.064   0.944   1.842  0.5173 -1.1121  1.8241
 8307TIP3   OH224884   2.458   0.724   1.243 -0.3726  0.5584  0.3345
 8307TIP3    H124885   2.446   0.701   1.336 -2.1258  0.0712  0.0383
 8307TIP3    H224886   2.552   0.718   1.229 -0.1861 -0.6563  1.7715
 8308TIP3   OH224887   0.373   2.718   1.368 -0.0815  0.3250  0.1412
 8308TIP3    H124888   0.411   2.779   1.304 -0.4832  0.5650  0.1279
 8308TIP3    H224889   0.310   2.770   1.417  2.0257  0.8228  2.5023
 8309TIP3   OH224890   2.235   1.191   5.291  0.2082  0.2457 -0.0335
 8309TIP3    H124891   2.217   1.186   5.385 -1.0850 -2.9755 -0.3146
 8309TIP3    H224892   2.166   1.247   5.256 -3.3515 -3.4212  0.3185
 8310TIP3   OH224893   4.626   3.953   3.785  0.0421 -0.1161 -0.1716
 8310TIP3    H124894   4.547   3.951   3.839  0.8329 -0.9392  1.0313
 8310TIP3    H224895   4.603   4.005   3.708 -0.9286  1.7213  1.2934
 8311TIP3   OH224896   7.142   2.798   1.127 -0.5820  0.1675 -0.6822
 8311TIP3    H124897   7.236   2.786   1.140 -0.3692  1.7006 -0.5737
 8311TIP3    H224898   7.134   2.823   1.035 -0.8995 -0.0441 -0.7141
 8312TIP3   OH224899   4.843   6.263   3.375 -0.2377 -0.2353  0.0181
 8312TIP3    H124900   4.764   6.210   3.370 -2.0188  2.1624  0.7248
 8312TIP3    H224901   4.848   6.309   3.291  0.1679 -0.0830  0.1199
 8313TIP3   OH224902   0.346   5.774   3.236  0.1125 -0.4758 -1.2204
 8313TIP3    H124903   0.347   5.681   3.214 -1.5913 -0.6564 -0.6836
 8313TIP3    H224904   0.337   5.776   3.332 -2.0304  0.1957 -1.3983
 8314TIP3   OH224905   5.246   3.959   0.008  0.4517  0.2188 -0.2663
 8314TIP3    H124906   5.298   3.906   0.068  0.9798 -0.7633 -1.5497
 8314TIP3    H224907   5.251   3.913  -0.076  1.1286  2.3976 -1.5098
 8315TIP3   OH224908   1.568   4.209   4.594  0.3962  0.4654  0.5350
 8315TIP3    H124909   1.490   4.159   4.572  1.3447 -0.9146  0.1829
 8315TIP3    H224910   1.627   4.144   4.633  2.2837  0.9176 -1.3807
 8316TIP3   OH224911   0.111   3.408   0.078  0.2791  0.0487 -0.0550
 8316TIP3    H124912   0.037   3.361   0.116  0.4877 -0.0396  0.2552
 8316TIP3    H224913   0.154   3.449   0.154  1.7561 -1.6118  0.0811
 8317TIP3   OH224914   0.636   5.879   0.816  0.2106 -0.0148 -0.3292
 8317TIP3    H124915   0.702   5.932   0.771  1.0677 -0.1499  0.7179
 8317TIP3    H224916   0.574   5.943   0.851  0.3782  0.1885 -0.3989
 8318TIP3   OH224917   4.128   0.283   5.243  0.0917 -0.4159 -0.2427
 8318TIP3    H124918   4.221   0.265   5.231  0.2786 -0.7690  1.4458
 8318TIP3    H224919   4.106   0.241   5.326 -0.8004  2.3965  1.0703
 8319TIP3   OH224920   6.679   4.863   2.700 -0.3483  0.2335  0.2591
 8319TIP3    H124921   6.724   4.948   2.706  3.0668 -1.4027  0.1405
 8319TIP3    H224922   6.651   4.857   2.609  2.5401 -0.0981 -0.7127
 8320TIP3   OH224923   0.011   1.233   1.862 -0.4504  0.0139 -0.5360
 8320TIP3    H124924   0.055   1.149   1.878  1.0674  0.7781 -0.5291
 8320TIP3    H224925  -0.034   1.221   1.779 -1.1830 -1.1521 -0.0117
 8321TIP3   OH224926   6.084   4.568   3.626  0.2099  0.0382 -0.1384
 8321TIP3    H124927   5.995   4.585   3.655  0.5863 -1.0947  1.8479
 8321TIP3    H224928   6.084   4.477   3.597  0.5301  0.2956 -0.9837
 8322TIP3   OH224929   3.425   1.217   0.809  0.0376  0.3559  0.2367
 8322TIP3    H124930   3.364   1.196   0.738  1.2881 -1.6271 -0.3446
 8322TIP3    H224931   3.503   1.165   0.789  0.1735 -0.8592  3.4642
 8323TIP3   OH224932   6.161   4.733   0.227  0.0308 -0.9487  0.0358
 8323TIP3    H124933   6.111   4.735   0.145  1.4879  1.7814 -0.9093
 8323TIP3    H224934   6.098   4.763   0.293  0.0176  1.5492 -0.9789
 8324TIP3   OH224935   6.959   0.884   2.710  0.7016  0.3147 -0.3813
 8324TIP3    H124936   6.957   0.927   2.795 -0.0727  0.8136 -0.6388
 8324TIP3    H224937   6.998   0.798   2.727  1.1126  0.6377  0.3580
 8325TIP3   OH224938   3.509   0.951   5.043  0.2906  0.4658 -0.0398
 8325TIP3    H124939   3.586   0.918   5.089  1.1798  1.0401 -1.0752
 8325TIP3    H224940   3.535   0.953   4.951 -1.0132  0.5377 -0.4238
 8326TIP3   OH224941   2.452   0.114   3.573 -0.1795 -0.5376 -0.0274
 8326TIP3    H124942   2.421   0.188   3.626  1.6148 -0.8019  1.5202
 8326TIP3    H224943   2.380   0.095   3.514 -2.5434 -0.4784  2.6122
 8327TIP3   OH224944   0.330   0.408   4.868  0.1995  0.9746 -0.0677
 8327TIP3    H124945   0.247   0.362   4.862  1.0603 -0.4354 -2.7643
 8327TIP3    H224946   0.340   0.451   4.783  2.7094  0.1288 -0.2876
 8328TIP3   OH224947   4.744   5.178   5.719  0.1505  0.3370  0.1703
 8328TIP3    H124948   4.836   5.203   5.719 -0.0540  1.3375 -1.9858
 8328TIP3    H224949   4.742   5.091   5.680  0.2620 -0.2705  1.4613
 8329TIP3   OH224950   2.893   3.950   2.356 -0.2257 -0.7417  0.2253
 8329TIP3    H124951   2.878   3.990   2.442 -2.1077 -1.2697  0.2017
 8329TIP3    H224952   2.816   3.975   2.305  1.2843  0.3338 -1.6595
 8330TIP3   OH224953   4.475   5.211   5.435 -0.7264  0.2162 -0.0754
 8330TIP3    H124954   4.425   5.215   5.354 -1.6401 -3.4839  0.1026
 8330TIP3    H224955   4.558   5.254   5.414 -1.5178  0.7484 -2.4549
 8331TIP3   OH224956   4.991   5.275   5.687  0.2853 -0.0245 -0.4025
 8331TIP3    H124957   5.029   5.296   5.601  0.7352 -0.3965 -0.2981
 8331TIP3    H224958   5.058   5.223   5.731  0.1223  0.2949  0.2390
 8332TIP3   OH224959   7.087   0.639   0.823  0.1727 -0.2213  0.1159
 8332TIP3    H124960   7.105   0.692   0.900  1.5439 -0.4427 -0.0245
 8332TIP3    H224961   7.085   0.549   0.855  1.9579 -0.4300 -0.2535
 8333TIP3   OH224962   0.848   4.596   0.694  0.2448 -0.2142 -0.2705
 8333TIP3    H124963   0.879   4.543   0.768  0.8172  0.5764  0.0648
 8333TIP3    H224964   0.889   4.556   0.617  1.1699  0.1037  0.0470
 8334TIP3   OH224965   6.936   4.784   1.264  0.5910 -0.2244  0.0032
 8334TIP3    H124966   6.876   4.777   1.338  0.2671 -2.2290 -0.3879
 8334TIP3    H224967   6.984   4.866   1.279 -1.2942  0.7526  1.0223
 8335TIP3   OH224968   6.184   1.017   2.125 -0.7167 -0.0957  0.1129
 8335TIP3    H124969   6.223   1.024   2.212 -0.0838 -0.2120 -0.1543
 8335TIP3    H224970   6.258   1.002   2.067 -1.1569 -0.2259 -0.4226
 8336TIP3   OH224971   4.451   3.428   3.277  0.6922  0.1853 -0.5410
 8336TIP3    H124972   4.500   3.433   3.359  2.3831 -0.3359 -1.4732
 8336TIP3    H224973   4.415   3.339   3.276  1.4596 -0.1284 -0.7827
 8337TIP3   OH224974   6.107   3.433   3.887  0.2718  0.6864  0.5244
 8337TIP3    H124975   6.028   3.461   3.841  1.1731  0.7085 -1.1101
 8337TIP3    H224976   6.086   3.442   3.980 -1.1812  1.9532  0.1147
 8338TIP3   OH224977   6.741   2.791   4.514  0.3049 -0.2835  0.1673
 8338TIP3    H124978   6.682   2.858   4.549 -0.1872  0.4556 -1.9268
 8338TIP3    H224979   6.826   2.813   4.552 -0.1028  0.7821  0.5183
 8339TIP3   OH224980   2.500   2.838   1.362 -0.4067  0.6682  0.5127
 8339TIP3    H124981   2.416   2.883   1.354 -0.3028  0.9121  0.7577
 8339TIP3    H224982   2.488   2.778   1.436 -0.8165 -0.3290 -0.3486
 8340TIP3   OH224983   2.401   3.123   4.951 -0.2406 -0.5074  0.2258
 8340TIP3    H124984   2.366   3.120   5.040  1.1497  0.9983  0.8583
 8340TIP3    H224985   2.488   3.083   4.958 -0.0845 -0.2923 -0.4294
 8341TIP3   OH224986   0.291   6.664   3.173  0.1211  0.1256 -0.2089
 8341TIP3    H124987   0.264   6.593   3.231 -1.3816  0.1116 -0.8838
 8341TIP3    H224988   0.289   6.742   3.227  0.4213 -0.1381  0.1887
 8342TIP3   OH224989   6.545   5.568   0.663  0.2696 -0.5701  0.5457
 8342TIP3    H124990   6.498   5.630   0.720  1.1462  0.8873 -0.2467
 8342TIP3    H224991   6.614   5.532   0.719  0.7276  0.3724  0.6182
 8343TIP3   OH224992   0.122   1.382   2.961 -0.2691 -0.1964 -0.5783
 8343TIP3    H124993   0.190   1.360   2.898 -1.1560 -1.5087 -1.1243
 8343TIP3    H224994   0.163   1.447   3.019  1.0521 -0.0981 -1.5704
 8344TIP3   OH224995   2.773   5.602   4.020 -0.0310 -0.2027 -0.2373
 8344TIP3    H124996   2.709   5.610   3.949  0.4410  0.1528 -0.6264
 8344TIP3    H224997   2.823   5.683   4.017 -1.3476  0.7625  1.8428
 8345TIP3   OH224998   0.790   2.081   1.642 -0.7671  0.3081  0.4193
 8345TIP3    H124999   0.792   2.143   1.569 -2.2466 -0.6943 -0.5322
 8345TIP3    H225000   0.874   2.036   1.637 -0.8106  0.3154 -0.6329
 8346TIP3   OH225001   4.777   0.808   1.056 -0.4227  0.5432  0.3917
 8346TIP3    H125002   4.835   0.734   1.068  0.3189  1.1743  0.8340
 8346TIP3    H225003   4.736   0.795   0.971  1.3243  0.7213 -0.5144
 8347TIP3   OH225004   2.834   4.856   4.163 -0.2018  0.0679 -0.4593
 8347TIP3    H125005   2.845   4.764   4.138 -2.0282  0.2727 -2.3055
 8347TIP3    H225006   2.791   4.853   4.249  0.7169 -0.7610 -0.0085
 8348TIP3   OH225007   3.873   2.995   2.173 -1.0338  0.0386  1.0427
 8348TIP3    H125008   3.785   3.028   2.158 -0.6340  0.5863 -0.1910
 8348TIP3    H225009   3.879   2.917   2.118  0.1044  1.4923 -1.0441
 8349TIP3   OH225010   4.414   4.644   3.082 -0.4719 -0.3916 -0.2167
 8349TIP3    H125011   4.421   4.655   2.987  0.3882 -1.4625 -0.2873
 8349TIP3    H225012   4.387   4.553   3.094 -3.2437  0.4107  0.5056
 8350TIP3   OH225013   3.122   4.155   3.828 -0.6293 -0.0866  0.2146
 8350TIP3    H125014   3.103   4.240   3.869  0.2455 -0.4005  1.3160
 8350TIP3    H225015   3.199   4.122   3.875 -0.0584 -0.8298 -1.1893
 8351TIP3   OH225016   1.623   3.888   1.387 -0.7433 -0.4496 -0.1695
 8351TIP3    H125017   1.563   3.839   1.332  0.7068 -2.2356 -0.2495
 8351TIP3    H225018   1.680   3.821   1.426  0.5642  1.0747  0.6525
 8352TIP3   OH225019   3.399   3.888   4.730  0.1642  0.8394 -0.3809
 8352TIP3    H125020   3.476   3.940   4.754  0.1298  0.0870  1.5212
 8352TIP3    H225021   3.385   3.831   4.806 -3.9533  2.8856  0.6732
 8353TIP3   OH225022   4.124   1.767   1.430  0.3736 -0.4059  0.4380
 8353TIP3    H125023   4.049   1.725   1.473 -0.0512 -0.8705 -0.7195
 8353TIP3    H225024   4.120   1.736   1.340 -0.0066  2.1502 -0.5073
 8354TIP3   OH225025   6.586   5.133   1.183 -0.4901 -0.0076  0.0059
 8354TIP3    H125026   6.539   5.050   1.180 -0.1481 -0.3100  1.7541
 8354TIP3    H225027   6.523   5.196   1.217 -0.3366  0.1201  0.0575
 8355TIP3   OH225028   1.851   2.854   4.243 -0.3485 -0.1919  0.3042
 8355TIP3    H125029   1.899   2.798   4.182 -2.1954 -1.1822 -0.3299
 8355TIP3    H225030   1.870   2.817   4.329  1.8419  0.8841  0.3651
 8356TIP3   OH225031   5.227   3.326   0.736 -0.3326 -0.0873 -0.3721
 8356TIP3    H125032   5.237   3.309   0.642  0.5206 -2.6289  0.0967
 8356TIP3    H225033   5.214   3.239   0.775 -1.8727  1.0184  1.7477
 8357TIP3   OH225034   6.268   0.442   3.372 -0.2469  0.4910 -0.3875
 8357TIP3    H125035   6.223   0.379   3.316 -1.2906 -0.1612  1.1221
 8357TIP3    H225036   6.355   0.451   3.332 -0.2956 -1.3799 -1.0347
 8358TIP3   OH225037   6.861   3.831   5.384  0.2291 -0.2554  0.3450
 8358TIP3    H125038   6.818   3.746   5.372 -0.2178 -0.0502  0.4851
 8358TIP3    H225039   6.908   3.823   5.466 -0.5672 -0.0601  0.8338
 8359TIP3   OH225040   2.763   1.883   2.069  0.1123 -0.6966 -0.4435
 8359TIP3    H125041   2.788   1.808   2.015 -1.0482 -0.9453 -0.6807
 8359TIP3    H225042   2.708   1.936   2.011 -0.1680 -0.3479  0.1336
 8360TIP3   OH225043   7.056   5.604   5.064  0.2021 -0.4585  0.1879
 8360TIP3    H125044   7.057   5.528   5.006  0.7852 -0.7038  0.5163
 8360TIP3    H225045   7.147   5.615   5.092 -0.1122 -0.5382  1.3068
 8361TIP3   OH225046   5.894   1.122   3.864  0.2706 -0.1825 -0.2749
 8361TIP3    H125047   5.860   1.034   3.846  0.0549 -0.1403 -0.0797
 8361TIP3    H225048   5.849   1.149   3.944  3.3231 -1.5048  2.0833
 8362TIP3   OH225049   2.559   3.651   3.565 -0.5572  0.0926 -0.2658
 8362TIP3    H125050   2.548   3.642   3.470  1.8922 -1.0754 -0.5295
 8362TIP3    H225051   2.601   3.736   3.577 -1.2686  0.4384 -0.1545
 8363TIP3   OH225052   0.286   2.526   3.320  0.1312 -0.1915  0.3756
 8363TIP3    H125053   0.236   2.582   3.380  0.2921 -1.5774  1.8579
 8363TIP3    H225054   0.223   2.461   3.290  1.0325 -2.2200  2.5948
 8364TIP3   OH225055   6.577   1.404   0.971 -0.5103 -0.0625  0.2569
 8364TIP3    H125056   6.596   1.496   0.952  2.7566 -0.8668 -0.8862
 8364TIP3    H225057   6.559   1.366   0.885 -0.3829 -0.8052  0.5591
 8365TIP3   OH225058   2.289   2.894   2.517  0.0333  0.3980  0.3147
 8365TIP3    H125059   2.335   2.940   2.587 -2.5314  1.5344  1.4038
 8365TIP3    H225060   2.286   2.957   2.445  0.3428  0.2596  0.1819
 8366TIP3   OH225061   5.063   5.051   5.511 -0.4027  0.3092 -0.0988
 8366TIP3    H125062   4.990   5.018   5.458  0.4015 -0.9782 -0.4526
 8366TIP3    H225063   5.127   5.082   5.446 -0.1028  0.2568  0.1718
 8367TIP3   OH225064   4.371   2.851   1.820 -0.1627  0.4515 -0.5913
 8367TIP3    H125065   4.421   2.873   1.742  0.3127  1.6357  0.0213
 8367TIP3    H225066   4.290   2.901   1.812 -0.4798 -0.0712 -0.7163
 8368TIP3   OH225067   6.578   4.134   2.204  1.0120  0.5151 -0.3861
 8368TIP3    H125068   6.521   4.057   2.209  0.1211  1.2307  0.7077
 8368TIP3    H225069   6.667   4.097   2.199  0.6014 -0.5831  0.2255
 8369TIP3   OH225070   6.510   0.472   4.344  0.7372  0.0656  0.2260
 8369TIP3    H125071   6.581   0.440   4.401  0.4887 -0.8474  0.0416
 8369TIP3    H225072   6.430   0.445   4.389  0.4701  1.6504  0.7544
 8370TIP3   OH225073   0.235   1.278   4.859 -0.1037 -0.4012 -0.3726
 8370TIP3    H125074   0.322   1.291   4.896  0.4812  0.1312 -1.8373
 8370TIP3    H225075   0.180   1.251   4.933  0.1743  3.6907  1.5920
 8371TIP3   OH225076   1.995   6.480   0.699 -0.7239 -0.2017 -0.6682
 8371TIP3    H125077   1.983   6.455   0.608 -1.2016 -1.1234 -0.3635
 8371TIP3    H225078   1.924   6.436   0.746 -1.1431  1.1202  0.0072
 8372TIP3   OH225079   1.089   5.094   5.274  0.0125  0.0147 -0.1850
 8372TIP3    H125080   1.113   5.068   5.363 -0.2365 -0.1017 -0.1528
 8372TIP3    H225081   1.076   5.189   5.280 -0.0612 -0.0011 -0.0850
 8373TIP3   OH225082   6.678   2.629   3.859 -0.1646  0.0076  0.3030
 8373TIP3    H125083   6.722   2.590   3.935  0.8320 -2.6648 -1.4950
 8373TIP3    H225084   6.745   2.683   3.817  0.8932 -2.2856 -1.1843
 8374TIP3   OH225085   0.511   6.719   1.358 -0.1719 -0.0305 -0.4459
 8374TIP3    H125086   0.505   6.666   1.279 -1.4917 -1.6651  0.6716
 8374TIP3    H225087   0.601   6.707   1.388  0.4134  0.7882 -1.7551
 8375TIP3   OH225088   4.694   5.397   4.579 -0.4005 -0.5561 -0.6014
 8375TIP3    H125089   4.735   5.472   4.623 -0.3715 -1.4796  1.0103
 8375TIP3    H225090   4.700   5.418   4.485 -0.9661  1.7524 -0.1937
 8376TIP3   OH225091   2.214   6.213   4.235  0.0501 -0.6765  0.7796
 8376TIP3    H125092   2.144   6.217   4.170 -0.4544 -0.1629  1.3517
 8376TIP3    H225093   2.284   6.267   4.197 -1.0710  1.4967  1.6204
 8377TIP3   OH225094   1.889   1.775   0.505  0.0493  0.1610  0.1516
 8377TIP3    H125095   1.866   1.867   0.514 -2.7290 -0.5555  1.7282
 8377TIP3    H225096   1.806   1.731   0.491  1.0023 -2.3378  1.6864
 8378TIP3   OH225097   0.369   6.651   2.516  0.3499 -0.0230 -0.0271
 8378TIP3    H125098   0.385   6.566   2.557  4.1179  0.3295 -0.4076
 8378TIP3    H225099   0.394   6.639   2.424 -0.4421  1.1621 -0.4266
 8379TIP3   OH225100   1.361   3.327   3.787  0.1242 -0.0161  0.4349
 8379TIP3    H125101   1.342   3.261   3.854 -3.4289  1.2985  0.9160
 8379TIP3    H225102   1.307   3.302   3.712 -0.3546  1.6625  0.1816
 8380TIP3   OH225103   2.373   4.898   2.982  0.4172 -0.0631 -0.3387
 8380TIP3    H125104   2.367   4.821   2.926 -0.0833  0.0954 -0.5084
 8380TIP3    H225105   2.297   4.950   2.959 -0.8797 -0.8725  1.8142
 8381TIP3   OH225106   2.744   5.202   2.184  0.1830  0.6548  0.3546
 8381TIP3    H125107   2.690   5.277   2.158 -1.0435 -0.3087  0.0281
 8381TIP3    H225108   2.808   5.238   2.246  0.2383  2.1408 -0.5228
 8382TIP3   OH225109   1.725   6.103   4.502 -0.3365 -0.1476  0.2827
 8382TIP3    H125110   1.631   6.114   4.486 -0.4477 -0.7070  0.5132
 8382TIP3    H225111   1.758   6.192   4.516 -0.5217  0.2151 -1.3727
 8383TIP3   OH225112   7.137   1.132   1.627  0.0223  0.7632  0.0530
 8383TIP3    H125113   7.160   1.050   1.583  0.6558  0.8801  0.1540
 8383TIP3    H225114   7.115   1.191   1.555 -1.1905  0.2940  0.0139
 8384TIP3   OH225115   1.476   0.273   3.476 -0.0342 -0.9230  0.1091
 8384TIP3    H125116   1.560   0.240   3.508  0.2989 -1.3843 -1.1979
 8384TIP3    H225117   1.457   0.221   3.398 -0.1765  1.0013 -1.2227
 8385TIP3   OH225118   2.544   3.695   2.116  0.4491  0.1878  0.2464
 8385TIP3    H125119   2.464   3.691   2.063  0.1295 -0.4628  0.7541
 8385TIP3    H225120   2.538   3.778   2.163 -0.0639  0.0126  0.4918
 8386TIP3   OH225121   5.477   5.086   4.663  0.1253 -0.0352 -0.1194
 8386TIP3    H125122   5.546   5.146   4.636  0.7549 -0.3915  0.6559
 8386TIP3    H225123   5.451   5.117   4.750  0.7726 -1.1247  0.4884
 8387TIP3   OH225124   6.333   1.259   2.800 -0.2227 -0.0533  0.0838
 8387TIP3    H125125   6.353   1.293   2.712  1.8360  0.2650  0.6165
 8387TIP3    H225126   6.410   1.206   2.823 -1.7533 -2.1068  0.7714
 8388TIP3   OH225127   4.971   5.992   3.889  0.1917 -0.0971  0.3519
 8388TIP3    H125128   4.965   5.912   3.941  0.3564  0.5930  1.4463
 8388TIP3    H225129   4.882   6.026   3.885  0.1026 -0.3774 -0.2054
 8389TIP3   OH225130   1.521   3.811   4.579  0.3825 -0.3535  0.3979
 8389TIP3    H125131   1.616   3.821   4.588  0.2937  3.9991 -1.1977
 8389TIP3    H225132   1.509   3.776   4.490  0.5509  1.5527 -0.4219
 8390TIP3   OH225133   6.495   0.716   0.568  0.7225  0.0258 -0.3838
 8390TIP3    H125134   6.509   0.705   0.474  0.7137 -2.1172 -0.1824
 8390TIP3    H225135   6.556   0.654   0.609  1.2378  1.4195  1.0843
 8391TIP3   OH225136   3.050   4.170   2.183 -0.0251  0.5520 -0.2355
 8391TIP3    H125137   3.059   4.131   2.270  0.3577  0.1495 -0.4497
 8391TIP3    H225138   3.106   4.248   2.185  2.0632 -0.8337 -0.9108
 8392TIP3   OH225139   5.047   4.339   3.158  0.3807 -0.2437 -0.0611
 8392TIP3    H125140   5.129   4.387   3.162  1.1029 -1.4196 -0.4160
 8392TIP3    H225141   5.069   4.256   3.116 -0.2731 -2.0620  2.9021
 8393TIP3   OH225142   2.869   2.826   3.473 -0.1356 -0.4318  0.2585
 8393TIP3    H125143   2.790   2.878   3.487  0.2993  0.6978 -1.1898
 8393TIP3    H225144   2.838   2.742   3.440 -0.8302 -1.0559  2.3003
 8394TIP3   OH225145   5.487   1.817   5.754  0.5816  0.5182 -0.2141
 8394TIP3    H125146   5.549   1.868   5.806  2.1947 -0.5750 -0.9995
 8394TIP3    H225147   5.433   1.883   5.710  0.2881  1.4781  1.4763
 8395TIP3   OH225148   5.269   3.409   5.359  0.5518  0.0747 -0.4583
 8395TIP3    H125149   5.210   3.477   5.392  1.1320  0.9096 -1.1046
 8395TIP3    H225150   5.255   3.408   5.264 -0.5073 -1.7364 -0.3244
 8396TIP3   OH225151   0.829   1.026   1.339 -0.0830  0.2724 -0.1809
 8396TIP3    H125152   0.763   0.988   1.282  0.1221 -0.2688 -0.0597
 8396TIP3    H225153   0.910   1.024   1.288  0.1094 -0.2487  0.1388
 8397TIP3   OH225154   6.833   0.894   3.531  0.0014 -0.4140  0.1957
 8397TIP3    H125155   6.794   0.848   3.457 -0.0220  0.5283 -0.3935
 8397TIP3    H225156   6.897   0.832   3.567 -1.7420 -1.8699  0.9819
 8398TIP3   OH225157   4.866   2.645   1.851 -0.5574  0.2401  0.2240
 8398TIP3    H125158   4.823   2.693   1.922  0.3290 -2.5692  2.8208
 8398TIP3    H225159   4.957   2.638   1.878 -0.0807 -0.5230 -1.4593
 8399TIP3   OH225160   6.503   1.590   2.008  0.3712  0.6032 -0.8795
 8399TIP3    H125161   6.488   1.660   1.945 -0.5134 -0.4099 -1.8314
 8399TIP3    H225162   6.444   1.610   2.081 -1.9796 -0.5907 -2.3591
 8400TIP3   OH225163   2.215   1.655   3.066  0.1748 -0.0181  0.9992
 8400TIP3    H125164   2.309   1.669   3.064  0.0141  1.1903  1.2240
 8400TIP3    H225165   2.177   1.743   3.065 -0.9883 -0.4784 -0.6473
 8401TIP3   OH225166   0.880   6.468   3.502 -0.1068 -0.2892 -0.5091
 8401TIP3    H125167   0.859   6.375   3.508 -0.5287 -0.1834 -0.3285
 8401TIP3    H225168   0.900   6.482   3.410  0.2862 -0.6291 -0.4749
 8402TIP3   OH225169   3.842   0.899   1.600  0.3215  0.2367  0.2221
 8402TIP3    H125170   3.932   0.899   1.631  0.3606  0.0248  0.1095
 8402TIP3    H225171   3.827   0.810   1.568 -0.4100 -0.1636  1.6098
 8403TIP3   OH225172   5.073   2.103   1.201 -0.1641  0.7975 -0.3201
 8403TIP3    H125173   5.107   2.029   1.151  2.2396  0.2359  1.9027
 8403TIP3    H225174   5.115   2.180   1.163  3.1280  0.2126  1.7036
 8404TIP3   OH225175   5.658   1.498   1.600  0.7333  0.0527  0.0542
 8404TIP3    H125176   5.640   1.481   1.508 -0.8228  1.8780 -0.0308
 8404TIP3    H225177   5.619   1.424   1.646 -0.2814  0.1316 -0.6453
 8405TIP3   OH225178   4.816   1.639   0.481  0.0337  0.2130 -0.2936
 8405TIP3    H125179   4.805   1.731   0.459 -0.4601  0.5529  1.2278
 8405TIP3    H225180   4.896   1.636   0.534  0.1649 -0.2682 -0.5090
 8406TIP3   OH225181   2.357   2.442   5.342  0.0936 -0.1209 -0.5836
 8406TIP3    H125182   2.447   2.419   5.321 -0.7742 -2.5393 -2.0525
 8406TIP3    H225183   2.330   2.501   5.272  0.2721 -0.0934 -0.6289
 8407TIP3   OH225184   1.380   4.028   1.549 -0.6335 -0.1344  0.4092
 8407TIP3    H125185   1.407   4.107   1.596 -0.1589 -0.0858  0.0707
 8407TIP3    H225186   1.374   4.056   1.457 -0.5088 -0.4751  0.2954
 8408TIP3   OH225187   6.279   0.276   2.428  0.2295 -0.5912 -0.9207
 8408TIP3    H125188   6.289   0.189   2.391 -0.2420 -1.2741  0.4714
 8408TIP3    H225189   6.188   0.300   2.408  0.6215 -0.0179 -2.0831
 8409TIP3   OH225190   4.168   0.292   3.680 -0.2092 -0.6856  0.2470
 8409TIP3    H125191   4.215   0.211   3.660  0.1278 -0.5047  0.2945
 8409TIP3    H225192   4.115   0.272   3.757  0.1386 -0.7626  0.4685
 8410TIP3   OH225193   2.120   2.885   5.640 -0.1387 -0.1781 -0.5512
 8410TIP3    H125194   2.129   2.970   5.598  2.1704 -0.3619 -0.5799
 8410TIP3    H225195   2.026   2.871   5.647 -0.5754  2.1578 -0.9503
 8411TIP3   OH225196   6.661   3.446   1.342 -0.4051  0.4049 -0.3999
 8411TIP3    H125197   6.637   3.373   1.284 -1.9117  0.4883  0.0784
 8411TIP3    H225198   6.579   3.495   1.353 -0.3818 -0.0629  2.4353
 8412TIP3   OH225199   3.278   5.015   5.018  0.0018 -0.1413  0.3176
 8412TIP3    H125200   3.323   5.035   5.100  1.6307 -0.9348 -0.3309
 8412TIP3    H225201   3.190   5.050   5.029  0.4093  0.3969  2.1213
 8413TIP3   OH225202   2.870   3.189   4.883  0.2851 -0.3838 -0.3198
 8413TIP3    H125203   2.932   3.244   4.932  0.7878 -0.4195 -0.9098
 8413TIP3    H225204   2.865   3.108   4.934 -1.6876  0.7460  1.4490
 8414TIP3   OH225205   0.767   3.475   3.968 -0.8479  0.4520 -0.4706
 8414TIP3    H125206   0.783   3.413   3.897 -0.2857  0.0103  0.0276
 8414TIP3    H225207   0.846   3.469   4.023 -1.8634 -0.2736  0.9608
 8415TIP3   OH225208   5.060   6.229   1.200  0.2975  0.4516  0.3348
 8415TIP3    H125209   5.070   6.248   1.107  0.6136 -0.2739  0.2134
 8415TIP3    H225210   5.058   6.133   1.205  3.2452  0.3396  1.3307
 8416TIP3   OH225211   2.361   3.759   1.470  0.1984 -0.2856  0.0323
 8416TIP3    H125212   2.453   3.740   1.451  0.2852  0.5514 -0.4331
 8416TIP3    H225213   2.313   3.707   1.406  0.4482  1.3393 -1.5727
 8417TIP3   OH225214   4.949   6.454   0.488  0.6258 -0.1082  0.0035
 8417TIP3    H125215   4.885   6.494   0.546  1.1418  0.7450  0.0033
 8417TIP3    H225216   5.008   6.525   0.465  1.1607 -0.7215 -0.5601
 8418TIP3   OH225217   3.594   4.831   1.918 -0.0344 -0.0028  0.6884
 8418TIP3    H125218   3.515   4.820   1.864 -0.2878 -0.4548  1.1426
 8418TIP3    H225219   3.566   4.884   1.992  0.0254 -0.3663  0.9755
 8419TIP3   OH225220   4.993   0.386   0.031  0.0769  0.6683 -0.2047
 8419TIP3    H125221   4.953   0.355   0.112 -1.1795  0.7596 -0.7638
 8419TIP3    H225222   5.032   0.470   0.054 -1.2386  1.2228  0.0726
 8420TIP3   OH225223   5.439   4.549   2.482 -0.4497 -0.5887 -0.0253
 8420TIP3    H125224   5.482   4.593   2.409  1.3465 -1.0776  0.6968
 8420TIP3    H225225   5.370   4.610   2.510  1.6820  1.6511  0.6797
 8421TIP3   OH225226   4.729   0.962   2.500 -0.5356 -0.4169 -0.0811
 8421TIP3    H125227   4.702   1.053   2.488  1.8346  0.3363 -0.0507
 8421TIP3    H225228   4.800   0.966   2.564  0.0582 -2.2226 -0.5868
 8422TIP3   OH225229   2.085   1.528   0.816 -0.2749 -0.0100 -0.6660
 8422TIP3    H125230   2.031   1.453   0.842  2.0698 -1.2888  0.8159
 8422TIP3    H225231   2.128   1.499   0.735  0.4453 -0.1871 -0.2253
 8423TIP3   OH225232   6.494   6.458   5.735  0.0789 -1.0186 -0.4197
 8423TIP3    H125233   6.538   6.380   5.767  0.8251  0.1164  1.4641
 8423TIP3    H225234   6.541   6.481   5.655 -1.1769 -3.3378 -1.9570
 8424TIP3   OH225235   2.319   6.135   2.007  0.2341  0.2819  0.2245
 8424TIP3    H125236   2.350   6.136   2.097 -1.5617 -0.9992  0.9245
 8424TIP3    H225237   2.311   6.228   1.983  1.4569  0.6268  1.0866
 8425TIP3   OH225238   4.201   6.542   2.859 -0.3599 -0.2012 -0.0807
 8425TIP3    H125239   4.220   6.628   2.821 -1.4020  0.4021  0.6971
 8425TIP3    H225240   4.106   6.543   2.874 -0.5134 -1.8084 -0.7961
 8426TIP3   OH225241   2.438   0.236   0.646  0.3697 -0.5101 -0.2712
 8426TIP3    H125242   2.435   0.187   0.728 -0.0669 -1.0523 -0.5946
 8426TIP3    H225243   2.367   0.198   0.594 -0.7885  1.3010 -0.0896
 8427TIP3   OH225244   2.047   0.728   1.436  0.2218 -0.1177 -0.1291
 8427TIP3    H125245   2.114   0.788   1.404 -1.7580  3.3386  1.5958
 8427TIP3    H225246   1.998   0.704   1.358  0.1896  1.8034 -0.7660
 8428TIP3   OH225247   0.270   0.123   4.984 -0.8622  0.1745 -0.0551
 8428TIP3    H125248   0.316   0.126   4.900 -2.4007 -0.3084 -0.9378
 8428TIP3    H225249   0.183   0.090   4.963 -1.8018  1.5290  1.5074
 8429TIP3   OH225250   2.004   0.710   4.583  0.2279  0.3682 -0.1450
 8429TIP3    H125251   1.980   0.792   4.626 -0.4065  0.0796  0.0665
 8429TIP3    H225252   1.988   0.643   4.649  0.7030  0.0689 -0.3325
 8430TIP3   OH225253   1.584   6.116   2.441  0.0889  0.2998 -0.1695
 8430TIP3    H125254   1.656   6.119   2.504 -0.1008  0.5898  0.0397
 8430TIP3    H225255   1.621   6.074   2.364  0.0338 -1.0233  0.4992
 8431TIP3   OH225256   4.975   5.758   4.058  0.0568 -0.0338  0.1057
 8431TIP3    H125257   4.904   5.734   4.117  1.0798 -1.0701  0.9569
 8431TIP3    H225258   4.995   5.678   4.010  0.2454  0.4177 -0.5910
 8432TIP3   OH225259   5.065   1.910   1.789 -0.9760 -0.1923  0.2041
 8432TIP3    H125260   5.008   1.981   1.758 -0.5819 -0.1275 -0.4039
 8432TIP3    H225261   5.054   1.840   1.724  0.1920  0.1117 -0.3522
 8433TIP3   OH225262   0.815   0.851   5.168 -0.4329  0.8516 -0.3200
 8433TIP3    H125263   0.813   0.947   5.165  2.9553  1.0004 -1.1712
 8433TIP3    H225264   0.835   0.831   5.260  0.6999  1.0790 -0.5037
 8434TIP3   OH225265   2.217   3.272   0.733 -0.4912 -0.4036 -0.0593
 8434TIP3    H125266   2.256   3.245   0.650  0.7736  2.6086 -0.5829
 8434TIP3    H225267   2.145   3.331   0.708  0.2194  0.9297  0.9116
 8435TIP3   OH225268   4.837   4.697   0.119 -0.0689 -0.1715 -0.1189
 8435TIP3    H125269   4.746   4.713   0.094  0.9479 -0.5741 -5.3650
 8435TIP3    H225270   4.871   4.784   0.141 -1.4444  0.1116  1.0379
 8436TIP3   OH225271   5.451   4.948   3.242 -0.3621 -0.6726  0.0750
 8436TIP3    H125272   5.362   4.920   3.260 -0.5879  0.5837  1.0160
 8436TIP3    H225273   5.444   5.042   3.226  0.9754 -0.2495  1.7315
 8437TIP3   OH225274   4.915   1.748   1.575  0.2384 -0.6086  0.0231
 8437TIP3    H125275   4.863   1.810   1.524 -2.6317  0.8641  4.2394
 8437TIP3    H225276   4.865   1.667   1.574  0.6064 -0.8376 -0.1526
 8438TIP3   OH225277   3.827   5.476   4.049  0.0665 -0.2741 -0.4324
 8438TIP3    H125278   3.803   5.442   4.135  2.2449 -0.5110  0.1456
 8438TIP3    H225279   3.753   5.531   4.024 -0.4582  0.1557  1.7924
 8439TIP3   OH225280   4.034   4.581   4.863 -0.4233  0.7343  0.1801
 8439TIP3    H125281   4.106   4.569   4.802 -2.0879  0.8124 -1.9047
 8439TIP3    H225282   4.003   4.670   4.847 -0.9092  0.7448  1.1054
 8440TIP3   OH225283   6.626   6.478   5.100 -0.2926  0.3034 -0.0129
 8440TIP3    H125284   6.548   6.457   5.048  0.0599  1.2984 -0.9831
 8440TIP3    H225285   6.699   6.470   5.039  0.0396  2.4671 -0.0053
 8441TIP3   OH225286   3.270   1.781   4.588  0.1631  0.4383  0.0482
 8441TIP3    H125287   3.361   1.757   4.606  0.2950  1.3782  0.7328
 8441TIP3    H225288   3.227   1.777   4.674 -0.1267  1.2817 -0.0494
 8442TIP3   OH225289   1.127   0.619   5.605 -0.0958 -0.4930  0.1111
 8442TIP3    H125290   1.088   0.661   5.529 -0.2416 -1.8974 -0.6137
 8442TIP3    H225291   1.211   0.664   5.616  0.3720 -0.9104 -1.4915
 8443TIP3   OH225292   1.907   6.135   3.020 -0.7956  0.0823 -0.2108
 8443TIP3    H125293   1.990   6.086   3.020 -1.6066 -1.3579 -0.2077
 8443TIP3    H225294   1.849   6.083   2.965 -2.0658  0.4226  0.7635
 8444TIP3   OH225295   6.242   3.522   0.311 -0.4689 -0.5349 -0.0197
 8444TIP3    H125296   6.213   3.605   0.348 -2.6366 -1.5637  0.7213
 8444TIP3    H225297   6.171   3.460   0.329  0.9140 -2.4965 -0.8337
 8445TIP3   OH225298   0.823   4.961   2.447 -0.7089  0.2912  0.4471
 8445TIP3    H125299   0.775   4.892   2.401 -0.7262  0.2753  0.4884
 8445TIP3    H225300   0.788   5.043   2.411  1.1585  0.2971 -1.5279
 8446TIP3   OH225301   6.833   3.186   1.805  0.2159  0.7160 -0.6279
 8446TIP3    H125302   6.872   3.248   1.743  1.2469 -0.3670 -1.0988
 8446TIP3    H225303   6.873   3.209   1.889  1.2690  0.1672 -0.9548
 8447TIP3   OH225304   3.624   2.684   1.681 -0.1824 -0.1579 -0.9574
 8447TIP3    H125305   3.532   2.680   1.707 -0.6114  2.7898 -1.6340
 8447TIP3    H225306   3.657   2.763   1.724  1.8659 -0.8132 -1.2396
 8448TIP3   OH225307   5.137   6.115   2.794  0.2091 -0.0016  0.2326
 8448TIP3    H125308   5.066   6.064   2.755 -0.4259  0.6186  0.5539
 8448TIP3    H225309   5.199   6.050   2.825  0.3059 -0.5324 -1.0165
 8449TIP3   OH225310   1.377   5.265   1.747 -0.4038 -0.2170 -1.3672
 8449TIP3    H125311   1.314   5.213   1.796 -0.6980  1.1210 -0.2748
 8449TIP3    H225312   1.462   5.237   1.780 -0.4668 -1.0469 -1.8668
 8450TIP3   OH225313   5.206   0.833   1.721 -0.4915  0.2709  0.1580
 8450TIP3    H125314   5.222   0.739   1.715 -1.7152  0.0946 -0.7851
 8450TIP3    H225315   5.268   0.864   1.787  0.5807 -1.0363 -0.1930
 8451TIP3   OH225316   5.893   0.670   1.501  0.1970  0.0492  0.4495
 8451TIP3    H125317   5.966   0.608   1.509  0.3910  0.1686 -0.2994
 8451TIP3    H225318   5.817   0.615   1.481  0.2347 -0.0096  0.4672
 8452TIP3   OH225319   4.675   1.564   4.637 -0.1324  0.7370  0.3719
 8452TIP3    H125320   4.710   1.647   4.671  1.6305 -0.2955  1.2272
 8452TIP3    H225321   4.605   1.590   4.578  0.2773  2.8336  0.7253
 8453TIP3   OH225322   2.151   4.959   3.713  0.3240  0.2932  0.1122
 8453TIP3    H125323   2.165   4.887   3.774  0.5443 -1.3531 -1.7892
 8453TIP3    H225324   2.090   5.017   3.758 -0.5635 -1.5217  1.3514
 8454TIP3   OH225325   6.647   0.061   4.534  0.3618  0.0671 -0.0208
 8454TIP3    H125326   6.571   0.007   4.555  0.9358 -1.4081 -1.5106
 8454TIP3    H225327   6.622   0.108   4.454  1.1044 -0.6874 -0.7162
 8455TIP3   OH225328   2.615   3.121   0.162  0.0768 -0.0340 -0.6222
 8455TIP3    H125329   2.621   3.053   0.094 -0.8301 -0.2077 -0.5506
 8455TIP3    H225330   2.545   3.178   0.132 -1.3042 -0.8767  0.7970
 8456TIP3   OH225331   2.069   6.300   2.035  0.3853  0.6199  0.6909
 8456TIP3    H125332   2.019   6.307   2.117  1.2961  2.4144  1.1335
 8456TIP3    H225333   2.020   6.236   1.983  1.1368 -2.5884  3.5572
 8457TIP3   OH225334   2.959   5.827   1.278  0.5650  0.5643 -0.3582
 8457TIP3    H125335   2.960   5.811   1.184 -0.5953 -0.0536 -0.2855
 8457TIP3    H225336   2.870   5.857   1.296 -0.1806 -2.0718  0.9444
 8458TIP3   OH225337   1.804   2.080   5.678  0.0712  0.1754 -0.1332
 8458TIP3    H125338   1.858   2.142   5.630 -0.3980  0.8480  0.2004
 8458TIP3    H225339   1.756   2.133   5.741  1.1978 -0.7355  1.5931
 8459TIP3   OH225340   2.337   5.786   5.405  0.4977 -0.4038  0.2598
 8459TIP3    H125341   2.325   5.879   5.386  0.9178 -0.7084 -1.6149
 8459TIP3    H225342   2.426   5.781   5.441  0.7497 -0.1801 -0.3252
 8460TIP3   OH225343   0.651   5.851   3.336  0.0313 -0.2459 -0.1782
 8460TIP3    H125344   0.671   5.801   3.415 -2.8933  0.1912  0.9549
 8460TIP3    H225345   0.568   5.895   3.355  0.0600  1.2308 -2.8974
 8461TIP3   OH225346   3.550   4.773   0.500  0.6274  0.3984  0.1481
 8461TIP3    H125347   3.522   4.778   0.409 -1.4266 -0.3429  0.6898
 8461TIP3    H225348   3.507   4.694   0.535  1.2855  0.7092  1.7744
 8462TIP3   OH225349   1.860   0.429   1.783  0.1856  0.0202 -0.0971
 8462TIP3    H125350   1.769   0.447   1.808  0.1365 -0.7063  0.2722
 8462TIP3    H225351   1.891   0.511   1.746 -0.7809  0.1367 -0.6866
 8463TIP3   OH225352   2.378   0.660   0.488 -0.2181 -0.3799 -0.9051
 8463TIP3    H125353   2.391   0.679   0.581  0.6491  2.1349 -1.4596
 8463TIP3    H225354   2.285   0.640   0.480 -0.3103 -0.6239  0.4817
 8464TIP3   OH225355   5.664   0.571   1.359 -0.0743 -0.4957 -0.3136
 8464TIP3    H125356   5.627   0.630   1.425  0.2024  0.1032 -0.6825
 8464TIP3    H225357   5.616   0.489   1.370 -0.0454 -0.4045  0.6190
 8465TIP3   OH225358   0.694   1.840   1.505  0.1009  0.3822  0.1003
 8465TIP3    H125359   0.710   1.912   1.567  0.6490 -0.3879  0.8696
 8465TIP3    H225360   0.631   1.784   1.551  0.4549 -0.1555 -0.0737
 8466TIP3   OH225361   3.106   0.649   2.755  0.3128 -0.2671  0.0479
 8466TIP3    H125362   3.066   0.617   2.675 -3.0670 -1.7035  2.0845
 8466TIP3    H225363   3.048   0.719   2.785  2.6808  1.7450  0.2471
 8467TIP3   OH225364   6.029   3.639   0.799 -0.4674  0.2083  0.3706
 8467TIP3    H125365   6.055   3.563   0.747 -1.8556 -1.1051  1.5164
 8467TIP3    H225366   6.112   3.676   0.831  0.2734 -0.2566 -0.9553
 8468TIP3   OH225367   0.400   0.593   3.330 -0.6413 -0.1125  0.6647
 8468TIP3    H125368   0.449   0.586   3.412 -0.4946  0.1517  0.6030
 8468TIP3    H225369   0.382   0.686   3.321 -1.6453 -0.2737  0.9613
 8469TIP3   OH225370   1.064   3.572   5.310  0.2481  0.6406  0.0144
 8469TIP3    H125371   1.003   3.622   5.364  0.5761 -0.8360  1.8480
 8469TIP3    H225372   1.145   3.622   5.312 -0.2945  1.5943 -0.7973
 8470TIP3   OH225373   5.603   2.101   2.655  0.1624  0.6954 -0.0728
 8470TIP3    H125374   5.553   2.181   2.673 -0.9784 -0.0459  0.0679
 8470TIP3    H225375   5.659   2.090   2.732 -0.0313  1.0854  0.1287
 8471TIP3   OH225376   1.970   3.997   1.997 -0.0000 -0.5464 -0.5912
 8471TIP3    H125377   1.959   4.067   1.932  0.3710  0.2138  0.1457
 8471TIP3    H225378   2.037   4.031   2.057 -0.3497 -1.2308  0.1927
 8472TIP3   OH225379   0.903   2.415   4.779  0.2172  0.0050 -0.0369
 8472TIP3    H125380   0.957   2.472   4.723 -0.1536 -1.2804 -1.7975
 8472TIP3    H225381   0.966   2.355   4.818  0.2863 -0.3237 -0.6343
 8473TIP3   OH225382   4.082   2.418   3.407 -0.3877 -0.1214 -0.0365
 8473TIP3    H125383   4.016   2.356   3.438 -0.6346 -0.1750 -0.6543
 8473TIP3    H225384   4.073   2.493   3.465 -1.5460  0.2022 -0.6030
 8474TIP3   OH225385   2.987   6.405   3.595  0.0396  0.0353  0.0160
 8474TIP3    H125386   3.077   6.437   3.600  0.1984 -0.5311  1.3524
 8474TIP3    H225387   2.938   6.465   3.652 -0.6755  1.0192 -1.5534
 8475TIP3   OH225388   4.081   2.266   2.360  0.7873 -0.2726  0.0722
 8475TIP3    H125389   4.084   2.254   2.455  1.5234 -1.3209 -0.0705
 8475TIP3    H225390   4.084   2.361   2.348  2.3514 -0.1502  1.0640
 8476TIP3   OH225391   1.151   6.171   5.639  0.0468  0.3025  0.6239
 8476TIP3    H125392   1.175   6.119   5.716  0.6178 -0.1236  0.1646
 8476TIP3    H225393   1.230   6.173   5.586 -0.6277 -0.2550 -0.4327
 8477TIP3   OH225394   1.295   0.975   1.559  0.3076  0.2186 -0.2386
 8477TIP3    H125395   1.205   0.985   1.590 -0.1021  0.8612 -1.5738
 8477TIP3    H225396   1.348   0.978   1.639 -0.9665 -2.6029  0.8606
 8478TIP3   OH225397   0.762   0.351   0.431 -0.4213 -0.0765 -0.7614
 8478TIP3    H125398   0.700   0.320   0.497 -1.1765 -0.4932 -1.6498
 8478TIP3    H225399   0.848   0.339   0.472 -0.8612 -0.6322  0.0266
 8479TIP3   OH225400   1.384   1.285   4.457  0.4559 -0.3487  0.0668
 8479TIP3    H125401   1.445   1.345   4.500 -0.2668  0.1297  0.4379
 8479TIP3    H225402   1.427   1.264   4.374  0.2430  1.5721 -0.5965
 8480TIP3   OH225403   7.126   3.625   4.813 -0.1380  0.0497  0.2284
 8480TIP3    H125404   7.049   3.572   4.834  0.8953 -1.9544 -0.8099
 8480TIP3    H225405   7.124   3.633   4.717  0.3173  1.0322  0.2803
 8481TIP3   OH225406   2.105   1.747   0.984  0.3834 -0.1972  0.3134
 8481TIP3    H125407   2.109   1.657   0.954  2.0238 -0.2527  0.5698
 8481TIP3    H225408   2.194   1.766   1.015  0.1385  1.5719  0.0584
 8482TIP3   OH225409   5.432   2.284   0.823 -0.0334 -0.1365  0.0413
 8482TIP3    H125410   5.433   2.303   0.729  1.7116  1.2855  0.2985
 8482TIP3    H225411   5.487   2.352   0.862 -1.9457  0.2701  2.2990
 8483TIP3   OH225412   4.512   3.390   1.229  0.0095 -0.4337 -0.4976
 8483TIP3    H125413   4.584   3.450   1.251 -0.4126  0.7603 -2.2228
 8483TIP3    H225414   4.433   3.440   1.246 -0.4429 -1.4640  0.5911
 8484TIP3   OH225415   5.699   5.268   5.229  0.1668 -0.4193 -0.2132
 8484TIP3    H125416   5.747   5.194   5.266 -0.8129 -0.3144  1.3380
 8484TIP3    H225417   5.644   5.229   5.161 -0.3830 -1.1425  0.6283
 8485TIP3   OH225418   5.246   4.720   1.181 -0.0389 -0.3364 -0.0750
 8485TIP3    H125419   5.153   4.741   1.176  0.3447  2.5898  2.4334
 8485TIP3    H225420   5.287   4.773   1.112 -0.1317 -1.4702 -1.0435
 8486TIP3   OH225421   5.511   3.696   0.708 -0.5738 -0.0171  0.0587
 8486TIP3    H125422   5.496   3.680   0.801 -2.2662  1.0218 -0.0005
 8486TIP3    H225423   5.452   3.635   0.664 -0.3631  0.0521 -0.3218
 8487TIP3   OH225424   7.005   4.376   3.978 -0.1632 -0.0790 -0.2438
 8487TIP3    H125425   6.942   4.362   3.908 -0.3918  0.5434 -0.1765
 8487TIP3    H225426   7.087   4.397   3.933 -0.0202 -0.8166 -0.3309
 8488TIP3   OH225427   5.079   5.826   0.690 -0.6039  0.7579  0.3943
 8488TIP3    H125428   5.117   5.894   0.635 -1.0625  2.5718  2.1675
 8488TIP3    H225429   5.153   5.791   0.740 -0.4961  0.6138  0.1318
 8489TIP3   OH225430   6.118   0.924   1.585 -0.3604  0.0612 -0.0864
 8489TIP3    H125431   6.158   0.837   1.577 -0.1286  0.1654 -0.0614
 8489TIP3    H225432   6.142   0.954   1.672 -1.1108 -0.1818  0.2144
 8490TIP3   OH225433   6.918   1.876   0.894  0.4444 -0.0683 -0.0445
 8490TIP3    H125434   6.823   1.863   0.897  0.4898 -0.3965 -0.0184
 8490TIP3    H225435   6.935   1.941   0.963  0.3624 -0.7841  0.6620
 8491TIP3   OH225436   3.541   0.858   3.402  0.3179 -0.4312  0.1887
 8491TIP3    H125437   3.460   0.891   3.442 -1.3251  0.0455 -3.2262
 8491TIP3    H225438   3.585   0.935   3.368  2.2254 -0.7138  1.8442
 8492TIP3   OH225439   5.576   5.790   3.219 -0.9550  0.5404 -0.1106
 8492TIP3    H125440   5.631   5.721   3.182 -0.9583  1.1112 -1.2247
 8492TIP3    H225441   5.633   5.867   3.222 -0.4013  0.1285  2.7501
 8493TIP3   OH225442   2.591   0.011   2.682 -0.2483  0.4651  0.3753
 8493TIP3    H125443   2.642  -0.027   2.611 -2.2035 -1.2283 -0.2288
 8493TIP3    H225444   2.550   0.089   2.643  1.3831  1.5435  0.7237
 8494TIP3   OH225445   0.741   1.753   2.689 -0.1323  0.0705 -0.2034
 8494TIP3    H125446   0.707   1.746   2.600 -0.6529 -0.4984  0.0361
 8494TIP3    H225447   0.807   1.684   2.695  0.6287  0.7601 -0.4628
 8495TIP3   OH225448   3.208   4.576   3.270  0.5686  0.4481 -0.1644
 8495TIP3    H125449   3.281   4.528   3.309 -0.6760  0.4442  2.3185
 8495TIP3    H225450   3.216   4.665   3.305 -1.5962 -0.0086  1.6867
 8496TIP3   OH225451   2.664   2.310   1.112 -0.3685  0.3611  0.4366
 8496TIP3    H125452   2.672   2.398   1.149 -0.8846  0.6124 -0.0280
 8496TIP3    H225453   2.698   2.318   1.023  1.0655 -0.2849  0.9019
 8497TIP3   OH225454   2.250   2.593   1.809 -0.4498  0.5132 -0.0374
 8497TIP3    H125455   2.320   2.606   1.874 -0.9413  0.9056  0.4198
 8497TIP3    H225456   2.200   2.674   1.810 -0.2617  0.6535 -1.1700
 8498TIP3   OH225457   2.452   5.543   3.043  0.0490  0.0756 -0.1905
 8498TIP3    H125458   2.417   5.455   3.035  0.0306  0.0886 -0.2557
 8498TIP3    H225459   2.451   5.578   2.954 -0.7409  0.4495 -0.0396
 8499TIP3   OH225460   4.333   0.423   4.443 -0.3109 -0.1635 -0.3211
 8499TIP3    H125461   4.281   0.497   4.472 -0.0753  0.3050 -1.0498
 8499TIP3    H225462   4.287   0.390   4.366  1.5604  1.6381 -2.3520
 8500TIP3   OH225463   7.048   4.893   4.646 -0.3347 -0.0280 -0.2327
 8500TIP3    H125464   7.120   4.950   4.673  0.0637 -0.0720 -1.1466
 8500TIP3    H225465   7.080   4.851   4.565 -0.4574 -1.8545  0.6132
 8501TIP3   OH225466   4.270   4.675   0.896 -0.5922 -0.4906  0.2612
 8501TIP3    H125467   4.283   4.607   0.961  0.0774 -0.1820  0.4608
 8501TIP3    H225468   4.295   4.756   0.940  0.4454 -0.3426 -0.5479
 8502TIP3   OH225469   3.483   2.408   3.423  0.1484 -0.9067 -0.2703
 8502TIP3    H125470   3.417   2.421   3.355 -0.8730 -2.1569  0.4221
 8502TIP3    H225471   3.436   2.362   3.493  1.0054  0.7729  1.5246
 8503TIP3   OH225472   2.907   5.945   2.985 -0.0705 -0.3175 -0.3782
 8503TIP3    H125473   2.910   5.878   3.053  2.6942  1.9421  2.0673
 8503TIP3    H225474   2.980   5.924   2.927  1.0097  0.6394  0.5820
 8504TIP3   OH225475   5.631   1.308   4.219  0.4022 -0.8617  0.0092
 8504TIP3    H125476   5.619   1.401   4.198  0.1038 -1.1491 -1.2187
 8504TIP3    H225477   5.555   1.285   4.271 -0.7131 -0.9159 -1.5553
 8505TIP3   OH225478   1.632   0.320   1.336  0.1829 -0.1316  0.8325
 8505TIP3    H125479   1.702   0.273   1.382  0.1169  1.1388  2.3008
 8505TIP3    H225480   1.570   0.345   1.404  0.3034  2.2164  0.1886
 8506TIP3   OH225481   6.766   1.705   1.213 -0.3315 -0.4348  0.7291
 8506TIP3    H125482   6.783   1.781   1.268 -2.0942  0.0968  0.6029
 8506TIP3    H225483   6.672   1.690   1.221 -0.2790 -1.6213 -0.5016
 8507TIP3   OH225484   6.467   3.224   3.947  0.3985  0.2860  0.1693
 8507TIP3    H125485   6.448   3.317   3.935 -0.6404  0.4412  2.4824
 8507TIP3    H225486   6.390   3.179   3.911  1.0535  0.2458 -1.2702
 8508TIP3   OH225487   2.883   5.003   4.775  0.3151 -0.5804  0.1304
 8508TIP3    H125488   2.941   5.078   4.788  0.1070 -0.2101 -0.9653
 8508TIP3    H225489   2.938   4.927   4.790  0.7857 -0.2160  0.2678
 8509TIP3   OH225490   2.721   3.919   0.550 -0.0820  0.3725 -0.0036
 8509TIP3    H125491   2.813   3.895   0.568 -0.5742 -0.8324  1.1081
 8509TIP3    H225492   2.689   3.954   0.633 -0.3302  1.9134 -0.7129
 8510TIP3   OH225493   2.145   2.274   4.612 -0.1408 -0.0999  0.1508
 8510TIP3    H125494   2.111   2.291   4.700 -1.1648 -1.9451  0.1605
 8510TIP3    H225495   2.236   2.247   4.627 -0.4152 -0.7610  0.6967
 8511TIP3   OH225496   2.379   3.099   4.636  0.1293 -0.0916  0.0697
 8511TIP3    H125497   2.424   3.017   4.619 -0.1988 -0.3495  0.4245
 8511TIP3    H225498   2.330   3.116   4.555  1.7586  0.8012 -0.7691
 8512TIP3   OH225499   6.411   3.569   1.291 -0.5638 -0.3280 -0.1181
 8512TIP3    H125500   6.333   3.613   1.256 -0.4166  1.2635  1.4208
 8512TIP3    H225501   6.382   3.480   1.311 -2.4687  0.6627  1.8735
 8513TIP3   OH225502   0.454   5.871   4.380  0.7791 -0.1834 -0.4765
 8513TIP3    H125503   0.443   5.803   4.445 -0.0017  0.0460 -0.3635
 8513TIP3    H225504   0.539   5.911   4.401  1.5817 -1.5633 -0.9783
 8514TIP3   OH225505   3.324   1.444   0.871  0.1700  0.2739 -0.4635
 8514TIP3    H125506   3.394   1.502   0.902 -0.3941  1.1606 -0.8281
 8514TIP3    H225507   3.371   1.367   0.838  0.8772  0.1303  0.8203
 8515TIP3   OH225508   3.974   6.550   2.304  0.4461 -0.2860  0.0709
 8515TIP3    H125509   3.900   6.494   2.284  0.5360  0.2872 -2.0707
 8515TIP3    H225510   4.015   6.509   2.381 -0.7143 -1.9014 -0.1199
 8516TIP3   OH225511   6.892   6.250   3.730  0.1740  0.4190  0.2215
 8516TIP3    H125512   6.849   6.188   3.788 -0.0975  1.2007  0.8790
 8516TIP3    H225513   6.825   6.315   3.709  0.1733 -0.0080 -1.2359
 8517TIP3   OH225514   6.039   4.649   2.947 -0.5099 -0.0276  0.0830
 8517TIP3    H125515   5.951   4.642   2.910 -1.1889 -0.5864  1.7203
 8517TIP3    H225516   6.036   4.598   3.028  1.3893 -0.2239  0.0787
 8518TIP3   OH225517   0.493   0.940   5.080  0.1525 -0.0523  0.1936
 8518TIP3    H125518   0.451   0.941   5.166  1.5191  1.2856  0.9003
 8518TIP3    H225519   0.522   1.031   5.067 -0.8926  0.0295 -2.1535
 8519TIP3   OH225520   2.997   0.231   1.634  1.1134  0.0040  0.3562
 8519TIP3    H125521   2.951   0.315   1.639  0.5355 -0.3068  0.2019
 8519TIP3    H225522   3.047   0.227   1.716  1.2950  0.5794  0.2847
 8520TIP3   OH225523   6.042   0.583   3.375  0.2936 -0.0117  0.5330
 8520TIP3    H125524   5.992   0.569   3.456  0.0379 -1.3998  0.1618
 8520TIP3    H225525   6.114   0.520   3.381  0.9412  0.6958  0.2098
 8521TIP3   OH225526   4.389   4.004   5.220 -0.1896  0.7690  1.0656
 8521TIP3    H125527   4.338   3.940   5.268 -1.0210  0.4882 -0.1606
 8521TIP3    H225528   4.423   3.956   5.144 -0.2240  1.5902  0.5208
 8522TIP3   OH225529   6.625   1.367   2.693  0.1431 -0.5611  0.2865
 8522TIP3    H125530   6.680   1.288   2.694  1.4483  0.0583 -3.6881
 8522TIP3    H225531   6.543   1.339   2.654  0.8225  0.0247 -1.6992
 8523TIP3   OH225532   0.952   0.075   3.502  0.3431 -0.2196  0.3471
 8523TIP3    H125533   1.044   0.087   3.524  0.2222  1.7758  0.0109
 8523TIP3    H225534   0.952   0.056   3.408  0.4226 -0.2523  0.3537
 8524TIP3   OH225535   3.719   4.275   1.080  0.3624  0.7340  0.3344
 8524TIP3    H125536   3.726   4.357   1.128  0.9437  1.6697 -1.2846
 8524TIP3    H225537   3.628   4.270   1.052  0.3262  0.8163  0.4399
 8525TIP3   OH225538   2.625   2.957   4.605  0.2327  0.3960 -0.5900
 8525TIP3    H125539   2.601   2.905   4.528  2.2462 -0.7349 -0.5297
 8525TIP3    H225540   2.660   3.039   4.569  1.3621 -0.2145 -0.9267
 8526TIP3   OH225541   2.250   0.973   1.807  0.3513 -0.7065 -0.0550
 8526TIP3    H125542   2.298   1.021   1.874 -1.1697 -0.4453  0.8894
 8526TIP3    H225543   2.302   0.893   1.793  0.3881 -1.0912  1.9246
 8527TIP3   OH225544   1.027   0.937   5.495  0.1699  0.2517  0.8295
 8527TIP3    H125545   1.012   1.031   5.499  0.8702  0.3388  1.6756
 8527TIP3    H225546   0.962   0.905   5.432 -0.4565  1.2121  0.9676
 8528TIP3   OH225547   4.240   0.228   3.046 -0.3750  0.0593  0.2929
 8528TIP3    H125548   4.283   0.153   3.004 -0.4491 -0.3174  0.8823
 8528TIP3    H225549   4.288   0.304   3.013 -0.4309 -0.2237 -0.4778
 8529TIP3   OH225550   2.156   2.758   3.419  0.0132 -0.2004 -0.6124
 8529TIP3    H125551   2.219   2.705   3.371  1.4866  1.4565 -0.6288
 8529TIP3    H225552   2.198   2.775   3.503  0.5872  2.5216 -1.3190
 8530TIP3   OH225553   3.507   2.074   1.271  0.3436 -0.3767 -0.0813
 8530TIP3    H125554   3.533   2.165   1.261 -0.4649 -0.0600  0.6041
 8530TIP3    H225555   3.488   2.045   1.182 -0.6985  0.5287 -0.1697
 8531TIP3   OH225556   1.480   2.770   1.466  0.2639  0.3775  0.3977
 8531TIP3    H125557   1.540   2.709   1.422 -0.9845  0.3469 -1.3579
 8531TIP3    H225558   1.393   2.740   1.442 -0.4457  1.2020  1.8356
 8532TIP3   OH225559   2.776   0.773   1.837 -0.4527  0.1525  0.5424
 8532TIP3    H125560   2.815   0.698   1.881 -1.3190 -0.5089  0.2092
 8532TIP3    H225561   2.694   0.789   1.884 -0.3337  0.8209  0.5390
 8533TIP3   OH225562   4.447   3.785   2.521  0.2904 -0.1325 -0.5540
 8533TIP3    H125563   4.354   3.764   2.519  0.5966 -1.9032  1.1555
 8533TIP3    H225564   4.479   3.763   2.433 -0.7452 -0.2440 -0.9087
 8534TIP3   OH225565   4.080   3.007   1.886  0.4294  0.0376  0.8153
 8534TIP3    H125566   4.026   2.943   1.933 -2.5760  0.8061 -1.2399
 8534TIP3    H225567   4.017   3.073   1.857  2.5114  1.0070 -1.8519
 8535TIP3   OH225568   0.859   1.868   0.663 -0.7388  0.0973 -0.7372
 8535TIP3    H125569   0.882   1.867   0.756 -1.5704  0.6764 -0.5192
 8535TIP3    H225570   0.871   1.959   0.637 -1.9306  0.2412 -0.8272
 8536TIP3   OH225571   4.963   1.133   2.574  0.1478  0.4095  0.0205
 8536TIP3    H125572   4.932   1.220   2.597  0.3597  0.0642  1.8113
 8536TIP3    H225573   5.032   1.114   2.638 -0.6543 -1.4914  0.4021
 8537TIP3   OH225574   0.368   0.664   3.684 -0.2164  0.1899 -0.4857
 8537TIP3    H125575   0.315   0.604   3.632  1.3921 -2.6119  0.8905
 8537TIP3    H225576   0.453   0.622   3.691  0.3166  1.4630  2.5312
 8538TIP3   OH225577   0.635   6.791   2.559  0.1551  0.0137  0.4541
 8538TIP3    H125578   0.554   6.784   2.509  0.3951  1.3293 -0.1750
 8538TIP3    H225579   0.704   6.773   2.496  0.4351  1.1555  0.4108
 8539TIP3   OH225580   0.154   4.404   1.097 -0.1409  0.3682 -0.1972
 8539TIP3    H125581   0.091   4.444   1.157  0.1606  1.9603 -0.8702
 8539TIP3    H225582   0.111   4.408   1.012  0.0116 -0.5577 -0.3253
 8540TIP3   OH225583   0.702   2.988   3.049  0.1271 -0.1250  0.2423
 8540TIP3    H125584   0.650   2.962   2.973 -1.6441  1.4238  0.8402
 8540TIP3    H225585   0.671   2.932   3.120  0.0943  0.0161  0.3405
 8541TIP3   OH225586   4.463   2.577   5.534 -0.1509 -0.8572 -0.0820
 8541TIP3    H125587   4.446   2.484   5.553  1.5449 -1.3706 -0.8623
 8541TIP3    H225588   4.477   2.579   5.439  1.2027 -0.0444  0.1187
 8542TIP3   OH225589   5.656   4.899   0.360 -0.2740  0.6007 -0.6514
 8542TIP3    H125590   5.675   4.948   0.281  1.1361  1.0123 -0.0929
 8542TIP3    H225591   5.637   4.965   0.426  2.0666  0.5013  0.2162
 8543TIP3   OH225592   0.947   3.633   1.055 -0.3654 -0.4297 -0.5215
 8543TIP3    H125593   0.935   3.635   1.150  0.5068  1.8226 -0.3878
 8543TIP3    H225594   0.865   3.670   1.021 -0.4960 -0.8170 -0.6357
 8544TIP3   OH225595   2.268   6.700   0.140  0.0540  0.5116 -0.4828
 8544TIP3    H125596   2.240   6.660   0.223 -1.7164 -0.2846 -1.4069
 8544TIP3    H225597   2.227   6.787   0.141  1.5037  1.2202  0.2296
 8545TIP3   OH225598   6.099   3.120   2.987 -0.6175  1.0997 -0.2144
 8545TIP3    H125599   6.139   3.143   3.071 -1.8619 -0.6528  0.9305
 8545TIP3    H225600   6.150   3.045   2.956 -2.3531 -0.5947  0.8309
 8546TIP3   OH225601   3.093   6.056   0.972 -0.3894  0.1371 -0.3370
 8546TIP3    H125602   3.174   6.107   0.969 -0.0656 -0.4111 -1.7350
 8546TIP3    H225603   3.024   6.122   0.977  0.1399  0.5997  1.2197
 8547TIP3   OH225604   6.941   3.369   1.994 -0.2465  0.1300  0.2374
 8547TIP3    H125605   7.014   3.342   2.049 -0.2369  0.1140  0.2166
 8547TIP3    H225606   6.976   3.439   1.939 -0.2008  0.0059  0.1085
 8548TIP3   OH225607   4.690   4.449   1.368  0.0453 -0.2595 -0.0262
 8548TIP3    H125608   4.658   4.435   1.457 -0.1039  0.9824  0.1375
 8548TIP3    H225609   4.785   4.455   1.378  0.2493 -2.2645 -0.2799
 8549TIP3   OH225610   5.234   4.769   3.253  0.3476  0.8327  0.2376
 8549TIP3    H125611   5.190   4.717   3.186  1.1727  1.0144 -0.4554
 8549TIP3    H225612   5.163   4.801   3.309 -0.4458  1.3288 -1.0070
 8550TIP3   OH225613   1.913   1.009   1.454  0.3679 -0.1506  0.0374
 8550TIP3    H125614   1.954   0.949   1.517 -0.5543  0.0152  0.8201
 8550TIP3    H225615   1.982   1.029   1.391  1.3497 -0.2284  1.0708
 8551TIP3   OH225616   0.880   1.448   4.614  0.1219  0.4174  0.1057
 8551TIP3    H125617   0.949   1.418   4.554  1.3282  0.0130  1.6200
 8551TIP3    H225618   0.839   1.522   4.569  0.2419 -0.5391 -1.6715
 8552TIP3   OH225619   0.748   1.086   1.762 -0.7814  0.6310  0.3761
 8552TIP3    H125620   0.812   1.017   1.778 -0.2136  0.8758 -0.7911
 8552TIP3    H225621   0.800   1.161   1.734 -1.6476  0.2152 -2.6975
 8553TIP3   OH225622   5.951   6.113   3.433  0.5730 -0.1342  0.0232
 8553TIP3    H125623   5.940   6.078   3.345 -0.5084 -0.0341  0.1003
 8553TIP3    H225624   5.889   6.063   3.486  1.3986 -0.3815  0.7921
 8554TIP3   OH225625   6.337   5.653   5.538 -0.2188  0.2231 -0.5659
 8554TIP3    H125626   6.358   5.592   5.608  0.4362  0.0771 -0.8836
 8554TIP3    H225627   6.355   5.605   5.457 -0.7773  0.4554 -0.8334
 8555TIP3   OH225628   2.126   4.880   4.432 -0.2886 -0.2059  0.0444
 8555TIP3    H125629   2.051   4.846   4.481  0.8554 -0.3352  1.7900
 8555TIP3    H225630   2.125   4.974   4.448 -0.0653 -0.2080  0.0736
 8556TIP3   OH225631   6.067   5.461   3.711  0.4348 -0.2389  0.4411
 8556TIP3    H125632   6.124   5.522   3.664  2.9433 -1.3341  1.8570
 8556TIP3    H225633   6.063   5.383   3.655 -1.6731  0.6178 -0.7311
 8557TIP3   OH225634   5.433   3.690   5.311 -0.5031 -0.0138  0.2472
 8557TIP3    H125635   5.364   3.719   5.371 -1.6795 -2.1199  0.0031
 8557TIP3    H225636   5.508   3.670   5.368 -0.6578  0.6299  0.6911
 8558TIP3   OH225637   2.825   5.435   3.315  0.5641 -0.7349 -0.0118
 8558TIP3    H125638   2.797   5.511   3.365  0.6226 -0.8798  0.2436
 8558TIP3    H225639   2.910   5.412   3.351  0.5381 -0.9338 -0.0723
 8559TIP3   OH225640   5.669   2.473   0.798 -0.2624 -0.5786  0.7333
 8559TIP3    H125641   5.721   2.421   0.737 -2.2219 -1.8533  0.0451
 8559TIP3    H225642   5.705   2.453   0.884  1.9100  0.4832  0.1381
 8560TIP3   OH225643   3.436   0.966   2.382 -0.6338 -0.2337 -0.4663
 8560TIP3    H125644   3.482   0.889   2.346 -1.0474 -0.3356 -0.7875
 8560TIP3    H225645   3.359   0.930   2.425 -0.5741 -0.0353 -0.1917
 8561TIP3   OH225646   6.429   4.929   0.890  0.3761  0.0687  0.4592
 8561TIP3    H125647   6.459   4.878   0.965  1.1569 -1.8805 -1.0931
 8561TIP3    H225648   6.337   4.907   0.880  0.8759 -1.7294 -0.6402
 8562TIP3   OH225649   0.033   5.035   0.016 -0.1207  0.0397  0.2061
 8562TIP3    H125650   0.044   5.001  -0.073 -0.8541 -0.4858  0.3093
 8562TIP3    H225651   0.044   4.959   0.073  0.4331  0.3878  0.5812
 8563TIP3   OH225652   4.327   5.755   4.154  0.1746 -0.0749 -0.2503
 8563TIP3    H125653   4.326   5.770   4.059  0.7619  1.4383 -0.0414
 8563TIP3    H225654   4.344   5.841   4.192  1.0907 -0.8549  1.1987
 8564TIP3   OH225655   0.694   3.729   4.489 -0.6007  0.0430 -0.2951
 8564TIP3    H125656   0.692   3.816   4.529  1.9269 -0.0145  0.1242
 8564TIP3    H225657   0.753   3.739   4.414  0.4731 -1.4825  0.2939
 8565TIP3   OH225658   3.241   2.823   4.048 -0.1317  0.4182  0.0406
 8565TIP3    H125659   3.170   2.780   4.094 -1.8050 -0.5076 -3.0877
 8565TIP3    H225660   3.282   2.753   3.997  0.2254  1.6547 -1.4548
 8566TIP3   OH225661   3.154   1.785   4.831 -0.3453  1.2080 -0.1840
 8566TIP3    H125662   3.157   1.876   4.859 -1.1931  1.4638 -0.8840
 8566TIP3    H225663   3.077   1.749   4.875  0.6255  0.4883  1.0127
 8567TIP3   OH225664   2.250   2.272   1.387 -0.3514 -0.1768 -0.3279
 8567TIP3    H125665   2.155   2.275   1.388 -0.3707 -0.0028  2.1923
 8567TIP3    H225666   2.278   2.349   1.437  0.8856 -2.8606  3.5576
 8568TIP3   OH225667   6.950   3.458   2.381 -0.2472 -0.0811 -0.2053
 8568TIP3    H125668   6.998   3.379   2.354 -0.9917 -0.6793  0.1846
 8568TIP3    H225669   7.018   3.520   2.405  0.3423 -0.8345  0.1082
 8569TIP3   OH225670   2.115   2.222   0.417  0.4105 -0.1618 -0.0588
 8569TIP3    H125671   2.111   2.276   0.339  0.9466  2.0405  1.3308
 8569TIP3    H225672   2.202   2.238   0.453  0.7665 -2.3678  0.1810
 8570TIP3   OH225673   2.600   5.297   3.204  0.1423 -0.7659 -0.1427
 8570TIP3    H125674   2.631   5.262   3.121 -0.7441 -0.7091 -0.5081
 8570TIP3    H225675   2.670   5.356   3.232 -0.4085  0.8190 -1.8754
 8571TIP3   OH225676   1.351   1.293   1.218 -0.0245 -0.5965 -0.0344
 8571TIP3    H125677   1.351   1.343   1.300 -0.9867 -1.6888  0.6544
 8571TIP3    H225678   1.261   1.302   1.185  0.5894  0.5973 -1.4722
 8572TIP3   OH225679   5.186   3.194   1.603  0.0486  0.0407 -0.0237
 8572TIP3    H125680   5.101   3.218   1.566  0.5231  0.3664 -0.9158
 8572TIP3    H225681   5.178   3.216   1.696 -0.4174  1.2446 -0.3242
 8573TIP3   OH225682   2.672   5.262   4.684 -0.0716  0.2349  0.2390
 8573TIP3    H125683   2.647   5.195   4.748  2.6546 -2.2796 -1.1111
 8573TIP3    H225684   2.639   5.229   4.601  2.0387  0.0183 -0.5815
 8574TIP3   OH225685   1.628   6.370   3.017 -0.9201 -0.2110  0.0653
 8574TIP3    H125686   1.650   6.277   3.025  0.1013  0.0820  0.8738
 8574TIP3    H225687   1.675   6.412   3.089  1.4110  1.4055 -2.2111
 8575TIP3   OH225688   1.746   0.863   0.242  0.4414 -0.1643  0.0677
 8575TIP3    H125689   1.700   0.779   0.236  2.5574 -1.4327  0.4917
 8575TIP3    H225690   1.770   0.871   0.334  0.6945  0.6706 -0.0586
 8576TIP3   OH225691   5.246   6.251   5.185  0.2452  0.1111  0.1160
 8576TIP3    H125692   5.302   6.243   5.262 -1.0757 -0.9166  1.0064
 8576TIP3    H225693   5.169   6.299   5.215 -0.1902 -0.1142 -0.6141
 8577TIP3   OH225694   3.486   2.095   2.742 -0.7291  0.5982  0.6419
 8577TIP3    H125695   3.580   2.079   2.735 -0.9797 -0.9840  0.5405
 8577TIP3    H225696   3.475   2.186   2.716  0.6206  0.4120 -0.7292
 8578TIP3   OH225697   6.167   3.954   4.962  0.0958 -0.0273 -0.2316
 8578TIP3    H125698   6.189   3.913   5.045  0.0494 -0.5366 -0.4669
 8578TIP3    H225699   6.115   4.031   4.985  0.5198  0.1220  0.2338
 8579TIP3   OH225700   6.764   5.776   1.000 -0.1179  0.9323 -0.3739
 8579TIP3    H125701   6.856   5.764   1.025  0.3019  0.7034 -1.9298
 8579TIP3    H225702   6.729   5.688   0.992 -1.1568  0.9868  2.3446
 8580TIP3   OH225703   5.618   1.919   1.167 -0.6933 -1.0833 -0.1491
 8580TIP3    H125704   5.672   1.851   1.127  2.6643  1.8720 -1.1394
 8580TIP3    H225705   5.556   1.945   1.099  0.8394 -0.3529 -1.3096
 8581TIP3   OH225706   7.105   1.856   3.482 -0.2401 -0.1115  0.5269
 8581TIP3    H125707   7.057   1.873   3.562 -0.3117 -1.0146  0.6914
 8581TIP3    H225708   7.129   1.763   3.487 -2.4864 -0.9327 -1.6385
 8582TIP3   OH225709   4.481   1.986   3.007  0.1610 -0.6327 -0.3801
 8582TIP3    H125710   4.390   2.004   2.983 -0.1144 -2.5433 -0.8854
 8582TIP3    H225711   4.481   1.988   3.103 -0.0890  0.7512 -0.3881
 8583TIP3   OH225712   5.711   3.739   4.466 -0.1056 -0.0980 -0.1096
 8583TIP3    H125713   5.805   3.728   4.475 -0.1144 -1.2742 -1.1856
 8583TIP3    H225714   5.699   3.772   4.377 -0.7572 -0.6573 -0.2346
 8584TIP3   OH225715   5.722   3.626   2.397 -0.0548  0.3919  0.0015
 8584TIP3    H125716   5.666   3.634   2.319  0.7024 -0.6707 -0.6884
 8584TIP3    H225717   5.773   3.547   2.380 -0.1145 -0.0463  1.7445
 8585TIP3   OH225718   4.619   4.537   3.630 -0.4270  0.0606  0.5819
 8585TIP3    H125719   4.653   4.619   3.665  0.2655  0.3290 -0.6520
 8585TIP3    H225720   4.550   4.564   3.569  1.2914 -0.0656 -1.5467
 8586TIP3   OH225721   0.124   2.939   0.819 -1.0300 -0.7683  0.4287
 8586TIP3    H125722   0.088   3.005   0.878 -1.2296 -0.4126 -0.0870
 8586TIP3    H225723   0.205   2.977   0.786 -0.2348 -1.5120  1.4794
 8587TIP3   OH225724   1.544   2.937   5.092  0.6112 -0.1731 -0.2242
 8587TIP3    H125725   1.502   2.901   5.170 -1.5188  1.7391 -0.4004
 8587TIP3    H225726   1.598   3.009   5.125  1.3010 -0.6120 -0.3551
 8588TIP3   OH225727   3.142   4.395   3.958  0.1410 -0.5534  0.2219
 8588TIP3    H125728   3.208   4.464   3.955  0.3328 -0.6859  1.0331
 8588TIP3    H225729   3.115   4.392   4.050 -1.6830  0.1323 -0.2306
 8589TIP3   OH225730   2.113   5.509   2.000 -0.1531 -0.9472 -0.1043
 8589TIP3    H125731   2.021   5.532   1.989  0.0250  0.2178  0.6867
 8589TIP3    H225732   2.159   5.592   2.000  0.8303 -1.4750  0.1714
 8590TIP3   OH225733   4.997   6.031   1.649  0.3210 -0.4734  0.4737
 8590TIP3    H125734   5.053   6.101   1.683  0.6938 -1.6303  2.3179
 8590TIP3    H225735   4.929   6.078   1.600  0.9679  1.1301  1.0293
 8591TIP3   OH225736   5.351   6.530   5.027  0.1720  0.0576 -0.3979
 8591TIP3    H125737   5.354   6.574   4.942  0.3831  0.0206 -0.4085
 8591TIP3    H225738   5.411   6.456   5.019 -0.6051 -0.5707 -0.5683
 8592TIP3   OH225739   2.020   4.620   5.115  0.0384 -0.2566  0.2327
 8592TIP3    H125740   2.099   4.582   5.153 -0.6222 -1.5159  0.3960
 8592TIP3    H225741   1.988   4.681   5.182  1.4126  1.0579 -0.2589
 8593TIP3   OH225742   1.434   2.899   4.575 -0.2089 -0.0829 -0.0889
 8593TIP3    H125743   1.421   2.946   4.658  0.0788  1.4040 -0.8662
 8593TIP3    H225744   1.515   2.850   4.588 -0.1392  0.1790  0.4962
 8594TIP3   OH225745   2.990   4.754   4.598  0.3910  0.0935  0.3521
 8594TIP3    H125746   3.000   4.809   4.520  0.1930  0.0594  0.3008
 8594TIP3    H225747   3.079   4.735   4.626  0.4817 -0.4816 -0.2837
 8595TIP3   OH225748   4.798   1.998   5.584 -0.0186  0.3285 -0.1360
 8595TIP3    H125749   4.766   1.909   5.599 -0.1643  0.6434  1.5752
 8595TIP3    H225750   4.734   2.036   5.524 -0.6157 -0.3319  0.0633
 8596TIP3   OH225751   2.856   5.970   0.592 -0.4908  0.0289 -0.6863
 8596TIP3    H125752   2.784   5.908   0.579 -0.0465 -0.8387  0.7684
 8596TIP3    H225753   2.925   5.938   0.534 -0.5176 -0.4334 -0.4691
 8597TIP3   OH225754   5.376   0.442   2.717  0.0419 -0.7546  0.4534
 8597TIP3    H125755   5.335   0.377   2.659 -0.0456  1.0363 -1.6075
 8597TIP3    H225756   5.311   0.458   2.784 -0.3682 -1.9905  0.3807
 8598TIP3   OH225757   2.364   6.675   4.298  0.4499  0.0374 -0.5236
 8598TIP3    H125758   2.277   6.715   4.307  0.8203  1.2388 -1.8180
 8598TIP3    H225759   2.360   6.596   4.351 -0.7108  1.2148  1.2557
 8599TIP3   OH225760   3.744   1.688   2.433  0.1156  0.3699  0.1934
 8599TIP3    H125761   3.703   1.775   2.433 -0.5141  0.1103 -1.3512
 8599TIP3    H225762   3.710   1.646   2.354  1.5771 -0.7320  0.1104
 8600TIP3   OH225763   3.906   3.948   4.580  0.0914  0.5684  1.5045
 8600TIP3    H125764   3.974   4.008   4.548  0.4213  0.6868  2.3997
 8600TIP3    H225765   3.825   4.000   4.579  0.5379  1.3647  3.1660
 8601TIP3   OH225766   5.066   2.042   0.862 -0.0604 -0.6520  0.2456
 8601TIP3    H125767   5.126   2.069   0.793 -1.1810 -0.0439 -0.5127
 8601TIP3    H225768   4.979   2.053   0.824 -0.6518 -2.1494  1.0899
 8602TIP3   OH225769   1.244   4.036   5.772  0.2306  0.4422 -0.2899
 8602TIP3    H125770   1.262   4.053   5.680  0.1720  2.3966  0.0222
 8602TIP3    H225771   1.151   4.013   5.775  0.6730 -1.6308 -0.9167
 8603TIP3   OH225772   1.562   4.796   5.098  0.3079  0.0230 -0.2959
 8603TIP3    H125773   1.475   4.834   5.106  0.0831 -0.4908 -0.2491
 8603TIP3    H225774   1.546   4.702   5.092  0.8948 -0.1297  0.3811
 8604TIP3   OH225775   0.841   4.329   1.157 -0.2788  0.1733  0.3562
 8604TIP3    H125776   0.915   4.340   1.217 -0.1470  1.1103  0.0409
 8604TIP3    H225777   0.790   4.257   1.194  0.2181  0.2262  1.1603
 8605TIP3   OH225778   2.692   0.328   0.047 -0.0156  0.1454 -0.3853
 8605TIP3    H125779   2.603   0.294   0.041 -0.7343  1.7754  0.4854
 8605TIP3    H225780   2.735   0.271   0.110  0.1324 -1.7113 -2.0517
 8606TIP3   OH225781   2.557   3.435   1.024 -0.3321  0.2805  0.0767
 8606TIP3    H125782   2.465   3.429   1.000 -1.0532 -0.6619  2.7266
 8606TIP3    H225783   2.564   3.513   1.078  1.0507  1.8561 -2.1876
 8607TIP3   OH225784   4.069   4.351   1.422 -0.0148 -0.2731  0.1634
 8607TIP3    H125785   4.028   4.280   1.471 -0.0698 -1.0065 -0.9064
 8607TIP3    H225786   4.127   4.307   1.360  0.7662  0.6701  0.1965
 8608TIP3   OH225787   0.901   0.592   2.326 -0.2141  0.6804 -0.1124
 8608TIP3    H125788   0.980   0.600   2.274 -0.2339  2.2070  0.0382
 8608TIP3    H225789   0.929   0.551   2.407  0.4726  1.3854  0.0167
 8609TIP3   OH225790   3.985   4.780   1.589 -0.2971  0.2877 -0.1233
 8609TIP3    H125791   3.936   4.858   1.563 -0.3192 -0.0553 -1.1857
 8609TIP3    H225792   4.053   4.812   1.647 -0.0488  1.1692 -0.8758
 8610TIP3   OH225793   6.471   1.442   4.118 -0.2135  0.4143  0.2239
 8610TIP3    H125794   6.389   1.484   4.145  0.3925  0.4608  2.1530
 8610TIP3    H225795   6.478   1.365   4.175  1.3419  0.6994  0.4574
 8611TIP3   OH225796   3.472   5.618   3.900 -0.3037  0.0567  0.2708
 8611TIP3    H125797   3.515   5.588   3.820 -0.2633 -2.6079  1.2087
 8611TIP3    H225798   3.543   5.626   3.964 -0.0775  3.6633 -0.2082
 8612TIP3   OH225799   3.164   2.383   5.511 -0.2011 -0.4258 -0.0885
 8612TIP3    H125800   3.201   2.470   5.524  1.8589 -1.1620 -0.6548
 8612TIP3    H225801   3.171   2.342   5.598 -0.5215 -0.2685  0.0128
 8613TIP3   OH225802   6.795   2.154   4.689  0.2417 -0.2825  0.3684
 8613TIP3    H125803   6.777   2.246   4.707  1.2314 -0.0219  0.0552
 8613TIP3    H225804   6.872   2.133   4.742  0.5476 -0.6827 -0.2253
 8614TIP3   OH225805   4.729   6.103   3.946 -0.0788  0.4040  0.5607
 8614TIP3    H125806   4.718   6.046   4.023  2.0641 -0.5465  0.2499
 8614TIP3    H225807   4.716   6.191   3.980 -1.8667 -0.1405  1.4098
 8615TIP3   OH225808   1.680   0.639   1.528  0.0882 -0.3181  0.4365
 8615TIP3    H125809   1.666   0.595   1.444  0.4796 -1.4547  0.9538
 8615TIP3    H225810   1.594   0.638   1.569 -0.2588  0.8302 -0.1990
 8616TIP3   OH225811   1.903   3.225   0.739  0.1473  0.4823 -0.2480
 8616TIP3    H125812   1.951   3.183   0.811 -0.4741 -0.4029 -0.3393
 8616TIP3    H225813   1.832   3.273   0.782 -0.4290 -0.3260 -0.2869
 8617TIP3   OH225814   5.278   1.416   3.492 -0.0821  0.2191  0.4134
 8617TIP3    H125815   5.368   1.438   3.468 -0.2903  0.9761  0.2909
 8617TIP3    H225816   5.266   1.326   3.461  1.0783 -0.4204  1.7098
 8618TIP3   OH225817   3.186   5.034   4.652 -0.1955  0.2233  0.1534
 8618TIP3    H125818   3.158   4.981   4.726  1.0402  1.3145  1.4598
 8618TIP3    H225819   3.148   5.120   4.668  0.0650  0.4706 -0.5033
 8619TIP3   OH225820   4.381   5.039   0.635 -0.0716 -0.0591  0.4741
 8619TIP3    H125821   4.462   4.997   0.662 -0.1780  0.3777  1.5328
 8619TIP3    H225822   4.406   5.130   0.615  0.1486 -0.5596 -1.7355
 8620TIP3   OH225823   4.725   2.767   2.100  0.0491 -0.6693  0.0120
 8620TIP3    H125824   4.740   2.728   2.186 -0.6615  0.1172  0.5108
 8620TIP3    H225825   4.784   2.843   2.097 -2.0205  1.0971  1.0730
 8621TIP3   OH225826   4.052   4.313   2.689  0.5526 -0.0975 -0.1554
 8621TIP3    H125827   4.108   4.348   2.620  0.1606 -0.0209 -0.4394
 8621TIP3    H225828   4.023   4.390   2.738 -0.9371  0.0767 -1.2551
 8622TIP3   OH225829   5.049   4.094   5.482  0.0674  0.1229 -0.0656
 8622TIP3    H125830   5.025   4.045   5.561  0.9332 -0.0258  0.1176
 8622TIP3    H225831   5.006   4.179   5.492  0.0753  0.0630  0.5142
 8623TIP3   OH225832   1.702   0.842   5.344 -0.1058 -0.2190  0.4443
 8623TIP3    H125833   1.663   0.908   5.400 -0.6838  1.2906 -1.6317
 8623TIP3    H225834   1.632   0.779   5.328 -0.1032 -0.3472  0.9293
 8624TIP3   OH225835   1.323   5.925   4.417 -0.3702  0.6475 -0.6019
 8624TIP3    H125836   1.247   5.979   4.440  0.3534  1.4194  0.0226
 8624TIP3    H225837   1.399   5.981   4.435  0.3834 -0.4094 -0.4095
 8625TIP3   OH225838   6.321   4.151   1.401 -0.9986  0.0235  0.4557
 8625TIP3    H125839   6.264   4.191   1.466  0.0494  0.7586  0.9389
 8625TIP3    H225840   6.382   4.220   1.375  1.6024 -1.4477  2.1472
 8626TIP3   OH225841   2.920   2.511   2.202 -0.5574  0.2038 -0.1576
 8626TIP3    H125842   2.924   2.604   2.225 -0.8928 -0.1573  1.5039
 8626TIP3    H225843   2.894   2.510   2.110  1.3370  1.7807 -0.7995
 8627TIP3   OH225844   6.184   6.623   4.750  0.5583 -0.3193 -0.1498
 8627TIP3    H125845   6.258   6.626   4.811 -0.1017  1.8746  0.6328
 8627TIP3    H225846   6.106   6.626   4.805 -0.0884 -0.5117 -1.0291
 8628TIP3   OH225847   2.001   2.463   4.477  0.2953 -0.3302 -0.0230
 8628TIP3    H125848   1.967   2.432   4.393 -0.6380  2.3200 -0.7315
 8628TIP3    H225849   2.074   2.405   4.497 -0.5489 -2.1088 -1.7859
 8629TIP3   OH225850   6.570   1.660   5.610  0.3788 -0.6015 -0.1278
 8629TIP3    H125851   6.500   1.624   5.664 -0.0543  0.7545  0.2563
 8629TIP3    H225852   6.612   1.726   5.665  0.0441  0.6884 -1.3380
 8630TIP3   OH225853   4.172   0.328   1.767  0.0038  0.5346  0.4506
 8630TIP3    H125854   4.210   0.288   1.688 -1.4394  1.6890 -0.8905
 8630TIP3    H225855   4.241   0.323   1.832  0.6157 -2.2108 -0.2672
 8631TIP3   OH225856   0.876   2.371   1.964  0.2101  0.6721  0.2934
 8631TIP3    H125857   0.801   2.311   1.967 -0.9346  2.1088  1.2820
 8631TIP3    H225858   0.951   2.316   1.990 -0.6855 -0.4958  0.4877
 8632TIP3   OH225859   6.009   3.561   4.094  0.1282  0.6653 -0.7655
 8632TIP3    H125860   5.918   3.581   4.117  0.0387  0.3360 -0.8310
 8632TIP3    H225861   6.050   3.538   4.177 -0.3683 -1.2029 -1.0093
 8633TIP3   OH225862   4.379   6.746   2.817  0.3247  0.2898 -0.2366
 8633TIP3    H125863   4.448   6.766   2.881 -0.7650  1.4030  0.6459
 8633TIP3    H225864   4.410   6.786   2.736  0.5383  1.1693  0.2592
 8634TIP3   OH225865   2.483   2.660   1.617 -0.4985 -0.5690 -0.0078
 8634TIP3    H125866   2.463   2.692   1.705 -0.4007  1.1582 -0.5747
 8634TIP3    H225867   2.569   2.618   1.625 -0.6890 -0.8135  0.7973
 8635TIP3   OH225868   0.195   1.939   4.621 -0.6054  0.0672 -0.1540
 8635TIP3    H125869   0.281   1.944   4.663 -0.8676  1.3572  0.2600
 8635TIP3    H225870   0.168   1.848   4.633  1.2246 -0.7101 -1.3545
 8636TIP3   OH225871   2.621   1.640   0.520 -0.0887  0.2703 -0.0486
 8636TIP3    H125872   2.534   1.678   0.531 -0.4553 -0.1638 -1.3038
 8636TIP3    H225873   2.618   1.596   0.435  2.2054  2.6010 -1.4969
 8637TIP3   OH225874   1.127   1.197   0.248 -0.2894  0.1990  0.0307
 8637TIP3    H125875   1.216   1.228   0.263  0.2464 -2.0395  2.0810
 8637TIP3    H225876   1.135   1.134   0.176  0.0632 -1.0086  1.1048
 8638TIP3   OH225877   3.445   3.106   5.047  0.6135 -0.1470  0.8469
 8638TIP3    H125878   3.458   3.027   4.995 -1.5746 -0.5089  0.7629
 8638TIP3    H225879   3.486   3.175   4.995 -0.8783 -0.6058 -1.0705
 8639TIP3   OH225880   6.618   4.569   5.466  0.5034 -0.7687 -0.0573
 8639TIP3    H125881   6.522   4.567   5.459  0.4834 -0.1331 -0.0426
 8639TIP3    H225882   6.647   4.610   5.384  0.6850  0.1578  0.4515
 8640TIP3   OH225883   6.833   4.139   4.712 -0.9544 -0.2870  0.5304
 8640TIP3    H125884   6.877   4.087   4.645 -2.2179 -0.9739  0.2064
 8640TIP3    H225885   6.900   4.200   4.743  0.2341 -1.3552  0.1214
 8641TIP3   OH225886   0.153   2.158   2.246  0.3977 -0.8334 -0.1989
 8641TIP3    H125887   0.059   2.168   2.230  0.5183  1.0108  0.0897
 8641TIP3    H225888   0.162   2.157   2.341  0.6558 -1.3910 -0.2214
 8642TIP3   OH225889   0.561   3.188   5.176  0.2490 -0.4323 -0.0432
 8642TIP3    H125890   0.621   3.114   5.179  0.4109 -0.2842  0.4319
 8642TIP3    H225891   0.546   3.203   5.083 -0.7701 -1.8528 -0.1360
 8643TIP3   OH225892   3.997   6.214   2.152  1.1896 -0.1839 -0.0943
 8643TIP3    H125893   3.976   6.182   2.064 -0.3008  0.4587 -0.0010
 8643TIP3    H225894   3.919   6.263   2.178  1.5220 -0.5428  1.6759
 8644TIP3   OH225895   0.396   6.242   2.011 -0.0830 -0.4694 -0.2612
 8644TIP3    H125896   0.433   6.229   2.098  0.0555 -3.0089 -0.6286
 8644TIP3    H225897   0.314   6.193   2.012 -1.5557  1.8446 -0.6987
 8645TIP3   OH225898   3.062   6.263   2.414  0.0539  0.0322  0.0114
 8645TIP3    H125899   3.059   6.203   2.340  0.9300  0.8352 -0.6966
 8645TIP3    H225900   2.971   6.291   2.426  0.2221  1.9203 -2.4725
 8646TIP3   OH225901   0.390   2.866   5.235 -0.2160  0.1420  0.1827
 8646TIP3    H125902   0.348   2.780   5.231  0.2076 -0.0376 -0.7829
 8646TIP3    H225903   0.372   2.906   5.150  1.6984 -0.0335 -0.3499
 8647TIP3   OH225904   4.797   2.326   1.002  0.3399  0.0521  0.3260
 8647TIP3    H125905   4.801   2.307   0.908 -0.8420  0.4577  0.1853
 8647TIP3    H225906   4.879   2.373   1.020  0.2996  0.5239 -0.6370
 8648TIP3   OH225907   2.122   2.162   0.034 -0.2587 -0.0070 -0.9727
 8648TIP3    H125908   2.138   2.101  -0.037  0.1096 -1.4921  0.3431
 8648TIP3    H225909   2.207   2.172   0.077 -0.7960 -0.3840  0.2167
 8649TIP3   OH225910   6.068   6.456   1.678  0.7420 -0.2948 -0.1795
 8649TIP3    H125911   6.115   6.518   1.623  3.2329 -1.0077  1.0048
 8649TIP3    H225912   6.093   6.480   1.768 -1.9401 -0.1425  0.6085
 8650TIP3   OH225913   5.497   0.608   0.169 -0.0282 -0.5555  0.1077
 8650TIP3    H125914   5.501   0.689   0.219  0.5202  0.2943 -1.2549
 8650TIP3    H225915   5.421   0.618   0.112  1.0239 -0.2417 -1.2764
 8651TIP3   OH225916   5.487   3.788   4.626  0.2102 -0.0998  0.2926
 8651TIP3    H125917   5.435   3.865   4.603  0.8938  0.7264  1.3996
 8651TIP3    H225918   5.565   3.795   4.570 -0.1668 -0.5138 -0.2885
 8652TIP3   OH225919   1.501   4.331   3.494  0.7466 -0.2536 -0.4159
 8652TIP3    H125920   1.428   4.392   3.482 -0.5180 -1.0434  2.3963
 8652TIP3    H225921   1.560   4.376   3.554  0.3349 -1.2913  0.8182
 8653TIP3   OH225922   5.186   5.510   2.591  0.0874 -0.2057 -0.3981
 8653TIP3    H125923   5.138   5.466   2.521 -1.6305  1.7220 -0.5414
 8653TIP3    H225924   5.183   5.448   2.665  0.0128 -1.3495 -1.3372
 8654TIP3   OH225925   3.402   4.537   1.172  0.5074 -0.1624 -0.2899
 8654TIP3    H125926   3.409   4.466   1.108  0.0652 -0.9682  0.5339
 8654TIP3    H225927   3.485   4.535   1.220  1.2553  1.0943 -1.4703
 8655TIP3   OH225928   5.527   0.024   0.373 -0.4530  0.2908 -0.3907
 8655TIP3    H125929   5.494  -0.064   0.354  0.4805 -0.4030  1.0210
 8655TIP3    H225930   5.461   0.083   0.337 -2.2646 -1.0142  0.6521
 8656TIP3   OH225931   3.937   4.340   3.094 -0.3822 -0.5653 -0.0401
 8656TIP3    H125932   3.876   4.269   3.072 -0.4642 -0.7728  0.8104
 8656TIP3    H225933   3.975   4.366   3.010 -0.8875 -1.1293 -0.4522
 8657TIP3   OH225934   1.162   5.081   0.483 -0.4150 -0.4702  0.0582
 8657TIP3    H125935   1.090   5.056   0.541 -2.2665 -1.2741 -2.4443
 8657TIP3    H225936   1.231   5.017   0.503 -0.5076 -0.0030  2.1331
 8658TIP3   OH225937   3.703   4.529   3.189  0.1333  1.0516 -0.2308
 8658TIP3    H125938   3.627   4.471   3.181 -0.2570  1.1826  1.9025
 8658TIP3    H225939   3.778   4.471   3.183 -0.2247  0.4777  0.6125
 8659TIP3   OH225940   3.066   2.535   3.015 -0.2087 -0.3719  0.5655
 8659TIP3    H125941   3.084   2.600   2.947 -2.0306  2.0160  2.1938
 8659TIP3    H225942   2.979   2.559   3.048 -1.3890 -4.1877  0.7414
 8660TIP3   OH225943   1.695   3.749   0.282 -0.0332  0.4788  0.0473
 8660TIP3    H125944   1.634   3.701   0.227 -1.2470  0.3374  1.4674
 8660TIP3    H225945   1.654   3.834   0.297 -0.9719 -0.3284  2.6939
 8661TIP3   OH225946   0.028   5.627   3.878 -0.2085 -0.5972  0.3663
 8661TIP3    H125947   0.065   5.548   3.918 -1.6118 -2.3964 -1.6464
 8661TIP3    H225948  -0.021   5.594   3.802 -0.7788  2.2472 -0.6055
 8662TIP3   OH225949   6.325   3.587   1.004 -0.6553 -0.2170  0.3437
 8662TIP3    H125950   6.325   3.506   0.954  1.0241  0.5081 -0.9583
 8662TIP3    H225951   6.401   3.580   1.061  0.1162  0.8148 -0.5136
 8663TIP3   OH225952   0.857   3.180   4.424 -0.0944  0.1023 -0.0417
 8663TIP3    H125953   0.923   3.250   4.420  0.5250 -0.2567  2.1603
 8663TIP3    H225954   0.868   3.132   4.342 -0.0622  2.1430 -1.3012
 8664TIP3   OH225955   5.318   2.997   5.165  0.5131  0.5975  0.5205
 8664TIP3    H125956   5.303   2.920   5.220  0.2080  0.9044  0.8752
 8664TIP3    H225957   5.404   3.028   5.191  0.2249  0.9472  1.0928
 8665TIP3   OH225958   2.877   2.780   4.493  0.4552  0.1228 -0.2404
 8665TIP3    H125959   2.836   2.693   4.489  0.9535 -0.3751  2.8374
 8665TIP3    H225960   2.819   2.831   4.550  0.3516  1.7454 -1.7252
 8666TIP3   OH225961   5.419   2.919   1.224 -0.1668 -0.1388 -0.1546
 8666TIP3    H125962   5.387   2.845   1.275 -1.6867 -0.1005 -1.0128
 8666TIP3    H225963   5.374   2.995   1.261  1.1486  0.3497  0.5207
 8667TIP3   OH225964   1.463   6.606   4.812  0.0201 -0.3740  0.2080
 8667TIP3    H125965   1.397   6.573   4.873  0.8523 -1.9737  0.3168
 8667TIP3    H225966   1.536   6.544   4.820  0.7658  0.2489 -1.2937
 8668TIP3   OH225967   6.961   6.079   1.483  0.1065  1.3275  0.3680
 8668TIP3    H125968   6.928   6.073   1.572  0.2392  0.2950  0.3635
 8668TIP3    H225969   7.047   6.035   1.486 -0.8918 -0.8824 -0.7224
 8669TIP3   OH225970   2.861   1.584   5.628 -0.7736  0.1771 -0.4149
 8669TIP3    H125971   2.766   1.574   5.633 -0.9144  0.9558 -1.2304
 8669TIP3    H225972   2.889   1.515   5.568 -0.8464  0.0940 -0.3539
 8670TIP3   OH225973   5.135   3.048   0.387  0.1116  0.6481 -0.2211
 8670TIP3    H125974   5.155   3.118   0.325 -1.1075 -0.2990 -1.7694
 8670TIP3    H225975   5.170   2.969   0.346 -2.1556 -0.2503 -0.5883
 8671TIP3   OH225976   1.346   5.659   4.089  0.1614  0.0560 -0.3310
 8671TIP3    H125977   1.439   5.673   4.106 -0.2480  1.7524  0.7271
 8671TIP3    H225978   1.311   5.624   4.171 -0.0938 -0.8218 -0.8052
 8672TIP3   OH225979   2.646   0.175   4.250 -0.3211  0.3540 -0.3644
 8672TIP3    H125980   2.677   0.165   4.160 -2.0240 -2.5428 -0.7573
 8672TIP3    H225981   2.582   0.247   4.245  0.0984  0.6771 -1.3200
 8673TIP3   OH225982   4.759   1.782   4.344  1.1020  1.1239 -0.2200
 8673TIP3    H125983   4.816   1.827   4.282  2.2107 -0.2915 -0.2829
 8673TIP3    H225984   4.788   1.691   4.341 -0.7502  0.4823  0.2487
 8674TIP3   OH225985   7.044   5.942   3.778 -0.2875  0.2770 -0.0873
 8674TIP3    H125986   7.003   5.865   3.739  1.0346 -1.1070  1.1152
 8674TIP3    H225987   7.090   5.908   3.855 -0.5796  2.4645  1.1367
 8675TIP3   OH225988   6.618   1.377   5.741 -0.2062  0.1798  0.4942
 8675TIP3    H125989   6.614   1.300   5.797  0.0922  0.1914  0.5314
 8675TIP3    H225990   6.568   1.444   5.789  0.1463  0.2236  0.7989
 8676TIP3   OH225991   5.029   4.876   5.073 -0.5106 -0.0369  0.5437
 8676TIP3    H125992   4.986   4.846   4.993 -0.2764  3.0803 -0.8989
 8676TIP3    H225993   5.117   4.840   5.068 -0.8652 -0.8689  0.0286
 8677TIP3   OH225994   2.884   1.691   5.355  0.7363  0.3018  0.8822
 8677TIP3    H125995   2.856   1.704   5.445  2.0557 -0.7831  1.4820
 8677TIP3    H225996   2.933   1.609   5.356  0.4186  0.0424 -0.9129
 8678TIP3   OH225997   2.667   1.129   3.605 -0.2675  0.3627  0.7261
 8678TIP3    H125998   2.611   1.121   3.682 -1.1653 -0.9056 -0.0346
 8678TIP3    H225999   2.749   1.087   3.631  0.6774  2.8521  2.0895
 8679TIP3   OH226000   3.005   2.584   5.728 -0.1566  0.9092  0.3551
 8679TIP3    H126001   3.046   2.619   5.648  2.7635 -2.2619  0.2134
 8679TIP3    H226002   2.920   2.551   5.698  1.0543 -0.6374 -1.6723
 8680TIP3   OH226003   3.465   2.358   2.147 -0.2116 -0.5687  0.5784
 8680TIP3    H126004   3.508   2.379   2.064 -1.1810 -0.4165  0.0983
 8680TIP3    H226005   3.371   2.360   2.127 -0.5482  1.1476  2.0465
 8681TIP3   OH226006   3.857   2.014   0.996  0.1385 -0.0135 -0.4192
 8681TIP3    H126007   3.820   1.969   1.072 -0.6966 -0.1169 -0.8731
 8681TIP3    H226008   3.844   1.953   0.924  1.6183 -0.2429 -0.5308
 8682TIP3   OH226009   1.768   1.206   5.570 -0.1253 -0.0291 -0.2399
 8682TIP3    H126010   1.823   1.255   5.631 -0.5770  1.5878 -1.0729
 8682TIP3    H226011   1.786   1.114   5.589 -0.3778  0.3949  2.4600
 8683TIP3   OH226012   2.639   6.561   3.525 -0.3937  0.2434 -0.3761
 8683TIP3    H126013   2.707   6.596   3.468  0.0414  0.4196  0.2398
 8683TIP3    H226014   2.624   6.472   3.493  0.9787 -0.2288  0.1924
 8684TIP3   OH226015   3.459   1.007   4.423  0.3272  0.2118 -0.7670
 8684TIP3    H126016   3.424   0.924   4.391  0.2294 -0.2928  0.5921
 8684TIP3    H226017   3.383   1.065   4.428 -0.1670 -0.5269  1.0591
 8685TIP3   OH226018   6.533   3.363   0.137  0.0274 -0.2099 -0.3390
 8685TIP3    H126019   6.538   3.268   0.127  0.5144 -0.1802 -0.3783
 8685TIP3    H226020   6.612   3.386   0.187 -1.3878 -0.1541  2.0439
 8686TIP3   OH226021   6.816   2.377   5.263 -0.1584  0.2567 -0.4054
 8686TIP3    H126022   6.816   2.313   5.334  2.7707  0.7972  0.2370
 8686TIP3    H226023   6.830   2.326   5.183  0.9179 -0.0567 -0.0364
 8687TIP3   OH226024   2.661   1.812   4.775  0.0298 -0.4933  0.2300
 8687TIP3    H126025   2.735   1.795   4.835  0.8518  0.0329 -0.6094
 8687TIP3    H226026   2.608   1.877   4.820  1.0421  0.4612  0.0940
 8688TIP3   OH226027   3.108   1.296   5.622  0.4857  0.4881  0.2971
 8688TIP3    H126028   3.111   1.237   5.698 -2.3166  0.6097  0.5896
 8688TIP3    H226029   3.189   1.277   5.575  0.4133 -2.5622  1.1506
 8689TIP3   OH226030   6.652   1.409   0.276 -0.6914  0.2193  0.1336
 8689TIP3    H126031   6.679   1.430   0.186 -0.7235  0.0969  0.0948
 8689TIP3    H226032   6.730   1.371   0.316 -1.3591 -2.0900 -0.6120
 8690TIP3   OH226033   5.334   0.827   0.638 -0.2487  0.9008  0.4463
 8690TIP3    H126034   5.293   0.741   0.646  0.4137  0.4340 -0.8844
 8690TIP3    H226035   5.341   0.859   0.728 -1.7070  0.1529  0.8571
 8691TIP3   OH226036   0.598   1.644   0.314 -0.0803  0.3266 -0.1614
 8691TIP3    H126037   0.572   1.564   0.268 -1.6425 -0.0385  1.2674
 8691TIP3    H226038   0.673   1.619   0.367 -1.2439 -0.5542  1.1458
 8692TIP3   OH226039   2.092   6.493   1.836 -0.2452  0.6866 -0.5282
 8692TIP3    H126040   2.061   6.435   1.905  0.2444  1.4383  0.3511
 8692TIP3    H226041   2.188   6.491   1.843 -0.2080  1.2966 -0.7208
 8693TIP3   OH226042   4.216   1.346   5.005  0.0094  0.1329 -0.1226
 8693TIP3    H126043   4.292   1.381   4.958  0.2657 -2.2339 -1.6549
 8693TIP3    H226044   4.251   1.316   5.089 -0.0241  2.4041  0.7722
 8694TIP3   OH226045   5.958   5.754   0.454 -0.0096  0.2948 -0.0444
 8694TIP3    H126046   6.048   5.758   0.421  0.1335 -0.0101  0.3049
 8694TIP3    H226047   5.904   5.771   0.377  0.3156 -0.6516 -0.4985
 8695TIP3   OH226048   5.690  -0.026   2.705 -0.0412  0.4517 -0.2788
 8695TIP3    H126049   5.607  -0.006   2.750  1.3692  2.4983  1.6350
 8695TIP3    H226050   5.694   0.037   2.633 -0.0028  0.5692 -0.1742
 8696TIP3   OH226051   3.882   2.221   0.239 -1.1202  0.3655 -0.0495
 8696TIP3    H126052   3.879   2.202   0.332  1.4132 -2.3149 -0.3665
 8696TIP3    H226053   3.946   2.293   0.231  1.4366 -1.7111  0.1806
 8697TIP3   OH226054   0.656   6.758   3.244 -0.2095  0.4558  0.1926
 8697TIP3    H126055   0.711   6.782   3.169  0.9913  0.5188  1.0640
 8697TIP3    H226056   0.612   6.840   3.268  0.3410  0.7226  0.3046
 8698TIP3   OH226057   2.507   5.941   2.315  0.4383  0.2246 -0.3125
 8698TIP3    H126058   2.478   5.952   2.406 -0.6728  1.2314 -0.7584
 8698TIP3    H226059   2.481   6.022   2.272  0.9276 -0.2509 -1.5401
 8699TIP3   OH226060   4.121   2.168   2.603 -0.0977 -0.0712  0.5837
 8699TIP3    H126061   4.216   2.160   2.615 -0.0887  1.5358  2.0162
 8699TIP3    H226062   4.085   2.087   2.636  0.6647  0.1791  2.1112
 8700TIP3   OH226063   6.328   0.645   5.830  0.0167  0.2319  0.0312
 8700TIP3    H126064   6.323   0.737   5.856  0.3025  0.4674 -0.7146
 8700TIP3    H226065   6.399   0.642   5.766 -1.1977 -0.1522 -1.3746
 8701TIP3   OH226066   6.080   4.356   4.335  0.4347 -0.6046  0.4416
 8701TIP3    H126067   6.128   4.316   4.263 -0.1360 -1.3650  0.4670
 8701TIP3    H226068   6.127   4.328   4.414  0.4961 -0.5691  0.4176
 8702TIP3   OH226069   1.039   4.690   5.159  0.4100  0.2034  0.2898
 8702TIP3    H126070   1.058   4.602   5.193 -3.4938 -0.6683  0.6443
 8702TIP3    H226071   1.084   4.692   5.074  1.1447 -1.8962  0.5668
 8703TIP3   OH226072   6.727   4.440   3.859 -0.1107 -0.1052 -0.1117
 8703TIP3    H126073   6.683   4.506   3.912  0.0682  0.4606 -0.6627
 8703TIP3    H226074   6.791   4.489   3.807  2.2403 -1.0347  1.7066
 8704TIP3   OH226075   2.387   0.384   3.626 -0.1844 -0.1764  0.3043
 8704TIP3    H126076   2.424   0.445   3.562  0.5114 -0.1389  0.7257
 8704TIP3    H226077   2.370   0.438   3.703 -0.0828 -0.4106  0.4923
 8705TIP3   OH226078   3.660   4.944   5.498  0.2585 -0.0522  0.3213
 8705TIP3    H126079   3.667   5.022   5.552 -1.0342  0.6961 -0.5301
 8705TIP3    H226080   3.683   4.973   5.410 -2.7374  0.0766 -0.5343
 8706TIP3   OH226081   2.139   1.598   0.124 -0.0633 -0.6341  0.5069
 8706TIP3    H126082   2.078   1.665   0.091  0.9649 -0.2314 -0.7057
 8706TIP3    H226083   2.111   1.582   0.214 -1.7609 -0.2574  0.0870
 8707TIP3   OH226084   7.129   1.343   1.385 -0.3795 -0.6277 -0.2852
 8707TIP3    H126085   7.179   1.407   1.435  0.3440 -1.8760  0.6438
 8707TIP3    H226086   7.043   1.382   1.374 -0.3163  0.0002  1.2849
 8708TIP3   OH226087   3.972   4.855   0.578 -0.1597 -0.2997  0.0331
 8708TIP3    H126088   3.920   4.859   0.497  0.5050  0.8475 -0.3597
 8708TIP3    H226089   3.933   4.783   0.627 -0.7136 -0.8999 -1.2183
 8709TIP3   OH226090   3.087   6.467   4.724 -0.4093  0.0548 -0.0390
 8709TIP3    H126091   3.073   6.497   4.814 -3.4860  0.4636 -0.5588
 8709TIP3    H226092   3.114   6.376   4.733 -0.9283  0.0076  1.3013
 8710TIP3   OH226093   4.009   5.070   5.077 -0.6771 -0.6184 -0.8728
 8710TIP3    H126094   4.051   5.156   5.079 -2.5430  0.3461 -0.5231
 8710TIP3    H226095   4.046   5.027   5.000 -0.7465  1.0783 -1.9143
 8711TIP3   OH226096   5.606   2.375  -0.011  0.0292 -0.1674 -0.1652
 8711TIP3    H126097   5.541   2.338   0.049 -0.4225  1.0555  0.1368
 8711TIP3    H226098   5.687   2.379   0.040 -0.5766  1.7758  0.7677
 8712TIP3   OH226099   0.919   3.521   4.384 -0.5528  0.4786 -0.0058
 8712TIP3    H126100   0.971   3.447   4.417 -1.7473 -0.9474 -1.2159
 8712TIP3    H226101   0.905   3.576   4.461  3.9980  1.8194  0.1761
 8713TIP3   OH226102   6.877   1.543   0.994 -0.5367  0.1770 -0.3069
 8713TIP3    H126103   6.807   1.555   0.928 -1.9387 -0.3087  1.0344
 8713TIP3    H226104   6.856   1.606   1.063  1.4632  1.3575 -0.6986
 8714TIP3   OH226105   7.130   0.572   4.083 -0.2734 -0.3158 -0.7112
 8714TIP3    H126106   7.051   0.546   4.035 -0.4001 -1.0943 -0.1132
 8714TIP3    H226107   7.180   0.624   4.021 -0.9004 -0.4669 -1.3554
 8715TIP3   OH226108   0.673   4.268   2.976 -0.0205  0.3751  0.0002
 8715TIP3    H126109   0.760   4.254   3.012 -0.3977  1.0022  1.2349
 8715TIP3    H226110   0.637   4.180   2.965  0.7399  0.1225 -0.4379
 8716TIP3   OH226111   6.922   4.639   1.809 -0.1414  0.0455 -0.3704
 8716TIP3    H126112   6.962   4.720   1.840 -0.9625  0.5221 -0.5016
 8716TIP3    H226113   6.900   4.657   1.717 -0.5575 -0.2282 -0.3290
 8717TIP3   OH226114   1.343   5.156   3.086  0.8180  0.0923  0.6960
 8717TIP3    H126115   1.366   5.249   3.087 -1.6693  0.8880 -2.3125
 8717TIP3    H226116   1.409   5.116   3.030  1.2126  0.2630  1.0346
 8718TIP3   OH226117   4.719   4.297   1.866  0.2048  0.4012  0.0577
 8718TIP3    H126118   4.717   4.282   1.771  1.1767 -0.6571  0.1787
 8718TIP3    H226119   4.738   4.390   1.876  0.7035  0.3929 -0.7870
 8719TIP3   OH226120   6.768   1.977   4.170 -0.5190  0.0107 -0.0713
 8719TIP3    H126121   6.777   1.966   4.076 -1.3853  2.7044 -0.5372
 8719TIP3    H226122   6.763   1.887   4.204  4.2706 -1.2354 -1.9810
 8720TIP3   OH226123   5.599   3.601   1.466 -0.4182 -0.2862 -0.4657
 8720TIP3    H126124   5.589   3.695   1.482  0.3012 -0.3549  0.5013
 8720TIP3    H226125   5.690   3.582   1.491 -0.4127 -1.1531 -1.1024
 8721TIP3   OH226126   7.109   6.076   3.512 -0.0474  0.0250  0.6226
 8721TIP3    H126127   7.067   6.065   3.598  0.1073 -1.0183  0.5755
 8721TIP3    H226128   7.197   6.039   3.523  0.0048 -0.0286  0.0449
 8722TIP3   OH226129   3.052   4.384   1.352  0.0023 -0.6339 -0.2983
 8722TIP3    H126130   3.085   4.461   1.306  0.0097 -1.0427 -0.9831
 8722TIP3    H226131   3.122   4.320   1.345  0.5967 -0.2405  1.5177
 8723TIP3   OH226132   0.408   5.397   0.915  0.6031 -0.6326  0.4427
 8723TIP3    H126133   0.325   5.444   0.907  0.1613 -1.6582 -3.0190
 8723TIP3    H226134   0.472   5.453   0.872  0.4782 -2.0474 -1.8226
 8724TIP3   OH226135   5.732   5.586   4.153  0.0316 -0.0413 -0.2438
 8724TIP3    H126136   5.687   5.658   4.109  0.0670 -0.1600 -0.4794
 8724TIP3    H226137   5.662   5.524   4.174  0.0488 -0.1132 -0.3897
 8725TIP3   OH226138   0.045   2.560   4.855 -0.0010  0.1656  0.2080
 8725TIP3    H126139   0.110   2.537   4.790 -0.5476  1.1581 -0.7082
 8725TIP3    H226140  -0.008   2.628   4.814  0.2553  1.5467  2.0433
 8726TIP3   OH226141   1.658   1.380   0.250  0.3793 -0.2909  0.0415
 8726TIP3    H126142   1.727   1.386   0.184  0.5078  3.3059  0.3137
 8726TIP3    H226143   1.704   1.351   0.330  1.1635  0.0100 -0.2896
 8727TIP3   OH226144   5.046   5.655   4.917  0.1083 -0.2469 -0.0653
 8727TIP3    H126145   5.100   5.640   4.840  1.6592  0.1838  0.8770
 8727TIP3    H226146   4.998   5.573   4.929  0.9827 -0.8619 -0.6263
 8728TIP3   OH226147   5.577   1.681   3.582 -0.0497  0.0750 -0.2087
 8728TIP3    H126148   5.588   1.587   3.596  0.0132  0.0383 -0.4906
 8728TIP3    H226149   5.571   1.718   3.670  0.9313 -0.0744 -0.0639
 8729TIP3   OH226150   1.600   5.332   1.569  0.0702  0.1361  0.7986
 8729TIP3    H126151   1.629   5.368   1.653  0.5014 -0.3552  0.8691
 8729TIP3    H226152   1.672   5.353   1.508 -0.1021  0.2202  0.6228
 8730TIP3   OH226153   2.554   0.144   5.378  0.0855  0.0508 -0.6822
 8730TIP3    H126154   2.568   0.064   5.327 -0.4967 -0.1224 -0.5844
 8730TIP3    H226155   2.569   0.215   5.315  0.1039 -0.1459 -0.9026
 8731TIP3   OH226156   0.479   6.563   1.129  0.0819 -0.0285 -0.4904
 8731TIP3    H126157   0.565   6.598   1.105 -0.1272  1.5098  0.8642
 8731TIP3    H226158   0.417   6.620   1.084 -0.2589 -0.4450 -0.5580
 8732TIP3   OH226159   4.987   3.074   0.770 -0.0852 -0.5504  0.7360
 8732TIP3    H126160   4.982   3.141   0.702 -0.7281 -0.8561  0.4691
 8732TIP3    H226161   4.996   2.992   0.721  0.0707 -0.7150  1.0411
 8733TIP3   OH226162   7.161   1.095   2.373  0.3300  0.2989 -0.0544
 8733TIP3    H126163   7.235   1.097   2.432 -0.5832  0.2620  1.1231
 8733TIP3    H226164   7.085   1.115   2.428 -0.5228  0.4868 -1.2475
 8734TIP3   OH226165   0.531   3.775   5.422 -0.4938  0.2182  0.0001
 8734TIP3    H126166   0.468   3.707   5.444  0.8600 -1.2437 -0.4311
 8734TIP3    H226167   0.532   3.776   5.326  1.1019 -0.7736 -0.0260
 8735TIP3   OH226168   6.242   6.560   0.844 -0.8663 -0.1572 -0.8910
 8735TIP3    H126169   6.283   6.643   0.869  0.6975 -0.7489 -1.3593
 8735TIP3    H226170   6.229   6.514   0.926 -0.0214 -0.1967 -0.7693
 8736TIP3   OH226171   1.515   1.530   3.843 -1.1186  0.3584  0.4826
 8736TIP3    H126172   1.572   1.461   3.810  0.8545  1.6381  1.0254
 8736TIP3    H226173   1.517   1.598   3.775 -0.2373  1.3001  1.4020
 8737TIP3   OH226174   3.210   4.685   0.091 -0.1424  0.5197  0.0540
 8737TIP3    H126175   3.191   4.738   0.014  0.0937 -1.7404 -1.6550
 8737TIP3    H226176   3.144   4.616   0.089  0.9886 -0.6264  0.8377
 8738TIP3   OH226177   4.251   4.676   0.606 -0.2661 -0.1899 -0.0205
 8738TIP3    H126178   4.254   4.691   0.701 -1.8132  2.1811 -0.2561
 8738TIP3    H226179   4.158   4.671   0.586  0.0020  0.4419 -1.5291
 8739TIP3   OH226180   3.635   1.114   3.363 -0.4129 -0.3421 -0.0185
 8739TIP3    H126181   3.651   1.182   3.297 -0.9072  0.7589  0.9609
 8739TIP3    H226182   3.721   1.097   3.401 -0.6155  1.6106  1.4706
 8740TIP3   OH226183   4.067   3.787   2.902  0.3673  0.0705 -0.6460
 8740TIP3    H126184   4.087   3.842   2.826  0.7023  0.4913 -0.2586
 8740TIP3    H226185   4.136   3.808   2.965 -0.9520  1.1491  0.5146
 8741TIP3   OH226186   1.183   4.518   0.987  0.1907 -0.3615 -0.4013
 8741TIP3    H126187   1.197   4.521   1.082 -1.2455 -2.1459 -0.0852
 8741TIP3    H226188   1.254   4.463   0.954  2.1825  2.2421 -0.7722
 8742TIP3   OH226189   3.539   2.893   0.670 -0.5327 -0.4136 -0.0753
 8742TIP3    H126190   3.565   2.985   0.673 -1.6693 -0.0942  0.7231
 8742TIP3    H226191   3.530   2.868   0.762 -0.5049 -1.2466 -0.2904
 8743TIP3   OH226192   1.348   0.471   2.015 -0.5015 -0.4593 -0.1503
 8743TIP3    H126193   1.317   0.561   2.029 -1.8387 -0.8961 -0.1666
 8743TIP3    H226194   1.277   0.429   1.967 -0.0320 -1.6319  0.1582
 8744TIP3   OH226195   1.669   5.617   5.867  0.2460 -0.1916  0.3816
 8744TIP3    H126196   1.651   5.649   5.778 -0.6048 -0.9328  0.2683
 8744TIP3    H226197   1.736   5.676   5.900  0.0260  0.5755 -0.4757
 8745TIP3   OH226198   5.916   0.431   0.838  0.1385  0.4469  0.1801
 8745TIP3    H126199   5.858   0.434   0.915 -0.3745 -0.2717 -0.1704
 8745TIP3    H226200   5.858   0.409   0.765  0.8798 -0.4495 -0.1527
 8746TIP3   OH226201   3.493   0.575   4.625  0.6364 -0.0093  0.0669
 8746TIP3    H126202   3.453   0.628   4.693  1.8687  0.8756  0.1389
 8746TIP3    H226203   3.420   0.529   4.584 -0.3748  1.1485  0.5077
 8747TIP3   OH226204   0.909   1.745   2.960 -0.1617  0.0197  0.1430
 8747TIP3    H126205   0.872   1.827   2.928  0.4439  0.1237 -0.2953
 8747TIP3    H226206   0.947   1.703   2.883 -1.5608 -1.2830  0.1108
 8748TIP3   OH226207   4.534   3.174   2.074 -0.0411 -0.1949 -0.2108
 8748TIP3    H126208   4.442   3.188   2.050  0.0463  1.1311  0.1752
 8748TIP3    H226209   4.538   3.081   2.099 -1.4320 -0.0991  0.4521
 8749TIP3   OH226210   6.272   6.442   1.093 -0.1750  0.1558  0.3570
 8749TIP3    H126211   6.276   6.405   1.181 -0.4240 -0.5914  0.0609
 8749TIP3    H226212   6.335   6.515   1.095 -0.5889  0.5023  1.3066
 8750TIP3   OH226213   0.327   0.340   3.215 -0.3913  0.2759 -0.6026
 8750TIP3    H126214   0.418   0.324   3.239  0.1693  1.0022 -2.0833
 8750TIP3    H226215   0.301   0.415   3.269 -0.0941  0.1192 -0.2380
 8751TIP3   OH226216   6.941   3.372   1.645  0.5577 -0.3800  0.3191
 8751TIP3    H126217   6.983   3.312   1.584  0.6002  0.4424 -0.4713
 8751TIP3    H226218   6.924   3.451   1.594  0.8142  0.4145  1.4255
 8752TIP3   OH226219   4.392   6.684   0.088 -0.6423 -0.1286  0.2319
 8752TIP3    H126220   4.305   6.705   0.054 -0.3965  0.1136 -0.2575
 8752TIP3    H226221   4.451   6.701   0.015 -0.1957 -0.4222  0.5199
 8753TIP3   OH226222   6.335   4.443   0.701  0.5647  0.7055  0.0312
 8753TIP3    H126223   6.357   4.484   0.617 -0.6943 -0.1465 -0.7440
 8753TIP3    H226224   6.316   4.352   0.679  2.6211 -0.1920  1.6230
 8754TIP3   OH226225   0.085   5.192   5.054  0.1587 -0.8473 -0.0725
 8754TIP3    H126226   0.129   5.184   5.138  0.1503 -1.7092 -0.1439
 8754TIP3    H226227  -0.004   5.159   5.070  0.0799 -0.7836 -0.3613
 8755TIP3   OH226228   3.696   5.704   4.057 -0.5116 -0.4498  0.0937
 8755TIP3    H126229   3.658   5.738   4.138  0.9073  1.0288  0.1849
 8755TIP3    H226230   3.732   5.781   4.013 -0.6026 -1.3332 -1.6060
 8756TIP3   OH226231   3.144   0.411   0.382 -0.3989 -0.3722  0.2659
 8756TIP3    H126232   3.109   0.322   0.377 -1.1349 -0.0821  0.1763
 8756TIP3    H226233   3.107   0.456   0.307 -2.1270  0.7289  1.7080
 8757TIP3   OH226234   2.424   6.394   4.152 -0.1748 -0.3165 -0.4436
 8757TIP3    H126235   2.451   6.383   4.243 -2.3770 -0.3199  0.2697
 8757TIP3    H226236   2.411   6.488   4.142 -1.4475 -0.4533 -0.2495
 8758TIP3   OH226237   0.524   6.179   2.283  0.4681 -0.5622 -0.4585
 8758TIP3    H126238   0.505   6.093   2.320  0.1622  0.0778  0.9253
 8758TIP3    H226239   0.617   6.192   2.302  0.4142 -0.4183 -0.2883
 8759TIP3   OH226240   3.205   5.538   5.543  0.0110  0.2548  0.5559
 8759TIP3    H126241   3.274   5.572   5.486 -0.7969 -0.0416 -0.6223
 8759TIP3    H226242   3.249   5.472   5.597  0.4981 -0.4744 -0.7049
 8760TIP3   OH226243   4.956   1.372   1.367  0.1660  0.0386 -0.3157
 8760TIP3    H126244   5.002   1.425   1.431  0.1959 -1.4939  0.9903
 8760TIP3    H226245   5.015   1.369   1.291  1.0246  0.2353  0.3322
 8761TIP3   OH226246   5.182   5.198   4.129  0.6271  0.0003 -0.3752
 8761TIP3    H126247   5.217   5.280   4.163 -0.2529  1.4001 -2.5908
 8761TIP3    H226248   5.255   5.158   4.082  0.7491  0.0902 -0.2607
 8762TIP3   OH226249   6.110   3.149   4.892 -0.4653 -0.4637  0.4653
 8762TIP3    H126250   6.088   3.181   4.979 -2.2443  1.9043 -0.7363
 8762TIP3    H226251   6.042   3.084   4.872  0.2360 -1.3815  0.9947
 8763TIP3   OH226252   4.289   3.195   2.787  0.0348 -0.3711 -0.8315
 8763TIP3    H126253   4.340   3.228   2.713 -0.4075 -0.5143 -1.2059
 8763TIP3    H226254   4.286   3.268   2.849  2.4202 -0.9921  0.1368
 8764TIP3   OH226255   0.909   5.328   3.200 -0.1840 -0.3248 -0.1217
 8764TIP3    H126256   0.959   5.277   3.264 -0.1537 -2.8360 -1.9779
 8764TIP3    H226257   0.927   5.285   3.116 -2.5183  1.0050 -1.4091
 8765TIP3   OH226258   3.561   1.516   4.140  0.6564 -0.2931  0.1749
 8765TIP3    H126259   3.554   1.610   4.121  0.2847  0.5212  3.6792
 8765TIP3    H226260   3.641   1.507   4.191  0.4284 -1.7837  0.3352
 8766TIP3   OH226261   2.733   1.795   1.719  0.7264  0.1629 -0.0420
 8766TIP3    H126262   2.646   1.836   1.716  0.2763 -0.4657  2.2819
 8766TIP3    H226263   2.760   1.790   1.627 -1.5973  0.5786 -0.8344
 8767TIP3   OH226264   0.874   6.185   4.362  0.1468  0.1558 -0.1178
 8767TIP3    H126265   0.779   6.184   4.373  0.2020 -3.2273  0.8970
 8767TIP3    H226266   0.888   6.159   4.271  0.1034 -0.5717  0.0799
 8768TIP3   OH226267   5.156   1.525   3.876  0.2435  0.2814  0.3071
 8768TIP3    H126268   5.187   1.607   3.837  1.1356 -0.3632 -0.3817
 8768TIP3    H226269   5.116   1.477   3.803  0.8391 -0.4208  0.4338
 8769TIP3   OH226270   4.919   3.262   4.425  0.3517 -0.0199 -0.0485
 8769TIP3    H126271   4.850   3.217   4.377 -0.2273 -0.5703  1.2655
 8769TIP3    H226272   4.941   3.337   4.370  0.1938 -0.9855 -1.4911
 8770TIP3   OH226273   5.084   0.301   1.871 -0.6950 -0.0832 -0.1055
 8770TIP3    H126274   5.027   0.377   1.857 -0.8191 -0.0808  0.3822
 8770TIP3    H226275   5.173   0.337   1.869 -0.6300 -0.2647 -2.0230
 8771TIP3   OH226276   2.714   0.089   1.907 -0.2423  0.4957  0.4104
 8771TIP3    H126277   2.647   0.141   1.863  0.1041 -0.2788 -1.1334
 8771TIP3    H226278   2.754   0.037   1.836  1.0239 -0.0959  1.5048
 8772TIP3   OH226279   1.647   5.660   4.457  0.0103 -0.2743  0.3702
 8772TIP3    H126280   1.665   5.580   4.507  1.9626 -1.3320 -1.8308
 8772TIP3    H226281   1.553   5.656   4.438 -0.0452 -1.6842  0.8498
 8773TIP3   OH226282   5.657   3.293   4.818  0.1631  0.5501 -0.5006
 8773TIP3    H126283   5.649   3.220   4.757 -1.5488 -0.1467  0.4951
 8773TIP3    H226284   5.639   3.371   4.766 -0.5394  0.0308 -1.0498
 8774TIP3   OH226285   1.405   3.782   1.685  0.8746 -0.0566 -0.6023
 8774TIP3    H126286   1.403   3.835   1.605  1.3804 -0.1296 -0.6670
 8774TIP3    H226287   1.490   3.738   1.683  0.1442 -1.5225 -0.9706
 8775TIP3   OH226288   6.574   0.582   3.629  0.5033 -0.0787 -0.0142
 8775TIP3    H126289   6.487   0.542   3.623  0.7950 -0.5724 -1.1400
 8775TIP3    H226290   6.566   0.644   3.702 -0.6507 -0.4629  0.2123
 8776TIP3   OH226291   1.305   1.540   3.074  0.4761 -0.0130 -0.6703
 8776TIP3    H126292   1.354   1.457   3.077 -0.1085 -0.3398  0.1162
 8776TIP3    H226293   1.350   1.596   3.137  1.8353  0.8386 -2.3212
 8777TIP3   OH226294   4.811   1.468   3.037  0.6497  0.1280 -0.4251
 8777TIP3    H126295   4.811   1.560   3.066  0.5751 -0.0098  0.0312
 8777TIP3    H226296   4.891   1.458   2.986  0.9451  0.3051 -0.0018
 8778TIP3   OH226297   7.176   4.377   2.589  0.1030 -0.0532 -0.6558
 8778TIP3    H126298   7.138   4.425   2.663 -0.7155  0.0017 -1.0953
 8778TIP3    H226299   7.101   4.357   2.533  0.8635  1.0244 -2.1181
 8779TIP3   OH226300   2.317   1.367   4.718  0.6162  0.2168  0.5598
 8779TIP3    H126301   2.368   1.287   4.704 -0.2810 -0.1742 -0.6213
 8779TIP3    H226302   2.350   1.428   4.652  0.6197  0.4998  0.8201
 8780TIP3   OH226303   3.799   0.321   0.873  0.0086  0.8470  0.2361
 8780TIP3    H126304   3.844   0.386   0.819  1.6301 -0.4361 -0.0530
 8780TIP3    H226305   3.823   0.237   0.834 -2.4731  0.0432  0.2434
 8781TIP3   OH226306   2.945   4.559   1.570 -1.0005  0.2676  0.1506
 8781TIP3    H126307   3.039   4.573   1.574 -0.6616 -1.8359  0.8726
 8781TIP3    H226308   2.934   4.487   1.508 -2.0808  0.1107  0.5031
 8782TIP3   OH226309   0.622   1.007   4.200  0.0849 -0.2299  0.1664
 8782TIP3    H126310   0.546   0.998   4.258  0.3390  0.5162  0.6318
 8782TIP3    H226311   0.682   1.064   4.247 -0.1621  1.3081 -1.2878
 8783TIP3   OH226312   6.279   3.304   2.620 -0.0492 -0.1127 -0.4081
 8783TIP3    H126313   6.255   3.223   2.576 -0.4981 -0.4337  0.4048
 8783TIP3    H226314   6.333   3.351   2.556 -0.6837 -0.5554 -1.2981
 8784TIP3   OH226315   1.155   4.310   2.699 -0.2495 -0.1001  0.1172
 8784TIP3    H126316   1.164   4.222   2.736 -0.3554 -0.0137  0.3454
 8784TIP3    H226317   1.081   4.348   2.745 -0.0080  0.2242  0.2391
 8785TIP3   OH226318   3.953   3.279   1.073  0.5504  0.5349  0.0004
 8785TIP3    H126319   4.046   3.263   1.086  0.6838  1.7608  0.6989
 8785TIP3    H226320   3.914   3.192   1.069  1.4999  0.0162  1.3982
 8786TIP3   OH226321   0.672   3.020   0.975 -0.3510  0.1491  0.6355
 8786TIP3    H126322   0.577   3.013   0.974 -0.2825 -0.8449 -0.7491
 8786TIP3    H226323   0.689   3.114   0.986 -1.4539  0.2482  1.7826
 8787TIP3   OH226324   2.569   6.629   2.911 -0.1635 -0.1571  0.0621
 8787TIP3    H126325   2.534   6.597   2.994 -1.4216 -0.4368 -0.5605
 8787TIP3    H226326   2.607   6.552   2.869 -0.5810 -0.2569 -0.1374
 8788TIP3   OH226327   2.510   0.614   0.762 -0.2913 -0.5431  1.2051
 8788TIP3    H126328   2.537   0.693   0.715 -0.5217 -0.5193  1.1107
 8788TIP3    H226329   2.590   0.581   0.802  0.2515 -1.5439 -0.6374
 8789TIP3   OH226330   1.096   1.019   2.202  0.1008 -0.1856  0.2700
 8789TIP3    H126331   1.087   1.029   2.297  1.2590 -0.2596  0.4098
 8789TIP3    H226332   1.129   1.104   2.172  0.0416 -0.2637 -0.0171
 8790TIP3   OH226333   5.798   0.126   2.445  0.2258  0.2483 -0.2725
 8790TIP3    H126334   5.739   0.181   2.394 -0.6628 -0.9829 -0.6018
 8790TIP3    H226335   5.805   0.045   2.395  1.1911 -0.1058  0.4064
 8791TIP3   OH226336   4.729   5.180   4.977 -0.1229 -0.0455  0.1467
 8791TIP3    H126337   4.741   5.085   4.978  1.0148  0.0858  1.6795
 8791TIP3    H226338   4.743   5.207   5.067 -0.3532  1.6079 -0.2842
 8792TIP3   OH226339   6.764   6.742   3.419  0.0698 -0.0749 -0.1689
 8792TIP3    H126340   6.808   6.813   3.466 -1.2435  1.6850 -1.4423
 8792TIP3    H226341   6.827   6.717   3.351  0.4206  0.1002  0.0882
 8793TIP3   OH226342   1.223   5.105   2.194 -0.1891 -0.1175  0.4943
 8793TIP3    H126343   1.289   5.137   2.255  0.7501  1.5123 -1.2932
 8793TIP3    H226344   1.140   5.136   2.230  0.2649  0.1045  1.3674
 8794TIP3   OH226345   3.328   1.409   4.112 -0.3329  0.4919  0.1009
 8794TIP3    H126346   3.298   1.442   4.197  0.0393 -1.3906  1.0149
 8794TIP3    H226347   3.401   1.467   4.089  0.1048  0.5293  1.4811
 8795TIP3   OH226348   2.596   5.237   5.147 -0.6256  0.2981 -0.7065
 8795TIP3    H126349   2.544   5.294   5.203  1.1347  1.8072 -0.5342
 8795TIP3    H226350   2.575   5.266   5.058 -1.2144 -0.1406 -0.7189
 8796TIP3   OH226351   6.734   0.208   5.072  0.0792 -0.1844 -0.2086
 8796TIP3    H126352   6.646   0.228   5.101  0.1242  1.0932 -0.8739
 8796TIP3    H226353   6.724   0.180   4.981  0.4069  0.5931 -0.4952
 8797TIP3   OH226354   0.233   1.337   5.784 -0.0993  0.2764  0.3062
 8797TIP3    H126355   0.223   1.340   5.689  1.6749  2.2003  0.1052
 8797TIP3    H226356   0.210   1.425   5.814  1.1673  0.2775  1.3892
 8798TIP3   OH226357   1.799   0.593   4.117  0.2132  0.1723 -0.1800
 8798TIP3    H126358   1.847   0.581   4.199 -0.0455 -1.9438 -0.2867
 8798TIP3    H226359   1.707   0.596   4.142  0.1028 -0.9258 -0.4003
 8799TIP3   OH226360   7.107   5.261   1.735  0.2413  0.0333 -0.4156
 8799TIP3    H126361   7.141   5.345   1.701 -0.6558  0.5755 -0.0031
 8799TIP3    H226362   7.136   5.259   1.826 -1.2564  0.7665  0.1088
 8800TIP3   OH226363   5.987   3.249   5.855  0.1113  0.1056 -0.1335
 8800TIP3    H126364   5.942   3.330   5.829  0.0492  0.1751  0.1792
 8800TIP3    H226365   5.927   3.179   5.830 -0.3241  0.2148  0.5679
 8801TIP3   OH226366   0.840   1.305   2.933 -0.9618 -0.1868 -0.9468
 8801TIP3    H126367   0.922   1.338   2.970 -1.1074 -1.0123  0.1876
 8801TIP3    H226368   0.774   1.331   2.997 -1.5187  0.0473 -1.6105
 8802TIP3   OH226369   1.783   1.990   4.607  0.0441  0.5819 -0.1969
 8802TIP3    H126370   1.702   2.004   4.656  0.3347  0.5527  0.3023
 8802TIP3    H226371   1.778   2.050   4.533 -0.1268  1.0673  0.2076
 8803TIP3   OH226372   2.007   5.763   5.696 -0.0774  0.0797  0.3082
 8803TIP3    H126373   2.027   5.770   5.602  1.2837 -0.0593  0.5677
 8803TIP3    H226374   2.006   5.669   5.713  0.1503  0.1164  0.5245
 8804TIP3   OH226375   6.063   2.527   4.153 -0.0650 -0.0064  0.1593
 8804TIP3    H126376   6.097   2.505   4.240 -1.2411  0.3896  0.7399
 8804TIP3    H226377   6.131   2.582   4.114  0.5561 -0.3349  0.7441
 8805TIP3   OH226378   2.484   5.094   1.901  0.0097  0.1231  0.4183
 8805TIP3    H126379   2.493   5.180   1.858  1.4229  0.4999  1.4160
 8805TIP3    H226380   2.398   5.098   1.943 -1.0711  0.0472 -1.6089
 8806TIP3   OH226381   1.392   1.669   2.552 -0.3181  0.3598 -0.1173
 8806TIP3    H126382   1.409   1.574   2.551 -2.7893 -0.1488 -0.6401
 8806TIP3    H226383   1.369   1.689   2.461 -1.7305  1.0355  0.3675
 8807TIP3   OH226384   2.192   3.732   3.447 -0.1308  0.3262  0.0768
 8807TIP3    H126385   2.271   3.728   3.500 -0.1234  0.8498  0.1164
 8807TIP3    H226386   2.196   3.654   3.391  0.0584 -0.0189  0.5645
 8808TIP3   OH226387   6.103   3.449   1.577 -0.3360  0.3739  0.8606
 8808TIP3    H126388   6.060   3.521   1.530  0.3619 -0.8753 -1.8617
 8808TIP3    H226389   6.055   3.371   1.551 -0.5206 -0.2998  3.0620
 8809TIP3   OH226390   3.092   1.638   3.037  0.4428  0.8753  0.3606
 8809TIP3    H126391   3.010   1.588   3.035  0.0994  1.3512  1.8240
 8809TIP3    H226392   3.096   1.680   2.951  0.0710 -0.5692 -0.4052
 8810TIP3   OH226393   1.602   3.392   2.716 -0.3148  0.4702 -0.0242
 8810TIP3    H126394   1.507   3.399   2.731 -0.2889 -1.0558  0.9723
 8810TIP3    H226395   1.641   3.453   2.778 -0.5492 -0.8420  1.4761
 8811TIP3   OH226396   5.110   6.248   2.207 -0.1003  0.1119 -0.8218
 8811TIP3    H126397   5.088   6.336   2.176  0.7170  0.8627  0.6167
 8811TIP3    H226398   5.112   6.257   2.302 -0.5399 -1.6113 -0.6292
 8812TIP3   OH226399   2.225   2.895   1.351 -0.1882  0.2354 -0.1390
 8812TIP3    H126400   2.165   2.924   1.419 -0.6898 -0.2088 -0.3883
 8812TIP3    H226401   2.230   2.970   1.291 -1.5340 -0.1744 -0.8143
 8813TIP3   OH226402   1.431   5.218   4.817  0.0789 -0.3385  0.0021
 8813TIP3    H126403   1.469   5.262   4.740 -0.6970  0.9626  0.3259
 8813TIP3    H226404   1.408   5.290   4.876 -0.9860 -1.2140  0.6846
 8814TIP3   OH226405   5.819   0.133   1.137  0.0513 -0.6753 -0.0834
 8814TIP3    H126406   5.824   0.191   1.213 -1.7102  1.1873 -1.2841
 8814TIP3    H226407   5.771   0.183   1.072  1.8805 -2.0069 -2.6415
 8815TIP3   OH226408   4.305   2.099   0.210  0.6291  0.3160  0.6617
 8815TIP3    H126409   4.310   2.166   0.278 -0.6170 -0.3768  1.4710
 8815TIP3    H226410   4.229   2.046   0.234  1.1859 -0.9864 -0.3287
 8816TIP3   OH226411   1.948   5.558   3.435 -0.0845 -0.3515 -0.4803
 8816TIP3    H126412   1.983   5.523   3.353 -1.9058  1.0924 -1.9643
 8816TIP3    H226413   2.007   5.629   3.459  0.9218 -1.3058 -0.0415
 8817TIP3   OH226414   6.850   5.204   1.851  0.3705  0.1651  0.1408
 8817TIP3    H126415   6.802   5.131   1.811  1.7265 -1.5038  1.4552
 8817TIP3    H226416   6.932   5.209   1.802  1.3806 -0.8948  1.6629
 8818TIP3   OH226417   2.756   3.524   2.638  0.2571 -0.6430  0.2824
 8818TIP3    H126418   2.729   3.579   2.565  0.8962 -0.7198 -0.0150
 8818TIP3    H226419   2.850   3.514   2.628  0.6760  0.8034  2.0970
 8819TIP3   OH226420   6.102   3.949   4.069  0.0071 -0.4731 -0.3894
 8819TIP3    H126421   6.174   3.997   4.110 -1.2641  0.2247  1.1015
 8819TIP3    H226422   6.032   4.014   4.060 -1.3804 -1.7616  0.6868
 8820TIP3   OH226423   4.822   2.994   4.743  0.6412 -0.2767  0.1723
 8820TIP3    H126424   4.831   2.928   4.674 -2.7512  0.4107 -1.1049
 8820TIP3    H226425   4.830   3.078   4.698  0.6952  0.2027  1.0492
 8821TIP3   OH226426   5.373   2.392   0.568  0.2072 -0.0362 -0.0673
 8821TIP3    H126427   5.448   2.384   0.508 -0.6249  0.6584 -1.2410
 8821TIP3    H226428   5.386   2.476   0.611  0.2958 -0.0879  0.0079
 8822TIP3   OH226429   0.234   4.902   3.136 -0.6456  0.4154  0.4885
 8822TIP3    H126430   0.329   4.911   3.137 -0.4363 -1.2230 -0.7830
 8822TIP3    H226431   0.206   4.956   3.061 -0.6087  0.1404  0.2741
 8823TIP3   OH226432   4.240   4.167   3.814 -0.7240  0.2491  0.2820
 8823TIP3    H126433   4.303   4.162   3.886 -2.3924 -0.5147  1.7634
 8823TIP3    H226434   4.293   4.157   3.735  1.0434  0.0152  1.4426
 8824TIP3   OH226435   3.621   0.045   2.035  0.8178  0.1462  0.2337
 8824TIP3    H126436   3.585   0.117   2.088 -0.0137  0.4577 -0.7313
 8824TIP3    H226437   3.553  -0.023   2.037  0.6900  0.2427 -0.5889
 8825TIP3   OH226438   0.267   3.391   2.826 -0.5447  0.1454 -0.2720
 8825TIP3    H126439   0.309   3.454   2.886 -2.0214  1.2120 -0.2981
 8825TIP3    H226440   0.189   3.437   2.794 -1.4113 -1.5396 -0.6853
 8826TIP3   OH226441   4.159   1.014   1.546 -0.3353 -0.2970  0.3867
 8826TIP3    H126442   4.091   1.078   1.526  0.4808  0.7688  0.9162
 8826TIP3    H226443   4.161   1.010   1.642  1.0549  0.5160  0.4241
 8827TIP3   OH226444   1.299   5.393   0.234  0.1398  0.1190 -0.0776
 8827TIP3    H126445   1.370   5.372   0.173  0.3098 -1.1154  0.5147
 8827TIP3    H226446   1.223   5.347   0.198  0.5237 -1.6617  1.2625
 8828TIP3   OH226447   5.834   0.475   3.085 -0.1713  0.5029  0.2267
 8828TIP3    H126448   5.777   0.537   3.130  0.3481  0.8371  0.4337
 8828TIP3    H226449   5.831   0.397   3.139 -1.7887 -0.1089 -0.6698
 8829TIP3   OH226450   4.956   3.356   5.243 -0.2832  0.6080  0.7439
 8829TIP3    H126451   4.997   3.432   5.282  0.0194  1.0633 -0.4105
 8829TIP3    H226452   4.892   3.326   5.308  0.6555  0.9210  1.8344
 8830TIP3   OH226453   5.588   5.687   1.646  0.2044 -0.6059 -0.4134
 8830TIP3    H126454   5.669   5.728   1.675  0.9312 -1.5688 -1.0239
 8830TIP3    H226455   5.544   5.660   1.727 -0.4010  1.4964  0.0210
 8831TIP3   OH226456   0.719   3.708   1.218 -0.0911 -0.3851 -0.0610
 8831TIP3    H126457   0.680   3.678   1.301  0.1938 -0.4042  0.0659
 8831TIP3    H226458   0.674   3.658   1.151  0.1853 -0.8962  0.1304
 8832TIP3   OH226459   2.122   4.124   2.196 -0.2430 -0.1597 -0.0357
 8832TIP3    H126460   2.057   4.144   2.263  0.5314 -1.4489  1.1453
 8832TIP3    H226461   2.141   4.208   2.155 -1.2902  0.5230  0.8337
 8833TIP3   OH226462   0.153   6.051   1.314 -0.1872 -0.3221 -0.0185
 8833TIP3    H126463   0.195   6.109   1.378 -1.6587 -0.7690  1.4299
 8833TIP3    H226464   0.142   6.106   1.236  0.7915  0.5441  0.4294
 8834TIP3   OH226465   1.419   1.364   3.385  0.1914  0.1164 -0.2453
 8834TIP3    H126466   1.499   1.328   3.424  0.0453  0.4494  0.3718
 8834TIP3    H226467   1.410   1.451   3.424  0.4724  0.7898 -1.6362
 8835TIP3   OH226468   5.875   4.230   4.131 -0.7835 -0.0428  0.0297
 8835TIP3    H126469   5.838   4.242   4.043  1.7655  0.5782 -1.0478
 8835TIP3    H226470   5.930   4.307   4.145  0.6988 -1.2365  1.1645
 8836TIP3   OH226471   2.092   0.063   3.620 -0.3808  0.5599  0.4585
 8836TIP3    H126472   2.156  -0.004   3.645  0.5387  1.0968 -0.3820
 8836TIP3    H226473   2.065   0.103   3.703 -1.3376 -1.1527  1.0412
 8837TIP3   OH226474   4.841   5.743   0.537 -0.0448 -0.0379 -0.3022
 8837TIP3    H126475   4.819   5.818   0.481  1.0470  0.0645 -0.6087
 8837TIP3    H226476   4.906   5.777   0.599 -0.5838 -0.3803  0.4683
 8838TIP3   OH226477   5.782   6.721   2.769 -0.3425  0.2362  0.0586
 8838TIP3    H126478   5.744   6.802   2.735 -0.1455 -0.4130 -1.8195
 8838TIP3    H226479   5.850   6.749   2.830 -0.4449  1.4763 -0.3832
 8839TIP3   OH226480   2.080   2.417   0.229  0.8902 -0.2659  0.2392
 8839TIP3    H126481   2.096   2.456   0.143 -1.0081  3.1131  1.2610
 8839TIP3    H226482   2.142   2.461   0.287 -0.3555  0.2578  1.2037
 8840TIP3   OH226483   3.222   0.888   4.639  0.0505 -0.6524  0.1913
 8840TIP3    H126484   3.149   0.892   4.701 -1.1104 -0.1920 -1.1501
 8840TIP3    H226485   3.289   0.835   4.683 -1.0942 -1.0936  1.4513
 8841TIP3   OH226486   1.563   0.998   5.039  0.0321 -0.8746  0.0849
 8841TIP3    H126487   1.595   1.042   4.960 -0.6159  0.9472  0.7879
 8841TIP3    H226488   1.598   0.909   5.032  1.4037 -0.2787 -1.4155
 8842TIP3   OH226489   4.800   3.905   4.670 -0.4590 -0.1693  0.0526
 8842TIP3    H126490   4.760   3.938   4.751 -0.7214 -0.6277  0.1122
 8842TIP3    H226491   4.759   3.957   4.600  1.1148  1.5255  0.3265
 8843TIP3   OH226492   3.067   1.957   1.473  0.2853  0.7367  0.3493
 8843TIP3    H126493   3.008   1.883   1.458  0.7684  0.3373  0.3694
 8843TIP3    H226494   3.153   1.923   1.448  0.2298  1.9594 -1.7473
 8844TIP3   OH226495   3.985   4.497   2.316  0.3759 -0.0215 -0.5254
 8844TIP3    H126496   3.927   4.572   2.331  1.4803  0.9073 -0.7119
 8844TIP3    H226497   4.027   4.516   2.233  0.8850 -0.7208 -0.4337
 8845TIP3   OH226498   0.630   2.467   5.048  0.1280  0.6995 -0.1506
 8845TIP3    H126499   0.704   2.515   5.084  0.3359  0.1158  0.2099
 8845TIP3    H226500   0.651   2.375   5.063 -0.8771  0.5464  0.3747
 8846TIP3   OH226501   7.169   1.269   4.071  0.0845  0.3056 -0.4016
 8846TIP3    H126502   7.251   1.274   4.021  0.9835 -2.0280  0.6769
 8846TIP3    H226503   7.197   1.279   4.162 -1.2156  2.0725 -0.1454
 8847TIP3   OH226504   0.174   4.284   5.747  0.0045  0.2967 -0.1162
 8847TIP3    H126505   0.099   4.248   5.795  0.9136 -1.2999  0.1683
 8847TIP3    H226506   0.135   4.328   5.672 -1.3267  1.1371  1.0146
 8848TIP3   OH226507   3.430   2.750   2.001  0.1431  0.0116 -0.0197
 8848TIP3    H126508   3.402   2.719   1.915  0.3104  2.8240 -1.1954
 8848TIP3    H226509   3.348   2.768   2.048  0.0531 -1.3788  0.3955
 8849TIP3   OH226510   1.439   0.158   4.538  0.7701 -0.1613 -0.1193
 8849TIP3    H126511   1.414   0.250   4.534  0.1233 -0.3628 -3.5889
 8849TIP3    H226512   1.534   0.159   4.543  0.7016  0.6258  1.8948
 8850TIP3   OH226513   5.119   2.814   5.797  0.6161 -0.1415  0.3938
 8850TIP3    H126514   5.177   2.865   5.855  1.2759 -0.7896  0.3252
 8850TIP3    H226515   5.101   2.734   5.847 -3.5986  1.6760  2.2239
 8851TIP3   OH226516   6.465   4.255   1.115  0.1127  0.1941  0.2238
 8851TIP3    H126517   6.502   4.293   1.035 -2.1465  0.7949 -0.6138
 8851TIP3    H226518   6.490   4.316   1.185  2.2666 -0.4363  0.0586
 8852TIP3   OH226519   5.129   3.782   4.120 -0.2390 -0.1004 -0.2432
 8852TIP3    H126520   5.118   3.840   4.195  0.7887  0.0644 -0.1980
 8852TIP3    H226521   5.176   3.834   4.055 -0.1143 -0.5936 -0.5617
 8853TIP3   OH226522   6.060   2.684   1.092 -0.0557 -0.6333 -0.2479
 8853TIP3    H126523   6.038   2.663   1.001  0.8732  4.3075 -1.9036
 8853TIP3    H226524   5.982   2.727   1.127  0.6871  0.4938  0.0858
 8854TIP3   OH226525   6.523   1.926   0.441  0.3455 -0.3103  0.3130
 8854TIP3    H126526   6.513   2.013   0.404  0.2912 -0.2409  0.4931
 8854TIP3    H226527   6.618   1.909   0.436  0.7151  0.7255  2.4507
 8855TIP3   OH226528   4.240   5.796   1.590  0.1687  0.4612  0.1367
 8855TIP3    H126529   4.260   5.703   1.600 -0.9061  0.3655  1.7298
 8855TIP3    H226530   4.147   5.799   1.568  0.2114  1.1567  0.0159
 8856TIP3   OH226531   4.045   4.316   5.719  0.0624 -0.5446  0.2060
 8856TIP3    H126532   4.056   4.403   5.759 -0.7393 -0.4603  0.2562
 8856TIP3    H226533   4.029   4.334   5.626 -1.3469 -0.5499  0.4205
 8857TIP3   OH226534   0.102   0.119   1.393 -0.3734  0.5803 -0.1382
 8857TIP3    H126535   0.133   0.116   1.302 -0.6139 -0.6533 -0.1897
 8857TIP3    H226536   0.128   0.035   1.430 -1.8225  0.3687  0.4310
 8858TIP3   OH226537   5.654   4.888   3.394 -0.8549  0.3591 -0.1818
 8858TIP3    H126538   5.591   4.864   3.326 -0.0378  0.7703 -1.0923
 8858TIP3    H226539   5.740   4.875   3.354 -0.3230 -0.5503  1.1646
 8859TIP3   OH226540   1.746   4.250   1.084  0.3432 -0.1057 -0.3159
 8859TIP3    H126541   1.679   4.306   1.044 -0.7170 -1.5380 -0.6206
 8859TIP3    H226542   1.828   4.282   1.047 -0.2430  1.1055 -0.6424
 8860TIP3   OH226543   0.454   0.622   0.518 -0.3146  0.0180 -0.3025
 8860TIP3    H126544   0.440   0.594   0.609 -2.3683 -1.0204 -0.8814
 8860TIP3    H226545   0.424   0.713   0.517  1.9451  0.8310  0.5384
 8861TIP3   OH226546   5.632   3.775   1.765 -0.0962  0.0983 -1.0249
 8861TIP3    H126547   5.603   3.853   1.813  2.3947 -0.5273  1.7490
 8861TIP3    H226548   5.598   3.702   1.816  1.2842 -0.6076 -1.0903
 8862TIP3   OH226549   6.029   2.761   5.745 -0.0663  0.1336 -0.0643
 8862TIP3    H126550   6.011   2.675   5.782 -0.4747 -0.3495 -1.3121
 8862TIP3    H226551   5.954   2.814   5.768  0.2043  0.1725  0.7444
 8863TIP3   OH226552   5.181   5.576   3.957 -0.4814 -0.3897 -0.8862
 8863TIP3    H126553   5.260   5.547   4.004 -0.9799 -1.9439 -0.9636
 8863TIP3    H226554   5.191   5.672   3.952  0.9715 -0.4618 -0.1412
 8864TIP3   OH226555   3.729   0.041   1.050 -0.2580  0.6442 -0.7535
 8864TIP3    H126556   3.766   0.016   1.134 -0.5729  1.2273 -0.4327
 8864TIP3    H226557   3.796   0.018   0.986 -0.7740 -1.6154 -0.5705
 8865TIP3   OH226558   1.144   1.532   1.649 -0.3885 -0.3341 -0.3799
 8865TIP3    H126559   1.185   1.567   1.728  0.2641 -0.2869 -0.7334
 8865TIP3    H226560   1.054   1.563   1.653 -0.5477 -0.8880  0.6847
 8866TIP3   OH226561   0.283   2.659   4.730  0.0522  0.8543  0.4289
 8866TIP3    H126562   0.374   2.684   4.714  0.4331 -0.2097  0.8559
 8866TIP3    H226563   0.234   2.702   4.659  0.8566  1.5635  0.2851
 8867TIP3   OH226564   4.927   5.495   3.265 -0.2585 -0.2150  0.6636
 8867TIP3    H126565   4.906   5.575   3.314  1.1054 -0.3126  1.4934
 8867TIP3    H226566   4.887   5.425   3.316 -1.2162 -0.0984  0.0890
 8868TIP3   OH226567   1.733   1.171   1.557  0.3948  0.1403  0.2564
 8868TIP3    H126568   1.806   1.126   1.514  1.8681  1.7457  0.9001
 8868TIP3    H226569   1.723   1.253   1.507  0.7688  1.0907  1.6726
 8869TIP3   OH226570   2.513   2.393   1.813  0.1366 -0.1639 -0.1758
 8869TIP3    H126571   2.429   2.377   1.858 -0.3819 -0.9266 -1.3811
 8869TIP3    H226572   2.516   2.327   1.744  0.9659  0.9103 -1.2019
 8870TIP3   OH226573   5.710   2.868   4.371  0.2710 -0.4195 -0.3438
 8870TIP3    H126574   5.762   2.848   4.293  1.2516  1.9123 -0.3842
 8870TIP3    H226575   5.682   2.783   4.404  2.3368 -1.6519 -1.5472
 8871TIP3   OH226576   1.948   3.720   0.108 -0.4648  0.5688  0.1500
 8871TIP3    H126577   1.889   3.734   0.183 -0.3877  2.6904 -0.1223
 8871TIP3    H226578   1.893   3.677   0.042 -0.4548 -1.6302  1.4726
 8872TIP3   OH226579   1.171   3.165   5.600 -0.1508 -0.6681  0.3190
 8872TIP3    H126580   1.125   3.095   5.646 -0.7149 -0.0757  0.6698
 8872TIP3    H226581   1.105   3.204   5.543  0.3854 -0.9845 -0.5407
 8873TIP3   OH226582   2.122   0.592   0.407  0.2617 -0.1540  0.5256
 8873TIP3    H126583   2.157   0.578   0.319  0.1365  2.2679  0.0047
 8873TIP3    H226584   2.027   0.586   0.398  0.2403  0.2620  0.4386
 8874TIP3   OH226585   0.622   2.258   5.636 -0.3001  0.1841 -0.0588
 8874TIP3    H126586   0.598   2.289   5.724  0.8598 -1.5707  0.9578
 8874TIP3    H226587   0.581   2.171   5.630 -0.9559  0.5793 -1.5677
 8875TIP3   OH226588   4.575   0.830   4.101 -0.0905  0.3278 -0.5093
 8875TIP3    H126589   4.600   0.896   4.165  0.4065  0.4718 -0.8459
 8875TIP3    H226590   4.480   0.822   4.110 -0.1347  0.9830 -0.3752
 8876TIP3   OH226591   1.767   2.434   4.606 -0.3439 -0.7654  0.1836
 8876TIP3    H126592   1.814   2.387   4.675  0.4549 -0.1012  0.1089
 8876TIP3    H226593   1.836   2.469   4.550 -0.8989  0.7427  0.3925
 8877TIP3   OH226594   4.805   4.642   5.787  0.0618  0.1750  0.3133
 8877TIP3    H126595   4.880   4.637   5.845 -1.1401  0.1350  1.9453
 8877TIP3    H226596   4.842   4.653   5.699  1.9818 -1.6017  0.8346
 8878TIP3   OH226597   6.563   4.348   0.840 -0.0770  0.2877  0.0870
 8878TIP3    H126598   6.486   4.381   0.794 -0.6286  1.2193  1.6276
 8878TIP3    H226599   6.637   4.387   0.793 -0.4846 -0.6606 -1.4426
 8879TIP3   OH226600   3.635   1.034   0.786  0.2206  0.3402  0.0144
 8879TIP3    H126601   3.719   1.035   0.832  0.7327  1.1228 -0.9005
 8879TIP3    H226602   3.590   0.956   0.820  1.0924  0.1992  0.8934
 8880TIP3   OH226603   4.739   6.698   4.448  0.0849 -0.0869 -0.2400
 8880TIP3    H126604   4.724   6.744   4.366  1.5317  0.3154 -0.3105
 8880TIP3    H226605   4.693   6.750   4.514  1.1791  1.1493 -0.4069
 8881TIP3   OH226606   3.990   1.114   0.220 -0.1733 -0.1563  0.2549
 8881TIP3    H126607   3.978   1.042   0.158 -2.0981  0.7184 -0.4680
 8881TIP3    H226608   4.065   1.163   0.185 -1.5307  0.6152 -1.7857
 8882TIP3   OH226609   6.475   6.575   0.221 -0.2290  0.1024 -0.6890
 8882TIP3    H126610   6.389   6.535   0.207  0.1395 -1.2885  0.7503
 8882TIP3    H226611   6.456   6.669   0.227 -1.8699 -0.2658  0.9631
 8883TIP3   OH226612   4.958   3.437   1.725 -0.2380  0.1103  0.2093
 8883TIP3    H126613   4.943   3.346   1.751 -1.3891  0.1222 -0.3628
 8883TIP3    H226614   4.956   3.486   1.808 -2.6635 -0.0124  0.2949
 8884TIP3   OH226615   4.786   2.345   5.763  0.2023  0.0853 -0.7440
 8884TIP3    H126616   4.766   2.437   5.744 -0.2790  0.2088  0.3115
 8884TIP3    H226617   4.851   2.321   5.697 -0.5938  0.8064 -1.8390
 8885TIP3   OH226618   4.035   0.490   2.788 -0.0514 -0.5758  0.1384
 8885TIP3    H126619   4.014   0.504   2.880  1.2611  0.4139  0.3342
 8885TIP3    H226620   4.039   0.395   2.778 -0.1021 -0.6953  1.1364
 8886TIP3   OH226621   4.115   3.974   1.942  0.2947 -0.1292  0.1842
 8886TIP3    H126622   4.101   3.913   1.870 -0.3945 -0.3731  0.5120
 8886TIP3    H226623   4.209   3.987   1.944  0.4464 -1.0862  0.0219
 8887TIP3   OH226624   0.652   3.636   1.526  0.1053 -0.3033 -0.6168
 8887TIP3    H126625   0.671   3.542   1.522 -0.1018 -0.3697 -0.1531
 8887TIP3    H226626   0.679   3.662   1.614 -0.2263 -0.0196 -0.5951
 8888TIP3   OH226627   2.829   4.362   2.219  0.1388 -0.3917  0.3798
 8888TIP3    H126628   2.807   4.269   2.212 -1.6326  0.0100  0.1016
 8888TIP3    H226629   2.814   4.397   2.131 -1.1458  0.5116  0.9235
 8889TIP3   OH226630   0.899   2.504   1.726  0.4628  0.1821  0.8817
 8889TIP3    H126631   0.874   2.452   1.802 -2.6277 -0.8565 -0.7027
 8889TIP3    H226632   0.936   2.440   1.664 -0.0017  0.4447  0.3169
 8890TIP3   OH226633   3.324   3.432   5.395 -0.1841  0.4235 -0.6192
 8890TIP3    H126634   3.374   3.360   5.435 -0.9792 -0.5967 -1.4069
 8890TIP3    H226635   3.331   3.504   5.458  3.1897  0.7521 -1.1499
 8891TIP3   OH226636   1.199   2.352   1.804  0.2242  0.1371  0.2264
 8891TIP3    H126637   1.202   2.435   1.851 -0.6962  0.1051  0.3637
 8891TIP3    H226638   1.168   2.289   1.868  0.7811 -0.2911  0.0843
 8892TIP3   OH226639   5.254   1.093   0.511 -0.4666  0.2588  0.8165
 8892TIP3    H126640   5.182   1.057   0.460  1.2916 -1.7114 -0.4566
 8892TIP3    H226641   5.271   1.027   0.579  1.8307 -0.7595 -0.6159
 8893TIP3   OH226642   0.514   1.100   1.586  1.1675  0.2507 -0.6585
 8893TIP3    H126643   0.449   1.146   1.639  0.6312 -1.0997 -0.1244
 8893TIP3    H226644   0.583   1.075   1.648  2.1787  1.5581 -1.1973
 8894TIP3   OH226645   2.242   4.460   5.203 -0.8224 -0.1989 -0.0102
 8894TIP3    H126646   2.230   4.385   5.145  1.2758 -0.3721 -0.2931
 8894TIP3    H226647   2.337   4.472   5.209 -1.0406  3.0352 -0.7821
 8895TIP3   OH226648   5.713   0.621   3.295 -0.0648 -0.6298 -0.0613
 8895TIP3    H126649   5.731   0.602   3.387  2.7761  0.7315 -0.2461
 8895TIP3    H226650   5.723   0.715   3.287 -2.2162 -0.4258 -1.4608
 8896TIP3   OH226651   1.214   4.055   2.718 -0.4026 -0.5949  0.1196
 8896TIP3    H126652   1.236   3.974   2.671  0.1184 -0.1814 -0.3564
 8896TIP3    H226653   1.128   4.037   2.756 -0.2456 -1.4159  0.1122
 8897TIP3   OH226654   3.857   0.779   2.252  0.5022  0.1079 -0.2040
 8897TIP3    H126655   3.911   0.786   2.330  1.8664 -0.1764 -1.0847
 8897TIP3    H226656   3.892   0.703   2.205 -2.5129 -1.9295  0.5511
 8898TIP3   OH226657   2.699   2.507   4.184 -0.7140  0.4466 -0.2518
 8898TIP3    H126658   2.729   2.594   4.157 -1.2276  0.6806 -0.0761
 8898TIP3    H226659   2.626   2.487   4.125 -1.3568  0.6403  0.4601
 8899TIP3   OH226660   1.133   3.600   4.867 -0.4319  0.3039  0.3355
 8899TIP3    H126661   1.047   3.588   4.905 -1.2026  0.7321 -1.1793
 8899TIP3    H226662   1.141   3.695   4.855  0.5199  0.3246  1.0413
 8900TIP3   OH226663   6.815   3.042   2.530  0.0752 -0.0415  0.2663
 8900TIP3    H126664   6.802   3.133   2.555  1.1926  0.6877 -1.6015
 8900TIP3    H226665   6.898   3.017   2.571 -0.1178 -0.1496  0.5926
 8901TIP3   OH226666   0.592   2.391   5.400 -0.1906  0.1159  0.7365
 8901TIP3    H126667   0.609   2.364   5.490  0.3290 -0.0277  0.5962
 8901TIP3    H226668   0.679   2.403   5.362 -0.3977  1.3899  0.6191
 8902TIP3   OH226669   6.350   4.330   2.849  0.0108 -0.5185  0.8337
 8902TIP3    H126670   6.426   4.272   2.848 -0.4420 -1.1317  1.0446
 8902TIP3    H226671   6.286   4.286   2.794  0.2801  0.6749 -0.5008
 8903TIP3   OH226672   2.511   0.233   1.747 -0.2046  0.2779 -0.5209
 8903TIP3    H126673   2.420   0.262   1.755 -0.2412  0.4894 -1.5521
 8903TIP3    H226674   2.509   0.170   1.675  0.1626 -1.0971  0.6185
 8904TIP3   OH226675   3.149   5.631   2.464 -0.0117 -0.8262  0.0415
 8904TIP3    H126676   3.171   5.667   2.550  0.0036 -0.0716 -0.2687
 8904TIP3    H226677   3.230   5.590   2.434  0.1743 -0.5131  0.1071
 8905TIP3   OH226678   4.198   3.584   1.735  0.1820 -0.4520 -0.2774
 8905TIP3    H126679   4.135   3.537   1.681  0.9588 -1.8870  0.0175
 8905TIP3    H226680   4.242   3.516   1.787 -0.1038  0.7953  1.7295
 8906TIP3   OH226681   4.734   6.465   5.824  0.1309 -0.1019  0.7785
 8906TIP3    H126682   4.722   6.372   5.843  0.5490 -0.3390 -0.0515
 8906TIP3    H226683   4.651   6.506   5.847 -0.7283 -0.9879 -0.6103
 8907TIP3   OH226684   0.051   2.829   2.233  0.1185 -0.0789 -0.3042
 8907TIP3    H126685   0.134   2.878   2.238  0.5651 -0.9034  1.1797
 8907TIP3    H226686   0.075   2.746   2.192  0.3160 -0.7938  1.1835
 8908TIP3   OH226687   0.723   2.102   2.505 -0.2630  0.4246 -0.0786
 8908TIP3    H126688   0.780   2.026   2.492  0.0090  0.0224  2.8179
 8908TIP3    H226689   0.653   2.091   2.441  0.2308 -1.8043 -0.3058
 8909TIP3   OH226690   0.158   0.139   4.281  0.2101  0.3692 -0.3760
 8909TIP3    H126691   0.248   0.158   4.306 -0.1411  0.9616  0.4962
 8909TIP3    H226692   0.160   0.049   4.251  1.0509  0.2929 -0.1162
 8910TIP3   OH226693   1.570   3.678   2.171 -0.6585 -0.3234  0.0452
 8910TIP3    H126694   1.513   3.740   2.126  1.4531  1.2193 -0.6940
 8910TIP3    H226695   1.609   3.729   2.243  1.0195 -0.7782 -0.4898
 8911TIP3   OH226696   0.232   2.481   1.714  0.0539  0.2747  0.3167
 8911TIP3    H126697   0.327   2.491   1.712  0.1023 -0.2842 -0.4709
 8911TIP3    H226698   0.205   2.484   1.622 -0.6412 -0.0140  0.5015
 8912TIP3   OH226699   0.710   3.912   4.850 -0.7146 -0.3437 -0.0617
 8912TIP3    H126700   0.788   3.864   4.878  1.1083  2.8595  0.7962
 8912TIP3    H226701   0.638   3.867   4.894  1.0688 -1.1948  2.2285
 8913TIP3   OH226702   4.259   2.482   1.625  0.2436  0.1417 -0.7986
 8913TIP3    H126703   4.243   2.389   1.641  1.4853 -0.4568 -2.7502
 8913TIP3    H226704   4.189   2.508   1.564 -1.0258  0.9421  0.9000
 8914TIP3   OH226705   6.961   4.550   4.393 -0.1883 -0.5564  0.4756
 8914TIP3    H126706   7.027   4.485   4.366 -0.7454 -0.4166 -1.3821
 8914TIP3    H226707   6.900   4.500   4.447 -0.1932 -1.4242 -0.2938
 8915TIP3   OH226708   3.535   2.222   3.089  0.0961  0.1038  0.2387
 8915TIP3    H126709   3.543   2.257   3.178  2.4379 -0.4085  0.2956
 8915TIP3    H226710   3.601   2.270   3.039  2.0241 -2.7108 -0.1336
 8916TIP3   OH226711   1.212   3.515   4.250 -0.6910 -0.6664  1.2974
 8916TIP3    H126712   1.285   3.457   4.228 -0.3593 -0.4160  1.7361
 8916TIP3    H226713   1.251   3.602   4.257 -1.5138  0.0608 -1.5538
 8917TIP3   OH226714   4.624   5.208   1.835  0.0311 -0.3658  0.6267
 8917TIP3    H126715   4.661   5.281   1.785 -0.7139 -0.6739 -0.4079
 8917TIP3    H226716   4.664   5.216   1.922  2.8846 -0.9573 -0.5289
 8918TIP3   OH226717   6.909   0.992   5.776  0.2061  0.5499 -0.6182
 8918TIP3    H126718   6.979   1.056   5.758  0.9297 -0.2898 -0.8958
 8918TIP3    H226719   6.842   1.042   5.822  1.9578  0.9330  1.7089
 8919TIP3   OH226720   0.595   1.424   2.311  0.1826  0.0857 -0.1224
 8919TIP3    H126721   0.515   1.461   2.348 -0.5324  1.7991 -3.0026
 8919TIP3    H226722   0.565   1.348   2.261  0.2222  1.0099 -1.5968
 8920TIP3   OH226723   2.079   0.060   4.806 -0.1564 -0.0275  0.5352
 8920TIP3    H126724   2.135  -0.016   4.826 -0.3835 -0.4816 -0.4934
 8920TIP3    H226725   2.141   0.131   4.789  0.0545  0.3458  2.6066
 8921TIP3   OH226726   3.957   6.029   1.190  0.0915 -0.3869  0.6337
 8921TIP3    H126727   3.894   6.100   1.183  0.5019 -0.1320 -0.8737
 8921TIP3    H226728   4.005   6.047   1.271 -0.8343  0.1875  1.0597
 8922TIP3   OH226729   1.122   3.314   4.437 -0.1972 -0.2600  0.3587
 8922TIP3    H126730   1.201   3.316   4.490  0.3429 -1.9457 -0.3152
 8922TIP3    H226731   1.147   3.355   4.354  0.1704 -1.2627 -0.0508
 8923TIP3   OH226732   1.505   0.508   4.862  0.0745 -0.1766  0.1591
 8923TIP3    H126733   1.455   0.467   4.933 -1.4761  0.3682 -0.5838
 8923TIP3    H226734   1.586   0.456   4.857  0.3036 -0.1213  2.4053
 8924TIP3   OH226735   2.956   0.032   4.214  0.3828  0.3080  0.3133
 8924TIP3    H126736   2.895   0.097   4.247  0.8769  1.0817 -0.2525
 8924TIP3    H226737   2.965   0.053   4.121  0.5306 -0.5925  0.1135
 8925TIP3   OH226738   1.530   2.932   2.938  0.4892 -0.0426 -0.3970
 8925TIP3    H126739   1.558   2.845   2.964  1.7640  0.4427 -0.0765
 8925TIP3    H226740   1.561   2.942   2.848 -2.3920 -1.0631 -1.5929
 8926TIP3   OH226741   3.270   2.909   1.645  0.2625 -0.0918  0.3135
 8926TIP3    H126742   3.231   2.984   1.690 -0.3153 -0.2137  0.0249
 8926TIP3    H226743   3.348   2.946   1.602  0.4790  0.1485  0.9080
 8927TIP3   OH226744   0.707   5.616   0.253 -0.2143 -0.3072 -0.1057
 8927TIP3    H126745   0.770   5.635   0.184 -0.0994  3.3566  0.7970
 8927TIP3    H226746   0.626   5.596   0.206  0.2044  0.7198 -1.3229
 8928TIP3   OH226747   5.380   3.165   4.671 -0.4914  0.2676 -0.0044
 8928TIP3    H126748   5.356   3.164   4.764 -0.1078 -0.8732  0.1003
 8928TIP3    H226749   5.433   3.086   4.660 -1.6653 -0.3489 -1.4958
 8929TIP3   OH226750   2.354   3.753   2.736  0.0867 -1.2946 -0.0609
 8929TIP3    H126751   2.365   3.775   2.829 -0.8844  0.6610 -0.3541
 8929TIP3    H226752   2.404   3.821   2.690 -1.8074 -0.4678 -0.9972
 8930TIP3   OH226753   3.410   2.576   4.882  0.0056 -0.1316 -0.0803
 8930TIP3    H126754   3.330   2.596   4.833  1.3665  1.9890 -1.5632
 8930TIP3    H226755   3.379   2.564   4.972 -2.1930 -1.2382 -0.8942
 8931TIP3   OH226756   3.516   1.119   1.494 -0.4963 -0.0805  0.1263
 8931TIP3    H126757   3.465   1.069   1.431 -0.3138  0.1326 -0.1880
 8931TIP3    H226758   3.501   1.210   1.472 -0.0530 -0.0143  0.0854
 8932TIP3   OH226759   1.206   5.560   1.884 -0.0333  0.0745  0.4275
 8932TIP3    H126760   1.126   5.598   1.921  0.1111  0.4724  0.3361
 8932TIP3    H226761   1.188   5.551   1.791 -0.8558 -2.0873  0.7596
 8933TIP3   OH226762   5.974   1.895   0.108  0.2124 -0.0309  0.2726
 8933TIP3    H126763   6.027   1.909   0.186 -0.2744 -0.0036  0.6062
 8933TIP3    H226764   5.949   1.982   0.079 -0.7280 -0.0784  0.8841
 8934TIP3   OH226765   6.243   3.385   1.837 -0.3859  0.1843  0.0509
 8934TIP3    H126766   6.177   3.426   1.892  1.4022  2.2248  0.8468
 8934TIP3    H226767   6.238   3.432   1.754 -1.1222 -0.9022 -0.5392
 8935TIP3   OH226768   1.339   6.215   1.024 -0.4002 -0.4537  0.1259
 8935TIP3    H126769   1.360   6.296   1.071 -1.4772  0.4514 -0.9012
 8935TIP3    H226770   1.357   6.236   0.932 -1.6778 -1.0395 -0.2686
 8936TIP3   OH226771   5.104   6.625   2.538 -0.4631 -0.1116  0.1670
 8936TIP3    H126772   5.048   6.553   2.511 -0.4076 -0.4012  0.7947
 8936TIP3    H226773   5.145   6.594   2.619  2.2851 -0.8177 -1.3660
 8937TIP3   OH226774   0.360   3.057   4.500 -0.4572  0.2064 -0.2407
 8937TIP3    H126775   0.388   3.000   4.428  0.2672 -0.2686  0.3981
 8937TIP3    H226776   0.291   3.007   4.544  0.4595 -0.3851  0.5661
 8938TIP3   OH226777   6.521   5.365   4.392 -0.3048  0.2501  0.4174
 8938TIP3    H126778   6.549   5.274   4.404  0.5878  0.5624  0.7359
 8938TIP3    H226779   6.448   5.359   4.330  0.4983 -0.5624 -0.4785
 8939TIP3   OH226780   4.230   4.010   4.399 -0.5714 -0.7870 -0.2055
 8939TIP3    H126781   4.233   3.982   4.307 -0.7026 -0.5888 -0.2723
 8939TIP3    H226782   4.198   4.100   4.395  1.8226  0.1236 -0.1700
 8940TIP3   OH226783   3.122   6.463   1.350  0.0598 -0.1354  0.1058
 8940TIP3    H126784   3.111   6.545   1.301  0.6567 -0.5943 -0.8259
 8940TIP3    H226785   3.036   6.447   1.390 -0.8020 -0.3387 -1.7407
 8941TIP3   OH226786   1.501   1.819   1.175 -0.0963  0.1649 -0.5378
 8941TIP3    H126787   1.540   1.743   1.132  0.9925 -0.7156  1.8756
 8941TIP3    H226788   1.407   1.806   1.165  0.0901 -1.0993 -0.8372
 8942TIP3   OH226789   6.240   4.684   3.445  0.0477  0.1075 -0.1591
 8942TIP3    H126790   6.307   4.620   3.465  1.6862  1.8367  0.1933
 8942TIP3    H226791   6.171   4.668   3.509  1.3271 -0.0083  1.2462
 8943TIP3   OH226792   3.116   4.111   4.358 -0.3826 -0.0981  0.4291
 8943TIP3    H126793   3.142   4.070   4.276  0.7137 -0.5228  0.9581
 8943TIP3    H226794   3.194   4.161   4.385 -0.6782 -0.0748  1.2728
 8944TIP3   OH226795   1.304   6.171   1.322 -0.2357 -0.6284 -0.2266
 8944TIP3    H126796   1.279   6.104   1.386 -1.7610 -0.8275 -0.9768
 8944TIP3    H226797   1.329   6.122   1.244 -0.2262 -0.3548 -0.3991
 8945TIP3   OH226798   6.288   4.594   1.226 -0.4452 -0.1052  0.6015
 8945TIP3    H126799   6.326   4.584   1.139  1.7143 -2.1340  1.6800
 8945TIP3    H226800   6.195   4.575   1.215 -1.1016  3.4915 -1.8569
 8946TIP3   OH226801   4.943   0.866   4.532 -0.5222  0.1442 -0.2539
 8946TIP3    H126802   4.921   0.794   4.592  1.0310  0.7987  1.1915
 8946TIP3    H226803   5.036   0.853   4.514 -0.6659  0.7391 -1.4896
 8947TIP3   OH226804   6.024   5.172   2.811 -0.3578  0.6758  0.0599
 8947TIP3    H126805   6.040   5.110   2.881 -1.5260  1.3315  0.9283
 8947TIP3    H226806   6.079   5.141   2.739  0.2997 -0.4229  1.0033
 8948TIP3   OH226807   4.720   3.793   2.128 -0.1527  0.2527  0.7439
 8948TIP3    H126808   4.751   3.705   2.150 -0.8505  0.1296  1.2670
 8948TIP3    H226809   4.761   3.850   2.194  1.1479  0.4854 -0.2274
 8949TIP3   OH226810   2.875   5.790   1.742  0.0695  0.2191 -0.1327
 8949TIP3    H126811   2.794   5.800   1.692 -1.0352 -0.6785  1.3661
 8949TIP3    H226812   2.850   5.733   1.815  1.6900  1.1706  1.2274
 8950TIP3   OH226813   6.842   6.092   4.581 -0.1757  0.4671 -0.0517
 8950TIP3    H126814   6.922   6.042   4.598 -0.6962 -0.8481 -1.3151
 8950TIP3    H226815   6.850   6.120   4.490  0.5254  3.5730  0.8666
 8951TIP3   OH226816   4.093   6.080   0.955  0.1116 -0.0316  0.1447
 8951TIP3    H126817   4.051   6.026   1.022  1.2725 -0.7159  0.3429
 8951TIP3    H226818   4.144   6.144   1.004 -1.7226  1.7131 -0.0767
 8952TIP3   OH226819   1.811   3.556   1.833 -0.1318  1.1853 -0.1254
 8952TIP3    H126820   1.745   3.624   1.823  0.0846  1.4246  0.0631
 8952TIP3    H226821   1.822   3.520   1.745 -0.0260  1.5971 -0.2829
 8953TIP3   OH226822   6.670   4.414   5.102  0.2285  0.1534 -0.0520
 8953TIP3    H126823   6.704   4.389   5.188 -0.5936  0.3984  0.3592
 8953TIP3    H226824   6.708   4.350   5.042 -0.2302 -0.8613  0.6973
 8954TIP3   OH226825   6.202   1.710   4.857 -0.4201  0.3117  0.1350
 8954TIP3    H126826   6.190   1.628   4.906  0.0682  0.0873 -0.1234
 8954TIP3    H226827   6.272   1.756   4.903 -1.7634  1.3302  1.2464
 8955TIP3   OH226828   4.312   3.684   4.005 -0.3202  0.0109  0.7887
 8955TIP3    H126829   4.404   3.673   3.981 -0.5167 -0.4733  0.2335
 8955TIP3    H226830   4.308   3.770   4.046  0.5304 -0.3083  1.5590
 8956TIP3   OH226831   0.980   2.819   2.190 -0.6305  0.5373  0.0318
 8956TIP3    H126832   1.008   2.752   2.252  0.7513  1.4366  0.4297
 8956TIP3    H226833   0.936   2.770   2.120 -0.0294 -0.7318  0.5054
 8957TIP3   OH226834   3.696   2.347   0.985 -0.4885  0.0814  0.0857
 8957TIP3    H126835   3.635   2.275   0.966 -0.1507 -0.3805  0.6806
 8957TIP3    H226836   3.729   2.373   0.899  0.3195 -1.3241 -0.0691
 8958TIP3   OH226837   1.911   2.307   3.685  0.5341  0.1356 -0.0852
 8958TIP3    H126838   1.835   2.267   3.643  1.4522 -0.8527 -0.8931
 8958TIP3    H226839   1.875   2.359   3.756 -1.0811  1.6218 -1.8902
 8959TIP3   OH226840   5.917   3.481   5.667 -0.0452  0.0899  0.0597
 8959TIP3    H126841   5.836   3.432   5.677  1.6385 -2.8395  0.5099
 8959TIP3    H226842   5.926   3.531   5.749 -1.2372  0.2888  0.0873
 8960TIP3   OH226843   1.856   6.287   2.211 -0.3205 -0.4239 -0.5079
 8960TIP3    H126844   1.770   6.317   2.181 -0.8706 -1.0770  0.3691
 8960TIP3    H226845   1.869   6.332   2.294  0.4353  0.0773 -0.8836
 8961TIP3   OH226846   1.799   5.789   3.713  0.1336 -0.2128 -0.2366
 8961TIP3    H126847   1.844   5.723   3.766  0.7735 -0.5684 -1.2044
 8961TIP3    H226848   1.849   5.869   3.728 -0.6630  0.0914  0.9634
 8962TIP3   OH226849   4.640   5.993   4.180  0.3558  0.3868 -0.2912
 8962TIP3    H126850   4.547   6.011   4.164  0.4075  1.4092  0.5094
 8962TIP3    H226851   4.648   5.989   4.275  1.1008  0.0731 -0.3589
 8963TIP3   OH226852   0.026   4.113   0.673  0.2453  0.3268  0.1832
 8963TIP3    H126853   0.099   4.139   0.729  0.4445 -2.3250  1.3153
 8963TIP3    H226854  -0.045   4.092   0.734 -0.4969  0.1174 -0.7328
 8964TIP3   OH226855   2.104   2.552   5.683 -0.5162  0.0994  0.2384
 8964TIP3    H126856   2.143   2.468   5.660  0.2250  0.2902  0.7542
 8964TIP3    H226857   2.073   2.588   5.600 -2.5901 -1.5173  0.2275
 8965TIP3   OH226858   0.180   0.397   4.159  0.2102 -0.0144 -0.3988
 8965TIP3    H126859   0.181   0.405   4.064  1.5041 -0.3648 -0.4415
 8965TIP3    H226860   0.172   0.303   4.175  1.1224 -0.0740 -0.2010
 8966TIP3   OH226861   0.543   1.581   5.654 -0.1786 -0.2415 -0.1922
 8966TIP3    H126862   0.577   1.651   5.709 -1.8170 -0.1415  0.7498
 8966TIP3    H226863   0.586   1.594   5.569  1.0350  0.6840  0.5346
 8967TIP3   OH226864   6.512   6.087   1.709 -0.3622  0.1967 -0.0338
 8967TIP3    H126865   6.592   6.055   1.667 -0.7005  0.4109 -0.8609
 8967TIP3    H226866   6.508   6.040   1.793  0.9867  0.6872  0.3338
 8968TIP3   OH226867   3.938   2.431   1.933  0.6685  1.0622 -0.1492
 8968TIP3    H126868   3.863   2.419   1.992 -0.4963 -1.4571 -1.9146
 8968TIP3    H226869   3.994   2.355   1.950  2.6993  2.6922  0.8392
 8969TIP3   OH226870   5.848   6.461   3.272 -0.4810 -0.3078 -0.2475
 8969TIP3    H126871   5.759   6.430   3.256 -0.7583 -0.0662  0.7406
 8969TIP3    H226872   5.862   6.447   3.366  0.4618 -0.1886 -0.3596
 8970TIP3   OH226873   0.097   0.632   0.634  0.4118  0.4573 -0.3545
 8970TIP3    H126874   0.011   0.639   0.675  0.2925 -1.4783 -0.1672
 8970TIP3    H226875   0.149   0.579   0.694  0.5996 -1.4396 -2.0826
 8971TIP3   OH226876   3.018   4.593   2.677 -0.0817  0.7072 -0.2292
 8971TIP3    H126877   3.008   4.662   2.611 -1.0917 -0.4324 -1.3221
 8971TIP3    H226878   3.048   4.639   2.755 -0.8158  2.3968 -0.8854
 8972TIP3   OH226879   4.658   2.176   0.163  0.4130 -0.4318  0.0609
 8972TIP3    H126880   4.634   2.101   0.219  2.7121 -1.0906  0.2356
 8972TIP3    H226881   4.654   2.141   0.074  1.8892 -0.9307  0.1653
 8973TIP3   OH226882   1.018   2.583   1.258 -0.1575 -0.5479  0.1448
 8973TIP3    H126883   0.990   2.571   1.167  1.3468 -0.4743 -0.3635
 8973TIP3    H226884   0.960   2.528   1.309  0.4135 -2.4221 -1.1236
 8974TIP3   OH226885   4.950   0.186   0.942 -0.4433  0.3760 -0.3196
 8974TIP3    H126886   4.909   0.195   1.028 -1.6176  3.0311 -1.0439
 8974TIP3    H226887   4.889   0.133   0.891 -1.1008  1.0778 -0.2760
 8975TIP3   OH226888   2.170   3.934   3.873 -0.3192 -0.1339 -0.3262
 8975TIP3    H126889   2.152   3.936   3.967 -0.6465  0.8733 -0.4025
 8975TIP3    H226890   2.165   4.025   3.845  1.4299 -0.2298 -1.0309
 8976TIP3   OH226891   0.401   2.202   4.206  0.2790 -0.3849  0.3072
 8976TIP3    H126892   0.446   2.286   4.192  0.4673 -0.5198  0.1057
 8976TIP3    H226893   0.421   2.180   4.297  1.0486 -0.6939  0.0711
 8977TIP3   OH226894   5.459   5.023   3.551 -0.1075 -0.3524 -0.0987
 8977TIP3    H126895   5.486   5.114   3.540  0.4746 -0.3031  1.4686
 8977TIP3    H226896   5.521   4.973   3.497  0.6300  0.0721  0.3265
 8978TIP3   OH226897   2.355   6.305   4.876 -0.6287 -0.0634 -0.1555
 8978TIP3    H126898   2.421   6.324   4.809  0.5864 -0.2040  0.9534
 8978TIP3    H226899   2.406   6.278   4.952 -1.9654  0.2070  0.8660
 8979TIP3   OH226900   5.500   3.212   4.222 -0.5038  0.4027  0.6076
 8979TIP3    H126901   5.477   3.136   4.275 -1.1825  0.3999  0.3162
 8979TIP3    H226902   5.541   3.273   4.284  2.3397 -1.1355  0.4215
 8980TIP3   OH226903   3.172   6.238   0.186  0.4052 -0.4532 -0.8050
 8980TIP3    H126904   3.194   6.298   0.258 -1.0928 -1.8011  0.8833
 8980TIP3    H226905   3.241   6.172   0.189 -1.3603 -2.3730  1.7362
 8981TIP3   OH226906   4.499   3.630   3.637 -0.3863  0.6942 -0.0915
 8981TIP3    H126907   4.565   3.691   3.672  0.0089  1.4437 -2.0137
 8981TIP3    H226908   4.485   3.660   3.547 -2.3354 -0.3238 -0.1666
 8982TIP3   OH226909   3.935   3.052   3.101 -0.3008  0.0819 -0.2352
 8982TIP3    H126910   3.898   3.039   3.014 -1.3837 -1.2161  0.3983
 8982TIP3    H226911   3.954   3.146   3.105 -0.7708  0.2559 -1.6472
 8983TIP3   OH226912   3.518   5.691   2.052 -0.2423 -0.0026  0.5169
 8983TIP3    H126913   3.601   5.735   2.033  0.4126 -1.5317 -0.2986
 8983TIP3    H226914   3.454   5.737   1.999 -0.1190  1.7131  1.7378
 8984TIP3   OH226915   4.257   1.538   0.222 -0.7314  0.1938 -0.0024
 8984TIP3    H126916   4.351   1.532   0.206 -0.8944 -0.5416 -0.7335
 8984TIP3    H226917   4.250   1.569   0.312  0.2576 -2.4034  1.0876
 8985TIP3   OH226918   6.252   6.473   2.401 -0.0528 -0.0899  0.4256
 8985TIP3    H126919   6.162   6.451   2.377 -0.4937 -0.2629  2.0967
 8985TIP3    H226920   6.267   6.426   2.483  2.2087 -1.5395 -0.7246
 8986TIP3   OH226921   0.154   0.072   2.557 -0.2953  0.3786  0.1935
 8986TIP3    H126922   0.206  -0.008   2.557 -1.9806 -0.7816  1.2304
 8986TIP3    H226923   0.217   0.141   2.577  1.0415 -0.7915  0.2000
 8987TIP3   OH226924   3.068   1.084   3.873 -0.2310  0.2760  0.4601
 8987TIP3    H126925   3.163   1.096   3.866  0.1643 -1.6078  1.7531
 8987TIP3    H226926   3.050   1.089   3.967 -1.4652  0.7836  0.2154
 8988TIP3   OH226927   1.922   4.657   2.116 -0.0800 -0.5313 -0.1857
 8988TIP3    H126928   2.017   4.672   2.118 -0.0866 -0.5516  0.7941
 8988TIP3    H226929   1.905   4.623   2.028  0.6198  0.7303 -0.8338
 8989TIP3   OH226930   0.621   4.647   0.847 -0.3663 -0.1550  0.8210
 8989TIP3    H126931   0.678   4.631   0.771 -1.4918 -1.4025  0.2116
 8989TIP3    H226932   0.678   4.691   0.910  0.3741  1.7642 -1.0634
 8990TIP3   OH226933   5.034   0.746   0.552 -0.8356 -0.0461 -0.3160
 8990TIP3    H126934   5.087   0.694   0.613  0.9248  1.1541 -0.7520
 8990TIP3    H226935   4.994   0.814   0.607 -1.8044 -0.8120 -0.0281
 8991TIP3   OH226936   5.327   0.928   4.748 -0.6128  0.3915 -0.4098
 8991TIP3    H126937   5.242   0.920   4.704 -0.5435 -1.3647 -0.2898
 8991TIP3    H226938   5.336   0.847   4.798  0.5385  1.1573  0.6708
 8992TIP3   OH226939   4.621   1.217   2.436 -0.2536  0.2573  0.0312
 8992TIP3    H126940   4.529   1.213   2.408 -0.2113  0.6841 -0.1791
 8992TIP3    H226941   4.617   1.208   2.531 -0.5053  0.1760  0.0154
 8993TIP3   OH226942   5.643   5.769   5.188  0.2161 -0.2036 -0.1420
 8993TIP3    H126943   5.565   5.824   5.187  0.6464  0.4727  1.1720
 8993TIP3    H226944   5.613   5.683   5.162 -1.1019 -0.1139  0.9980
 8994TIP3   OH226945   6.716   4.320   2.377  0.0303  0.2651  0.2057
 8994TIP3    H126946   6.680   4.241   2.337  0.0099  0.5107 -0.2749
 8994TIP3    H226947   6.655   4.389   2.351 -0.2189  0.3615  1.0279
 8995TIP3   OH226948   3.554   5.790   3.512 -0.0863 -0.4873 -0.0010
 8995TIP3    H126949   3.547   5.804   3.606  0.7098  0.4669 -0.0702
 8995TIP3    H226950   3.580   5.875   3.477 -1.0770 -0.6272 -1.1732
 8996TIP3   OH226951   5.846   1.185   4.839 -0.6829 -0.1017  0.2170
 8996TIP3    H126952   5.821   1.100   4.876 -2.8607  1.1131  1.8018
 8996TIP3    H226953   5.867   1.239   4.916 -0.1865  1.0384 -0.6968
 8997TIP3   OH226954   6.806   6.233   1.709  0.3433 -0.0957  0.2742
 8997TIP3    H126955   6.751   6.286   1.767 -0.2111  1.2905 -1.4174
 8997TIP3    H226956   6.833   6.294   1.640  0.2751 -1.8403 -1.3791
 8998TIP3   OH226957   6.351   6.282   2.595 -0.1750  0.4485 -0.1448
 8998TIP3    H126958   6.444   6.302   2.609  0.4182 -1.3414 -1.1922
 8998TIP3    H226959   6.351   6.196   2.554 -2.2514  0.9690 -1.3876
 8999TIP3   OH226960   4.225   0.043   3.864  0.3828  0.2545  0.6648
 8999TIP3    H126961   4.183  -0.034   3.826  1.4672  1.1597 -2.7082
 8999TIP3    H226962   4.153   0.094   3.902 -0.3128 -2.4715  3.4627
 9000TIP3   OH226963   4.770   3.445   2.649  0.4820 -0.2267 -0.3825
 9000TIP3    H126964   4.700   3.489   2.698  1.1715 -1.3072  1.6822
 9000TIP3    H226965   4.842   3.508   2.649  0.4187 -0.1511 -0.1202
 9001TIP3   OH226966   4.221   2.483   5.856  0.2990  0.1161  0.0195
 9001TIP3    H126967   4.296   2.425   5.840  1.7872  1.8954  0.1110
 9001TIP3    H226968   4.174   2.441   5.928  0.9477 -1.2761 -0.3170
 9002TIP3   OH226969   5.755   3.875   2.849  0.6762  0.1386  0.0138
 9002TIP3    H126970   5.756   3.833   2.763 -0.1237 -0.9072  0.4908
 9002TIP3    H226971   5.673   3.923   2.851  0.5465 -0.0859  0.2908
 9003TIP3   OH226972   6.852   4.673   2.330 -0.2994 -0.1918  0.3452
 9003TIP3    H126973   6.816   4.644   2.246  0.6328  0.8966 -0.4607
 9003TIP3    H226974   6.946   4.653   2.323  0.2857  2.3348 -0.0009
 9004TIP3   OH226975   3.942   5.894   5.524 -0.1170 -0.3025 -0.3413
 9004TIP3    H126976   3.982   5.900   5.437  0.8204  0.4302  0.1174
 9004TIP3    H226977   3.963   5.978   5.565 -2.0662  0.0651 -0.0344
 9005TIP3   OH226978   4.768   3.973   0.842  0.0659  0.4959  0.1374
 9005TIP3    H126979   4.727   3.986   0.757  0.8640  0.1196 -0.3199
 9005TIP3    H226980   4.774   4.060   0.880  0.5608  0.7946 -0.6064
 9006TIP3   OH226981   1.405   5.697   0.729  0.5288  0.2766 -0.0397
 9006TIP3    H126982   1.340   5.691   0.659 -1.6400  0.6964  1.8508
 9006TIP3    H226983   1.442   5.785   0.719  0.5470  0.1870 -0.8836
 9007TIP3   OH226984   4.509   1.074   4.507  0.2933  0.2432 -0.2658
 9007TIP3    H126985   4.435   1.085   4.568 -0.0948 -1.8636 -0.2774
 9007TIP3    H226986   4.501   1.148   4.447 -2.1119 -0.1372 -0.5408
 9008TIP3   OH226987   1.155   1.757   4.222  0.2629  0.6548  0.1612
 9008TIP3    H126988   1.157   1.708   4.305  1.1453  0.6103  0.1277
 9008TIP3    H226989   1.140   1.848   4.249  0.5593  0.6435  0.3778
 9009TIP3   OH226990   4.867   0.792   1.567  0.4975  0.8119  0.1503
 9009TIP3    H126991   4.782   0.836   1.562  1.2081  2.2208 -0.0630
 9009TIP3    H226992   4.907   0.828   1.647  0.5529 -0.5096  0.7423
 9010TIP3   OH226993   3.932   3.298   5.854 -0.1636  0.2070 -0.5344
 9010TIP3    H126994   3.851   3.250   5.871  1.3815 -1.8635  1.7532
 9010TIP3    H226995   3.989   3.234   5.811  1.4066  0.3718  1.1427
 9011TIP3   OH226996   4.235   5.320   4.564  0.4133 -0.1475 -0.1191
 9011TIP3    H126997   4.288   5.337   4.486  2.9448 -1.9939  1.0732
 9011TIP3    H226998   4.249   5.397   4.619  0.0548  0.3404 -0.6837
 9012TIP3   OH226999   6.738   5.713   0.374 -0.4103  1.0830  0.0820
 9012TIP3    H127000   6.803   5.647   0.350 -0.1397  1.3231  0.1597
 9012TIP3    H227001   6.673   5.665   0.426 -0.3088  0.8417 -0.0129
 9013TIP3   OH227002   0.760   1.091   5.277  0.6624  0.5660 -0.2570
 9013TIP3    H127003   0.724   1.084   5.365  0.4650  1.2861 -0.2761
 9013TIP3    H227004   0.744   1.182   5.251  1.7879  0.6968 -0.5662
 9014TIP3   OH227005   7.101   5.730   2.877 -0.2547 -0.2634  0.3770
 9014TIP3    H127006   7.122   5.823   2.888 -0.4436 -0.2340  0.4960
 9014TIP3    H227007   7.007   5.728   2.862 -0.0853 -0.3491 -0.7400
 9015TIP3   OH227008   1.743   1.892   1.255 -0.2620  0.4737 -0.3702
 9015TIP3    H127009   1.764   1.834   1.182  0.1439 -0.6898  0.6428
 9015TIP3    H227010   1.653   1.919   1.239  0.0850  0.8995 -1.7249
 9016TIP3   OH227011   4.013   1.406   4.166  0.3871  0.2724 -0.1438
 9016TIP3    H127012   4.105   1.423   4.144  0.6290  0.3322  0.8719
 9016TIP3    H227013   4.016   1.329   4.223 -0.2751 -0.2466 -0.8049
 9017TIP3   OH227014   2.936   1.793   4.019 -0.0374  0.3647  0.2473
 9017TIP3    H127015   2.973   1.718   3.973 -0.8781  0.5310 -0.7605
 9017TIP3    H227016   3.005   1.822   4.079  0.9221 -0.1627 -0.5749
 9018TIP3   OH227017   6.249   4.801   0.539  0.2087  0.4365  0.0593
 9018TIP3    H127018   6.215   4.789   0.628 -1.4360 -0.5278 -0.6511
 9018TIP3    H227019   6.191   4.866   0.500 -0.0195 -0.2368 -0.7563
 9019TIP3   OH227020   5.757   1.676   1.978 -0.1778 -0.1464  0.7064
 9019TIP3    H127021   5.803   1.607   1.931 -1.2829 -0.7690  0.4865
 9019TIP3    H227022   5.690   1.706   1.917 -1.4806 -0.8024  1.7544
 9020TIP3   OH227023   7.073   0.772   5.709  1.3257 -0.0714  0.3121
 9020TIP3    H127024   7.090   0.801   5.619  0.8338 -0.4187  0.1032
 9020TIP3    H227025   6.999   0.825   5.737 -0.0952 -1.6065 -0.3468
 9021TIP3   OH227026   6.295   1.476   1.794 -0.3139 -0.2379 -0.0499
 9021TIP3    H127027   6.328   1.450   1.881 -2.0000 -0.0370  0.6808
 9021TIP3    H227028   6.223   1.416   1.777 -0.1128 -0.1535 -1.2545
 9022TIP3   OH227029   0.289   4.030   2.008  0.0454  0.5403 -0.3682
 9022TIP3    H127030   0.301   4.123   2.023  0.3940  0.9334 -2.6671
 9022TIP3    H227031   0.195   4.015   2.021 -0.1304  1.3601 -0.6489
 9023TIP3   OH227032   0.031   4.257   0.439  0.0541  0.0367 -0.2198
 9023TIP3    H127033   0.028   4.208   0.521 -0.4552  1.6744  0.7861
 9023TIP3    H227034   0.073   4.197   0.377  2.5641 -0.4780  1.7683
 9024TIP3   OH227035   4.515   1.123   5.600 -0.1881  0.0548 -0.2858
 9024TIP3    H127036   4.489   1.115   5.692 -1.8801 -1.5685 -0.8458
 9024TIP3    H227037   4.505   1.035   5.565  1.2424  0.4626 -1.8560
 9025TIP3   OH227038   1.074   2.450   3.491 -0.6174 -0.3789 -0.2457
 9025TIP3    H127039   1.130   2.508   3.439 -0.6881  0.0489  0.1542
 9025TIP3    H227040   1.076   2.487   3.579 -0.4699 -1.1218  0.0730
 9026TIP3   OH227041   0.506   6.645   3.935  0.0160 -0.4793  0.1333
 9026TIP3    H127042   0.511   6.639   3.840  0.1051 -2.1277  0.2120
 9026TIP3    H227043   0.438   6.710   3.952  0.4145  0.2694 -1.0412
 9027TIP3   OH227044   6.869   1.670   0.551  0.1264 -0.5018  0.1071
 9027TIP3    H127045   6.960   1.668   0.579  0.1743 -1.5009 -0.0957
 9027TIP3    H227046   6.819   1.642   0.627 -0.2918  2.5517  1.1076
 9028TIP3   OH227047   4.615   2.168   5.453  0.2363 -0.1682  0.1229
 9028TIP3    H127048   4.551   2.161   5.383  0.9169 -0.9461 -0.4454
 9028TIP3    H227049   4.658   2.252   5.439 -0.6111  0.3335  0.4787
 9029TIP3   OH227050   6.220   1.093   5.069  0.0586 -0.2634  0.0797
 9029TIP3    H127051   6.182   1.130   4.990 -2.9802 -0.8553  1.1528
 9029TIP3    H227052   6.239   1.002   5.046  2.2078  0.3361 -0.8285
 9030TIP3   OH227053   1.651   6.474   0.377 -0.4256 -0.4092 -0.5802
 9030TIP3    H127054   1.655   6.382   0.352 -1.6394 -0.3399 -1.1151
 9030TIP3    H227055   1.626   6.520   0.297 -0.3189  0.3258 -0.2013
 9031TIP3   OH227056   4.612   6.560   2.980  0.5070 -0.0021 -0.9812
 9031TIP3    H127057   4.600   6.533   3.071 -0.2720 -0.4216 -1.1953
 9031TIP3    H227058   4.574   6.647   2.975  1.9104  0.6566 -0.5707
 9032TIP3   OH227059   1.475   1.519   0.066  0.1947 -0.1465 -0.4922
 9032TIP3    H127060   1.527   1.484   0.138  0.1390  0.4808 -0.1441
 9032TIP3    H227061   1.530   1.507  -0.012  0.5136 -0.2372 -0.2508
 9033TIP3   OH227062   0.751   3.170   2.492  0.2508  0.3344 -0.0239
 9033TIP3    H127063   0.738   3.204   2.581  1.3060  0.3912  0.1280
 9033TIP3    H227064   0.839   3.132   2.494 -0.7450 -2.1382 -0.2937
 9034TIP3   OH227065   1.494   5.381   3.371  0.5578  0.3128 -0.3315
 9034TIP3    H127066   1.499   5.432   3.452  1.3592 -0.5395  0.1758
 9034TIP3    H227067   1.423   5.421   3.322  0.9154  1.6851  0.2126
 9035TIP3   OH227068   1.118   1.556   2.139  0.5381 -0.3925  0.5987
 9035TIP3    H127069   1.183   1.624   2.159 -0.7513  0.6083  1.5372
 9035TIP3    H227070   1.070   1.589   2.063  0.1413 -0.4177  0.8359
 9036TIP3   OH227071   0.018   3.770   4.490  0.5768  0.1144 -0.0510
 9036TIP3    H127072   0.048   3.688   4.453  0.9551  0.2844 -0.1213
 9036TIP3    H227073   0.093   3.803   4.540 -0.5622 -1.2004  2.7604
 9037TIP3   OH227074   3.663   1.211   5.099 -0.4361  0.2336 -0.3590
 9037TIP3    H127075   3.614   1.234   5.020  0.4983 -0.2058 -1.0866
 9037TIP3    H227076   3.727   1.146   5.070 -0.3239 -0.2217  0.8413
 9038TIP3   OH227077   6.837   4.172   5.748  0.3050 -0.4102 -0.8003
 9038TIP3    H127078   6.795   4.171   5.834  1.0802 -1.0067 -0.4248
 9038TIP3    H227079   6.784   4.233   5.696  1.0099  1.5867  0.7064
 9039TIP3   OH227080   6.019   5.806   3.878  0.3382  0.6197  0.2684
 9039TIP3    H127081   6.090   5.790   3.815 -1.7437 -0.5541 -1.9726
 9039TIP3    H227082   6.040   5.749   3.952  1.9078  0.5972 -0.1378
 9040TIP3   OH227083   6.622   0.550   1.550 -0.2620 -0.0660  0.5635
 9040TIP3    H127084   6.589   0.579   1.635 -1.8032  0.4839 -0.2034
 9040TIP3    H227085   6.632   0.630   1.499  2.0763 -0.2170  0.6402
 9041TIP3   OH227086   6.563   4.107   2.877 -0.3978 -0.2345  0.0940
 9041TIP3    H127087   6.510   4.037   2.840 -0.5689  0.3894 -0.8790
 9041TIP3    H227088   6.564   4.089   2.971  1.8792 -3.1356 -0.3355
 9042TIP3   OH227089   6.803   3.681   5.028  0.2503 -0.0628 -0.4289
 9042TIP3    H127090   6.711   3.703   5.012 -0.1845 -0.9718  0.6502
 9042TIP3    H227091   6.850   3.763   5.016 -0.9373  0.8328  0.7952
 9043TIP3   OH227092   0.546   5.370   0.423  0.1874 -0.0042  0.0654
 9043TIP3    H127093   0.473   5.427   0.446 -0.6646 -0.1881 -1.8929
 9043TIP3    H227094   0.533   5.292   0.477 -0.8297  0.1424  0.0572
 9044TIP3   OH227095   4.054   0.835   4.749  0.0324  0.7334  0.0903
 9044TIP3    H127096   4.012   0.766   4.698 -1.2514  0.9169  0.8622
 9044TIP3    H227097   4.148   0.820   4.738 -0.1613  0.9344 -2.5637
 9045TIP3   OH227098   1.863   4.867   1.779 -0.2875 -0.1345 -0.1533
 9045TIP3    H127099   1.870   4.773   1.794 -0.2599  0.1345  1.6604
 9045TIP3    H227100   1.784   4.893   1.825 -0.2556  0.7566 -0.5829
 9046TIP3   OH227101   0.473   1.683   4.299  0.1043 -0.1984 -0.2862
 9046TIP3    H127102   0.427   1.751   4.251 -3.1400 -0.5015  2.0764
 9046TIP3    H227103   0.424   1.602   4.281  0.8458 -0.9357  0.8384
 9047TIP3   OH227104   3.416   4.922   2.112 -0.1857  0.3715 -0.4540
 9047TIP3    H127105   3.349   4.863   2.077  1.9127 -1.8733 -0.9373
 9047TIP3    H227106   3.437   4.886   2.198 -0.2894  1.6522  0.1230
 9048TIP3   OH227107   1.907   0.720   1.663 -0.2779 -0.4567  0.3025
 9048TIP3    H127108   1.821   0.686   1.641 -0.3911 -0.1322  0.2382
 9048TIP3    H227109   1.953   0.724   1.579 -0.7235  0.8199  0.1034
 9049TIP3   OH227110   0.938   3.731   1.536 -0.2433  0.5583  0.4950
 9049TIP3    H127111   0.871   3.685   1.586  0.4318  0.5286  1.3838
 9049TIP3    H227112   0.931   3.822   1.564  1.0607  0.3178  1.7356
 9050TIP3   OH227113   6.860   6.427   4.954  0.5763  0.3355 -0.0160
 9050TIP3    H127114   6.886   6.458   4.867 -2.0502  2.5240 -0.1606
 9050TIP3    H227115   6.938   6.437   5.008  1.2098  2.7849 -1.2482
 9051TIP3   OH227116   0.962   0.131   5.248 -0.1593  0.0468 -0.0695
 9051TIP3    H127117   1.030   0.162   5.308 -0.0676 -0.5976  0.1658
 9051TIP3    H227118   0.961   0.036   5.260 -2.0265  0.1479  0.9632
 9052TIP3   OH227119   5.806   5.396   5.857 -0.1670 -0.1076  0.3390
 9052TIP3    H127120   5.818   5.442   5.774  1.1738  1.2288  1.2204
 9052TIP3    H227121   5.844   5.309   5.841 -1.4638 -0.4790 -0.9235
 9053TIP3   OH227122   3.021   2.252   2.701  0.4794 -0.1767 -0.2899
 9053TIP3    H127123   2.939   2.286   2.736 -0.7924 -1.5005 -1.8079
 9053TIP3    H227124   3.025   2.162   2.734  1.4728 -0.0543 -0.0305
 9054TIP3   OH227125   0.469   1.769   1.157  0.0647 -0.0498  0.2611
 9054TIP3    H127126   0.415   1.847   1.171  2.1957  1.8241 -1.2952
 9054TIP3    H227127   0.432   1.729   1.078 -0.5603 -0.1796  0.6163
 9055TIP3   OH227128   2.503   0.829   2.199 -0.0109  0.1477 -0.4313
 9055TIP3    H127129   2.571   0.893   2.218 -0.4676  0.8462 -1.0769
 9055TIP3    H227130   2.484   0.788   2.284  0.6621  0.4864 -0.1098
 9056TIP3   OH227131   2.537   3.878   3.327  0.3417 -0.3186  0.3569
 9056TIP3    H127132   2.511   3.790   3.300  1.5438 -0.4019 -0.6555
 9056TIP3    H227133   2.547   3.873   3.422 -1.1256 -0.8361  0.4988
 9057TIP3   OH227134   6.089   1.091   5.715 -0.0820  0.0006 -0.4517
 9057TIP3    H127135   6.173   1.137   5.722  0.2292 -0.7034  0.8442
 9057TIP3    H227136   6.091   1.049   5.630  0.8424  0.0866 -0.4858
 9058TIP3   OH227137   6.182   6.480   5.479  0.3022 -0.1470 -0.2383
 9058TIP3    H127138   6.104   6.512   5.523  0.3655 -1.1487  0.6578
 9058TIP3    H227139   6.176   6.384   5.486  2.5901 -0.2637  1.7609
 9059TIP3   OH227140   2.453   3.455   0.250  0.0332  0.1638  0.1744
 9059TIP3    H127141   2.461   3.400   0.172 -2.1633 -2.7102  1.7954
 9059TIP3    H227142   2.468   3.395   0.324  0.0518  2.3277  2.0369
 9060TIP3   OH227143   5.210   6.005   2.174  0.9242 -0.3841  0.3330
 9060TIP3    H127144   5.188   5.976   2.262  0.5760  0.0247  0.3823
 9060TIP3    H227145   5.179   6.095   2.170  2.8063  0.3170  0.4884
 9061TIP3   OH227146   6.004   3.801   3.425 -0.0013  0.2032  0.1320
 9061TIP3    H127147   5.959   3.749   3.358  2.9127 -1.8730 -0.3927
 9061TIP3    H227148   6.040   3.875   3.376 -2.6121  1.9126  0.5646
 9062TIP3   OH227149   6.080   2.209   5.303  0.5134  0.3806 -0.6429
 9062TIP3    H127150   6.058   2.116   5.297 -1.0465  0.7636 -1.3758
 9062TIP3    H227151   6.125   2.218   5.387  1.8385 -1.2321 -1.1151
 9063TIP3   OH227152   5.799   2.577   4.222  0.0420  0.3307 -0.2437
 9063TIP3    H127153   5.777   2.656   4.173  1.1144  1.1825  0.5951
 9063TIP3    H227154   5.880   2.546   4.184 -0.2914 -0.2840 -0.4629
 9064TIP3   OH227155   3.066   0.820   4.089 -0.5146  0.1842 -0.0331
 9064TIP3    H127156   3.104   0.827   4.176  0.6398 -0.8056 -0.4274
 9064TIP3    H227157   3.105   0.740   4.052 -0.4135  0.9766 -1.7302
 9065TIP3   OH227158   4.038   0.904   0.715 -0.0194 -0.1304  0.2559
 9065TIP3    H127159   4.100   0.832   0.721  0.2940  0.2178  1.3116
 9065TIP3    H227160   4.081   0.969   0.659  0.5724  0.0994  0.9646
 9066TIP3   OH227161   4.705   4.494   2.625 -0.2843  0.4032 -0.2853
 9066TIP3    H127162   4.619   4.503   2.584 -0.9687 -1.5799  0.5773
 9066TIP3    H227163   4.767   4.494   2.552 -1.4110 -2.3693 -1.3644
 9067TIP3   OH227164   0.988   0.884   1.575  0.2265 -0.7264 -0.3408
 9067TIP3    H127165   0.930   0.844   1.640  0.1371 -0.0518 -0.0054
 9067TIP3    H227166   0.941   0.962   1.545  0.6891 -0.5097 -0.5171
 9068TIP3   OH227167   6.073   2.691   2.928 -0.7808 -0.3757  0.0109
 9068TIP3    H127168   6.018   2.724   2.857  1.7524  0.7011 -1.5603
 9068TIP3    H227169   6.075   2.596   2.914 -1.0352 -0.2714 -0.8152
 9069TIP3   OH227170   0.984   3.381   0.763  0.1329 -0.1029 -0.0508
 9069TIP3    H127171   1.024   3.377   0.850  1.4836  3.5439 -0.3268
 9069TIP3    H227172   1.049   3.343   0.705 -0.0312 -0.9625  0.3165
 9070TIP3   OH227173   4.369   5.502   4.708 -0.3784 -0.2338  0.5431
 9070TIP3    H127174   4.432   5.567   4.677 -1.3626 -0.1581 -1.4052
 9070TIP3    H227175   4.424   5.432   4.743  0.7409  0.6541  0.6445
 9071TIP3   OH227176   3.381   1.117   1.269  0.4423 -0.1088 -0.0043
 9071TIP3    H127177   3.330   1.051   1.221  0.7885  0.4453 -1.1702
 9071TIP3    H227178   3.456   1.135   1.212  0.6103  0.9260  0.5314
 9072TIP3   OH227179   3.385   2.164   0.476 -0.1704 -0.0214  0.6286
 9072TIP3    H127180   3.421   2.090   0.427 -1.5437  0.0442 -0.5685
 9072TIP3    H227181   3.450   2.234   0.464 -0.5117  0.0403 -1.3163
 9073TIP3   OH227182   2.391   2.428   1.037  0.3806 -0.0514 -0.3288
 9073TIP3    H127183   2.377   2.466   1.123  0.0992 -0.2779 -0.2743
 9073TIP3    H227184   2.473   2.468   1.006  0.0308  0.6823 -0.3261
 9074TIP3   OH227185   5.178   3.333   4.642  0.4856  0.2468  0.3436
 9074TIP3    H127186   5.208   3.362   4.556 -0.2846  1.0775  0.3545
 9074TIP3    H227187   5.238   3.261   4.664  0.5517 -0.1222 -0.9715
 9075TIP3   OH227188   7.152   0.381   4.330  0.4739  0.0929 -0.3469
 9075TIP3    H127189   7.111   0.452   4.281 -0.5110  0.3112  0.7788
 9075TIP3    H227190   7.224   0.352   4.273 -0.4314  0.5530 -1.7748
 9076TIP3   OH227191   0.196   5.975   4.160  0.4617 -0.4676  0.7372
 9076TIP3    H127192   0.264   6.000   4.097 -1.0538 -2.0094 -1.6711
 9076TIP3    H227193   0.189   6.050   4.219  0.2165  2.2941 -2.4942
 9077TIP3   OH227194   4.715   0.838   3.701  0.2004  0.2219  0.3257
 9077TIP3    H127195   4.756   0.809   3.619  1.5449  0.5393  0.8493
 9077TIP3    H227196   4.660   0.765   3.728  0.4999 -0.2732 -0.3711
 9078TIP3   OH227197   5.534   5.333   0.900  0.0091 -0.0904 -0.4589
 9078TIP3    H127198   5.488   5.266   0.949  1.2138 -0.9168 -0.4168
 9078TIP3    H227199   5.580   5.285   0.831 -0.4010  0.8736 -1.4344
 9079TIP3   OH227200   1.309   3.753   3.169 -0.0746  0.0854  0.1472
 9079TIP3    H127201   1.385   3.696   3.161 -0.1025  0.1978 -1.2779
 9079TIP3    H227202   1.276   3.738   3.258  1.9342  0.4753  1.0078
 9080TIP3   OH227203   2.980   3.318   4.192  0.0256  0.2294 -0.0788
 9080TIP3    H127204   3.014   3.349   4.108 -0.7199  0.1795 -0.4000
 9080TIP3    H227205   3.026   3.236   4.208 -1.9985 -1.3431 -1.9073
 9081TIP3   OH227206   5.206   2.666   1.370 -0.2340 -0.0238 -0.1566
 9081TIP3    H127207   5.148   2.592   1.391  2.1775 -1.7070  1.1423
 9081TIP3    H227208   5.181   2.734   1.432 -0.8064 -0.7341  0.4087
 9082TIP3   OH227209   3.253   3.720   0.202  0.0821  0.2540 -0.1198
 9082TIP3    H127210   3.256   3.816   0.201 -1.0928  0.3180 -2.1300
 9082TIP3    H227211   3.311   3.693   0.131  1.0796 -0.6009  0.9757
 9083TIP3   OH227212   0.987   6.276   2.127  0.1404  0.1888  0.0244
 9083TIP3    H127213   0.975   6.294   2.034  1.0338  0.9394  0.0425
 9083TIP3    H227214   0.989   6.181   2.133 -0.0360  0.1312 -0.7073
 9084TIP3   OH227215   1.558   4.381   0.887 -0.3137  0.2164  0.5194
 9084TIP3    H127216   1.496   4.309   0.875 -0.0286  0.1620 -0.7603
 9084TIP3    H227217   1.507   4.460   0.875 -0.2687  0.1811  0.0611
 9085TIP3   OH227218   4.363   3.748   5.355  0.3717 -0.7277  0.3533
 9085TIP3    H127219   4.442   3.737   5.301  0.5656  2.2011 -0.1011
 9085TIP3    H227220   4.396   3.763   5.443  0.3583  0.4873  0.1651
 9086TIP3   OH227221   5.909   1.662   5.438 -0.1040 -0.4667 -0.4780
 9086TIP3    H127222   5.849   1.708   5.380 -1.3271 -2.0785 -0.5815
 9086TIP3    H227223   5.870   1.575   5.448  2.5746 -1.8742 -1.1558
 9087TIP3   OH227224   5.231   3.212   2.534  0.1556  0.5512 -0.1465
 9087TIP3    H127225   5.194   3.259   2.609  0.4633 -3.1357  2.6421
 9087TIP3    H227226   5.162   3.149   2.510  0.6921  0.6190 -1.9780
 9088TIP3   OH227227   5.399   0.891   1.907  0.5420  0.3781  0.1095
 9088TIP3    H127228   5.355   0.951   1.968  1.5183 -0.8683  2.1548
 9088TIP3    H227229   5.490   0.921   1.907  0.3985  0.8627 -1.4224
 9089TIP3   OH227230   7.063   1.795   2.955 -0.4249  0.4382  0.1087
 9089TIP3    H127231   7.054   1.887   2.928 -0.8901  0.0222 -1.2743
 9089TIP3    H227232   6.991   1.751   2.910  0.1404 -0.6966  0.2975
 9090TIP3   OH227233   3.183   0.289   5.787 -0.3772 -0.1195 -0.1717
 9090TIP3    H127234   3.159   0.199   5.768 -1.4244 -0.1289  1.0601
 9090TIP3    H227235   3.105   0.340   5.764 -0.1191  0.3547 -0.0047
 9091TIP3   OH227236   6.746   5.306   0.455  0.1044 -0.1765 -0.4394
 9091TIP3    H127237   6.770   5.231   0.402  2.6135 -0.2871  0.7215
 9091TIP3    H227238   6.676   5.273   0.512  1.1642 -1.6925  0.0591
 9092TIP3   OH227239   3.870   3.575   3.230 -0.0805  0.2503  0.0390
 9092TIP3    H127240   3.812   3.620   3.170  0.7324  0.2763 -0.7464
 9092TIP3    H227241   3.818   3.562   3.309 -0.9112  0.9106 -0.3887
 9093TIP3   OH227242   1.025   5.231   0.996 -0.3274 -0.2824 -0.4837
 9093TIP3    H127243   1.079   5.166   1.041 -0.3450 -0.4242 -0.6655
 9093TIP3    H227244   1.067   5.243   0.911  0.3711  0.8561  0.0086
 9094TIP3   OH227245   1.433   5.740   3.474  0.4099 -0.2645  0.3178
 9094TIP3    H127246   1.520   5.705   3.453  1.6619  2.8808 -0.3735
 9094TIP3    H227247   1.439   5.763   3.567  0.1061 -0.5642  0.4124
 9095TIP3   OH227248   5.382   3.099   3.088 -0.6288 -0.2379  0.1885
 9095TIP3    H127249   5.336   3.019   3.062 -0.3720  0.2915 -2.0752
 9095TIP3    H227250   5.375   3.157   3.012  0.6976  1.2252  1.1212
 9096TIP3   OH227251   3.051   4.996   2.154  0.2769  0.2241  0.0136
 9096TIP3    H127252   3.003   5.001   2.072 -1.2404  1.4727  0.9073
 9096TIP3    H227253   3.139   5.028   2.133  0.1867 -0.3129 -1.2756
 9097TIP3   OH227254   3.821   4.429   3.539  0.0874  0.2621  0.6723
 9097TIP3    H127255   3.860   4.350   3.577  0.8647  0.4089  0.2039
 9097TIP3    H227256   3.896   4.479   3.505 -0.5836 -0.2225 -1.7377
 9098TIP3   OH227257   4.062   0.900   5.703 -0.1679 -0.2628  0.4087
 9098TIP3    H127258   4.063   0.848   5.784 -0.0877  0.7436  1.0739
 9098TIP3    H227259   4.085   0.838   5.634 -0.0458 -1.0985  1.1836
 9099TIP3   OH227260   0.389   1.391   2.854  0.0829  0.2057 -0.5082
 9099TIP3    H127261   0.452   1.418   2.787 -1.7812  0.3486 -2.2995
 9099TIP3    H227262   0.441   1.342   2.917  2.1981  1.4268 -1.2118
 9100TIP3   OH227263   1.952   3.803   1.139 -0.4378 -0.1260  0.5345
 9100TIP3    H127264   1.925   3.832   1.051  0.5149  0.7187  0.5000
 9100TIP3    H227265   2.041   3.772   1.127 -0.4326 -0.3494  1.1463
 9101TIP3   OH227266   4.552   4.727   1.300 -0.0217  0.0794 -0.0606
 9101TIP3    H127267   4.610   4.688   1.365  0.1344 -0.4155 -0.4828
 9101TIP3    H227268   4.472   4.674   1.305  0.5736 -1.0004 -1.3652
 9102TIP3   OH227269   4.247   1.031   4.254  0.1083 -0.2857  0.0931
 9102TIP3    H127270   4.185   1.092   4.293  0.7796 -0.6624  1.8254
 9102TIP3    H227271   4.193   0.972   4.201 -0.7112  0.8362 -0.3558
 9103TIP3   OH227272   2.429   1.537   5.576  0.1055  0.7939  0.0309
 9103TIP3    H127273   2.473   1.583   5.505  0.3906  1.0591  0.3774
 9103TIP3    H227274   2.339   1.525   5.545  0.1893  1.0472 -0.3086
 9104TIP3   OH227275   5.605   5.392   1.572 -0.4631 -0.2655  0.8152
 9104TIP3    H127276   5.584   5.484   1.585 -1.5432 -0.1090 -1.4747
 9104TIP3    H227277   5.533   5.345   1.616  0.0649 -0.0364  1.9438
 9105TIP3   OH227278   7.063   2.976   5.205 -0.2526  0.3876  0.7116
 9105TIP3    H127279   7.010   2.897   5.190  0.1988 -0.0996  1.6233
 9105TIP3    H227280   7.010   3.047   5.169  0.1619 -0.5199 -1.9272
 9106TIP3   OH227281   7.129   5.584   3.177  0.0524  0.2519  0.2141
 9106TIP3    H127282   7.157   5.599   3.268  1.0787 -0.4475  0.0434
 9106TIP3    H227283   7.069   5.655   3.158 -0.3556  0.2926  1.5180
 9107TIP3   OH227284   4.435   2.543   2.484 -0.0240  0.2636  0.6739
 9107TIP3    H127285   4.341   2.561   2.474 -0.1368 -0.9033 -0.7168
 9107TIP3    H227286   4.478   2.624   2.457 -0.6215  0.6944  0.9956
 9108TIP3   OH227287   0.346   2.493   2.816 -0.2855 -0.4585  0.3850
 9108TIP3    H127288   0.325   2.525   2.728  2.4704  1.5673  0.3393
 9108TIP3    H227289   0.302   2.555   2.875 -0.6329 -0.7230  0.4035
 9109TIP3   OH227290   5.783   6.126   1.822  0.2371  0.6958 -0.2375
 9109TIP3    H127291   5.832   6.169   1.752 -0.0362  0.7848 -0.3750
 9109TIP3    H227292   5.789   6.033   1.801 -1.0047  0.8013 -1.1552
 9110TIP3   OH227293   4.310   5.897   5.794  0.0264  0.5528  0.5384
 9110TIP3    H127294   4.331   5.904   5.701  0.1687 -0.1287  0.5148
 9110TIP3    H227295   4.391   5.922   5.839  0.1945  0.1516  0.4658
 9111TIP3   OH227296   4.233   2.790   5.065  0.3389 -0.0386  0.2055
 9111TIP3    H127297   4.261   2.864   5.010  1.3563 -0.8311 -0.3804
 9111TIP3    H227298   4.184   2.733   5.006 -1.2306  0.5703  0.8661
 9112TIP3   OH227299   3.741   4.851   0.877  0.0640  0.1653 -0.7664
 9112TIP3    H127300   3.721   4.915   0.809 -0.9584  0.0555 -0.5925
 9112TIP3    H227301   3.833   4.831   0.865 -0.0757  0.2148 -2.0711
 9113TIP3   OH227302   2.307   0.996   3.531 -0.4559 -0.1248  0.3573
 9113TIP3    H127303   2.374   0.966   3.592  0.3379  0.5366 -0.1802
 9113TIP3    H227304   2.273   0.915   3.492 -1.1205 -0.5733  1.7976
 9114TIP3   OH227305   6.196   0.937   2.677 -0.0963  0.4474  0.1006
 9114TIP3    H127306   6.262   0.943   2.746  1.6340 -0.1944 -1.4205
 9114TIP3    H227307   6.116   0.912   2.723  1.2864 -1.3180  1.7495
 9115TIP3   OH227308   2.180   0.401   4.993 -0.1952  0.0004 -0.4371
 9115TIP3    H127309   2.135   0.462   5.052 -1.0829 -0.5012 -0.5696
 9115TIP3    H227310   2.197   0.324   5.047 -0.5336 -0.2542 -0.6870
 9116TIP3   OH227311   2.906   1.780   5.811  0.5227  0.5730  0.0096
 9116TIP3    H127312   2.910   1.722   5.735 -0.0332  1.2489 -0.5572
 9116TIP3    H227313   2.829   1.750   5.860  0.4267  0.6201 -0.1108
 9117TIP3   OH227314   3.981   1.808   0.545  0.1140  0.0431  0.4484
 9117TIP3    H127315   4.033   1.803   0.625 -0.4698 -0.4708  0.8147
 9117TIP3    H227316   3.908   1.866   0.567 -0.2945 -0.4545  0.4494
 9118TIP3   OH227317   6.579   6.214   4.691 -0.4425  0.6091  0.3280
 9118TIP3    H127318   6.671   6.187   4.694 -1.0482 -1.6680  2.8175
 9118TIP3    H227319   6.545   6.174   4.611  0.7996  1.9292 -0.9171
 9119TIP3   OH227320   3.564   1.799   1.377  0.0671 -0.2149  0.0255
 9119TIP3    H127321   3.608   1.791   1.293  0.7457 -1.3298  0.4504
 9119TIP3    H227322   3.598   1.880   1.415 -2.0239  1.5851 -1.7295
 9120TIP3   OH227323   2.483   0.509   5.435  0.0885  0.0108 -0.3407
 9120TIP3    H127324   2.501   0.459   5.356 -1.0753 -0.3872 -0.3749
 9120TIP3    H227325   2.431   0.584   5.405 -0.5084 -0.2361  0.0625
 9121TIP3   OH227326   1.716   5.855   4.667  0.0166 -0.5392 -0.0404
 9121TIP3    H127327   1.689   5.807   4.746  0.0020  1.0781  0.9808
 9121TIP3    H227328   1.713   5.790   4.597 -0.3873 -1.9178  1.2149
 9122TIP3   OH227329   3.537   3.433   5.736  0.8022  0.4904  0.4220
 9122TIP3    H127330   3.558   3.523   5.713  1.7442  1.3567  3.9724
 9122TIP3    H227331   3.618   3.400   5.777  0.0074 -1.4638  0.4930
 9123TIP3   OH227332   6.261   5.810   2.131 -0.3476 -0.0330  0.2061
 9123TIP3    H127333   6.318   5.862   2.188  2.8671 -1.2072 -1.6396
 9123TIP3    H227334   6.234   5.736   2.185  1.1825 -0.2255  0.7581
 9124TIP3   OH227335   2.531   1.118   5.623  0.1643  0.6660 -0.3379
 9124TIP3    H127336   2.438   1.114   5.605  0.1086 -1.5026  0.1636
 9124TIP3    H227337   2.570   1.155   5.544 -1.0340  0.8089 -0.8738
 9125TIP3   OH227338   1.081   6.016   4.444  0.0913 -0.5304 -0.4079
 9125TIP3    H127339   1.038   5.939   4.408  0.5195 -0.3460 -1.3299
 9125TIP3    H227340   1.017   6.086   4.435  0.6102 -0.2190 -1.9293
 9126TIP3   OH227341   6.536   3.138   1.429  0.0577 -0.1370 -0.7586
 9126TIP3    H127342   6.561   3.126   1.521  0.1174  0.6868 -0.6596
 9126TIP3    H227343   6.468   3.205   1.431 -0.7543 -0.9202 -1.2190
 9127TIP3   OH227344   5.521   5.116   2.783  0.1396  0.6953  0.2479
 9127TIP3    H127345   5.576   5.091   2.857 -1.6285  0.3785  1.4951
 9127TIP3    H227346   5.459   5.044   2.773  1.0167  0.1574 -2.3236
 9128TIP3   OH227347   1.151   2.586   0.530  0.8165 -0.1169 -0.2109
 9128TIP3    H127348   1.184   2.541   0.608  1.6388  0.3216 -0.2829
 9128TIP3    H227349   1.222   2.647   0.507  0.7603 -0.5350 -1.5477
 9129TIP3   OH227350   0.527   2.816   2.915 -0.0501  0.0220  0.6040
 9129TIP3    H127351   0.547   2.726   2.940 -0.7443 -0.8010 -1.6109
 9129TIP3    H227352   0.556   2.823   2.824 -1.8425  1.4083  0.0950
 9130TIP3   OH227353   6.315   3.950   0.298 -0.0007  0.0277  0.4239
 9130TIP3    H127354   6.266   3.878   0.338 -0.4000 -0.7184 -1.2765
 9130TIP3    H227355   6.396   3.956   0.349 -0.0566 -1.5112  0.7381
 9131TIP3   OH227356   6.895   1.695   5.743 -0.3260  0.4315 -0.3215
 9131TIP3    H127357   6.827   1.759   5.762 -0.0292  0.6000  0.1953
 9131TIP3    H227358   6.953   1.698   5.820 -0.8981 -1.2233  0.2176
 9132TIP3   OH227359   5.495   5.002   1.286 -0.3627  0.1161  0.8361
 9132TIP3    H127360   5.587   4.977   1.272 -0.8898 -0.9530 -1.1626
 9132TIP3    H227361   5.476   5.062   1.214 -1.5146 -0.5394  0.5721
 9133TIP3   OH227362   0.152   5.854   0.564 -0.2370  0.4392  0.1188
 9133TIP3    H127363   0.061   5.848   0.594 -0.7444 -0.3420 -1.4930
 9133TIP3    H227364   0.199   5.889   0.640 -1.7778  0.3670  1.1656
 9134TIP3   OH227365   6.899   4.807   1.597  0.0093  0.3921  0.5923
 9134TIP3    H127366   6.947   4.873   1.546 -0.2986 -1.0699 -1.7491
 9134TIP3    H227367   6.808   4.817   1.568 -0.1303 -0.6674  0.6476
 9135TIP3   OH227368   5.862   3.607   3.277  0.0789  0.5233  0.1560
 9135TIP3    H127369   5.896   3.545   3.341 -2.2748  0.1104  1.1039
 9135TIP3    H227370   5.819   3.552   3.211 -0.0005  1.0622 -0.2468
 9136TIP3   OH227371   1.123   2.403   5.457 -0.5433 -0.4782 -0.3204
 9136TIP3    H127372   1.094   2.316   5.483 -1.3515 -0.4738 -1.1254
 9136TIP3    H227373   1.087   2.461   5.524  0.0399 -0.7602  0.2446
 9137TIP3   OH227374   3.917   2.676   4.886  0.0090 -0.1506  0.2994
 9137TIP3    H127375   3.906   2.712   4.974  0.2418 -1.9039  1.0960
 9137TIP3    H227376   3.850   2.608   4.880  0.6929 -0.7649 -0.4652
 9138TIP3   OH227377   0.063   6.750   1.151  0.5289  0.0671 -0.0438
 9138TIP3    H127378   0.144   6.740   1.101  0.8225 -0.9631  0.6280
 9138TIP3    H227379   0.088   6.805   1.225  0.8851 -1.1217  0.7406
 9139TIP3   OH227380   6.309   1.818   1.450 -0.1722  0.3007  0.2749
 9139TIP3    H127381   6.315   1.886   1.518  0.5768  0.5200  0.0075
 9139TIP3    H227382   6.392   1.771   1.457 -0.2949  0.0160 -0.1760
 9140TIP3   OH227383   3.648   2.666   1.262  0.5209  0.0691 -0.5604
 9140TIP3    H127384   3.594   2.588   1.253 -2.4361  1.5969  2.1295
 9140TIP3    H227385   3.695   2.652   1.344  0.0132  1.0575 -0.0933
 9141TIP3   OH227386   6.288   2.844   5.838 -0.4229  0.1709 -0.3038
 9141TIP3    H127387   6.207   2.808   5.803 -0.6564 -0.7969  1.1626
 9141TIP3    H227388   6.260   2.924   5.883 -0.4702  0.1293 -0.2599
 9142TIP3   OH227389   0.891   3.849   3.937  0.7653 -0.6512 -1.2613
 9142TIP3    H127390   0.892   3.841   4.032 -0.2449  0.7309 -1.0972
 9142TIP3    H227391   0.947   3.777   3.906  0.8085 -1.3549  0.3397
 9143TIP3   OH227392   1.192   1.486   0.361  0.0408 -0.4634 -0.2284
 9143TIP3    H127393   1.241   1.408   0.335  0.7337 -0.1501  0.1291
 9143TIP3    H227394   1.102   1.455   0.370  0.6146 -1.7202  1.9377
 9144TIP3   OH227395   3.140   1.037   0.174 -0.2591  0.1899 -0.0829
 9144TIP3    H127396   3.158   1.019   0.081  0.7852  0.8300 -0.0176
 9144TIP3    H227397   3.107   0.954   0.208 -1.6172  0.2149 -1.2466
 9145TIP3   OH227398   0.348   4.286   2.104 -0.7196 -0.1632  0.0671
 9145TIP3    H127399   0.390   4.341   2.037  0.2190 -1.0272 -0.0772
 9145TIP3    H227400   0.399   4.303   2.183 -0.1122 -1.1742 -0.0938
 9146TIP3   OH227401   6.241   1.312   5.839 -0.8951  0.1291 -0.3162
 9146TIP3    H127402   6.152   1.348   5.838 -0.5093  1.0953 -0.5980
 9146TIP3    H227403   6.298   1.388   5.846 -0.0627 -0.4525 -0.6240
 9147TIP3   OH227404   2.194   0.437   4.390  0.2308 -0.2552 -0.0508
 9147TIP3    H127405   2.109   0.478   4.375 -0.2972 -1.6049 -0.9069
 9147TIP3    H227406   2.177   0.343   4.383  1.9692 -0.5260 -1.3295
 9148TIP3   OH227407   3.806   1.565   1.799 -0.0186  0.6296 -0.5975
 9148TIP3    H127408   3.874   1.504   1.827 -0.4346 -0.1664 -1.2612
 9148TIP3    H227409   3.749   1.574   1.876 -0.9597 -1.2646 -1.0039
 9149TIP3   OH227410   3.577   5.825   2.872 -0.3905  0.0822  0.2865
 9149TIP3    H127411   3.655   5.880   2.867 -1.5012  1.6434 -1.1132
 9149TIP3    H227412   3.534   5.853   2.953  0.3881 -0.6772  0.9845
 9150TIP3   OH227413   5.775   3.859   5.196 -0.4240  0.2404  0.1994
 9150TIP3    H127414   5.771   3.873   5.290  0.0254 -1.6150  0.5406
 9150TIP3    H227415   5.750   3.943   5.158  3.3214  2.3888  1.9052
 9151TIP3   OH227416   1.471   6.198   4.427  0.1521  0.6079  0.4556
 9151TIP3    H127417   1.388   6.207   4.475  0.2738  1.1368  0.5689
 9151TIP3    H227418   1.486   6.284   4.388 -1.2067 -0.4115 -2.6227
 9152TIP3   OH227419   6.654   3.734   0.117  0.4037  0.5396 -0.2455
 9152TIP3    H127420   6.693   3.652   0.148  0.1030  0.3242 -0.4403
 9152TIP3    H227421   6.560   3.718   0.117  0.1488  1.6291  1.9023
 9153TIP3   OH227422   2.948   6.621   4.571  0.3242 -0.3075  0.4050
 9153TIP3    H127423   2.930   6.704   4.617  0.1882 -0.7630  1.1893
 9153TIP3    H227424   2.997   6.569   4.634  0.9703 -0.5870 -0.3201
 9154TIP3   OH227425   1.511   0.172   5.597  0.0418  0.0851  0.2969
 9154TIP3    H127426   1.415   0.180   5.601  0.0658  1.1830 -0.9009
 9154TIP3    H227427   1.525   0.095   5.540 -0.1054 -1.2303  1.9594
 9155TIP3   OH227428   1.961   1.430   5.072 -0.6267 -0.2837  0.0821
 9155TIP3    H127429   1.920   1.497   5.127 -0.1047 -1.1871  1.6451
 9155TIP3    H227430   2.052   1.457   5.066 -0.3312 -1.0152  1.0331
 9156TIP3   OH227431   0.045   5.255   0.917  0.0472  0.5221  0.3326
 9156TIP3    H127432   0.037   5.227   1.009 -0.4196  0.3406  0.2376
 9156TIP3    H227433   0.104   5.331   0.921 -1.5863  1.8046  1.0479
 9157TIP3   OH227434   4.557   4.725   0.074  1.0193 -0.3188 -0.0338
 9157TIP3    H127435   4.514   4.660   0.018  0.8528  1.5727 -2.2449
 9157TIP3    H227436   4.489   4.751   0.136  0.8414 -1.6214  0.3453
 9158TIP3   OH227437   4.898   2.844   4.187 -0.2730  0.2198  0.0955
 9158TIP3    H127438   4.994   2.848   4.184 -0.1904 -1.4471 -0.3143
 9158TIP3    H227439   4.877   2.866   4.278  0.7677 -2.6753  1.1669
 9159TIP3   OH227440   3.293   4.625   5.471  0.1696  0.3309 -0.3302
 9159TIP3    H127441   3.295   4.593   5.381  0.1499  0.2480 -0.3018
 9159TIP3    H227442   3.307   4.546   5.524  2.0182  0.6329 -0.3069
 9160TIP3   OH227443   0.356   1.244   1.750  0.4015  0.7890 -0.1260
 9160TIP3    H127444   0.300   1.291   1.688  0.3790  0.2752 -0.5030
 9160TIP3    H227445   0.357   1.300   1.828  1.0237  1.8091 -0.8376
 9161TIP3   OH227446   3.614   6.556   3.610 -0.0694 -0.0313  0.1052
 9161TIP3    H127447   3.662   6.566   3.692 -0.9983  1.5551  0.4807
 9161TIP3    H227448   3.537   6.505   3.633  0.7226 -1.4608 -0.2490
 9162TIP3   OH227449   2.168   2.641   3.120  0.0823  0.1996 -0.0571
 9162TIP3    H127450   2.186   2.553   3.154 -0.1203  0.7125  1.4151
 9162TIP3    H227451   2.162   2.628   3.025  1.1449 -1.1807  0.0292
 9163TIP3   OH227452   1.593   0.339   1.067 -0.2691  0.1186  0.0590
 9163TIP3    H127453   1.625   0.302   1.149  2.3541 -1.2377 -1.4368
 9163TIP3    H227454   1.597   0.434   1.080  0.1469 -0.0687  1.4443
 9164TIP3   OH227455   4.808   6.167   5.791 -0.2234 -0.4153  0.3033
 9164TIP3    H127456   4.856   6.085   5.793  0.7225  0.1313  0.5377
 9164TIP3    H227457   4.769   6.170   5.704 -0.9015 -1.4518  0.5479
 9165TIP3   OH227458   6.047   2.021   4.655 -0.1619 -0.5561  0.0074
 9165TIP3    H127459   6.049   2.095   4.595 -1.1648  0.0241  0.6532
 9165TIP3    H227460   5.956   2.016   4.685  0.0695 -1.5234  0.6200
 9166TIP3   OH227461   5.597   2.532   5.776 -0.1893 -0.4899  0.0958
 9166TIP3    H127462   5.581   2.484   5.695  0.5364 -1.7369  0.6534
 9166TIP3    H227463   5.517   2.583   5.791 -0.6431 -0.8717 -0.9619
 9167TIP3   OH227464   0.923   2.500   0.725 -0.0046 -0.1825  0.1447
 9167TIP3    H127465   0.830   2.486   0.707 -0.0769  0.1727  0.2417
 9167TIP3    H227466   0.962   2.514   0.639 -0.0336 -0.3591  0.1012
 9168TIP3   OH227467   4.031   6.655   2.022 -0.3745  0.7276  0.2696
 9168TIP3    H127468   4.086   6.728   1.993  1.7562 -1.0042 -0.3659
 9168TIP3    H227469   4.058   6.640   2.113 -0.8144  0.7389  0.4047
 9169TIP3   OH227470   0.237   4.102   2.982 -0.0276 -0.2932 -0.1696
 9169TIP3    H127471   0.246   4.097   2.887  3.1943 -1.0723  0.0464
 9169TIP3    H227472   0.203   4.017   3.008  1.0221 -0.8425 -0.5286
 9170TIP3   OH227473   1.376   0.435   3.682  0.1747 -0.2792  0.0155
 9170TIP3    H127474   1.331   0.507   3.638  0.5187  0.5481  0.9635
 9170TIP3    H227475   1.396   0.373   3.612  0.3178  0.7777 -0.9225
 9171TIP3   OH227476   5.188   1.828   2.016  0.2871  0.1619 -0.0251
 9171TIP3    H127477   5.131   1.840   1.940  1.1777  0.9979 -0.5806
 9171TIP3    H227478   5.136   1.775   2.077 -1.2019  1.1688 -0.3725
 9172TIP3   OH227479   5.330   2.454   0.169  0.2782  0.2123 -0.2788
 9172TIP3    H127480   5.298   2.377   0.122  1.4072 -0.1227 -0.5329
 9172TIP3    H227481   5.265   2.469   0.237 -0.5627 -0.2524 -0.9666
 9173TIP3   OH227482   1.545   3.897   3.874 -0.2591 -0.0512  0.5544
 9173TIP3    H127483   1.457   3.886   3.836  0.8451 -0.3906 -2.1159
 9173TIP3    H227484   1.574   3.983   3.842  1.3140 -1.0147 -0.7122
 9174TIP3   OH227485   2.424   0.884   0.890  0.1759  0.7430 -0.0866
 9174TIP3    H127486   2.483   0.808   0.886 -0.6882  0.0734 -0.5978
 9174TIP3    H227487   2.463   0.942   0.955  1.4104  0.3299 -0.4450
 9175TIP3   OH227488   0.966   0.813   2.094 -0.5974 -0.7687 -0.0164
 9175TIP3    H127489   1.043   0.869   2.108 -0.8562 -0.2474 -0.6035
 9175TIP3    H227490   0.895   0.858   2.139 -1.1096  0.1434 -1.6353
 9176TIP3   OH227491   0.604   6.644   4.598  0.5522 -0.0929 -0.4101
 9176TIP3    H127492   0.566   6.618   4.683  0.2836 -1.7402 -0.9887
 9176TIP3    H227493   0.689   6.598   4.596  0.2495 -0.6295 -1.3057
 9177TIP3   OH227494   6.569   0.933   5.209  0.2784 -0.6189 -0.1545
 9177TIP3    H127495   6.523   1.016   5.194  1.6209  0.2510  0.4125
 9177TIP3    H227496   6.581   0.929   5.304 -1.7062 -2.5668  0.1115
 9178TIP3   OH227497   4.859   1.506   5.649 -0.3589  0.2393 -0.1732
 9178TIP3    H127498   4.876   1.418   5.683  1.4290  0.0645 -1.3451
 9178TIP3    H227499   4.910   1.510   5.568 -1.3666  1.9535 -0.7745
 9179TIP3   OH227500   4.374   2.454   0.344  0.4582 -0.3278 -0.2821
 9179TIP3    H127501   4.465   2.425   0.336 -0.1927 -2.4002 -0.8161
 9179TIP3    H227502   4.335   2.392   0.406 -0.6002  0.5245 -0.0752
 9180TIP3   OH227503   1.870   2.129   0.130 -0.5243  0.2208 -0.0547
 9180TIP3    H127504   1.798   2.190   0.117  0.1153  0.8227 -0.9362
 9180TIP3    H227505   1.948   2.177   0.100  0.3133 -0.2439  1.3046
 9181TIP3   OH227506   3.419   0.316   3.487  0.2210 -0.0851  0.6592
 9181TIP3    H127507   3.417   0.316   3.391  1.2795 -0.7960  0.6226
 9181TIP3    H227508   3.411   0.408   3.511 -2.9512 -0.0640  0.0063
 9182TIP3   OH227509   1.392   5.272   5.573  0.0317 -0.3797  0.0610
 9182TIP3    H127510   1.474   5.293   5.528  0.5920 -1.3767  0.5751
 9182TIP3    H227511   1.418   5.211   5.642 -0.8255  0.9852  1.6481
 9183TIP3   OH227512   4.607   1.328   1.039 -0.1588  0.3487 -0.1852
 9183TIP3    H127513   4.638   1.292   1.121 -1.4943  0.5318  0.4215
 9183TIP3    H227514   4.514   1.342   1.052 -0.3875  0.4512 -1.7092
 9184TIP3   OH227515   2.245   2.535   1.515  0.4165 -0.3593 -0.0666
 9184TIP3    H127516   2.291   2.577   1.588  1.0627 -1.6572  0.3066
 9184TIP3    H227517   2.173   2.488   1.556  1.0003 -1.4012 -0.1938
 9185TIP3   OH227518   2.398   1.029   2.038  0.5063  0.0676  0.0752
 9185TIP3    H127519   2.406   0.958   2.101 -0.4387  0.9193  1.1956
 9185TIP3    H227520   2.439   1.104   2.081 -0.5832  0.7843 -0.0955
 9186TIP3   OH227521   0.770   3.317   2.129  0.1418 -0.3210  0.3001
 9186TIP3    H127522   0.818   3.235   2.140  1.9005  0.5215 -0.6780
 9186TIP3    H227523   0.760   3.352   2.218 -0.0436 -1.2506  0.6571
 9187TIP3   OH227524   3.928   3.798   1.413  0.1481 -0.2857 -0.3772
 9187TIP3    H127525   3.835   3.804   1.392  0.1267 -0.1513 -0.2435
 9187TIP3    H227526   3.935   3.718   1.465 -0.2666  0.8998  1.5890
 9188TIP3   OH227527   4.939   4.471   2.460  1.3491  0.0227  0.2265
 9188TIP3    H127528   4.918   4.384   2.495 -1.2237  0.9639  1.2558
 9188TIP3    H227529   5.013   4.500   2.513  0.0950 -0.2327  2.2553
 9189TIP3   OH227530   4.683   3.409   1.658 -0.0881  0.0818 -0.0250
 9189TIP3    H127531   4.622   3.434   1.588 -0.0996  1.7643  0.5468
 9189TIP3    H227532   4.735   3.488   1.674  0.6384 -0.6048  1.1420
 9190TIP3   OH227533   3.116   1.356   3.756  0.2948 -0.0612 -0.3922
 9190TIP3    H127534   3.032   1.347   3.709 -0.0928  0.6249  0.1537
 9190TIP3    H227535   3.124   1.275   3.806  0.8098 -0.9017 -1.7646
 9191TIP3   OH227536   3.758   6.203   1.167 -0.0086 -0.2566  0.4636
 9191TIP3    H127537   3.671   6.181   1.134 -0.4119  2.2574 -0.4170
 9191TIP3    H227538   3.749   6.203   1.262 -0.3186 -2.2209  0.4702
 9192TIP3   OH227539   3.080   5.707   2.127  0.2240  0.4179  0.1287
 9192TIP3    H127540   3.047   5.757   2.202 -0.0327 -0.1714  0.4086
 9192TIP3    H227541   3.031   5.625   2.129 -0.0964  0.5668 -0.9363
 9193TIP3   OH227542   3.744   0.632   1.531  0.4194  0.0717  0.3843
 9193TIP3    H127543   3.791   0.549   1.520  0.0407 -0.1397  0.3367
 9193TIP3    H227544   3.677   0.630   1.462  0.4109  0.4174  0.3838
 9194TIP3   OH227545   5.438   1.244   4.409  0.3584 -0.0645  0.5266
 9194TIP3    H127546   5.362   1.187   4.396  1.1212 -0.8884 -0.6630
 9194TIP3    H227547   5.453   1.243   4.503 -2.6913  2.3239  1.1802
 9195TIP3   OH227548   3.245   4.807   3.358 -0.4259 -0.6437 -0.1849
 9195TIP3    H127549   3.322   4.802   3.414  0.5587 -0.0474 -1.4130
 9195TIP3    H227550   3.186   4.868   3.402  0.4482  0.0430  0.0583
 9196TIP3   OH227551   4.543   4.404   2.405 -0.5444  0.5069 -0.5432
 9196TIP3    H127552   4.602   4.397   2.330 -0.2782 -0.1897 -0.2819
 9196TIP3    H227553   4.529   4.313   2.433  0.2690  0.8053  0.9505
 9197TIP3   OH227554   5.403   5.724   5.810 -0.0015  0.3310 -0.2233
 9197TIP3    H127555   5.456   5.776   5.750  0.7703  1.0050  0.9873
 9197TIP3    H227556   5.444   5.638   5.810  0.3101  0.4778 -0.2668
 9198TIP3   OH227557   4.678   6.412   2.253 -0.2160 -0.1902  0.3068
 9198TIP3    H127558   4.603   6.426   2.310 -0.2795 -1.9117  0.7152
 9198TIP3    H227559   4.645   6.354   2.184  0.8033 -1.2975  0.7147
 9199TIP3   OH227560   4.856   4.903   2.912  0.0463 -0.1065 -0.2430
 9199TIP3    H127561   4.806   4.984   2.908  0.5900  0.1963 -1.1000
 9199TIP3    H227562   4.875   4.891   3.005 -2.6818 -0.9073  0.2795
 9200TIP3   OH227563   7.050   2.422   3.639 -0.2892 -0.3039  0.0350
 9200TIP3    H127564   7.058   2.403   3.732 -0.4450 -1.4766 -0.1731
 9200TIP3    H227565   7.086   2.510   3.629  0.3013 -0.4094  1.1087
 9201TIP3   OH227566   0.664   2.806   4.392 -0.0457  0.3625  0.2770
 9201TIP3    H127567   0.670   2.712   4.372  1.1465  0.5240 -0.2219
 9201TIP3    H227568   0.600   2.840   4.329 -0.1442 -0.0364  0.1606
 9202TIP3   OH227569   0.892   3.113   1.746 -0.1024  0.3839  0.0405
 9202TIP3    H127570   0.797   3.131   1.745 -0.4801 -1.3189  1.2370
 9202TIP3    H227571   0.898   3.019   1.762  1.8123  0.7110  1.4872
 9203TIP3   OH227572   0.732   6.347   2.843  0.0875  0.3265  0.0201
 9203TIP3    H127573   0.693   6.427   2.808 -0.7924 -0.9335 -2.0784
 9203TIP3    H227574   0.686   6.277   2.797  2.4419 -1.3351  0.0409
 9204TIP3   OH227575   0.677   4.461   4.435  0.2076 -0.7735 -0.1383
 9204TIP3    H127576   0.714   4.407   4.504 -2.3945 -2.4600  0.0815
 9204TIP3    H227577   0.692   4.411   4.355  2.0636  0.5675 -0.7037
 9205TIP3   OH227578   3.021   1.248   3.391 -0.5078  0.3546  0.6661
 9205TIP3    H127579   2.979   1.268   3.475  0.8806  1.3608  1.1590
 9205TIP3    H227580   3.114   1.240   3.413 -0.1348  0.5753 -0.7688
 9206TIP3   OH227581   0.259   5.922   5.200  0.4645  0.2971  0.7064
 9206TIP3    H127582   0.256   5.996   5.140 -1.6781 -0.6256 -0.4532
 9206TIP3    H227583   0.235   5.958   5.285  2.5963  1.4545  0.8663
 9207TIP3   OH227584   3.003   5.396   3.074 -0.4479  0.3463 -0.2874
 9207TIP3    H127585   3.072   5.372   3.136 -0.5471 -4.4485 -1.6500
 9207TIP3    H227586   2.922   5.379   3.122 -0.5445 -0.5680 -0.7516
 9208TIP3   OH227587   3.092   4.032   1.190 -0.5109  0.1721 -0.4109
 9208TIP3    H127588   3.077   3.941   1.163 -1.6174  0.1101  0.3362
 9208TIP3    H227589   3.105   4.026   1.285  0.5510  0.6859 -0.5097
 9209TIP3   OH227590   0.393   3.556   1.920  0.3983 -0.5241 -0.0686
 9209TIP3    H127591   0.479   3.593   1.941  0.6596 -2.1106  1.9641
 9209TIP3    H227592   0.342   3.631   1.888  2.7407  0.2927 -2.2688
 9210TIP3   OH227593   4.580   3.973   2.649 -0.4215 -0.8770 -1.1251
 9210TIP3    H127594   4.669   3.941   2.639  0.0783  0.5280 -1.4671
 9210TIP3    H227595   4.526   3.909   2.602  0.1905 -2.5585  0.3458
 9211TIP3   OH227596   5.592   4.695   0.822  0.2857 -0.6546  0.5164
 9211TIP3    H127597   5.599   4.676   0.729  0.5313 -2.3284  0.8429
 9211TIP3    H227598   5.677   4.668   0.859  0.7579  1.3474  1.0487
 9212TIP3   OH227599   6.591   5.532   2.818 -0.2119  0.4959  0.0091
 9212TIP3    H127600   6.572   5.618   2.781 -0.3701 -0.4545 -2.2680
 9212TIP3    H227601   6.672   5.544   2.868 -1.3186  2.3712  1.4947
 9213TIP3   OH227602   4.853   5.622   3.494  0.0929 -0.3905  0.3480
 9213TIP3    H127603   4.922   5.659   3.548 -0.8244  0.3352  1.0482
 9213TIP3    H227604   4.797   5.574   3.555  0.4710 -1.7808 -0.3431
 9214TIP3   OH227605   3.535   6.091   5.507 -0.6819 -0.1549  0.0263
 9214TIP3    H127606   3.444   6.094   5.535 -1.2645 -0.8267 -1.6622
 9214TIP3    H227607   3.571   6.012   5.549 -0.4686  0.8056  1.7329
 9215TIP3   OH227608   1.842   4.768   2.426 -0.5374 -0.0870 -0.3558
 9215TIP3    H127609   1.790   4.688   2.416  0.1556 -0.4058 -1.6289
 9215TIP3    H227610   1.933   4.737   2.424 -0.2578  0.4681  1.7439
 9216TIP3   OH227611   0.938   3.605   2.305 -0.2393  0.1013  0.3792
 9216TIP3    H127612   0.974   3.692   2.325 -0.7688  0.2717  0.6256
 9216TIP3    H227613   0.986   3.576   2.228  1.2694 -0.1998  1.3878
 9217TIP3   OH227614   2.849   6.103   1.658 -0.4315  0.0818  0.2347
 9217TIP3    H127615   2.773   6.079   1.604  0.6210  0.8748 -1.6883
 9217TIP3    H227616   2.885   6.019   1.686  0.1438 -0.4918 -2.0102
 9218TIP3   OH227617   6.566   5.072   3.487 -0.0408  0.7374 -0.2067
 9218TIP3    H127618   6.555   5.131   3.561  0.7091 -0.4578  0.9080
 9218TIP3    H227619   6.648   5.100   3.446  2.0373 -1.3539  2.1946
 9219TIP3   OH227620   5.340   2.429   2.001  0.4272  0.0252 -0.0275
 9219TIP3    H127621   5.376   2.459   2.085 -0.4610  1.7934 -0.2236
 9219TIP3    H227622   5.262   2.380   2.025  0.3089  0.3186  0.1988
 9220TIP3   OH227623   4.793   5.562   0.166  0.2632  0.1959 -0.3294
 9220TIP3    H127624   4.746   5.480   0.153  0.0431  0.4769 -1.4552
 9220TIP3    H227625   4.858   5.542   0.233 -0.0543 -0.7865 -0.2931
 9221TIP3   OH227626   3.157   2.912   5.289 -0.1210 -0.1023 -0.3042
 9221TIP3    H127627   3.153   2.876   5.377 -1.6282 -1.1186 -0.7374
 9221TIP3    H227628   3.236   2.965   5.288 -0.6229  0.8012  1.9803
 9222TIP3   OH227629   6.064   4.775   5.151  0.1222 -0.4201 -0.6656
 9222TIP3    H127630   6.116   4.847   5.186  0.5354 -0.4428 -1.2089
 9222TIP3    H227631   6.027   4.809   5.070 -2.4833  0.3151  0.7261
 9223TIP3   OH227632   0.139   2.561   2.145 -0.2612 -0.2806  0.2020
 9223TIP3    H127633   0.210   2.507   2.179  1.4336  0.7811 -1.4735
 9223TIP3    H227634   0.103   2.510   2.073  0.9854  0.5075 -1.0312
 9224TIP3   OH227635   5.087   0.385   1.560 -0.2238 -0.0380  0.3598
 9224TIP3    H127636   5.062   0.319   1.496 -0.2890 -0.8179  1.1682
 9224TIP3    H227637   5.005   0.417   1.597 -0.1572 -0.5816  1.0135
 9225TIP3   OH227638   6.528   5.253   1.706 -0.2590 -0.4779 -0.1969
 9225TIP3    H127639   6.589   5.281   1.638  0.3840  0.3580  0.7017
 9225TIP3    H227640   6.552   5.162   1.723  0.3270 -0.3472 -0.2939
 9226TIP3   OH227641   4.409   0.221   1.073 -0.4662  0.1534  0.0908
 9226TIP3    H127642   4.343   0.281   1.038  0.2561  1.3949  0.7951
 9226TIP3    H227643   4.359   0.153   1.118 -1.3012  0.0978 -0.8945
 9227TIP3   OH227644   1.426   3.889   1.151  0.1239 -0.2835  0.5158
 9227TIP3    H127645   1.459   3.799   1.144  0.3849 -0.0969 -1.0837
 9227TIP3    H227646   1.497   3.943   1.117 -0.3679  0.4540  0.6419
 9228TIP3   OH227647   2.058   1.071   4.041  0.0517  0.0325  0.2108
 9228TIP3    H127648   2.013   1.011   3.981  0.0208 -0.6722  0.9100
 9228TIP3    H227649   2.024   1.046   4.128  0.6992  0.4809  0.5963
 9229TIP3   OH227650   7.137   3.860   0.839  0.1134 -0.4790 -0.3634
 9229TIP3    H127651   7.104   3.783   0.794 -0.1922 -0.0289 -0.9260
 9229TIP3    H227652   7.222   3.877   0.798 -0.4764  0.3429 -1.2767
 9230TIP3   OH227653   3.410   2.066   2.363 -0.0284 -0.0153  0.0630
 9230TIP3    H127654   3.340   2.131   2.358 -0.4697 -0.5225 -0.4571
 9230TIP3    H227655   3.491   2.115   2.347 -0.2859  0.5279  0.4268
 9231TIP3   OH227656   5.333   6.816   2.581 -1.2966  0.6171 -0.0478
 9231TIP3    H127657   5.272   6.744   2.564 -0.0076  0.0420 -2.7950
 9231TIP3    H227658   5.399   6.778   2.638 -0.7049 -0.4245 -1.3587
 9232TIP3   OH227659   6.771   3.309   4.772 -0.2363 -0.4294 -0.4116
 9232TIP3    H127660   6.710   3.277   4.705  0.6132 -0.1568 -1.3346
 9232TIP3    H227661   6.714   3.341   4.843 -1.1391 -1.2313 -0.7586
 9233TIP3   OH227662   0.442   1.587   4.754 -0.1209 -0.0764  0.1507
 9233TIP3    H127663   0.478   1.660   4.702 -1.7686  1.6842  1.3231
 9233TIP3    H227664   0.397   1.533   4.689  2.2467 -0.8781 -0.9433
 9234TIP3   OH227665   0.959   5.825   1.030 -0.2629  0.1080 -0.5468
 9234TIP3    H127666   0.867   5.810   1.053 -0.0825  0.2148  0.2927
 9234TIP3    H227667   0.965   5.805   0.937 -1.0718 -0.2034 -0.5340
 9235TIP3   OH227668   5.604   2.579   1.185 -0.0955  0.5465 -0.1387
 9235TIP3    H127669   5.668   2.516   1.151 -0.8510  0.6833 -1.9004
 9235TIP3    H227670   5.559   2.532   1.255  0.5448 -0.2589 -0.2506
 9236TIP3   OH227671   6.716   1.621   2.680 -0.4651 -0.6253  0.2813
 9236TIP3    H127672   6.693   1.530   2.700 -0.0576 -0.6385  0.7237
 9236TIP3    H227673   6.641   1.672   2.709  0.5260 -0.5387  2.9612
 9237TIP3   OH227674   6.976   0.836   4.642  0.0833 -0.3905  0.5482
 9237TIP3    H127675   6.896   0.857   4.690  0.2294  0.3262  0.4825
 9237TIP3    H227676   6.948   0.772   4.576 -0.0396 -1.7040  1.8170
 9238TIP3   OH227677   3.305   0.994   1.829 -0.0503 -0.7080 -0.3064
 9238TIP3    H127678   3.318   1.058   1.899  0.0059 -0.7021 -0.3222
 9238TIP3    H227679   3.247   1.036   1.767  1.5642  0.1100 -1.3368
 9239TIP3   OH227680   4.927   1.936   4.177  0.1005  0.2342  0.1202
 9239TIP3    H127681   4.949   2.029   4.176  2.1758 -0.2120 -0.4320
 9239TIP3    H227682   4.991   1.895   4.118 -3.0710 -1.0904 -2.7256
 9240TIP3   OH227683   0.415   2.308   0.588 -0.0861 -0.4412  0.1337
 9240TIP3    H127684   0.395   2.380   0.527  0.7973  0.7855  1.2478
 9240TIP3    H227685   0.386   2.230   0.541  1.1339  0.3706 -2.1603
 9241TIP3   OH227686   1.708   3.715   3.699  0.1076  0.3971 -0.0419
 9241TIP3    H127687   1.782   3.775   3.686  3.0491 -1.7267  4.2554
 9241TIP3    H227688   1.655   3.757   3.766 -0.1368  0.0116  0.0076
 9242TIP3   OH227689   4.549   2.914   2.962  0.5692  0.1770  0.0156
 9242TIP3    H127690   4.597   2.985   2.918  0.3089  0.7524  0.6382
 9242TIP3    H227691   4.479   2.892   2.901  1.1416 -0.1088 -0.5416
 9243TIP3   OH227692   2.360   6.653   1.985 -0.8756  0.6549 -0.7494
 9243TIP3    H127693   2.388   6.741   1.962  1.4360  0.0077 -0.7312
 9243TIP3    H227694   2.329   6.661   2.075  1.7200  1.1142  0.2193
 9244TIP3   OH227695   4.444   6.764   0.979  0.0491 -0.3725  0.5641
 9244TIP3    H127696   4.431   6.859   0.986  0.9554 -0.2908  1.4541
 9244TIP3    H227697   4.358   6.727   0.997  0.1255  0.2406  2.4140
 9245TIP3   OH227698   1.384   4.950   2.016  0.0919  0.1814 -0.2669
 9245TIP3    H127699   1.312   5.011   2.033 -0.5671 -1.1130  2.1593
 9245TIP3    H227700   1.356   4.901   1.939 -0.0993  1.8275 -1.2844
 9246TIP3   OH227701   1.664   0.571   0.752  0.0380 -0.1353  0.5438
 9246TIP3    H127702   1.661   0.618   0.835  0.9265  0.4964  0.2422
 9246TIP3    H227703   1.651   0.479   0.775  3.7352 -0.5155  1.9002
 9247TIP3   OH227704   5.823   3.275   0.718 -0.1933  0.0645  0.1316
 9247TIP3    H127705   5.873   3.195   0.699  0.0317  0.3999 -0.7190
 9247TIP3    H227706   5.772   3.253   0.797  0.0801 -0.8184  0.0742
 9248TIP3   OH227707   3.819   5.959   3.966  0.4233  0.3466 -0.4518
 9248TIP3    H127708   3.772   6.030   3.923 -0.3646 -0.5136 -1.0530
 9248TIP3    H227709   3.889   6.003   4.015 -0.7248  1.6280  0.1183
 9249TIP3   OH227710   1.656   5.384   4.995  0.0352 -0.0591  0.3028
 9249TIP3    H127711   1.687   5.410   5.082  0.9817  2.5886 -0.7318
 9249TIP3    H227712   1.562   5.401   4.996 -0.0154 -0.3511  0.8968
 9250TIP3   OH227713   0.410   3.415   4.512 -0.3019  0.2737  0.4468
 9250TIP3    H127714   0.369   3.489   4.556  0.9493  1.8450 -0.9169
 9250TIP3    H227715   0.503   3.424   4.531 -0.0448 -0.5086 -0.3661
 9251TIP3   OH227716   3.290   6.276   3.890 -0.1598  0.1976  0.1854
 9251TIP3    H127717   3.308   6.370   3.895 -2.1064  0.7018 -0.9767
 9251TIP3    H227718   3.203   6.266   3.928 -0.2703 -1.0318 -0.3417
 9252TIP3   OH227719   0.528   2.924   1.255 -0.0708  1.1023 -0.1048
 9252TIP3    H127720   0.578   2.903   1.334 -2.2709 -0.2651  1.0109
 9252TIP3    H227721   0.554   3.013   1.233 -0.9529  2.4082  3.4636
 9253TIP3   OH227722   4.851   3.737   0.360  0.2033 -0.3529 -0.1696
 9253TIP3    H127723   4.927   3.757   0.306  0.7870  1.8378  1.3222
 9253TIP3    H227724   4.782   3.794   0.326 -0.8904 -2.3994 -1.5830
 9254TIP3   OH227725   1.368   6.491   0.113 -0.0425 -0.4804  0.0917
 9254TIP3    H127726   1.306   6.541   0.059 -0.8488 -0.0368  1.3889
 9254TIP3    H227727   1.436   6.554   0.135 -0.3879 -0.2970  0.6533
 9255TIP3   OH227728   6.024   1.141   4.532 -0.4076 -0.0641  0.0174
 9255TIP3    H127729   6.096   1.204   4.545  0.4918 -1.1079  0.2354
 9255TIP3    H227730   5.954   1.193   4.492  0.6135  0.8954 -0.5835
 9256TIP3   OH227731   0.708   4.186   1.549  0.1733  0.1405 -0.0299
 9256TIP3    H127732   0.623   4.190   1.505  0.2615  1.5710 -0.1068
 9256TIP3    H227733   0.719   4.272   1.589  1.9411  0.2580 -0.6775
 9257TIP3   OH227734   1.901   3.959   3.710 -0.5432  0.1497 -0.5253
 9257TIP3    H127735   1.832   4.019   3.682 -0.4955  0.8530  0.7780
 9257TIP3    H227736   1.936   3.998   3.790 -1.2329 -2.1246  1.0088
 9258TIP3   OH227737   2.374   5.369   0.792 -0.1731 -0.3134 -0.1857
 9258TIP3    H127738   2.427   5.445   0.815 -2.1729  1.5764 -1.4757
 9258TIP3    H227739   2.357   5.326   0.876  1.6116  0.2152  0.4841
 9259TIP3   OH227740   0.974   3.898   3.119  0.3716  0.2230 -0.2067
 9259TIP3    H127741   0.973   3.804   3.103  0.4293  0.1358  0.2738
 9259TIP3    H227742   0.888   3.917   3.159  0.8265  0.1521  0.8522
 9260TIP3   OH227743   5.636   0.977   2.747 -0.0563 -0.8635  0.5403
 9260TIP3    H127744   5.689   0.973   2.668  0.3766 -0.7676  0.8261
 9260TIP3    H227745   5.641   1.069   2.775 -0.7116 -0.7576  0.3358
 9261TIP3   OH227746   3.314   6.192   1.920 -0.4204 -0.4470  0.0526
 9261TIP3    H127747   3.366   6.224   1.847  2.0454 -1.3976  1.2789
 9261TIP3    H227748   3.261   6.121   1.883  1.3522 -1.4307 -0.6993
 9262TIP3   OH227749   6.928   5.511   0.419  0.6565  0.0225  0.0266
 9262TIP3    H127750   7.000   5.488   0.479 -0.9559 -1.1760  1.6013
 9262TIP3    H227751   6.858   5.451   0.442 -0.7322  0.8830 -1.7610
 9263TIP3   OH227752   6.468   5.161   3.722 -0.2643 -0.4730 -0.1185
 9263TIP3    H127753   6.379   5.129   3.706 -1.1751  0.3178  2.7956
 9263TIP3    H227754   6.502   5.102   3.790 -0.4255  2.0058  2.2850
 9264TIP3   OH227755   2.578   4.154   5.035 -1.0170  0.0141  0.0178
 9264TIP3    H127756   2.628   4.195   4.964 -1.1140  0.1626  0.0353
 9264TIP3    H227757   2.531   4.082   4.992  2.0678 -2.5802  0.6131
 9265TIP3   OH227758   5.527   2.084   3.882 -0.0424 -0.0131 -0.1812
 9265TIP3    H127759   5.539   2.104   3.790 -2.2393  2.5043 -0.0345
 9265TIP3    H227760   5.609   2.110   3.924  0.5341 -0.0710 -1.2594
 9266TIP3   OH227761   1.921   1.371   0.091 -0.0611  0.1690  0.0487
 9266TIP3    H127762   1.876   1.428   0.028  3.1387  3.1262  0.0965
 9266TIP3    H227763   2.007   1.355   0.052  1.6195  1.1125  3.0012
 9267TIP3   OH227764   6.671   0.047   1.710 -0.4296 -0.1030 -0.2791
 9267TIP3    H127765   6.669   0.132   1.665  4.1134  0.8087  0.7231
 9267TIP3    H227766   6.634   0.065   1.796 -0.6309  0.5208 -0.4864
 9268TIP3   OH227767   2.403   1.111   5.022 -0.9976 -0.3383  0.0298
 9268TIP3    H127768   2.328   1.111   4.963 -0.3831  0.4267 -0.7865
 9268TIP3    H227769   2.389   1.186   5.079 -0.9975 -0.3580  0.0554
 9269TIP3   OH227770   4.833   5.810   4.803 -0.3725  0.2595 -0.0613
 9269TIP3    H127771   4.916   5.770   4.827 -0.1160  1.2501  0.7619
 9269TIP3    H227772   4.856   5.874   4.735 -0.4122  0.7532  0.3880
 9270TIP3   OH227773   5.690   4.569   4.556 -0.0206 -0.0500  0.1004
 9270TIP3    H127774   5.729   4.529   4.634 -0.3351  0.0406  0.3066
 9270TIP3    H227775   5.646   4.497   4.511 -1.8969  0.2869  1.2623
 9271TIP3   OH227776   2.744   4.241   4.857 -0.7379 -0.0824  0.0179
 9271TIP3    H127777   2.803   4.209   4.789 -2.6766 -1.6866 -0.9952
 9271TIP3    H227778   2.718   4.328   4.828 -0.6654 -0.2980 -0.7002
 9272TIP3   OH227779   7.167   6.598   5.545  0.4539  0.1648 -0.2282
 9272TIP3    H127780   7.226   6.547   5.490  0.3758  1.1894 -1.2855
 9272TIP3    H227781   7.096   6.537   5.567  2.4396 -1.4864  2.1137
 9273TIP3   OH227782   2.551   0.748   4.069 -0.0079  0.0693 -0.4194
 9273TIP3    H127783   2.590   0.738   4.156 -0.4635  0.1316 -0.2024
 9273TIP3    H227784   2.465   0.706   4.077  0.1140 -0.2811 -0.9570
 9274TIP3   OH227785   5.421   5.305   0.228  0.1985  0.2634  0.7425
 9274TIP3    H127786   5.389   5.272   0.143  1.6185 -0.2236  0.3661
 9274TIP3    H227787   5.372   5.254   0.292  1.1503 -1.4517  0.1725
 9275TIP3   OH227788   6.334   4.439   3.127 -0.0642  0.3195 -0.5487
 9275TIP3    H127789   6.245   4.469   3.144 -0.1715  0.0826 -0.6891
 9275TIP3    H227790   6.338   4.430   3.032 -0.7166 -2.1845 -0.4168
 9276TIP3   OH227791   6.359   0.725   5.455  0.0898  0.3490 -0.0900
 9276TIP3    H127792   6.407   0.808   5.448  1.5172 -0.3888  0.6057
 9276TIP3    H227793   6.424   0.662   5.486 -1.3015 -0.7440  0.7192
 9277TIP3   OH227794   5.746   4.603   0.168 -0.2309 -0.1105 -0.1573
 9277TIP3    H127795   5.652   4.605   0.153 -0.1982  0.7623 -0.3205
 9277TIP3    H227796   5.780   4.542   0.103 -0.7124 -0.6700  0.1080
 9278TIP3   OH227797   1.963   3.377   1.327  0.4337 -0.7285  0.3087
 9278TIP3    H127798   2.000   3.399   1.242  0.3833  0.3785  0.5609
 9278TIP3    H227799   2.038   3.350   1.380  0.9752  1.6989  0.8844
 9279TIP3   OH227800   6.212   5.851   3.035 -0.1714 -0.3310  0.8615
 9279TIP3    H127801   6.241   5.780   3.092 -1.7076 -0.7368  1.1742
 9279TIP3    H227802   6.198   5.810   2.950  0.2404 -0.1157  0.6851
 9280TIP3   OH227803   0.724   3.034   3.939 -0.5245  0.0104  0.2672
 9280TIP3    H127804   0.767   3.108   3.898 -0.6416 -0.1514 -0.1536
 9280TIP3    H227805   0.742   3.044   4.032 -1.0099  0.8663  0.2774
 9281TIP3   OH227806   4.332   4.481   1.075  0.2291 -0.2044 -0.1866
 9281TIP3    H127807   4.325   4.506   1.167 -1.1548  2.3698 -0.9011
 9281TIP3    H227808   4.281   4.400   1.068 -3.6811  1.9698  0.5773
 9282TIP3   OH227809   3.668   0.397   5.813 -0.0858  0.2939 -0.1020
 9282TIP3    H127810   3.761   0.421   5.812  0.3514 -1.2144  0.9776
 9282TIP3    H227811   3.644   0.399   5.905 -0.6215 -1.0761 -0.1892
 9283TIP3   OH227812   2.827   1.254   5.248 -0.1694  0.3304 -0.5442
 9283TIP3    H127813   2.738   1.242   5.280 -0.2367  1.4056 -0.2939
 9283TIP3    H227814   2.862   1.166   5.241 -1.1523 -0.0863 -0.3572
 9284TIP3   OH227815   3.793   2.394   3.931  0.1179  0.3844 -0.5975
 9284TIP3    H127816   3.843   2.410   4.011 -0.7854  0.1570  0.0258
 9284TIP3    H227817   3.706   2.430   3.949  0.1367  1.0661 -1.7846
 9285TIP3   OH227818   0.501   5.036   5.223  0.0813  0.2962  0.0793
 9285TIP3    H127819   0.440   4.993   5.164  0.4461  0.2073 -0.2367
 9285TIP3    H227820   0.511   4.975   5.296 -1.6397  1.1189  1.0533
 9286TIP3   OH227821   4.242   2.937   0.656  0.1746  0.0508  0.5266
 9286TIP3    H127822   4.176   2.991   0.613  0.3994 -1.7924 -2.4143
 9286TIP3    H227823   4.303   3.000   0.695 -0.1844  1.9496 -1.7243
 9287TIP3   OH227824   3.743   4.042   5.406 -0.1315 -0.5592 -0.0934
 9287TIP3    H127825   3.820   4.006   5.362  0.2946  0.7285 -0.4202
 9287TIP3    H227826   3.680   4.055   5.336  0.1484  0.4456 -0.1687
 9288TIP3   OH227827   2.869   3.868   5.170  0.4241 -0.0354 -0.2589
 9288TIP3    H127828   2.859   3.956   5.134  1.9855 -0.2902 -1.4443
 9288TIP3    H227829   2.796   3.858   5.230 -0.7253  1.4593 -1.3319
 9289TIP3   OH227830   2.887   0.353   2.753  0.0820  0.4514 -0.5349
 9289TIP3    H127831   2.858   0.282   2.810 -2.1964  0.1360 -1.9557
 9289TIP3    H227832   2.957   0.396   2.802 -1.4853 -0.0253  2.3266
 9290TIP3   OH227833   4.479   4.102   0.036 -0.1103  0.1257 -0.2245
 9290TIP3    H127834   4.431   4.093   0.118 -0.8846  1.0105 -0.5644
 9290TIP3    H227835   4.496   4.196   0.028  1.6884 -0.1589 -0.1153
 9291TIP3   OH227836   5.424   3.086   0.562 -0.3872 -0.3193  0.0751
 9291TIP3    H127837   5.440   3.085   0.656 -0.5313  0.4167  0.1153
 9291TIP3    H227838   5.418   2.994   0.537 -1.4539 -0.5133  0.9751
 9292TIP3   OH227839   6.686   1.602   0.796 -0.0285 -0.2503  0.0613
 9292TIP3    H127840   6.620   1.559   0.741 -0.2131 -1.6085  1.3008
 9292TIP3    H227841   6.641   1.677   0.833 -0.3241 -0.1275 -0.5356
 9293TIP3   OH227842   6.773   2.113   5.771 -0.1204 -0.5851  0.3119
 9293TIP3    H127843   6.838   2.070   5.827  1.3147  0.0807 -0.7987
 9293TIP3    H227844   6.803   2.203   5.764 -1.6556 -0.0418  0.4679
 9294TIP3   OH227845   1.298   3.092   3.947  0.5179  0.3007 -0.2019
 9294TIP3    H127846   1.276   3.059   4.035 -1.3131  0.5015 -0.5397
 9294TIP3    H227847   1.287   3.016   3.890 -0.7064  0.7258 -0.5636
 9295TIP3   OH227848   6.230   3.331   3.428  0.4914 -0.1752  0.3787
 9295TIP3    H127849   6.315   3.355   3.464  1.0736 -2.4546  0.7071
 9295TIP3    H227850   6.241   3.240   3.399 -1.8218 -0.5303  0.4181
 9296TIP3   OH227851   2.593   6.050   3.291  0.2131 -0.4974 -0.1896
 9296TIP3    H127852   2.572   5.995   3.215  2.0695  0.4874 -1.4760
 9296TIP3    H227853   2.676   6.015   3.323  0.4331  0.3583  0.1784
 9297TIP3   OH227854   6.726   2.723   4.815  0.2653 -0.2288  0.0323
 9297TIP3    H127855   6.788   2.764   4.755  0.3368 -3.6534 -2.5338
 9297TIP3    H227856   6.640   2.751   4.782  0.3494  0.3305  0.2781
 9298TIP3   OH227857   2.182   3.968   3.246 -0.0230  0.4136  0.2829
 9298TIP3    H127858   2.111   3.908   3.269  1.0937 -1.7746 -1.6313
 9298TIP3    H227859   2.225   3.988   3.329 -0.5665 -1.2690  0.9975
 9299TIP3   OH227860   3.276   3.651   3.446  0.0339  0.1756  1.0592
 9299TIP3    H127861   3.337   3.630   3.516 -1.2601 -1.4104  1.7693
 9299TIP3    H227862   3.310   3.731   3.407  0.0106  1.9786  4.4284
 9300TIP3   OH227863   1.457   0.831   1.399 -0.4357 -0.1324 -0.2295
 9300TIP3    H127864   1.452   0.866   1.311  1.2881 -0.7593 -0.6074
 9300TIP3    H227865   1.424   0.901   1.455 -1.3027  0.3629 -1.3318
 9301TIP3   OH227866   2.273   2.116   4.855  0.1521  0.2666  0.6232
 9301TIP3    H127867   2.214   2.065   4.800  0.8560 -0.8267  0.8596
 9301TIP3    H227868   2.229   2.200   4.865 -0.2756  0.2845 -1.0950
 9302TIP3   OH227869   6.702   2.403   4.791 -0.2031  0.5956 -0.1314
 9302TIP3    H127870   6.731   2.493   4.806 -0.1422  0.5365  0.1012
 9302TIP3    H227871   6.624   2.392   4.845  0.9955 -0.1550  1.5259
 9303TIP3   OH227872   3.897   0.480   3.032 -0.1499  0.4252 -0.1211
 9303TIP3    H127873   3.853   0.561   3.007 -2.7820 -1.1456 -1.0370
 9303TIP3    H227874   3.829   0.413   3.024  2.0148 -1.9531  0.2027
 9304TIP3   OH227875   0.336   1.313   5.277  0.3269 -0.1455 -0.0703
 9304TIP3    H127876   0.318   1.322   5.370  0.1252  0.3998 -0.1564
 9304TIP3    H227877   0.431   1.319   5.270  0.4997 -1.9479  0.2749
 9305TIP3   OH227878   4.378   2.458   3.673  0.2641  0.0562 -0.4031
 9305TIP3    H127879   4.466   2.433   3.643 -0.4683  0.7196 -3.4469
 9305TIP3    H227880   4.376   2.553   3.665 -0.8231  0.0250 -0.6644
 9306TIP3   OH227881   2.673   0.559   2.825 -0.2467  0.1096 -0.3317
 9306TIP3    H127882   2.740   0.495   2.848  0.9342  0.5452 -2.3905
 9306TIP3    H227883   2.602   0.506   2.789 -0.1250 -0.1843 -0.1531
 9307TIP3   OH227884   2.346   4.804   0.081  0.3616  0.2123 -0.1858
 9307TIP3    H127885   2.395   4.825   0.160 -0.6362 -0.6733  0.7006
 9307TIP3    H227886   2.405   4.826   0.009  1.6440  0.1532  0.8180
 9308TIP3   OH227887   0.172   2.145   5.476  0.8609  0.3865  0.2642
 9308TIP3    H127888   0.199   2.228   5.437 -0.2925  1.5670  1.8439
 9308TIP3    H227889   0.077   2.141   5.462  0.8242 -0.4282  0.6328
 9309TIP3   OH227890   0.576   3.078   4.711  0.5792  0.3943  0.2225
 9309TIP3    H127891   0.514   3.071   4.638 -0.0923 -0.4072  0.8363
 9309TIP3    H227892   0.639   3.008   4.695  0.3683  0.1463  0.4504
 9310TIP3   OH227893   3.318   2.120   0.726  0.3981  0.1211  0.2480
 9310TIP3    H127894   3.233   2.158   0.748  0.5070  0.2766  0.4027
 9310TIP3    H227895   3.336   2.151   0.637 -0.2809 -0.9292 -0.2804
 9311TIP3   OH227896   4.549   1.581   5.782 -0.2926  0.1766 -0.5476
 9311TIP3    H127897   4.524   1.671   5.803 -1.2372 -0.2677  0.3267
 9311TIP3    H227898   4.644   1.583   5.781 -0.2053  0.7054  1.8652
 9312TIP3   OH227899   5.122   2.975   2.832  0.3510  0.3849 -0.0397
 9312TIP3    H127900   5.046   2.951   2.779  0.4724  0.1084 -0.0892
 9312TIP3    H227901   5.102   2.939   2.919  0.4925  0.1805 -0.0910
 9313TIP3   OH227902   4.928   2.762   0.370 -0.0693  0.2562  0.5684
 9313TIP3    H127903   4.952   2.695   0.306  1.7307  1.4649 -0.0913
 9313TIP3    H227904   4.875   2.825   0.320  1.7372  1.4526  0.0638
 9314TIP3   OH227905   7.096   6.637   3.622 -0.0274  0.2359  0.2735
 9314TIP3    H127906   7.122   6.652   3.532 -1.4210  2.0245  0.1002
 9314TIP3    H227907   7.090   6.542   3.630  2.5544 -0.0949 -0.7315
 9315TIP3   OH227908   0.014   6.601   0.284  0.7250 -0.3315  0.0666
 9315TIP3    H127909   0.086   6.550   0.247  1.7094  0.8911  0.2554
 9315TIP3    H227910  -0.009   6.663   0.215  1.9079  1.3073  1.0838
 9316TIP3   OH227911   5.210   4.901   1.888  0.3734  0.4459 -0.0897
 9316TIP3    H127912   5.262   4.946   1.822 -1.0445  1.7725 -0.3478
 9316TIP3    H227913   5.188   4.968   1.952 -0.8780 -0.0950  0.0880
 9317TIP3   OH227914   0.965   3.788   4.224  0.4618 -0.2841  0.2381
 9317TIP3    H127915   0.968   3.692   4.224  0.1423 -0.3392  2.3334
 9317TIP3    H227916   1.057   3.815   4.214  0.4530 -0.7671 -1.3191
 9318TIP3   OH227917   1.838   2.704   2.326 -0.3477 -0.1769 -0.4069
 9318TIP3    H127918   1.884   2.785   2.348 -2.7212  1.2453 -0.3813
 9318TIP3    H227919   1.813   2.667   2.410 -0.5497 -0.1322 -0.4460
 9319TIP3   OH227920   5.992   0.569   4.030  0.4266  0.8283  0.0469
 9319TIP3    H127921   6.080   0.591   4.000  0.9488 -2.3785 -1.1448
 9319TIP3    H227922   5.937   0.579   3.953  0.3077  0.1019  0.0283
 9320TIP3   OH227923   3.932   6.766   4.247 -0.4265 -0.6332 -0.1028
 9320TIP3    H127924   4.017   6.729   4.272  0.2579  1.2646  0.5610
 9320TIP3    H227925   3.915   6.833   4.314 -1.0745  0.9781 -1.8085
 9321TIP3   OH227926   6.587   1.106   4.883  0.2729 -0.6760  0.0496
 9321TIP3    H127927   6.541   1.185   4.855 -0.9517 -1.5284 -0.4472
 9321TIP3    H227928   6.564   1.096   4.975  0.5302 -0.3899  0.1461
 9322TIP3   OH227929   1.323   0.353   5.477  0.5803  0.6219 -0.0460
 9322TIP3    H127930   1.246   0.346   5.534  1.3370  0.0040  0.9086
 9322TIP3    H227931   1.376   0.422   5.517  2.2188 -1.3464  1.3719
 9323TIP3   OH227932   6.487   2.247   5.785 -0.3790 -0.2878  0.4377
 9323TIP3    H127933   6.578   2.252   5.758  0.0706 -0.4668  1.8039
 9323TIP3    H227934   6.454   2.166   5.746  0.3382 -0.7213  0.7222
 9324TIP3   OH227935   4.825   3.029   2.049  0.0327 -0.5932 -0.4348
 9324TIP3    H127936   4.818   3.076   1.966  3.9275 -2.5627 -2.1426
 9324TIP3    H227937   4.892   3.076   2.098 -0.5576 -0.8022  0.6157
 9325TIP3   OH227938   1.649   6.557   5.289  0.1757  0.2797  0.1725
 9325TIP3    H127939   1.556   6.564   5.310  0.4361 -2.3673  2.9222
 9325TIP3    H227940   1.665   6.629   5.228 -3.7287  0.5214 -0.8411
 9326TIP3   OH227941   6.560   0.165   3.379  0.1371  0.0259  0.2580
 9326TIP3    H127942   6.550   0.252   3.339  0.5658 -0.0795 -0.0894
 9326TIP3    H227943   6.546   0.104   3.307 -1.6366 -0.2545  0.7947
 9327TIP3   OH227944   1.226   5.059   4.124  0.5595  0.3695  0.1885
 9327TIP3    H127945   1.167   4.986   4.111 -0.1119  0.5959  1.8169
 9327TIP3    H227946   1.189   5.129   4.070 -0.4317  0.3765  0.8502
 9328TIP3   OH227947   0.409   2.103   5.022  0.2068 -0.3406 -0.3263
 9328TIP3    H127948   0.420   2.142   5.109  1.2637 -0.8937 -0.1964
 9328TIP3    H227949   0.375   2.015   5.040 -0.1687 -0.2326 -0.5057
 9329TIP3   OH227950   5.780   3.796   3.681 -0.7836 -0.8339 -0.2199
 9329TIP3    H127951   5.842   3.869   3.693  0.6992 -2.0894  0.0544
 9329TIP3    H227952   5.708   3.834   3.630 -0.1135  0.8429  0.0064
 9330TIP3   OH227953   4.527   3.740   3.314  0.1473 -0.4157 -0.0242
 9330TIP3    H127954   4.507   3.659   3.267 -0.3603  0.5580 -1.5682
 9330TIP3    H227955   4.444   3.765   3.357  0.3248 -0.7467  0.5174
 9331TIP3   OH227956   2.744   2.743   5.125 -0.4291 -0.5735  0.0692
 9331TIP3    H127957   2.704   2.730   5.211 -0.5951 -1.1721 -0.0990
 9331TIP3    H227958   2.776   2.657   5.099  0.7986 -0.1407  0.1036
 9332TIP3   OH227959   5.955   4.836   0.986  0.0645  0.0061  0.2608
 9332TIP3    H127960   5.914   4.915   0.953 -2.2518 -0.7150  1.2286
 9332TIP3    H227961   5.965   4.851   1.080 -2.7206 -1.6635  0.9507
 9333TIP3   OH227962   0.470   1.558   2.004  0.0397  0.0147  0.1906
 9333TIP3    H127963   0.411   1.494   2.044 -0.4741  0.1578 -0.3283
 9333TIP3    H227964   0.493   1.519   1.919 -1.4038  1.1401 -0.7569
 9334TIP3   OH227965   2.440   3.820   0.652 -0.1824 -0.2534 -0.2575
 9334TIP3    H127966   2.498   3.819   0.577  0.8655  0.4298  0.5256
 9334TIP3    H227967   2.398   3.734   0.651  2.5372 -1.6886  0.4276
 9335TIP3   OH227968   2.867   0.568   2.037  0.4049 -0.0825 -0.2370
 9335TIP3    H127969   2.953   0.527   2.051 -0.6230 -2.4247 -0.3617
 9335TIP3    H227970   2.809   0.522   2.097 -0.9005  1.0369 -0.6099
 9336TIP3   OH227971   0.643   2.211   3.350 -0.2228 -0.0480  0.3335
 9336TIP3    H127972   0.630   2.117   3.345 -0.0704 -0.1642  1.8227
 9336TIP3    H227973   0.736   2.224   3.329  0.1060 -0.3786  1.5461
 9337TIP3   OH227974   4.226   2.462   3.130 -0.5397  0.7205  0.0430
 9337TIP3    H127975   4.310   2.451   3.175  0.3542 -1.3966 -1.9646
 9337TIP3    H227976   4.164   2.411   3.182 -0.1386  0.5785  0.3928
 9338TIP3   OH227977   2.298   2.768   5.825 -0.5671 -0.5277  0.0624
 9338TIP3    H127978   2.235   2.801   5.761 -1.5279 -1.9236  0.2436
 9338TIP3    H227979   2.246   2.716   5.886  0.5753 -0.6068  1.0060
 9339TIP3   OH227980   2.572   6.335   3.309  0.1872 -0.3907 -0.1160
 9339TIP3    H127981   2.633   6.376   3.248  2.0931 -0.6166  1.5302
 9339TIP3    H227982   2.576   6.242   3.287  1.3384 -0.5492  0.7113
 9340TIP3   OH227983   6.977   5.357   3.035  0.0400 -0.5460  0.7745
 9340TIP3    H127984   7.062   5.313   3.032  0.8370  0.9236 -2.1145
 9340TIP3    H227985   6.920   5.301   2.982  0.3951  0.4607 -0.7699
 9341TIP3   OH227986   1.178   5.894   1.947  0.1562  0.4184 -0.2834
 9341TIP3    H127987   1.125   5.818   1.974 -1.0121  1.6041  0.9797
 9341TIP3    H227988   1.268   5.870   1.968  0.2984 -1.8418 -2.8964
 9342TIP3   OH227989   1.216   5.784   2.757 -0.5684 -0.0100 -0.6197
 9342TIP3    H127990   1.130   5.753   2.787 -0.6184  2.0044  1.5811
 9342TIP3    H227991   1.279   5.724   2.797 -0.8750 -1.2739 -1.9443
 9343TIP3   OH227992   4.518   3.906   0.978  0.5771 -0.5981  0.3572
 9343TIP3    H127993   4.607   3.907   0.941  0.1014 -0.2185 -0.8136
 9343TIP3    H227994   4.524   3.962   1.055  1.1316  0.2399 -0.2792
 9344TIP3   OH227995   0.140   1.927   2.969 -0.4937 -0.0685 -0.3482
 9344TIP3    H127996   0.119   1.850   2.917  2.1861 -0.3043 -1.2480
 9344TIP3    H227997   0.131   1.898   3.060 -0.2436 -1.2390 -0.6755
 9345TIP3   OH227998   6.987   6.008   0.179  0.3580 -0.0598  0.3059
 9345TIP3    H127999   6.980   5.917   0.208  0.2915  0.1836  1.0987
 9345TIP3    H228000   6.956   6.059   0.254  2.4646  0.7046  0.7186
 9346TIP3   OH228001   1.721   1.226   4.392 -0.3908 -0.0033  0.1513
 9346TIP3    H128002   1.702   1.277   4.471 -0.7379 -1.3053  0.9315
 9346TIP3    H228003   1.659   1.260   4.327 -0.6469  0.5467  0.6711
 9347TIP3   OH228004   5.356   1.341   4.687  0.6673 -0.7752 -0.0513
 9347TIP3    H128005   5.431   1.290   4.719  1.0716  0.9051  1.8358
 9347TIP3    H228006   5.290   1.334   4.755  0.2644  0.2260 -0.3227
 9348TIP3   OH228007   2.650   3.679   1.798  0.8589 -0.1286 -0.0605
 9348TIP3    H128008   2.639   3.678   1.893  0.6190  0.1301 -0.0847
 9348TIP3    H228009   2.703   3.756   1.780 -1.3886  1.4174 -0.3657
 9349TIP3   OH228010   4.526   3.304   0.973  0.9039 -0.1103  0.6847
 9349TIP3    H128011   4.516   3.324   1.066  3.2708  1.8715  0.6331
 9349TIP3    H228012   4.597   3.362   0.944  0.2998 -0.7216 -2.3448
 9350TIP3   OH228013   6.509   0.966   0.663 -0.5105 -0.2346  0.1435
 9350TIP3    H128014   6.508   0.874   0.636  2.4358  0.3563 -2.5475
 9350TIP3    H228015   6.419   0.996   0.649 -1.0262 -2.1591 -1.0783
 9351TIP3   OH228016   2.979   4.073   4.047  0.4282 -0.4512  0.0046
 9351TIP3    H128017   3.060   4.044   4.089  0.6227 -0.9072 -0.6799
 9351TIP3    H228018   3.006   4.108   3.962  0.5057  3.8206  1.5610
 9352TIP3   OH228019   3.410   1.799   5.165 -0.5933 -0.6452  0.1093
 9352TIP3    H128020   3.436   1.791   5.074 -1.1641 -0.1220 -0.1029
 9352TIP3    H228021   3.332   1.745   5.173  0.6616 -2.4549  0.8165
 9353TIP3   OH228022   0.694   2.258   2.757 -0.1120  0.8236 -0.4008
 9353TIP3    H128023   0.685   2.197   2.684  1.7830  1.5098 -1.3012
 9353TIP3    H228024   0.730   2.337   2.716 -0.2657  1.6877  1.0882
 9354TIP3   OH228025   6.003   4.990   1.423 -0.1981  0.3762 -0.0819
 9354TIP3    H128026   6.054   5.053   1.473 -1.0343  0.4709  0.6849
 9354TIP3    H228027   5.915   5.026   1.421 -0.2899  0.1308 -1.2372
 9355TIP3   OH228028   1.519   1.345   5.323  0.0714  0.4775 -0.5970
 9355TIP3    H128029   1.585   1.334   5.256 -0.6632 -0.0539 -1.2508
 9355TIP3    H228030   1.440   1.307   5.286  0.0828 -1.5701  1.2924
 9356TIP3   OH228031   0.904   1.626   4.236  0.1546 -0.1062 -0.1265
 9356TIP3    H128032   0.946   1.577   4.307 -1.4236  1.0897  1.7318
 9356TIP3    H228033   0.975   1.646   4.175  1.1650 -3.1197 -0.1008
 9357TIP3   OH228034   4.366   3.253   3.612  0.0824 -1.3340  0.1662
 9357TIP3    H128035   4.453   3.278   3.579  0.0291 -2.2570 -0.7438
 9357TIP3    H228036   4.326   3.205   3.540 -1.8469  0.4182 -0.0301
 9358TIP3   OH228037   4.354   3.092   0.953 -0.7249 -0.1853 -0.3032
 9358TIP3    H128038   4.411   3.015   0.959 -0.0097  0.1380 -2.2051
 9358TIP3    H228039   4.412   3.166   0.972 -0.7446  0.0618 -1.1406
 9359TIP3   OH228040   0.739   3.077   0.192  0.2025 -0.7753 -0.2103
 9359TIP3    H128041   0.736   3.082   0.097 -1.2333 -3.4326 -0.4037
 9359TIP3    H228042   0.693   3.155   0.222 -0.8259 -0.7382 -1.7546
 9360TIP3   OH228043   5.483   2.336   5.249 -0.4258  0.2368  0.5005
 9360TIP3    H128044   5.572   2.314   5.221 -0.4171  0.1353  0.6093
 9360TIP3    H228045   5.437   2.359   5.168 -0.3943 -0.0380  0.4036
 9361TIP3   OH228046   2.964   0.691   3.539  0.4712 -0.2730  0.4069
 9361TIP3    H128047   2.981   0.757   3.606  1.0319  0.3772 -0.3562
 9361TIP3    H228048   2.956   0.609   3.588 -1.9197  0.5367  1.5748
 9362TIP3   OH228049   4.620   5.548   2.795 -0.4096 -0.3417 -0.6337
 9362TIP3    H128050   4.553   5.480   2.792  0.3957 -1.2193  0.6417
 9362TIP3    H228051   4.701   5.503   2.771  0.4252 -0.2461  1.8094
 9363TIP3   OH228052   6.122   5.676   0.911  0.2311  0.0020 -0.0471
 9363TIP3    H128053   6.137   5.710   0.999  0.1189 -1.2528  0.4889
 9363TIP3    H228054   6.052   5.730   0.875  0.2878  0.5330  0.6368
 9364TIP3   OH228055   4.173   0.331   4.793 -0.0209 -0.1187 -0.5391
 9364TIP3    H128056   4.092   0.355   4.838  0.5680 -0.3349  0.6900
 9364TIP3    H228057   4.242   0.357   4.854  0.8869  0.7677 -1.8983
 9365TIP3   OH228058   0.715   2.124   5.221  0.3387  0.0779  0.3833
 9365TIP3    H128059   0.628   2.142   5.257  0.6310 -0.3157  1.3129
 9365TIP3    H228060   0.709   2.150   5.129 -0.4469  1.0568  0.6924
 9366TIP3   OH228061   4.609   5.346   2.489  0.4732 -0.5462  0.4052
 9366TIP3    H128062   4.587   5.347   2.396  2.8708 -1.0838 -0.2292
 9366TIP3    H228063   4.685   5.288   2.496  0.8248  0.0710  2.5879
 9367TIP3   OH228064   0.980   6.720   4.483  0.3890  0.3244  0.0211
 9367TIP3    H128065   1.071   6.710   4.454  0.9424  1.2403  1.3178
 9367TIP3    H228066   0.940   6.634   4.469  2.4351 -1.2052  2.6174
 9368TIP3   OH228067   6.276   2.767   4.083 -0.2666  0.2856 -0.2891
 9368TIP3    H128068   6.273   2.739   3.992  2.0221 -0.0369 -0.3164
 9368TIP3    H228069   6.225   2.848   4.085 -0.1471  0.4257 -1.9017
 9369TIP3   OH228070   1.193   2.501   4.302  0.2931  0.5207  0.6386
 9369TIP3    H128071   1.217   2.412   4.327  0.5754 -0.1448 -1.7497
 9369TIP3    H228072   1.261   2.556   4.340 -0.1324 -0.1891  2.5325
 9370TIP3   OH228073   3.213   3.724   4.580  0.2482  0.1048 -0.3915
 9370TIP3    H128074   3.195   3.810   4.617  0.6798 -0.3888  1.0164
 9370TIP3    H228075   3.267   3.680   4.646  2.0598 -0.4009 -2.1355
 9371TIP3   OH228076   0.956   4.952   5.091  0.2570 -0.4794 -0.3986
 9371TIP3    H128077   0.995   4.991   5.169 -0.2113 -0.7632 -0.0202
 9371TIP3    H228078   0.984   4.860   5.094  0.6243 -0.3836 -0.8156
 9372TIP3   OH228079   6.714   1.286   1.364  0.5614  0.0274  0.2294
 9372TIP3    H128080   6.722   1.287   1.269  0.7709  0.6050  0.2490
 9372TIP3    H228081   6.646   1.221   1.382  0.0445  0.3968 -0.3540
 9373TIP3   OH228082   6.716   3.026   3.454 -0.4610 -0.0424 -0.1737
 9373TIP3    H128083   6.734   2.991   3.542  0.5101 -0.8081 -0.6545
 9373TIP3    H228084   6.692   2.949   3.402 -0.7758  0.3694 -0.6443
 9374TIP3   OH228085   4.617   0.537   5.381 -0.5935  0.2149  0.2216
 9374TIP3    H128086   4.693   0.562   5.433 -0.5369  0.8155 -0.1357
 9374TIP3    H228087   4.584   0.620   5.345 -1.6197  0.0078  0.6498
 9375TIP3   OH228088   6.975   1.036   1.038 -0.0455  0.8920 -0.0454
 9375TIP3    H128089   6.936   1.120   1.065 -1.1633 -0.0495  1.4453
 9375TIP3    H228090   6.916   1.003   0.971 -0.1013  0.8828  0.0083
 9376TIP3   OH228091   2.664   1.372   4.844  0.1324  0.3406  0.9967
 9376TIP3    H128092   2.632   1.452   4.801  1.0155  1.1213  1.7315
 9376TIP3    H228093   2.628   1.376   4.932 -1.5374 -1.1752  0.4410
 9377TIP3   OH228094   3.613   2.150   5.528 -0.5279 -0.8004 -0.0027
 9377TIP3    H128095   3.643   2.110   5.446  1.2384 -1.5963  0.9845
 9377TIP3    H228096   3.656   2.235   5.530  0.3248 -1.2351  0.5998
 9378TIP3   OH228097   0.735   2.194   3.656 -0.1167  0.1361 -0.6169
 9378TIP3    H128098   0.660   2.135   3.651 -2.6842  3.0052  0.6290
 9378TIP3    H228099   0.763   2.205   3.565 -2.1355  0.0028 -1.3147
 9379TIP3   OH228100   4.799   3.542   5.081 -0.2237  0.4909  0.4333
 9379TIP3    H128101   4.764   3.462   5.041 -0.5811  0.9843 -0.2794
 9379TIP3    H228102   4.876   3.513   5.130 -1.5156 -0.6145  1.9328
 9380TIP3   OH228103   0.007   4.690   0.857 -0.1465 -0.1887 -0.0902
 9380TIP3    H128104   0.044   4.725   0.938  1.0653  1.3589 -1.2362
 9380TIP3    H228105   0.081   4.648   0.813 -0.2732  0.8344 -1.3341
 9381TIP3   OH228106   2.654   6.204   4.236  0.7046 -0.1211  0.0767
 9381TIP3    H128107   2.660   6.211   4.331 -0.1583 -1.3553  0.2467
 9381TIP3    H228108   2.611   6.120   4.221  2.1322 -0.6142 -1.4518
 9382TIP3   OH228109   1.286   5.230   2.498 -0.3277  0.4810 -0.0537
 9382TIP3    H128110   1.248   5.143   2.509  0.6697  0.2831  2.4829
 9382TIP3    H228111   1.325   5.251   2.583 -1.2263  3.7795 -0.3105
 9383TIP3   OH228112   2.112   5.038   4.782  0.3251  0.2142 -0.0754
 9383TIP3    H128113   2.177   4.969   4.793  1.7060  1.5920  0.7486
 9383TIP3    H228114   2.031   5.001   4.818  1.4602 -0.3775  2.0509
 9384TIP3   OH228115   0.920   6.498   2.972 -0.4031  0.0943  0.6165
 9384TIP3    H128116   0.855   6.436   2.939  0.1794 -0.2822  0.1551
 9384TIP3    H228117   0.937   6.556   2.897  0.3093 -0.2475  0.5084
 9385TIP3   OH228118   5.928   0.749   3.586 -0.1072  0.5795  0.2505
 9385TIP3    H128119   5.902   0.778   3.674  1.5032  2.6115  0.1255
 9385TIP3    H228120   5.917   0.827   3.531  1.5620  0.1556 -0.7572
 9386TIP3   OH228121   4.329   5.914   4.783  0.0239  0.1887  0.3442
 9386TIP3    H128122   4.260   5.850   4.799  1.9263 -1.7862  1.2187
 9386TIP3    H228123   4.364   5.891   4.696 -1.7017  2.5287 -1.0752
 9387TIP3   OH228124   0.790   1.450   5.691 -0.4855  0.0359  0.0450
 9387TIP3    H128125   0.883   1.474   5.687 -0.1111 -1.4369 -1.0766
 9387TIP3    H228126   0.745   1.525   5.653  0.3169  0.4516 -0.1209
 9388TIP3   OH228127   6.903   3.558   3.223  0.1843 -0.1027  0.3041
 9388TIP3    H128128   6.991   3.537   3.255  0.7609  1.9785  0.2353
 9388TIP3    H228129   6.863   3.608   3.294  1.0361  3.5114 -1.5195
 9389TIP3   OH228130   6.390   3.359   1.513 -0.0972 -0.0584 -0.3098
 9389TIP3    H128131   6.298   3.380   1.499  0.6468  2.6653 -1.9385
 9389TIP3    H228132   6.425   3.432   1.564  1.2544 -0.8483 -0.0316
 9390TIP3   OH228133   3.969   6.575   5.463 -0.0045 -0.3975  0.4549
 9390TIP3    H128134   4.031   6.516   5.421  0.5385  0.6640 -0.2551
 9390TIP3    H228135   3.999   6.581   5.554  0.3981 -0.5702  0.3322
 9391TIP3   OH228136   2.414   6.182   2.263  1.0046 -0.2365  0.0018
 9391TIP3    H128137   2.353   6.233   2.315  1.4020  0.7428 -0.4683
 9391TIP3    H228138   2.474   6.246   2.226  0.9553 -0.9348 -1.3726
 9392TIP3   OH228139   1.349   4.537   0.491  0.1208 -0.1096 -0.5442
 9392TIP3    H128140   1.382   4.457   0.532 -0.8556  1.0583  2.9230
 9392TIP3    H228141   1.427   4.584   0.463  0.9949 -0.5703  0.9956
 9393TIP3   OH228142   4.184   4.569   2.136  0.0073  0.2477 -0.0002
 9393TIP3    H128143   4.217   4.648   2.178 -0.7563  1.0076 -0.7990
 9393TIP3    H228144   4.262   4.515   2.121  0.4510  0.5425  1.1510
 9394TIP3   OH228145   3.703   1.216   0.062 -0.1968 -0.4299  0.0115
 9394TIP3    H128146   3.712   1.228   0.156 -1.1734 -0.3201  0.0955
 9394TIP3    H228147   3.786   1.247   0.026  0.8181 -1.9231  0.9447
 9395TIP3   OH228148   2.094   3.797   5.052 -0.0680  0.1942 -0.0264
 9395TIP3    H128149   2.112   3.817   5.144  2.2950  0.0446 -0.3751
 9395TIP3    H228150   2.042   3.871   5.020  0.7401  1.2128  0.9649
 9396TIP3   OH228151   1.005   5.237   2.950  0.6472  0.0025 -0.4605
 9396TIP3    H128152   1.066   5.310   2.957  1.7489 -0.8377 -1.0307
 9396TIP3    H228153   0.955   5.255   2.870 -1.2581  1.6898  1.0284
 9397TIP3   OH228154   5.417   3.873   0.209 -0.8155  0.4811 -0.3268
 9397TIP3    H128155   5.513   3.878   0.212 -0.7605 -0.3343  2.1322
 9397TIP3    H228156   5.398   3.788   0.169 -0.5171  0.7386 -1.0172
 9398TIP3   OH228157   1.500   3.126   1.822  0.3020 -0.1884  0.1764
 9398TIP3    H128158   1.436   3.130   1.893  0.2273 -1.6302  0.2123
 9398TIP3    H228159   1.504   3.216   1.790  1.2588  0.7972  2.7885
 9399TIP3   OH228160   6.109  -0.015   0.328  0.1007  0.3199 -1.0987
 9399TIP3    H128161   6.187   0.009   0.377  0.4358 -0.9151 -0.9996
 9399TIP3    H228162   6.036   0.015   0.382  0.4084 -2.0662  0.8246
 9400TIP3   OH228163   3.048   3.371   4.991  0.5041  0.0974  0.5086
 9400TIP3    H128164   3.119   3.338   5.045 -0.3905  0.1731  1.7878
 9400TIP3    H228165   3.033   3.460   5.022 -0.5553 -0.1267  0.7027
 9401TIP3   OH228166   0.982   2.285   3.113 -0.7455 -0.7192  0.6147
 9401TIP3    H128167   0.922   2.342   3.161 -0.4973 -0.1996  0.3188
 9401TIP3    H228168   0.968   2.308   3.021 -0.2366 -0.7394  0.5326
 9402TIP3   OH228169   5.957   5.886   1.171  0.3369  0.1459  0.6961
 9402TIP3    H128170   5.878   5.834   1.154  0.5768 -0.1302  0.4275
 9402TIP3    H228171   6.028   5.823   1.170  0.5464  0.3714  1.1016
 9403TIP3   OH228172   4.340   6.682   0.563  0.1112 -0.5306 -0.0524
 9403TIP3    H128173   4.267   6.645   0.613  0.9160 -0.2681  1.3742
 9403TIP3    H228174   4.403   6.611   0.556  0.3251 -0.3464 -0.0223
 9404TIP3   OH228175   1.900   5.097   0.155 -0.2307  0.1719  0.3945
 9404TIP3    H128176   1.988   5.061   0.164 -0.1173  0.3769  0.1061
 9404TIP3    H228177   1.850   5.029   0.111  0.1968  0.6882 -0.9249
 9405TIP3   OH228178   5.487   1.535   4.541 -0.0668  0.1805 -0.0395
 9405TIP3    H128179   5.439   1.465   4.585 -1.0227  0.7105 -0.2107
 9405TIP3    H228180   5.451   1.538   4.453  0.4611  0.4301 -0.2524
 9406TIP3   OH228181   2.774   5.701   0.264 -0.9652 -0.2008 -0.1306
 9406TIP3    H128182   2.813   5.736   0.183 -2.3170  1.1954 -0.2249
 9406TIP3    H228183   2.715   5.770   0.293 -0.8067 -0.8571  1.8544
 9407TIP3   OH228184   4.904   0.575   3.951 -0.3280  0.4529 -0.0563
 9407TIP3    H128185   4.931   0.491   3.987 -0.9089 -1.0004 -2.7183
 9407TIP3    H228186   4.811   0.564   3.931 -0.4674  1.8171 -0.2724
 9408TIP3   OH228187   5.413   1.550   5.814  0.3665  0.0967 -0.2916
 9408TIP3    H128188   5.436   1.639   5.787  0.2245 -0.3077 -1.8135
 9408TIP3    H228189   5.361   1.516   5.742  0.5968 -1.3068  0.1829
 9409TIP3   OH228190   2.919   2.249   0.632 -0.1930  0.4473  0.2961
 9409TIP3    H128191   2.849   2.233   0.568  2.0910 -0.6142 -2.1422
 9409TIP3    H228192   2.951   2.336   0.610 -0.6734  0.9171  1.3904
 9410TIP3   OH228193   4.456   1.537   1.570 -0.1732  0.3046  0.6396
 9410TIP3    H128194   4.364   1.509   1.568  0.1131 -0.6514  0.1212
 9410TIP3    H228195   4.466   1.589   1.490 -0.4503  1.0741  1.0932
 9411TIP3   OH228196   0.079   6.163   1.068 -0.4476  0.7566 -0.5562
 9411TIP3    H128197   0.061   6.254   1.090  2.2004  1.2261 -0.0805
 9411TIP3    H228198   0.090   6.162   0.973 -0.7661  0.8552 -0.5954
 9412TIP3   OH228199   5.857   3.518   2.785 -0.4540 -0.5439  0.2130
 9412TIP3    H128200   5.867   3.515   2.880 -0.0536  1.3678  0.2549
 9412TIP3    H228201   5.900   3.438   2.754  1.9332  0.1737  1.4637
 9413TIP3   OH228202   2.315   2.648   3.787 -0.0978  0.0035 -0.0809
 9413TIP3    H128203   2.394   2.615   3.830  0.5957 -0.9830 -2.0336
 9413TIP3    H228204   2.314   2.605   3.702 -3.8156 -1.5902  0.5842
 9414TIP3   OH228205   4.825   0.528   1.652  0.6371 -0.0345  0.4430
 9414TIP3    H128206   4.831   0.619   1.622  0.4696  0.1645  0.9947
 9414TIP3    H228207   4.844   0.532   1.746 -0.4326 -0.4076  0.6952
 9415TIP3   OH228208   2.035   2.200   0.796  0.3644  0.5469 -0.6390
 9415TIP3    H128209   2.104   2.263   0.818  1.7323 -0.6927 -1.2098
 9415TIP3    H228210   2.040   2.135   0.865 -0.7466  0.8129 -0.2953
 9416TIP3   OH228211   7.199   4.379   0.861  0.3580  0.1326  0.1348
 9416TIP3    H128212   7.157   4.451   0.815 -0.2589  1.0402  2.0134
 9416TIP3    H228213   7.126   4.331   0.902  0.9243 -0.2570  0.7057
 9417TIP3   OH228214   3.686   6.749   5.355 -0.4969  0.2677 -0.0702
 9417TIP3    H128215   3.739   6.782   5.428 -1.0491  1.1528 -0.0576
 9417TIP3    H228216   3.749   6.730   5.286  0.0784 -0.9381  0.7565
 9418TIP3   OH228217   2.861   2.748   1.774 -0.7543  0.0268  0.5277
 9418TIP3    H128218   2.913   2.693   1.716 -1.0473 -0.7333  0.9765
 9418TIP3    H228219   2.817   2.810   1.715  1.0062  1.0163  0.1723
 9419TIP3   OH228220   1.799   6.348   5.384 -0.2658 -0.4024  0.0523
 9419TIP3    H128221   1.760   6.432   5.358 -0.8742 -0.0544  1.9695
 9419TIP3    H228222   1.881   6.344   5.334 -0.5759  0.9719 -0.6401
 9420TIP3   OH228223   5.667   3.084   1.224  0.3417  0.0481 -0.1675
 9420TIP3    H128224   5.674   3.145   1.298  1.7962  0.8820 -0.9622
 9420TIP3    H228225   5.586   3.035   1.242  0.5835  0.3048  1.9036
 9421TIP3   OH228226   3.044   5.493   0.016 -0.1029  0.4076 -0.0130
 9421TIP3    H128227   3.126   5.541  -0.001 -0.5667  1.7591  1.3051
 9421TIP3    H228228   3.071   5.421   0.073  0.2160  0.7576  0.2935
 9422TIP3   OH228229   6.746   4.180   3.878 -0.1197  0.1518  0.2036
 9422TIP3    H128230   6.728   4.274   3.889  1.0776  0.3409  0.6873
 9422TIP3    H228231   6.660   4.141   3.862 -0.6371  1.3283  0.0124
 9423TIP3   OH228232   2.010   1.241   3.192  0.4807 -0.2034 -0.6360
 9423TIP3    H128233   2.051   1.258   3.107 -0.1477  0.3620 -0.8378
 9423TIP3    H228234   2.066   1.287   3.254  1.5515 -1.4974 -0.5923
 9424TIP3   OH228235   6.423   6.386   0.679  0.8155 -0.6470  0.2983
 9424TIP3    H128236   6.475   6.372   0.759  2.3318  0.2813 -0.4833
 9424TIP3    H228237   6.396   6.478   0.684  0.2627 -0.7972  0.1100
 9425TIP3   OH228238   6.122   5.209   2.176 -0.4894  0.0166  0.0771
 9425TIP3    H128239   6.091   5.164   2.254  0.1267  1.0613  0.9486
 9425TIP3    H228240   6.209   5.172   2.161 -0.5096 -0.0085  0.0207
 9426TIP3   OH228241   5.401   0.224   5.586  0.4554  0.2190 -0.1057
 9426TIP3    H128242   5.460   0.285   5.630 -0.9987  1.2660  0.4958
 9426TIP3    H228243   5.425   0.229   5.494  0.3228  1.8258 -0.0938
 9427TIP3   OH228244   6.493   0.358   3.870 -0.3844  0.3037  0.3130
 9427TIP3    H128245   6.429   0.392   3.809 -0.8548 -0.3380  0.4377
 9427TIP3    H228246   6.442   0.335   3.948  0.0008 -0.1787  0.4275
 9428TIP3   OH228247   2.959   3.198   5.656 -0.1069  0.1458 -0.3693
 9428TIP3    H128248   2.884   3.140   5.674  1.0726 -0.7010  2.3669
 9428TIP3    H228249   3.012   3.149   5.592 -0.7176 -0.3350 -0.5161
 9429TIP3   OH228250   3.753   4.738   5.123 -0.2003  0.1267 -0.1475
 9429TIP3    H128251   3.758   4.811   5.184 -3.1259  2.2937 -2.2294
 9429TIP3    H228252   3.687   4.679   5.162  0.9205 -0.6043  0.6992
 9430TIP3   OH228253   5.857   3.250   4.074 -0.2640  0.5305  0.1713
 9430TIP3    H128254   5.827   3.309   4.004 -0.3315 -1.5119 -1.6103
 9430TIP3    H228255   5.919   3.192   4.032 -0.1274 -0.6446  1.8805
 9431TIP3   OH228256   6.008   2.471   2.783 -0.5187  0.1542  0.4652
 9431TIP3    H128257   5.978   2.494   2.695 -1.6825 -2.0079  0.2243
 9431TIP3    H228258   6.071   2.400   2.769 -0.0227  0.4054  1.3497
 9432TIP3   OH228259   3.354   5.804   5.352  0.0362  0.5021  0.4768
 9432TIP3    H128260   3.385   5.805   5.442  1.0510  1.8198  0.1608
 9432TIP3    H228261   3.263   5.832   5.357  0.4995  2.0302  1.0053
 9433TIP3   OH228262   1.465   2.111   3.991 -0.4119 -0.2886 -0.4134
 9433TIP3    H128263   1.416   2.192   4.001 -1.9342 -0.7958 -2.9638
 9433TIP3    H228264   1.403   2.042   4.015  0.4265 -0.7967  0.3876
 9434TIP3   OH228265   6.758   4.764   3.936  0.1850 -0.1970 -0.5317
 9434TIP3    H128266   6.765   4.757   4.031  2.5756  2.1634 -0.4515
 9434TIP3    H228267   6.847   4.776   3.905 -0.8480  4.3492 -2.5186
 9435TIP3   OH228268   4.305   3.035   0.091  0.2687 -0.0723  0.0161
 9435TIP3    H128269   4.243   3.076   0.152 -1.0169 -0.0579 -1.2457
 9435TIP3    H228270   4.256   2.963   0.051  1.1687 -0.2567 -0.7949
 9436TIP3   OH228271   5.939   4.778   2.643  0.1376  0.3159  0.3039
 9436TIP3    H128272   6.011   4.726   2.607 -0.3515 -0.5817  0.5991
 9436TIP3    H228273   5.882   4.714   2.686 -0.6304  1.0621  0.4216
 9437TIP3   OH228274   1.750   2.210   4.439  0.0032 -0.1043  0.5263
 9437TIP3    H128275   1.753   2.301   4.470  1.2072 -0.3111  1.0929
 9437TIP3    H228276   1.839   2.193   4.408 -0.4787 -0.7733 -0.5505
 9438TIP3   OH228277   0.342   2.454   3.744 -0.1532 -0.6768  0.3800
 9438TIP3    H128278   0.358   2.436   3.651 -1.9746  0.9672 -0.3242
 9438TIP3    H228279   0.303   2.373   3.777  1.0879 -1.4974 -0.1027
 9439TIP3   OH228280   2.008   2.038   4.766  0.1023  0.3289 -0.0020
 9439TIP3    H128281   1.936   2.042   4.703  0.2523  0.8647 -0.1439
 9439TIP3    H228282   1.979   1.974   4.831  0.0147 -0.3427 -0.6847
 9440TIP3   OH228283   0.614   5.580   3.505  0.1680  0.1381  0.1145
 9440TIP3    H128284   0.691   5.572   3.450  0.2904 -0.5676  0.3801
 9440TIP3    H228285   0.541   5.550   3.451  0.4983 -2.1547  0.8055
 9441TIP3   OH228286   1.355   1.999   0.633  0.1174 -0.1956  0.3394
 9441TIP3    H128287   1.367   2.069   0.569  0.0630  1.2799  1.8907
 9441TIP3    H228288   1.269   1.963   0.613  1.2879 -1.8624 -2.3220
 9442TIP3   OH228289   1.263   0.757   5.837  0.3834 -0.6648 -0.4432
 9442TIP3    H128290   1.317   0.796   5.768 -0.1057 -0.0728 -0.5028
 9442TIP3    H228291   1.311   0.679   5.864  1.1884 -0.2315 -0.5935
 9443TIP3   OH228292   5.853   5.375   1.930  0.1418 -0.2147  0.3417
 9443TIP3    H128293   5.885   5.313   1.996  0.6900  0.6681  0.9200
 9443TIP3    H228294   5.881   5.461   1.962 -2.6497  0.6187  0.8127
 9444TIP3   OH228295   7.123   5.417   4.845  0.5006 -0.3119  0.4157
 9444TIP3    H128296   7.159   5.362   4.776 -1.3320 -0.8571 -0.1473
 9444TIP3    H228297   7.118   5.504   4.806 -0.7713 -0.6688 -0.2730
 9445TIP3   OH228298   1.958   0.377   1.187  0.0572  0.2438  0.4579
 9445TIP3    H128299   2.023   0.367   1.256 -1.4813  0.6830  2.0396
 9445TIP3    H228300   1.901   0.448   1.217 -0.1293  1.1246 -1.7280
 9446TIP3   OH228301   5.498   1.972   4.637 -0.5352 -0.2728  0.3355
 9446TIP3    H128302   5.428   1.919   4.675 -0.1650  0.5053  2.2060
 9446TIP3    H228303   5.454   2.030   4.575 -1.3235 -0.7976  0.3949
 9447TIP3   OH228304   4.664   3.733   4.227  0.3542 -0.4356  0.4867
 9447TIP3    H128305   4.693   3.767   4.311 -0.6533  0.4126  0.5172
 9447TIP3    H228306   4.632   3.644   4.247  0.5360 -0.4085  0.9126
 9448TIP3   OH228307   1.114   0.147   0.550 -0.0643  0.8658 -0.0957
 9448TIP3    H128308   1.210   0.143   0.548 -0.0787  0.4605 -1.6563
 9448TIP3    H228309   1.093   0.239   0.564  0.5651  1.0868 -0.5721
 9449TIP3   OH228310   4.254   0.236   5.643 -0.6451 -0.0401 -0.4318
 9449TIP3    H128311   4.285   0.312   5.593 -0.4767 -0.0130 -0.2868
 9449TIP3    H228312   4.282   0.254   5.732  1.1346 -1.1946 -0.7094
 9450TIP3   OH228313   2.480   5.420   5.305  0.2727  1.1222  0.0942
 9450TIP3    H128314   2.386   5.423   5.323 -0.1385  0.4377 -1.7120
 9450TIP3    H228315   2.519   5.389   5.387 -1.0774  1.2635  0.8206
 9451TIP3   OH228316   0.199   6.119   1.734  0.2770  0.4155 -0.2535
 9451TIP3    H128317   0.174   6.164   1.815 -0.3445 -1.0294  0.3977
 9451TIP3    H228318   0.256   6.180   1.689 -2.2159  2.7486 -0.4722
 9452TIP3   OH228319   3.673   0.085   1.348  0.3245  0.0212 -0.1814
 9452TIP3    H128320   3.598   0.026   1.357 -0.9518  1.5310 -0.5725
 9452TIP3    H228321   3.715   0.082   1.434  0.4794 -1.6485 -0.2737
 9453TIP3   OH228322   4.503   1.664   5.131 -0.7559 -0.1210  0.2305
 9453TIP3    H128323   4.484   1.623   5.047  2.0335 -1.6630  0.2286
 9453TIP3    H228324   4.438   1.626   5.191 -0.1152 -2.3866 -0.4108
 9454TIP3   OH228325   5.415   4.169   1.235 -0.3547 -0.2796 -0.4333
 9454TIP3    H128326   5.418   4.098   1.299 -1.4548  0.8265  0.9239
 9454TIP3    H228327   5.484   4.229   1.262 -1.7120  0.8830  0.6574
 9455TIP3   OH228328   5.440   3.249   5.852  0.4866  0.4680 -0.0992
 9455TIP3    H128329   5.397   3.332   5.869  1.3031  0.7948  0.4459
 9455TIP3    H228330   5.368   3.187   5.837 -0.1202  1.2934 -0.6586
 9456TIP3   OH228331   5.185   5.990   0.498  0.2327  0.2234 -0.3405
 9456TIP3    H128332   5.135   6.071   0.504 -1.3423 -0.7754  4.3878
 9456TIP3    H228333   5.271   6.011   0.532 -0.1081  0.0110  0.6825
 9457TIP3   OH228334   3.857   3.524   0.520  0.0295 -0.1081 -0.0635
 9457TIP3    H128335   3.949   3.535   0.494 -0.3271  1.6951 -0.6782
 9457TIP3    H228336   3.859   3.527   0.615  0.5648  0.3764 -0.0830
 9458TIP3   OH228337   3.891   0.831   5.364  0.3599  0.1815 -0.6141
 9458TIP3    H128338   3.886   0.738   5.385  1.0494 -0.0142 -1.2634
 9458TIP3    H228339   3.985   0.851   5.368  0.2115  0.8607 -0.4296
 9459TIP3   OH228340   6.547   5.536   1.026 -0.1457 -0.6791  0.6374
 9459TIP3    H128341   6.606   5.507   0.956  0.5607  0.6373  0.6585
 9459TIP3    H228342   6.486   5.595   0.982  0.7339  0.7115  1.2121
 9460TIP3   OH228343   4.877   1.610   3.725 -0.4770  0.0282  0.4852
 9460TIP3    H128344   4.933   1.536   3.748 -1.1091 -0.8468 -0.6418
 9460TIP3    H228345   4.917   1.646   3.645 -0.9109  0.0649  0.2831
 9461TIP3   OH228346   4.426   0.826   3.831  0.3557 -0.0642  0.1711
 9461TIP3    H128347   4.482   0.799   3.903  1.0278 -0.4667 -0.4960
 9461TIP3    H228348   4.365   0.889   3.870  0.1232 -0.9626  1.2772
 9462TIP3   OH228349   6.794   5.739   3.833  0.4717  0.2716 -0.1390
 9462TIP3    H128350   6.835   5.730   3.919 -1.1052 -1.9925  0.4832
 9462TIP3    H228351   6.705   5.705   3.846 -0.2479  1.1445 -2.3757
 9463TIP3   OH228352   5.056   5.434   0.019  0.0767  0.8066 -0.1362
 9463TIP3    H128353   5.083   5.395   0.103 -1.5887  0.7967  0.4265
 9463TIP3    H228354   4.972   5.475   0.038  0.6254  2.5841 -1.3280
 9464TIP3   OH228355   1.598   3.227   5.342  0.0408  0.2631 -0.4316
 9464TIP3    H128356   1.512   3.268   5.355 -0.0497  0.3754 -1.3181
 9464TIP3    H228357   1.650   3.256   5.417 -1.0487 -0.7881  0.7811
 9465TIP3   OH228358   4.281   3.692   4.812  0.0292 -0.0545 -0.1283
 9465TIP3    H128359   4.195   3.732   4.804  0.0130 -0.1620 -0.5393
 9465TIP3    H228360   4.264   3.601   4.837  0.0867  0.3343  1.3743
 9466TIP3   OH228361   2.335   5.874   2.901  0.2737 -0.1274  0.5388
 9466TIP3    H128362   2.401   5.944   2.905  0.1278 -0.0419  1.4845
 9466TIP3    H228363   2.373   5.810   2.840  0.3699  0.8058 -0.4166
 9467TIP3   OH228364   0.383   6.365   1.320 -0.3604  0.2061 -0.2373
 9467TIP3    H128365   0.408   6.422   1.248 -0.2744 -1.5992 -1.7318
 9467TIP3    H228366   0.287   6.367   1.321 -0.3648  0.1128 -0.5145
 9468TIP3   OH228367   1.583   0.778   3.729  0.3337 -0.3472  0.0734
 9468TIP3    H128368   1.655   0.720   3.751 -2.1679 -3.1218  1.5810
 9468TIP3    H228369   1.551   0.747   3.644  1.0105  1.0408 -0.7237
 9469TIP3   OH228370   4.538   1.634   0.543  0.0436 -0.0756  0.6347
 9469TIP3    H128371   4.609   1.606   0.485  0.4739 -1.3924  1.7333
 9469TIP3    H228372   4.569   1.716   0.581 -0.1941  0.7441 -0.8500
 9470TIP3   OH228373   5.083   5.768   3.291 -0.1617  0.0366 -0.1172
 9470TIP3    H128374   5.160   5.812   3.253 -1.1248  0.9625 -1.0743
 9470TIP3    H228375   5.103   5.761   3.384  0.0590  2.5092  0.0754
 9471TIP3   OH228376   3.742   3.908   3.806 -0.4374  0.0119 -0.4189
 9471TIP3    H128377   3.826   3.862   3.799 -0.2851  0.3676 -1.0085
 9471TIP3    H228378   3.762   3.990   3.850 -0.4176  0.2394 -0.8490
 9472TIP3   OH228379   6.330   0.037   0.487 -0.1986 -0.1411 -0.0120
 9472TIP3    H128380   6.305   0.129   0.501  0.0213  0.0004 -0.5200
 9472TIP3    H228381   6.341   0.001   0.575 -0.2749  0.3251  0.1904
 9473TIP3   OH228382   0.081   6.167   0.808 -0.2062  0.0899  0.6905
 9473TIP3    H128383   0.142   6.093   0.804  0.3632  0.5278  1.1248
 9473TIP3    H228384   0.083   6.204   0.719 -0.9280 -0.7457  0.3109
 9474TIP3   OH228385   2.127   2.210   3.518  0.2225 -0.1390  0.0864
 9474TIP3    H128386   2.048   2.257   3.544  0.1627 -0.0174 -0.2998
 9474TIP3    H228387   2.153   2.161   3.596  0.3735  0.6503  0.5402
 9475TIP3   OH228388   3.458   0.604   1.950  0.3507 -0.3196  0.9501
 9475TIP3    H128389   3.503   0.562   1.877 -0.3849 -0.4870  0.5876
 9475TIP3    H228390   3.509   0.579   2.027  0.5768 -0.9253  0.6082
 9476TIP3   OH228391   6.123   1.671   0.716 -0.0270 -0.0110  0.0133
 9476TIP3    H128392   6.075   1.679   0.634  0.8388 -0.9306 -0.5894
 9476TIP3    H228393   6.150   1.580   0.720  1.1176  0.3360  0.6551
 9477TIP3   OH228394   2.847   4.939   5.407  0.5858 -0.0373 -0.3770
 9477TIP3    H128395   2.874   4.849   5.422  0.9541  0.3619  1.6133
 9477TIP3    H228396   2.783   4.957   5.476  2.4978  2.0133  1.0279
 9478TIP3   OH228397   5.422   0.051   2.791  0.5141  0.1169  0.0676
 9478TIP3    H128398   5.439   0.014   2.878  2.2909 -0.0815 -0.3218
 9478TIP3    H228399   5.356  -0.007   2.753  0.5099 -0.4291  0.8701
 9479TIP3   OH228400   1.717   3.772   2.391  0.4567 -0.0870  0.1913
 9479TIP3    H128401   1.727   3.864   2.415  1.7228 -0.1013 -0.2239
 9479TIP3    H228402   1.794   3.729   2.428 -0.4171 -1.0982  0.8866
 9480TIP3   OH228403   4.755   1.001   3.115  0.0431  0.1903  0.2553
 9480TIP3    H128404   4.850   1.004   3.102  0.0419  0.6893  0.3237
 9480TIP3    H228405   4.722   1.072   3.059 -0.2163  0.5195  0.8129
 9481TIP3   OH228406   4.436   1.251   0.826  0.1768 -0.4122  0.3146
 9481TIP3    H128407   4.484   1.198   0.762  0.3890  1.2166 -0.9488
 9481TIP3    H228408   4.486   1.243   0.907  1.2009 -0.7065 -0.3347
 9482TIP3   OH228409   1.671   2.041   4.237 -0.2058  0.4277  0.0589
 9482TIP3    H128410   1.675   2.116   4.296  1.0254  0.6469 -0.2946
 9482TIP3    H228411   1.651   2.078   4.152  0.1729  0.3223 -0.0743
 9483TIP3   OH228412   2.514   5.611   3.308 -0.0248  0.1239 -0.2479
 9483TIP3    H128413   2.474   5.555   3.375 -0.8374  1.0042  0.0327
 9483TIP3    H228414   2.485   5.573   3.225  2.1849 -1.8516 -0.1957
 9484TIP3   OH228415   3.233   1.627   2.209 -0.2469 -0.3817  0.2294
 9484TIP3    H128416   3.320   1.608   2.244  0.7242  0.2199 -1.6787
 9484TIP3    H228417   3.176   1.561   2.248  1.5014 -2.2253 -0.1507
 9485TIP3   OH228418   5.018   5.264   4.723 -0.7099  0.5100 -0.9453
 9485TIP3    H128419   4.984   5.175   4.714  0.5160 -0.1529  0.5218
 9485TIP3    H228420   4.967   5.302   4.795  1.2851 -0.3974  1.0826
 9486TIP3   OH228421   4.904   1.027   0.101  0.2250 -0.0228  0.0723
 9486TIP3    H128422   4.985   0.985   0.128  0.1351 -0.6454 -0.5912
 9486TIP3    H228423   4.929   1.086   0.031 -0.0256 -0.9985 -0.8681
 9487TIP3   OH228424   6.886   1.456   3.498 -0.3840 -0.1704  0.0653
 9487TIP3    H128425   6.869   1.495   3.584 -1.4359 -0.2744 -0.0765
 9487TIP3    H228426   6.856   1.365   3.507 -0.5566 -0.1641 -0.4219
 9488TIP3   OH228427   0.093   0.980   5.129 -0.2832  0.0976  0.1712
 9488TIP3    H128428   0.002   0.951   5.133 -0.5556  1.0182  0.8250
 9488TIP3    H228429   0.088   1.075   5.116  0.5789  0.1561  0.2081
 9489TIP3   OH228430   2.022   5.489   5.718  0.2297  0.0948 -0.1279
 9489TIP3    H128431   2.012   5.394   5.723 -0.4791  0.1672 -0.0235
 9489TIP3    H228432   2.113   5.503   5.691  0.2421 -0.6223 -0.4721
 9490TIP3   OH228433   1.792   1.023   0.947  0.2267 -0.4896 -0.2147
 9490TIP3    H128434   1.743   1.079   1.007  1.8101 -0.7191  1.3620
 9490TIP3    H228435   1.825   1.082   0.879  0.2865  0.1659  0.3763
 9491TIP3   OH228436   1.045   1.798   3.236 -0.0512  0.1438  0.0074
 9491TIP3    H128437   1.140   1.795   3.222  0.0727  0.1115  0.8128
 9491TIP3    H228438   1.008   1.783   3.149  0.6818  0.7854 -0.4277
 9492TIP3   OH228439   6.475   6.683   5.213 -0.2704 -0.1527 -0.2957
 9492TIP3    H128440   6.481   6.746   5.141 -1.6031 -0.6750 -0.8851
 9492TIP3    H228441   6.545   6.621   5.196  1.3947  1.3785  0.5582
 9493TIP3   OH228442   0.955   4.352   1.412  0.2565 -0.2544 -0.6724
 9493TIP3    H128443   0.886   4.294   1.445  0.4016 -0.2637 -0.3844
 9493TIP3    H228444   0.995   4.389   1.490 -0.3573  0.8670 -0.8657
 9494TIP3   OH228445   0.152   6.255   3.072  0.2016 -0.0173  0.0915
 9494TIP3    H128446   0.117   6.167   3.083 -1.9855  0.7897 -0.0125
 9494TIP3    H228447   0.076   6.309   3.049  1.5220  1.8547 -0.1217
 9495TIP3   OH228448   0.185   0.740   5.260  0.3374 -0.1116 -0.0263
 9495TIP3    H128449   0.205   0.828   5.229  1.8473 -0.4557 -0.1445
 9495TIP3    H228450   0.219   0.682   5.192 -0.5908 -0.7901  0.0709
 9496TIP3   OH228451   7.210   6.694   3.882 -0.1112 -0.2040 -0.1815
 9496TIP3    H128452   7.154   6.666   3.955 -0.6257  0.3279 -0.3662
 9496TIP3    H228453   7.173   6.648   3.806  0.9513 -1.4375  0.0207
 9497TIP3   OH228454   2.364   4.583   2.305 -0.5868 -0.4212  0.4395
 9497TIP3    H128455   2.411   4.510   2.347 -0.1150  0.4309  1.4377
 9497TIP3    H228456   2.413   4.661   2.331 -0.6282  0.2053 -1.2382
 9498TIP3   OH228457   0.387   6.614   0.275 -0.4459 -0.3800  0.1193
 9498TIP3    H128458   0.466   6.629   0.326 -0.8863 -0.5014  0.8403
 9498TIP3    H228459   0.416   6.619   0.184 -0.0267  1.9127  0.3318
 9499TIP3   OH228460   1.858   2.426   0.386 -0.5646  0.8757  0.1884
 9499TIP3    H128461   1.823   2.338   0.402 -1.2354  1.3795  1.6723
 9499TIP3    H228462   1.937   2.411   0.334 -0.0880 -0.6930  1.2740
 9500TIP3   OH228463   4.922   0.315   3.424 -0.0535 -0.0315 -0.1225
 9500TIP3    H128464   4.960   0.385   3.371  1.3894 -0.7656 -0.1103
 9500TIP3    H228465   4.914   0.241   3.365  0.6968 -0.5681  0.4161
 9501TIP3   OH228466   6.780   6.245   5.474 -0.6277 -0.0556  0.4727
 9501TIP3    H128467   6.784   6.170   5.416 -0.1184 -0.0049  0.4354
 9501TIP3    H228468   6.690   6.277   5.467  0.0603  1.6434 -2.4627
 9502TIP3   OH228469   3.449   1.557  -0.019  0.1756  0.2711  0.3089
 9502TIP3    H128470   3.542   1.578  -0.017 -0.0382  1.2688  1.8362
 9502TIP3    H228471   3.423   1.557   0.073 -1.0237 -1.5273  0.0128
 9503TIP3   OH228472   2.634   4.292   3.917 -0.0764 -0.3004  0.3549
 9503TIP3    H128473   2.691   4.340   3.978 -0.0442  0.5057 -0.2957
 9503TIP3    H228474   2.562   4.261   3.971 -0.7516  1.5552  0.5750
 9504TIP3   OH228475   7.064   1.813   3.985  0.6743  0.0208  0.5658
 9504TIP3    H128476   6.980   1.769   3.992 -0.0653  1.5524  1.9892
 9504TIP3    H228477   7.128   1.742   3.978 -0.6407 -1.1882  0.3855
 9505TIP3   OH228478   4.171   3.272   3.145 -0.4324  0.7625  0.1666
 9505TIP3    H128479   4.154   3.332   3.072 -2.8339  0.6140  0.5277
 9505TIP3    H228480   4.184   3.187   3.103 -0.1235  0.9626 -0.1596
 9506TIP3   OH228481   3.826   6.369   5.803 -0.4321 -0.2807 -0.3194
 9506TIP3    H128482   3.763   6.323   5.747 -0.7408 -0.8615  0.4831
 9506TIP3    H228483   3.798   6.349   5.892  1.3948 -1.3044  0.0809
 9507TIP3   OH228484   1.851   0.238   1.470  0.1676  0.0338  0.3982
 9507TIP3    H128485   1.935   0.283   1.465  0.3297 -0.0738  1.6881
 9507TIP3    H228486   1.862   0.176   1.543 -1.4715  1.0412  1.5738
 9508TIP3   OH228487   5.426   4.017   1.857  0.2575  0.9994 -0.6155
 9508TIP3    H128488   5.341   4.052   1.883  0.5195 -0.1731  2.0739
 9508TIP3    H228489   5.490   4.068   1.907  0.9588 -0.0260 -0.4510
 9509TIP3   OH228490   1.928   6.245   1.256 -0.1097 -0.2068 -0.6447
 9509TIP3    H128491   2.007   6.204   1.289 -1.0145 -2.1205 -0.6950
 9509TIP3    H228492   1.949   6.269   1.165  1.0619  1.3144 -0.0068
 9510TIP3   OH228493   3.543   3.013   3.755 -0.0181  0.0511 -0.5890
 9510TIP3    H128494   3.571   3.004   3.847  1.9444 -0.2784 -1.1779
 9510TIP3    H228495   3.521   2.924   3.727  1.3686 -0.1777 -1.0087
 9511TIP3   OH228496   2.337   2.482   2.135  0.1287  0.3455 -0.5387
 9511TIP3    H128497   2.420   2.437   2.152 -0.7159 -1.5628 -1.1396
 9511TIP3    H228498   2.294   2.428   2.068 -1.6052  1.2481 -0.2078
 9512TIP3   OH228499   2.357   6.436   2.666 -0.1022  0.2534 -0.3249
 9512TIP3    H128500   2.362   6.389   2.749 -2.6554  0.2211 -0.1000
 9512TIP3    H228501   2.318   6.520   2.688  2.3574  1.6720 -1.0594
 9513TIP3   OH228502   3.452   1.411   0.500  0.0727 -0.1502 -0.4702
 9513TIP3    H128503   3.406   1.486   0.539 -0.3802 -0.3449 -0.6202
 9513TIP3    H228504   3.404   1.334   0.531  0.2007 -0.3488 -0.7598
 9514TIP3   OH228505   3.856   0.346   5.187  0.2840  0.4054 -0.2353
 9514TIP3    H128506   3.830   0.253   5.191 -0.4825  0.5847 -0.7266
 9514TIP3    H228507   3.950   0.345   5.202  0.1817 -0.3955  0.4077
 9515TIP3   OH228508   0.706   5.496   4.491  0.1784  0.2484 -0.0658
 9515TIP3    H128509   0.738   5.547   4.417  0.8383  1.0267  0.7242
 9515TIP3    H228510   0.769   5.425   4.500 -1.1361 -1.1795 -1.6132
 9516TIP3   OH228511   3.816   5.919   4.556 -0.8748 -0.0993 -0.0231
 9516TIP3    H128512   3.841   5.924   4.464 -0.7453  0.5573  0.0431
 9516TIP3    H228513   3.864   5.990   4.598 -2.4747  0.8841  0.1935
 9517TIP3   OH228514   2.195   1.113   4.849  0.0998 -0.3446  0.0540
 9517TIP3    H128515   2.166   1.181   4.788  1.9666  0.6657  0.1942
 9517TIP3    H228516   2.129   1.111   4.918  0.9016  2.7838  1.0689
 9518TIP3   OH228517   3.127   1.201   5.283  0.1367 -0.2819 -0.0787
 9518TIP3    H128518   3.178   1.130   5.244  0.7965 -0.9966  1.9720
 9518TIP3    H228519   3.089   1.247   5.208  0.5316 -2.1612 -1.5092
 9519TIP3   OH228520   4.965   2.264   5.552 -0.0081  0.4739  0.1004
 9519TIP3    H128521   4.934   2.175   5.535 -1.4393  1.1422 -0.9490
 9519TIP3    H228522   4.934   2.315   5.478  2.5275  1.4947 -0.3556
 9520TIP3   OH228523   6.493   1.440   0.674 -0.3550 -0.6152  0.1648
 9520TIP3    H128524   6.408   1.405   0.700 -1.5090  1.0207 -1.2196
 9520TIP3    H228525   6.479   1.479   0.588  1.5537  0.5940  0.3251
 9521TIP3   OH228526   6.799   5.118   4.168 -0.0404  0.2502  0.0698
 9521TIP3    H128527   6.708   5.133   4.192 -0.5456 -0.7239 -1.1667
 9521TIP3    H228528   6.801   5.127   4.072  0.8157 -1.3645 -0.1047
 9522TIP3   OH228529   2.572   4.307   3.477  0.5892 -0.6656  0.2655
 9522TIP3    H128530   2.608   4.286   3.563 -0.1806  0.9395  1.0093
 9522TIP3    H228531   2.646   4.344   3.429  1.0998 -1.8484  0.0944
 9523TIP3   OH228532   2.226   0.740   2.973 -0.0492 -0.4266  0.0907
 9523TIP3    H128533   2.230   0.832   3.000 -1.3209 -0.4887  0.5461
 9523TIP3    H228534   2.283   0.694   3.036 -0.5220 -0.1382  0.7409
 9524TIP3   OH228535   5.904   2.978   0.757 -0.0640 -0.0285  0.2789
 9524TIP3    H128536   5.845   2.975   0.682  3.0058 -0.4227 -2.3301
 9524TIP3    H228537   5.954   2.896   0.752  1.1129  0.5195  1.9844
 9525TIP3   OH228538   3.889   1.333   1.596 -0.2731 -0.3087  0.1718
 9525TIP3    H128539   3.897   1.299   1.685  0.1567  0.4760  0.4517
 9525TIP3    H228540   3.802   1.372   1.592 -0.2926 -0.3447  0.2582
 9526TIP3   OH228541   1.249   1.508   3.537  0.3539  0.1477 -0.2501
 9526TIP3    H128542   1.271   1.430   3.588  1.1347 -0.8066 -1.9375
 9526TIP3    H228543   1.156   1.497   3.516 -0.1371  0.8677  1.4356
 9527TIP3   OH228544   4.193   4.419   0.755 -0.1999  0.2247  0.5080
 9527TIP3    H128545   4.126   4.361   0.792 -1.3570  0.5948 -0.9492
 9527TIP3    H228546   4.170   4.506   0.788 -0.1618  0.2871  0.3688
 9528TIP3   OH228547   2.233   4.153   5.588 -0.3814  0.3029  0.1765
 9528TIP3    H128548   2.189   4.233   5.561  1.7882  1.4052 -0.3008
 9528TIP3    H228549   2.162   4.089   5.599 -2.0331  1.8713 -0.8199
 9529TIP3   OH228550   0.440   2.074   3.659  0.0964  0.2204 -0.5359
 9529TIP3    H128551   0.361   2.127   3.666 -0.8799 -1.0454 -1.4998
 9529TIP3    H228552   0.411   1.992   3.619  2.0536  0.1187 -1.9081
 9530TIP3   OH228553   4.331   1.281   2.014  0.3649 -0.3977 -0.5837
 9530TIP3    H128554   4.358   1.226   2.088 -1.2208 -1.3981 -0.7022
 9530TIP3    H228555   4.248   1.319   2.041  0.2041 -0.0641 -1.4988
 9531TIP3   OH228556   6.666   4.529   4.246 -0.2582  0.3327  0.3687
 9531TIP3    H128557   6.721   4.607   4.236  0.4140 -0.0002  1.3236
 9531TIP3    H228558   6.714   4.460   4.201 -0.4232  0.2687  0.2887
 9532TIP3   OH228559   5.520   1.896   2.331 -0.1590 -0.0729  0.2274
 9532TIP3    H128560   5.484   1.973   2.374 -1.6078 -1.1958  1.1042
 9532TIP3    H228561   5.606   1.885   2.370 -0.7497 -0.0578  1.6014
 9533TIP3   OH228562   5.006   5.294   3.034 -0.2679 -0.2031  0.3504
 9533TIP3    H128563   4.979   5.342   3.112 -1.7721 -0.1922 -0.1507
 9533TIP3    H228564   4.971   5.206   3.047  1.1458 -0.7730  0.5494
 9534TIP3   OH228565   1.750   6.366   4.583  0.0970  0.1233  0.1174
 9534TIP3    H128566   1.676   6.391   4.528  0.3513  1.1316  0.2083
 9534TIP3    H228567   1.743   6.423   4.660  0.0923 -0.8493  0.8488
 9535TIP3   OH228568   1.420   4.153   3.869  0.2813 -0.1055  0.4109
 9535TIP3    H128569   1.386   4.116   3.787  0.1444 -0.2284  0.5228
 9535TIP3    H228570   1.412   4.247   3.857  1.5930 -0.0503 -0.2942
 9536TIP3   OH228571   7.168   6.739   2.251  0.0769 -0.3527 -0.3059
 9536TIP3    H128572   7.198   6.651   2.227 -1.0224 -0.7852 -0.1707
 9536TIP3    H228573   7.244   6.795   2.239  0.5900 -1.1996 -1.1315
 9537TIP3   OH228574   2.567   2.859   1.069 -0.2137 -0.2517  0.1134
 9537TIP3    H128575   2.572   2.863   1.165  1.2046 -0.4447  0.0658
 9537TIP3    H228576   2.553   2.767   1.049 -4.2341  0.1682  0.2065
 9538TIP3   OH228577   6.643   6.546   5.505 -0.1136 -0.5836 -0.3911
 9538TIP3    H128578   6.691   6.502   5.434 -0.4255 -0.0736 -0.9259
 9538TIP3    H228579   6.612   6.627   5.466  0.8890  0.3739  0.7238
 9539TIP3   OH228580   5.550   0.361   0.462  0.9001  0.0662 -0.1096
 9539TIP3    H128581   5.467   0.409   0.463 -0.1248 -1.6401  0.6784
 9539TIP3    H228582   5.562   0.335   0.371  1.7880  2.2416 -0.6821
 9540TIP3   OH228583   1.551   3.262   4.582  0.4327  0.2476 -0.2020
 9540TIP3    H128584   1.581   3.262   4.673  2.3751 -0.5065 -0.7770
 9540TIP3    H228585   1.549   3.354   4.557 -1.6761  0.5968  1.0219
 9541TIP3   OH228586   1.143   0.709   1.239 -0.1713  0.1140 -0.0313
 9541TIP3    H128587   1.111   0.644   1.176 -1.6591  0.7923  0.0000
 9541TIP3    H228588   1.207   0.661   1.293 -1.2157 -1.3121 -0.0225
 9542TIP3   OH228589   1.711   0.118   3.569 -0.1909 -0.3065 -0.6838
 9542TIP3    H128590   1.693   0.037   3.523  1.4804 -2.1896  1.6927
 9542TIP3    H228591   1.671   0.106   3.656 -0.1867  1.5654 -0.3679
 9543TIP3   OH228592   3.668   0.136   3.376  0.1126 -0.4067  0.1695
 9543TIP3    H128593   3.762   0.132   3.393  0.1597 -1.0418 -0.2400
 9543TIP3    H228594   3.650   0.229   3.362  0.6372 -0.2594  0.4667
 9544TIP3   OH228595   3.423   2.096   4.280 -0.5832 -0.5187  0.1151
 9544TIP3    H128596   3.475   2.177   4.281 -0.5426 -0.4641 -1.7885
 9544TIP3    H228597   3.418   2.069   4.371  3.2164 -0.7943  0.3917
 9545TIP3   OH228598   2.071   3.422   3.780  0.2156 -0.4009 -0.3783
 9545TIP3    H128599   2.013   3.408   3.855 -1.0088  0.6506 -1.0783
 9545TIP3    H228600   2.121   3.500   3.803  1.6236 -1.4822  0.3552
 9546TIP3   OH228601   2.878   1.642   1.941 -0.3554  0.2652 -0.0152
 9546TIP3    H128602   2.816   1.626   1.870 -1.1860 -1.5310  1.0299
 9546TIP3    H228603   2.963   1.620   1.904 -0.4745  1.5017 -1.0831
 9547TIP3   OH228604   2.734   0.896   5.285  0.0474 -0.4041 -0.1603
 9547TIP3    H128605   2.711   0.916   5.195  1.3358 -0.3704 -0.5040
 9547TIP3    H228606   2.652   0.905   5.334 -1.0774 -2.2520 -1.5930
 9548TIP3   OH228607   3.300   3.949   2.170 -0.4772 -0.2120  0.0115
 9548TIP3    H128608   3.250   4.003   2.109 -0.1270  2.5047  1.9869
 9548TIP3    H228609   3.387   3.990   2.173  0.2435 -1.7014  0.6176
 9549TIP3   OH228610   4.540   3.281   5.205 -0.2664  0.0967  0.4575
 9549TIP3    H128611   4.456   3.307   5.169 -0.7074 -2.0034 -0.1809
 9549TIP3    H228612   4.523   3.196   5.248  1.1993  0.3610  1.6756
 9550TIP3   OH228613   6.960   0.990   2.996 -0.3746 -0.6528 -0.3767
 9550TIP3    H128614   6.998   0.941   3.070  0.1184  0.8404  0.4057
 9550TIP3    H228615   7.002   1.076   3.001 -0.6720 -0.3775 -2.1517
 9551TIP3   OH228616   3.999   0.787   5.014 -0.3482  0.7791  0.4356
 9551TIP3    H128617   4.014   0.694   5.000  0.6677  0.7695  1.4352
 9551TIP3    H228618   4.005   0.826   4.927  0.0464  0.0130  0.1082
 9552TIP3   OH228619   1.804   5.420   4.692  0.0223 -0.3762 -0.3287
 9552TIP3    H128620   1.852   5.391   4.770 -0.0417  2.3381  0.8520
 9552TIP3    H228621   1.870   5.424   4.623  0.3615 -1.5889 -0.0930
 9553TIP3   OH228622   6.815   6.450   0.657  0.4877 -0.0314  0.1056
 9553TIP3    H128623   6.746   6.437   0.593  0.6430  0.9648 -0.2795
 9553TIP3    H228624   6.896   6.447   0.607  0.6656 -0.1505  0.3962
 9554TIP3   OH228625   2.619   4.101   5.307  0.2885  0.0614  0.4999
 9554TIP3    H128626   2.611   4.007   5.322  0.3670  0.0741  0.6196
 9554TIP3    H228627   2.639   4.108   5.213  2.3610 -0.1606  0.8868
 9555TIP3   OH228628   6.085   0.901   5.493 -0.2039 -0.7147  0.2107
 9555TIP3    H128629   5.994   0.914   5.517  0.0310  1.3474  0.1600
 9555TIP3    H228630   6.105   0.811   5.521 -1.8385 -0.7168  1.5000
 9556TIP3   OH228631   5.038   2.485   3.111  0.6784 -0.2520  0.5350
 9556TIP3    H128632   4.983   2.557   3.143  1.0142 -0.3086  1.2617
 9556TIP3    H228633   5.006   2.468   3.023  0.0328  0.2240  0.6676
 9557TIP3   OH228634   4.819   1.660   1.918 -0.7023 -0.2295 -0.7503
 9557TIP3    H128635   4.789   1.625   1.834 -1.1672 -0.4001 -0.5195
 9557TIP3    H228636   4.860   1.585   1.961 -0.6514 -0.1950 -0.7391
 9558TIP3   OH228637   6.676   1.700   4.257  0.0458 -0.3252  0.2207
 9558TIP3    H128638   6.721   1.712   4.340 -0.8625 -0.1080  0.6993
 9558TIP3    H228639   6.716   1.622   4.218  0.0253 -0.8166  1.1706
 9559TIP3   OH228640   4.716   5.421   4.305  0.0388  0.0609  0.0512
 9559TIP3    H128641   4.677   5.486   4.247 -0.9402  0.8125  1.5057
 9559TIP3    H228642   4.807   5.415   4.276 -0.2830  0.8051 -1.1890
 9560TIP3   OH228643   2.054   4.924   5.711  0.6564 -0.0486 -0.2465
 9560TIP3    H128644   2.077   4.938   5.803  2.2285 -2.1600 -0.2472
 9560TIP3    H228645   1.985   4.857   5.714 -1.9756  2.4645 -0.5182
 9561TIP3   OH228646   5.114   1.397   4.800  0.0440  0.3507  0.8139
 9561TIP3    H128647   5.107   1.318   4.746  0.5455  0.7672  0.1221
 9561TIP3    H228648   5.058   1.380   4.876 -1.3473  0.0809 -0.2398
 9562TIP3   OH228649   1.651   4.743   2.143  0.3696 -0.2756  0.0919
 9562TIP3    H128650   1.738   4.706   2.157  0.1488 -2.3291 -2.7925
 9562TIP3    H228651   1.600   4.716   2.219  2.1081  0.5820  1.6063
 9563TIP3   OH228652   0.590   6.051   0.276 -0.4094 -0.5313  0.3303
 9563TIP3    H128653   0.607   5.986   0.207 -1.3833 -0.7491  0.2763
 9563TIP3    H228654   0.507   6.024   0.315  0.0713 -0.3357  1.5227
 9564TIP3   OH228655   5.442   4.871   1.509  0.4540  0.4063  0.4388
 9564TIP3    H128656   5.454   4.924   1.430 -0.3908 -0.0713 -0.0319
 9564TIP3    H228657   5.347   4.867   1.519  0.1440 -4.2101 -1.8211
 9565TIP3   OH228658   5.099   0.739   5.065  0.2668 -0.2275  0.0938
 9565TIP3    H128659   5.026   0.697   5.111 -0.2475 -0.8560 -1.2269
 9565TIP3    H228660   5.178   0.703   5.106 -0.1649 -0.6151  0.5958
 9566TIP3   OH228661   1.404   2.433   3.484  0.2019 -0.0773  0.1705
 9566TIP3    H128662   1.361   2.380   3.552  0.4250 -0.3315  0.1153
 9566TIP3    H228663   1.392   2.523   3.514 -1.9067  0.0009 -0.7152
 9567TIP3   OH228664   3.492   6.581   5.457 -0.1207 -0.4405 -0.0773
 9567TIP3    H128665   3.500   6.504   5.401 -1.0542  0.5884 -1.7150
 9567TIP3    H228666   3.562   6.640   5.428 -0.0561 -0.2475  0.4523
 9568TIP3   OH228667   3.179   6.446   3.197 -0.5445 -0.6330  0.1887
 9568TIP3    H128668   3.274   6.455   3.190 -0.6888  1.6709  0.4780
 9568TIP3    H228669   3.156   6.382   3.129  1.1940 -1.2749  0.1584
 9569TIP3   OH228670   7.117   5.653   4.729  0.3664  0.0266 -0.5720
 9569TIP3    H128671   7.032   5.649   4.685  1.2393  2.2424 -2.7222
 9569TIP3    H228672   7.181   5.647   4.658  1.9850 -0.4013  0.8676
 9570TIP3   OH228673   2.998   6.495   5.301  0.1348  0.1149  0.2274
 9570TIP3    H128674   2.988   6.479   5.394 -3.7260  0.4102  0.0406
 9570TIP3    H228675   2.966   6.415   5.259 -0.1639  0.7433 -0.7814
 9571TIP3   OH228676   2.976   6.472   0.787 -0.3428  0.1242 -0.2160
 9571TIP3    H128677   3.051   6.464   0.846  0.4094  0.2151 -1.1239
 9571TIP3    H228678   2.982   6.562   0.753 -1.0422  0.2304 -0.0824
 9572TIP3   OH228679   4.095   0.451   5.565 -0.0786  0.0620 -0.0313
 9572TIP3    H128680   4.099   0.359   5.540  1.6336 -0.0621  0.5810
 9572TIP3    H228681   4.015   0.484   5.523 -0.6296 -1.6403 -0.3977
 9573TIP3   OH228682   1.180   0.593   2.783  0.0161  0.0004  0.2271
 9573TIP3    H128683   1.132   0.675   2.792 -0.8866 -0.5430  0.5163
 9573TIP3    H228684   1.268   0.619   2.758 -0.7916  0.9737 -1.7933
 9574TIP3   OH228685   0.537   1.129   0.227  0.2579 -0.1463  0.0571
 9574TIP3    H128686   0.500   1.044   0.207  1.2150 -0.3593 -0.8894
 9574TIP3    H228687   0.624   1.110   0.262  0.2376  0.4157  0.4317
 9575TIP3   OH228688   2.816   6.054   2.490  0.0839 -0.0498 -0.1188
 9575TIP3    H128689   2.722   6.075   2.490  0.3389  1.2632 -1.2086
 9575TIP3    H228690   2.847   6.082   2.576 -0.2821  0.8545 -0.2629
 9576TIP3   OH228691   6.363   5.381   4.809  0.1740 -0.4765  0.2820
 9576TIP3    H128692   6.332   5.456   4.860  0.9245  1.4612 -1.9307
 9576TIP3    H228693   6.314   5.384   4.727  0.9687 -1.7843 -0.2896
 9577TIP3   OH228694   2.386   3.492   2.614  0.2079  0.4206 -0.3209
 9577TIP3    H128695   2.421   3.496   2.525  0.5710 -0.7591 -0.2540
 9577TIP3    H228696   2.368   3.583   2.638  0.4945  0.7798 -1.4439
 9578TIP3   OH228697   3.186   4.252   5.296  0.3668  0.4033  0.0663
 9578TIP3    H128698   3.254   4.230   5.361  0.0789  0.0001  0.2386
 9578TIP3    H228699   3.181   4.174   5.241  1.0559  0.9866 -0.8402
 9579TIP3   OH228700   4.779   2.051   2.652  0.1189  0.6380  0.6735
 9579TIP3    H128701   4.813   2.106   2.723  0.5699  1.1575  0.0560
 9579TIP3    H228702   4.746   2.112   2.587 -2.9313  0.1917  1.6201
 9580TIP3   OH228703   3.337   2.504   0.978 -0.0158  0.2347  0.9913
 9580TIP3    H128704   3.338   2.573   1.044 -1.4786 -0.9763  2.3487
 9580TIP3    H228705   3.270   2.530   0.916 -0.8057 -0.1032  1.6880
 9581TIP3   OH228706   2.180   4.266   5.030 -0.1078  0.3617 -0.3299
 9581TIP3    H128707   2.247   4.260   4.962 -0.8086  0.9685 -1.0850
 9581TIP3    H228708   2.098   4.278   4.983 -0.5900  0.9791  0.6287
 9582TIP3   OH228709   5.692   4.469   1.296  0.1582  0.3419 -0.4412
 9582TIP3    H128710   5.714   4.510   1.380 -1.8341 -0.8963  0.7825
 9582TIP3    H228711   5.690   4.375   1.315  0.4096 -0.0172 -2.0778
 9583TIP3   OH228712   1.603   0.965   4.573 -0.1336 -0.0621  0.1999
 9583TIP3    H128713   1.619   0.891   4.632  0.8822 -0.9090 -1.0749
 9583TIP3    H228714   1.688   1.010   4.568 -0.7241  1.2226  0.9316
 9584TIP3   OH228715   6.540   1.627   3.612 -0.2870  0.8991 -0.0125
 9584TIP3    H128716   6.468   1.593   3.558  0.1405  1.9400 -1.3100
 9584TIP3    H228717   6.561   1.556   3.672 -1.6552  0.1673 -0.3580
 9585TIP3   OH228718   5.072   1.703   4.374  0.5188  0.7300 -0.0506
 9585TIP3    H128719   5.099   1.613   4.355 -0.1593  0.1963  1.3597
 9585TIP3    H228720   5.078   1.748   4.290  1.6461 -0.4211 -0.6284
 9586TIP3   OH228721   5.603   2.753   2.180 -0.0900 -0.3751  0.2825
 9586TIP3    H128722   5.536   2.686   2.176  0.0845 -0.5113 -0.5394
 9586TIP3    H228723   5.616   2.780   2.089 -0.8519  1.4732  0.6895
 9587TIP3   OH228724   0.590   4.077   5.058  0.0480 -0.2699 -0.2991
 9587TIP3    H128725   0.674   4.094   5.016 -0.2956 -0.1322 -0.9427
 9587TIP3    H228726   0.594   4.127   5.140  0.5757 -0.2399 -0.3365
 9588TIP3   OH228727   6.817   3.581   1.516 -0.1363  0.3073  0.6235
 9588TIP3    H128728   6.767   3.550   1.440  0.5780  1.1109 -0.2051
 9588TIP3    H228729   6.755   3.580   1.589 -0.6379 -1.2179  0.2059
 9589TIP3   OH228730   7.078   0.409   5.441 -0.5470 -0.0713 -0.0384
 9589TIP3    H128731   7.005   0.374   5.390  0.2973  1.5314 -2.5193
 9589TIP3    H228732   7.147   0.344   5.431 -0.7814 -0.3480  0.1225
 9590TIP3   OH228733   1.782   0.505   5.442  0.2748  0.4037  0.2284
 9590TIP3    H128734   1.768   0.440   5.511  0.3926 -0.2053 -0.3160
 9590TIP3    H228735   1.870   0.486   5.409  0.8355  1.6627  0.9279
 9591TIP3   OH228736   3.930   0.401   1.855 -0.4280  0.6519  0.2414
 9591TIP3    H128737   3.853   0.344   1.854 -0.8496  1.1479 -1.7645
 9591TIP3    H228738   4.003   0.344   1.833 -0.7323  0.6848 -0.9618
 9592TIP3   OH228739   1.323   3.672   5.363 -0.1279  0.3167 -0.3815
 9592TIP3    H128740   1.413   3.644   5.383  0.0915  0.4553 -1.1493
 9592TIP3    H228741   1.332   3.734   5.291 -0.9497 -0.9241 -1.6272
 9593TIP3   OH228742   5.519   4.332   3.792 -0.4059 -0.0437  0.1956
 9593TIP3    H128743   5.527   4.256   3.850 -0.4537 -1.0319 -1.0630
 9593TIP3    H228744   5.580   4.396   3.829 -0.6407 -0.5290  1.4943
 9594TIP3   OH228745   2.277   4.018   0.181  0.2223 -0.5256 -0.1051
 9594TIP3    H128746   2.273   3.990   0.090 -0.2596 -0.2314 -0.1818
 9594TIP3    H228747   2.362   4.061   0.189  0.3456 -0.7179 -0.3656
 9595TIP3   OH228748   0.983   6.458   1.009  0.1351  0.2018  0.0054
 9595TIP3    H128749   1.046   6.529   0.996 -0.0769  0.1816 -1.3107
 9595TIP3    H228750   1.023   6.402   1.075  0.6262  1.1747  0.5534
 9596TIP3   OH228751   3.341   0.426   0.088 -0.1793  0.0761  0.6208
 9596TIP3    H128752   3.250   0.397   0.096 -0.5858  1.3634  0.9032
 9596TIP3    H228753   3.336   0.521   0.087  0.9859  0.1975 -1.5568
 9597TIP3   OH228754   3.069   6.561   4.998  0.1139  0.3040 -0.4163
 9597TIP3    H128755   3.107   6.564   5.086 -0.9762  0.0182  0.0751
 9597TIP3    H228756   3.008   6.488   5.001 -2.4150  2.3036 -0.3959
 9598TIP3   OH228757   1.744   3.352   5.526  0.2671  0.1463 -0.4091
 9598TIP3    H128758   1.735   3.360   5.621  1.7643 -0.2275 -0.1969
 9598TIP3    H228759   1.770   3.439   5.497 -1.5261  0.6084 -0.6802
 9599TIP3   OH228760   3.326   2.651   5.522  0.3609 -0.0917  0.4132
 9599TIP3    H128761   3.365   2.729   5.561 -0.3512  1.0680 -1.0904
 9599TIP3    H228762   3.242   2.681   5.487  1.4780 -0.6265 -3.1903
 9600TIP3   OH228763   5.849   0.119   0.327 -0.6043  0.4301  0.3661
 9600TIP3    H128764   5.764   0.158   0.348 -0.3780  0.4116  1.3399
 9600TIP3    H228765   5.843   0.029   0.360 -0.1662  0.4669  0.5531
 9601TIP3   OH228766   0.967   5.836   1.644  0.4156  0.3550 -0.4463
 9601TIP3    H128767   0.928   5.856   1.729  1.3411  0.2587  0.0127
 9601TIP3    H228768   1.060   5.822   1.662  0.3678 -1.2435 -1.2229
 9602TIP3   OH228769   1.037   2.944   5.730 -0.0757  0.0649  0.2715
 9602TIP3    H128770   0.949   2.935   5.694 -0.4031 -0.9919  1.2874
 9602TIP3    H228771   1.033   2.899   5.814  1.3542  0.2821  0.4730
 9603TIP3   OH228772   2.137   2.877   2.181 -0.2972 -0.6837 -0.0082
 9603TIP3    H128773   2.202   2.935   2.143  1.5872 -2.3250  0.5531
 9603TIP3    H228774   2.065   2.878   2.118  0.3400  0.9717 -0.7851
 9604TIP3   OH228775   2.877   6.269   2.019  0.9685  0.1748 -0.5631
 9604TIP3    H128776   2.858   6.178   2.041  2.1704 -0.4300 -1.9162
 9604TIP3    H228777   2.956   6.291   2.068 -0.3470  1.1332  1.2383
 9605TIP3   OH228778   3.683   3.012   2.490 -0.1339  0.1051  0.5074
 9605TIP3    H128779   3.728   2.936   2.454 -0.2745 -0.1289  0.8202
 9605TIP3    H228780   3.599   3.014   2.444 -1.0268 -1.1854  1.9768
 9606TIP3   OH228781   3.498   5.688   3.258 -0.1826  0.6267 -0.1830
 9606TIP3    H128782   3.511   5.713   3.349  0.3846 -0.9307  0.2041
 9606TIP3    H228783   3.587   5.681   3.222 -0.3810  0.6661 -0.6890
 9607TIP3   OH228784   1.787   2.863   0.124 -0.5179  0.1396  0.2093
 9607TIP3    H128785   1.853   2.859   0.193  0.2128 -0.5436 -0.5101
 9607TIP3    H228786   1.734   2.785   0.137 -0.3562 -0.0096 -0.0181
 9608TIP3   OH228787   2.259   2.756   0.139  0.0849  0.1349 -0.6654
 9608TIP3    H128788   2.339   2.770   0.089 -0.7693 -1.4238 -2.6055
 9608TIP3    H228789   2.209   2.693   0.088 -3.2403  2.3575 -0.5010
 9609TIP3   OH228790   6.554   1.520   0.028 -0.5553 -0.3675 -0.0361
 9609TIP3    H128791   6.597   1.604   0.016  1.0540 -1.1022  0.4160
 9609TIP3    H228792   6.475   1.541   0.079 -1.6643  1.2079 -2.2246
 9610TIP3   OH228793   3.402   2.656   3.367 -0.0803  0.6969 -0.6487
 9610TIP3    H128794   3.443   2.585   3.417  1.0452  0.1137 -2.3025
 9610TIP3    H228795   3.308   2.642   3.376  0.1199 -0.0744  0.3343
 9611TIP3   OH228796   1.901   0.371   3.226 -0.0750  0.3188 -0.4511
 9611TIP3    H128797   1.974   0.377   3.164  0.3577 -1.2657 -0.1429
 9611TIP3    H228798   1.827   0.339   3.173  0.2653 -0.9257 -0.2209
 9612TIP3   OH228799   5.419   5.924   1.859 -0.6941 -1.0780  0.3082
 9612TIP3    H128800   5.427   5.883   1.774  0.1996 -0.3156  0.0109
 9612TIP3    H228801   5.462   6.009   1.849  0.1484 -1.3087  1.7423
 9613TIP3   OH228802   6.181   1.763   2.673  0.5881  0.0984  0.2858
 9613TIP3    H128803   6.175   1.852   2.638 -3.2894 -0.4097 -0.7720
 9613TIP3    H228804   6.141   1.769   2.760  0.2838 -0.5840  0.1990
 9614TIP3   OH228805   4.536   0.512   2.156  0.2987  0.0698 -0.2037
 9614TIP3    H128806   4.578   0.459   2.224 -1.3628 -0.7321  0.2517
 9614TIP3    H228807   4.483   0.450   2.106 -0.3516  1.0245 -0.7429
 9615TIP3   OH228808   1.086   2.705   1.694 -0.4120 -0.3966 -0.2592
 9615TIP3    H128809   1.083   2.637   1.761 -0.1949  1.3593  1.6324
 9615TIP3    H228810   1.020   2.768   1.722  0.1558  0.7070 -1.3373
 9616TIP3   OH228811   2.932   1.700   4.617 -0.1351  0.1438  0.1398
 9616TIP3    H128812   2.981   1.700   4.535 -1.4521  0.6353 -0.6727
 9616TIP3    H228813   2.890   1.613   4.620 -0.6251  0.3716 -0.0459
 9617TIP3   OH228814   0.202   6.325   2.727  0.3064 -0.1998 -0.4390
 9617TIP3    H128815   0.255   6.380   2.784 -0.1769 -2.1387  2.0642
 9617TIP3    H228816   0.261   6.255   2.700 -0.5328 -1.6979  1.3733
 9618TIP3   OH228817   3.188   4.184   3.554  0.1879 -0.0642 -0.2459
 9618TIP3    H128818   3.167   4.134   3.633  0.8403 -1.0314 -0.6550
 9618TIP3    H228819   3.208   4.272   3.584 -2.2966  0.3629  0.3839
 9619TIP3   OH228820   6.609   6.304   2.630  0.0825 -0.1081 -0.3266
 9619TIP3    H128821   6.660   6.230   2.598  1.0387 -0.5453  1.9795
 9619TIP3    H228822   6.667   6.380   2.621  1.0440 -0.5180  1.8041
 9620TIP3   OH228823   6.500   0.372   1.878  0.3487 -0.5700  0.4027
 9620TIP3    H128824   6.481   0.400   1.967  0.0276  1.3060 -0.2198
 9620TIP3    H228825   6.596   0.370   1.874  0.3838 -2.1855  1.2032
 9621TIP3   OH228826   5.977   1.823   4.976  0.3015  0.0598  0.5061
 9621TIP3    H128827   6.015   1.778   5.051  3.8449  2.2106  0.2366
 9621TIP3    H228828   6.033   1.798   4.902 -2.2712 -0.9426 -1.2580
 9622TIP3   OH228829   4.796   0.037   4.792  0.2377 -0.6930 -0.6275
 9622TIP3    H128830   4.825   0.121   4.756  2.3906 -1.3420 -0.5368
 9622TIP3    H228831   4.796   0.050   4.887 -2.7478  0.1675 -0.6393
 9623TIP3   OH228832   3.629   4.640   2.373 -0.3582  0.1209  0.1519
 9623TIP3    H128833   3.715   4.674   2.399 -0.0590 -0.8259  0.4243
 9623TIP3    H228834   3.581   4.717   2.343  0.6347  0.6338 -0.1354
 9624TIP3   OH228835   0.612   2.530   2.940 -0.6944  0.2471  0.3020
 9624TIP3    H128836   0.548   2.510   2.872 -0.6351 -1.2799  0.6451
 9624TIP3    H228837   0.577   2.488   3.019 -0.2776  1.1464  0.9884
 9625TIP3   OH228838   4.680   1.201   3.604  0.5762 -0.4528  0.1513
 9625TIP3    H128839   4.656   1.137   3.537 -2.0696  1.4733 -0.9117
 9625TIP3    H228840   4.632   1.173   3.682  0.2368 -0.3387 -0.0151
 9626TIP3   OH228841   3.112   3.089   2.919  0.3197 -0.6565  0.2713
 9626TIP3    H128842   3.109   3.120   3.010  1.7382 -1.0460  0.4742
 9626TIP3    H228843   3.054   3.012   2.918 -0.0276 -0.4054  0.7428
 9627TIP3   OH228844   6.820   5.421   3.857  0.1494  0.2453 -0.0645
 9627TIP3    H128845   6.768   5.351   3.896 -1.7572  0.7292 -1.5995
 9627TIP3    H228846   6.846   5.387   3.772  1.0447  0.6197  0.0492
 9628TIP3   OH228847   6.905   6.558   1.866  0.3707  0.4783  0.7136
 9628TIP3    H128848   6.827   6.587   1.912  0.3386  0.4821  0.6568
 9628TIP3    H228849   6.963   6.526   1.935 -0.2433 -0.8707  0.6412
 9629TIP3   OH228850   4.654   1.890   0.573 -0.5081  0.1994 -0.4102
 9629TIP3    H128851   4.617   1.962   0.625  0.4831 -0.4568  1.2947
 9629TIP3    H228852   4.714   1.934   0.512 -0.9875  0.9205 -0.3813
 9630TIP3   OH228853   5.930   4.339   0.863 -0.4051 -0.1725 -0.1298
 9630TIP3    H128854   5.898   4.423   0.830 -1.0615  0.8921  2.9295
 9630TIP3    H228855   6.001   4.361   0.923 -0.8771 -1.7519  1.0759
 9631TIP3   OH228856   2.432   3.355   3.566  0.3319  0.0815  0.0753
 9631TIP3    H128857   2.340   3.371   3.545  0.4673 -0.5100 -1.0233
 9631TIP3    H228858   2.477   3.437   3.542 -0.2034  1.3296  2.9297
 9632TIP3   OH228859   4.219   4.410   2.466  0.2851 -0.1091 -0.2624
 9632TIP3    H128860   4.272   4.489   2.459 -1.0411  0.8822  0.5528
 9632TIP3    H228861   4.137   4.432   2.423 -0.4195 -0.7450  0.7144
 9633TIP3   OH228862   0.035   6.294   1.883  0.3915  0.2394  0.5095
 9633TIP3    H128863   0.033   6.385   1.913 -0.7298  0.9336 -1.5038
 9633TIP3    H228864  -0.054   6.262   1.899  0.3507 -0.0073 -0.1662
 9634TIP3   OH228865   5.267   0.317   2.495  0.5754  0.4828 -0.0193
 9634TIP3    H128866   5.315   0.237   2.473 -0.0472  0.0665  0.1103
 9634TIP3    H228867   5.228   0.345   2.412 -0.8704 -0.4805  0.3034
 9635TIP3   OH228868   0.054   5.729   2.604  0.1102 -0.0689  0.3482
 9635TIP3    H128869  -0.040   5.746   2.603  0.0743 -0.2642  0.0103
 9635TIP3    H228870   0.060   5.633   2.605  0.2931 -0.1236 -1.6120
 9636TIP3   OH228871   1.643   0.692   2.819  0.1576  0.1937 -0.1649
 9636TIP3    H128872   1.597   0.751   2.879  1.5208  0.6034  0.4968
 9636TIP3    H228873   1.695   0.750   2.763 -0.7011 -0.2167 -1.4518
 9637TIP3   OH228874   6.007   5.754   5.620  0.1145  0.0122 -0.3884
 9637TIP3    H128875   6.093   5.721   5.646 -0.1121 -0.5102 -0.2819
 9637TIP3    H228876   6.026   5.817   5.551  0.5983  0.0479 -0.2293
 9638TIP3   OH228877   3.902   2.803   1.942  0.2744  0.1549  0.2108
 9638TIP3    H128878   3.833   2.738   1.950 -2.1170  2.4143 -0.5981
 9638TIP3    H228879   3.973   2.758   1.896 -0.7925 -2.1413  0.7022
 9639TIP3   OH228880   1.221   0.162   5.000  0.2031 -0.1579 -0.2995
 9639TIP3    H128881   1.188   0.124   4.919  0.3440  1.1416 -0.9851
 9639TIP3    H228882   1.158   0.231   5.022  2.7477  3.0025 -2.1312
 9640TIP3   OH228883   2.119   4.134   3.599 -0.0751  0.4133 -0.3381
 9640TIP3    H128884   2.204   4.122   3.557  0.5720 -0.0771  1.0669
 9640TIP3    H228885   2.139   4.173   3.684 -1.4244  2.1938 -0.7553
 9641TIP3   OH228886   4.570   2.386   2.314  0.0103  0.8890 -0.7257
 9641TIP3    H128887   4.509   2.432   2.371  1.1193  2.1671 -0.4995
 9641TIP3    H228888   4.521   2.371   2.233 -1.3744 -0.3755  0.2896
 9642TIP3   OH228889   4.231   3.878   2.304  0.1268 -0.1078 -0.0578
 9642TIP3    H128890   4.210   3.828   2.225  1.2894  0.0474 -0.4873
 9642TIP3    H228891   4.198   3.825   2.376 -2.3741  0.4739 -0.6957
 9643TIP3   OH228892   3.428   5.755   5.600 -0.2140  0.2611  0.5729
 9643TIP3    H128893   3.522   5.753   5.587 -0.2602 -1.1871  0.3113
 9643TIP3    H228894   3.415   5.735   5.693 -0.2811 -0.0180  0.5040
 9644TIP3   OH228895   2.339   4.260   4.805  0.8151  0.0695  0.2384
 9644TIP3    H128896   2.304   4.253   4.716  2.3521 -2.5711 -0.2790
 9644TIP3    H228897   2.373   4.172   4.824  2.0785  1.0082  2.7942
 9645TIP3   OH228898   0.182   5.766   1.784  0.1089  0.3010 -0.4734
 9645TIP3    H128899   0.177   5.792   1.877  1.0231 -0.5367 -0.1826
 9645TIP3    H228900   0.268   5.796   1.755 -0.6660  1.7127 -1.4377
 9646TIP3   OH228901   6.499   3.954   0.969 -0.3258  0.5026  0.3769
 9646TIP3    H128902   6.500   3.990   1.057  1.1555 -0.9740  0.9986
 9646TIP3    H228903   6.562   3.883   0.970 -0.8140 -0.0496 -1.6817
 9647TIP3   OH228904   6.097   0.648   5.568 -0.1731  0.2567  0.0515
 9647TIP3    H128905   6.186   0.640   5.532 -0.2023 -1.2136  0.2380
 9647TIP3    H228906   6.107   0.630   5.661 -0.5927  0.6150  0.1672
 9648TIP3   OH228907   7.080   5.378   5.850 -0.1553 -0.2413 -0.6041
 9648TIP3    H128908   7.089   5.317   5.776  0.3653  0.2080 -0.9128
 9648TIP3    H228909   7.170   5.396   5.878 -0.2073 -4.3406  3.4555
 9649TIP3   OH228910   2.365   4.741   4.371 -0.1708 -0.1489 -0.3734
 9649TIP3    H128911   2.289   4.776   4.416 -1.7145 -1.7134 -1.6514
 9649TIP3    H228912   2.388   4.809   4.307 -0.9792 -0.0100 -0.5192
 9650TIP3   OH228913   1.323   2.826   4.334  0.0562  0.9073 -0.0475
 9650TIP3    H128914   1.231   2.845   4.352  0.1029  0.0428  1.2736
 9650TIP3    H228915   1.370   2.864   4.409  0.8361  1.6791 -0.8949
 9651TIP3   OH228916   7.200   3.381   5.121 -0.2704  0.3898 -0.5433
 9651TIP3    H128917   7.113   3.393   5.083  0.3689 -0.0798 -2.2692
 9651TIP3    H228918   7.251   3.455   5.089  0.0660  0.4671  0.1497
 9652TIP3   OH228919   3.234   1.017   2.697 -0.3280 -0.2287  0.3993
 9652TIP3    H128920   3.197   1.090   2.745 -0.6889 -1.3559  1.8929
 9652TIP3    H228921   3.329   1.024   2.712 -0.2807  0.3604 -0.1207
 9653TIP3   OH228922   4.129   4.814   1.325 -0.2927  0.1030  0.0675
 9653TIP3    H128923   4.123   4.776   1.413 -1.1532  0.5617  0.2132
 9653TIP3    H228924   4.149   4.740   1.269  2.2018  0.0731  0.8664
 9654TIP3   OH228925   3.281   4.855   3.099  0.3071 -0.7822  0.0401
 9654TIP3    H128926   3.295   4.825   3.189 -1.0041 -3.0196 -0.4153
 9654TIP3    H228927   3.256   4.775   3.051 -2.4052  0.8754 -1.5462
 9655TIP3   OH228928   2.916   5.475   4.222 -0.2202  0.2898 -0.1288
 9655TIP3    H128929   2.869   5.499   4.142  1.5609 -0.3005 -1.4303
 9655TIP3    H228930   3.008   5.475   4.196  0.2758 -1.9478  1.3619
 9656TIP3   OH228931   6.409   0.454   2.112 -0.2011  0.4020 -0.2203
 9656TIP3    H128932   6.448   0.455   2.199  0.0931 -0.4097 -0.3390
 9656TIP3    H228933   6.351   0.378   2.111  0.6443 -0.2519 -1.0936
 9657TIP3   OH228934   4.210   6.445   1.129 -0.0114  0.2971 -0.3101
 9657TIP3    H128935   4.169   6.524   1.164 -0.3045  1.1720 -2.4299
 9657TIP3    H228936   4.157   6.423   1.052 -0.0280 -2.0966  0.3032
 9658TIP3   OH228937   2.971   3.799   0.592 -0.0293 -0.0249 -0.2017
 9658TIP3    H128938   3.037   3.756   0.538  0.0376 -1.6011  1.0464
 9658TIP3    H228939   3.004   3.789   0.681 -1.2482  0.4579  0.3159
 9659TIP3   OH228940   1.575   3.214   2.996 -0.2922  0.0807  0.2537
 9659TIP3    H128941   1.580   3.119   3.005 -0.5858  0.1929  1.8237
 9659TIP3    H228942   1.497   3.229   2.943  0.3336 -0.5687 -0.8995
 9660TIP3   OH228943   5.364   2.155   5.826  0.3644  0.0841  0.4048
 9660TIP3    H128944   5.327   2.112   5.904 -0.9685  0.6328  0.1108
 9660TIP3    H228945   5.382   2.244   5.855 -1.4105  0.6952 -0.2222
 9661TIP3   OH228946   6.597   4.502   0.445 -0.2849  0.4153  0.6122
 9661TIP3    H128947   6.672   4.557   0.465 -0.5660  1.2340 -0.4765
 9661TIP3    H228948   6.529   4.564   0.418 -1.0990 -0.3663  0.8266
 9662TIP3   OH228949   5.234   4.349   1.354 -0.4225  0.6195  0.5218
 9662TIP3    H128950   5.273   4.270   1.318 -1.9256  0.5614 -1.1107
 9662TIP3    H228951   5.302   4.417   1.344  0.2080 -0.0435  0.2270
 9663TIP3   OH228952   2.162   4.126   1.605  0.4776  0.1357 -0.3314
 9663TIP3    H128953   2.155   4.065   1.531 -1.3684  0.3137 -0.3438
 9663TIP3    H228954   2.222   4.082   1.666 -0.0712 -1.2841 -0.7636
 9664TIP3   OH228955   5.738   1.926   0.522  0.2986  0.1703  0.0206
 9664TIP3    H128956   5.662   1.970   0.483  0.5578  1.7752  1.2179
 9664TIP3    H228957   5.700   1.866   0.586  0.0059  0.1856 -0.1364
 9665TIP3   OH228958   4.787   1.151   1.516 -0.4162 -0.2625 -0.4933
 9665TIP3    H128959   4.740   1.122   1.594 -0.1371  0.0087 -0.2177
 9665TIP3    H228960   4.825   1.236   1.541  0.1354 -0.4334 -0.7341
 9666TIP3   OH228961   3.071   2.682   5.469 -0.7095 -0.3825 -0.5487
 9666TIP3    H128962   3.069   2.629   5.389 -0.2906 -1.3013  0.0386
 9666TIP3    H228963   2.993   2.737   5.463 -1.0793 -0.9638 -1.2413
 9667TIP3   OH228964   1.287   2.833   0.124  0.0744 -0.0539  0.3585
 9667TIP3    H128965   1.289   2.780   0.204 -0.0902 -0.4762  0.0865
 9667TIP3    H228966   1.200   2.818   0.087  1.3019 -2.7212 -1.7905
 9668TIP3   OH228967   5.940   6.591   5.590  0.2543  0.3756 -0.0439
 9668TIP3    H128968   5.851   6.560   5.569  0.0802 -0.2336  1.4392
 9668TIP3    H228969   5.939   6.683   5.565 -0.8592  0.4216  0.0811
 9669TIP3   OH228970   3.475   1.251   4.903 -0.0817  0.4995 -0.2262
 9669TIP3    H128971   3.469   1.292   4.817  0.7974 -0.0741 -0.5805
 9669TIP3    H228972   3.392   1.271   4.945 -1.4199 -0.9761 -1.9894
 9670TIP3   OH228973   1.610   0.300   0.773 -0.6174  0.5044 -0.2216
 9670TIP3    H128974   1.696   0.266   0.747 -0.4273  0.2281  0.7426
 9670TIP3    H228975   1.620   0.324   0.865 -1.1581  1.8788 -0.4934
 9671TIP3   OH228976   0.602   0.927   2.556 -0.8391 -0.4103 -0.2397
 9671TIP3    H128977   0.674   0.882   2.599  0.3661 -0.0291 -1.7913
 9671TIP3    H228978   0.533   0.861   2.548 -0.5142 -0.8940  0.8711
 9672TIP3   OH228979   2.569   2.579   4.704  0.1537  0.4941 -0.1660
 9672TIP3    H128980   2.486   2.533   4.714  0.0316  1.0265  1.6439
 9672TIP3    H228981   2.561   2.628   4.623 -0.1011 -1.8336 -1.6227
 9673TIP3   OH228982   4.782   0.434   1.401  0.1516  0.1266  0.2167
 9673TIP3    H128983   4.761   0.462   1.490  0.6978 -1.9935  1.0733
 9673TIP3    H228984   4.700   0.441   1.354 -0.1830  1.1506  0.9012
 9674TIP3   OH228985   6.320   3.626   2.019  0.0596  0.8073  0.2142
 9674TIP3    H128986   6.323   3.568   1.943 -0.6058 -1.2225  1.6431
 9674TIP3    H228987   6.227   3.643   2.033  0.0607  0.0833  1.2882
 9675TIP3   OH228988   2.021   6.238   5.770  0.4427 -0.3967  0.7414
 9675TIP3    H128989   2.003   6.301   5.701  0.3324 -0.4301  0.7395
 9675TIP3    H228990   2.052   6.160   5.724  0.6369 -0.3232  0.7481
 9676TIP3   OH228991   0.451   2.651   2.171 -0.2391  0.0173  0.7645
 9676TIP3    H128992   0.418   2.561   2.179  0.0903 -0.2618 -0.7342
 9676TIP3    H228993   0.441   2.671   2.078 -2.2187  2.2854  1.3741
 9677TIP3   OH228994   3.115   6.178   4.800 -0.4987  0.1100  0.1118
 9677TIP3    H128995   3.153   6.179   4.888 -1.4832 -1.6407  0.6067
 9677TIP3    H228996   3.021   6.169   4.816 -0.9413  2.1328 -1.1072
 9678TIP3   OH228997   6.769   2.161   5.465  0.5293  0.3030  0.0911
 9678TIP3    H128998   6.803   2.113   5.541  1.5184  0.0583 -0.4770
 9678TIP3    H228999   6.680   2.128   5.453 -0.0532  1.1682  1.8169
 9679TIP3   OH229000   6.446   2.543   0.406  0.1896  0.0432 -0.3660
 9679TIP3    H129001   6.536   2.520   0.383  0.4559  0.7232 -0.0386
 9679TIP3    H229002   6.449   2.637   0.422 -0.0832 -0.2529  1.8196
 9680TIP3   OH229003   5.796   2.427   1.340 -0.1336  0.4618 -0.1441
 9680TIP3    H129004   5.875   2.465   1.378  0.2090 -2.8092  2.8156
 9680TIP3    H229005   5.732   2.427   1.412 -1.1562 -1.4361 -0.9795
 9681TIP3   OH229006   4.824   6.619   0.667 -0.4177 -0.1003 -0.3530
 9681TIP3    H129007   4.744   6.656   0.705 -1.3418 -0.3656 -1.9672
 9681TIP3    H229008   4.861   6.566   0.737 -1.7681 -0.1383  0.3678
 9682TIP3   OH229009   1.484   5.060   0.322  0.1724  0.0441 -0.4986
 9682TIP3    H129010   1.486   5.059   0.226  1.2168  1.8158 -0.5354
 9682TIP3    H229011   1.572   5.034   0.348  0.7168  2.1204 -0.1174
 9683TIP3   OH229012   5.286   1.102   2.053 -0.0168  0.0369 -0.0521
 9683TIP3    H129013   5.376   1.118   2.082 -0.4427  1.4446  0.6215
 9683TIP3    H229014   5.232   1.135   2.125 -1.0769  0.1497 -0.8751
 9684TIP3   OH229015   3.544   4.399   4.432  0.2181 -0.3209 -0.2978
 9684TIP3    H129016   3.493   4.477   4.412  0.1352 -0.6118 -1.2702
 9684TIP3    H229017   3.626   4.410   4.383  0.2919 -0.7463 -0.2760
 9685TIP3   OH229018   6.410   6.710   3.439  0.3184 -0.2932  0.1579
 9685TIP3    H129019   6.335   6.718   3.379 -0.1046  2.9483  0.9438
 9685TIP3    H229020   6.380   6.649   3.506 -1.3518  0.2731 -0.0086
 9686TIP3   OH229021   2.587   1.898   1.224 -0.0839  0.1811 -0.3821
 9686TIP3    H129022   2.518   1.963   1.237  0.6796  0.9482 -0.0625
 9686TIP3    H229023   2.657   1.946   1.181  0.2715 -0.5784 -0.6679
 9687TIP3   OH229024   0.754   3.184   3.495  0.7843  0.0617  0.2769
 9687TIP3    H129025   0.660   3.190   3.477  0.4999  1.4327  1.9001
 9687TIP3    H229026   0.775   3.092   3.481 -1.0556 -0.5113  0.9099
 9688TIP3   OH229027   4.529   0.209   5.760  0.3847  0.2820 -0.1950
 9688TIP3    H129028   4.506   0.288   5.711 -1.8788  0.6541  1.3308
 9688TIP3    H229029   4.539   0.238   5.850 -2.0436 -1.3161  0.7073
 9689TIP3   OH229030   7.087   6.638   2.538 -0.2499 -0.1776  0.1761
 9689TIP3    H129031   7.095   6.658   2.445 -1.1867 -1.8496 -0.3061
 9689TIP3    H229032   7.162   6.581   2.557  1.2282  1.9095  1.0455
 9690TIP3   OH229033   6.779   2.081   3.361  0.1615 -0.1851 -0.4066
 9690TIP3    H129034   6.864   2.084   3.316  0.3464  0.9130 -0.0182
 9690TIP3    H229035   6.792   2.135   3.439 -1.6691  2.3341 -1.7180
 9691TIP3   OH229036   5.375   4.480   1.614 -0.2280 -0.1052  0.0556
 9691TIP3    H129037   5.386   4.386   1.605 -1.5812 -0.2379 -0.4812
 9691TIP3    H229038   5.392   4.514   1.526  2.1295  0.4056  0.6304
 9692TIP3   OH229039   6.854   0.978   2.439  0.3455  0.6675  0.2860
 9692TIP3    H129040   6.940   0.970   2.481  0.8651 -1.7174 -1.0487
 9692TIP3    H229041   6.857   1.063   2.395  2.3236  0.3479 -0.2844
 9693TIP3   OH229042   6.864   3.195   4.458 -0.2849 -0.1066 -0.1366
 9693TIP3    H129043   6.860   3.139   4.381  1.1269  1.2638 -1.2525
 9693TIP3    H229044   6.875   3.284   4.424 -2.8390  0.9923  1.5563
 9694TIP3   OH229045   1.419   4.745   2.500 -0.6526  0.1895  0.5140
 9694TIP3    H129046   1.388   4.666   2.545  0.1247 -1.5893 -1.8506
 9694TIP3    H229047   1.502   4.767   2.544  0.1313 -1.5431 -0.0040
 9695TIP3   OH229048   5.111   5.064   1.085 -0.4689  0.3543  0.4382
 9695TIP3    H129049   5.072   4.976   1.080  0.5351 -0.1326  0.8774
 9695TIP3    H229050   5.130   5.075   1.179 -2.0126  1.6905  0.6360
 9696TIP3   OH229051   4.163   1.873   5.639  0.4457 -0.0436 -0.0728
 9696TIP3    H129052   4.189   1.953   5.686  0.9149 -0.1390 -0.1672
 9696TIP3    H229053   4.242   1.846   5.592 -0.0153  0.0312 -0.8960
 9697TIP3   OH229054   7.059   6.144   5.529  0.0868  0.1880 -0.0454
 9697TIP3    H129055   7.068   6.086   5.605  0.8266  1.1496  0.6187
 9697TIP3    H229056   6.966   6.163   5.525 -0.0178 -0.2100  0.3706
 9698TIP3   OH229057   5.623   1.125   4.035 -1.2821 -0.5053 -0.0696
 9698TIP3    H129058   5.614   1.202   4.091 -0.5213 -0.5189  0.0731
 9698TIP3    H229059   5.572   1.057   4.079 -0.2196 -0.6833  0.9050
 9699TIP3   OH229060   0.414   0.880   0.634 -0.0752 -0.0381  0.1023
 9699TIP3    H129061   0.406   0.968   0.599 -2.1777 -0.8636 -1.7568
 9699TIP3    H229062   0.339   0.871   0.694  0.2296 -0.5123  0.4199
 9700TIP3   OH229063   0.589   4.023   2.857 -0.1698  0.8252  0.4464
 9700TIP3    H129064   0.501   3.987   2.851  0.1026  0.2265 -0.0036
 9700TIP3    H229065   0.643   3.951   2.890  0.3059  0.9335 -0.0835
 9701TIP3   OH229066   6.446   1.631   2.293 -0.5827 -0.3586 -0.6702
 9701TIP3    H129067   6.373   1.570   2.303 -0.8084 -0.2027 -1.3172
 9701TIP3    H229068   6.427   1.702   2.354  0.0773 -1.2975  0.6575
 9702TIP3   OH229069   1.316   1.047   4.214  0.4644  0.1264  0.3941
 9702TIP3    H129070   1.377   1.069   4.143  0.0187  0.9230  0.2440
 9702TIP3    H229071   1.257   0.982   4.176  0.0037  0.8130 -0.1002
 9703TIP3   OH229072   4.565   0.120   2.119  0.5212  0.2716 -0.1751
 9703TIP3    H129073   4.478   0.082   2.131  0.3618  0.3616 -1.0132
 9703TIP3    H229074   4.591   0.146   2.208 -0.6535  1.0026 -0.0132
 9704TIP3   OH229075   4.014   0.221   3.910 -0.0132  0.0408 -0.1064
 9704TIP3    H129076   3.989   0.312   3.926  0.4608  0.3327 -0.9473
 9704TIP3    H229077   3.931   0.173   3.907 -0.2493  0.4101  0.5366
 9705TIP3   OH229078   4.883   2.704   2.694 -0.3928 -0.4204 -0.1665
 9705TIP3    H129079   4.810   2.758   2.664 -0.5159 -0.3044  0.3479
 9705TIP3    H229080   4.940   2.696   2.617 -0.7866 -0.2483 -0.4760
 9706TIP3   OH229081   3.310   1.220   3.447  0.1266  0.0986  0.1939
 9706TIP3    H129082   3.384   1.177   3.404  0.4448  0.3398  0.4937
 9706TIP3    H229083   3.350   1.285   3.505 -0.3883  1.9212 -1.4078
 9707TIP3   OH229084   0.640   4.468   2.071  0.0347  0.2449  0.3015
 9707TIP3    H129085   0.657   4.390   2.123 -3.0359  0.2880  1.5834
 9707TIP3    H229086   0.720   4.520   2.079  0.9050 -1.2744  2.2026
 9708TIP3   OH229087   1.239   3.236   0.925  0.0407 -0.4059  0.3205
 9708TIP3    H129088   1.161   3.280   0.960 -0.0863 -0.5960  0.2822
 9708TIP3    H229089   1.261   3.170   0.991 -0.7925 -1.4383 -0.4019
 9709TIP3   OH229090   4.451   0.208   4.817 -0.3040  0.7061 -0.1350
 9709TIP3    H129091   4.479   0.233   4.729  1.2554 -0.7838 -0.1004
 9709TIP3    H229092   4.529   0.216   4.871 -0.8342  0.0236  0.7745
 9710TIP3   OH229093   5.164   2.664   1.092  0.0663 -0.2565  0.1759
 9710TIP3    H129094   5.110   2.742   1.088 -1.9273 -1.5536  0.3603
 9710TIP3    H229095   5.186   2.655   1.185 -1.5874 -1.0806  0.5230
 9711TIP3   OH229096   2.259   6.252   3.090  0.2794  0.4663  0.3798
 9711TIP3    H129097   2.230   6.166   3.059  0.1600  0.6984 -0.1709
 9711TIP3    H229098   2.179   6.293   3.123 -0.1071  1.1965 -1.3523
 9712TIP3   OH229099   3.743   5.181   2.004 -0.2871 -0.1359 -0.5634
 9712TIP3    H129100   3.670   5.177   2.066 -0.6167 -2.2946 -0.9762
 9712TIP3    H229101   3.701   5.178   1.918  0.2417 -1.9266 -0.8031
 9713TIP3   OH229102   1.569   3.043   1.207 -0.0956  0.3558 -0.2590
 9713TIP3    H129103   1.626   3.115   1.183 -0.8687  1.3465  0.7632
 9713TIP3    H229104   1.629   2.972   1.231  0.6660  0.5250 -1.5777
 9714TIP3   OH229105   5.190   5.764   0.347  0.0525  0.0378  0.3682
 9714TIP3    H129106   5.180   5.792   0.256  0.1465 -0.6378  0.1474
 9714TIP3    H229107   5.159   5.839   0.398 -0.3570  0.2840 -0.2223
 9715TIP3   OH229108   2.133   4.968   0.247 -0.5022  0.2998 -0.5914
 9715TIP3    H129109   2.188   4.991   0.173  0.9013 -0.4682  0.1584
 9715TIP3    H229110   2.177   4.893   0.287 -2.0421 -0.2637  0.1283
 9716TIP3   OH229111   6.438   4.300   5.280 -0.0484 -0.0287  0.4277
 9716TIP3    H129112   6.487   4.358   5.221  0.6572  0.6865  1.6860
 9716TIP3    H229113   6.394   4.360   5.341 -0.9925 -0.7457  0.4728
 9717TIP3   OH229114   0.366   5.521   3.172 -0.1000  0.3851  0.2175
 9717TIP3    H129115   0.380   5.501   3.080 -0.5988 -1.4599  0.5019
 9717TIP3    H229116   0.410   5.450   3.219  1.0071  1.8054  1.4675
 9718TIP3   OH229117   6.747   0.577   5.783  0.0428 -0.1448  0.0783
 9718TIP3    H129118   6.812   0.518   5.743  2.0061  0.8497  1.6373
 9718TIP3    H229119   6.744   0.551   5.875  0.4024  1.6524  0.6440
 9719TIP3   OH229120   6.475   3.454   3.587 -0.1622 -0.0216  0.2688
 9719TIP3    H129121   6.558   3.408   3.601 -1.1035 -1.7724  0.3014
 9719TIP3    H229122   6.480   3.486   3.498  0.8630  0.5692  0.5246
 9720TIP3   OH229123   3.394   6.389   1.372 -0.5478 -0.7064  0.0119
 9720TIP3    H129124   3.449   6.393   1.294  0.5407 -1.1627  0.7335
 9720TIP3    H229125   3.304   6.396   1.338 -0.0501  0.6102 -1.1442
 9721TIP3   OH229126   5.459   4.355   1.897  0.0592 -0.3008 -0.0540
 9721TIP3    H129127   5.468   4.331   1.805  0.5572  0.0317 -0.0954
 9721TIP3    H229128   5.453   4.451   1.897  0.1653 -0.2922  0.2627
 9722TIP3   OH229129   3.477   1.748   1.807 -0.1779 -0.0393 -0.5286
 9722TIP3    H129130   3.413   1.815   1.831 -0.4005 -0.0118 -1.1657
 9722TIP3    H229131   3.440   1.707   1.729  0.5135 -0.1256 -0.8177
 9723TIP3   OH229132   6.965   1.454   2.363 -0.6831 -0.2938  0.2765
 9723TIP3    H129133   6.984   1.523   2.300 -1.0347  0.1051  0.5995
 9723TIP3    H229134   6.884   1.482   2.406  0.1476  0.0225  1.7078
 9724TIP3   OH229135   6.809   4.997   0.852 -0.2045 -0.3386 -0.2206
 9724TIP3    H129136   6.873   5.061   0.822 -0.7210 -0.3873 -1.4688
 9724TIP3    H229137   6.741   5.048   0.895 -0.3004 -0.1146 -0.6431
 9725TIP3   OH229138   2.413   5.051   0.837  0.9384  0.7777 -0.0363
 9725TIP3    H129139   2.485   5.096   0.882  1.2933  0.6871 -0.5051
 9725TIP3    H229140   2.384   5.114   0.770  1.0872  0.5206 -0.3459
 9726TIP3   OH229141   0.467   2.918   4.241 -0.2466  0.0365 -0.1136
 9726TIP3    H129142   0.471   3.009   4.211  0.6970  0.1625  0.3325
 9726TIP3    H229143   0.404   2.876   4.183 -0.1770  0.8150 -0.7762
 9727TIP3   OH229144   3.545   4.028   1.847  0.8048 -0.2688 -0.2081
 9727TIP3    H129145   3.621   3.987   1.806  0.6310 -2.5382  1.5746
 9727TIP3    H229146   3.473   4.009   1.788  1.5211  2.0860 -2.0272
 9728TIP3   OH229147   6.372   2.496   4.171 -0.4539  0.5014 -0.4168
 9728TIP3    H129148   6.425   2.575   4.171 -0.3096  0.4060 -0.3134
 9728TIP3    H229149   6.339   2.490   4.261 -0.8208  0.6803 -0.5385
 9729TIP3   OH229150   0.479   1.566   3.659  0.1973  0.0404  0.1523
 9729TIP3    H129151   0.407   1.530   3.710  0.9153  0.4282  1.5058
 9729TIP3    H229152   0.489   1.506   3.585 -0.8546 -0.5672  0.4858
 9730TIP3   OH229153   7.056   5.860   4.899 -0.1453  0.2490  0.3728
 9730TIP3    H129154   7.093   5.848   4.986 -0.1662 -0.7224  0.2557
 9730TIP3    H229155   7.074   5.778   4.854  1.4378  1.3610 -1.1332
 9731TIP3   OH229156   3.416   3.926   3.131 -0.5243 -0.3778  0.1626
 9731TIP3    H129157   3.369   4.007   3.150 -1.3958 -0.9018  0.2899
 9731TIP3    H229158   3.456   3.941   3.046  0.3181  0.6139  0.7007
 9732TIP3   OH229159   5.732   1.359   0.813 -0.7113 -0.0572  0.0600
 9732TIP3    H129160   5.639   1.333   0.812 -0.6931 -0.1317  0.2733
 9732TIP3    H229161   5.760   1.344   0.903 -0.0639 -1.5767 -0.3461
 9733TIP3   OH229162   2.131   0.237   0.842 -0.1657 -0.4270  0.1045
 9733TIP3    H129163   2.209   0.208   0.889 -1.2464 -1.1320  1.5596
 9733TIP3    H229164   2.132   0.332   0.849  0.8803 -0.3859 -0.4603
 9734TIP3   OH229165   3.654   1.084   4.243 -0.4723  0.4770 -0.3949
 9734TIP3    H129166   3.573   1.084   4.293 -0.6642 -0.7568 -0.6787
 9734TIP3    H229167   3.723   1.092   4.308 -0.7843  0.5573 -0.0745
 9735TIP3   OH229168   0.758   4.268   2.252  0.3400  0.5849 -0.0867
 9735TIP3    H129169   0.715   4.216   2.321 -2.3939  1.1630 -1.2370
 9735TIP3    H229170   0.842   4.293   2.291  0.9843 -3.0213  1.2370
 9736TIP3   OH229171   5.378   5.123   5.585 -0.1043 -0.0178  0.0231
 9736TIP3    H129172   5.406   5.036   5.613 -0.3916  0.1474  0.8590
 9736TIP3    H229173   5.291   5.134   5.624 -0.2821  0.4509 -0.4884
 9737TIP3   OH229174   6.303   2.943   0.975  0.3537 -0.7398 -0.2112
 9737TIP3    H129175   6.291   2.912   0.885 -1.3297 -1.0762  0.0991
 9737TIP3    H229176   6.219   2.982   0.998  0.2037 -2.0801  1.7510
 9738TIP3   OH229177   6.220   0.530   2.609  0.0594 -0.6761  0.3864
 9738TIP3    H129178   6.308   0.568   2.599 -0.0058 -1.1111 -3.7772
 9738TIP3    H229179   6.235   0.435   2.607 -0.4481 -0.7758 -1.7126
 9739TIP3   OH229180   1.717   3.706   4.008  0.0966  0.0061  0.7346
 9739TIP3    H129181   1.663   3.783   3.988 -0.0786 -0.1518  0.6021
 9739TIP3    H229182   1.807   3.737   3.998  0.0125 -0.0247 -0.1260
 9740TIP3   OH229183   2.102   1.561   3.308 -0.2928 -0.1090  0.2026
 9740TIP3    H129184   2.149   1.586   3.229  0.2685 -0.1148  0.5287
 9740TIP3    H229185   2.086   1.644   3.354 -2.1706  0.1017 -0.7447
 9741TIP3   OH229186   5.426   1.474   5.303 -0.1747 -0.1944 -0.6500
 9741TIP3    H129187   5.406   1.548   5.246  0.1920  0.7772  0.4225
 9741TIP3    H229188   5.436   1.514   5.390  3.4890 -0.9387 -0.5697
 9742TIP3   OH229189   5.816   2.789   1.626 -0.2598 -0.0473  0.1244
 9742TIP3    H129190   5.751   2.782   1.557 -1.8432  0.6593  1.4781
 9742TIP3    H229191   5.844   2.699   1.643  0.3673 -0.1984 -1.5982
 9743TIP3   OH229192   5.751   4.358   5.866  0.2924  0.1938 -0.0751
 9743TIP3    H129193   5.753   4.385   5.958  0.8312 -0.6802  0.1804
 9743TIP3    H229194   5.806   4.422   5.822 -0.7070  1.1695  0.0385
 9744TIP3   OH229195   0.240   4.091   0.304  0.3173  0.0552  0.1413
 9744TIP3    H129196   0.173   4.030   0.273 -0.2784 -0.1425  1.7273
 9744TIP3    H229197   0.272   4.051   0.385  1.5731  0.7060 -0.0283
 9745TIP3   OH229198   1.338   0.791   2.112  0.2735 -0.0554  0.0810
 9745TIP3    H129199   1.421   0.822   2.148  0.1500 -0.0897  0.3967
 9745TIP3    H229200   1.296   0.744   2.185  0.5162 -1.0816 -0.4137
 9746TIP3   OH229201   1.369   2.697   0.358  0.6744 -0.0574  0.1426
 9746TIP3    H129202   1.417   2.633   0.411  1.9571  2.2380  1.9514
 9746TIP3    H229203   1.377   2.779   0.407 -0.9477  1.4982 -2.0221
 9747TIP3   OH229204   6.107   6.040   3.199 -0.1419  0.5280 -0.3816
 9747TIP3    H129205   6.154   6.025   3.281  0.8459  1.9133 -0.6466
 9747TIP3    H229206   6.146   5.978   3.137  1.3497  1.6073 -0.5786
 9748TIP3   OH229207   0.087   3.633   5.008 -0.6037  0.0334  0.1854
 9748TIP3    H129208   0.160   3.691   4.984 -0.1657 -0.8650 -0.6845
 9748TIP3    H229209   0.040   3.618   4.927 -0.9225 -0.5400  0.4704
 9749TIP3   OH229210   0.765   0.828   5.684  0.0888  0.4016  0.1158
 9749TIP3    H129211   0.683   0.783   5.663 -0.1750  0.8976  0.0666
 9749TIP3    H229212   0.823   0.759   5.714 -0.2905  0.0178 -0.0252
   7.20712   6.79494   5.88458   0.00000   0.00000  -2.40237   0.00000  -2.40237  -3.39746
