* GENERATED BY CHARMM-GUI (HTTP://WWW.CHARMM-GUI.ORG) V3.7 ON JUN, 13. 2026. JOB
* READ PDB, MANIPULATE STRUCTURE IF NEEDED, AND GENERATE TOPOLOGY FILE
*  DATE:     6/13/26     12: 8:32      CREATED BY USER: charmm-gui
*
       159  EXT
         1         1  GLY       N              -3.3780000000      -14.2610000000      -20.3230000000  PROA      1              97.7100000000
         2         1  GLY       HT1            -4.1544971804      -14.7017460151      -20.8562870512  PROA      1               0.0000000000
         3         1  GLY       HT2            -3.1576078815      -14.8410883536      -19.4884195951  PROA      1               0.0000000000
         4         1  GLY       HT3            -2.5358592420      -14.1928974352      -20.9294327007  PROA      1               0.0000000000
         5         1  GLY       CA             -3.7770000000      -12.9290000000      -19.8960000000  PROA      1              98.0000000000
         6         1  GLY       HA1            -4.7436885134      -13.0149343343      -19.4222569567  PROA      1               0.0000000000
         7         1  GLY       HA2            -3.8439336942      -12.3105451364      -20.7788008412  PROA      1               0.0000000000
         8         1  GLY       C              -2.8010000000      -12.2980000000      -18.9210000000  PROA      1              98.2400000000
         9         1  GLY       O              -1.9080000000      -12.9730000000      -18.4040000000  PROA      1              97.9600000000
        10         2  PRO       N              -2.8100000000      -11.0090000000      -18.5410000000  PROA      2              98.4500000000
        11         2  PRO       CD             -3.5110000000      -10.1650000000      -19.3500000000  PROA      2              94.7500000000
        12         2  PRO       HD1            -4.5991717565      -10.3515569340      -19.2301617926  PROA      2               0.0000000000
        13         2  PRO       HD2            -3.2130546826      -10.3285586244      -20.4072415151  PROA      2               0.0000000000
        14         2  PRO       CA             -1.9710000000      -10.3660000000      -17.5260000000  PROA      2              98.4700000000
        15         2  PRO       HA             -0.9282387074      -10.5537264483      -17.7259038034  PROA      2               0.0000000000
        16         2  PRO       CB             -2.3840000000       -8.8940000000      -17.6100000000  PROA      2              98.3100000000
        17         2  PRO       HB1            -1.4905261358       -8.2340020984      -17.6234845334  PROA      2               0.0000000000
        18         2  PRO       HB2            -3.0239526057       -8.6141714609      -16.7461532196  PROA      2               0.0000000000
        19         2  PRO       CG             -3.1450000000       -8.7830000000      -18.8920000000  PROA      2              96.9700000000
        20         2  PRO       HG1            -4.0655119244       -8.1813725976      -18.7338949253  PROA      2               0.0000000000
        21         2  PRO       HG2            -2.5179706168       -8.2838371501      -19.6613929756  PROA      2               0.0000000000
        22         2  PRO       C              -2.2120000000      -10.9200000000      -16.1240000000  PROA      2              98.5300000000
        23         2  PRO       O              -3.2730000000      -11.4900000000      -15.8550000000  PROA      2              98.4200000000
        24         3  GLY       N              -1.1490000000      -10.8040000000      -15.3190000000  PROA      3              98.4100000000
        25         3  GLY       HN             -0.2710974992      -10.4370305037      -15.6165872002  PROA      3               0.0000000000
        26         3  GLY       CA             -1.2630000000      -11.2310000000      -13.9340000000  PROA      3              98.3800000000
        27         3  GLY       HA1            -0.2827263552      -11.1625822949      -13.4860404532  PROA      3               0.0000000000
        28         3  GLY       HA2            -1.6028130606      -12.2560890340      -13.9318290900  PROA      3               0.0000000000
        29         3  GLY       C              -2.2330000000      -10.3890000000      -13.1270000000  PROA      3              98.5700000000
        30         3  GLY       O              -2.6720000000       -9.3310000000      -13.5820000000  PROA      3              98.4800000000
        31         4  ASP       N              -2.6250000000      -11.0010000000      -12.0000000000  PROA      4              98.1100000000
        32         4  ASP       HN             -2.3990694264      -11.9425403036      -11.7635345481  PROA      4               0.0000000000
        33         4  ASP       CA             -3.4360000000      -10.2270000000      -11.0650000000  PROA      4              98.1000000000
        34         4  ASP       HA             -4.3077061280       -9.8705241538      -11.5934098345  PROA      4               0.0000000000
        35         4  ASP       CB             -3.8530000000      -11.0900000000       -9.8730000000  PROA      4              97.9200000000
        36         4  ASP       HB1            -4.3149496027      -10.4381370792       -9.1014118954  PROA      4               0.0000000000
        37         4  ASP       HB2            -2.9493466035      -11.5755001609       -9.4471232116  PROA      4               0.0000000000
        38         4  ASP       CG             -4.8500000000      -12.1740000000      -10.2450000000  PROA      4              96.3100000000
        39         4  ASP       OD1            -5.5570000000      -12.0280000000      -11.2660000000  PROA      4              95.6800000000
        40         4  ASP       OD2            -4.9320000000      -13.1810000000       -9.5100000000  PROA      4              95.2300000000
        41         4  ASP       C              -2.6840000000       -8.9900000000      -10.5800000000  PROA      4              98.3100000000
        42         4  ASP       O              -1.4610000000       -9.0200000000      -10.4300000000  PROA      4              98.1800000000
        43         5  PRO       N              -3.2370000000       -7.9770000000      -10.3020000000  PROA      5              98.3100000000
        44         5  PRO       CD             -4.5720000000       -7.8700000000      -10.4420000000  PROA      5              97.0200000000
        45         5  PRO       HD1            -5.0804478896       -8.5372397714       -9.7144325059  PROA      5               0.0000000000
        46         5  PRO       HD2            -4.8642118788       -8.1457706531      -11.4772030681  PROA      5               0.0000000000
        47         5  PRO       CA             -2.5550000000       -6.8330000000       -9.6920000000  PROA      5              98.3000000000
        48         5  PRO       HA             -1.7529921367       -6.4916485655      -10.3266339625  PROA      5               0.0000000000
        49         5  PRO       CB             -3.6820000000       -5.8190000000       -9.4850000000  PROA      5              98.1900000000
        50         5  PRO       HB1            -3.4233888855       -4.8423934701       -9.9469908412  PROA      5               0.0000000000
        51         5  PRO       HB2            -3.8783707878       -5.6633242428       -8.4027434997  PROA      5               0.0000000000
        52         5  PRO       CG             -4.8710000000       -6.4260000000      -10.1580000000  PROA      5              97.3700000000
        53         5  PRO       HG1            -5.7603311449       -6.3473771566       -9.4967858483  PROA      5               0.0000000000
        54         5  PRO       HG2            -5.0818363120       -5.8899942148      -11.1080218097  PROA      5               0.0000000000
        55         5  PRO       C              -1.8870000000       -7.1840000000       -8.3650000000  PROA      5              98.4900000000
        56         5  PRO       O              -2.2850000000       -8.1480000000       -7.7050000000  PROA      5              98.4400000000
        57         6  GLY       N              -0.8610000000       -6.3490000000       -8.1570000000  PROA      6              98.2000000000
        58         6  GLY       HN             -0.5391440405       -5.6503298578       -8.7892246296  PROA      6               0.0000000000
        59         6  GLY       CA             -0.1980000000       -6.5280000000       -6.8750000000  PROA      6              98.1600000000
        60         6  GLY       HA1             0.6541202666       -5.8650571090       -6.8488111760  PROA      6               0.0000000000
        61         6  GLY       HA2             0.1276200295       -7.5557964143       -6.8125964166  PROA      6               0.0000000000
        62         6  GLY       C              -1.0960000000       -6.2230000000       -5.6910000000  PROA      6              98.4500000000
        63         6  GLY       O              -2.1600000000       -5.6220000000       -5.8510000000  PROA      6              98.4000000000
        64         7  SER       N              -0.6330000000       -6.6080000000       -4.5710000000  PROA      7              98.3700000000
        65         7  SER       HN              0.2193540677       -7.1159232822       -4.4737882726  PROA      7               0.0000000000
        66         7  SER       CA             -1.3750000000       -6.2990000000       -3.3530000000  PROA      7              98.3300000000
        67         7  SER       HA             -2.4140658466       -6.5382442394       -3.5240800432  PROA      7               0.0000000000
        68         7  SER       CB             -0.8310000000       -7.1060000000       -2.1730000000  PROA      7              98.0800000000
        69         7  SER       HB1            -1.5520250598       -7.0643889012       -1.3288315161  PROA      7               0.0000000000
        70         7  SER       HB2             0.1431353382       -6.6816773147       -1.8485933858  PROA      7               0.0000000000
        71         7  SER       OG             -0.6370000000       -8.4610000000       -2.5380000000  PROA      7              96.0500000000
        72         7  SER       HG1            -1.4991744592       -8.7897210380       -2.8029484497  PROA      7               0.0000000000
        73         7  SER       C              -1.3140000000       -4.8090000000       -3.0320000000  PROA      7              98.5600000000
        74         7  SER       O              -0.4240000000       -4.1020000000       -3.5080000000  PROA      7              98.5100000000
        75         8  ASP       N              -2.2150000000       -4.4920000000       -2.1780000000  PROA      8              98.4000000000
        76         8  ASP       HN             -2.9221697710       -5.1043145955       -1.8351822716  PROA      8               0.0000000000
        77         8  ASP       CA             -2.1680000000       -3.1160000000       -1.6930000000  PROA      8              98.3700000000
        78         8  ASP       HA             -2.1113088755       -2.4605607590       -2.5493603916  PROA      8               0.0000000000
        79         8  ASP       CB             -3.4120000000       -2.7980000000       -0.8610000000  PROA      8              98.0600000000
        80         8  ASP       HB1            -3.2789846053       -1.8055922365       -0.3802616769  PROA      8               0.0000000000
        81         8  ASP       HB2            -3.5254188899       -3.5727979969       -0.0732818912  PROA      8               0.0000000000
        82         8  ASP       CG             -4.6860000000       -2.7640000000       -1.6880000000  PROA      8              94.9000000000
        83         8  ASP       OD1            -4.6040000000       -2.7950000000       -2.9350000000  PROA      8              93.5500000000
        84         8  ASP       OD2            -5.7800000000       -2.7030000000       -1.0880000000  PROA      8              92.0900000000
        85         8  ASP       C              -0.9070000000       -2.8680000000       -0.8680000000  PROA      8              98.5400000000
        86         8  ASP       O              -0.3740000000       -3.7900000000       -0.2470000000  PROA      8              98.4600000000
        87         9  GLY       N              -0.4630000000       -1.5530000000       -0.8940000000  PROA      9              98.0600000000
        88         9  GLY       HN             -0.8883139679       -0.8354944013       -1.4400144998  PROA      9               0.0000000000
        89         9  GLY       CA              0.6880000000       -1.1930000000       -0.0810000000  PROA      9              98.0000000000
        90         9  GLY       HA1             0.9687258830       -0.1818286265       -0.3359762532  PROA      9               0.0000000000
        91         9  GLY       HA2             1.4896598299       -1.8746356051       -0.3239030190  PROA      9               0.0000000000
        92         9  GLY       C               0.4130000000       -1.2670000000        1.4090000000  PROA      9              98.2900000000
        93         9  GLY       O              -0.7380000000       -1.4140000000        1.8270000000  PROA      9              98.2100000000
        94        10  SER       N               1.4780000000       -1.0680000000        2.0980000000  PROA      10             98.3100000000
        95        10  SER       HN              2.3868049961       -0.9521645916        1.7053330728  PROA      10              0.0000000000
        96        10  SER       CA              1.3400000000       -1.0090000000        3.5490000000  PROA      10             98.2700000000
        97        10  SER       HA              0.7222930774       -1.8381088891        3.8607405709  PROA      10              0.0000000000
        98        10  SER       CB              2.7110000000       -1.0850000000        4.2220000000  PROA      10             98.0400000000
        99        10  SER       HB1             2.5825719015       -1.1447658834        5.3238901751  PROA      10              0.0000000000
       100        10  SER       HB2             3.3020886459       -0.1795258241        3.9671305733  PROA      10              0.0000000000
       101        10  SER       OG              3.4230000000       -2.2300000000        3.7850000000  PROA      10             95.6200000000
       102        10  SER       HG1             2.8844092523       -2.9859751321        4.0299930738  PROA      10              0.0000000000
       103        10  SER       C               0.6200000000        0.2630000000        3.9850000000  PROA      10             98.5200000000
       104        10  SER       O               0.6700000000        1.2800000000        3.2890000000  PROA      10             98.4800000000
       105        11  GLY       N              -0.2110000000        0.2170000000        5.0140000000  PROA      11             98.1200000000
       106        11  GLY       HN             -0.4193802154       -0.6385880939        5.4809449565  PROA      11              0.0000000000
       107        11  GLY       CA             -0.8770000000        1.3990000000        5.5370000000  PROA      11             98.0500000000
       108        11  GLY       HA1            -1.5545097297        1.0792347096        6.3148320463  PROA      11              0.0000000000
       109        11  GLY       HA2            -1.4278692423        1.8532630015        4.7267653609  PROA      11              0.0000000000
       110        11  GLY       C               0.0870000000        2.4210000000        6.1120000000  PROA      11             98.2900000000
       111        11  GLY       O               1.2960000000        2.1870000000        6.1510000000  PROA      11             98.1900000000
       112        12  PRO       N              -0.2120000000        3.4600000000        6.4690000000  PROA      12             98.5200000000
       113        12  PRO       CD             -1.6190000000        3.7400000000        6.5160000000  PROA      12             96.5200000000
       114        12  PRO       HD1            -2.1281795122        2.9994471122        7.1681873221  PROA      12              0.0000000000
       115        12  PRO       HD2            -2.0450515227        3.6986254762        5.4914030514  PROA      12              0.0000000000
       116        12  PRO       CA              0.6040000000        4.4980000000        7.1030000000  PROA      12             98.5500000000
       117        12  PRO       HA              1.5141810373        4.6530269017        6.5461682854  PROA      12              0.0000000000
       118        12  PRO       CB             -0.3340000000        5.7070000000        7.1450000000  PROA      12             98.4500000000
       119        12  PRO       HB1            -0.1534259571        6.3765034105        6.2771116521  PROA      12              0.0000000000
       120        12  PRO       HB2            -0.1887566933        6.2864043163        8.0816253287  PROA      12              0.0000000000
       121        12  PRO       CG             -1.7100000000        5.1250000000        7.0890000000  PROA      12             97.3700000000
       122        12  PRO       HG1            -2.1441676682        5.0831461421        8.1107832292  PROA      12              0.0000000000
       123        12  PRO       HG2            -2.3614191818        5.7567730307        6.4480552564  PROA      12              0.0000000000
       124        12  PRO       C               1.0620000000        4.1140000000        8.5080000000  PROA      12             98.7100000000
       125        12  PRO       O               0.4410000000        3.2640000000        9.1520000000  PROA      12             98.6900000000
       126        13  GLY       N               2.1370000000        4.6040000000        8.9870000000  PROA      13             98.4400000000
       127        13  GLY       HN              2.7176660097        5.1837859722        8.4228459619  PROA      13              0.0000000000
       128        13  GLY       CA              2.6340000000        4.3980000000       10.3380000000  PROA      13             98.4600000000
       129        13  GLY       HA1             3.6026074796        4.8702742651       10.4090517956  PROA      13              0.0000000000
       130        13  GLY       HA2             2.7258844997        3.3338229628       10.4972992810  PROA      13              0.0000000000
       131        13  GLY       C               1.7230000000        4.9790000000       11.4030000000  PROA      13             98.6600000000
       132        13  GLY       O               0.8310000000        5.7730000000       11.0990000000  PROA      13             98.6500000000
       133        14  ASP       N               1.7250000000        4.6960000000       12.5010000000  PROA      14             98.5500000000
       134        14  ASP       HN              2.3195643262        3.9495167321       12.7684986806  PROA      14              0.0000000000
       135        14  ASP       CA              1.0040000000        5.2230000000       13.6560000000  PROA      14             98.5300000000
       136        14  ASP       HA             -0.0457131233        5.2633811630       13.4057260272  PROA      14              0.0000000000
       137        14  ASP       CB              1.2250000000        4.3320000000       14.8790000000  PROA      14             98.3700000000
       138        14  ASP       HB1             0.8103305165        4.8414961883       15.7746204752  PROA      14              0.0000000000
       139        14  ASP       HB2             2.3160158563        4.1780237353       15.0191745097  PROA      14              0.0000000000
       140        14  ASP       CG              0.5610000000        2.9720000000       14.7500000000  PROA      14             97.2800000000
       141        14  ASP       OD1            -0.4340000000        2.8480000000       14.0030000000  PROA      14             96.5600000000
       142        14  ASP       OD2             1.0340000000        2.0170000000       15.4040000000  PROA      14             95.8200000000
       143        14  ASP       C               1.4350000000        6.6550000000       13.9660000000  PROA      14             98.6600000000
       144        14  ASP       O               2.5960000000        7.0170000000       13.7670000000  PROA      14             98.6100000000
       145        15  PRO       N               0.4190000000        7.7220000000       14.0600000000  PROA      15             98.3900000000
       146        15  PRO       CD             -0.9480000000        7.4240000000       13.9150000000  PROA      15             97.0200000000
       147        15  PRO       HD1            -1.2930123854        6.7935914013       14.7611872055  PROA      15              0.0000000000
       148        15  PRO       HD2            -1.1239712260        6.8977647107       12.9534429907  PROA      15              0.0000000000
       149        15  PRO       CA              0.7260000000        9.1130000000       14.4030000000  PROA      15             98.2400000000
       150        15  PRO       HA              1.3451819197        9.5599228861       13.6418239352  PROA      15              0.0000000000
       151        15  PRO       CB             -0.6560000000        9.7510000000       14.5590000000  PROA      15             98.0900000000
       152        15  PRO       HB1            -0.6984057284       10.7316723974       14.0388451680  PROA      15              0.0000000000
       153        15  PRO       HB2            -0.9012359418        9.9028141648       15.6317951521  PROA      15              0.0000000000
       154        15  PRO       CG             -1.6000000000        8.7770000000       13.9320000000  PROA      15             97.1800000000
       155        15  PRO       HG1            -2.5429365895        8.7344063840       14.5179609905  PROA      15              0.0000000000
       156        15  PRO       HG2            -1.8366518229        9.0951616570       12.8941835494  PROA      15              0.0000000000
       157        15  PRO       C               1.5340000000        9.2380000000       15.6930000000  PROA      15             98.2800000000
       158        15  PRO       OT1             1.8407124437        8.1794855515       16.3037983622  PROA      15              0.0000000000
       159        15  PRO       OT2             1.8531834192       10.3933423976       16.0814660723  PROA      15              0.0000000000
