Title
19927
    1ASP      N    1   1.776   1.865   0.577  0.3938 -0.3982  0.1245
    1ASP    HT1    2   1.764   1.765   0.552 -0.3486 -0.4125  0.5391
    1ASP    HT2    3   1.823   1.915   0.498 -0.4278  0.6060  0.2520
    1ASP    HT3    4   1.679   1.903   0.580  0.1356 -0.3271 -3.8430
    1ASP     CA    5   1.845   1.877   0.700  0.5087  0.5084 -0.2757
    1ASP     HA    6   1.942   1.843   0.667 -0.2510  0.3645 -2.5488
    1ASP     CB    7   1.852   2.030   0.739  0.5257  0.1186 -0.4638
    1ASP    HB1    8   1.752   2.078   0.724  1.1387  1.2898 -1.0073
    1ASP    HB2    9   1.914   2.090   0.669  0.7555  2.1458  1.3540
    1ASP     CG   10   1.898   2.071   0.879  0.6506 -0.3248 -0.9064
    1ASP    OD1   11   1.839   2.170   0.930 -0.1533  0.8756  0.5673
    1ASP    OD2   12   1.978   2.001   0.940 -0.3520  0.5050  0.4642
    1ASP      C   13   1.789   1.783   0.808 -0.0829  0.1873  0.5744
    1ASP      O   14   1.714   1.685   0.775  0.5632 -0.3047 -0.0099
    2ALA      N   15   1.827   1.787   0.931  0.1049  0.4631  0.2838
    2ALA     HN   16   1.909   1.833   0.962  1.4151 -2.6928  2.0606
    2ALA     CA   17   1.764   1.707   1.033  0.6530  0.1049  0.4718
    2ALA     HA   18   1.691   1.639   0.992  1.6354  0.2851 -1.7223
    2ALA     CB   19   1.865   1.616   1.102  0.4743  0.2300  0.5093
    2ALA    HB1   20   1.934   1.683   1.157  0.4781 -0.5368  1.4643
    2ALA    HB2   21   1.924   1.544   1.041  1.5426  0.8313  0.8094
    2ALA    HB3   22   1.813   1.549   1.174  0.6154 -0.2869  0.1316
    2ALA      C   23   1.696   1.800   1.129  0.2511  0.0653 -0.1605
    2ALA      O   24   1.761   1.892   1.182 -0.2458 -0.2331 -0.2224
    3ASP      N   25   1.566   1.791   1.165  0.0562  0.3998  0.0865
    3ASP     HN   26   1.507   1.722   1.122  0.0801  0.8288 -0.6636
    3ASP     CA   27   1.517   1.868   1.275  0.1283 -0.0726 -0.4210
    3ASP     HA   28   1.568   1.963   1.278 -0.3830  0.2442 -1.5052
    3ASP     CB   29   1.366   1.900   1.274 -0.1217 -0.8258  0.4593
    3ASP    HB1   30   1.324   1.933   1.372 -2.7194 -0.3391 -0.7205
    3ASP    HB2   31   1.306   1.813   1.239 -2.8993  1.4184 -0.7898
    3ASP     CG   32   1.321   2.013   1.178  0.0213 -0.3619 -0.2331
    3ASP    OD1   33   1.195   2.039   1.172 -0.2437  0.2203 -0.2040
    3ASP    OD2   34   1.406   2.073   1.119  0.0904 -0.2230  0.2949
    3ASP      C   35   1.524   1.801   1.408 -0.7860  0.6313 -0.1558
    3ASP      O   36   1.506   1.681   1.424  0.3265 -0.1484 -0.2327
    4GLY      N   37   1.557   1.878   1.514  0.0408  0.3263 -0.6576
    4GLY     HN   38   1.568   1.976   1.505  1.2358  0.3045  0.2711
    4GLY     CA   39   1.590   1.837   1.648  0.6542  0.3770 -0.6570
    4GLY    HA1   40   1.597   1.931   1.701  0.9082 -0.4399  0.7894
    4GLY    HA2   41   1.673   1.772   1.628  1.0230  1.5191 -3.4405
    4GLY      C   42   1.490   1.760   1.722  0.0771 -0.2514 -0.0986
    4GLY      O   43   1.377   1.754   1.676  0.0448  0.0344 -0.4975
    5PRO      N   44   1.525   1.710   1.835  0.7679 -0.9202 -0.6779
    5PRO     CD   45   1.641   1.765   1.917  0.5128  0.0680  0.4599
    5PRO    HD1   46   1.624   1.874   1.923 -3.0176 -0.1469 -2.0680
    5PRO    HD2   47   1.744   1.751   1.879  0.6231 -0.5122  0.9521
    5PRO     CA   48   1.443   1.609   1.900  0.3701  0.6497  0.0284
    5PRO     HA   49   1.406   1.534   1.831  0.3025  0.7217 -0.0137
    5PRO     CB   50   1.542   1.559   2.008  0.0395 -0.4582 -0.8702
    5PRO    HB1   51   1.615   1.485   1.969  0.6466 -0.0631 -0.5024
    5PRO    HB2   52   1.494   1.514   2.098 -1.2672 -0.0264 -1.3368
    5PRO     CG   53   1.624   1.692   2.047  0.0309  0.3848  0.0154
    5PRO    HG1   54   1.554   1.743   2.117 -0.0680 -2.6585  2.3747
    5PRO    HG2   55   1.720   1.675   2.100 -0.0617 -0.9972 -0.2189
    5PRO      C   56   1.319   1.664   1.968 -0.1365  0.3337  1.1303
    5PRO      O   57   1.269   1.595   2.053  0.3630  0.3233  0.2102
    6GLY      N   58   1.260   1.778   1.925  0.0126  0.5071 -0.1034
    6GLY     HN   59   1.298   1.820   1.843 -0.7781  2.2306  0.3613
    6GLY     CA   60   1.160   1.860   1.989  0.3044 -0.0519 -0.0960
    6GLY    HA1   61   1.077   1.791   1.984  0.4846 -0.2366 -0.5573
    6GLY    HA2   62   1.136   1.952   1.938 -0.9020  0.9871  2.1821
    6GLY      C   63   1.178   1.894   2.135  0.2336  0.1992 -0.7214
    6GLY      O   64   1.284   1.879   2.196  0.1054  0.4890  0.2913
    7ASP      N   65   1.065   1.928   2.197  0.2935  0.1540 -0.1712
    7ASP     HN   66   0.982   1.953   2.147 -0.7856 -1.1016  0.9081
    7ASP     CA   67   1.047   1.953   2.338 -0.4035 -0.5139 -0.5727
    7ASP     HA   68   1.105   2.043   2.353 -0.2122 -0.7523  0.1973
    7ASP     CB   69   0.896   1.990   2.375  0.3191  0.4117  0.3768
    7ASP    HB1   70   0.872   1.979   2.483  0.8304  0.7000  0.5269
    7ASP    HB2   71   0.840   1.923   2.308  0.6641  0.3198  0.1763
    7ASP     CG   72   0.846   2.128   2.339 -0.0217 -0.3998 -0.6701
    7ASP    OD1   73   0.741   2.169   2.401  0.3653 -0.0542  0.3963
    7ASP    OD2   74   0.900   2.202   2.248  0.1812  0.4973  0.1925
    7ASP      C   75   1.104   1.839   2.431 -0.2923 -0.7147 -0.2537
    7ASP      O   76   1.118   1.731   2.384 -0.2360  0.8343 -0.2346
    8PRO      N   77   1.143   1.864   2.557 -0.3893 -0.2910 -0.1344
    8PRO     CD   78   1.175   1.999   2.610  0.2867  0.9409 -0.7150
    8PRO    HD1   79   1.081   2.053   2.636  0.7267  1.6874 -0.6413
    8PRO    HD2   80   1.229   2.064   2.537  1.0126  1.0271 -0.1141
    8PRO     CA   81   1.178   1.764   2.653 -0.1041  0.4889 -0.3786
    8PRO     HA   82   1.257   1.703   2.612  0.9292  0.2600  1.7796
    8PRO     CB   83   1.219   1.843   2.783  0.0201  0.7379  0.6711
    8PRO    HB1   84   1.291   1.789   2.848 -0.3029  0.6299  0.9439
    8PRO    HB2   85   1.131   1.868   2.846 -0.9708 -0.2809 -0.2349
    8PRO     CG   86   1.267   1.981   2.730 -0.3545 -0.1833  0.1741
    8PRO    HG1   87   1.260   2.064   2.803  0.7529  0.2552 -0.2018
    8PRO    HG2   88   1.370   1.963   2.693 -0.3416  0.2733 -0.0153
    8PRO      C   89   1.068   1.672   2.689  0.5242  0.2838  0.2312
    8PRO      O   90   0.955   1.724   2.692  0.2834  0.5699 -0.1515
    9ASP      N   91   1.096   1.539   2.722 -0.3710  0.1117  0.4566
    9ASP     HN   92   1.191   1.509   2.720 -0.3759  0.1178  0.0858
    9ASP     CA   93   0.989   1.453   2.773  0.3310 -0.4497 -0.3116
    9ASP     HA   94   0.914   1.444   2.696  1.1046 -0.2485 -1.1034
    9ASP     CB   95   1.063   1.316   2.785  0.0279  0.4151  0.4573
    9ASP    HB1   96   1.131   1.307   2.872  1.1550  0.2186 -0.4233
    9ASP    HB2   97   1.126   1.294   2.696 -0.4840 -1.5579  0.5220
    9ASP     CG   98   0.965   1.195   2.793 -0.1035 -0.3092 -0.4839
    9ASP    OD1   99   1.011   1.081   2.826 -0.0854  0.3525 -0.4934
    9ASP    OD2  100   0.841   1.203   2.765 -0.6497  0.1251 -0.2180
    9ASP      C  101   0.917   1.495   2.899 -0.7374 -0.1212  0.0439
    9ASP      O  102   0.987   1.547   2.986 -0.3471 -0.0512  0.1705
   10ALA      N  103   0.783   1.472   2.913  0.8860 -0.3889  0.0128
   10ALA     HN  104   0.734   1.416   2.847  2.4969 -1.1677 -0.5933
   10ALA     CA  105   0.705   1.532   3.020  0.4156  0.1446 -0.1135
   10ALA     HA  106   0.736   1.479   3.109  0.2818 -1.8947 -1.2358
   10ALA     CB  107   0.719   1.680   3.055 -0.0411 -1.1819 -0.0028
   10ALA    HB1  108   0.654   1.699   3.143 -0.3729  0.4311 -0.5576
   10ALA    HB2  109   0.689   1.745   2.970 -0.5766  1.5580  2.1175
   10ALA    HB3  110   0.820   1.713   3.086  0.6863 -3.2292 -0.0702
   10ALA      C  111   0.561   1.508   2.993  0.1949 -0.1774 -0.1649
   10ALA      O  112   0.503   1.549   2.891  0.2580  0.4820  0.6110
   11GLY      N  113   0.488   1.441   3.086  0.8084 -0.0668  0.1455
   11GLY     HN  114   0.537   1.421   3.170  1.5756 -2.8203 -0.8467
   11GLY     CA  115   0.348   1.400   3.076  0.5673 -0.0742  0.3460
   11GLY    HA1  116   0.337   1.323   3.151 -0.6013  0.3426  0.6142
   11GLY    HA2  117   0.332   1.362   2.976 -2.8436 -0.8160  1.0453
   11GLY      C  118   0.247   1.500   3.105  0.3144 -0.0718 -0.0071
   11GLY    OT1  119   0.250   1.558   3.218  0.7129 -0.0486  0.0415
   11GLY    OT2  120   0.163   1.537   3.010 -0.0430 -0.5878 -0.6049
   12SOD    SOD  121   3.228   4.997   3.436 -0.1537  0.3335  0.1121
   13SOD    SOD  122   2.374   1.155   2.864 -0.0271  0.0968 -0.3783
   14SOD    SOD  123   2.832   3.256   4.006  0.5317 -0.0490 -0.9819
   15SOD    SOD  124   0.375   2.641   3.102  0.0130 -0.4440  0.3022
   16SOD    SOD  125   2.194   1.107   3.970 -0.1336  0.0772 -0.3918
   17SOD    SOD  126   3.783   0.851   3.968 -0.6105  0.5392 -0.4284
   18SOD    SOD  127   0.893   1.355   2.245  0.1205  0.1458  0.4599
   19SOD    SOD  128   0.312   1.477   1.517  0.0388 -0.1849 -0.2769
   20SOD    SOD  129   5.984   1.984   2.179  0.2315 -0.0867 -0.0798
   21SOD    SOD  130   2.807   4.115   2.531  0.1646 -0.5875 -0.4859
   22SOD    SOD  131   0.356   4.525   1.358 -0.2380  0.2201 -0.1338
   23SOD    SOD  132   0.727   0.014   1.233 -0.4697  0.3246  0.2777
   24SOD    SOD  133   2.110   1.011   0.909  0.3562  0.1463  0.3783
   25SOD    SOD  134   3.572   2.309   5.152 -0.7561  0.1427  0.1305
   26SOD    SOD  135   3.369   0.825   0.402 -0.3546  0.5424  0.0659
   27SOD    SOD  136   5.728   0.207   3.287 -0.1211  0.0782  0.1937
   28SOD    SOD  137   5.225   5.226   4.100  0.1377  0.8676  0.0666
   29SOD    SOD  138   5.297   1.053   4.217 -0.3094  0.0111 -0.6339
   30SOD    SOD  139   4.794   3.545   3.948  0.3580 -0.1867 -0.0166
   31SOD    SOD  140   0.735   2.566   2.454 -0.4239  0.3733  0.2645
   32SOD    SOD  141   2.218   4.149   2.588 -0.1580 -0.5567  0.4404
   33SOD    SOD  142   1.839   5.335   2.428  0.1525 -0.5053  0.0222
   34CLA    CLA  143   0.364   4.994   3.519  0.1405 -0.1675 -0.0350
   35CLA    CLA  144   2.258   4.411   4.036  0.6035  0.3648  0.0574
   36CLA    CLA  145   0.394   2.420   3.251 -0.3609 -0.1372  0.0478
   37CLA    CLA  146   1.066   0.592   3.184  0.0467 -0.1301 -0.2605
   38CLA    CLA  147   5.827   1.819   1.272 -0.2098  0.3553  0.3310
   39CLA    CLA  148   3.269   1.741   2.485 -0.3347 -0.1530 -0.0627
   40CLA    CLA  149   6.238   3.472   4.024 -0.0896 -0.2685 -0.3245
   41CLA    CLA  150   5.549   3.179   1.005  0.3229  0.4408 -0.3089
   42CLA    CLA  151   1.791   3.139   3.967 -0.1382 -0.4181  0.1087
   43CLA    CLA  152   3.428   0.540   3.921 -0.2352 -0.0886 -0.5248
   44CLA    CLA  153   5.588   0.365   0.332  0.0297 -0.1065 -0.0482
   45CLA    CLA  154   4.037   1.184   5.050 -0.0505 -0.3630  0.1758
   46CLA    CLA  155   3.695   1.195   1.942  0.1831  0.2635  0.0959
   47CLA    CLA  156   5.863   2.809   2.010 -0.0245 -0.2030 -0.1369
   48CLA    CLA  157   0.278   5.005   2.449  0.2117  0.1635 -0.2084
   49CLA    CLA  158   0.726   1.526   0.268 -0.0476 -0.5100  0.3446
   50CLA    CLA  159   5.478   3.049   4.923 -0.5870  0.0993 -0.1458
   51CLA    CLA  160   4.186   4.430   3.201 -0.1391  0.3849  0.1836
   52TIP3   OH2  161   3.872   5.000   4.876 -0.1070 -0.4733 -0.5951
   52TIP3    H1  162   3.892   5.083   4.833  2.7534 -1.4241 -1.3102
   52TIP3    H2  163   3.938   4.992   4.944 -1.6169 -1.2703  0.8693
   53TIP3   OH2  164   2.300   1.516   2.519  0.1454 -0.0691 -0.1328
   53TIP3    H1  165   2.377   1.547   2.472 -0.3556  1.0742 -0.2387
   53TIP3    H2  166   2.268   1.592   2.566 -0.1481 -0.8631  0.9933
   54TIP3   OH2  167   2.100   3.063   0.760  0.0300 -0.0908 -0.3382
   54TIP3    H1  168   2.106   3.058   0.855  0.6666  3.1972 -0.1095
   54TIP3    H2  169   2.183   3.028   0.729 -0.5401 -2.0502  0.1955
   55TIP3   OH2  170   5.291   0.710   4.653  0.4161  0.4047  0.2617
   55TIP3    H1  171   5.291   0.753   4.739  1.8689  1.3899 -0.1963
   55TIP3    H2  172   5.375   0.665   4.649  0.1598 -0.0177 -0.4632
   56TIP3   OH2  173   4.524   3.251   5.014  0.0861 -0.3414  0.0387
   56TIP3    H1  174   4.531   3.278   4.922 -1.1841 -0.4684 -0.1195
   56TIP3    H2  175   4.606   3.205   5.032 -0.4748 -2.1786 -1.6830
   57TIP3   OH2  176   0.724   5.498   2.719 -0.4775  0.1110  0.3459
   57TIP3    H1  177   0.637   5.496   2.679 -0.4124 -0.2310  0.2149
   57TIP3    H2  178   0.767   5.419   2.686  0.2227  0.7631 -0.3566
   58TIP3   OH2  179   4.570   1.867   2.576 -0.2682  0.5473 -0.5727
   58TIP3    H1  180   4.546   1.927   2.505  0.2193  0.3730 -0.8910
   58TIP3    H2  181   4.620   1.798   2.533 -2.0112 -0.8519 -0.4332
   59TIP3   OH2  182   4.555   4.056   4.927 -0.4961  0.5918  0.5163
   59TIP3    H1  183   4.590   3.997   4.860 -0.9089 -1.9629  2.4078
   59TIP3    H2  184   4.549   4.140   4.883  1.4496 -0.4075 -1.9442
   60TIP3   OH2  185   1.987   3.161   0.550  0.1205 -0.6076  0.1105
   60TIP3    H1  186   2.026   3.156   0.637 -0.3744 -0.6952  0.3310
   60TIP3    H2  187   2.015   3.247   0.516 -0.3248 -0.2348  0.6698
   61TIP3   OH2  188   0.237   0.986   1.261  0.8736  0.3376 -0.5766
   61TIP3    H1  189   0.166   1.041   1.228  1.6766  2.2531  0.7385
   61TIP3    H2  190   0.311   1.005   1.203  0.7015 -0.7167 -1.1768
   62TIP3   OH2  191   1.509   5.968   4.384 -0.6645  0.2645  0.2914
   62TIP3    H1  192   1.444   5.978   4.314  2.0235 -1.1125 -2.6596
   62TIP3    H2  193   1.531   5.874   4.382  1.6936  0.7468  0.8086
   63TIP3   OH2  194   2.622   0.018   0.569 -0.6081  0.1038  0.0853
   63TIP3    H1  195   2.703   0.023   0.517 -0.3714 -1.6420  0.2541
   63TIP3    H2  196   2.632   0.088   0.634  1.6930 -1.2682  1.3425
   64TIP3   OH2  197   4.516   5.182   1.649  0.0999  0.2041  0.1463
   64TIP3    H1  198   4.571   5.259   1.630  0.4140  0.1958  0.9930
   64TIP3    H2  199   4.578   5.112   1.666 -0.1706  0.1162  0.7997
   65TIP3   OH2  200   2.181   2.936   3.294  1.1302 -0.0540 -0.3681
   65TIP3    H1  201   2.243   3.000   3.258  1.4474 -0.3207 -0.3010
   65TIP3    H2  202   2.234   2.881   3.351  0.4836  0.9066  1.2161
   66TIP3   OH2  203   4.721   0.387   5.126  0.3240  0.4981  0.7307
   66TIP3    H1  204   4.630   0.417   5.128  0.0806 -0.2264  2.1590
   66TIP3    H2  205   4.754   0.415   5.041 -1.5303 -0.0938 -0.2475
   67TIP3   OH2  206   1.513   3.841   4.076  0.4111 -0.6235 -0.0317
   67TIP3    H1  207   1.495   3.750   4.053  0.4507 -0.1562 -2.0625
   67TIP3    H2  208   1.600   3.859   4.040 -0.3165  0.6847 -1.2676
   68TIP3   OH2  209   3.838   5.464   0.487 -0.3531  0.1130  0.2082
   68TIP3    H1  210   3.848   5.549   0.445 -1.4530  0.6838  1.0389
   68TIP3    H2  211   3.790   5.483   0.568  2.0671 -0.8557  1.9787
   69TIP3   OH2  212   2.999   2.611   1.471  0.1229  0.4016  0.2717
   69TIP3    H1  213   3.087   2.575   1.458 -0.2872 -0.3820 -0.4525
   69TIP3    H2  214   2.949   2.582   1.394 -0.4079  2.0285 -0.0296
   70TIP3   OH2  215   6.203   5.413   5.136 -0.5993 -0.5091  0.1300
   70TIP3    H1  216   6.249   5.480   5.084  0.3262  0.4488  2.0690
   70TIP3    H2  217   6.165   5.462   5.208  0.1154 -2.0606  1.6296
   71TIP3   OH2  218   6.158   1.929   2.026  0.0944  0.4538  0.5251
   71TIP3    H1  219   6.251   1.945   2.042  0.0723 -0.1393  1.3367
   71TIP3    H2  220   6.153   1.896   1.937  0.6945  0.2449  0.5676
   72TIP3   OH2  221   4.136   3.776   2.706 -0.1916  0.5310  0.1599
   72TIP3    H1  222   4.222   3.735   2.702  0.1537  1.3311 -1.7866
   72TIP3    H2  223   4.079   3.710   2.746  1.2070 -0.1970  1.0000
   73TIP3   OH2  224   5.164   3.410   0.021 -0.0937 -0.2604 -0.0266
   73TIP3    H1  225   5.210   3.477   0.070 -1.5939  0.2714  0.7131
   73TIP3    H2  226   5.172   3.331   0.075 -0.4305 -0.0481  0.3450
   74TIP3   OH2  227   0.186   0.780   4.716  0.4902 -0.0110  0.0599
   74TIP3    H1  228   0.129   0.786   4.793  0.1803 -4.3745  0.4226
   74TIP3    H2  229   0.266   0.738   4.748  1.4699  0.5206 -1.5488
   75TIP3   OH2  230   1.217   3.120   0.290 -0.0326  0.6588 -0.7775
   75TIP3    H1  231   1.279   3.186   0.321  0.7386 -0.5087  0.2403
   75TIP3    H2  232   1.221   3.127   0.195  1.9095  0.4164 -0.7527
   76TIP3   OH2  233   1.242   3.000   0.546  0.2376  0.0470 -0.1562
   76TIP3    H1  234   1.210   3.054   0.474 -1.6173  0.4159  0.8848
   76TIP3    H2  235   1.336   2.994   0.532 -0.1551 -0.5420 -3.0259
   77TIP3   OH2  236   4.925   0.836   1.888 -0.4321 -0.3892  0.1896
   77TIP3    H1  237   4.964   0.774   1.950  0.4299 -0.6287 -0.5691
   77TIP3    H2  238   4.955   0.806   1.803  0.6074  1.4874 -0.1617
   78TIP3   OH2  239   4.996   3.777   2.855 -0.3564  0.2694 -0.8058
   78TIP3    H1  240   5.072   3.723   2.877 -1.4883 -1.3962 -0.8439
   78TIP3    H2  241   4.960   3.737   2.776 -1.4009  0.9017 -0.6661
   79TIP3   OH2  242   2.200   0.478   3.173  0.2051  0.3096  0.2091
   79TIP3    H1  243   2.164   0.423   3.104  0.5431  1.5337 -0.9843
   79TIP3    H2  244   2.283   0.437   3.197  0.7160  0.5628 -1.0441
   80TIP3   OH2  245   1.633   4.621   1.170  0.6666  0.3188 -0.3760
   80TIP3    H1  246   1.688   4.698   1.161  0.0291  0.6959 -1.1539
   80TIP3    H2  247   1.678   4.553   1.119  1.7468 -0.1476  1.1063
   81TIP3   OH2  248   3.205   1.100   4.549 -0.2093  0.1809 -0.3387
   81TIP3    H1  249   3.164   1.021   4.513 -1.0841 -0.4979  1.9675
   81TIP3    H2  250   3.134   1.144   4.597  0.5464  1.7843 -0.6261
   82TIP3   OH2  251   2.820   5.341   4.231 -0.3449 -0.3105  0.1646
   82TIP3    H1  252   2.831   5.343   4.326 -1.7844  0.2831  0.3390
   82TIP3    H2  253   2.811   5.248   4.210 -0.0366 -0.4443  0.5958
   83TIP3   OH2  254   4.782   0.185   0.456  0.4519 -0.1566  0.6635
   83TIP3    H1  255   4.802   0.091   0.459  1.2462 -0.0862 -1.1316
   83TIP3    H2  256   4.851   0.222   0.401 -1.5644  0.9689 -1.2618
   84TIP3   OH2  257   1.227   2.445   1.440 -0.5682 -0.3366 -0.2163
   84TIP3    H1  258   1.269   2.455   1.525 -1.3914  0.5874  0.1012
   84TIP3    H2  259   1.215   2.351   1.430  1.1278 -0.5974 -0.1141
   85TIP3   OH2  260   5.796   0.593   4.656 -0.0087 -0.1687  0.6214
   85TIP3    H1  261   5.868   0.573   4.717 -0.8397  0.6767  1.9425
   85TIP3    H2  262   5.804   0.687   4.641 -0.8713 -0.0567  0.8327
   86TIP3   OH2  263   4.736   0.123   1.424  0.7456 -0.2964 -0.5949
   86TIP3    H1  264   4.693   0.207   1.436  0.8309 -0.2996 -0.2441
   86TIP3    H2  265   4.824   0.145   1.395  1.2712 -0.1955  0.9670
   87TIP3   OH2  266   3.558   5.111   4.038 -0.7833  0.4838  0.2179
   87TIP3    H1  267   3.596   5.184   3.988  0.5247 -0.6259 -0.4801
   87TIP3    H2  268   3.615   5.103   4.115 -2.3350  1.6858  1.5820
   88TIP3   OH2  269   0.884   0.381   4.216  0.3740  0.0495 -0.1517
   88TIP3    H1  270   0.908   0.363   4.307  2.9055  1.0405 -0.5336
   88TIP3    H2  271   0.849   0.470   4.218  0.3745  0.0495 -0.1414
   89TIP3   OH2  272   3.485   2.805   2.610  0.2175 -0.0839 -0.6246
   89TIP3    H1  273   3.504   2.863   2.684 -0.7233 -2.0451  1.2348
   89TIP3    H2  274   3.442   2.862   2.546  1.1862  1.6999  0.2320
   90TIP3   OH2  275   5.467   3.057   0.191 -0.2181 -0.3497 -0.3642
   90TIP3    H1  276   5.513   3.116   0.131 -0.1423 -0.3193 -0.2772
   90TIP3    H2  277   5.463   3.106   0.274  1.4927 -1.1788  0.2691
   91TIP3   OH2  278   1.765   2.095   2.029 -0.1083 -0.0338  0.0554
   91TIP3    H1  279   1.768   2.091   1.934  1.5926  0.6118  0.0407
   91TIP3    H2  280   1.672   2.092   2.051 -0.5598  0.5846 -1.6543
   92TIP3   OH2  281   2.753   3.244   1.367  0.2987 -0.2741 -0.1589
   92TIP3    H1  282   2.844   3.219   1.351  0.1085 -0.4357 -1.0264
   92TIP3    H2  283   2.745   3.245   1.462  1.2286 -0.1810 -0.0725
   93TIP3   OH2  284   5.281   4.209   3.596 -0.0221 -0.1629 -0.4365
   93TIP3    H1  285   5.373   4.188   3.616  0.0811 -1.4277 -2.0458
   93TIP3    H2  286   5.252   4.138   3.540 -1.6217  0.8706 -0.9841
   94TIP3   OH2  287   6.197   2.588   4.840  0.2517  0.0093  0.4254
   94TIP3    H1  288   6.175   2.495   4.839 -1.4054  0.3497  1.6072
   94TIP3    H2  289   6.278   2.593   4.891 -0.6641 -0.6164  2.0042
   95TIP3   OH2  290   0.887   2.776   1.724 -0.5432  0.1673  0.0127
   95TIP3    H1  291   0.947   2.701   1.727 -2.0130 -1.0453  2.0552
   95TIP3    H2  292   0.844   2.775   1.809 -1.9127  2.2929 -0.5835
   96TIP3   OH2  293   4.062   5.267   3.711 -0.1757  0.0616  0.2748
   96TIP3    H1  294   4.155   5.244   3.715 -0.3653 -0.6155  1.4163
   96TIP3    H2  295   4.035   5.245   3.622  0.5386 -0.6305  0.2185
   97TIP3   OH2  296   4.878   2.804   0.398  0.3341  0.2480  0.0321
   97TIP3    H1  297   4.883   2.783   0.304  2.3623  0.4494  0.0581
   97TIP3    H2  298   4.964   2.781   0.432 -0.3505  0.2590  1.8512
   98TIP3   OH2  299   1.463   2.811   3.148 -0.4398  0.4775 -0.4860
   98TIP3    H1  300   1.432   2.898   3.124 -0.7169  0.1230 -1.4766
   98TIP3    H2  301   1.453   2.807   3.243 -0.4353  1.5162 -0.4287
   99TIP3   OH2  302   1.163   5.852   0.438  0.1910  0.0124  0.6570
   99TIP3    H1  303   1.256   5.866   0.424  0.5479 -1.5603  1.2412
   99TIP3    H2  304   1.132   5.812   0.356  0.1141  0.1787  0.6050
  100TIP3   OH2  305   5.330   3.860   1.103  0.0402  0.2636  0.0642
  100TIP3    H1  306   5.365   3.817   1.181 -1.3537 -0.9353  0.0711
  100TIP3    H2  307   5.371   3.812   1.030  1.0454  1.1318  0.0411
  101TIP3   OH2  308   4.346   2.580   3.181 -0.3635 -0.3033  0.2577
  101TIP3    H1  309   4.357   2.507   3.120 -0.2028  1.4114 -1.8922
  101TIP3    H2  310   4.428   2.582   3.230  0.0332 -0.9807 -0.3560
  102TIP3   OH2  311   4.900   5.958   3.181  0.1655 -0.3576 -0.5568
  102TIP3    H1  312   4.845   5.910   3.119 -1.5813  0.0156  0.6295
  102TIP3    H2  313   4.870   6.048   3.175  0.7141 -0.1250  0.0701
  103TIP3   OH2  314   4.407   0.114   0.249 -0.2314  0.1310 -0.4436
  103TIP3    H1  315   4.413   0.165   0.330  0.0581  0.4809 -0.6797
  103TIP3    H2  316   4.361   0.034   0.274  2.5351 -1.2406  0.8118
  104TIP3   OH2  317   2.776   4.221   3.095  0.0575  0.1059  0.2263
  104TIP3    H1  318   2.710   4.202   3.161 -0.6899 -0.6733 -0.7332
  104TIP3    H2  319   2.859   4.193   3.135 -0.3645 -0.2219  0.8770
  105TIP3   OH2  320   0.514   3.400   3.642 -0.3357 -0.2392 -0.9221
  105TIP3    H1  321   0.489   3.489   3.666 -1.1890 -0.4515 -1.0027
  105TIP3    H2  322   0.497   3.394   3.548  1.8478  0.2030 -1.4054
  106TIP3   OH2  323   5.344   2.758   0.931 -0.1520  0.0753 -0.2866
  106TIP3    H1  324   5.411   2.824   0.911  1.5635 -1.9164 -1.5995
  106TIP3    H2  325   5.391   2.693   0.984 -0.8286 -1.6641 -1.7212
  107TIP3   OH2  326   6.109   4.210   0.872  0.4918 -0.4687  0.0257
  107TIP3    H1  327   6.119   4.244   0.783 -0.4032 -3.4717 -1.3483
  107TIP3    H2  328   6.198   4.193   0.902  0.7321 -1.0435 -0.9947
  108TIP3   OH2  329   0.636   4.247   1.100 -0.5617  0.6873  0.0922
  108TIP3    H1  330   0.631   4.154   1.081  0.3068  0.4217  1.0256
  108TIP3    H2  331   0.720   4.275   1.063 -1.8250  1.6558 -2.2409
  109TIP3   OH2  332   3.257   0.627   1.324  0.0516 -0.4674  0.0396
  109TIP3    H1  333   3.193   0.559   1.303  0.6252 -0.5525 -1.6438
  109TIP3    H2  334   3.325   0.582   1.373 -0.7962 -0.5330  1.1892
  110TIP3   OH2  335   5.222   1.940   0.685  0.1521 -0.1884  0.1516
  110TIP3    H1  336   5.283   1.927   0.758 -1.1411  1.3371  1.6129
  110TIP3    H2  337   5.167   1.862   0.686 -0.2172  0.0670  1.2239
  111TIP3   OH2  338   1.232   4.329   1.425 -0.8645 -0.0818 -0.3795
  111TIP3    H1  339   1.167   4.354   1.491 -0.3594  1.8265 -0.5707
  111TIP3    H2  340   1.228   4.233   1.424 -0.5216 -0.2363  2.7736
  112TIP3   OH2  341   1.555   3.844   1.326 -0.0784 -0.3214 -0.0555
  112TIP3    H1  342   1.472   3.890   1.333 -0.1783 -0.4705 -0.2592
  112TIP3    H2  343   1.565   3.825   1.233  0.6126  0.4735 -0.1527
  113TIP3   OH2  344   3.640   4.904   3.453 -0.5611  0.1968  0.4009
  113TIP3    H1  345   3.583   4.927   3.526 -1.5941 -0.5741 -0.1424
  113TIP3    H2  346   3.584   4.908   3.376  0.8913  2.6292 -0.6212
  114TIP3   OH2  347   2.202   5.346   0.238  0.0862  0.3458 -0.1110
  114TIP3    H1  348   2.227   5.314   0.324  0.9039  0.0987 -0.4396
  114TIP3    H2  349   2.128   5.405   0.256 -0.2230 -0.2573  0.6763
  115TIP3   OH2  350   4.650   3.385   4.039 -0.1549 -0.2708 -0.1518
  115TIP3    H1  351   4.583   3.360   3.975 -0.1344 -0.7467  0.0114
  115TIP3    H2  352   4.643   3.319   4.108 -2.7589  2.1975  2.2526
  116TIP3   OH2  353   1.418   0.034   2.743 -0.2228  0.0166 -0.4181
  116TIP3    H1  354   1.408   0.074   2.829 -1.3191  0.0334 -0.5458
  116TIP3    H2  355   1.443  -0.057   2.762  1.8207  0.5857 -0.1254
  117TIP3   OH2  356   4.039   1.532   0.416  0.1119  0.7058 -0.3625
  117TIP3    H1  357   4.078   1.494   0.338 -0.4019  0.3883 -0.4718
  117TIP3    H2  358   3.982   1.602   0.383  1.6534  2.1359 -0.1148
  118TIP3   OH2  359   2.010   5.651   2.171  0.0966 -0.4310 -0.3364
  118TIP3    H1  360   2.069   5.717   2.134 -1.9159  1.6637 -0.0253
  118TIP3    H2  361   2.064   5.603   2.234  1.7314  0.6684 -0.8398
  119TIP3   OH2  362   4.168   0.810   5.139  0.6813 -0.3589  0.5468
  119TIP3    H1  363   4.229   0.859   5.194  1.4826 -0.1660 -0.4756
  119TIP3    H2  364   4.159   0.863   5.060 -0.5911 -0.5384  0.5391
  120TIP3   OH2  365   1.873   2.435   2.633 -0.4077  0.5158 -0.1089
  120TIP3    H1  366   1.863   2.361   2.693 -0.7730  0.4572 -0.2385
  120TIP3    H2  367   1.924   2.401   2.560 -1.0207  0.2425 -0.4177
  121TIP3   OH2  368   3.469   4.509   1.094 -0.8202 -0.1129 -0.3909
  121TIP3    H1  369   3.495   4.562   1.018  0.6684  0.8154  0.7102
  121TIP3    H2  370   3.498   4.421   1.073  2.8136  0.7245  0.4527
  122TIP3   OH2  371   6.230   4.465   1.288  0.3396 -0.7444  0.1070
  122TIP3    H1  372   6.170   4.390   1.296  1.7153 -1.7865  1.2218
  122TIP3    H2  373   6.233   4.483   1.194 -1.0009 -1.2465 -0.0624
  123TIP3   OH2  374   2.636   5.730   3.205 -0.4969  0.4902  0.2115
  123TIP3    H1  375   2.650   5.660   3.269  0.9487  1.6261  1.2039
  123TIP3    H2  376   2.552   5.770   3.231  0.8481  2.0255  2.5531
  124TIP3   OH2  377   1.534   0.317   3.901 -0.3006  0.4567 -0.2455
  124TIP3    H1  378   1.614   0.276   3.869 -0.0826 -0.6617  1.5920
  124TIP3    H2  379   1.516   0.386   3.838  0.5646 -1.0216 -2.2381
  125TIP3   OH2  380   2.509   1.099   0.792 -0.1529 -0.4716 -0.5486
  125TIP3    H1  381   2.527   1.149   0.871  1.6009  0.1820 -1.2999
  125TIP3    H2  382   2.596   1.073   0.760 -0.7669 -0.2804 -2.5060
  126TIP3   OH2  383   5.303   5.174   0.439 -0.3010  0.1861 -0.1630
  126TIP3    H1  384   5.299   5.087   0.479  0.9870  0.2672  0.1915
  126TIP3    H2  385   5.301   5.234   0.514 -1.2517  0.4696 -0.4095
  127TIP3   OH2  386   5.644   4.783   3.279  0.3356 -0.2050 -0.3974
  127TIP3    H1  387   5.721   4.839   3.273 -0.2696  0.8580  1.0526
  127TIP3    H2  388   5.576   4.839   3.317 -0.6759 -1.5745 -0.0812
  128TIP3   OH2  389   1.632   5.599   0.770  0.6014 -0.4591 -0.1689
  128TIP3    H1  390   1.581   5.677   0.752 -0.3982 -0.8820  0.7309
  128TIP3    H2  391   1.568   5.528   0.773  1.2930 -1.0753  0.5522
  129TIP3   OH2  392   2.570   1.255   0.035 -0.0630  0.4255 -0.0477
  129TIP3    H1  393   2.549   1.299   0.118  0.7704  0.3130  0.2351
  129TIP3    H2  394   2.554   1.163   0.052 -0.7600  0.4983 -0.2981
  130TIP3   OH2  395   3.531   4.130   4.001 -1.0248 -0.1750 -0.3433
  130TIP3    H1  396   3.501   4.040   3.991 -2.8027  0.4173 -0.7836
  130TIP3    H2  397   3.506   4.172   3.918 -0.8775  0.8831  0.1346
  131TIP3   OH2  398   4.871   5.591   2.218 -0.2318  0.2335  0.1414
  131TIP3    H1  399   4.844   5.602   2.127 -0.4125  0.6035  0.2396
  131TIP3    H2  400   4.821   5.515   2.249  1.2843 -1.1704 -0.6401
  132TIP3   OH2  401   1.324   2.706   0.536  0.2565  0.6511 -0.6175
  132TIP3    H1  402   1.410   2.735   0.565  1.2677 -2.2749 -0.3149
  132TIP3    H2  403   1.264   2.775   0.565  2.2078  1.7188  1.1824
  133TIP3   OH2  404   2.400   0.136   4.949 -0.4160 -0.4000 -0.4656
  133TIP3    H1  405   2.410   0.054   4.902 -1.0000 -0.5248 -0.3743
  133TIP3    H2  406   2.429   0.203   4.887  0.2852 -0.6856 -0.4602
  134TIP3   OH2  407  -0.014   2.840   2.595 -0.4319 -0.3641  0.0562
  134TIP3    H1  408   0.029   2.923   2.577 -0.8824  0.2318  1.6113
  134TIP3    H2  409   0.043   2.797   2.659  0.0641 -1.5219 -1.0915
  135TIP3   OH2  410   2.028   1.868   5.063  0.1488  0.1391  0.3136
  135TIP3    H1  411   2.012   1.930   4.992  1.1333 -0.1187 -0.1419
  135TIP3    H2  412   1.947   1.816   5.068 -0.9056  1.7759  1.0568
  136TIP3   OH2  413   2.532   1.622   2.393 -0.6653  0.4619  0.0128
  136TIP3    H1  414   2.619   1.619   2.433 -0.8918 -1.4663  0.4521
  136TIP3    H2  415   2.533   1.551   2.328 -1.2504  1.7337 -1.4418
  137TIP3   OH2  416   5.169   2.679   2.949  0.2468  0.1153 -0.0626
  137TIP3    H1  417   5.176   2.650   2.858 -0.9145  2.4860 -0.9837
  137TIP3    H2  418   5.131   2.767   2.943 -2.3561 -0.6684  2.8564
  138TIP3   OH2  419   3.190   4.091   2.536 -0.1162  0.0761 -0.0970
  138TIP3    H1  420   3.238   4.125   2.611 -0.5116  2.1521 -0.7103
  138TIP3    H2  421   3.101   4.126   2.547 -0.9746 -2.0120 -0.0332
  139TIP3   OH2  422   4.151   3.028   0.338  0.8538 -0.1143 -0.2737
  139TIP3    H1  423   4.154   3.118   0.372  0.3471  0.7438 -2.3447
  139TIP3    H2  424   4.059   3.014   0.315  1.0222 -0.9808 -0.4581
  140TIP3   OH2  425   1.473   0.990   2.838  0.1355  0.4293  0.2072
  140TIP3    H1  426   1.387   1.009   2.876  0.3008  1.5038  0.0797
  140TIP3    H2  427   1.460   1.001   2.744 -0.4269 -2.8157 -0.2291
  141TIP3   OH2  428   4.847   3.144   2.207 -0.1351  0.2857 -0.0525
  141TIP3    H1  429   4.826   3.091   2.130 -0.2118 -1.5009  1.1430
  141TIP3    H2  430   4.890   3.222   2.171  1.0271 -1.0876 -1.8361
  142TIP3   OH2  431   3.266   2.203   3.557  0.3321  0.3971 -0.1980
  142TIP3    H1  432   3.234   2.168   3.475  0.0327  1.9267 -0.7713
  142TIP3    H2  433   3.358   2.225   3.540  0.4604  0.0919  0.0868
  143TIP3   OH2  434   4.341   5.073   0.943 -0.2041 -0.3149 -0.2193
  143TIP3    H1  435   4.393   5.096   1.020 -1.1852 -2.5098  1.2008
  143TIP3    H2  436   4.263   5.128   0.950 -0.5293 -0.8603  0.7036
  144TIP3   OH2  437   3.299   5.744   3.423  0.3576  0.0019  0.2135
  144TIP3    H1  438   3.205   5.737   3.440  0.2005  1.0814 -0.1342
  144TIP3    H2  439   3.305   5.779   3.334  1.0794  0.7084  0.5354
  145TIP3   OH2  440   0.873   1.621   5.057 -0.0475 -0.5104  0.2711
  145TIP3    H1  441   0.911   1.538   5.087 -0.1780 -0.6939 -0.0554
  145TIP3    H2  442   0.870   1.676   5.135  2.9314  0.3296 -0.0841
  146TIP3   OH2  443   3.729   4.024   2.080  0.3504 -0.0358 -0.1140
  146TIP3    H1  444   3.709   4.024   2.173 -2.3905  0.5907 -0.6231
  146TIP3    H2  445   3.668   4.087   2.041 -1.2866 -2.9231 -2.7695
  147TIP3   OH2  446   6.102   3.641   1.946 -0.2111 -0.3692  0.2934
  147TIP3    H1  447   6.095   3.545   1.949 -0.2104 -0.3600  0.7653
  147TIP3    H2  448   6.169   3.661   2.012 -1.4290  0.0690  1.4607
  148TIP3   OH2  449   4.845   5.905   4.746 -0.8530  0.3881  0.1520
  148TIP3    H1  450   4.845   5.850   4.825 -1.2693  0.9882  0.5795
  148TIP3    H2  451   4.902   5.979   4.767  1.0807 -0.6769 -1.0289
  149TIP3   OH2  452   3.880   5.104   3.857  0.3920  0.1186  0.0046
  149TIP3    H1  453   3.943   5.133   3.792  0.7697  1.6171  0.9938
  149TIP3    H2  454   3.869   5.179   3.915 -0.1944 -1.0515  1.4715
  150TIP3   OH2  455   1.546   5.573   0.068 -0.2879  0.2600  0.1669
  150TIP3    H1  456   1.610   5.551   0.000 -1.3801  0.3528 -0.9451
  150TIP3    H2  457   1.585   5.542   0.149  0.3779 -1.3056 -0.7018
  151TIP3   OH2  458   3.815   0.954   4.347  0.0759  0.2345  0.1398
  151TIP3    H1  459   3.828   0.977   4.439 -0.0104 -1.7174  0.6713
  151TIP3    H2  460   3.779   1.033   4.308  1.7787  1.7163  1.3723
  152TIP3   OH2  461   0.128   0.055   2.485 -0.9124  0.5264  0.2986
  152TIP3    H1  462   0.211   0.052   2.436  0.0388  1.4928  1.7495
  152TIP3    H2  463   0.133  -0.020   2.544 -1.3645  0.2374 -0.0277
  153TIP3   OH2  464   3.062   0.471   1.207  0.4919 -0.6927  0.0949
  153TIP3    H1  465   3.018   0.429   1.133  0.3789 -1.4050  0.5546
  153TIP3    H2  466   2.995   0.527   1.247  0.6354 -0.0750 -0.5055
  154TIP3   OH2  467   0.780   4.066   5.074 -0.5836  0.0609  0.1914
  154TIP3    H1  468   0.758   4.056   5.167 -1.5176  0.2814  0.0014
  154TIP3    H2  469   0.708   4.023   5.028  0.3810 -0.9681 -0.4274
  155TIP3   OH2  470   4.213   0.031   4.910 -0.2000  0.2916 -0.2477
  155TIP3    H1  471   4.135   0.059   4.957 -0.9475  0.7681 -1.7469
  155TIP3    H2  472   4.231  -0.057   4.944 -2.1360 -0.3511 -0.7831
  156TIP3   OH2  473   5.126   2.669   3.400  0.4776 -0.1829  0.3216
  156TIP3    H1  474   5.093   2.627   3.321  1.1193  0.0810 -0.1000
  156TIP3    H2  475   5.214   2.634   3.411  1.3659  1.6220 -0.5252
  157TIP3   OH2  476   2.115   5.213   3.550 -0.4995 -0.7810  0.2107
  157TIP3    H1  477   2.130   5.238   3.459 -0.9217  0.8591  0.5654
  157TIP3    H2  478   2.019   5.210   3.559 -0.8158  4.6408  1.8979
  158TIP3   OH2  479   0.167   1.153   3.974 -0.2275 -0.1524  0.7248
  158TIP3    H1  480   0.139   1.062   3.964 -0.9560  0.0173  1.0947
  158TIP3    H2  481   0.094   1.204   3.938  0.9495  0.2757 -1.1642
  159TIP3   OH2  482   2.288   5.490   2.766  0.3740 -0.0607  0.2448
  159TIP3    H1  483   2.310   5.415   2.712  0.8907 -0.1126  0.5181
  159TIP3    H2  484   2.197   5.510   2.745  0.2110 -0.8133  0.2331
  160TIP3   OH2  485   2.540   1.581   3.022  0.1533 -0.1224  0.5588
  160TIP3    H1  486   2.531   1.575   3.117  0.0066 -0.7451  0.5119
  160TIP3    H2  487   2.547   1.490   2.993  1.5127  0.1099  0.0928
  161TIP3   OH2  488   4.867   3.251   1.628 -0.0089 -0.4763 -0.1140
  161TIP3    H1  489   4.787   3.206   1.599  0.1214 -0.8471  0.0944
  161TIP3    H2  490   4.926   3.180   1.653 -0.4788 -0.1789  2.0805
  162TIP3   OH2  491   4.505   3.274   2.309  0.3204  0.2830 -0.2720
  162TIP3    H1  492   4.544   3.193   2.341 -0.3248  0.1974  0.3057
  162TIP3    H2  493   4.418   3.249   2.278  0.5832  0.5333 -1.2534
  163TIP3   OH2  494   5.355   0.548   1.354  0.2942 -0.2147  0.1974
  163TIP3    H1  495   5.347   0.643   1.341  0.8807 -0.2495 -0.4243
  163TIP3    H2  496   5.439   0.525   1.316  0.4393 -0.8973  0.9012
  164TIP3   OH2  497   2.269   4.968   4.201  0.3088  0.2904  0.1264
  164TIP3    H1  498   2.192   5.021   4.222  0.9248  0.7229  1.4397
  164TIP3    H2  499   2.319   4.965   4.283  2.9589  2.0956 -1.2446
  165TIP3   OH2  500   6.118   3.018   3.552 -0.1847 -0.0105  0.0541
  165TIP3    H1  501   6.119   2.940   3.607 -1.6198 -1.1728 -1.5019
  165TIP3    H2  502   6.195   3.009   3.496  0.1228  0.1303  0.4503
  166TIP3   OH2  503   2.021   5.513   0.345  0.3655  0.9044 -0.1985
  166TIP3    H1  504   1.946   5.483   0.397  0.0278  0.8168 -0.7334
  166TIP3    H2  505   2.061   5.581   0.399  1.9151 -1.3047  1.6485
  167TIP3   OH2  506   5.410   3.931   2.183  0.1368  0.0079  0.1591
  167TIP3    H1  507   5.415   3.841   2.153  1.6336 -0.5279  1.7959
  167TIP3    H2  508   5.497   3.949   2.220 -0.7323  1.4311  1.6800
  168TIP3   OH2  509   1.544   0.732   1.207 -0.5262 -0.0376  0.0573
  168TIP3    H1  510   1.525   0.743   1.300 -1.9141 -2.2787  0.0903
  168TIP3    H2  511   1.463   0.757   1.162 -1.0130 -2.0746 -0.2980
  169TIP3   OH2  512   3.267   4.931   4.721 -0.3095  0.2192  0.0510
  169TIP3    H1  513   3.182   4.930   4.764 -0.1681 -0.3776  0.3320
  169TIP3    H2  514   3.248   4.949   4.629 -0.6725  0.7864  0.2341
  170TIP3   OH2  515   4.030   5.244   0.420  0.4867  0.0295  0.3429
  170TIP3    H1  516   4.059   5.265   0.331  3.8457 -0.0169  1.2730
  170TIP3    H2  517   3.973   5.317   0.444  1.0407  1.0392 -1.2103
  171TIP3   OH2  518   4.228   5.035   3.827 -0.3778 -0.3198 -0.1862
  171TIP3    H1  519   4.299   5.063   3.768 -0.7743 -0.3327 -0.6783
  171TIP3    H2  520   4.268   5.033   3.914  0.0446  0.3486 -0.3588
  172TIP3   OH2  521   1.162   1.152   4.842 -0.0048 -0.3327  0.1652
  172TIP3    H1  522   1.239   1.184   4.888 -0.8610  0.4740  1.1055
  172TIP3    H2  523   1.104   1.229   4.836 -1.8977 -1.5148  1.9895
  173TIP3   OH2  524   1.869   5.357   3.572  1.1814  0.7630 -0.3170
  173TIP3    H1  525   1.848   5.381   3.663 -1.4522 -0.9777 -0.3358
  173TIP3    H2  526   1.784   5.354   3.528  2.2892  0.4982 -2.5772
  174TIP3   OH2  527   5.871   5.531   0.964  0.8742 -0.3758 -0.0759
  174TIP3    H1  528   5.934   5.601   0.948  0.5833 -0.2227 -0.5851
  174TIP3    H2  529   5.866   5.483   0.881 -0.8839  0.6058 -0.5963
  175TIP3   OH2  530   3.257   0.960   2.474  0.0393 -0.5224  0.7208
  175TIP3    H1  531   3.342   0.995   2.502  1.0863 -1.3073 -1.3076
  175TIP3    H2  532   3.278   0.881   2.425 -1.6807  0.2526 -1.4644
  176TIP3   OH2  533   3.547   0.526   0.718 -0.0155 -0.3852  0.4563
  176TIP3    H1  534   3.549   0.431   0.709 -0.3127 -0.2925 -0.8618
  176TIP3    H2  535   3.639   0.551   0.729  0.0269 -0.8440  1.2356
  177TIP3   OH2  536   2.437   4.868   1.837 -0.4081 -0.7873 -0.3444
  177TIP3    H1  537   2.392   4.827   1.911 -0.1826 -0.5053 -0.0473
  177TIP3    H2  538   2.530   4.858   1.858 -0.3370 -0.9631 -0.7335
  178TIP3   OH2  539   0.848   1.978   2.778 -0.5297  0.1199  0.1503
  178TIP3    H1  540   0.879   1.992   2.868  1.3667 -0.6819 -0.3259
  178TIP3    H2  541   0.902   1.906   2.745 -2.3095 -0.7030 -1.1201
  179TIP3   OH2  542   2.403   2.506   3.801 -0.1540 -0.1128  0.0191
  179TIP3    H1  543   2.406   2.601   3.804  0.3620 -0.1321  0.1905
  179TIP3    H2  544   2.356   2.486   3.720 -0.7951  0.2872  0.2857
  180TIP3   OH2  545   3.475   5.664   2.860  0.1572 -0.6141 -0.1449
  180TIP3    H1  546   3.495   5.714   2.939 -2.9792 -0.6555  0.8306
  180TIP3    H2  547   3.479   5.572   2.887  2.6902 -0.8573 -1.0876
  181TIP3   OH2  548   0.419   0.557   1.183 -0.1920 -0.0311 -0.3658
  181TIP3    H1  549   0.390   0.467   1.166  2.1225 -0.8067 -0.5711
  181TIP3    H2  550   0.513   0.549   1.196 -0.1241  2.2229  0.9162
  182TIP3   OH2  551   0.487   1.399   3.727 -0.2817  0.0302  0.2245
  182TIP3    H1  552   0.406   1.361   3.693  0.7597 -1.8868 -0.2222
  182TIP3    H2  553   0.488   1.374   3.819 -0.7557  1.0985  0.5362
  183TIP3   OH2  554   0.720   5.779   1.822 -0.3905 -0.0183  0.3244
  183TIP3    H1  555   0.805   5.790   1.866  0.1551 -0.4390 -0.5901
  183TIP3    H2  556   0.743   5.755   1.732 -1.4866 -0.1670  0.0735
  184TIP3   OH2  557   1.189   1.282   1.048 -0.3373  0.1367 -0.2094
  184TIP3    H1  558   1.275   1.289   1.007 -1.6824  0.0700 -3.3506
  184TIP3    H2  559   1.173   1.188   1.055 -0.0430  0.1467  0.7050
  185TIP3   OH2  560   2.312   1.243   3.238  0.1907 -0.4954 -0.0619
  185TIP3    H1  561   2.376   1.229   3.169  0.9210 -0.5716  0.6071
  185TIP3    H2  562   2.317   1.163   3.291  0.3738 -0.0291  0.6406
  186TIP3   OH2  563   5.783   4.336   2.928  0.0584  0.1626 -0.0543
  186TIP3    H1  564   5.814   4.360   3.016  0.3743 -1.9250  0.4607
  186TIP3    H2  565   5.696   4.375   2.922 -1.2421 -2.0370  2.4107
  187TIP3   OH2  566   0.356   1.888   3.425 -0.6287 -0.0326 -0.2057
  187TIP3    H1  567   0.387   1.948   3.493  0.4186  0.7499 -1.3264
  187TIP3    H2  568   0.357   1.802   3.467  0.5347  0.3483  0.6037
  188TIP3   OH2  569   0.458   2.537   4.623  0.5545 -0.6074 -0.0759
  188TIP3    H1  570   0.437   2.609   4.564  1.9637 -0.7023 -0.7394
  188TIP3    H2  571   0.428   2.459   4.577 -0.8045 -0.4964  0.5628
  189TIP3   OH2  572   4.801   0.890   3.707 -1.0181  0.6552  0.4264
  189TIP3    H1  573   4.849   0.955   3.758  0.9433 -0.1512 -0.3119
  189TIP3    H2  574   4.712   0.926   3.701 -0.5342  2.2268  1.7985
  190TIP3   OH2  575   0.538   4.909   1.614 -0.4617  0.6906 -0.2551
  190TIP3    H1  576   0.457   4.873   1.578  0.7328 -1.7104 -0.7715
  190TIP3    H2  577   0.567   4.843   1.678  0.8312  1.7396  0.2943
  191TIP3   OH2  578   4.093   4.417   1.738  0.5647 -0.1090  0.5510
  191TIP3    H1  579   4.036   4.431   1.663 -0.3589 -2.3589  0.7577
  191TIP3    H2  580   4.094   4.322   1.750  1.9769  0.0827  2.4020
  192TIP3   OH2  581   0.039   4.565   0.194  0.2951 -0.1332  0.5409
  192TIP3    H1  582   0.024   4.559   0.288 -2.4120 -0.4864  0.1901
  192TIP3    H2  583  -0.004   4.488   0.158 -1.6258  1.5945 -1.1724
  193TIP3   OH2  584   0.160   1.113   4.903  0.7707 -0.1472 -0.5768
  193TIP3    H1  585   0.193   1.076   4.985  0.1935 -0.7574 -0.6163
  193TIP3    H2  586   0.216   1.076   4.835 -0.0023 -1.2305 -0.6497
  194TIP3   OH2  587   2.141   5.726   0.101 -0.1118  0.1524 -0.2073
  194TIP3    H1  588   2.157   5.780   0.178 -0.6839  0.5235 -0.3395
  194TIP3    H2  589   2.048   5.738   0.082  0.1635  0.6068 -1.3689
  195TIP3   OH2  590   1.150   4.601   3.195  0.5732  0.2485  0.5676
  195TIP3    H1  591   1.151   4.531   3.129 -0.5020  0.7105  0.0332
  195TIP3    H2  592   1.238   4.600   3.232  0.6753 -1.1611  0.3324
  196TIP3   OH2  593   5.127   3.593   2.428 -0.2046  0.3387 -0.0780
  196TIP3    H1  594   5.053   3.536   2.407  0.1162  0.1385 -0.6856
  196TIP3    H2  595   5.163   3.617   2.342  1.9122 -1.4820  0.2380
  197TIP3   OH2  596   3.836   2.518   4.040 -0.6409  0.3805 -0.3876
  197TIP3    H1  597   3.869   2.590   3.987  0.3752  0.1732 -0.0594
  197TIP3    H2  598   3.859   2.439   3.991  0.8613  0.1556  0.6214
  198TIP3   OH2  599   5.395   0.841   1.228 -0.1659 -0.4577  0.5084
  198TIP3    H1  600   5.312   0.880   1.201  0.5375  0.4696 -0.3840
  198TIP3    H2  601   5.433   0.906   1.287  0.8549  0.0895 -0.7123
  199TIP3   OH2  602   5.876   0.591   3.935  0.1551  0.3867  0.4162
  199TIP3    H1  603   5.907   0.504   3.960  1.2097  0.6544  0.0579
  199TIP3    H2  604   5.821   0.618   4.009 -0.0735 -0.5103  0.5980
  200TIP3   OH2  605   4.016   3.525   1.565  0.2657 -0.3161 -0.2853
  200TIP3    H1  606   4.050   3.609   1.597 -1.8561  0.7204 -0.5451
  200TIP3    H2  607   4.081   3.495   1.502  1.1636  1.0428 -0.0524
  201TIP3   OH2  608   1.899   0.562   4.949 -0.2598  0.0760  0.1456
  201TIP3    H1  609   1.949   0.536   5.026  1.4977  0.6842 -0.7262
  201TIP3    H2  610   1.899   0.484   4.893 -0.1843  0.1195  0.0858
  202TIP3   OH2  611   1.204   3.308   2.887  0.0150 -0.8559 -0.5653
  202TIP3    H1  612   1.140   3.236   2.883 -3.9488  2.1582  1.4264
  202TIP3    H2  613   1.188   3.349   2.972  3.9053  0.9252 -0.5277
  203TIP3   OH2  614   0.824   4.028   4.429 -0.1124  0.1809 -0.1956
  203TIP3    H1  615   0.806   4.117   4.459  0.4588  1.1617 -2.5790
  203TIP3    H2  616   0.804   3.973   4.505 -2.5687  2.1178  0.7080
  204TIP3   OH2  617   1.401   3.543   4.944 -0.0811  0.8785  0.7273
  204TIP3    H1  618   1.307   3.530   4.955 -0.3282  1.5634 -0.4682
  204TIP3    H2  619   1.436   3.541   5.034 -1.1594  0.1983  1.1529
  205TIP3   OH2  620   4.178   2.818   3.179  0.2792  0.4078  0.6681
  205TIP3    H1  621   4.210   2.826   3.269  1.3519  0.5410  0.2864
  205TIP3    H2  622   4.220   2.738   3.146  0.9976  1.1069 -0.1548
  206TIP3   OH2  623   4.025   0.699   0.416 -0.3827 -0.1214 -0.2082
  206TIP3    H1  624   3.971   0.775   0.395 -0.4351 -0.1182 -0.0634
  206TIP3    H2  625   3.963   0.635   0.450  0.0173  0.8584  2.6261
  207TIP3   OH2  626   5.531   4.359   2.154 -0.0480  0.6438  0.0638
  207TIP3    H1  627   5.623   4.355   2.127 -0.1154 -4.5067 -0.2934
  207TIP3    H2  628   5.482   4.350   2.072 -0.9371  2.4377  0.3511
  208TIP3   OH2  629   2.210   1.353   4.995 -0.4513  0.1426 -0.1587
  208TIP3    H1  630   2.267   1.393   5.060 -1.0211  0.1885  0.3135
  208TIP3    H2  631   2.152   1.424   4.967 -0.0914  0.1724 -0.8551
  209TIP3   OH2  632   1.684   4.546   3.142  0.4764 -0.1684 -0.2877
  209TIP3    H1  633   1.616   4.604   3.107 -0.4648 -1.3964 -0.5562
  209TIP3    H2  634   1.683   4.564   3.236 -1.0616 -0.9858 -0.1122
  210TIP3   OH2  635   0.050   1.762   3.461  0.7478 -0.6300  0.2208
  210TIP3    H1  636   0.023   1.835   3.516  2.9288  0.1674  0.3223
  210TIP3    H2  637   0.119   1.799   3.405 -0.5180 -1.7225 -2.1966
  211TIP3   OH2  638   5.793   1.222   2.371  0.1639  0.1320 -0.0486
  211TIP3    H1  639   5.833   1.139   2.344  1.6542  1.1962 -1.2653
  211TIP3    H2  640   5.836   1.288   2.317 -1.2429  1.6783  0.6491
  212TIP3   OH2  641   0.871   0.805   3.098  0.1791  0.1087 -0.3040
  212TIP3    H1  642   0.907   0.800   3.010  1.5964 -0.6891  0.2939
  212TIP3    H2  643   0.917   0.737   3.147 -1.8298 -0.6591  0.6309
  213TIP3   OH2  644   1.758   4.071   3.976 -0.1481  0.2463  0.4362
  213TIP3    H1  645   1.834   4.124   3.950 -0.3600 -0.2337 -1.3091
  213TIP3    H2  646   1.704   4.131   4.028  0.3796  1.2655 -0.1458
  214TIP3   OH2  647   2.137   5.607   2.998  0.0365 -0.4764  0.2397
  214TIP3    H1  648   2.109   5.626   2.909 -1.3552 -0.3928  0.6605
  214TIP3    H2  649   2.113   5.515   3.012 -1.7816  0.0892  1.1991
  215TIP3   OH2  650   5.918   3.423   0.723 -0.3535 -0.0540  0.2768
  215TIP3    H1  651   5.861   3.459   0.791 -2.5768 -0.1469 -1.3925
  215TIP3    H2  652   5.878   3.452   0.641  1.3127 -1.2359 -1.0266
  216TIP3   OH2  653   0.203   0.265   4.318 -0.4535  0.1497  0.2041
  216TIP3    H1  654   0.279   0.323   4.308  0.9161 -1.2034  2.0142
  216TIP3    H2  655   0.230   0.183   4.276 -1.6590  0.1911 -0.7183
  217TIP3   OH2  656   0.303   2.972   4.539 -0.1523 -0.2244 -0.5488
  217TIP3    H1  657   0.292   3.003   4.629 -0.1420  0.5791 -0.8221
  217TIP3    H2  658   0.295   3.050   4.485 -0.2289 -0.7113 -1.2578
  218TIP3   OH2  659   0.554   0.318   4.791  0.3015 -0.1983  0.0433
  218TIP3    H1  660   0.518   0.283   4.710  1.6198 -0.0407 -0.6384
  218TIP3    H2  661   0.493   0.289   4.859  0.6291 -2.7655 -0.6503
  219TIP3   OH2  662   4.286   5.404   0.911 -0.7391  0.1871 -0.2150
  219TIP3    H1  663   4.209   5.462   0.903 -2.3367 -1.5870  1.3034
  219TIP3    H2  664   4.292   5.361   0.826  0.1007  2.0385 -1.1607
  220TIP3   OH2  665   4.905   3.918   3.173 -0.5763 -0.2299  0.1089
  220TIP3    H1  666   4.900   3.989   3.237 -0.2684 -0.7032  0.6673
  220TIP3    H2  667   4.989   3.932   3.128 -0.5833 -0.1542  0.1198
  221TIP3   OH2  668   3.837   3.299   3.156 -0.9603 -0.2808 -0.2986
  221TIP3    H1  669   3.749   3.325   3.127 -0.3807  0.6635 -1.3482
  221TIP3    H2  670   3.851   3.213   3.116 -0.9805  0.0791 -1.1034
  222TIP3   OH2  671   5.420   2.312   4.808 -0.4405 -0.5156  0.1052
  222TIP3    H1  672   5.508   2.279   4.789  0.8027  1.6544  1.5978
  222TIP3    H2  673   5.394   2.356   4.728  0.1466 -0.5623 -0.1201
  223TIP3   OH2  674   5.941   2.573   5.005  0.0240 -0.2192 -0.2317
  223TIP3    H1  675   5.940   2.667   5.024  0.4796  0.0063 -1.2768
  223TIP3    H2  676   6.021   2.559   4.954 -1.0108 -0.8132 -1.7731
  224TIP3   OH2  677   3.602   0.792   5.125  0.2776 -0.0529 -0.1997
  224TIP3    H1  678   3.600   0.884   5.152  0.9934 -0.3204  0.8180
  224TIP3    H2  679   3.651   0.748   5.194  1.6379 -0.8919 -1.6398
  225TIP3   OH2  680   4.904   2.071   4.281  0.8334  0.0756 -0.0066
  225TIP3    H1  681   4.861   2.026   4.209 -1.7563  0.1865  1.3613
  225TIP3    H2  682   4.889   2.014   4.357 -3.2839  3.3137  1.9866
  226TIP3   OH2  683   0.072   0.240   0.127  0.0177 -0.1701 -0.0953
  226TIP3    H1  684  -0.013   0.222   0.168 -0.2101 -0.1425 -0.5414
  226TIP3    H2  685   0.063   0.204   0.038 -0.2480  1.6087 -0.8381
  227TIP3   OH2  686   4.092   1.071   1.919  0.2129 -0.1339  0.7724
  227TIP3    H1  687   4.027   1.027   1.974 -0.9626  0.5761 -0.0060
  227TIP3    H2  688   4.091   1.021   1.837 -1.0125  1.1943 -0.0566
  228TIP3   OH2  689   4.463   5.388   3.437 -0.1659 -0.2319  0.3961
  228TIP3    H1  690   4.529   5.353   3.378  0.6917 -0.6104  1.5430
  228TIP3    H2  691   4.435   5.470   3.396 -0.4373 -1.0460 -1.0996
  229TIP3   OH2  692   0.591   2.146   2.029 -0.3510 -0.2036  0.0288
  229TIP3    H1  693   0.563   2.070   2.079 -1.7972 -0.4948 -1.1312
  229TIP3    H2  694   0.517   2.207   2.035  1.2457  1.6912  1.9391
  230TIP3   OH2  695   4.154   2.851   1.186  0.2804 -0.0062  0.2287
  230TIP3    H1  696   4.209   2.779   1.154 -2.4165 -1.4244 -1.6286
  230TIP3    H2  697   4.169   2.922   1.123  0.5375 -0.0903  0.1915
  231TIP3   OH2  698   2.391   2.472   3.309  0.0528 -0.1681 -0.5448
  231TIP3    H1  699   2.452   2.495   3.239  2.5348  0.4617  1.6394
  231TIP3    H2  700   2.363   2.557   3.344 -0.2808 -0.4631 -0.0876
  232TIP3   OH2  701   5.168   3.132   2.314 -0.0162 -0.2339  0.1224
  232TIP3    H1  702   5.229   3.166   2.378  1.4506 -1.3831 -0.5851
  232TIP3    H2  703   5.196   3.171   2.231  0.1690 -1.2177 -0.3010
  233TIP3   OH2  704   4.871   5.252   0.192 -0.4523 -0.0364  0.1223
  233TIP3    H1  705   4.925   5.323   0.157  0.8836 -0.6991  0.7482
  233TIP3    H2  706   4.807   5.295   0.247  1.0503  0.6507  1.4053
  234TIP3   OH2  707   6.045   2.788   3.070  0.1998 -0.2557  0.0628
  234TIP3    H1  708   5.965   2.744   3.042 -0.3726  0.7180  0.0967
  234TIP3    H2  709   6.079   2.828   2.990 -0.0885  0.4456  0.2750
  235TIP3   OH2  710   2.165   5.291   2.151 -0.3625 -0.0647  0.3981
  235TIP3    H1  711   2.220   5.364   2.180  0.3456 -0.6670  0.6018
  235TIP3    H2  712   2.186   5.280   2.059 -2.5626  1.8028 -0.4182
  236TIP3   OH2  713   0.917   1.760   0.718  0.2025 -0.3924  0.0217
  236TIP3    H1  714   0.974   1.722   0.651  0.9246 -0.4431  0.6611
  236TIP3    H2  715   0.955   1.845   0.737 -0.0889 -0.3149  0.2653
  237TIP3   OH2  716   0.517   5.286   3.192  0.3689 -0.2712 -0.4756
  237TIP3    H1  717   0.549   5.226   3.125  0.7554  0.6965 -1.1891
  237TIP3    H2  718   0.470   5.353   3.143 -1.8371 -1.0597  0.4716
  238TIP3   OH2  719   1.973   0.579   2.705 -0.6038  0.1093 -0.6927
  238TIP3    H1  720   1.997   0.555   2.615 -0.1585 -0.6557 -0.3796
  238TIP3    H2  721   2.056   0.590   2.750 -0.8232  0.7795 -0.4373
  239TIP3   OH2  722   1.812   2.717   2.143 -0.4599 -0.0260  0.2805
  239TIP3    H1  723   1.756   2.713   2.066  0.3794 -0.5449 -0.3311
  239TIP3    H2  724   1.786   2.796   2.189 -0.7680  0.4516 -0.7029
  240TIP3   OH2  725   2.050   2.789   1.358 -0.2192 -0.3183 -0.4860
  240TIP3    H1  726   2.012   2.872   1.388  0.1568 -0.1582 -0.4519
  240TIP3    H2  727   2.076   2.744   1.439  0.3907 -0.0803 -0.5482
  241TIP3   OH2  728   5.230   1.409   0.877  0.4001 -0.4641  0.4483
  241TIP3    H1  729   5.190   1.468   0.941 -3.3574 -1.3545 -0.8502
  241TIP3    H2  730   5.263   1.336   0.929  2.3103  1.2158  1.7567
  242TIP3   OH2  731   6.252   4.950   4.565 -0.2924  0.1768 -0.2575
  242TIP3    H1  732   6.274   4.858   4.549  0.7176  0.4876 -0.7286
  242TIP3    H2  733   6.210   4.978   4.483  0.2418  0.3837 -0.4618
  243TIP3   OH2  734   2.831   5.790   4.644  0.0941  0.8242 -0.5369
  243TIP3    H1  735   2.912   5.775   4.691  0.5326  1.8024 -0.9516
  243TIP3    H2  736   2.773   5.719   4.673  1.3019 -0.2927 -0.7489
  244TIP3   OH2  737   5.261   4.638   2.019  0.0071  0.1069  0.2687
  244TIP3    H1  738   5.238   4.730   2.029  1.0091  0.4772 -0.5859
  244TIP3    H2  739   5.273   4.606   2.109 -2.2449  0.2628  0.6692
  245TIP3   OH2  740   1.137   5.575   2.649 -0.3437  0.3305  0.3623
  245TIP3    H1  741   1.200   5.647   2.650 -0.1841  0.1918  0.3208
  245TIP3    H2  742   1.098   5.577   2.562 -1.6711  1.5138  0.9289
  246TIP3   OH2  743   6.081   5.319   3.305  0.1052  0.1558 -0.3313
  246TIP3    H1  744   6.155   5.377   3.324  1.0104 -1.0676  0.0107
  246TIP3    H2  745   6.115   5.259   3.238 -0.6158 -0.3424 -0.2555
  247TIP3   OH2  746   1.197   4.979   3.381 -0.0025 -0.5170  0.4091
  247TIP3    H1  747   1.196   4.889   3.347  1.2463 -0.9043  1.3636
  247TIP3    H2  748   1.171   4.970   3.472  3.0292 -0.3287  1.3733
  248TIP3   OH2  749   1.965   0.052   0.253  0.3374  0.4916 -0.1905
  248TIP3    H1  750   1.896   0.030   0.317  1.0590 -1.0041  0.1193
  248TIP3    H2  751   1.962  -0.020   0.190 -0.3501  1.9432 -1.8764
  249TIP3   OH2  752   1.301   3.316   2.593  0.2013  0.0557 -0.1845
  249TIP3    H1  753   1.279   3.314   2.687 -1.3564 -0.8566 -0.5151
  249TIP3    H2  754   1.351   3.236   2.579  0.2673  0.0924 -0.1559
  250TIP3   OH2  755   5.173   0.376   2.236 -0.2257 -0.3952 -0.2170
  250TIP3    H1  756   5.213   0.292   2.215  0.3115 -0.2807  0.3132
  250TIP3    H2  757   5.247   0.432   2.260 -0.5979  0.1712 -0.3769
  251TIP3   OH2  758   0.994   4.646   2.643 -0.5024 -0.0781 -0.9513
  251TIP3    H1  759   1.014   4.566   2.692 -0.7580  1.7064  2.2964
  251TIP3    H2  760   0.906   4.633   2.610 -0.4654 -1.2109 -0.6433
  252TIP3   OH2  761   2.072   3.720   0.648  0.0881  0.0556  0.1827
  252TIP3    H1  762   2.102   3.789   0.588 -0.6035 -0.8550 -1.2710
  252TIP3    H2  763   2.010   3.764   0.706  0.4525  0.8802 -0.0325
  253TIP3   OH2  764   5.649   2.470   0.312 -0.2415  0.7040 -0.0042
  253TIP3    H1  765   5.744   2.483   0.309  0.2402 -1.9140 -3.6030
  253TIP3    H2  766   5.616   2.518   0.237 -1.2666 -0.8038 -0.5701
  254TIP3   OH2  767   0.865   2.932   0.773 -0.1798  0.0552  0.1628
  254TIP3    H1  768   0.845   2.903   0.862  1.1022 -0.7944  0.2032
  254TIP3    H2  769   0.961   2.941   0.771 -0.0915 -0.8158 -1.3576
  255TIP3   OH2  770   5.998   5.512   1.229 -0.1177 -0.2441 -0.3631
  255TIP3    H1  771   5.948   5.525   1.148 -0.0836 -0.0325 -0.3505
  255TIP3    H2  772   5.931   5.503   1.297 -0.1497 -0.5505 -0.4315
  256TIP3   OH2  773   5.759   2.904   0.324 -0.2088 -0.4191 -0.8721
  256TIP3    H1  774   5.668   2.925   0.303 -0.2436 -0.4382 -0.7425
  256TIP3    H2  775   5.753   2.843   0.397 -0.0459  1.3935  0.7374
  257TIP3   OH2  776   5.151   4.277   0.952 -0.1732  0.6193 -0.2074
  257TIP3    H1  777   5.182   4.186   0.943  0.2780  0.9660 -2.6108
  257TIP3    H2  778   5.231   4.329   0.960 -0.3018  1.0506 -1.5709
  258TIP3   OH2  779   1.345   4.479   3.041 -0.1840  0.3363 -0.1231
  258TIP3    H1  780   1.296   4.434   2.973  0.7713 -1.0965  0.0830
  258TIP3    H2  781   1.405   4.537   2.994 -1.6942  1.7274 -0.3849
  259TIP3   OH2  782   5.879   1.442   4.025  0.6023  0.0957 -0.0868
  259TIP3    H1  783   5.889   1.441   3.930  1.3277 -2.2640 -0.0552
  259TIP3    H2  784   5.962   1.405   4.058  0.6451  1.4764  1.5242
  260TIP3   OH2  785   1.132   2.745   0.061  0.0528 -0.4187  0.4701
  260TIP3    H1  786   1.120   2.814  -0.005 -0.2635  1.3821  2.2800
  260TIP3    H2  787   1.047   2.740   0.105  0.6103 -0.6321  1.5537
  261TIP3   OH2  788   4.247   5.476   1.679  0.5565 -0.3737 -0.4257
  261TIP3    H1  789   4.195   5.396   1.690 -0.1645  0.1204 -0.1757
  261TIP3    H2  790   4.288   5.466   1.593  1.3903 -1.5247  0.0809
  262TIP3   OH2  791   5.522   4.323   4.674  0.8304 -0.5133  0.0617
  262TIP3    H1  792   5.498   4.386   4.607  2.2595  0.9349  0.8331
  262TIP3    H2  793   5.616   4.310   4.661  1.0714 -0.4272  1.5787
  263TIP3   OH2  794   0.288   5.532   2.739  0.0512 -0.0321 -0.1539
  263TIP3    H1  795   0.348   5.504   2.670 -0.0946 -1.3551  0.2320
  263TIP3    H2  796   0.312   5.623   2.756  0.5023  0.1287 -1.5060
  264TIP3   OH2  797   4.942   4.508   0.450 -0.2055  0.5719 -0.0745
  264TIP3    H1  798   4.875   4.548   0.395  0.1097  0.8052 -0.2931
  264TIP3    H2  799   4.894   4.449   0.507 -0.4520 -0.3593 -1.2079
  265TIP3   OH2  800   0.621   2.718   2.301 -0.3534  0.1899  0.3576
  265TIP3    H1  801   0.600   2.809   2.278  0.2700  0.4000  0.6107
  265TIP3    H2  802   0.604   2.669   2.221  0.1181  0.6561 -0.0330
  266TIP3   OH2  803   3.664   0.060   1.669 -0.5065  0.3332 -0.1420
  266TIP3    H1  804   3.668   0.146   1.629  0.1932  0.1606 -0.4511
  266TIP3    H2  805   3.657  -0.001   1.596 -2.0979  0.1746  0.1032
  267TIP3   OH2  806   0.345   0.362   2.322  0.4780 -0.1676  0.6579
  267TIP3    H1  807   0.348   0.446   2.368  0.6880  0.9497 -1.2891
  267TIP3    H2  808   0.252   0.346   2.307  0.4271 -0.3970  1.1695
  268TIP3   OH2  809   5.324   0.136   2.196  0.3993  0.1954  0.1448
  268TIP3    H1  810   5.348   0.145   2.288 -1.1796  0.3129  0.5740
  268TIP3    H2  811   5.315   0.041   2.183 -0.5574  0.2306  0.4572
  269TIP3   OH2  812   3.368   4.673   3.246 -0.0360 -0.5489  0.2647
  269TIP3    H1  813   3.279   4.639   3.241  0.2062 -1.0784 -0.6899
  269TIP3    H2  814   3.358   4.765   3.273 -1.0521  0.1464 -2.2252
  270TIP3   OH2  815   2.390   4.373   4.744  0.0729  0.5380 -0.2272
  270TIP3    H1  816   2.330   4.308   4.709 -1.3200  1.4211  0.4407
  270TIP3    H2  817   2.334   4.439   4.785  1.4321  2.0749 -0.7077
  271TIP3   OH2  818   1.026   3.242   1.900  0.1487 -0.5156 -0.0028
  271TIP3    H1  819   1.049   3.245   1.992 -2.2176 -0.5610  0.6679
  271TIP3    H2  820   1.039   3.331   1.868 -3.8470  0.9638  1.8143
  272TIP3   OH2  821   2.619   1.271   3.390 -0.5852  0.1063  0.1624
  272TIP3    H1  822   2.535   1.309   3.366 -0.3839  0.8568  0.6155
  272TIP3    H2  823   2.616   1.265   3.486  0.1429  0.7921  0.2380
  273TIP3   OH2  824   3.925   0.362   2.544 -0.6385  0.1412  0.0394
  273TIP3    H1  825   3.979   0.374   2.466  0.2900  0.8841  0.7657
  273TIP3    H2  826   3.843   0.326   2.511 -0.6755  1.4311 -1.4325
  274TIP3   OH2  827   2.389   5.668   2.184  0.3604 -0.4854 -0.1987
  274TIP3    H1  828   2.337   5.660   2.104  1.4114 -0.1240 -0.9391
  274TIP3    H2  829   2.427   5.756   2.178  0.8380 -0.6487  0.4651
  275TIP3   OH2  830   0.109   3.318   5.031  0.5954  0.2384 -0.2134
  275TIP3    H1  831   0.120   3.223   5.032  0.2331  0.1887  0.7407
  275TIP3    H2  832   0.171   3.350   5.096  1.3696  0.7524 -1.1807
  276TIP3   OH2  833   4.128   0.470   4.182  0.0281  0.0653  0.0003
  276TIP3    H1  834   4.063   0.430   4.240 -0.1453  0.7023  0.2497
  276TIP3    H2  835   4.097   0.450   4.094  0.5786 -1.3862  0.0943
  277TIP3   OH2  836   0.075   5.788   0.534  0.5213 -0.3305 -0.6418
  277TIP3    H1  837   0.062   5.875   0.573 -0.7969 -0.3024 -1.1026
  277TIP3    H2  838   0.004   5.780   0.471  0.4008 -1.9126 -0.3256
  278TIP3   OH2  839   2.153   5.295   3.304 -0.5495 -0.2308 -0.6132
  278TIP3    H1  840   2.092   5.308   3.231 -0.0264 -0.3054 -1.0760
  278TIP3    H2  841   2.207   5.374   3.303 -0.0017 -0.6037 -0.8421
  279TIP3   OH2  842   5.855   1.764   2.522  0.0278  0.4720  0.0700
  279TIP3    H1  843   5.813   1.777   2.608  0.2814 -0.2604  0.3087
  279TIP3    H2  844   5.819   1.682   2.490  0.8122  0.1445  0.0019
  280TIP3   OH2  845   5.505   3.619   3.916  0.5913  0.8000  0.1821
  280TIP3    H1  846   5.437   3.685   3.901  0.6070  0.8100  0.1554
  280TIP3    H2  847   5.527   3.628   4.009 -0.4840 -0.1933  0.5578
  281TIP3   OH2  848   2.712   2.576   0.434  0.3016  0.4106  0.5470
  281TIP3    H1  849   2.768   2.629   0.377  0.1735  1.5615  1.4387
  281TIP3    H2  850   2.729   2.611   0.522 -0.8629 -0.0908  0.9829
  282TIP3   OH2  851   3.685   0.703   4.889  0.2630  0.2726  0.2095
  282TIP3    H1  852   3.629   0.627   4.902  0.2567 -0.1571 -1.9277
  282TIP3    H2  853   3.681   0.750   4.972  0.4205 -2.1261  1.6705
  283TIP3   OH2  854   5.261   0.193   4.441 -1.1749 -0.2773  0.3523
  283TIP3    H1  855   5.243   0.157   4.528 -2.5330  1.7315  0.9860
  283TIP3    H2  856   5.249   0.120   4.381  0.1037 -1.7949  1.8577
  284TIP3   OH2  857   2.162   5.582   3.412  0.0126  0.5618 -0.1876
  284TIP3    H1  858   2.128   5.653   3.467 -0.0887  1.8601 -1.8423
  284TIP3    H2  859   2.109   5.586   3.332  0.3208 -1.1022 -0.5091
  285TIP3   OH2  860   5.503   2.108   4.076  0.0117  0.0336 -0.4998
  285TIP3    H1  861   5.493   2.108   3.980 -0.4732  2.0224 -0.4938
  285TIP3    H2  862   5.593   2.080   4.091  1.0393  2.3567 -1.7413
  286TIP3   OH2  863   0.652   3.780   1.169 -0.3397 -0.2025 -0.5924
  286TIP3    H1  864   0.650   3.698   1.119  0.1174 -1.2184  0.9925
  286TIP3    H2  865   0.698   3.758   1.250  2.7650  2.3967 -1.4555
  287TIP3   OH2  866   1.671   1.394   0.863 -0.3590  0.1622 -0.5470
  287TIP3    H1  867   1.649   1.476   0.818  0.4192  0.6418 -0.0767
  287TIP3    H2  868   1.649   1.410   0.954  1.4237  0.5035 -0.1338
  288TIP3   OH2  869   4.072   1.708   0.091  0.2741 -0.2725  0.0750
  288TIP3    H1  870   4.020   1.718   0.171  0.6140 -0.6219  0.3426
  288TIP3    H2  871   4.008   1.708   0.020 -0.0664 -0.4366  0.3808
  289TIP3   OH2  872   1.197   0.724   0.369  0.0800  0.5007  0.1566
  289TIP3    H1  873   1.223   0.633   0.382 -0.6025  0.3192  0.2978
  289TIP3    H2  874   1.101   0.721   0.363  0.1302  1.0555 -1.1563
  290TIP3   OH2  875   4.757   5.728   2.551  0.2310 -0.0682 -0.3996
  290TIP3    H1  876   4.788   5.638   2.537 -0.4169 -0.1247 -1.6210
  290TIP3    H2  877   4.770   5.771   2.466 -0.0829  0.8027 -0.0114
  291TIP3   OH2  878   5.043   2.195   3.581  0.5699  0.0725 -0.2463
  291TIP3    H1  879   4.950   2.179   3.567  0.5411  1.5791 -2.2318
  291TIP3    H2  880   5.076   2.223   3.495  2.4489  1.4460  0.8402
  292TIP3   OH2  881   0.888   5.763   4.596  0.3260  0.0119 -0.2921
  292TIP3    H1  882   0.929   5.805   4.521 -0.8396  1.0956 -0.3485
  292TIP3    H2  883   0.813   5.716   4.559  0.9400 -1.1976 -0.0695
  293TIP3   OH2  884   0.330   1.196   4.472  0.6851  0.4935  0.6752
  293TIP3    H1  885   0.319   1.174   4.380 -0.8849 -0.2032  1.0090
  293TIP3    H2  886   0.416   1.239   4.476  1.5944 -1.0728 -0.8140
  294TIP3   OH2  887   3.239   5.717   0.059  0.2644  0.0561  0.2015
  294TIP3    H1  888   3.304   5.670   0.006 -1.0887 -0.4993 -1.0205
  294TIP3    H2  889   3.287   5.791   0.096  1.0564  1.0760 -2.6356
  295TIP3   OH2  890   2.591   5.949   2.389  0.1575  0.2817  0.5307
  295TIP3    H1  891   2.532   5.945   2.464 -1.5252 -1.4288 -0.7488
  295TIP3    H2  892   2.678   5.934   2.425 -0.6420 -0.7942  2.1330
  296TIP3   OH2  893   4.469   0.598   1.565  0.0957  0.3281 -0.2889
  296TIP3    H1  894   4.464   0.507   1.537 -1.6442 -0.0094  0.8943
  296TIP3    H2  895   4.524   0.596   1.643 -0.3489  0.2022  0.0232
  297TIP3   OH2  896   3.245   5.400   0.246 -0.9255 -0.2629 -0.3234
  297TIP3    H1  897   3.272   5.481   0.203  1.2543 -0.5853  0.3427
  297TIP3    H2  898   3.274   5.410   0.337 -0.6057 -1.7737 -0.2345
  298TIP3   OH2  899   1.730   5.637   3.661  0.0436  0.1569  0.0352
  298TIP3    H1  900   1.725   5.711   3.722 -0.8529  0.1226  0.0221
  298TIP3    H2  901   1.816   5.645   3.621  1.8955 -1.3998  3.2836
  299TIP3   OH2  902   2.240   2.230   1.444  0.2716  0.5272  0.2933
  299TIP3    H1  903   2.321   2.216   1.493  0.7176 -3.9388 -1.2288
  299TIP3    H2  904   2.263   2.207   1.354 -2.1610  1.5465 -0.6645
  300TIP3   OH2  905   4.775   0.121   4.930  0.0576  0.2262 -0.1703
  300TIP3    H1  906   4.704   0.085   4.877  0.4251 -1.3593  0.3479
  300TIP3    H2  907   4.734   0.190   4.982 -0.6032  0.8418 -1.4672
  301TIP3   OH2  908   6.264   5.533   1.337  0.1909 -0.1074  0.2134
  301TIP3    H1  909   6.271   5.574   1.423  0.5152  2.0602 -0.7562
  301TIP3    H2  910   6.174   5.550   1.310 -0.4775 -2.4252  0.8460
  302TIP3   OH2  911   1.625   3.503   0.505 -0.0695  0.1629 -0.5455
  302TIP3    H1  912   1.608   3.586   0.549 -0.4166  0.7023 -1.6426
  302TIP3    H2  913   1.573   3.439   0.553  0.3682  0.5457  0.4439
  303TIP3   OH2  914   6.219   0.937   4.111 -0.0167  0.0865  0.0400
  303TIP3    H1  915   6.252   1.019   4.075  0.8783 -0.9001 -1.4880
  303TIP3    H2  916   6.268   0.925   4.192 -1.5052  1.9542  1.3070
  304TIP3   OH2  917   1.268   5.002   2.124  0.1787 -0.0560 -0.5211
  304TIP3    H1  918   1.216   5.007   2.044 -0.3409  1.0900 -0.1305
  304TIP3    H2  919   1.278   4.908   2.140 -0.8301 -0.2979 -1.2143
  305TIP3   OH2  920   5.898   5.038   4.420  0.2437 -0.6757  0.2974
  305TIP3    H1  921   5.835   5.101   4.384  0.3042 -0.1198  1.1355
  305TIP3    H2  922   5.976   5.048   4.366 -0.4548 -1.5515 -0.9151
  306TIP3   OH2  923   2.605   1.429   2.222 -0.3233  0.2210 -0.3064
  306TIP3    H1  924   2.686   1.386   2.251  0.3594  0.1514 -2.1673
  306TIP3    H2  925   2.632   1.483   2.147 -1.8692  0.8233 -0.4695
  307TIP3   OH2  926   1.624   3.113   2.732 -0.4672  0.4253 -0.1797
  307TIP3    H1  927   1.557   3.136   2.796 -0.4085  0.7964 -0.2490
  307TIP3    H2  928   1.678   3.047   2.776 -0.3139  0.8181  0.2298
  308TIP3   OH2  929   3.669   1.821   1.531  0.0186 -0.0218 -0.3628
  308TIP3    H1  930   3.693   1.834   1.439  0.7202  0.4321 -0.1265
  308TIP3    H2  931   3.753   1.822   1.578 -0.2897 -0.8146  0.2183
  309TIP3   OH2  932   3.073   3.512   3.715  0.2134 -0.9656 -0.2604
  309TIP3    H1  933   3.006   3.478   3.774 -0.7034  1.0968  0.0006
  309TIP3    H2  934   3.155   3.475   3.747 -0.5110 -1.5375  1.0096
  310TIP3   OH2  935   4.168   2.741   0.114 -0.0581  0.5086  0.5240
  310TIP3    H1  936   4.092   2.785   0.153 -1.2662 -0.8575 -0.1855
  310TIP3    H2  937   4.167   2.654   0.154 -0.9583 -0.7192 -1.9733
  311TIP3   OH2  938   4.301   0.246   2.606  0.3778  0.1584 -0.0402
  311TIP3    H1  939   4.341   0.330   2.631 -0.6959 -0.3537  4.0485
  311TIP3    H2  940   4.328   0.185   2.675 -3.7579 -1.2856  0.5509
  312TIP3   OH2  941   0.539   2.519   2.602  0.0237  0.3322  0.4605
  312TIP3    H1  942   0.503   2.605   2.579  1.1901  0.6667 -0.1802
  312TIP3    H2  943   0.547   2.522   2.697  0.4548  1.1016  0.4079
  313TIP3   OH2  944   4.989   2.211   4.697 -0.0567  0.3065  0.4608
  313TIP3    H1  945   5.039   2.187   4.775  0.4956 -2.5180 -0.6256
  313TIP3    H2  946   5.052   2.203   4.625 -1.6151 -1.9201 -0.7758
  314TIP3   OH2  947   5.125   2.374   3.913 -0.2347  0.0770  0.4164
  314TIP3    H1  948   5.201   2.431   3.901  0.8839 -1.5672 -0.6657
  314TIP3    H2  949   5.070   2.390   3.837 -0.1469  0.0257  0.3426
  315TIP3   OH2  950   2.347   5.762   2.996 -0.5488 -0.2352  0.5914
  315TIP3    H1  951   2.385   5.771   3.084  0.9768 -1.9484  0.1976
  315TIP3    H2  952   2.264   5.717   3.010 -0.4436 -0.2489  1.1908
  316TIP3   OH2  953   1.981   4.681   1.133  0.3815 -0.1824  0.5949
  316TIP3    H1  954   1.908   4.741   1.149  1.0052  0.8862 -0.4076
  316TIP3    H2  955   1.996   4.687   1.039 -0.4210 -2.9874  0.2152
  317TIP3   OH2  956   1.394   2.853   0.158  0.1090 -0.2102  0.0939
  317TIP3    H1  957   1.307   2.827   0.189  0.4928 -0.3623  1.0739
  317TIP3    H2  958   1.444   2.870   0.237  0.8054  0.4686 -0.4748
  318TIP3   OH2  959   0.279   4.940   0.921  0.0759  0.0544 -0.1701
  318TIP3    H1  960   0.335   4.917   0.995 -0.3368 -1.1089 -0.2059
  318TIP3    H2  961   0.321   5.017   0.883  1.6535 -0.7696 -0.1902
  319TIP3   OH2  962   4.396   5.983   4.678 -0.9217  0.4342 -0.1622
  319TIP3    H1  963   4.446   5.968   4.758  0.0462  2.4451 -0.3314
  319TIP3    H2  964   4.457   5.962   4.608 -2.0291 -2.1387 -0.4572
  320TIP3   OH2  965   4.776   2.222   0.342  0.4392 -0.2950  0.2088
  320TIP3    H1  966   4.778   2.223   0.246 -0.6683  4.1036  0.0344
  320TIP3    H2  967   4.711   2.155   0.363 -0.4833 -0.2551 -2.1922
  321TIP3   OH2  968   2.975   2.452   0.645 -0.2741  0.0945  0.3063
  321TIP3    H1  969   2.989   2.445   0.740 -0.1513 -0.7355  0.2319
  321TIP3    H2  970   3.040   2.393   0.606 -0.5993  0.1090 -0.2713
  322TIP3   OH2  971   4.276   3.416   3.279 -0.1856  0.2201  0.4221
  322TIP3    H1  972   4.202   3.356   3.265 -2.0052  2.5596 -0.6571
  322TIP3    H2  973   4.285   3.419   3.375 -0.8253 -0.8295  0.5440
  323TIP3   OH2  974   2.095   1.012   1.497  0.5017  0.1956 -0.2922
  323TIP3    H1  975   2.072   0.965   1.417  1.2967  0.4700 -0.6970
  323TIP3    H2  976   2.030   0.984   1.561  0.4810 -0.8399 -0.7444
  324TIP3   OH2  977   6.177   3.800   2.323 -0.0697  0.4116 -0.2947
  324TIP3    H1  978   6.181   3.715   2.280 -0.4776  1.3472 -2.2913
  324TIP3    H2  979   6.266   3.816   2.355 -0.1272 -0.9942  0.6472
  325TIP3   OH2  980   4.276   2.825   4.396  0.2902 -0.0581  0.5149
  325TIP3    H1  981   4.283   2.742   4.348  1.2871 -0.4627  1.3375
  325TIP3    H2  982   4.329   2.887   4.345  0.3056 -0.1587  0.4077
  326TIP3   OH2  983   3.427   5.313   5.154 -0.2287  0.0935  0.7935
  326TIP3    H1  984   3.404   5.391   5.103  1.1327  0.4770  0.7117
  326TIP3    H2  985   3.376   5.243   5.115 -0.1915  0.6331 -0.2653
  327TIP3   OH2  986   3.810   3.065   2.599 -0.3163  0.9082  0.1213
  327TIP3    H1  987   3.755   3.029   2.669 -0.2295  1.6647  0.5927
  327TIP3    H2  988   3.783   3.157   2.593 -1.2509  0.5668 -1.7415
  328TIP3   OH2  989   3.073   2.591   2.720 -0.2589 -0.3340  0.9801
  328TIP3    H1  990   3.168   2.601   2.714 -0.4400  0.9702 -0.1629
  328TIP3    H2  991   3.057   2.578   2.814  1.0451 -0.7039  1.1786
  329TIP3   OH2  992   4.737   1.383   1.703  0.5670  0.3800 -0.3965
  329TIP3    H1  993   4.761   1.390   1.610 -0.5418  1.6821 -0.6177
  329TIP3    H2  994   4.663   1.443   1.713 -1.9830 -2.6233  0.4618
  330TIP3   OH2  995   1.764   3.834   2.909  0.5339 -0.1942  0.1618
  330TIP3    H1  996   1.719   3.841   2.993  0.3978  2.4505 -0.0477
  330TIP3    H2  997   1.845   3.787   2.928 -0.1766 -0.9284  1.4665
  331TIP3   OH2  998   4.541   4.210   3.592 -0.2418  0.8429  0.3922
  331TIP3    H1  999   4.477   4.172   3.652 -0.3851 -1.9245 -1.3384
  331TIP3    H2 1000   4.491   4.229   3.513  0.7970 -0.0955 -0.5205
  332TIP3   OH2 1001   0.900   5.502   0.709 -0.2622  0.0499  0.4482
  332TIP3    H1 1002   0.858   5.526   0.627 -0.1730 -2.0969 -0.2934
  332TIP3    H2 1003   0.829   5.499   0.773 -0.3348  1.7032  0.5039
  333TIP3   OH2 1004   3.673   0.127   3.229  0.3346  0.0731  0.2426
  333TIP3    H1 1005   3.611   0.120   3.302  1.3891 -2.9790  1.0013
  333TIP3    H2 1006   3.755   0.093   3.264  1.4014  0.3437 -1.8533
  334TIP3   OH2 1007   4.275   5.779   1.667 -0.5307  0.6108  0.0528
  334TIP3    H1 1008   4.182   5.801   1.673 -0.9318 -0.8710 -0.3671
  334TIP3    H2 1009   4.276   5.684   1.657  1.1384  0.1696  3.1775
  335TIP3   OH2 1010   3.689   3.773   1.953  0.1663 -0.0578 -0.5572
  335TIP3    H1 1011   3.738   3.701   1.993  0.5044  0.5082  0.0645
  335TIP3    H2 1012   3.740   3.851   1.975 -0.4996  0.4300 -0.7381
  336TIP3   OH2 1013   5.911   2.014   0.509 -0.1160  0.1216  0.0162
  336TIP3    H1 1014   5.831   1.999   0.459 -1.7366  0.3930  2.4081
  336TIP3    H2 1015   5.944   1.926   0.528 -0.7411 -0.0285  0.4092
  337TIP3   OH2 1016   1.092   3.062   2.848  0.4149  0.0721  0.0045
  337TIP3    H1 1017   1.040   3.034   2.923 -2.5075  0.9559 -1.5263
  337TIP3    H2 1018   1.064   3.004   2.777  1.3697  0.7392 -0.9515
  338TIP3   OH2 1019   0.924   1.725   1.008 -0.2965 -0.3634 -0.2214
  338TIP3    H1 1020   0.904   1.683   0.924 -1.6062 -0.7475  0.2594
  338TIP3    H2 1021   0.871   1.678   1.072 -1.2424  1.5187  0.4610
  339TIP3   OH2 1022   1.576   4.359   1.875 -0.4038 -0.9746 -0.4143
  339TIP3    H1 1023   1.600   4.451   1.885  1.8417 -1.2748 -2.2800
  339TIP3    H2 1024   1.507   4.360   1.808 -0.8779 -0.6295  0.0660
  340TIP3   OH2 1025   0.125   3.217   3.381  0.4312 -0.2663  0.2208
  340TIP3    H1 1026   0.213   3.233   3.415  0.6858 -0.3387 -0.3984
  340TIP3    H2 1027   0.067   3.266   3.440  0.6664 -2.0181  2.0281
  341TIP3   OH2 1028   3.968   4.945   1.139 -0.2545 -0.0021  0.7662
  341TIP3    H1 1029   4.037   4.883   1.162 -0.7739 -0.4809  1.0600
  341TIP3    H2 1030   4.008   5.031   1.150 -0.0281 -0.2424  2.0634
  342TIP3   OH2 1031   4.692   0.506   1.334 -0.2624  0.0585  1.0449
  342TIP3    H1 1032   4.655   0.461   1.409 -0.9653 -0.6441  0.3015
  342TIP3    H2 1033   4.783   0.523   1.357  0.0594 -1.8649  1.2955
  343TIP3   OH2 1034   5.216   4.336   2.253  0.1968  0.6343 -0.0169
  343TIP3    H1 1035   5.255   4.279   2.187  0.3611  1.4883 -0.6800
  343TIP3    H2 1036   5.284   4.399   2.274  0.1125  0.4382  0.9151
  344TIP3   OH2 1037   1.888   3.142   2.083  0.2066  0.1114  0.0323
  344TIP3    H1 1038   1.976   3.180   2.074 -0.0129  0.4735 -0.6942
  344TIP3    H2 1039   1.878   3.127   2.177  1.4430 -0.8884  0.0361
  345TIP3   OH2 1040   0.571   0.497   0.223 -0.1338 -0.1392  0.1546
  345TIP3    H1 1041   0.542   0.567   0.281  1.8293 -0.6835  1.9125
  345TIP3    H2 1042   0.620   0.437   0.280  0.0819 -1.8191 -1.6858
  346TIP3   OH2 1043   2.882   1.273   3.303 -0.7398  0.2446  0.2602
  346TIP3    H1 1044   2.799   1.268   3.351 -1.0838 -0.2248 -0.3654
  346TIP3    H2 1045   2.873   1.209   3.232 -1.1037  2.3737 -1.7417
  347TIP3   OH2 1046   0.227   2.801   3.479  0.7071 -0.4038 -0.4012
  347TIP3    H1 1047   0.259   2.718   3.445 -0.0208 -0.7451 -0.2687
  347TIP3    H2 1048   0.175   2.777   3.556 -0.5341  0.0600 -1.0672
  348TIP3   OH2 1049   1.026   3.471   0.837 -0.0983 -0.8208  0.0029
  348TIP3    H1 1050   1.080   3.468   0.916  0.4836 -0.7739 -0.3891
  348TIP3    H2 1051   1.070   3.412   0.776 -0.2021 -0.3782 -0.4980
  349TIP3   OH2 1052   1.830   0.714   2.901  0.0747 -0.4725  0.1364
  349TIP3    H1 1053   1.884   0.677   2.830  0.7162 -0.4827  0.6122
  349TIP3    H2 1054   1.740   0.706   2.870  0.4069  0.6263 -1.1904
  350TIP3   OH2 1055   2.627   5.255   2.211  0.4950  0.0295  0.1850
  350TIP3    H1 1056   2.573   5.178   2.192  0.4895  0.1328 -0.2254
  350TIP3    H2 1057   2.643   5.295   2.125  1.6579 -0.2864  0.2448
  351TIP3   OH2 1058   4.592   4.096   2.422  0.1445  0.3144 -0.1218
  351TIP3    H1 1059   4.683   4.109   2.447  0.9036 -1.1461 -1.8866
  351TIP3    H2 1060   4.549   4.179   2.442  1.6470  0.7424  1.5472
  352TIP3   OH2 1061   2.331   0.755   5.132 -0.2535 -0.0261 -0.3268
  352TIP3    H1 1062   2.398   0.736   5.198  1.6658  1.5873 -1.7047
  352TIP3    H2 1063   2.364   0.713   5.052 -1.3502  0.0608 -0.8425
  353TIP3   OH2 1064   1.908   1.026   0.369  0.4052 -0.2979 -0.0937
  353TIP3    H1 1065   1.862   0.945   0.347  0.8680 -0.5638 -0.0932
  353TIP3    H2 1066   1.989   0.997   0.411  0.7903  0.1565 -0.5158
  354TIP3   OH2 1067   5.065   4.465   2.424 -0.8084 -0.5581 -0.5473
  354TIP3    H1 1068   5.126   4.529   2.461 -0.5705 -1.5493  0.8486
  354TIP3    H2 1069   5.119   4.408   2.370 -0.7015 -0.7072 -0.2833
  355TIP3   OH2 1070   3.985   2.100   4.720  0.9013 -0.2298 -0.0296
  355TIP3    H1 1071   3.932   2.026   4.749  1.6819 -1.1560 -0.8983
  355TIP3    H2 1072   3.943   2.129   4.639 -0.3268  1.3208  1.0967
  356TIP3   OH2 1073   5.957   2.026   3.752  0.3212 -0.2383  0.0587
  356TIP3    H1 1074   5.883   2.072   3.711 -0.1308 -1.4444 -0.5171
  356TIP3    H2 1075   6.035   2.071   3.717 -0.1146  0.8280  0.4154
  357TIP3   OH2 1076   1.662   2.807   2.566  0.5196  0.3143  0.5166
  357TIP3    H1 1077   1.661   2.734   2.504  1.4198  0.1953  0.6311
  357TIP3    H2 1078   1.726   2.782   2.632 -0.0266  0.6904  1.2077
  358TIP3   OH2 1079   1.109   2.911   3.994 -0.0595 -0.4098 -0.2917
  358TIP3    H1 1080   1.051   2.846   3.957  0.8940 -0.8776 -0.9976
  358TIP3    H2 1081   1.051   2.970   4.043 -0.9758 -1.5336  0.0118
  359TIP3   OH2 1082   4.378   5.177   3.151  0.4225  0.0415  0.6863
  359TIP3    H1 1083   4.336   5.132   3.225  1.8590 -0.6720  1.1093
  359TIP3    H2 1084   4.322   5.252   3.134  0.1603  0.3537  2.6523
  360TIP3   OH2 1085   0.209   4.839   2.184 -0.3075 -0.4413  0.1326
  360TIP3    H1 1086   0.235   4.897   2.256  1.6956 -0.4391 -0.5354
  360TIP3    H2 1087   0.257   4.758   2.200 -0.2606 -0.6361 -0.9072
  361TIP3   OH2 1088   1.670   0.574   2.510  0.3306  0.2043 -0.0206
  361TIP3    H1 1089   1.748   0.590   2.457 -0.5541  1.7898 -0.9391
  361TIP3    H2 1090   1.634   0.661   2.525 -0.3292 -0.3561  1.8679
  362TIP3   OH2 1091   5.264   0.594   0.545 -0.5501 -0.0005  0.7234
  362TIP3    H1 1092   5.252   0.522   0.483  0.1546  0.5267 -0.0463
  362TIP3    H2 1093   5.192   0.654   0.527  1.5640  1.9018 -2.1102
  363TIP3   OH2 1094   4.404   5.079   1.904 -0.0098 -0.4378 -0.0944
  363TIP3    H1 1095   4.438   5.141   1.839  0.4646 -0.2422  0.3329
  363TIP3    H2 1096   4.465   5.085   1.977 -1.2948  0.4062  0.9760
  364TIP3   OH2 1097   2.313   0.943   1.719  0.6724 -0.0117  0.3370
  364TIP3    H1 1098   2.353   1.025   1.745 -4.4509  3.1093 -0.2096
  364TIP3    H2 1099   2.291   0.955   1.627 -1.7213 -1.1650  0.6805
  365TIP3   OH2 1100   4.675   1.027   4.902 -0.3174  0.0796 -0.0262
  365TIP3    H1 1101   4.720   1.016   4.819  1.1384 -1.6453  0.9265
  365TIP3    H2 1102   4.648   1.119   4.903  0.0192  0.2398 -2.1801
  366TIP3   OH2 1103   3.231   1.950   0.138  0.4837 -0.7070 -0.2290
  366TIP3    H1 1104   3.230   1.861   0.102  1.4206 -1.4320  1.3978
  366TIP3    H2 1105   3.167   1.998   0.086  1.1487 -1.8672 -2.2547
  367TIP3   OH2 1106   1.868   1.668   2.924  0.6547  0.1149  0.1145
  367TIP3    H1 1107   1.899   1.589   2.879  1.5979  0.9603 -0.7516
  367TIP3    H2 1108   1.882   1.649   3.017  0.2760 -0.9787 -0.0379
  368TIP3   OH2 1109   6.069   5.128   2.584  0.7328  0.2481 -0.0203
  368TIP3    H1 1110   6.158   5.125   2.549  0.9539  0.4024  0.5222
  368TIP3    H2 1111   6.074   5.189   2.658  0.7232 -1.5736  1.5496
  369TIP3   OH2 1112   1.783   4.303   0.783  0.2558 -0.5091 -0.1862
  369TIP3    H1 1113   1.736   4.374   0.739  1.0259  0.0645 -0.1223
  369TIP3    H2 1114   1.875   4.318   0.759  0.3883 -1.6947 -0.4446
  370TIP3   OH2 1115   4.306   1.748   4.650  0.3541  0.6126 -0.3685
  370TIP3    H1 1116   4.240   1.811   4.623  1.2859  0.8923 -2.1685
  370TIP3    H2 1117   4.325   1.698   4.571 -0.6156 -2.2228  1.0767
  371TIP3   OH2 1118   3.215   1.224   1.876 -0.1126 -1.0254  0.5867
  371TIP3    H1 1119   3.194   1.307   1.834 -0.9025 -0.8059  1.3726
  371TIP3    H2 1120   3.140   1.168   1.858 -1.6016 -0.2010  3.5254
  372TIP3   OH2 1121   0.708   0.036   1.915 -0.3169  0.2790 -0.0292
  372TIP3    H1 1122   0.687   0.123   1.948  2.3405  0.7413  0.7053
  372TIP3    H2 1123   0.770   0.053   1.843  1.7191 -0.9757  1.3298
  373TIP3   OH2 1124   3.724   0.196   3.650  0.1376  0.0702  0.0241
  373TIP3    H1 1125   3.646   0.181   3.596  0.0155  0.1785  0.1710
  373TIP3    H2 1126   3.690   0.230   3.732  0.3910  0.9249 -0.2186
  374TIP3   OH2 1127   1.776   5.469   3.939  0.4530 -0.1580 -0.3605
  374TIP3    H1 1128   1.796   5.540   3.877  0.6438 -1.6212 -2.0508
  374TIP3    H2 1129   1.686   5.446   3.921  1.0108 -1.7187 -1.3260
  375TIP3   OH2 1130   0.426   0.293   3.618 -0.1800  0.2197 -0.1115
  375TIP3    H1 1131   0.512   0.255   3.597  0.1736  0.8338  0.1761
  375TIP3    H2 1132   0.417   0.280   3.712 -1.8047 -2.6153 -0.5725
  376TIP3   OH2 1133   1.559   5.756   4.084  0.4913  0.2513 -0.6070
  376TIP3    H1 1134   1.479   5.722   4.124  0.5618 -1.3586 -1.7061
  376TIP3    H2 1135   1.624   5.687   4.099  1.2626  0.8719 -1.0397
  377TIP3   OH2 1136   2.207   5.671   4.615  0.0701 -0.2087 -0.3089
  377TIP3    H1 1137   2.260   5.711   4.684  0.3765 -1.2175  0.0630
  377TIP3    H2 1138   2.271   5.629   4.557 -0.3045 -1.9302  0.4546
  378TIP3   OH2 1139   4.664   1.312   4.717  0.1005  0.2010 -0.0700
  378TIP3    H1 1140   4.685   1.248   4.649  3.3452  0.3935  0.5539
  378TIP3    H2 1141   4.745   1.317   4.769 -0.5785  3.6369  0.8493
  379TIP3   OH2 1142   0.151   4.418   1.387 -0.4045 -0.2449  0.1621
  379TIP3    H1 1143   0.072   4.473   1.384 -1.9061 -2.3114 -0.3108
  379TIP3    H2 1144   0.124   4.341   1.437  1.2020 -1.1799 -0.3628
  380TIP3   OH2 1145   0.439   4.299   1.852 -0.0280  0.0556  0.0713
  380TIP3    H1 1146   0.429   4.232   1.920 -1.6633  0.4760  0.2954
  380TIP3    H2 1147   0.408   4.380   1.893  0.9776  0.7541 -0.5146
  381TIP3   OH2 1148   0.792   3.714   3.688 -0.2680  0.1015  0.0141
  381TIP3    H1 1149   0.867   3.765   3.720  0.5321 -0.4038 -0.9807
  381TIP3    H2 1150   0.743   3.775   3.634  0.6792 -0.1359 -1.1629
  382TIP3   OH2 1151   6.130   4.252   2.137 -0.0383  0.2117 -0.0904
  382TIP3    H1 1152   6.152   4.210   2.220  0.4451 -1.5764 -1.0696
  382TIP3    H2 1153   6.099   4.180   2.081  0.9679  1.1243 -1.9021
  383TIP3   OH2 1154   2.891   3.399   1.645 -0.1701  0.2380  0.5702
  383TIP3    H1 1155   2.899   3.434   1.556 -0.4642 -0.5239  0.2353
  383TIP3    H2 1156   2.921   3.309   1.638  1.3526  0.6136  1.5895
  384TIP3   OH2 1157   5.512   5.624   2.322 -0.4253  0.0881  0.4070
  384TIP3    H1 1158   5.517   5.531   2.299 -1.1676  0.2938 -0.7014
  384TIP3    H2 1159   5.504   5.625   2.417 -0.1711 -0.9722  0.4512
  385TIP3   OH2 1160   2.596   5.389   2.844  0.8743  0.0205  0.2161
  385TIP3    H1 1161   2.518   5.405   2.792  1.5276  0.5757 -0.6081
  385TIP3    H2 1162   2.655   5.461   2.823  1.7236 -0.5350  0.6159
  386TIP3   OH2 1163   1.733   5.937   4.616  0.3372  0.1401 -0.0390
  386TIP3    H1 1164   1.815   5.979   4.591  0.1199  0.1887 -0.6835
  386TIP3    H2 1165   1.671   5.961   4.547 -0.2571  0.2025  0.4975
  387TIP3   OH2 1166   2.313   1.386   4.599 -0.2261 -0.3122  0.3625
  387TIP3    H1 1167   2.372   1.415   4.529  1.7351  1.9631  2.7593
  387TIP3    H2 1168   2.367   1.327   4.652 -1.3543 -1.1721  0.5751
  388TIP3   OH2 1169   2.551   1.727   4.056 -0.5982 -0.3204 -0.1615
  388TIP3    H1 1170   2.534   1.747   4.148 -1.1663  0.7386 -0.4709
  388TIP3    H2 1171   2.485   1.777   4.008 -0.0220 -0.4873 -1.1695
  389TIP3   OH2 1172   1.699   2.418   1.525 -0.2662 -0.2333 -0.1149
  389TIP3    H1 1173   1.783   2.417   1.477  1.2040  3.0063  2.0828
  389TIP3    H2 1174   1.650   2.490   1.485 -1.0481 -0.5982  0.1773
  390TIP3   OH2 1175   3.599   5.686   1.212 -0.4475 -0.5709 -0.3065
  390TIP3    H1 1176   3.624   5.601   1.248  1.4635 -0.3924 -1.1054
  390TIP3    H2 1177   3.504   5.687   1.219 -0.4839 -2.5586  0.1990
  391TIP3   OH2 1178   5.559   1.482  -0.024 -0.3138  0.4805 -0.0929
  391TIP3    H1 1179   5.491   1.457   0.040  1.3266 -0.2156  1.4848
  391TIP3    H2 1180   5.622   1.532   0.027 -0.0971  2.0040 -1.7548
  392TIP3   OH2 1181   1.204   2.045   3.198  0.1782 -0.0166 -0.3809
  392TIP3    H1 1182   1.123   2.000   3.174  0.1964  1.0384 -2.6028
  392TIP3    H2 1183   1.252   1.981   3.251 -1.3308 -1.2894 -0.4889
  393TIP3   OH2 1184   3.145   0.270   3.318  0.0838 -0.1518  0.3688
  393TIP3    H1 1185   3.068   0.217   3.339  1.0619 -1.8622 -0.1785
  393TIP3    H2 1186   3.177   0.233   3.235  0.3032  1.8950 -0.5082
  394TIP3   OH2 1187   2.936   4.688   0.171 -0.2515  0.5717  0.1337
  394TIP3    H1 1188   2.854   4.733   0.152 -1.3246 -1.2952  0.0707
  394TIP3    H2 1189   2.921   4.648   0.257  0.1905 -0.6520 -0.3437
  395TIP3   OH2 1190   4.009   3.256   3.371  0.1986  0.6717 -0.0567
  395TIP3    H1 1191   4.003   3.334   3.427 -1.2942 -0.8036  1.9526
  395TIP3    H2 1192   3.968   3.284   3.289  0.0882  2.1246  0.4500
  396TIP3   OH2 1193   5.836   3.657   0.168 -0.7416 -0.2431 -0.0618
  396TIP3    H1 1194   5.924   3.681   0.200 -1.0599 -0.9974  1.5083
  396TIP3    H2 1195   5.849   3.574   0.123 -0.5495 -0.0561 -0.3506
  397TIP3   OH2 1196   4.178   5.017   3.306  0.1450 -0.1768  0.1766
  397TIP3    H1 1197   4.228   4.956   3.360  1.2135  0.0657 -0.4984
  397TIP3    H2 1198   4.087   5.000   3.329  0.4804 -1.2407  0.8210
  398TIP3   OH2 1199   0.032   4.514   2.979 -0.7090 -0.5122  0.3718
  398TIP3    H1 1200   0.091   4.525   2.905  0.3392  0.3234  1.2973
  398TIP3    H2 1201   0.051   4.588   3.037 -0.0657 -2.1580  2.4229
  399TIP3   OH2 1202   5.996   5.751   0.841 -0.6511 -0.1334  0.6309
  399TIP3    H1 1203   5.914   5.794   0.814 -0.9508 -0.5476  0.8678
  399TIP3    H2 1204   6.039   5.815   0.898 -0.4081  0.4158 -0.1624
  400TIP3   OH2 1205   5.135   0.807   2.437 -0.3106 -0.4779  0.1408
  400TIP3    H1 1206   5.197   0.878   2.429 -1.2195  0.3571  0.3105
  400TIP3    H2 1207   5.067   0.827   2.372 -0.5055 -1.2636  0.0910
  401TIP3   OH2 1208   5.990   4.911   3.105  0.8141 -0.2649 -0.0609
  401TIP3    H1 1209   5.922   4.855   3.068  1.2628 -0.8943  0.0294
  401TIP3    H2 1210   6.072   4.863   3.088  1.2172  0.3939 -0.0237
  402TIP3   OH2 1211   0.270   4.075   4.927 -0.0499 -0.1204  1.1673
  402TIP3    H1 1212   0.277   4.005   4.863 -1.4413 -0.9327  1.8642
  402TIP3    H2 1213   0.262   4.155   4.875 -0.7688 -0.7227  0.3403
  403TIP3   OH2 1214   3.992   3.765   4.750  0.5992 -0.5475 -0.4117
  403TIP3    H1 1215   4.009   3.708   4.675  0.1709  0.0959 -1.0046
  403TIP3    H2 1216   3.931   3.715   4.805  0.0377 -0.5719 -1.0443
  404TIP3   OH2 1217   0.484   1.580   4.293 -0.7172  0.3629  0.1646
  404TIP3    H1 1218   0.499   1.572   4.199 -2.1080  1.9909 -0.2413
  404TIP3    H2 1219   0.570   1.562   4.332 -0.0204  0.0673 -1.4290
  405TIP3   OH2 1220   4.660   4.577   3.950  0.2979  0.2686  0.5910
  405TIP3    H1 1221   4.582   4.537   3.912  0.0855  1.5769 -0.4203
  405TIP3    H2 1222   4.733   4.530   3.910  0.0783  1.4648 -1.3348
  406TIP3   OH2 1223   4.994   1.228   3.032 -0.2170  0.3017 -0.3802
  406TIP3    H1 1224   5.023   1.256   2.945  0.1461  0.1746 -0.3025
  406TIP3    H2 1225   4.915   1.279   3.048  0.0047  0.7118 -0.5681
  407TIP3   OH2 1226   1.287   0.964   3.896  0.0711  0.2739 -0.2495
  407TIP3    H1 1227   1.230   0.962   3.819  0.2012  3.1246 -0.5285
  407TIP3    H2 1228   1.236   1.009   3.963  0.7317 -0.3310  0.6900
  408TIP3   OH2 1229   2.760   4.678   1.923  0.2067  0.2953  0.3025
  408TIP3    H1 1230   2.762   4.772   1.909  0.8973  0.1935 -0.3410
  408TIP3    H2 1231   2.844   4.658   1.963 -0.6793  0.1968  2.2164
  409TIP3   OH2 1232   1.731   3.461   3.942  0.2187 -0.0811 -0.1599
  409TIP3    H1 1233   1.738   3.368   3.964  0.9630  0.1758  0.7552
  409TIP3    H2 1234   1.815   3.498   3.967 -1.6264  1.8057  4.5537
  410TIP3   OH2 1235   5.787   2.168   3.597  0.2170 -0.5005  0.7043
  410TIP3    H1 1236   5.762   2.111   3.525 -1.4110  2.1820 -0.9993
  410TIP3    H2 1237   5.837   2.238   3.556 -1.7758  1.7639  1.8956
  411TIP3   OH2 1238   1.668   0.391   4.506 -0.7701  0.4614  0.1776
  411TIP3    H1 1239   1.633   0.323   4.565  1.7562 -1.9663 -0.8739
  411TIP3    H2 1240   1.756   0.407   4.539 -0.0690  0.5865 -1.6984
  412TIP3   OH2 1241   5.899   2.628   0.236  0.1348  0.2140  0.4934
  412TIP3    H1 1242   5.994   2.636   0.228  0.2514 -0.2307  1.3513
  412TIP3    H2 1243   5.870   2.714   0.268  0.1784  0.5135 -0.2474
  413TIP3   OH2 1244   1.208   1.593   0.839 -0.5006 -0.0385 -0.0846
  413TIP3    H1 1245   1.159   1.558   0.765 -1.3171 -0.4393  0.6219
  413TIP3    H2 1246   1.141   1.611   0.905  0.3808 -1.6980  1.3467
  414TIP3   OH2 1247   2.097   5.134   1.697  0.4271  0.4453  0.6402
  414TIP3    H1 1248   2.185   5.095   1.691  0.5848  0.7669  0.8337
  414TIP3    H2 1249   2.091   5.192   1.621  0.1083 -0.1170  0.2300
  415TIP3   OH2 1250   1.511   5.939   1.424 -0.1588  0.2150 -0.8147
  415TIP3    H1 1251   1.486   6.006   1.362  0.4805  0.6982 -0.5640
  415TIP3    H2 1252   1.580   5.890   1.380 -0.0625  0.2341 -0.6872
  416TIP3   OH2 1253   3.896   0.520   0.062 -0.1972 -0.7647 -0.2469
  416TIP3    H1 1254   3.931   0.599   0.021 -0.3895 -0.6962 -0.2794
  416TIP3    H2 1255   3.961   0.497   0.129 -0.7496  0.1345  0.6200
  417TIP3   OH2 1256   5.094   4.431   1.929 -0.1350 -0.2998 -0.0257
  417TIP3    H1 1257   5.131   4.512   1.964  0.4728 -0.2074 -0.8483
  417TIP3    H2 1258   5.141   4.417   1.847 -1.4330 -0.5768 -0.7527
  418TIP3   OH2 1259   2.974   4.140   2.050 -0.4569 -0.0538  0.4138
  418TIP3    H1 1260   2.895   4.193   2.062 -0.2058  0.7481 -1.1374
  418TIP3    H2 1261   3.031   4.166   2.122 -0.5608  1.4206  0.0059
  419TIP3   OH2 1262   0.527   1.026   4.898  0.5564 -0.2174 -0.0950
  419TIP3    H1 1263   0.472   0.997   4.825  0.1827  0.0530  0.0711
  419TIP3    H2 1264   0.506   0.965   4.969 -0.0602  0.3023  0.1843
  420TIP3   OH2 1265   0.728   5.306   2.073  0.0138 -0.0630 -0.5365
  420TIP3    H1 1266   0.738   5.390   2.028  0.6677  0.0292 -0.2149
  420TIP3    H2 1267   0.699   5.246   2.004 -1.2557  0.5970 -0.6056
  421TIP3   OH2 1268   4.123   0.797   3.718 -0.2011  0.2583 -0.2080
  421TIP3    H1 1269   4.086   0.860   3.657  2.0973  1.0851 -0.8462
  421TIP3    H2 1270   4.158   0.850   3.789 -0.5037 -0.5109  0.5336
  422TIP3   OH2 1271   2.831   5.303   1.726  0.6017 -0.5372  0.2900
  422TIP3    H1 1272   2.888   5.226   1.736 -0.0701 -1.0359  0.3192
  422TIP3    H2 1273   2.888   5.370   1.688  1.1518 -1.1057  0.0936
  423TIP3   OH2 1274   0.185   0.654   1.050  0.5478  0.0367  0.3489
  423TIP3    H1 1275   0.215   0.708   0.976  0.5710  2.5052  2.0130
  423TIP3    H2 1276   0.261   0.649   1.108  0.1809 -0.7998  0.7704
  424TIP3   OH2 1277   2.538   4.758   0.880  0.5688  0.1134  0.5071
  424TIP3    H1 1278   2.623   4.759   0.924  2.1810  1.2038 -2.4020
  424TIP3    H2 1279   2.548   4.694   0.810 -0.3863  1.4953 -0.9577
  425TIP3   OH2 1280   4.071   1.748   1.152 -0.0954 -0.6233 -0.1735
  425TIP3    H1 1281   4.111   1.819   1.203 -0.0637 -0.8407  0.1052
  425TIP3    H2 1282   4.088   1.669   1.204 -2.5658 -0.5102  0.9405
  426TIP3   OH2 1283   0.469   4.360   0.537  0.1173  0.2372 -0.0663
  426TIP3    H1 1284   0.433   4.448   0.526 -0.2696  0.2127  0.9131
  426TIP3    H2 1285   0.477   4.349   0.632  3.0239  0.3557 -0.2056
  427TIP3   OH2 1286   2.558   5.862   2.089 -1.1865 -0.6210  0.1319
  427TIP3    H1 1287   2.553   5.944   2.138  0.7565 -1.6579  2.2764
  427TIP3    H2 1288   2.644   5.864   2.047 -1.2017 -1.4533  0.0394
  428TIP3   OH2 1289   5.403   4.191   3.198  0.1460 -0.2103 -0.3626
  428TIP3    H1 1290   5.414   4.264   3.259 -2.5022 -0.2407  0.2791
  428TIP3    H2 1291   5.484   4.189   3.148  0.2516  3.3457 -0.5871
  429TIP3   OH2 1292   1.769   3.503   3.083 -0.4311  0.1473 -0.1738
  429TIP3    H1 1293   1.812   3.509   3.168 -2.4294 -0.1391  0.9183
  429TIP3    H2 1294   1.688   3.554   3.093 -1.8608 -1.7901 -1.0988
  430TIP3   OH2 1295   2.549   1.901   0.605  0.2386 -0.0710 -0.1508
  430TIP3    H1 1296   2.520   1.992   0.611  1.1733  0.2062  0.5011
  430TIP3    H2 1297   2.583   1.892   0.517  3.3552  1.2769  0.7708
  431TIP3   OH2 1298   3.331   5.657   2.611 -0.3037  0.1638  0.4069
  431TIP3    H1 1299   3.410   5.640   2.662  0.6347  0.4841 -0.8959
  431TIP3    H2 1300   3.275   5.582   2.629  0.4145 -0.2253  1.1116
  432TIP3   OH2 1301   4.093   3.927   2.084 -0.0899  0.4075  0.5539
  432TIP3    H1 1302   4.013   3.879   2.104  0.0745 -0.6363 -1.0823
  432TIP3    H2 1303   4.098   3.995   2.151 -0.5983 -1.5464  2.7022
  433TIP3   OH2 1304   3.197   1.692   0.026  0.2758 -0.1886 -0.2032
  433TIP3    H1 1305   3.103   1.686   0.044  0.2887 -1.0898 -0.3993
  433TIP3    H2 1306   3.228   1.602   0.027  1.2777  0.1402  0.5053
  434TIP3   OH2 1307   0.085   2.851   0.201 -0.1483  0.4090 -0.5660
  434TIP3    H1 1308   0.139   2.776   0.227 -0.3021  0.0664 -1.2016
  434TIP3    H2 1309   0.086   2.909   0.276 -0.3540 -0.4258  0.0988
  435TIP3   OH2 1310   1.535   0.701   4.871 -0.2409  0.5587 -0.1889
  435TIP3    H1 1311   1.494   0.654   4.943 -0.4230 -0.0714 -0.6925
  435TIP3    H2 1312   1.463   0.750   4.831 -0.7183 -1.1308 -1.5376
  436TIP3   OH2 1313   0.485   4.116   3.215 -0.0838  0.1322  0.2046
  436TIP3    H1 1314   0.543   4.178   3.258  0.4315 -0.1239 -0.1093
  436TIP3    H2 1315   0.491   4.138   3.122  1.4212 -1.4161 -0.1310
  437TIP3   OH2 1316   0.386   0.106   3.354  0.1819 -0.1579 -0.1342
  437TIP3    H1 1317   0.456   0.049   3.385  0.1872  0.2739  0.6484
  437TIP3    H2 1318   0.390   0.184   3.409 -1.3705 -0.4349  0.4382
  438TIP3   OH2 1319   4.721   5.413   4.927  0.1002 -0.2418 -0.7612
  438TIP3    H1 1320   4.693   5.387   4.840  0.9334 -2.2630 -0.4933
  438TIP3    H2 1321   4.640   5.420   4.977 -0.2853 -0.6446 -1.3154
  439TIP3   OH2 1322   3.681   5.928   1.779 -0.0693 -0.1254 -0.3552
  439TIP3    H1 1323   3.677   5.932   1.683 -0.5154  2.0710 -0.2808
  439TIP3    H2 1324   3.774   5.916   1.798  0.2648  1.1943 -1.0446
  440TIP3   OH2 1325   0.667   4.828   2.468  0.2837 -0.1589  0.3138
  440TIP3    H1 1326   0.644   4.882   2.392  0.1738  1.5532  1.4905
  440TIP3    H2 1327   0.717   4.887   2.525 -0.6987 -0.9677  2.1339
  441TIP3   OH2 1328   2.029   3.028   3.591  0.5184  0.1124 -0.3139
  441TIP3    H1 1329   2.100   3.080   3.627 -0.2769  4.0239 -3.5725
  441TIP3    H2 1330   2.052   3.018   3.498 -1.1596 -2.4008 -0.5569
  442TIP3   OH2 1331   1.370   4.524   3.353  0.2154 -0.1179 -0.3066
  442TIP3    H1 1332   1.371   4.438   3.312  1.5950 -0.6186  0.7171
  442TIP3    H2 1333   1.462   4.546   3.365 -0.1377  0.6321  1.2191
  443TIP3   OH2 1334   1.981   1.678   2.322 -0.1410  0.0653 -0.4949
  443TIP3    H1 1335   2.022   1.761   2.300  2.4452 -0.9675 -0.0185
  443TIP3    H2 1336   2.019   1.615   2.260 -0.9630 -0.9983  0.0423
  444TIP3   OH2 1337   3.861   2.826   4.766 -0.2311  0.9781 -0.1352
  444TIP3    H1 1338   3.852   2.795   4.675  0.3928 -1.5852  0.5977
  444TIP3    H2 1339   3.781   2.796   4.810  0.9558 -0.8627  0.8926
  445TIP3   OH2 1340   1.981   0.917   4.604  0.0643 -0.3032 -0.1454
  445TIP3    H1 1341   1.997   0.844   4.664 -1.2141 -1.0864 -0.7215
  445TIP3    H2 1342   2.001   0.882   4.518 -0.0607  0.1977 -0.3822
  446TIP3   OH2 1343   3.274   3.755   5.097 -0.0174 -0.1641  0.1733
  446TIP3    H1 1344   3.341   3.724   5.159  0.5723 -0.5759 -0.6472
  446TIP3    H2 1345   3.239   3.834   5.137  1.2757  0.3033  0.4188
  447TIP3   OH2 1346   1.944   0.895   2.504 -0.0326  0.2467  0.1704
  447TIP3    H1 1347   1.931   0.937   2.589  0.7777  0.1391  0.3556
  447TIP3    H2 1348   1.979   0.808   2.526  0.9098  0.4975 -0.2883
  448TIP3   OH2 1349   2.168   0.982   2.071  0.0130  0.5955  0.1951
  448TIP3    H1 1350   2.119   1.026   2.001  2.1136  3.6179  0.4188
  448TIP3    H2 1351   2.110   0.985   2.147 -0.6525  1.2269 -0.3248
  449TIP3   OH2 1352   2.757   0.902   3.985  0.3124  0.4501 -0.5563
  449TIP3    H1 1353   2.678   0.849   3.980  0.0715  0.9446 -2.5386
  449TIP3    H2 1354   2.826   0.840   4.011 -0.4054 -0.3028 -0.4108
  450TIP3   OH2 1355   5.087   0.727   1.281 -0.2661 -0.1457  0.4803
  450TIP3    H1 1356   5.097   0.691   1.193  3.2990  0.2041  0.5726
  450TIP3    H2 1357   5.100   0.821   1.270  3.3909 -0.3697  1.5493
  451TIP3   OH2 1358   4.301   0.126   1.329 -0.6821 -0.1151  0.0288
  451TIP3    H1 1359   4.351   0.094   1.253 -2.0897 -2.0314 -0.1510
  451TIP3    H2 1360   4.217   0.153   1.292 -0.5587  1.1426  0.6218
  452TIP3   OH2 1361   5.478   2.094   3.790 -0.3403 -0.2693  0.2760
  452TIP3    H1 1362   5.549   2.078   3.728  1.2659  0.8488  1.7359
  452TIP3    H2 1363   5.472   2.189   3.797 -3.5396 -0.2115 -1.4442
  453TIP3   OH2 1364   6.115   5.009   3.760 -0.2422  0.7957  0.1667
  453TIP3    H1 1365   6.077   5.054   3.836 -2.0619 -0.3236 -0.0064
  453TIP3    H2 1366   6.055   5.029   3.688 -1.3624 -2.0813  0.1611
  454TIP3   OH2 1367   0.216   2.191   3.639  0.0057 -0.1103 -0.0082
  454TIP3    H1 1368   0.228   2.104   3.676  1.2194  0.9215  2.2377
  454TIP3    H2 1369   0.302   2.214   3.604 -0.9806 -0.8479 -3.2373
  455TIP3   OH2 1370   1.856   2.738   1.736  0.0332  0.1094  0.1953
  455TIP3    H1 1371   1.841   2.662   1.793  1.3511 -0.5035 -0.2439
  455TIP3    H2 1372   1.788   2.732   1.669 -1.1830  0.5223  1.3516
  456TIP3   OH2 1373   2.467   0.520   1.809  0.6769 -0.4352 -0.2136
  456TIP3    H1 1374   2.515   0.597   1.780  0.7480 -0.1856  0.5382
  456TIP3    H2 1375   2.534   0.462   1.847  0.7005 -1.1097 -1.2519
  457TIP3   OH2 1376   6.142   3.121   4.755  0.4506  0.1874  0.1370
  457TIP3    H1 1377   6.157   3.028   4.776  1.4795 -0.0586 -1.4645
  457TIP3    H2 1378   6.118   3.161   4.838  0.5156 -1.4133  0.9714
  458TIP3   OH2 1379   2.327   1.102   0.278 -0.8144 -0.4951 -0.0880
  458TIP3    H1 1380   2.371   1.184   0.299 -3.6016  0.4398  3.0617
  458TIP3    H2 1381   2.258   1.127   0.217 -0.5484 -0.8538 -0.5377
  459TIP3   OH2 1382   3.120   4.557   0.861  0.2964 -0.1736  0.1594
  459TIP3    H1 1383   3.039   4.565   0.911 -0.3253  1.8595 -1.0747
  459TIP3    H2 1384   3.179   4.623   0.899  0.9487 -0.7759  0.2240
  460TIP3   OH2 1385   5.332   4.514   1.078 -0.1015 -0.6869  0.7350
  460TIP3    H1 1386   5.247   4.557   1.072  0.4593  0.2350 -1.8012
  460TIP3    H2 1387   5.391   4.581   1.111  0.2060 -0.3663 -0.4307
  461TIP3   OH2 1388   2.943   4.822   2.794 -0.8952 -0.0734 -0.1389
  461TIP3    H1 1389   2.966   4.768   2.869 -2.3037 -0.3890  0.0936
  461TIP3    H2 1390   2.955   4.912   2.824 -2.5796 -0.1593  0.8857
  462TIP3   OH2 1391   0.468   4.905   1.099 -0.6076  0.1721 -0.4270
  462TIP3    H1 1392   0.483   4.948   1.183 -0.7947 -2.0350  0.8236
  462TIP3    H2 1393   0.556   4.880   1.070 -0.5285  1.0597 -1.0032
  463TIP3   OH2 1394   4.266   2.493   0.598  0.1212 -0.0705  0.3926
  463TIP3    H1 1395   4.266   2.406   0.637 -3.4671 -0.1393  0.5673
  463TIP3    H2 1396   4.303   2.480   0.510 -1.3194 -2.0169  0.0224
  464TIP3   OH2 1397   1.767   4.537   4.742  0.2761  0.2664  0.3998
  464TIP3    H1 1398   1.715   4.602   4.693  0.4751 -0.2965 -0.5857
  464TIP3    H2 1399   1.740   4.549   4.833 -1.4867  0.0929 -0.0566
  465TIP3   OH2 1400   4.011   1.252   1.593  0.8009 -0.3926 -0.0899
  465TIP3    H1 1401   4.052   1.264   1.678  0.7162  0.6033 -0.1751
  465TIP3    H2 1402   4.071   1.293   1.531  1.1511 -1.6332 -0.5909
  466TIP3   OH2 1403   3.776   2.201   2.006 -0.2335  0.3504 -0.4815
  466TIP3    H1 1404   3.867   2.195   2.034 -0.5338 -2.0874  0.2367
  466TIP3    H2 1405   3.743   2.281   2.047  1.2925  0.7307  0.0767
  467TIP3   OH2 1406   2.242   3.260   4.285 -0.3320  0.5309  0.3494
  467TIP3    H1 1407   2.204   3.239   4.371  0.0411 -0.4344  0.2918
  467TIP3    H2 1408   2.281   3.346   4.297 -0.5303  0.5297  1.0699
  468TIP3   OH2 1409   5.349   2.548   3.873 -0.1329 -0.1507 -0.0924
  468TIP3    H1 1410   5.340   2.582   3.784  0.1042 -1.1109 -0.4917
  468TIP3    H2 1411   5.337   2.625   3.929  0.0649  0.5269 -0.9584
  469TIP3   OH2 1412   0.683   0.528   1.317  0.7885 -0.0829 -0.0794
  469TIP3    H1 1413   0.728   0.445   1.301 -0.2818 -0.9315  1.1412
  469TIP3    H2 1414   0.663   0.527   1.410 -0.5724  0.8755 -0.3386
  470TIP3   OH2 1415   5.662   2.129   0.605 -0.1839 -0.4933 -0.1551
  470TIP3    H1 1416   5.622   2.125   0.691  0.0936  3.0915  0.2883
  470TIP3    H2 1417   5.756   2.128   0.621 -0.0712  2.7308 -0.0470
  471TIP3   OH2 1418   0.582   2.143   2.601 -0.2779 -0.3129  0.1147
  471TIP3    H1 1419   0.643   2.167   2.532 -1.3762  0.4787 -0.6155
  471TIP3    H2 1420   0.576   2.048   2.596  0.4700 -0.3503 -0.1561
  472TIP3   OH2 1421   0.533   2.107   5.204  0.6423  0.2487  0.7197
  472TIP3    H1 1422   0.543   2.062   5.121 -0.0278 -0.6157  1.0900
  472TIP3    H2 1423   0.469   2.176   5.187  1.0014  0.4948  0.3652
  473TIP3   OH2 1424   4.028   4.905   3.986 -0.5159  0.0704 -0.2228
  473TIP3    H1 1425   4.097   4.909   3.920 -1.3819  0.0060 -1.1656
  473TIP3    H2 1426   3.969   4.976   3.963 -1.3198 -0.5355 -0.0807
  474TIP3   OH2 1427   5.668   5.975   4.455  0.0358 -0.2343  0.4186
  474TIP3    H1 1428   5.658   5.924   4.374 -1.5799 -0.1815  0.5586
  474TIP3    H2 1429   5.643   5.915   4.525  0.3675  0.0550  0.7907
  475TIP3   OH2 1430   5.840   3.815   4.240 -0.1532 -0.2730  0.3013
  475TIP3    H1 1431   5.843   3.903   4.278 -1.1345 -0.4050  0.7287
  475TIP3    H2 1432   5.906   3.817   4.170 -1.5101  1.4861 -1.0601
  476TIP3   OH2 1433   0.621   4.504   0.055  0.0129  0.1349  0.1149
  476TIP3    H1 1434   0.628   4.467   0.143  0.2923  0.3990  0.2087
  476TIP3    H2 1435   0.545   4.561   0.058  1.5582  2.2901  1.0105
  477TIP3   OH2 1436   2.640   4.419   5.078 -0.0004 -0.3884 -0.5238
  477TIP3    H1 1437   2.689   4.501   5.080  0.2979 -0.5418 -1.1887
  477TIP3    H2 1438   2.695   4.357   5.125  0.2298 -0.4436 -0.8628
  478TIP3   OH2 1439   5.460   0.793   0.081  0.3949 -0.2776  0.4905
  478TIP3    H1 1440   5.376   0.836   0.099  0.5330  0.9088 -1.4750
  478TIP3    H2 1441   5.445   0.701   0.104 -1.7784 -0.2956 -0.7355
  479TIP3   OH2 1442   4.782   1.867   4.149 -0.3207  0.0480  0.2679
  479TIP3    H1 1443   4.707   1.818   4.115 -0.2293  1.5890 -2.4621
  479TIP3    H2 1444   4.839   1.801   4.186 -1.8214 -1.4655 -0.0018
  480TIP3   OH2 1445   0.000   2.363   0.968  0.1944 -0.4322  0.2358
  480TIP3    H1 1446   0.025   2.439   1.020 -0.5689  0.4480 -0.6615
  480TIP3    H2 1447   0.080   2.311   0.962  0.6687  0.1875  1.0280
  481TIP3   OH2 1448   2.832   0.213   3.413 -0.0073 -0.0678  0.0897
  481TIP3    H1 1449   2.780   0.199   3.492 -0.8849 -0.7693 -0.5784
  481TIP3    H2 1450   2.783   0.279   3.363  0.9763  1.0023  0.4881
  482TIP3   OH2 1451   1.899   4.846   3.835  0.2170 -0.1678  0.0245
  482TIP3    H1 1452   1.976   4.793   3.816 -0.4981 -0.3914 -2.6292
  482TIP3    H2 1453   1.912   4.926   3.784 -1.3855 -0.3308 -0.7097
  483TIP3   OH2 1454   4.067   5.574   0.883 -0.1351  0.3465  0.0696
  483TIP3    H1 1455   3.979   5.544   0.859  0.5912 -0.5123 -1.7841
  483TIP3    H2 1456   4.052   5.651   0.937 -2.0254  0.1388 -0.0712
  484TIP3   OH2 1457   5.621   1.424   1.183  0.1347  0.2912  0.0312
  484TIP3    H1 1458   5.541   1.468   1.209  0.4110  0.5473  0.4656
  484TIP3    H2 1459   5.680   1.494   1.154  0.2515  0.1184 -0.1581
  485TIP3   OH2 1460   0.058   4.771   1.560 -0.0431 -0.1924 -0.5076
  485TIP3    H1 1461   0.059   4.863   1.584  1.0573 -0.2116 -0.4323
  485TIP3    H2 1462   0.055   4.770   1.465  1.0402 -0.0603 -0.5508
  486TIP3   OH2 1463   3.961   2.171   2.628 -0.1569 -0.5581  0.4422
  486TIP3    H1 1464   4.026   2.135   2.568 -1.6581 -3.1001  0.1881
  486TIP3    H2 1465   3.921   2.243   2.579  2.4445  1.1459  0.6688
  487TIP3   OH2 1466   2.801   1.602   4.969 -0.0727  0.0017  0.2387
  487TIP3    H1 1467   2.715   1.623   4.933 -0.0002  0.3253  0.2487
  487TIP3    H2 1468   2.792   1.617   5.063  0.2505  0.9633  0.1359
  488TIP3   OH2 1469   1.756   3.420   1.581  0.0020 -0.0744  0.3605
  488TIP3    H1 1470   1.821   3.359   1.545 -0.0940 -0.3354  0.6201
  488TIP3    H2 1471   1.788   3.506   1.556 -1.4066 -0.2892 -2.6116
  489TIP3   OH2 1472   2.581   2.901   1.487 -0.4215 -0.4290 -0.0987
  489TIP3    H1 1473   2.633   2.853   1.551 -0.8088 -1.2297 -0.3690
  489TIP3    H2 1474   2.558   2.983   1.531 -0.6158 -0.9341  0.7645
  490TIP3   OH2 1475   4.543   1.333   0.426  0.0275 -0.4403  0.5515
  490TIP3    H1 1476   4.575   1.249   0.461  0.4086 -0.1943  0.7971
  490TIP3    H2 1477   4.622   1.382   0.404 -0.2043 -0.7998 -1.2127
  491TIP3   OH2 1478   3.155   1.104   2.942  0.0253 -0.3058  0.3866
  491TIP3    H1 1479   3.137   1.044   2.870 -0.0978 -0.1967  0.3258
  491TIP3    H2 1480   3.249   1.093   2.960  0.6776  1.4867 -1.4720
  492TIP3   OH2 1481   2.066   5.870   3.928 -0.3029 -0.5478  0.4500
  492TIP3    H1 1482   2.041   5.836   4.014 -0.3704 -0.6940  0.3724
  492TIP3    H2 1483   2.113   5.952   3.947  0.4438 -1.0186  0.6769
  493TIP3   OH2 1484   2.206   2.015   4.701  0.0349 -0.2339 -0.0001
  493TIP3    H1 1485   2.202   2.078   4.629  0.2331 -0.8279 -0.5426
  493TIP3    H2 1486   2.203   2.068   4.780 -1.0897  0.3796 -0.4387
  494TIP3   OH2 1487   5.734   4.964   4.027 -0.1392  0.3780  0.3967
  494TIP3    H1 1488   5.775   4.894   4.077 -0.6743 -0.6111 -0.5050
  494TIP3    H2 1489   5.807   5.012   3.988  0.2032 -0.1746  0.3584
  495TIP3   OH2 1490   3.134   1.959   4.747  0.5097  0.3592  0.2196
  495TIP3    H1 1491   3.061   1.912   4.788  0.9601  0.3570  1.0507
  495TIP3    H2 1492   3.099   1.990   4.663 -0.1834 -0.3551  0.2341
  496TIP3   OH2 1493   6.175   0.180   0.356  0.6859  0.5547  0.0114
  496TIP3    H1 1494   6.114   0.115   0.391  0.5235 -0.4555 -1.9747
  496TIP3    H2 1495   6.123   0.258   0.342  0.4360  0.5101  0.6722
  497TIP3   OH2 1496   1.830   1.327   4.404  0.3100  0.2926 -0.0424
  497TIP3    H1 1497   1.753   1.275   4.380  0.6348 -0.1761 -0.0864
  497TIP3    H2 1498   1.795   1.415   4.419 -0.9164 -0.6027  3.5295
  498TIP3   OH2 1499   4.596   0.636   2.846  0.0869 -0.3033 -0.3503
  498TIP3    H1 1500   4.532   0.707   2.842 -0.4155 -0.7434 -0.2710
  498TIP3    H2 1501   4.604   0.616   2.940  0.9573  0.2909 -0.2838
  499TIP3   OH2 1502   3.557   5.899   0.828 -0.4920  0.0776 -0.3492
  499TIP3    H1 1503   3.545   5.992   0.851 -1.8372 -0.0751 -0.3002
  499TIP3    H2 1504   3.628   5.870   0.885  1.1194  1.4582 -1.5393
  500TIP3   OH2 1505   1.826   1.933   3.850 -0.1935  0.7682  0.1877
  500TIP3    H1 1506   1.839   1.920   3.944  1.1033  1.4202  0.1203
  500TIP3    H2 1507   1.762   2.005   3.845  0.0890  1.0514  0.5784
  501TIP3   OH2 1508   2.564   4.351   1.025  0.4482  0.5329  0.3954
  501TIP3    H1 1509   2.535   4.402   1.101  0.2846  0.2383  0.5337
  501TIP3    H2 1510   2.575   4.262   1.059 -0.7082  0.1540 -0.1710
  502TIP3   OH2 1511   5.527   0.869   1.785 -0.0503 -0.2756  0.6063
  502TIP3    H1 1512   5.463   0.804   1.813  1.1172 -1.3407  0.9212
  502TIP3    H2 1513   5.549   0.918   1.864 -0.1700 -0.1880  0.5851
  503TIP3   OH2 1514   5.225   5.214   2.425 -0.0327 -0.2091 -0.4374
  503TIP3    H1 1515   5.256   5.124   2.413  0.6371  0.2495 -2.5379
  503TIP3    H2 1516   5.130   5.205   2.433  0.1610 -1.2253  1.1475
  504TIP3   OH2 1517   2.037   2.678   5.128 -0.4447  0.4644  0.0749
  504TIP3    H1 1518   2.044   2.651   5.037 -1.4666  1.1320 -0.2177
  504TIP3    H2 1519   1.998   2.765   5.125 -0.2737  0.5958  1.1382
  505TIP3   OH2 1520   2.631   2.718   2.684 -0.6199 -0.2417 -0.0800
  505TIP3    H1 1521   2.723   2.731   2.660 -0.4353  1.4075  1.2748
  505TIP3    H2 1522   2.605   2.802   2.723 -1.3390 -2.0458  3.8364
  506TIP3   OH2 1523   3.916   5.242   2.127 -0.1553 -0.3303  0.1888
  506TIP3    H1 1524   3.843   5.181   2.133  1.2820 -2.0299  1.8931
  506TIP3    H2 1525   3.982   5.194   2.076  0.0154  0.9697 -0.8849
  507TIP3   OH2 1526   6.101   1.939   3.968  0.0274 -0.2279  0.3261
  507TIP3    H1 1527   6.060   1.853   3.974  1.4113 -0.9315  0.1080
  507TIP3    H2 1528   6.054   1.983   3.897 -0.8169 -0.7205  0.5653
  508TIP3   OH2 1529   4.605   2.216   4.280 -0.0373 -0.5267  0.1931
  508TIP3    H1 1530   4.677   2.161   4.313 -1.1197 -0.2838  3.2439
  508TIP3    H2 1531   4.634   2.305   4.298  0.8764 -0.0458 -3.0120
  509TIP3   OH2 1532   4.440   4.319   2.391  0.2826  0.0210 -0.9046
  509TIP3    H1 1533   4.465   4.410   2.377 -1.0901  0.2471 -2.2162
  509TIP3    H2 1534   4.380   4.299   2.318 -2.6333 -0.6861  1.4668
  510TIP3   OH2 1535   6.093   2.293   5.155 -0.4028 -0.2887 -0.0730
  510TIP3    H1 1536   6.149   2.243   5.095  0.3009  1.3671 -0.8623
  510TIP3    H2 1537   6.039   2.347   5.098 -1.3817 -0.3688  0.7537
  511TIP3   OH2 1538   0.050   5.965   4.829  0.1862 -0.0406 -0.6887
  511TIP3    H1 1539   0.086   6.019   4.900 -1.1306 -1.0794  0.8691
  511TIP3    H2 1540   0.089   5.878   4.844 -3.5559 -1.5403  1.8087
  512TIP3   OH2 1541   1.110   3.363   3.146  0.5002  0.0044  0.2289
  512TIP3    H1 1542   1.170   3.390   3.216 -0.1421 -0.2472  0.8885
  512TIP3    H2 1543   1.023   3.382   3.181  0.1952  0.5917 -0.8160
  513TIP3   OH2 1544   4.632   0.922   2.933  0.3244  0.2473 -0.2295
  513TIP3    H1 1545   4.576   0.892   2.862  0.9777  0.6058 -0.9068
  513TIP3    H2 1546   4.599   1.009   2.954  0.0921  0.1168 -0.0438
  514TIP3   OH2 1547   4.799   1.612   2.835  0.2065 -0.2866  0.1155
  514TIP3    H1 1548   4.730   1.562   2.792  0.7850 -0.1101 -1.0374
  514TIP3    H2 1549   4.813   1.566   2.918 -2.3831  0.5765  1.1409
  515TIP3   OH2 1550   1.945   5.696   4.134 -0.3290 -0.4396  0.4307
  515TIP3    H1 1551   1.861   5.660   4.163  0.0314 -0.9968  0.7933
  515TIP3    H2 1552   1.994   5.713   4.214  0.1987 -0.8403  0.2041
  516TIP3   OH2 1553   0.783   0.246   2.853  0.0790 -0.2051 -0.4027
  516TIP3    H1 1554   0.861   0.285   2.891  1.1697 -2.9224  0.3908
  516TIP3    H2 1555   0.813   0.208   2.770 -0.8397  0.2155 -0.9528
  517TIP3   OH2 1556   5.942   5.155   4.000  0.0295  0.5712  0.0370
  517TIP3    H1 1557   6.027   5.186   4.031  0.5589  1.5183 -2.2130
  517TIP3    H2 1558   5.935   5.187   3.910 -1.5351 -1.7911 -0.7888
  518TIP3   OH2 1559   4.261   2.638   1.378 -0.2243 -0.1286 -0.1123
  518TIP3    H1 1560   4.287   2.601   1.293 -1.0996  0.2862 -0.5693
  518TIP3    H2 1561   4.206   2.712   1.356  0.0261  0.3466  0.8267
  519TIP3   OH2 1562   4.539   2.508   2.442 -0.5498 -0.1392  0.7921
  519TIP3    H1 1563   4.491   2.541   2.366 -0.4169 -1.6403  0.0192
  519TIP3    H2 1564   4.630   2.531   2.425 -0.4300 -1.0443  0.1608
  520TIP3   OH2 1565   1.109   4.630   1.103 -0.0580 -0.3638 -0.6462
  520TIP3    H1 1566   1.106   4.536   1.121 -0.1835 -0.8164 -2.7612
  520TIP3    H2 1567   1.201   4.653   1.109  0.1157 -0.8840 -1.2287
  521TIP3   OH2 1568   2.212   5.811   5.090  0.2162  0.1842 -0.0959
  521TIP3    H1 1569   2.246   5.826   5.177  0.4050  1.6051 -0.3854
  521TIP3    H2 1570   2.118   5.795   5.103  0.2395  0.4191  0.3635
  522TIP3   OH2 1571   3.509   2.437   1.443 -0.5616  0.3285 -0.3365
  522TIP3    H1 1572   3.557   2.453   1.524 -1.4765  1.9227 -0.0671
  522TIP3    H2 1573   3.564   2.476   1.374  1.7078 -3.5537 -1.0470
  523TIP3   OH2 1574   1.002   5.888   1.136 -0.1713  0.4677 -0.2090
  523TIP3    H1 1575   0.924   5.901   1.083  0.2063  2.6377 -0.2969
  523TIP3    H2 1576   1.040   5.807   1.102 -2.1351 -0.4420 -0.4118
  524TIP3   OH2 1577   2.137   5.425   1.737 -0.2397  0.1865 -0.3791
  524TIP3    H1 1578   2.207   5.489   1.729  2.5876 -2.6479 -0.4455
  524TIP3    H2 1579   2.077   5.446   1.665  1.2440  1.9364 -1.1748
  525TIP3   OH2 1580   1.587   2.434   1.820 -0.3764 -0.3451 -0.4294
  525TIP3    H1 1581   1.557   2.430   1.729 -1.3000 -0.3876 -0.1336
  525TIP3    H2 1582   1.521   2.385   1.869  0.8751 -1.5724  0.0933
  526TIP3   OH2 1583   3.949   2.170   3.604 -0.2571  0.0470  0.1606
  526TIP3    H1 1584   3.886   2.177   3.532 -1.3568 -1.2052  0.9549
  526TIP3    H2 1585   3.983   2.259   3.615 -1.7271  0.7231 -0.4532
  527TIP3   OH2 1586   0.582   5.858   0.787  0.2536 -0.5238  0.4045
  527TIP3    H1 1587   0.556   5.866   0.695  0.2383 -0.4157  0.4182
  527TIP3    H2 1588   0.677   5.843   0.784  0.1749 -1.0313  0.3497
  528TIP3   OH2 1589   3.926   0.932   2.825  0.6240 -0.1881 -0.2943
  528TIP3    H1 1590   3.995   0.878   2.864  0.4028 -1.1115 -1.1426
  528TIP3    H2 1591   3.858   0.869   2.801  0.1338  0.5395 -0.8338
  529TIP3   OH2 1592   3.394   5.706   4.579  0.2518  0.0077  0.5975
  529TIP3    H1 1593   3.373   5.799   4.572  0.9742  0.0860 -1.1559
  529TIP3    H2 1594   3.322   5.662   4.534  0.0452 -0.2726  1.1941
  530TIP3   OH2 1595   5.472   3.628   0.575 -0.1777  0.1312  0.0287
  530TIP3    H1 1596   5.437   3.542   0.552 -2.4453  1.3522 -1.4471
  530TIP3    H2 1597   5.416   3.690   0.530  0.7566  2.4707  1.8369
  531TIP3   OH2 1598   4.490   4.809   3.950  0.3390 -0.2576  0.4891
  531TIP3    H1 1599   4.549   4.736   3.965  1.6733  0.3495 -1.3827
  531TIP3    H2 1600   4.403   4.775   3.971  0.8347 -2.5796 -0.8696
  532TIP3   OH2 1601   0.103   1.601   1.521 -0.0292  0.2894  0.7783
  532TIP3    H1 1602   0.159   1.675   1.544 -0.3455  0.9376 -0.4927
  532TIP3    H2 1603   0.027   1.639   1.477  0.1375 -0.8046 -0.5515
  533TIP3   OH2 1604   4.195   5.074   2.700 -0.1728 -0.1214 -0.2748
  533TIP3    H1 1605   4.156   4.987   2.689 -0.5159  0.1617 -1.4425
  533TIP3    H2 1606   4.124   5.129   2.732  0.0760 -0.2873  0.5853
  534TIP3   OH2 1607   4.482   5.450   2.933 -0.1796  0.0473 -0.3420
  534TIP3    H1 1608   4.517   5.509   2.866  0.7094 -0.0806 -0.0118
  534TIP3    H2 1609   4.455   5.373   2.884  1.4348 -0.4789 -0.4749
  535TIP3   OH2 1610   3.111   2.898   2.458  0.5385 -0.3976 -0.3121
  535TIP3    H1 1611   3.076   2.952   2.387  0.2499 -1.0125 -0.6488
  535TIP3    H2 1612   3.132   2.960   2.528  0.6441  0.1922 -0.8618
  536TIP3   OH2 1613   1.003   1.373   4.823 -0.0391 -0.2875  0.2898
  536TIP3    H1 1614   0.957   1.434   4.765 -0.5130 -1.5911 -0.7427
  536TIP3    H2 1615   0.954   1.377   4.906  0.7852  1.7685  0.7597
  537TIP3   OH2 1616   5.731   2.248   3.215  0.4844  0.1871 -0.0724
  537TIP3    H1 1617   5.738   2.174   3.275  1.8691  0.6140  0.3211
  537TIP3    H2 1618   5.800   2.234   3.151  0.2574  0.7417 -0.4504
  538TIP3   OH2 1619   5.439   2.219   0.978  0.4915  0.1359  0.1958
  538TIP3    H1 1620   5.534   2.224   0.969  0.6489 -1.3538  0.6947
  538TIP3    H2 1621   5.406   2.238   0.891  1.2578  0.4317 -0.0413
  539TIP3   OH2 1622   1.734   1.007   1.921  0.7233  0.3978 -0.1985
  539TIP3    H1 1623   1.826   1.008   1.897  0.2755  1.1260 -2.0255
  539TIP3    H2 1624   1.692   0.956   1.851 -0.2221 -0.1745  0.7638
  540TIP3   OH2 1625   2.558   1.711   0.997  0.1778  0.2516  0.3329
  540TIP3    H1 1626   2.524   1.657   1.069  0.3665 -1.1958 -0.6249
  540TIP3    H2 1627   2.510   1.794   1.005  0.8253  0.4721  2.6395
  541TIP3   OH2 1628   4.686   4.711   2.302 -0.6225 -0.1301  0.1891
  541TIP3    H1 1629   4.707   4.764   2.379 -0.3516  0.0202  0.0151
  541TIP3    H2 1630   4.614   4.655   2.330 -0.7035  0.1127  0.4706
  542TIP3   OH2 1631   5.342   3.680   1.329  0.0074 -0.0048  0.1631
  542TIP3    H1 1632   5.330   3.585   1.332  0.9853 -0.2328  4.5920
  542TIP3    H2 1633   5.437   3.692   1.322 -0.0225  0.5640  0.5981
  543TIP3   OH2 1634   6.317   4.592   0.787 -0.3438 -0.0893 -1.2213
  543TIP3    H1 1635   6.255   4.572   0.717 -0.8396 -0.2344 -0.7471
  543TIP3    H2 1636   6.345   4.682   0.769 -1.1199  0.1751 -1.1176
  544TIP3   OH2 1637   3.136   3.173   4.461 -0.2663  0.2151  0.4249
  544TIP3    H1 1638   3.175   3.169   4.548 -0.1976 -1.2512  0.3424
  544TIP3    H2 1639   3.131   3.082   4.432 -1.8340  0.5306 -0.4196
  545TIP3   OH2 1640   0.708   5.186   4.930  0.2735  0.7553  0.0374
  545TIP3    H1 1641   0.677   5.106   4.888  1.5577 -0.0681  0.5791
  545TIP3    H2 1642   0.648   5.200   5.003 -1.4887  1.7486 -1.5032
  546TIP3   OH2 1643   4.393   5.070   4.806 -0.0658 -0.4043 -0.5530
  546TIP3    H1 1644   4.305   5.078   4.770 -0.0471  0.1277 -0.4962
  546TIP3    H2 1645   4.395   4.984   4.848 -0.3410 -0.6990 -1.1337
  547TIP3   OH2 1646   0.264   2.574   4.333 -0.0712 -0.1065 -0.2866
  547TIP3    H1 1647   0.170   2.590   4.336 -0.1381  0.3483 -2.7477
  547TIP3    H2 1648   0.273   2.484   4.300  0.4103 -1.0465  2.1611
  548TIP3   OH2 1649   5.496   0.399   4.343  0.3922  0.6022 -0.1333
  548TIP3    H1 1650   5.478   0.489   4.370  0.4745  0.6068 -0.0949
  548TIP3    H2 1651   5.413   0.353   4.359 -0.7748  1.3580 -3.2102
  549TIP3   OH2 1652   3.706   2.841   4.246  0.2782  0.0517  0.7095
  549TIP3    H1 1653   3.752   2.893   4.180 -0.1403  1.2147  1.2921
  549TIP3    H2 1654   3.760   2.849   4.324  2.2581 -3.5662 -0.0685
  550TIP3   OH2 1655   3.869   2.915   5.126 -0.3069 -0.8334 -0.3897
  550TIP3    H1 1656   3.807   2.968   5.076  0.2317  1.5495  1.2985
  550TIP3    H2 1657   3.945   2.906   5.068 -0.4183  0.3108 -0.7491
  551TIP3   OH2 1658   4.400   1.270   4.808  0.5721  0.0866 -0.0050
  551TIP3    H1 1659   4.423   1.213   4.880 -0.0816 -3.0518 -2.0801
  551TIP3    H2 1660   4.483   1.307   4.779  0.9076  0.9012  1.8789
  552TIP3   OH2 1661   4.339   5.516   1.154 -0.6802  0.3909 -0.1216
  552TIP3    H1 1662   4.350   5.601   1.112 -3.2024  0.7775 -0.1573
  552TIP3    H2 1663   4.316   5.456   1.083 -0.5115  0.0396  0.1148
  553TIP3   OH2 1664   2.477   3.074   3.493  0.7495  0.1160 -0.1042
  553TIP3    H1 1665   2.463   3.127   3.414  1.0536  0.8490  0.3191
  553TIP3    H2 1666   2.434   2.991   3.474  1.5282 -0.0368 -1.3751
  554TIP3   OH2 1667   0.061   1.096   1.730 -0.4338  0.4411 -0.3582
  554TIP3    H1 1668   0.097   1.048   1.805  0.2064  0.8376 -0.4018
  554TIP3    H2 1669   0.060   1.032   1.659  1.2422  0.6926 -0.6549
  555TIP3   OH2 1670   0.871   2.349   1.457 -0.3178  0.2750  0.1917
  555TIP3    H1 1671   0.885   2.443   1.466  0.0061  0.3019 -0.5537
  555TIP3    H2 1672   0.953   2.315   1.422 -0.5352 -0.2447  0.1727
  556TIP3   OH2 1673   0.145   2.507   3.412  0.1297  0.1005 -0.5077
  556TIP3    H1 1674   0.163   2.550   3.329  0.2494  1.5959  0.2624
  556TIP3    H2 1675   0.205   2.433   3.414 -0.4523 -0.4568 -2.1007
  557TIP3   OH2 1676   2.250   2.325   2.847 -0.2175 -0.4117  0.5912
  557TIP3    H1 1677   2.167   2.279   2.843 -0.7968  0.6520 -0.1412
  557TIP3    H2 1678   2.236   2.395   2.911  0.3038 -0.5728  0.8893
  558TIP3   OH2 1679   3.741   2.229   1.055  0.4674  0.6153  0.0662
  558TIP3    H1 1680   3.678   2.173   1.011 -0.6377  1.5686  0.3940
  558TIP3    H2 1681   3.817   2.172   1.069 -0.1645 -0.4530 -0.6536
  559TIP3   OH2 1682   1.097   5.059   0.801 -0.1393 -0.0311  0.6404
  559TIP3    H1 1683   1.071   5.125   0.737 -1.4621  2.0182  3.0801
  559TIP3    H2 1684   1.185   5.087   0.829  0.1594 -0.5377  0.2242
  560TIP3   OH2 1685   5.146   4.151   3.167 -0.5668  0.1791  0.1878
  560TIP3    H1 1686   5.119   4.121   3.080  1.5711 -1.7709  0.1056
  560TIP3    H2 1687   5.240   4.165   3.159 -0.5615  1.3621  1.8388
  561TIP3   OH2 1688   0.368   4.844   0.099  0.6333 -0.7404  0.5463
  561TIP3    H1 1689   0.420   4.836   0.019 -0.8751  0.3619 -0.6171
  561TIP3    H2 1690   0.301   4.909   0.077 -0.7631 -1.5487  2.1995
  562TIP3   OH2 1691   6.166   2.734   0.197 -0.6485 -0.0354  0.1845
  562TIP3    H1 1692   6.251   2.769   0.225 -0.1962 -1.6264  0.9641
  562TIP3    H2 1693   6.136   2.794   0.130  1.0817  0.6010 -0.0766
  563TIP3   OH2 1694   2.156   2.799   1.010  0.1139  0.1787 -0.1587
  563TIP3    H1 1695   2.192   2.776   0.924 -1.1424  0.0006 -0.6492
  563TIP3    H2 1696   2.209   2.748   1.072  1.4830  0.8246 -0.7436
  564TIP3   OH2 1697   1.715   3.245   0.818  0.0493 -0.0012 -0.0569
  564TIP3    H1 1698   1.800   3.282   0.795 -1.8996  3.1034 -3.3767
  564TIP3    H2 1699   1.679   3.305   0.883  0.2094 -1.1883  1.1841
  565TIP3   OH2 1700   6.137   5.160   2.053 -0.4868 -0.0745 -0.4053
  565TIP3    H1 1701   6.132   5.253   2.034 -2.0938 -0.1871 -0.6638
  565TIP3    H2 1702   6.193   5.154   2.130  2.0852  0.8137 -2.0912
  566TIP3   OH2 1703   5.677   3.377   4.628 -0.2678  0.7084  0.6001
  566TIP3    H1 1704   5.649   3.403   4.541 -0.7601 -0.2943  0.4459
  566TIP3    H2 1705   5.596   3.357   4.675  0.0415  0.2948  0.9708
  567TIP3   OH2 1706   4.915   2.043   1.937  0.1477  0.0870  0.2671
  567TIP3    H1 1707   4.887   2.082   2.020 -0.5299  0.5193 -0.1488
  567TIP3    H2 1708   4.865   2.091   1.871  1.1636  0.1914 -0.4419
  568TIP3   OH2 1709   3.435   5.287   1.392  0.0701  0.3391  0.2413
  568TIP3    H1 1710   3.462   5.258   1.479 -0.4082  0.4353  0.4221
  568TIP3    H2 1711   3.439   5.207   1.339 -0.9738 -0.0134  0.6765
  569TIP3   OH2 1712   0.499   3.882   0.504 -0.3417 -0.4992 -0.4120
  569TIP3    H1 1713   0.559   3.877   0.579 -1.8048 -1.2417  0.7726
  569TIP3    H2 1714   0.540   3.828   0.437  1.6158  1.1614 -0.6460
  570TIP3   OH2 1715   4.126   5.570   4.024  0.1908  0.0925  0.6503
  570TIP3    H1 1716   4.181   5.516   4.081 -0.2051 -0.4477  0.5345
  570TIP3    H2 1717   4.038   5.534   4.036  0.2530 -0.7212 -1.0805
  571TIP3   OH2 1718   3.794   2.229   3.388 -0.7629  0.2999  0.2128
  571TIP3    H1 1719   3.779   2.319   3.360  1.1602  1.1946  1.7843
  571TIP3    H2 1720   3.823   2.183   3.310  0.1847  1.5870 -0.2265
  572TIP3   OH2 1721   4.015   2.052   3.967 -0.3818  0.8301 -0.0006
  572TIP3    H1 1722   4.103   2.034   3.934 -0.6850 -1.3852  0.2718
  572TIP3    H2 1723   4.029   2.104   4.047  0.7807 -0.6228  0.7826
  573TIP3   OH2 1724   5.841   3.520   0.482 -0.2270  0.9679  0.2318
  573TIP3    H1 1725   5.854   3.427   0.461 -0.6278  0.7151  1.0778
  573TIP3    H2 1726   5.765   3.546   0.430  1.2468  1.4593 -1.8089
  574TIP3   OH2 1727   2.163   2.880   2.306  0.0782 -0.1355 -0.5718
  574TIP3    H1 1728   2.141   2.942   2.375  3.0450 -0.4779  0.8568
  574TIP3    H2 1729   2.109   2.803   2.325  0.4215 -0.0182  1.0749
  575TIP3   OH2 1730   6.259   5.676   4.174  0.1773 -0.5790  0.1418
  575TIP3    H1 1731   6.290   5.710   4.090  1.5928  1.3176  1.3477
  575TIP3    H2 1732   6.316   5.601   4.192  0.5966 -0.3183 -0.0850
  576TIP3   OH2 1733   2.170   0.340   3.836 -0.3162  0.5309 -0.2066
  576TIP3    H1 1734   2.162   0.246   3.847  0.7039  0.5643  1.0034
  576TIP3    H2 1735   2.133   0.378   3.915  2.3771  0.9834  0.9503
  577TIP3   OH2 1736   1.387   3.318   3.700  0.3341 -0.1088  0.3170
  577TIP3    H1 1737   1.459   3.255   3.689  0.0873 -0.0648 -2.1276
  577TIP3    H2 1738   1.335   3.283   3.771  0.7422 -2.1873 -0.3379
  578TIP3   OH2 1739   2.164   1.248   0.088  0.0064  0.6492  0.2383
  578TIP3    H1 1740   2.078   1.285   0.106  0.7374  2.8543 -0.5011
  578TIP3    H2 1741   2.152   1.192   0.011 -0.7617  0.9388  0.1464
  579TIP3   OH2 1742   2.351   0.165   4.194  0.4612  0.0604  0.3032
  579TIP3    H1 1743   2.433   0.164   4.145  0.1409 -0.3126 -0.2306
  579TIP3    H2 1744   2.326   0.073   4.202 -0.4731  0.2219 -0.5143
  580TIP3   OH2 1745   2.655   3.799   0.780  0.0381 -0.6495  0.2993
  580TIP3    H1 1746   2.563   3.797   0.807  0.2833 -1.0299  1.1417
  580TIP3    H2 1747   2.682   3.890   0.794  0.2960 -0.9388  1.8649
  581TIP3   OH2 1748   3.068   4.522   1.578 -0.3315 -0.1333 -0.0929
  581TIP3    H1 1749   2.972   4.528   1.575 -0.3329  0.2778  0.5657
  581TIP3    H2 1750   3.092   4.482   1.494 -1.1025 -0.5673 -0.1167
  582TIP3   OH2 1751   5.055   0.153   4.784  0.4273  0.1143 -0.1710
  582TIP3    H1 1752   4.982   0.124   4.838  0.7802 -0.4544  0.0087
  582TIP3    H2 1753   5.029   0.133   4.694  0.7499 -0.9796 -0.0353
  583TIP3   OH2 1754   2.279   1.668   3.734 -0.2091 -0.4976 -0.0227
  583TIP3    H1 1755   2.360   1.620   3.713 -0.1842 -0.7405  0.6195
  583TIP3    H2 1756   2.303   1.722   3.809 -0.4504 -0.0389 -0.2747
  584TIP3   OH2 1757   2.243   5.302   4.719 -0.0329 -0.7402  0.1959
  584TIP3    H1 1758   2.203   5.383   4.750  2.5139  1.1069 -0.9820
  584TIP3    H2 1759   2.226   5.239   4.789 -1.3882  1.0022  1.5394
  585TIP3   OH2 1760   5.130   3.522   3.716 -0.0160  0.1455  0.3417
  585TIP3    H1 1761   5.175   3.492   3.795 -0.7491  0.0029  0.7146
  585TIP3    H2 1762   5.195   3.514   3.647  0.1749 -1.1784  0.6509
  586TIP3   OH2 1763   4.220   4.663   4.016  0.0261 -0.3650 -0.1849
  586TIP3    H1 1764   4.156   4.713   4.067 -0.7611 -0.3253 -1.1930
  586TIP3    H2 1765   4.191   4.672   3.925  1.4606 -0.3483 -0.6663
  587TIP3   OH2 1766   6.151   3.065   3.851  0.1707 -0.5672 -0.2152
  587TIP3    H1 1767   6.134   3.158   3.837  0.7780 -0.4888 -0.4472
  587TIP3    H2 1768   6.238   3.050   3.813  0.6501 -0.9453  0.9855
  588TIP3   OH2 1769   0.276   4.904   4.516  0.6476  0.4969 -0.2621
  588TIP3    H1 1770   0.300   4.901   4.424 -1.4358  0.1038 -0.8368
  588TIP3    H2 1771   0.295   4.994   4.543  2.0130  0.4070 -0.8167
  589TIP3   OH2 1772   0.487   3.063   1.139 -0.0417 -0.3990 -0.5727
  589TIP3    H1 1773   0.508   3.155   1.151 -0.6009 -0.0819 -1.9112
  589TIP3    H2 1774   0.391   3.060   1.133 -0.1602 -1.2823  1.0809
  590TIP3   OH2 1775   4.362   5.230   4.320 -0.0378  0.0903  0.4123
  590TIP3    H1 1776   4.376   5.160   4.384 -0.2390  0.7665  1.2302
  590TIP3    H2 1777   4.442   5.284   4.326 -0.4486  0.6779  0.8016
  591TIP3   OH2 1778   0.212   1.946   3.752 -0.7285 -0.6618  0.0747
  591TIP3    H1 1779   0.165   1.898   3.684 -1.0444 -1.6152  0.9432
  591TIP3    H2 1780   0.173   1.916   3.834 -1.0640  1.2195  0.6497
  592TIP3   OH2 1781   5.676   0.855   3.921 -0.1388 -0.6272 -0.1715
  592TIP3    H1 1782   5.751   0.882   3.973  0.9115 -0.1892 -1.8496
  592TIP3    H2 1783   5.688   0.760   3.909  0.8777 -0.3572 -1.4974
  593TIP3   OH2 1784   5.218   2.981   1.408 -0.3390 -0.1004 -0.5801
  593TIP3    H1 1785   5.152   3.001   1.341 -0.9646 -1.6413 -0.4610
  593TIP3    H2 1786   5.302   3.001   1.365 -0.8280  1.5034 -0.8683
  594TIP3   OH2 1787   2.037   0.726   2.124  0.3255  0.3099  0.0330
  594TIP3    H1 1788   2.077   0.640   2.137  0.6996  0.2609 -1.3282
  594TIP3    H2 1789   2.109   0.782   2.095 -0.2356  0.6779 -0.6641
  595TIP3   OH2 1790   5.243   1.424   0.382  0.0291  0.5751  0.1521
  595TIP3    H1 1791   5.297   1.422   0.461  0.0146 -2.3844  0.1958
  595TIP3    H2 1792   5.154   1.412   0.415 -0.1702  1.0354 -0.2180
  596TIP3   OH2 1793   2.656   5.645   2.527  0.1482 -0.2251 -0.6479
  596TIP3    H1 1794   2.635   5.556   2.498  1.0013 -1.1070  1.2659
  596TIP3    H2 1795   2.573   5.679   2.561  0.3400 -1.3324  1.0655
  597TIP3   OH2 1796   2.842   1.082   4.527  0.5158  0.2410 -0.9660
  597TIP3    H1 1797   2.767   1.028   4.552  0.5746  0.3091 -0.6473
  597TIP3    H2 1798   2.881   1.110   4.610  0.5204  0.7290 -1.1286
  598TIP3   OH2 1799   1.216   0.264   2.505 -0.5544  0.0676 -0.1114
  598TIP3    H1 1800   1.261   0.179   2.511 -1.9871 -0.7597 -0.6194
  598TIP3    H2 1801   1.283   0.328   2.531  0.2731 -1.2865  1.3021
  599TIP3   OH2 1802   0.992   4.438   1.595  0.5950  0.1467  0.4969
  599TIP3    H1 1803   0.987   4.356   1.643 -1.1524 -1.1411 -1.7028
  599TIP3    H2 1804   0.914   4.439   1.540  0.9381  2.9570 -0.1076
  600TIP3   OH2 1805   2.008   1.539   3.722  0.0913  0.7108 -0.5242
  600TIP3    H1 1806   2.093   1.579   3.708 -0.1629  2.8442  2.8762
  600TIP3    H2 1807   2.020   1.447   3.695  3.7525  0.6699  0.6826
  601TIP3   OH2 1808   6.202   4.086   2.392  0.0370 -0.2538 -0.6522
  601TIP3    H1 1809   6.237   4.051   2.474  0.3282  0.7067 -0.3582
  601TIP3    H2 1810   6.264   4.058   2.325 -0.6969 -1.8719 -0.7228
  602TIP3   OH2 1811   4.324   0.055   1.808 -0.0688  0.0176  0.1981
  602TIP3    H1 1812   4.291   0.123   1.749  0.0711  0.0652  0.1746
  602TIP3    H2 1813   4.258  -0.014   1.804 -1.5110  1.1983  2.1589
  603TIP3   OH2 1814   5.928   0.968   4.059 -0.4058  0.5735  0.0091
  603TIP3    H1 1815   5.991   0.984   3.990  1.7826 -0.0826  1.7381
  603TIP3    H2 1816   5.948   0.880   4.090 -1.8785  0.5212  0.9410
  604TIP3   OH2 1817   4.347   3.327   4.233 -0.0979  0.4239  0.5195
  604TIP3    H1 1818   4.409   3.351   4.302 -2.3188 -0.9575  3.2186
  604TIP3    H2 1819   4.344   3.403   4.175  1.8702  1.6831  1.9585
  605TIP3   OH2 1820   2.957   1.156   2.003 -0.1044 -0.5028 -0.2567
  605TIP3    H1 1821   2.918   1.159   1.916  2.4414  0.8687 -1.4956
  605TIP3    H2 1822   3.004   1.073   2.006 -0.2481 -0.5804 -0.1848
  606TIP3   OH2 1823   0.326   3.220   2.834 -0.2251  0.1057  0.1095
  606TIP3    H1 1824   0.303   3.266   2.915  1.9595 -0.6778  1.2637
  606TIP3    H2 1825   0.407   3.261   2.805  1.1179 -2.0871  0.5067
  607TIP3   OH2 1826   4.628   3.497   1.792  0.2589  0.3138  0.1918
  607TIP3    H1 1827   4.711   3.546   1.792  1.3951 -1.5190  0.4425
  607TIP3    H2 1828   4.613   3.477   1.884  0.7990 -1.3313 -0.0461
  608TIP3   OH2 1829   3.862   5.593   4.665 -0.5490  0.0761 -0.3814
  608TIP3    H1 1830   3.777   5.622   4.696 -0.1513  0.6271  0.2090
  608TIP3    H2 1831   3.842   5.526   4.599 -1.4152 -0.6422  0.5787
  609TIP3   OH2 1832   3.885   3.778   2.472 -0.1539 -0.0605 -0.1107
  609TIP3    H1 1833   3.839   3.796   2.554 -0.9518  1.2131 -0.8107
  609TIP3    H2 1834   3.917   3.689   2.483 -1.8933 -0.6343  0.8356
  610TIP3   OH2 1835   0.242   0.329   2.621  0.3129  0.3547  0.0710
  610TIP3    H1 1836   0.305   0.292   2.560 -0.4191 -0.3789 -0.2525
  610TIP3    H2 1837   0.295   0.362   2.694  1.1397  0.6969 -0.6772
  611TIP3   OH2 1838   1.700   0.214   1.661 -0.3138 -0.1161  0.0805
  611TIP3    H1 1839   1.677   0.306   1.648  0.2498  0.1597  0.9336
  611TIP3    H2 1840   1.688   0.173   1.575  0.0481  0.8933 -0.4602
  612TIP3   OH2 1841   0.421   4.758   2.583  0.2818 -0.2287 -0.0573
  612TIP3    H1 1842   0.512   4.765   2.554  0.2299 -0.4377 -0.2669
  612TIP3    H2 1843   0.376   4.831   2.540  0.1251 -0.7539 -0.8141
  613TIP3   OH2 1844   0.389   5.161   4.677  0.3951 -0.0286  0.1653
  613TIP3    H1 1845   0.320   5.225   4.662  0.0795 -0.5533 -0.6202
  613TIP3    H2 1846   0.381   5.139   4.770  0.6753  1.2461  0.5216
  614TIP3   OH2 1847   4.012   0.043   1.010 -0.1143 -0.3813 -0.4166
  614TIP3    H1 1848   4.030   0.124   1.057 -0.5524 -0.2610 -0.4509
  614TIP3    H2 1849   4.098   0.003   0.996  0.1424  0.2957 -0.7923
  615TIP3   OH2 1850   0.385   2.322   4.239 -0.1704  0.0604 -0.2027
  615TIP3    H1 1851   0.384   2.296   4.331 -1.1555  1.5689  0.2561
  615TIP3    H2 1852   0.465   2.374   4.230  0.4298 -0.8750 -0.4693
  616TIP3   OH2 1853   5.523   0.885   2.689  0.3561 -0.2247 -0.2525
  616TIP3    H1 1854   5.494   0.816   2.629 -0.0561 -0.1126 -0.1874
  616TIP3    H2 1855   5.520   0.843   2.775  0.0944 -0.1243 -0.2114
  617TIP3   OH2 1856   1.864   2.212   3.633  0.2287 -0.0292  0.2637
  617TIP3    H1 1857   1.814   2.182   3.709 -1.1231  2.2651  0.3842
  617TIP3    H2 1858   1.954   2.185   3.652  0.0815  1.0908  3.0830
  618TIP3   OH2 1859   0.390   0.205   5.012  0.4319 -0.4282 -0.6773
  618TIP3    H1 1860   0.365   0.130   4.959  0.1873 -1.2860  0.6013
  618TIP3    H2 1861   0.307   0.247   5.034  0.4512 -0.6594 -0.1545
  619TIP3   OH2 1862   5.392   5.417   2.912  0.1549  0.5636  0.1780
  619TIP3    H1 1863   5.346   5.453   2.836  0.0006  1.6958  0.7844
  619TIP3    H2 1864   5.402   5.324   2.892 -1.2860  0.5349 -0.5170
  620TIP3   OH2 1865   2.305   3.538   4.191 -0.2870  0.2857  0.0728
  620TIP3    H1 1866   2.388   3.581   4.170  0.2622 -1.3172 -1.3216
  620TIP3    H2 1867   2.281   3.572   4.277  0.7794  2.2731 -0.3642
  621TIP3   OH2 1868   4.028   0.360   2.287  0.4335 -0.2725 -0.1288
  621TIP3    H1 1869   4.043   0.294   2.220  1.1929 -0.5940  0.3554
  621TIP3    H2 1870   4.030   0.443   2.239 -2.9436 -0.6433 -1.1738
  622TIP3   OH2 1871   6.108   2.010   4.768  1.1275  0.4533  0.3585
  622TIP3    H1 1872   6.057   2.003   4.849  1.4447 -1.5775  0.4458
  622TIP3    H2 1873   6.199   2.008   4.797  1.2501 -0.8495 -0.0452
  623TIP3   OH2 1874   0.851   1.232   3.827  0.6188  0.1403  0.1482
  623TIP3    H1 1875   0.887   1.145   3.840  1.0528  0.5043  1.5345
  623TIP3    H2 1876   0.908   1.272   3.761  0.8524 -0.3727  0.0381
  624TIP3   OH2 1877   3.790   5.201   1.402 -0.6954 -0.7735 -0.3697
  624TIP3    H1 1878   3.866   5.198   1.344 -0.1280  0.1579  0.3101
  624TIP3    H2 1879   3.775   5.109   1.427  0.9323 -0.8553  0.4076
  625TIP3   OH2 1880   4.202   4.385   4.866  0.0562  0.1585  0.1370
  625TIP3    H1 1881   4.181   4.327   4.793  0.0811 -0.4710  0.6238
  625TIP3    H2 1882   4.167   4.341   4.943 -2.1677  1.9725  0.2444
  626TIP3   OH2 1883   6.226   3.120   0.293  0.1292 -0.5896 -0.0611
  626TIP3    H1 1884   6.275   3.041   0.319  0.6055 -0.2941 -0.0568
  626TIP3    H2 1885   6.216   3.170   0.374 -0.1576 -0.6347 -0.0677
  627TIP3   OH2 1886   3.056   5.710   0.250 -0.4720  0.0767 -0.2229
  627TIP3    H1 1887   3.094   5.724   0.164 -0.1088 -0.6890 -0.1912
  627TIP3    H2 1888   3.121   5.657   0.297  0.3670  2.2556  1.2734
  628TIP3   OH2 1889   5.800   4.388   1.699 -0.4982  0.2155  0.0187
  628TIP3    H1 1890   5.885   4.360   1.734 -0.6038 -0.3387 -0.1517
  628TIP3    H2 1891   5.769   4.312   1.648 -1.6062 -0.0263  0.9965
  629TIP3   OH2 1892   4.283   5.536   4.808 -0.0018  0.4383 -0.3287
  629TIP3    H1 1893   4.284   5.505   4.899 -0.1561  0.5161 -0.3006
  629TIP3    H2 1894   4.207   5.594   4.803  0.1286  0.6001 -0.4525
  630TIP3   OH2 1895   3.512   0.754   0.041  0.5365  0.2090 -0.6273
  630TIP3    H1 1896   3.504   0.766  -0.054 -1.1693 -0.5604 -0.6173
  630TIP3    H2 1897   3.530   0.661   0.052 -2.1041 -0.3357 -0.1471
  631TIP3   OH2 1898   1.276   5.404   1.567  0.0612  0.3624  0.0681
  631TIP3    H1 1899   1.356   5.356   1.544  0.8800  2.0613 -0.8092
  631TIP3    H2 1900   1.283   5.420   1.661 -0.2686 -1.2327  0.4018
  632TIP3   OH2 1901   2.774   1.919   0.134 -0.4210  0.3443 -0.0732
  632TIP3    H1 1902   2.704   1.865   0.097 -0.1381  0.1772 -0.3719
  632TIP3    H2 1903   2.832   1.936   0.060 -0.1428  0.4776  0.1750
  633TIP3   OH2 1904   2.515   1.306   0.321  0.0824  0.1409 -0.0068
  633TIP3    H1 1905   2.550   1.394   0.333 -1.3579  1.0740 -2.0072
  633TIP3    H2 1906   2.477   1.283   0.406  2.2222  0.5608  1.1317
  634TIP3   OH2 1907   4.603   1.412   2.295  0.5314 -0.5391 -0.3220
  634TIP3    H1 1908   4.690   1.450   2.285  0.6493 -0.6905  0.0987
  634TIP3    H2 1909   4.549   1.457   2.230  1.1668 -1.2320 -1.3451
  635TIP3   OH2 1910   2.857   0.690   2.440 -0.6582 -0.4067 -0.2781
  635TIP3    H1 1911   2.824   0.609   2.400 -0.1676 -0.7325 -0.0259
  635TIP3    H2 1912   2.926   0.720   2.382 -1.9853  0.7869 -1.3120
  636TIP3   OH2 1913   6.062   1.846   2.362  0.4350 -0.4726  0.2004
  636TIP3    H1 1914   5.997   1.836   2.433 -0.0167 -1.7588 -0.3660
  636TIP3    H2 1915   6.136   1.793   2.390  0.8694  0.2425  0.4095
  637TIP3   OH2 1916   1.896   0.269   0.523 -0.1764 -0.0288 -0.1393
  637TIP3    H1 1917   1.973   0.325   0.527  0.4117 -0.8015 -0.3336
  637TIP3    H2 1918   1.837   0.314   0.463  0.1512  0.5389 -0.0418
  638TIP3   OH2 1919   6.277   1.607   2.021  0.0905  0.0478  0.2352
  638TIP3    H1 1920   6.223   1.668   1.971  0.4772  0.7360  0.6504
  638TIP3    H2 1921   6.230   1.596   2.104  0.1167 -0.0766  0.2339
  639TIP3   OH2 1922   2.917   4.009   2.353 -0.5172 -0.8560 -0.2964
  639TIP3    H1 1923   2.887   3.932   2.305 -0.5175 -0.6673 -0.5998
  639TIP3    H2 1924   2.908   4.081   2.291  0.2365 -0.7425 -0.2779
  640TIP3   OH2 1925   0.659   1.216   3.501 -0.3539 -0.5611  0.7826
  640TIP3    H1 1926   0.701   1.218   3.414  0.7559 -0.1057  1.3135
  640TIP3    H2 1927   0.598   1.290   3.500  1.0720  0.6603  1.0608
  641TIP3   OH2 1928   4.392   5.277   0.204  0.0873 -0.4191 -0.1563
  641TIP3    H1 1929   4.317   5.335   0.195 -0.9506 -1.3000  1.9308
  641TIP3    H2 1930   4.375   5.205   0.143  0.0816  0.1883 -0.8802
  642TIP3   OH2 1931   2.516   4.723   4.434  0.3908 -0.6998  0.0311
  642TIP3    H1 1932   2.578   4.650   4.433 -2.3228 -3.2136 -1.9327
  642TIP3    H2 1933   2.472   4.715   4.519  1.2641 -0.1934  0.5516
  643TIP3   OH2 1934   0.712   2.130   1.462  0.3553 -0.1134  0.2192
  643TIP3    H1 1935   0.772   2.201   1.439 -0.7359  0.6270 -0.3679
  643TIP3    H2 1936   0.746   2.097   1.545  1.3333  0.5613  0.1140
  644TIP3   OH2 1937   1.016   4.830   0.631 -0.2018  0.2245  0.0040
  644TIP3    H1 1938   1.048   4.883   0.704 -0.0095  0.9999 -0.6359
  644TIP3    H2 1939   1.095   4.808   0.582 -0.2952 -0.5525  0.1829
  645TIP3   OH2 1940   3.351   2.184   1.044  0.1348 -0.4498 -0.3957
  645TIP3    H1 1941   3.268   2.150   1.078  0.8919  0.9881  3.3554
  645TIP3    H2 1942   3.415   2.117   1.067  0.5416  0.1322  0.1956
  646TIP3   OH2 1943   2.862   4.722   4.265  0.6711  0.1743  0.0055
  646TIP3    H1 1944   2.825   4.653   4.320  0.0147  0.4158 -0.1156
  646TIP3    H2 1945   2.791   4.786   4.258  1.8836  1.8274  1.7437
  647TIP3   OH2 1946   6.047   1.741   4.889  0.3758 -0.0667  0.1413
  647TIP3    H1 1947   6.088   1.788   4.817 -1.5336  0.4856 -0.6288
  647TIP3    H2 1948   6.064   1.796   4.966 -0.4371  1.0733 -0.4734
  648TIP3   OH2 1949   0.315   0.215   0.264  0.3062  0.3898  0.1936
  648TIP3    H1 1950   0.249   0.254   0.206 -0.1136  0.2764  0.5902
  648TIP3    H2 1951   0.392   0.202   0.208  0.3275  1.4309 -0.0430
  649TIP3   OH2 1952   1.804   1.337   2.970  0.8467 -0.7706 -0.5028
  649TIP3    H1 1953   1.813   1.246   2.942  2.2685 -0.5081 -0.9801
  649TIP3    H2 1954   1.864   1.385   2.913 -0.2497  0.5387 -0.5825
  650TIP3   OH2 1955   0.642   0.241   1.167 -0.1717 -0.3132  0.4332
  650TIP3    H1 1956   0.694   0.252   1.087  0.6071 -1.9039  0.6685
  650TIP3    H2 1957   0.551   0.252   1.139  0.2348  3.8783  0.2543
  651TIP3   OH2 1958   3.932   4.260   3.274 -0.4956  0.0245 -0.4102
  651TIP3    H1 1959   3.983   4.185   3.303 -0.2206  0.3767  0.0471
  651TIP3    H2 1960   3.998   4.324   3.246 -0.7294 -1.2215 -4.3984
  652TIP3   OH2 1961   5.956   5.558   1.576 -0.0459  0.2318  0.5110
  652TIP3    H1 1962   6.010   5.489   1.616 -0.3933  1.0664  2.5623
  652TIP3    H2 1963   5.902   5.512   1.512  0.1340 -1.3330  1.4048
  653TIP3   OH2 1964   1.533   5.334   2.918  0.3477  0.2787 -0.0679
  653TIP3    H1 1965   1.509   5.397   2.986 -0.5259 -0.3644  0.2434
  653TIP3    H2 1966   1.628   5.336   2.916  0.4233 -0.1014  1.5961
  654TIP3   OH2 1967   0.598   5.420   4.295 -0.1902  0.3251  0.2555
  654TIP3    H1 1968   0.504   5.413   4.280  0.0861 -0.1752 -1.4560
  654TIP3    H2 1969   0.631   5.466   4.218  0.5504  3.9413  2.4980
  655TIP3   OH2 1970   1.064   5.177   4.456 -0.2030 -0.2238  0.2717
  655TIP3    H1 1971   1.152   5.146   4.478 -0.1515 -0.1333  0.1932
  655TIP3    H2 1972   1.071   5.272   4.457 -0.1391 -0.2134 -0.3774
  656TIP3   OH2 1973   5.166   3.135   2.678 -0.0531  0.0112  0.5744
  656TIP3    H1 1974   5.086   3.142   2.729 -1.4672 -1.3069 -1.3239
  656TIP3    H2 1975   5.236   3.133   2.743 -1.5076  1.3031  2.2838
  657TIP3   OH2 1976   0.739   4.907   4.158  0.0895  0.3461  0.2002
  657TIP3    H1 1977   0.725   4.995   4.193  1.5510  0.2901  1.0131
  657TIP3    H2 1978   0.688   4.850   4.215  0.7704  0.4734  0.9508
  658TIP3   OH2 1979   0.220   1.154   0.980 -0.2545 -0.3246 -0.5065
  658TIP3    H1 1980   0.302   1.152   1.029  0.6029 -1.2174 -1.9112
  658TIP3    H2 1981   0.230   1.226   0.918 -0.9506  0.2151  0.0055
  659TIP3   OH2 1982   3.921   2.623   4.521  0.2928 -0.3773  0.2540
  659TIP3    H1 1983   3.837   2.593   4.555 -1.5592  2.8107 -1.1107
  659TIP3    H2 1984   3.927   2.582   4.434 -2.0572  2.5134 -1.4573
  660TIP3   OH2 1985   5.056   2.332   1.807 -0.6008 -0.4282 -0.3129
  660TIP3    H1 1986   4.975   2.284   1.790 -0.8868  0.0396 -0.2957
  660TIP3    H2 1987   5.061   2.396   1.736  0.5634 -1.4547 -1.2208
  661TIP3   OH2 1988   5.596   5.866   0.610 -0.0235 -0.4801  0.1057
  661TIP3    H1 1989   5.547   5.862   0.528 -0.4056 -0.6447  0.3401
  661TIP3    H2 1990   5.603   5.775   0.639  0.2213 -0.4365  0.1920
  662TIP3   OH2 1991   3.612   0.733   4.096 -0.2106  0.5159  0.0027
  662TIP3    H1 1992   3.545   0.693   4.040 -0.2563 -0.9230  1.0504
  662TIP3    H2 1993   3.563   0.786   4.158 -0.2665  0.7049 -0.1994
  663TIP3   OH2 1994   1.972   1.723   4.336 -0.2682 -0.2895 -0.0652
  663TIP3    H1 1995   2.032   1.660   4.377 -0.4215 -0.4250 -0.0471
  663TIP3    H2 1996   1.896   1.724   4.394 -0.5205 -0.5410 -0.3909
  664TIP3   OH2 1997   0.008   3.709   2.068  0.2813  0.0361  0.0469
  664TIP3    H1 1998   0.088   3.721   2.119 -0.2017  3.3012  0.2486
  664TIP3    H2 1999   0.031   3.740   1.980 -0.4545 -0.1841 -0.2316
  665TIP3   OH2 2000   0.966   1.067   0.506  0.8681  0.0082  0.3006
  665TIP3    H1 2001   0.935   1.111   0.586  0.9401 -1.1653  0.9948
  665TIP3    H2 2002   0.893   1.075   0.445  0.9660  1.2902  0.3132
  666TIP3   OH2 2003   4.532   5.300   3.990  0.3303  0.5492 -1.0105
  666TIP3    H1 2004   4.609   5.306   4.046  0.6781  1.7795 -1.5904
  666TIP3    H2 2005   4.544   5.218   3.942 -0.5515 -1.1774  1.4833
  667TIP3   OH2 2006   4.014   5.248   1.202 -0.7057  0.4565  0.3434
  667TIP3    H1 2007   4.076   5.310   1.241 -2.3466  1.0819  2.1164
  667TIP3    H2 2008   3.945   5.303   1.166 -1.4428 -0.2838  0.5966
  668TIP3   OH2 2009   3.271   3.097   3.827 -0.0288  0.1251 -0.3655
  668TIP3    H1 2010   3.279   3.035   3.900 -0.3447 -0.1129 -0.5324
  668TIP3    H2 2011   3.337   3.163   3.846  1.3779 -1.0473 -0.9679
  669TIP3   OH2 2012   2.686   0.709   5.139 -0.7152  0.3889  0.1420
  669TIP3    H1 2013   2.715   0.621   5.114 -3.0908 -0.2222 -0.6971
  669TIP3    H2 2014   2.672   0.704   5.234  1.1250  0.5134  0.4554
  670TIP3   OH2 2015   3.218   1.207   1.538 -0.6810 -0.1706 -0.2825
  670TIP3    H1 2016   3.233   1.293   1.499 -2.3084 -1.0128 -3.0683
  670TIP3    H2 2017   3.305   1.171   1.552  0.0008  1.0986 -1.1169
  671TIP3   OH2 2018   3.188   3.802   3.657  0.1773  0.0701  0.2132
  671TIP3    H1 2019   3.267   3.835   3.699 -0.8558  2.8401  0.1445
  671TIP3    H2 2020   3.185   3.709   3.682  1.8065  0.5958  2.7457
  672TIP3   OH2 2021   5.792   0.143   3.068  0.1112  0.0772 -0.4101
  672TIP3    H1 2022   5.858   0.074   3.065  1.0054  0.9321 -1.5495
  672TIP3    H2 2023   5.834   0.218   3.024 -0.6455  1.5090  1.2056
  673TIP3   OH2 2024   1.891   0.014   2.457 -0.2046 -0.0778  0.2392
  673TIP3    H1 2025   1.932   0.053   2.380 -0.4527  0.2270  0.2574
  673TIP3    H2 2026   1.940   0.050   2.531  0.2723 -0.6563  0.2157
  674TIP3   OH2 2027   6.076   0.978   5.139  0.2619  0.1132  0.3989
  674TIP3    H1 2028   6.096   1.040   5.070 -4.0804  0.0477 -1.2536
  674TIP3    H2 2029   6.081   1.030   5.220 -0.9646  2.1104 -0.7029
  675TIP3   OH2 2030   3.879   3.364   4.643 -0.1963 -0.7881  0.1719
  675TIP3    H1 2031   3.811   3.409   4.693  1.7237  1.1676  1.2070
  675TIP3    H2 2032   3.895   3.283   4.691  0.2646  0.1537  1.6827
  676TIP3   OH2 2033   2.267   1.879   3.340 -0.1032  0.3832 -0.0676
  676TIP3    H1 2034   2.344   1.896   3.285  0.7163  0.6746  1.1180
  676TIP3    H2 2035   2.276   1.941   3.413 -1.9949  1.1028 -0.3953
  677TIP3   OH2 2036   0.767   1.136   0.328  0.3731  0.2462 -0.2202
  677TIP3    H1 2037   0.759   1.066   0.264  4.8596 -1.5408  0.8115
  677TIP3    H2 2038   0.791   1.213   0.278 -0.4263 -0.0011 -1.0013
  678TIP3   OH2 2039   5.676   2.721   4.604 -0.7339  0.0959 -0.3255
  678TIP3    H1 2040   5.661   2.653   4.539  0.1187  0.1939 -0.6433
  678TIP3    H2 2041   5.598   2.719   4.660 -0.6991 -1.1599 -0.3002
  679TIP3   OH2 2042   2.473   4.505   3.074  0.1184  0.7508 -0.4454
  679TIP3    H1 2043   2.459   4.596   3.045  0.1536  0.8676 -0.0986
  679TIP3    H2 2044   2.435   4.502   3.161  0.8740  0.6639 -0.1053
  680TIP3   OH2 2045   5.955   4.673   4.672  0.1118  0.1746 -0.4071
  680TIP3    H1 2046   6.011   4.704   4.744 -0.1923  1.0255 -0.5195
  680TIP3    H2 2047   5.998   4.594   4.641  0.1636 -0.3053  0.8131
  681TIP3   OH2 2048   1.044   3.334   3.689  0.2560  0.3069  0.1141
  681TIP3    H1 2049   1.045   3.430   3.683 -1.2847  0.3864  0.6565
  681TIP3    H2 2050   1.050   3.316   3.783 -1.5945 -0.0249  0.2101
  682TIP3   OH2 2051   4.548   1.740   4.057 -0.4130  0.1925 -0.0125
  682TIP3    H1 2052   4.458   1.719   4.034 -0.5452 -1.4053  1.6517
  682TIP3    H2 2053   4.544   1.769   4.148  0.9137 -2.0301  0.8503
  683TIP3   OH2 2054   0.326   5.370   4.197  0.6425  0.5973  0.2060
  683TIP3    H1 2055   0.242   5.383   4.242  0.2441  0.4750 -0.4769
  683TIP3    H2 2056   0.323   5.430   4.123 -0.3065 -1.7001 -1.7545
  684TIP3   OH2 2057   2.237   4.554   1.733  0.1580 -0.1796 -0.1632
  684TIP3    H1 2058   2.143   4.535   1.734  0.0650 -0.0757  3.2318
  684TIP3    H2 2059   2.243   4.648   1.744  0.6570 -0.2623  0.3302
  685TIP3   OH2 2060   4.719   0.745   4.783 -0.1701  0.0877  0.1108
  685TIP3    H1 2061   4.626   0.724   4.772  0.2407 -1.2762 -1.1221
  685TIP3    H2 2062   4.745   0.781   4.698  0.5006  0.1626  0.3445
  686TIP3   OH2 2063   4.889   0.310   2.757  0.1389 -0.1190  0.0666
  686TIP3    H1 2064   4.866   0.403   2.745  0.1987 -0.0106  0.7266
  686TIP3    H2 2065   4.867   0.269   2.674 -3.2900 -0.1810  0.8488
  687TIP3   OH2 2066   3.604   2.584   0.234 -0.2451 -0.0982  0.6431
  687TIP3    H1 2067   3.605   2.675   0.204 -0.8174  0.5892  2.5260
  687TIP3    H2 2068   3.653   2.586   0.317 -1.8284 -1.1175  1.6503
  688TIP3   OH2 2069   3.630   3.478   0.663 -0.4498 -0.0593  0.0143
  688TIP3    H1 2070   3.711   3.454   0.708 -0.2897 -1.4486 -0.9569
  688TIP3    H2 2071   3.656   3.546   0.601  0.2010 -1.2062 -1.0034
  689TIP3   OH2 2072   1.805   5.132   2.047  0.7473 -0.3194  0.2748
  689TIP3    H1 2073   1.798   5.149   2.140 -1.0082 -1.5287  0.4215
  689TIP3    H2 2074   1.760   5.048   2.034  1.8264 -0.6818 -1.5097
  690TIP3   OH2 2075   0.625   1.160   1.708 -0.3814  0.1556 -0.2837
  690TIP3    H1 2076   0.562   1.182   1.639  0.9319 -0.1651 -1.6465
  690TIP3    H2 2077   0.589   1.200   1.787 -1.0738  2.0840 -1.4830
  691TIP3   OH2 2078   2.911   2.364   1.944  0.0873  0.9748 -0.4595
  691TIP3    H1 2079   2.852   2.289   1.946 -0.6453  1.5486  0.6175
  691TIP3    H2 2080   2.920   2.385   1.851 -0.8137  0.4041 -0.6862
  692TIP3   OH2 2081   1.374   1.884   0.720 -0.6206  0.2264 -0.1153
  692TIP3    H1 2082   1.428   1.910   0.795  1.1621 -0.1738 -1.2028
  692TIP3    H2 2083   1.286   1.914   0.743  0.4546  3.0992  0.6872
  693TIP3   OH2 2084   1.772   2.740   3.994  0.5798  0.2734 -0.4664
  693TIP3    H1 2085   1.792   2.746   3.900 -0.7697 -2.7339 -1.0509
  693TIP3    H2 2086   1.678   2.725   3.997  0.7068 -0.3690  1.3326
  694TIP3   OH2 2087   4.908   2.611   4.074  0.4251 -0.5505  0.1914
  694TIP3    H1 2088   4.856   2.680   4.115  0.7373 -0.3406  0.2352
  694TIP3    H2 2089   4.897   2.536   4.132 -1.2123 -1.0385 -0.6868
  695TIP3   OH2 2090   2.837   0.114   1.180  0.1895  0.4106 -0.3334
  695TIP3    H1 2091   2.815   0.032   1.137 -1.7424  0.2756  0.8268
  695TIP3    H2 2092   2.895   0.089   1.252 -0.8778 -0.0410  0.3877
  696TIP3   OH2 2093   6.302   5.770   0.900  0.0584  0.4159  0.4651
  696TIP3    H1 2094   6.334   5.757   0.989 -0.3829  1.7738  0.8415
  696TIP3    H2 2095   6.213   5.736   0.901  0.2774 -0.1612  0.3669
  697TIP3   OH2 2096   5.675   0.179   0.966  0.3544  0.3796  0.4071
  697TIP3    H1 2097   5.687   0.169   1.060  0.9963 -1.0703  0.2028
  697TIP3    H2 2098   5.581   0.181   0.954  0.0934 -2.9036  0.8552
  698TIP3   OH2 2099   1.693   0.099   1.406  0.4602  0.7257  0.3258
  698TIP3    H1 2100   1.682   0.005   1.419 -0.3957  0.4722 -1.8655
  698TIP3    H2 2101   1.774   0.106   1.355 -0.1795  1.0503 -0.6658
  699TIP3   OH2 2102   3.252   5.220   1.087 -0.1333  0.5339  0.2172
  699TIP3    H1 2103   3.217   5.286   1.147 -0.3990  0.5768  0.0181
  699TIP3    H2 2104   3.315   5.171   1.139 -1.3444 -0.3209  0.9466
  700TIP3   OH2 2105   3.625   4.286   0.727  0.3323  0.4100  0.7027
  700TIP3    H1 2106   3.611   4.192   0.713  0.4517  0.3503  0.9708
  700TIP3    H2 2107   3.581   4.328   0.654 -0.9252  0.2057  1.3212
  701TIP3   OH2 2108   1.276   4.251   2.835  0.1317 -0.4834 -0.7595
  701TIP3    H1 2109   1.335   4.176   2.826  1.1862  0.1000  0.7147
  701TIP3    H2 2110   1.189   4.213   2.847  0.6512 -1.4939 -0.0228
  702TIP3   OH2 2111   1.543   1.207   3.528  0.1626  0.6170  0.0958
  702TIP3    H1 2112   1.617   1.147   3.543  0.1568  0.4167 -0.6716
  702TIP3    H2 2113   1.474   1.152   3.492 -0.0979  0.9504  0.0787
  703TIP3   OH2 2114   1.320   1.216   2.280 -0.3026 -0.0889  0.0863
  703TIP3    H1 2115   1.322   1.257   2.367 -1.7464 -0.3202  0.2536
  703TIP3    H2 2116   1.394   1.155   2.281  1.7103  2.2314 -0.0642
  704TIP3   OH2 2117   2.435   5.105   2.103  0.1435  0.1500 -0.0650
  704TIP3    H1 2118   2.383   5.150   2.037 -0.3011 -1.1267 -0.6122
  704TIP3    H2 2119   2.417   5.012   2.089  1.8209 -0.2787  0.3505
  705TIP3   OH2 2120   5.066   0.674   4.464 -0.2368  0.0678  0.0308
  705TIP3    H1 2121   5.104   0.608   4.406 -1.0027 -0.8124  0.5089
  705TIP3    H2 2122   5.134   0.692   4.529  1.5329  2.7033 -2.2941
  706TIP3   OH2 2123   1.978   0.313   1.095  0.5243 -0.6225 -0.1530
  706TIP3    H1 2124   1.983   0.354   1.009  1.2699  1.3572  0.7818
  706TIP3    H2 2125   1.893   0.337   1.130  1.2550  0.8634  0.7035
  707TIP3   OH2 2126   0.146   1.346   1.643  0.1811 -0.0602  0.2404
  707TIP3    H1 2127   0.063   1.392   1.634 -0.1051 -0.5387  0.4139
  707TIP3    H2 2128   0.122   1.253   1.642  0.8281 -0.2322 -0.9462
  708TIP3   OH2 2129   1.497   3.867   0.316  0.7533  0.2236  0.0534
  708TIP3    H1 2130   1.464   3.801   0.256  0.1338 -0.2709  0.9159
  708TIP3    H2 2131   1.513   3.944   0.261 -2.8181  0.8662 -0.3167
  709TIP3   OH2 2132   4.323   4.804   2.576 -0.0047  0.0657 -0.2474
  709TIP3    H1 2133   4.289   4.822   2.488 -1.8606  1.6092  0.7190
  709TIP3    H2 2134   4.377   4.881   2.596 -2.8778  1.7767  1.4676
  710TIP3   OH2 2135   5.372   0.129   0.274 -0.5213  0.4087  0.3760
  710TIP3    H1 2136   5.398   0.070   0.203 -0.3780  1.1004 -0.1536
  710TIP3    H2 2137   5.450   0.183   0.290 -0.4891  0.1409  1.1901
  711TIP3   OH2 2138   2.228   2.177   1.833 -0.2603  0.4478  0.4784
  711TIP3    H1 2139   2.313   2.218   1.816 -0.7980  1.4222  0.0132
  711TIP3    H2 2140   2.247   2.084   1.842  0.6973  0.4702 -0.9121
  712TIP3   OH2 2141   1.337   5.174   4.999  0.2477 -0.1946 -0.3745
  712TIP3    H1 2142   1.262   5.202   5.052  0.8957 -1.4496  1.3108
  712TIP3    H2 2143   1.368   5.254   4.956  0.0695  1.0493  1.6693
  713TIP3   OH2 2144   3.506   0.264   0.887  0.1696 -0.0864 -0.1730
  713TIP3    H1 2145   3.551   0.186   0.920  0.9463  1.0386  1.6348
  713TIP3    H2 2146   3.415   0.253   0.914  0.0563 -0.8136 -0.8267
  714TIP3   OH2 2147   2.795   2.530   3.936  0.2319  0.1788 -0.1972
  714TIP3    H1 2148   2.763   2.440   3.931 -0.8270  0.5751 -1.0702
  714TIP3    H2 2149   2.882   2.527   3.898  1.2259 -0.8896  1.9775
  715TIP3   OH2 2150   3.134   0.876   2.776 -0.4153 -0.1221 -0.0050
  715TIP3    H1 2151   3.047   0.847   2.748 -1.1555  2.3260 -0.4481
  715TIP3    H2 2152   3.191   0.851   2.704 -0.6619 -1.9587  0.3830
  716TIP3   OH2 2153   3.494   4.454   3.871  0.6992 -0.1039  0.1165
  716TIP3    H1 2154   3.440   4.528   3.844  1.5163  0.1325 -0.9172
  716TIP3    H2 2155   3.536   4.484   3.952  1.0988  0.6137 -0.3436
  717TIP3   OH2 2156   0.353   0.538   3.706  0.1664 -0.1633 -0.2547
  717TIP3    H1 2157   0.401   0.613   3.669 -2.0238  1.0297 -0.8473
  717TIP3    H2 2158   0.373   0.465   3.647  1.2194  0.3021 -0.4944
  718TIP3   OH2 2159   1.140   5.579   1.293  0.0306 -0.2134  0.0327
  718TIP3    H1 2160   1.227   5.616   1.308 -0.6221  1.0324  0.8962
  718TIP3    H2 2161   1.156   5.496   1.247  1.6158  0.4648 -0.6871
  719TIP3   OH2 2162   0.668   2.366   5.118 -0.6344 -0.3008  0.1346
  719TIP3    H1 2163   0.596   2.371   5.056 -0.3891 -1.5727 -0.2771
  719TIP3    H2 2164   0.625   2.364   5.204 -0.9468  2.2717  0.1079
  720TIP3   OH2 2165   2.254   3.871   2.313  0.3924 -0.2000 -0.3925
  720TIP3    H1 2166   2.160   3.888   2.319  0.2332 -0.8529 -0.8427
  720TIP3    H2 2167   2.289   3.898   2.398 -0.2680 -0.3252 -0.0690
  721TIP3   OH2 2168   1.870   4.695   4.072 -0.2839  0.3243  0.3230
  721TIP3    H1 2169   1.882   4.749   3.994 -0.6065  2.0014  1.3722
  721TIP3    H2 2170   1.959   4.681   4.105 -0.1515 -0.3415 -0.2957
  722TIP3   OH2 2171   3.494   0.513   1.421  0.2887  0.2665  0.0163
  722TIP3    H1 2172   3.576   0.519   1.371  0.1891  1.1001 -0.0519
  722TIP3    H2 2173   3.495   0.589   1.479  0.1807 -0.4349  0.9689
  723TIP3   OH2 2174   1.412   5.667   1.613 -0.2104  0.3315  0.1171
  723TIP3    H1 2175   1.376   5.579   1.605 -0.2286  0.3778 -0.3456
  723TIP3    H2 2176   1.351   5.713   1.671 -0.8780  0.3898 -0.6136
  724TIP3   OH2 2177   0.685   3.472   0.366  0.5755 -0.2183 -0.0317
  724TIP3    H1 2178   0.768   3.472   0.414  1.1728 -1.0153 -1.0099
  724TIP3    H2 2179   0.634   3.401   0.405  0.9002 -0.6023 -0.2933
  725TIP3   OH2 2180   3.461   4.366   2.465 -0.2370 -0.1586  0.0123
  725TIP3    H1 2181   3.366   4.365   2.478 -0.3941 -0.5222 -1.1170
  725TIP3    H2 2182   3.474   4.340   2.374  0.9249  0.3709  0.0026
  726TIP3   OH2 2183   3.586   5.678   0.287  0.2189  0.2044 -0.4681
  726TIP3    H1 2184   3.591   5.756   0.232 -0.6474 -0.1584 -1.0791
  726TIP3    H2 2185   3.675   5.643   0.288  0.9143  1.8739  0.8406
  727TIP3   OH2 2186   0.827   0.729   2.564 -0.0124 -0.5371 -0.5206
  727TIP3    H1 2187   0.777   0.648   2.552  0.1190 -0.2476 -4.1745
  727TIP3    H2 2188   0.761   0.798   2.564  0.0886 -0.4343 -1.1086
  728TIP3   OH2 2189   0.156   2.586   0.574  0.2195  0.2023  0.2286
  728TIP3    H1 2190   0.104   2.506   0.584 -0.0122  0.3880  0.5164
  728TIP3    H2 2191   0.225   2.578   0.639 -0.2042  0.5515  0.7258
  729TIP3   OH2 2192   0.551   4.195   2.293 -0.7281  0.5460  0.5242
  729TIP3    H1 2193   0.615   4.242   2.240 -0.6166 -1.0473 -0.8543
  729TIP3    H2 2194   0.602   4.124   2.334 -1.4930 -0.5283 -0.3071
  730TIP3   OH2 2195   5.696   0.977   0.102  0.2272 -0.1758 -0.7599
  730TIP3    H1 2196   5.760   0.932   0.048  1.3888 -1.4944  1.5363
  730TIP3    H2 2197   5.614   0.930   0.088  0.8110 -1.3243 -0.4304
  731TIP3   OH2 2198   5.582   0.452   2.179 -0.5136  0.4034 -0.3518
  731TIP3    H1 2199   5.608   0.404   2.258 -0.6322  1.2707  0.2262
  731TIP3    H2 2200   5.584   0.386   2.109  0.8246 -0.1019  0.1328
  732TIP3   OH2 2201   5.296   3.184   3.096  0.0424  0.2508 -0.2854
  732TIP3    H1 2202   5.225   3.242   3.120 -0.2926 -0.5828  0.8540
  732TIP3    H2 2203   5.253   3.106   3.061  0.1409 -1.3598  2.7736
  733TIP3   OH2 2204   6.149   0.709   0.913 -0.3356 -0.4636 -0.0247
  733TIP3    H1 2205   6.205   0.695   0.837  1.0762 -0.1048  0.8921
  733TIP3    H2 2206   6.080   0.766   0.882  0.9877  0.8294 -0.7393
  734TIP3   OH2 2207   5.088   1.261   2.772  0.2155  0.2047  0.5367
  734TIP3    H1 2208   5.101   1.184   2.716  1.2091  1.3329 -0.8627
  734TIP3    H2 2209   5.172   1.306   2.772 -0.5178  1.6560  0.7327
  735TIP3   OH2 2210   1.716   0.923   2.194 -0.3432  0.1837 -0.3364
  735TIP3    H1 2211   1.704   0.964   2.108 -0.5698 -0.9497 -0.8563
  735TIP3    H2 2212   1.697   0.831   2.180  0.5819 -0.1934  0.7200
  736TIP3   OH2 2213   4.029   3.335   0.402 -0.2001 -0.2499 -0.1785
  736TIP3    H1 2214   4.112   3.291   0.422 -1.0784 -1.8834  0.0253
  736TIP3    H2 2215   4.042   3.371   0.314  0.7815 -0.3382 -0.0771
  737TIP3   OH2 2216   3.628   5.061   3.185 -0.2884  0.4654 -0.3990
  737TIP3    H1 2217   3.700   5.002   3.161 -0.6683  0.0832 -0.6268
  737TIP3    H2 2218   3.664   5.149   3.172  0.0392  0.2768 -0.8173
  738TIP3   OH2 2219   2.746   1.937   3.396  0.3668  0.2835 -0.4632
  738TIP3    H1 2220   2.810   1.913   3.329  0.4843  0.7485 -0.5209
  738TIP3    H2 2221   2.661   1.926   3.353  0.2466 -2.6845  0.3393
  739TIP3   OH2 2222   4.120   4.684   5.157  0.0918  0.1115  0.2521
  739TIP3    H1 2223   4.080   4.618   5.213 -0.3004 -0.2379 -0.4265
  739TIP3    H2 2224   4.200   4.643   5.125  0.2223  0.2427  0.4079
  740TIP3   OH2 2225   2.056   5.552   1.271 -0.1906 -0.6697 -0.5559
  740TIP3    H1 2226   1.983   5.550   1.210  0.8960 -0.3371 -1.9017
  740TIP3    H2 2227   2.126   5.596   1.224  1.6950 -3.0987 -0.2014
  741TIP3   OH2 2228   2.838   3.843   1.440 -0.1808  0.1067  0.2074
  741TIP3    H1 2229   2.904   3.802   1.496  1.1486  0.3010 -1.1765
  741TIP3    H2 2230   2.862   3.935   1.438 -0.6392  0.2212 -0.1289
  742TIP3   OH2 2231   5.990   3.905   3.666  0.3906 -0.6094 -0.9826
  742TIP3    H1 2232   6.036   3.829   3.702 -1.4194 -0.7281  1.2473
  742TIP3    H2 2233   5.905   3.872   3.639 -0.5828  0.6514  0.3888
  743TIP3   OH2 2234   0.428   1.224   3.987  0.3526  0.5913  0.5043
  743TIP3    H1 2235   0.468   1.141   3.962 -0.3676  0.6187 -0.8287
  743TIP3    H2 2236   0.334   1.208   3.983  0.1795  1.7022 -0.7355
  744TIP3   OH2 2237   1.834   0.998   4.229 -0.0647 -0.0277 -0.8382
  744TIP3    H1 2238   1.814   0.917   4.183 -2.8501  1.3558 -2.3332
  744TIP3    H2 2239   1.793   0.986   4.315  0.6118 -0.6270 -0.5842
  745TIP3   OH2 2240   3.382   2.533   2.216  0.1655 -0.0178  0.1764
  745TIP3    H1 2241   3.289   2.523   2.235 -0.4619  2.8722 -0.8562
  745TIP3    H2 2242   3.385   2.583   2.134  2.6160  0.2035  0.3222
  746TIP3   OH2 2243   4.640   0.356   1.550 -0.4570 -0.1124  0.3764
  746TIP3    H1 2244   4.551   0.322   1.564 -0.5380  0.1903  0.6011
  746TIP3    H2 2245   4.694   0.308   1.613 -0.4685 -0.2689  0.2669
  747TIP3   OH2 2246   3.722   2.391   1.623  0.0038  0.1736 -0.1386
  747TIP3    H1 2247   3.808   2.428   1.643  1.1134 -0.6944 -2.8005
  747TIP3    H2 2248   3.727   2.301   1.656  0.8380 -0.4235 -1.7669
  748TIP3   OH2 2249   1.206   4.615   4.311  0.5859 -0.4502 -0.7348
  748TIP3    H1 2250   1.159   4.541   4.272  1.0075 -1.9497  1.4379
  748TIP3    H2 2251   1.141   4.656   4.369  1.2885 -1.2349  0.6538
  749TIP3   OH2 2252   1.526   4.042   3.021 -0.1011  0.2896  0.1610
  749TIP3    H1 2253   1.560   4.067   2.935 -0.1981 -2.0973 -0.6308
  749TIP3    H2 2254   1.578   3.966   3.047 -0.6726  0.4188  1.8232
  750TIP3   OH2 2255   3.181   0.579   4.304 -0.2130 -0.2817 -0.1993
  750TIP3    H1 2256   3.182   0.562   4.209 -0.2754  2.3161 -0.7499
  750TIP3    H2 2257   3.221   0.501   4.343  1.0309 -0.8809 -2.4773
  751TIP3   OH2 2258   2.211   1.612   3.442  0.5156  0.5406 -0.0570
  751TIP3    H1 2259   2.206   1.692   3.391 -0.6076  0.2111 -0.4982
  751TIP3    H2 2260   2.226   1.641   3.532  2.4933  1.1222 -0.5302
  752TIP3   OH2 2261   2.160   0.221   3.359 -0.6280 -0.5287 -0.0440
  752TIP3    H1 2262   2.220   0.147   3.352 -1.5511 -1.1718 -2.4448
  752TIP3    H2 2263   2.211   0.296   3.330  0.2145 -0.2125  2.0833
  753TIP3   OH2 2264   0.054   0.077   3.487 -0.0935  0.0899 -0.3734
  753TIP3    H1 2265   0.020   0.034   3.566  0.8849  0.3308  0.2031
  753TIP3    H2 2266   0.060   0.169   3.512 -1.4131  0.4546 -1.3283
  754TIP3   OH2 2267   2.740   0.398   3.207 -0.7001  0.3812  0.3122
  754TIP3    H1 2268   2.806   0.466   3.217 -1.5961  0.9579  2.8552
  754TIP3    H2 2269   2.732   0.386   3.112  2.6322  0.6359 -0.0991
  755TIP3   OH2 2270   0.136   0.334   3.559 -0.4023  0.4249  0.7930
  755TIP3    H1 2271   0.225   0.303   3.580  1.0011  1.3851 -2.8716
  755TIP3    H2 2272   0.145   0.429   3.551 -1.6113  0.4880 -0.0752
  756TIP3   OH2 2273   5.374   1.320   2.872  0.8290  0.1648  0.5562
  756TIP3    H1 2274   5.370   1.238   2.822  0.3464 -0.1209  1.0528
  756TIP3    H2 2275   5.400   1.294   2.960 -1.4310  0.2368  1.3114
  757TIP3   OH2 2276   0.503   5.593   2.248 -0.5576  0.6534 -0.1659
  757TIP3    H1 2277   0.558   5.573   2.173 -0.7052  0.3229 -0.1862
  757TIP3    H2 2278   0.414   5.577   2.218 -0.5752 -0.1350  0.2776
  758TIP3   OH2 2279   4.552   5.106   1.126 -0.2125 -0.4075  0.0877
  758TIP3    H1 2280   4.614   5.061   1.070  0.1639 -0.1281  0.2761
  758TIP3    H2 2281   4.549   5.054   1.206  0.2201 -0.1065  0.3040
  759TIP3   OH2 2282   1.393   3.034   3.322 -0.6394  0.9079 -0.2565
  759TIP3    H1 2283   1.487   3.052   3.315  0.0064 -1.2585  1.5803
  759TIP3    H2 2284   1.363   3.092   3.392  0.3196 -1.2178  2.0631
  760TIP3   OH2 2285   4.306   2.150   0.060 -0.2659 -0.3137  0.0136
  760TIP3    H1 2286   4.212   2.165   0.068  0.1180  2.1936  0.7303
  760TIP3    H2 2287   4.340   2.159   0.149  0.8596  0.8367 -0.4991
  761TIP3   OH2 2288   4.800   3.727   2.600 -0.3252  0.0864 -0.2463
  761TIP3    H1 2289   4.847   3.782   2.538  0.3277  0.8165  0.8430
  761TIP3    H2 2290   4.711   3.719   2.564  0.7456 -1.9444 -2.7327
  762TIP3   OH2 2291   4.204   1.409   2.293 -0.1525  0.4722 -0.0890
  762TIP3    H1 2292   4.182   1.417   2.200 -0.5966  0.6234  0.0259
  762TIP3    H2 2293   4.244   1.492   2.316  2.2414 -0.4222 -0.7288
  763TIP3   OH2 2294   4.201   1.090   0.070 -0.6138 -0.0712  0.3035
  763TIP3    H1 2295   4.231   1.031   0.139 -0.2940 -1.5315 -1.0084
  763TIP3    H2 2296   4.105   1.081   0.071 -0.6535  0.3917  0.9496
  764TIP3   OH2 2297   0.555   3.147   3.775  0.5526  0.1983  0.4664
  764TIP3    H1 2298   0.533   3.234   3.739  0.0007 -0.5740 -1.1564
  764TIP3    H2 2299   0.591   3.099   3.701  1.1268 -0.8766  1.4250
  765TIP3   OH2 2300   1.835   3.602   0.993 -0.4230  0.3065 -0.0821
  765TIP3    H1 2301   1.899   3.531   0.992 -1.6046 -0.8089 -1.1340
  765TIP3    H2 2302   1.887   3.681   1.006  1.1531 -0.5619 -0.7758
  766TIP3   OH2 2303   0.195   2.083   2.861 -0.1821  0.6380 -0.0878
  766TIP3    H1 2304   0.220   1.994   2.888 -0.2367  0.1507 -1.5570
  766TIP3    H2 2305   0.246   2.140   2.919  0.1764 -0.3474  0.6075
  767TIP3   OH2 2306   1.983   5.595   1.518  0.4820 -0.0476 -0.8305
  767TIP3    H1 2307   2.016   5.570   1.432  0.2457  0.6600 -1.1305
  767TIP3    H2 2308   1.888   5.591   1.510  0.4622 -0.3850 -0.4764
  768TIP3   OH2 2309   4.076   1.069   1.205  0.4648  0.4979 -0.5153
  768TIP3    H1 2310   4.055   1.162   1.210  0.3294  0.4379  0.0975
  768TIP3    H2 2311   4.040   1.041   1.121  0.5915  1.0148 -0.7483
  769TIP3   OH2 2312   5.910   1.191   3.383  0.3447 -0.1537  0.5751
  769TIP3    H1 2313   5.981   1.201   3.320  0.3258 -2.0176  0.2037
  769TIP3    H2 2314   5.954   1.179   3.467  0.4040  0.6726  0.6708
  770TIP3   OH2 2315   1.652   0.863   2.527  0.2520  0.2849 -0.0663
  770TIP3    H1 2316   1.739   0.856   2.488 -0.2210 -0.8078 -0.9775
  770TIP3    H2 2317   1.635   0.957   2.532  1.8005  0.5453  0.8850
  771TIP3   OH2 2318   3.007   3.109   1.357  0.1215  0.4379  0.2244
  771TIP3    H1 2319   3.073   3.066   1.302 -2.4164  1.1487 -3.8609
  771TIP3    H2 2320   2.973   3.039   1.412  1.3075 -0.9683 -0.7333
  772TIP3   OH2 2321   1.335   1.056   3.365 -0.0761  0.1712 -0.3547
  772TIP3    H1 2322   1.248   1.068   3.327  0.1716 -0.2321 -1.0567
  772TIP3    H2 2323   1.354   0.963   3.353 -0.1211 -0.0503  1.0490
  773TIP3   OH2 2324   0.435   5.434   0.451 -0.0346 -0.4604 -0.3280
  773TIP3    H1 2325   0.484   5.420   0.370  1.7524  1.4866  0.3363
  773TIP3    H2 2326   0.470   5.368   0.511  0.4371 -0.2894 -0.4098
  774TIP3   OH2 2327   4.943   3.854   2.395  0.0288  0.0958  0.0497
  774TIP3    H1 2328   5.031   3.888   2.378  0.1333  0.2536  0.9009
  774TIP3    H2 2329   4.895   3.871   2.314  0.8691 -0.2977 -0.5545
  775TIP3   OH2 2330   6.282   2.506   2.539 -0.4319  0.0585 -0.4451
  775TIP3    H1 2331   6.365   2.483   2.580 -1.3843 -1.6962  0.6002
  775TIP3    H2 2332   6.259   2.590   2.580  0.5697  0.3281 -0.3940
  776TIP3   OH2 2333   1.199   0.531   1.026 -1.0181 -0.5692 -0.6883
  776TIP3    H1 2334   1.248   0.488   0.956  0.0799 -0.0843 -0.2289
  776TIP3    H2 2335   1.111   0.495   1.018 -0.8716 -0.6708 -2.1900
  777TIP3   OH2 2336   2.908   0.994   3.719 -0.1193  0.3005 -0.2729
  777TIP3    H1 2337   2.827   1.023   3.762  0.5516  0.1312  1.1758
  777TIP3    H2 2338   2.977   1.027   3.776  0.8519  0.5964 -1.5907
  778TIP3   OH2 2339   6.031   1.622   1.407 -0.0499 -0.0326  0.0989
  778TIP3    H1 2340   6.039   1.656   1.496  0.5293 -1.1642  0.5013
  778TIP3    H2 2341   5.966   1.679   1.366  0.7602  1.4526  0.7662
  779TIP3   OH2 2342   5.192   2.511   1.118  0.4190  0.0209  0.4295
  779TIP3    H1 2343   5.196   2.602   1.145  1.2503  0.0464  0.2465
  779TIP3    H2 2344   5.250   2.465   1.179  2.6435  0.1362 -1.4598
  780TIP3   OH2 2345   5.727   0.993   3.345  0.0458  0.1785  0.3493
  780TIP3    H1 2346   5.655   1.041   3.385 -0.0231  0.6014 -0.2660
  780TIP3    H2 2347   5.802   1.052   3.353 -0.2622  0.8579 -1.3139
  781TIP3   OH2 2348   4.131   4.737   1.223  0.4411  0.0755 -0.1007
  781TIP3    H1 2349   4.192   4.725   1.151  0.4820 -0.7984  0.0742
  781TIP3    H2 2350   4.081   4.655   1.227 -0.3416  0.5492  0.1335
  782TIP3   OH2 2351   1.829   1.179   3.685 -0.1636  0.0257 -0.6724
  782TIP3    H1 2352   1.906   1.206   3.634 -0.5022 -0.8951 -1.6937
  782TIP3    H2 2353   1.770   1.254   3.681 -0.6407 -0.4174 -2.5731
  783TIP3   OH2 2354   5.213   0.749   3.846  0.4024  0.4603  0.1465
  783TIP3    H1 2355   5.204   0.708   3.759  0.0568 -0.2933  0.5284
  783TIP3    H2 2356   5.196   0.842   3.830  1.7345  0.5617 -0.8284
  784TIP3   OH2 2357   1.241   4.686   2.003 -0.2061 -0.4562  0.5670
  784TIP3    H1 2358   1.222   4.620   2.070  0.5733 -0.2813  0.9703
  784TIP3    H2 2359   1.212   4.646   1.921 -0.7639 -0.8525  0.9509
  785TIP3   OH2 2360   3.235   3.648   2.070  0.1416 -0.0296  0.3338
  785TIP3    H1 2361   3.159   3.693   2.034 -0.3598 -1.1323 -0.0332
  785TIP3    H2 2362   3.307   3.711   2.062 -1.0794  1.7628  2.4508
  786TIP3   OH2 2363   2.449   0.412   3.611 -0.4150 -0.0784  0.8751
  786TIP3    H1 2364   2.456   0.482   3.676  1.3832 -1.7567  2.6228
  786TIP3    H2 2365   2.372   0.361   3.640 -2.3786  1.6458 -1.0042
  787TIP3   OH2 2366   2.914   4.208   1.140  0.3739 -0.4930  0.2239
  787TIP3    H1 2367   2.828   4.188   1.175  0.0452 -0.1977 -0.3863
  787TIP3    H2 2368   2.908   4.301   1.115  0.3447 -0.8623 -1.2508
  788TIP3   OH2 2369   2.098   0.115   0.857 -0.9160  0.2161  0.4399
  788TIP3    H1 2370   2.009   0.142   0.878 -1.1256  2.6011 -2.7232
  788TIP3    H2 2371   2.089   0.029   0.816 -1.8741  0.6750 -0.3543
  789TIP3   OH2 2372   5.149   3.163   5.156 -0.0505  0.0050  0.1106
  789TIP3    H1 2373   5.081   3.226   5.130 -1.3174 -1.1527  0.5217
  789TIP3    H2 2374   5.231   3.210   5.142 -0.7688  0.5599 -3.0071
  790TIP3   OH2 2375   1.970   4.048   0.521  0.5036  0.1962 -0.0081
  790TIP3    H1 2376   2.035   4.094   0.574  2.3482 -0.6591 -1.3767
  790TIP3    H2 2377   1.893   4.041   0.576  1.6624  1.0587  1.7979
  791TIP3   OH2 2378   4.447   3.863   4.316  0.6003  0.6161  0.0550
  791TIP3    H1 2379   4.470   3.943   4.268  3.4077  0.5377  1.0972
  791TIP3    H2 2380   4.462   3.792   4.252 -0.2475  0.7924 -0.3510
  792TIP3   OH2 2381   0.723   3.954   4.684 -0.1084  0.0962 -0.4606
  792TIP3    H1 2382   0.736   3.990   4.772 -0.2148  1.2245 -0.8932
  792TIP3    H2 2383   0.684   3.868   4.699  0.6407 -0.0807  0.6216
  793TIP3   OH2 2384   4.975   3.137   0.703  0.4602  0.2660 -0.2508
  793TIP3    H1 2385   5.050   3.085   0.677  0.1479 -0.9522  1.1454
  793TIP3    H2 2386   4.900   3.077   0.694  0.1566  0.2659  1.8462
  794TIP3   OH2 2387   5.777   4.853   1.739  0.5778  0.0519 -0.0985
  794TIP3    H1 2388   5.764   4.773   1.689  1.0066 -0.7963  1.1143
  794TIP3    H2 2389   5.871   4.855   1.758  0.5622  0.8034 -0.0401
  795TIP3   OH2 2390   0.874   0.143   0.985 -0.4538  0.5275 -0.3518
  795TIP3    H1 2391   0.928   0.155   0.907 -0.0272 -1.1289 -0.3534
  795TIP3    H2 2392   0.890   0.052   1.011 -1.1788  0.8188  1.2221
  796TIP3   OH2 2393   4.386   1.827   1.534  0.1712  0.5294  0.1828
  796TIP3    H1 2394   4.300   1.789   1.555 -0.6776  2.1967 -0.1195
  796TIP3    H2 2395   4.436   1.818   1.616  0.3868 -2.0817 -0.1596
  797TIP3   OH2 2396   0.665   5.070   1.808  0.3424 -0.3751  0.1080
  797TIP3    H1 2397   0.760   5.084   1.809  0.2254  0.8197 -1.2128
  797TIP3    H2 2398   0.653   4.992   1.754  0.6090 -1.2918  1.3208
  798TIP3   OH2 2399   1.443   0.661   5.143  0.2668  0.2145 -0.1731
  798TIP3    H1 2400   1.526   0.701   5.169  0.4613  0.6727 -1.4497
  798TIP3    H2 2401   1.377   0.725   5.172  0.3925  0.1602  0.2478
  799TIP3   OH2 2402   5.376   4.854   0.836  0.2430  0.0336 -0.0928
  799TIP3    H1 2403   5.295   4.829   0.881  0.0083  1.2381  0.1757
  799TIP3    H2 2404   5.425   4.772   0.829 -0.2741 -0.4280  1.2298
  800TIP3   OH2 2405   6.133   3.372   1.945 -0.2251 -0.2081 -0.4526
  800TIP3    H1 2406   6.194   3.317   1.895 -3.0487 -3.4485 -0.7592
  800TIP3    H2 2407   6.149   3.348   2.036 -0.6499 -0.7035 -0.4999
  801TIP3   OH2 2408   4.062   0.813   3.383 -0.3693 -0.2634 -0.3576
  801TIP3    H1 2409   4.052   0.730   3.430 -0.4602  0.2716  0.6091
  801TIP3    H2 2410   4.003   0.806   3.308 -1.2420 -0.6519  0.3349
  802TIP3   OH2 2411   3.756   0.815   1.319 -0.0002  0.4476  0.0350
  802TIP3    H1 2412   3.738   0.881   1.252 -2.0256 -1.2884 -1.2901
  802TIP3    H2 2413   3.724   0.854   1.400 -0.7507  1.2772 -0.6417
  803TIP3   OH2 2414   3.438   2.774   5.202 -0.0812 -0.1671 -0.0172
  803TIP3    H1 2415   3.369   2.825   5.161  2.0991  1.7587 -1.5765
  803TIP3    H2 2416   3.429   2.686   5.164 -0.6726  0.4889 -1.4452
  804TIP3   OH2 2417   2.549   4.721   2.638 -0.6187  0.0451 -0.0297
  804TIP3    H1 2418   2.455   4.734   2.650 -0.6861 -1.6132  1.8147
  804TIP3    H2 2419   2.589   4.803   2.667 -1.4722  0.5069 -0.1501
  805TIP3   OH2 2420   6.196   1.551   0.473 -0.2509  0.2773 -0.1291
  805TIP3    H1 2421   6.219   1.634   0.514  0.9485 -0.5655  0.9646
  805TIP3    H2 2422   6.270   1.529   0.417 -0.2311 -0.3822  0.1339
  806TIP3   OH2 2423   1.416   3.769   2.079  0.4023  0.0504  0.6281
  806TIP3    H1 2424   1.321   3.755   2.088  0.4437  0.1229  1.2646
  806TIP3    H2 2425   1.439   3.729   1.995 -0.3471  0.8217  0.0404
  807TIP3   OH2 2426   4.799   1.000   4.090 -0.0261 -0.0469  0.2874
  807TIP3    H1 2427   4.706   0.983   4.073  0.1507 -0.7453 -0.0446
  807TIP3    H2 2428   4.833   1.031   4.006  0.0873 -0.0161  0.3447
  808TIP3   OH2 2429   1.510   2.676   4.025 -0.2686  0.4501  0.4115
  808TIP3    H1 2430   1.493   2.593   3.980  1.5127  0.4501 -0.3654
  808TIP3    H2 2431   1.491   2.659   4.117  1.3569 -1.2702  0.4914
  809TIP3   OH2 2432   1.130   2.187   3.867  0.4404 -0.1608 -0.1105
  809TIP3    H1 2433   1.174   2.259   3.912 -1.1461  0.1823  1.0099
  809TIP3    H2 2434   1.072   2.231   3.804 -0.9740 -0.3544  0.9865
  810TIP3   OH2 2435   6.325   0.424   4.455 -0.0518 -0.1480 -0.0304
  810TIP3    H1 2436   6.390   0.363   4.420 -0.9129 -0.9620 -0.2502
  810TIP3    H2 2437   6.257   0.368   4.493  0.1708  0.7171  1.6895
  811TIP3   OH2 2438   2.873   5.085   0.247 -0.0471 -0.9270  0.0583
  811TIP3    H1 2439   2.827   5.107   0.166  1.3621 -0.8859 -0.7714
  811TIP3    H2 2440   2.965   5.104   0.228  0.0992  1.4671  2.4630
  812TIP3   OH2 2441   1.027   0.850   1.451 -0.1471  0.1154  0.0851
  812TIP3    H1 2442   0.942   0.872   1.412 -0.3170  1.5084  1.1382
  812TIP3    H2 2443   1.027   0.755   1.458  0.0114 -0.2902 -3.4672
  813TIP3   OH2 2444   0.024   4.063   1.190 -0.4639  0.0051 -0.2536
  813TIP3    H1 2445   0.076   4.066   1.270 -1.0705  2.3519  0.1086
  813TIP3    H2 2446   0.003   3.970   1.179  2.6143 -0.8917  0.2926
  814TIP3   OH2 2447   4.280   1.259   0.397  0.2193 -0.0028 -0.3689
  814TIP3    H1 2448   4.371   1.290   0.391 -0.2042  1.1509 -1.0627
  814TIP3    H2 2449   4.242   1.281   0.313 -0.6516 -0.7087 -0.1691
  815TIP3   OH2 2450   4.991   2.189   0.096 -0.0119  0.0103  0.3506
  815TIP3    H1 2451   5.051   2.115   0.085 -0.9067 -0.7613  0.4599
  815TIP3    H2 2452   4.905   2.153   0.074 -0.3816  1.2030 -0.2429
  816TIP3   OH2 2453   0.337   5.092   4.946 -0.5836 -0.4895  0.5273
  816TIP3    H1 2454   0.326   5.000   4.923 -0.1670 -0.5611  0.6031
  816TIP3    H2 2455   0.248   5.127   4.951 -0.7215 -0.0282 -2.8797
  817TIP3   OH2 2456   4.122   3.349   2.995  0.1864 -0.4363  0.1163
  817TIP3    H1 2457   4.083   3.263   2.981  1.2968 -0.6747 -1.8697
  817TIP3    H2 2458   4.215   3.337   2.977  0.2648  1.2806 -0.8862
  818TIP3   OH2 2459   2.645   2.628   1.904  0.6861 -0.3070  0.1859
  818TIP3    H1 2460   2.690   2.585   1.831  0.7223  1.6277 -1.0245
  818TIP3    H2 2461   2.567   2.574   1.919  0.9818 -1.0796 -0.9096
  819TIP3   OH2 2462   0.836   2.132   0.901  0.0775  0.0004  0.0256
  819TIP3    H1 2463   0.800   2.105   0.986 -1.9794 -0.3806 -0.9151
  819TIP3    H2 2464   0.917   2.081   0.894 -1.1499 -2.1849  0.5477
  820TIP3   OH2 2465   0.858   2.461   0.263  0.4277  0.2800  0.5122
  820TIP3    H1 2466   0.788   2.475   0.326  0.3259  0.3287  0.3875
  820TIP3    H2 2467   0.923   2.528   0.283  0.8754 -0.3484  1.2437
  821TIP3   OH2 2468   3.444   5.288   4.400 -0.4323 -0.4519  0.0713
  821TIP3    H1 2469   3.494   5.369   4.393 -1.8047  0.6204  1.9118
  821TIP3    H2 2470   3.509   5.219   4.385  0.7817  0.9351 -1.4589
  822TIP3   OH2 2471   0.212   1.185   0.187  0.4009  0.4670  0.3241
  822TIP3    H1 2472   0.134   1.181   0.242 -0.6717 -0.5753 -1.1986
  822TIP3    H2 2473   0.209   1.272   0.148 -0.7430  0.0006 -0.7009
  823TIP3   OH2 2474   0.627   4.348   3.616 -0.4199 -0.3805 -0.3048
  823TIP3    H1 2475   0.590   4.373   3.701 -0.1393  0.4500 -0.4182
  823TIP3    H2 2476   0.678   4.425   3.589  1.3462 -1.4570 -0.1890
  824TIP3   OH2 2477   5.212   2.532   2.689 -0.4647  0.5129 -0.4448
  824TIP3    H1 2478   5.138   2.547   2.630 -0.8660 -2.3019 -0.8331
  824TIP3    H2 2479   5.178   2.468   2.753  0.8427  1.2348  1.0481
  825TIP3   OH2 2480   0.954   3.186   0.442 -0.1532 -0.0891  0.0590
  825TIP3    H1 2481   0.961   3.239   0.362  1.9814  0.7879  0.7530
  825TIP3    H2 2482   0.927   3.099   0.411 -1.3930  0.7487 -1.3625
  826TIP3   OH2 2483   4.403   1.524   0.117  0.2434  0.2575 -0.1062
  826TIP3    H1 2484   4.369   1.581   0.187 -1.1541 -0.4691 -0.1681
  826TIP3    H2 2485   4.329   1.469   0.093  1.1541 -0.5622 -1.1039
  827TIP3   OH2 2486   1.992   2.919   4.607 -0.2854 -0.5138 -0.3679
  827TIP3    H1 2487   1.915   2.949   4.559  0.2878 -2.7739 -2.9600
  827TIP3    H2 2488   2.059   2.907   4.540  0.5540 -3.9841  0.8978
  828TIP3   OH2 2489   2.695   3.238   3.576 -0.3812  0.5660 -0.2908
  828TIP3    H1 2490   2.610   3.230   3.535  0.8625 -0.3491 -2.9068
  828TIP3    H2 2491   2.724   3.327   3.556 -0.5963  0.7998  0.3994
  829TIP3   OH2 2492   5.359   2.647   0.669 -0.0965 -0.4462  0.2853
  829TIP3    H1 2493   5.442   2.605   0.691 -0.6530  0.0915  4.0001
  829TIP3    H2 2494   5.345   2.710   0.739 -3.4323 -0.1378 -0.5085
  830TIP3   OH2 2495   3.864   0.952   2.019 -0.0655  0.7899 -0.3957
  830TIP3    H1 2496   3.888   0.960   2.111 -0.0038 -1.0604 -0.2097
  830TIP3    H2 2497   3.820   1.034   1.999 -0.9900  0.8481  1.5725
  831TIP3   OH2 2498   5.172   1.388   5.141  0.2041  0.0776  0.2236
  831TIP3    H1 2499   5.148   1.296   5.128 -2.1808  0.4350  1.5173
  831TIP3    H2 2500   5.138   1.433   5.064  3.0260 -0.2743 -1.3553
  832TIP3   OH2 2501   2.608   5.791   2.889 -0.1299  0.1260 -0.7578
  832TIP3    H1 2502   2.634   5.854   2.956 -1.5310 -1.0935  1.0547
  832TIP3    H2 2503   2.518   5.768   2.912 -0.6503 -0.4065 -3.0711
  833TIP3   OH2 2504   6.124   0.226   0.068 -0.5161 -0.4173  0.4517
  833TIP3    H1 2505   6.093   0.273   0.145 -1.2751 -0.2942  0.0776
  833TIP3    H2 2506   6.045   0.198   0.022 -0.0802 -0.5535 -0.2472
  834TIP3   OH2 2507   4.813   3.977   4.043 -0.3120 -0.4931 -0.2439
  834TIP3    H1 2508   4.855   4.062   4.033 -0.6146 -0.4277 -1.0463
  834TIP3    H2 2509   4.886   3.915   4.041 -0.1631 -0.3129 -0.6580
  835TIP3   OH2 2510   5.056   1.064   3.857 -0.5546 -0.3025  0.5039
  835TIP3    H1 2511   5.049   1.150   3.899  1.4222  1.0547 -1.6733
  835TIP3    H2 2512   5.035   1.080   3.765 -0.8479 -2.3321  0.1671
  836TIP3   OH2 2513   2.884   0.648   4.067 -0.5927 -0.1484 -0.0397
  836TIP3    H1 2514   2.910   0.663   4.158  1.1011  1.8077 -0.7559
  836TIP3    H2 2515   2.795   0.615   4.073 -0.0055 -1.5595  2.3780
  837TIP3   OH2 2516   3.307   4.262   3.818  0.0060  0.0417 -0.1560
  837TIP3    H1 2517   3.369   4.319   3.864 -1.1227  0.9376  0.3327
  837TIP3    H2 2518   3.224   4.274   3.866 -0.3565 -1.7745 -0.2517
  838TIP3   OH2 2519   0.248   0.611   2.436 -0.1055  0.0690 -0.6329
  838TIP3    H1 2520   0.175   0.602   2.374  0.3573  0.7273 -1.2851
  838TIP3    H2 2521   0.211   0.585   2.520 -0.1221 -3.3267 -1.5134
  839TIP3   OH2 2522   1.630   3.184   1.982 -0.1781  0.0918 -0.4307
  839TIP3    H1 2523   1.620   3.090   1.965  0.8632 -0.5719  2.0662
  839TIP3    H2 2524   1.724   3.195   1.995 -0.4198  1.2118  0.5394
  840TIP3   OH2 2525   5.343   1.340   0.623 -0.5645  0.1609  0.4214
  840TIP3    H1 2526   5.303   1.403   0.684  1.9513  0.5791  1.7757
  840TIP3    H2 2527   5.390   1.279   0.679  1.6609  0.4115 -1.0342
  841TIP3   OH2 2528   2.809   4.600   1.667  0.5922 -0.0504 -0.4718
  841TIP3    H1 2529   2.777   4.634   1.751 -0.3621  0.7797 -1.1431
  841TIP3    H2 2530   2.782   4.508   1.668  1.4058 -0.2945  0.5125
  842TIP3   OH2 2531   2.921   0.304   0.992 -0.3662 -0.4627  0.3865
  842TIP3    H1 2532   2.924   0.244   0.918 -1.7100  0.7543 -0.7183
  842TIP3    H2 2533   2.886   0.252   1.064 -0.7136 -1.2114 -0.3123
  843TIP3   OH2 2534   3.345   2.862   4.521  0.2019 -0.3570  0.5075
  843TIP3    H1 2535   3.253   2.881   4.501  0.1099  0.9194  1.9377
  843TIP3    H2 2536   3.343   2.775   4.561 -0.2750 -0.6670 -0.1768
  844TIP3   OH2 2537   4.164   3.488   5.066 -0.0900  0.0531  0.3591
  844TIP3    H1 2538   4.177   3.580   5.090 -0.8519  0.1987  0.2454
  844TIP3    H2 2539   4.221   3.440   5.126  0.8701  0.6350 -0.0624
  845TIP3   OH2 2540   3.114   2.395   4.340 -0.1324 -0.7280 -0.0433
  845TIP3    H1 2541   3.104   2.364   4.250  0.1472 -0.5628 -0.1340
  845TIP3    H2 2542   3.040   2.357   4.387 -2.2347  1.8260 -1.0372
  846TIP3   OH2 2543   6.323   1.350   1.948  0.0268  0.6676  0.1752
  846TIP3    H1 2544   6.292   1.439   1.966  1.2833  1.1735 -0.0381
  846TIP3    H2 2545   6.350   1.352   1.856 -0.7320 -0.1882 -0.0786
  847TIP3   OH2 2546   5.467   2.856   2.130 -0.2113  0.4005 -0.6217
  847TIP3    H1 2547   5.484   2.926   2.067  1.1150  0.3278 -0.3721
  847TIP3    H2 2548   5.508   2.778   2.090 -3.7281 -0.9092 -2.1006
  848TIP3   OH2 2549   5.006   5.439   4.955 -0.5357 -0.3074  0.3103
  848TIP3    H1 2550   4.949   5.463   4.882 -0.2751  0.5245  0.3650
  848TIP3    H2 2551   5.095   5.450   4.920 -0.3955 -1.1806  0.3566
  849TIP3   OH2 2552   4.246   1.958   0.362 -0.2296  0.7997 -0.7637
  849TIP3    H1 2553   4.261   2.010   0.441 -0.0635  0.5781 -0.6502
  849TIP3    H2 2554   4.186   2.011   0.310  0.4928  1.4448 -0.9683
  850TIP3   OH2 2555   1.896   5.833   0.044 -0.1445 -0.2763 -0.0847
  850TIP3    H1 2556   1.839   5.829  -0.033 -0.3047  1.8802 -0.1435
  850TIP3    H2 2557   1.836   5.831   0.118 -0.1154 -0.5645 -0.0686
  851TIP3   OH2 2558   4.907   5.238   2.287  0.1052 -0.3786 -0.0330
  851TIP3    H1 2559   4.925   5.210   2.197  1.6518  0.7423 -0.1171
  851TIP3    H2 2560   4.827   5.290   2.281 -0.1218 -0.7938 -0.6619
  852TIP3   OH2 2561   2.045   2.311   0.495 -0.7775 -1.0903  0.2788
  852TIP3    H1 2562   1.981   2.337   0.429 -0.9725 -0.6076  0.6526
  852TIP3    H2 2563   2.020   2.359   0.574  2.4635  2.4499 -0.5865
  853TIP3   OH2 2564   1.110   2.838   2.379  0.3266 -0.5909 -0.0733
  853TIP3    H1 2565   1.205   2.829   2.386  0.6810  2.2998  0.0127
  853TIP3    H2 2566   1.092   2.836   2.285  0.7647  0.7798 -0.2058
  854TIP3   OH2 2567   3.321   0.252   3.871 -0.4243 -0.3234 -0.7778
  854TIP3    H1 2568   3.279   0.262   3.786  0.6271  3.2283 -1.0360
  854TIP3    H2 2569   3.363   0.337   3.887  1.2146 -1.5691  2.3301
  855TIP3   OH2 2570   5.920   2.655   2.763  0.2501 -0.4825 -0.0640
  855TIP3    H1 2571   5.959   2.722   2.707  0.9014 -0.1908  0.7271
  855TIP3    H2 2572   5.980   2.580   2.755 -0.8807 -1.2870 -1.5606
  856TIP3   OH2 2573   6.012   2.376   0.551 -0.9241  0.0671  0.2847
  856TIP3    H1 2574   6.108   2.367   0.557 -0.9596 -0.6455 -0.1447
  856TIP3    H2 2575   5.998   2.434   0.476 -0.8253  0.3217  0.4613
  857TIP3   OH2 2576   3.189   1.956   2.694 -0.1957 -0.2993  0.5465
  857TIP3    H1 2577   3.205   1.890   2.627 -0.9003  0.7992 -0.7454
  857TIP3    H2 2578   3.193   2.039   2.648  2.3780  0.7539  2.4308
  858TIP3   OH2 2579   2.253   5.428   4.475 -0.2095 -0.3791 -0.1199
  858TIP3    H1 2580   2.158   5.441   4.473  0.0272  2.0426  0.9043
  858TIP3    H2 2581   2.269   5.381   4.556 -0.3678  1.6196  1.1303
  859TIP3   OH2 2582   5.728   1.258   4.204 -0.2990 -0.2598  0.0714
  859TIP3    H1 2583   5.771   1.314   4.139 -0.8132 -0.1876 -0.2095
  859TIP3    H2 2584   5.800   1.219   4.253  0.0617  1.1549  0.7190
  860TIP3   OH2 2585   5.557   1.595   0.842 -0.2498 -0.2137  0.3924
  860TIP3    H1 2586   5.637   1.625   0.887 -0.2207 -0.1850  0.3214
  860TIP3    H2 2587   5.553   1.501   0.861 -0.0925 -0.2526  0.2316
  861TIP3   OH2 2588   6.078   2.696   1.839 -0.2080 -0.3790  0.4197
  861TIP3    H1 2589   6.010   2.731   1.897 -0.3995 -0.2455  0.1180
  861TIP3    H2 2590   6.118   2.624   1.889  0.7860  0.8059  1.4083
  862TIP3   OH2 2591   1.693   5.260   4.678 -0.8279  0.6865  0.1972
  862TIP3    H1 2592   1.642   5.234   4.756 -0.5551  1.4299  0.6348
  862TIP3    H2 2593   1.783   5.235   4.699 -1.1343 -1.8084 -1.0965
  863TIP3   OH2 2594   5.180   1.674   0.989 -0.2568  0.0162 -0.5971
  863TIP3    H1 2595   5.205   1.709   1.075  0.2242 -0.8578 -0.3678
  863TIP3    H2 2596   5.254   1.695   0.932  0.1668 -0.8478 -0.3884
  864TIP3   OH2 2597   2.247   3.664   1.741  0.1578  0.1433  0.3302
  864TIP3    H1 2598   2.178   3.711   1.788  1.5554  0.6504  1.9681
  864TIP3    H2 2599   2.275   3.725   1.672  0.0045  0.5676  0.6387
  865TIP3   OH2 2600   1.562   3.478   3.539  0.5208  0.4942 -0.6250
  865TIP3    H1 2601   1.475   3.459   3.575  0.1322  1.6960 -0.8594
  865TIP3    H2 2602   1.610   3.396   3.546 -0.1208  0.2196  0.9829
  866TIP3   OH2 2603   2.999   4.419   3.429 -0.1511 -0.7356  0.2496
  866TIP3    H1 2604   2.919   4.445   3.383 -0.0025 -1.0632 -0.1989
  866TIP3    H2 2605   3.021   4.333   3.393  1.2646  0.0135 -0.7866
  867TIP3   OH2 2606   1.201   5.291   2.675  0.0623 -0.1395  0.0103
  867TIP3    H1 2607   1.202   5.373   2.725  0.1517 -2.0633  3.4872
  867TIP3    H2 2608   1.112   5.286   2.640 -0.1814  1.0978  0.3948
  868TIP3   OH2 2609   2.998   3.083   2.262  0.2149 -0.1542 -0.2526
  868TIP3    H1 2610   2.927   3.035   2.221 -0.7204  0.3088  0.7625
  868TIP3    H2 2611   2.954   3.144   2.322  1.4831 -0.2698  0.8474
  869TIP3   OH2 2612   3.484   1.720   3.913  0.1002 -0.0728 -0.6059
  869TIP3    H1 2613   3.537   1.782   3.962 -1.1320  0.9036 -0.4659
  869TIP3    H2 2614   3.489   1.749   3.822  0.1684 -0.2454 -0.6580
  870TIP3   OH2 2615   2.334   2.352   4.015 -0.0604  0.6909 -0.4656
  870TIP3    H1 2616   2.380   2.421   3.966  0.6980  0.0801 -0.6449
  870TIP3    H2 2617   2.404   2.302   4.056 -0.6702  0.8382  0.7849
  871TIP3   OH2 2618   1.219   5.166   0.090  0.1775  0.2396 -0.0789
  871TIP3    H1 2619   1.150   5.232   0.094  1.2398  1.3112  1.3639
  871TIP3    H2 2620   1.287   5.204   0.035  1.4936  1.1059  2.0443
  872TIP3   OH2 2621   0.094   3.705   1.660 -0.3442 -0.7111 -0.2660
  872TIP3    H1 2622   0.074   3.791   1.696  0.8507 -0.3928 -0.3087
  872TIP3    H2 2623   0.009   3.665   1.643 -0.9295 -0.1925  1.2821
  873TIP3   OH2 2624   5.671   1.954   1.802 -0.2803 -0.6177 -0.3113
  873TIP3    H1 2625   5.702   1.913   1.721  0.2308 -1.4058  0.2653
  873TIP3    H2 2626   5.623   2.032   1.773  1.0889 -0.1026 -1.3058
  874TIP3   OH2 2627   2.639   2.522   4.849  0.2257  0.3100  0.0183
  874TIP3    H1 2628   2.597   2.442   4.882  2.2007 -0.6940  0.2242
  874TIP3    H2 2629   2.601   2.535   4.763 -0.0931 -0.8888 -0.0383
  875TIP3   OH2 2630   6.357   4.284   2.586  0.1765  0.3049 -0.0260
  875TIP3    H1 2631   6.316   4.202   2.613  0.6080  0.1480  0.1640
  875TIP3    H2 2632   6.285   4.346   2.580 -0.4731 -0.5504 -2.0721
  876TIP3   OH2 2633   4.338   0.440   2.319 -0.3876  0.3481  0.2303
  876TIP3    H1 2634   4.264   0.448   2.258 -0.3747  2.0998  0.3974
  876TIP3    H2 2635   4.341   0.524   2.364 -0.1715 -0.7687  2.4252
  877TIP3   OH2 2636   5.527   0.438   2.687 -0.4051 -0.2404 -0.8689
  877TIP3    H1 2637   5.561   0.376   2.623 -0.5187 -2.1862  0.8506
  877TIP3    H2 2638   5.446   0.397   2.719  1.0648 -0.7929  2.5025
  878TIP3   OH2 2639   0.250   3.577   1.276  0.0032 -0.0112  0.7120
  878TIP3    H1 2640   0.302   3.572   1.357  1.6627 -2.7729 -0.3941
  878TIP3    H2 2641   0.273   3.662   1.239  0.5477  0.5697  2.2690
  879TIP3   OH2 2642   1.729   4.296   2.986 -0.0793  0.2446 -0.1554
  879TIP3    H1 2643   1.683   4.221   2.948 -0.2429  0.1593  0.2014
  879TIP3    H2 2644   1.660   4.361   3.000  0.0175  0.3610 -0.2207
  880TIP3   OH2 2645   0.392   5.881   2.140  0.1978  0.1864  0.1762
  880TIP3    H1 2646   0.360   5.953   2.085 -0.5466  1.2842  1.9690
  880TIP3    H2 2647   0.320   5.819   2.143  0.8694 -0.7503 -1.4382
  881TIP3   OH2 2648   2.978   4.038   4.408 -0.2498 -0.1796  0.3285
  881TIP3    H1 2649   3.050   4.083   4.453  0.4288 -0.1645 -0.7420
  881TIP3    H2 2650   2.993   3.945   4.425  0.2827 -0.2036 -0.2663
  882TIP3   OH2 2651   0.567   5.287   1.685  0.8502  0.5238  0.0737
  882TIP3    H1 2652   0.642   5.344   1.671  1.7885 -0.3750  1.1552
  882TIP3    H2 2653   0.604   5.209   1.727 -0.5778 -0.2864 -0.1037
  883TIP3   OH2 2654   4.146   1.491   3.823  0.0302  0.6662 -0.0901
  883TIP3    H1 2655   4.175   1.469   3.911 -0.0236 -1.4607 -0.5708
  883TIP3    H2 2656   4.065   1.441   3.811 -0.5950  1.8255 -0.9552
  884TIP3   OH2 2657   0.023   1.190   0.423  0.2695 -0.6326  0.2380
  884TIP3    H1 2658  -0.025   1.177   0.505 -0.7862 -1.8418 -0.5307
  884TIP3    H2 2659   0.081   1.264   0.441 -2.0833  1.1274  1.1468
  885TIP3   OH2 2660   2.973   5.560   1.129  0.2329  0.2464  0.5516
  885TIP3    H1 2661   2.984   5.625   1.198 -0.1965 -0.6098  1.4555
  885TIP3    H2 2662   2.897   5.509   1.156  0.9102 -1.0087  0.1792
  886TIP3   OH2 2663   3.220   2.325   0.609  0.3669 -0.1473 -0.0419
  886TIP3    H1 2664   3.250   2.374   0.532  1.2888  1.6571  1.3678
  886TIP3    H2 2665   3.292   2.334   0.672 -0.1724 -1.9282  0.8943
  887TIP3   OH2 2666   6.123   4.585   3.635  0.0054 -0.1846 -0.1302
  887TIP3    H1 2667   6.212   4.613   3.614  0.7472 -1.6122  0.9635
  887TIP3    H2 2668   6.070   4.663   3.620  1.4741  0.7990 -0.4712
  888TIP3   OH2 2669   3.612   3.207   0.586 -0.0982 -0.3957 -0.4953
  888TIP3    H1 2670   3.686   3.161   0.545 -1.3354 -0.3879 -2.9214
  888TIP3    H2 2671   3.638   3.299   0.583  1.5258 -0.6280  2.5630
  889TIP3   OH2 2672   4.472   5.067   2.615 -0.4468 -0.1600 -0.1277
  889TIP3    H1 2673   4.514   5.031   2.693 -0.8808 -1.0903 -0.3144
  889TIP3    H2 2674   4.392   5.108   2.648  0.9728  2.5135  0.3820
  890TIP3   OH2 2675   2.933   0.794   4.721 -0.6965  0.4153 -0.5009
  890TIP3    H1 2676   3.016   0.761   4.685 -0.2887 -0.1842  0.9194
  890TIP3    H2 2677   2.960   0.865   4.780 -1.3616  1.4789 -1.4390
  891TIP3   OH2 2678   5.010   3.784   3.423 -0.0532 -0.0667  0.0162
  891TIP3    H1 2679   4.943   3.716   3.430  1.7499 -2.0075 -0.6045
  891TIP3    H2 2680   4.995   3.824   3.337 -0.9303  0.1538  0.2534
  892TIP3   OH2 2681   1.521   0.979   0.743  0.1330 -0.0335  0.4070
  892TIP3    H1 2682   1.506   0.887   0.722  0.1336  0.0065  0.2318
  892TIP3    H2 2683   1.435   1.012   0.770  0.2256 -0.2056  0.9390
  893TIP3   OH2 2684   0.831   4.408   4.014  0.2058  0.3457 -0.3239
  893TIP3    H1 2685   0.801   4.317   4.013 -0.2914  0.4977 -1.1767
  893TIP3    H2 2686   0.763   4.455   4.061  1.3425  0.0283  1.7281
  894TIP3   OH2 2687   1.041   5.913   2.213  0.4078  0.3320  0.2895
  894TIP3    H1 2688   1.012   5.916   2.304 -1.5983  1.2092 -0.3325
  894TIP3    H2 2689   0.992   5.982   2.169  1.1208 -0.2411 -1.5343
  895TIP3   OH2 2690   4.317   1.084   0.844 -0.0971  0.1878 -0.2940
  895TIP3    H1 2691   4.322   0.997   0.884  2.6111  0.7003  0.6730
  895TIP3    H2 2692   4.297   1.142   0.918 -0.5765  0.5527 -0.7074
  896TIP3   OH2 2693   5.946   0.669   3.696 -0.7281 -0.1956 -0.3069
  896TIP3    H1 2694   5.876   0.648   3.635  0.5527 -0.8626 -1.5874
  896TIP3    H2 2695   5.921   0.627   3.778 -1.7672 -0.4955 -0.7727
  897TIP3   OH2 2696   2.265   5.400   4.163  0.1335  0.1605  0.2946
  897TIP3    H1 2697   2.332   5.383   4.096 -0.4857 -1.3451  0.0025
  897TIP3    H2 2698   2.314   5.413   4.244  0.8062 -0.6060  0.0264
  898TIP3   OH2 2699   3.651   5.175   1.880  0.7164 -0.3620  0.2631
  898TIP3    H1 2700   3.644   5.114   1.954 -0.0926 -1.2282 -0.4997
  898TIP3    H2 2701   3.610   5.256   1.911  0.1109 -0.8172  0.6615
  899TIP3   OH2 2702   3.392   3.426   4.694  0.1336  0.1875 -0.0423
  899TIP3    H1 2703   3.301   3.434   4.667  0.4373 -0.9491 -1.5095
  899TIP3    H2 2704   3.407   3.502   4.751 -0.8550  2.1070 -2.1921
  900TIP3   OH2 2705   6.156   2.563   1.573  0.6145  0.8771 -0.4764
  900TIP3    H1 2706   6.066   2.582   1.599  0.4120  1.9825 -1.8644
  900TIP3    H2 2707   6.150   2.481   1.524  0.6984 -0.1148  1.0985
  901TIP3   OH2 2708   2.011   1.610   0.578  0.0986 -0.3686  0.2464
  901TIP3    H1 2709   1.943   1.586   0.515  0.3833  0.0989 -0.2455
  901TIP3    H2 2710   2.093   1.583   0.536  0.5115  2.0713 -0.6634
  902TIP3   OH2 2711   5.954   4.490   1.199 -0.4521 -0.0791  0.1165
  902TIP3    H1 2712   5.952   4.396   1.180  1.0905 -0.3485  1.1225
  902TIP3    H2 2713   6.036   4.521   1.160 -0.4070  0.6348  0.7449
  903TIP3   OH2 2714   0.497   0.849   4.120  0.3275 -0.1683  0.3782
  903TIP3    H1 2715   0.540   0.842   4.035  0.2584 -2.8925  0.4808
  903TIP3    H2 2716   0.416   0.800   4.110 -1.1514  1.9669  1.2139
  904TIP3   OH2 2717   2.149   0.870   3.852 -0.3008 -0.5559  0.2468
  904TIP3    H1 2718   2.139   0.803   3.920 -2.4840  0.7057  1.2610
  904TIP3    H2 2719   2.069   0.863   3.800  0.4775 -0.2041 -1.0482
  905TIP3   OH2 2720   5.608   3.040   3.112 -0.1099 -0.2716  0.5879
  905TIP3    H1 2721   5.534   2.987   3.142 -0.8160  1.5830  2.3433
  905TIP3    H2 2722   5.605   3.119   3.166  1.6501  1.0110 -1.0332
  906TIP3   OH2 2723   1.460   0.062   2.007  0.5263 -0.1153  0.0438
  906TIP3    H1 2724   1.436   0.017   2.088 -0.2733 -1.3646 -0.8594
  906TIP3    H2 2725   1.423   0.008   1.937  0.9395  1.0943 -1.1554
  907TIP3   OH2 2726   1.116   2.122  -0.005 -0.4156  0.1521  0.0328
  907TIP3    H1 2727   1.119   2.032   0.026 -1.3722 -0.4556 -1.5360
  907TIP3    H2 2728   1.074   2.170   0.067  0.2389 -0.5871  0.9454
  908TIP3   OH2 2729   0.539   1.494   4.039  0.7181  0.1780  0.2475
  908TIP3    H1 2730   0.622   1.490   3.992 -0.3076 -1.4943 -1.5656
  908TIP3    H2 2731   0.533   1.411   4.086  0.2410  0.4604  0.7083
  909TIP3   OH2 2732   5.539   1.470   0.438 -0.0228 -0.6745  0.3811
  909TIP3    H1 2733   5.520   1.384   0.475  0.6518 -0.5556  1.0500
  909TIP3    H2 2734   5.613   1.501   0.490 -1.2738  1.0046  1.2385
  910TIP3   OH2 2735   4.669   4.045   0.644 -0.1862  0.9306 -0.1871
  910TIP3    H1 2736   4.643   4.137   0.652  1.1844  1.2258  1.7470
  910TIP3    H2 2737   4.625   4.001   0.717  0.2218  0.3397 -0.2851
  911TIP3   OH2 2738   0.717   0.283   1.700 -0.4733 -0.6959 -0.2556
  911TIP3    H1 2739   0.752   0.366   1.734 -0.9800 -0.0430 -1.2910
  911TIP3    H2 2740   0.788   0.220   1.713  0.6363  0.3216 -1.1470
  912TIP3   OH2 2741   5.588   3.876   0.728 -0.1558 -0.7084 -0.0496
  912TIP3    H1 2742   5.552   3.855   0.642 -0.6260 -0.8830  0.1868
  912TIP3    H2 2743   5.530   3.832   0.790 -0.1652 -0.1049  0.3787
  913TIP3   OH2 2744   3.868   3.970   3.385 -0.0801  0.4427  0.4367
  913TIP3    H1 2745   3.956   3.977   3.421 -0.3237 -1.3538  1.5057
  913TIP3    H2 2746   3.815   4.030   3.438 -0.0437 -0.6807  1.7708
  914TIP3   OH2 2747   2.489   2.944   4.804  0.0448 -0.2183  0.4245
  914TIP3    H1 2748   2.428   2.971   4.872  0.1887  0.4661  0.2955
  914TIP3    H2 2749   2.445   2.874   4.758  0.0402 -0.8564  1.3673
  915TIP3   OH2 2750   5.822   4.988   3.306 -0.4463  0.0030 -0.2766
  915TIP3    H1 2751   5.787   5.076   3.290  0.1473  0.8174  2.4334
  915TIP3    H2 2752   5.895   4.981   3.244 -0.6290  1.3365 -0.6938
  916TIP3   OH2 2753   5.940   4.397   3.684 -0.3296  0.0599 -0.1808
  916TIP3    H1 2754   5.855   4.438   3.694 -0.3533  0.1258 -0.6403
  916TIP3    H2 2755   6.000   4.470   3.665 -0.8938 -0.2932 -4.4313
  917TIP3   OH2 2756   4.061   0.555   1.271 -0.4909 -0.2753 -0.6586
  917TIP3    H1 2757   4.110   0.505   1.336 -0.3265  1.4316  0.5820
  917TIP3    H2 2758   3.987   0.591   1.319 -0.8050  0.3919 -1.6071
  918TIP3   OH2 2759   0.954   1.502   3.291  0.8474  0.7625 -0.5031
  918TIP3    H1 2760   0.976   1.587   3.330 -2.1145  1.6522 -0.5233
  918TIP3    H2 2761   0.965   1.516   3.197 -2.9463  2.4425 -0.8867
  919TIP3   OH2 2762   0.837   1.686   4.165 -0.4258 -0.1208 -0.2981
  919TIP3    H1 2763   0.770   1.692   4.097 -0.0093  1.2747 -0.6100
  919TIP3    H2 2764   0.862   1.594   4.166 -1.0485 -0.3161 -1.4348
  920TIP3   OH2 2765   4.376   0.305   1.522  0.2004  0.2412 -0.3554
  920TIP3    H1 2766   4.365   0.251   1.443  0.3454 -0.0071 -0.2092
  920TIP3    H2 2767   4.290   0.344   1.536 -0.4416 -1.4016  0.5652
  921TIP3   OH2 2768   3.899   5.398   1.570  0.1612  0.3396  0.6992
  921TIP3    H1 2769   3.938   5.336   1.631  1.0253  0.0776 -0.1000
  921TIP3    H2 2770   3.845   5.345   1.511  1.0837  0.2862 -0.1296
  922TIP3   OH2 2771   5.983   4.073   1.996  0.5046  0.1801  0.1225
  922TIP3    H1 2772   6.010   3.997   1.945  1.0041 -0.8929  1.9061
  922TIP3    H2 2773   5.907   4.044   2.045 -0.4658  1.4408 -0.5770
  923TIP3   OH2 2774   1.296   5.687   0.086 -0.2151  0.8866  0.5855
  923TIP3    H1 2775   1.257   5.617   0.138 -0.1515 -1.1083 -1.8773
  923TIP3    H2 2776   1.386   5.659   0.072  0.1473  2.0597  0.5120
  924TIP3   OH2 2777   5.811   5.136   1.801  0.0228  0.8113  0.0976
  924TIP3    H1 2778   5.810   5.136   1.897 -2.1619  0.6938  0.1235
  924TIP3    H2 2779   5.772   5.052   1.777  0.3619  0.9292 -0.9118
  925TIP3   OH2 2780   0.301   1.670   3.558  0.2234  0.0612  0.1418
  925TIP3    H1 2781   0.276   1.674   3.650  0.8537  3.3866  0.2923
  925TIP3    H2 2782   0.220   1.649   3.511 -0.3668 -0.4033  1.3305
  926TIP3   OH2 2783   6.093   0.843   0.163 -0.6828 -0.2527  0.3046
  926TIP3    H1 2784   6.154   0.917   0.158 -0.9800 -0.0355 -0.3036
  926TIP3    H2 2785   6.088   0.822   0.256 -0.5326  0.4506  0.4799
  927TIP3   OH2 2786   1.005   0.814   0.867 -0.6555  0.1579  0.4469
  927TIP3    H1 2787   0.982   0.876   0.937  1.2015  2.0914 -0.5167
  927TIP3    H2 2788   0.939   0.829   0.800 -0.4436  0.8307  0.3821
  928TIP3   OH2 2789   4.940   2.727   0.915 -0.5003  0.0557 -0.3103
  928TIP3    H1 2790   4.910   2.666   0.848 -1.8072 -0.3322  0.5727
  928TIP3    H2 2791   4.937   2.676   0.996  1.7660  0.2889 -0.0269
  929TIP3   OH2 2792   5.711   1.493   4.777  0.0034  0.0687 -0.2128
  929TIP3    H1 2793   5.788   1.451   4.816  1.8240  1.9918 -1.4872
  929TIP3    H2 2794   5.710   1.461   4.687  1.5201  2.5941 -1.2612
  930TIP3   OH2 2795   0.295   0.241   0.823 -0.6139 -0.1223 -0.0909
  930TIP3    H1 2796   0.352   0.312   0.851  0.0366 -0.8536  0.4849
  930TIP3    H2 2797   0.355   0.174   0.789 -1.0718 -1.0880  0.9346
  931TIP3   OH2 2798   6.320   5.243   1.128 -0.1796 -0.2054 -0.6660
  931TIP3    H1 2799   6.229   5.262   1.105 -0.3851 -0.2177  0.1014
  931TIP3    H2 2800   6.371   5.314   1.087 -0.6084  0.1860 -0.5312
  932TIP3   OH2 2801   1.574   1.686   2.834  0.5186  0.0289 -0.2365
  932TIP3    H1 2802   1.593   1.780   2.832 -0.0772  0.2187  1.2070
  932TIP3    H2 2803   1.653   1.646   2.870 -0.1860  0.3301  1.7683
  933TIP3   OH2 2804   5.685   0.073   1.495  0.1490 -0.3479  0.2527
  933TIP3    H1 2805   5.644   0.158   1.508 -1.3305 -1.0613  0.4974
  933TIP3    H2 2806   5.733   0.081   1.413 -0.9979  0.3426 -0.3674
  934TIP3   OH2 2807   2.403   2.832   1.745 -0.0281 -0.1659 -0.3278
  934TIP3    H1 2808   2.350   2.906   1.714  1.1450  0.9688  0.2429
  934TIP3    H2 2809   2.340   2.773   1.786 -0.9808  0.5967 -0.6383
  935TIP3   OH2 2810   1.327   0.409   3.185  0.0285 -0.3259 -0.5363
  935TIP3    H1 2811   1.298   0.383   3.272 -0.9387 -2.3312 -1.3735
  935TIP3    H2 2812   1.261   0.472   3.156  0.9304  1.1753  0.5223
  936TIP3   OH2 2813   4.885   5.887   3.812  0.6838 -0.1759  0.1937
  936TIP3    H1 2814   4.949   5.933   3.758 -0.5858  0.4442 -0.8453
  936TIP3    H2 2815   4.846   5.955   3.867 -0.5890 -0.1237 -0.7337
  937TIP3   OH2 2816   4.404   5.686   0.139  0.1252 -0.0583  0.1083
  937TIP3    H1 2817   4.389   5.778   0.163 -0.6545 -0.0530 -0.3544
  937TIP3    H2 2818   4.325   5.661   0.091  0.2982 -0.9986  0.2939
  938TIP3   OH2 2819   2.373   4.882   3.665 -0.0959  0.1881  0.2645
  938TIP3    H1 2820   2.304   4.948   3.672 -0.2098  0.1388 -0.3322
  938TIP3    H2 2821   2.454   4.932   3.665 -0.1998  0.3952 -0.7558
  939TIP3   OH2 2822   5.759   1.068   3.752  0.2809  0.0963 -0.5524
  939TIP3    H1 2823   5.742   0.996   3.813  1.8469  0.1327 -0.0448
  939TIP3    H2 2824   5.702   1.139   3.783  0.8640  0.0348  0.7491
  940TIP3   OH2 2825   1.428   3.754   2.636 -0.3520 -0.4963 -0.5237
  940TIP3    H1 2826   1.493   3.688   2.662 -0.6511 -1.0641 -1.1803
  940TIP3    H2 2827   1.420   3.744   2.541 -1.3664 -0.4172 -0.4617
  941TIP3   OH2 2828   5.496   3.800   1.792  0.3897  0.2741 -0.6917
  941TIP3    H1 2829   5.551   3.757   1.726  0.2280  0.8657 -1.2234
  941TIP3    H2 2830   5.419   3.830   1.743  0.0354  0.2926 -0.1351
  942TIP3   OH2 2831   3.180   2.306   0.173 -0.1467 -0.8959 -0.9388
  942TIP3    H1 2832   3.164   2.271   0.085 -0.6070 -0.5092 -1.0115
  942TIP3    H2 2833   3.268   2.342   0.169  0.1742 -1.6762 -0.9830
  943TIP3   OH2 2834   0.553   2.732   3.480  1.2874 -0.1002  0.2398
  943TIP3    H1 2835   0.502   2.708   3.557  1.0880 -0.9881 -0.1561
  943TIP3    H2 2836   0.644   2.727   3.509  1.1856  2.0020  1.0940
  944TIP3   OH2 2837   5.085   1.846   2.677 -0.0412  0.0361 -0.1672
  944TIP3    H1 2838   4.991   1.830   2.669 -0.3316  2.0975 -1.4457
  944TIP3    H2 2839   5.100   1.928   2.630  2.4157 -0.2576 -0.0157
  945TIP3   OH2 2840   3.608   3.823   3.989 -0.0541 -0.6390  0.6548
  945TIP3    H1 2841   3.643   3.748   4.038 -0.7588 -0.4962  1.4002
  945TIP3    H2 2842   3.671   3.893   4.006  0.2314 -0.8638  0.5377
  946TIP3   OH2 2843   2.176   4.671   5.161 -0.3622  0.0080 -0.3726
  946TIP3    H1 2844   2.196   4.598   5.219 -0.8697  0.0006 -0.2104
  946TIP3    H2 2845   2.087   4.655   5.130 -0.7761  0.9493  0.2627
  947TIP3   OH2 2846   0.025   1.317   1.114 -0.0181  0.9683  0.1740
  947TIP3    H1 2847   0.077   1.240   1.090 -0.5594 -0.0876  2.1205
  947TIP3    H2 2848  -0.065   1.285   1.117 -0.9198  2.7419 -3.0613
  948TIP3   OH2 2849   1.973   5.413   4.465 -0.1849 -0.1545 -0.0844
  948TIP3    H1 2850   1.955   5.506   4.477 -0.5037 -0.1221 -0.7495
  948TIP3    H2 2851   1.893   5.379   4.424 -0.1224 -0.7464  0.2775
  949TIP3   OH2 2852   3.990   0.464   2.935  0.1582  0.1375  0.0682
  949TIP3    H1 2853   3.898   0.450   2.956  0.4028  0.6168  1.5059
  949TIP3    H2 2854   4.021   0.377   2.909  0.0008 -0.6924  2.4266
  950TIP3   OH2 2855   0.945   5.339   2.575  0.8479  0.7720  0.2718
  950TIP3    H1 2856   0.948   5.429   2.543  0.3771  0.9770  0.7907
  950TIP3    H2 2857   0.945   5.285   2.495  0.6390  1.2484 -0.0525
  951TIP3   OH2 2858   6.240   3.103   2.359  0.8525 -0.0511  0.3664
  951TIP3    H1 2859   6.150   3.112   2.328  1.7095  3.1099 -1.6761
  951TIP3    H2 2860   6.279   3.037   2.302  0.3410 -0.0205 -0.0213
  952TIP3   OH2 2861   2.468   5.599   4.496  0.3606  0.4071 -0.0704
  952TIP3    H1 2862   2.549   5.554   4.475  0.5096  0.6660 -0.0596
  952TIP3    H2 2863   2.400   5.534   4.483  0.6634 -0.1554  1.0085
  953TIP3   OH2 2864   4.205   4.395   0.698 -0.0682 -0.1011 -0.3436
  953TIP3    H1 2865   4.111   4.400   0.714  0.2384  0.6948  1.4695
  953TIP3    H2 2866   4.243   4.459   0.758  1.8659 -2.4001  1.0643
  954TIP3   OH2 2867   2.063   3.126   0.243  0.1675 -0.8936 -0.0065
  954TIP3    H1 2868   2.030   3.104   0.330  0.8274  1.2862  0.8427
  954TIP3    H2 2869   2.156   3.103   0.245  0.0664 -1.3496 -0.3372
  955TIP3   OH2 2870   2.208   3.189   1.160 -0.0801 -0.0902  0.7170
  955TIP3    H1 2871   2.190   3.141   1.241 -0.8697  0.5219  0.9173
  955TIP3    H2 2872   2.274   3.254   1.185  0.7945 -0.8743  0.5063
  956TIP3   OH2 2873   3.863   4.973   2.329  0.1280  0.4235  0.0380
  956TIP3    H1 2874   3.845   5.036   2.399  0.0167  0.9750 -0.4841
  956TIP3    H2 2875   3.896   4.896   2.375  1.1266  1.1711  0.6274
  957TIP3   OH2 2876   0.706   1.867   1.902 -0.0692 -0.5317 -0.0716
  957TIP3    H1 2877   0.750   1.928   1.960 -0.6903 -1.4835  1.4730
  957TIP3    H2 2878   0.746   1.782   1.922 -0.9839 -1.0331 -0.2946
  958TIP3   OH2 2879   2.404   1.236   0.566 -0.1208  0.3746  0.3329
  958TIP3    H1 2880   2.438   1.190   0.643 -2.3628 -1.8519  0.1041
  958TIP3    H2 2881   2.326   1.281   0.598 -0.4173  0.3815 -0.4027
  959TIP3   OH2 2882   0.601   3.114   0.772  0.1857  0.2084 -0.1226
  959TIP3    H1 2883   0.513   3.108   0.736 -0.7973 -0.1083  2.1297
  959TIP3    H2 2884   0.648   3.039   0.734 -1.5281 -1.5788  1.0737
  960TIP3   OH2 2885   0.621   0.912   2.543  0.3476  0.3676 -0.1910
  960TIP3    H1 2886   0.641   0.961   2.622  0.1124  1.9093 -1.0485
  960TIP3    H2 2887   0.618   0.978   2.474 -0.3870 -0.8043 -1.3264
  961TIP3   OH2 2888   1.585   2.829   5.097 -0.3563 -0.2092 -0.5844
  961TIP3    H1 2889   1.505   2.870   5.065 -0.5929 -0.5938 -0.4904
  961TIP3    H2 2890   1.653   2.859   5.036 -0.5017  0.4016 -0.4561
  962TIP3   OH2 2891   5.725   3.102   1.512 -0.0943  0.4994  0.3085
  962TIP3    H1 2892   5.745   3.094   1.605  0.0139 -1.6267  0.1367
  962TIP3    H2 2893   5.636   3.068   1.504  0.7081 -1.5294 -0.6540
  963TIP3   OH2 2894   0.836   3.921   2.944  0.1340  0.0973 -0.3964
  963TIP3    H1 2895   0.879   3.874   2.872 -1.9502  0.8950 -2.2687
  963TIP3    H2 2896   0.900   3.917   3.015  1.5246 -2.3865 -1.6186
  964TIP3   OH2 2897   2.833   0.502   5.049  0.3869  0.0652  0.1690
  964TIP3    H1 2898   2.854   0.459   4.966  0.0551  0.8371 -0.3316
  964TIP3    H2 2899   2.909   0.486   5.104  0.9239  0.1415 -0.5323
  965TIP3   OH2 2900   3.761   2.301   4.855 -0.4551  0.1139 -0.7829
  965TIP3    H1 2901   3.802   2.386   4.872 -1.4405  0.3618  0.4839
  965TIP3    H2 2902   3.716   2.313   4.772 -0.0036  0.6119 -0.9643
  966TIP3   OH2 2903   4.527   3.646   5.012  0.4340 -0.3090  0.4442
  966TIP3    H1 2904   4.588   3.606   5.074  0.3442 -1.1976 -0.0268
  966TIP3    H2 2905   4.583   3.687   4.947  0.5304  0.6976  1.1321
  967TIP3   OH2 2906   4.617   1.100   0.988  0.2609  0.3651 -0.0735
  967TIP3    H1 2907   4.663   1.020   0.961  0.0777 -0.0093  0.6917
  967TIP3    H2 2908   4.618   1.155   0.910 -1.7244 -1.3295 -1.4292
  968TIP3   OH2 2909   1.683   1.739   4.509 -0.4331 -0.4077 -0.0620
  968TIP3    H1 2910   1.613   1.714   4.569 -0.9897 -0.7391 -0.8268
  968TIP3    H2 2911   1.676   1.676   4.437  1.1252 -0.9079  0.1877
  969TIP3   OH2 2912   1.016   2.684   4.779 -0.8264 -0.1258 -0.2830
  969TIP3    H1 2913   0.931   2.722   4.758 -0.6798  0.1753 -0.3480
  969TIP3    H2 2914   1.000   2.625   4.852 -1.2409 -0.7197 -0.8466
  970TIP3   OH2 2915   1.556   5.064   1.306 -0.1403 -0.3338  0.2698
  970TIP3    H1 2916   1.629   5.090   1.251 -0.3259 -1.1581 -0.3899
  970TIP3    H2 2917   1.483   5.049   1.245 -1.0355  1.0190  0.9657
  971TIP3   OH2 2918   4.711   0.126   1.132 -0.2681 -0.5648 -0.1821
  971TIP3    H1 2919   4.749   0.117   1.219 -0.2109 -0.8062 -0.2313
  971TIP3    H2 2920   4.787   0.127   1.073 -0.2978 -0.2218 -0.2139
  972TIP3   OH2 2921   0.034   1.260   4.492  0.2003 -0.5030  0.0710
  972TIP3    H1 2922   0.129   1.252   4.489  0.2711  0.5413 -0.7028
  972TIP3    H2 2923   0.011   1.239   4.583  1.4109  1.6039  0.9263
  973TIP3   OH2 2924   6.121   0.916   3.536  0.1570 -0.0803  0.0097
  973TIP3    H1 2925   6.072   0.861   3.474  1.7312 -1.0404 -0.4485
  973TIP3    H2 2926   6.185   0.962   3.482 -1.6203  2.9379  0.2599
  974TIP3   OH2 2927   5.030   0.493   3.401 -0.2982 -0.0473 -0.0089
  974TIP3    H1 2928   5.001   0.490   3.492 -0.4678 -0.7228 -0.0792
  974TIP3    H2 2929   4.949   0.500   3.350 -0.5416 -3.3452 -0.2826
  975TIP3   OH2 2930   5.286   5.333   0.685  0.0203  0.1575  0.0705
  975TIP3    H1 2931   5.346   5.299   0.751  0.2503 -0.9785 -0.6903
  975TIP3    H2 2932   5.199   5.328   0.726  0.3294  1.0078  0.8624
  976TIP3   OH2 2933   4.034   0.434   3.650  0.3231  1.3596 -0.0424
  976TIP3    H1 2934   3.969   0.488   3.605 -0.5421  1.0864  0.8480
  976TIP3    H2 2935   4.091   0.402   3.580 -1.8100 -0.2168 -1.1820
  977TIP3   OH2 2936   6.204   4.441   3.186  0.1960  0.0993  0.2064
  977TIP3    H1 2937   6.256   4.465   3.110 -0.3365  0.0725 -0.1722
  977TIP3    H2 2938   6.217   4.512   3.249 -0.6472  0.9481 -0.5439
  978TIP3   OH2 2939   5.898   3.482   4.285 -0.1386 -0.3317 -0.2094
  978TIP3    H1 2940   5.879   3.564   4.331  0.7900  0.4035 -1.0774
  978TIP3    H2 2941   5.993   3.470   4.297 -0.2602 -1.2517 -0.1371
  979TIP3   OH2 2942   5.060   0.136   0.222  0.2711  0.6051 -0.2315
  979TIP3    H1 2943   5.018   0.199   0.164  1.4480  1.9290  0.2679
  979TIP3    H2 2944   5.132   0.100   0.171 -0.2991 -0.2217 -0.4593
  980TIP3   OH2 2945   3.882   3.763   2.179 -0.2474 -0.2321 -0.4620
  980TIP3    H1 2946   3.872   3.841   2.234 -1.9142  0.3381 -1.4696
  980TIP3    H2 2947   3.940   3.706   2.229  0.5882  1.4141  0.5630
  981TIP3   OH2 2948   5.783   1.869   4.884  0.4702  0.2990 -0.1077
  981TIP3    H1 2949   5.722   1.907   4.947  1.7788  1.5973  0.4211
  981TIP3    H2 2950   5.838   1.810   4.936  0.1902 -0.2766 -0.4455
  982TIP3   OH2 2951   5.161   0.940   0.939 -0.0942 -0.7462 -0.2729
  982TIP3    H1 2952   5.110   0.985   0.871  0.3324 -1.7438 -1.3004
  982TIP3    H2 2953   5.220   0.882   0.889  1.9108  0.2112  0.8633
  983TIP3   OH2 2954   4.937   4.791   1.998  0.1482 -0.0615 -0.4579
  983TIP3    H1 2955   4.967   4.748   2.078  1.0621  1.0406 -0.1803
  983TIP3    H2 2956   4.929   4.884   2.022 -0.7920  0.1018 -1.3117
  984TIP3   OH2 2957   2.945   3.475   1.378  0.0838 -0.0642 -0.4292
  984TIP3    H1 2958   2.908   3.440   1.297  1.8603 -2.0856 -0.4436
  984TIP3    H2 2959   2.995   3.552   1.351  0.7201 -0.7598 -1.2845
  985TIP3   OH2 2960   4.643   4.716   2.021  0.6868 -0.2953  0.0125
  985TIP3    H1 2961   4.632   4.666   2.102  1.4998  0.8112  0.8545
  985TIP3    H2 2962   4.738   4.719   2.008  0.5688 -0.3413 -0.9210
  986TIP3   OH2 2963   0.649   4.408   0.332  0.0904 -0.5183 -0.1250
  986TIP3    H1 2964   0.608   4.358   0.403 -1.0391  1.2458  0.5300
  986TIP3    H2 2965   0.635   4.499   0.356  1.9567  0.1340 -1.3631
  987TIP3   OH2 2966   3.464   4.573   0.664  0.5548  0.2842  0.8421
  987TIP3    H1 2967   3.556   4.561   0.639 -0.0500 -1.8262 -0.6435
  987TIP3    H2 2968   3.420   4.591   0.581 -0.6702 -0.7643  1.2489
  988TIP3   OH2 2969   0.288   3.872   0.980 -0.1679  0.0385 -0.6572
  988TIP3    H1 2970   0.264   3.800   0.922  0.2658 -0.4588 -0.2287
  988TIP3    H2 2971   0.269   3.951   0.930  2.0239 -0.3519 -2.2390
  989TIP3   OH2 2972   6.116   3.652   4.524  0.7046 -0.2764 -0.3450
  989TIP3    H1 2973   6.061   3.623   4.597  2.2391  0.5249  1.1976
  989TIP3    H2 2974   6.124   3.574   4.468 -2.4249 -0.2621 -0.9958
  990TIP3   OH2 2975   5.631   2.529   4.413  0.7415 -0.1654  0.1779
  990TIP3    H1 2976   5.596   2.555   4.328 -0.5684  1.2601  1.0963
  990TIP3    H2 2977   5.626   2.434   4.414 -1.9467 -0.0907 -0.2550
  991TIP3   OH2 2978   3.025   2.962   0.922  0.0728 -0.0356  0.5197
  991TIP3    H1 2979   3.118   2.962   0.900  0.0670  0.9461  0.4442
  991TIP3    H2 2980   3.015   2.891   0.985  0.6046 -1.0755 -0.5408
  992TIP3   OH2 2981   4.731   2.480   0.354  0.4086 -0.2173 -0.0867
  992TIP3    H1 2982   4.749   2.386   0.352 -1.8298 -0.8122 -4.5702
  992TIP3    H2 2983   4.816   2.521   0.335  1.1589 -1.3833  0.6466
  993TIP3   OH2 2984   0.848   3.400   4.829  0.2909 -0.3297  0.3211
  993TIP3    H1 2985   0.924   3.348   4.803 -0.0362  0.6500 -3.1876
  993TIP3    H2 2986   0.773   3.342   4.813  0.0090  0.6252 -2.4924
  994TIP3   OH2 2987   6.233   2.823   1.376  0.2885 -0.2011 -0.1992
  994TIP3    H1 2988   6.275   2.861   1.453 -0.9789 -0.6480  0.7564
  994TIP3    H2 2989   6.181   2.895   1.340 -1.1208 -0.6242  0.8818
  995TIP3   OH2 2990   1.127   4.735   3.589 -0.0762  0.1228  0.0627
  995TIP3    H1 2991   1.125   4.751   3.683  1.4688 -1.8390  0.5211
  995TIP3    H2 2992   1.220   4.735   3.567 -0.4473  1.7646 -1.7507
  996TIP3   OH2 2993   0.904   0.126   1.294  0.0203  0.2374  0.0745
  996TIP3    H1 2994   0.964   0.193   1.262 -1.2463  1.9262  1.0913
  996TIP3    H2 2995   0.930   0.110   1.384  1.2130 -1.7640 -0.5528
  997TIP3   OH2 2996   1.670   4.623   1.888  0.2264  0.1736 -0.3546
  997TIP3    H1 2997   1.594   4.681   1.887 -0.1679 -0.3365 -1.5575
  997TIP3    H2 2998   1.719   4.647   1.809  0.4862 -0.5838 -0.4290
  998TIP3   OH2 2999   3.483   5.694   3.600  0.3702 -0.0209  0.3050
  998TIP3    H1 3000   3.518   5.782   3.616 -0.7474  0.3869  0.6486
  998TIP3    H2 3001   3.414   5.708   3.534  0.9607 -0.8215 -0.5039
  999TIP3   OH2 3002   1.057   0.115   0.603 -0.0681 -0.9161 -0.2522
  999TIP3    H1 3003   1.081   0.049   0.668 -0.1963 -0.4228  0.3095
  999TIP3    H2 3004   1.019   0.066   0.531 -1.1698 -1.3692  0.6149
 1000TIP3   OH2 3005   0.936   1.672   3.620 -1.3060  0.4513  0.4260
 1000TIP3    H1 3006   0.854   1.631   3.648 -0.7962 -0.8765  0.0661
 1000TIP3    H2 3007   0.920   1.697   3.529 -1.5028  0.7297  0.5360
 1001TIP3   OH2 3008   3.150   4.880   0.140 -0.6327 -0.4281  0.1486
 1001TIP3    H1 3009   3.158   4.890   0.045  0.4200 -1.7614  0.0588
 1001TIP3    H2 3010   3.081   4.815   0.152 -0.5693 -0.4719  0.2852
 1002TIP3   OH2 3011   5.684   5.133   2.656 -0.1087 -0.6461 -0.6806
 1002TIP3    H1 3012   5.621   5.064   2.635 -1.2413  0.3556 -0.6097
 1002TIP3    H2 3013   5.729   5.101   2.734 -1.2681 -0.8977 -0.1065
 1003TIP3   OH2 3014   5.414   2.566   1.582  0.7490  0.4081  0.7077
 1003TIP3    H1 3015   5.360   2.517   1.644  1.9530 -2.7165 -0.5041
 1003TIP3    H2 3016   5.496   2.582   1.630  1.9978 -2.7265 -0.1403
 1004TIP3   OH2 3017   1.080   4.605   0.052 -0.2099 -0.2393  0.2718
 1004TIP3    H1 3018   1.070   4.512   0.031  0.2366 -0.0462 -0.8409
 1004TIP3    H2 3019   0.990   4.638   0.059 -0.3745 -0.7997  0.9440
 1005TIP3   OH2 3020   3.403   4.869   1.050  0.2228 -0.6415 -0.5944
 1005TIP3    H1 3021   3.447   4.953   1.041  1.4201 -1.1751  0.0146
 1005TIP3    H2 3022   3.441   4.815   0.980 -1.1556 -0.4492 -1.5282
 1006TIP3   OH2 3023   0.946   4.837   4.361  0.1926  0.3915  0.0916
 1006TIP3    H1 3024   0.867   4.892   4.362  0.1529  0.3527  2.1503
 1006TIP3    H2 3025   0.974   4.833   4.452  0.8318 -2.1045 -0.1285
 1007TIP3   OH2 3026   0.680   5.498   4.973  0.8011  0.1341 -0.0377
 1007TIP3    H1 3027   0.738   5.463   5.039 -0.7844 -0.1553  1.2686
 1007TIP3    H2 3028   0.718   5.583   4.949  0.1726  1.4422  3.1110
 1008TIP3   OH2 3029   0.526   2.962   2.187 -0.3481 -0.6176  0.3092
 1008TIP3    H1 3030   0.488   3.040   2.226 -1.5182 -1.2938  0.5832
 1008TIP3    H2 3031   0.478   2.950   2.105 -0.8981 -1.5915  0.7502
 1009TIP3   OH2 3032   3.533   1.935   0.083  0.3539  0.1910  0.1345
 1009TIP3    H1 3033   3.529   1.859   0.141  1.3575  1.6583  2.2443
 1009TIP3    H2 3034   3.444   1.970   0.083  0.1958 -0.2036  0.2207
 1010TIP3   OH2 3035   3.535   3.784   2.345  0.5718  0.0487  0.1380
 1010TIP3    H1 3036   3.466   3.808   2.406  1.0494  0.5990  0.4655
 1010TIP3    H2 3037   3.556   3.693   2.366 -1.5495 -0.8831 -1.3962
 1011TIP3   OH2 3038   0.559   5.316   0.667 -0.2779  0.2752 -0.2123
 1011TIP3    H1 3039   0.622   5.272   0.610 -0.4854  0.0595 -0.2789
 1011TIP3    H2 3040   0.612   5.362   0.732 -0.0773 -1.2759  0.7691
 1012TIP3   OH2 3041   3.246   1.779   2.912 -0.0822  0.0083 -0.2648
 1012TIP3    H1 3042   3.204   1.821   2.837  0.6598 -0.4662 -0.9587
 1012TIP3    H2 3043   3.298   1.709   2.875  0.3020 -0.2404  0.7005
 1013TIP3   OH2 3044   2.987   1.602   2.600 -0.4201  0.0348 -0.1193
 1013TIP3    H1 3045   2.995   1.507   2.599 -1.2212 -0.0365 -1.0277
 1013TIP3    H2 3046   3.064   1.633   2.552 -0.1603 -0.1529  0.1741
 1014TIP3   OH2 3047   4.172   1.616   1.464 -0.1911 -0.0046 -0.0031
 1014TIP3    H1 3048   4.226   1.537   1.459 -1.5014 -0.8691 -2.1201
 1014TIP3    H2 3049   4.090   1.591   1.421 -1.1983  2.1015  0.5566
 1015TIP3   OH2 3050   3.498   4.495   1.878  0.3994 -0.0111 -0.3968
 1015TIP3    H1 3051   3.404   4.488   1.894  0.6033  1.2441  1.7287
 1015TIP3    H2 3052   3.524   4.576   1.921  2.3997 -0.0816 -1.3557
 1016TIP3   OH2 3053   1.847   4.752   2.592  0.2596  0.5272 -0.8400
 1016TIP3    H1 3054   1.792   4.686   2.634  0.4370  2.2137  2.2986
 1016TIP3    H2 3055   1.794   4.782   2.517 -0.9199 -1.2795 -0.8066
 1017TIP3   OH2 3056   5.198   2.136   1.903 -0.0344  0.6508 -0.0766
 1017TIP3    H1 3057   5.251   2.199   1.952 -0.9106  2.2895 -1.1148
 1017TIP3    H2 3058   5.118   2.185   1.882 -1.8931 -1.6136  1.1901
 1018TIP3   OH2 3059   4.176   1.499   0.643 -0.4824  0.0775  0.1742
 1018TIP3    H1 3060   4.123   1.499   0.564 -1.0722 -0.3051  0.5567
 1018TIP3    H2 3061   4.266   1.514   0.613 -0.6248 -0.5825 -0.6158
 1019TIP3   OH2 3062   5.339   0.433   0.750 -0.1503  0.0390  0.2354
 1019TIP3    H1 3063   5.304   0.360   0.699  0.4126  0.1768 -0.3680
 1019TIP3    H2 3064   5.311   0.512   0.702  0.3589  0.1696  0.1466
 1020TIP3   OH2 3065   5.662   2.833   1.747  0.1208 -0.0178 -0.0007
 1020TIP3    H1 3066   5.663   2.837   1.843 -0.6601  1.2390 -0.0238
 1020TIP3    H2 3067   5.754   2.838   1.722  0.2363  1.9773  0.6427
 1021TIP3   OH2 3068   5.547   5.059   0.914 -0.5336  0.1383  0.1599
 1021TIP3    H1 3069   5.485   4.996   0.878 -1.7958  0.7071  1.2731
 1021TIP3    H2 3070   5.528   5.061   1.008  2.3522 -0.9639  0.8696
 1022TIP3   OH2 3071   5.027   3.833   4.182 -0.3493 -0.5977 -0.6425
 1022TIP3    H1 3072   5.049   3.843   4.275  1.3511 -2.0572 -0.8130
 1022TIP3    H2 3073   5.090   3.889   4.137  1.6094 -2.9092 -1.0248
 1023TIP3   OH2 3074   4.021   4.958   0.446  0.2129 -0.2112  0.0205
 1023TIP3    H1 3075   4.107   4.948   0.486 -0.0654 -0.2474  0.6243
 1023TIP3    H2 3076   4.013   5.052   0.429  1.6176 -0.5202 -2.9118
 1024TIP3   OH2 3077   6.134   3.907   4.621 -0.1454  0.0104 -1.2193
 1024TIP3    H1 3078   6.103   3.883   4.708  0.6641  0.2921 -0.8379
 1024TIP3    H2 3079   6.123   3.827   4.569  0.5817 -0.5700 -0.5077
 1025TIP3   OH2 3080   2.700   0.581   4.539 -0.5332  0.0847  0.0544
 1025TIP3    H1 3081   2.661   0.504   4.498 -1.9901  0.7939  0.0264
 1025TIP3    H2 3082   2.772   0.547   4.591 -0.5232 -1.1723 -0.7380
 1026TIP3   OH2 3083   4.677   3.433   4.332  0.4715  0.6145 -0.3360
 1026TIP3    H1 3084   4.601   3.459   4.384 -0.3326 -1.3267 -0.4623
 1026TIP3    H2 3085   4.674   3.489   4.255  0.7685  2.4416  0.9188
 1027TIP3   OH2 3086   5.703   4.485   3.592 -0.2782 -0.6640  0.3189
 1027TIP3    H1 3087   5.614   4.515   3.575  0.1122  1.2671  1.4258
 1027TIP3    H2 3088   5.723   4.426   3.519 -1.7115  0.4845 -1.0624
 1028TIP3   OH2 3089   5.248   4.901   1.488 -0.4312  0.1580  0.0763
 1028TIP3    H1 3090   5.163   4.874   1.522 -0.2200 -0.4674  0.1224
 1028TIP3    H2 3091   5.304   4.824   1.498 -0.0917  0.2880 -0.7517
 1029TIP3   OH2 3092   0.216   2.462   3.658 -0.3120 -0.5083 -0.2144
 1029TIP3    H1 3093   0.166   2.495   3.584 -0.6943 -2.0558 -0.6725
 1029TIP3    H2 3094   0.219   2.367   3.646 -0.0979 -0.7702  1.5716
 1030TIP3   OH2 3095   3.861   5.692   1.280 -0.1722  0.3476 -0.1709
 1030TIP3    H1 3096   3.777   5.713   1.239 -0.4693 -0.0287  0.2403
 1030TIP3    H2 3097   3.855   5.728   1.368 -0.1963 -0.3384  0.1126
 1031TIP3   OH2 3098   3.658   0.826   1.845 -0.2354  0.1024 -0.2676
 1031TIP3    H1 3099   3.722   0.873   1.899  1.5076 -2.1147 -0.3013
 1031TIP3    H2 3100   3.588   0.890   1.831  0.7731  1.8144  1.8723
 1032TIP3   OH2 3101   2.606   3.517   1.059  0.2078 -0.8032  0.1764
 1032TIP3    H1 3102   2.603   3.606   1.095 -0.4943 -0.5784 -0.4329
 1032TIP3    H2 3103   2.678   3.475   1.106 -0.9648 -0.6665  2.2113
 1033TIP3   OH2 3104   3.756   1.926   3.201  0.3482 -0.0830 -0.4818
 1033TIP3    H1 3105   3.679   1.906   3.147 -0.4456  0.6152  0.3718
 1033TIP3    H2 3106   3.721   1.938   3.289  1.5133 -0.2868  0.0204
 1034TIP3   OH2 3107   0.906   4.714   0.933 -0.2765  0.1167  0.1684
 1034TIP3    H1 3108   0.952   4.655   0.872 -0.2513 -1.8003  1.9084
 1034TIP3    H2 3109   0.969   4.727   1.004  0.2946  3.5855 -0.8201
 1035TIP3   OH2 3110   1.959   2.073   4.859 -0.1024 -0.3303 -0.3493
 1035TIP3    H1 3111   1.870   2.094   4.830 -0.0759 -0.5919 -0.6332
 1035TIP3    H2 3112   2.005   2.049   4.779  0.4199  0.4690 -0.2948
 1036TIP3   OH2 3113   1.302   0.842   2.108  0.5396 -0.1448 -0.0770
 1036TIP3    H1 3114   1.229   0.897   2.136  0.4505 -0.2783 -0.0508
 1036TIP3    H2 3115   1.337   0.887   2.030  3.4876  2.6406  2.5388
 1037TIP3   OH2 3116   2.280   3.104   2.950  0.5977 -0.1770 -0.1806
 1037TIP3    H1 3117   2.243   3.174   2.896 -0.6907 -0.2240  0.6034
 1037TIP3    H2 3118   2.296   3.032   2.889  1.2843  0.5546 -0.8747
 1038TIP3   OH2 3119   0.317   4.570   4.323  0.1132 -0.4740  0.1850
 1038TIP3    H1 3120   0.379   4.609   4.385  0.0256  0.1350 -0.0947
 1038TIP3    H2 3121   0.337   4.613   4.240 -0.5574 -0.4040  0.0545
 1039TIP3   OH2 3122   5.375   2.239   4.306  0.1235  0.2128  0.7498
 1039TIP3    H1 3123   5.378   2.167   4.243 -1.1356 -0.4447  1.4031
 1039TIP3    H2 3124   5.370   2.318   4.251  0.4596 -0.2499  0.0328
 1040TIP3   OH2 3125   4.030   3.074   0.737  0.2124  0.0158 -0.2076
 1040TIP3    H1 3126   4.025   3.131   0.813  0.8157  0.6982 -0.6648
 1040TIP3    H2 3127   4.117   3.036   0.740  0.0033 -0.4730 -0.1973
 1041TIP3   OH2 3128   5.776   1.534   2.402  0.0676 -0.2495 -0.2523
 1041TIP3    H1 3129   5.719   1.538   2.325  0.6249 -1.4279 -0.7433
 1041TIP3    H2 3130   5.854   1.488   2.372  1.0847  0.8896  0.5444
 1042TIP3   OH2 3131   0.581   1.153   2.394  0.0099 -0.3220  0.2387
 1042TIP3    H1 3132   0.605   1.228   2.339  1.9757 -0.4386  0.8865
 1042TIP3    H2 3133   0.492   1.131   2.365  0.1579  0.9574 -1.3838
 1043TIP3   OH2 3134   5.015   5.848   3.421 -0.4130  0.4217 -0.4700
 1043TIP3    H1 3135   4.961   5.853   3.341 -0.0606 -0.5945 -0.7828
 1043TIP3    H2 3136   5.096   5.806   3.392 -0.6717 -0.8631  0.6217
 1044TIP3   OH2 3137   2.631   4.769   3.928 -0.5854 -0.2214  0.6409
 1044TIP3    H1 3138   2.565   4.838   3.931  0.4897  0.8242  2.8948
 1044TIP3    H2 3139   2.705   4.809   3.883  0.5640  0.7113  3.1774
 1045TIP3   OH2 3140   4.302   0.771   0.025  0.0876 -0.2957 -0.0413
 1045TIP3    H1 3141   4.253   0.708   0.076 -0.7972  0.8609  0.5747
 1045TIP3    H2 3142   4.308   0.848   0.081  1.6424 -0.0108 -0.5506
 1046TIP3   OH2 3143   6.025   2.597   3.913  0.1058  0.1676  0.6198
 1046TIP3    H1 3144   6.023   2.595   4.008 -1.3354 -0.1581  0.6078
 1046TIP3    H2 3145   6.018   2.690   3.890 -0.8365  0.1504  0.8266
 1047TIP3   OH2 3146   0.766   0.767   3.666 -0.4154 -0.0791  0.3024
 1047TIP3    H1 3147   0.809   0.852   3.664 -1.3733  0.5220  2.4810
 1047TIP3    H2 3148   0.831   0.707   3.630  0.5847  1.4193 -0.5259
 1048TIP3   OH2 3149   5.738   4.033   1.143  0.4538 -0.1521  0.0757
 1048TIP3    H1 3150   5.804   4.056   1.078 -1.0575  1.1563 -1.0755
 1048TIP3    H2 3151   5.722   3.940   1.130  0.8748 -0.1147 -0.7472
 1049TIP3   OH2 3152   2.840   3.308   4.232  0.2388 -0.1593  0.0450
 1049TIP3    H1 3153   2.930   3.331   4.208  0.3111  0.9763  1.2229
 1049TIP3    H2 3154   2.815   3.376   4.295 -1.7553  0.0434 -0.8939
 1050TIP3   OH2 3155   4.991   0.080   1.865 -0.6982  0.3397 -0.0209
 1050TIP3    H1 3156   4.951  -0.001   1.898 -2.1371  1.3718  0.8664
 1050TIP3    H2 3157   5.085   0.066   1.875 -0.9669 -0.7176  1.3303
 1051TIP3   OH2 3158   3.042   2.859   3.095  1.1058  0.3512  0.1779
 1051TIP3    H1 3159   3.028   2.772   3.133  1.4363  1.1793  2.3131
 1051TIP3    H2 3160   3.113   2.897   3.147  0.2295  2.3101  0.0358
 1052TIP3   OH2 3161   5.013   5.898   4.166  0.0733  0.5213  0.1653
 1052TIP3    H1 3162   5.062   5.895   4.248 -0.6707  1.5514  0.6648
 1052TIP3    H2 3163   4.958   5.976   4.173 -1.4250 -0.4310 -0.5131
 1053TIP3   OH2 3164   1.770   2.242   4.283 -0.3667  0.3109 -0.7733
 1053TIP3    H1 3165   1.844   2.194   4.246 -0.5894 -0.6766  0.0255
 1053TIP3    H2 3166   1.703   2.176   4.298 -0.7184  0.8652  0.2602
 1054TIP3   OH2 3167   1.654   2.374   4.493  0.5852  0.2092  0.3602
 1054TIP3    H1 3168   1.706   2.332   4.424  0.1705 -1.9125  1.2442
 1054TIP3    H2 3169   1.693   2.460   4.504  2.3574 -0.4048 -0.6696
 1055TIP3   OH2 3170   5.380   1.616   2.022  0.3201 -0.6481 -0.3004
 1055TIP3    H1 3171   5.321   1.542   2.011  1.0798 -1.4858  0.9874
 1055TIP3    H2 3172   5.332   1.677   2.079  0.5674 -1.2102  0.5312
 1056TIP3   OH2 3173   3.596   3.456   1.771  0.7375  0.0172 -0.8308
 1056TIP3    H1 3174   3.689   3.431   1.774  0.3583 -1.3966  0.2260
 1056TIP3    H2 3175   3.553   3.395   1.831 -0.5816  2.0479  0.3960
 1057TIP3   OH2 3176   5.834   2.000   1.007 -0.8341  0.4925 -0.0517
 1057TIP3    H1 3177   5.911   2.019   0.954 -1.6422 -2.4112 -2.5394
 1057TIP3    H2 3178   5.866   1.941   1.075 -0.4108  1.6221  0.7745
 1058TIP3   OH2 3179   5.021   4.959   2.968 -0.3542  0.3749 -0.3590
 1058TIP3    H1 3180   5.057   5.039   3.007  0.1431  0.4161 -0.8904
 1058TIP3    H2 3181   5.089   4.893   2.981 -1.4341 -0.4576  1.6311
 1059TIP3   OH2 3182   5.002   4.240   0.301  0.3703  0.1051  0.0517
 1059TIP3    H1 3183   4.914   4.272   0.316  1.1465  2.2770  0.4032
 1059TIP3    H2 3184   5.024   4.271   0.212  0.2359 -1.8327 -0.7068
 1060TIP3   OH2 3185   3.752   0.313   1.894 -0.2816 -0.1320  0.1422
 1060TIP3    H1 3186   3.739   0.397   1.849  1.4991  0.0715 -0.0789
 1060TIP3    H2 3187   3.794   0.257   1.828 -0.2842 -0.7855  0.6857
 1061TIP3   OH2 3188   2.781   5.842   4.154 -0.2181 -0.3098 -0.3608
 1061TIP3    H1 3189   2.710   5.856   4.217 -0.1709  2.0446 -0.7382
 1061TIP3    H2 3190   2.804   5.749   4.163 -1.1996 -0.3804  2.0186
 1062TIP3   OH2 3191   2.956   5.711   2.579  0.1908  0.0869  0.0211
 1062TIP3    H1 3192   2.874   5.684   2.538  0.4721  0.3344 -0.7248
 1062TIP3    H2 3193   2.929   5.764   2.655 -0.3413  0.4660 -0.4235
 1063TIP3   OH2 3194   3.007   3.958   0.248  0.4268 -0.0032  0.1204
 1063TIP3    H1 3195   3.034   3.952   0.340 -1.4808 -0.1663  0.7206
 1063TIP3    H2 3196   2.984   3.868   0.225 -0.5612  0.2720 -0.0126
 1064TIP3   OH2 3197   4.143   2.418   2.843 -0.0446  0.1759 -0.4615
 1064TIP3    H1 3198   4.155   2.512   2.830  4.3939 -0.0048  0.9176
 1064TIP3    H2 3199   4.173   2.378   2.762 -0.2296 -0.1365 -0.3785
 1065TIP3   OH2 3200   5.686   1.758   2.747  0.2950  0.0989  0.4062
 1065TIP3    H1 3201   5.743   1.731   2.819 -1.2068 -2.3519  0.7842
 1065TIP3    H2 3202   5.602   1.716   2.765 -0.0663 -0.9196 -2.9291
 1066TIP3   OH2 3203   3.006   4.993   2.566 -0.1717  0.1650  0.1291
 1066TIP3    H1 3204   2.993   4.903   2.596 -1.4898  0.2554 -0.1092
 1066TIP3    H2 3205   3.082   4.988   2.508  0.6528 -0.5242  1.2446
 1067TIP3   OH2 3206   3.390   4.946   3.280  0.8621 -0.3866 -0.1092
 1067TIP3    H1 3207   3.349   4.959   3.194  0.0749  1.0433  0.4544
 1067TIP3    H2 3208   3.466   5.004   3.279  1.2186 -0.8477 -0.0641
 1068TIP3   OH2 3209   2.999   1.501   0.455  0.2756  0.4387  0.4634
 1068TIP3    H1 3210   3.039   1.415   0.442  0.0339  0.2503  0.9178
 1068TIP3    H2 3211   2.955   1.494   0.540 -0.3577  0.7722  0.1700
 1069TIP3   OH2 3212   0.145   5.668   0.136  0.3229 -0.1213 -0.1232
 1069TIP3    H1 3213   0.149   5.749   0.187  0.4569 -0.1292 -0.1226
 1069TIP3    H2 3214   0.236   5.648   0.115  0.1887  0.7839 -1.7786
 1070TIP3   OH2 3215   4.379   1.323   3.170 -0.5226 -0.4968  0.6586
 1070TIP3    H1 3216   4.454   1.381   3.155  0.4853 -1.8584  0.1719
 1070TIP3    H2 3217   4.307   1.364   3.121 -0.7339  1.9307  2.7731
 1071TIP3   OH2 3218   1.835   5.219   1.459 -0.5785 -0.9270 -0.5877
 1071TIP3    H1 3219   1.927   5.238   1.443 -0.3232 -0.7601  0.9416
 1071TIP3    H2 3220   1.827   5.124   1.446 -0.0612 -1.0289 -0.1985
 1072TIP3   OH2 3221   1.194   4.970   2.431  0.7261 -0.6108  0.3196
 1072TIP3    H1 3222   1.206   4.898   2.370 -1.9653 -0.8744 -0.0081
 1072TIP3    H2 3223   1.148   4.932   2.505  0.8283  0.4343  0.9435
 1073TIP3   OH2 3224   0.147   2.569   1.082 -0.0447  0.1306 -0.3409
 1073TIP3    H1 3225   0.210   2.639   1.070 -0.1004  0.5774  1.6315
 1073TIP3    H2 3226   0.064   2.604   1.048 -0.2015  1.2801  1.1425
 1074TIP3   OH2 3227   1.316   1.018   0.230 -0.0475  0.0005  0.1717
 1074TIP3    H1 3228   1.222   1.028   0.218  0.1089  0.3375 -0.9888
 1074TIP3    H2 3229   1.353   1.043   0.145  1.1473  0.8335  0.9015
 1075TIP3   OH2 3230   4.102   2.216   4.192  0.2116 -0.1208 -0.0423
 1075TIP3    H1 3231   4.158   2.213   4.270 -2.0198  0.6983  1.7034
 1075TIP3    H2 3232   4.124   2.299   4.150  0.3648  0.1775  0.6062
 1076TIP3   OH2 3233   0.364   4.634   2.284 -0.6105  0.0872 -0.1583
 1076TIP3    H1 3234   0.332   4.545   2.298  0.5320 -0.3739 -0.3986
 1076TIP3    H2 3235   0.390   4.664   2.371  0.2840 -0.3278 -0.2761
 1077TIP3   OH2 3236   5.671   4.985   3.610 -0.3571 -0.2390 -0.1055
 1077TIP3    H1 3237   5.622   4.914   3.568 -0.5736 -0.9122  1.2265
 1077TIP3    H2 3238   5.701   5.040   3.537 -1.6439 -0.7426 -1.0612
 1078TIP3   OH2 3239   4.559   0.399   2.108  0.2168 -0.6365 -0.7158
 1078TIP3    H1 3240   4.504   0.431   2.178  0.4087 -1.6762 -0.0684
 1078TIP3    H2 3241   4.518   0.431   2.028  0.0331  0.6064 -0.1324
 1079TIP3   OH2 3242   6.190   1.135   3.884  0.1542 -0.2332 -1.0491
 1079TIP3    H1 3243   6.146   1.159   3.803  0.0736 -1.0117 -1.2410
 1079TIP3    H2 3244   6.227   1.049   3.867  0.6625 -0.1426 -0.4615
 1080TIP3   OH2 3245   2.518   5.083   2.461  0.0096 -0.7644 -0.1655
 1080TIP3    H1 3246   2.515   5.058   2.369 -1.6917 -2.5070  0.2915
 1080TIP3    H2 3247   2.591   5.033   2.498 -0.0716 -1.0016 -0.3259
 1081TIP3   OH2 3248   4.016   4.442   1.273 -0.1993  0.4839  0.3105
 1081TIP3    H1 3249   4.100   4.405   1.246 -0.1912  1.4276 -1.0595
 1081TIP3    H2 3250   3.975   4.373   1.324  0.1947 -1.0738 -1.3701
 1082TIP3   OH2 3251   0.983   3.611   2.454  0.7523 -0.1959 -0.0423
 1082TIP3    H1 3252   0.910   3.605   2.516  1.5430 -1.5846  0.8156
 1082TIP3    H2 3253   1.010   3.520   2.442  1.8302  0.2366 -0.9751
 1083TIP3   OH2 3254   2.101   2.410   1.810 -0.2141 -0.4849  0.5893
 1083TIP3    H1 3255   2.140   2.325   1.827 -0.1852 -0.3380  1.2808
 1083TIP3    H2 3256   2.098   2.417   1.714 -0.2746 -1.2828  0.5292
 1084TIP3   OH2 3257   4.281   2.350   3.056 -0.0905 -0.2278 -0.1296
 1084TIP3    H1 3258   4.216   2.377   2.992 -0.5329  1.1995  0.8655
 1084TIP3    H2 3259   4.229   2.317   3.130  0.3482 -0.2343  0.1816
 1085TIP3   OH2 3260   3.423   5.216   0.496 -0.7231  0.1070  0.5800
 1085TIP3    H1 3261   3.354   5.280   0.514  0.1829  1.1456  0.4542
 1085TIP3    H2 3262   3.398   5.139   0.547 -1.6543  0.6820  1.0171
 1086TIP3   OH2 3263   1.181   1.072   1.394 -0.1364 -0.3637  0.3973
 1086TIP3    H1 3264   1.150   1.150   1.441 -0.9427 -0.5746  0.2277
 1086TIP3    H2 3265   1.129   1.000   1.431 -1.0891 -0.4769 -1.0977
 1087TIP3   OH2 3266   3.389   3.077   2.456 -0.5177  0.1276  0.6613
 1087TIP3    H1 3267   3.474   3.117   2.435  0.5734 -1.4931  1.7456
 1087TIP3    H2 3268   3.372   3.017   2.383  0.1526 -0.8051  1.2393
 1088TIP3   OH2 3269   3.912   4.975   3.328  0.3910  0.2182  0.4381
 1088TIP3    H1 3270   3.888   4.898   3.276  1.5208  0.8329 -1.0620
 1088TIP3    H2 3271   3.833   4.995   3.378 -0.3117 -1.2028 -0.0326
 1089TIP3   OH2 3272   5.548   5.701   0.284  0.0544  0.5877  0.4016
 1089TIP3    H1 3273   5.548   5.708   0.189  0.4342 -0.2481  0.3294
 1089TIP3    H2 3274   5.604   5.773   0.314 -0.2472  0.9869  0.0080
 1090TIP3   OH2 3275   0.384   1.926   1.289  0.0903  0.3209  0.2750
 1090TIP3    H1 3276   0.452   1.910   1.225 -0.4784  1.2378 -0.5913
 1090TIP3    H2 3277   0.406   2.011   1.328  0.8497 -0.5557  1.8805
 1091TIP3   OH2 3278   0.837   1.374   2.020 -0.3058  0.1297 -0.1388
 1091TIP3    H1 3279   0.795   1.460   2.022 -0.9864 -0.1987 -0.0629
 1091TIP3    H2 3280   0.877   1.369   1.933 -1.8855 -0.2277 -0.8805
 1092TIP3   OH2 3281   0.914   2.037   1.663 -0.2467 -0.7699  0.1263
 1092TIP3    H1 3282   0.933   2.130   1.674  0.4785 -0.9562  0.5109
 1092TIP3    H2 3283   0.842   2.019   1.722  1.6076 -1.0967  2.4398
 1093TIP3   OH2 3284   2.311   5.017   3.289  0.1604 -0.3413 -0.1430
 1093TIP3    H1 3285   2.261   5.096   3.312 -0.2942 -0.6386 -0.1017
 1093TIP3    H2 3286   2.299   5.007   3.195 -0.8632 -1.0886  0.0504
 1094TIP3   OH2 3287   5.142   3.191   0.173  0.1253  0.2798  0.0920
 1094TIP3    H1 3288   5.145   3.201   0.268  0.6861  0.2635  0.0830
 1094TIP3    H2 3289   5.100   3.107   0.158  1.5478 -0.5217  0.3880
 1095TIP3   OH2 3290   3.594   2.031   0.899 -0.4713  0.1279 -0.1538
 1095TIP3    H1 3291   3.624   1.942   0.915  2.2491  0.9686  0.0475
 1095TIP3    H2 3292   3.520   2.022   0.839  1.8223 -2.1783 -2.9609
 1096TIP3   OH2 3293   1.611   1.363   0.456 -0.2440 -0.0657 -0.1707
 1096TIP3    H1 3294   1.599   1.271   0.433  0.0426 -0.0597 -0.3451
 1096TIP3    H2 3295   1.552   1.377   0.530 -1.3929 -0.0110 -1.0607
 1097TIP3   OH2 3296   1.349   0.026   0.347 -0.6080 -0.1144 -0.0086
 1097TIP3    H1 3297   1.371   0.105   0.395  0.6831  0.5505 -1.5956
 1097TIP3    H2 3298   1.269   0.049   0.299 -0.5795  0.0068  0.0024
 1098TIP3   OH2 3299   4.009   3.021   0.015  0.6272  0.4940  0.3776
 1098TIP3    H1 3300   3.975   3.030   0.104  1.8325 -2.0719  1.2026
 1098TIP3    H2 3301   4.102   3.004   0.026  0.7366 -0.2881 -1.3497
 1099TIP3   OH2 3302   5.081   4.051   2.873 -0.3614  0.5320 -0.0415
 1099TIP3    H1 3303   5.175   4.042   2.855 -0.3312 -1.7774  0.9335
 1099TIP3    H2 3304   5.045   3.964   2.856 -1.7651  0.4977  2.6041
 1100TIP3   OH2 3305   5.862   5.530   4.784  0.1122  0.1757  0.2023
 1100TIP3    H1 3306   5.936   5.504   4.839 -0.8143  0.3952  1.5917
 1100TIP3    H2 3307   5.796   5.462   4.798 -0.4369  0.6553 -0.0191
 1101TIP3   OH2 3308   5.533   3.531   4.446 -0.7825  0.2903  0.2602
 1101TIP3    H1 3309   5.521   3.565   4.535 -1.2724 -1.3504  0.8451
 1101TIP3    H2 3310   5.445   3.509   4.417 -0.4099 -1.1551  0.1925
 1102TIP3   OH2 3311   0.712   4.456   4.369  0.1099  0.4593  0.0016
 1102TIP3    H1 3312   0.794   4.436   4.414 -0.0270  0.6731  0.3491
 1102TIP3    H2 3313   0.644   4.432   4.432 -0.1153 -0.2765 -0.5078
 1103TIP3   OH2 3314   3.653   2.564   4.206 -0.4275  0.4760 -0.3222
 1103TIP3    H1 3315   3.646   2.656   4.233 -0.4768  0.3705  0.0407
 1103TIP3    H2 3316   3.740   2.556   4.167  0.2513  0.3029  1.1576
 1104TIP3   OH2 3317   1.299   4.986   3.782  0.3555  0.1139 -0.1106
 1104TIP3    H1 3318   1.253   4.911   3.820 -0.2960  1.4464  1.8434
 1104TIP3    H2 3319   1.244   5.012   3.708  0.6685 -1.3831 -0.9095
 1105TIP3   OH2 3320   0.092   4.433   4.303 -0.5217  0.1213 -0.1892
 1105TIP3    H1 3321   0.099   4.449   4.209 -0.5727  0.9001 -0.0646
 1105TIP3    H2 3322   0.171   4.472   4.340 -1.0550  0.8320  0.2140
 1106TIP3   OH2 3323   3.912   4.560   0.239  0.1349 -0.1451  0.1880
 1106TIP3    H1 3324   3.898   4.629   0.174 -0.7889  0.0898  0.6305
 1106TIP3    H2 3325   3.864   4.485   0.204  1.4768 -0.7202 -0.5020
 1107TIP3   OH2 3326   2.054   1.921   2.172 -0.3817  0.3262  0.3314
 1107TIP3    H1 3327   2.055   2.007   2.128 -0.4886  0.7764  1.1906
 1107TIP3    H2 3328   1.976   1.925   2.229 -0.3313 -0.3069  0.4433
 1108TIP3   OH2 3329   3.781   5.025   2.641  0.3359  0.0387  0.1512
 1108TIP3    H1 3330   3.713   4.964   2.611  0.4588  0.5910 -1.3482
 1108TIP3    H2 3331   3.755   5.047   2.730 -1.3474  0.0736 -0.3077
 1109TIP3   OH2 3332   5.741   2.711   1.035  0.2160 -0.0840  0.1353
 1109TIP3    H1 3333   5.789   2.751   1.108 -2.0461  0.6097  1.3507
 1109TIP3    H2 3334   5.717   2.785   0.979  3.0202 -0.7129 -2.1742
 1110TIP3   OH2 3335   3.649   5.482   1.700  0.2122  0.3859  0.2061
 1110TIP3    H1 3336   3.691   5.447   1.622 -0.9328 -1.2938  0.2934
 1110TIP3    H2 3337   3.719   5.484   1.766  1.2639  2.1163 -0.8703
 1111TIP3   OH2 3338   2.821   3.440   3.274  0.8302 -0.2702 -0.3720
 1111TIP3    H1 3339   2.787   3.355   3.246  1.7456 -0.5162 -0.7693
 1111TIP3    H2 3340   2.815   3.437   3.370 -0.8205 -0.0533 -0.4455
 1112TIP3   OH2 3341   1.202   5.645   4.349 -0.5990 -0.3827  0.6114
 1112TIP3    H1 3342   1.167   5.727   4.383 -0.6941 -0.3221  0.3717
 1112TIP3    H2 3343   1.202   5.586   4.424  1.6521  0.4993  1.3844
 1113TIP3   OH2 3344   6.217   0.893   1.866 -0.5878  0.0463 -0.1799
 1113TIP3    H1 3345   6.198   0.916   1.775 -0.2978  0.0902 -0.2298
 1113TIP3    H2 3346   6.217   0.977   1.912  0.7607  0.2081 -0.4139
 1114TIP3   OH2 3347   0.205   5.132   0.310  0.3393 -0.3295  0.8003
 1114TIP3    H1 3348   0.207   5.036   0.308  0.0741 -0.3264 -1.1033
 1114TIP3    H2 3349   0.119   5.155   0.275  0.2444  0.6210  1.6135
 1115TIP3   OH2 3350   0.341   3.970   4.093 -0.3925 -0.1052  0.1764
 1115TIP3    H1 3351   0.408   3.997   4.156 -0.0231  0.1554 -0.3156
 1115TIP3    H2 3352   0.270   4.033   4.104  0.8035  1.6704 -1.5291
 1116TIP3   OH2 3353   3.592   0.812   3.804  0.5645  0.1625 -0.0663
 1116TIP3    H1 3354   3.546   0.729   3.819  1.9361 -0.6540 -0.2141
 1116TIP3    H2 3355   3.573   0.834   3.713  0.2880 -0.0440 -0.0608
 1117TIP3   OH2 3356   4.207   4.235   3.909 -0.1433  0.1588 -0.2184
 1117TIP3    H1 3357   4.207   4.173   3.981  1.1948  1.9896  1.4644
 1117TIP3    H2 3358   4.127   4.287   3.922 -0.8092 -0.6106 -1.1137
 1118TIP3   OH2 3359   4.406   3.461   0.840  0.1373 -0.3017  0.2261
 1118TIP3    H1 3360   4.492   3.420   0.839  0.2925  0.0071  0.6414
 1118TIP3    H2 3361   4.414   3.532   0.903 -0.5005 -0.4326  0.4590
 1119TIP3   OH2 3362   4.841   3.595   1.289 -0.1733  0.1781  0.3225
 1119TIP3    H1 3363   4.927   3.631   1.266 -0.0694 -0.2546  0.0127
 1119TIP3    H2 3364   4.848   3.576   1.382  0.3266 -0.5218  0.1568
 1120TIP3   OH2 3365   2.935   5.460   4.601  0.0430  0.4300  0.0611
 1120TIP3    H1 3366   2.938   5.419   4.687  0.2898  0.2485 -0.0309
 1120TIP3    H2 3367   2.987   5.402   4.545 -0.5089  0.2895 -0.3194
 1121TIP3   OH2 3368   5.748   2.359   4.164 -0.8180  0.2277  0.1455
 1121TIP3    H1 3369   5.735   2.273   4.124  2.0718  0.5788 -1.9191
 1121TIP3    H2 3370   5.681   2.414   4.123 -1.0529 -0.4908 -0.4685
 1122TIP3   OH2 3371   5.604   1.646   2.205  0.0307  0.1812 -0.6256
 1122TIP3    H1 3372   5.571   1.724   2.248 -1.3124 -0.7794  0.1471
 1122TIP3    H2 3373   5.561   1.646   2.119 -0.2129  0.1308 -0.5044
 1123TIP3   OH2 3374   5.646   5.579   1.148  1.0290 -0.3949 -0.1288
 1123TIP3    H1 3375   5.717   5.603   1.090 -0.4006 -0.6625 -2.0894
 1123TIP3    H2 3376   5.637   5.484   1.138  1.4616 -0.6399  1.4301
 1124TIP3   OH2 3377   4.594   5.957   4.849 -0.6439  0.2530  0.1759
 1124TIP3    H1 3378   4.666   5.961   4.786 -3.0119 -0.6484 -2.8334
 1124TIP3    H2 3379   4.567   5.866   4.847 -0.8690  0.2238  2.5499
 1125TIP3   OH2 3380   0.098   4.542   3.716  0.4767 -0.0512  0.8257
 1125TIP3    H1 3381   0.072   4.631   3.739 -0.4168 -0.2854  0.7921
 1125TIP3    H2 3382   0.185   4.551   3.679  0.0191  0.9508 -0.0739
 1126TIP3   OH2 3383   4.393   0.799   2.882 -0.1228  0.4409  0.2255
 1126TIP3    H1 3384   4.340   0.860   2.830 -1.2711 -0.5599  0.1759
 1126TIP3    H2 3385   4.336   0.776   2.956  0.6195  0.0734  0.6948
 1127TIP3   OH2 3386   3.679   3.678   3.078 -0.2183  0.3766 -0.0027
 1127TIP3    H1 3387   3.657   3.646   2.991 -0.2761 -0.2577  0.2399
 1127TIP3    H2 3388   3.764   3.721   3.068 -0.0652  0.0043 -0.3040
 1128TIP3   OH2 3389   1.037   4.545   0.786 -0.0722 -0.0215  0.3259
 1128TIP3    H1 3390   1.108   4.496   0.826 -2.0367 -2.6266  0.8724
 1128TIP3    H2 3391   1.061   4.550   0.693  0.8647 -0.7205  0.5193
 1129TIP3   OH2 3392   0.148   3.374   3.878  0.2540 -0.4212  0.2768
 1129TIP3    H1 3393   0.079   3.413   3.932  0.5793 -0.0740  0.4499
 1129TIP3    H2 3394   0.174   3.445   3.819  0.2134 -0.6629 -0.0333
 1130TIP3   OH2 3395   3.564   5.453   0.690  0.1982  0.0111  0.3649
 1130TIP3    H1 3396   3.506   5.389   0.649  0.7915  1.0560 -2.3351
 1130TIP3    H2 3397   3.505   5.518   0.728 -0.3832 -1.4054  1.9752
 1131TIP3   OH2 3398   3.718   2.833   0.393 -0.2333  0.6106 -0.1097
 1131TIP3    H1 3399   3.812   2.816   0.383 -0.3703 -0.6493  0.6516
 1131TIP3    H2 3400   3.691   2.779   0.467 -2.3855 -2.3293 -2.7775
 1132TIP3   OH2 3401   1.635   5.045   0.011 -0.1851  0.1874 -0.0962
 1132TIP3    H1 3402   1.547   5.024  -0.022  0.0336  1.5951 -1.7061
 1132TIP3    H2 3403   1.621   5.069   0.102 -1.6798  1.4668 -0.6129
 1133TIP3   OH2 3404   6.285   4.797   4.223 -0.1491 -0.2188 -0.5603
 1133TIP3    H1 3405   6.357   4.812   4.162 -0.1664  0.9529 -0.3180
 1133TIP3    H2 3406   6.223   4.743   4.174  0.2337 -0.0118 -1.2882
 1134TIP3   OH2 3407   4.808   0.538   3.273  0.4301 -0.1642  0.1275
 1134TIP3    H1 3408   4.785   0.495   3.190 -4.3221  0.5790  0.7489
 1134TIP3    H2 3409   4.818   0.631   3.250  0.5739 -0.1655  0.1845
 1135TIP3   OH2 3410   4.253   1.858   3.236  0.5467  0.3853  0.3639
 1135TIP3    H1 3411   4.162   1.876   3.262 -0.2010  0.5443 -2.1167
 1135TIP3    H2 3412   4.252   1.863   3.141  3.4544  1.6631  0.2935
 1136TIP3   OH2 3413   0.323   1.394   2.692 -0.0556 -0.0551  0.4029
 1136TIP3    H1 3414   0.251   1.428   2.745  1.4122  1.1366  1.7093
 1136TIP3    H2 3415   0.397   1.449   2.714  1.6715 -2.1879  0.2449
 1137TIP3   OH2 3416   5.531   3.926   4.457  0.3050 -0.0069  0.5997
 1137TIP3    H1 3417   5.445   3.897   4.429  0.2535 -0.0935  0.8444
 1137TIP3    H2 3418   5.571   3.963   4.379  0.2641 -0.4874  0.3499
 1138TIP3   OH2 3419   1.894   2.371   1.331  0.0907  0.3333  0.6461
 1138TIP3    H1 3420   1.870   2.435   1.264 -3.4537  0.9106  2.1878
 1138TIP3    H2 3421   1.892   2.286   1.286  0.7807  0.9384 -0.5583
 1139TIP3   OH2 3422   4.451   3.322   4.714  0.1477 -0.2224 -0.2486
 1139TIP3    H1 3423   4.380   3.262   4.692 -1.2288  0.5749  1.6622
 1139TIP3    H2 3424   4.407   3.402   4.744  1.8871  0.9395 -0.6150
 1140TIP3   OH2 3425   5.848   3.945   0.379  0.2968  0.1900  0.1940
 1140TIP3    H1 3426   5.760   3.977   0.398  0.3135  1.2040 -1.2243
 1140TIP3    H2 3427   5.852   3.942   0.283  1.2944 -1.3362  0.2437
 1141TIP3   OH2 3428   2.389   5.721   0.784 -0.7640 -0.3391 -0.1664
 1141TIP3    H1 3429   2.381   5.654   0.716 -0.7563  1.3552 -1.9408
 1141TIP3    H2 3430   2.366   5.677   0.865  0.1608 -2.7149 -1.1141
 1142TIP3   OH2 3431   5.367   5.210   1.819 -0.0793  0.0459 -0.2639
 1142TIP3    H1 3432   5.375   5.131   1.873 -0.1945  0.6912  0.7119
 1142TIP3    H2 3433   5.448   5.258   1.833  0.4232 -0.3554 -1.6377
 1143TIP3   OH2 3434   5.177   4.808   1.794  0.3965 -0.3627 -0.3163
 1143TIP3    H1 3435   5.194   4.715   1.779 -0.1639 -0.2738 -1.7488
 1143TIP3    H2 3436   5.082   4.817   1.781  0.3881  0.3382  0.2040
 1144TIP3   OH2 3437   6.118   2.619   4.166 -0.0745 -0.1788  0.0804
 1144TIP3    H1 3438   6.060   2.579   4.230  0.6231  1.6591  1.9906
 1144TIP3    H2 3439   6.200   2.570   4.173 -0.2086 -0.3921  0.1396
 1145TIP3   OH2 3440   5.485   3.273   4.177  0.7027  0.0935  0.2452
 1145TIP3    H1 3441   5.487   3.224   4.095  1.9986 -1.9116  1.3941
 1145TIP3    H2 3442   5.570   3.256   4.218 -0.2175  0.3287  2.3971
 1146TIP3   OH2 3443   1.221   3.547   3.681 -0.6718  0.0333 -0.0250
 1146TIP3    H1 3444   1.294   3.603   3.709 -0.1542  0.1318 -1.5168
 1146TIP3    H2 3445   1.252   3.458   3.697  0.2800  0.0214 -1.7130
 1147TIP3   OH2 3446   3.450   0.780   2.843 -0.2604 -0.4794  0.0289
 1147TIP3    H1 3447   3.511   0.807   2.775 -0.7886 -1.2408 -0.7673
 1147TIP3    H2 3448   3.458   0.848   2.911 -0.9685  1.2362 -1.5227
 1148TIP3   OH2 3449   5.207   4.802   3.133  0.3754  0.0547  0.3345
 1148TIP3    H1 3450   5.278   4.798   3.070  0.9653  0.6620  0.9467
 1148TIP3    H2 3451   5.229   4.875   3.191 -0.8353  0.3817  0.4235
 1149TIP3   OH2 3452   0.795   3.496   4.201 -0.3883  0.4010  0.4137
 1149TIP3    H1 3453   0.766   3.459   4.117  0.6216  0.3613  0.0667
 1149TIP3    H2 3454   0.873   3.546   4.179  1.0841 -1.2513  1.6270
 1150TIP3   OH2 3455   3.020   4.594   2.006 -0.9184  0.0623 -0.6746
 1150TIP3    H1 3456   3.096   4.537   1.990 -0.2629  0.5145  0.6696
 1150TIP3    H2 3457   3.019   4.605   2.101 -1.1897  2.0726 -0.8700
 1151TIP3   OH2 3458   5.207   2.520   2.349  0.0578  0.3672 -0.1782
 1151TIP3    H1 3459   5.235   2.539   2.260 -1.0580  0.2358 -0.5706
 1151TIP3    H2 3460   5.231   2.599   2.399  1.2204  0.2009 -0.4521
 1152TIP3   OH2 3461   0.893   3.868   2.351 -0.7101 -0.2694  0.4468
 1152TIP3    H1 3462   0.957   3.923   2.397 -1.8264  0.2167  1.4653
 1152TIP3    H2 3463   0.914   3.779   2.379 -2.3481  0.1245  3.2871
 1153TIP3   OH2 3464   4.757   3.882   1.406 -0.1537 -0.0981  0.0872
 1153TIP3    H1 3465   4.821   3.927   1.351 -2.4994  0.6435 -2.2772
 1153TIP3    H2 3466   4.745   3.796   1.364 -0.0568 -0.5931  1.0449
 1154TIP3   OH2 3467   4.329   5.458   4.166  0.5254 -0.2660  0.1494
 1154TIP3    H1 3468   4.406   5.417   4.126  1.4092  0.0603  1.4366
 1154TIP3    H2 3469   4.295   5.391   4.226  1.1571  0.3453  1.2358
 1155TIP3   OH2 3470   0.838   5.080   4.572  0.5142  0.2206  0.3679
 1155TIP3    H1 3471   0.918   5.115   4.533  1.8889 -1.3998  1.5674
 1155TIP3    H2 3472   0.869   5.012   4.633 -1.7365  0.1172  1.4906
 1156TIP3   OH2 3473   2.636  -0.007   1.639  0.1445  0.5928  0.0820
 1156TIP3    H1 3474   2.723   0.026   1.660  0.3401  1.0581 -1.3500
 1156TIP3    H2 3475   2.616   0.030   1.553 -0.6852 -1.0001 -0.4646
 1157TIP3   OH2 3476   5.037   1.411   4.304  0.3240  0.0584  0.2484
 1157TIP3    H1 3477   5.084   1.368   4.376 -0.0539  1.5626  1.4604
 1157TIP3    H2 3478   4.945   1.396   4.324  0.2219  0.2814 -0.0588
 1158TIP3   OH2 3479   3.184   3.924   4.704  0.2892 -0.3294 -0.2886
 1158TIP3    H1 3480   3.089   3.935   4.696  0.6512  2.9764 -1.5103
 1158TIP3    H2 3481   3.195   3.874   4.786 -2.4583 -1.8883 -0.7165
 1159TIP3   OH2 3482   5.769   4.326   4.205 -0.3792  0.3761  0.2342
 1159TIP3    H1 3483   5.788   4.327   4.299 -0.2445 -1.5002  0.2822
 1159TIP3    H2 3484   5.821   4.252   4.172 -1.5927  0.0535 -1.0395
 1160TIP3   OH2 3485   2.569   2.621   4.564  0.1915 -0.2422  0.3117
 1160TIP3    H1 3486   2.475   2.631   4.576 -0.1837 -1.7763 -1.0045
 1160TIP3    H2 3487   2.588   2.669   4.483  0.1609 -1.5606 -0.5041
 1161TIP3   OH2 3488   2.177   3.252   2.277  0.2395 -0.2590  0.1911
 1161TIP3    H1 3489   2.207   3.275   2.189  2.3861  1.5469  1.2787
 1161TIP3    H2 3490   2.127   3.328   2.305  0.9082 -0.1201  1.0646
 1162TIP3   OH2 3491   4.602   2.981  -0.007  0.1953  0.1169 -0.6941
 1162TIP3    H1 3492   4.574   3.017   0.078  1.4504 -1.7796  0.5943
 1162TIP3    H2 3493   4.652   3.052  -0.047 -0.6131  1.1245  0.0210
 1163TIP3   OH2 3494   4.211   1.257   3.539  0.1919 -0.0479  0.5351
 1163TIP3    H1 3495   4.291   1.212   3.513  0.0852 -0.0879  0.2709
 1163TIP3    H2 3496   4.228   1.349   3.517  0.8515  0.2412  2.1198
 1164TIP3   OH2 3497   2.423   4.167   2.465  0.3989 -0.9808 -0.2828
 1164TIP3    H1 3498   2.502   4.174   2.519  1.3329  1.4773 -1.7980
 1164TIP3    H2 3499   2.455   4.153   2.377 -1.0215 -2.6472 -0.5824
 1165TIP3   OH2 3500   3.245   3.081   2.105  0.0891 -0.2577  0.3510
 1165TIP3    H1 3501   3.195   3.070   2.186  0.5915 -1.8663  0.4828
 1165TIP3    H2 3502   3.210   3.016   2.045 -0.5299  1.1697 -0.8968
 1166TIP3   OH2 3503   4.146   1.953   2.193  0.5751 -0.1976 -0.7569
 1166TIP3    H1 3504   4.122   1.861   2.204  1.8682 -0.4120  0.5648
 1166TIP3    H2 3505   4.239   1.957   2.215  0.7944  1.2739 -1.7691
 1167TIP3   OH2 3506   3.866   0.470   0.436 -0.2164  0.3678 -0.1359
 1167TIP3    H1 3507   3.922   0.405   0.393  1.0447  0.1946  1.6459
 1167TIP3    H2 3508   3.778   0.450   0.406  0.4629 -0.5238 -1.6156
 1168TIP3   OH2 3509   1.825   1.013   5.056 -0.4700 -0.5313 -0.0208
 1168TIP3    H1 3510   1.800   0.944   4.995 -0.5448 -0.7887  0.2968
 1168TIP3    H2 3511   1.908   1.047   5.021 -0.9964 -0.0190 -0.7901
 1169TIP3   OH2 3512  -0.002   2.964   3.399  0.3190 -0.3955 -0.1628
 1169TIP3    H1 3513   0.049   3.044   3.406 -0.5422  0.0730  0.9682
 1169TIP3    H2 3514   0.059   2.894   3.424  1.0694 -0.1154 -1.1525
 1170TIP3   OH2 3515   2.921   3.606   1.862  0.0589 -0.2211 -0.2470
 1170TIP3    H1 3516   2.948   3.668   1.794  0.6722  0.2175  0.3848
 1170TIP3    H2 3517   2.916   3.522   1.817 -1.3871  0.3744 -1.2547
 1171TIP3   OH2 3518   5.373   1.426   4.946 -0.0133 -0.3532  0.2889
 1171TIP3    H1 3519   5.286   1.458   4.924  0.4615  0.8633  0.0855
 1171TIP3    H2 3520   5.432   1.493   4.911  1.0725 -1.8715 -0.8707
 1172TIP3   OH2 3521   6.208   4.918   3.370 -0.0569  0.4190  0.0356
 1172TIP3    H1 3522   6.121   4.900   3.407  1.1917 -1.8565  2.1849
 1172TIP3    H2 3523   6.231   4.837   3.324  0.7040  1.2427 -1.0806
 1173TIP3   OH2 3524   1.897   1.333   1.330  0.5796 -0.0949 -0.2923
 1173TIP3    H1 3525   1.832   1.376   1.385  0.2383 -2.2082  1.0829
 1173TIP3    H2 3526   1.846   1.295   1.259  0.8379  1.3897 -1.3134
 1174TIP3   OH2 3527   2.102   3.841   3.363 -0.3573  0.4033  0.0864
 1174TIP3    H1 3528   2.140   3.785   3.431  1.0582  0.8409 -0.3265
 1174TIP3    H2 3529   2.098   3.928   3.402 -0.7588  0.3983  0.0588
 1175TIP3   OH2 3530   0.347   0.514   2.119 -0.2459  0.1347  0.5532
 1175TIP3    H1 3531   0.421   0.566   2.087 -0.1167 -0.0889  0.4829
 1175TIP3    H2 3532   0.388   0.445   2.172 -0.4266  0.2191  0.8052
 1176TIP3   OH2 3533   2.695   4.528   4.396  0.0249 -0.0116  0.3854
 1176TIP3    H1 3534   2.644   4.472   4.337  1.9712  0.6360 -2.0738
 1176TIP3    H2 3535   2.751   4.468   4.445 -0.3665 -0.4429  0.3132
 1177TIP3   OH2 3536   3.701   0.503   4.245 -0.0183 -0.2607  0.1930
 1177TIP3    H1 3537   3.696   0.564   4.172 -0.6859 -1.7043 -1.0223
 1177TIP3    H2 3538   3.690   0.558   4.323  1.2191  1.3831 -0.7251
 1178TIP3   OH2 3539   4.771   4.627   3.045 -0.0634 -0.0105 -0.4493
 1178TIP3    H1 3540   4.743   4.719   3.046 -1.1206 -0.3237  0.2888
 1178TIP3    H2 3541   4.851   4.626   3.096 -0.0944  0.4888 -0.3866
 1179TIP3   OH2 3542   1.267   0.559   2.103  0.5633  0.1000  0.0980
 1179TIP3    H1 3543   1.224   0.539   2.186 -1.0811  1.3698 -0.3848
 1179TIP3    H2 3544   1.297   0.650   2.113 -1.5959  1.0456 -1.4000
 1180TIP3   OH2 3545   5.031   0.669   4.064  0.1803  0.1085  0.1887
 1180TIP3    H1 3546   5.002   0.578   4.071  1.7284 -0.3410  1.5326
 1180TIP3    H2 3547   5.106   0.666   4.005  1.1642  0.2303  1.3938
 1181TIP3   OH2 3548   0.012   5.611   3.523  0.1074 -0.3824 -0.2684
 1181TIP3    H1 3549   0.103   5.639   3.532  0.4135 -0.6247 -2.2289
 1181TIP3    H2 3550   0.018   5.518   3.501 -0.6905 -0.6878  0.7255
 1182TIP3   OH2 3551   5.958   1.883   3.103  0.0714  0.5761  0.2639
 1182TIP3    H1 3552   5.997   1.858   3.187  1.7280 -1.2092 -0.9428
 1182TIP3    H2 3553   5.864   1.866   3.114  0.2246  0.5864  1.8045
 1183TIP3   OH2 3554   3.863   1.622   3.199  0.2268 -0.0688  0.3212
 1183TIP3    H1 3555   3.863   1.706   3.244 -1.5034 -0.1072  0.4550
 1183TIP3    H2 3556   3.941   1.577   3.233  0.4144  0.9264  1.2729
 1184TIP3   OH2 3557   5.999   2.014   0.763  0.0465  0.2921  0.0624
 1184TIP3    H1 3558   6.071   2.067   0.797  0.4724 -0.3506  0.1907
 1184TIP3    H2 3559   5.987   2.044   0.673  2.9636 -2.0071 -1.2870
 1185TIP3   OH2 3560   2.061   3.467   3.555 -0.0007 -0.4902 -0.4305
 1185TIP3    H1 3561   2.031   3.400   3.617 -0.2649 -0.9650 -1.0649
 1185TIP3    H2 3562   2.156   3.471   3.568 -0.2711  0.9704  1.5435
 1186TIP3   OH2 3563   0.212   4.067   3.280  0.0267 -0.0625  0.1795
 1186TIP3    H1 3564   0.205   4.062   3.376 -0.6415 -1.4925  0.0833
 1186TIP3    H2 3565   0.301   4.098   3.264 -0.7598  3.0969  1.2887
 1187TIP3   OH2 3566   5.980   4.852   3.502  0.2546  0.1272 -0.2231
 1187TIP3    H1 3567   5.947   4.815   3.420 -0.0880  1.4821 -0.7127
 1187TIP3    H2 3568   5.906   4.846   3.562  0.1922  0.0587 -0.3054
 1188TIP3   OH2 3569   0.220   3.110   1.727 -0.4665  0.8567 -0.1069
 1188TIP3    H1 3570   0.314   3.109   1.747 -0.6014  0.4176  0.5372
 1188TIP3    H2 3571   0.181   3.161   1.797 -0.9809 -0.9553  1.0066
 1189TIP3   OH2 3572   3.545   5.361   2.060  0.4713 -0.2314  0.0359
 1189TIP3    H1 3573   3.468   5.304   2.058 -0.7391  1.3385 -0.8304
 1189TIP3    H2 3574   3.523   5.426   2.127  0.1182  1.3669 -1.5414
 1190TIP3   OH2 3575   4.395   5.252   3.671 -0.6420 -0.1320  0.4565
 1190TIP3    H1 3576   4.465   5.189   3.687 -1.3282 -1.4857 -1.4609
 1190TIP3    H2 3577   4.424   5.300   3.593 -1.4250 -0.0439  0.2171
 1191TIP3   OH2 3578   3.376   4.467   3.416  0.4578 -0.3410 -0.5784
 1191TIP3    H1 3579   3.367   4.502   3.328 -0.7719 -0.5902 -0.5662
 1191TIP3    H2 3580   3.407   4.541   3.468 -0.5936  0.3157 -0.8589
 1192TIP3   OH2 3581   4.609   3.006   2.037 -0.2671  0.0395 -0.0695
 1192TIP3    H1 3582   4.623   2.984   1.945  1.0990  1.1087 -0.1494
 1192TIP3    H2 3583   4.557   3.086   2.035 -1.7645 -0.8887  0.1500
 1193TIP3   OH2 3584   2.486   0.753   3.246  0.3410  0.0246  0.4116
 1193TIP3    H1 3585   2.492   0.735   3.340 -0.7816  0.5008  0.5993
 1193TIP3    H2 3586   2.575   0.778   3.220  0.9854 -1.5666  1.0156
 1194TIP3   OH2 3587   2.778   4.634   0.419  0.2172  1.0694  0.1101
 1194TIP3    H1 3588   2.693   4.670   0.444  0.1059 -0.8359  3.0173
 1194TIP3    H2 3589   2.760   4.545   0.392  1.1570  1.0814 -0.6201
 1195TIP3   OH2 3590   2.698   4.912   0.393  0.2204  0.3555  0.2118
 1195TIP3    H1 3591   2.775   4.965   0.377  2.5673 -2.3245  1.7620
 1195TIP3    H2 3592   2.691   4.854   0.317 -0.0400  0.3502  0.2364
 1196TIP3   OH2 3593   5.675   0.385   0.035 -0.4730  0.5770 -0.1196
 1196TIP3    H1 3594   5.714   0.473   0.027  0.3335  0.2231 -0.1707
 1196TIP3    H2 3595   5.678   0.366   0.128 -1.6085  1.0235  0.0175
 1197TIP3   OH2 3596   0.352   3.056   1.422  0.7742 -0.5046  0.9042
 1197TIP3    H1 3597   0.320   3.146   1.429 -0.2326 -0.7737 -0.0362
 1197TIP3    H2 3598   0.278   3.007   1.386  1.1827 -1.7935  1.7618
 1198TIP3   OH2 3599   1.290   4.209   5.017 -0.4295  0.0638  0.2003
 1198TIP3    H1 3600   1.287   4.155   5.096 -0.4799  0.4917  0.4898
 1198TIP3    H2 3601   1.302   4.298   5.049  0.8816  0.1018 -0.3297
 1199TIP3   OH2 3602   4.291   0.959   0.296 -0.2237  0.1494 -0.2130
 1199TIP3    H1 3603   4.387   0.958   0.288 -0.3211  0.5136 -1.6743
 1199TIP3    H2 3604   4.275   0.956   0.391  1.1830 -2.2732  0.0298
 1200TIP3   OH2 3605   6.203   0.596   3.582  0.0387 -0.3227  0.1084
 1200TIP3    H1 3606   6.112   0.623   3.596 -0.2109 -0.7888 -0.5694
 1200TIP3    H2 3607   6.214   0.596   3.487  1.3004  1.5036  0.2175
 1201TIP3   OH2 3608   0.480   4.090   3.532 -0.4560  0.4399 -0.9352
 1201TIP3    H1 3609   0.522   4.170   3.501 -0.3488  0.3061 -1.1369
 1201TIP3    H2 3610   0.431   4.118   3.610 -0.6542  0.7596 -1.1670
 1202TIP3   OH2 3611   0.567   0.689   3.108 -0.4712 -0.0426 -0.1580
 1202TIP3    H1 3612   0.596   0.702   3.018 -0.5754 -0.3773 -0.2446
 1202TIP3    H2 3613   0.485   0.639   3.100 -1.6559  1.7760  0.0266
 1203TIP3   OH2 3614   2.006   4.300   3.919  0.3755 -0.3924 -0.3512
 1203TIP3    H1 3615   1.976   4.370   3.861 -1.2739 -0.4617  0.3697
 1203TIP3    H2 3616   2.082   4.336   3.964 -0.8075  1.1979  0.4519
 1204TIP3   OH2 3617   6.076   3.560   4.885 -0.0013 -0.1513 -0.1387
 1204TIP3    H1 3618   5.981   3.569   4.880 -0.2030 -0.6068  2.0457
 1204TIP3    H2 3619   6.091   3.500   4.958  2.0323  1.3751  0.7890
 1205TIP3   OH2 3620   1.704   4.272   0.059 -0.0975  0.1632 -0.1258
 1205TIP3    H1 3621   1.778   4.284   0.118  1.5272 -0.7148 -1.8784
 1205TIP3    H2 3622   1.702   4.351   0.005 -0.3239  0.1074 -0.2015
 1206TIP3   OH2 3623   5.357   0.818   4.899  0.2932  0.0652 -0.2368
 1206TIP3    H1 3624   5.344   0.852   4.987  0.4755 -0.8368  0.1562
 1206TIP3    H2 3625   5.435   0.863   4.867  0.5542 -0.0063  0.2832
 1207TIP3   OH2 3626   4.977  -0.007   3.440 -0.0772  0.0572  0.3851
 1207TIP3    H1 3627   4.949   0.082   3.419  1.0611  0.5596  0.9399
 1207TIP3    H2 3628   4.914  -0.037   3.506  0.9816  1.3916  2.0791
 1208TIP3   OH2 3629   4.413   4.478   0.534  0.2088  0.3891  0.0655
 1208TIP3    H1 3630   4.329   4.454   0.574 -0.2625  2.4997  0.4993
 1208TIP3    H2 3631   4.479   4.449   0.598 -0.3039  0.3288  0.5796
 1209TIP3   OH2 3632   1.519   4.347   2.301  0.2553 -0.0555 -0.2460
 1209TIP3    H1 3633   1.496   4.319   2.213 -0.2019  0.4977 -0.3038
 1209TIP3    H2 3634   1.566   4.272   2.338 -1.6401 -1.2311 -0.0981
 1210TIP3   OH2 3635   4.952   2.620   2.197 -0.1768 -0.2796 -0.0586
 1210TIP3    H1 3636   4.868   2.645   2.158  0.0406 -0.0824 -0.4085
 1210TIP3    H2 3637   4.990   2.704   2.226 -0.5411 -0.4628  1.0120
 1211TIP3   OH2 3638   5.253   2.972   3.494 -0.8022 -0.2951  0.0353
 1211TIP3    H1 3639   5.260   2.901   3.558 -1.5142 -0.6593 -0.2754
 1211TIP3    H2 3640   5.300   2.939   3.417 -1.5760 -0.6672 -0.2953
 1212TIP3   OH2 3641   1.678   2.162   3.869  0.0330 -0.2448  0.0888
 1212TIP3    H1 3642   1.638   2.202   3.792  1.3629  2.0267  0.4906
 1212TIP3    H2 3643   1.644   2.212   3.943  0.5698 -0.8523  0.7574
 1213TIP3   OH2 3644   1.171   5.435   3.586 -0.5549 -0.6891  0.2839
 1213TIP3    H1 3645   1.086   5.391   3.579 -1.0546  0.0645  1.3812
 1213TIP3    H2 3646   1.179   5.459   3.678  0.2443  0.4491 -0.0513
 1214TIP3   OH2 3647   6.044   4.169   0.446 -0.3749 -0.5129 -0.3039
 1214TIP3    H1 3648   6.054   4.248   0.392  0.8247 -1.1797 -1.0853
 1214TIP3    H2 3649   5.959   4.134   0.421  0.4472 -1.1951 -2.3211
 1215TIP3   OH2 3650   0.084   5.422   4.323 -0.1188  0.3732 -0.2156
 1215TIP3    H1 3651   0.076   5.328   4.340  0.4239  0.4975  0.8109
 1215TIP3    H2 3652   0.135   5.456   4.397  0.4342  1.3406 -1.0155
 1216TIP3   OH2 3653   0.169   0.930   2.049  0.1340  0.4769  0.2162
 1216TIP3    H1 3654   0.190   0.865   1.981 -0.1297  0.7809 -0.1579
 1216TIP3    H2 3655   0.193   0.887   2.131  0.2029  0.0007 -0.0495
 1217TIP3   OH2 3656   6.345   4.385   1.982 -0.1599 -0.3269  0.0391
 1217TIP3    H1 3657   6.336   4.476   2.011  0.4675  0.1252 -1.1046
 1217TIP3    H2 3658   6.300   4.334   2.049 -0.2830  0.8009  0.8501
 1218TIP3   OH2 3659   4.444   0.448   5.171 -0.0762  0.1074 -0.1625
 1218TIP3    H1 3660   4.381   0.495   5.116 -1.0267  0.0457  0.8553
 1218TIP3    H2 3661   4.400   0.367   5.195 -0.9418  1.4467  3.1919
 1219TIP3   OH2 3662   5.278   3.753   4.845  0.1212 -0.5364 -0.4283
 1219TIP3    H1 3663   5.214   3.773   4.777 -1.1063  1.3026  1.1343
 1219TIP3    H2 3664   5.227   3.746   4.925  1.6325 -1.4944  0.5084
 1220TIP3   OH2 3665   5.394   1.829   0.915  0.1459 -0.3440  0.0390
 1220TIP3    H1 3666   5.435   1.743   0.905  0.4884 -0.0831 -0.9481
 1220TIP3    H2 3667   5.460   1.891   0.884 -0.2176  0.2503  0.4369
 1221TIP3   OH2 3668   3.359   5.386   4.023  0.3002 -0.2144  0.0077
 1221TIP3    H1 3669   3.355   5.457   3.958 -0.1601  0.2855  0.5732
 1221TIP3    H2 3670   3.434   5.334   3.996  1.4154  1.1805  0.2798
 1222TIP3   OH2 3671   2.409   0.903   4.591 -0.4481 -0.1764 -0.0045
 1222TIP3    H1 3672   2.344   0.948   4.645 -0.9749 -0.4041 -0.4480
 1222TIP3    H2 3673   2.491   0.911   4.641 -0.5814  1.0557  0.0252
 1223TIP3   OH2 3674   0.828   1.391   1.743  0.5992  0.0043 -0.4333
 1223TIP3    H1 3675   0.808   1.299   1.725  0.7980 -0.1065 -0.0917
 1223TIP3    H2 3676   0.745   1.436   1.728  0.4096 -0.2803 -0.2641
 1224TIP3   OH2 3677   3.428   4.962   2.193 -0.3763 -0.2378 -0.2585
 1224TIP3    H1 3678   3.523   4.953   2.197 -0.4072 -0.0082  1.6680
 1224TIP3    H2 3679   3.397   4.876   2.164  0.3624 -0.6528  0.1572
 1225TIP3   OH2 3680   4.752   3.655   1.030 -0.5328  0.2552 -0.2341
 1225TIP3    H1 3681   4.770   3.654   1.124 -1.1090 -0.5161 -0.1229
 1225TIP3    H2 3682   4.833   3.625   0.989 -0.0485  1.2570 -0.0357
 1226TIP3   OH2 3683   4.427   5.537   1.460  0.3343  0.1539  0.4425
 1226TIP3    H1 3684   4.432   5.605   1.393  0.7289  0.8856  1.2025
 1226TIP3    H2 3685   4.499   5.557   1.520  0.1834 -0.6802  0.9067
 1227TIP3   OH2 3686   0.906   2.941   0.313 -0.6016 -0.2137 -0.3343
 1227TIP3    H1 3687   0.890   2.868   0.253  1.5106 -0.4074 -0.7369
 1227TIP3    H2 3688   0.986   2.982   0.280 -0.8482  1.3029  0.8411
 1228TIP3   OH2 3689   1.457   1.291   3.193 -0.0114  0.1727  0.1362
 1228TIP3    H1 3690   1.364   1.285   3.215  0.4204  1.4804  2.8045
 1228TIP3    H2 3691   1.495   1.209   3.226 -0.0857  0.0254 -0.1442
 1229TIP3   OH2 3692   2.348   3.909   4.602 -0.5401  0.5371  0.1865
 1229TIP3    H1 3693   2.327   3.958   4.681 -0.6823  0.1703  0.3807
 1229TIP3    H2 3694   2.315   3.963   4.530  0.8770  1.5772  0.2746
 1230TIP3   OH2 3695   5.785   1.603   1.022 -0.3104  0.0735  0.2455
 1230TIP3    H1 3696   5.786   1.664   1.095 -0.3159  1.4823 -0.8934
 1230TIP3    H2 3697   5.875   1.602   0.989 -0.6260  0.6840 -0.6896
 1231TIP3   OH2 3698   4.380   1.568   0.483  0.1450  0.3244  0.7667
 1231TIP3    H1 3699   4.341   1.587   0.398  1.0885 -0.8615  0.0462
 1231TIP3    H2 3700   4.403   1.476   0.479 -1.4078 -0.2494  2.9714
 1232TIP3   OH2 3701   0.705   3.695   1.424  0.0727 -0.4854  0.4541
 1232TIP3    H1 3702   0.619   3.679   1.463  0.0626 -2.2936 -0.2079
 1232TIP3    H2 3703   0.743   3.608   1.414  1.8189  0.2481  0.3240
 1233TIP3   OH2 3704   3.744   5.014   0.514 -0.3008  0.2786 -0.2385
 1233TIP3    H1 3705   3.815   4.955   0.540 -1.2289  0.0345  2.0044
 1233TIP3    H2 3706   3.740   5.007   0.419  1.2728 -1.3220 -0.2386
 1234TIP3   OH2 3707   0.371   2.799   2.931  0.1758 -0.0995  0.3980
 1234TIP3    H1 3708   0.384   2.889   2.960  0.4154 -0.2461  0.7420
 1234TIP3    H2 3709   0.441   2.783   2.868 -0.7524  0.4501 -0.8210
 1235TIP3   OH2 3710   3.249   1.828   4.312  0.3094  0.3587  0.3306
 1235TIP3    H1 3711   3.327   1.780   4.339 -0.3016  0.3073  2.1519
 1235TIP3    H2 3712   3.225   1.789   4.227  2.7464  1.0301 -0.7429
 1236TIP3   OH2 3713   1.099   0.675   3.750 -0.3770 -0.2317  0.1634
 1236TIP3    H1 3714   1.142   0.611   3.807 -0.3311  0.9494  1.5122
 1236TIP3    H2 3715   1.106   0.638   3.663  0.6068 -1.5497  0.7690
 1237TIP3   OH2 3716   4.048   5.760   1.099 -0.4913 -0.0499 -0.3446
 1237TIP3    H1 3717   4.115   5.775   1.165  0.6936 -0.1847 -1.4847
 1237TIP3    H2 3718   3.977   5.717   1.147 -0.0514  0.6771  1.0112
 1238TIP3   OH2 3719   5.290   1.007   0.567 -0.3005 -0.4011  0.6305
 1238TIP3    H1 3720   5.337   1.071   0.620 -1.0489 -0.3701  1.2663
 1238TIP3    H2 3721   5.224   1.058   0.520 -0.8634 -0.6830  1.0968
 1239TIP3   OH2 3722   3.627   5.803   2.412  0.6711 -0.2450  0.6814
 1239TIP3    H1 3723   3.640   5.897   2.401  0.7487 -0.2335  0.8730
 1239TIP3    H2 3724   3.562   5.781   2.345  1.9560 -0.3835 -0.5768
 1240TIP3   OH2 3725   4.147   1.771   0.882  0.2668 -0.2485  0.6525
 1240TIP3    H1 3726   4.178   1.774   0.973 -2.1585 -0.4422  1.5617
 1240TIP3    H2 3727   4.052   1.761   0.890  0.1726 -2.5662 -1.9105
 1241TIP3   OH2 3728   0.311   4.164   3.757 -0.1920 -0.1346  0.4508
 1241TIP3    H1 3729   0.249   4.234   3.774  0.4119  0.4485  0.2995
 1241TIP3    H2 3730   0.277   4.089   3.806 -1.9313 -0.3399 -0.9726
 1242TIP3   OH2 3731   2.954   1.490   4.639  0.2020  0.4606 -0.1031
 1242TIP3    H1 3732   2.937   1.582   4.660 -2.1938  0.9634 -3.3906
 1242TIP3    H2 3733   3.007   1.493   4.560 -2.3620 -0.7917 -2.0011
 1243TIP3   OH2 3734   4.282   0.291   4.791  0.0343 -0.3006  0.4235
 1243TIP3    H1 3735   4.359   0.335   4.826 -0.6018  1.0512  0.1625
 1243TIP3    H2 3736   4.283   0.205   4.833  0.4208  0.5263  2.2128
 1244TIP3   OH2 3737   1.485   2.064   5.114  0.5568  0.1195  0.6997
 1244TIP3    H1 3738   1.467   2.131   5.179  0.0184 -0.9546  1.7015
 1244TIP3    H2 3739   1.399   2.032   5.088  0.8207 -0.7952  0.9139
 1245TIP3   OH2 3740   5.448   5.072   2.024  0.4349 -0.2033  0.2695
 1245TIP3    H1 3741   5.378   5.062   2.088  0.9403 -1.8907  0.6227
 1245TIP3    H2 3742   5.527   5.080   2.077  0.5928  1.1621 -0.1332
 1246TIP3   OH2 3743   5.251   1.731   1.696  0.0201  0.0652  0.1571
 1246TIP3    H1 3744   5.310   1.660   1.723 -0.5272 -0.3819  0.2080
 1246TIP3    H2 3745   5.164   1.697   1.716 -0.2352  0.8744  0.4556
 1247TIP3   OH2 3746   0.173   3.634   3.109 -0.6351 -0.0838  0.0626
 1247TIP3    H1 3747   0.228   3.710   3.090  0.1229 -0.5118  0.4620
 1247TIP3    H2 3748   0.087   3.670   3.129  0.1970  0.8556  2.2378
 1248TIP3   OH2 3749   4.086   4.113   1.875 -0.4319  0.1142 -0.2906
 1248TIP3    H1 3750   4.160   4.090   1.819 -0.5990  0.0229 -0.4756
 1248TIP3    H2 3751   4.085   4.046   1.943 -0.8692 -0.3937 -0.7819
 1249TIP3   OH2 3752   0.509   0.339   0.012 -0.0399 -0.1238  0.0421
 1249TIP3    H1 3753   0.561   0.363  -0.065  1.2293  1.7889  1.3938
 1249TIP3    H2 3754   0.524   0.410   0.074 -1.4396 -1.3284  1.8708
 1250TIP3   OH2 3755   3.305   2.366   3.257 -0.0143 -0.0927  0.3824
 1250TIP3    H1 3756   3.211   2.381   3.273  0.2205 -0.8057  2.9879
 1250TIP3    H2 3757   3.317   2.272   3.270  1.3782  0.3018  2.4656
 1251TIP3   OH2 3758   0.322   1.141   2.598  0.1733  0.0883  0.3515
 1251TIP3    H1 3759   0.304   1.233   2.616 -2.1145 -0.4996  1.5367
 1251TIP3    H2 3760   0.306   1.097   2.682  2.6681 -1.2658  0.2143
 1252TIP3   OH2 3761   0.547   5.806   4.249  0.3962  0.0737  0.2460
 1252TIP3    H1 3762   0.467   5.774   4.290 -0.1798  0.1245 -0.8200
 1252TIP3    H2 3763   0.520   5.838   4.163  1.3847  1.0556  0.2677
 1253TIP3   OH2 3764   3.181   2.093   3.337  0.1379 -0.0312 -0.3159
 1253TIP3    H1 3765   3.105   2.063   3.387  1.7867 -1.7517  1.3506
 1253TIP3    H2 3766   3.163   2.065   3.247 -0.1107 -2.8413  0.5069
 1254TIP3   OH2 3767   2.962   4.284   2.586 -0.1478 -0.0382  0.1763
 1254TIP3    H1 3768   2.994   4.313   2.672 -1.8160  1.7557  0.2475
 1254TIP3    H2 3769   2.930   4.364   2.544  1.2780 -0.7320 -2.4598
 1255TIP3   OH2 3770   3.913   1.764   0.291 -0.0031 -0.3097 -0.2961
 1255TIP3    H1 3771   3.922   1.857   0.310 -0.2979  0.0803 -1.8789
 1255TIP3    H2 3772   3.826   1.741   0.325  0.8441 -0.5373  1.8913
 1256TIP3   OH2 3773   4.818   5.705   4.039  0.3797 -0.1055 -0.0191
 1256TIP3    H1 3774   4.829   5.771   3.970  0.8113 -0.8716 -0.6914
 1256TIP3    H2 3775   4.730   5.721   4.073  0.7016  1.2058  0.2464
 1257TIP3   OH2 3776   3.809   4.596   3.758 -0.1447 -0.1083  0.0130
 1257TIP3    H1 3777   3.841   4.634   3.676  2.3085 -0.3220  0.7962
 1257TIP3    H2 3778   3.887   4.558   3.799 -1.5740 -1.3200  1.7552
 1258TIP3   OH2 3779   1.096   2.384   2.450  0.0735  0.3942 -0.3072
 1258TIP3    H1 3780   1.031   2.328   2.407  0.3273 -0.3076  0.2072
 1258TIP3    H2 3781   1.046   2.460   2.480 -0.9353 -0.9915  1.7701
 1259TIP3   OH2 3782   0.269   0.993   0.660  0.3850 -0.0742 -0.4976
 1259TIP3    H1 3783   0.240   0.947   0.581 -0.8271  1.2112 -0.8306
 1259TIP3    H2 3784   0.245   1.084   0.646 -1.1924 -0.0305  1.9389
 1260TIP3   OH2 3785   0.473   5.648   0.943 -0.9841  1.0215 -0.4695
 1260TIP3    H1 3786   0.482   5.728   0.892 -1.6331  1.3256 -0.1202
 1260TIP3    H2 3787   0.383   5.620   0.929 -0.6538  0.1262 -0.9065
 1261TIP3   OH2 3788   0.400   3.602   4.976 -0.3513  0.3294 -0.1318
 1261TIP3    H1 3789   0.460   3.609   4.902  2.7004 -0.0572  2.1252
 1261TIP3    H2 3790   0.339   3.532   4.951  1.8087 -1.1707 -1.5373
 1262TIP3   OH2 3791   2.668   0.287   1.795  0.3808  0.0420  0.9729
 1262TIP3    H1 3792   2.721   0.212   1.820  1.3418  0.6212  0.7466
 1262TIP3    H2 3793   2.658   0.337   1.876  1.2076  0.5406  0.7776
 1263TIP3   OH2 3794   0.115   2.750   4.555  0.0220 -0.0603  0.0310
 1263TIP3    H1 3795   0.135   2.834   4.513 -1.1135 -0.4353 -1.3568
 1263TIP3    H2 3796   0.180   2.742   4.625  1.7590  0.7977 -1.3920
 1264TIP3   OH2 3797   2.379   3.010   4.280 -0.5700  0.1954 -0.3689
 1264TIP3    H1 3798   2.365   3.050   4.194  2.0367  0.2107 -0.8680
 1264TIP3    H2 3799   2.420   3.079   4.332 -1.9355  0.1198  0.8738
 1265TIP3   OH2 3800   0.413   1.649   5.187  0.6955  0.0053 -0.4356
 1265TIP3    H1 3801   0.323   1.623   5.163  0.7370 -0.7269  0.1593
 1265TIP3    H2 3802   0.467   1.574   5.161  1.0942  0.3304 -0.5399
 1266TIP3   OH2 3803   2.444   5.022   1.352 -0.5877  0.0070 -0.5354
 1266TIP3    H1 3804   2.493   5.069   1.285  0.2996 -0.2492 -0.0743
 1266TIP3    H2 3805   2.508   4.964   1.393 -1.1954 -0.0941  0.2944
 1267TIP3   OH2 3806   5.458   3.146   3.926 -0.7541 -0.7702 -0.0919
 1267TIP3    H1 3807   5.544   3.156   3.885 -0.0160 -1.1498  1.3059
 1267TIP3    H2 3808   5.400   3.118   3.855 -0.3681  2.0269 -1.6622
 1268TIP3   OH2 3809   0.898   1.591   2.266  0.6387 -0.0108 -0.0088
 1268TIP3    H1 3810   0.844   1.617   2.340 -0.6761  1.1086 -1.2927
 1268TIP3    H2 3811   0.984   1.629   2.284  0.8680 -1.2514  1.7428
 1269TIP3   OH2 3812   0.769   1.845   4.389  0.2492  0.4839 -0.3319
 1269TIP3    H1 3813   0.846   1.902   4.389  1.5183 -1.1332 -0.6864
 1269TIP3    H2 3814   0.780   1.789   4.312 -0.7456 -0.4771  0.1828
 1270TIP3   OH2 3815   4.250   5.707   3.227 -0.5292  0.6152  0.0391
 1270TIP3    H1 3816   4.235   5.801   3.228  0.3020  0.7427  0.5046
 1270TIP3    H2 3817   4.340   5.695   3.258 -0.7770 -0.3574  0.4415
 1271TIP3   OH2 3818   2.085   3.532   1.400 -0.0371 -0.2899  0.3843
 1271TIP3    H1 3819   2.123   3.566   1.319  1.4593  2.2450  2.0336
 1271TIP3    H2 3820   2.154   3.479   1.439 -0.7617 -1.5207  0.0632
 1272TIP3   OH2 3821   1.626   4.360   0.530  0.3123 -0.4666  0.0336
 1272TIP3    H1 3822   1.541   4.398   0.508  0.8800  0.4335 -0.6497
 1272TIP3    H2 3823   1.683   4.383   0.457  1.6358  0.5748  1.3129
 1273TIP3   OH2 3824   0.639   4.716   0.426  0.7069 -0.2574 -0.0076
 1273TIP3    H1 3825   0.682   4.786   0.377  1.2078 -0.9834 -0.6119
 1273TIP3    H2 3826   0.687   4.713   0.509 -0.1345  0.9616  0.5595
 1274TIP3   OH2 3827   2.099   2.035   1.616 -0.1771  0.0120 -0.0449
 1274TIP3    H1 3828   2.124   2.084   1.694  1.3887 -1.3970  0.3797
 1274TIP3    H2 3829   2.161   2.065   1.549  0.4325 -0.9250  0.0744
 1275TIP3   OH2 3830   1.101   2.619   3.417  0.5657  0.1590  0.0127
 1275TIP3    H1 3831   1.159   2.572   3.357  0.3109 -0.0895 -0.0418
 1275TIP3    H2 3832   1.159   2.659   3.481  1.0501  2.2559 -1.6289
 1276TIP3   OH2 3833   0.458   1.082   0.290 -0.3683 -0.6866  0.2584
 1276TIP3    H1 3834   0.530   1.097   0.352 -0.9449 -0.4321  0.8738
 1276TIP3    H2 3835   0.411   1.165   0.288 -1.4400 -1.2647  0.9007
 1277TIP3   OH2 3836   0.546   3.923   5.019  0.0379 -0.4337  0.2055
 1277TIP3    H1 3837   0.504   3.940   5.104  0.1180  1.1961 -0.0397
 1277TIP3    H2 3838   0.484   3.869   4.971  0.2873 -1.9885  1.5330
 1278TIP3   OH2 3839   4.037   0.232   2.747  0.3646 -0.4474  0.6071
 1278TIP3    H1 3840   3.988   0.264   2.671 -0.1636  0.8542  1.4467
 1278TIP3    H2 3841   4.126   0.265   2.734  0.5337 -1.0915  0.0732
 1279TIP3   OH2 3842   1.344   2.108   1.841 -0.5568 -0.3398  0.2603
 1279TIP3    H1 3843   1.301   2.056   1.774 -1.0776 -2.4545  2.1002
 1279TIP3    H2 3844   1.314   2.197   1.826  0.6597 -0.3929 -3.2531
 1280TIP3   OH2 3845   3.962   3.554   3.189  0.3977  0.1322  0.0233
 1280TIP3    H1 3846   4.032   3.518   3.134  2.3293  0.0273  2.4081
 1280TIP3    H2 3847   3.885   3.502   3.165  1.1518 -0.0176 -2.4131
 1281TIP3   OH2 3848   6.089   2.213   2.175 -0.4382 -0.5231  0.2634
 1281TIP3    H1 3849   6.107   2.290   2.229  0.9224 -0.4214 -0.2978
 1281TIP3    H2 3850   6.041   2.248   2.100 -0.5937 -0.3669  0.4326
 1282TIP3   OH2 3851   2.508   2.726   2.170  0.0730 -0.1594  0.0248
 1282TIP3    H1 3852   2.579   2.719   2.234  0.1984  0.1307 -0.0809
 1282TIP3    H2 3853   2.519   2.650   2.113  0.9630  0.4675 -0.6583
 1283TIP3   OH2 3854   1.940   3.278   1.432  0.2370  0.9776 -0.7231
 1283TIP3    H1 3855   1.894   3.268   1.349  1.6973 -0.0353 -1.4569
 1283TIP3    H2 3856   1.978   3.365   1.428 -1.7931  1.9646  0.0348
 1284TIP3   OH2 3857   6.293   0.875   0.546 -0.1486  0.2642  0.8661
 1284TIP3    H1 3858   6.279   0.939   0.615  0.1792  0.0258  1.1595
 1284TIP3    H2 3859   6.382   0.891   0.516  0.3719 -0.8133  1.7607
 1285TIP3   OH2 3860   1.840   5.242   0.264  0.0090 -0.2794 -0.2602
 1285TIP3    H1 3861   1.828   5.250   0.170 -1.4284  0.6325 -0.0265
 1285TIP3    H2 3862   1.928   5.275   0.280  0.2106 -0.3185 -1.2619
 1286TIP3   OH2 3863   3.504   2.464   4.402  0.0423 -0.2072 -0.3365
 1286TIP3    H1 3864   3.472   2.392   4.348  0.4261 -1.3638  0.9298
 1286TIP3    H2 3865   3.587   2.490   4.361 -0.0876 -0.4871 -0.7886
 1287TIP3   OH2 3866   5.621   0.572   3.817  0.0817 -0.0600  0.6441
 1287TIP3    H1 3867   5.665   0.542   3.737  0.3081 -0.5684  0.9524
 1287TIP3    H2 3868   5.674   0.537   3.888 -0.7258 -0.5541  1.0222
 1288TIP3   OH2 3869   5.841   0.528   0.393 -0.5425  0.0680  0.0413
 1288TIP3    H1 3870   5.794   0.598   0.348 -0.7844  1.3526  2.1698
 1288TIP3    H2 3871   5.781   0.453   0.390 -0.4154 -0.0060 -1.9726
 1289TIP3   OH2 3872   2.171   5.556   2.388 -0.0826  0.4607  0.5914
 1289TIP3    H1 3873   2.261   5.559   2.357 -0.4803  0.8512 -0.5458
 1289TIP3    H2 3874   2.153   5.644   2.421 -0.3105  0.6254  0.0396
 1290TIP3   OH2 3875   0.494   3.832   3.256  0.2238 -0.0318 -0.5476
 1290TIP3    H1 3876   0.433   3.817   3.183 -3.2595  1.3817  1.8260
 1290TIP3    H2 3877   0.499   3.927   3.263  0.0380 -0.1432  1.3871
 1291TIP3   OH2 3878   5.300   5.520   1.737 -0.3280  0.7890  0.3047
 1291TIP3    H1 3879   5.278   5.432   1.769 -1.0939  0.9962  0.3788
 1291TIP3    H2 3880   5.389   5.512   1.703  0.2458  0.4010  1.8405
 1292TIP3   OH2 3881   3.321   0.938   2.097  0.4404  0.2035  0.3641
 1292TIP3    H1 3882   3.325   1.034   2.106  0.9825  0.1511  0.6877
 1292TIP3    H2 3883   3.398   0.906   2.143  1.4981 -0.2729 -1.6482
 1293TIP3   OH2 3884   6.159   4.372   3.944  0.1914 -0.3827 -0.4366
 1293TIP3    H1 3885   6.229   4.311   3.922  0.0165 -0.6336 -0.3015
 1293TIP3    H2 3886   6.103   4.374   3.867  0.0725 -0.5685 -0.3553
 1294TIP3   OH2 3887   3.174   5.900   5.054  0.4496 -0.7916  0.0262
 1294TIP3    H1 3888   3.082   5.875   5.056  0.0359  0.5736 -0.9093
 1294TIP3    H2 3889   3.194   5.910   4.960  0.9799  0.9020  0.2973
 1295TIP3   OH2 3890   1.256   2.344   1.778 -0.0374  0.0912  0.1998
 1295TIP3    H1 3891   1.300   2.426   1.756 -0.6343  0.4272  0.2524
 1295TIP3    H2 3892   1.166   2.357   1.750 -0.1043 -0.5967  0.0925
 1296TIP3   OH2 3893   0.955   4.155   4.865  0.0898 -0.1525 -0.5098
 1296TIP3    H1 3894   0.923   4.244   4.852 -0.1412 -0.0370  0.6719
 1296TIP3    H2 3895   0.907   4.123   4.942  2.9011  0.1471  1.5701
 1297TIP3   OH2 3896   1.766   0.358   1.268 -0.2151  0.6959  0.0801
 1297TIP3    H1 3897   1.802   0.363   1.357  0.1450 -1.5150  0.1337
 1297TIP3    H2 3898   1.704   0.285   1.272  1.0970 -0.6098 -1.8638
 1298TIP3   OH2 3899   2.617   4.927   3.318 -0.4690  0.2974 -0.1772
 1298TIP3    H1 3900   2.591   4.860   3.381 -0.5297  1.7967  1.4584
 1298TIP3    H2 3901   2.538   4.976   3.301 -0.3828  0.0955 -1.2300
 1299TIP3   OH2 3902   1.476   5.181   4.315  0.1724  0.3604  0.1483
 1299TIP3    H1 3903   1.515   5.095   4.302  0.3374  0.0657  2.1533
 1299TIP3    H2 3904   1.394   5.179   4.267 -0.3980 -1.3776  1.0975
 1300TIP3   OH2 3905   1.215   1.678   3.310  0.5127  0.0855  0.3764
 1300TIP3    H1 3906   1.266   1.681   3.229  3.9058  1.2042  2.3508
 1300TIP3    H2 3907   1.263   1.617   3.366 -0.8115  0.5797  2.1423
 1301TIP3   OH2 3908   0.517   2.248   1.168  0.6620  0.0767  0.4932
 1301TIP3    H1 3909   0.605   2.217   1.185  1.3690  0.3578 -2.1736
 1301TIP3    H2 3910   0.529   2.337   1.133 -0.5033 -0.4258 -1.3200
 1302TIP3   OH2 3911   2.874   0.331   2.779  0.1216 -0.2404  0.0402
 1302TIP3    H1 3912   2.893   0.340   2.686 -0.7552  0.6058 -0.0593
 1302TIP3    H2 3913   2.947   0.375   2.823 -0.4330  1.0599 -0.2997
 1303TIP3   OH2 3914   1.770   0.390   0.341  0.4176  0.1068  0.2230
 1303TIP3    H1 3915   1.844   0.385   0.279  0.5833  0.4198  0.3962
 1303TIP3    H2 3916   1.696   0.355   0.291  0.1861  1.8406 -0.7093
 1304TIP3   OH2 3917   3.770   0.202   2.361 -0.0261 -0.3171 -0.1524
 1304TIP3    H1 3918   3.841   0.159   2.313  0.2753  1.0876 -1.0270
 1304TIP3    H2 3919   3.703   0.134   2.371  0.3490 -0.9385 -1.6333
 1305TIP3   OH2 3920   2.078   3.837   2.810 -0.2533 -0.0023  0.4629
 1305TIP3    H1 3921   2.052   3.745   2.813 -2.1589  0.5113  0.8986
 1305TIP3    H2 3922   2.115   3.855   2.897  0.5189 -0.4350  0.2370
 1306TIP3   OH2 3923   1.206   3.851   3.509 -0.2597 -0.1808  0.7484
 1306TIP3    H1 3924   1.115   3.879   3.519 -0.8324 -1.7905  0.3206
 1306TIP3    H2 3925   1.237   3.896   3.431 -0.4695  0.8573  1.2441
 1307TIP3   OH2 3926   1.902   3.265   4.900 -0.4669  0.2485  0.2561
 1307TIP3    H1 3927   1.831   3.287   4.960  0.3163 -1.5857  1.9596
 1307TIP3    H2 3928   1.858   3.228   4.823 -1.3997  0.6046  0.6076
 1308TIP3   OH2 3929   0.695   5.732   0.149 -0.2107  0.8811 -0.5032
 1308TIP3    H1 3930   0.711   5.638   0.143 -2.5997  0.4781 -2.2567
 1308TIP3    H2 3931   0.736   5.768   0.070 -2.2049  0.7396 -1.6696
 1309TIP3   OH2 3932   2.776   1.067   0.672  0.0271 -0.1113 -0.0642
 1309TIP3    H1 3933   2.774   1.105   0.584 -0.7672  0.1020  0.0411
 1309TIP3    H2 3934   2.840   1.120   0.720  0.5730 -0.3191 -0.5460
 1310TIP3   OH2 3935   5.126   3.391   1.816  0.6182  0.6524 -0.2710
 1310TIP3    H1 3936   5.133   3.463   1.754  0.7683  0.9032  0.0300
 1310TIP3    H2 3937   5.208   3.395   1.866  0.2534  0.8219  0.3248
 1311TIP3   OH2 3938   3.976   2.021   1.078  0.1504 -0.1586  0.2489
 1311TIP3    H1 3939   4.061   1.997   1.042  0.2205  1.4304 -0.7221
 1311TIP3    H2 3940   3.995   2.087   1.144 -0.1981 -1.2294  1.4563
 1312TIP3   OH2 3941   0.180   3.313   4.658  0.1047  0.1308  0.6908
 1312TIP3    H1 3942   0.147   3.386   4.605 -0.7241  0.4884  1.6682
 1312TIP3    H2 3943   0.255   3.280   4.609  0.5417  1.6853  0.2561
 1313TIP3   OH2 3944   4.522   2.324   0.578 -0.3374  0.1199  0.1533
 1313TIP3    H1 3945   4.598   2.328   0.637 -0.0055  1.7578 -0.3302
 1313TIP3    H2 3946   4.527   2.405   0.527 -2.3664  0.2238  0.0344
 1314TIP3   OH2 3947   0.456   4.322   1.309 -0.4033  0.1158 -0.1688
 1314TIP3    H1 3948   0.471   4.240   1.356 -0.1381  1.0878  1.5275
 1314TIP3    H2 3949   0.539   4.340   1.265 -0.2627 -0.2014 -0.0355
 1315TIP3   OH2 3950   0.041   2.196   2.080 -0.2891 -0.0745  0.1840
 1315TIP3    H1 3951   0.064   2.176   2.171 -0.0136 -0.8428 -0.0448
 1315TIP3    H2 3952  -0.055   2.201   2.080 -0.2446  1.0823  0.7341
 1316TIP3   OH2 3953   3.117   3.895   2.006  0.4152 -0.0144  0.3076
 1316TIP3    H1 3954   3.208   3.915   2.027  0.6599  0.0971 -0.7637
 1316TIP3    H2 3955   3.069   3.976   2.026  0.5050 -0.1597  1.1215
 1317TIP3   OH2 3956   6.130   5.895   1.540  0.0794 -0.1334  0.3834
 1317TIP3    H1 3957   6.117   5.934   1.626  0.5206  0.5230  0.1667
 1317TIP3    H2 3958   6.044   5.859   1.516 -0.3799  0.8375  0.5331
 1318TIP3   OH2 3959   0.119   4.975   0.060 -0.0587 -0.3118 -0.2374
 1318TIP3    H1 3960   0.054   5.038   0.092  0.0819 -1.2330  2.0290
 1318TIP3    H2 3961   0.068   4.898   0.036 -0.0005 -0.2838 -0.4456
 1319TIP3   OH2 3962   0.422   5.044   1.341  0.2753 -0.3594  0.1726
 1319TIP3    H1 3963   0.424   5.124   1.394 -5.3731 -0.8591  1.7584
 1319TIP3    H2 3964   0.331   5.036   1.312  1.3863 -4.2421 -3.3242
 1320TIP3   OH2 3965   5.712   1.549   4.234 -0.1527  0.1893  0.3303
 1320TIP3    H1 3966   5.644   1.496   4.192  0.9712 -1.1884  0.1655
 1320TIP3    H2 3967   5.793   1.523   4.191  0.5919  1.2255  1.0523
 1321TIP3   OH2 3968   6.235   0.810   2.108 -0.0446  0.2601 -0.3401
 1321TIP3    H1 3969   6.146   0.843   2.119  0.1621  1.1649 -1.2124
 1321TIP3    H2 3970   6.253   0.821   2.014  1.7718  2.2253  0.1482
 1322TIP3   OH2 3971   6.264   2.786   3.999 -0.2434  0.1968 -0.3101
 1322TIP3    H1 3972   6.201   2.723   4.034  0.0983  1.0891  2.1178
 1322TIP3    H2 3973   6.210   2.860   3.970 -0.5032 -0.3959 -1.3998
 1323TIP3   OH2 3974   4.166   4.634   0.371 -0.0576  0.0049 -0.5759
 1323TIP3    H1 3975   4.165   4.700   0.302 -1.5736 -0.3917 -0.9594
 1323TIP3    H2 3976   4.080   4.594   0.368 -0.4396  0.4310  1.9995
 1324TIP3   OH2 3977   2.503   4.204   1.919 -0.4132 -0.4367 -0.0775
 1324TIP3    H1 3978   2.410   4.223   1.905 -1.2605 -2.1060  2.5569
 1324TIP3    H2 3979   2.524   4.138   1.853 -0.7600  0.6919 -1.3633
 1325TIP3   OH2 3980   4.481   5.381   2.096 -0.4972  0.3056 -0.6690
 1325TIP3    H1 3981   4.403   5.326   2.103 -0.6390  0.6106  0.5258
 1325TIP3    H2 3982   4.452   5.458   2.048 -0.1062 -0.9360 -3.0399
 1326TIP3   OH2 3983   5.078   5.192   1.809 -0.0066  0.2481  0.1885
 1326TIP3    H1 3984   5.052   5.132   1.739  0.5028 -0.4343  0.5658
 1326TIP3    H2 3985   5.173   5.185   1.813  0.3124  2.6909 -1.1625
 1327TIP3   OH2 3986   5.239   4.744   0.086  0.1314  0.1876  0.1259
 1327TIP3    H1 3987   5.186   4.824   0.088 -1.3163 -0.7499  0.5881
 1327TIP3    H2 3988   5.193   4.684   0.145  1.4168 -0.8594  0.0904
 1328TIP3   OH2 3989   5.629   5.262   4.050  0.1051 -0.2811  0.2656
 1328TIP3    H1 3990   5.721   5.271   4.026 -0.5686 -0.0043 -2.5784
 1328TIP3    H2 3991   5.607   5.172   4.025 -0.5542 -0.1319  0.2955
 1329TIP3   OH2 3992   5.739   3.684   2.291  0.5488 -0.4890  0.0171
 1329TIP3    H1 3993   5.732   3.734   2.210 -0.8412  0.3013  0.5973
 1329TIP3    H2 3994   5.685   3.731   2.354 -1.0967 -2.8359  0.5162
 1330TIP3   OH2 3995   3.213   2.984   1.203  0.0769  0.2685  0.8350
 1330TIP3    H1 3996   3.229   2.890   1.202 -3.5205 -0.5131  2.3260
 1330TIP3    H2 3997   3.214   3.010   1.111  1.7596 -1.0279  0.4460
 1331TIP3   OH2 3998   6.199   3.021   1.764 -0.2444  0.2875 -0.2623
 1331TIP3    H1 3999   6.196   2.926   1.748  0.6141 -0.1804  1.9977
 1331TIP3    H2 4000   6.291   3.045   1.751  0.0580  0.2771  1.5395
 1332TIP3   OH2 4001   4.511   1.787   1.762 -0.6935  0.2581 -0.1785
 1332TIP3    H1 4002   4.575   1.724   1.794 -0.8202 -0.3128 -1.0279
 1332TIP3    H2 4003   4.453   1.804   1.836  0.1643  0.4296  0.4564
 1333TIP3   OH2 4004   1.290   1.714   4.267  0.1201  0.0914  0.6022
 1333TIP3    H1 4005   1.272   1.620   4.279  0.0713  0.0005 -0.1330
 1333TIP3    H2 4006   1.321   1.721   4.177 -1.2046  0.9712  0.1791
 1334TIP3   OH2 4007   0.310   4.769   1.398 -0.4487 -0.2009 -0.0833
 1334TIP3    H1 4008   0.369   4.845   1.397 -0.9683  0.2887  1.7139
 1334TIP3    H2 4009   0.235   4.797   1.345  0.2391 -0.2484 -1.1094
 1335TIP3   OH2 4010   5.840   0.378   1.991  0.3826  0.2855  0.0151
 1335TIP3    H1 4011   5.826   0.464   1.952  0.6606  0.3649  0.0834
 1335TIP3    H2 4012   5.901   0.394   2.064  1.1452 -0.0946 -0.5191
 1336TIP3   OH2 4013   5.945   0.978   4.857 -0.1954  0.1623  0.5468
 1336TIP3    H1 4014   5.925   0.969   4.950 -0.1305 -0.2471  0.5201
 1336TIP3    H2 4015   6.025   1.031   4.855 -0.1720  0.1346  0.7270
 1337TIP3   OH2 4016   3.699   0.233   4.473 -0.4278 -0.5672 -0.3940
 1337TIP3    H1 4017   3.663   0.151   4.439  0.4770 -1.3108  0.3988
 1337TIP3    H2 4018   3.750   0.269   4.401 -0.6030 -0.8336 -0.6535
 1338TIP3   OH2 4019   0.699   5.987   4.916 -0.8533 -0.0677  0.2617
 1338TIP3    H1 4020   0.681   5.895   4.932 -0.1813 -0.0376  1.3164
 1338TIP3    H2 4021   0.704   5.995   4.821  0.7755 -1.4832  0.1795
 1339TIP3   OH2 4022   0.336   3.271   4.437  0.6117 -0.1600 -0.4518
 1339TIP3    H1 4023   0.423   3.273   4.397  0.2278 -1.1396 -1.3902
 1339TIP3    H2 4024   0.276   3.290   4.364 -0.0492 -0.9796 -0.1348
 1340TIP3   OH2 4025   1.666   3.846   5.131 -0.1047 -0.2961 -0.3229
 1340TIP3    H1 4026   1.705   3.814   5.050 -0.4203 -2.0629  0.1902
 1340TIP3    H2 4027   1.738   3.847   5.194 -0.0767  0.1002 -0.3596
 1341TIP3   OH2 4028   6.336   1.221   2.596 -0.1186  0.0608 -0.2036
 1341TIP3    H1 4029   6.309   1.133   2.621 -0.0969  0.1366  0.0804
 1341TIP3    H2 4030   6.371   1.260   2.676  0.2257  0.1935 -0.4170
 1342TIP3   OH2 4031   4.235   0.562   5.057  0.7761  0.3829  0.5772
 1342TIP3    H1 4032   4.151   0.516   5.059  0.6997  0.4514 -0.5572
 1342TIP3    H2 4033   4.218   0.645   5.102 -0.2383  1.1430 -1.1178
 1343TIP3   OH2 4034   5.317   1.428   0.105  0.1449  0.1076  0.0385
 1343TIP3    H1 4035   5.330   1.342   0.065 -0.9955 -1.7986  3.4336
 1343TIP3    H2 4036   5.288   1.409   0.194 -1.0802  4.0402  0.6496
 1344TIP3   OH2 4037   4.376   4.481   4.591 -0.1987  0.0794  0.0457
 1344TIP3    H1 4038   4.333   4.399   4.566  1.5377 -0.8545 -0.0616
 1344TIP3    H2 4039   4.304   4.541   4.609 -1.5692 -0.5270 -2.8404
 1345TIP3   OH2 4040   2.904   2.708   2.061 -0.4068 -0.0619 -0.4699
 1345TIP3    H1 4041   2.843   2.711   1.987 -3.2992 -0.6565  1.6928
 1345TIP3    H2 4042   2.871   2.636   2.115  2.3218 -0.4358  0.8436
 1346TIP3   OH2 4043   2.904   0.849   0.920 -0.6193 -0.1902 -0.2848
 1346TIP3    H1 4044   2.868   0.926   0.964  0.2197  0.0766 -0.0460
 1346TIP3    H2 4045   2.951   0.802   0.989 -0.7928 -0.7133 -0.5166
 1347TIP3   OH2 4046   5.451   3.303   4.741 -0.2845 -0.0807 -0.6475
 1347TIP3    H1 4047   5.406   3.260   4.669  0.8391 -2.4751 -0.0403
 1347TIP3    H2 4048   5.486   3.231   4.793  0.8734  1.6086  1.0417
 1348TIP3   OH2 4049   4.312   0.431   1.968 -0.5720  0.0962  0.4900
 1348TIP3    H1 4050   4.232   0.462   1.927 -0.6678  1.2874  1.5095
 1348TIP3    H2 4051   4.283   0.381   2.044 -0.3696  0.2998  0.7062
 1349TIP3   OH2 4052   0.601   5.215   2.624  0.4421 -0.0429 -0.5757
 1349TIP3    H1 4053   0.523   5.270   2.631  0.9169  0.4860  1.1656
 1349TIP3    H2 4054   0.655   5.258   2.557 -0.1334  0.3797 -0.7719
 1350TIP3   OH2 4055   1.774   0.292   2.536 -0.5735  0.6659 -0.2093
 1350TIP3    H1 4056   1.799   0.304   2.627 -0.7334 -0.0446 -0.0617
 1350TIP3    H2 4057   1.779   0.379   2.497  1.7636  0.6397 -0.1177
 1351TIP3   OH2 4058   1.544   3.791   1.038 -0.3087  0.1778 -0.0954
 1351TIP3    H1 4059   1.514   3.712   1.083  0.5655  0.6396  1.3619
 1351TIP3    H2 4060   1.589   3.758   0.960 -0.4862 -0.7269  0.1701
 1352TIP3   OH2 4061   1.479   2.840   4.709 -0.0389  0.2936  0.8030
 1352TIP3    H1 4062   1.410   2.783   4.675 -0.3606  2.0842 -1.8290
 1352TIP3    H2 4063   1.436   2.894   4.774 -0.6539  0.0668  0.5918
 1353TIP3   OH2 4064   1.027   2.100   4.144 -0.7478 -0.1338  0.4127
 1353TIP3    H1 4065   0.998   2.083   4.055 -0.8753 -1.2737  0.6501
 1353TIP3    H2 4066   1.047   2.013   4.180  0.3693  0.3956  1.1319
 1354TIP3   OH2 4067   5.678   0.334   4.047  0.3619  0.2933  0.1622
 1354TIP3    H1 4068   5.720   0.263   4.094 -0.5157 -0.3772 -0.0479
 1354TIP3    H2 4069   5.638   0.388   4.115 -0.5408 -0.4387  0.2275
 1355TIP3   OH2 4070   4.128   0.339   4.568 -0.1955 -0.1502  0.2921
 1355TIP3    H1 4071   4.118   0.425   4.527  0.0002 -0.2173  0.1043
 1355TIP3    H2 4072   4.181   0.356   4.646  1.0282 -0.3111 -0.4822
 1356TIP3   OH2 4073   1.315   3.127   4.179 -0.2403  0.3146  0.0476
 1356TIP3    H1 4074   1.290   3.157   4.266 -0.0731  0.2721  0.1117
 1356TIP3    H2 4075   1.393   3.178   4.158 -0.4490  0.5316 -0.1981
 1357TIP3   OH2 4076   0.571   4.856   2.845 -0.4222 -0.2427  0.1385
 1357TIP3    H1 4077   0.537   4.771   2.873  0.9885 -1.5993 -2.0161
 1357TIP3    H2 4078   0.494   4.901   2.809 -1.3520 -0.2049  2.0136
 1358TIP3   OH2 4079   6.223   5.198   4.064  0.2381  0.1876 -0.2288
 1358TIP3    H1 4080   6.282   5.186   3.989  0.8088 -0.1227  0.2555
 1358TIP3    H2 4081   6.208   5.292   4.068 -0.4311  0.1311 -1.2002
 1359TIP3   OH2 4082   5.729   2.401   2.648  0.1731  0.7656  0.0360
 1359TIP3    H1 4083   5.770   2.487   2.638  1.9303 -0.1204 -0.9470
 1359TIP3    H2 4084   5.635   2.419   2.649  0.4867  2.6677 -0.4338
 1360TIP3   OH2 4085   1.378   2.332   4.445  0.3604  0.0455  1.2494
 1360TIP3    H1 4086   1.473   2.332   4.454  0.5066  0.4268 -0.1224
 1360TIP3    H2 4087   1.352   2.242   4.461  0.9331 -0.0410  1.7277
 1361TIP3   OH2 4088   4.927   0.103   0.968 -0.1327  0.2414 -0.4519
 1361TIP3    H1 4089   4.975   0.172   0.923  0.8218  0.2690  0.5610
 1361TIP3    H2 4090   4.960   0.022   0.930  0.3795  0.2793 -0.1038
 1362TIP3   OH2 4091   0.385   2.741   2.500  0.0574  0.0619  0.0158
 1362TIP3    H1 4092   0.354   2.762   2.411  0.4073 -2.1252 -0.7027
 1362TIP3    H2 4093   0.363   2.818   2.552 -1.0870  1.0137 -1.7542
 1363TIP3   OH2 4094   3.162   5.708   3.081  0.1195  0.3044 -0.1550
 1363TIP3    H1 4095   3.166   5.792   3.037 -0.5356  0.5834  0.3137
 1363TIP3    H2 4096   3.116   5.725   3.162  1.0680 -0.2558  0.5303
 1364TIP3   OH2 4097   4.906   0.913   4.965 -0.1607  0.1923 -0.1306
 1364TIP3    H1 4098   4.878   0.827   4.934 -0.3416 -0.0198  0.5953
 1364TIP3    H2 4099   4.830   0.970   4.952 -0.2190  0.1176 -0.1136
 1365TIP3   OH2 4100   1.162   0.119   4.430 -0.4825 -0.0408  0.4220
 1365TIP3    H1 4101   1.242   0.126   4.482 -0.4630 -0.9260  0.5254
 1365TIP3    H2 4102   1.091   0.128   4.494 -0.5268  2.4445  0.1234
 1366TIP3   OH2 4103   4.630   3.728   4.583 -0.1010 -0.7463  0.1173
 1366TIP3    H1 4104   4.651   3.796   4.648  0.4441  0.2357 -1.0552
 1366TIP3    H2 4105   4.654   3.646   4.626 -0.1974 -0.1652  1.3343
 1367TIP3   OH2 4106   2.818   0.082   1.895 -0.0905 -0.3388  0.0647
 1367TIP3    H1 4107   2.800  -0.011   1.883  1.1099 -0.5703 -0.0337
 1367TIP3    H2 4108   2.869   0.086   1.976 -0.4618  0.2731  0.2725
 1368TIP3   OH2 4109   1.044   4.212   1.752 -0.3082  0.6332  0.0693
 1368TIP3    H1 4110   0.961   4.169   1.735  0.1392 -0.3374  0.2887
 1368TIP3    H2 4111   1.074   4.175   1.835  0.9488 -0.0062 -0.6349
 1369TIP3   OH2 4112   4.827   3.196   1.915  0.0708 -0.3626 -0.0658
 1369TIP3    H1 4113   4.799   3.283   1.944  2.2281  0.3756 -0.0597
 1369TIP3    H2 4114   4.859   3.210   1.825 -0.2887 -1.3152 -0.3564
 1370TIP3   OH2 4115   1.664   1.123   1.587 -0.0507  0.1213  0.0122
 1370TIP3    H1 4116   1.578   1.099   1.622  0.4540  0.3355  1.4972
 1370TIP3    H2 4117   1.673   1.216   1.611  0.2734  0.3185 -0.8432
 1371TIP3   OH2 4118   3.102   4.369   3.957  0.0035  0.2009  0.3872
 1371TIP3    H1 4119   3.046   4.394   3.883  0.2698 -0.9417 -0.2236
 1371TIP3    H2 4120   3.090   4.439   4.021 -2.1429 -0.0262  0.3021
 1372TIP3   OH2 4121   6.159   0.422   1.803  0.0429  0.0127 -0.8422
 1372TIP3    H1 4122   6.100   0.393   1.873  1.4604 -1.1900 -0.0888
 1372TIP3    H2 4123   6.137   0.365   1.729 -3.2674  2.9455 -2.4277
 1373TIP3   OH2 4124   0.372   4.696   3.389  0.0598 -0.4743 -0.1129
 1373TIP3    H1 4125   0.363   4.788   3.412  0.2000 -0.2263 -1.0203
 1373TIP3    H2 4126   0.336   4.649   3.465 -0.8423  0.3292 -0.0191
 1374TIP3   OH2 4127   3.567   1.737   0.839 -0.1533  0.7518 -0.4380
 1374TIP3    H1 4128   3.515   1.699   0.909  0.7011  1.8830  0.8537
 1374TIP3    H2 4129   3.504   1.787   0.786 -1.1352 -1.6251 -1.6573
 1375TIP3   OH2 4130   3.109   2.647   4.257  0.1196  0.2032  0.2382
 1375TIP3    H1 4131   3.097   2.555   4.283 -1.6591  0.5409  0.7385
 1375TIP3    H2 4132   3.179   2.644   4.192  0.9050 -1.3570  1.0830
 1376TIP3   OH2 4133   3.297   5.602   2.282  0.0035  0.3457  0.0553
 1376TIP3    H1 4134   3.392   5.610   2.275  0.3916 -0.3872  2.9360
 1376TIP3    H2 4135   3.277   5.638   2.369 -2.0003 -1.8341  0.5799
 1377TIP3   OH2 4136   0.368   3.237   2.033  0.4005  0.7629 -0.3221
 1377TIP3    H1 4137   0.419   3.179   1.976 -1.4112 -1.5801  0.2891
 1377TIP3    H2 4138   0.414   3.235   2.117 -0.4964 -1.2157  0.1805
 1378TIP3   OH2 4139   4.403   4.672   1.132  0.8686  0.3450  0.1059
 1378TIP3    H1 4140   4.460   4.634   1.199  0.6688  0.5113  0.3711
 1378TIP3    H2 4141   4.438   4.760   1.118  2.2499 -0.4154 -1.5763
 1379TIP3   OH2 4142   0.216   5.405   3.017  0.5878 -0.8468  0.2558
 1379TIP3    H1 4143   0.168   5.325   2.993  1.3000 -1.3573  0.4891
 1379TIP3    H2 4144   0.258   5.433   2.936 -0.2151 -0.3086  0.0137
 1380TIP3   OH2 4145   2.380   4.672   2.280  0.2219 -0.2951 -0.1798
 1380TIP3    H1 4146   2.294   4.711   2.295  0.4340  1.0730 -2.0828
 1380TIP3    H2 4147   2.362   4.581   2.256 -0.5746 -0.3884  0.7345
 1381TIP3   OH2 4148   4.632   4.708   0.913 -0.1426  0.1314  0.2306
 1381TIP3    H1 4149   4.647   4.750   0.997  0.2633  1.0246 -0.2773
 1381TIP3    H2 4150   4.556   4.754   0.876 -1.4218 -1.3892  0.8256
 1382TIP3   OH2 4151   0.918   2.061   4.484  0.5202  0.3192  0.2066
 1382TIP3    H1 4152   0.981   2.126   4.454 -0.8486  1.4520 -0.3603
 1382TIP3    H2 4153   0.841   2.113   4.510 -0.6523 -1.0660 -0.3664
 1383TIP3   OH2 4154   2.090   0.210   1.515  0.1802 -0.1958 -0.3267
 1383TIP3    H1 4155   2.081   0.303   1.496 -2.0005  0.1382  1.8787
 1383TIP3    H2 4156   2.183   0.199   1.536  0.1416  1.9112  1.2178
 1384TIP3   OH2 4157   5.895   2.505   1.412 -0.1089  0.0239 -0.0810
 1384TIP3    H1 4158   5.861   2.478   1.497 -0.8935 -0.7788 -0.6398
 1384TIP3    H2 4159   5.889   2.427   1.358  1.5600  0.1795 -0.5351
 1385TIP3   OH2 4160   0.569   5.545   4.047 -0.0166 -0.7514  0.4779
 1385TIP3    H1 4161   0.485   5.585   4.023  0.1715 -0.3140  0.5252
 1385TIP3    H2 4162   0.564   5.456   4.014 -0.1510 -0.4634 -0.3120
 1386TIP3   OH2 4163   2.975   5.063   1.754 -0.2590 -0.2672  0.4273
 1386TIP3    H1 4164   3.061   5.105   1.749  0.1850 -1.1328  0.6107
 1386TIP3    H2 4165   2.994   4.975   1.786 -0.9901 -1.1795 -1.5167
 1387TIP3   OH2 4166   0.762   0.900   0.121 -0.0916  0.5513 -0.3266
 1387TIP3    H1 4167   0.793   0.810   0.122 -0.1481  0.5355  0.1495
 1387TIP3    H2 4168   0.687   0.899   0.062 -0.7704  0.0516  0.5203
 1388TIP3   OH2 4169   4.842   4.390   3.277  0.2241  0.3820  0.0658
 1388TIP3    H1 4170   4.799   4.365   3.195  0.3399  1.2209 -0.2627
 1388TIP3    H2 4171   4.888   4.470   3.255  5.0715 -2.2195 -0.6974
 1389TIP3   OH2 4172   4.396   1.764   3.457 -0.6089 -0.7859  0.2418
 1389TIP3    H1 4173   4.360   1.827   3.395  0.5601 -1.8905 -1.6455
 1389TIP3    H2 4174   4.470   1.809   3.498 -1.6310  0.0885  1.2001
 1390TIP3   OH2 4175   1.556   3.738   4.804  0.4288 -0.8977  0.4349
 1390TIP3    H1 4176   1.641   3.706   4.834  0.1581 -1.4359  0.6412
 1390TIP3    H2 4177   1.499   3.729   4.880  0.6186  1.2245  0.8847
 1391TIP3   OH2 4178   5.853   3.419   0.037  0.4345 -0.7130 -0.2065
 1391TIP3    H1 4179   5.816   3.370  -0.036 -0.8378 -2.0771  1.2673
 1391TIP3    H2 4180   5.911   3.357   0.081  1.7793  0.3206 -0.4411
 1392TIP3   OH2 4181   5.751   5.918   1.076  0.0985  0.1201 -0.5021
 1392TIP3    H1 4182   5.838   5.886   1.052  0.9307 -0.3113  2.6760
 1392TIP3    H2 4183   5.762   6.013   1.082  0.5950  0.0101  0.5948
 1393TIP3   OH2 4184   5.206   1.797   1.222  0.3190 -0.8197  0.1247
 1393TIP3    H1 4185   5.241   1.786   1.310  1.6537 -0.8855 -0.3757
 1393TIP3    H2 4186   5.176   1.888   1.218  0.4304 -0.7643  0.5869
 1394TIP3   OH2 4187   5.138   2.916   4.161 -0.5875 -0.3171  0.2557
 1394TIP3    H1 4188   5.045   2.942   4.161 -0.3483  0.7916 -2.0558
 1394TIP3    H2 4189   5.170   2.943   4.247 -2.3657 -0.5980  1.0598
 1395TIP3   OH2 4190   5.430   0.185   0.831  0.0104 -0.1795 -0.3846
 1395TIP3    H1 4191   5.411   0.277   0.810 -0.6605 -0.7334 -2.3615
 1395TIP3    H2 4192   5.476   0.152   0.754 -0.4501 -1.7173 -0.0259
 1396TIP3   OH2 4193   1.898   0.416   1.547 -0.7354 -0.3259  0.4222
 1396TIP3    H1 4194   1.894   0.512   1.542 -1.3239 -0.3747 -0.3245
 1396TIP3    H2 4195   1.934   0.398   1.634 -1.5783  0.5589  0.9794
 1397TIP3   OH2 4196   2.454   3.447   2.483  0.4019  0.4709  0.2794
 1397TIP3    H1 4197   2.411   3.503   2.419  0.1613  0.6394  0.5849
 1397TIP3    H2 4198   2.546   3.446   2.457  0.0229 -0.9724 -1.1879
 1398TIP3   OH2 4199   4.858   3.633   1.788 -0.3972  0.7189 -0.3507
 1398TIP3    H1 4200   4.814   3.717   1.776  0.2210  1.0392 -0.4483
 1398TIP3    H2 4201   4.876   3.629   1.882 -1.5150  0.1241 -0.1419
 1399TIP3   OH2 4202   1.356   5.447   3.374  0.3655 -0.2942 -0.0112
 1399TIP3    H1 4203   1.358   5.352   3.378  0.6395 -0.3566 -1.4567
 1399TIP3    H2 4204   1.288   5.471   3.438 -2.4864 -1.6681 -2.2990
 1400TIP3   OH2 4205   1.133   0.441   0.025  0.0487  0.2075  0.0098
 1400TIP3    H1 4206   1.185   0.508   0.070 -1.0124  1.4253 -0.5193
 1400TIP3    H2 4207   1.072   0.409   0.092 -0.0752  0.4448  0.0091
 1401TIP3   OH2 4208   3.330   5.190   2.057 -0.3771  0.3885  0.5347
 1401TIP3    H1 4209   3.379   5.119   2.098  1.4506  2.0047  1.2976
 1401TIP3    H2 4210   3.293   5.152   1.978  1.9955 -0.9719  0.0104
 1402TIP3   OH2 4211   5.720   5.783   2.868  0.3175 -0.3567  0.2637
 1402TIP3    H1 4212   5.811   5.758   2.887  0.1234 -0.8153  0.6123
 1402TIP3    H2 4213   5.667   5.720   2.917 -0.1933 -0.3476 -0.2614
 1403TIP3   OH2 4214   2.125   5.723   4.346  0.2051  0.1868  0.1412
 1403TIP3    H1 4215   2.143   5.697   4.437 -0.3816  0.8567  0.4572
 1403TIP3    H2 4216   2.210   5.713   4.301  0.3613 -0.7453  0.6042
 1404TIP3   OH2 4217   5.618   1.555   3.167  0.3374 -0.4998  0.2493
 1404TIP3    H1 4218   5.669   1.478   3.194  2.3300  0.6435 -0.0541
 1404TIP3    H2 4219   5.610   1.546   3.072 -0.7617 -1.0650  0.3754
 1405TIP3   OH2 4220   2.845   5.326   2.344 -0.5264 -0.2564 -0.2138
 1405TIP3    H1 4221   2.888   5.261   2.289 -0.7628  0.6669 -1.5281
 1405TIP3    H2 4222   2.752   5.306   2.335 -0.4996 -1.6477  1.8625
 1406TIP3   OH2 4223   6.279   5.377   3.703 -0.4147 -0.2167 -0.0230
 1406TIP3    H1 4224   6.259   5.312   3.636 -1.0069 -2.0657  1.8431
 1406TIP3    H2 4225   6.344   5.335   3.759  0.1582  1.3205  0.5116
 1407TIP3   OH2 4226   1.737   2.801   3.241 -0.3547  0.3433  0.3581
 1407TIP3    H1 4227   1.752   2.756   3.325 -1.1812  0.8894  0.8103
 1407TIP3    H2 4228   1.644   2.787   3.223 -0.0383 -0.3472 -0.8250
 1408TIP3   OH2 4229   0.932   2.642   1.473  0.5313 -0.2342  0.1894
 1408TIP3    H1 4230   0.919   2.646   1.568  0.9872 -1.2948  0.3135
 1408TIP3    H2 4231   0.979   2.722   1.452 -0.8211  0.7204  0.6288
 1409TIP3   OH2 4232   4.272   0.004   4.603  0.2769  0.5613 -0.3571
 1409TIP3    H1 4233   4.183   0.007   4.570 -0.1423 -0.9700  0.5115
 1409TIP3    H2 4234   4.266   0.039   4.692  0.6579  0.9617 -0.4833
 1410TIP3   OH2 4235   4.299   4.944   4.397  0.8112 -0.0950 -0.2645
 1410TIP3    H1 4236   4.232   4.972   4.459  2.1299  2.0376  0.2903
 1410TIP3    H2 4237   4.264   4.862   4.359 -0.8961 -0.4176  1.8274
 1411TIP3   OH2 4238   0.418   2.279   2.317  0.5635  0.0338 -0.1258
 1411TIP3    H1 4239   0.367   2.266   2.238  0.9713  0.5692 -0.4890
 1411TIP3    H2 4240   0.354   2.278   2.388  0.3758 -2.0894 -0.2744
 1412TIP3   OH2 4241   5.749   5.632   4.547  0.1443 -0.1364 -0.3100
 1412TIP3    H1 4242   5.743   5.560   4.485 -0.7361 -0.7674  0.4914
 1412TIP3    H2 4243   5.821   5.608   4.605  0.7524  0.2980 -0.8699
 1413TIP3   OH2 4244   4.313   3.928   4.041  0.0101 -0.3233  0.3695
 1413TIP3    H1 4245   4.340   3.837   4.051  0.2016 -0.1485  1.7515
 1413TIP3    H2 4246   4.394   3.978   4.050 -0.0574 -0.0236 -0.6339
 1414TIP3   OH2 4247   3.897   5.988   3.069 -0.6230 -0.0631 -0.2092
 1414TIP3    H1 4248   3.920   5.980   2.977 -1.3722 -1.1745 -0.3170
 1414TIP3    H2 4249   3.924   5.905   3.108 -1.0773  0.0667  0.3975
 1415TIP3   OH2 4250   5.844   0.415   1.598 -0.0056 -0.7283 -0.3454
 1415TIP3    H1 4251   5.772   0.388   1.655 -0.7455 -1.7377 -1.6877
 1415TIP3    H2 4252   5.801   0.435   1.514  1.0627  0.5568 -0.6254
 1416TIP3   OH2 4253   4.851   1.855   0.270  0.0520 -0.2473  0.2344
 1416TIP3    H1 4254   4.926   1.796   0.264 -0.3678 -0.7080 -0.7491
 1416TIP3    H2 4255   4.836   1.884   0.180 -2.1377 -1.6994  0.0399
 1417TIP3   OH2 4256   3.415   4.207   1.245  0.4090  0.7080  0.0854
 1417TIP3    H1 4257   3.339   4.188   1.189  0.1545 -2.1800  1.2152
 1417TIP3    H2 4258   3.487   4.221   1.183 -0.1428 -1.0811 -1.0404
 1418TIP3   OH2 4259   1.289   2.410   0.525  0.0929 -0.0234 -0.3410
 1418TIP3    H1 4260   1.298   2.505   0.526  1.9616 -0.1594 -0.3263
 1418TIP3    H2 4261   1.199   2.394   0.551 -0.0994  1.7240  0.2032
 1419TIP3   OH2 4262   0.436   1.076   1.491  0.3652 -0.5387  0.2918
 1419TIP3    H1 4263   0.478   0.990   1.485 -0.6881 -1.0501  0.0779
 1419TIP3    H2 4264   0.359   1.069   1.436  1.9744  1.6152 -2.4906
 1420TIP3   OH2 4265   3.271   4.391   0.644 -0.2279  0.2331 -0.4320
 1420TIP3    H1 4266   3.344   4.452   0.659  0.9776 -0.8493 -1.5871
 1420TIP3    H2 4267   3.205   4.444   0.600  1.3283  0.4827 -2.6366
 1421TIP3   OH2 4268   6.327   0.613   4.243  0.0099  0.4182 -0.0363
 1421TIP3    H1 4269   6.264   0.595   4.173 -2.0296  0.9646  1.5671
 1421TIP3    H2 4270   6.347   0.527   4.281  0.4777  0.2176 -0.7080
 1422TIP3   OH2 4271   5.755   4.667   1.135 -0.6600 -0.1958 -0.3241
 1422TIP3    H1 4272   5.829   4.623   1.177 -0.2379  1.0523  0.3258
 1422TIP3    H2 4273   5.747   4.626   1.049  0.4567 -0.7001 -0.2022
 1423TIP3   OH2 4274   5.706   4.178   1.551 -0.3150  0.2650 -0.6322
 1423TIP3    H1 4275   5.766   4.104   1.547  0.5761  0.9112  0.3503
 1423TIP3    H2 4276   5.633   4.152   1.494  0.6432 -0.7395 -1.4575
 1424TIP3   OH2 4277   0.786   0.124   4.884 -0.4583  0.3154  0.0915
 1424TIP3    H1 4278   0.824   0.074   4.957 -1.8084 -0.0550  0.5632
 1424TIP3    H2 4279   0.733   0.192   4.926  1.0682  2.0045 -0.5413
 1425TIP3   OH2 4280   1.035   2.418   0.964  0.1774 -0.0358  0.5721
 1425TIP3    H1 4281   1.118   2.387   0.928  0.0069 -0.8535  0.8675
 1425TIP3    H2 4282   0.975   2.418   0.889  0.4974  0.8163  0.2984
 1426TIP3   OH2 4283   0.641   1.401   2.262 -0.0510 -0.1279 -0.3922
 1426TIP3    H1 4284   0.565   1.434   2.309 -0.0292  0.0287 -0.4662
 1426TIP3    H2 4285   0.641   1.449   2.179  0.3963  0.2174 -0.1999
 1427TIP3   OH2 4286   0.334   4.558   0.122 -0.1428  0.0957 -0.3997
 1427TIP3    H1 4287   0.365   4.648   0.133  0.9724 -0.3894  0.7233
 1427TIP3    H2 4288   0.244   4.559   0.155 -0.0550  0.7402 -0.1665
 1428TIP3   OH2 4289   4.229   5.552   2.940  0.1118 -0.3269 -0.2970
 1428TIP3    H1 4290   4.299   5.489   2.930 -0.3246 -1.0817  1.0846
 1428TIP3    H2 4291   4.273   5.634   2.962  0.5832 -0.8517  0.8156
 1429TIP3   OH2 4292   2.983   5.483   0.627 -0.4813 -0.6722  0.3499
 1429TIP3    H1 4293   2.991   5.519   0.716  1.1533  0.6661 -0.2947
 1429TIP3    H2 4294   2.889   5.486   0.609 -0.6118  1.4592  1.1055
 1430TIP3   OH2 4295   6.201   1.076   3.326 -0.7457  0.2430 -0.1452
 1430TIP3    H1 4296   6.155   1.053   3.245 -3.2357 -0.3066  1.2880
 1430TIP3    H2 4297   6.211   1.171   3.321  0.0536  0.1081 -1.5182
 1431TIP3   OH2 4298   3.190   1.677   0.856 -0.0665  0.2393  0.5622
 1431TIP3    H1 4299   3.189   1.734   0.932  0.0716  0.4680  0.3950
 1431TIP3    H2 4300   3.107   1.693   0.812  0.5723  1.4155 -0.2852
 1432TIP3   OH2 4301   2.203   2.675   1.862  0.4320 -0.0756  0.0133
 1432TIP3    H1 4302   2.154   2.593   1.871  0.2589  0.1078  0.8429
 1432TIP3    H2 4303   2.140   2.743   1.886  0.3864  0.3642 -1.2951
 1433TIP3   OH2 4304   1.183   1.975   1.683  0.0802  0.3875 -0.0272
 1433TIP3    H1 4305   1.207   1.902   1.627 -0.4478 -0.0738  0.3323
 1433TIP3    H2 4306   1.087   1.974   1.683  0.0747  0.3164  0.9617
 1434TIP3   OH2 4307   0.308   1.437   4.921 -0.3144 -0.2382 -0.3269
 1434TIP3    H1 4308   0.268   1.490   4.852 -1.7128 -1.1960 -0.3080
 1434TIP3    H2 4309   0.364   1.375   4.874  0.6824  0.6970 -0.4033
 1435TIP3   OH2 4310   0.064   5.339   2.745  0.6659 -0.0309  0.4155
 1435TIP3    H1 4311   0.139   5.399   2.747  0.1640  0.6019  1.9264
 1435TIP3    H2 4312  -0.013   5.396   2.744  0.1351 -0.6614 -2.3503
 1436TIP3   OH2 4313   0.070   0.918   1.505  0.2427  0.0421  0.0163
 1436TIP3    H1 4314   0.099   0.972   1.432 -0.0959  2.4590  1.5596
 1436TIP3    H2 4315  -0.023   0.903   1.489 -0.0874  1.4721  0.4153
 1437TIP3   OH2 4316   0.317   4.582   1.077  0.5693  0.2851  0.1489
 1437TIP3    H1 4317   0.279   4.666   1.104  0.6199 -0.2918  2.2141
 1437TIP3    H2 4318   0.351   4.597   0.989 -1.1640  1.8600 -0.2923
 1438TIP3   OH2 4319   4.915   2.563   1.140  0.1125 -0.2002 -0.5755
 1438TIP3    H1 4320   4.872   2.480   1.160  0.4548  0.0110  1.1857
 1438TIP3    H2 4321   5.008   2.544   1.147  0.2663 -0.1049 -2.0924
 1439TIP3   OH2 4322   5.310   1.145   0.056 -0.2034 -0.0183  0.1726
 1439TIP3    H1 4323   5.332   1.090   0.131  1.3872 -0.3919 -0.5170
 1439TIP3    H2 4324   5.263   1.087  -0.004 -0.2674 -0.0919  0.2958
 1440TIP3   OH2 4325   5.542   1.927   2.291  0.0939  0.3940  0.2142
 1440TIP3    H1 4326   5.469   1.913   2.232 -1.2129  0.0412  1.8463
 1440TIP3    H2 4327   5.503   1.926   2.379  2.1273 -0.4670  1.1816
 1441TIP3   OH2 4328   5.553   0.976   3.134 -0.1117 -0.2545 -0.2023
 1441TIP3    H1 4329   5.639   0.968   3.175  1.1348  1.3170 -2.2976
 1441TIP3    H2 4330   5.496   1.012   3.203  1.2026 -0.1934  0.8863
 1442TIP3   OH2 4331   5.883   4.490   4.429 -0.7224  0.5673  0.7135
 1442TIP3    H1 4332   5.839   4.559   4.379 -0.6485  0.6808  0.8047
 1442TIP3    H2 4333   5.973   4.492   4.397 -0.4537  1.2421  1.4868
 1443TIP3   OH2 4334   4.432   3.814   1.209 -0.1139  0.6193  0.5169
 1443TIP3    H1 4335   4.368   3.834   1.277  0.4463  1.8202  0.7178
 1443TIP3    H2 4336   4.432   3.891   1.153  1.2924  0.7237  0.6279
 1444TIP3   OH2 4337   1.076   4.093   1.489 -0.3108  0.0175  0.0886
 1444TIP3    H1 4338   1.006   4.138   1.536 -0.2143  2.7010 -2.1038
 1444TIP3    H2 4339   1.137   4.066   1.558 -2.5778 -0.9088  1.8968
 1445TIP3   OH2 4340   3.884   2.298   3.893 -0.4737  0.1981 -0.0499
 1445TIP3    H1 4341   3.907   2.207   3.910  0.5481  0.4381 -0.1257
 1445TIP3    H2 4342   3.968   2.344   3.886 -0.9683  1.3301  0.9944
 1446TIP3   OH2 4343   3.498   4.422   1.605  0.0967 -0.3055  0.5232
 1446TIP3    H1 4344   3.503   4.430   1.700 -3.7236  2.3390  0.7415
 1446TIP3    H2 4345   3.567   4.479   1.572  0.5570 -0.1351  1.7418
 1447TIP3   OH2 4346   4.375   0.658   4.811  0.6009 -0.1465  0.4645
 1447TIP3    H1 4347   4.445   0.595   4.829  0.1015 -1.0211 -0.4742
 1447TIP3    H2 4348   4.315   0.649   4.884  0.9208 -0.2003  0.7216
 1448TIP3   OH2 4349   3.096   0.469   0.151  1.0261 -0.3002 -0.1986
 1448TIP3    H1 4350   3.117   0.404   0.218  0.9883  0.7859  0.8851
 1448TIP3    H2 4351   3.015   0.436   0.112 -0.6470  0.5312  2.3426
 1449TIP3   OH2 4352   0.843   3.487   3.896  0.2870  0.4308  1.0840
 1449TIP3    H1 4353   0.916   3.529   3.942 -0.0649  3.1000 -0.6124
 1449TIP3    H2 4354   0.800   3.558   3.849 -2.8307 -1.2169  1.1950
 1450TIP3   OH2 4355   0.773   2.283   0.079  0.2889 -0.0776 -0.1369
 1450TIP3    H1 4356   0.788   2.353   0.142 -1.1822  0.7605 -0.6721
 1450TIP3    H2 4357   0.775   2.327  -0.007  2.4736 -1.2253 -0.7573
 1451TIP3   OH2 4358   5.485   5.662   4.246  0.2004  0.0872 -0.2938
 1451TIP3    H1 4359   5.470   5.749   4.208 -0.7083 -0.1160 -0.4190
 1451TIP3    H2 4360   5.580   5.651   4.243  0.3781  1.2868  0.1807
 1452TIP3   OH2 4361   2.293   4.593   4.879 -0.0266  0.7615  0.2543
 1452TIP3    H1 4362   2.278   4.527   4.947  1.0304 -0.8450 -0.9719
 1452TIP3    H2 4363   2.205   4.614   4.846 -0.4424  0.5494  1.1985
 1453TIP3   OH2 4364   5.946   1.352   1.268  0.0814 -0.6164 -0.5011
 1453TIP3    H1 4365   5.851   1.343   1.268 -0.1264  1.1011 -0.1833
 1453TIP3    H2 4366   5.961   1.443   1.294  1.7325 -0.2872 -2.3583
 1454TIP3   OH2 4367   5.635   0.214   3.788  0.3211  0.0439 -0.0567
 1454TIP3    H1 4368   5.728   0.195   3.800 -0.0613 -1.3274  0.8655
 1454TIP3    H2 4369   5.614   0.277   3.857  0.1549 -1.0518  0.9043
 1455TIP3   OH2 4370   5.310   0.957   0.259 -0.3064 -0.2576 -0.4877
 1455TIP3    H1 4371   5.362   0.898   0.313 -2.8561 -1.8730  0.3669
 1455TIP3    H2 4372   5.243   0.991   0.319 -0.3461  1.7050 -1.5522
 1456TIP3   OH2 4373   2.359   2.078   3.543 -0.1561 -0.1478 -0.7220
 1456TIP3    H1 4374   2.415   2.138   3.493 -0.9751 -0.7409 -2.4179
 1456TIP3    H2 4375   2.414   2.048   3.615  1.7776 -0.7692 -2.3722
 1457TIP3   OH2 4376   0.608   5.523   1.275 -0.5317  0.4380  0.1432
 1457TIP3    H1 4377   0.569   5.543   1.360 -0.2194  0.6639  0.2361
 1457TIP3    H2 4378   0.693   5.567   1.277 -0.2251 -0.1471 -0.0139
 1458TIP3   OH2 4379   0.309   5.511   4.527  0.1446 -0.0124 -0.3254
 1458TIP3    H1 4380   0.399   5.491   4.555  0.4596 -0.2649 -1.4370
 1458TIP3    H2 4381   0.255   5.489   4.602  0.8873 -1.2195 -0.1115
 1459TIP3   OH2 4382   0.914   3.939   3.772  0.2166 -0.3035 -0.4487
 1459TIP3    H1 4383   0.884   3.920   3.861 -0.9397 -2.2973 -1.1751
 1459TIP3    H2 4384   1.007   3.917   3.773  0.2460 -0.1895  0.2847
 1460TIP3   OH2 4385   4.711   3.089   0.638  0.1755  0.0526 -0.5177
 1460TIP3    H1 4386   4.671   3.006   0.663  2.0421 -0.5148  0.7557
 1460TIP3    H2 4387   4.654   3.156   0.676 -0.0177 -0.7091  0.5493
 1461TIP3   OH2 4388   4.986   1.024   3.222 -0.2915 -0.2123  0.4019
 1461TIP3    H1 4389   5.063   0.992   3.175 -0.2491 -2.3142  1.7381
 1461TIP3    H2 4390   4.960   1.104   3.175  3.4550  1.3743  0.6967
 1462TIP3   OH2 4391   5.855   2.731   1.283  0.3666 -0.0571 -0.6497
 1462TIP3    H1 4392   5.892   2.804   1.333 -2.7710  0.0900  1.6750
 1462TIP3    H2 4393   5.883   2.653   1.330  0.7933 -0.1864 -1.1038
 1463TIP3   OH2 4394   5.480   1.272   3.129 -0.4804  0.0922  0.1328
 1463TIP3    H1 4395   5.514   1.327   3.199 -1.1830  2.3497 -1.1948
 1463TIP3    H2 4396   5.527   1.189   3.138  0.9109  1.0191  1.9953
 1464TIP3   OH2 4397   5.890   5.799   1.448 -0.1806  0.4378  0.6554
 1464TIP3    H1 4398   5.909   5.706   1.453  0.3114  0.5043  0.1128
 1464TIP3    H2 4399   5.796   5.804   1.432  0.2060 -0.0720 -2.3036
 1465TIP3   OH2 4400   3.256   0.742   4.919 -0.0073 -0.0413 -0.5418
 1465TIP3    H1 4401   3.317   0.770   4.851 -1.7586  0.1981 -2.0646
 1465TIP3    H2 4402   3.203   0.674   4.878 -2.9155  1.9450 -0.4366
 1466TIP3   OH2 4403   3.788   5.777   3.293 -0.1185  0.5108  0.8674
 1466TIP3    H1 4404   3.778   5.866   3.327  1.1251  1.4294 -0.9883
 1466TIP3    H2 4405   3.876   5.776   3.256 -1.6203  0.0279 -3.1828
 1467TIP3   OH2 4406   1.959   3.007   1.487  0.1610 -0.3573  0.3458
 1467TIP3    H1 4407   1.885   2.979   1.540 -1.5310  0.1651 -1.5708
 1467TIP3    H2 4408   1.953   3.102   1.486  0.0082 -0.3547 -0.8785
 1468TIP3   OH2 4409   6.124   2.986   2.029  0.5070 -0.1361  0.4535
 1468TIP3    H1 4410   6.038   2.946   2.010  0.6564 -0.3215  0.1621
 1468TIP3    H2 4411   6.149   3.029   1.947  0.8663 -0.4081  0.4190
 1469TIP3   OH2 4412   1.925   5.229   5.036 -0.1304  0.3274  0.4670
 1469TIP3    H1 4413   1.867   5.304   5.025 -1.8923 -1.1378 -1.0972
 1469TIP3    H2 4414   1.919   5.182   4.953 -0.0920 -2.1667  1.7601
 1470TIP3   OH2 4415   2.543   2.016   3.742  0.2915  0.1447 -0.5779
 1470TIP3    H1 4416   2.494   1.970   3.810  0.3489 -1.1811 -1.3893
 1470TIP3    H2 4417   2.612   1.954   3.717 -1.6694 -0.8783 -4.1330
 1471TIP3   OH2 4418   1.372   3.560   0.717  0.5006  0.3078 -0.1730
 1471TIP3    H1 4419   1.367   3.482   0.773  1.2548  0.4977  0.1737
 1471TIP3    H2 4420   1.464   3.588   0.723  0.7072  0.0957 -1.8458
 1472TIP3   OH2 4421   0.338   3.003   2.609  0.1526  0.6387 -0.1811
 1472TIP3    H1 4422   0.335   3.058   2.687 -2.4561 -1.1670  1.1554
 1472TIP3    H2 4423   0.260   3.030   2.559 -0.5101 -0.9710 -0.0664
 1473TIP3   OH2 4424   5.060   1.890   3.011 -0.0233 -0.4036  0.2797
 1473TIP3    H1 4425   4.985   1.834   3.028 -0.8677  1.2244  2.3526
 1473TIP3    H2 4426   5.037   1.939   2.932 -1.5060  0.5916  1.2952
 1474TIP3   OH2 4427   4.833   0.271   0.113 -0.0356  0.1424 -0.0144
 1474TIP3    H1 4428   4.880   0.333   0.056 -0.3819 -1.3510 -2.0231
 1474TIP3    H2 4429   4.813   0.322   0.191  2.1667  1.7414 -0.3801
 1475TIP3   OH2 4430   3.535   0.695   1.623  0.9085 -0.3180  0.3417
 1475TIP3    H1 4431   3.569   0.783   1.607 -0.5077  0.4741  1.4509
 1475TIP3    H2 4432   3.486   0.703   1.704  2.4547 -2.6369  1.6131
 1476TIP3   OH2 4433   5.091   5.528   1.381 -0.2220 -0.3818  0.2904
 1476TIP3    H1 4434   5.055   5.445   1.412 -0.2864 -0.2230  0.6466
 1476TIP3    H2 4435   5.186   5.515   1.383 -0.2158 -0.3073  0.7549
 1477TIP3   OH2 4436   6.146   5.036   4.313  0.1310  0.4058 -0.0598
 1477TIP3    H1 4437   6.158   5.076   4.227 -0.0849  0.5109 -0.0426
 1477TIP3    H2 4438   6.177   4.946   4.302 -0.3796  0.2650 -0.3897
 1478TIP3   OH2 4439   3.468   0.302   4.192  0.9547 -0.1760  0.0656
 1478TIP3    H1 4440   3.549   0.319   4.240 -0.1372  1.6056  1.4088
 1478TIP3    H2 4441   3.470   0.363   4.119  1.7753 -1.6369 -1.1837
 1479TIP3   OH2 4442   6.312   1.765   2.882  0.3061 -0.2661  0.2163
 1479TIP3    H1 4443   6.235   1.803   2.841  1.2057 -0.8820 -2.2489
 1479TIP3    H2 4444   6.321   1.679   2.840  2.6421  0.0437 -0.0854
 1480TIP3   OH2 4445   4.604   2.766   0.403  0.2920 -0.0664  0.4804
 1480TIP3    H1 4446   4.698   2.770   0.420 -0.0507 -0.4581  2.7357
 1480TIP3    H2 4447   4.576   2.858   0.404  0.3078 -0.0357  2.3157
 1481TIP3   OH2 4448   3.634   1.476   2.067 -0.3309 -0.3926 -0.2066
 1481TIP3    H1 4449   3.540   1.493   2.072 -0.4619 -1.3448  1.5341
 1481TIP3    H2 4450   3.641   1.381   2.063  0.5533 -0.3525  0.0643
 1482TIP3   OH2 4451   2.787   0.448   2.330  0.2019 -0.3268 -0.0940
 1482TIP3    H1 4452   2.797   0.405   2.246  0.3163  0.3388 -0.4328
 1482TIP3    H2 4453   2.768   0.378   2.392  1.0833 -0.9323 -0.5034
 1483TIP3   OH2 4454   1.766   0.824   1.060 -0.1281  0.4281  0.2025
 1483TIP3    H1 4455   1.719   0.873   0.993  1.1884  2.3230  0.5807
 1483TIP3    H2 4456   1.698   0.791   1.118 -1.4707 -2.7028 -2.8441
 1484TIP3   OH2 4457   1.048   1.963   0.955 -0.2941  0.0712  0.3860
 1484TIP3    H1 4458   1.106   1.969   1.032  1.7833 -0.5399 -1.0519
 1484TIP3    H2 4459   0.986   1.894   0.977  1.3292 -1.2859  0.8884
 1485TIP3   OH2 4460   0.510   5.595   1.532 -1.2261 -0.3150  0.3660
 1485TIP3    H1 4461   0.455   5.660   1.488 -0.8741  0.8998  1.6507
 1485TIP3    H2 4462   0.451   5.552   1.594 -1.1873 -0.4204  0.3304
 1486TIP3   OH2 4463   4.758   4.677   4.980 -0.1432 -0.0787  0.4426
 1486TIP3    H1 4464   4.708   4.601   5.009 -1.5603  0.6796  0.0612
 1486TIP3    H2 4465   4.702   4.752   5.000 -0.0316  0.6565 -1.7550
 1487TIP3   OH2 4466   0.141   5.684   3.770 -0.3907  0.1804  0.3390
 1487TIP3    H1 4467   0.064   5.662   3.718 -0.4884  0.3992  0.3919
 1487TIP3    H2 4468   0.214   5.682   3.708 -0.6578  1.5380 -0.0381
 1488TIP3   OH2 4469   1.896   5.002   0.786 -0.6950  0.1942 -0.7746
 1488TIP3    H1 4470   1.867   4.954   0.708 -1.5849 -2.4357  1.0541
 1488TIP3    H2 4471   1.910   4.935   0.852  0.9635  2.2478  1.1054
 1489TIP3   OH2 4472   5.185   0.107   4.088 -0.0914  0.5958  0.5364
 1489TIP3    H1 4473   5.177   0.045   4.160 -1.5154 -3.6093 -2.7985
 1489TIP3    H2 4474   5.279   0.116   4.073  0.2418 -3.1990 -0.5195
 1490TIP3   OH2 4475   3.470   1.417   0.310 -0.0754  0.0830 -0.3128
 1490TIP3    H1 4476   3.387   1.463   0.322  0.0918 -0.0349  1.5758
 1490TIP3    H2 4477   3.491   1.382   0.396  1.0810 -1.3798 -1.1358
 1491TIP3   OH2 4478   1.868   4.771   0.507  0.0359  0.0397  0.5381
 1491TIP3    H1 4479   1.838   4.809   0.424 -0.6898  1.8612  1.5901
 1491TIP3    H2 4480   1.789   4.745   0.552  0.4358 -1.0169  0.6500
 1492TIP3   OH2 4481   4.669   2.567   0.646  0.3613  0.1082 -0.1124
 1492TIP3    H1 4482   4.675   2.558   0.550  0.3763 -1.0986 -0.0176
 1492TIP3    H2 4483   4.759   2.562   0.676  0.3365  0.2191 -0.0216
 1493TIP3   OH2 4484   5.395   4.654   1.509 -0.2145  0.4009  0.1107
 1493TIP3    H1 4485   5.467   4.591   1.514  1.1191  1.9615  2.1045
 1493TIP3    H2 4486   5.329   4.620   1.569 -0.9194 -0.6919 -1.2273
 1494TIP3   OH2 4487   2.255   1.767   1.219  0.1784  0.4525 -0.0321
 1494TIP3    H1 4488   2.206   1.848   1.233  2.7155  2.2399 -0.6986
 1494TIP3    H2 4489   2.246   1.750   1.125 -0.4266 -0.1005  0.1243
 1495TIP3   OH2 4490   5.750   5.023   2.897 -0.0164 -0.0915  0.5311
 1495TIP3    H1 4491   5.777   5.110   2.925 -0.7054  0.2287  0.2375
 1495TIP3    H2 4492   5.831   4.975   2.884  0.3996  0.7262  0.0354
 1496TIP3   OH2 4493   2.266   0.220   4.465 -0.5847 -0.0264  0.2025
 1496TIP3    H1 4494   2.306   0.208   4.379 -1.5358  1.2621 -0.4450
 1496TIP3    H2 4495   2.184   0.171   4.461  0.6675 -2.3934  1.4207
 1497TIP3   OH2 4496   0.730   4.797   1.856 -0.6614 -0.2681  0.1856
 1497TIP3    H1 4497   0.709   4.842   1.938  0.3097  0.2754  0.1511
 1497TIP3    H2 4498   0.810   4.840   1.824 -0.8069 -0.7240 -0.8519
 1498TIP3   OH2 4499   3.483   2.205   4.237  0.0910 -0.2196 -0.3463
 1498TIP3    H1 4500   3.543   2.176   4.305 -0.8255 -1.1111  0.1023
 1498TIP3    H2 4501   3.472   2.128   4.181 -0.0406  0.1723 -0.8694
 1499TIP3   OH2 4502   5.222   2.783   0.273  0.4990 -0.1859  0.5008
 1499TIP3    H1 4503   5.187   2.871   0.260 -1.1119 -0.5734  1.8964
 1499TIP3    H2 4504   5.181   2.731   0.204  1.9457  0.2212 -0.7324
 1500TIP3   OH2 4505   4.067   5.216   4.064 -0.2160  0.0933  0.1923
 1500TIP3    H1 4506   4.118   5.139   4.090 -0.5571  0.2235  1.3044
 1500TIP3    H2 4507   4.125   5.265   4.006  1.1534  0.4934  1.8142
 1501TIP3   OH2 4508   0.456   2.680   5.073  0.1636  0.0508  0.3848
 1501TIP3    H1 4509   0.537   2.673   5.123  0.2664  1.5822  0.4516
 1501TIP3    H2 4510   0.447   2.595   5.030  0.6419 -0.9304  2.1171
 1502TIP3   OH2 4511   6.107   5.372   1.824  0.6018 -0.0736  0.3637
 1502TIP3    H1 4512   6.119   5.299   1.764 -0.1553  0.5097 -0.5113
 1502TIP3    H2 4513   6.012   5.385   1.828  0.6585  0.1583  1.3799
 1503TIP3   OH2 4514   4.911   0.775   1.543 -0.6734  0.0874  0.0861
 1503TIP3    H1 4515   4.832   0.819   1.513 -0.4543  0.2616 -0.2406
 1503TIP3    H2 4516   4.936   0.718   1.471  0.7858  1.7226 -0.7733
 1504TIP3   OH2 4517   5.471   2.038   3.091 -0.1622  0.1640 -0.0229
 1504TIP3    H1 4518   5.383   2.076   3.094  0.2150  1.3289 -1.9672
 1504TIP3    H2 4519   5.526   2.101   3.138 -0.2993 -0.4676  1.0219
 1505TIP3   OH2 4520   0.784   0.052   0.192  0.5635 -0.4093  0.1704
 1505TIP3    H1 4521   0.823  -0.031   0.165 -2.1293 -1.0393 -2.4045
 1505TIP3    H2 4522   0.709   0.027   0.246 -1.5781  0.0244 -2.3696
 1506TIP3   OH2 4523   5.739   0.839   1.629 -0.1246  0.0823  0.7115
 1506TIP3    H1 4524   5.710   0.753   1.599  1.4078 -1.1150  2.4571
 1506TIP3    H2 4525   5.667   0.872   1.682 -0.7602 -0.0482 -0.0505
 1507TIP3   OH2 4526   2.866   0.812   2.708 -0.1683  0.4900 -0.1417
 1507TIP3    H1 4527   2.863   0.737   2.648  1.2723  0.2282  0.0752
 1507TIP3    H2 4528   2.841   0.887   2.654 -3.2494 -0.2884  0.0035
 1508TIP3   OH2 4529   1.254   2.845   1.390 -0.1838 -0.2985 -0.9753
 1508TIP3    H1 4530   1.201   2.777   1.348  0.7426  0.0394 -2.7924
 1508TIP3    H2 4531   1.324   2.864   1.327 -0.0652  1.9279 -0.2707
 1509TIP3   OH2 4532   4.277   1.705   0.263 -0.4145  0.1307  0.5397
 1509TIP3    H1 4533   4.287   1.793   0.297  1.1042 -0.5897  2.1326
 1509TIP3    H2 4534   4.201   1.710   0.205  0.0186  2.6011  0.0734
 1510TIP3   OH2 4535   3.000   1.895   2.412 -0.2584  0.1914 -0.2894
 1510TIP3    H1 4536   2.923   1.841   2.389 -0.4438  0.4766 -0.3427
 1510TIP3    H2 4537   3.075   1.844   2.381 -0.5630  1.4884 -3.5234
 1511TIP3   OH2 4538   5.910   0.833   0.820 -0.5027  0.4014 -0.4241
 1511TIP3    H1 4539   5.878   0.908   0.771 -1.0765 -0.0143 -0.6997
 1511TIP3    H2 4540   5.859   0.759   0.787 -1.5057  0.2429  1.3834
 1512TIP3   OH2 4541   3.634   3.749   0.905 -0.4305  0.3686 -0.3754
 1512TIP3    H1 4542   3.657   3.679   0.966 -0.5317  1.2794  0.7491
 1512TIP3    H2 4543   3.549   3.722   0.869  0.2058 -0.7811 -1.0800
 1513TIP3   OH2 4544   0.085   2.686   1.589 -0.0083  0.0772  0.7863
 1513TIP3    H1 4545   0.113   2.763   1.541  0.9373 -1.2349 -0.9104
 1513TIP3    H2 4546  -0.007   2.675   1.566  0.1791  0.0319  0.0246
 1514TIP3   OH2 4547   4.295   5.834   2.687 -0.6529  0.1815 -0.6948
 1514TIP3    H1 4548   4.210   5.790   2.677  1.1754 -3.9760 -0.0263
 1514TIP3    H2 4549   4.310   5.835   2.781  1.3319 -2.1870 -0.9043
 1515TIP3   OH2 4550   3.648   5.876   4.870 -0.0192 -0.7512 -0.3020
 1515TIP3    H1 4551   3.639   5.951   4.811  2.0798 -0.3388 -0.1865
 1515TIP3    H2 4552   3.611   5.905   4.953 -0.0754 -0.1766 -0.5284
 1516TIP3   OH2 4553   2.814   1.241   3.932 -0.0455  0.0375  0.2568
 1516TIP3    H1 4554   2.909   1.242   3.921  0.2023 -0.0948  2.0150
 1516TIP3    H2 4555   2.800   1.189   4.012 -1.3966  2.3285  1.6190
 1517TIP3   OH2 4556   5.706   0.526   3.534  0.5148  0.0844  0.6777
 1517TIP3    H1 4557   5.685   0.442   3.493 -3.0249  0.5232  1.2497
 1517TIP3    H2 4558   5.692   0.591   3.465  0.8857  0.3670  0.8671
 1518TIP3   OH2 4559   4.334   3.288   2.797  0.5878 -0.3533 -0.0821
 1518TIP3    H1 4560   4.300   3.318   2.712 -1.2160 -0.3577  0.6009
 1518TIP3    H2 4561   4.364   3.199   2.781 -3.0787 -1.7489  0.0010
 1519TIP3   OH2 4562   1.603   3.454   0.970  0.1675 -0.2676 -0.0231
 1519TIP3    H1 4563   1.529   3.494   1.016 -1.0848 -1.3465 -0.9956
 1519TIP3    H2 4564   1.678   3.510   0.990 -0.7430  0.4296  1.6310
 1520TIP3   OH2 4565   4.416   3.674   2.612 -0.0228 -0.8073 -0.0070
 1520TIP3    H1 4566   4.456   3.740   2.556 -0.1229  0.3992  1.3007
 1520TIP3    H2 4567   4.465   3.594   2.593  3.1638  0.5982  1.5801
 1521TIP3   OH2 4568   4.334   4.099   3.722 -0.3244  0.0383  0.0515
 1521TIP3    H1 4569   4.254   4.113   3.672 -0.7623  0.7726  0.9231
 1521TIP3    H2 4570   4.313   4.129   3.810  1.1899  1.1519  0.0769
 1522TIP3   OH2 4571   2.094   3.230   4.046 -0.2176 -0.2226  0.0322
 1522TIP3    H1 4572   2.137   3.208   4.128  0.2090 -2.9218 -0.8217
 1522TIP3    H2 4573   2.002   3.207   4.060 -0.0563 -1.1445 -0.3752
 1523TIP3   OH2 4574   4.517   3.397   0.254  0.2803 -0.3829  0.3519
 1523TIP3    H1 4575   4.533   3.319   0.201 -1.1326  0.6080 -1.6857
 1523TIP3    H2 4576   4.422   3.406   0.257  0.3477  0.2584  2.1458
 1524TIP3   OH2 4577   2.026   2.677   3.759  0.0895 -0.6829 -0.5622
 1524TIP3    H1 4578   1.988   2.594   3.730  0.5450 -0.5221 -1.6709
 1524TIP3    H2 4579   1.955   2.740   3.750  0.0925 -0.7248 -0.8791
 1525TIP3   OH2 4580   3.735   1.601   4.189 -0.8656 -0.7430 -0.2538
 1525TIP3    H1 4581   3.651   1.604   4.236  0.3596  0.0060  1.9961
 1525TIP3    H2 4582   3.801   1.587   4.257  0.7922 -2.3937 -2.0899
 1526TIP3   OH2 4583   5.061   5.931   5.116  0.6405 -0.5043 -0.0187
 1526TIP3    H1 4584   5.026   5.914   5.203  0.0652 -1.0654 -0.3498
 1526TIP3    H2 4585   5.127   5.999   5.129  0.3763 -0.3998  0.8134
 1527TIP3   OH2 4586   2.991   3.006   5.095  0.1002 -0.4587 -0.6818
 1527TIP3    H1 4587   3.004   3.049   5.179  1.2022 -0.2204 -0.9656
 1527TIP3    H2 4588   2.922   3.057   5.052  0.1747 -0.0315 -0.3002
 1528TIP3   OH2 4589   2.831   4.132   0.415  0.6980 -0.2780 -0.3011
 1528TIP3    H1 4590   2.892   4.062   0.439 -1.1554 -2.1236 -0.6428
 1528TIP3    H2 4591   2.746   4.088   0.406 -0.3475  1.8226 -1.6730
 1529TIP3   OH2 4592   4.318   4.182   4.649  0.3545  0.4124  0.3811
 1529TIP3    H1 4593   4.403   4.139   4.647  0.3496  0.4170 -0.0105
 1529TIP3    H2 4594   4.255   4.111   4.646  0.3202  0.3286  2.0630
 1530TIP3   OH2 4595   3.134   4.974   3.120 -0.2793  0.6051 -0.2441
 1530TIP3    H1 4596   3.056   4.927   3.147 -0.3282  1.1423  0.6119
 1530TIP3    H2 4597   3.102   5.054   3.079 -0.1993  1.0375  0.5027
 1531TIP3   OH2 4598   0.733   2.436   1.683  0.3449  0.8013 -0.4036
 1531TIP3    H1 4599   0.752   2.387   1.603 -1.1834  1.4522 -1.2010
 1531TIP3    H2 4600   0.638   2.449   1.681  0.5336  2.6064  0.4774
 1532TIP3   OH2 4601   4.911   2.525   0.719  0.3229  0.4615  0.2470
 1532TIP3    H1 4602   4.925   2.452   0.659  1.9991  0.3753  0.7014
 1532TIP3    H2 4603   4.988   2.525   0.776 -0.4218  1.5817  1.3106
 1533TIP3   OH2 4604   1.786   2.959   2.946 -0.5584 -0.3200 -0.0188
 1533TIP3    H1 4605   1.749   2.871   2.939  3.1679 -2.0617 -0.3928
 1533TIP3    H2 4606   1.872   2.946   2.986  0.0778  3.2239  0.1125
 1534TIP3   OH2 4607   0.318   1.235   3.598  0.6980  0.3927 -0.3687
 1534TIP3    H1 4608   0.316   1.266   3.508 -0.1447 -0.5852 -0.7038
 1534TIP3    H2 4609   0.235   1.262   3.636  1.3391  1.4241  0.3539
 1535TIP3   OH2 4610   1.120   1.289   4.506  0.1485 -0.9628 -0.5745
 1535TIP3    H1 4611   1.159   1.204   4.491 -0.2620 -1.5859  1.5818
 1535TIP3    H2 4612   1.178   1.332   4.568 -0.1035  0.0017 -0.9826
 1536TIP3   OH2 4613   4.152   4.698   3.746  0.6025 -0.0238  0.1450
 1536TIP3    H1 4614   4.195   4.634   3.689  1.4149  0.3559  0.3128
 1536TIP3    H2 4615   4.077   4.729   3.695  1.3822  0.4020 -0.7729
 1537TIP3   OH2 4616   1.730   1.123   0.825 -0.2034  0.5779  0.6796
 1537TIP3    H1 4617   1.651   1.074   0.803  1.3103 -0.7746 -2.2795
 1537TIP3    H2 4618   1.703   1.215   0.821 -1.5245  0.1595 -0.6894
 1538TIP3   OH2 4619   2.836   0.976   2.235 -0.0826  0.6046  0.2283
 1538TIP3    H1 4620   2.921   1.013   2.215 -1.4592  3.3960 -1.0938
 1538TIP3    H2 4621   2.810   0.930   2.155  0.8282 -1.7937  1.2280
 1539TIP3   OH2 4622   4.432   1.478   3.722 -0.6840  0.1337 -0.6127
 1539TIP3    H1 4623   4.468   1.390   3.733 -0.3373  0.2132 -1.0861
 1539TIP3    H2 4624   4.337   1.467   3.733 -0.8223 -0.5878 -2.2084
 1540TIP3   OH2 4625   3.127   5.862   2.425 -0.4882 -0.1862 -0.1562
 1540TIP3    H1 4626   3.197   5.880   2.486 -0.4274 -0.0523 -0.2637
 1540TIP3    H2 4627   3.061   5.814   2.476  0.4220 -1.8479 -0.4664
 1541TIP3   OH2 4628   3.734   0.357   3.041 -0.6917  0.4937 -0.5394
 1541TIP3    H1 4629   3.717   0.420   3.111 -0.1551 -0.7080  0.6949
 1541TIP3    H2 4630   3.692   0.276   3.070  1.5260 -0.6990 -0.4453
 1542TIP3   OH2 4631   4.055   3.068   3.670 -0.0311 -0.1777 -0.2955
 1542TIP3    H1 4632   4.105   3.144   3.701 -0.4352  1.1360 -2.5346
 1542TIP3    H2 4633   3.987   3.107   3.614 -1.7987 -2.0846  0.4173
 1543TIP3   OH2 4634   3.721   3.241   3.617  0.3268  1.0532  0.2839
 1543TIP3    H1 4635   3.655   3.306   3.640  1.4002  1.9976  0.8486
 1543TIP3    H2 4636   3.718   3.235   3.522  0.7566  2.5738  0.1499
 1544TIP3   OH2 4637   5.086   3.716   1.384  0.0691  0.2877  0.0177
 1544TIP3    H1 4638   5.181   3.718   1.376  0.0920  1.4062  0.4360
 1544TIP3    H2 4639   5.057   3.799   1.345 -0.7399 -0.0699 -0.1637
 1545TIP3   OH2 4640   3.787   5.394   4.499  0.1145  0.2320  0.1501
 1545TIP3    H1 4641   3.723   5.324   4.507 -0.6207  0.8259 -0.3297
 1545TIP3    H2 4642   3.829   5.379   4.414 -1.0024  1.1112 -0.6005
 1546TIP3   OH2 4643   5.370   0.121   1.436  0.3379  0.0860  0.0407
 1546TIP3    H1 4644   5.404   0.210   1.439 -0.8119  0.5259  0.7050
 1546TIP3    H2 4645   5.318   0.112   1.516 -0.7593 -0.6747 -0.7184
 1547TIP3   OH2 4646   2.094   5.892   0.343 -0.2743 -0.4777  0.2962
 1547TIP3    H1 4647   1.999   5.903   0.347 -0.2940 -0.0504 -0.9065
 1547TIP3    H2 4648   2.114   5.833   0.416 -1.4549 -0.5535  0.5876
 1548TIP3   OH2 4649   4.200   4.338   4.369 -0.7592 -0.0792 -0.1385
 1548TIP3    H1 4650   4.258   4.290   4.309 -0.5453 -2.0620  1.5474
 1548TIP3    H2 4651   4.196   4.283   4.447 -3.7940  0.6899  0.3679
 1549TIP3   OH2 4652   3.954   3.458   3.920 -0.2955  0.3832 -0.6438
 1549TIP3    H1 4653   4.023   3.467   3.854 -0.7657  0.3720 -1.1478
 1549TIP3    H2 4654   3.998   3.417   3.995 -0.1566 -1.3946 -1.6489
 1550TIP3   OH2 4655   0.357   4.940   4.251  0.1041 -0.0509  0.3529
 1550TIP3    H1 4656   0.437   4.890   4.234  2.4019  2.5962  2.2263
 1550TIP3    H2 4657   0.337   4.982   4.168  2.7129  1.7470  0.4974
 1551TIP3   OH2 4658   3.583   5.339   0.035 -0.1358  0.1584 -1.1436
 1551TIP3    H1 4659   3.608   5.330   0.127 -0.7918 -2.1316 -1.1295
 1551TIP3    H2 4660   3.581   5.434   0.020  1.0564  0.5658  0.8779
 1552TIP3   OH2 4661   0.287   0.581   4.952  0.4159 -0.2832  0.2323
 1552TIP3    H1 4662   0.363   0.600   4.897  0.7984 -0.9107  0.5344
 1552TIP3    H2 4663   0.225   0.538   4.894 -0.4695  1.8009 -0.4687
 1553TIP3   OH2 4664   1.197   3.437   0.074 -0.1425 -0.2724  0.0708
 1553TIP3    H1 4665   1.110   3.472   0.058 -0.6188 -1.2700  0.4488
 1553TIP3    H2 4666   1.191   3.345   0.050  1.0496 -0.1719 -0.7413
 1554TIP3   OH2 4667   6.284   2.528   0.054 -0.4905 -0.1401  0.1013
 1554TIP3    H1 4668   6.253   2.568   0.136 -2.1677 -2.4117  0.6575
 1554TIP3    H2 4669   6.224   2.563  -0.012 -1.8755 -1.5069  0.5668
 1555TIP3   OH2 4670   1.712   0.943   3.723 -0.3034  0.0725  1.2736
 1555TIP3    H1 4671   1.764   1.023   3.712  0.1669 -0.2138  1.3539
 1555TIP3    H2 4672   1.773   0.873   3.702 -1.0651 -0.2272 -0.0431
 1556TIP3   OH2 4673   5.894   5.043   2.097 -0.2788 -0.1449  0.6217
 1556TIP3    H1 4674   5.950   4.986   2.044 -1.5471  1.7936 -3.1582
 1556TIP3    H2 4675   5.943   5.126   2.102 -0.4555 -0.1006  2.1109
 1557TIP3   OH2 4676   2.607   2.937   1.921  0.0271  0.2226 -0.0641
 1557TIP3    H1 4677   2.623   2.852   1.960  0.4577  1.1519  1.9186
 1557TIP3    H2 4678   2.522   2.929   1.877  0.5342 -1.4811 -0.7950
 1558TIP3   OH2 4679   3.812   5.430   1.918 -0.0078  0.7493 -0.0885
 1558TIP3    H1 4680   3.736   5.482   1.941 -1.4511 -1.4291  0.4242
 1558TIP3    H2 4681   3.824   5.371   1.993  0.5369 -0.7179 -1.2699
 1559TIP3   OH2 4682   4.144   4.078   3.304  0.3107  0.0057  0.7016
 1559TIP3    H1 4683   4.215   4.045   3.358  0.3444  1.8202  1.8551
 1559TIP3    H2 4684   4.181   4.086   3.216  1.5952  0.9879  1.2941
 1560TIP3   OH2 4685   0.719   5.071   3.708 -0.0626  0.2829  0.7396
 1560TIP3    H1 4686   0.748   5.036   3.792 -0.9422 -0.6696  0.6653
 1560TIP3    H2 4687   0.702   4.994   3.654  0.2543  0.8750 -0.2459
 1561TIP3   OH2 4688   4.079   5.736   2.111  0.4771  0.7417 -0.1290
 1561TIP3    H1 4689   4.098   5.677   2.184 -0.3009  1.6226  0.8136
 1561TIP3    H2 4690   4.155   5.792   2.105  0.9040  0.1331 -0.5550
 1562TIP3   OH2 4691   5.139   1.477   1.507 -0.2720 -0.4735  0.0436
 1562TIP3    H1 4692   5.071   1.544   1.504  0.3744  0.1761 -1.8064
 1562TIP3    H2 4693   5.217   1.522   1.540  0.0850 -0.3598 -0.9174
 1563TIP3   OH2 4694   6.199   5.476   4.507 -0.4649  0.4135  0.3223
 1563TIP3    H1 4695   6.266   5.448   4.443 -0.4177 -2.4638  1.4692
 1563TIP3    H2 4696   6.246   5.479   4.590 -1.0412  1.8762  0.6192
 1564TIP3   OH2 4697   3.286   0.127   0.529  0.4443  0.1682 -0.3602
 1564TIP3    H1 4698   3.374   0.099   0.555 -0.5428  0.0552  3.3782
 1564TIP3    H2 4699   3.248   0.050   0.486  1.3553 -0.6135  0.1947
 1565TIP3   OH2 4700   6.015   4.164   4.548  0.4738 -0.0451 -0.2964
 1565TIP3    H1 4701   6.090   4.187   4.492  1.2555  1.1695  1.1676
 1565TIP3    H2 4702   6.053   4.108   4.616 -0.3048 -0.8649 -0.5273
 1566TIP3   OH2 4703   5.329   0.404   4.721  0.3934  0.1832 -0.1510
 1566TIP3    H1 4704   5.245   0.437   4.689  0.1241  0.7267  1.0361
 1566TIP3    H2 4705   5.395   0.451   4.671 -0.0020  1.5650  0.5953
 1567TIP3   OH2 4706   2.271   4.763   3.091 -1.0220  0.2896 -0.0626
 1567TIP3    H1 4707   2.343   4.826   3.094 -1.6124  1.0422 -0.9141
 1567TIP3    H2 4708   2.197   4.813   3.057 -1.6730 -0.7173 -0.1805
 1568TIP3   OH2 4709   6.196   1.456   4.422  0.5229 -0.1456 -0.7466
 1568TIP3    H1 4710   6.182   1.484   4.512  0.9155 -0.7079 -0.5112
 1568TIP3    H2 4711   6.263   1.388   4.427  1.6456  0.8640 -1.6203
 1569TIP3   OH2 4712   4.037   0.093   4.499  0.4756 -0.3732 -0.3163
 1569TIP3    H1 4713   4.054   0.183   4.526 -0.8304 -0.1583 -0.1339
 1569TIP3    H2 4714   4.044   0.095   4.403  1.9933 -0.4452 -0.2330
 1570TIP3   OH2 4715   1.078   1.886   0.496  0.3072 -0.1820 -0.2375
 1570TIP3    H1 4716   1.003   1.847   0.451 -1.0179  1.8969  0.0160
 1570TIP3    H2 4717   1.102   1.960   0.440  1.6804 -0.3485  0.1092
 1571TIP3   OH2 4718   1.407   5.834   0.316  0.5308  0.2551 -0.0934
 1571TIP3    H1 4719   1.385   5.787   0.236  1.3427  1.1887 -0.8985
 1571TIP3    H2 4720   1.466   5.904   0.288  1.4106  0.1802  1.4200
 1572TIP3   OH2 4721   5.238   4.023   4.543 -0.0344 -0.1747 -0.4506
 1572TIP3    H1 4722   5.316   4.036   4.597 -0.8873 -0.2966  0.8313
 1572TIP3    H2 4723   5.264   3.956   4.480  0.9290 -0.1408 -0.1073
 1573TIP3   OH2 4724   3.866   0.312   0.905 -0.0499 -0.2678 -0.4330
 1573TIP3    H1 4725   3.861   0.218   0.921  0.6169 -0.0796  1.0640
 1573TIP3    H2 4726   3.957   0.327   0.880  0.1521  0.1259  0.5016
 1574TIP3   OH2 4727   4.299   2.303   1.806  0.2625  0.1076  0.2746
 1574TIP3    H1 4728   4.370   2.349   1.761 -0.2559  0.7639  0.1097
 1574TIP3    H2 4729   4.281   2.228   1.751  0.4370  0.2565  0.0110
 1575TIP3   OH2 4730   1.728   5.530   4.209  0.9610  0.1044 -0.5784
 1575TIP3    H1 4731   1.717   5.460   4.273 -1.9414  0.5727 -0.4408
 1575TIP3    H2 4732   1.735   5.485   4.125  0.5536 -0.4042 -0.3445
 1576TIP3   OH2 4733   4.472   4.918   3.076  0.1398 -0.2087  0.2641
 1576TIP3    H1 4734   4.412   4.993   3.079 -1.3110 -1.3480  0.5259
 1576TIP3    H2 4735   4.416   4.841   3.087  1.6091 -1.3463  0.1283
 1577TIP3   OH2 4736   1.093   3.196   2.176 -0.1406  0.1096 -0.2500
 1577TIP3    H1 4737   1.128   3.266   2.230 -0.8905  0.1899  0.1298
 1577TIP3    H2 4738   1.009   3.173   2.215 -1.2434  0.9261 -2.0106
 1578TIP3   OH2 4739   5.525   2.926   1.528 -1.0065  0.8110 -0.4148
 1578TIP3    H1 4740   5.581   2.905   1.603 -0.7539  0.5039 -0.6863
 1578TIP3    H2 4741   5.548   2.861   1.462 -3.5401 -0.9757  0.3449
 1579TIP3   OH2 4742   3.374   5.525   1.783 -0.4586 -0.0750  0.0881
 1579TIP3    H1 4743   3.464   5.538   1.753  0.2385 -0.1410  2.0168
 1579TIP3    H2 4744   3.363   5.430   1.783 -0.0495 -0.1280  1.1396
 1580TIP3   OH2 4745   4.875   5.507   3.692 -0.4431 -0.4189  0.1043
 1580TIP3    H1 4746   4.839   5.456   3.619 -0.9677 -0.9382  0.7152
 1580TIP3    H2 4747   4.882   5.596   3.658 -1.0384 -0.5798 -0.4644
 1581TIP3   OH2 4748   4.055   0.216   2.022 -0.2235 -0.3601  0.2291
 1581TIP3    H1 4749   4.066   0.287   1.959  1.5504  0.8130  1.7089
 1581TIP3    H2 4750   4.034   0.139   1.970 -0.1811  0.8371 -1.6289
 1582TIP3   OH2 4751   4.404   3.123   3.630 -0.5516 -0.0124 -0.2777
 1582TIP3    H1 4752   4.432   3.104   3.541 -1.2432  0.0288 -0.5085
 1582TIP3    H2 4753   4.356   3.045   3.657 -0.1928 -0.0987  0.1267
 1583TIP3   OH2 4754   4.679   4.530   4.724 -0.5248  0.1349 -0.1450
 1583TIP3    H1 4755   4.740   4.512   4.795  1.3688  0.1413 -1.6853
 1583TIP3    H2 4756   4.686   4.625   4.710 -0.5736  0.0696 -0.6258
 1584TIP3   OH2 4757   2.006   4.402   0.646  0.1305 -1.1160  0.3757
 1584TIP3    H1 4758   2.031   4.445   0.565  0.2734 -0.4970  0.7494
 1584TIP3    H2 4759   2.055   4.320   0.646  1.4927 -0.3304  0.6728
 1585TIP3   OH2 4760   1.720   0.032   4.499 -0.6494 -0.3590  0.0091
 1585TIP3    H1 4761   1.749  -0.058   4.486  1.3802  0.3802 -0.9640
 1585TIP3    H2 4762   1.643   0.041   4.443  0.2306 -0.9834 -1.3597
 1586TIP3   OH2 4763   0.098   0.131   1.342 -0.3195 -0.1584 -0.5943
 1586TIP3    H1 4764   0.009   0.097   1.347 -0.5320  0.3591 -0.7955
 1586TIP3    H2 4765   0.097   0.192   1.268 -0.2680  1.2171  0.4876
 1587TIP3   OH2 4766   0.437   2.892   3.861  0.1565 -0.0706 -0.1398
 1587TIP3    H1 4767   0.400   2.980   3.858  0.1579 -0.0330  0.6518
 1587TIP3    H2 4768   0.391   2.849   3.933 -0.8646 -1.1993 -1.4169
 1588TIP3   OH2 4769   4.723   4.926   4.601  0.1131 -1.0770 -0.6057
 1588TIP3    H1 4770   4.647   4.909   4.656 -0.3376 -0.6491 -1.0829
 1588TIP3    H2 4771   4.731   4.849   4.544  0.3669 -1.3614 -0.1881
 1589TIP3   OH2 4772   1.126   4.950   0.224  0.0464  0.7975 -0.1199
 1589TIP3    H1 4773   1.161   4.947   0.313  0.7534  1.4619 -0.3687
 1589TIP3    H2 4774   1.171   5.023   0.183 -1.0549  1.1688 -0.7016
 1590TIP3   OH2 4775   5.463   2.248   0.466 -0.8550  0.0156  0.1271
 1590TIP3    H1 4776   5.510   2.319   0.423 -1.9841  0.6366 -0.1113
 1590TIP3    H2 4777   5.531   2.202   0.516  0.0144  0.8358 -0.2558
 1591TIP3   OH2 4778   1.517   3.692   0.027  0.0414  0.0407 -0.3317
 1591TIP3    H1 4779   1.507   3.646   0.110 -0.2545 -0.9069 -0.8733
 1591TIP3    H2 4780   1.575   3.636  -0.024  3.0207  2.2420  0.3981
 1592TIP3   OH2 4781   4.496   0.244   0.498 -0.1713 -1.0561  0.3431
 1592TIP3    H1 4782   4.588   0.246   0.471 -0.4213 -1.6603 -0.6286
 1592TIP3    H2 4783   4.487   0.161   0.545 -0.5451 -1.7534 -0.9049
 1593TIP3   OH2 4784   0.964   2.331   2.824 -0.1418 -0.4611 -0.3221
 1593TIP3    H1 4785   1.027   2.369   2.884 -0.6465 -0.3708  0.1634
 1593TIP3    H2 4786   0.945   2.244   2.861  0.7588 -1.0603 -1.2408
 1594TIP3   OH2 4787   2.261   3.302   0.450  0.0648  0.3280 -0.1337
 1594TIP3    H1 4788   2.202   3.373   0.425 -0.1558  0.0828 -0.3146
 1594TIP3    H2 4789   2.308   3.281   0.370  0.6875  0.7907  0.1046
 1595TIP3   OH2 4790   4.094   1.715   2.742  0.4851  0.3139 -0.4670
 1595TIP3    H1 4791   4.070   1.771   2.816 -0.3957 -0.2694 -0.2890
 1595TIP3    H2 4792   4.159   1.765   2.693  0.4642  1.0538  0.2475
 1596TIP3   OH2 4793   6.263   0.053   4.051 -0.6781  0.6052 -0.3349
 1596TIP3    H1 4794   6.197   0.072   4.118 -0.2312 -0.4039  0.4037
 1596TIP3    H2 4795   6.303  -0.029   4.079 -1.0135 -0.2620 -2.2416
 1597TIP3   OH2 4796   0.229   2.531   3.944 -0.0713  0.0121 -0.2921
 1597TIP3    H1 4797   0.184   2.450   3.966  0.0297 -0.2721 -1.0785
 1597TIP3    H2 4798   0.247   2.523   3.850  2.3113 -0.2472  0.1185
 1598TIP3   OH2 4799   4.833   1.629   4.938 -0.6793  0.2699 -0.2947
 1598TIP3    H1 4800   4.762   1.582   4.982 -1.0164 -0.3316 -1.4395
 1598TIP3    H2 4801   4.807   1.630   4.846  1.0951 -0.5688 -0.8512
 1599TIP3   OH2 4802   0.009   5.076   3.546 -0.3847 -0.4844  0.3017
 1599TIP3    H1 4803  -0.053   5.026   3.492  2.0552 -0.7804 -2.5503
 1599TIP3    H2 4804   0.092   5.028   3.536  0.8490  1.1541  2.0069
 1600TIP3   OH2 4805   0.160   4.464   4.665  0.0184  0.0403 -0.1042
 1600TIP3    H1 4806   0.130   4.499   4.581 -0.5411  1.6436  0.7081
 1600TIP3    H2 4807   0.083   4.418   4.699 -0.3072  0.8049  0.2341
 1601TIP3   OH2 4808   0.037   5.328   3.405  0.0727 -0.1265  0.2080
 1601TIP3    H1 4809   0.127   5.329   3.437  0.1181  0.7522  0.0795
 1601TIP3    H2 4810   0.002   5.243   3.433  1.4068 -1.1545 -1.0604
 1602TIP3   OH2 4811   0.030   2.942   4.849 -0.5197  0.0592  0.2732
 1602TIP3    H1 4812   0.057   2.876   4.913 -2.4203  0.1021  1.1835
 1602TIP3    H2 4813  -0.026   2.893   4.788 -0.7915  0.5456  0.1318
 1603TIP3   OH2 4814   4.937   4.723   2.646 -0.6109  0.2312  0.1384
 1603TIP3    H1 4815   4.863   4.775   2.614 -0.5779  0.3156  0.1996
 1603TIP3    H2 4816   4.896   4.649   2.691 -0.6688 -0.9103 -1.7236
 1604TIP3   OH2 4817   3.942   2.405   1.375  0.2278 -0.0895  0.0873
 1604TIP3    H1 4818   3.929   2.492   1.413 -2.7407  1.4773 -3.7599
 1604TIP3    H2 4819   3.894   2.346   1.434 -0.0778  1.2973  1.2938
 1605TIP3   OH2 4820   2.242   1.605   3.061  0.2018  0.0344  0.3272
 1605TIP3    H1 4821   2.166   1.658   3.084  0.6088 -0.2856  2.6272
 1605TIP3    H2 4822   2.310   1.669   3.040  0.7304  0.5224  3.2006
 1606TIP3   OH2 4823   0.831   3.915   0.381 -0.4087 -0.2988 -0.0128
 1606TIP3    H1 4824   0.848   3.903   0.475  0.2317 -2.2820 -0.3277
 1606TIP3    H2 4825   0.829   3.826   0.346  5.4006  0.2072 -2.8848
 1607TIP3   OH2 4826   3.050   3.341   4.900  0.3733  0.0233 -0.1537
 1607TIP3    H1 4827   3.074   3.348   4.807  1.0301  0.1435  0.0176
 1607TIP3    H2 4828   3.122   3.291   4.939 -0.1932 -0.5393  0.1864
 1608TIP3   OH2 4829   3.445   2.073   2.772  0.0909 -0.6804 -0.1830
 1608TIP3    H1 4830   3.483   2.080   2.684 -0.7346  0.3830 -0.4849
 1608TIP3    H2 4831   3.363   2.026   2.759 -0.2622 -0.1080 -0.0710
 1609TIP3   OH2 4832   2.402   5.448   3.286  0.2559 -0.6691  0.2926
 1609TIP3    H1 4833   2.378   5.479   3.373  2.3877  0.7548  0.4555
 1609TIP3    H2 4834   2.489   5.409   3.298  0.8583  0.1172 -1.2738
 1610TIP3   OH2 4835   0.751   1.199   0.677 -0.0091  0.4254  0.2193
 1610TIP3    H1 4836   0.725   1.191   0.769 -0.8564  1.7039  0.1146
 1610TIP3    H2 4837   0.741   1.292   0.657 -0.8353  0.0271 -1.4564
 1611TIP3   OH2 4838   3.603   5.576   4.077 -0.3472 -0.2959  0.0681
 1611TIP3    H1 4839   3.542   5.643   4.047 -0.6276 -0.6355 -0.1331
 1611TIP3    H2 4840   3.568   5.547   4.161  0.3753  0.5747  0.6791
 1612TIP3   OH2 4841   5.988   5.483   3.734  0.2187 -0.4519 -0.2973
 1612TIP3    H1 4842   6.023   5.557   3.685  0.2032 -1.4849 -1.9308
 1612TIP3    H2 4843   6.063   5.451   3.785  0.3093  0.4668  0.1634
 1613TIP3   OH2 4844   0.929   3.325   0.203  0.2532  0.5335  0.1073
 1613TIP3    H1 4845   0.959   3.351   0.116  0.9550 -0.1598  0.1392
 1613TIP3    H2 4846   0.841   3.290   0.188  0.8633 -0.7738 -0.5193
 1614TIP3   OH2 4847   0.033   4.674   2.088 -0.0634  0.2319 -0.0933
 1614TIP3    H1 4848  -0.051   4.720   2.095 -0.4326 -0.2996 -0.8209
 1614TIP3    H2 4849   0.098   4.738   2.116 -0.6390  0.9376 -0.3429
 1615TIP3   OH2 4850   2.170   5.103  -0.026 -0.1993  0.4231  0.9644
 1615TIP3    H1 4851   2.202   5.014  -0.012  0.1106  0.4254  0.2779
 1615TIP3    H2 4852   2.127   5.126   0.057  0.5587  0.0001  1.4799
 1616TIP3   OH2 4853   1.412   0.445   2.504 -0.1874  0.0840  0.3460
 1616TIP3    H1 4854   1.390   0.515   2.442  0.6997 -1.0085 -1.2507
 1616TIP3    H2 4855   1.504   0.460   2.524  0.3175 -1.2352 -0.8655
 1617TIP3   OH2 4856   4.882   5.137   3.205  0.1120  0.5102 -0.0810
 1617TIP3    H1 4857   4.949   5.183   3.155 -0.5325  2.0816  0.4284
 1617TIP3    H2 4858   4.915   5.137   3.295 -0.6462  1.5318  0.2221
 1618TIP3   OH2 4859   5.435   4.713   3.717 -0.4569 -0.2434  0.0188
 1618TIP3    H1 4860   5.410   4.624   3.744  0.3671  0.0410  1.8739
 1618TIP3    H2 4861   5.499   4.740   3.783  1.4290  0.6964 -2.0849
 1619TIP3   OH2 4862   5.280   5.345   3.594 -0.2110  0.1166  0.0378
 1619TIP3    H1 4863   5.263   5.325   3.687  0.2136  0.3811  0.1746
 1619TIP3    H2 4864   5.345   5.415   3.596  0.6319 -0.6283 -0.4663
 1620TIP3   OH2 4865   3.778   0.572   2.659  0.3030 -0.5249 -0.0813
 1620TIP3    H1 4866   3.717   0.506   2.692 -1.4696  0.5752 -1.0787
 1620TIP3    H2 4867   3.855   0.521   2.632  0.2833 -1.8328  2.0519
 1621TIP3   OH2 4868   4.939   4.867   3.791 -0.8453 -0.2583  0.6323
 1621TIP3    H1 4869   4.918   4.804   3.722 -0.1691 -0.3548  0.5098
 1621TIP3    H2 4870   5.035   4.869   3.793 -0.8629  0.0961  1.2473
 1622TIP3   OH2 4871   5.460   3.866   3.193 -0.1256 -0.0764 -0.7121
 1622TIP3    H1 4872   5.489   3.948   3.233 -1.9524  1.2243 -1.8807
 1622TIP3    H2 4873   5.524   3.848   3.125  1.6878 -1.0515  1.1271
 1623TIP3   OH2 4874   1.034   1.478   0.663  0.4353  0.7249 -0.5370
 1623TIP3    H1 4875   1.056   1.439   0.578 -0.0612 -0.8953  0.0362
 1623TIP3    H2 4876   0.939   1.485   0.661  0.3856  0.2732  0.0370
 1624TIP3   OH2 4877   1.188   3.372   4.333 -0.5748 -0.8889  0.0840
 1624TIP3    H1 4878   1.110   3.320   4.315  0.0985 -1.3446 -1.7676
 1624TIP3    H2 4879   1.197   3.430   4.257 -1.0039  1.6555  1.8526
 1625TIP3   OH2 4880   5.485   5.691   3.098 -0.0444 -0.1614  0.3074
 1625TIP3    H1 4881   5.523   5.768   3.141  1.5332  0.0886 -1.4345
 1625TIP3    H2 4882   5.529   5.617   3.139  0.3451 -0.0029  0.1814
 1626TIP3   OH2 4883   1.979   3.891   2.381  0.3717 -0.6884 -0.2386
 1626TIP3    H1 4884   1.943   3.840   2.308 -1.9607  2.0535 -1.1493
 1626TIP3    H2 4885   1.906   3.902   2.441  1.3995 -0.1831  0.9576
 1627TIP3   OH2 4886   6.216   4.370   1.750 -0.5345 -0.0985  0.3079
 1627TIP3    H1 4887   6.257   4.354   1.835  1.1959 -1.1806 -0.6582
 1627TIP3    H2 4888   6.202   4.464   1.747  0.9482  0.1811  1.1362
 1628TIP3   OH2 4889   3.608   2.723   3.012 -0.3006  0.2739 -0.2212
 1628TIP3    H1 4890   3.680   2.663   2.993 -0.3564  0.1070  0.0925
 1628TIP3    H2 4891   3.533   2.666   3.029 -0.3345  0.4312  0.1599
 1629TIP3   OH2 4892   4.713   1.822   2.311 -0.1240  0.0064 -0.5459
 1629TIP3    H1 4893   4.721   1.756   2.380  1.0593  0.0585 -0.6138
 1629TIP3    H2 4894   4.798   1.866   2.310 -0.3724  0.4958 -1.5531
 1630TIP3   OH2 4895   4.587   0.057   1.856 -0.3402  0.3284  0.2460
 1630TIP3    H1 4896   4.615   0.021   1.940 -0.0003  1.4723  0.6363
 1630TIP3    H2 4897   4.491   0.052   1.859 -0.3032 -0.4423  0.3276
 1631TIP3   OH2 4898   5.039   3.687   0.538 -0.5816  0.5168  0.0744
 1631TIP3    H1 4899   5.077   3.720   0.457 -0.8719  0.3380 -0.1397
 1631TIP3    H2 4900   5.039   3.592   0.527 -0.8908  0.5053  0.1553
 1632TIP3   OH2 4901   5.285   5.788   0.286  0.0576  0.2462 -0.1446
 1632TIP3    H1 4902   5.309   5.875   0.256  0.1969  0.2252 -0.0990
 1632TIP3    H2 4903   5.369   5.740   0.289 -0.1832 -0.2989 -1.4842
 1633TIP3   OH2 4904   1.900   2.706   2.684 -0.4695  0.2496  0.5142
 1633TIP3    H1 4905   1.913   2.613   2.668  0.4437  0.5163 -0.4110
 1633TIP3    H2 4906   1.898   2.715   2.780 -0.7049 -0.7279  0.6024
 1634TIP3   OH2 4907   3.188   1.349   3.510  0.2947  0.0909 -0.2093
 1634TIP3    H1 4908   3.215   1.306   3.429 -0.7086 -1.2897  0.1634
 1634TIP3    H2 4909   3.259   1.330   3.572 -0.4931 -1.7527  0.1786
 1635TIP3   OH2 4910   4.890   4.667   3.601  0.1255 -0.1092  0.3540
 1635TIP3    H1 4911   4.970   4.622   3.575 -0.7265 -1.9930  0.7989
 1635TIP3    H2 4912   4.868   4.722   3.527  1.1303 -0.5475 -0.2925
 1636TIP3   OH2 4913   2.995   4.914   1.489 -0.1825 -0.0478  0.1999
 1636TIP3    H1 4914   2.967   4.993   1.535 -0.1770 -1.3565  2.6181
 1636TIP3    H2 4915   3.002   4.847   1.557  1.1383 -1.8133 -1.5288
 1637TIP3   OH2 4916   6.023   3.870   4.055  1.0987  0.1334 -0.3156
 1637TIP3    H1 4917   6.105   3.827   4.079  0.2646 -0.6798  1.2475
 1637TIP3    H2 4918   6.031   3.959   4.089  1.5987  0.2782 -0.7981
 1638TIP3   OH2 4919   2.598   5.137   1.129  0.1365  0.5674 -0.1717
 1638TIP3    H1 4920   2.539   5.212   1.143 -0.4131 -0.0556  1.0461
 1638TIP3    H2 4921   2.576   5.106   1.041 -0.6960  0.9218 -0.1078
 1639TIP3   OH2 4922   2.038   1.941   3.690  0.3494 -0.3604  0.3413
 1639TIP3    H1 4923   2.107   1.974   3.749 -0.9665  1.8186  0.7635
 1639TIP3    H2 4924   1.971   1.907   3.749 -0.5778  1.0050  0.0982
 1640TIP3   OH2 4925   0.032   5.175   2.245  0.8938  0.4278 -0.1927
 1640TIP3    H1 4926   0.112   5.137   2.280  0.7041 -0.5061 -0.7260
 1640TIP3    H2 4927   0.029   5.263   2.281  0.9723 -0.2904  1.6990
 1641TIP3   OH2 4928   2.394   0.552   4.220  0.1142 -0.0796 -0.0292
 1641TIP3    H1 4929   2.405   0.637   4.262  1.0097 -0.3361  0.2669
 1641TIP3    H2 4930   2.318   0.514   4.264 -1.1799  1.1248 -1.1251
 1642TIP3   OH2 4931   2.003   0.146   2.718  0.0281 -1.0357  0.1350
 1642TIP3    H1 4932   1.927   0.094   2.745 -0.4361 -1.1615 -1.3005
 1642TIP3    H2 4933   2.078   0.103   2.757 -0.5383 -1.6004  0.6112
 1643TIP3   OH2 4934   3.173   2.051   3.854  0.0248 -0.0996  0.7411
 1643TIP3    H1 4935   3.207   2.110   3.787 -0.2856  0.3126  0.9388
 1643TIP3    H2 4936   3.139   1.977   3.804 -2.5001  1.3004  0.1844
 1644TIP3   OH2 4937   4.327   3.533   2.313 -0.2997 -0.2744 -0.2305
 1644TIP3    H1 4938   4.335   3.438   2.316 -0.4431 -0.2698  0.3841
 1644TIP3    H2 4939   4.402   3.562   2.261 -0.7436 -0.7772 -1.1777
 1645TIP3   OH2 4940   5.611   1.960   5.069  0.1578  0.3637 -0.0499
 1645TIP3    H1 4941   5.559   2.027   5.113 -1.0038  0.9354 -2.1621
 1645TIP3    H2 4942   5.547   1.909   5.019  1.2519 -1.1623  0.0392
 1646TIP3   OH2 4943   2.205   2.747   3.992  0.2930 -0.3224  0.3230
 1646TIP3    H1 4944   2.184   2.707   4.077 -1.3854  0.7465  0.4636
 1646TIP3    H2 4945   2.142   2.708   3.931 -1.5052  2.0919  0.4960
 1647TIP3   OH2 4946   4.103   0.391   0.793  0.5075  0.0614 -0.0732
 1647TIP3    H1 4947   4.119   0.319   0.733  1.7783  1.3297 -1.3324
 1647TIP3    H2 4948   4.176   0.387   0.855  0.6643  0.3496 -0.2383
 1648TIP3   OH2 4949   4.730   4.564   0.268  0.1271  0.4560 -0.2296
 1648TIP3    H1 4950   4.697   4.642   0.313 -0.1571 -0.3028  0.9053
 1648TIP3    H2 4951   4.659   4.501   0.274 -0.1445  0.5097 -2.2924
 1649TIP3   OH2 4952   0.088   4.633   0.453  0.0223 -0.4300  0.1677
 1649TIP3    H1 4953   0.094   4.700   0.385 -1.0069 -1.2509 -0.7608
 1649TIP3    H2 4954   0.100   4.681   0.535 -0.7464  0.9070 -0.4733
 1650TIP3   OH2 4955   2.619   3.840   3.357 -0.2500 -0.4031  0.2968
 1650TIP3    H1 4956   2.536   3.886   3.348 -1.7318 -2.7050  1.1563
 1650TIP3    H2 4957   2.663   3.853   3.273 -1.9644  0.0062 -0.5838
 1651TIP3   OH2 4958   5.903   4.602   2.016  0.1882  0.4215 -0.2441
 1651TIP3    H1 4959   5.934   4.656   1.944 -1.6330 -0.4166 -1.7524
 1651TIP3    H2 4960   5.886   4.664   2.087 -0.9076  1.7216 -1.5836
 1652TIP3   OH2 4961   1.815  -0.023   1.028 -0.0901  0.7116  0.3002
 1652TIP3    H1 4962   1.792   0.057   0.980  2.0760 -0.0017 -2.1825
 1652TIP3    H2 4963   1.875   0.007   1.096  0.6703  1.2380 -0.5769
 1653TIP3   OH2 4964   0.418   5.758   0.175  0.2240  0.3417  0.0962
 1653TIP3    H1 4965   0.394   5.762   0.268  0.2423 -2.0264  0.2563
 1653TIP3    H2 4966   0.511   5.735   0.176 -0.4900 -3.1011 -0.3886
 1654TIP3   OH2 4967   5.367   3.876   1.567  0.3710 -0.2798 -0.0431
 1654TIP3    H1 4968   5.340   3.968   1.567 -1.1694 -0.6739 -1.9622
 1654TIP3    H2 4969   5.374   3.852   1.475  0.0948 -2.2660  0.3966
 1655TIP3   OH2 4970   2.687   5.326   3.159  0.8274  0.0161 -0.0121
 1655TIP3    H1 4971   2.741   5.365   3.090  1.0791 -0.8371 -0.3126
 1655TIP3    H2 4972   2.684   5.233   3.137  0.4405 -0.1762  0.8222
 1656TIP3   OH2 4973   2.823   3.229   2.849  0.2704  0.1810  0.2476
 1656TIP3    H1 4974   2.737   3.262   2.875  0.3867  1.3843 -0.7997
 1656TIP3    H2 4975   2.825   3.139   2.881 -1.5827 -0.0359 -0.1486
 1657TIP3   OH2 4976   5.371   4.564   2.268 -0.0762 -0.2434  0.4372
 1657TIP3    H1 4977   5.439   4.501   2.244 -0.1469 -0.9203  1.9060
 1657TIP3    H2 4978   5.418   4.636   2.309 -0.1286 -0.0540  0.1668
 1658TIP3   OH2 4979   5.186   1.497   2.953  0.2624  0.1144  0.2315
 1658TIP3    H1 4980   5.214   1.567   3.012 -0.0098  2.3447 -2.1144
 1658TIP3    H2 4981   5.268   1.464   2.916  0.3268 -0.1165  0.5713
 1659TIP3   OH2 4982   5.555   3.184   0.429 -0.3766 -0.0079  0.2805
 1659TIP3    H1 4983   5.511   3.267   0.415 -0.4193 -0.1130 -0.2066
 1659TIP3    H2 4984   5.637   3.207   0.473 -0.3564  0.2940  0.0835
 1660TIP3   OH2 4985   6.220   1.094   0.231  0.0715  0.4236 -0.1903
 1660TIP3    H1 4986   6.256   1.112   0.318  1.3222  1.1220 -0.8297
 1660TIP3    H2 4987   6.209   1.181   0.191  0.9667  0.0600 -1.2804
 1661TIP3   OH2 4988   1.925   4.105   4.463 -0.5846 -0.5918  0.2816
 1661TIP3    H1 4989   1.870   4.182   4.473  0.5022  0.1884  0.5092
 1661TIP3    H2 4990   1.918   4.081   4.371  2.3629  2.4214 -0.9087
 1662TIP3   OH2 4991   3.607   2.519   5.049 -0.3886  0.0554  0.0040
 1662TIP3    H1 4992   3.678   2.575   5.081  1.3929 -2.1961  0.2465
 1662TIP3    H2 4993   3.608   2.531   4.954 -0.2972  0.7117  0.0835
 1663TIP3   OH2 4994   3.836   0.019   0.739 -0.1705  0.4884  0.2218
 1663TIP3    H1 4995   3.856   0.024   0.645  2.2268  0.2428  0.6414
 1663TIP3    H2 4996   3.913   0.056   0.782  0.0704 -1.9603  2.1543
 1664TIP3   OH2 4997   1.387   3.571   1.141 -0.4976 -0.1247 -0.4719
 1664TIP3    H1 4998   1.328   3.554   1.214 -0.4429  1.1439 -0.1087
 1664TIP3    H2 4999   1.332   3.615   1.075 -0.1113  0.5395 -0.3651
 1665TIP3   OH2 5000   5.366   1.920   1.860  0.3875 -0.0852  0.2434
 1665TIP3    H1 5001   5.306   1.995   1.858  1.1103  0.5364  1.0346
 1665TIP3    H2 5002   5.326   1.856   1.801 -0.6432  0.6190  0.1437
 1666TIP3   OH2 5003   0.832   5.226   3.000  0.7096 -0.0514  0.5764
 1666TIP3    H1 5004   0.860   5.175   2.924 -0.7192 -0.9657  0.6121
 1666TIP3    H2 5005   0.736   5.222   2.997  0.6021  1.0977  1.6405
 1667TIP3   OH2 5006   0.724   0.540   4.612  0.6654 -0.2582  0.1429
 1667TIP3    H1 5007   0.750   0.630   4.591  0.7426 -0.4752 -0.7381
 1667TIP3    H2 5008   0.807   0.493   4.620  0.6070 -0.4425 -0.3081
 1668TIP3   OH2 5009   6.287   3.151   4.512  0.4591 -0.6527  0.0226
 1668TIP3    H1 5010   6.350   3.220   4.537 -1.1908  0.6708  0.7429
 1668TIP3    H2 5011   6.245   3.127   4.594 -0.3015 -1.1610 -0.5045
 1669TIP3   OH2 5012   2.467   1.825   4.345 -0.0404  0.0149 -0.2414
 1669TIP3    H1 5013   2.546   1.879   4.348 -0.5552  0.9291 -1.7764
 1669TIP3    H2 5014   2.397   1.884   4.372 -0.1685 -0.9323  1.6078
 1670TIP3   OH2 5015   4.253   4.127   2.476  0.2688  0.2793 -0.4750
 1670TIP3    H1 5016   4.299   4.080   2.546  2.1145  1.7916 -0.5879
 1670TIP3    H2 5017   4.318   4.187   2.441 -1.5309  1.7993 -1.3845
 1671TIP3   OH2 5018   2.235  -0.002   0.181  0.3631 -0.1152  0.5456
 1671TIP3    H1 5019   2.240   0.016   0.087  1.5661  2.3715  1.0298
 1671TIP3    H2 5020   2.141  -0.004   0.199  0.0516 -2.2691 -0.9331
 1672TIP3   OH2 5021   1.885   0.972   1.682 -0.4415  0.8073  0.3679
 1672TIP3    H1 5022   1.904   1.033   1.753  0.3840  1.0103 -0.0092
 1672TIP3    H2 5023   1.819   1.015   1.629 -0.9986  0.6931  0.9622
 1673TIP3   OH2 5024   2.357   5.959   1.091  0.1100 -0.2195 -0.6625
 1673TIP3    H1 5025   2.387   5.886   1.146  1.3731  1.0798  0.4682
 1673TIP3    H2 5026   2.433   6.016   1.085 -1.2988  1.8134 -0.1187
 1674TIP3   OH2 5027   6.087   5.419   0.087  0.2014  0.5057 -0.1380
 1674TIP3    H1 5028   6.177   5.428   0.119  0.1583  0.8539 -0.1101
 1674TIP3    H2 5029   6.087   5.337   0.038 -0.0370 -0.7101  1.7934
 1675TIP3   OH2 5030   5.667   1.186   4.947 -0.1642  0.0512  0.1468
 1675TIP3    H1 5031   5.705   1.105   4.980 -0.0113  0.4055  0.8691
 1675TIP3    H2 5032   5.586   1.159   4.904 -0.3546 -0.4392  0.7845
 1676TIP3   OH2 5033   0.915   0.119   4.661  0.3331  0.3390  0.4850
 1676TIP3    H1 5034   0.998   0.158   4.689  0.9125 -0.4862 -0.0661
 1676TIP3    H2 5035   0.858   0.126   4.738  1.0117  0.6114  0.9698
 1677TIP3   OH2 5036   5.718   1.713   0.170  0.3263  0.1775 -0.0040
 1677TIP3    H1 5037   5.711   1.756   0.255 -2.6911 -1.8065  0.9508
 1677TIP3    H2 5038   5.687   1.778   0.107  1.2455  1.2094  0.5930
 1678TIP3   OH2 5039   0.084   4.343   0.532  0.1032 -0.4593 -0.1346
 1678TIP3    H1 5040   0.129   4.337   0.616 -2.3756 -1.0155  1.2343
 1678TIP3    H2 5041   0.100   4.433   0.502  2.4356 -0.7656  0.0151
 1679TIP3   OH2 5042   2.210   1.317   2.940  0.4354 -0.0881 -0.0503
 1679TIP3    H1 5043   2.158   1.261   2.997  0.0589  0.1588 -0.1490
 1679TIP3    H2 5044   2.191   1.406   2.970 -0.8008  0.1448 -1.3847
 1680TIP3   OH2 5045   5.666   1.958   0.383 -0.2542 -0.0573 -0.0207
 1680TIP3    H1 5046   5.656   2.025   0.451 -1.3732  0.4675 -0.6784
 1680TIP3    H2 5047   5.596   1.895   0.402 -0.9126  0.3682 -0.9904
 1681TIP3   OH2 5048   3.563   4.704   0.903 -0.2805  0.2237 -0.5079
 1681TIP3    H1 5049   3.506   4.684   0.829 -0.3320 -3.1037  0.2674
 1681TIP3    H2 5050   3.650   4.677   0.875  0.2745  1.7190 -0.3338
 1682TIP3   OH2 5051   3.262   3.719   1.642 -0.5964  0.2455  0.5082
 1682TIP3    H1 5052   3.287   3.692   1.554 -0.0788 -0.0348  0.7357
 1682TIP3    H2 5053   3.345   3.733   1.687 -0.8471 -0.4882  1.2190
 1683TIP3   OH2 5054   2.664   5.637   0.969 -0.0640  0.0593 -0.4292
 1683TIP3    H1 5055   2.701   5.708   1.022 -0.7264 -0.4956  0.8071
 1683TIP3    H2 5056   2.670   5.669   0.879 -0.7812  1.8953  0.1386
 1684TIP3   OH2 5057   4.687   3.912   2.769  0.6613  0.1101  0.3725
 1684TIP3    H1 5058   4.698   3.880   2.859 -2.4794 -0.4919  0.6798
 1684TIP3    H2 5059   4.737   3.851   2.715  0.0344 -1.4687  1.4973
 1685TIP3   OH2 5060   4.340   5.827   2.966 -0.2397 -0.1610 -0.4257
 1685TIP3    H1 5061   4.391   5.847   3.045 -0.5845 -0.1727 -0.1968
 1685TIP3    H2 5062   4.258   5.874   2.978  0.0250  0.4984 -1.1625
 1686TIP3   OH2 5063   1.505   3.248   0.349  0.2897 -0.0973  0.3057
 1686TIP3    H1 5064   1.504   3.255   0.445  0.7692 -1.5002  0.4407
 1686TIP3    H2 5065   1.595   3.226   0.327  0.5622  1.7807 -0.6416
 1687TIP3   OH2 5066   5.182   2.168   0.483  0.4816  0.3395 -0.0531
 1687TIP3    H1 5067   5.271   2.168   0.448  0.4912 -2.6044 -0.2426
 1687TIP3    H2 5068   5.185   2.106   0.556 -1.6288 -0.6068 -0.6985
 1688TIP3   OH2 5069   3.337   0.080   4.641  0.0239  0.1446 -0.6518
 1688TIP3    H1 5070   3.319   0.089   4.548  0.6571 -0.5856 -0.8517
 1688TIP3    H2 5071   3.262   0.033   4.676 -0.5651  1.0685 -0.6505
 1689TIP3   OH2 5072   2.327   0.171   1.643 -0.3398 -0.0813 -0.4158
 1689TIP3    H1 5073   2.418   0.193   1.624  0.5537 -2.1148  1.1245
 1689TIP3    H2 5074   2.296   0.242   1.699  1.3770 -0.8703  1.6925
 1690TIP3   OH2 5075   0.394   1.060   0.020 -0.2471 -0.2091  0.0742
 1690TIP3    H1 5076   0.432   0.975   0.040  0.8199 -0.3166 -2.1664
 1690TIP3    H2 5077   0.343   1.082   0.098  0.1858 -2.4614  1.0697
 1691TIP3   OH2 5078   0.851   3.417   0.583  0.5114 -0.0398 -0.0945
 1691TIP3    H1 5079   0.880   3.326   0.572 -0.7575 -0.6008  0.8783
 1691TIP3    H2 5080   0.809   3.418   0.669 -0.4750  1.2001 -0.5636
 1692TIP3   OH2 5081   0.364   3.659   2.421  0.2911 -0.2661  0.1276
 1692TIP3    H1 5082   0.385   3.724   2.354  1.6531 -0.0933  0.6918
 1692TIP3    H2 5083   0.349   3.578   2.372 -0.8309  0.3277 -0.5333
 1693TIP3   OH2 5084   1.273   4.969   2.767 -0.3569  0.1411 -0.0193
 1693TIP3    H1 5085   1.193   4.940   2.811 -0.8473 -0.0285 -0.9920
 1693TIP3    H2 5086   1.246   5.044   2.714  0.3608  0.7563  0.4681
 1694TIP3   OH2 5087   1.590   5.005   0.803  0.5907  0.5291 -0.0697
 1694TIP3    H1 5088   1.500   5.027   0.824  0.1563 -0.3407 -0.9213
 1694TIP3    H2 5089   1.614   5.066   0.733 -0.0543 -0.5572 -1.2778
 1695TIP3   OH2 5090   2.370   3.343   0.094  0.5165 -0.1258 -0.1231
 1695TIP3    H1 5091   2.293   3.357   0.039  1.0377 -0.7140 -1.0334
 1695TIP3    H2 5092   2.419   3.424   0.087 -0.0645  0.2957  0.5539
 1696TIP3   OH2 5093   5.655   5.434   4.334 -0.2453 -0.3986 -0.2077
 1696TIP3    H1 5094   5.642   5.342   4.313  1.6571 -0.6652 -0.3807
 1696TIP3    H2 5095   5.568   5.466   4.357 -1.1147 -1.9732 -1.1360
 1697TIP3   OH2 5096   1.962   4.728   3.242 -0.8841 -0.5023  0.3354
 1697TIP3    H1 5097   1.998   4.792   3.304  0.6099 -0.3295 -0.6657
 1697TIP3    H2 5098   1.894   4.775   3.195 -0.8087 -0.0948  0.6307
 1698TIP3   OH2 5099   3.866   1.435   3.724 -0.0404 -0.1894 -0.5165
 1698TIP3    H1 5100   3.861   1.513   3.778  0.9802 -0.7125  0.3527
 1698TIP3    H2 5101   3.786   1.438   3.670 -0.7636  0.6596  0.5644
 1699TIP3   OH2 5102   3.881   2.420   2.152  0.0010 -0.3143 -0.0093
 1699TIP3    H1 5103   3.965   2.394   2.115 -0.9574 -2.8811 -0.6339
 1699TIP3    H2 5104   3.852   2.493   2.099  1.7774  0.5758  0.1840
 1700TIP3   OH2 5105   2.670   4.923   2.761  0.8823  0.6990 -0.3358
 1700TIP3    H1 5106   2.756   4.881   2.771  0.9875  0.9389 -0.2257
 1700TIP3    H2 5107   2.686   5.015   2.781  0.4508  0.6160  0.4036
 1701TIP3   OH2 5108   0.748   2.491   4.609 -0.4161  0.0347  0.9076
 1701TIP3    H1 5109   0.759   2.554   4.537 -0.4594 -1.0092 -0.0294
 1701TIP3    H2 5110   0.664   2.517   4.649  0.6599  2.0204  2.0486
 1702TIP3   OH2 5111   2.833   4.892   1.292 -1.0441 -0.2331  0.8922
 1702TIP3    H1 5112   2.754   4.872   1.341 -1.4560 -0.1932  0.2534
 1702TIP3    H2 5113   2.903   4.891   1.357 -1.6237  0.1142  1.5262
 1703TIP3   OH2 5114   2.714   3.191   1.822 -0.0549 -0.4114 -0.3721
 1703TIP3    H1 5115   2.682   3.113   1.867 -2.7046  2.1073  2.6598
 1703TIP3    H2 5116   2.794   3.215   1.870 -0.9557  0.3353  0.8306
 1704TIP3   OH2 5117   5.836   0.866   4.654 -0.2194  0.0157  0.2309
 1704TIP3    H1 5118   5.872   0.910   4.577  1.1086 -1.9722 -0.3480
 1704TIP3    H2 5119   5.889   0.899   4.727  0.3068 -0.0915 -0.0952
 1705TIP3   OH2 5120   1.541   4.170   1.294 -0.0829  0.3266 -0.5144
 1705TIP3    H1 5121   1.513   4.086   1.330  2.7076 -0.3669  0.2748
 1705TIP3    H2 5122   1.518   4.164   1.201 -0.1067 -1.2450 -0.4423
 1706TIP3   OH2 5123   4.570   1.757   0.564 -0.0984 -0.0239 -0.5476
 1706TIP3    H1 5124   4.519   1.811   0.624  0.3092  1.0445 -1.1317
 1706TIP3    H2 5125   4.511   1.687   0.538 -0.8809  0.5330 -0.3011
 1707TIP3   OH2 5126   6.196   3.520   1.637  0.6352 -0.3712  0.3217
 1707TIP3    H1 5127   6.154   3.446   1.680  0.8393 -0.3999  0.4691
 1707TIP3    H2 5128   6.132   3.592   1.646  0.2155 -0.6614 -0.2739
 1708TIP3   OH2 5129   4.581   5.721   1.310 -0.0488  0.2093  0.2765
 1708TIP3    H1 5130   4.624   5.706   1.394 -2.0066 -1.5415  1.0798
 1708TIP3    H2 5131   4.617   5.655   1.252  0.3998  0.6060  0.1010
 1709TIP3   OH2 5132   2.565   3.018   2.364  0.4876  0.1172  0.1527
 1709TIP3    H1 5133   2.495   3.050   2.421 -0.2470 -1.9365  0.4821
 1709TIP3    H2 5134   2.524   3.008   2.278  0.9368  0.8227 -0.1560
 1710TIP3   OH2 5135   6.269   2.870   2.219 -0.2828  0.0139 -0.4902
 1710TIP3    H1 5136   6.217   2.916   2.153 -0.9798 -1.9123 -1.3605
 1710TIP3    H2 5137   6.217   2.793   2.242  1.5724 -1.3125 -0.4555
 1711TIP3   OH2 5138   0.867   2.321   4.786  0.3753 -0.2401  0.2374
 1711TIP3    H1 5139   0.825   2.395   4.741 -0.2388 -0.8693 -0.2321
 1711TIP3    H2 5140   0.949   2.309   4.740 -0.4503 -1.1754 -1.0497
 1712TIP3   OH2 5141   1.149   2.446   2.998  0.3825  0.1892  0.1194
 1712TIP3    H1 5142   1.153   2.538   3.025 -1.7396  0.1978  0.5632
 1712TIP3    H2 5143   1.176   2.397   3.075  0.5998  0.4028  0.1829
 1713TIP3   OH2 5144   5.017   1.897   0.957  0.1544 -0.3097  0.3029
 1713TIP3    H1 5145   5.065   1.969   0.916 -1.0110  0.5565  0.4302
 1713TIP3    H2 5146   5.077   1.823   0.952  0.4114 -0.0180 -2.1703
 1714TIP3   OH2 5147   3.914   2.094   0.810  0.3620 -0.6944 -0.7088
 1714TIP3    H1 5148   3.853   2.041   0.758  1.3682 -1.4018 -1.2022
 1714TIP3    H2 5149   3.901   2.065   0.900  0.5362 -1.4229 -0.9126
 1715TIP3   OH2 5150   1.058   5.223   1.566 -0.2718 -0.5866 -0.3325
 1715TIP3    H1 5151   1.012   5.222   1.482 -0.4471  0.1038 -0.2446
 1715TIP3    H2 5152   1.122   5.293   1.559 -1.4486  0.6704  0.7022
 1716TIP3   OH2 5153   6.095   2.207   4.190  0.1495 -0.0339 -0.1826
 1716TIP3    H1 5154   6.090   2.125   4.141 -0.8770 -1.5885  2.3442
 1716TIP3    H2 5155   6.005   2.227   4.213  0.0462  3.2311 -2.7449
 1717TIP3   OH2 5156   4.681   4.304   0.607 -0.3210 -0.2801  0.2289
 1717TIP3    H1 5157   4.677   4.279   0.515  0.9934  2.9120 -0.8682
 1717TIP3    H2 5158   4.774   4.301   0.629 -0.4698  0.2822  1.0007
 1718TIP3   OH2 5159   5.713   0.939   5.055  0.1772 -0.7345  0.6903
 1718TIP3    H1 5160   5.690   0.980   5.139  2.7876 -0.7248  1.5128
 1718TIP3    H2 5161   5.745   0.852   5.079 -0.3258 -1.2554 -0.4648
 1719TIP3   OH2 5162   0.505   1.915   2.918  0.0992  0.1166 -0.1896
 1719TIP3    H1 5163   0.413   1.913   2.893 -0.1539 -1.6663  0.7474
 1719TIP3    H2 5164   0.509   1.868   3.001  1.7333  0.9766  0.2714
 1720TIP3   OH2 5165   0.966   4.365   2.792 -0.3475  0.2137  0.0100
 1720TIP3    H1 5166   0.915   4.283   2.793 -0.8288  0.5007 -0.3900
 1720TIP3    H2 5167   0.957   4.400   2.881  0.1481 -0.3355  0.2865
 1721TIP3   OH2 5168   2.803   1.047   1.074 -0.2436 -0.3784 -0.9211
 1721TIP3    H1 5169   2.832   1.058   1.165 -2.5524 -1.1822  0.0112
 1721TIP3    H2 5170   2.791   1.137   1.042  1.1827 -0.0802 -0.6588
 1722TIP3   OH2 5171   5.518   1.680   4.733  0.3159 -0.4571 -0.3337
 1722TIP3    H1 5172   5.591   1.628   4.767  1.8410  1.4156 -0.5997
 1722TIP3    H2 5173   5.493   1.737   4.805  0.5069  0.3397 -0.8818
 1723TIP3   OH2 5174   2.361   0.797   4.343 -0.0947  0.5055 -0.1729
 1723TIP3    H1 5175   2.370   0.832   4.432 -1.1778 -0.5481  0.3918
 1723TIP3    H2 5176   2.399   0.863   4.286 -0.1746  1.5980  1.0106
 1724TIP3   OH2 5177   3.299   4.559   4.502  0.3440 -0.3226 -0.0902
 1724TIP3    H1 5178   3.295   4.566   4.597 -1.0106 -0.3109 -0.1245
 1724TIP3    H2 5179   3.329   4.470   4.485 -1.1180 -0.9380  0.3701
 1725TIP3   OH2 5180   5.211   4.063   4.085 -0.0058 -0.1084  0.1090
 1725TIP3    H1 5181   5.162   4.075   4.004 -1.6988  1.6271  1.3029
 1725TIP3    H2 5182   5.226   4.152   4.117  2.9878 -0.6145  0.4097
 1726TIP3   OH2 5183   4.285   5.056   4.102  0.2671 -0.2096 -0.3013
 1726TIP3    H1 5184   4.285   4.977   4.155  0.3203 -0.8281 -1.2032
 1726TIP3    H2 5185   4.345   5.115   4.147 -1.1469  0.0261  1.3846
 1727TIP3   OH2 5186   5.941   1.010   4.428  0.2740 -0.1402 -0.0592
 1727TIP3    H1 5187   6.032   0.989   4.452  0.3764 -0.1031 -0.4172
 1727TIP3    H2 5188   5.942   1.104   4.412  0.3678 -0.2853 -0.9337
 1728TIP3   OH2 5189   1.321   0.518   4.591  0.0858  0.2100 -0.0684
 1728TIP3    H1 5190   1.355   0.513   4.502  1.6542 -1.5541  0.5578
 1728TIP3    H2 5191   1.372   0.586   4.633  0.5429 -0.1406 -0.0514
 1729TIP3   OH2 5192   1.094   5.397   3.849  0.1632  0.3763  0.6906
 1729TIP3    H1 5193   1.084   5.303   3.865  2.6314  0.0980  0.8938
 1729TIP3    H2 5194   1.154   5.427   3.917  2.3483  1.3256 -1.5025
 1730TIP3   OH2 5195   2.194   1.088   2.657 -0.1165 -0.4946  0.3795
 1730TIP3    H1 5196   2.110   1.064   2.697  0.3191 -0.0988  1.5683
 1730TIP3    H2 5197   2.173   1.161   2.600 -0.3019  0.9744  2.2208
 1731TIP3   OH2 5198   2.176   4.517   1.223 -0.2227 -0.1186 -0.0425
 1731TIP3    H1 5199   2.109   4.552   1.164 -0.3878  0.4476  0.4623
 1731TIP3    H2 5200   2.168   4.571   1.302  2.1302  1.3177 -0.6707
 1732TIP3   OH2 5201   1.647   3.978   3.627 -0.1996 -0.0916  0.4547
 1732TIP3    H1 5202   1.674   4.055   3.678  1.9787 -0.7484  0.3794
 1732TIP3    H2 5203   1.684   3.904   3.674  1.2419 -0.7724 -1.6488
 1733TIP3   OH2 5204   5.352   3.444   1.948  0.1553 -0.1054  0.3478
 1733TIP3    H1 5205   5.334   3.510   2.014 -0.9538  0.1581 -0.1908
 1733TIP3    H2 5206   5.444   3.420   1.962  0.0935  0.3405  1.6059
 1734TIP3   OH2 5207   0.121   0.273   3.900 -0.2945 -0.0263  1.0640
 1734TIP3    H1 5208   0.092   0.216   3.971 -0.5297 -0.8734  0.2964
 1734TIP3    H2 5209   0.042   0.292   3.850  0.0347 -0.2726  0.4370
 1735TIP3   OH2 5210   6.269   1.746   0.648 -0.3682  0.3460  0.1270
 1735TIP3    H1 5211   6.302   1.704   0.728 -0.2270  1.5073  0.6956
 1735TIP3    H2 5212   6.325   1.823   0.637 -1.5907  1.2272 -0.0407
 1736TIP3   OH2 5213   5.212   0.178   1.672 -0.3824 -0.4487  0.2034
 1736TIP3    H1 5214   5.242   0.197   1.761  1.1186 -1.4068 -0.0467
 1736TIP3    H2 5215   5.167   0.257   1.643 -0.3589  0.0891  1.5962
 1737TIP3   OH2 5216   4.070   2.176   0.229  0.1932  0.2102 -0.4008
 1737TIP3    H1 5217   4.007   2.209   0.293  1.0763 -1.3441  1.3631
 1737TIP3    H2 5218   4.030   2.194   0.144 -1.8061  0.8407  0.6204
 1738TIP3   OH2 5219   2.374   5.149   5.182  0.5007 -0.6281  0.0558
 1738TIP3    H1 5220   2.322   5.133   5.104 -1.0282 -0.6281  1.0241
 1738TIP3    H2 5221   2.340   5.231   5.218 -0.1088 -1.5436  1.6873
 1739TIP3   OH2 5222   3.665   4.925   3.794  0.0388 -0.8079  0.4004
 1739TIP3    H1 5223   3.746   4.976   3.789  1.1787 -2.4294  1.3395
 1739TIP3    H2 5224   3.656   4.903   3.887 -1.4746 -0.6989  0.3054
 1740TIP3   OH2 5225   0.014   5.454   2.438 -0.6575 -0.1555  0.1011
 1740TIP3    H1 5226   0.102   5.418   2.441 -0.4608  0.3254  0.2468
 1740TIP3    H2 5227   0.026   5.544   2.406 -1.1544 -0.2804 -0.4563
 1741TIP3   OH2 5228   3.113   0.486   0.546  0.0863 -0.1513  0.5610
 1741TIP3    H1 5229   3.056   0.522   0.614  1.2435  0.3173  1.3279
 1741TIP3    H2 5230   3.196   0.534   0.557  0.3666 -0.2052 -1.0595
 1742TIP3   OH2 5231   2.244   3.659   4.890 -0.0687  0.3643 -0.3538
 1742TIP3    H1 5232   2.235   3.572   4.929 -1.3023  0.9196  0.6842
 1742TIP3    H2 5233   2.202   3.718   4.953 -1.1673  1.4392 -1.9978
 1743TIP3   OH2 5234   4.355   2.761   3.418 -0.8285  0.2330  0.0868
 1743TIP3    H1 5235   4.406   2.838   3.395 -0.8403  0.8275  1.9459
 1743TIP3    H2 5236   4.416   2.688   3.410  0.0170  0.7992  1.1966
 1744TIP3   OH2 5237   3.114   5.491   2.637 -0.5329  0.3998  0.5348
 1744TIP3    H1 5238   3.058   5.415   2.646 -1.9764  1.6841  4.4102
 1744TIP3    H2 5239   3.053   5.565   2.628  0.5508  1.5691  2.2306
 1745TIP3   OH2 5240   0.150   1.333   0.751  0.1205  0.0197 -0.4235
 1745TIP3    H1 5241   0.070   1.386   0.759  0.6591  1.5177 -3.4896
 1745TIP3    H2 5242   0.220   1.397   0.737  1.1794 -1.3743 -1.8653
 1746TIP3   OH2 5243   5.266   4.459   0.681 -0.1224 -0.3360 -0.6918
 1746TIP3    H1 5244   5.261   4.549   0.715  0.4329 -0.1367 -1.1047
 1746TIP3    H2 5245   5.345   4.423   0.722 -0.9193 -1.0105  0.3027
 1747TIP3   OH2 5246   1.559   0.454   2.108 -0.0485  0.5301 -0.0155
 1747TIP3    H1 5247   1.487   0.407   2.150  0.1853  0.8198  0.7248
 1747TIP3    H2 5248   1.602   0.387   2.054 -0.7816  0.3251 -0.3669
 1748TIP3   OH2 5249   5.337   3.401   2.244  0.2231  0.0604 -0.4948
 1748TIP3    H1 5250   5.327   3.355   2.328  1.9237  0.8474  0.1688
 1748TIP3    H2 5251   5.277   3.475   2.250  0.5534  0.2805  0.1537
 1749TIP3   OH2 5252   6.086   0.160   2.274  0.3290 -0.1430 -0.1910
 1749TIP3    H1 5253   6.045   0.243   2.248 -1.9233 -1.1028 -0.0024
 1749TIP3    H2 5254   6.085   0.107   2.195  0.5189 -0.4367  0.0011
 1750TIP3   OH2 5255   3.136   2.388   1.181 -0.4571 -0.1878  0.4911
 1750TIP3    H1 5256   3.178   2.467   1.146 -2.2794  0.0387 -1.4837
 1750TIP3    H2 5257   3.196   2.355   1.246  2.5111  0.3687 -1.7444
 1751TIP3   OH2 5258   2.796   1.954   2.651  0.4226 -0.4350  0.4476
 1751TIP3    H1 5259   2.789   1.904   2.570  1.3996 -1.0739  0.7428
 1751TIP3    H2 5260   2.858   2.024   2.633 -1.5475  1.2467 -0.2121
 1752TIP3   OH2 5261   0.315   2.180   0.509 -0.2331 -0.2019 -0.3454
 1752TIP3    H1 5262   0.222   2.194   0.493 -0.7060  0.0653  2.2475
 1752TIP3    H2 5263   0.342   2.255   0.561  0.9207 -1.2966  0.6987
 1753TIP3   OH2 5264   2.049   5.255   1.158 -0.1871 -0.5610 -0.2072
 1753TIP3    H1 5265   2.072   5.296   1.074  2.0140  0.2227  0.7075
 1753TIP3    H2 5266   2.087   5.167   1.152  1.4330  0.0390  0.5150
 1754TIP3   OH2 5267   4.940   5.635   1.132 -0.3604  0.0487 -0.0216
 1754TIP3    H1 5268   4.912   5.625   1.222  0.2973 -1.2349  0.0661
 1754TIP3    H2 5269   4.868   5.600   1.080 -0.0510 -0.7899  0.0935
 1755TIP3   OH2 5270   3.700   2.797   0.687 -0.1730 -0.1551 -0.8666
 1755TIP3    H1 5271   3.770   2.825   0.746 -2.6410  0.6423  1.9354
 1755TIP3    H2 5272   3.687   2.704   0.705  0.9003 -0.6177 -2.2962
 1756TIP3   OH2 5273   1.781   0.356   3.099 -0.9082 -0.2023  0.4999
 1756TIP3    H1 5274   1.723   0.418   3.143  0.2259  1.5746 -0.4198
 1756TIP3    H2 5275   1.773   0.377   3.006  0.8643 -0.1715  0.3102
 1757TIP3   OH2 5276   3.416   5.941   2.529  0.8173  0.4386 -0.0669
 1757TIP3    H1 5277   3.425   5.848   2.551 -1.4183  0.2054  0.0818
 1757TIP3    H2 5278   3.500   5.980   2.554  0.7499 -1.0002  2.7928
 1758TIP3   OH2 5279   2.462   3.598   3.362  0.1810  0.3495  0.0649
 1758TIP3    H1 5280   2.433   3.646   3.440  2.0752  1.1246  0.3573
 1758TIP3    H2 5281   2.550   3.631   3.346  1.1317 -2.2126 -0.4310
 1759TIP3   OH2 5282   6.107   4.659   1.451  0.1971  0.1869 -0.1781
 1759TIP3    H1 5283   6.137   4.582   1.403 -4.2149 -2.1431  0.2328
 1759TIP3    H2 5284   6.098   4.727   1.385  2.0753 -0.2834 -0.9814
 1760TIP3   OH2 5285   2.950   2.376   0.923 -0.2403 -0.1631  0.1090
 1760TIP3    H1 5286   2.926   2.464   0.949  0.9597 -0.0898  1.0804
 1760TIP3    H2 5287   3.027   2.355   0.977  0.3636 -1.2559 -1.1058
 1761TIP3   OH2 5288   3.889   3.097   0.252  0.2893  0.1618 -0.0641
 1761TIP3    H1 5289   3.863   3.064   0.338  0.0168 -0.6633 -0.4565
 1761TIP3    H2 5290   3.829   3.170   0.235  0.1918  0.1765  0.3412
 1762TIP3   OH2 5291   1.886   0.664   4.481  0.4386 -0.5075 -0.2400
 1762TIP3    H1 5292   1.931   0.616   4.550 -0.7048 -1.9597 -0.4484
 1762TIP3    H2 5293   1.954   0.717   4.440  0.6729  3.1128  4.0534
 1763TIP3   OH2 5294   0.438   5.891   3.665  0.4251  0.0209 -0.3707
 1763TIP3    H1 5295   0.495   5.923   3.594  1.1397  1.6986  0.8937
 1763TIP3    H2 5296   0.482   5.813   3.697  1.5208  0.7397 -0.0664
 1764TIP3   OH2 5297  -0.022   3.918   3.857 -0.6344  0.6814 -0.0676
 1764TIP3    H1 5298   0.070   3.895   3.842 -1.4594 -1.9522 -1.8279
 1764TIP3    H2 5299  -0.045   3.871   3.937 -0.2083  2.3121  1.0629
 1765TIP3   OH2 5300   2.435   4.418   1.267 -0.3361 -0.5089 -0.8594
 1765TIP3    H1 5301   2.349   4.451   1.240 -0.3355 -0.3699 -0.7009
 1765TIP3    H2 5302   2.417   4.330   1.301 -0.4716 -0.3513 -0.5120
 1766TIP3   OH2 5303   1.126   3.939   4.433  0.4280  0.1008 -0.2206
 1766TIP3    H1 5304   1.079   3.881   4.493  1.5130  0.9036  1.4740
 1766TIP3    H2 5305   1.204   3.966   4.481  0.5262  2.0782 -1.3664
 1767TIP3   OH2 5306   5.152   0.613   0.257  0.0830 -0.1481 -0.2110
 1767TIP3    H1 5307   5.100   0.582   0.183  1.4062  1.6117 -2.0053
 1767TIP3    H2 5308   5.242   0.590   0.235  0.8069  2.4985 -0.4202
 1768TIP3   OH2 5309   5.874   0.634   1.811 -0.1352  0.3481 -0.6360
 1768TIP3    H1 5310   5.891   0.569   1.742 -1.2525 -2.1997  1.3181
 1768TIP3    H2 5311   5.832   0.707   1.766 -0.0228 -0.8270 -2.7759
 1769TIP3   OH2 5312   1.845   1.234   4.781  0.3341  0.2945  0.3318
 1769TIP3    H1 5313   1.799   1.178   4.718  0.7940 -0.3384  0.5563
 1769TIP3    H2 5314   1.888   1.300   4.727  0.6313 -0.1766 -0.0124
 1770TIP3   OH2 5315   6.286   0.791   2.461 -0.4072  0.4276  0.3190
 1770TIP3    H1 5316   6.314   0.777   2.371  0.6598  0.9945  0.5491
 1770TIP3    H2 5317   6.277   0.703   2.497 -2.1416  0.1342 -0.6960
 1771TIP3   OH2 5318   3.144   5.426   3.678 -0.4537 -0.4196 -0.0190
 1771TIP3    H1 5319   3.207   5.475   3.731 -0.9283 -0.0520  0.2124
 1771TIP3    H2 5320   3.184   5.422   3.591 -1.3543  2.2476 -0.6312
 1772TIP3   OH2 5321   6.198   2.003   1.189 -0.4583  0.0138  0.1449
 1772TIP3    H1 5322   6.183   2.029   1.099  0.8042  2.1118  0.4589
 1772TIP3    H2 5323   6.287   2.033   1.208 -0.3647 -1.1772  1.8194
 1773TIP3   OH2 5324   2.459   5.575   0.255 -0.2638  0.1408  0.1522
 1773TIP3    H1 5325   2.487   5.662   0.228 -0.7504 -0.1133 -1.2451
 1773TIP3    H2 5326   2.374   5.562   0.212  0.1723 -1.3325 -0.3542
 1774TIP3   OH2 5327   3.416   1.071   4.258 -0.4924 -0.1018  0.2455
 1774TIP3    H1 5328   3.433   1.097   4.348 -0.1076 -0.5984  0.3189
 1774TIP3    H2 5329   3.383   0.982   4.264 -1.2889  0.1599 -0.0481
 1775TIP3   OH2 5330   3.637   1.435   3.598  0.3409  0.3224  0.0141
 1775TIP3    H1 5331   3.626   1.347   3.563 -0.4571  0.1787  0.5902
 1775TIP3    H2 5332   3.549   1.473   3.598  1.0107  2.2650 -3.0149
 1776TIP3   OH2 5333   1.664   4.663   4.259 -0.3273  0.0657 -0.3494
 1776TIP3    H1 5334   1.622   4.583   4.225 -0.5555  0.5491 -1.2394
 1776TIP3    H2 5335   1.737   4.679   4.198  0.0180  0.2652  0.1128
 1777TIP3   OH2 5336   1.611   0.138   2.381  0.7831 -0.1487 -0.2706
 1777TIP3    H1 5337   1.659   0.196   2.440  0.8122  1.0339 -1.4157
 1777TIP3    H2 5338   1.672   0.065   2.366  0.2203 -1.2467  2.2554
 1778TIP3   OH2 5339   2.671   0.715   0.825  0.4114 -0.4602 -0.4991
 1778TIP3    H1 5340   2.719   0.785   0.869 -2.1560 -0.3838  2.5159
 1778TIP3    H2 5341   2.637   0.756   0.745  0.0391  1.3728  0.5468
 1779TIP3   OH2 5342   5.915   3.456   3.325  0.2509 -0.3506  0.1911
 1779TIP3    H1 5343   5.929   3.478   3.418  3.2506 -0.3167 -0.1763
 1779TIP3    H2 5344   5.942   3.365   3.317  1.1395 -0.0146 -0.8519
 1780TIP3   OH2 5345   0.777   1.570   4.789 -0.2459  0.2297  0.0363
 1780TIP3    H1 5346   0.790   1.586   4.883 -1.4719 -0.2473  0.3158
 1780TIP3    H2 5347   0.808   1.650   4.747  1.4555 -0.0187  0.7326
 1781TIP3   OH2 5348   2.494   0.920   0.348 -0.4148  0.2426 -0.4360
 1781TIP3    H1 5349   2.454   0.998   0.310 -2.6757  0.2047  1.6782
 1781TIP3    H2 5350   2.441   0.847   0.317 -0.4261 -0.0905  0.3351
 1782TIP3   OH2 5351   5.053   5.952   4.440 -0.3101  0.1861 -0.2441
 1782TIP3    H1 5352   5.074   5.984   4.528 -0.3348 -0.7306  0.1033
 1782TIP3    H2 5353   5.130   5.901   4.414  0.4222  1.7913 -1.4553
 1783TIP3   OH2 5354   4.107   2.931   4.791  0.0615  0.3472  0.0175
 1783TIP3    H1 5355   4.145   2.886   4.866  0.4952 -2.1423 -1.5569
 1783TIP3    H2 5356   4.022   2.888   4.778  0.0429  0.6492 -0.9637
 1784TIP3   OH2 5357   1.239   4.175   2.160  0.0001 -0.1004 -0.0308
 1784TIP3    H1 5358   1.177   4.127   2.105 -0.8772  1.0644 -0.1083
 1784TIP3    H2 5359   1.199   4.261   2.170  1.9107  0.8888 -0.5474
 1785TIP3   OH2 5360   1.962   4.979   2.697  0.3435  0.4145 -0.1714
 1785TIP3    H1 5361   1.900   5.052   2.695 -0.3473 -0.1618 -0.1917
 1785TIP3    H2 5362   1.915   4.906   2.657  0.7272 -0.2587  0.5664
 1786TIP3   OH2 5363   1.868   3.246   2.949  0.1201  0.0642 -0.1025
 1786TIP3    H1 5364   1.785   3.255   2.902  0.2393  0.8495 -0.1876
 1786TIP3    H2 5365   1.852   3.288   3.034  0.4481  0.2741 -0.1435
 1787TIP3   OH2 5366   1.824   0.203   0.871  0.6955 -0.3763  0.1543
 1787TIP3    H1 5367   1.733   0.229   0.861  0.7815 -0.5893 -1.3988
 1787TIP3    H2 5368   1.874   0.281   0.845  0.9470 -1.6342 -3.7076
 1788TIP3   OH2 5369   5.019   0.550   3.002 -0.0282 -0.0554 -0.6026
 1788TIP3    H1 5370   5.100   0.600   3.011  0.9973 -1.0441 -3.3767
 1788TIP3    H2 5371   4.989   0.569   2.914 -2.9050  0.2788  0.3391
 1789TIP3   OH2 5372   4.156   0.633   1.013 -0.5841  0.3784 -0.0254
 1789TIP3    H1 5373   4.090   0.623   1.082 -1.3463  1.9395 -0.4784
 1789TIP3    H2 5374   4.110   0.680   0.943  1.0520  1.7094 -0.2692
 1790TIP3   OH2 5375   3.514   4.813   4.680 -0.0704  0.4606 -0.1274
 1790TIP3    H1 5376   3.439   4.872   4.684 -1.2968 -1.0546  0.2527
 1790TIP3    H2 5377   3.528   4.785   4.770  0.2741 -0.0768 -0.3403
 1791TIP3   OH2 5378   0.945   4.676   4.124  0.2722 -0.0349 -0.3986
 1791TIP3    H1 5379   0.875   4.737   4.144 -0.8009 -1.5696  0.7670
 1791TIP3    H2 5380   1.013   4.694   4.190  0.0610  0.0442 -0.2021
 1792TIP3   OH2 5381   1.095   5.105   1.151 -0.3899 -0.5140 -0.0649
 1792TIP3    H1 5382   1.060   5.138   1.234 -2.3785  0.2887 -1.1549
 1792TIP3    H2 5383   1.021   5.108   1.091  1.7975  2.7321 -2.9838
 1793TIP3   OH2 5384   0.109   3.892   0.539 -0.0276 -0.0271 -0.4320
 1793TIP3    H1 5385   0.019   3.913   0.562  0.1626  1.7926 -1.1936
 1793TIP3    H2 5386   0.157   3.975   0.549  0.4776  0.5063 -5.1375
 1794TIP3   OH2 5387   3.126   0.532   4.786 -0.8326 -0.8714 -0.3684
 1794TIP3    H1 5388   3.039   0.498   4.766 -1.0684  0.3111 -1.4566
 1794TIP3    H2 5389   3.163   0.557   4.702  0.0257 -0.0893  0.2185
 1795TIP3   OH2 5390   3.470   4.895   2.606  0.0355 -0.1348  0.0861
 1795TIP3    H1 5391   3.546   4.859   2.559  1.3057  1.0324  1.1765
 1795TIP3    H2 5392   3.481   4.989   2.600 -1.6990  0.0805 -0.2512
 1796TIP3   OH2 5393   1.467   4.641   3.611 -0.4187 -0.1428 -0.4577
 1796TIP3    H1 5394   1.412   4.664   3.686 -2.0340 -1.5565 -1.1293
 1796TIP3    H2 5395   1.451   4.547   3.598  1.2833 -0.3417 -1.4209
 1797TIP3   OH2 5396   4.746   1.655   2.526  0.0070  0.2587 -0.7846
 1797TIP3    H1 5397   4.711   1.575   2.566 -0.0677  0.5785 -0.1888
 1797TIP3    H2 5398   4.837   1.659   2.556 -0.4699  1.2875  0.6360
 1798TIP3   OH2 5399   2.550   1.729   1.566 -0.2970 -0.5382  0.4159
 1798TIP3    H1 5400   2.604   1.805   1.586 -0.1464 -0.3015 -0.7712
 1798TIP3    H2 5401   2.577   1.662   1.628 -1.0152  0.6251  2.0375
 1799TIP3   OH2 5402   3.796   1.900   2.083 -0.5677  0.7753  0.3806
 1799TIP3    H1 5403   3.796   1.994   2.065 -1.3751  0.9107  1.0583
 1799TIP3    H2 5404   3.837   1.891   2.169 -2.4359  0.7338  1.3140
 1800TIP3   OH2 5405   3.070   2.920   4.405 -0.0570  0.1458  0.4711
 1800TIP3    H1 5406   3.088   2.846   4.347 -0.7347  0.6049 -0.3449
 1800TIP3    H2 5407   2.978   2.940   4.391 -0.1286  0.5243  1.4212
 1801TIP3   OH2 5408   4.325   4.783   3.418  0.2468  0.2499  0.3075
 1801TIP3    H1 5409   4.408   4.764   3.375  0.0826 -1.4112  0.6503
 1801TIP3    H2 5410   4.349   4.808   3.508  0.3789 -0.3350  0.4384
 1802TIP3   OH2 5411   3.587   1.071   2.212  0.1215 -0.2581  0.6173
 1802TIP3    H1 5412   3.617   1.104   2.128 -0.1085 -2.9817 -0.6464
 1802TIP3    H2 5413   3.514   1.128   2.236  1.2102  1.5626 -0.1679
 1803TIP3   OH2 5414   4.950   3.413   2.360  0.4318  0.0112 -0.1013
 1803TIP3    H1 5415   4.941   3.330   2.405  0.1139  0.9417  1.6205
 1803TIP3    H2 5416   4.976   3.389   2.271  0.2998 -1.9110  0.3363
 1804TIP3   OH2 5417   1.994   5.210   0.634 -0.4635 -0.2675  0.4509
 1804TIP3    H1 5418   2.018   5.145   0.568 -0.1554  0.3086 -0.0167
 1804TIP3    H2 5419   1.948   5.160   0.702  0.3740 -1.0842  0.4325
 1805TIP3   OH2 5420   2.236   0.632   2.785 -0.1513  0.7685  0.3578
 1805TIP3    H1 5421   2.269   0.666   2.702 -2.4907  0.6614 -0.6754
 1805TIP3    H2 5422   2.256   0.701   2.849  1.3641  1.0007 -0.3317
 1806TIP3   OH2 5423   0.093   2.215   2.349 -0.4038 -0.1336 -0.7215
 1806TIP3    H1 5424   0.113   2.304   2.378  0.6697 -0.1389 -1.4305
 1806TIP3    H2 5425   0.058   2.172   2.428 -0.8055  0.8596 -0.3366
 1807TIP3   OH2 5426   5.431   5.680   4.846 -0.1053 -0.1938 -0.0939
 1807TIP3    H1 5427   5.375   5.732   4.903 -1.3257 -2.7407  1.1554
 1807TIP3    H2 5428   5.516   5.723   4.851 -1.0228  1.6536  0.8491
 1808TIP3   OH2 5429   0.532   5.718   4.666  0.1240  0.3016  0.6043
 1808TIP3    H1 5430   0.580   5.669   4.599 -0.0526 -1.0005  1.4072
 1808TIP3    H2 5431   0.511   5.653   4.733  0.8639  1.7054  2.2576
 1809TIP3   OH2 5432   6.015   5.759   3.629 -0.1786  0.4437  0.3659
 1809TIP3    H1 5433   5.958   5.828   3.664 -0.5760  1.1731 -1.6217
 1809TIP3    H2 5434   6.078   5.805   3.573 -1.1534 -0.8466 -1.9164
 1810TIP3   OH2 5435   4.838   5.910   0.602 -0.5002 -0.0281  0.0802
 1810TIP3    H1 5436   4.889   5.837   0.567 -1.1301 -0.1580 -0.6110
 1810TIP3    H2 5437   4.850   5.905   0.697 -1.6452 -1.9089  0.1783
 1811TIP3   OH2 5438   4.868   3.461   2.921  0.3338 -0.1956 -0.9172
 1811TIP3    H1 5439   4.916   3.511   2.986 -0.2240 -0.3747 -0.3605
 1811TIP3    H2 5440   4.904   3.490   2.837  0.5116  0.6110 -0.5721
 1812TIP3   OH2 5441   5.102   1.168   0.772  0.2724  0.5906 -0.4786
 1812TIP3    H1 5442   5.137   1.251   0.804 -1.3162  1.0532  0.1549
 1812TIP3    H2 5443   5.037   1.193   0.706 -0.0346 -0.1627 -0.4712
 1813TIP3   OH2 5444   2.867   3.476   3.550 -0.0161  0.7467  0.4102
 1813TIP3    H1 5445   2.943   3.514   3.594 -0.1568  0.4985  0.8713
 1813TIP3    H2 5446   2.796   3.538   3.564  0.0677  0.9185  0.0852
 1814TIP3   OH2 5447   2.481   1.067   3.597 -0.5161 -0.1276 -0.2658
 1814TIP3    H1 5448   2.456   0.989   3.646  0.1640 -0.7064 -0.8176
 1814TIP3    H2 5449   2.570   1.049   3.568 -0.6259  0.5452 -1.0379
 1815TIP3   OH2 5450   4.453   1.529   0.795  0.2333  0.2419 -0.2065
 1815TIP3    H1 5451   4.412   1.560   0.876  0.1813 -1.0252  0.2726
 1815TIP3    H2 5452   4.467   1.608   0.744 -1.4579  0.8810  0.2380
 1816TIP3   OH2 5453   2.885   5.519   2.058 -0.6227  0.0698 -0.4925
 1816TIP3    H1 5454   2.847   5.569   2.130 -1.7073 -1.5881  0.1316
 1816TIP3    H2 5455   2.972   5.493   2.089 -0.9369 -0.3162  0.0828
 1817TIP3   OH2 5456   4.622   4.151   1.666 -0.2246 -0.1713  0.0208
 1817TIP3    H1 5457   4.698   4.207   1.653 -0.1173 -0.2238  0.4178
 1817TIP3    H2 5458   4.574   4.190   1.739  0.8958 -1.6788  1.6300
 1818TIP3   OH2 5459   3.816   2.897   3.701  0.0316  0.6074 -0.0105
 1818TIP3    H1 5460   3.887   2.961   3.696 -0.6562  1.5386  1.6382
 1818TIP3    H2 5461   3.747   2.934   3.645  1.2915 -1.0618 -2.9405
 1819TIP3   OH2 5462   0.230   3.029   0.974 -0.2977 -0.4110 -0.3567
 1819TIP3    H1 5463   0.245   3.123   0.974  0.2116 -0.4885 -0.3133
 1819TIP3    H2 5464   0.143   3.018   0.936  0.7370 -0.0975 -3.0401
 1820TIP3   OH2 5465   4.587   3.024   3.951  0.7415 -0.2830  0.3894
 1820TIP3    H1 5466   4.506   2.974   3.950  0.7086 -0.2385  0.6590
 1820TIP3    H2 5467   4.648   2.972   3.898  0.7308 -0.6457  0.7292
 1821TIP3   OH2 5468   2.868   1.211   1.709 -0.6756  0.2532  0.0051
 1821TIP3    H1 5469   2.945   1.255   1.744  0.0076 -1.5767  0.9496
 1821TIP3    H2 5470   2.843   1.263   1.633 -0.7095  2.9456  1.7375
 1822TIP3   OH2 5471   3.792   1.098   3.792  0.2986  0.3038  0.3097
 1822TIP3    H1 5472   3.878   1.138   3.780 -0.5221  2.1551  0.2367
 1822TIP3    H2 5473   3.753   1.100   3.705 -0.5333  1.2825  0.6856
 1823TIP3   OH2 5474   3.984   2.968   3.394 -0.7557  0.2600 -0.4761
 1823TIP3    H1 5475   3.922   2.938   3.327 -0.2743  1.2349 -1.3969
 1823TIP3    H2 5476   3.993   3.062   3.377  0.5007  0.2504  0.0310
 1824TIP3   OH2 5477   5.521   4.032   0.072 -0.8191 -0.1660 -0.2243
 1824TIP3    H1 5478   5.430   4.003   0.067 -0.7224 -0.3908 -0.8112
 1824TIP3    H2 5479   5.548   4.042  -0.019 -0.1224 -0.5226 -0.0680
 1825TIP3   OH2 5480   3.756   3.579   1.479 -0.3289  0.1935 -0.6662
 1825TIP3    H1 5481   3.840   3.558   1.521 -1.0917 -1.0814  0.2948
 1825TIP3    H2 5482   3.779   3.594   1.387  0.7576 -1.9516 -0.8220
 1826TIP3   OH2 5483   4.829   3.073   0.396 -0.5474  0.4917 -0.3336
 1826TIP3    H1 5484   4.812   3.078   0.490  0.2286 -0.4297 -0.1304
 1826TIP3    H2 5485   4.854   2.982   0.381  0.0497  0.8045 -1.3114
 1827TIP3   OH2 5486   3.835   4.155   0.078  0.3188 -0.9154 -0.0971
 1827TIP3    H1 5487   3.782   4.211   0.022  0.7962 -0.5563 -0.2017
 1827TIP3    H2 5488   3.883   4.098   0.018  0.1044 -1.1923 -0.0076
 1828TIP3   OH2 5489   3.158   2.504   2.971 -0.3907 -0.7618 -0.1566
 1828TIP3    H1 5490   3.205   2.424   2.995  2.1816  1.2062  2.0824
 1828TIP3    H2 5491   3.225   2.559   2.930 -1.3988  1.1315  0.5950
 1829TIP3   OH2 5492   0.882   1.788   3.364 -0.2143 -0.4091 -0.2487
 1829TIP3    H1 5493   0.914   1.826   3.282 -0.2346  0.1832  0.0099
 1829TIP3    H2 5494   0.789   1.810   3.365  0.3171  2.1471  1.2756
 1830TIP3   OH2 5495   3.077   2.761   5.051  0.5910  0.4540 -0.2652
 1830TIP3    H1 5496   3.068   2.856   5.057 -0.2169  0.5342 -2.0703
 1830TIP3    H2 5497   3.139   2.748   4.979 -0.9965 -0.3621 -1.5533
 1831TIP3   OH2 5498   4.744   3.262   2.698  0.5579 -0.1385 -0.1388
 1831TIP3    H1 5499   4.764   3.355   2.684 -0.5247 -0.0521 -1.3011
 1831TIP3    H2 5500   4.777   3.219   2.619 -1.4228 -0.3248 -0.9209
 1832TIP3   OH2 5501   3.670   2.790   2.334  0.0665  0.0123 -0.4069
 1832TIP3    H1 5502   3.757   2.821   2.358 -0.1884 -1.0199  2.2437
 1832TIP3    H2 5503   3.670   2.698   2.361 -2.2266  0.3269  0.9567
 1833TIP3   OH2 5504   5.567   2.891   0.858 -0.0143  0.0497 -0.4480
 1833TIP3    H1 5505   5.580   2.982   0.883 -0.5239 -0.1858  0.7079
 1833TIP3    H2 5506   5.643   2.870   0.803 -0.0234  1.2333 -0.9344
 1834TIP3   OH2 5507   2.395   1.043   4.095 -0.1258 -0.4149 -0.1106
 1834TIP3    H1 5508   2.371   1.068   4.184 -0.1670  0.0773 -0.2544
 1834TIP3    H2 5509   2.484   1.074   4.084 -1.1535  2.4562 -1.2838
 1835TIP3   OH2 5510   3.136   5.177   4.029 -0.0307  0.2382  0.3308
 1835TIP3    H1 5511   3.070   5.240   4.002  1.4144  0.6513 -2.6439
 1835TIP3    H2 5512   3.200   5.228   4.078 -0.0878  0.6128  0.0191
 1836TIP3   OH2 5513   5.404   0.560   2.018 -0.1561 -0.1645 -0.0781
 1836TIP3    H1 5514   5.436   0.547   2.108 -0.9702 -1.7346  0.0161
 1836TIP3    H2 5515   5.367   0.475   1.993  0.4657  0.0969 -2.0814
 1837TIP3   OH2 5516   3.150   1.126   3.299 -0.2654  0.3693 -0.0539
 1837TIP3    H1 5517   3.136   1.064   3.228  0.0469  0.4624 -0.1994
 1837TIP3    H2 5518   3.063   1.162   3.317 -0.2431  0.8589 -0.8657
 1838TIP3   OH2 5519   2.196   4.985   1.207  0.5487 -0.5325  1.0448
 1838TIP3    H1 5520   2.241   4.918   1.157  0.2387  1.1974 -1.8051
 1838TIP3    H2 5521   2.265   5.032   1.254  0.9609 -1.6239  1.5394
 1839TIP3   OH2 5522   0.728   0.307   0.632  0.7788 -0.4411  0.6541
 1839TIP3    H1 5523   0.732   0.328   0.725  0.8153 -1.2217  0.8327
 1839TIP3    H2 5524   0.635   0.318   0.609  0.6242 -1.0305  0.9752
 1840TIP3   OH2 5525   4.247   3.143   4.702 -0.3354  0.5136  0.1529
 1840TIP3    H1 5526   4.217   3.053   4.707  0.1652  0.3987  2.5913
 1840TIP3    H2 5527   4.185   3.192   4.756  0.1921  1.3808  0.0042
 1841TIP3   OH2 5528   1.751   4.316   1.655 -0.0477  0.7949 -0.4502
 1841TIP3    H1 5529   1.679   4.337   1.714 -0.3613 -0.0506 -0.5238
 1841TIP3    H2 5530   1.712   4.259   1.588  0.5609  0.7841 -0.8057
 1842TIP3   OH2 5531   2.110   4.654   3.849  1.0917  0.0809 -0.0082
 1842TIP3    H1 5532   2.120   4.578   3.905 -0.6293 -0.2700 -0.1052
 1842TIP3    H2 5533   2.199   4.677   3.821  1.7600 -0.9917  1.1829
 1843TIP3   OH2 5534   2.221   3.386   2.804 -0.4556 -0.3511  0.8185
 1843TIP3    H1 5535   2.198   3.424   2.888 -0.5242 -0.9497  1.0741
 1843TIP3    H2 5536   2.276   3.453   2.762 -1.2092  0.3512  0.9283
 1844TIP3   OH2 5537   4.016   4.680   3.057  0.2371 -0.1158 -0.4009
 1844TIP3    H1 5538   4.002   4.590   3.028 -0.1662 -0.5170  0.9560
 1844TIP3    H2 5539   4.055   4.671   3.145  2.1791  1.0295 -1.0701
 1845TIP3   OH2 5540   2.987   4.769   5.061  0.1463 -0.1882 -0.0964
 1845TIP3    H1 5541   3.033   4.689   5.087 -0.2781  0.2075  2.0322
 1845TIP3    H2 5542   2.909   4.771   5.116  0.6235  2.1770  0.6048
 1846TIP3   OH2 5543   4.122   5.108   1.992 -0.4463 -0.1979  0.2651
 1846TIP3    H1 5544   4.174   5.029   1.979  0.4447  0.5155 -0.7555
 1846TIP3    H2 5545   4.182   5.170   2.033 -0.4100  0.6800 -1.0425
 1847TIP3   OH2 5546   4.392   0.392   3.604 -0.4396 -0.1124 -0.3987
 1847TIP3    H1 5547   4.397   0.451   3.679 -1.2441  0.3035 -0.6541
 1847TIP3    H2 5548   4.474   0.405   3.556 -1.4626  2.4341 -1.6245
 1848TIP3   OH2 5549   5.810   3.843   3.336  0.1770 -0.1505 -0.5590
 1848TIP3    H1 5550   5.780   3.897   3.409 -2.0095 -1.4327 -0.3950
 1848TIP3    H2 5551   5.894   3.808   3.364  0.5896  1.3971  0.2324
 1849TIP3   OH2 5552   0.654   3.363   0.812  0.5755  0.0894  0.2437
 1849TIP3    H1 5553   0.655   3.267   0.803 -0.3623  0.1229 -0.2390
 1849TIP3    H2 5554   0.563   3.388   0.798  0.4777  0.9008  2.0329
 1850TIP3   OH2 5555   2.331   2.835   4.627  0.0212 -0.3432  0.6162
 1850TIP3    H1 5556   2.349   2.882   4.546 -0.4860  0.8959  1.1959
 1850TIP3    H2 5557   2.261   2.774   4.604  1.4702 -1.6858 -0.4271
 1851TIP3   OH2 5558   1.739   2.167   2.553 -1.0192  0.3916  0.6981
 1851TIP3    H1 5559   1.778   2.166   2.640 -0.6872  1.2244  0.5637
 1851TIP3    H2 5560   1.657   2.214   2.565 -0.2636  1.8502  0.2740
 1852TIP3   OH2 5561   0.859   2.062   2.042  0.5498  0.2710 -0.2746
 1852TIP3    H1 5562   0.765   2.066   2.059  0.3255 -2.6351 -0.3507
 1852TIP3    H2 5563   0.899   2.104   2.118 -0.7791  2.0947 -0.5299
 1853TIP3   OH2 5564   0.142   2.052   1.170 -0.2431 -0.2551  0.8099
 1853TIP3    H1 5565   0.168   2.112   1.239  0.6746 -1.3475  1.4511
 1853TIP3    H2 5566   0.189   1.971   1.190  0.1107 -0.5798 -1.1385
 1854TIP3   OH2 5567   2.671   1.506   1.638  0.0763  0.1132  0.5862
 1854TIP3    H1 5568   2.593   1.456   1.611  0.0771  0.6662 -0.4992
 1854TIP3    H2 5569   2.726   1.507   1.560 -0.3412  2.5845  0.2670
 1855TIP3   OH2 5570   2.285   4.857   0.005 -0.5990 -0.2094 -0.4335
 1855TIP3    H1 5571   2.337   4.804  -0.055 -0.6528  0.6466 -1.2738
 1855TIP3    H2 5572   2.276   4.803   0.083  0.2381 -0.9955 -0.8526
 1856TIP3   OH2 5573   1.468   0.985   2.333 -0.0755 -0.0087 -0.3183
 1856TIP3    H1 5574   1.423   0.901   2.331  2.2282 -1.3320 -1.1488
 1856TIP3    H2 5575   1.561   0.962   2.330  0.6770  2.5564  0.6774
 1857TIP3   OH2 5576   0.056   2.161   0.554 -0.1404 -0.0673 -0.0197
 1857TIP3    H1 5577   0.041   2.088   0.613 -1.0596  1.3975  1.6377
 1857TIP3    H2 5578  -0.025   2.169   0.504  0.0019 -0.2474 -0.2806
 1858TIP3   OH2 5579   5.759   2.697   2.964  0.3936 -0.1524  0.1842
 1858TIP3    H1 5580   5.726   2.607   2.964 -0.9350  0.3176 -0.7263
 1858TIP3    H2 5581   5.819   2.700   2.889 -1.2099  0.2706 -1.1316
 1859TIP3   OH2 5582   4.636   5.309   0.355 -0.3491  0.0928 -0.0558
 1859TIP3    H1 5583   4.637   5.399   0.386 -0.0434  1.0422 -2.5639
 1859TIP3    H2 5584   4.573   5.309   0.283  1.0651 -1.1934 -1.3803
 1860TIP3   OH2 5585   1.066   5.512   0.301 -0.1182 -0.1767 -0.2450
 1860TIP3    H1 5586   1.045   5.495   0.210  0.6606  2.2901 -0.9723
 1860TIP3    H2 5587   1.050   5.606   0.312 -0.4102 -0.4514  2.2305
 1861TIP3   OH2 5588   6.071   2.884   4.222 -0.0123  0.4094 -0.0468
 1861TIP3    H1 5589   6.018   2.940   4.165  0.8518 -0.9498 -2.2860
 1861TIP3    H2 5590   6.072   2.799   4.179  1.1684 -0.5423  1.7311
 1862TIP3   OH2 5591   3.417   1.267   3.607 -0.1264  0.0384 -0.4868
 1862TIP3    H1 5592   3.408   1.188   3.661  0.0382  0.8940  0.8216
 1862TIP3    H2 5593   3.424   1.339   3.670  1.0004  0.9716 -1.6346
 1863TIP3   OH2 5594   2.616   1.008   1.515 -0.3669  0.0193  0.0037
 1863TIP3    H1 5595   2.541   0.949   1.520 -0.9065  0.4356 -2.1409
 1863TIP3    H2 5596   2.641   1.023   1.607 -2.1439 -1.0634  0.7204
 1864TIP3   OH2 5597   4.094   2.474   0.885  0.3454 -0.4745 -0.0164
 1864TIP3    H1 5598   4.058   2.445   0.969 -2.9788 -1.8077 -1.7041
 1864TIP3    H2 5599   4.144   2.399   0.853  1.1696 -0.1575  0.5023
 1865TIP3   OH2 5600   3.070   3.551   2.563  0.2144 -0.8173  0.1286
 1865TIP3    H1 5601   3.121   3.620   2.519  1.2187 -1.1866  0.6829
 1865TIP3    H2 5602   3.097   3.470   2.520 -0.2717 -0.9721  0.1085
 1866TIP3   OH2 5603   0.464   3.696   1.546  0.0911  0.8745 -0.4276
 1866TIP3    H1 5604   0.462   3.616   1.599  2.3947 -0.0795 -1.6616
 1866TIP3    H2 5605   0.445   3.766   1.609  0.2329 -0.4282  1.1440
 1867TIP3   OH2 5606   4.952   3.725   3.857  0.1094  0.5126  0.1134
 1867TIP3    H1 5607   4.962   3.792   3.790 -2.2253  0.3737 -0.4838
 1867TIP3    H2 5608   4.995   3.648   3.820  0.1936  0.8626 -0.5338
 1868TIP3   OH2 5609   1.044   2.912   2.632 -0.3593  0.7327  0.0055
 1868TIP3    H1 5610   1.078   2.895   2.544 -0.1668  1.5055 -0.0843
 1868TIP3    H2 5611   1.039   2.826   2.673 -1.0223  0.2860 -0.9668
 1869TIP3   OH2 5612   2.804   4.307   3.808 -0.1167 -0.1290 -0.3343
 1869TIP3    H1 5613   2.802   4.261   3.892 -2.1460 -1.0013 -0.8108
 1869TIP3    H2 5614   2.869   4.376   3.821  0.7945 -1.2338  1.4073
 1870TIP3   OH2 5615   5.534   4.774   2.339 -0.3829  0.5486 -0.3638
 1870TIP3    H1 5616   5.553   4.704   2.401 -0.1049 -1.6936 -2.7925
 1870TIP3    H2 5617   5.617   4.787   2.292 -0.3644  2.7435  0.1781
 1871TIP3   OH2 5618   1.802   3.522   2.219  0.5400 -0.2721  0.1131
 1871TIP3    H1 5619   1.723   3.574   2.203  0.1288 -0.4688  1.4348
 1871TIP3    H2 5620   1.836   3.505   2.131  0.7926  2.3289 -0.3785
 1872TIP3   OH2 5621   5.512   5.144   3.751 -0.5947 -0.2497  0.3229
 1872TIP3    H1 5622   5.534   5.228   3.711  0.1841 -1.0446 -1.0323
 1872TIP3    H2 5623   5.573   5.082   3.710  0.0520 -1.1879  2.5918
 1873TIP3   OH2 5624   0.461   3.300   1.709 -0.3195  0.2875  0.0504
 1873TIP3    H1 5625   0.493   3.224   1.661 -0.3846  2.2100 -3.3527
 1873TIP3    H2 5626   0.532   3.321   1.769  0.6590 -1.1169 -0.5441
 1874TIP3   OH2 5627   6.285   2.998   0.873 -0.5117 -0.0471 -0.4102
 1874TIP3    H1 5628   6.199   2.959   0.887 -1.5562  2.0682 -0.6757
 1874TIP3    H2 5629   6.277   3.046   0.791  0.7623  0.6051 -0.1782
 1875TIP3   OH2 5630   2.995   5.364   3.907  1.2105 -0.0517 -0.1239
 1875TIP3    H1 5631   3.032   5.377   3.820  0.6763  1.7436 -0.1222
 1875TIP3    H2 5632   2.901   5.354   3.892  1.2091 -0.5566  0.1899
 1876TIP3   OH2 5633   0.010   5.142   2.572 -0.3809 -0.9734 -0.2662
 1876TIP3    H1 5634   0.092   5.139   2.522 -0.2683  0.5865 -0.2385
 1876TIP3    H2 5635   0.022   5.214   2.634 -1.5811 -1.0551  0.0906
 1877TIP3   OH2 5636   5.879   1.635   2.904 -0.3050 -0.1258  0.6297
 1877TIP3    H1 5637   5.860   1.548   2.938 -2.4803  0.1274  0.1954
 1877TIP3    H2 5638   5.907   1.685   2.981 -1.2410 -0.6289  1.3207
 1878TIP3   OH2 5639   5.449   1.230   4.299  0.4711 -0.1306  0.1953
 1878TIP3    H1 5640   5.427   1.322   4.282  1.3373  0.3262  1.4186
 1878TIP3    H2 5641   5.542   1.224   4.274 -0.0819 -1.2045 -1.8009
 1879TIP3   OH2 5642   2.869   2.822   3.576 -0.0483  0.3965 -0.6153
 1879TIP3    H1 5643   2.909   2.862   3.499 -0.5420  1.3387 -0.4059
 1879TIP3    H2 5644   2.931   2.838   3.646  0.8799 -1.3536 -0.9829
 1880TIP3   OH2 5645   2.334   4.450   2.764 -0.3273  0.2588  0.0582
 1880TIP3    H1 5646   2.307   4.456   2.855  1.3633  0.2581  0.6057
 1880TIP3    H2 5647   2.374   4.535   2.745 -1.7834  0.7331 -1.1124
 1881TIP3   OH2 5648   1.276   4.680   3.825  0.3836  0.4003 -0.5450
 1881TIP3    H1 5649   1.255   4.590   3.849 -2.7479  1.1736  0.0458
 1881TIP3    H2 5650   1.343   4.706   3.888  0.3790 -1.1116  0.1267
 1882TIP3   OH2 5651   4.449   5.539   2.352  0.6974  0.1428 -0.1114
 1882TIP3    H1 5652   4.460   5.625   2.312 -1.7695  1.3444  1.5527
 1882TIP3    H2 5653   4.417   5.484   2.281  0.6631  1.0322 -0.8040
 1883TIP3   OH2 5654   0.033   5.575   3.152  0.6545 -0.0649  0.8353
 1883TIP3    H1 5655   0.073   5.488   3.143  0.1780 -0.2630  0.6009
 1883TIP3    H2 5656  -0.003   5.594   3.065 -0.2823 -0.1543  1.1896
 1884TIP3   OH2 5657   6.089   2.123   3.130  0.3710 -0.7856 -0.1433
 1884TIP3    H1 5658   6.023   2.059   3.105  0.5858 -0.7196 -0.8878
 1884TIP3    H2 5659   6.139   2.138   3.050  1.0639 -0.5713  0.3248
 1885TIP3   OH2 5660   5.765   1.114   2.975 -0.4940  0.4035  0.5807
 1885TIP3    H1 5661   5.739   1.121   2.883  1.2664  0.4957  0.0495
 1885TIP3    H2 5662   5.692   1.067   3.017 -0.1049 -2.2693 -1.4479
 1886TIP3   OH2 5663   0.591   4.001   0.990  0.5173 -0.4759 -0.6449
 1886TIP3    H1 5664   0.501   3.969   0.990  0.6236 -0.8872  1.4119
 1886TIP3    H2 5665   0.641   3.932   1.033  1.8454 -0.2418 -1.7277
 1887TIP3   OH2 5666   4.317   4.501   3.635 -0.1283  0.2404 -0.3444
 1887TIP3    H1 5667   4.327   4.488   3.730 -0.0001 -0.6458 -0.4729
 1887TIP3    H2 5668   4.406   4.511   3.603 -0.0870 -0.5665 -0.5127
 1888TIP3   OH2 5669   4.708   1.201   0.184  0.0731 -0.3915  0.1996
 1888TIP3    H1 5670   4.743   1.245   0.108  1.2455 -1.6891 -0.0491
 1888TIP3    H2 5671   4.614   1.191   0.165 -0.1707  1.5965  0.1276
 1889TIP3   OH2 5672   0.595   4.379   2.608 -0.1348 -0.1133 -0.1273
 1889TIP3    H1 5673   0.506   4.390   2.644  0.1174 -0.2880  0.5687
 1889TIP3    H2 5674   0.607   4.285   2.602 -0.3027 -0.0850 -1.0213
 1890TIP3   OH2 5675   2.618   2.874   3.683 -0.0271 -0.1611  0.3835
 1890TIP3    H1 5676   2.588   2.948   3.630  0.1558  0.3267  0.9526
 1890TIP3    H2 5677   2.704   2.852   3.646  0.1776  0.2905  0.5826
 1891TIP3   OH2 5678   5.721   1.615   1.629  0.1815 -0.5423 -0.2948
 1891TIP3    H1 5679   5.708   1.535   1.578 -2.6955  0.0555 -0.6866
 1891TIP3    H2 5680   5.657   1.608   1.700  1.1360  0.6193  0.7290
 1892TIP3   OH2 5681   6.246   4.208   4.380  0.2281  0.4316 -0.0284
 1892TIP3    H1 5682   6.276   4.119   4.359  1.2160  0.8312 -0.3429
 1892TIP3    H2 5683   6.322   4.263   4.365 -1.0998  1.7343 -2.6064
 1893TIP3   OH2 5684   2.604   4.925   5.164  0.1586  0.2370  0.0607
 1893TIP3    H1 5685   2.549   5.001   5.147 -0.1758 -0.1048 -0.3912
 1893TIP3    H2 5686   2.553   4.850   5.134  0.9202 -0.0735 -0.4867
 1894TIP3   OH2 5687   3.966   1.096   0.326 -0.0931 -0.3983  0.0604
 1894TIP3    H1 5688   4.061   1.103   0.339 -0.3838  4.2748  1.6601
 1894TIP3    H2 5689   3.932   1.071   0.412 -0.4314 -0.5632 -0.1193
 1895TIP3   OH2 5690   3.893   2.273   2.883 -0.2210  0.7590  0.2923
 1895TIP3    H1 5691   3.961   2.340   2.887 -0.6978  1.4648 -1.8883
 1895TIP3    H2 5692   3.917   2.220   2.806  0.5887 -2.1456  2.3582
 1896TIP3   OH2 5693   4.339   2.329   2.314 -0.0392  0.6329  0.9701
 1896TIP3    H1 5694   4.344   2.280   2.232  0.2805 -1.3600  2.1201
 1896TIP3    H2 5695   4.284   2.404   2.293 -4.1536 -2.2709  0.0436
 1897TIP3   OH2 5696   0.541   3.909   3.890  0.2718 -0.0689 -0.8955
 1897TIP3    H1 5697   0.468   3.937   3.945  0.8308  1.4725 -0.9029
 1897TIP3    H2 5698   0.563   3.985   3.837  0.3763 -1.2321 -2.5948
 1898TIP3   OH2 5699   5.927   3.153   2.325  0.5428  0.0555  0.7424
 1898TIP3    H1 5700   5.881   3.165   2.242 -0.0328  1.6816  1.2757
 1898TIP3    H2 5701   5.867   3.185   2.392  2.2101  1.7988  1.5037
 1899TIP3   OH2 5702   2.648   5.310   4.929 -0.5011  0.4448  0.5370
 1899TIP3    H1 5703   2.702   5.240   4.966 -0.4746  0.2509  0.1367
 1899TIP3    H2 5704   2.619   5.276   4.845 -0.8680  0.7353  0.5447
 1900TIP3   OH2 5705   1.847   3.134   0.036  0.2223  0.0183 -0.0857
 1900TIP3    H1 5706   1.909   3.079   0.084  2.4720  1.7836 -0.7955
 1900TIP3    H2 5707   1.869   3.120  -0.056 -1.2726 -0.1967 -0.4393
 1901TIP3   OH2 5708   4.277   5.437   5.078  0.0567  0.1261 -0.6188
 1901TIP3    H1 5709   4.368   5.428   5.105 -0.0639  3.0990  1.3297
 1901TIP3    H2 5710   4.228   5.434   5.160 -1.4913 -0.1922 -1.5194
 1902TIP3   OH2 5711   6.258   1.763   1.743  0.3561  0.0535  0.1129
 1902TIP3    H1 5712   6.352   1.784   1.740  0.0857  1.2688 -1.6317
 1902TIP3    H2 5713   6.218   1.824   1.681 -1.5064 -0.9201  0.2778
 1903TIP3   OH2 5714   2.133   1.559   1.337  0.2019  0.3543 -0.0994
 1903TIP3    H1 5715   2.179   1.637   1.304 -1.1899  1.6889  0.9497
 1903TIP3    H2 5716   2.051   1.594   1.372  1.0384 -1.0542  3.6785
 1904TIP3   OH2 5717   4.773   2.940   3.457  0.4472  0.5778  0.3460
 1904TIP3    H1 5718   4.702   2.878   3.442 -0.5027  1.7123  0.0333
 1904TIP3    H2 5719   4.732   3.026   3.450  1.8470  1.2607  0.2200
 1905TIP3   OH2 5720   4.081   5.933   0.031 -0.6010  0.2182 -0.0837
 1905TIP3    H1 5721   4.054   6.024   0.043 -1.3441  0.0457 -0.3937
 1905TIP3    H2 5722   4.068   5.892   0.117 -4.6121 -0.6778 -0.9049
 1906TIP3   OH2 5723   5.289   2.299   1.288  0.1703  0.4786 -0.6694
 1906TIP3    H1 5724   5.289   2.262   1.376  0.0902 -0.1223 -0.9183
 1906TIP3    H2 5725   5.291   2.223   1.230  2.3916  0.8457 -1.1939
 1907TIP3   OH2 5726   0.691   1.320   0.985  0.2454 -0.2408  0.5713
 1907TIP3    H1 5727   0.688   1.249   1.049  0.7061 -1.3779 -0.6007
 1907TIP3    H2 5728   0.784   1.331   0.966  0.1485  0.4129  0.4729
 1908TIP3   OH2 5729   3.059   5.741   4.795 -0.2802  0.2387  0.4907
 1908TIP3    H1 5730   3.118   5.802   4.751 -0.8547 -0.6021 -1.5882
 1908TIP3    H2 5731   3.117   5.682   4.844  0.6829 -0.6487 -1.6017
 1909TIP3   OH2 5732   1.706   4.737   0.157 -0.1131 -0.4834 -0.2616
 1909TIP3    H1 5733   1.742   4.824   0.141 -1.1541 -0.1315 -0.7926
 1909TIP3    H2 5734   1.704   4.695   0.071  1.2513 -1.4077  0.1166
 1910TIP3   OH2 5735   5.668   5.885   2.236  0.4236 -0.0049  0.3904
 1910TIP3    H1 5736   5.723   5.811   2.262  0.4270  0.2038  1.0123
 1910TIP3    H2 5737   5.642   5.925   2.319 -0.9508 -0.3030  0.1251
 1911TIP3   OH2 5738   6.016   3.234   0.171  0.0575  0.5428  0.4131
 1911TIP3    H1 5739   6.079   3.192   0.229 -0.0518  0.0676  0.1946
 1911TIP3    H2 5740   6.029   3.191   0.086 -0.6904  0.2966  0.4120
 1912TIP3   OH2 5741   4.394   1.755   2.860 -0.4148  0.1028  0.6476
 1912TIP3    H1 5742   4.352   1.797   2.784 -0.9344  0.4597  1.1272
 1912TIP3    H2 5743   4.339   1.779   2.934 -3.0371 -4.4231  0.5763
 1913TIP3   OH2 5744   3.025   4.215   0.140 -0.3116 -0.1951  0.2594
 1913TIP3    H1 5745   2.989   4.132   0.173 -3.0954  0.3742 -1.0542
 1913TIP3    H2 5746   3.118   4.211   0.162  0.0223 -4.3374 -1.0548
 1914TIP3   OH2 5747   5.259   0.317   2.667 -0.3155  0.8832  0.1920
 1914TIP3    H1 5748   5.219   0.276   2.744 -0.2585 -1.2270 -0.8499
 1914TIP3    H2 5749   5.184   0.344   2.614 -0.3539  0.8369  0.2219
 1915TIP3   OH2 5750   2.155   3.852   3.081  0.0517  0.5201 -0.2549
 1915TIP3    H1 5751   2.226   3.789   3.092  0.1525  0.5231 -0.8780
 1915TIP3    H2 5752   2.130   3.875   3.171 -0.5218 -0.9811  0.0009
 1916TIP3   OH2 5753   3.456   4.023   1.461 -0.5417 -0.2253 -0.8265
 1916TIP3    H1 5754   3.409   4.071   1.393 -0.4242  0.8647 -0.1623
 1916TIP3    H2 5755   3.464   3.934   1.427  0.5365  0.5627 -2.7615
 1917TIP3   OH2 5756   3.898   4.811   1.431 -0.5463 -0.1550 -0.1278
 1917TIP3    H1 5757   3.926   4.793   1.341 -0.7089  2.7954 -0.8963
 1917TIP3    H2 5758   3.978   4.837   1.477 -0.5738 -0.9704  0.3877
 1918TIP3   OH2 5759   1.376   1.053   1.575  0.0769 -0.4181 -0.0973
 1918TIP3    H1 5760   1.373   1.140   1.616  0.3400 -0.4076 -0.1020
 1918TIP3    H2 5761   1.324   1.063   1.495 -0.6287 -0.4981  0.3441
 1919TIP3   OH2 5762   3.404   4.903   1.393 -0.5879  0.2948 -0.0227
 1919TIP3    H1 5763   3.331   4.941   1.344  0.4046  1.5521 -0.5986
 1919TIP3    H2 5764   3.462   4.868   1.325  0.2060  0.9300  0.3180
 1920TIP3   OH2 5765   6.177   4.482   1.018  0.1899 -0.1049 -0.2166
 1920TIP3    H1 5766   6.202   4.391   1.005 -0.2337 -0.5018  1.5504
 1920TIP3    H2 5767   6.206   4.526   0.938  1.5013 -1.5521 -0.5873
 1921TIP3   OH2 5768   3.528   5.727   3.139 -0.2534 -0.3883 -0.0046
 1921TIP3    H1 5769   3.488   5.642   3.158 -0.5943 -0.2244  0.0308
 1921TIP3    H2 5770   3.618   5.719   3.171 -0.3640 -0.6434  0.2549
 1922TIP3   OH2 5771   4.961   5.629   4.278  0.7613  0.3387 -0.4034
 1922TIP3    H1 5772   4.869   5.630   4.305  1.3362  0.9222  1.7432
 1922TIP3    H2 5773   4.964   5.684   4.200 -0.4403  1.9762  0.6247
 1923TIP3   OH2 5774   2.117   0.423   2.130 -0.7235  0.4810  0.5336
 1923TIP3    H1 5775   2.199   0.375   2.121 -1.2619 -0.8469  2.1007
 1923TIP3    H2 5776   2.063   0.393   2.057 -0.5047 -0.1418  0.6229
 1924TIP3   OH2 5777   0.200   3.611   3.756 -0.0427  0.4294  0.4892
 1924TIP3    H1 5778   0.287   3.641   3.731 -0.7509  2.1461 -0.0535
 1924TIP3    H2 5779   0.192   3.634   3.849  0.1802  0.0352  0.6052
 1925TIP3   OH2 5780   4.247   1.937   4.301 -0.0931  0.1237  0.4777
 1925TIP3    H1 5781   4.250   1.952   4.395  0.0840 -0.2803  0.5379
 1925TIP3    H2 5782   4.282   2.018   4.262 -0.0535  0.2412  0.7586
 1926TIP3   OH2 5783   4.131   4.329   3.509  0.4426  0.1702 -0.4045
 1926TIP3    H1 5784   4.193   4.379   3.562  0.6434 -0.6125  0.1196
 1926TIP3    H2 5785   4.141   4.364   3.420  1.5695  0.1271 -0.3120
 1927TIP3   OH2 5786   1.853   5.314   1.838 -0.2458  0.2189 -0.5846
 1927TIP3    H1 5787   1.948   5.329   1.838 -0.4645  2.5700  2.2659
 1927TIP3    H2 5788   1.836   5.270   1.922 -1.6965  0.0053 -0.9680
 1928TIP3   OH2 5789   6.093   0.127   4.278  0.2117 -0.1113  0.5247
 1928TIP3    H1 5790   6.078   0.212   4.318  1.5636  0.1492  0.4940
 1928TIP3    H2 5791   6.096   0.066   4.351  1.1040  0.1393  0.7039
 1929TIP3   OH2 5792   5.923   1.403   2.156 -0.3358 -0.1270 -0.0430
 1929TIP3    H1 5793   5.849   1.433   2.104 -1.1978  0.4379  1.4624
 1929TIP3    H2 5794   5.982   1.479   2.160 -0.6432  0.0872  0.4570
 1930TIP3   OH2 5795   4.324   3.603   0.249  0.3026 -0.3630 -0.1103
 1930TIP3    H1 5796   4.308   3.598   0.343  2.6189  1.4308  0.4947
 1930TIP3    H2 5797   4.316   3.697   0.229  0.3774 -0.6515 -1.5765
 1931TIP3   OH2 5798   2.654   5.239   0.425  0.3753  0.1143 -0.2749
 1931TIP3    H1 5799   2.708   5.163   0.405 -2.5415 -1.5982 -2.3284
 1931TIP3    H2 5800   2.636   5.232   0.519  0.8176 -1.2667 -0.2797
 1932TIP3   OH2 5801   0.651   0.136   4.285  0.1344 -0.2083  0.3489
 1932TIP3    H1 5802   0.615   0.211   4.332  2.3812 -0.0093  1.9575
 1932TIP3    H2 5803   0.694   0.084   4.354 -0.5770 -2.5161 -0.8455
 1933TIP3   OH2 5804   1.386   2.424   4.747  0.3228 -0.3255  0.2077
 1933TIP3    H1 5805   1.449   2.481   4.789  1.8580 -0.9979 -1.0584
 1933TIP3    H2 5806   1.417   2.335   4.765  0.3909 -0.6499 -1.2931
 1934TIP3   OH2 5807   0.299   1.108   2.335  0.0763 -0.4653  0.2269
 1934TIP3    H1 5808   0.229   1.161   2.298 -0.4614 -1.7596 -0.6754
 1934TIP3    H2 5809   0.289   1.118   2.430  0.5032  1.6507  0.0828
 1935TIP3   OH2 5810   5.514   4.829   4.224  0.0116 -0.0686  0.1291
 1935TIP3    H1 5811   5.570   4.753   4.244 -1.1926 -1.1632 -0.5050
 1935TIP3    H2 5812   5.441   4.792   4.174 -0.0080  1.7123 -1.2305
 1936TIP3   OH2 5813   3.190   2.710   1.188  0.4153  0.5745 -0.0146
 1936TIP3    H1 5814   3.236   2.671   1.113  0.7851  1.1351 -0.0827
 1936TIP3    H2 5815   3.211   2.652   1.261 -1.1913 -0.8745 -0.6169
 1937TIP3   OH2 5816   5.928   2.589   4.587  0.0765 -0.4054  0.1699
 1937TIP3    H1 5817   5.979   2.665   4.557 -0.1422 -0.0743  0.6265
 1937TIP3    H2 5818   5.837   2.616   4.577 -0.0015 -0.2219  1.2833
 1938TIP3   OH2 5819   5.708   2.558   4.869 -0.2498 -0.0804  0.2716
 1938TIP3    H1 5820   5.695   2.653   4.870 -0.8508 -0.0948  3.5182
 1938TIP3    H2 5821   5.793   2.545   4.911  0.0995 -1.0092 -0.6531
 1939TIP3   OH2 5822   5.460   2.654   2.923 -0.3246 -0.5156 -0.2119
 1939TIP3    H1 5823   5.374   2.692   2.907 -0.2544  0.0187  0.6152
 1939TIP3    H2 5824   5.520   2.729   2.920  0.2405 -0.9913 -1.6283
 1940TIP3   OH2 5825   0.093   1.800   4.377 -0.0209 -0.0347 -0.0988
 1940TIP3    H1 5826   0.016   1.830   4.328  0.3568  1.3571  0.0907
 1940TIP3    H2 5827   0.166   1.817   4.317  0.3450  0.7865  0.5584
 1941TIP3   OH2 5828   4.593   5.818   0.479  0.4370 -0.2886 -0.1879
 1941TIP3    H1 5829   4.669   5.810   0.536  1.3574  0.0171 -1.3244
 1941TIP3    H2 5830   4.630   5.836   0.392 -0.9136 -0.6325 -0.8658
 1942TIP3   OH2 5831   4.278   3.270   0.482 -0.5801  0.0189  0.2103
 1942TIP3    H1 5832   4.323   3.354   0.492  1.2834 -0.9253  0.0541
 1942TIP3    H2 5833   4.302   3.220   0.559 -0.0653 -1.0869 -0.6409
 1943TIP3   OH2 5834   3.181   0.153   3.629 -0.4758 -0.5428 -0.0503
 1943TIP3    H1 5835   3.177   0.083   3.563 -0.6196 -0.7777  0.2071
 1943TIP3    H2 5836   3.241   0.218   3.591  0.3719 -1.2118  0.1017
 1944TIP3   OH2 5837   0.876   3.434   1.221 -0.1875  0.2091  0.4770
 1944TIP3    H1 5838   0.921   3.351   1.233 -0.2548  0.2674  1.1543
 1944TIP3    H2 5839   0.912   3.492   1.288 -0.5000  0.5737  0.3365
 1945TIP3   OH2 5840   1.855   5.087   2.337 -0.2299 -0.2995 -0.1292
 1945TIP3    H1 5841   1.818   4.999   2.342  1.2974 -0.8990  2.0867
 1945TIP3    H2 5842   1.949   5.073   2.325  0.2006  0.9346  1.4204
 1946TIP3   OH2 5843   2.179   0.660   0.375 -0.2582  0.3218  0.3126
 1946TIP3    H1 5844   2.236   0.668   0.299  0.3462 -0.2352  0.6956
 1946TIP3    H2 5845   2.151   0.750   0.394 -3.2196  0.2106 -2.6155
 1947TIP3   OH2 5846   4.971   3.395   5.183  0.4710 -0.6073 -0.0682
 1947TIP3    H1 5847   4.952   3.476   5.231 -0.3599 -0.1749 -1.0910
 1947TIP3    H2 5848   4.966   3.419   5.091  1.8223 -1.4751 -0.4052
 1948TIP3   OH2 5849   3.671   0.488   1.032  0.1662  0.0327  0.2344
 1948TIP3    H1 5850   3.601   0.423   1.044  0.3899 -0.2925 -0.1909
 1948TIP3    H2 5851   3.726   0.451   0.963  0.1549  0.7929 -0.1969
 1949TIP3   OH2 5852   2.205   0.668   4.048  0.4411  0.3621  0.4324
 1949TIP3    H1 5853   2.122   0.686   4.093  0.0001 -0.4009 -0.0444
 1949TIP3    H2 5854   2.250   0.606   4.106  0.6165  0.6753  0.6289
 1950TIP3   OH2 5855   3.439   2.146   1.904  0.2500 -0.2496  0.0031
 1950TIP3    H1 5856   3.352   2.177   1.929  0.5908  0.6367  0.1513
 1950TIP3    H2 5857   3.498   2.212   1.939  1.1730 -1.9785  1.8806
 1951TIP3   OH2 5858   0.408   5.903   4.020  0.6847  0.3045 -0.4209
 1951TIP3    H1 5859   0.339   5.915   3.955 -0.7124  0.6418  1.0718
 1951TIP3    H2 5860   0.486   5.942   3.980 -0.5068  1.9280 -1.2496
 1952TIP3   OH2 5861   6.144   2.164   0.969 -0.6106  0.3143  0.0611
 1952TIP3    H1 5862   6.065   2.193   1.014  0.8521  0.5574  2.6723
 1952TIP3    H2 5863   6.208   2.234   0.985  0.4998 -0.4534 -0.8612
 1953TIP3   OH2 5864   3.392   5.953   4.313  0.1038 -0.2193 -0.6716
 1953TIP3    H1 5865   3.478   5.912   4.318  0.2020  0.0364 -0.2112
 1953TIP3    H2 5866   3.363   5.960   4.404  0.2771  1.1011 -0.6998
 1954TIP3   OH2 5867   0.975   5.126   4.196  0.1411 -0.0809  0.0641
 1954TIP3    H1 5868   0.996   5.138   4.288 -0.8924 -1.5930  0.5269
 1954TIP3    H2 5869   0.880   5.124   4.192  0.1667 -1.5757 -0.7745
 1955TIP3   OH2 5870   5.881   2.141   1.659 -0.0714 -0.5780 -0.2980
 1955TIP3    H1 5871   5.792   2.162   1.630  0.6904  1.2621 -1.4863
 1955TIP3    H2 5872   5.930   2.127   1.577  1.4410  1.7149  0.1059
 1956TIP3   OH2 5873   1.439   1.321   4.092 -0.1924 -0.7579 -0.9294
 1956TIP3    H1 5874   1.420   1.310   3.999 -3.4889 -0.2605 -0.4590
 1956TIP3    H2 5875   1.372   1.382   4.123 -0.0072 -1.8607  2.0257
 1957TIP3   OH2 5876   2.915   5.380   2.975  0.0217  1.1368  0.2593
 1957TIP3    H1 5877   2.855   5.444   2.936 -0.1395  0.8051 -0.0443
 1957TIP3    H2 5878   3.001   5.420   2.968  0.0359  0.9531 -0.7206
 1958TIP3   OH2 5879   6.296   4.634   4.751  0.1237  0.1140  0.4370
 1958TIP3    H1 5880   6.383   4.628   4.791  0.5477  2.7218  0.0542
 1958TIP3    H2 5881   6.311   4.678   4.667 -1.5647  0.5629  0.3385
 1959TIP3   OH2 5882   3.037   4.045   5.052 -0.4335 -0.4033  0.1912
 1959TIP3    H1 5883   2.969   4.002   5.000  0.7496  1.2749 -3.0179
 1959TIP3    H2 5884   3.015   4.138   5.047  1.3719  0.0501  0.1316
 1960TIP3   OH2 5885   3.558   3.376   4.126 -0.2337  0.4706  0.4785
 1960TIP3    H1 5886   3.625   3.443   4.113 -0.7559  1.0738  0.7912
 1960TIP3    H2 5887   3.590   3.323   4.199  0.3318  0.1808  0.0245
 1961TIP3   OH2 5888   1.586   1.665   2.427  0.0649  0.0275 -0.1333
 1961TIP3    H1 5889   1.586   1.749   2.474 -1.0678  1.1353 -1.9979
 1961TIP3    H2 5890   1.498   1.659   2.389  0.2043 -1.9139 -0.2731
 1962TIP3   OH2 5891   0.897   2.291   3.244 -0.2263  0.0672 -0.7566
 1962TIP3    H1 5892   0.991   2.280   3.231 -0.0467 -0.2052  0.5769
 1962TIP3    H2 5893   0.890   2.344   3.324 -1.1991 -0.6916 -0.3137
 1963TIP3   OH2 5894   4.240   2.543   4.376 -0.2443 -0.4932  0.4678
 1963TIP3    H1 5895   4.194   2.461   4.359 -1.6045  0.6003 -1.6948
 1963TIP3    H2 5896   4.170   2.606   4.391  0.6212  0.7726 -0.5768
 1964TIP3   OH2 5897   2.687   1.608   3.449  0.2988 -0.4255  0.1111
 1964TIP3    H1 5898   2.607   1.603   3.397  0.8069  0.1552 -0.7402
 1964TIP3    H2 5899   2.758   1.607   3.384  0.9964 -1.1957  0.8618
 1965TIP3   OH2 5900   1.455   0.790   3.094 -0.2292  0.0260 -0.1372
 1965TIP3    H1 5901   1.384   0.805   3.156  0.0629  0.7641  0.0225
 1965TIP3    H2 5902   1.411   0.760   3.014 -0.7217  0.4457 -0.0313
 1966TIP3   OH2 5903   2.978   1.154   4.743  0.0508  0.0257 -0.3128
 1966TIP3    H1 5904   2.969   1.219   4.812  1.6212  0.5420 -0.5723
 1966TIP3    H2 5905   3.002   1.073   4.790  0.4289  0.2035 -0.2010
 1967TIP3   OH2 5906   1.349   5.654   4.763 -0.0204  0.1609  1.1361
 1967TIP3    H1 5907   1.393   5.640   4.679  2.4118  0.5225  2.2846
 1967TIP3    H2 5908   1.269   5.702   4.740  0.0223 -0.6977 -1.0517
 1968TIP3   OH2 5909   1.645   1.105   0.168 -0.0222  0.1315 -0.8298
 1968TIP3    H1 5910   1.674   1.024   0.210  0.5508 -0.4760 -2.3322
 1968TIP3    H2 5911   1.552   1.091   0.150  0.1020 -0.2396 -1.1851
 1969TIP3   OH2 5912   5.028   5.845   0.807  0.2840  0.2313  0.8709
 1969TIP3    H1 5913   5.076   5.763   0.794  0.4884  0.7360 -2.1994
 1969TIP3    H2 5914   5.086   5.912   0.771 -0.9059  1.4181  1.1073
 1970TIP3   OH2 5915   2.029   0.395   4.066 -0.7692 -0.1569 -0.2606
 1970TIP3    H1 5916   2.075   0.411   4.149  1.6773  0.8703 -1.7318
 1970TIP3    H2 5917   1.937   0.386   4.092 -0.3109  1.6185  2.4144
 1971TIP3   OH2 5918   2.902   0.819   0.597 -0.1392  0.3038  0.0826
 1971TIP3    H1 5919   2.816   0.862   0.600 -0.5539 -0.4289 -0.6306
 1971TIP3    H2 5920   2.882   0.727   0.619  0.6118  0.3169  0.8646
 1972TIP3   OH2 5921   4.146   1.183   2.857  0.0453 -0.3608 -0.3728
 1972TIP3    H1 5922   4.118   1.265   2.897 -1.4217  0.2830 -2.5348
 1972TIP3    H2 5923   4.152   1.122   2.931 -1.6903  0.9444  0.9553
 1973TIP3   OH2 5924   3.220   2.708   4.819  0.4303 -0.1328 -0.1915
 1973TIP3    H1 5925   3.236   2.640   4.754  0.0890  0.3138 -0.7581
 1973TIP3    H2 5926   3.143   2.755   4.786 -0.8605 -1.0134  1.4446
 1974TIP3   OH2 5927   0.252   3.145   0.170 -0.3142  0.4349 -0.7884
 1974TIP3    H1 5928   0.294   3.225   0.202 -1.3388  1.2210 -1.3587
 1974TIP3    H2 5929   0.277   3.078   0.233  2.5220  0.6450 -1.5465
 1975TIP3   OH2 5930   1.558   2.039   0.903 -0.0030  0.3195  0.1912
 1975TIP3    H1 5931   1.507   2.035   0.984 -1.4700  1.1362 -0.6274
 1975TIP3    H2 5932   1.639   2.083   0.927 -0.6339  1.0101  1.1404
 1976TIP3   OH2 5933   2.715   5.774   1.851  0.6515 -0.2521  0.0957
 1976TIP3    H1 5934   2.654   5.719   1.901  1.7360 -0.9288  0.7002
 1976TIP3    H2 5935   2.714   5.737   1.763 -0.0559 -0.0450  0.0062
 1977TIP3   OH2 5936   2.592   5.838   3.881  0.2803 -0.6051 -0.2340
 1977TIP3    H1 5937   2.511   5.788   3.888  0.3696 -0.9291 -1.4140
 1977TIP3    H2 5938   2.646   5.808   3.955 -0.6677 -0.3629  0.5755
 1978TIP3   OH2 5939   4.574   5.462   4.313 -0.0837 -0.6841 -0.0975
 1978TIP3    H1 5940   4.640   5.481   4.380  0.9934  1.7666 -1.7064
 1978TIP3    H2 5941   4.601   5.379   4.274 -0.0850 -1.5605  1.6596
 1979TIP3   OH2 5942   2.116   3.994   0.888 -0.3462  0.5141  0.0149
 1979TIP3    H1 5943   2.186   4.020   0.828 -0.9316 -0.2925 -1.0339
 1979TIP3    H2 5944   2.128   4.052   0.964  2.5438 -0.7155  0.6575
 1980TIP3   OH2 5945   6.156   4.861   2.112 -0.1785  0.0626 -0.4491
 1980TIP3    H1 5946   6.094   4.852   2.184 -0.1290 -0.9791 -0.5128
 1980TIP3    H2 5947   6.111   4.823   2.037  0.8834 -1.6668 -0.2670
 1981TIP3   OH2 5948   0.964   2.218   3.648  0.0431  0.0829  0.0390
 1981TIP3    H1 5949   0.937   2.285   3.585  1.6625  1.2329  0.5177
 1981TIP3    H2 5950   0.902   2.146   3.634 -2.3928  2.0142  0.1917
 1982TIP3   OH2 5951   0.964   4.392   4.363 -0.5464  0.1531 -0.1665
 1982TIP3    H1 5952   1.019   4.320   4.333  0.0052  0.5156 -0.0496
 1982TIP3    H2 5953   0.924   4.427   4.283 -1.4294 -0.7599 -0.1441
 1983TIP3   OH2 5954   6.293   3.770   3.236 -0.2818 -0.2339 -0.0245
 1983TIP3    H1 5955   6.201   3.769   3.263 -1.2335  0.2650 -2.9596
 1983TIP3    H2 5956   6.318   3.862   3.239 -0.9515  0.0805 -2.3094
 1984TIP3   OH2 5957   3.352   4.287   2.137  0.5149 -0.2266  0.2745
 1984TIP3    H1 5958   3.289   4.252   2.200  0.0605 -1.0095 -0.5834
 1984TIP3    H2 5959   3.349   4.226   2.063  1.7010  0.1669 -0.1271
 1985TIP3   OH2 5960   0.258   1.192   1.997 -0.4762  0.5815 -0.2200
 1985TIP3    H1 5961   0.263   1.101   2.027  1.2843  0.4950 -0.6567
 1985TIP3    H2 5962   0.168   1.202   1.967 -1.5098 -0.1710  2.3634
 1986TIP3   OH2 5963   1.847   4.197   3.694  0.1171 -0.0713  0.5155
 1986TIP3    H1 5964   1.867   4.284   3.731 -0.8978  0.2036  0.4356
 1986TIP3    H2 5965   1.843   4.212   3.599 -1.4570  0.1059  0.5871
 1987TIP3   OH2 5966   5.400   0.542   0.182  0.0436  0.2060 -0.4761
 1987TIP3    H1 5967   5.352   0.465   0.151  0.4780  0.1341 -0.9774
 1987TIP3    H2 5968   5.477   0.507   0.226 -0.0646  0.3384 -0.1797
 1988TIP3   OH2 5969   0.459   0.657   0.790 -0.7745 -0.2567  0.5212
 1988TIP3    H1 5970   0.427   0.741   0.825 -1.4789 -0.1554 -0.3348
 1988TIP3    H2 5971   0.409   0.644   0.710  1.8763  0.2831 -1.3558
 1989TIP3   OH2 5972   3.243   4.927   2.424 -0.3005  0.5844  0.3396
 1989TIP3    H1 5973   3.306   4.903   2.492 -0.4657 -0.8124  0.0387
 1989TIP3    H2 5974   3.295   4.968   2.356 -0.0254  1.3281  0.9896
 1990TIP3   OH2 5975   4.488   3.442   3.102  0.1111  0.2266 -0.1409
 1990TIP3    H1 5976   4.413   3.447   3.162  0.4650  0.5335  0.2833
 1990TIP3    H2 5977   4.459   3.488   3.023 -0.4172 -0.3262 -0.2731
 1991TIP3   OH2 5978   4.044   5.791   0.616 -0.3597  0.0008  0.3509
 1991TIP3    H1 5979   4.087   5.819   0.697  1.0114  1.0129 -0.6711
 1991TIP3    H2 5980   4.093   5.713   0.589 -0.3948  0.0511  0.1450
 1992TIP3   OH2 5981   0.123   3.950   0.101  0.0729 -0.6295 -0.2511
 1992TIP3    H1 5982   0.075   3.958   0.184 -1.3624 -0.9374 -1.0172
 1992TIP3    H2 5983   0.215   3.945   0.127 -0.2905  0.0631  1.2717
 1993TIP3   OH2 5984   2.597   5.574   2.005  0.0711  0.5172  0.0516
 1993TIP3    H1 5985   2.691   5.592   2.016  0.3667 -0.9775  0.2583
 1993TIP3    H2 5986   2.555   5.620   2.078  0.4678  2.3101 -0.8048
 1994TIP3   OH2 5987   3.128   3.434   4.621  0.3258  0.4956 -0.0009
 1994TIP3    H1 5988   3.111   3.385   4.541 -0.5337  0.6834  0.0559
 1994TIP3    H2 5989   3.111   3.525   4.597 -2.2043  0.3355  0.9633
 1995TIP3   OH2 5990   0.221   0.909   0.405  0.1005  0.1621  0.3177
 1995TIP3    H1 5991   0.295   0.959   0.370 -0.0906 -0.9208 -1.8241
 1995TIP3    H2 5992   0.160   0.903   0.332 -1.8289  0.4332  1.8286
 1996TIP3   OH2 5993   6.103   0.318   3.430  0.2259 -0.4973 -0.1040
 1996TIP3    H1 5994   6.030   0.307   3.369 -0.2386  2.3950 -0.2184
 1996TIP3    H2 5995   6.176   0.344   3.375  0.7379 -1.1546  0.2563
 1997TIP3   OH2 5996   1.527   2.281   1.205 -0.7594  0.5279  0.3124
 1997TIP3    H1 5997   1.469   2.217   1.163 -0.7978  1.3438 -0.9377
 1997TIP3    H2 5998   1.598   2.229   1.241 -0.2384 -0.1547 -1.6032
 1998TIP3   OH2 5999   0.909   1.081   3.542  0.3802 -0.0318  0.1086
 1998TIP3    H1 6000   0.827   1.122   3.512  1.1955  1.1127 -0.6228
 1998TIP3    H2 6001   0.977   1.145   3.520  1.1924  0.4549  3.4898
 1999TIP3   OH2 6002   4.935   3.355   0.526 -0.3978  0.3640  0.2920
 1999TIP3    H1 6003   4.912   3.274   0.572 -0.5341 -0.6301 -1.4439
 1999TIP3    H2 6004   4.859   3.373   0.470  0.7837  0.0845 -1.4542
 2000TIP3   OH2 6005   4.346   0.061   2.408  0.4517 -0.1251 -0.0641
 2000TIP3    H1 6006   4.297   0.123   2.462  0.7572 -0.4026  0.5438
 2000TIP3    H2 6007   4.414   0.114   2.367  1.1262 -0.1680  0.9724
 2001TIP3   OH2 6008   4.539   4.754   0.380  0.4150  0.5729 -0.0177
 2001TIP3    H1 6009   4.583   4.831   0.417 -0.6113  1.1905 -0.0329
 2001TIP3    H2 6010   4.466   4.737   0.440 -0.0087  0.2836 -0.6079
 2002TIP3   OH2 6011   0.133   5.710   2.385  0.3668  0.1279  0.8422
 2002TIP3    H1 6012   0.132   5.806   2.385  0.7951  0.1397 -0.0249
 2002TIP3    H2 6013   0.135   5.686   2.292  3.9714 -0.6737  0.9839
 2003TIP3   OH2 6014   0.065   3.011   3.806 -0.2309 -0.4770 -0.5249
 2003TIP3    H1 6015   0.119   3.061   3.867  0.1097  1.9931 -2.6769
 2003TIP3    H2 6016   0.119   2.937   3.781  0.3253 -0.5334  0.7848
 2004TIP3   OH2 6017   5.604   4.831   0.141  0.5483 -0.2736  0.2998
 2004TIP3    H1 6018   5.600   4.849   0.235  1.1711 -0.6499  0.4027
 2004TIP3    H2 6019   5.513   4.825   0.113  0.2953  2.0613  0.4466
 2005TIP3   OH2 6020   2.683   4.342   0.543  0.4019 -0.2544  0.0356
 2005TIP3    H1 6021   2.704   4.299   0.626 -1.7542 -0.6453  0.4224
 2005TIP3    H2 6022   2.751   4.311   0.483  2.4264  0.5800  1.7797
 2006TIP3   OH2 6023   5.804   4.340   2.068  0.2890  0.4204  0.6065
 2006TIP3    H1 6024   5.828   4.431   2.049 -2.0848  0.8402 -0.8974
 2006TIP3    H2 6025   5.887   4.293   2.067  1.6778  2.6375  2.0986
 2007TIP3   OH2 6026   6.259   3.719   2.842 -0.4628  0.5195  0.3470
 2007TIP3    H1 6027   6.184   3.738   2.898  0.8775  0.4768  2.2664
 2007TIP3    H2 6028   6.264   3.623   2.841 -0.4709  0.5217  0.1943
 2008TIP3   OH2 6029   2.965   5.096   2.933 -0.0410  0.2355 -0.0568
 2008TIP3    H1 6030   2.990   5.187   2.948 -0.3807  0.3883 -0.4064
 2008TIP3    H2 6031   2.873   5.100   2.908 -0.5105 -0.3457  1.4661
 2009TIP3   OH2 6032   2.436   5.974   4.838 -0.2791  0.0807  0.4895
 2009TIP3    H1 6033   2.403   6.013   4.919 -2.1410  1.1906 -0.7242
 2009TIP3    H2 6034   2.382   5.897   4.825 -0.1219  0.0198  0.1976
 2010TIP3   OH2 6035   5.994   4.802   2.315  0.9219  0.3566 -0.1182
 2010TIP3    H1 6036   5.993   4.755   2.398  0.4027 -0.4483 -0.5626
 2010TIP3    H2 6037   5.936   4.876   2.328 -1.7178 -1.4564 -0.6680
 2011TIP3   OH2 6038   4.918   1.335   3.885  0.4727 -0.3373 -0.1785
 2011TIP3    H1 6039   4.861   1.411   3.896  0.2733 -0.5649  0.4058
 2011TIP3    H2 6040   4.988   1.366   3.828 -0.3633 -0.1312 -1.1328
 2012TIP3   OH2 6041   0.228   3.590   2.798 -0.1375 -0.1915 -0.2118
 2012TIP3    H1 6042   0.288   3.540   2.852 -0.4501 -1.9958 -1.4642
 2012TIP3    H2 6043   0.141   3.569   2.833 -0.1710  1.7839  1.0782
 2013TIP3   OH2 6044   0.544   3.588   2.098 -1.0296 -0.1755  0.5213
 2013TIP3    H1 6045   0.545   3.628   2.185 -2.9566  0.2480  0.3771
 2013TIP3    H2 6046   0.565   3.496   2.114  0.0106  0.1549  1.2413
 2014TIP3   OH2 6047   1.718   3.186   3.572 -0.4774  0.0168  0.4341
 2014TIP3    H1 6048   1.656   3.139   3.628 -0.3432 -2.6820 -1.5030
 2014TIP3    H2 6049   1.804   3.166   3.609 -0.5031  0.1799  0.5869
 2015TIP3   OH2 6050   1.427   5.697   2.501  0.6095 -0.2509  0.0127
 2015TIP3    H1 6051   1.373   5.628   2.463  0.4669 -0.5631  0.7647
 2015TIP3    H2 6052   1.455   5.662   2.586 -0.0503  0.8724  0.7239
 2016TIP3   OH2 6053   1.765   0.395   2.820  0.1041  0.0599  0.0060
 2016TIP3    H1 6054   1.827   0.458   2.784  0.5350 -0.6901 -0.6227
 2016TIP3    H2 6055   1.679   0.426   2.791  0.2516  0.7154  0.2704
 2017TIP3   OH2 6056   5.362   1.935   0.196 -0.5712  0.3479  0.1405
 2017TIP3    H1 6057   5.298   1.897   0.136 -2.0131  1.1973  1.0699
 2017TIP3    H2 6058   5.354   1.884   0.276  0.5722 -0.0973 -0.0121
 2018TIP3   OH2 6059   1.195   1.469   4.255  0.5684  0.0940 -0.1635
 2018TIP3    H1 6060   1.170   1.409   4.325  0.7054  0.6345  0.3526
 2018TIP3    H2 6061   1.133   1.450   4.184  0.3217 -0.3370  0.1615
 2019TIP3   OH2 6062   4.319   4.737   0.552 -0.1958 -0.1968  0.5671
 2019TIP3    H1 6063   4.249   4.727   0.488  0.1819 -0.0964  0.1255
 2019TIP3    H2 6064   4.359   4.650   0.557 -0.5207 -0.3192  1.0171
 2020TIP3   OH2 6065   0.196   4.433   0.781  0.0473  0.1162 -0.1707
 2020TIP3    H1 6066   0.118   4.486   0.766 -0.0063  1.0038  2.6126
 2020TIP3    H2 6067   0.263   4.495   0.808  1.2741 -0.8108 -0.9913
 2021TIP3   OH2 6068   2.817   3.108   3.797  0.5746  0.0008  0.3667
 2021TIP3    H1 6069   2.813   3.022   3.757 -0.2261  0.7281 -1.1924
 2021TIP3    H2 6070   2.792   3.169   3.728  0.1280  1.4142  1.6948
 2022TIP3   OH2 6071   4.868   3.510   1.551  0.1419  1.0261  0.0819
 2022TIP3    H1 6072   4.877   3.559   1.633 -1.7846  2.5391 -0.5111
 2022TIP3    H2 6073   4.887   3.420   1.574  1.9024  1.7501  1.6719
 2023TIP3   OH2 6074   6.204   1.108   4.920 -0.1026 -0.2096  0.2980
 2023TIP3    H1 6075   6.297   1.128   4.926  0.3138 -2.3888  4.3240
 2023TIP3    H2 6076   6.164   1.191   4.892  2.7736  1.7010  1.3464
 2024TIP3   OH2 6077   5.996   0.706   5.096  0.3041 -0.0867 -0.7141
 2024TIP3    H1 6078   6.042   0.665   5.170  1.4636 -1.4538 -2.1387
 2024TIP3    H2 6079   6.024   0.798   5.099 -2.1115  0.7338  2.3689
 2025TIP3   OH2 6080   2.640   4.148   1.181 -1.0002 -0.5416 -0.7684
 2025TIP3    H1 6081   2.593   4.065   1.183  2.0576 -2.4217  0.8595
 2025TIP3    H2 6082   2.625   4.187   1.268  0.0506 -0.9916 -0.3621
 2026TIP3   OH2 6083   5.720   5.333   4.620 -0.6245  0.0227  0.1342
 2026TIP3    H1 6084   5.766   5.249   4.610  0.5334  0.7098 -0.5640
 2026TIP3    H2 6085   5.786   5.399   4.596 -2.4345  0.9917 -2.5850
 2027TIP3   OH2 6086   3.076   1.806   3.446  0.0726  0.5830  0.4436
 2027TIP3    H1 6087   3.017   1.818   3.372  0.2086 -0.0809  0.2154
 2027TIP3    H2 6088   3.104   1.715   3.439 -0.9834  0.0885  2.1108
 2028TIP3   OH2 6089   5.328   5.170   1.542 -0.2999  0.1104  0.5009
 2028TIP3    H1 6090   5.296   5.082   1.522 -1.8262  0.6656  0.3510
 2028TIP3    H2 6091   5.367   5.163   1.629 -0.0903 -0.7914  0.3393
 2029TIP3   OH2 6092   5.054   2.743   3.871  0.2230  0.2072  0.1817
 2029TIP3    H1 6093   5.001   2.686   3.928 -1.0203  2.8261  1.8174
 2029TIP3    H2 6094   5.034   2.713   3.782 -1.9275 -0.6380  0.8845
 2030TIP3   OH2 6095   2.522   3.219   4.384 -0.4605  0.0202  0.6691
 2030TIP3    H1 6096   2.607   3.230   4.426 -0.5152 -1.3361  1.2066
 2030TIP3    H2 6097   2.476   3.301   4.401  0.2846  0.2925  1.4701
 2031TIP3   OH2 6098   3.342   3.581   0.462  0.3151  0.1089 -0.0293
 2031TIP3    H1 6099   3.430   3.553   0.434  1.4712  0.2288  3.0774
 2031TIP3    H2 6100   3.345   3.576   0.557 -2.6680  1.4476  0.2348
 2032TIP3   OH2 6101   3.097   2.897   3.422 -0.3169 -0.3854 -0.1642
 2032TIP3    H1 6102   3.140   2.838   3.359 -0.6072  0.6521 -1.3801
 2032TIP3    H2 6103   3.161   2.907   3.492  1.3371  0.7623 -1.7226
 2033TIP3   OH2 6104   3.573   3.256   4.570  0.2180 -0.2478  0.1411
 2033TIP3    H1 6105   3.515   3.317   4.615  0.3880  0.0566 -0.0404
 2033TIP3    H2 6106   3.546   3.170   4.600  1.2676 -0.0016  1.9506
 2034TIP3   OH2 6107   2.900   1.527   1.495 -0.2702  0.3677  0.1549
 2034TIP3    H1 6108   2.917   1.436   1.471 -0.6977  0.6076 -1.1231
 2034TIP3    H2 6109   2.925   1.577   1.418 -2.1628  1.1393  0.0125
 2035TIP3   OH2 6110   4.827   5.032   1.383 -0.0188  0.1081 -0.1177
 2035TIP3    H1 6111   4.870   5.072   1.307 -0.4815  0.1396 -0.3641
 2035TIP3    H2 6112   4.734   5.032   1.361  0.0707 -2.4139 -0.7237
 2036TIP3   OH2 6113   0.668   1.569   3.632  0.0837 -0.0858 -0.0204
 2036TIP3    H1 6114   0.703   1.500   3.575 -0.1812 -1.3176  1.2466
 2036TIP3    H2 6115   0.602   1.524   3.685  0.8214  0.8498  1.7476
 2037TIP3   OH2 6116   3.626   1.868   1.819 -0.3606 -0.4854  0.6273
 2037TIP3    H1 6117   3.631   1.794   1.758  2.3119 -0.2873  0.5164
 2037TIP3    H2 6118   3.682   1.842   1.893  0.0081  1.0979  0.9301
 2038TIP3   OH2 6119   5.384   1.372   2.560 -0.0838  0.6774 -0.3660
 2038TIP3    H1 6120   5.372   1.448   2.616 -0.7213 -0.0728  0.5511
 2038TIP3    H2 6121   5.379   1.407   2.471 -2.4247  1.4365  0.0027
 2039TIP3   OH2 6122   3.262   1.380   4.134 -0.6497  0.1710 -0.2721
 2039TIP3    H1 6123   3.186   1.437   4.132 -0.6285  0.2421  0.5874
 2039TIP3    H2 6124   3.336   1.440   4.146 -0.6355 -0.0336  0.7064
 2040TIP3   OH2 6125   6.262   1.534   3.195  0.0833 -0.2114 -0.4677
 2040TIP3    H1 6126   6.274   1.626   3.171  1.8573 -0.7509 -1.9676
 2040TIP3    H2 6127   6.343   1.491   3.166  0.0355 -1.9755  1.6982
 2041TIP3   OH2 6128   3.171   2.115   0.745  0.2703 -0.1550 -0.2427
 2041TIP3    H1 6129   3.167   2.198   0.697  2.5348  0.2263  0.0932
 2041TIP3    H2 6130   3.080   2.097   0.770 -0.0898  3.9834  2.5766
 2042TIP3   OH2 6131   2.924   1.883   2.071  0.5380  0.1123 -0.4729
 2042TIP3    H1 6132   2.947   1.895   1.979 -0.7970  1.5381 -0.6610
 2042TIP3    H2 6133   2.849   1.941   2.085 -1.6386 -2.6979  0.5969
 2043TIP3   OH2 6134   1.953   0.860   3.076 -0.4690  0.4168 -0.1005
 2043TIP3    H1 6135   1.959   0.801   3.151  0.7053  0.1540 -0.3792
 2043TIP3    H2 6136   1.895   0.815   3.014 -0.5203  0.1067  0.1715
 2044TIP3   OH2 6137   0.440   3.176   2.301  0.8976 -0.2973 -0.4214
 2044TIP3    H1 6138   0.368   3.234   2.325 -0.2462 -1.6709 -0.3928
 2044TIP3    H2 6139   0.494   3.170   2.380 -0.2589 -1.0838  0.3421
 2045TIP3   OH2 6140   3.897   2.892   2.406 -0.0104  0.1820  0.1559
 2045TIP3    H1 6141   3.941   2.957   2.351  0.5426  0.3229  0.7456
 2045TIP3    H2 6142   3.879   2.938   2.488  1.0252 -0.5826  0.8492
 2046TIP3   OH2 6143   2.551   0.442   0.027  0.6511 -0.4077 -0.1946
 2046TIP3    H1 6144   2.512   0.396   0.102 -1.0653 -0.0669 -0.8175
 2046TIP3    H2 6145   2.644   0.443   0.045  0.4560 -1.7841  1.1389
 2047TIP3   OH2 6146   0.837   3.549   3.056  0.1082 -0.0422 -0.1847
 2047TIP3    H1 6147   0.837   3.572   3.149  2.5809  2.4801 -0.6896
 2047TIP3    H2 6148   0.797   3.624   3.013 -0.5139 -0.9581 -1.2497
 2048TIP3   OH2 6149   3.568   1.679   5.119 -0.0124 -0.1160  0.2016
 2048TIP3    H1 6150   3.489   1.717   5.082  0.4542 -0.0614 -0.7678
 2048TIP3    H2 6151   3.568   1.708   5.210 -0.2729  1.2360 -0.2142
 2049TIP3   OH2 6152   0.576   4.939   0.736 -0.8621 -0.2283  0.1213
 2049TIP3    H1 6153   0.552   4.966   0.824  0.8180 -1.2311  0.9262
 2049TIP3    H2 6154   0.632   4.863   0.748  1.2835  0.9351 -1.6894
 2050TIP3   OH2 6155   5.969   2.861   3.915 -0.4353  0.1424 -0.4761
 2050TIP3    H1 6156   6.024   2.932   3.881 -1.1860  1.3482  0.6975
 2050TIP3    H2 6157   5.914   2.904   3.981 -1.3825 -1.4219 -0.2088
 2051TIP3   OH2 6158   3.071   1.400   1.724 -0.5391 -0.6127  0.9038
 2051TIP3    H1 6159   3.097   1.484   1.763 -3.6246  0.4911  0.8634
 2051TIP3    H2 6160   3.110   1.402   1.636 -0.5772  0.8019  0.8877
 2052TIP3   OH2 6161   6.181   4.923   0.404  0.4453 -0.4211  0.1455
 2052TIP3    H1 6162   6.205   4.962   0.489  2.3699 -0.3854 -0.3701
 2052TIP3    H2 6163   6.233   4.971   0.340  0.5861 -1.8307 -0.8389
 2053TIP3   OH2 6164   3.843   1.427   4.487  0.2505  0.1939  0.3563
 2053TIP3    H1 6165   3.881   1.507   4.449 -0.5846  0.2795 -0.3335
 2053TIP3    H2 6166   3.809   1.454   4.572 -0.6252  0.7560 -0.1494
 2054TIP3   OH2 6167   2.810   4.034   0.933  0.3587 -0.6821 -0.1077
 2054TIP3    H1 6168   2.783   4.099   0.867  1.6966 -0.8504 -0.8771
 2054TIP3    H2 6169   2.859   4.085   0.997  0.7384 -0.7992 -0.2990
 2055TIP3   OH2 6170   0.964   0.494   0.828 -0.5379  0.2381 -0.7004
 2055TIP3    H1 6171   0.957   0.583   0.861  0.1813 -0.3123  1.0902
 2055TIP3    H2 6172   0.986   0.504   0.736  0.8692  1.9424 -0.2464
 2056TIP3   OH2 6173   0.063   3.534   4.494  0.3697  0.5286  0.3594
 2056TIP3    H1 6174   0.039   3.559   4.404  0.8425  3.0656  0.8516
 2056TIP3    H2 6175  -0.018   3.500   4.532  0.3074 -1.1892 -1.1562
 2057TIP3   OH2 6176   3.148   2.662   2.342 -0.1796  0.1421 -0.2963
 2057TIP3    H1 6177   3.150   2.739   2.398 -1.5579 -1.1032  1.6042
 2057TIP3    H2 6178   3.096   2.689   2.266  1.3655  1.7443 -0.8352
 2058TIP3   OH2 6179   2.820   1.318   1.170 -0.3289 -0.3766  0.3708
 2058TIP3    H1 6180   2.872   1.389   1.207  1.6315 -2.2091  1.3767
 2058TIP3    H2 6181   2.764   1.289   1.242 -1.9664  0.7940 -0.3620
 2059TIP3   OH2 6182   2.104   3.746   5.097  0.5804 -0.2678 -1.1242
 2059TIP3    H1 6183   2.065   3.668   5.138 -0.2941 -0.8681 -2.9573
 2059TIP3    H2 6184   2.054   3.819   5.133 -0.3921 -0.8083 -1.3250
 2060TIP3   OH2 6185   1.459   1.723   0.541 -0.2465  0.0667  0.4839
 2060TIP3    H1 6186   1.432   1.790   0.479  0.0326 -0.9170 -0.7552
 2060TIP3    H2 6187   1.414   1.746   0.623 -0.4716  1.5025 -0.0151
 2061TIP3   OH2 6188   4.634   2.505   4.941  0.0495  0.0832 -0.6560
 2061TIP3    H1 6189   4.595   2.586   4.911  0.3817  0.1253 -0.9836
 2061TIP3    H2 6190   4.669   2.464   4.861  0.9669  0.2089 -0.3346
 2062TIP3   OH2 6191   4.043   5.710   4.811 -0.0427 -0.3245 -0.8756
 2062TIP3    H1 6192   3.972   5.663   4.768 -0.2903 -1.1629  0.3922
 2062TIP3    H2 6193   4.002   5.751   4.887  0.5210  0.5384 -1.0188
 2063TIP3   OH2 6194   4.923   2.973   4.591  0.3340 -0.2616 -0.0683
 2063TIP3    H1 6195   4.828   2.980   4.591  0.4289  1.3798  0.8209
 2063TIP3    H2 6196   4.943   2.905   4.655 -0.2005 -0.0800  0.2890
 2064TIP3   OH2 6197   3.976   1.430   2.823  0.2291 -0.2427  0.1811
 2064TIP3    H1 6198   4.018   1.431   2.738 -0.5533 -0.1830 -0.2157
 2064TIP3    H2 6199   3.913   1.502   2.820 -0.5587 -0.8970  0.4003
 2065TIP3   OH2 6200   3.642   0.940   1.530  0.0989  0.1581  0.4316
 2065TIP3    H1 6201   3.675   1.006   1.590 -1.3105 -1.0446  2.6573
 2065TIP3    H2 6202   3.564   0.979   1.491 -0.2476  0.1512  1.1014
 2066TIP3   OH2 6203   5.891   5.208   1.277  0.6994 -0.5693  0.3490
 2066TIP3    H1 6204   5.822   5.261   1.317  0.1038 -0.1209 -1.1832
 2066TIP3    H2 6205   5.856   5.119   1.279  0.3129 -0.4252  0.0668
 2067TIP3   OH2 6206   4.755   4.822   3.385 -0.1775  0.1367 -0.7507
 2067TIP3    H1 6207   4.784   4.857   3.301  0.5246  0.4283 -0.3971
 2067TIP3    H2 6208   4.703   4.745   3.363 -1.4485  1.1769 -1.5376
 2068TIP3   OH2 6209   3.060   0.036   0.226  0.7294  0.1242  0.0597
 2068TIP3    H1 6210   3.088   0.102   0.290 -1.2519  0.6402  0.4538
 2068TIP3    H2 6211   3.035   0.086   0.149 -1.2478 -0.0471  0.5272
 2069TIP3   OH2 6212   1.196   3.640   2.694  0.2378  0.5778 -0.2532
 2069TIP3    H1 6213   1.268   3.695   2.665  0.6007 -0.6401 -1.8087
 2069TIP3    H2 6214   1.211   3.556   2.650 -2.3998  0.4426 -1.0699
 2070TIP3   OH2 6215   3.573   3.572   0.281 -0.3581  0.5682  0.2614
 2070TIP3    H1 6216   3.515   3.579   0.205 -1.8277  0.6641  1.3589
 2070TIP3    H2 6217   3.637   3.643   0.269 -2.2003  2.3556  0.4322
 2071TIP3   OH2 6218   0.344   3.440   3.404  0.1704  0.0881  0.0781
 2071TIP3    H1 6219   0.359   3.529   3.435  0.7872  0.0943 -0.2334
 2071TIP3    H2 6220   0.249   3.434   3.395 -0.0821 -0.0619  2.3838
 2072TIP3   OH2 6221   5.905   4.811   0.056 -0.7649 -0.1821  0.1986
 2072TIP3    H1 6222   5.920   4.717   0.055 -1.2672 -0.2680 -0.4817
 2072TIP3    H2 6223   5.852   4.828  -0.022 -0.2876  0.7306  0.0540
 2073TIP3   OH2 6224   0.626   3.232   2.511  0.4024  0.2874 -0.2283
 2073TIP3    H1 6225   0.608   3.261   2.600  1.7909 -3.0358  1.3213
 2073TIP3    H2 6226   0.637   3.137   2.518  1.8137  0.0143 -3.7208
 2074TIP3   OH2 6227   3.850   5.425   3.765 -0.6625  0.1274 -0.5270
 2074TIP3    H1 6228   3.879   5.504   3.810  0.5684 -0.4742 -0.2245
 2074TIP3    H2 6229   3.931   5.378   3.743 -1.2559 -3.1607  3.0777
 2075TIP3   OH2 6230   4.226   2.553   1.648 -0.0032  0.6363 -0.5580
 2075TIP3    H1 6231   4.302   2.514   1.692  0.8957  0.1282 -2.4767
 2075TIP3    H2 6232   4.258   2.578   1.562 -1.2844  3.1401 -0.4125
 2076TIP3   OH2 6233   1.583  -0.005   0.770 -0.6904  0.1427 -0.1506
 2076TIP3    H1 6234   1.541   0.056   0.830  0.1262  1.1932 -0.6250
 2076TIP3    H2 6235   1.516  -0.024   0.704 -1.2436 -0.2072  0.4931
 2077TIP3   OH2 6236   5.398   3.440   2.922 -0.2214  0.0097 -0.5043
 2077TIP3    H1 6237   5.431   3.350   2.920  1.5835  0.5463  1.3145
 2077TIP3    H2 6238   5.466   3.491   2.877  0.4742  0.8630  1.4135
 2078TIP3   OH2 6239   4.130   2.347   4.793 -0.0634 -0.5561 -0.1944
 2078TIP3    H1 6240   4.063   2.284   4.764 -0.8280 -0.1699  0.6737
 2078TIP3    H2 6241   4.133   2.337   4.888 -1.0599  1.5093  0.1222
 2079TIP3   OH2 6242   5.693  -0.009   5.110  0.1851 -0.1516 -0.7480
 2079TIP3    H1 6243   5.674  -0.051   5.194 -0.7033  0.7522 -0.4742
 2079TIP3    H2 6244   5.630   0.063   5.105 -0.1069 -0.4913 -2.4157
 2080TIP3   OH2 6245   5.933   3.539   3.596 -0.1799 -0.2121 -0.3625
 2080TIP3    H1 6246   5.844   3.560   3.624  0.1466  1.9257 -0.7235
 2080TIP3    H2 6247   5.987   3.561   3.672  0.2040  0.4983 -0.8227
 2081TIP3   OH2 6248   6.216   3.719   1.025 -0.0451 -0.7451  0.2533
 2081TIP3    H1 6249   6.260   3.789   0.977 -1.6932  0.1708  0.0329
 2081TIP3    H2 6250   6.287   3.660   1.051  1.3657  0.8986  0.2961
 2082TIP3   OH2 6251   2.122   5.308   3.025  0.0441 -0.4257 -0.1661
 2082TIP3    H1 6252   2.106   5.215   3.013  1.6623 -1.0680  2.0369
 2082TIP3    H2 6253   2.215   5.320   3.004 -0.3676  0.9136 -1.3927
 2083TIP3   OH2 6254   4.126   2.653   4.701 -0.5991  0.2764 -0.1105
 2083TIP3    H1 6255   4.137   2.559   4.712  0.0880  0.5352  1.8279
 2083TIP3    H2 6256   4.051   2.662   4.643  0.1616 -1.4602 -1.4499
 2084TIP3   OH2 6257   5.157   1.392   1.163 -0.3090  0.6523  0.3586
 2084TIP3    H1 6258   5.133   1.384   1.255  1.2064 -0.0842  0.7178
 2084TIP3    H2 6259   5.201   1.310   1.142  0.1358  1.1546 -0.7862
 2085TIP3   OH2 6260   4.478   1.438   2.540 -0.4166 -0.2361 -0.6431
 2085TIP3    H1 6261   4.398   1.388   2.551  1.0922 -3.0403 -1.6174
 2085TIP3    H2 6262   4.497   1.435   2.446  0.4803  0.9788 -0.5341
 2086TIP3   OH2 6263   2.716   3.241   0.778  0.7981  0.0261 -0.2061
 2086TIP3    H1 6264   2.669   3.320   0.803 -1.6594 -1.5370  0.5111
 2086TIP3    H2 6265   2.663   3.203   0.708  0.6945 -2.0569  0.9356
 2087TIP3   OH2 6266   1.552   4.938   0.493  0.0730 -0.5363  0.1874
 2087TIP3    H1 6267   1.550   4.845   0.469  0.9006 -0.4771 -0.1574
 2087TIP3    H2 6268   1.460   4.962   0.504 -0.3426 -0.7443 -2.3087
 2088TIP3   OH2 6269   2.312   3.531   0.708 -0.0336  0.0031 -0.2842
 2088TIP3    H1 6270   2.236   3.571   0.665  1.1078  1.2651 -1.2234
 2088TIP3    H2 6271   2.312   3.440   0.679 -0.5119  0.3042 -1.2415
 2089TIP3   OH2 6272   5.121   4.560   1.578  0.2900 -0.2026 -0.6508
 2089TIP3    H1 6273   5.067   4.483   1.599  0.0462  0.5928  2.0818
 2089TIP3    H2 6274   5.106   4.575   1.485 -1.0657 -2.3805 -0.8649
 2090TIP3   OH2 6275   3.121   5.174   4.919  0.3060 -0.5407  0.2802
 2090TIP3    H1 6276   3.168   5.143   4.997 -0.1020  1.5916  1.4433
 2090TIP3    H2 6277   3.088   5.094   4.878  0.8778 -1.7641  2.0666
 2091TIP3   OH2 6278   2.686   5.766   0.723 -0.2370 -0.0369  0.8412
 2091TIP3    H1 6279   2.591   5.760   0.713 -0.3399 -1.4690  2.2534
 2091TIP3    H2 6280   2.719   5.681   0.692  0.8546  1.2157 -1.7709
 2092TIP3   OH2 6281   2.160   2.118   3.989  0.0611  0.7598 -0.2293
 2092TIP3    H1 6282   2.242   2.144   4.029  0.2382  0.0819 -0.1430
 2092TIP3    H2 6283   2.163   2.156   3.901  0.5522  0.5856 -0.2927
 2093TIP3   OH2 6284   0.649   4.239   4.556 -0.4779  0.0656 -0.0395
 2093TIP3    H1 6285   0.738   4.241   4.591  0.1331  0.6603 -1.5669
 2093TIP3    H2 6286   0.602   4.179   4.615  0.8237  0.0056  0.9906
 2094TIP3   OH2 6287   1.263   5.486   2.401  0.3487  0.4848  0.2744
 2094TIP3    H1 6288   1.223   5.460   2.484  0.4242  0.8134  0.4150
 2094TIP3    H2 6289   1.196   5.465   2.335 -1.2861  3.6056  0.7585
 2095TIP3   OH2 6290   2.671   5.574   4.844  0.3393  0.3986 -0.1724
 2095TIP3    H1 6291   2.633   5.511   4.905  0.2237  0.5881 -0.0481
 2095TIP3    H2 6292   2.753   5.533   4.815  0.4456  0.3526  0.1865
 2096TIP3   OH2 6293   4.582   3.483   2.485 -0.1875 -0.3879 -0.1512
 2096TIP3    H1 6294   4.512   3.428   2.449  1.0889 -1.7944 -0.5871
 2096TIP3    H2 6295   4.660   3.456   2.437  0.9639 -0.0022  1.4317
 2097TIP3   OH2 6296   6.303   3.520   0.348 -0.2198 -0.7315  0.2133
 2097TIP3    H1 6297   6.386   3.544   0.389  0.3551 -0.4231 -1.0900
 2097TIP3    H2 6298   6.271   3.601   0.309  0.3994 -1.4492 -1.9163
 2098TIP3   OH2 6299   0.304   2.558   0.838  0.0402 -0.2298  0.5492
 2098TIP3    H1 6300   0.266   2.533   0.922 -0.0889  1.3946  1.0060
 2098TIP3    H2 6301   0.368   2.626   0.860  1.7788 -1.4704 -0.4258
 2099TIP3   OH2 6302   2.547   5.173   4.053 -0.9602  0.5776 -0.1572
 2099TIP3    H1 6303   2.460   5.175   4.014 -1.5984 -1.4365  1.0380
 2099TIP3    H2 6304   2.531   5.170   4.148  0.3584 -0.6004  0.0576
 2100TIP3   OH2 6305   3.315   2.582   4.586  0.0355 -0.5434  0.2944
 2100TIP3    H1 6306   3.278   2.499   4.617 -0.9904 -0.4421 -0.6123
 2100TIP3    H2 6307   3.343   2.564   4.497  0.8734 -0.2197  0.4900
 2101TIP3   OH2 6308   5.833   4.790   3.735  0.5163 -0.5265  0.1385
 2101TIP3    H1 6309   5.769   4.738   3.783  1.2478 -1.2711  0.3195
 2101TIP3    H2 6310   5.791   4.876   3.724  0.7612  0.1035  3.2086
 2102TIP3   OH2 6311   5.326   3.504   3.187 -0.4749  0.2658 -0.5139
 2102TIP3    H1 6312   5.404   3.480   3.236 -1.4876  1.2985  1.7337
 2102TIP3    H2 6313   5.339   3.466   3.100  1.7367 -1.0131  0.3178
 2103TIP3   OH2 6314   3.037   0.816   0.174 -0.0223 -0.5049 -0.1271
 2103TIP3    H1 6315   2.975   0.888   0.177  1.3163  0.7367 -1.0038
 2103TIP3    H2 6316   3.093   0.828   0.251  0.0892 -0.7130 -0.1742
 2104TIP3   OH2 6317   1.197   0.170   0.943 -0.4320 -0.6239 -0.5288
 2104TIP3    H1 6318   1.202   0.080   0.912 -0.4649 -0.4572 -1.0204
 2104TIP3    H2 6319   1.257   0.172   1.018 -2.7526 -1.8565  1.5038
 2105TIP3   OH2 6320   3.890   0.612   3.188 -0.1325 -0.5038 -0.2184
 2105TIP3    H1 6321   3.901   0.564   3.106 -1.7407 -0.5567 -0.4212
 2105TIP3    H2 6322   3.841   0.690   3.164  0.3061  0.0113  0.5248
 2106TIP3   OH2 6323   5.150   1.548   2.678 -0.3682  0.7121 -0.0823
 2106TIP3    H1 6324   5.160   1.643   2.678 -0.0179  0.6833  0.8274
 2106TIP3    H2 6325   5.134   1.525   2.770  0.8376 -0.2259 -0.0768
 2107TIP3   OH2 6326   3.960   4.398   2.514  0.2764  0.0977  0.5748
 2107TIP3    H1 6327   4.036   4.444   2.550  0.2634  0.6700 -0.1294
 2107TIP3    H2 6328   3.892   4.407   2.582  1.3943 -2.1471  2.1499
 2108TIP3   OH2 6329   3.488   1.575   2.770 -0.1644  0.2945 -0.4112
 2108TIP3    H1 6330   3.577   1.544   2.782 -0.3890  0.2168  1.3018
 2108TIP3    H2 6331   3.495   1.645   2.705  1.1376  0.2746 -0.3125
 2109TIP3   OH2 6332   1.988   3.587   0.148  0.0165 -0.1655 -0.0554
 2109TIP3    H1 6333   2.050   3.581   0.221 -0.2060 -0.4826  0.1143
 2109TIP3    H2 6334   1.982   3.497   0.115 -0.7633 -0.2454  0.2783
 2110TIP3   OH2 6335   1.421   4.438   3.897 -0.5663  0.5821 -0.0792
 2110TIP3    H1 6336   1.409   4.386   3.818 -1.4463 -1.3421  1.2387
 2110TIP3    H2 6337   1.516   4.450   3.904 -0.3843 -0.4096 -0.7005
 2111TIP3   OH2 6338   1.156   0.216   4.731 -0.2568 -0.3384  0.1901
 2111TIP3    H1 6339   1.203   0.291   4.766 -0.2620 -0.4445  0.4252
 2111TIP3    H2 6340   1.207   0.140   4.760 -0.2060 -0.4213 -0.1146
 2112TIP3   OH2 6341   3.711   3.700   3.483  0.3471 -0.1756  0.2559
 2112TIP3    H1 6342   3.758   3.778   3.514  1.2734 -1.1698  1.4386
 2112TIP3    H2 6343   3.619   3.726   3.485  0.6513  0.9525  0.4554
 2113TIP3   OH2 6344   4.999   0.337   2.435  0.1205  0.1155  0.6570
 2113TIP3    H1 6345   5.065   0.392   2.393 -1.1041 -0.0441 -1.5869
 2113TIP3    H2 6346   5.022   0.248   2.410 -1.0192  0.0722 -0.3300
 2114TIP3   OH2 6347   2.281   1.545   0.501  1.1132 -0.0146  0.5486
 2114TIP3    H1 6348   2.291   1.506   0.587  1.4783  0.2177  0.6116
 2114TIP3    H2 6349   2.360   1.598   0.488  0.9710  0.1112  0.1566
 2115TIP3   OH2 6350   6.222   1.453   0.827  0.3894 -0.0855 -0.1253
 2115TIP3    H1 6351   6.137   1.441   0.786 -0.1010  1.5332  0.3287
 2115TIP3    H2 6352   6.231   1.379   0.888 -1.2626  0.3838  0.7379
 2116TIP3   OH2 6353   1.794   3.566   4.622 -0.3504  0.2188  0.1777
 2116TIP3    H1 6354   1.753   3.623   4.557  0.1273 -1.0528 -1.3093
 2116TIP3    H2 6355   1.886   3.593   4.622 -0.4946  0.7482  0.9490
 2117TIP3   OH2 6356   0.438   5.259   0.223  0.1046  0.2421  0.0440
 2117TIP3    H1 6357   0.368   5.210   0.267  0.1226  1.1809  1.1502
 2117TIP3    H2 6358   0.394   5.303   0.150 -0.4685  0.7514  0.6789
 2118TIP3   OH2 6359   5.487   0.236   1.990 -0.3070 -0.0866 -0.4574
 2118TIP3    H1 6360   5.427   0.199   2.055 -1.0219 -1.6491 -1.9184
 2118TIP3    H2 6361   5.429   0.277   1.925  0.2905  0.0084 -0.9401
 2119TIP3   OH2 6362   2.185   0.928   0.463 -0.0676  0.1371  0.0443
 2119TIP3    H1 6363   2.213   1.016   0.436 -0.1771 -0.1276 -0.9781
 2119TIP3    H2 6364   2.221   0.917   0.551  0.9272  0.7752 -0.2694
 2120TIP3   OH2 6365   2.430   5.965   4.545 -0.6370  0.1869 -0.0370
 2120TIP3    H1 6366   2.337   5.961   4.566 -0.1886  1.5999  2.6667
 2120TIP3    H2 6367   2.474   5.966   4.631  1.9155 -0.9262 -1.2205
 2121TIP3   OH2 6368   5.301   1.689   0.346 -0.4426  0.2093  0.4936
 2121TIP3    H1 6369   5.339   1.736   0.420 -0.6930  0.6608  0.3421
 2121TIP3    H2 6370   5.340   1.602   0.350  0.0167  0.4243  0.7898
 2122TIP3   OH2 6371   0.326   2.773   1.067 -0.1506  0.6962 -0.8522
 2122TIP3    H1 6372   0.299   2.864   1.066 -2.1127  0.1627 -2.1123
 2122TIP3    H2 6373   0.394   2.768   1.134 -2.5834  2.3568  1.9754
 2123TIP3   OH2 6374   2.181   1.272   2.419  0.1216 -0.1905  0.1802
 2123TIP3    H1 6375   2.209   1.296   2.331  2.2101 -0.0035  0.8519
 2123TIP3    H2 6376   2.225   1.335   2.476 -1.0603 -0.4214  1.3873
 2124TIP3   OH2 6377   1.347   4.347   0.724  0.5783 -0.2113 -0.3087
 2124TIP3    H1 6378   1.374   4.262   0.689  2.3792  0.2793 -0.1914
 2124TIP3    H2 6379   1.262   4.363   0.683  0.3569 -1.9110 -0.5811
 2125TIP3   OH2 6380   1.157   3.122   1.490 -0.1568  0.0447 -0.3569
 2125TIP3    H1 6381   1.158   3.031   1.461  0.1851  0.5866 -2.1054
 2125TIP3    H2 6382   1.220   3.125   1.562 -0.5801 -1.1920  0.1033
 2126TIP3   OH2 6383   3.088   3.014   0.167 -0.7933 -0.9268 -0.1497
 2126TIP3    H1 6384   3.167   2.979   0.126  1.2055  1.6817  1.1863
 2126TIP3    H2 6385   3.070   2.955   0.240  0.3017 -1.2211 -0.0993
 2127TIP3   OH2 6386   3.220   1.591   2.219 -0.2141  0.0500 -0.2137
 2127TIP3    H1 6387   3.242   1.666   2.274  0.8602  1.0503 -1.9285
 2127TIP3    H2 6388   3.197   1.522   2.282 -0.9354  1.6806  1.4291
 2128TIP3   OH2 6389   2.761   2.732   0.675  0.2471 -0.1981  0.2659
 2128TIP3    H1 6390   2.770   2.675   0.751 -0.1758  1.1735  1.3915
 2128TIP3    H2 6391   2.834   2.794   0.684  0.7743 -0.5956 -0.9994
 2129TIP3   OH2 6392   4.432   1.182   3.400  0.4532 -0.4070  0.3119
 2129TIP3    H1 6393   4.364   1.117   3.383 -0.3209  0.4975 -0.1951
 2129TIP3    H2 6394   4.442   1.229   3.317 -0.6536  1.5856  1.2299
 2130TIP3   OH2 6395   2.238   5.023   0.875  0.1713 -0.2272  0.1377
 2130TIP3    H1 6396   2.149   5.016   0.908  0.1514  2.2035  0.8572
 2130TIP3    H2 6397   2.292   4.977   0.939 -0.1851  1.9454  2.1677
 2131TIP3   OH2 6398   0.661   2.756   3.939 -0.9637 -0.2617  0.4065
 2131TIP3    H1 6399   0.625   2.839   3.907  0.3093 -0.2140 -1.0271
 2131TIP3    H2 6400   0.584   2.701   3.954 -1.7362  0.3663 -0.9921
 2132TIP3   OH2 6401   2.200   1.466   1.081  0.2212 -0.0357  0.2715
 2132TIP3    H1 6402   2.169   1.536   1.024  1.7079  0.1605 -0.3440
 2132TIP3    H2 6403   2.165   1.488   1.167 -2.1008 -0.3549 -0.4983
 2133TIP3   OH2 6404   5.015   1.556   2.445 -0.8081 -0.1944  0.6755
 2133TIP3    H1 6405   5.000   1.465   2.423 -0.0912 -0.3682  0.8763
 2133TIP3    H2 6406   5.058   1.553   2.531 -0.7466  0.3306  0.6654
 2134TIP3   OH2 6407   5.829   0.127   4.165  0.2736 -0.2783 -0.4429
 2134TIP3    H1 6408   5.923   0.139   4.182  0.0266  1.8128 -0.2961
 2134TIP3    H2 6409   5.811   0.037   4.192  1.6139  0.2373  2.5621
 2135TIP3   OH2 6410   0.277   1.039   5.120 -0.4128 -0.5865  0.2018
 2135TIP3    H1 6411   0.358   1.001   5.154 -0.6671 -0.8351  0.5349
 2135TIP3    H2 6412   0.236   1.080   5.196 -0.8223 -0.8630  0.1360
 2136TIP3   OH2 6413   5.338   3.962   2.581 -0.2842 -0.2032  0.5157
 2136TIP3    H1 6414   5.356   4.045   2.625  0.5982  0.2952 -0.7375
 2136TIP3    H2 6415   5.284   3.986   2.506 -0.9891 -0.9213  0.7847
 2137TIP3   OH2 6416   2.897   3.679   2.719 -0.2048  0.0528 -0.4070
 2137TIP3    H1 6417   2.865   3.623   2.789  0.1714 -0.6501 -0.7812
 2137TIP3    H2 6418   2.953   3.622   2.667  0.9362  1.0170 -0.2721
 2138TIP3   OH2 6419   4.367   3.037   2.262 -0.1043  0.0544  0.2370
 2138TIP3    H1 6420   4.414   2.960   2.294 -0.9037 -0.5546 -0.0318
 2138TIP3    H2 6421   4.387   3.042   2.169 -1.5028 -0.9258 -0.1531
 2139TIP3   OH2 6422   5.471   0.579   4.974  0.1197 -0.0978 -0.2798
 2139TIP3    H1 6423   5.435   0.556   5.060 -0.3221 -0.2455 -0.5081
 2139TIP3    H2 6424   5.424   0.658   4.949 -1.0449 -1.0555 -1.2030
 2140TIP3   OH2 6425   1.575   0.202   4.197 -0.3311  0.6606 -0.1817
 2140TIP3    H1 6426   1.541   0.262   4.130 -0.1905  0.4691 -0.4275
 2140TIP3    H2 6427   1.547   0.115   4.168 -2.4557  0.7815  1.3278
 2141TIP3   OH2 6428   1.415   0.077   1.444  0.2807 -0.8256  0.3717
 2141TIP3    H1 6429   1.510   0.071   1.438  0.2737 -2.3766  1.4050
 2141TIP3    H2 6430   1.382  -0.001   1.398 -0.6657  1.1180 -2.5686
 2142TIP3   OH2 6431   2.777   5.820   1.163  0.1240 -0.3844  0.9610
 2142TIP3    H1 6432   2.759   5.913   1.150  0.5324 -0.2278  1.4871
 2142TIP3    H2 6433   2.859   5.818   1.212 -1.0685 -0.9264  3.0732
 2143TIP3   OH2 6434   5.129   5.260   3.331  0.0740  0.1777  0.2526
 2143TIP3    H1 6435   5.212   5.301   3.306 -0.3180  0.1000 -1.2326
 2143TIP3    H2 6436   5.065   5.331   3.326 -0.1882 -0.0749  0.0096
 2144TIP3   OH2 6437   6.066   5.047   1.560  0.1638  0.6893 -0.2977
 2144TIP3    H1 6438   6.104   5.013   1.641  1.3145 -1.3127 -1.5889
 2144TIP3    H2 6439   6.138   5.093   1.517 -0.0440  0.5438 -0.8123
 2145TIP3   OH2 6440   0.920   5.692   3.255 -0.0728  0.1718 -0.1726
 2145TIP3    H1 6441   1.008   5.662   3.233  1.2458  2.6374  1.2870
 2145TIP3    H2 6442   0.913   5.779   3.216 -1.1744  0.7326  1.1460
 2146TIP3   OH2 6443   3.519   2.917   3.882 -0.1622 -0.2829  0.0271
 2146TIP3    H1 6444   3.512   3.012   3.897 -0.5054 -0.2232 -0.4995
 2146TIP3    H2 6445   3.595   2.891   3.934 -0.3350  0.2035  0.5356
 2147TIP3   OH2 6446   3.256   0.607   2.717 -0.5102 -0.0848 -0.4993
 2147TIP3    H1 6447   3.319   0.666   2.758  0.2440  0.7333 -2.6759
 2147TIP3    H2 6448   3.293   0.588   2.631 -1.9722 -1.7387 -0.8304
 2148TIP3   OH2 6449   2.990   5.154   0.579  0.3155  0.4071 -0.0585
 2148TIP3    H1 6450   3.061   5.165   0.643 -0.3635 -1.8154  1.1924
 2148TIP3    H2 6451   2.949   5.241   0.574  0.9905  0.8917  1.8397
 2149TIP3   OH2 6452   5.576   2.698   2.625 -0.1647 -0.2151 -0.2178
 2149TIP3    H1 6453   5.525   2.626   2.663 -1.6267  0.8681 -0.0239
 2149TIP3    H2 6454   5.654   2.704   2.681 -0.6408 -0.8285  0.5400
 2150TIP3   OH2 6455   0.766   5.473   0.347 -0.2164  0.0144  0.3546
 2150TIP3    H1 6456   0.744   5.467   0.254 -1.1176 -0.6636  0.5953
 2150TIP3    H2 6457   0.841   5.415   0.357  0.6346  0.9907 -0.1536
 2151TIP3   OH2 6458   0.848   4.709   3.003  0.0802  0.2821 -0.5973
 2151TIP3    H1 6459   0.766   4.756   2.989  0.1607  0.2855 -1.0466
 2151TIP3    H2 6460   0.823   4.633   3.057 -0.9222 -1.8221 -3.7256
 2152TIP3   OH2 6461   5.163   2.071   2.496 -0.5024 -0.1696  0.0479
 2152TIP3    H1 6462   5.188   2.145   2.440  0.0594 -0.8903 -0.6793
 2152TIP3    H2 6463   5.067   2.076   2.500 -0.4299  1.0316  0.6266
 2153TIP3   OH2 6464   4.609   1.901   3.816  0.2738  0.0868 -0.2200
 2153TIP3    H1 6465   4.566   1.851   3.886 -0.3465  0.7933 -0.0885
 2153TIP3    H2 6466   4.632   1.835   3.750  3.2388 -1.0359  1.7356
 2154TIP3   OH2 6467   3.749   0.598   1.786 -0.1848  0.6020  0.2125
 2154TIP3    H1 6468   3.724   0.687   1.810  1.5909  0.7511  1.6500
 2154TIP3    H2 6469   3.684   0.573   1.720 -1.8308  2.2636  1.1025
 2155TIP3   OH2 6470   2.420   0.828   3.701  0.5001 -0.0444  0.1113
 2155TIP3    H1 6471   2.397   0.802   3.790 -0.7812  1.8707  0.3996
 2155TIP3    H2 6472   2.360   0.780   3.645  0.1170  0.0900  0.4066
 2156TIP3   OH2 6473   5.204   4.828   3.823  0.5176 -0.9741  0.4216
 2156TIP3    H1 6474   5.275   4.775   3.787  0.9563  0.0742 -0.3168
 2156TIP3    H2 6475   5.246   4.883   3.889  1.2145  2.1197 -2.3372
 2157TIP3   OH2 6476   2.316   0.999   3.359 -0.8589 -0.1385 -0.3917
 2157TIP3    H1 6477   2.386   0.979   3.297 -0.6507  1.0615 -0.5520
 2157TIP3    H2 6478   2.361   1.010   3.443 -0.7838  1.0284 -0.5677
 2158TIP3   OH2 6479   2.841   0.505   3.653  0.6823  0.8305 -0.2570
 2158TIP3    H1 6480   2.796   0.421   3.649 -0.2005  1.1716  1.4911
 2158TIP3    H2 6481   2.928   0.487   3.619  0.8232 -1.0445  0.9359
 2159TIP3   OH2 6482   2.078   3.384   1.018  0.1228 -0.1080  0.1557
 2159TIP3    H1 6483   2.162   3.430   1.019  0.3181 -0.3913 -1.3266
 2159TIP3    H2 6484   2.096   3.301   1.064  0.5325  0.0308  0.2503
 2160TIP3   OH2 6485   0.468   4.364   3.377  0.0635  0.1841  0.3207
 2160TIP3    H1 6486   0.505   4.375   3.465  2.2260  0.8712 -0.5838
 2160TIP3    H2 6487   0.544   4.372   3.319 -1.4993  1.2872 -1.7021
 2161TIP3   OH2 6488   5.472   1.129   0.746 -0.0784  0.0427 -0.5938
 2161TIP3    H1 6489   5.519   1.046   0.745  0.6380  0.4259  0.0114
 2161TIP3    H2 6490   5.513   1.179   0.817 -0.6646  0.8121 -0.7817
 2162TIP3   OH2 6491   0.056   2.153   2.619 -0.1218 -0.5201 -0.5570
 2162TIP3    H1 6492  -0.021   2.097   2.629  0.8566 -1.9225 -0.6012
 2162TIP3    H2 6493   0.116   2.124   2.688  1.1799 -0.8615 -1.7860
 2163TIP3   OH2 6494   1.417   1.464   0.638  0.1229  0.6450 -0.1970
 2163TIP3    H1 6495   1.449   1.536   0.583  0.7881 -0.6264 -1.5393
 2163TIP3    H2 6496   1.327   1.489   0.659  0.4338  1.9995 -0.3858
 2164TIP3   OH2 6497   2.789   3.816   2.183 -0.4027 -0.4155 -0.2938
 2164TIP3    H1 6498   2.813   3.785   2.270 -0.9278  0.8581  0.3369
 2164TIP3    H2 6499   2.694   3.806   2.179 -0.2097 -2.3055 -1.5014
 2165TIP3   OH2 6500   0.500   2.853   1.334 -0.0411 -0.0061  0.0314
 2165TIP3    H1 6501   0.454   2.908   1.397 -2.7528 -2.1950  0.1263
 2165TIP3    H2 6502   0.552   2.915   1.282 -0.3883  2.2187  2.1522
 2166TIP3   OH2 6503   2.395   3.778   0.865 -0.1683 -0.3866  0.2521
 2166TIP3    H1 6504   2.329   3.751   0.801  0.5651 -2.5405  0.3593
 2166TIP3    H2 6505   2.370   3.733   0.946  1.3413 -1.1361  0.3229
 2167TIP3   OH2 6506   1.878   2.877   0.393  0.2094  0.2867 -0.2569
 2167TIP3    H1 6507   1.787   2.905   0.382  0.6452  1.2890 -1.5634
 2167TIP3    H2 6508   1.882   2.842   0.482 -1.3299  0.6920  0.0007
 2168TIP3   OH2 6509   5.055   2.465   3.658  0.1391 -0.3177 -0.2888
 2168TIP3    H1 6510   5.073   2.382   3.614  2.2467 -0.5087  0.8239
 2168TIP3    H2 6511   5.063   2.531   3.588 -0.6125 -0.9431 -0.9876
 2169TIP3   OH2 6512   0.763   1.365   4.236 -0.3653  0.2856  0.0419
 2169TIP3    H1 6513   0.795   1.333   4.321  0.9060  0.4290 -0.3556
 2169TIP3    H2 6514   0.728   1.287   4.193  0.6004 -0.1465  0.0043
 2170TIP3   OH2 6515   5.759   0.456   1.333  0.3069 -0.2271  0.2928
 2170TIP3    H1 6516   5.673   0.440   1.295  0.1455  1.3051 -0.0669
 2170TIP3    H2 6517   5.788   0.539   1.295  0.2276  1.3177  3.2702
 2171TIP3   OH2 6518   5.612   5.269   1.427  0.5615  0.0577  0.2844
 2171TIP3    H1 6519   5.591   5.227   1.344  1.6917 -1.8362  0.8970
 2171TIP3    H2 6520   5.586   5.205   1.494  2.4023  0.2706  1.2591
 2172TIP3   OH2 6521   5.995   0.281   1.258  0.3626  0.6542  0.1123
 2172TIP3    H1 6522   5.966   0.302   1.346 -1.0705  0.6650 -0.3499
 2172TIP3    H2 6523   6.003   0.365   1.214  1.7539  0.7067  0.4024
 2173TIP3   OH2 6524   3.529   3.031   2.124 -0.4493 -0.7556  0.1351
 2173TIP3    H1 6525   3.436   3.052   2.119 -0.1363  0.5084 -0.9935
 2173TIP3    H2 6526   3.532   2.949   2.173 -2.0481 -0.1185  1.4228
 2174TIP3   OH2 6527   3.675   4.772   2.499 -0.3072 -0.2233  0.1259
 2174TIP3    H1 6528   3.678   4.709   2.427  1.1109  0.1466 -0.1654
 2174TIP3    H2 6529   3.710   4.723   2.574  0.3072  0.0540  0.0232
 2175TIP3   OH2 6530   0.616   4.616   3.241  0.0024 -0.0572  0.0436
 2175TIP3    H1 6531   0.533   4.634   3.286 -0.3397 -2.2006  0.3663
 2175TIP3    H2 6532   0.643   4.701   3.206 -0.7334  1.2927  2.5582
 2176TIP3   OH2 6533   1.057   0.607   4.810 -0.1113  0.0561  0.2125
 2176TIP3    H1 6534   0.964   0.585   4.801 -0.4691 -0.5312  3.7681
 2176TIP3    H2 6535   1.060   0.702   4.813 -0.2939  0.1615 -1.7941
 2177TIP3   OH2 6536   4.002   4.622   4.915 -0.2517 -0.0809  0.2234
 2177TIP3    H1 6537   4.013   4.528   4.904 -0.0859 -0.3800  2.5144
 2177TIP3    H2 6538   4.059   4.645   4.988 -0.6272  1.7318 -0.0049
 2178TIP3   OH2 6539   1.070   1.297   3.436  0.4022  0.2954 -0.4681
 2178TIP3    H1 6540   1.066   1.337   3.523 -0.2966  0.4132 -0.5455
 2178TIP3    H2 6541   1.031   1.362   3.378 -1.7897 -0.8841 -0.4341
 2179TIP3   OH2 6542   0.140   1.806   0.333 -0.0806 -0.1978 -0.5190
 2179TIP3    H1 6543   0.186   1.794   0.416 -0.9999  0.4094  0.0937
 2179TIP3    H2 6544   0.196   1.865   0.283 -0.8433  1.6989  0.7791
 2180TIP3   OH2 6545   5.788   3.829   3.911 -0.1045 -0.3965 -0.1204
 2180TIP3    H1 6546   5.882   3.823   3.924  0.0136 -0.7933 -1.0814
 2180TIP3    H2 6547   5.765   3.750   3.863 -0.8136  0.0299 -0.5108
 2181TIP3   OH2 6548   4.825   5.783   4.495  0.1685  0.4022 -0.2293
 2181TIP3    H1 6549   4.891   5.822   4.437  0.3905  0.8786  0.3395
 2181TIP3    H2 6550   4.856   5.801   4.583  1.2124 -2.5577  0.1434
 2182TIP3   OH2 6551   5.805   3.557   1.197 -0.0868 -0.7758  0.6965
 2182TIP3    H1 6552   5.864   3.560   1.122  0.8809  1.6443  1.4394
 2182TIP3    H2 6553   5.835   3.484   1.250  1.8494 -0.0274  0.7051
 2183TIP3   OH2 6554   4.449   4.752   1.849  0.2606 -0.6466 -0.5336
 2183TIP3    H1 6555   4.409   4.836   1.868 -0.8260 -1.2447 -0.1068
 2183TIP3    H2 6556   4.523   4.746   1.910 -0.7108 -0.7428  0.6801
 2184TIP3   OH2 6557   5.628   3.582   1.958 -0.0100 -0.3025 -0.3799
 2184TIP3    H1 6558   5.697   3.516   1.966 -0.9523 -1.1548  1.5215
 2184TIP3    H2 6559   5.610   3.586   1.864  1.2786 -1.4858 -0.7205
 2185TIP3   OH2 6560   5.727   5.463   2.897 -0.0904 -0.2015 -0.5582
 2185TIP3    H1 6561   5.672   5.400   2.944 -1.1338  1.0329 -0.0598
 2185TIP3    H2 6562   5.811   5.461   2.943  0.3856 -2.2147 -1.4093
 2186TIP3   OH2 6563   5.877   5.106   4.708  0.6301 -0.1189 -0.1516
 2186TIP3    H1 6564   5.939   5.072   4.773 -0.5615 -1.1318  0.5029
 2186TIP3    H2 6565   5.899   5.060   4.627  0.6837 -0.5598  0.1062
 2187TIP3   OH2 6566   1.816   4.115   1.878 -0.6982  0.5950 -0.1675
 2187TIP3    H1 6567   1.785   4.201   1.847 -0.5986  0.2701 -1.2224
 2187TIP3    H2 6568   1.907   4.110   1.846 -0.8116 -0.0344 -0.4009
 2188TIP3   OH2 6569   4.993   2.562   0.292 -0.0981  0.5032 -0.4705
 2188TIP3    H1 6570   5.062   2.625   0.313 -0.2782  0.7876 -0.7179
 2188TIP3    H2 6571   5.039   2.478   0.282  0.0896  0.5134  0.2667
 2189TIP3   OH2 6572   5.633   2.489   3.108 -0.2658  0.6372  0.0218
 2189TIP3    H1 6573   5.563   2.473   3.044 -0.5710 -0.6097  0.6490
 2189TIP3    H2 6574   5.669   2.402   3.127  1.7274  1.2892 -0.5681
 2190TIP3   OH2 6575   2.881   5.851   3.707  0.4431 -0.1828  0.2479
 2190TIP3    H1 6576   2.858   5.918   3.772  0.7666  0.6021 -0.4316
 2190TIP3    H2 6577   2.860   5.768   3.750  0.5178  0.3261  1.3068
 2191TIP3   OH2 6578   3.657   5.452   1.341  1.0436 -0.0167 -0.0512
 2191TIP3    H1 6579   3.730   5.399   1.372  1.6835  0.0169 -1.4166
 2191TIP3    H2 6580   3.582   5.394   1.344  0.9707  0.1181  1.9302
 2192TIP3   OH2 6581   3.455   2.966   4.801 -0.4640 -0.1009 -0.3977
 2192TIP3    H1 6582   3.396   3.000   4.868  1.2482  3.7054 -0.5733
 2192TIP3    H2 6583   3.422   3.003   4.719  1.1017  0.6741 -0.7163
 2193TIP3   OH2 6584   5.875   4.073   4.338  0.2438 -0.4233 -0.1694
 2193TIP3    H1 6585   5.929   4.116   4.271  0.7884 -0.2803  0.3504
 2193TIP3    H2 6586   5.913   4.101   4.421 -2.1367  1.6582  0.3111
 2194TIP3   OH2 6587   3.505   2.481   3.999  0.5053 -0.2841 -0.1473
 2194TIP3    H1 6588   3.557   2.406   3.971  0.0339 -1.1196  1.1388
 2194TIP3    H2 6589   3.555   2.519   4.072  0.1463 -0.0674 -0.0127
 2195TIP3   OH2 6590   5.807   0.626   1.102  0.3189  0.1049  0.2637
 2195TIP3    H1 6591   5.812   0.566   1.027  0.9362 -0.9860  1.1593
 2195TIP3    H2 6592   5.896   0.661   1.110  0.4594 -0.4073  0.9849
 2196TIP3   OH2 6593   5.402   4.369   4.932  0.5766  0.5540 -0.9036
 2196TIP3    H1 6594   5.428   4.338   4.845  0.4128 -0.0420 -0.7414
 2196TIP3    H2 6595   5.444   4.455   4.939 -0.1902  1.0453 -1.9612
 2197TIP3   OH2 6596   3.448   3.188   1.290  0.4032 -0.4937  0.6560
 2197TIP3    H1 6597   3.468   3.243   1.365 -4.0299  0.2144  1.6123
 2197TIP3    H2 6598   3.391   3.119   1.325  1.5064 -2.5882 -1.4226
 2198TIP3   OH2 6599   0.266   1.396   1.311  0.5022 -0.7169 -0.4228
 2198TIP3    H1 6600   0.175   1.415   1.288  0.9965  1.3910 -0.8058
 2198TIP3    H2 6601   0.310   1.388   1.227  1.1725  1.0462 -0.2726
 2199TIP3   OH2 6602   0.041   1.515   0.222  0.1155 -0.2806  0.5662
 2199TIP3    H1 6603   0.099   1.475   0.287  0.1533 -0.9256  0.1388
 2199TIP3    H2 6604   0.049   1.609   0.238  1.1251 -0.3727  0.6440
 2200TIP3   OH2 6605   5.223   0.673   3.243  0.0698 -0.3114 -0.1664
 2200TIP3    H1 6606   5.155   0.619   3.284 -1.3892  2.0038  0.6138
 2200TIP3    H2 6607   5.175   0.738   3.191  1.6275  1.6069  0.6701
 2201TIP3   OH2 6608   1.492   2.263   0.727 -0.2731  0.7214  0.1595
 2201TIP3    H1 6609   1.484   2.169   0.746  0.9758  0.4389 -0.6269
 2201TIP3    H2 6610   1.414   2.283   0.675  1.2807 -0.8267 -3.0911
 2202TIP3   OH2 6611   4.192   3.630   4.326  0.0231  0.0496 -0.5258
 2202TIP3    H1 6612   4.146   3.706   4.291 -1.5319 -0.3580  0.5426
 2202TIP3    H2 6613   4.188   3.565   4.255  1.1985  0.8560 -1.3739
 2203TIP3   OH2 6614   0.667   5.449   0.902 -0.1743  0.3380 -0.0552
 2203TIP3    H1 6615   0.643   5.390   0.973 -0.3642  0.3555 -0.1036
 2203TIP3    H2 6616   0.623   5.531   0.923  2.1278  1.2992  1.3693
 2204TIP3   OH2 6617   3.562   0.405   3.435 -0.5021  0.5222 -0.1818
 2204TIP3    H1 6618   3.517   0.467   3.377 -0.2533  0.9012  0.0217
 2204TIP3    H2 6619   3.653   0.405   3.404 -0.7740 -0.8022 -1.0674
 2205TIP3   OH2 6620   2.978   1.760   0.473  0.2953 -0.4117 -0.3233
 2205TIP3    H1 6621   3.046   1.808   0.427  1.1678 -0.7467  0.5861
 2205TIP3    H2 6622   2.983   1.671   0.439  1.1267 -0.7272  0.5932
 2206TIP3   OH2 6623   1.695   5.653   4.697 -0.1888 -0.5604 -1.0063
 2206TIP3    H1 6624   1.673   5.746   4.697  0.5836 -0.3693 -1.0564
 2206TIP3    H2 6625   1.749   5.641   4.619 -1.5614 -1.3773 -1.8700
 2207TIP3   OH2 6626   0.064   0.883   0.173  0.5372  0.1018 -0.1545
 2207TIP3    H1 6627  -0.001   0.952   0.185 -0.0812 -0.4677 -0.1781
 2207TIP3    H2 6628   0.079   0.881   0.078  0.3728  0.0472 -0.1804
 2208TIP3   OH2 6629   3.921   4.358   1.546 -0.0517  0.3191 -0.2478
 2208TIP3    H1 6630   3.883   4.275   1.576 -0.2381  0.5294  0.1064
 2208TIP3    H2 6631   3.856   4.424   1.568 -0.6709  0.3630 -2.1062
 2209TIP3   OH2 6632   5.205   0.522   1.655 -0.6668 -0.3874  0.1305
 2209TIP3    H1 6633   5.221   0.504   1.562 -0.7973 -1.9634  0.3801
 2209TIP3    H2 6634   5.121   0.481   1.673 -0.4734 -0.4156  1.0324
 2210TIP3   OH2 6635   4.762   5.109   0.779  0.2400  0.2628  0.1168
 2210TIP3    H1 6636   4.696   5.083   0.715 -0.1529 -0.2055  0.7040
 2210TIP3    H2 6637   4.740   5.200   0.800  0.1038  0.2753 -0.0729
 2211TIP3   OH2 6638   3.975   2.685   3.845  0.1809 -0.0372  0.0343
 2211TIP3    H1 6639   4.028   2.612   3.814 -0.1846 -0.0237 -0.6423
 2211TIP3    H2 6640   3.959   2.738   3.767 -1.1568 -0.2526  0.1237
 2212TIP3   OH2 6641   1.242   1.048   4.365 -0.1128 -0.1097  0.1929
 2212TIP3    H1 6642   1.335   1.037   4.346  0.0960 -0.5199  1.3653
 2212TIP3    H2 6643   1.215   0.965   4.405 -0.6990  0.3955  0.9025
 2213TIP3   OH2 6644   1.219   5.518   1.815  0.5234 -0.2739  0.2912
 2213TIP3    H1 6645   1.128   5.489   1.822  0.5021 -0.3532 -0.3189
 2213TIP3    H2 6646   1.266   5.462   1.877  0.2087 -0.4395  0.3839
 2214TIP3   OH2 6647   0.660   1.933   3.995  0.0938  0.2806 -0.1383
 2214TIP3    H1 6648   0.608   2.009   3.970 -0.4675  0.2306  0.7989
 2214TIP3    H2 6649   0.596   1.871   4.029  0.5100 -0.7466 -1.1716
 2215TIP3   OH2 6650   0.819   5.725   2.214 -0.3737  0.1767  0.2819
 2215TIP3    H1 6651   0.756   5.751   2.147  0.0086 -1.1666 -0.6373
 2215TIP3    H2 6652   0.880   5.798   2.220 -0.5537  0.4129 -0.6539
 2216TIP3   OH2 6653   2.964   4.689   3.039  0.3196 -0.7547  0.0624
 2216TIP3    H1 6654   2.869   4.701   3.040  0.5376  1.5605 -0.8618
 2216TIP3    H2 6655   2.982   4.632   3.114 -1.6770 -0.0950  1.1079
 2217TIP3   OH2 6656   4.291   2.007   3.846 -0.2699  0.0799 -0.9079
 2217TIP3    H1 6657   4.357   2.051   3.900 -0.4441 -0.8968  0.1618
 2217TIP3    H2 6658   4.318   2.023   3.756  0.2975  1.3737 -0.5287
 2218TIP3   OH2 6659   4.710   3.010   2.870 -0.0117  0.2213 -0.0519
 2218TIP3    H1 6660   4.748   3.046   2.791  0.7321  1.5596  0.8801
 2218TIP3    H2 6661   4.674   3.085   2.917 -1.0010 -0.6212  0.5978
 2219TIP3   OH2 6662   0.792   4.727   0.088 -0.3496 -0.2350 -0.4545
 2219TIP3    H1 6663   0.729   4.784   0.044  0.2909 -0.1088 -1.2483
 2219TIP3    H2 6664   0.763   4.638   0.068 -0.5706 -0.1799 -0.3764
 2220TIP3   OH2 6665   4.934   5.456   3.293 -0.3196  0.6816  0.1148
 2220TIP3    H1 6666   4.877   5.511   3.240 -1.4441  0.4637  1.0740
 2220TIP3    H2 6667   4.884   5.436   3.372 -0.8470 -3.4154 -1.0203
 2221TIP3   OH2 6668   0.901   4.286   3.502 -0.4008  0.7038  0.2009
 2221TIP3    H1 6669   0.909   4.286   3.597  0.9823  1.6919  0.1204
 2221TIP3    H2 6670   0.944   4.367   3.475  0.4965 -0.2476 -1.3553
 2222TIP3   OH2 6671   1.863   3.162   2.356  0.3161 -0.3064 -0.3690
 2222TIP3    H1 6672   1.811   3.242   2.352 -1.7262 -1.5500  0.0896
 2222TIP3    H2 6673   1.947   3.190   2.393 -0.2502  1.6464 -0.4611
 2223TIP3   OH2 6674   4.128   3.525   3.702 -0.1629 -0.2069 -0.1586
 2223TIP3    H1 6675   4.065   3.520   3.630  0.4347  0.4240 -0.7331
 2223TIP3    H2 6676   4.151   3.617   3.708  1.2569 -0.5129 -0.4418
 2224TIP3   OH2 6677   5.783   2.922   0.689  0.8017 -0.1842  0.2790
 2224TIP3    H1 6678   5.790   3.001   0.637  0.9592 -0.4486 -0.1019
 2224TIP3    H2 6679   5.799   2.850   0.628 -2.3169 -0.7037 -0.0963
 2225TIP3   OH2 6680   4.260   5.789   4.108  0.7509  0.4743 -0.0140
 2225TIP3    H1 6681   4.348   5.772   4.140  0.4086  0.9654  1.2287
 2225TIP3    H2 6682   4.234   5.707   4.065  1.5042  0.0552  0.3240
 2226TIP3   OH2 6683   4.334   0.973   2.010 -0.0801  0.0669 -0.4218
 2226TIP3    H1 6684   4.383   1.016   1.940 -0.6912  0.7187 -0.4647
 2226TIP3    H2 6685   4.246   1.010   2.004 -0.2525 -0.1725  0.4263
 2227TIP3   OH2 6686   3.688   0.831   2.652  0.5065  0.4959 -0.0562
 2227TIP3    H1 6687   3.732   0.746   2.657  1.8509  1.1740  0.1068
 2227TIP3    H2 6688   3.702   0.860   2.562  1.0871  1.0755  0.2196
 2228TIP3   OH2 6689   2.685   1.194   2.572 -0.4243 -1.1051 -0.1541
 2228TIP3    H1 6690   2.771   1.157   2.548 -0.8478 -1.3183 -1.4372
 2228TIP3    H2 6691   2.706   1.262   2.636  0.8403 -0.4166 -1.2227
 2229TIP3   OH2 6692   5.033   2.699   0.043 -0.0468  0.9638 -0.3639
 2229TIP3    H1 6693   4.942   2.695   0.072  0.2812  0.5350  0.6424
 2229TIP3    H2 6694   5.049   2.614   0.002 -0.0222  0.9373 -0.2995
 2230TIP3   OH2 6695   0.104   1.876   1.973  0.1979 -0.0210 -0.3229
 2230TIP3    H1 6696   0.166   1.857   2.043  2.2941  0.9753 -1.7875
 2230TIP3    H2 6697   0.053   1.796   1.964  0.1097 -0.2966  2.0558
 2231TIP3   OH2 6698   6.138   4.919   0.742  0.1999 -0.0045 -0.6994
 2231TIP3    H1 6699   6.170   4.897   0.830  0.7040  2.1945 -0.2757
 2231TIP3    H2 6700   6.057   4.869   0.733 -0.1050  0.0551  1.2139
 2232TIP3   OH2 6701   0.367   4.593   3.636 -0.0831  0.4217 -0.1990
 2232TIP3    H1 6702   0.421   4.538   3.693  0.4541  0.4992 -0.6295
 2232TIP3    H2 6703   0.391   4.682   3.660 -1.4320  0.5005  0.9619
 2233TIP3   OH2 6704   5.206   2.638   2.088 -0.1790  0.3304  0.4484
 2233TIP3    H1 6705   5.117   2.623   2.121  0.0135 -0.6134  0.5453
 2233TIP3    H2 6706   5.206   2.730   2.062 -1.9186 -0.2112 -1.7599
 2234TIP3   OH2 6707   5.165   5.601   0.732 -0.5058 -0.0847  0.0522
 2234TIP3    H1 6708   5.254   5.578   0.703  0.2670  2.5322  0.0294
 2234TIP3    H2 6709   5.128   5.520   0.765  1.5797 -1.4469 -0.7687
 2235TIP3   OH2 6710   2.227   0.363   1.835 -0.1804  0.4361  0.2269
 2235TIP3    H1 6711   2.141   0.407   1.832 -1.3218 -1.7280 -0.7863
 2235TIP3    H2 6712   2.289   0.431   1.807 -1.4553  2.1953  1.4267
 2236TIP3   OH2 6713   1.139   0.987   2.609 -0.5063 -0.5057  0.1587
 2236TIP3    H1 6714   1.225   1.026   2.590 -0.7352  0.5124  1.1070
 2236TIP3    H2 6715   1.109   1.033   2.687 -1.8479 -0.9822 -0.0563
 2237TIP3   OH2 6716   3.341   3.533   1.191  0.3922  0.4214 -0.1192
 2237TIP3    H1 6717   3.431   3.507   1.173 -0.1246 -0.4081 -1.6965
 2237TIP3    H2 6718   3.294   3.450   1.201 -0.3989  0.8303 -0.4270
 2238TIP3   OH2 6719   0.837   4.937   3.918  0.7488 -0.2850  0.1805
 2238TIP3    H1 6720   0.836   4.854   3.871 -0.2736  0.0138 -0.3607
 2238TIP3    H2 6721   0.819   4.913   4.009  0.2769 -0.6533 -0.0029
 2239TIP3   OH2 6722   2.795   4.262   2.352  0.2157 -0.2563 -0.0440
 2239TIP3    H1 6723   2.761   4.269   2.262  0.2226 -0.4684 -0.0642
 2239TIP3    H2 6724   2.788   4.350   2.387 -1.1763 -0.4481  0.2422
 2240TIP3   OH2 6725   1.910   0.703   1.543  0.0252 -0.0386  0.7810
 2240TIP3    H1 6726   1.893   0.755   1.622 -0.2401  2.2549 -0.6842
 2240TIP3    H2 6727   1.899   0.765   1.471  0.6209 -1.9585 -1.0606
 2241TIP3   OH2 6728   3.990   5.942   1.782 -0.0462  0.2060  0.2769
 2241TIP3    H1 6729   3.960   5.956   1.872 -0.1542 -0.1235  0.2942
 2241TIP3    H2 6730   4.019   5.851   1.781  1.8468  0.7642  0.5110
 2242TIP3   OH2 6731   5.709   0.336   2.418 -0.0230 -0.2099 -0.1891
 2242TIP3    H1 6732   5.706   0.303   2.508  1.9379  0.5233  0.1714
 2242TIP3    H2 6733   5.770   0.410   2.420 -3.2335  2.7608 -1.2320
 2243TIP3   OH2 6734   2.353   4.741   1.103 -0.4842  1.2116  0.3129
 2243TIP3    H1 6735   2.415   4.751   1.031 -1.1857  1.1926 -0.3008
 2243TIP3    H2 6736   2.356   4.648   1.125 -0.1960  1.2354  0.3843
 2244TIP3   OH2 6737   2.548   1.884   2.360 -0.3415  0.7196  0.2302
 2244TIP3    H1 6738   2.460   1.904   2.327 -0.8404 -1.0172  0.4077
 2244TIP3    H2 6739   2.545   1.791   2.382  1.3894  0.7526  0.7684
 2245TIP3   OH2 6740   1.947   0.383   4.571 -0.0201 -0.2503  0.2054
 2245TIP3    H1 6741   2.013   0.399   4.639  1.2657 -1.6905 -0.6542
 2245TIP3    H2 6742   1.965   0.295   4.540 -1.5852 -0.2071 -0.9382
 2246TIP3   OH2 6743   4.325   3.483   3.961 -0.4107 -0.2415  0.2715
 2246TIP3    H1 6744   4.379   3.433   3.900  0.6393  1.8831 -0.6542
 2246TIP3    H2 6745   4.237   3.482   3.922 -0.1818 -0.5496 -0.2472
 2247TIP3   OH2 6746   1.673   1.159   2.477  0.5041 -0.3288 -0.0722
 2247TIP3    H1 6747   1.765   1.186   2.477  0.1860  0.8464 -1.3212
 2247TIP3    H2 6748   1.633   1.206   2.550  0.8314 -0.6923  0.3509
 2248TIP3   OH2 6749   3.488   5.208   2.868  0.3055 -0.0667 -0.4572
 2248TIP3    H1 6750   3.482   5.195   2.774 -2.8667 -0.1983 -0.3387
 2248TIP3    H2 6751   3.525   5.126   2.901  2.6873  0.4547 -1.5983
 2249TIP3   OH2 6752   5.573   2.942   4.080  0.5576 -0.1431 -0.1632
 2249TIP3    H1 6753   5.606   2.871   4.026  0.9596 -1.3305  1.5447
 2249TIP3    H2 6754   5.604   3.022   4.037  4.8300 -1.0928  0.6249
 2250TIP3   OH2 6755   3.135   3.352   2.823  0.3531  0.1394 -0.0797
 2250TIP3    H1 6756   3.074   3.345   2.897  1.5900 -2.7283  0.8231
 2250TIP3    H2 6757   3.088   3.315   2.749  0.5352 -0.9934  0.3453
 2251TIP3   OH2 6758   1.097   3.253   1.258 -0.3241 -0.1130  0.4261
 2251TIP3    H1 6759   1.121   3.197   1.332 -2.4622 -1.8232 -0.0432
 2251TIP3    H2 6760   1.080   3.191   1.187 -1.0485  1.2768 -0.6446
 2252TIP3   OH2 6761   4.011   2.567   0.628 -0.0084  0.1339 -0.6606
 2252TIP3    H1 6762   4.015   2.565   0.724 -1.0205 -0.2618 -0.6062
 2252TIP3    H2 6763   4.100   2.545   0.600  0.0651 -0.7427  0.1936
 2253TIP3   OH2 6764   0.682   0.205   3.598  1.1453 -0.3559  0.3019
 2253TIP3    H1 6765   0.746   0.143   3.631  1.1974 -1.1356 -1.1798
 2253TIP3    H2 6766   0.721   0.239   3.517  0.0862 -0.1765 -0.1534
 2254TIP3   OH2 6767   0.408   5.407   1.897  0.0616 -0.0102  0.4594
 2254TIP3    H1 6768   0.321   5.378   1.924 -0.1936 -0.8112 -1.1326
 2254TIP3    H2 6769   0.434   5.347   1.827  1.4719  0.8283  0.2077
 2255TIP3   OH2 6770   2.824   5.015   3.934 -0.1367  0.0661  0.7158
 2255TIP3    H1 6771   2.802   5.004   4.026 -0.1102 -0.7512  0.6314
 2255TIP3    H2 6772   2.825   5.110   3.920 -0.3224  0.1859  1.5077
 2256TIP3   OH2 6773   3.421   5.795   4.020  0.8343 -0.4586  0.4009
 2256TIP3    H1 6774   3.363   5.866   4.047 -0.4111 -1.4019  0.2877
 2256TIP3    H2 6775   3.490   5.838   3.969  0.1793  0.6797  0.4487
 2257TIP3   OH2 6776   1.316   4.710   1.443  0.2501  0.1041 -0.6256
 2257TIP3    H1 6777   1.354   4.624   1.460  0.4984  0.2478 -0.4313
 2257TIP3    H2 6778   1.326   4.723   1.349 -2.5481 -1.3594 -1.2223
 2258TIP3   OH2 6779   4.439   4.850   0.794  0.4525  0.4418 -0.5588
 2258TIP3    H1 6780   4.395   4.823   0.713  0.3091 -1.0682 -0.0191
 2258TIP3    H2 6781   4.407   4.938   0.812  0.7742  0.9492 -2.3321
 2259TIP3   OH2 6782   4.726   2.392   3.128  0.2134  0.0467 -0.2684
 2259TIP3    H1 6783   4.653   2.385   3.189  0.4066 -0.7011 -0.1144
 2259TIP3    H2 6784   4.697   2.458   3.065  0.5996  1.9432  1.4249
 2260TIP3   OH2 6785   4.165   0.288   3.438 -0.3208 -0.0264 -0.7240
 2260TIP3    H1 6786   4.231   0.223   3.459 -0.6564 -0.1314  0.0203
 2260TIP3    H2 6787   4.166   0.293   3.342 -0.2089 -1.0254 -0.7785
 2261TIP3   OH2 6788   1.967   2.885   4.122  0.0602  0.4257  0.0699
 2261TIP3    H1 6789   1.910   2.833   4.066 -1.1205  0.7028  0.9737
 2261TIP3    H2 6790   1.958   2.975   4.089  2.6912  0.0769 -1.9898
 2262TIP3   OH2 6791   1.251   5.099   4.196 -0.3620 -0.0239  0.1076
 2262TIP3    H1 6792   1.165   5.113   4.156  0.4112 -0.0035 -1.6413
 2262TIP3    H2 6793   1.259   5.004   4.203 -0.4500 -0.0362  0.0459
 2263TIP3   OH2 6794   6.316  -0.007   3.223  0.1369  0.3941 -0.1867
 2263TIP3    H1 6795   6.337   0.017   3.313 -2.7311 -0.1415  0.7404
 2263TIP3    H2 6796   6.274   0.070   3.186 -0.8870 -0.1413 -0.2013
 2264TIP3   OH2 6797   6.307   3.061   5.100  0.7603  0.3165 -0.0493
 2264TIP3    H1 6798   6.241   2.998   5.130 -0.4952  2.1354  1.2115
 2264TIP3    H2 6799   6.332   3.030   5.012 -0.6031 -1.2921  0.0827
 2265TIP3   OH2 6800   4.289   0.773   4.121 -0.3102 -0.6610  0.0962
 2265TIP3    H1 6801   4.286   0.683   4.087 -0.1041 -0.9826  0.9198
 2265TIP3    H2 6802   4.308   0.763   4.214 -0.7772  0.2231  0.2941
 2266TIP3   OH2 6803   4.850   2.065   1.345  0.6646 -0.4866 -0.0436
 2266TIP3    H1 6804   4.808   2.098   1.424  1.2143 -0.6510  0.3275
 2266TIP3    H2 6805   4.941   2.052   1.371  0.4982 -2.1357 -0.2358
 2267TIP3   OH2 6806   3.122   1.157   4.229 -0.1890  0.0585  0.0898
 2267TIP3    H1 6807   3.155   1.077   4.268  1.6896  0.5255 -0.4344
 2267TIP3    H2 6808   3.198   1.197   4.187 -1.6044  0.8010 -1.9302
 2268TIP3   OH2 6809   1.551   3.079   3.759 -0.2106  0.0105 -0.0862
 2268TIP3    H1 6810   1.482   3.013   3.769  0.4729 -0.6728  0.2618
 2268TIP3    H2 6811   1.602   3.072   3.839  0.7751 -0.1046 -0.7115
 2269TIP3   OH2 6812   2.705   5.495   1.207 -0.0638  0.2782 -0.0089
 2269TIP3    H1 6813   2.707   5.556   1.133 -0.2964 -0.4860 -0.6522
 2269TIP3    H2 6814   2.677   5.549   1.281  1.5099  1.3754 -0.1595
 2270TIP3   OH2 6815   2.574   3.408   1.920 -0.6865 -0.4912 -0.2175
 2270TIP3    H1 6816   2.532   3.365   1.995 -0.8759 -0.8097 -0.5034
 2270TIP3    H2 6817   2.638   3.343   1.888 -1.3196 -0.7651 -0.9524
 2271TIP3   OH2 6818   5.119   0.965   2.817  0.4660 -0.0101  0.5238
 2271TIP3    H1 6819   5.027   0.990   2.819  0.6172  0.5140  1.2827
 2271TIP3    H2 6820   5.119   0.878   2.776 -0.4267 -0.2947  1.0987
 2272TIP3   OH2 6821   4.759   2.068   4.871 -0.4330  0.1336 -0.0505
 2272TIP3    H1 6822   4.801   2.079   4.786 -0.7784 -1.3957 -0.4626
 2272TIP3    H2 6823   4.666   2.057   4.851 -0.4830 -0.5230  0.4724
 2273TIP3   OH2 6824   2.667   2.501   1.654  0.4102  0.2044 -0.6575
 2273TIP3    H1 6825   2.717   2.422   1.630  0.7773  0.6384 -1.3451
 2273TIP3    H2 6826   2.590   2.499   1.598 -1.2448 -1.3180  1.5089
 2274TIP3   OH2 6827   2.543   2.179   0.553 -0.3660  0.3129  0.3150
 2274TIP3    H1 6828   2.630   2.217   0.537  0.2064 -0.8118  0.5983
 2274TIP3    H2 6829   2.502   2.178   0.466 -0.0698  0.7854  0.1631
 2275TIP3   OH2 6830   6.273   5.657   1.578 -0.0302  0.6617 -0.1162
 2275TIP3    H1 6831   6.323   5.668   1.659 -0.9930 -2.1297  0.9929
 2275TIP3    H2 6832   6.197   5.714   1.588  0.9470  1.9940 -0.0765
 2276TIP3   OH2 6833   0.967   0.340   0.214 -0.0141 -0.7300  0.1350
 2276TIP3    H1 6834   0.908   0.303   0.148 -2.3628  1.3265  0.9312
 2276TIP3    H2 6835   0.909   0.383   0.277  2.3277  0.6858  1.4698
 2277TIP3   OH2 6836   5.821   1.813   2.095  0.1355 -0.4334  0.6787
 2277TIP3    H1 6837   5.751   1.759   2.131 -0.1131  0.8502  2.2294
 2277TIP3    H2 6838   5.792   1.833   2.006 -1.4395 -0.0372  1.2430
 2278TIP3   OH2 6839   1.971   1.158   1.878 -0.4411 -0.7095 -0.1214
 2278TIP3    H1 6840   1.965   1.215   1.954  2.7614  0.1113 -0.3538
 2278TIP3    H2 6841   1.987   1.218   1.805  1.5814 -1.7367 -0.5867
 2279TIP3   OH2 6842   4.252   4.801   2.302 -0.1514 -0.5944 -0.3561
 2279TIP3    H1 6843   4.209   4.819   2.218 -1.1924 -2.5803 -0.3306
 2279TIP3    H2 6844   4.332   4.754   2.278  0.2940  0.1275 -0.2852
 2280TIP3   OH2 6845   3.302   3.039   0.529  0.4661  0.0270 -0.0576
 2280TIP3    H1 6846   3.353   3.108   0.571  0.7759  0.3967 -1.0121
 2280TIP3    H2 6847   3.216   3.078   0.515 -0.4465 -0.9059  2.4113
 2281TIP3   OH2 6848   5.328   2.768   3.684 -0.4081 -0.0527  0.1339
 2281TIP3    H1 6849   5.420   2.785   3.702 -0.4577  0.8539 -0.4267
 2281TIP3    H2 6850   5.282   2.802   3.761 -0.4660  1.9880 -0.7515
 2282TIP3   OH2 6851   4.993   0.021   2.448 -0.1855 -0.0053  0.0252
 2282TIP3    H1 6852   5.084  -0.008   2.440  0.2495  1.0711  0.8034
 2282TIP3    H2 6853   4.972   0.056   2.362  0.7876  1.4794  0.3605
 2283TIP3   OH2 6854   1.695   0.570   0.772  0.1940 -0.6658 -0.6851
 2283TIP3    H1 6855   1.620   0.622   0.803 -0.5229 -2.2801  0.4104
 2283TIP3    H2 6856   1.692   0.579   0.677 -1.7877 -1.1705 -0.7197
 2284TIP3   OH2 6857   5.541   1.307   0.961  0.0979  0.1181 -0.2205
 2284TIP3    H1 6858   5.593   1.226   0.966 -0.0325  0.0076 -0.5977
 2284TIP3    H2 6859   5.548   1.345   1.048  0.9827  0.2130 -0.3239
 2285TIP3   OH2 6860   4.007   3.492   0.165 -0.0502  0.1693 -0.5259
 2285TIP3    H1 6861   4.080   3.490   0.103 -0.0826 -1.8775 -0.5688
 2285TIP3    H2 6862   4.025   3.566   0.222  0.9472  0.9756 -1.8408
 2286TIP3   OH2 6863   5.935   4.590   5.048  0.6328  0.2511  0.2044
 2286TIP3    H1 6864   5.888   4.547   4.977  2.4308 -1.1963 -0.1850
 2286TIP3    H2 6865   5.873   4.590   5.121  0.5138 -3.2099  0.2746
 2287TIP3   OH2 6866   6.248   5.157   0.176 -0.1465 -0.4353 -0.1011
 2287TIP3    H1 6867   6.268   5.176   0.085 -0.7312  1.4834  0.1306
 2287TIP3    H2 6868   6.213   5.239   0.211  3.1555  0.0238  2.7658
 2288TIP3   OH2 6869   0.384   3.065   0.625 -0.1998 -0.3372 -0.1260
 2288TIP3    H1 6870   0.313   3.112   0.668  1.3153  0.8287  1.2150
 2288TIP3    H2 6871   0.370   2.974   0.650  0.6792  0.2946  3.0940
 2289TIP3   OH2 6872   3.452   1.013   1.370 -0.0831  0.2390 -0.0538
 2289TIP3    H1 6873   3.465   0.957   1.293 -0.2449  1.1925 -0.7937
 2289TIP3    H2 6874   3.438   1.100   1.334  0.3445  0.8009  1.0882
 2290TIP3   OH2 6875   4.203   3.036   1.819 -0.2856  0.3483  0.1310
 2290TIP3    H1 6876   4.208   3.127   1.848  1.2572  1.4906 -3.2197
 2290TIP3    H2 6877   4.292   3.002   1.830 -0.5408 -0.3496  0.1064
 2291TIP3   OH2 6878   2.771   5.664   1.565  0.1751  0.0367  0.7863
 2291TIP3    H1 6879   2.845   5.607   1.585  0.1980 -0.1159  0.2605
 2291TIP3    H2 6880   2.809   5.752   1.564  0.5474 -0.1316 -0.4702
 2292TIP3   OH2 6881   1.165   0.308   1.311  0.8089 -0.0746 -0.0812
 2292TIP3    H1 6882   1.256   0.332   1.292  1.0066 -0.7259  0.0010
 2292TIP3    H2 6883   1.167   0.282   1.404  0.5343 -0.0722 -0.0749
 2293TIP3   OH2 6884   5.604   0.896   0.730  0.2247 -0.1061  0.1185
 2293TIP3    H1 6885   5.600   0.848   0.813 -0.2369 -2.1730 -1.0131
 2293TIP3    H2 6886   5.650   0.837   0.671 -0.5312  0.7810 -1.4177
 2294TIP3   OH2 6887   2.462   4.956   0.254  0.4222  0.0103 -0.6175
 2294TIP3    H1 6888   2.545   4.969   0.209  0.0551  1.2349 -0.9839
 2294TIP3    H2 6889   2.449   4.861   0.253  1.6220 -0.1697 -0.8812
 2295TIP3   OH2 6890   5.316   2.225   1.595  0.4922  0.3370  0.3094
 2295TIP3    H1 6891   5.256   2.296   1.570  0.2633 -0.7209 -2.4889
 2295TIP3    H2 6892   5.269   2.177   1.663 -1.2456  0.3949 -0.7885
 2296TIP3   OH2 6893   5.456   5.468   4.583 -0.4414  0.2614 -0.0228
 2296TIP3    H1 6894   5.463   5.562   4.600 -1.3300  0.1881  0.8575
 2296TIP3    H2 6895   5.545   5.440   4.565 -0.1948  1.3111 -0.4824
 2297TIP3   OH2 6896   0.802   2.745   2.575  0.0585 -0.1566 -0.1130
 2297TIP3    H1 6897   0.863   2.802   2.529 -1.6792  2.3405  0.4451
 2297TIP3    H2 6898   0.834   2.741   2.665 -0.1424  0.5177 -0.0042
 2298TIP3   OH2 6899   6.214   4.041   1.498  0.2172 -0.0072 -0.9255
 2298TIP3    H1 6900   6.180   4.091   1.424  1.4584  1.7042 -0.4071
 2298TIP3    H2 6901   6.138   4.029   1.555 -0.0140  1.9438 -0.7456
 2299TIP3   OH2 6902   0.179   4.797   4.885  0.4090 -0.3277  0.9296
 2299TIP3    H1 6903   0.104   4.829   4.936 -0.6512  0.8726 -1.2410
 2299TIP3    H2 6904   0.234   4.752   4.949 -1.2879  0.2839  2.9326
 2300TIP3   OH2 6905   0.675   0.899   4.402 -0.1727 -0.1028 -0.4298
 2300TIP3    H1 6906   0.687   0.988   4.370  1.4840  0.4139  1.4427
 2300TIP3    H2 6907   0.589   0.900   4.444 -0.4653  0.4090 -1.0285
 2301TIP3   OH2 6908   5.059   1.239   4.795 -0.1815  0.3376  0.4648
 2301TIP3    H1 6909   5.069   1.229   4.890 -0.1573  1.7469  0.6209
 2301TIP3    H2 6910   5.008   1.162   4.769  1.1618 -0.9024  1.3577
 2302TIP3   OH2 6911   1.248   1.060   0.804  0.7880  0.2373 -0.1063
 2302TIP3    H1 6912   1.202   1.039   0.885 -0.4997  3.7314  0.2742
 2302TIP3    H2 6913   1.190   1.029   0.735 -0.4699  1.3621  0.3905
 2303TIP3   OH2 6914   5.113   2.456   1.547  0.1121 -0.2677 -0.2458
 2303TIP3    H1 6915   5.181   2.522   1.532 -0.7470  0.8827  0.6892
 2303TIP3    H2 6916   5.032   2.507   1.556 -0.5598 -1.4500  0.6911
 2304TIP3   OH2 6917   1.887   4.381   2.562  0.1282  0.1226  0.4083
 2304TIP3    H1 6918   1.953   4.355   2.627 -1.2532 -1.4303  1.2533
 2304TIP3    H2 6919   1.935   4.386   2.480  1.7599  1.3274  1.3582
 2305TIP3   OH2 6920   0.538   0.312   2.695 -0.1599  0.2979 -0.0894
 2305TIP3    H1 6921   0.592   0.282   2.768 -1.2115 -2.0659 -0.1933
 2305TIP3    H2 6922   0.551   0.246   2.627 -1.3629  0.9424 -0.9762
 2306TIP3   OH2 6923   6.040   0.612   2.788  0.1002 -0.0170 -0.2459
 2306TIP3    H1 6924   6.088   0.533   2.811 -0.9189 -0.2026  1.4264
 2306TIP3    H2 6925   6.083   0.681   2.839  0.1532  0.2712 -0.6760
 2307TIP3   OH2 6926   5.176   5.210   2.161  0.3248 -0.0409 -0.4318
 2307TIP3    H1 6927   5.222   5.288   2.129  2.8620 -1.5828 -0.8140
 2307TIP3    H2 6928   5.152   5.231   2.251 -0.4093  1.6875 -0.9792
 2308TIP3   OH2 6929   4.489   0.626   0.820 -0.0314  0.1918 -0.4605
 2308TIP3    H1 6930   4.454   0.559   0.760  1.7631 -0.6454 -0.6227
 2308TIP3    H2 6931   4.533   0.576   0.888  0.8933  1.2180 -0.2861
 2309TIP3   OH2 6932   4.908   3.945   0.570  0.3921  0.7025  0.4033
 2309TIP3    H1 6933   4.892   3.854   0.593  0.8067  0.2418 -1.0298
 2309TIP3    H2 6934   4.821   3.985   0.568  0.1812  0.2700  0.7217
 2310TIP3   OH2 6935   1.722   0.671   5.172  0.5803 -0.2883  0.2549
 2310TIP3    H1 6936   1.751   0.621   5.096 -0.4115  0.6413 -0.7886
 2310TIP3    H2 6937   1.783   0.648   5.241  0.4281 -2.5639 -0.3018
 2311TIP3   OH2 6938   0.675   1.757   0.058 -0.2095  0.0076  0.7771
 2311TIP3    H1 6939   0.604   1.821   0.053  0.9487  1.3681  1.1354
 2311TIP3    H2 6940   0.649   1.698   0.129 -1.0317  0.4112  0.8300
 2312TIP3   OH2 6941   6.311   5.908   2.110 -0.6861 -0.4183 -0.3828
 2312TIP3    H1 6942   6.405   5.925   2.102 -0.1242 -2.4244  1.0915
 2312TIP3    H2 6943   6.276   5.983   2.158  0.4584 -0.3037  0.3022
 2313TIP3   OH2 6944   1.400   3.036   2.897 -0.1624  0.2923  0.7905
 2313TIP3    H1 6945   1.388   2.960   2.840  0.6449  0.6298  0.1575
 2313TIP3    H2 6946   1.311   3.070   2.911 -0.2516  1.6333 -2.2495
 2314TIP3   OH2 6947   4.376   0.069   2.804 -0.2074 -0.4874 -0.5286
 2314TIP3    H1 6948   4.464   0.033   2.790 -0.0621 -0.0349 -0.8138
 2314TIP3    H2 6949   4.362   0.061   2.898  0.1682 -0.4979 -0.4700
 2315TIP3   OH2 6950   4.247   5.750   1.333 -0.2489 -0.4572 -0.7827
 2315TIP3    H1 6951   4.332   5.773   1.371 -0.7300  0.5794 -0.3102
 2315TIP3    H2 6952   4.257   5.658   1.307  1.0129 -0.3499 -0.7391
 2316TIP3   OH2 6953   4.099   0.651   2.154  0.6993 -0.3074  0.5899
 2316TIP3    H1 6954   4.112   0.728   2.208 -3.4974  0.2643  1.0592
 2316TIP3    H2 6955   4.078   0.685   2.067  1.1871 -1.0461  0.1620
 2317TIP3   OH2 6956   4.263   3.597   1.470 -0.0662 -0.2486 -0.3393
 2317TIP3    H1 6957   4.268   3.681   1.424  0.0353  1.3894  2.4449
 2317TIP3    H2 6958   4.354   3.572   1.483 -0.0805 -0.1770 -0.1095
 2318TIP3   OH2 6959   5.550   5.803   3.448  0.8160 -0.1373  0.8338
 2318TIP3    H1 6960   5.638   5.768   3.433  0.7904 -1.0779  2.5756
 2318TIP3    H2 6961   5.562   5.898   3.448  1.7952 -0.2475  0.7921
 2319TIP3   OH2 6962   4.072   4.079   3.590 -0.2741 -0.2090 -0.9400
 2319TIP3    H1 6963   4.091   4.162   3.548 -1.8382  0.2914 -0.7176
 2319TIP3    H2 6964   3.988   4.092   3.634  0.0090 -1.5415  0.0932
 2320TIP3   OH2 6965   0.540   1.294   4.824  0.7233 -0.0655  0.8662
 2320TIP3    H1 6966   0.518   1.201   4.836 -3.8874  0.7946  1.0074
 2320TIP3    H2 6967   0.564   1.301   4.732 -2.7237 -0.9730 -0.2419
 2321TIP3   OH2 6968   0.967   4.946  -0.028 -0.0626 -0.4217  0.0057
 2321TIP3    H1 6969   0.918   4.876   0.015  0.5259 -0.5481  0.4870
 2321TIP3    H2 6970   1.048   4.953   0.022 -0.0416  0.5007 -0.1291
 2322TIP3   OH2 6971   0.271   3.324   0.970 -0.3041 -0.5632  0.0194
 2322TIP3    H1 6972   0.296   3.362   0.886 -0.8836 -0.0244  0.0862
 2322TIP3    H2 6973   0.354   3.315   1.017  0.2539 -2.3777 -1.2013
 2323TIP3   OH2 6974   2.532   3.965   3.660 -0.3557  0.2160 -0.2361
 2323TIP3    H1 6975   2.616   4.009   3.650 -0.2947 -0.1956 -1.8026
 2323TIP3    H2 6976   2.537   3.921   3.745  0.0905  2.0957  0.7559
 2324TIP3   OH2 6977   0.482   2.807   3.234 -0.1495 -0.4766  0.4949
 2324TIP3    H1 6978   0.476   2.900   3.217 -1.3375 -0.3501  1.4811
 2324TIP3    H2 6979   0.502   2.801   3.328 -0.7196 -1.2222  0.5767
 2325TIP3   OH2 6980   4.686   5.627   1.036 -0.3682 -0.0641 -0.1607
 2325TIP3    H1 6981   4.641   5.544   1.022  1.1236 -0.7542 -1.2286
 2325TIP3    H2 6982   4.627   5.693   0.999 -0.5040 -0.9506 -1.6330
 2326TIP3   OH2 6983   1.161   2.467   3.891 -0.0925 -0.7949 -0.2175
 2326TIP3    H1 6984   1.121   2.493   3.808 -0.5252  0.0707  0.2414
 2326TIP3    H2 6985   1.106   2.509   3.958  0.7410 -0.7866  0.4799
 2327TIP3   OH2 6986   0.805   1.495   3.933 -0.2744 -0.3816  0.0169
 2327TIP3    H1 6987   0.894   1.529   3.935 -0.7765  1.1038  2.2925
 2327TIP3    H2 6988   0.813   1.405   3.904  2.1922 -0.7783  1.6599
 2328TIP3   OH2 6989   3.918   2.520   4.921 -0.0098 -0.2580 -0.0268
 2328TIP3    H1 6990   3.939   2.536   5.013  1.5601 -0.0654 -0.3884
 2328TIP3    H2 6991   3.990   2.561   4.872 -1.6776  1.2210 -1.4340
 2329TIP3   OH2 6992   2.604   2.274   2.164 -0.3317  0.6913  0.3571
 2329TIP3    H1 6993   2.513   2.268   2.135  0.1543 -0.7455 -1.0139
 2329TIP3    H2 6994   2.598   2.304   2.255 -2.1859  0.2902  0.4117
 2330TIP3   OH2 6995   3.375   0.184   2.351  0.3879  0.4954  0.4917
 2330TIP3    H1 6996   3.435   0.115   2.324  0.4514  0.8634 -0.3379
 2330TIP3    H2 6997   3.430   0.247   2.398  0.4363  0.2783  0.7302
 2331TIP3   OH2 6998   1.734   3.381   0.084  0.1381 -0.0437 -0.6004
 2331TIP3    H1 6999   1.801   3.312   0.084  0.2938  0.1046  0.1728
 2331TIP3    H2 7000   1.655   3.337   0.052  0.1345 -0.6864  0.2660
 2332TIP3   OH2 7001   5.758   0.741   0.573  0.7570  0.0670  0.2510
 2332TIP3    H1 7002   5.747   0.777   0.485 -0.4355  0.1354  0.4108
 2332TIP3    H2 7003   5.739   0.647   0.563  0.9968  0.0048  0.3655
 2333TIP3   OH2 7004   3.395   3.615   4.324 -0.3137  0.2905 -0.1246
 2333TIP3    H1 7005   3.372   3.524   4.306  0.3420 -0.0092  0.4929
 2333TIP3    H2 7006   3.381   3.660   4.241 -0.3170 -0.4428 -0.5336
 2334TIP3   OH2 7007   2.096   0.633   0.701 -0.1996  0.0664 -0.2849
 2334TIP3    H1 7008   2.176   0.592   0.732 -0.3363  0.4143  0.5325
 2334TIP3    H2 7009   2.080   0.592   0.615  0.4232 -0.5649 -0.1052
 2335TIP3   OH2 7010   0.192   0.859   2.789 -0.2451 -0.4406 -0.0961
 2335TIP3    H1 7011   0.268   0.849   2.733  0.5624  0.7724  0.7568
 2335TIP3    H2 7012   0.214   0.809   2.868 -0.7835 -0.9491 -0.2554
 2336TIP3   OH2 7013   4.078   5.954   1.346  0.5164 -0.3309 -0.2065
 2336TIP3    H1 7014   4.120   5.868   1.358 -1.0302 -1.0633  0.2708
 2336TIP3    H2 7015   3.994   5.945   1.390  1.0158  2.0440  1.3901
 2337TIP3   OH2 7016   3.471   0.594   3.188 -0.0535 -0.4939 -0.4672
 2337TIP3    H1 7017   3.480   0.650   3.111  0.2979 -1.6761 -1.3154
 2337TIP3    H2 7018   3.378   0.572   3.192 -0.2186  0.2612 -0.0395
 2338TIP3   OH2 7019   3.703   1.615   1.200 -0.2758  0.3263 -0.1382
 2338TIP3    H1 7020   3.631   1.656   1.153  0.7415  0.6806 -1.4661
 2338TIP3    H2 7021   3.715   1.530   1.157 -0.2436  0.0317  0.4348
 2339TIP3   OH2 7022   0.840   4.126   4.103 -0.0698  0.3526 -0.2135
 2339TIP3    H1 7023   0.873   4.155   4.188 -0.2825 -0.3835  0.1270
 2339TIP3    H2 7024   0.903   4.061   4.073 -0.8515 -0.6082  0.1559
 2340TIP3   OH2 7025   2.761   5.708   2.254 -0.4887  0.0616  0.4451
 2340TIP3    H1 7026   2.666   5.717   2.251 -0.6319 -0.6508  2.1464
 2340TIP3    H2 7027   2.783   5.715   2.346  0.8962 -1.8185  0.3022
 2341TIP3   OH2 7028   1.127   5.780   4.734 -0.1610  0.2519  0.1058
 2341TIP3    H1 7029   1.122   5.856   4.793  0.7293  0.1467  0.3310
 2341TIP3    H2 7030   1.036   5.758   4.716 -0.5200 -0.3520  2.2879
 2342TIP3   OH2 7031   5.190   3.975   2.322  0.3263  0.8382 -0.0276
 2342TIP3    H1 7032   5.271   3.971   2.272  0.1531  1.4588 -0.3658
 2342TIP3    H2 7033   5.162   4.066   2.316 -0.5877  0.5561 -0.2251
 2343TIP3   OH2 7034   1.719   1.149   4.017 -0.4346  0.4881 -0.2267
 2343TIP3    H1 7035   1.665   1.223   3.990 -0.7068  0.4671  0.2464
 2343TIP3    H2 7036   1.725   1.157   4.112  0.1248  0.3006 -0.2416
 2344TIP3   OH2 7037   3.359   3.732   4.047 -0.3726  0.3069 -0.2333
 2344TIP3    H1 7038   3.295   3.798   4.020 -0.8003 -1.0486 -2.8205
 2344TIP3    H2 7039   3.444   3.774   4.033 -0.5827  1.6774  2.0533
 2345TIP3   OH2 7040   5.172   0.468   5.140 -0.1277  0.0926 -0.4325
 2345TIP3    H1 7041   5.139   0.437   5.056  2.2366 -0.6785 -1.1545
 2345TIP3    H2 7042   5.093   0.496   5.187 -1.6027 -0.1169 -2.5919
 2346TIP3   OH2 7043   1.124   3.973   0.759 -0.4860 -0.5387  0.4951
 2346TIP3    H1 7044   1.089   3.969   0.848 -1.0956 -1.6644  0.2203
 2346TIP3    H2 7045   1.116   3.884   0.726  0.1843 -0.2359 -0.5282
 2347TIP3   OH2 7046   4.771   2.048   2.982  0.7131  0.0164 -0.4666
 2347TIP3    H1 7047   4.683   2.085   2.980  0.1502 -1.0631  1.6788
 2347TIP3    H2 7048   4.771   1.982   2.912 -1.2395 -2.0526  1.3255
 2348TIP3   OH2 7049   1.596   4.184   2.759 -0.1957 -0.5264  0.4085
 2348TIP3    H1 7050   1.525   4.120   2.757  0.2092 -0.9719 -0.1246
 2348TIP3    H2 7051   1.567   4.253   2.700 -0.2625 -0.6282  0.3191
 2349TIP3   OH2 7052   4.585   2.806   4.848 -0.2334 -0.4667  0.5506
 2349TIP3    H1 7053   4.569   2.858   4.927 -0.7655  0.3409 -0.0763
 2349TIP3    H2 7054   4.528   2.845   4.782  0.8845 -0.5352 -0.4863
 2350TIP3   OH2 7055   3.494   0.482   4.824  0.5289 -0.0596  0.8577
 2350TIP3    H1 7056   3.495   0.414   4.757  0.1932  0.2517  0.5214
 2350TIP3    H2 7057   3.443   0.445   4.896  1.8346 -0.8219  1.4257
 2351TIP3   OH2 7058   5.810   3.374   1.862 -0.5868 -0.1903  0.1633
 2351TIP3    H1 7059   5.794   3.280   1.858 -0.0463 -0.3164  0.7866
 2351TIP3    H2 7060   5.905   3.382   1.869 -0.5262  0.4494 -1.0443
 2352TIP3   OH2 7061   5.722   5.228   3.305  0.4345  0.4229  0.5315
 2352TIP3    H1 7062   5.747   5.304   3.359  0.6250  0.9451 -0.2777
 2352TIP3    H2 7063   5.635   5.204   3.337  0.9565  0.0784  1.7665
 2353TIP3   OH2 7064   2.920   3.468   3.954  0.6025 -0.0661  0.4094
 2353TIP3    H1 7065   2.994   3.493   4.008  0.4307 -0.9741  1.0918
 2353TIP3    H2 7066   2.855   3.537   3.968  0.0793 -0.8897  2.3621
 2354TIP3   OH2 7067   1.437   0.724   0.684  0.0155  0.6914 -0.4712
 2354TIP3    H1 7068   1.345   0.716   0.661 -0.3749 -0.1851  1.2647
 2354TIP3    H2 7069   1.480   0.654   0.635 -0.5983 -0.3266  0.4051
 2355TIP3   OH2 7070   3.553   4.654   3.572 -0.0568  0.2963 -0.5304
 2355TIP3    H1 7071   3.590   4.656   3.660  1.0364 -0.8107 -0.9411
 2355TIP3    H2 7072   3.621   4.691   3.517  0.6045 -1.9585 -1.3264
 2356TIP3   OH2 7073   2.529   3.494   3.706  0.2751 -0.6372  0.4421
 2356TIP3    H1 7074   2.442   3.471   3.674  0.2438 -0.5700  0.4792
 2356TIP3    H2 7075   2.549   3.578   3.665  0.6326 -1.0025 -0.1554
 2357TIP3   OH2 7076   0.577   4.174   4.000  0.4954  0.3587 -0.1670
 2357TIP3    H1 7077   0.606   4.137   3.917 -0.7407 -0.5842 -0.1936
 2357TIP3    H2 7078   0.640   4.141   4.064  0.2185 -0.6687 -0.4059
 2358TIP3   OH2 7079   5.739   1.862   3.786  0.2131 -0.0327  0.6389
 2358TIP3    H1 7080   5.717   1.873   3.879  0.1741  0.6752  0.5489
 2358TIP3    H2 7081   5.830   1.892   3.779  1.2721 -2.8779  0.9982
 2359TIP3   OH2 7082   4.575   2.673   3.798 -0.7220 -0.7605  0.5695
 2359TIP3    H1 7083   4.591   2.637   3.710 -0.9182 -0.5777  0.4573
 2359TIP3    H2 7084   4.644   2.739   3.809  0.9703 -2.5819  1.6182
 2360TIP3   OH2 7085   2.939   2.109   4.001  0.2358  0.2852  0.0274
 2360TIP3    H1 7086   2.992   2.123   4.079  0.2852  0.7865 -0.0911
 2360TIP3    H2 7087   3.002   2.100   3.930  0.2500 -1.4553  0.2102
 2361TIP3   OH2 7088   4.408   4.425   0.260  0.3588  0.5380  0.3741
 2361TIP3    H1 7089   4.404   4.486   0.186 -1.6879  1.7137  1.3900
 2361TIP3    H2 7090   4.388   4.478   0.337 -0.0884 -1.1563  1.4818
 2362TIP3   OH2 7091   5.497   1.308   5.148 -0.7601  0.5312  0.7900
 2362TIP3    H1 7092   5.439   1.370   5.103 -1.0086 -0.6059 -0.5192
 2362TIP3    H2 7093   5.568   1.292   5.086 -1.5075 -1.6591  0.4316
 2363TIP3   OH2 7094   2.028   1.944   2.495 -0.6902  0.2004 -0.0790
 2363TIP3    H1 7095   1.978   1.896   2.561  0.0695  0.0350  0.3906
 2363TIP3    H2 7096   1.977   2.023   2.479 -1.9679 -0.7403 -0.8691
 2364TIP3   OH2 7097   2.639   3.551   2.298 -0.2023 -0.0411  0.3200
 2364TIP3    H1 7098   2.685   3.523   2.220  1.5416  1.9608  0.5458
 2364TIP3    H2 7099   2.567   3.606   2.266  0.6766  1.0070  0.0819
 2365TIP3   OH2 7100   0.763   3.711   5.127  0.7926  0.5781  0.0933
 2365TIP3    H1 7101   0.686   3.764   5.106 -0.9827 -1.8366  0.1367
 2365TIP3    H2 7102   0.751   3.685   5.218  0.7756 -1.1174 -0.3514
 2366TIP3   OH2 7103   0.806   1.264   3.271  0.2920  0.2064  0.3971
 2366TIP3    H1 7104   0.821   1.221   3.187 -1.2549  0.2052  0.0872
 2366TIP3    H2 7105   0.866   1.338   3.271  3.8589 -2.3931  1.4106
 2367TIP3   OH2 7106   4.545   0.604   4.463  0.0921 -0.1623  0.0401
 2367TIP3    H1 7107   4.560   0.527   4.519  0.7604 -0.7758 -0.9574
 2367TIP3    H2 7108   4.623   0.610   4.409 -1.2223 -0.6330 -2.0505
 2368TIP3   OH2 7109   3.919   1.627   4.792  0.1640 -0.4326  0.0764
 2368TIP3    H1 7110   3.915   1.629   4.888 -0.2149 -1.6477  0.1094
 2368TIP3    H2 7111   3.838   1.583   4.766  0.9735 -1.5079 -0.7078
 2369TIP3   OH2 7112   1.121   2.337   4.627  0.0019 -0.5115 -0.0285
 2369TIP3    H1 7113   1.109   2.305   4.538 -0.5276 -0.8570  0.1599
 2369TIP3    H2 7114   1.215   2.327   4.644  0.0649 -0.6668 -0.4588
 2370TIP3   OH2 7115   2.638   2.378   2.408  0.5405  0.5761 -0.3780
 2370TIP3    H1 7116   2.729   2.392   2.436  0.8018 -2.9002  0.9488
 2370TIP3    H2 7117   2.587   2.390   2.488 -0.1765  2.0343 -1.0165
 2371TIP3   OH2 7118   0.321   5.115   4.046 -0.5294  0.3611 -0.4761
 2371TIP3    H1 7119   0.292   5.195   4.089  1.2537  1.4440 -1.1851
 2371TIP3    H2 7120   0.345   5.142   3.958  1.3721 -0.6460 -0.3278
 2372TIP3   OH2 7121   3.356   0.750   1.861  0.3859  0.0380  0.9779
 2372TIP3    H1 7122   3.364   0.779   1.952  0.1038  0.7903  0.7676
 2372TIP3    H2 7123   3.327   0.827   1.813 -0.5704 -0.6266  0.4333
 2373TIP3   OH2 7124   0.596   4.786   4.361  0.1282 -0.2042 -0.1078
 2373TIP3    H1 7125   0.573   4.861   4.417 -2.1501 -0.3037 -0.8357
 2373TIP3    H2 7126   0.581   4.709   4.416  0.2936 -0.2217 -0.0850
 2374TIP3   OH2 7127   3.485   5.628   4.986  0.3638  0.3621  0.4770
 2374TIP3    H1 7128   3.550   5.658   5.050  0.8266  0.9830 -0.2677
 2374TIP3    H2 7129   3.523   5.651   4.901 -1.0917  1.2666  0.0403
 2375TIP3   OH2 7130   3.255   2.017   5.005  0.1265  0.0823  0.1191
 2375TIP3    H1 7131   3.243   2.109   5.030 -1.4868 -0.0799  0.0050
 2375TIP3    H2 7132   3.202   2.007   4.926  0.7921 -0.8033 -0.2297
 2376TIP3   OH2 7133   2.193   5.869   3.453 -0.5633  0.4507 -0.0601
 2376TIP3    H1 7134   2.146   5.848   3.534  0.2923  2.2905  0.9701
 2376TIP3    H2 7135   2.217   5.961   3.462  0.9279  0.2835 -1.7269
 2377TIP3   OH2 7136   4.842   2.918   4.127  0.0426 -0.3042 -0.5684
 2377TIP3    H1 7137   4.754   2.884   4.141  0.0097 -0.5255 -1.2864
 2377TIP3    H2 7138   4.830   3.011   4.110 -0.0711 -0.3648 -0.8259
 2378TIP3   OH2 7139   3.332  -0.019   1.536 -0.2740 -0.0633 -0.3626
 2378TIP3    H1 7140   3.407  -0.051   1.485  1.5530 -1.2556  2.7714
 2378TIP3    H2 7141   3.326   0.074   1.516  4.8333  1.1384  2.1670
 2379TIP3   OH2 7142   2.664   2.324   1.154 -0.1290 -0.8730  0.1759
 2379TIP3    H1 7143   2.613   2.330   1.072 -0.3050 -0.1777  0.3263
 2379TIP3    H2 7144   2.693   2.233   1.158 -0.7727 -1.1049 -0.2752
 2380TIP3   OH2 7145   0.587   0.679   2.810  0.2460 -0.2080  0.2126
 2380TIP3    H1 7146   0.628   0.635   2.735  2.2271  1.5922  0.1135
 2380TIP3    H2 7147   0.590   0.772   2.787  0.1968  0.3282  2.1870
 2381TIP3   OH2 7148   0.477   3.346   3.179 -0.1259 -0.0268  0.2814
 2381TIP3    H1 7149   0.397   3.353   3.127 -0.0727  0.4901  0.2602
 2381TIP3    H2 7150   0.460   3.400   3.256  0.3920  0.5278  0.0236
 2382TIP3   OH2 7151   6.148   0.675   4.052 -0.2714  0.2982  0.1124
 2382TIP3    H1 7152   6.171   0.767   4.059 -0.9769  0.5268 -0.4542
 2382TIP3    H2 7153   6.092   0.670   3.975  0.6788 -0.7892 -0.5501
 2383TIP3   OH2 7154   6.143   0.865   1.527  0.0962  0.4046  0.0259
 2383TIP3    H1 7155   6.108   0.776   1.529  0.0110  0.2918 -2.5627
 2383TIP3    H2 7156   6.068   0.920   1.505 -0.0896  1.3390  2.6680
 2384TIP3   OH2 7157   5.842   5.836   0.368 -0.0715  0.2511  0.6527
 2384TIP3    H1 7158   5.908   5.878   0.424  0.1064  1.0790 -0.1524
 2384TIP3    H2 7159   5.774   5.903   0.357 -0.3359 -0.0735  0.2742
 2385TIP3   OH2 7160   5.487   5.787   4.583  0.2548 -0.3322 -0.6544
 2385TIP3    H1 7161   5.578   5.763   4.601  0.3890  0.8709  0.4528
 2385TIP3    H2 7162   5.442   5.774   4.666 -0.5709 -0.8345 -1.1762
 2386TIP3   OH2 7163   4.882   2.786   2.940  0.0283  0.3261  0.0828
 2386TIP3    H1 7164   4.874   2.764   2.847  0.0645  0.1548  0.1210
 2386TIP3    H2 7165   4.805   2.840   2.958 -0.1931  0.0218  0.0524
 2387TIP3   OH2 7166   3.608   3.680   4.651 -0.0389 -0.4955  0.2519
 2387TIP3    H1 7167   3.515   3.703   4.645 -0.1889 -1.0509  0.3716
 2387TIP3    H2 7168   3.620   3.613   4.584  0.2621 -0.4687  0.2810
 2388TIP3   OH2 7169   2.165   3.421   4.695 -0.5389 -0.1709 -0.2924
 2388TIP3    H1 7170   2.108   3.498   4.693  2.1126  1.9580 -0.0232
 2388TIP3    H2 7171   2.108   3.348   4.671 -3.0091  1.9834 -1.4686
 2389TIP3   OH2 7172   3.690   5.871   4.590  0.1712  0.5140  0.6950
 2389TIP3    H1 7173   3.645   5.954   4.602 -0.7836 -0.2251  2.4669
 2389TIP3    H2 7174   3.716   5.844   4.678  0.8519 -0.8658  0.1085
 2390TIP3   OH2 7175   4.376   5.635   4.448 -0.3720 -0.6877 -0.0910
 2390TIP3    H1 7176   4.418   5.584   4.379  1.8792 -2.0190  2.0778
 2390TIP3    H2 7177   4.286   5.647   4.418  0.4750 -1.1959 -3.1879
 2391TIP3   OH2 7178   0.386   5.168   3.784  0.0288 -0.0477 -0.0565
 2391TIP3    H1 7179   0.431   5.252   3.774 -0.1728  0.0782  0.0993
 2391TIP3    H2 7180   0.389   5.128   3.697  0.4411 -0.0394 -0.0495
 2392TIP3   OH2 7181   4.103   4.569   2.693  0.1095 -0.3861  0.4516
 2392TIP3    H1 7182   4.146   4.507   2.752  0.6637 -0.7571 -0.3327
 2392TIP3    H2 7183   4.148   4.652   2.710 -1.3425  0.0993  2.2772
 2393TIP3   OH2 7184   4.385   4.845   3.665  0.5934  0.1037  0.5681
 2393TIP3    H1 7185   4.303   4.836   3.713 -0.1611  1.3687 -0.4107
 2393TIP3    H2 7186   4.451   4.858   3.733 -0.0485 -0.6733  1.3600
 2394TIP3   OH2 7187   2.989   4.931   4.847  0.0560 -0.1146  0.9206
 2394TIP3    H1 7188   2.910   4.914   4.795 -0.5618  0.4947  1.6221
 2394TIP3    H2 7189   2.999   4.852   4.900 -0.6806  0.2013  1.5502
 2395TIP3   OH2 7190   2.645   1.138   4.143 -0.1544 -0.0389 -0.4017
 2395TIP3    H1 7191   2.700   1.186   4.205 -0.2385  0.4617 -0.7050
 2395TIP3    H2 7192   2.673   1.047   4.151 -0.6161 -0.0865  0.8406
 2396TIP3   OH2 7193   1.166   0.712   0.670 -0.6905 -0.4371 -0.4567
 2396TIP3    H1 7194   1.144   0.786   0.612  3.3790  1.7778  0.4242
 2396TIP3    H2 7195   1.125   0.734   0.753 -0.1166  0.5039 -0.4071
 2397TIP3   OH2 7196   1.391   2.387   4.167  0.6929 -0.0356  0.3251
 2397TIP3    H1 7197   1.376   2.476   4.200 -0.9187 -0.3809  0.6324
 2397TIP3    H2 7198   1.356   2.331   4.236 -0.8476 -0.8230 -1.0123
 2398TIP3   OH2 7199  -0.001   2.466   4.203  0.2399  0.1572 -0.0798
 2398TIP3    H1 7200   0.027   2.375   4.206 -1.8139 -0.6128 -1.6208
 2398TIP3    H2 7201  -0.024   2.487   4.294 -1.0277 -1.5273  0.0459
 2399TIP3   OH2 7202   5.196   2.959   2.908 -0.0261 -0.4411  0.4287
 2399TIP3    H1 7203   5.248   2.930   2.833 -0.0468 -1.0433  0.6367
 2399TIP3    H2 7204   5.115   2.994   2.871 -0.0569 -0.7845  0.1743
 2400TIP3   OH2 7205   4.647   3.646   3.818 -0.0958  0.2164  0.2904
 2400TIP3    H1 7206   4.600   3.729   3.817  1.5732  1.2261 -2.0391
 2400TIP3    H2 7207   4.651   3.619   3.727  2.0756 -0.8282  0.6216
 2401TIP3   OH2 7208   3.545   1.419   0.760  0.3653 -0.0134 -0.2743
 2401TIP3    H1 7209   3.571   1.406   0.669  0.7816  0.2086 -0.1909
 2401TIP3    H2 7210   3.576   1.507   0.782 -1.5236  0.7583 -0.5359
 2402TIP3   OH2 7211   4.443   3.535   4.408 -0.2187 -0.6036 -0.0248
 2402TIP3    H1 7212   4.357   3.576   4.400 -0.9310 -1.7874  1.2008
 2402TIP3    H2 7213   4.490   3.590   4.470 -0.0668  0.0516 -0.7050
 2403TIP3   OH2 7214   2.661   3.022   3.229 -0.5537 -0.0076 -0.3406
 2403TIP3    H1 7215   2.636   2.976   3.309  0.5273  0.1942  0.1276
 2403TIP3    H2 7216   2.752   3.049   3.244 -0.2956 -0.0731 -1.6895
 2404TIP3   OH2 7217   0.656   3.003   3.581 -0.5636 -0.1201  0.4793
 2404TIP3    H1 7218   0.716   2.932   3.600 -1.2309 -0.7923  0.1264
 2404TIP3    H2 7219   0.631   2.990   3.490 -0.4696  0.7415  0.3205
 2405TIP3   OH2 7220   5.109   5.871   1.104  0.2350 -0.0686 -0.2086
 2405TIP3    H1 7221   5.049   5.797   1.109  0.8106 -0.4599  1.5529
 2405TIP3    H2 7222   5.196   5.832   1.099  0.4808  0.4976 -0.5778
 2406TIP3   OH2 7223   1.701   2.788   4.305  0.0624  0.5786  0.0737
 2406TIP3    H1 7224   1.704   2.882   4.325 -0.1068  0.6739 -0.3511
 2406TIP3    H2 7225   1.719   2.782   4.211  0.7877  0.1306  0.2306
 2407TIP3   OH2 7226   3.735   4.268   4.084  0.1659 -0.2160 -0.2518
 2407TIP3    H1 7227   3.701   4.356   4.099  0.6267 -0.4247  2.5883
 2407TIP3    H2 7228   3.657   4.215   4.065 -0.3258  0.4665 -0.1569
 2408TIP3   OH2 7229   5.322   3.390   3.905  0.3275 -0.6136  0.8551
 2408TIP3    H1 7230   5.388   3.459   3.899  0.8991 -1.1661  0.6640
 2408TIP3    H2 7231   5.373   3.310   3.919 -0.2166 -1.2224 -0.4924
 2409TIP3   OH2 7232   3.441   0.554   4.471 -0.4650 -0.0970  0.2436
 2409TIP3    H1 7233   3.520   0.607   4.458  0.7480 -2.2602 -2.1201
 2409TIP3    H2 7234   3.465   0.492   4.539 -0.3391 -0.3841 -0.0631
 2410TIP3   OH2 7235   2.192   5.088   4.877  0.4232  0.1646 -0.6363
 2410TIP3    H1 7236   2.251   5.031   4.827 -0.1383 -0.9014 -0.0956
 2410TIP3    H2 7237   2.153   5.032   4.943 -1.5665  0.7318 -1.2623
 2411TIP3   OH2 7238   5.324   0.899   4.411  0.1463  0.7150 -0.2858
 2411TIP3    H1 7239   5.363   0.956   4.477  1.7813 -0.7391  0.0883
 2411TIP3    H2 7240   5.293   0.823   4.460  0.6936 -0.0431 -1.0756
 2412TIP3   OH2 7241   5.180   4.658   2.575 -0.0276  0.5062  0.2442
 2412TIP3    H1 7242   5.091   4.682   2.602  0.4269  0.3022  2.0639
 2412TIP3    H2 7243   5.231   4.661   2.656  1.7390  1.0423 -0.8355
 2413TIP3   OH2 7244   2.413   1.371   3.722  0.0308 -0.1833 -0.5633
 2413TIP3    H1 7245   2.352   1.317   3.772 -1.6021  0.3247 -1.9145
 2413TIP3    H2 7246   2.493   1.318   3.716 -0.9042 -1.6723 -0.3186
 2414TIP3   OH2 7247   0.027   4.889   5.122 -0.1296  0.2344  0.5471
 2414TIP3    H1 7248   0.048   4.970   5.168  1.6452 -0.2706  0.6800
 2414TIP3    H2 7249  -0.018   4.835   5.187  1.4746 -0.0854  1.4564
 2415TIP3   OH2 7250   6.220   2.064   4.528  0.0964  0.1511  0.1084
 2415TIP3    H1 7251   6.168   2.046   4.606 -0.0260 -0.7341 -0.1639
 2415TIP3    H2 7252   6.189   2.150   4.498 -1.6864 -0.6238 -0.4026
 2416TIP3   OH2 7253   2.131   3.805   0.039 -0.2490  0.1282 -1.1750
 2416TIP3    H1 7254   2.077   3.734   0.074 -0.5593  0.5539 -0.7831
 2416TIP3    H2 7255   2.221   3.777   0.056 -0.3871  1.1288  1.6525
 2417TIP3   OH2 7256   0.837   2.826   2.953  0.0142 -0.2855  0.2559
 2417TIP3    H1 7257   0.762   2.788   3.000  1.2526 -2.8294  0.3370
 2417TIP3    H2 7258   0.846   2.913   2.991 -0.5413 -1.3190  3.0986
 2418TIP3   OH2 7259   2.002   3.794   1.780  0.2031 -0.3227 -0.7842
 2418TIP3    H1 7260   1.942   3.743   1.726  0.0194 -0.4949 -0.4209
 2418TIP3    H2 7261   1.949   3.826   1.853  0.4629 -0.1535 -0.6671
 2419TIP3   OH2 7262   1.625   5.344   5.007 -0.0914  0.5576  0.2586
 2419TIP3    H1 7263   1.596   5.395   5.082 -0.2313  0.9191 -0.0345
 2419TIP3    H2 7264   1.687   5.401   4.962 -1.3998  1.1141 -0.9271
 2420TIP3   OH2 7265   3.989   3.783   4.150 -0.4510  0.3860  0.2586
 2420TIP3    H1 7266   3.901   3.810   4.177 -0.7410 -1.0417  0.8543
 2420TIP3    H2 7267   3.984   3.778   4.055 -0.2072  2.8881  0.0515
 2421TIP3   OH2 7268   1.749   2.662   2.910  0.1464  0.1503  0.3691
 2421TIP3    H1 7269   1.774   2.640   2.999 -2.0322 -0.7110  0.8370
 2421TIP3    H2 7270   1.663   2.622   2.898  0.5945 -0.2149 -2.3158
 2422TIP3   OH2 7271   5.862   5.679   2.289 -0.3065 -0.2213  0.0299
 2422TIP3    H1 7272   5.949   5.679   2.328  0.1971  0.9850 -1.0193
 2422TIP3    H2 7273   5.830   5.589   2.299  1.3726 -0.8734 -0.2647
 2423TIP3   OH2 7274   0.283   1.546   0.671  0.3143 -0.4100 -0.0870
 2423TIP3    H1 7275   0.294   1.576   0.761 -0.1309  0.7568 -0.3995
 2423TIP3    H2 7276   0.324   1.615   0.618 -0.8431 -0.2825 -0.8462
 2424TIP3   OH2 7277   1.118   0.447   2.304 -0.2677  0.6021  0.2132
 2424TIP3    H1 7278   1.156   0.375   2.355  1.8419  1.7934  0.4519
 2424TIP3    H2 7279   1.100   0.516   2.368  1.7783  1.8616 -0.4763
 2425TIP3   OH2 7280   2.490   3.323   3.369  0.1708  0.2179  0.0704
 2425TIP3    H1 7281   2.503   3.418   3.369 -0.6115  0.3396 -0.7172
 2425TIP3    H2 7282   2.438   3.306   3.291  1.9943 -1.1088 -0.9521
 2426TIP3   OH2 7283   5.368   3.376   3.604 -0.0776  0.7303 -0.0746
 2426TIP3    H1 7284   5.460   3.352   3.591 -0.5719 -1.7741  0.4727
 2426TIP3    H2 7285   5.328   3.368   3.517 -0.8892 -4.1274  0.4636
 2427TIP3   OH2 7286   3.013   3.786   1.673 -0.0956 -0.2201 -0.0389
 2427TIP3    H1 7287   3.097   3.749   1.646 -0.0657  1.0980 -1.8954
 2427TIP3    H2 7288   3.037   3.862   1.727 -0.0445  0.7193 -1.3471
 2428TIP3   OH2 7289   3.978   1.753   1.604 -0.1544  0.4289  0.5309
 2428TIP3    H1 7290   4.057   1.705   1.579  0.5583  0.8956  1.7932
 2428TIP3    H2 7291   3.941   1.702   1.676 -0.1295  1.0389  0.9860
 2429TIP3   OH2 7292   4.587   1.135   1.708  0.3941  0.6177 -0.5559
 2429TIP3    H1 7293   4.558   1.226   1.714 -0.4070  0.2604  2.6193
 2429TIP3    H2 7294   4.507   1.085   1.694  0.7580  0.3012 -1.6437
 2430TIP3   OH2 7295   2.352   4.173   2.777 -0.0681 -0.5590 -0.7655
 2430TIP3    H1 7296   2.361   4.268   2.782 -0.8831 -0.4687 -0.8947
 2430TIP3    H2 7297   2.318   4.148   2.863 -1.0656 -0.5862 -1.1640
 2431TIP3   OH2 7298   5.650   5.106   2.260  0.5038  0.3377 -0.4609
 2431TIP3    H1 7299   5.661   5.038   2.326  0.4567 -1.0127 -1.7835
 2431TIP3    H2 7300   5.733   5.153   2.259  1.4582 -1.2784 -1.1868
 2432TIP3   OH2 7301   5.073   1.120   5.041 -0.0651  0.1049 -0.1343
 2432TIP3    H1 7302   5.024   1.044   5.008  1.8203 -0.3457 -2.0368
 2432TIP3    H2 7303   5.082   1.102   5.135  1.0147 -2.5011 -0.6353
 2433TIP3   OH2 7304   0.192   0.884   3.461  0.2970  0.1083  0.3683
 2433TIP3    H1 7305   0.184   0.789   3.474 -1.2647 -0.0994 -1.6526
 2433TIP3    H2 7306   0.285   0.897   3.442  0.6824 -0.8733  1.4140
 2434TIP3   OH2 7307   0.187   5.112   2.949 -0.3606 -0.1365 -0.2701
 2434TIP3    H1 7308   0.100   5.093   2.985 -0.3282  0.4075  0.1087
 2434TIP3    H2 7309   0.247   5.066   3.007 -0.3183  0.6182  0.3201
 2435TIP3   OH2 7310   4.102   0.388   1.539 -0.3249 -0.3337  0.2545
 2435TIP3    H1 7311   4.056   0.304   1.531 -1.4793  0.3891 -1.3496
 2435TIP3    H2 7312   4.032   0.454   1.538  0.6622  0.7942 -1.8399
 2436TIP3   OH2 7313   1.368   2.786   2.440 -0.1180 -0.2257 -0.1624
 2436TIP3    H1 7314   1.424   2.861   2.460  0.7589 -0.9505  0.1572
 2436TIP3    H2 7315   1.427   2.723   2.397 -0.7084 -0.9556  0.0761
 2437TIP3   OH2 7316   5.287   3.827   0.441  0.1855  1.1122  0.5343
 2437TIP3    H1 7317   5.208   3.827   0.386  0.3766 -0.8908  0.1724
 2437TIP3    H2 7318   5.273   3.899   0.502 -0.1737  3.2641 -1.8842
 2438TIP3   OH2 7319   2.326   4.238   0.939 -0.0792 -0.0736 -0.2587
 2438TIP3    H1 7320   2.410   4.284   0.935  0.5845 -1.2865 -1.5270
 2438TIP3    H2 7321   2.317   4.212   1.031  0.4891  0.8370  0.0693
 2439TIP3   OH2 7322   3.332   4.576   4.767 -0.2205  0.1735 -0.4621
 2439TIP3    H1 7323   3.312   4.568   4.860  0.4411 -1.2948 -0.4211
 2439TIP3    H2 7324   3.408   4.519   4.754  0.6484  1.5416 -1.6174
 2440TIP3   OH2 7325   2.585   3.335   2.962 -0.3726  0.4321  0.5651
 2440TIP3    H1 7326   2.531   3.413   2.964  0.6378  1.1529  0.7402
 2440TIP3    H2 7327   2.527   3.266   2.930 -1.0975  1.3956 -0.2510
 2441TIP3   OH2 7328   2.852   2.443   2.601 -0.3207 -0.0645  0.4407
 2441TIP3    H1 7329   2.941   2.447   2.636 -0.7712 -0.7596  1.7428
 2441TIP3    H2 7330   2.802   2.504   2.655 -0.6394  0.3403 -0.2979
 2442TIP3   OH2 7331   3.471   2.223   3.786  0.1742  0.1135  0.3761
 2442TIP3    H1 7332   3.559   2.251   3.761  0.4348  0.6759  1.7882
 2442TIP3    H2 7333   3.418   2.302   3.777 -0.3468 -0.3795 -1.0840
 2443TIP3   OH2 7334   3.740   4.947   4.621 -0.6033  0.2963  1.1134
 2443TIP3    H1 7335   3.790   4.938   4.703 -0.0734  1.1448  0.8977
 2443TIP3    H2 7336   3.677   4.875   4.624  1.2638 -1.4419  0.9501
 2444TIP3   OH2 7337   4.042   0.065   1.767 -0.1993 -0.5328 -0.4765
 2444TIP3    H1 7338   3.987   0.081   1.690 -1.6865 -0.3130  0.5897
 2444TIP3    H2 7339   4.068  -0.027   1.760  1.1493 -0.0733 -2.1220
 2445TIP3   OH2 7340   6.047   3.752   2.564 -0.2524  0.3848  0.1287
 2445TIP3    H1 7341   6.046   3.729   2.471 -0.2038  0.3011  0.1492
 2445TIP3    H2 7342   6.089   3.839   2.566  0.0744  0.2305  0.1058
 2446TIP3   OH2 7343   1.381   0.832   4.660 -0.0981  0.8912 -0.1769
 2446TIP3    H1 7344   1.413   0.915   4.623 -1.3046  1.6169  0.3533
 2446TIP3    H2 7345   1.329   0.793   4.590  0.6271  0.4764 -0.4938
 2447TIP3   OH2 7346   4.108   4.670   3.360 -0.0389  0.3177 -0.0968
 2447TIP3    H1 7347   4.192   4.702   3.393  0.2875  1.1005 -1.5884
 2447TIP3    H2 7348   4.128   4.583   3.324  0.0757  0.4011 -0.2333
 2448TIP3   OH2 7349   4.355   2.121   3.473  0.0555 -0.2921  0.7722
 2448TIP3    H1 7350   4.298   2.053   3.507 -0.5927  0.4863  1.2782
 2448TIP3    H2 7351   4.418   2.137   3.544  2.4443 -2.7721 -0.6182
 2449TIP3   OH2 7352   0.827   4.389   5.147  0.2910 -0.6034 -0.4459
 2449TIP3    H1 7353   0.923   4.393   5.139  0.5416  1.3351  2.0618
 2449TIP3    H2 7354   0.797   4.473   5.112 -0.2065 -0.1242  1.0498
 2450TIP3   OH2 7355   2.673   0.134   2.264 -0.2479  0.1908 -0.0033
 2450TIP3    H1 7356   2.599   0.175   2.308  0.4717  0.0830  1.3671
 2450TIP3    H2 7357   2.643   0.045   2.244 -0.4884  0.1416  0.5591
 2451TIP3   OH2 7358   2.438   4.197   4.484  0.5125 -0.4447 -0.1755
 2451TIP3    H1 7359   2.343   4.214   4.486  0.6907  1.0393 -1.7765
 2451TIP3    H2 7360   2.469   4.224   4.570 -0.5192 -0.9553  0.3760
 2452TIP3   OH2 7361   3.516   3.724   1.727 -1.0828 -0.3920 -0.6063
 2452TIP3    H1 7362   3.570   3.767   1.793 -0.3819 -0.2767 -1.2365
 2452TIP3    H2 7363   3.532   3.631   1.740  0.9117 -0.3324 -2.0715
 2453TIP3   OH2 7364   1.711   2.486   0.492 -0.1691  0.2521  0.1471
 2453TIP3    H1 7365   1.655   2.415   0.460  2.0089 -0.6466 -1.9520
 2453TIP3    H2 7366   1.705   2.480   0.587 -1.5991 -1.4513  0.0029
 2454TIP3   OH2 7367   4.857   1.056   2.802  0.0570  0.4740 -0.0733
 2454TIP3    H1 7368   4.797   0.993   2.842  2.2365 -0.5224  1.8739
 2454TIP3    H2 7369   4.856   1.131   2.861 -0.0918  0.9011 -0.6191
 2455TIP3   OH2 7370   2.189   4.374   2.561  0.0981  0.6494  0.4048
 2455TIP3    H1 7371   2.135   4.444   2.524 -1.5482 -1.0289 -0.5203
 2455TIP3    H2 7372   2.238   4.417   2.631 -0.9144  2.7056 -0.0620
 2456TIP3   OH2 7373   4.754   2.764   2.029 -0.3931 -0.1658 -0.0600
 2456TIP3    H1 7374   4.694   2.808   2.089  1.0984 -1.6202  2.6918
 2456TIP3    H2 7375   4.825   2.826   2.016 -0.9459  0.3376 -0.7525
 2457TIP3   OH2 7376   6.202   1.918   4.249 -0.2113 -0.5894 -0.3081
 2457TIP3    H1 7377   6.141   1.845   4.239  0.9649 -1.7812  0.7372
 2457TIP3    H2 7378   6.171   1.964   4.327 -0.9461  0.0448 -0.9591
 2458TIP3   OH2 7379   1.433   2.354   3.348  0.2293  0.1956  0.0103
 2458TIP3    H1 7380   1.466   2.415   3.414 -1.2859  1.0932 -0.0030
 2458TIP3    H2 7381   1.511   2.316   3.309  1.2614  2.1796 -0.0016
 2459TIP3   OH2 7382   5.225   4.922   2.472 -0.0802  0.2740  0.4944
 2459TIP3    H1 7383   5.218   4.826   2.474  1.2229  0.1560  0.4668
 2459TIP3    H2 7384   5.191   4.950   2.557 -0.7269 -0.1807  0.3971
 2460TIP3   OH2 7385   6.083   1.164   1.963 -0.1460 -0.2900  0.5119
 2460TIP3    H1 7386   6.070   1.215   2.043  1.3565 -1.5185  1.5916
 2460TIP3    H2 7387   6.097   1.230   1.895 -0.6040  0.7592  1.4035
 2461TIP3   OH2 7388   2.596   1.600   4.593  0.5128 -0.1300  0.1955
 2461TIP3    H1 7389   2.550   1.567   4.516 -2.0467 -0.8488  1.8716
 2461TIP3    H2 7390   2.594   1.695   4.584  0.0439 -0.2002 -0.5060
 2462TIP3   OH2 7391   2.543   1.599   3.675 -0.9681 -0.1116 -0.1003
 2462TIP3    H1 7392   2.600   1.605   3.598  1.1431  0.0249  1.3786
 2462TIP3    H2 7393   2.501   1.514   3.667 -2.4632  0.7222 -2.4153
 2463TIP3   OH2 7394   3.181   0.353   2.596  0.1926  0.0238 -0.1576
 2463TIP3    H1 7395   3.167   0.377   2.688  1.5636 -0.2037  0.1331
 2463TIP3    H2 7396   3.276   0.360   2.584  0.0868 -0.5062 -1.4086
 2464TIP3   OH2 7397   5.354   5.641   3.555 -0.3182 -0.6117  0.7705
 2464TIP3    H1 7398   5.288   5.664   3.489 -0.5792 -1.4681  0.7231
 2464TIP3    H2 7399   5.417   5.713   3.551 -0.4158 -0.5630 -0.3055
 2465TIP3   OH2 7400   0.531   2.565   1.390  0.6582 -0.0370 -0.6372
 2465TIP3    H1 7401   0.503   2.655   1.368  0.9170  0.2705  0.2666
 2465TIP3    H2 7402   0.519   2.516   1.308 -0.3728  0.6061 -0.8895
 2466TIP3   OH2 7403   4.619   0.705   2.351  0.2105 -0.0624  0.2906
 2466TIP3    H1 7404   4.525   0.691   2.366  0.0421 -1.7608 -1.7904
 2466TIP3    H2 7405   4.623   0.749   2.266  1.2908 -0.3187  0.1964
 2467TIP3   OH2 7406   3.706   4.471   0.517  0.4646  0.1009  0.2775
 2467TIP3    H1 7407   3.748   4.557   0.527 -0.9734  0.5939  3.0519
 2467TIP3    H2 7408   3.779   4.411   0.498  1.5980  1.7705 -0.9604
 2468TIP3   OH2 7409   0.061   3.877   4.518 -0.2050  0.0285 -0.2129
 2468TIP3    H1 7410  -0.022   3.892   4.563  0.4457  0.8641  0.7924
 2468TIP3    H2 7411   0.104   3.808   4.569  0.8464  1.4731  0.9987
 2469TIP3   OH2 7412   1.279   4.232   0.216  0.3218  0.3151 -0.4547
 2469TIP3    H1 7413   1.203   4.181   0.244  0.1682  1.2839  0.9822
 2469TIP3    H2 7414   1.258   4.259   0.127 -1.6349  1.6318  0.3282
 2470TIP3   OH2 7415   6.022   5.307   4.954 -0.5068  0.5251  0.2265
 2470TIP3    H1 7416   6.028   5.211   4.953 -2.4080  0.3768  0.0494
 2470TIP3    H2 7417   6.106   5.335   4.991 -0.0802 -1.2173  0.6927
 2471TIP3   OH2 7418   0.265   3.379   0.498  0.9251 -0.0359 -0.1158
 2471TIP3    H1 7419   0.224   3.465   0.484 -1.5825 -1.4506 -2.3278
 2471TIP3    H2 7420   0.324   3.368   0.424 -1.2569 -1.4563 -1.7829
 2472TIP3   OH2 7421   3.330   2.933   3.178  0.4379 -0.1941 -0.0866
 2472TIP3    H1 7422   3.391   2.991   3.131  1.3171 -1.0732 -0.0594
 2472TIP3    H2 7423   3.382   2.856   3.200 -0.3469 -0.4096  1.0935
 2473TIP3   OH2 7424   1.730   3.260   4.595  0.3452 -0.3719  0.3079
 2473TIP3    H1 7425   1.784   3.324   4.548 -1.4008 -1.0128 -2.8943
 2473TIP3    H2 7426   1.669   3.312   4.647  0.8638  0.4613  0.0989
 2474TIP3   OH2 7427   2.535   1.216   3.016 -0.7784  0.4143  0.2582
 2474TIP3    H1 7428   2.613   1.272   3.010 -0.2170 -0.3672  0.1455
 2474TIP3    H2 7429   2.560   1.145   3.075 -0.1084 -1.8391 -2.4863
 2475TIP3   OH2 7430   0.694   1.986   0.306 -0.1773 -0.4333 -0.2193
 2475TIP3    H1 7431   0.689   2.078   0.332  1.3447 -0.1440 -0.8512
 2475TIP3    H2 7432   0.660   1.985   0.216 -0.2577 -0.5084 -0.1886
 2476TIP3   OH2 7433   0.912   2.985   3.685  0.2741  0.2517 -0.0494
 2476TIP3    H1 7434   0.893   3.062   3.739 -1.3440 -0.0412 -0.1677
 2476TIP3    H2 7435   0.930   2.915   3.747 -0.9528  0.0704  0.1153
 2477TIP3   OH2 7436   4.302   5.362   4.600 -0.2817  0.0085 -0.6034
 2477TIP3    H1 7437   4.299   5.450   4.636 -0.5241  0.1488 -0.9553
 2477TIP3    H2 7438   4.354   5.311   4.662 -2.9442 -0.4403  1.4283
 2478TIP3   OH2 7439   3.292   2.601   1.406 -0.1839 -0.1729 -0.0854
 2478TIP3    H1 7440   3.315   2.692   1.424 -1.1288  0.3045 -1.1066
 2478TIP3    H2 7441   3.371   2.551   1.426  0.7736  1.0338 -0.7200
 2479TIP3   OH2 7442   5.936   0.762   4.279 -0.1481  0.1047  0.0141
 2479TIP3    H1 7443   5.999   0.815   4.328 -0.1745  0.7322 -0.6108
 2479TIP3    H2 7444   5.851   0.797   4.306 -0.3085 -1.3364  1.5457
 2480TIP3   OH2 7445   4.781   2.398   3.635  0.0344 -0.2409  0.0286
 2480TIP3    H1 7446   4.801   2.437   3.550  1.7250 -1.4320 -0.1802
 2480TIP3    H2 7447   4.850   2.430   3.693 -0.5974 -0.1495  0.7570
 2481TIP3   OH2 7448   1.266   4.826   1.697  0.3885  0.0890 -0.1872
 2481TIP3    H1 7449   1.303   4.801   1.613 -1.3434  0.3916 -1.0849
 2481TIP3    H2 7450   1.208   4.753   1.720  1.0031 -0.0885  0.8564
 2482TIP3   OH2 7451   4.987   3.961   0.293  0.3706 -0.0936  0.1161
 2482TIP3    H1 7452   4.991   4.057   0.285 -1.3544 -0.1489 -2.6540
 2482TIP3    H2 7453   4.941   3.946   0.376 -0.2248  1.4922  0.1186
 2483TIP3   OH2 7454   4.800   0.569   2.121 -0.4429 -0.4609  0.4073
 2483TIP3    H1 7455   4.746   0.603   2.051 -0.7095 -1.7826 -0.0595
 2483TIP3    H2 7456   4.740   0.520   2.177  0.0319 -0.7505  0.6780
 2484TIP3   OH2 7457   3.659   4.439   4.416  0.2593 -0.0806 -0.4790
 2484TIP3    H1 7458   3.581   4.385   4.404 -0.7028  1.0187  0.5204
 2484TIP3    H2 7459   3.733   4.379   4.408 -0.6953 -1.1899 -1.1764
 2485TIP3   OH2 7460   5.067   0.999   1.203  0.4505  0.0766  0.3786
 2485TIP3    H1 7461   5.075   0.984   1.109  2.2657  1.8161  0.1978
 2485TIP3    H2 7462   4.979   1.034   1.215 -0.9238 -2.8330 -0.2022
 2486TIP3   OH2 7463   4.796   0.212   3.818 -0.7514  0.0950  0.1411
 2486TIP3    H1 7464   4.711   0.174   3.843 -1.5654  2.4949  1.3113
 2486TIP3    H2 7465   4.861   0.153   3.856 -1.8333 -2.0053 -1.0843
 2487TIP3   OH2 7466   3.426   4.649   0.393 -0.3389 -0.0721 -0.4513
 2487TIP3    H1 7467   3.333   4.662   0.376 -0.4525  2.0716  1.3650
 2487TIP3    H2 7468   3.458   4.734   0.423  1.7378 -1.2466  0.9561
 2488TIP3   OH2 7469   5.963   1.072   0.364 -0.5221 -0.1750  0.3437
 2488TIP3    H1 7470   5.972   0.983   0.399  0.5608  0.3618  1.5248
 2488TIP3    H2 7471   6.017   1.072   0.285  1.6959  0.1154  1.7754
 2489TIP3   OH2 7472   2.316   1.417   1.894 -0.2285  0.6295  0.0974
 2489TIP3    H1 7473   2.358   1.501   1.915  2.1357 -0.3582 -0.3581
 2489TIP3    H2 7474   2.252   1.439   1.827  0.7650  1.9944 -0.4578
 2490TIP3   OH2 7475   1.209   5.732   0.967 -0.3594 -0.0338  0.4681
 2490TIP3    H1 7476   1.136   5.676   0.992 -0.1188 -0.0905  1.0581
 2490TIP3    H2 7477   1.194   5.751   0.874 -0.4449 -1.0706  0.2544
 2491TIP3   OH2 7478   3.976   4.320   0.451  0.0587  0.3194  0.1030
 2491TIP3    H1 7479   3.913   4.269   0.400 -0.7584  0.3514  1.0383
 2491TIP3    H2 7480   4.039   4.351   0.387 -0.8702  0.2648 -0.8726
 2492TIP3   OH2 7481   4.395   2.769   2.365 -0.4903  0.4420  0.0557
 2492TIP3    H1 7482   4.413   2.771   2.460  0.1230  2.0323 -0.0641
 2492TIP3    H2 7483   4.302   2.749   2.359 -0.5685  0.4519  1.0134
 2493TIP3   OH2 7484   4.227   2.812   0.491 -0.5351  0.6688 -0.1671
 2493TIP3    H1 7485   4.188   2.737   0.447 -1.3474  2.0109 -1.8653
 2493TIP3    H2 7486   4.188   2.888   0.448 -0.5940  2.1034  2.2184
 2494TIP3   OH2 7487   3.304   0.034   2.616 -0.6243  0.3836 -0.2413
 2494TIP3    H1 7488   3.312   0.124   2.585 -1.8504  0.9227  0.9355
 2494TIP3    H2 7489   3.388   0.016   2.659 -0.9993  1.6116  1.0860
 2495TIP3   OH2 7490   4.754   2.078   4.578 -0.0119  0.2569 -0.2060
 2495TIP3    H1 7491   4.819   2.011   4.558 -0.7212  0.1474 -2.4388
 2495TIP3    H2 7492   4.805   2.156   4.600  0.8191 -0.6172  1.0829
 2496TIP3   OH2 7493   0.882   2.413   2.084  0.3073 -0.5795  0.2006
 2496TIP3    H1 7494   0.815   2.397   2.018  0.1333 -0.6212  0.3882
 2496TIP3    H2 7495   0.881   2.335   2.140 -0.1571 -0.1609  0.7798
 2497TIP3   OH2 7496   1.205   5.243   4.722 -0.6364 -0.0904  0.4382
 2497TIP3    H1 7497   1.230   5.174   4.661  0.1254 -0.5586  1.2574
 2497TIP3    H2 7498   1.287   5.268   4.765 -1.3522 -0.7647  2.2903
 2498TIP3   OH2 7499   1.847   3.956   0.277 -0.2290 -0.3619  0.0598
 2498TIP3    H1 7500   1.906   3.956   0.352  0.0086 -1.7949 -0.1105
 2498TIP3    H2 7501   1.800   3.873   0.283  0.6000 -1.0361 -1.9927
 2499TIP3   OH2 7502   3.108   4.214   4.584 -0.0294  0.0990 -0.0648
 2499TIP3    H1 7503   3.040   4.225   4.650 -0.3892  0.6510 -0.5331
 2499TIP3    H2 7504   3.190   4.228   4.632 -0.2389 -0.4117  0.4607
 2500TIP3   OH2 7505   0.376   2.315   2.599 -0.3994  0.2190  0.1250
 2500TIP3    H1 7506   0.432   2.384   2.562 -0.2225 -0.9205 -1.8590
 2500TIP3    H2 7507   0.437   2.248   2.627 -0.6657 -0.8743 -1.7218
 2501TIP3   OH2 7508   0.393   3.839   1.234  0.2030  0.4558 -0.1138
 2501TIP3    H1 7509   0.487   3.835   1.213  0.1796  1.5219 -0.4580
 2501TIP3    H2 7510   0.353   3.882   1.159 -0.1817  2.3968  1.1321
 2502TIP3   OH2 7511   3.902   5.163   0.706  0.4267  0.0644  0.3390
 2502TIP3    H1 7512   3.845   5.117   0.644  0.4721 -0.9506  1.0373
 2502TIP3    H2 7513   3.889   5.118   0.789  2.9636 -0.8552  0.3229
 2503TIP3   OH2 7514   3.615   5.314   0.333 -0.6287 -0.0342 -0.8878
 2503TIP3    H1 7515   3.654   5.386   0.382  0.0083 -1.4284  0.7545
 2503TIP3    H2 7516   3.539   5.288   0.384 -1.5639  0.2241 -2.1009
 2504TIP3   OH2 7517   5.696   2.868   2.395  0.4878  0.2685 -0.0712
 2504TIP3    H1 7518   5.746   2.889   2.475  0.2600  1.9316 -0.3144
 2504TIP3    H2 7519   5.741   2.793   2.357  1.3429  0.2223  0.9854
 2505TIP3   OH2 7520   6.115   3.239   5.024 -0.3365 -0.0691 -0.0422
 2505TIP3    H1 7521   6.191   3.218   5.079 -0.7524 -0.0768  0.5460
 2505TIP3    H2 7522   6.040   3.233   5.084 -0.8032 -0.0772 -0.6144
 2506TIP3   OH2 7523   1.196   5.113   1.770  0.3439 -1.0111  0.2272
 2506TIP3    H1 7524   1.240   5.035   1.738  4.6390  1.3840 -0.5525
 2506TIP3    H2 7525   1.145   5.145   1.696 -0.1026 -2.1428  0.0316
 2507TIP3   OH2 7526   1.949   2.625   3.250  0.7268 -0.1253 -0.5249
 2507TIP3    H1 7527   1.960   2.688   3.179  0.7716 -0.3627 -0.7301
 2507TIP3    H2 7528   1.896   2.555   3.212  0.5993 -0.1678 -0.2711
 2508TIP3   OH2 7529   0.024   4.266   0.986 -0.1688 -0.0585 -0.1657
 2508TIP3    H1 7530   0.068   4.194   1.030  0.7668  1.1889  1.0397
 2508TIP3    H2 7531   0.094   4.313   0.941 -0.3217  1.5312  1.1618
 2509TIP3   OH2 7532   4.129   4.045   0.156  0.1889 -0.1421  0.2983
 2509TIP3    H1 7533   4.068   4.049   0.082 -0.7933  1.4667  1.1403
 2509TIP3    H2 7534   4.130   4.133   0.192 -0.3114 -1.1032  2.9302
 2510TIP3   OH2 7535   5.825   3.762   2.049  0.0535 -0.3473 -0.0346
 2510TIP3    H1 7536   5.901   3.716   2.013  0.9632  0.2836  1.0075
 2510TIP3    H2 7537   5.752   3.736   1.994  1.4935  1.2451 -2.9127
 2511TIP3   OH2 7538   1.114   5.743   2.959 -0.5861  0.2099  0.3681
 2511TIP3    H1 7539   1.128   5.712   3.049 -1.7661 -0.3151  0.3946
 2511TIP3    H2 7540   1.047   5.684   2.924 -0.8626  1.0268 -0.5185
 2512TIP3   OH2 7541   6.270   5.550   1.934  0.3344  0.4270  0.2275
 2512TIP3    H1 7542   6.215   5.488   1.885 -0.5023  0.0155  1.6142
 2512TIP3    H2 7543   6.209   5.594   1.993  1.3397  0.7014  1.0886
 2513TIP3   OH2 7544   3.478   1.021   2.652  0.2876 -0.4469  0.0042
 2513TIP3    H1 7545   3.564   0.979   2.654 -0.0427 -1.1307  0.3843
 2513TIP3    H2 7546   3.461   1.043   2.744  0.9943  1.6811 -0.3323
 2514TIP3   OH2 7547   1.225   5.726   0.679  0.3428  0.8212  0.2063
 2514TIP3    H1 7548   1.318   5.747   0.685  1.0855 -1.8854 -0.1867
 2514TIP3    H2 7549   1.196   5.765   0.596  1.3628  0.9858 -0.0854
 2515TIP3   OH2 7550   5.433   4.865   3.494  0.1391 -0.3158 -0.0577
 2515TIP3    H1 7551   5.421   4.822   3.579  0.5564  0.7456  0.5638
 2515TIP3    H2 7552   5.360   4.927   3.488 -0.1226 -0.6743 -0.6655
 2516TIP3   OH2 7553   5.989   5.515   3.008 -0.2485 -0.1527  0.4039
 2516TIP3    H1 7554   5.972   5.603   2.973  0.2774  1.0917  3.0063
 2516TIP3    H2 7555   6.081   5.498   2.985 -0.6168 -0.4634 -0.9149
 2517TIP3   OH2 7556   3.832   4.524   3.410  0.2730 -0.2371 -0.3146
 2517TIP3    H1 7557   3.881   4.443   3.427  2.0516  0.5510 -1.4059
 2517TIP3    H2 7558   3.900   4.591   3.399 -1.1572  1.4788  0.8224
 2518TIP3   OH2 7559   0.373   0.284   1.133  0.3964 -0.3313 -0.2817
 2518TIP3    H1 7560   0.383   0.283   1.037  1.1326  1.2718 -0.2626
 2518TIP3    H2 7561   0.281   0.305   1.147  0.5973  0.9244 -0.6837
 2519TIP3   OH2 7562   3.287   2.617   4.038 -0.0111 -0.3381 -0.1714
 2519TIP3    H1 7563   3.287   2.683   3.969  0.5573  0.6396  0.7400
 2519TIP3    H2 7564   3.373   2.575   4.031  1.1760  1.5915  1.5839
 2520TIP3   OH2 7565   1.358   5.186   0.842 -0.1777 -0.0452 -0.5499
 2520TIP3    H1 7566   1.322   5.255   0.787 -0.6633  0.0113 -0.1678
 2520TIP3    H2 7567   1.416   5.233   0.903 -2.5208  0.4301  1.4710
 2521TIP3   OH2 7568   2.318   3.376   3.574 -0.2212 -0.1696 -0.3237
 2521TIP3    H1 7569   2.294   3.312   3.640  1.2123 -0.3995  0.0081
 2521TIP3    H2 7570   2.365   3.325   3.508 -0.0819  0.3563 -0.6337
 2522TIP3   OH2 7571   5.438   1.462   2.309  0.1012 -0.2046  0.1557
 2522TIP3    H1 7572   5.509   1.525   2.293 -0.0122  0.2876  1.4521
 2522TIP3    H2 7573   5.449   1.396   2.241  1.5800  0.0611  0.0956
 2523TIP3   OH2 7574   5.168   1.195   2.484 -0.5236  0.5711 -0.0212
 2523TIP3    H1 7575   5.195   1.108   2.456 -0.5482  0.3737  0.5442
 2523TIP3    H2 7576   5.246   1.233   2.526 -0.1818  1.2576 -1.2389
 2524TIP3   OH2 7577   0.885   2.844   5.089 -0.2773 -0.2407 -0.5000
 2524TIP3    H1 7578   0.802   2.798   5.102  0.1035 -0.3224  2.2642
 2524TIP3    H2 7579   0.945   2.778   5.055 -1.0658 -0.3977 -1.6504
 2525TIP3   OH2 7580   0.344   0.152   0.529  0.2595  0.0253 -0.0835
 2525TIP3    H1 7581   0.302   0.166   0.444  0.6101 -1.6625 -0.5723
 2525TIP3    H2 7582   0.293   0.082   0.569  0.0841  0.8204  1.1339
 2526TIP3   OH2 7583   6.271   2.109   3.337  0.2172  0.0358 -0.0110
 2526TIP3    H1 7584   6.204   2.094   3.271 -0.0858  0.1659  0.2698
 2526TIP3    H2 7585   6.353   2.088   3.292 -0.0860 -1.0967 -0.0415
 2527TIP3   OH2 7586   3.491   5.969   3.266  0.5795 -0.1009  0.1184
 2527TIP3    H1 7587   3.505   5.899   3.202  0.1268 -0.2007  0.1246
 2527TIP3    H2 7588   3.396   5.975   3.274  0.6188  0.4868  0.1550
 2528TIP3   OH2 7589   2.916   1.892   1.793 -0.1667  0.4711  0.0063
 2528TIP3    H1 7590   2.878   1.900   1.705  0.5095  0.4261 -0.2995
 2528TIP3    H2 7591   2.914   1.798   1.811  0.0895  0.4343 -0.1466
 2529TIP3   OH2 7592   4.261   4.145   3.047  0.4463 -0.2490  0.2247
 2529TIP3    H1 7593   4.246   4.236   3.075 -3.0788 -0.6472  0.0026
 2529TIP3    H2 7594   4.225   4.141   2.959  1.6649 -1.6458 -0.2527
 2530TIP3   OH2 7595   2.411   1.647   2.007  0.6412 -0.1392  0.2833
 2530TIP3    H1 7596   2.503   1.666   2.022  0.1722  0.7512  2.3072
 2530TIP3    H2 7597   2.364   1.699   2.072 -1.3790  0.3202 -1.4132
 2531TIP3   OH2 7598   2.321   2.849   1.422 -0.3351 -0.0209 -0.2568
 2531TIP3    H1 7599   2.415   2.866   1.416 -0.2163 -1.0376 -1.7292
 2531TIP3    H2 7600   2.310   2.812   1.510  0.3310  1.7284  0.6148
 2532TIP3   OH2 7601   6.053   3.242   1.672  0.1327 -0.1570 -0.2950
 2532TIP3    H1 7602   5.968   3.201   1.689  0.1875 -0.4664 -0.7473
 2532TIP3    H2 7603   6.117   3.179   1.706  0.1916 -0.0508 -0.2080
 2533TIP3   OH2 7604   3.764   5.224   5.099 -0.8445  0.0682  0.5353
 2533TIP3    H1 7605   3.762   5.194   5.008  0.0311 -3.2400  1.4588
 2533TIP3    H2 7606   3.805   5.310   5.095 -1.4422  0.3147 -2.2327
 2534TIP3   OH2 7607   3.663   1.294   4.043 -0.0213 -0.3328  0.6004
 2534TIP3    H1 7608   3.656   1.295   3.948 -1.2860 -0.7161  0.6667
 2534TIP3    H2 7609   3.615   1.371   4.072  2.1234  0.9735  0.8797
 2535TIP3   OH2 7610   4.796   1.303   5.065  0.3855 -0.2707 -0.7525
 2535TIP3    H1 7611   4.715   1.343   5.035  0.5689  0.2592 -0.5560
 2535TIP3    H2 7612   4.840   1.372   5.116 -0.7044 -1.6020  2.2110
 2536TIP3   OH2 7613   1.343   5.965   2.152  0.2235  0.1966  0.3935
 2536TIP3    H1 7614   1.358   5.878   2.115 -0.5746  1.4017 -3.1449
 2536TIP3    H2 7615   1.255   5.960   2.190 -0.1532 -0.3438 -0.5158
 2537TIP3   OH2 7616   0.924   4.979   5.147 -0.6020 -0.1072 -0.7088
 2537TIP3    H1 7617   0.838   4.951   5.113 -0.1249 -0.2943 -1.8104
 2537TIP3    H2 7618   0.981   4.978   5.070  1.0748 -2.6573  0.4265
 2538TIP3   OH2 7619   4.890   4.484   3.859  0.2845  0.4939 -0.0926
 2538TIP3    H1 7620   4.918   4.565   3.817  0.6552  0.5052  0.1704
 2538TIP3    H2 7621   4.878   4.422   3.787  1.9778  0.1872 -0.1689
 2539TIP3   OH2 7622   4.516   5.788   1.778  0.4175  0.0016 -0.1012
 2539TIP3    H1 7623   4.435   5.793   1.728  1.5529 -1.2120 -2.2211
 2539TIP3    H2 7624   4.546   5.879   1.784 -0.2065  0.2641 -0.8354
 2540TIP3   OH2 7625   0.248   4.165   1.701  0.0669  0.0474  0.6090
 2540TIP3    H1 7626   0.183   4.217   1.652  0.0919 -1.3462 -0.9861
 2540TIP3    H2 7627   0.322   4.225   1.713 -0.8890  1.1839  1.1230
 2541TIP3   OH2 7628   5.575   3.887   2.443 -0.0232 -0.2613  0.0565
 2541TIP3    H1 7629   5.512   3.894   2.515  0.2007 -0.8796  0.3271
 2541TIP3    H2 7630   5.592   3.977   2.417 -0.4145 -0.0470  0.5142
 2542TIP3   OH2 7631   5.525   0.227   2.887  0.1913  0.5739  0.0425
 2542TIP3    H1 7632   5.558   0.188   2.968  1.8737 -0.3652 -1.0295
 2542TIP3    H2 7633   5.469   0.299   2.916 -3.9288 -3.0084  2.2672
 2543TIP3   OH2 7634   4.061   0.853   1.430  0.1086 -0.0562 -0.0578
 2543TIP3    H1 7635   4.076   0.916   1.359 -0.0331  0.2336  0.1662
 2543TIP3    H2 7636   3.969   0.829   1.420 -0.7608  2.1403  1.7199
 2544TIP3   OH2 7637   0.577   1.461   5.045 -0.0867  0.1835  0.4826
 2544TIP3    H1 7638   0.542   1.425   4.963  0.3369 -2.4384  1.3451
 2544TIP3    H2 7639   0.672   1.447   5.038 -0.0457 -0.0282  1.3946
 2545TIP3   OH2 7640   5.435   0.045   3.764 -0.1726 -0.1458 -0.0665
 2545TIP3    H1 7641   5.408   0.030   3.854  0.6657  0.3656  0.2873
 2545TIP3    H2 7642   5.501   0.114   3.770 -0.9738  0.7729 -1.1942
 2546TIP3   OH2 7643   6.164   5.797   0.453  0.1339  0.0149 -0.1758
 2546TIP3    H1 7644   6.162   5.708   0.488  2.3133  0.2172  0.6341
 2546TIP3    H2 7645   6.119   5.850   0.518 -0.0318 -0.3097 -0.0264
 2547TIP3   OH2 7646   3.187   1.640   3.246 -0.4411  0.0668 -0.1663
 2547TIP3    H1 7647   3.218   1.550   3.254  1.6255  0.7060 -0.3490
 2547TIP3    H2 7648   3.112   1.634   3.186 -0.9821 -1.6272  0.6248
 2548TIP3   OH2 7649   5.159   0.949   4.094  0.4181 -0.0904  0.0108
 2548TIP3    H1 7650   5.114   0.868   4.116  0.4720  0.0728  0.7394
 2548TIP3    H2 7651   5.117   0.979   4.013 -0.2987 -0.3129  0.2958
 2549TIP3   OH2 7652   3.138   4.072   1.733 -0.9165 -0.3804  0.5514
 2549TIP3    H1 7653   3.185   4.062   1.816  1.9865  1.0853 -0.7460
 2549TIP3    H2 7654   3.182   4.146   1.690 -1.1461 -2.1071 -3.0074
 2550TIP3   OH2 7655   5.493   5.158   2.892 -0.1581 -0.5669 -0.0075
 2550TIP3    H1 7656   5.553   5.087   2.916 -0.3320 -0.6874  0.0677
 2550TIP3    H2 7657   5.532   5.197   2.814 -1.1524 -2.0885 -1.3280
 2551TIP3   OH2 7658   0.587   2.517   4.206  0.0195  0.0601  0.1352
 2551TIP3    H1 7659   0.655   2.546   4.267 -0.0150 -0.2259  0.3113
 2551TIP3    H2 7660   0.548   2.598   4.174  0.7498  0.2477 -0.3212
 2552TIP3   OH2 7661   2.851   2.209   3.739 -0.0731 -0.0031 -0.1724
 2552TIP3    H1 7662   2.775   2.266   3.752  0.5803  1.2093 -1.4261
 2552TIP3    H2 7663   2.876   2.182   3.827 -3.1332 -2.1032  0.2217
 2553TIP3   OH2 7664   4.558   4.187   2.845  0.2837 -0.0918 -0.5104
 2553TIP3    H1 7665   4.531   4.136   2.921  0.1241 -0.6824 -0.9534
 2553TIP3    H2 7666   4.526   4.136   2.770 -0.0849  0.7744 -0.9566
 2554TIP3   OH2 7667   0.431   0.577   4.676  0.2004  0.4881 -0.2437
 2554TIP3    H1 7668   0.426   0.632   4.598  2.3342 -0.0689 -0.8638
 2554TIP3    H2 7669   0.515   0.531   4.666 -0.4992 -1.2223  1.3149
 2555TIP3   OH2 7670   5.451   2.764   4.790 -0.1765  0.4027  0.2409
 2555TIP3    H1 7671   5.356   2.767   4.787 -0.2064  0.0483  0.6568
 2555TIP3    H2 7672   5.477   2.847   4.829 -0.2343  1.1032 -1.1522
 2556TIP3   OH2 7673   5.276   0.636   2.287  0.5036 -0.3302 -0.1881
 2556TIP3    H1 7674   5.287   0.713   2.232 -0.0442 -0.0696  0.0500
 2556TIP3    H2 7675   5.222   0.667   2.360 -0.1779 -1.0727 -0.3693
 2557TIP3   OH2 7676   0.982   0.372   5.070 -0.3086  0.2219 -0.2112
 2557TIP3    H1 7677   0.896   0.354   5.032 -0.5678  0.4430  0.2665
 2557TIP3    H2 7678   1.033   0.293   5.052 -0.4648  0.2743 -0.9069
 2558TIP3   OH2 7679   3.963   0.971   0.946  0.0580 -0.2863 -0.2222
 2558TIP3    H1 7680   3.955   1.045   0.885  1.4357  0.9067  0.9697
 2558TIP3    H2 7681   4.002   0.901   0.895  0.9038  0.5912 -0.8180
 2559TIP3   OH2 7682   2.813   5.089   5.003  0.8691  0.7892  0.2651
 2559TIP3    H1 7683   2.892   5.049   4.967  0.3411 -0.0116 -0.0323
 2559TIP3    H2 7684   2.833   5.101   5.096  0.2349 -2.3977  0.9295
 2560TIP3   OH2 7685   5.942   1.739   0.805  0.2258  0.2222 -1.1479
 2560TIP3    H1 7686   5.962   1.832   0.792 -0.9648  0.9392  1.5027
 2560TIP3    H2 7687   5.984   1.717   0.888 -0.7192 -1.2128 -1.0257
 2561TIP3   OH2 7688   2.391   2.500   1.995 -0.3010 -0.4822  0.0366
 2561TIP3    H1 7689   2.337   2.569   1.957 -0.1053 -0.7178 -0.6861
 2561TIP3    H2 7690   2.336   2.462   2.064  0.0750  1.2376  1.3478
 2562TIP3   OH2 7691   2.297   2.976   2.696  0.0619 -0.2430 -0.2210
 2562TIP3    H1 7692   2.314   3.026   2.616 -0.0398 -2.1583 -1.4974
 2562TIP3    H2 7693   2.211   2.938   2.683 -0.9338  1.1262  1.7929
 2563TIP3   OH2 7694   6.054   5.272   1.079  0.1815  0.0131 -0.1821
 2563TIP3    H1 7695   5.972   5.265   1.128  0.8415  1.0895  1.1252
 2563TIP3    H2 7696   6.027   5.265   0.987 -1.5003  1.1674  0.1616
 2564TIP3   OH2 7697   0.322   0.760   0.152  0.0884 -0.0105  0.3115
 2564TIP3    H1 7698   0.271   0.717   0.083  1.8597 -0.4278 -0.8065
 2564TIP3    H2 7699   0.257   0.785   0.218 -1.3886 -1.7057 -0.4053
 2565TIP3   OH2 7700   0.585   2.963   2.522  0.1920  0.0257  0.6529
 2565TIP3    H1 7701   0.500   2.971   2.565 -0.3384  0.8495 -0.4667
 2565TIP3    H2 7702   0.580   2.881   2.473 -0.0472  0.1792  0.4174
 2566TIP3   OH2 7703   3.201   1.426   4.829  0.3392 -0.0741 -0.6210
 2566TIP3    H1 7704   3.189   1.479   4.908  1.8169 -1.1521  0.3645
 2566TIP3    H2 7705   3.115   1.429   4.786 -1.5046 -1.9072  2.5485
 2567TIP3   OH2 7706   5.079   0.363   0.882 -0.3978 -0.4265 -0.2761
 2567TIP3    H1 7707   5.074   0.456   0.859  0.0652 -0.0622  1.0099
 2567TIP3    H2 7708   5.112   0.320   0.803 -0.1600  0.5669 -0.7309
 2568TIP3   OH2 7709   1.474   3.914   1.642 -0.1228  0.3218 -0.6427
 2568TIP3    H1 7710   1.471   3.831   1.689  0.6385  1.6483  1.9302
 2568TIP3    H2 7711   1.555   3.910   1.591 -0.7524 -0.9787 -1.6138
 2569TIP3   OH2 7712   2.427   0.376   3.318  0.0507 -0.0342  0.2899
 2569TIP3    H1 7713   2.435   0.424   3.400  0.9521  1.1899 -0.4773
 2569TIP3    H2 7714   2.516   0.346   3.299 -0.1036 -0.1136 -0.3453
 2570TIP3   OH2 7715   3.828   2.101   2.332 -0.2862 -0.1404  0.6803
 2570TIP3    H1 7716   3.734   2.120   2.328 -0.1331  0.3934 -0.9767
 2570TIP3    H2 7717   3.869   2.175   2.287  0.8565 -0.9608  0.3480
 2571TIP3   OH2 7718   2.350   4.603   3.330 -0.1083 -0.5501 -0.0915
 2571TIP3    H1 7719   2.281   4.648   3.283 -0.1806 -0.0256  0.4940
 2571TIP3    H2 7720   2.374   4.663   3.401 -0.9816 -1.8637  1.4137
 2572TIP3   OH2 7721   4.527   0.440   0.047  0.3650  0.5264 -0.1782
 2572TIP3    H1 7722   4.496   0.473   0.131  1.7790  1.6742 -0.0634
 2572TIP3    H2 7723   4.618   0.471   0.042  0.8970 -1.0933 -1.3022
 2573TIP3   OH2 7724   4.933   2.762   3.597  0.9346  0.2397 -0.1559
 2573TIP3    H1 7725   4.995   2.734   3.529 -0.2691 -2.0055 -0.4349
 2573TIP3    H2 7726   4.876   2.825   3.555  1.4456  0.3711 -0.6518
 2574TIP3   OH2 7727   1.580   2.049   0.504 -0.6077 -0.3208 -0.0536
 2574TIP3    H1 7728   1.495   2.008   0.490 -0.1396 -1.5117  0.4463
 2574TIP3    H2 7729   1.568   2.139   0.476 -2.1385 -0.3693  0.3718
 2575TIP3   OH2 7730   4.703   2.211   0.046 -0.5354  0.0787  0.0484
 2575TIP3    H1 7731   4.635   2.179  -0.013 -0.2984  0.1320 -0.2533
 2575TIP3    H2 7732   4.686   2.305   0.054 -0.8345 -0.0012  0.4186
 2576TIP3   OH2 7733   1.942   3.518   2.000  0.5852 -0.0202  0.5696
 2576TIP3    H1 7734   1.984   3.601   1.977  0.0469 -0.2036 -1.1988
 2576TIP3    H2 7735   2.014   3.456   2.009  0.8641  0.2114 -0.0206
 2577TIP3   OH2 7736   1.224   1.273   0.410 -0.2049  0.3555  0.0665
 2577TIP3    H1 7737   1.304   1.244   0.367  0.1028  0.8025  0.3266
 2577TIP3    H2 7738   1.188   1.194   0.450  0.5799  0.3152  0.7064
 2578TIP3   OH2 7739   1.369   1.521   3.478 -0.2208 -0.0923  1.0202
 2578TIP3    H1 7740   1.426   1.453   3.442 -1.3234 -1.0258  0.9459
 2578TIP3    H2 7741   1.350   1.491   3.567 -2.6331 -1.2136  0.2186
 2579TIP3   OH2 7742   5.968   3.589   0.962 -0.1400  0.3308 -0.0303
 2579TIP3    H1 7743   6.055   3.628   0.960  0.1496 -0.3209 -0.4954
 2579TIP3    H2 7744   5.913   3.649   0.913 -0.2472  1.4151  1.3624
 2580TIP3   OH2 7745   4.663   5.011   4.210  0.2621 -0.3284 -0.2598
 2580TIP3    H1 7746   4.678   5.091   4.160  0.4871 -0.3517 -0.2328
 2580TIP3    H2 7747   4.707   4.942   4.160 -1.6556 -0.8096 -1.3584
 2581TIP3   OH2 7748   2.646   0.193   0.320  0.2338 -0.6205  0.1113
 2581TIP3    H1 7749   2.706   0.118   0.319  0.2660 -0.5970  0.3354
 2581TIP3    H2 7750   2.572   0.165   0.374 -0.0459 -0.7158 -0.3143
 2582TIP3   OH2 7751   3.354   1.336   4.433  0.1674  0.5404  0.2908
 2582TIP3    H1 7752   3.308   1.288   4.364 -3.2227  2.4487  1.0138
 2582TIP3    H2 7753   3.419   1.274   4.466  0.2348 -1.2978 -2.8695
 2583TIP3   OH2 7754   0.509   5.827   2.374  0.2279 -0.2062  0.5871
 2583TIP3    H1 7755   0.453   5.862   2.304  1.7350  0.4013 -0.3682
 2583TIP3    H2 7756   0.523   5.736   2.349  0.6166 -0.0387  0.1613
 2584TIP3   OH2 7757   4.306   0.202   4.370  0.1275 -0.2140  0.4859
 2584TIP3    H1 7758   4.281   0.271   4.431  1.0285 -1.0121  1.8214
 2584TIP3    H2 7759   4.257   0.125   4.400 -0.0334 -0.4259 -0.3050
 2585TIP3   OH2 7760   2.727   4.964   1.857  0.2439 -0.3966  0.1484
 2585TIP3    H1 7761   2.782   5.023   1.805 -0.5178  0.2285  0.0393
 2585TIP3    H2 7762   2.731   5.001   1.946 -0.2401 -0.1660  0.0779
 2586TIP3   OH2 7763   1.398   4.444   0.400  0.8162  0.4311  0.1445
 2586TIP3    H1 7764   1.356   4.371   0.356  0.9399  0.3095  0.2289
 2586TIP3    H2 7765   1.382   4.519   0.343 -0.4194  0.5942  0.6901
 2587TIP3   OH2 7766   5.338   2.389   4.555  0.6412 -0.3425 -0.5836
 2587TIP3    H1 7767   5.332   2.320   4.490  0.3081 -0.3851 -0.5118
 2587TIP3    H2 7768   5.372   2.465   4.507 -0.3533 -0.1410 -1.0016
 2588TIP3   OH2 7769   2.893   2.745   2.600 -0.4612  0.7418 -0.1190
 2588TIP3    H1 7770   2.922   2.834   2.621 -1.5622  0.3920  3.5064
 2588TIP3    H2 7771   2.969   2.690   2.618 -0.4589  0.7336 -0.1526
 2589TIP3   OH2 7772   6.096   0.290   1.583  0.1436 -0.0418  0.1734
 2589TIP3    H1 7773   6.012   0.336   1.584 -0.3208 -0.8663 -0.1490
 2589TIP3    H2 7774   6.074   0.199   1.563  1.3077  0.0948 -1.9680
 2590TIP3   OH2 7775   4.820   4.440   1.212 -0.2499 -0.2869  0.0423
 2590TIP3    H1 7776   4.736   4.481   1.230 -0.9208 -0.9959 -1.3103
 2590TIP3    H2 7777   4.817   4.356   1.258 -0.9698 -1.0132 -1.2442
 2591TIP3   OH2 7778   6.054   1.618   1.034 -0.5417 -0.7851 -0.0480
 2591TIP3    H1 7779   6.104   1.537   1.025  0.1797 -0.1410 -2.9937
 2591TIP3    H2 7780   6.108   1.674   1.090 -0.0092 -1.5742  0.2336
 2592TIP3   OH2 7781   0.395   5.917   1.316 -0.0730 -0.1423 -0.2005
 2592TIP3    H1 7782   0.367   5.927   1.407 -0.3585 -0.3785 -0.2577
 2592TIP3    H2 7783   0.392   6.005   1.279  0.8099  0.0752  0.2321
 2593TIP3   OH2 7784   1.282   2.858   4.235 -0.9174  0.6532  0.3931
 2593TIP3    H1 7785   1.213   2.821   4.180 -0.9583  0.6488  0.4469
 2593TIP3    H2 7786   1.278   2.952   4.219  0.3721  0.4901 -1.1213
 2594TIP3   OH2 7787   5.181   2.549   4.134 -0.1453 -0.0504  0.2380
 2594TIP3    H1 7788   5.143   2.630   4.168 -1.3166 -0.8395  0.8849
 2594TIP3    H2 7789   5.117   2.517   4.070  1.5318  0.8582 -2.0365
 2595TIP3   OH2 7790   5.105   2.378   2.883 -0.0749 -0.5743  0.2127
 2595TIP3    H1 7791   5.169   2.405   2.949 -1.1053  1.3620  0.4707
 2595TIP3    H2 7792   5.041   2.327   2.932 -0.5150  0.3496  0.6268
 2596TIP3   OH2 7793   0.729   3.652   4.758  0.0164 -0.5669  0.0667
 2596TIP3    H1 7794   0.747   3.562   4.788 -1.7017 -0.9792 -0.0281
 2596TIP3    H2 7795   0.656   3.642   4.696  2.3580  0.4702 -3.0711
 2597TIP3   OH2 7796   4.564   4.510   1.317  0.2016  0.0670  0.4560
 2597TIP3    H1 7797   4.544   4.417   1.307 -0.0660  0.0843  0.8407
 2597TIP3    H2 7798   4.553   4.528   1.410  2.3017  0.0072  0.7788
 2598TIP3   OH2 7799   2.688   1.133   5.020  0.6187  0.3911 -0.1951
 2598TIP3    H1 7800   2.661   1.192   4.950 -0.0123 -0.0963 -0.3653
 2598TIP3    H2 7801   2.639   1.053   5.005  1.6667 -0.2881 -0.1179
 2599TIP3   OH2 7802   2.975   3.177   2.636 -0.4182  0.3108  0.2370
 2599TIP3    H1 7803   2.922   3.175   2.716 -0.5770  0.7969  0.1491
 2599TIP3    H2 7804   2.932   3.243   2.581  0.4024  0.8718  0.2481
 2600TIP3   OH2 7805   2.566   1.634   4.843  0.0711  0.7924 -0.3895
 2600TIP3    H1 7806   2.563   1.621   4.749 -1.5966 -1.4667 -0.1280
 2600TIP3    H2 7807   2.499   1.701   4.861 -1.1379 -0.2887 -0.6865
 2601TIP3   OH2 7808   4.882   0.322   3.088  0.2391 -0.1137 -0.2272
 2601TIP3    H1 7809   4.860   0.279   3.005  0.1464  1.0843 -0.8390
 2601TIP3    H2 7810   4.929   0.402   3.062  2.2610 -0.8439  0.9378
 2602TIP3   OH2 7811   0.150   2.665   3.137 -0.1832  0.1673  0.2576
 2602TIP3    H1 7812   0.110   2.617   3.064 -0.9026 -0.0025  0.7467
 2602TIP3    H2 7813   0.083   2.730   3.162 -0.2269 -0.2172  1.1868
 2603TIP3   OH2 7814   2.931   2.647   0.882 -0.1848 -0.2207 -0.1465
 2603TIP3    H1 7815   3.022   2.673   0.873 -0.1924  0.2197  0.8604
 2603TIP3    H2 7816   2.901   2.693   0.961 -1.4841  0.2244 -0.8720
 2604TIP3   OH2 7817   5.692   1.411   4.508  0.4949 -0.1441  0.5698
 2604TIP3    H1 7818   5.682   1.463   4.428 -1.0527  1.1963  1.5674
 2604TIP3    H2 7819   5.720   1.325   4.477 -0.8771  0.0705 -1.4952
 2605TIP3   OH2 7820   5.086   3.128   1.746 -0.0959 -0.1737  0.4697
 2605TIP3    H1 7821   5.171   3.088   1.764  0.2570 -0.3227 -1.3636
 2605TIP3    H2 7822   5.096   3.220   1.772  0.6533 -0.1648  0.1614
 2606TIP3   OH2 7823   0.661   1.353   2.646  0.5545 -0.1250  0.2436
 2606TIP3    H1 7824   0.594   1.290   2.620 -0.8412  0.6844  1.6777
 2606TIP3    H2 7825   0.727   1.301   2.692 -0.1883 -0.6568  0.7241
 2607TIP3   OH2 7826   5.982   4.620   3.035  0.0285  0.3468  0.3638
 2607TIP3    H1 7827   5.888   4.602   3.041 -0.4011  1.7404 -1.4097
 2607TIP3    H2 7828   6.015   4.601   3.123 -1.6850 -1.2799  0.7244
 2608TIP3   OH2 7829   3.037   2.917   3.768 -0.4157  0.3269  0.4069
 2608TIP3    H1 7830   3.125   2.879   3.770 -0.1628  0.8764  0.0671
 2608TIP3    H2 7831   3.042   2.992   3.827 -0.1582  1.3774 -0.8953
 2609TIP3   OH2 7832   2.094   2.653   3.459 -1.1615 -0.5735  0.0776
 2609TIP3    H1 7833   2.043   2.681   3.535 -1.2947 -2.9636  0.9719
 2609TIP3    H2 7834   2.033   2.656   3.386 -1.2309  1.0795  0.1723
 2610TIP3   OH2 7835   4.211   0.285   0.159  0.0954 -0.2621  0.3368
 2610TIP3    H1 7836   4.289   0.233   0.177  0.4802  0.3758  0.5304
 2610TIP3    H2 7837   4.225   0.320   0.071  1.8905  3.0346  1.7511
 2611TIP3   OH2 7838   4.140   5.907   0.865 -0.5846 -0.1043 -0.5273
 2611TIP3    H1 7839   4.221   5.955   0.881 -0.0982 -0.5457 -1.5732
 2611TIP3    H2 7840   4.127   5.856   0.945 -0.6048  1.0459  0.2111
 2612TIP3   OH2 7841   3.240   5.214   3.305 -0.2889  0.3538 -0.1532
 2612TIP3    H1 7842   3.288   5.280   3.355 -1.3807  2.6138 -1.8985
 2612TIP3    H2 7843   3.247   5.242   3.214 -0.4505 -2.2247 -1.0437
 2613TIP3   OH2 7844   4.208   1.969   2.937  0.4913  0.3264 -0.1570
 2613TIP3    H1 7845   4.113   1.973   2.941  0.5386  0.8656  1.1863
 2613TIP3    H2 7846   4.231   2.019   2.858 -0.2446  3.2263  1.3056
 2614TIP3   OH2 7847   5.838   5.709   0.112  0.0302  0.2280  0.0546
 2614TIP3    H1 7848   5.893   5.765   0.057  0.6114  1.3303  1.6444
 2614TIP3    H2 7849   5.832   5.757   0.195 -1.1624 -1.1408  0.8078
 2615TIP3   OH2 7850   1.114   1.392   2.188 -0.6847  0.2427  0.3559
 2615TIP3    H1 7851   1.163   1.462   2.144  0.7985 -1.8291 -1.5267
 2615TIP3    H2 7852   1.179   1.351   2.246 -0.3923 -1.7998 -1.2975
 2616TIP3   OH2 7853   4.087   3.072   2.589  0.2512 -0.0040  0.7636
 2616TIP3    H1 7854   3.992   3.061   2.592  0.4175 -3.1220 -0.5916
 2616TIP3    H2 7855   4.102   3.132   2.516 -0.6787  0.3005  0.8176
 2617TIP3   OH2 7856   3.595   3.159   1.862  0.0705  0.0203 -0.0409
 2617TIP3    H1 7857   3.509   3.148   1.821  0.0859 -0.5275  0.0699
 2617TIP3    H2 7858   3.583   3.126   1.951  0.3925 -0.0313 -0.0181
 2618TIP3   OH2 7859   5.828   5.006   5.086 -0.3073 -0.4780  0.5245
 2618TIP3    H1 7860   5.775   5.020   5.007  1.1555 -0.1641 -0.4305
 2618TIP3    H2 7861   5.765   4.973   5.150 -1.8259  0.5723 -0.3318
 2619TIP3   OH2 7862   1.756   2.472   3.132 -0.6826  0.6303 -0.2016
 2619TIP3    H1 7863   1.752   2.377   3.131  0.7606  0.5425  0.3394
 2619TIP3    H2 7864   1.667   2.500   3.152 -1.0125 -0.6198  0.1274
 2620TIP3   OH2 7865   1.897   0.618   2.344 -0.0745 -0.3650 -0.9246
 2620TIP3    H1 7866   1.807   0.640   2.318  0.0985  0.5275 -0.7843
 2620TIP3    H2 7867   1.949   0.629   2.264  0.0165 -0.2366 -0.8482
 2621TIP3   OH2 7868   5.342   1.037   3.281  0.0885 -0.3697 -0.0996
 2621TIP3    H1 7869   5.316   1.010   3.370 -0.2551  2.0766  0.6256
 2621TIP3    H2 7870   5.288   0.984   3.223 -0.5136 -1.2177  1.1865
 2622TIP3   OH2 7871   2.149   1.785   0.200  0.2815 -0.4248  0.0066
 2622TIP3    H1 7872   2.087   1.813   0.133  0.7113 -1.1367 -0.7007
 2622TIP3    H2 7873   2.112   1.704   0.234 -0.5300  0.5019  1.4666
 2623TIP3   OH2 7874   5.365   1.469   4.226  0.3169 -0.0811 -0.0983
 2623TIP3    H1 7875   5.328   1.453   4.139 -0.6491 -0.4302  0.3636
 2623TIP3    H2 7876   5.405   1.556   4.219  0.0690 -0.0190 -0.8320
 2624TIP3   OH2 7877   4.510   0.389   4.001  0.2798 -0.1840  0.2724
 2624TIP3    H1 7878   4.459   0.429   3.930 -0.5427 -1.4904  0.1048
 2624TIP3    H2 7879   4.465   0.417   4.081 -1.4665 -2.2128  0.0988
 2625TIP3   OH2 7880   1.704   0.005   2.129  0.0758 -0.2234 -0.1919
 2625TIP3    H1 7881   1.650  -0.060   2.173  1.7060 -0.6169  1.3517
 2625TIP3    H2 7882   1.641   0.062   2.084 -1.5419 -1.1811  0.7513
 2626TIP3   OH2 7883   3.717   0.727   0.938 -0.0205  0.1856  0.3118
 2626TIP3    H1 7884   3.682   0.642   0.963 -0.6666  0.1851 -0.5665
 2626TIP3    H2 7885   3.693   0.785   1.011 -1.1768  0.0151  0.0835
 2627TIP3   OH2 7886   5.729   3.142   3.948 -0.0459 -0.1855 -0.1124
 2627TIP3    H1 7887   5.797   3.143   3.880 -0.7802 -0.4834 -0.8732
 2627TIP3    H2 7888   5.776   3.128   4.030  1.0268  1.6950 -0.3537
 2628TIP3   OH2 7889   2.933   3.218   0.932 -0.0554  0.0755 -0.3306
 2628TIP3    H1 7890   2.854   3.227   0.878 -0.4585 -0.7880  0.0896
 2628TIP3    H2 7891   2.969   3.133   0.907  2.7605  1.8447 -3.0890
 2629TIP3   OH2 7892   5.766   3.168   4.920 -0.2473 -0.1838  0.3859
 2629TIP3    H1 7893   5.691   3.117   4.950 -2.3306  1.0279 -2.3198
 2629TIP3    H2 7894   5.780   3.140   4.829  1.0482  1.3003  0.0846
 2630TIP3   OH2 7895   1.405   0.249   2.234  0.1132 -0.2157 -0.6673
 2630TIP3    H1 7896   1.488   0.203   2.248  1.0812  1.5299 -0.3739
 2630TIP3    H2 7897   1.362   0.247   2.320 -0.0547 -0.9355 -0.7655
 2631TIP3   OH2 7898   0.391   2.168   3.053  0.5546  0.3855 -0.5559
 2631TIP3    H1 7899   0.479   2.130   3.062 -0.8871 -2.7412  2.5332
 2631TIP3    H2 7900   0.395   2.249   3.103  1.7770  0.5914 -0.9396
 2632TIP3   OH2 7901   0.778   0.906   1.361 -0.5840  0.2185  0.1602
 2632TIP3    H1 7902   0.762   0.905   1.456  0.9053 -0.4561  0.4270
 2632TIP3    H2 7903   0.695   0.877   1.323 -0.5005 -1.8191  1.4043
 2633TIP3   OH2 7904   1.600   5.291   0.580  0.3030 -0.4216  0.2709
 2633TIP3    H1 7905   1.541   5.334   0.642 -0.6877 -0.4439 -0.6198
 2633TIP3    H2 7906   1.542   5.237   0.526  1.1303 -0.3800 -0.6767
 2634TIP3   OH2 7907   2.467   0.760   1.497  0.8199 -0.2434  0.2122
 2634TIP3    H1 7908   2.493   0.721   1.580  0.0784 -2.0525 -0.3652
 2634TIP3    H2 7909   2.372   0.771   1.504  0.9788  1.3946  0.3003
 2635TIP3   OH2 7910   3.463   3.958   1.026  0.6146  0.5277  0.1298
 2635TIP3    H1 7911   3.508   3.907   0.959  2.4542  0.3594  1.4293
 2635TIP3    H2 7912   3.488   4.049   1.007 -0.4762  0.7133 -0.5514
 2636TIP3   OH2 7913   4.265   3.751   5.089 -0.0880  0.6193  0.0196
 2636TIP3    H1 7914   4.275   3.842   5.062  0.2661  0.0769 -1.8258
 2636TIP3    H2 7915   4.349   3.710   5.066 -0.8047 -0.5088 -0.6933
 2637TIP3   OH2 7916   3.652   2.599   2.576  0.3758 -0.7000 -0.6405
 2637TIP3    H1 7917   3.605   2.682   2.579 -0.8997 -1.4122  0.0944
 2637TIP3    H2 7918   3.666   2.577   2.668 -1.1090 -2.2482 -0.7270
 2638TIP3   OH2 7919   2.039   3.493   2.342  0.0339  0.0693  0.1772
 2638TIP3    H1 7920   1.956   3.519   2.303 -0.7209 -2.3113  0.1056
 2638TIP3    H2 7921   2.025   3.500   2.436 -0.0674  0.1410  0.1574
 2639TIP3   OH2 7922   3.732   3.240   0.911  0.1638 -0.4578 -0.3372
 2639TIP3    H1 7923   3.782   3.300   0.855 -0.4830  1.4575  1.0437
 2639TIP3    H2 7924   3.655   3.291   0.937 -0.5426 -2.0039  0.7029
 2640TIP3   OH2 7925   1.752   3.855   1.958 -0.1710 -0.4421  0.5645
 2640TIP3    H1 7926   1.667   3.811   1.944 -0.4832 -0.0971  1.2908
 2640TIP3    H2 7927   1.738   3.944   1.927 -0.8099  0.2729  2.6856
 2641TIP3   OH2 7928   4.631   4.454   4.472  0.0984 -0.3530  0.0266
 2641TIP3    H1 7929   4.584   4.532   4.440  1.1583 -0.4273 -1.8686
 2641TIP3    H2 7930   4.638   4.468   4.567 -0.1395  1.6428 -0.1958
 2642TIP3   OH2 7931   2.475   0.152   2.729  0.3108 -0.6585 -0.7293
 2642TIP3    H1 7932   2.407   0.205   2.688  0.7608 -1.2904 -2.3655
 2642TIP3    H2 7933   2.428   0.094   2.788 -0.3789  0.1488 -0.4674
 2643TIP3   OH2 7934   4.455   0.953   4.740  0.0409 -0.3038  0.2772
 2643TIP3    H1 7935   4.485   1.007   4.813 -0.1660  1.6899 -1.0361
 2643TIP3    H2 7936   4.407   0.881   4.782 -0.2980  0.9069  2.1007
 2644TIP3   OH2 7937   1.078   5.054   3.641 -0.8601 -0.0861  0.9478
 2644TIP3    H1 7938   0.991   5.049   3.602 -0.9373 -0.8070  1.2091
 2644TIP3    H2 7939   1.069   5.116   3.713 -1.1043  0.0091  0.8356
 2645TIP3   OH2 7940   2.431   1.190   1.765 -0.0616 -0.3255  0.0021
 2645TIP3    H1 7941   2.442   1.247   1.688  0.9426  0.0242  0.3867
 2645TIP3    H2 7942   2.398   1.248   1.833  0.5976 -0.2739  0.2860
 2646TIP3   OH2 7943   2.894   4.818   0.607 -0.2395  0.0934 -0.1656
 2646TIP3    H1 7944   2.959   4.882   0.576 -0.1379  0.2520  0.3607
 2646TIP3    H2 7945   2.865   4.773   0.528  2.0288 -1.4088 -0.2321
 2647TIP3   OH2 7946   4.015   1.327   1.133 -0.0473  0.2181  0.3141
 2647TIP3    H1 7947   4.073   1.346   1.059 -0.6002 -0.5475 -0.3235
 2647TIP3    H2 7948   3.929   1.358   1.106 -0.3331 -0.4219  0.4730
 2648TIP3   OH2 7949   2.191   4.501   3.005 -0.3717  0.2948  0.1636
 2648TIP3    H1 7950   2.213   4.587   3.040  0.9292 -0.5577  1.5536
 2648TIP3    H2 7951   2.097   4.493   3.020 -0.5582  1.5621 -0.2126
 2649TIP3   OH2 7952   1.771   2.219   2.811  0.1609  0.0988  0.5854
 2649TIP3    H1 7953   1.700   2.238   2.872 -0.5924 -3.2369  0.9554
 2649TIP3    H2 7954   1.849   2.210   2.866 -0.0118 -0.4166  0.7512
 2650TIP3   OH2 7955   5.256   3.668   3.423  0.0281 -0.0859 -0.3106
 2650TIP3    H1 7956   5.171   3.710   3.408  1.1656  2.6017  0.0547
 2650TIP3    H2 7957   5.280   3.633   3.337 -0.1223  1.8912 -1.2316
 2651TIP3   OH2 7958   5.686   2.715   0.517 -0.1567  0.2684 -0.1613
 2651TIP3    H1 7959   5.674   2.658   0.592  1.9471  0.3586  0.2984
 2651TIP3    H2 7960   5.597   2.735   0.488 -0.9851 -1.0039  1.3387
 2652TIP3   OH2 7961   0.215   2.502   1.341 -0.4600  0.3142  0.1195
 2652TIP3    H1 7962   0.171   2.521   1.258 -1.0537  1.9464  0.7543
 2652TIP3    H2 7963   0.163   2.549   1.406 -1.3266 -2.7035  1.7685
 2653TIP3   OH2 7964   2.014   1.757   3.146 -0.3351 -0.3263  0.1567
 2653TIP3    H1 7965   1.983   1.698   3.215 -0.8973  1.0104  1.0947
 2653TIP3    H2 7966   1.946   1.824   3.140  0.0769 -0.0019 -1.1966
 2654TIP3   OH2 7967   4.579   4.901   2.823 -0.3495 -0.6111 -0.1025
 2654TIP3    H1 7968   4.550   4.907   2.914  0.7205 -1.8287  0.3502
 2654TIP3    H2 7969   4.589   4.807   2.807 -0.8071 -0.4299 -1.5769
 2655TIP3   OH2 7970   0.047   1.311   2.335  0.1073 -0.2982  0.5137
 2655TIP3    H1 7971   0.013   1.284   2.420 -0.2983 -1.6911 -0.0507
 2655TIP3    H2 7972   0.004   1.253   2.272 -0.7648  1.6996 -0.8299
 2656TIP3   OH2 7973   1.407   0.691   3.465  0.0875 -0.7473 -0.1059
 2656TIP3    H1 7974   1.404   0.749   3.541  1.8340 -0.0683 -0.5297
 2656TIP3    H2 7975   1.484   0.718   3.416 -0.3060 -1.9887 -1.4901
 2657TIP3   OH2 7976   3.040   5.277  -0.022 -0.3872  0.1062 -1.0599
 2657TIP3    H1 7977   3.067   5.239   0.062  1.0838  2.2371 -0.4673
 2657TIP3    H2 7978   2.951   5.307  -0.008 -0.0894  0.6147 -0.1571
 2658TIP3   OH2 7979   5.227   3.648   4.146 -0.2019 -0.1789 -0.2720
 2658TIP3    H1 7980   5.272   3.704   4.083 -0.9856 -1.4514 -2.0347
 2658TIP3    H2 7981   5.152   3.700   4.176 -0.6312 -0.0701 -1.4952
 2659TIP3   OH2 7982   3.501   4.915   0.454  0.1179 -0.0256 -0.6260
 2659TIP3    H1 7983   3.431   4.933   0.517 -0.0321  2.6664 -1.4500
 2659TIP3    H2 7984   3.582   4.940   0.500  0.2714 -0.4910 -0.6375
 2660TIP3   OH2 7985   3.647   0.338   2.753  0.0581  0.4759 -0.1708
 2660TIP3    H1 7986   3.602   0.312   2.834  0.1492  0.9374  0.0348
 2660TIP3    H2 7987   3.695   0.260   2.726 -0.8820 -0.0370 -0.4109
 2661TIP3   OH2 7988   5.502   4.930   2.617  0.3687 -0.0782  0.5361
 2661TIP3    H1 7989   5.414   4.948   2.650 -0.1493 -0.9227 -0.3311
 2661TIP3    H2 7990   5.488   4.886   2.533  1.6404  1.4624 -0.5471
 2662TIP3   OH2 7991   1.982   0.658   3.275  0.1966  1.0746  0.1453
 2662TIP3    H1 7992   1.926   0.623   3.345  0.8398  1.5305  0.9059
 2662TIP3    H2 7993   2.041   0.586   3.254  0.5308  1.1925  0.6515
 2663TIP3   OH2 7994   4.708   1.071   1.449  0.3725 -0.1455  0.1921
 2663TIP3    H1 7995   4.656   0.990   1.451  0.1680 -0.0022  0.9039
 2663TIP3    H2 7996   4.749   1.075   1.536  0.0567  0.7243  0.3048
 2664TIP3   OH2 7997   4.908   4.792   1.719  0.3420  0.7295 -0.7002
 2664TIP3    H1 7998   4.941   4.704   1.702  1.0230  1.0185 -0.9214
 2664TIP3    H2 7999   4.887   4.792   1.812 -0.0721  0.2099 -0.7858
 2665TIP3   OH2 8000   3.255   1.882   1.061  0.4964  0.0395  0.4001
 2665TIP3    H1 8001   3.189   1.951   1.059  0.2931 -0.1793 -1.1933
 2665TIP3    H2 8002   3.293   1.888   1.149  0.1159  1.8222  0.4772
 2666TIP3   OH2 8003   2.232   4.051   4.832  1.2229  0.1987 -0.6990
 2666TIP3    H1 8004   2.204   4.115   4.898  0.3613 -0.2784 -0.5943
 2666TIP3    H2 8005   2.156   4.040   4.776  1.2345 -1.0188 -0.4973
 2667TIP3   OH2 8006   1.425   4.234   3.211  0.1769  0.0949 -0.3518
 2667TIP3    H1 8007   1.384   4.292   3.146  0.5286 -1.5803 -2.1525
 2667TIP3    H2 8008   1.465   4.164   3.159 -0.5873 -2.0139  1.7398
 2668TIP3   OH2 8009   5.541   4.736   3.955  0.5438 -0.0076 -0.5935
 2668TIP3    H1 8010   5.588   4.798   4.011  1.2591 -1.3098  0.3212
 2668TIP3    H2 8011   5.578   4.650   3.978 -2.5380 -1.2092  0.5044
 2669TIP3   OH2 8012   4.344   1.569   4.424  0.0926 -0.5185 -0.0447
 2669TIP3    H1 8013   4.307   1.602   4.342 -0.9850  0.5363  0.8398
 2669TIP3    H2 8014   4.349   1.474   4.411  0.2183 -0.3489 -1.4304
 2670TIP3   OH2 8015   4.183   4.821   0.159  0.2445 -0.2070  0.2400
 2670TIP3    H1 8016   4.276   4.820   0.135  0.4974  2.1366  0.9215
 2670TIP3    H2 8017   4.137   4.820   0.075  0.8655 -1.2792 -0.1095
 2671TIP3   OH2 8018   4.800   1.078   4.660  0.2547  0.2795  0.0477
 2671TIP3    H1 8019   4.761   1.089   4.573 -0.9457 -0.3010  0.4930
 2671TIP3    H2 8020   4.855   1.000   4.652 -1.3160 -0.9086  0.2612
 2672TIP3   OH2 8021   2.207   0.043   3.101 -0.6589  0.6113  0.2144
 2672TIP3    H1 8022   2.257  -0.004   3.034 -0.6549 -0.4517  0.9474
 2672TIP3    H2 8023   2.264   0.046   3.177 -0.5318  2.1233  0.0870
 2673TIP3   OH2 8024   3.799   4.225   4.345 -0.3242  0.4898 -0.0074
 2673TIP3    H1 8025   3.775   4.236   4.253  0.2539  1.4005 -0.0631
 2673TIP3    H2 8026   3.871   4.162   4.343  0.4587  1.3557 -0.3170
 2674TIP3   OH2 8027   1.465   0.448   1.224  0.2280 -0.0017  0.0754
 2674TIP3    H1 8028   1.542   0.502   1.242  0.1902  0.3910 -0.9147
 2674TIP3    H2 8029   1.391   0.509   1.227  0.0581 -0.2026  0.0407
 2675TIP3   OH2 8030   4.254   5.323   1.428  0.0766 -0.1478  0.1675
 2675TIP3    H1 8031   4.332   5.377   1.441  0.1977 -0.3798  0.4050
 2675TIP3    H2 8032   4.191   5.383   1.388 -0.2922  0.5854  1.7779
 2676TIP3   OH2 8033   4.171   2.670   2.842  0.3266  0.2019  0.1500
 2676TIP3    H1 8034   4.207   2.742   2.790  0.1962 -0.7302 -1.2927
 2676TIP3    H2 8035   4.087   2.703   2.874 -0.1808  0.3759 -1.3025
 2677TIP3   OH2 8036   1.717   3.055   0.589 -0.4550  0.3980  0.6757
 2677TIP3    H1 8037   1.721   3.111   0.667  1.6194 -1.2610  1.8522
 2677TIP3    H2 8038   1.797   3.077   0.540  0.7710 -1.8764  1.5033
 2678TIP3   OH2 8039   2.515   0.717   4.913 -0.0163 -0.4534  0.0731
 2678TIP3    H1 8040   2.576   0.719   4.839  0.7798  0.9235  0.7278
 2678TIP3    H2 8041   2.570   0.735   4.990 -1.0488 -0.4867  0.8482
 2679TIP3   OH2 8042   1.942   0.091   1.243  0.7525  0.4634 -0.2875
 2679TIP3    H1 8043   1.968   0.176   1.209  1.3091  0.2276 -0.4639
 2679TIP3    H2 8044   2.016   0.062   1.296  0.0282  0.6923  0.9009
 2680TIP3   OH2 8045   2.389   4.339   5.086  0.0769 -0.5892 -0.0307
 2680TIP3    H1 8046   2.472   4.388   5.083  0.6823 -1.6187 -0.6241
 2680TIP3    H2 8047   2.406   4.260   5.036 -0.3731 -2.2006  2.2328
 2681TIP3   OH2 8048   4.697   5.020   1.840 -0.2377  0.2217 -0.1168
 2681TIP3    H1 8049   4.687   5.037   1.934  0.1596  0.0897 -0.0524
 2681TIP3    H2 8050   4.769   5.077   1.813  0.6600 -0.8491 -0.0345
 2682TIP3   OH2 8051   4.972   2.226   3.065  0.1027  0.3322  0.1128
 2682TIP3    H1 8052   4.895   2.273   3.097  0.6245  0.4204  1.2621
 2682TIP3    H2 8053   4.936   2.157   3.010 -0.9035 -0.6183  1.8964
 2683TIP3   OH2 8054   4.133   2.407   2.549 -0.4261 -0.5034 -0.3738
 2683TIP3    H1 8055   4.110   2.338   2.487 -1.3926 -0.3361 -0.2240
 2683TIP3    H2 8056   4.058   2.467   2.547  0.5701  0.7734 -0.8124
 2684TIP3   OH2 8057   0.118   2.732   2.831 -0.1786 -0.0126 -0.1393
 2684TIP3    H1 8058   0.176   2.777   2.892 -0.5848  1.3115 -0.7067
 2684TIP3    H2 8059   0.175   2.675   2.781  0.5630  0.8641 -0.3136
 2685TIP3   OH2 8060   0.255   5.877   1.577 -0.5374 -0.4448  0.3677
 2685TIP3    H1 8061   0.262   5.860   1.671  1.5256  1.3630  0.6361
 2685TIP3    H2 8062   0.221   5.966   1.572 -0.7716 -0.5825 -0.6091
 2686TIP3   OH2 8063   2.387   1.128   4.360 -0.3502  0.0311 -0.0004
 2686TIP3    H1 8064   2.430   1.098   4.440 -1.0773  0.6327  0.6269
 2686TIP3    H2 8065   2.334   1.203   4.388  0.0880  0.8176 -1.2103
 2687TIP3   OH2 8066   1.947   4.980   4.454 -0.9220  0.0461  0.2153
 2687TIP3    H1 8067   2.020   5.033   4.422 -0.7072 -0.4215 -0.0732
 2687TIP3    H2 8068   1.921   4.927   4.379 -2.5092  1.2254 -0.1228
 2688TIP3   OH2 8069   2.061   3.801   1.086 -0.0921  0.0004  0.0222
 2688TIP3    H1 8070   1.996   3.856   1.129 -1.3043 -1.6535  0.3937
 2688TIP3    H2 8071   2.086   3.851   1.008  0.6944  2.1635  1.5498
 2689TIP3   OH2 8072   2.343   3.649   3.125  0.1402  0.3760 -0.3501
 2689TIP3    H1 8073   2.378   3.612   3.207  1.1092 -1.5257 -1.5435
 2689TIP3    H2 8074   2.418   3.650   3.066 -0.9031  0.1282 -1.7297
 2690TIP3   OH2 8075   5.329   2.487   0.112  0.4014  0.0423  0.6290
 2690TIP3    H1 8076   5.412   2.535   0.113  2.4789 -3.0923 -1.1880
 2690TIP3    H2 8077   5.320   2.453   0.201  2.6266 -1.7108  0.2979
 2691TIP3   OH2 8078   4.617   0.811   1.424 -0.3476  0.2754  0.6221
 2691TIP3    H1 8079   4.574   0.739   1.471 -0.1718  0.7966  1.6010
 2691TIP3    H2 8080   4.622   0.780   1.333  0.4033 -1.2787  1.1514
 2692TIP3   OH2 8081   1.054   0.977   0.132 -0.2849 -0.2889  0.1551
 2692TIP3    H1 8082   1.015   0.921   0.199  1.8779  0.6742  2.3873
 2692TIP3    H2 8083   0.980   1.021   0.091 -1.7198 -1.0405  1.8273
 2693TIP3   OH2 8084   3.564   0.869   0.756  0.2904 -0.1266  0.0655
 2693TIP3    H1 8085   3.635   0.808   0.774 -1.9209 -2.6136  0.9790
 2693TIP3    H2 8086   3.535   0.899   0.842 -1.6488 -1.5477 -0.0238
 2694TIP3   OH2 8087   4.258   2.476   0.213  0.2478  0.4368 -0.3148
 2694TIP3    H1 8088   4.249   2.385   0.186  1.0654 -0.0760  1.0383
 2694TIP3    H2 8089   4.318   2.473   0.287  0.0848  2.0535 -0.0827
 2695TIP3   OH2 8090   2.717   4.828   0.110  0.0099 -0.0852  0.3982
 2695TIP3    H1 8091   2.678   4.765   0.050  0.2424 -1.3804  1.5604
 2695TIP3    H2 8092   2.685   4.913   0.079  0.9006 -0.5932 -2.1215
 2696TIP3   OH2 8093   5.234   5.151   4.865 -0.5729  0.2546 -0.1130
 2696TIP3    H1 8094   5.177   5.150   4.788 -0.6643  1.7887 -0.1076
 2696TIP3    H2 8095   5.253   5.244   4.878  0.5470 -0.1049  0.9087
 2697TIP3   OH2 8096   1.783   3.081   4.274  0.7197 -0.2894  0.2765
 2697TIP3    H1 8097   1.780   3.171   4.307  1.2019  0.1739 -0.8592
 2697TIP3    H2 8098   1.772   3.091   4.179  0.3578 -1.4706  0.1882
 2698TIP3   OH2 8099   2.031   0.170   2.294  0.8235 -0.2946 -0.2429
 2698TIP3    H1 8100   2.080   0.252   2.303  0.3693  0.0626 -0.9284
 2698TIP3    H2 8101   1.979   0.182   2.215 -0.9060 -0.3944  0.8387
 2699TIP3   OH2 8102   0.500   0.856   1.314 -0.1802 -0.4615 -0.1319
 2699TIP3    H1 8103   0.486   0.762   1.332 -0.7999 -0.1888  0.9355
 2699TIP3    H2 8104   0.441   0.875   1.241 -0.3056 -0.8370 -0.1344
 2700TIP3   OH2 8105   2.560   2.438   1.401 -0.1404  0.2439 -0.2259
 2700TIP3    H1 8106   2.512   2.516   1.375 -0.9680  0.1452  0.9376
 2700TIP3    H2 8107   2.587   2.398   1.318 -1.1137  0.8999 -0.8844
 2701TIP3   OH2 8108   5.399   5.078   4.012  0.2017  0.6560 -0.9548
 2701TIP3    H1 8109   5.411   4.983   4.009 -1.1693  0.4580 -0.6424
 2701TIP3    H2 8110   5.436   5.109   3.929  0.8890 -0.1174 -0.9473
 2702TIP3   OH2 8111   2.312   2.179   1.194  0.7585  0.4917  0.7945
 2702TIP3    H1 8112   2.353   2.258   1.157 -0.0285 -0.0036 -1.3126
 2702TIP3    H2 8113   2.376   2.109   1.178  0.8084  0.4246  1.2679
 2703TIP3   OH2 8114   5.803   3.913   3.028 -0.3887 -0.0900 -0.2442
 2703TIP3    H1 8115   5.846   3.905   3.113 -1.8877 -1.2975  0.4468
 2703TIP3    H2 8116   5.875   3.929   2.966  0.7890  0.2151  1.1434
 2704TIP3   OH2 8117   3.534   2.169   2.262  0.0193 -0.5002 -1.0247
 2704TIP3    H1 8118   3.541   2.210   2.176 -1.8563  3.3673  0.4139
 2704TIP3    H2 8119   3.473   2.096   2.250 -0.7362  0.3874 -2.8797
 2705TIP3   OH2 8120   4.697   1.173   3.488  0.5572 -0.6317 -0.1898
 2705TIP3    H1 8121   4.612   1.132   3.475  1.3427 -1.7142 -2.5031
 2705TIP3    H2 8122   4.696   1.250   3.432  0.6463  0.1225  0.8169
 2706TIP3   OH2 8123   2.961   2.279   4.548  0.5062  0.2123 -0.1380
 2706TIP3    H1 8124   2.941   2.208   4.609 -1.1657 -0.1553 -1.0762
 2706TIP3    H2 8125   2.903   2.351   4.574  0.1281  0.2214 -0.9989
 2707TIP3   OH2 8126   0.716   3.727   1.846  0.3777 -0.1156  0.4676
 2707TIP3    H1 8127   0.779   3.792   1.815 -0.0022  1.1009  2.0766
 2707TIP3    H2 8128   0.632   3.774   1.846 -0.0496 -0.8662  0.8789
 2708TIP3   OH2 8129   0.566   4.108   2.602  0.3451  0.7273 -0.2334
 2708TIP3    H1 8130   0.479   4.070   2.589  0.0523  0.5386  1.8973
 2708TIP3    H2 8131   0.623   4.059   2.542 -0.6924 -0.4663 -0.2917
 2709TIP3   OH2 8132   5.458   5.588   0.668 -0.1743  0.2929  0.4576
 2709TIP3    H1 8133   5.471   5.501   0.632 -1.3062  0.1591  0.3522
 2709TIP3    H2 8134   5.458   5.575   0.763  0.9900  0.3857  0.4855
 2710TIP3   OH2 8135   4.496   4.818   0.125 -0.1157 -0.4703 -0.3510
 2710TIP3    H1 8136   4.566   4.883   0.130 -0.9864  0.6641 -2.0290
 2710TIP3    H2 8137   4.504   4.768   0.206  0.8202  1.4759  0.8193
 2711TIP3   OH2 8138   4.378   0.534   3.312 -0.2608 -0.1746  0.0611
 2711TIP3    H1 8139   4.317   0.487   3.369 -0.5507  0.8498  0.6251
 2711TIP3    H2 8140   4.463   0.494   3.331 -0.6245 -1.0604 -0.1262
 2712TIP3   OH2 8141   0.761   2.749   4.751  0.1366 -0.2579  0.5929
 2712TIP3    H1 8142   0.690   2.784   4.806  1.5786  1.3926  1.5192
 2712TIP3    H2 8143   0.722   2.744   4.663 -1.1630  0.5267  1.0815
 2713TIP3   OH2 8144   0.677   0.292   5.078  0.6078 -0.1827  0.3225
 2713TIP3    H1 8145   0.591   0.252   5.067  0.7642 -0.6802  0.8766
 2713TIP3    H2 8146   0.701   0.274   5.169  1.5363 -0.5152  0.0219
 2714TIP3   OH2 8147   0.525   2.012   3.652 -0.2441 -0.0806  0.2757
 2714TIP3    H1 8148   0.532   2.096   3.606 -0.3769  0.0093  0.4189
 2714TIP3    H2 8149   0.483   2.034   3.735 -0.7967 -0.3686  0.0807
 2715TIP3   OH2 8150   2.166   4.036   1.969 -0.6071  0.0968  0.3466
 2715TIP3    H1 8151   2.146   4.067   2.057 -0.6165 -0.5017  0.5615
 2715TIP3    H2 8152   2.193   4.114   1.921 -3.1466  0.9087  0.1067
 2716TIP3   OH2 8153   5.595   3.060   4.406  0.5174 -0.4581 -0.6118
 2716TIP3    H1 8154   5.658   3.110   4.355  1.3945 -1.4081 -0.4952
 2716TIP3    H2 8155   5.626   3.067   4.496 -0.7375  0.7905 -0.2452
 2717TIP3   OH2 8156   2.073   4.613   2.671 -0.3704 -0.6883 -0.0050
 2717TIP3    H1 8157   2.009   4.584   2.735  0.0759  0.5994  1.0605
 2717TIP3    H2 8158   2.030   4.684   2.624  0.5140  0.7231  1.2539
 2718TIP3   OH2 8159   2.168   0.128   3.633  0.4025  0.4685 -0.7035
 2718TIP3    H1 8160   2.183   0.151   3.541 -0.9316  1.1222 -0.7733
 2718TIP3    H2 8161   2.131   0.207   3.672 -1.5629 -0.6231 -0.2532
 2719TIP3   OH2 8162   4.138   1.432   1.789  0.1395 -0.3162 -0.3716
 2719TIP3    H1 8163   4.149   1.525   1.768  0.1319 -0.4939 -1.1696
 2719TIP3    H2 8164   4.054   1.428   1.835 -0.7734 -0.1705 -1.9591
 2720TIP3   OH2 8165   5.867   4.030   0.113  0.0431  0.1314 -0.4064
 2720TIP3    H1 8166   5.845   4.117   0.080  0.6459 -0.1110 -1.5128
 2720TIP3    H2 8167   5.962   4.025   0.105  0.1454 -0.1899  0.8079
 2721TIP3   OH2 8168   1.949   0.988   2.752 -0.0926 -0.5988  0.1542
 2721TIP3    H1 8169   1.867   1.021   2.788  0.0133 -0.3937  0.2082
 2721TIP3    H2 8170   1.985   0.933   2.822  1.3974  1.8457  1.4468
 2722TIP3   OH2 8171   2.424   1.558   3.287  0.6612 -0.3684  0.5107
 2722TIP3    H1 8172   2.354   1.563   3.352 -0.4678  0.5377 -0.7365
 2722TIP3    H2 8173   2.381   1.531   3.206  1.7663  0.0400 -0.2372
 2723TIP3   OH2 8174   1.582   4.310   3.484 -0.1637 -0.4495  0.0312
 2723TIP3    H1 8175   1.571   4.255   3.561 -2.5637 -0.0020  0.1034
 2723TIP3    H2 8176   1.521   4.273   3.420 -0.1514  0.7627 -0.7110
 2724TIP3   OH2 8177   0.490   5.462   2.523 -0.1973  0.5337 -0.2123
 2724TIP3    H1 8178   0.420   5.423   2.471  1.3514 -1.8997 -0.6737
 2724TIP3    H2 8179   0.541   5.513   2.460 -0.7726  1.1900 -0.1534
 2725TIP3   OH2 8180   2.584   3.115   1.155 -0.5676  0.4411 -0.2834
 2725TIP3    H1 8181   2.639   3.130   1.078  0.3716 -0.1075  0.2721
 2725TIP3    H2 8182   2.631   3.155   1.228 -1.3562  0.7824  0.0597
 2726TIP3   OH2 8183   2.599   3.800   1.559  0.5420 -0.3039 -0.9146
 2726TIP3    H1 8184   2.610   3.709   1.586  1.6446  0.3858  1.1846
 2726TIP3    H2 8185   2.675   3.818   1.504  0.4330 -0.5965 -1.1605
 2727TIP3   OH2 8186   1.884   0.705   1.880  0.5449  0.2776  0.4357
 2727TIP3    H1 8187   1.951   0.759   1.838 -0.4087  0.8820 -0.3335
 2727TIP3    H2 8188   1.908   0.706   1.973  1.3770  0.8072  0.2260
 2728TIP3   OH2 8189   0.591   2.449   2.860 -0.0196 -0.0632 -0.1282
 2728TIP3    H1 8190   0.607   2.357   2.882 -0.2565  0.4523  2.6379
 2728TIP3    H2 8191   0.658   2.497   2.909 -1.2092  1.3227  0.2225
 2729TIP3   OH2 8192   1.485   2.507   1.341  0.3975 -0.4811 -0.1734
 2729TIP3    H1 8193   1.393   2.499   1.368 -0.8153  1.1808 -3.3075
 2729TIP3    H2 8194   1.503   2.425   1.295 -0.4200  0.1758 -1.7412
 2730TIP3   OH2 8195   0.876   0.669   1.177  0.5999  0.2822  0.4797
 2730TIP3    H1 8196   0.799   0.635   1.223  0.2297  1.8920  1.1297
 2730TIP3    H2 8197   0.898   0.601   1.114 -2.2496  0.3662 -0.7833
 2731TIP3   OH2 8198   0.797   2.552   2.998  0.5827 -0.5337  0.5508
 2731TIP3    H1 8199   0.764   2.563   3.087 -0.6522  0.8217 -0.0188
 2731TIP3    H2 8200   0.853   2.475   3.002 -1.4714 -2.0721  1.9499
 2732TIP3   OH2 8201   4.399   3.553   2.875 -0.0404  0.1167 -0.2312
 2732TIP3    H1 8202   4.391   3.464   2.841 -0.0182 -0.0429  0.1843
 2732TIP3    H2 8203   4.412   3.607   2.797 -1.8271 -0.0157 -0.6651
 2733TIP3   OH2 8204   1.989   1.780   1.685 -0.7731  0.2883 -0.1368
 2733TIP3    H1 8205   2.027   1.751   1.768  0.0484  0.7298 -0.3484
 2733TIP3    H2 8206   2.024   1.869   1.672 -2.0359  0.7902 -0.2457
 2734TIP3   OH2 8207   3.301   4.445   2.769 -0.3766  0.4741 -0.2243
 2734TIP3    H1 8208   3.215   4.440   2.809 -0.4437  0.5631 -0.3584
 2734TIP3    H2 8209   3.318   4.538   2.760  0.2844  0.4974  0.9969
 2735TIP3   OH2 8210   4.768   4.482   0.945 -0.4086  0.6252 -0.5017
 2735TIP3    H1 8211   4.798   4.486   1.036 -0.1034  1.9185 -0.6418
 2735TIP3    H2 8212   4.719   4.563   0.932 -0.4044  0.4812 -1.5033
 2736TIP3   OH2 8213   2.564   2.427   3.068  0.4553 -1.3752  0.1288
 2736TIP3    H1 8214   2.654   2.443   3.039  0.6909 -1.8444  0.6040
 2736TIP3    H2 8215   2.553   2.332   3.059 -0.3578 -1.1970 -0.9765
 2737TIP3   OH2 8216   3.082   2.105   1.146 -0.2187 -0.4807  1.0110
 2737TIP3    H1 8217   3.092   2.189   1.191 -2.4389 -0.3196  1.3441
 2737TIP3    H2 8218   3.000   2.115   1.097  1.5444 -0.9988 -2.3579
 2738TIP3   OH2 8219   3.888   4.037   5.048  0.3782 -0.3826 -0.1696
 2738TIP3    H1 8220   3.917   3.948   5.069  1.9252  0.5759  2.2680
 2738TIP3    H2 8221   3.801   4.043   5.088  1.1734 -0.1927  1.6472
 2739TIP3   OH2 8222   0.151   1.579   5.084 -0.0986 -0.2610  0.2133
 2739TIP3    H1 8223   0.224   1.545   5.033  1.2049  1.3961  0.8856
 2739TIP3    H2 8224   0.102   1.502   5.111 -0.0133 -1.2813 -2.2725
 2740TIP3   OH2 8225   4.796   0.790   2.536  0.0905 -0.1876  0.3642
 2740TIP3    H1 8226   4.715   0.778   2.485  0.6392 -0.5322 -0.4563
 2740TIP3    H2 8227   4.831   0.873   2.504 -0.7932  0.8384  1.9515
 2741TIP3   OH2 8228   5.458   0.664   4.314 -0.2210 -0.2564 -1.2683
 2741TIP3    H1 8229   5.399   0.675   4.239 -2.1009  0.2407  0.2046
 2741TIP3    H2 8230   5.449   0.745   4.363  0.7301 -0.7068 -0.3149
 2742TIP3   OH2 8231   5.676   4.282   1.057 -0.4279 -0.3051  0.1943
 2742TIP3    H1 8232   5.751   4.323   1.014 -0.9208 -0.1427 -0.5197
 2742TIP3    H2 8233   5.709   4.198   1.088  0.0152 -0.2834 -0.2149
 2743TIP3   OH2 8234   5.065   2.893   2.219  0.0862  0.2139  0.0046
 2743TIP3    H1 8235   5.020   2.926   2.141  0.2029 -0.5022 -0.3812
 2743TIP3    H2 8236   5.095   2.971   2.265 -0.3803  0.6617 -0.4343
 2744TIP3   OH2 8237   1.006   0.183   3.457 -0.6038 -0.0999  0.6310
 2744TIP3    H1 8238   1.023   0.190   3.551 -0.3613  2.2730  0.4763
 2744TIP3    H2 8239   0.914   0.159   3.451 -0.4933 -0.7927  1.4650
 2745TIP3   OH2 8240   0.294   5.622   3.501  0.0042  0.3230  0.3125
 2745TIP3    H1 8241   0.361   5.658   3.444  2.1612  0.5637  2.8519
 2745TIP3    H2 8242   0.304   5.527   3.493  1.4420  0.3473  1.4728
 2746TIP3   OH2 8243   1.281   5.886   5.143  0.1619  0.2445  0.7496
 2746TIP3    H1 8244   1.234   5.931   5.212  1.1170  1.1604  0.8397
 2746TIP3    H2 8245   1.232   5.906   5.063  0.0160  0.6234  0.9320
 2747TIP3   OH2 8246   4.970   5.685   0.559 -0.5736  0.1291 -0.0819
 2747TIP3    H1 8247   5.041   5.646   0.610 -1.5682  0.8446  1.9411
 2747TIP3    H2 8248   4.893   5.634   0.582 -1.0064  0.2898 -1.1192
 2748TIP3   OH2 8249   1.150   2.922   0.865 -0.1885 -0.0824 -0.1535
 2748TIP3    H1 8250   1.207   2.862   0.912 -0.9357 -1.4871 -0.9832
 2748TIP3    H2 8251   1.149   3.001   0.920 -2.0417 -2.0475  2.9528
 2749TIP3   OH2 8252   5.962   4.886   2.807 -0.0678  0.4735  0.1670
 2749TIP3    H1 8253   6.021   4.812   2.822  0.5747  0.6126 -1.4322
 2749TIP3    H2 8254   6.019   4.963   2.808 -0.8500  1.0988  2.6777
 2750TIP3   OH2 8255   2.227   0.362   0.028 -0.1070  0.2664  0.2697
 2750TIP3    H1 8256   2.285   0.322  -0.036  0.6078 -0.9992  1.6398
 2750TIP3    H2 8257   2.284   0.388   0.100 -0.8149  2.1500  0.2064
 2751TIP3   OH2 8258   4.177   5.430   3.214  0.1689 -0.0331 -0.4616
 2751TIP3    H1 8259   4.242   5.492   3.182  0.8925  0.0022  0.9811
 2751TIP3    H2 8260   4.175   5.445   3.309 -2.2633  0.2764 -0.4960
 2752TIP3   OH2 8261   3.615   0.813   3.348  0.3068 -0.1011 -0.4953
 2752TIP3    H1 8262   3.590   0.760   3.272  0.7622 -0.7561 -0.2003
 2752TIP3    H2 8263   3.544   0.801   3.410  0.5455 -0.6123 -0.3142
 2753TIP3   OH2 8264   0.709   1.484   0.593  0.1226  0.1168 -0.1070
 2753TIP3    H1 8265   0.676   1.560   0.641 -0.8282 -0.3737  0.0351
 2753TIP3    H2 8266   0.712   1.512   0.502 -1.6290 -0.1093 -0.2707
 2754TIP3   OH2 8267   0.118   3.536   1.044 -0.1615 -0.4366 -0.1642
 2754TIP3    H1 8268   0.161   3.464   0.998  1.0855  0.0026  0.2823
 2754TIP3    H2 8269   0.152   3.532   1.133 -1.0004 -0.0197  0.1892
 2755TIP3   OH2 8270   4.845   4.749   4.435  0.4440  0.4707 -0.5520
 2755TIP3    H1 8271   4.892   4.674   4.470 -0.0464 -0.1479 -1.2094
 2755TIP3    H2 8272   4.811   4.720   4.351 -0.1106  1.2960 -0.6302
 2756TIP3   OH2 8273   1.461   5.196   2.677 -0.6161 -0.2723  0.1435
 2756TIP3    H1 8274   1.489   5.225   2.764 -1.5352  1.4622 -0.0979
 2756TIP3    H2 8275   1.369   5.222   2.672 -1.4306 -2.9890 -0.2687
 2757TIP3   OH2 8276   2.112   1.269   0.549 -0.0019  0.3285  0.0088
 2757TIP3    H1 8277   2.066   1.305   0.625  1.1231  0.6230  0.5704
 2757TIP3    H2 8278   2.043   1.227   0.497 -0.5574 -1.9652  2.3482
 2758TIP3   OH2 8279   6.148   1.193   1.667  0.2593 -0.0690  0.1419
 2758TIP3    H1 8280   6.156   1.285   1.694  2.1537  0.3946 -1.7227
 2758TIP3    H2 8281   6.227   1.151   1.701 -0.4506 -0.9728  0.7246
 2759TIP3   OH2 8282   1.851   2.901   3.753 -0.1328 -0.1116 -0.1994
 2759TIP3    H1 8283   1.903   2.955   3.693  0.3186 -0.1686  0.1328
 2759TIP3    H2 8284   1.825   2.961   3.822 -1.1085  0.0783 -0.7229
 2760TIP3   OH2 8285   0.564   2.589   2.047  0.0645  0.5768 -0.4337
 2760TIP3    H1 8286   0.519   2.545   1.975  0.9125  1.4328 -1.5138
 2760TIP3    H2 8287   0.590   2.518   2.106  0.0624 -0.2187 -1.3677
 2761TIP3   OH2 8288   5.990   4.157   3.497  0.8879  0.4298  0.7853
 2761TIP3    H1 8289   5.991   4.070   3.537 -1.9864 -0.9896 -1.8451
 2761TIP3    H2 8290   6.017   4.143   3.407 -1.5494  1.8180 -0.2584
 2762TIP3   OH2 8291   3.457   0.897   3.101 -0.1427  0.3573 -0.1714
 2762TIP3    H1 8292   3.464   0.969   3.163 -2.2872  1.7898 -1.4240
 2762TIP3    H2 8293   3.363   0.876   3.100  0.2131 -1.3150 -1.0732
 2763TIP3   OH2 8294   4.988   2.392   5.011  1.4682  0.6394  0.1225
 2763TIP3    H1 8295   4.906   2.395   4.962  1.2814 -0.8753  0.2948
 2763TIP3    H2 8296   5.039   2.324   4.968  2.0835  0.6272  0.8499
 2764TIP3   OH2 8297   1.445   1.640   4.632 -0.1317  0.0006  0.6307
 2764TIP3    H1 8298   1.426   1.676   4.719 -0.9168  0.7419  0.1752
 2764TIP3    H2 8299   1.403   1.554   4.632 -1.6124  0.6864  0.4336
 2765TIP3   OH2 8300   0.287   4.386   2.053 -0.4873 -0.0988 -0.0489
 2765TIP3    H1 8301   0.299   4.382   2.148  1.3901 -0.2647 -0.2380
 2765TIP3    H2 8302   0.275   4.480   2.034 -0.3895 -0.0143  0.3092
 2766TIP3   OH2 8303   0.023   4.213   3.838  0.3188  0.3710 -0.6504
 2766TIP3    H1 8304  -0.007   4.243   3.753 -0.3740 -1.0096 -0.9304
 2766TIP3    H2 8305  -0.005   4.121   3.842  0.3710  0.3980  1.0428
 2767TIP3   OH2 8306   1.791   0.021   0.562  0.0010 -0.2636 -0.2043
 2767TIP3    H1 8307   1.749   0.001   0.645 -0.5906 -1.5617 -0.7931
 2767TIP3    H2 8308   1.836   0.105   0.577  0.7942 -0.9816  1.7348
 2768TIP3   OH2 8309   1.584   3.217   3.041  0.5339 -0.1324  0.2412
 2768TIP3    H1 8310   1.619   3.175   3.119 -0.2546  0.9364  1.2125
 2768TIP3    H2 8311   1.529   3.150   3.000  1.5379 -0.9393  0.1679
 2769TIP3   OH2 8312   3.809   0.736   0.218  0.5797  0.3306  0.0807
 2769TIP3    H1 8313   3.886   0.755   0.164 -0.3040  1.3153 -0.8791
 2769TIP3    H2 8314   3.786   0.646   0.195  0.8929  0.3489 -0.3217
 2770TIP3   OH2 8315   6.009   0.037   1.536 -0.2369 -0.0754  0.0310
 2770TIP3    H1 8316   5.943  -0.030   1.518 -0.9213  0.4845  0.4417
 2770TIP3    H2 8317   6.044   0.013   1.622  1.8118 -1.7454 -1.1579
 2771TIP3   OH2 8318   3.614   5.607   4.740 -0.5339  0.0098  0.6781
 2771TIP3    H1 8319   3.578   5.519   4.753  0.0733 -0.3165  0.2414
 2771TIP3    H2 8320   3.560   5.645   4.671 -1.4490  0.3741  1.5769
 2772TIP3   OH2 8321   4.481   2.302   3.263  0.0727  0.4174 -0.7730
 2772TIP3    H1 8322   4.480   2.266   3.174 -0.5113 -1.1173 -0.1748
 2772TIP3    H2 8323   4.463   2.227   3.320 -1.9653  1.7642  0.5064
 2773TIP3   OH2 8324   3.291   0.338   4.985  0.2429  0.1819  0.3153
 2773TIP3    H1 8325   3.255   0.411   5.036 -0.5357 -0.2976  0.4718
 2773TIP3    H2 8326   3.225   0.320   4.919  1.3400  0.9259 -1.0317
 2774TIP3   OH2 8327   2.011   3.447   3.289  0.4229 -0.2252 -0.2233
 2774TIP3    H1 8328   2.020   3.468   3.382 -0.3608  1.2735 -0.4526
 2774TIP3    H2 8329   1.953   3.371   3.288 -0.1978  0.2176  0.5052
 2775TIP3   OH2 8330   5.542   5.785   1.769 -0.5424 -0.5068 -0.0420
 2775TIP3    H1 8331   5.502   5.761   1.852  0.7561  0.8478  1.0196
 2775TIP3    H2 8332   5.623   5.733   1.765  0.2539  0.6403  0.3886
 2776TIP3   OH2 8333   4.142   5.083   2.358 -0.3926  0.5299 -0.0986
 2776TIP3    H1 8334   4.164   4.993   2.381 -2.8639  0.2508  1.6662
 2776TIP3    H2 8335   4.060   5.076   2.309 -0.7639  1.8038  0.2887
 2777TIP3   OH2 8336   3.443   1.564   1.019 -0.6825  0.4010 -0.5702
 2777TIP3    H1 8337   3.431   1.594   1.109  1.0289 -1.3897  0.3060
 2777TIP3    H2 8338   3.414   1.473   1.019 -0.4835  0.3142 -1.8096
 2778TIP3   OH2 8339   3.588   1.713   2.544 -0.1484  0.3013  0.3112
 2778TIP3    H1 8340   3.493   1.725   2.544 -0.2654 -0.5635  1.0032
 2778TIP3    H2 8341   3.607   1.677   2.457 -0.5590 -0.2918  0.4605
 2779TIP3   OH2 8342   4.332   3.840   4.755  0.2060 -0.3025  0.2586
 2779TIP3    H1 8343   4.270   3.911   4.741 -0.3017 -0.7752  0.0634
 2779TIP3    H2 8344   4.406   3.861   4.698 -0.0962 -0.1098 -0.0712
 2780TIP3   OH2 8345   6.286   4.043   3.184  0.2101 -0.1194  0.0286
 2780TIP3    H1 8346   6.378   4.048   3.211  1.3031 -1.0274 -3.0611
 2780TIP3    H2 8347   6.274   4.117   3.125 -0.9237 -0.2607  0.0524
 2781TIP3   OH2 8348   5.547   3.410   3.294  0.2342 -0.4481  0.2822
 2781TIP3    H1 8349   5.619   3.379   3.238 -0.1624 -1.8675  0.5108
 2781TIP3    H2 8350   5.581   3.398   3.383  0.1541  0.0088  0.3742
 2782TIP3   OH2 8351   5.265   0.924   3.527  0.8884 -0.0304 -0.6000
 2782TIP3    H1 8352   5.175   0.906   3.501  0.7665  1.6916 -1.5115
 2782TIP3    H2 8353   5.298   0.840   3.560 -1.2038 -0.5682  0.2942
 2783TIP3   OH2 8354   4.264   4.232   1.506  0.1042 -0.0694 -0.3796
 2783TIP3    H1 8355   4.261   4.176   1.584  0.1799  0.2306 -0.1596
 2783TIP3    H2 8356   4.340   4.200   1.457 -0.6194 -1.0264 -0.9227
 2784TIP3   OH2 8357   0.179   2.427   0.096 -0.3922 -0.1406 -0.2910
 2784TIP3    H1 8358   0.203   2.492   0.161  0.3151 -2.0604  1.5009
 2784TIP3    H2 8359   0.093   2.453   0.065 -0.5717  1.0640  1.1346
 2785TIP3   OH2 8360   6.019   0.629   1.443 -0.3525  0.7352 -0.0747
 2785TIP3    H1 8361   5.961   0.555   1.424 -0.7836  0.7765  1.0292
 2785TIP3    H2 8362   6.104   0.603   1.409 -0.3294 -0.5725  0.9513
 2786TIP3   OH2 8363   2.240   2.181   4.928 -0.1698 -0.8065 -0.2939
 2786TIP3    H1 8364   2.238   2.275   4.946 -0.6818 -0.8064 -0.3222
 2786TIP3    H2 8365   2.273   2.142   5.009  0.8961 -0.5398 -0.5882
 2787TIP3   OH2 8366   0.819   3.205   3.859 -0.1173  0.3208 -0.4086
 2787TIP3    H1 8367   0.840   3.298   3.850  0.4107  0.3592  0.9332
 2787TIP3    H2 8368   0.723   3.201   3.860 -0.1572  1.0439  1.0336
 2788TIP3   OH2 8369   5.296   3.133   3.724  0.6141  0.1515 -0.2573
 2788TIP3    H1 8370   5.296   3.227   3.704 -2.1701  0.0696 -0.9497
 2788TIP3    H2 8371   5.281   3.091   3.639 -1.8040 -0.7002  0.5311
 2789TIP3   OH2 8372   6.073   5.017   5.176  0.1041 -0.1889 -0.3366
 2789TIP3    H1 8373   6.101   4.926   5.170 -0.0600 -0.1726 -1.5200
 2789TIP3    H2 8374   5.989   5.020   5.130 -0.2444  0.4259  0.3090
 2790TIP3   OH2 8375   0.664   4.879   3.151 -0.0769 -0.6230 -0.0427
 2790TIP3    H1 8376   0.589   4.927   3.115 -1.2158 -1.1621  1.5007
 2790TIP3    H2 8377   0.718   4.946   3.194  0.2351 -0.2603 -0.9867
 2791TIP3   OH2 8378   0.226   3.746   4.004 -0.1897 -0.7449  0.3751
 2791TIP3    H1 8379   0.255   3.832   4.036  0.2141 -0.4668 -0.7120
 2791TIP3    H2 8380   0.303   3.691   4.014 -0.1362 -0.7182  0.1002
 2792TIP3   OH2 8381   4.994   1.790   2.218  0.1857 -0.4536 -0.2195
 2792TIP3    H1 8382   5.060   1.738   2.264  0.1241 -0.9855 -0.7330
 2792TIP3    H2 8383   5.032   1.878   2.215  2.1388 -1.2680 -2.8537
 2793TIP3   OH2 8384   3.058   0.221   1.838  0.2061 -0.3073 -0.0410
 2793TIP3    H1 8385   2.995   0.278   1.882  0.1981 -0.0118 -0.4310
 2793TIP3    H2 8386   3.116   0.192   1.908  0.0656 -0.0086  0.2028
 2794TIP3   OH2 8387   2.029   2.989   2.531  0.0482 -0.1728  0.5893
 2794TIP3    H1 8388   1.934   2.976   2.524  0.1086 -1.4684  1.6819
 2794TIP3    H2 8389   2.039   3.068   2.585 -0.3931  0.4010 -0.1540
 2795TIP3   OH2 8390   3.746   2.020   3.797 -0.1880  0.6621 -0.6181
 2795TIP3    H1 8391   3.792   2.082   3.741 -0.0150  0.0928 -1.1186
 2795TIP3    H2 8392   3.694   1.966   3.737  0.5425 -0.4147 -0.3125
 2796TIP3   OH2 8393   4.459   3.205   1.087 -0.4019 -0.0880 -0.4976
 2796TIP3    H1 8394   4.522   3.133   1.081 -1.4071 -1.0261 -0.0979
 2796TIP3    H2 8395   4.496   3.264   1.154 -0.3532 -1.0540  0.3522
 2797TIP3   OH2 8396   2.061   1.785   4.748 -0.2569 -0.0458  0.3152
 2797TIP3    H1 8397   2.143   1.832   4.735  0.1762 -0.4834  1.2911
 2797TIP3    H2 8398   1.997   1.832   4.695  0.5405  0.5383 -0.1528
 2798TIP3   OH2 8399   5.081   1.493   4.914  0.1437 -0.0975 -0.4781
 2798TIP3    H1 8400   5.001   1.540   4.939  1.6155  1.2591  2.0734
 2798TIP3    H2 8401   5.051   1.429   4.849 -2.8115  1.0474 -0.4300
 2799TIP3   OH2 8402   6.142   2.013   2.660 -0.0058 -0.0710 -0.0952
 2799TIP3    H1 8403   6.079   2.040   2.593  0.1229  0.8887  0.1634
 2799TIP3    H2 8404   6.090   1.995   2.737  0.1010  1.8231  0.4664
 2800TIP3   OH2 8405   0.399   3.344   0.262  0.0926  0.2392  0.5196
 2800TIP3    H1 8406   0.491   3.319   0.267 -0.1719 -1.1510 -0.8473
 2800TIP3    H2 8407   0.398   3.420   0.203  0.3127 -0.1290  0.0340
 2801TIP3   OH2 8408   5.350   3.182   4.482  0.1775  0.3231  0.6776
 2801TIP3    H1 8409   5.421   3.139   4.435  0.8029  0.7047  1.2371
 2801TIP3    H2 8410   5.335   3.263   4.433 -1.0172 -0.5003 -0.3888
 2802TIP3   OH2 8411   3.965   0.086   3.550  0.0734  0.0395 -0.2323
 2802TIP3    H1 8412   3.879   0.110   3.583 -0.2843 -0.1760 -0.9892
 2802TIP3    H2 8413   4.017   0.166   3.559 -0.3343  0.3015 -0.1909
 2803TIP3   OH2 8414   1.880   1.931   4.599 -0.5716  0.3773  0.2711
 2803TIP3    H1 8415   1.815   1.984   4.645 -0.6072  0.9268 -0.3820
 2803TIP3    H2 8416   1.841   1.916   4.512  0.6539  1.7360 -0.5647
 2804TIP3   OH2 8417   4.354   2.807   4.656 -0.3019 -0.2678  0.1850
 2804TIP3    H1 8418   4.268   2.771   4.679  0.0281 -0.4708  1.1701
 2804TIP3    H2 8419   4.343   2.841   4.568 -2.2265  2.2780  1.2570
 2805TIP3   OH2 8420   4.410   3.988   2.684  0.2692  0.2455  0.3273
 2805TIP3    H1 8421   4.345   3.919   2.673  0.3226  0.4060 -1.2169
 2805TIP3    H2 8422   4.492   3.942   2.698  0.2046  0.0093 -0.0721
 2806TIP3   OH2 8423   4.792   3.613   0.656 -0.0712  0.7086 -0.0283
 2806TIP3    H1 8424   4.742   3.617   0.574  1.0583  0.3861 -0.7566
 2806TIP3    H2 8425   4.883   3.625   0.629  0.6685 -2.2323  0.7909
 2807TIP3   OH2 8426   2.125   5.535   4.831  0.3759  0.1843 -0.5060
 2807TIP3    H1 8427   2.110   5.568   4.742 -1.6789  2.1224  0.4564
 2807TIP3    H2 8428   2.163   5.610   4.877 -0.1846 -0.2385  0.6630
 2808TIP3   OH2 8429   2.680   5.364   4.498 -0.9314  0.2142 -0.3564
 2808TIP3    H1 8430   2.752   5.407   4.544  1.2274 -0.6662 -2.6758
 2808TIP3    H2 8431   2.633   5.316   4.566  2.0848 -1.0581  1.0151
 2809TIP3   OH2 8432   4.878   3.414   3.776  0.0848 -0.3729 -0.4440
 2809TIP3    H1 8433   4.855   3.329   3.738 -0.9283  0.6232 -2.2294
 2809TIP3    H2 8434   4.973   3.418   3.773  0.1739 -1.6939  0.2807
 2810TIP3   OH2 8435   0.561   3.502   4.467  0.0176  0.1728  0.0955
 2810TIP3    H1 8436   0.537   3.498   4.374 -0.4586 -0.6073  0.2404
 2810TIP3    H2 8437   0.624   3.430   4.478  0.1389  0.3193  0.3624
 2811TIP3   OH2 8438   1.209   3.518   3.401  0.2351 -0.6419  0.2108
 2811TIP3    H1 8439   1.201   3.555   3.489  1.4051 -1.2449  0.5967
 2811TIP3    H2 8440   1.245   3.590   3.349 -3.2701  0.7467 -0.5845
 2812TIP3   OH2 8441   5.249   0.356   3.282  0.0236  0.1145 -0.0305
 2812TIP3    H1 8442   5.255   0.408   3.201  0.4541  0.8163  0.4431
 2812TIP3    H2 8443   5.161   0.375   3.315 -0.9962 -1.8429 -1.4191
 2813TIP3   OH2 8444   1.512   2.236   3.640  0.0453 -0.9367 -0.1497
 2813TIP3    H1 8445   1.498   2.328   3.619  0.8261 -1.1958 -1.9923
 2813TIP3    H2 8446   1.427   2.195   3.623  0.1912 -0.8413 -1.1956
 2814TIP3   OH2 8447   1.935   0.700   4.127  0.2923 -0.4757 -0.3978
 2814TIP3    H1 8448   1.884   0.623   4.152  2.0220 -1.8791 -1.0162
 2814TIP3    H2 8449   1.879   0.746   4.064 -0.5299 -1.5226 -0.4609
 2815TIP3   OH2 8450   3.130   4.792   3.437  0.2303  0.1120  0.2596
 2815TIP3    H1 8451   3.038   4.775   3.417  0.4481  0.6259 -1.3075
 2815TIP3    H2 8452   3.170   4.706   3.448 -0.1917 -0.1433 -0.2259
 2816TIP3   OH2 8453   6.224   2.321   1.448  0.3745 -0.8227 -0.4307
 2816TIP3    H1 8454   6.217   2.249   1.385  0.6416 -1.4968  0.2923
 2816TIP3    H2 8455   6.299   2.298   1.502  2.1030  1.3005 -1.7992
 2817TIP3   OH2 8456   1.696   4.183   2.433  0.8723  0.2594  0.1364
 2817TIP3    H1 8457   1.766   4.229   2.480  1.9559 -1.2029  0.0419
 2817TIP3    H2 8458   1.704   4.092   2.463  0.4551 -0.3698 -1.5726
 2818TIP3   OH2 8459   5.527   1.074   1.306  0.1032 -0.8508  0.3078
 2818TIP3    H1 8460   5.530   1.022   1.386 -1.8807 -0.7738  0.4860
 2818TIP3    H2 8461   5.487   1.157   1.333  0.6157 -0.3128 -0.5240
 2819TIP3   OH2 8462   2.672   5.499   3.365 -0.4267  0.1113 -0.2885
 2819TIP3    H1 8463   2.672   5.438   3.291  0.0950 -0.7865  0.4252
 2819TIP3    H2 8464   2.736   5.462   3.426  0.8726  2.0651 -0.3732
 2820TIP3   OH2 8465   4.981   3.192   3.613  0.6946 -0.1781  0.2948
 2820TIP3    H1 8466   4.947   3.160   3.530  1.9706  1.0725 -0.7631
 2820TIP3    H2 8467   5.021   3.115   3.655 -1.6163 -1.2383  0.6836
 2821TIP3   OH2 8468   2.843   5.321   0.876 -0.6495  0.3889  0.4982
 2821TIP3    H1 8469   2.791   5.241   0.864  0.0116  0.2068 -1.4083
 2821TIP3    H2 8470   2.934   5.292   0.867 -0.4469  1.6596 -2.5940
 2822TIP3   OH2 8471   5.459   2.808   4.308 -0.3683  0.1029 -0.4058
 2822TIP3    H1 8472   5.479   2.862   4.384  0.2363 -1.6930  0.7749
 2822TIP3    H2 8473   5.479   2.863   4.232 -0.7680  1.8439  0.7203
 2823TIP3   OH2 8474   0.551   4.292   5.125  0.1161  0.5907 -0.1026
 2823TIP3    H1 8475   0.637   4.283   5.085 -0.1865  0.2386 -0.6819
 2823TIP3    H2 8476   0.489   4.271   5.055 -0.4234  0.2680  0.4611
 2824TIP3   OH2 8477   1.289   4.026   1.924 -0.1907  0.5554  0.4069
 2824TIP3    H1 8478   1.353   3.954   1.924 -0.8815 -0.0801  0.9511
 2824TIP3    H2 8479   1.213   3.990   1.876 -0.2317  1.2182 -0.0377
 2825TIP3   OH2 8480   4.117   2.449   3.893  0.9181 -0.3523 -0.1116
 2825TIP3    H1 8481   4.153   2.475   3.978  1.7347  0.9405 -0.8033
 2825TIP3    H2 8482   4.195   2.428   3.840  0.3744 -2.1180 -0.2696
 2826TIP3   OH2 8483   5.894   4.379   0.920  0.1879 -0.4146  0.1867
 2826TIP3    H1 8484   5.946   4.298   0.912  0.0616 -0.4301 -0.6250
 2826TIP3    H2 8485   5.959   4.449   0.913  0.0342 -0.4159 -1.8288
 2827TIP3   OH2 8486   4.896   2.405   4.259 -0.0136 -0.0065 -0.0488
 2827TIP3    H1 8487   4.879   2.348   4.183  1.4585  0.1023 -0.5003
 2827TIP3    H2 8488   4.972   2.365   4.302 -0.0861  0.6171  0.6743
 2828TIP3   OH2 8489   6.210   5.542   1.028 -0.2676  0.2550 -0.0915
 2828TIP3    H1 8490   6.151   5.512   1.097  0.3802 -1.2352 -0.1649
 2828TIP3    H2 8491   6.266   5.607   1.072 -1.4072  1.1049  0.1653
 2829TIP3   OH2 8492   1.558   5.842   3.004  0.1904  0.1255  0.3011
 2829TIP3    H1 8493   1.599   5.758   3.024 -0.2654 -0.2886 -0.4474
 2829TIP3    H2 8494   1.629   5.896   2.968  0.3233 -0.2036  0.0625
 2830TIP3   OH2 8495   3.439   1.425   4.719 -0.0743  0.0174  0.8055
 2830TIP3    H1 8496   3.373   1.432   4.788 -0.3520  2.3616  0.3665
 2830TIP3    H2 8497   3.389   1.415   4.639  0.1875 -0.3850  0.6867
 2831TIP3   OH2 8498   3.172   1.196   2.641 -0.0113  0.1831  0.0462
 2831TIP3    H1 8499   3.213   1.267   2.592 -1.8514  0.1173 -1.7093
 2831TIP3    H2 8500   3.197   1.116   2.595 -1.8318  0.1307 -0.9667
 2832TIP3   OH2 8501   4.597   3.535   1.498  0.1088  0.4312 -0.7403
 2832TIP3    H1 8502   4.693   3.542   1.502  0.2881 -1.1304 -1.6824
 2832TIP3    H2 8503   4.570   3.531   1.590  0.9823  0.3957 -0.4731
 2833TIP3   OH2 8504   5.786   2.502   0.036  0.0341 -0.1479  0.2809
 2833TIP3    H1 8505   5.833   2.540   0.110  0.6823 -1.1408  0.3968
 2833TIP3    H2 8506   5.722   2.569   0.011 -0.3151  0.1304  1.8349
 2834TIP3   OH2 8507   1.428   4.670   2.854 -0.2368  0.0463  0.0496
 2834TIP3    H1 8508   1.348   4.723   2.857  0.1871  0.7289 -0.4804
 2834TIP3    H2 8509   1.485   4.715   2.792  0.7073 -0.2307  0.6887
 2835TIP3   OH2 8510   1.572   0.004   5.045  0.0460 -0.1457  0.0810
 2835TIP3    H1 8511   1.618   0.007   4.961 -1.0454  1.0941 -0.5182
 2835TIP3    H2 8512   1.593   0.088   5.086  0.5284 -0.7222  1.0454
 2836TIP3   OH2 8513   1.908   2.232   5.083  0.0468  0.8993  0.1849
 2836TIP3    H1 8514   1.946   2.189   5.006 -0.3171  2.3534 -0.8516
 2836TIP3    H2 8515   1.839   2.173   5.112  0.3827  0.1847 -0.4440
 2837TIP3   OH2 8516   3.600   5.200   3.623 -0.4676  0.0113 -0.6148
 2837TIP3    H1 8517   3.656   5.262   3.578 -1.1626 -0.7032 -2.5820
 2837TIP3    H2 8518   3.639   5.191   3.710  1.1084  1.2458 -1.1441
 2838TIP3   OH2 8519   1.300   3.950   1.334 -0.3737  1.1821  0.1066
 2838TIP3    H1 8520   1.268   3.927   1.421  1.6361 -0.1314  0.5886
 2838TIP3    H2 8521   1.231   3.920   1.274 -0.1056 -1.6903  1.0566
 2839TIP3   OH2 8522   6.093   1.309   4.100  0.8153 -0.3661  0.7143
 2839TIP3    H1 8523   6.180   1.328   4.136  0.7212 -0.0200  0.7633
 2839TIP3    H2 8524   6.107   1.237   4.039  1.5217  1.0855 -0.9258
 2840TIP3   OH2 8525   0.005   0.197   2.727  0.3060  0.3700 -0.1571
 2840TIP3    H1 8526  -0.007   0.118   2.676  1.9786 -1.1781  1.6702
 2840TIP3    H2 8527   0.088   0.234   2.695  1.2162 -0.4560  1.1567
 2841TIP3   OH2 8528   4.239   0.937   2.704  0.0052  0.9687 -0.2850
 2841TIP3    H1 8529   4.200   1.025   2.700 -1.8569  0.1804 -0.2315
 2841TIP3    H2 8530   4.166   0.879   2.725  0.6822 -0.9456 -2.7891
 2842TIP3   OH2 8531   5.732   2.320   1.294 -0.2603 -0.4287  0.4294
 2842TIP3    H1 8532   5.675   2.396   1.298 -0.3410 -0.3318 -1.5266
 2842TIP3    H2 8533   5.672   2.245   1.295 -0.4287 -0.3419 -1.0534
 2843TIP3   OH2 8534   1.300   4.757   2.277 -0.0535 -0.2797 -0.1213
 2843TIP3    H1 8535   1.391   4.742   2.254  0.0936  0.6935 -0.2141
 2843TIP3    H2 8536   1.267   4.671   2.301  0.6896 -0.7666 -0.7844
 2844TIP3   OH2 8537   5.130   1.495   1.968  0.4409  0.0046 -0.3028
 2844TIP3    H1 8538   5.039   1.500   1.999  0.5668  0.4461  0.0054
 2844TIP3    H2 8539   5.123   1.513   1.874 -0.0094 -1.9331 -0.6896
 2845TIP3   OH2 8540   0.844   5.800   0.718  0.1149 -0.2037  0.4307
 2845TIP3    H1 8541   0.925   5.749   0.709 -0.9501 -2.1819  1.3048
 2845TIP3    H2 8542   0.799   5.786   0.635  1.0191  1.6287 -0.4059
 2846TIP3   OH2 8543   2.397   5.290   3.018  0.0741  0.1237 -0.5131
 2846TIP3    H1 8544   2.408   5.330   3.104  0.5920 -0.6997 -0.1802
 2846TIP3    H2 8545   2.469   5.325   2.965  2.2286 -2.3273  0.5543
 2847TIP3   OH2 8546   5.589   5.021   1.614  0.2453 -0.0212  0.1306
 2847TIP3    H1 8547   5.519   4.975   1.661 -0.7748  0.9718 -0.3708
 2847TIP3    H2 8548   5.666   4.965   1.626 -0.4899 -0.8634  1.1639
 2848TIP3   OH2 8549   2.771   4.794   4.652 -0.8650 -0.4676 -0.1725
 2848TIP3    H1 8550   2.685   4.836   4.659 -0.6822 -0.2730  1.0933
 2848TIP3    H2 8551   2.774   4.734   4.726  1.0540  1.2916  1.2538
 2849TIP3   OH2 8552   5.125   4.073   3.827  0.4245  0.2696  0.4229
 2849TIP3    H1 8553   5.097   4.007   3.765 -2.9890 -0.2220  2.2578
 2849TIP3    H2 8554   5.173   4.137   3.774  0.6277 -1.7659 -2.0370
 2850TIP3   OH2 8555   3.328   5.644   0.394  0.3186 -0.2823 -0.1352
 2850TIP3    H1 8556   3.418   5.645   0.362 -0.1931  0.7560 -1.6459
 2850TIP3    H2 8557   3.304   5.736   0.402 -1.1344 -0.5169 -1.3668
 2851TIP3   OH2 8558   3.232   0.024   4.917  0.1165  0.5702  0.0591
 2851TIP3    H1 8559   3.293   0.095   4.937 -0.7999  1.0103  1.4443
 2851TIP3    H2 8560   3.146   0.063   4.924 -0.3766 -0.3020 -0.8139
 2852TIP3   OH2 8561   4.846   1.757   3.150 -0.2803  0.4213 -0.3834
 2852TIP3    H1 8562   4.860   1.667   3.123 -1.4716  0.3896 -0.9546
 2852TIP3    H2 8563   4.815   1.751   3.241  1.3969  0.3857  0.2171
 2853TIP3   OH2 8564   5.016   3.036   3.363  0.6113  0.0482 -0.7406
 2853TIP3    H1 8565   4.937   2.982   3.363  0.3451  0.3366  1.2892
 2853TIP3    H2 8566   5.080   2.984   3.412 -0.0452  1.9455  2.4295
 2854TIP3   OH2 8567   6.224   5.141   2.861  0.6052  0.0317 -0.0862
 2854TIP3    H1 8568   6.286   5.210   2.840  1.1830  0.4276  2.5915
 2854TIP3    H2 8569   6.233   5.077   2.790  0.0142  2.6347 -2.6772
 2855TIP3   OH2 8570   2.973   1.606   3.006 -0.0525  0.2326  0.1881
 2855TIP3    H1 8571   3.033   1.566   2.943 -0.2304  0.5106 -0.1563
 2855TIP3    H2 8572   2.917   1.664   2.954  0.1162  0.8358  0.6642
 2856TIP3   OH2 8573   5.300   4.478   3.699 -0.0119 -0.4252 -0.4220
 2856TIP3    H1 8574   5.271   4.477   3.790 -1.9152  1.3490 -0.9122
 2856TIP3    H2 8575   5.282   4.390   3.667 -2.6933 -0.1495  0.0380
 2857TIP3   OH2 8576   4.713   3.942   3.562  0.2629  0.2039 -0.5244
 2857TIP3    H1 8577   4.730   3.999   3.486  0.0438 -1.2592 -1.7202
 2857TIP3    H2 8578   4.715   3.853   3.526  1.1476 -0.6082  1.3784
 2858TIP3   OH2 8579   3.691   4.639   2.745  0.2470 -0.2036 -0.0647
 2858TIP3    H1 8580   3.686   4.562   2.688 -1.3098  0.6347 -1.1256
 2858TIP3    H2 8581   3.615   4.632   2.802  2.2691 -1.5424  2.7455
 2859TIP3   OH2 8582   3.983   5.475   2.792 -0.4452 -0.2817 -0.3189
 2859TIP3    H1 8583   3.943   5.456   2.877 -0.5542  1.3938  0.0508
 2859TIP3    H2 8584   4.063   5.524   2.814 -0.5993  0.3806 -1.1882
 2860TIP3   OH2 8585   2.696   0.171   5.123 -0.0882 -0.0511 -0.0436
 2860TIP3    H1 8586   2.743   0.202   5.200  1.0562  0.4029 -0.9102
 2860TIP3    H2 8587   2.762   0.127   5.070 -0.5563  0.8384 -1.4147
 2861TIP3   OH2 8588   6.165   0.372   2.870  0.4704 -0.0930 -0.6770
 2861TIP3    H1 8589   6.237   0.425   2.904  0.5520 -1.3562  1.2896
 2861TIP3    H2 8590   6.207   0.298   2.827  0.3810 -0.6310  0.1351
 2862TIP3   OH2 8591   0.141   2.046   3.172  0.1591  0.1640 -0.3323
 2862TIP3    H1 8592   0.125   1.952   3.174  0.0975  0.1544 -0.9676
 2862TIP3    H2 8593   0.232   2.054   3.143  0.9328  0.2556  1.8896
 2863TIP3   OH2 8594   1.667   2.600   0.896 -0.1468  0.1286  0.0050
 2863TIP3    H1 8595   1.591   2.568   0.944 -0.6064 -0.8555 -1.3178
 2863TIP3    H2 8596   1.686   2.530   0.833  0.3684  1.4089 -1.3011
 2864TIP3   OH2 8597   1.474   1.102   4.674 -0.0199  0.4097  0.1118
 2864TIP3    H1 8598   1.492   1.066   4.761  0.7414  1.2418  0.3183
 2864TIP3    H2 8599   1.560   1.128   4.641 -0.2955  0.0198 -0.9368
 2865TIP3   OH2 8600   2.242   2.422   0.322  0.0154  0.6396  0.2635
 2865TIP3    H1 8601   2.196   2.383   0.396 -2.0554  0.8853 -0.8410
 2865TIP3    H2 8602   2.208   2.511   0.316  1.4886  1.2168  0.0903
 2866TIP3   OH2 8603   3.095   0.487   3.525 -0.3774  0.2315 -0.6327
 2866TIP3    H1 8604   3.112   0.397   3.496  1.1101  0.2241  0.1686
 2866TIP3    H2 8605   3.178   0.515   3.564 -1.0052  1.7547 -0.3547
 2867TIP3   OH2 8606   5.760   4.607   2.256 -0.1131  0.6325  0.5994
 2867TIP3    H1 8607   5.839   4.643   2.297 -0.5760  0.2151  1.9153
 2867TIP3    H2 8608   5.735   4.672   2.191  2.2748 -0.0234 -1.0989
 2868TIP3   OH2 8609   1.668   0.146   3.468  0.7782  0.0096  0.1530
 2868TIP3    H1 8610   1.745   0.131   3.413  1.8923 -0.7279  1.8423
 2868TIP3    H2 8611   1.680   0.087   3.543  1.6958  4.0677  3.5622
 2869TIP3   OH2 8612   6.077   3.059   1.202  0.2153 -0.1691 -0.9263
 2869TIP3    H1 8613   6.005   3.045   1.140 -1.2575  1.6859  0.2250
 2869TIP3    H2 8614   6.080   3.154   1.213 -0.1628 -0.4216  2.3850
 2870TIP3   OH2 8615   1.220   0.856   3.187  0.3560  0.1557 -0.1090
 2870TIP3    H1 8616   1.168   0.776   3.179 -0.5767  0.9313 -3.6860
 2870TIP3    H2 8617   1.163   0.918   3.233 -0.5819 -0.0713 -0.9222
 2871TIP3   OH2 8618   2.464   3.272   2.698 -0.4465 -0.0173 -0.4319
 2871TIP3    H1 8619   2.371   3.264   2.721 -0.2426 -0.7880  0.1760
 2871TIP3    H2 8620   2.468   3.350   2.642 -0.8405  2.7819  3.0291
 2872TIP3   OH2 8621   4.992   0.380   3.649  0.4793 -0.0295 -0.1714
 2872TIP3    H1 8622   4.931   0.328   3.702  0.5787 -1.4395 -1.3674
 2872TIP3    H2 8623   5.066   0.398   3.707 -0.2812  0.1906  0.7548
 2873TIP3   OH2 8624   3.281   4.306   3.098  0.0823 -0.2420 -0.3114
 2873TIP3    H1 8625   3.265   4.233   3.038  1.7591  1.1283 -2.5985
 2873TIP3    H2 8626   3.373   4.296   3.123 -0.0021  0.4401  0.3095
 2874TIP3   OH2 8627   5.067   5.947   2.173 -0.8100 -0.4022  0.1754
 2874TIP3    H1 8628   5.144   5.890   2.177 -1.1358 -0.9878 -1.2617
 2874TIP3    H2 8629   5.053   5.960   2.080  0.0163  3.1062  0.4087
 2875TIP3   OH2 8630   1.758   4.012   4.837 -0.3946 -0.5629 -0.3324
 2875TIP3    H1 8631   1.749   4.067   4.915  0.1268 -0.8589 -0.0563
 2875TIP3    H2 8632   1.671   4.011   4.797 -0.5333  0.0240 -0.0455
 2876TIP3   OH2 8633   1.165   2.116   0.671  0.3260 -0.0271  0.3590
 2876TIP3    H1 8634   1.138   2.038   0.623 -1.1534  0.1484  0.8394
 2876TIP3    H2 8635   1.092   2.177   0.660  1.2034  1.0664  0.4843
 2877TIP3   OH2 8636   1.508   2.312   2.901 -0.0741  0.6948 -0.3106
 2877TIP3    H1 8637   1.497   2.407   2.896 -0.8780  0.6056 -0.3003
 2877TIP3    H2 8638   1.445   2.277   2.838  0.3469  0.1695 -0.4505
 2878TIP3   OH2 8639   1.903   1.854   4.097 -0.1245  0.2388  0.4881
 2878TIP3    H1 8640   1.966   1.811   4.039 -1.0916 -1.7580  0.8313
 2878TIP3    H2 8641   1.917   1.812   4.182 -0.6969  1.0738  1.0101
 2879TIP3   OH2 8642   2.395   1.340   1.535 -0.4215 -0.5295 -0.1237
 2879TIP3    H1 8643   2.318   1.297   1.499 -0.4554 -0.7304  0.1835
 2879TIP3    H2 8644   2.408   1.417   1.479  0.5069 -1.7090 -1.6166
 2880TIP3   OH2 8645   0.598   1.973   2.217  0.0615 -0.3142  0.9809
 2880TIP3    H1 8646   0.619   2.053   2.265  0.4822 -1.7621  3.3738
 2880TIP3    H2 8647   0.615   1.903   2.280 -1.0002 -2.2491 -0.7927
 2881TIP3   OH2 8648   5.619   5.074   4.345  0.6131  0.1690  0.4946
 2881TIP3    H1 8649   5.578   5.041   4.425 -1.4369  0.3075 -0.4209
 2881TIP3    H2 8650   5.642   4.995   4.296  1.4771  0.0873  1.0259
 2882TIP3   OH2 8651   2.660   4.075   1.671 -0.0867  0.1970  0.0098
 2882TIP3    H1 8652   2.621   3.993   1.638 -2.5993  1.1729  0.3195
 2882TIP3    H2 8653   2.733   4.046   1.727 -0.2369 -1.7699 -0.7302
 2883TIP3   OH2 8654   1.610   1.215   4.273  0.2452  0.3944 -0.5959
 2883TIP3    H1 8655   1.584   1.126   4.296 -0.5403  1.1700  1.6972
 2883TIP3    H2 8656   1.537   1.249   4.221 -0.5572  0.4943  0.5793
 2884TIP3   OH2 8657   3.904   2.431   0.270  0.3149 -0.5035 -0.0540
 2884TIP3    H1 8658   3.836   2.434   0.337 -0.8158  1.5956 -1.2212
 2884TIP3    H2 8659   3.858   2.408   0.189  0.6880  2.1746 -1.1116
 2885TIP3   OH2 8660   0.336   5.762   0.458  0.0871  0.5004 -0.2513
 2885TIP3    H1 8661   0.392   5.839   0.467  2.0686 -0.7619 -1.1279
 2885TIP3    H2 8662   0.251   5.791   0.490  1.3026  2.3998  1.5438
 2886TIP3   OH2 8663   3.417   0.022   0.082 -0.2583  0.3657 -0.1874
 2886TIP3    H1 8664   3.355   0.075   0.031 -1.0660  0.0631  0.4688
 2886TIP3    H2 8665   3.389  -0.068   0.069 -0.8731  0.3193  1.2941
 2887TIP3   OH2 8666   2.540   1.700   2.710  0.3844  0.2727  0.0744
 2887TIP3    H1 8667   2.461   1.690   2.763  1.9073  0.5388  2.5014
 2887TIP3    H2 8668   2.524   1.779   2.659 -0.2094  1.3506  1.8603
 2888TIP3   OH2 8669   2.634   4.819   1.472 -0.1754 -0.3927  0.0414
 2888TIP3    H1 8670   2.683   4.783   1.546 -0.0856 -2.3040 -0.9123
 2888TIP3    H2 8671   2.628   4.748   1.409  2.0606  1.8737 -3.0330
 2889TIP3   OH2 8672   4.279   3.041   0.053 -0.0334 -0.5069  0.7646
 2889TIP3    H1 8673   4.267   3.025   0.147  0.6187 -0.3469  0.8808
 2889TIP3    H2 8674   4.362   3.088   0.047  0.2641 -1.1047  0.0463
 2890TIP3   OH2 8675   0.939   5.546   1.824 -0.1220 -0.2071 -0.1324
 2890TIP3    H1 8676   0.915   5.589   1.743  0.6839  1.2437  0.3681
 2890TIP3    H2 8677   0.961   5.617   1.884 -0.7013 -1.2428  1.3653
 2891TIP3   OH2 8678   5.231   5.686   3.323  0.2395 -0.5102 -0.0412
 2891TIP3    H1 8679   5.306   5.675   3.263  0.0893 -0.6765 -0.1998
 2891TIP3    H2 8680   5.178   5.607   3.309 -1.2439  0.7106 -1.7381
 2892TIP3   OH2 8681   2.155   4.934   0.310 -0.2356  0.2694  0.1080
 2892TIP3    H1 8682   2.131   4.949   0.401  0.4192  1.3680  0.1131
 2892TIP3    H2 8683   2.240   4.976   0.300 -0.9270  1.4377 -1.3591
 2893TIP3   OH2 8684   0.419   3.045   3.116  0.1524 -0.2035  0.0966
 2893TIP3    H1 8685   0.341   3.078   3.071 -0.8176 -1.1341  1.0511
 2893TIP3    H2 8686   0.457   3.123   3.157 -0.5638  0.1729  0.0545
 2894TIP3   OH2 8687   1.198   4.028   4.811 -0.1742  0.3660 -0.6855
 2894TIP3    H1 8688   1.252   4.068   4.879 -1.3524 -1.2558  1.3221
 2894TIP3    H2 8689   1.109   4.057   4.832 -0.6858 -1.0013 -0.8905
 2895TIP3   OH2 8690   3.225   1.650   1.718 -0.2435  0.4257  0.1274
 2895TIP3    H1 8691   3.205   1.726   1.773  2.2720  1.3722 -0.1302
 2895TIP3    H2 8692   3.260   1.688   1.637  0.1282 -1.0049 -0.4025
 2896TIP3   OH2 8693   2.603   5.891   3.587 -0.3257 -0.0556  0.0693
 2896TIP3    H1 8694   2.540   5.820   3.580 -0.5136  0.0427  0.6633
 2896TIP3    H2 8695   2.631   5.889   3.679 -0.7602  0.9901  0.2338
 2897TIP3   OH2 8696   1.708   5.315   4.405 -0.5155 -0.1817  0.5597
 2897TIP3    H1 8697   1.642   5.266   4.356 -0.9122 -0.3271  1.2189
 2897TIP3    H2 8698   1.687   5.297   4.497 -0.0491  0.4252  0.7894
 2898TIP3   OH2 8699   2.093   1.409   3.298 -0.7822  0.4444  0.2780
 2898TIP3    H1 8700   2.175   1.377   3.259 -0.3507 -1.6426  2.6393
 2898TIP3    H2 8701   2.119   1.490   3.343  0.2077 -0.5281  1.5470
 2899TIP3   OH2 8702   5.235   2.728   4.438 -0.1425 -0.6474 -0.6691
 2899TIP3    H1 8703   5.312   2.740   4.383  0.0080  0.3294 -0.2631
 2899TIP3    H2 8704   5.193   2.814   4.441 -1.0166 -1.0651 -0.5416
 2900TIP3   OH2 8705   2.914   3.984   2.679 -0.0693 -0.3170  0.0449
 2900TIP3    H1 8706   2.946   4.017   2.763 -2.8951  0.0460  1.0856
 2900TIP3    H2 8707   2.916   3.889   2.688  1.4148 -0.3389 -0.2535
 2901TIP3   OH2 8708   0.973   3.564   2.064  0.0441  0.4658 -0.4140
 2901TIP3    H1 8709   0.982   3.557   1.969  2.0334  0.2160 -0.2583
 2901TIP3    H2 8710   0.925   3.485   2.089  0.4820 -0.0492 -1.1269
 2902TIP3   OH2 8711   3.023   2.402   2.341  1.1717 -0.1920  0.2966
 2902TIP3    H1 8712   2.939   2.435   2.308  1.1974 -1.2447 -0.9271
 2902TIP3    H2 8713   3.064   2.478   2.383  0.6749  1.0084 -1.2765
 2903TIP3   OH2 8714   3.741   2.476   3.301  0.5113 -0.0976 -0.0431
 2903TIP3    H1 8715   3.667   2.478   3.240  1.4042  0.1582 -1.1802
 2903TIP3    H2 8716   3.786   2.559   3.285  0.2525  0.4052  1.6774
 2904TIP3   OH2 8717   2.555   5.546   1.476  0.5654 -0.3140 -0.4575
 2904TIP3    H1 8718   2.630   5.579   1.525  0.5435 -0.1128 -0.5587
 2904TIP3    H2 8719   2.479   5.588   1.517  0.4196 -1.2264  0.2508
 2905TIP3   OH2 8720   4.763   1.884   2.768  0.4343 -0.1802 -0.2517
 2905TIP3    H1 8721   4.685   1.883   2.712  2.6435 -1.7062 -3.6019
 2905TIP3    H2 8722   4.781   1.792   2.786  1.9960  0.0698 -0.3839
 2906TIP3   OH2 8723   0.110   5.970   2.765 -0.1979  0.4018 -0.2829
 2906TIP3    H1 8724   0.081   5.881   2.748 -2.2408  0.9958 -0.1816
 2906TIP3    H2 8725   0.163   5.963   2.844 -1.4769 -0.5614  0.5395
 2907TIP3   OH2 8726   0.910   3.067   3.077 -0.3452  0.0998 -0.3574
 2907TIP3    H1 8727   0.868   3.146   3.112 -0.6765 -0.6208  0.9311
 2907TIP3    H2 8728   0.967   3.037   3.148 -1.0058 -1.3971 -0.4227
 2908TIP3   OH2 8729   4.316   3.885   0.266  0.1179  0.0215 -0.4650
 2908TIP3    H1 8730   4.330   3.938   0.345 -0.4969  1.0478 -1.0266
 2908TIP3    H2 8731   4.249   3.932   0.217 -1.6051 -2.0688 -0.2696
 2909TIP3   OH2 8732   5.553   2.375   2.100  0.2276 -0.0783  0.2987
 2909TIP3    H1 8733   5.554   2.467   2.073  1.3188 -0.5504 -1.4117
 2909TIP3    H2 8734   5.610   2.373   2.177  0.0461  0.6953  0.4696
 2910TIP3   OH2 8735   1.170   2.597   1.214  0.4104 -0.1587  0.0037
 2910TIP3    H1 8736   1.162   2.530   1.146 -1.5135 -0.5750  0.5651
 2910TIP3    H2 8737   1.169   2.548   1.296 -1.3289  0.5061  0.4365
 2911TIP3   OH2 8738   1.840   4.852   2.032  0.2429 -0.1811  0.6255
 2911TIP3    H1 8739   1.780   4.820   1.963 -0.5694  1.1496  0.6856
 2911TIP3    H2 8740   1.923   4.866   1.987 -0.0256 -0.1860  0.1198
 2912TIP3   OH2 8741   3.326   2.903   0.092 -0.2832 -0.4179  0.6089
 2912TIP3    H1 8742   3.380   2.917   0.171 -0.3605 -0.3474  0.6495
 2912TIP3    H2 8743   3.389   2.882   0.024 -0.1697  0.0325  0.5695
 2913TIP3   OH2 8744   6.140   4.638   2.737  0.1406 -0.1530  0.0025
 2913TIP3    H1 8745   6.217   4.687   2.710 -0.1410 -0.0161 -0.5615
 2913TIP3    H2 8746   6.143   4.558   2.685  0.2336 -0.4365  0.4314
 2914TIP3   OH2 8747   3.487   1.017   4.987 -0.1344 -0.1691 -0.6465
 2914TIP3    H1 8748   3.469   0.923   4.978 -1.4639  0.1636 -1.7813
 2914TIP3    H2 8749   3.546   1.038   4.915  0.6118 -0.2279 -0.0627
 2915TIP3   OH2 8750   1.143   2.948   3.232  1.0702  0.0854  0.2361
 2915TIP3    H1 8751   1.235   2.959   3.255  0.7905 -1.0857  2.1066
 2915TIP3    H2 8752   1.095   2.972   3.311 -0.1997 -0.0574 -0.4632
 2916TIP3   OH2 8753   6.248   2.436   3.895 -1.2228  0.5429 -0.3970
 2916TIP3    H1 8754   6.264   2.446   3.989 -0.2189 -1.0201 -0.3712
 2916TIP3    H2 8755   6.162   2.475   3.882 -2.0261 -0.4613  1.4482
 2917TIP3   OH2 8756   0.381   5.026   2.741 -0.1021  0.7058 -0.6027
 2917TIP3    H1 8757   0.299   5.052   2.784  0.3993 -1.0015  1.5590
 2917TIP3    H2 8758   0.355   5.005   2.651 -1.6802  1.9748 -0.4782
 2918TIP3   OH2 8759   1.754   4.673   3.665 -0.2166  0.2338 -0.1484
 2918TIP3    H1 8760   1.811   4.740   3.702  0.8199  0.6207 -2.2593
 2918TIP3    H2 8761   1.667   4.696   3.696  0.5747  0.3170  2.2050
 2919TIP3   OH2 8762   4.873   1.765   1.976  0.2560  0.2087 -0.2607
 2919TIP3    H1 8763   4.899   1.763   2.068 -0.0103  0.6144 -0.1748
 2919TIP3    H2 8764   4.875   1.858   1.953 -1.3826  0.2919 -0.1733
 2920TIP3   OH2 8765   3.880   3.196   1.997  0.1886  0.1136  0.4655
 2920TIP3    H1 8766   3.813   3.229   2.058 -0.8743  0.0951 -0.6412
 2920TIP3    H2 8767   3.858   3.237   1.914  0.3756 -1.4214 -0.3743
 2921TIP3   OH2 8768   4.168   2.755   1.854 -0.1692  0.1176 -0.3923
 2921TIP3    H1 8769   4.185   2.679   1.798  0.7675  0.0728 -0.0611
 2921TIP3    H2 8770   4.251   2.802   1.857 -0.4081  0.5124  0.3704
 2922TIP3   OH2 8771   0.645   0.985   0.911 -0.0656 -0.4537 -0.4481
 2922TIP3    H1 8772   0.686   0.940   0.837  0.0477 -3.1510  1.1351
 2922TIP3    H2 8773   0.713   0.988   0.978 -0.0130  2.3922 -0.4886
 2923TIP3   OH2 8774   3.713   1.213   2.491  0.8162 -0.1414  0.4294
 2923TIP3    H1 8775   3.747   1.207   2.580  2.8016 -0.8860 -0.3161
 2923TIP3    H2 8776   3.695   1.122   2.466 -1.0546  0.1702  0.5093
 2924TIP3   OH2 8777   4.894   5.394   1.848 -0.2728  0.0288  0.2536
 2924TIP3    H1 8778   4.837   5.371   1.921 -0.7435 -1.0812 -0.4279
 2924TIP3    H2 8779   4.943   5.313   1.830 -0.0557  0.3288 -0.5498
 2925TIP3   OH2 8780   4.561   0.157   3.165  0.2609 -0.1208  0.0802
 2925TIP3    H1 8781   4.611   0.115   3.094  1.2703 -1.7653  1.6845
 2925TIP3    H2 8782   4.612   0.234   3.188 -1.1893  1.7436 -2.3382
 2926TIP3   OH2 8783   6.119   5.136   3.114  0.1466  0.1166  0.0240
 2926TIP3    H1 8784   6.069   5.055   3.113 -0.8790  0.7329 -0.3249
 2926TIP3    H2 8785   6.144   5.150   3.023 -0.4013  0.6068 -0.0608
 2927TIP3   OH2 8786   0.583   3.220   4.316 -0.1479 -0.7494 -0.4835
 2927TIP3    H1 8787   0.644   3.158   4.355  0.4095 -0.4445 -0.8513
 2927TIP3    H2 8788   0.565   3.184   4.229 -0.1041 -0.5814 -0.5621
 2928TIP3   OH2 8789   3.010   4.463   3.689 -0.0659  0.3708  0.0110
 2928TIP3    H1 8790   3.084   4.523   3.701 -1.1872  2.1336 -1.2458
 2928TIP3    H2 8791   3.001   4.455   3.594 -1.1271 -0.2810  0.1442
 2929TIP3   OH2 8792   2.920   4.272   4.752  0.3721  0.0061  0.0143
 2929TIP3    H1 8793   2.946   4.341   4.813 -1.5222  0.7054  0.1145
 2929TIP3    H2 8794   2.827   4.290   4.735  0.3004 -1.4832 -1.3533
 2930TIP3   OH2 8795   3.247   2.245   3.001 -0.1231 -0.7660 -0.2025
 2930TIP3    H1 8796   3.294   2.170   3.037 -1.4354 -1.2993  0.4669
 2930TIP3    H2 8797   3.177   2.206   2.948 -0.5379 -0.0186 -0.2220
 2931TIP3   OH2 8798   3.836   5.420   1.107 -0.0567  0.6663 -0.2175
 2931TIP3    H1 8799   3.798   5.495   1.153 -1.1130 -0.1363  0.2904
 2931TIP3    H2 8800   3.808   5.430   1.016  0.8410  1.5179 -0.4090
 2932TIP3   OH2 8801   1.758   0.188   3.784  0.1513  0.1281 -0.1145
 2932TIP3    H1 8802   1.792   0.130   3.852  1.5180  1.2365  0.1960
 2932TIP3    H2 8803   1.817   0.263   3.784 -1.0959  1.1740 -1.0410
 2933TIP3   OH2 8804   4.526   0.935   3.657 -0.1733 -0.1175 -0.3684
 2933TIP3    H1 8805   4.490   1.018   3.686  0.7796  0.8632 -1.8436
 2933TIP3    H2 8806   4.504   0.873   3.727 -2.3846  0.9636 -0.0349
 2934TIP3   OH2 8807   2.668   0.815   4.669  0.1708  0.0292  0.2397
 2934TIP3    H1 8808   2.751   0.799   4.714  0.7444  0.3586 -0.6764
 2934TIP3    H2 8809   2.657   0.740   4.611  0.5018  0.6214 -0.6077
 2935TIP3   OH2 8810   2.779   3.969   1.927 -0.4040 -0.3169 -0.2100
 2935TIP3    H1 8811   2.855   4.022   1.954  0.3866  0.2054 -3.0805
 2935TIP3    H2 8812   2.782   3.892   1.983  2.6294 -0.5571 -0.5299
 2936TIP3   OH2 8813   2.590   5.400   3.675  0.1365 -0.3308  0.2256
 2936TIP3    H1 8814   2.528   5.439   3.613 -0.5901 -1.7916 -0.0114
 2936TIP3    H2 8815   2.672   5.448   3.660 -0.4228  0.3637 -0.7890
 2937TIP3   OH2 8816   3.983   2.882   1.999 -0.0317 -0.4603 -0.6677
 2937TIP3    H1 8817   4.053   2.845   1.945  0.6802 -0.6984  0.4034
 2937TIP3    H2 8818   3.966   2.968   1.960  1.0861 -0.2652 -0.7388
 2938TIP3   OH2 8819   3.357   0.667   0.591  0.1187 -0.1752 -0.5245
 2938TIP3    H1 8820   3.297   0.695   0.660 -0.9027 -2.3050 -0.4712
 2938TIP3    H2 8821   3.434   0.633   0.638  0.5709  0.8022 -0.5387
 2939TIP3   OH2 8822   1.762   4.859   1.169  0.2356 -0.3317 -0.5800
 2939TIP3    H1 8823   1.740   4.938   1.119 -0.8562 -0.8843 -0.9976
 2939TIP3    H2 8824   1.795   4.891   1.252  0.0985  0.5744 -0.8668
 2940TIP3   OH2 8825   1.013   1.413   3.678 -0.5354 -0.7596 -0.1201
 2940TIP3    H1 8826   0.997   1.502   3.648 -1.8962 -1.0946 -0.4609
 2940TIP3    H2 8827   1.090   1.420   3.735 -1.3500  0.8550  0.8577
 2941TIP3   OH2 8828   4.982   0.379   1.624  0.7003 -0.5132 -0.1723
 2941TIP3    H1 8829   4.970   0.427   1.542 -1.0121  0.3460  0.5305
 2941TIP3    H2 8830   4.896   0.381   1.666  1.8508  0.5323  2.3924
 2942TIP3   OH2 8831   0.036   0.197   3.018  0.4825  0.0266  0.0004
 2942TIP3    H1 8832   0.129   0.195   3.040  1.0813  0.2714 -2.2746
 2942TIP3    H2 8833   0.033   0.186   2.923 -1.8015  0.3148 -0.0224
 2943TIP3   OH2 8834   3.808   1.855   1.277  0.3642 -0.1440 -0.0695
 2943TIP3    H1 8835   3.838   1.887   1.192 -1.1967  0.5380 -0.4143
 2943TIP3    H2 8836   3.778   1.765   1.259  1.2621 -0.4788  0.0674
 2944TIP3   OH2 8837   4.685   5.374   2.335 -0.5462 -0.1863 -0.4070
 2944TIP3    H1 8838   4.626   5.299   2.336 -0.8563  0.0286 -1.4171
 2944TIP3    H2 8839   4.627   5.450   2.329 -0.1873  0.0331 -1.2572
 2945TIP3   OH2 8840   0.466   1.503   3.433 -0.1415  0.0927  0.6772
 2945TIP3    H1 8841   0.495   1.543   3.515  0.2628 -1.6545  1.4367
 2945TIP3    H2 8842   0.380   1.543   3.416 -0.8004 -0.3814  2.6158
 2946TIP3   OH2 8843   3.355   1.992   1.332  0.0183  0.1000  0.5150
 2946TIP3    H1 8844   3.430   2.049   1.314 -1.0750  1.9401  1.4069
 2946TIP3    H2 8845   3.379   1.945   1.412  0.6848 -0.2285  0.1258
 2947TIP3   OH2 8846   5.272   5.191   1.052 -0.1564 -0.5787  0.0296
 2947TIP3    H1 8847   5.256   5.131   1.125 -2.1322  0.4311  0.4856
 2947TIP3    H2 8848   5.207   5.260   1.063  1.4023  1.1408 -1.0550
 2948TIP3   OH2 8849   0.324   5.323   3.439  0.1831  0.1122  0.1463
 2948TIP3    H1 8850   0.365   5.270   3.507  1.0104  0.7920  0.1977
 2948TIP3    H2 8851   0.357   5.287   3.357 -1.2997 -1.1079  0.0478
 2949TIP3   OH2 8852   4.981   1.623   1.728 -0.0884 -0.7381 -0.1754
 2949TIP3    H1 8853   4.926   1.616   1.650 -0.3447 -1.7265  0.0781
 2949TIP3    H2 8854   4.918   1.623   1.801  0.1112  0.7720  0.0229
 2950TIP3   OH2 8855   5.379   2.740   2.397  0.2235 -0.0898 -0.4218
 2950TIP3    H1 8856   5.464   2.753   2.439  0.5352 -0.0932 -1.0424
 2950TIP3    H2 8857   5.388   2.780   2.311 -0.8665  1.1529  0.0139
 2951TIP3   OH2 8858   4.372   2.160   2.088  0.2831  0.1179  0.0354
 2951TIP3    H1 8859   4.449   2.103   2.086 -1.1638 -1.9648  0.0643
 2951TIP3    H2 8860   4.364   2.192   1.999 -0.2854 -1.8051 -0.6455
 2952TIP3   OH2 8861   1.474   5.012   2.466 -0.0637 -0.1669  0.3860
 2952TIP3    H1 8862   1.381   4.990   2.456  0.0485 -0.4595 -0.0668
 2952TIP3    H2 8863   1.474   5.093   2.518 -0.9084  2.8079 -3.6989
 2953TIP3   OH2 8864   3.087   1.273   3.923 -0.8903  0.2939 -0.2283
 2953TIP3    H1 8865   3.114   1.182   3.909 -0.2463  0.4166  0.1881
 2953TIP3    H2 8866   3.151   1.308   3.985 -0.9841  1.1072 -0.5795
 2954TIP3   OH2 8867   2.059   2.421   1.545  0.1867 -0.1645  0.1034
 2954TIP3    H1 8868   2.125   2.357   1.518  0.0030  0.2368 -1.3464
 2954TIP3    H2 8869   2.012   2.443   1.465  0.2867  1.8468  0.5462
 2955TIP3   OH2 8870   0.266   0.682   4.113  0.9062 -0.4515  0.0598
 2955TIP3    H1 8871   0.197   0.731   4.157  0.8830 -1.4814  1.2208
 2955TIP3    H2 8872   0.239   0.679   4.021  0.5515  1.0570  0.0948
 2956TIP3   OH2 8873   0.404   5.537   4.847 -0.4145 -0.2304 -0.0798
 2956TIP3    H1 8874   0.333   5.477   4.871  0.3084 -1.4620 -0.9153
 2956TIP3    H2 8875   0.476   5.512   4.905  0.2499 -0.9474 -1.1818
 2957TIP3   OH2 8876   0.434   0.124   2.093  0.3865 -0.1282 -0.1896
 2957TIP3    H1 8877   0.426   0.054   2.029  0.2186 -0.6146  0.3557
 2957TIP3    H2 8878   0.516   0.107   2.138 -0.7148 -1.3390  1.5126
 2958TIP3   OH2 8879   4.578   1.059   0.516 -0.3127  0.3825  0.3899
 2958TIP3    H1 8880   4.596   0.973   0.552  0.6190  0.6028  0.4705
 2958TIP3    H2 8881   4.606   1.053   0.424  3.1688  1.5911  1.2246
 2959TIP3   OH2 8882   2.714   2.402   4.519 -0.1257 -0.2488  0.2061
 2959TIP3    H1 8883   2.737   2.402   4.426 -2.5251 -1.4871 -0.4574
 2959TIP3    H2 8884   2.641   2.463   4.526 -0.1164 -0.3370  1.2562
 2960TIP3   OH2 8885   0.412   2.708   4.067  0.0614  0.3263  0.1773
 2960TIP3    H1 8886   0.371   2.756   4.139  0.8708 -0.8448  1.4779
 2960TIP3    H2 8887   0.341   2.657   4.029 -0.1562  0.0648  0.9205
 2961TIP3   OH2 8888   0.833   4.533   1.339  0.0995 -0.5137  0.3881
 2961TIP3    H1 8889   0.920   4.572   1.335 -0.1930  0.1362  0.1021
 2961TIP3    H2 8890   0.779   4.599   1.383 -0.1587 -1.0790  0.9273
 2962TIP3   OH2 8891   1.820   2.148   1.193 -0.3253  0.0060  0.0235
 2962TIP3    H1 8892   1.848   2.145   1.101 -0.2515  1.6600 -0.0414
 2962TIP3    H2 8893   1.788   2.060   1.211  2.0862 -1.1215 -0.7926
 2963TIP3   OH2 8894   5.879   4.365   4.890 -0.5100  0.0137 -0.0182
 2963TIP3    H1 8895   5.851   4.357   4.799 -1.1137 -0.2963  0.1914
 2963TIP3    H2 8896   5.971   4.394   4.884 -0.4250 -0.3715 -0.7245
 2964TIP3   OH2 8897   3.131   1.977   3.055 -0.4488 -0.1177 -0.0895
 2964TIP3    H1 8898   3.186   1.913   3.010 -2.7538 -1.8712 -0.5554
 2964TIP3    H2 8899   3.085   2.022   2.985  0.0723  1.0911  0.3144
 2965TIP3   OH2 8900   2.149   5.899   0.923  0.4355 -0.5986 -0.5393
 2965TIP3    H1 8901   2.230   5.905   0.973 -0.6982  0.6140  1.2439
 2965TIP3    H2 8902   2.150   5.810   0.887  2.0303 -0.9702  0.3221
 2966TIP3   OH2 8903   5.034   2.297   2.265 -0.5922  0.3981  0.3528
 2966TIP3    H1 8904   5.097   2.354   2.222 -0.7395 -0.4823 -1.1158
 2966TIP3    H2 8905   5.004   2.346   2.341  3.4085  0.0333  2.3793
 2967TIP3   OH2 8906   2.305   4.861   2.068 -0.1783  0.4759 -0.3436
 2967TIP3    H1 8907   2.230   4.880   2.011 -0.7441  0.3140  0.3221
 2967TIP3    H2 8908   2.270   4.801   2.134  0.6308  0.1285 -0.2156
 2968TIP3   OH2 8909   2.578   1.046   3.234 -0.1521  0.0870  0.1113
 2968TIP3    H1 8910   2.603   1.107   3.304 -0.7092  1.4596 -0.8233
 2968TIP3    H2 8911   2.638   0.973   3.243 -0.3469  0.1298  2.1352
 2969TIP3   OH2 8912   0.241   3.366   3.048  0.0819  0.0719 -0.0865
 2969TIP3    H1 8913   0.161   3.314   3.052  1.2458 -1.7471  1.4410
 2969TIP3    H2 8914   0.214   3.454   3.074 -1.7246 -0.0195 -1.4710
 2970TIP3   OH2 8915   3.307   4.419   1.384  0.1967  0.2106 -0.1598
 2970TIP3    H1 8916   3.361   4.347   1.352 -0.5020  0.1231 -1.1885
 2970TIP3    H2 8917   3.361   4.462   1.451  0.4225 -1.5703  0.8773
 2971TIP3   OH2 8918   0.492   1.327   1.904  0.5255 -0.8679  0.4591
 2971TIP3    H1 8919   0.555   1.311   1.974 -0.6702  0.1896  1.8583
 2971TIP3    H2 8920   0.410   1.291   1.938 -0.2315  0.2678 -0.0979
 2972TIP3   OH2 8921   3.068   4.319   1.342 -0.1891  0.6792 -0.1369
 2972TIP3    H1 8922   3.053   4.282   1.255 -1.2086  1.4548 -0.3056
 2972TIP3    H2 8923   3.156   4.356   1.338 -0.0219  0.2443 -0.6602
 2973TIP3   OH2 8924   2.456   5.492   5.051 -0.4285 -0.1426 -0.5726
 2973TIP3    H1 8925   2.423   5.457   5.134  1.0519  2.1871  1.1328
 2973TIP3    H2 8926   2.509   5.420   5.015 -3.9124 -2.5076 -1.4510
 2974TIP3   OH2 8927   1.006   0.548   1.485  0.1975  0.4223 -0.2732
 2974TIP3    H1 8928   0.944   0.538   1.557  2.5981  2.6460  2.3540
 2974TIP3    H2 8929   1.067   0.474   1.495 -0.3580 -0.1615 -1.0749
 2975TIP3   OH2 8930   2.039   1.310   3.564 -0.1271  0.3541 -0.0436
 2975TIP3    H1 8931   2.104   1.246   3.593 -1.7274  0.0214  3.1810
 2975TIP3    H2 8932   2.082   1.356   3.491  2.0320 -2.6495 -0.8553
 2976TIP3   OH2 8933   4.368   3.869   3.119 -0.1682 -0.4576  0.3587
 2976TIP3    H1 8934   4.461   3.879   3.101  0.2249  2.0196  3.0082
 2976TIP3    H2 8935   4.330   3.955   3.101 -1.6092 -0.9497  0.8791
 2977TIP3   OH2 8936   2.624   0.738   1.779 -0.5923  0.1860 -0.2597
 2977TIP3    H1 8937   2.652   0.829   1.781 -2.0905  0.6576  0.4167
 2977TIP3    H2 8938   2.704   0.688   1.796  0.3588  1.3253 -1.2168
 2978TIP3   OH2 8939   3.020   4.530   0.586 -0.7125  0.4385  0.0915
 2978TIP3    H1 8940   2.999   4.505   0.676  0.3474 -0.6081  0.0829
 2978TIP3    H2 8941   2.937   4.560   0.549 -1.1857  0.7753  1.3729
 2979TIP3   OH2 8942   5.147   2.195   4.936 -0.4279  0.5411 -0.1392
 2979TIP3    H1 8943   5.238   2.222   4.922 -0.1960  0.1150  0.5051
 2979TIP3    H2 8944   5.153   2.115   4.988 -1.1560  0.0733 -0.7625
 2980TIP3   OH2 8945   2.975   5.014   1.076  0.1308 -0.3795 -0.2898
 2980TIP3    H1 8946   2.913   4.963   1.129 -1.6763 -0.6861 -2.5618
 2980TIP3    H2 8947   2.958   5.105   1.099  0.7685 -0.5735  1.0521
 2981TIP3   OH2 8948   0.865   0.921   1.097  0.2619 -0.2520  0.1270
 2981TIP3    H1 8949   0.874   0.829   1.124  0.8184  0.0846  1.1764
 2981TIP3    H2 8950   0.850   0.968   1.179 -1.2854  0.4587 -0.5374
 2982TIP3   OH2 8951   1.070   4.239   0.673 -0.0226 -0.4677 -1.0567
 2982TIP3    H1 8952   0.983   4.219   0.638 -0.3678  0.7167 -0.9174
 2982TIP3    H2 8953   1.104   4.155   0.704 -1.8550 -0.6677  0.5360
 2983TIP3   OH2 8954   2.285   0.710   3.056  0.3773 -0.3312 -0.1728
 2983TIP3    H1 8955   2.355   0.726   3.119  1.5260  0.9031 -1.6899
 2983TIP3    H2 8956   2.250   0.624   3.080  1.7569 -0.5382  1.2097
 2984TIP3   OH2 8957   0.560   0.886   5.145  0.1466  0.5949 -0.4471
 2984TIP3    H1 8958   0.649   0.896   5.113  0.9253 -0.7932  1.1727
 2984TIP3    H2 8959   0.539   0.794   5.131 -0.2010  0.3994  1.1207
 2985TIP3   OH2 8960   3.625   1.778   0.392 -0.1326  0.6180  0.2970
 2985TIP3    H1 8961   3.547   1.772   0.448 -0.7284 -1.6759 -0.6696
 2985TIP3    H2 8962   3.598   1.740   0.309  1.5848  1.2731 -0.6128
 2986TIP3   OH2 8963   3.189   5.937   2.959  0.1856 -0.1171 -0.7886
 2986TIP3    H1 8964   3.216   5.977   3.042  1.2376 -1.3703 -0.5048
 2986TIP3    H2 8965   3.259   5.958   2.898  0.2424 -0.6437 -0.9067
 2987TIP3   OH2 8966   2.060   3.221   4.506 -0.0382  0.0669 -0.0442
 2987TIP3    H1 8967   2.078   3.131   4.531 -1.4632 -0.3118 -0.3424
 2987TIP3    H2 8968   1.981   3.217   4.453 -0.6611  1.5951  0.7002
 2988TIP3   OH2 8969   3.715   2.129   1.745  0.2467  0.2635  0.3817
 2988TIP3    H1 8970   3.748   2.139   1.835  1.6508  0.1566 -0.0877
 2988TIP3    H2 8971   3.659   2.051   1.749  0.3478  0.2165  1.1510
 2989TIP3   OH2 8972   2.314   4.174   1.241 -0.0795  0.0688 -0.0187
 2989TIP3    H1 8973   2.223   4.162   1.267  0.1641 -1.0985  0.3265
 2989TIP3    H2 8974   2.366   4.133   1.310  0.6508 -0.8066 -1.0540
 2990TIP3   OH2 8975   5.345   0.764   0.825 -0.1452 -0.1771 -0.2699
 2990TIP3    H1 8976   5.434   0.795   0.808 -0.1652  0.4938  0.7761
 2990TIP3    H2 8977   5.354   0.695   0.889 -0.5484  1.9815  2.2942
 2991TIP3   OH2 8978   4.791   0.489   4.885  0.3119 -0.0092 -0.3540
 2991TIP3    H1 8979   4.790   0.583   4.868  0.7660  0.3392  1.4027
 2991TIP3    H2 8980   4.879   0.461   4.860  0.8070  0.4073  0.8365
 2992TIP3   OH2 8981   3.686   3.829   0.260 -0.2065 -0.2277 -0.1095
 2992TIP3    H1 8982   3.609   3.885   0.270 -0.9231 -1.3892  1.2537
 2992TIP3    H2 8983   3.749   3.882   0.212 -1.6530  0.9495 -0.7663
 2993TIP3   OH2 8984   0.876   3.822   1.613  0.0663 -0.0832 -0.4042
 2993TIP3    H1 8985   0.814   3.780   1.554 -0.4827 -0.9187  0.7136
 2993TIP3    H2 8986   0.862   3.916   1.600 -0.9493 -0.2617 -0.6786
 2994TIP3   OH2 8987   2.105   4.918   5.071 -0.7590 -0.4521 -0.0562
 2994TIP3    H1 8988   2.086   4.989   5.133  0.9087  0.4955 -0.5631
 2994TIP3    H2 8989   2.111   4.840   5.126  1.0212  0.4120  1.1171
 2995TIP3   OH2 8990   3.495   2.544   0.620 -0.1401  0.3004 -0.2323
 2995TIP3    H1 8991   3.515   2.532   0.713  0.7866 -0.7544 -0.5595
 2995TIP3    H2 8992   3.464   2.635   0.614  1.6723  1.0376  0.7954
 2996TIP3   OH2 8993   5.880   5.490   4.179  0.1300 -0.2062  0.2835
 2996TIP3    H1 8994   5.899   5.581   4.199 -0.7371  0.2314 -0.8123
 2996TIP3    H2 8995   5.801   5.470   4.230  0.7374 -0.5892  1.1043
 2997TIP3   OH2 8996   2.101   1.272   1.669  0.3921  0.2332 -0.0632
 2997TIP3    H1 8997   2.097   1.324   1.588 -0.5842  0.0004 -0.1696
 2997TIP3    H2 8998   2.155   1.196   1.645  2.1974  1.3515  0.2092
 2998TIP3   OH2 8999   1.882   2.834   0.938  0.1873  0.2131  0.2181
 2998TIP3    H1 9000   1.822   2.765   0.966 -0.3416  0.2324 -0.8229
 2998TIP3    H2 9001   1.962   2.819   0.989 -0.8771  0.5350  2.0538
 2999TIP3   OH2 9002   5.459   5.368   2.301 -0.7085 -0.2108 -0.1218
 2999TIP3    H1 9003   5.540   5.326   2.271 -0.8643 -0.2861 -0.4372
 2999TIP3    H2 9004   5.417   5.303   2.357 -1.0232 -0.5395 -0.7304
 3000TIP3   OH2 9005   2.306   5.753   3.845 -0.1105  0.3268 -0.0233
 3000TIP3    H1 9006   2.309   5.672   3.895  0.1801 -0.6140 -1.5159
 3000TIP3    H2 9007   2.215   5.783   3.853  0.2192  0.9144  2.1048
 3001TIP3   OH2 9008   5.500   1.242   2.134 -0.0743  0.4416 -0.2477
 3001TIP3    H1 9009   5.425   1.231   2.076  0.7056 -0.3584 -1.1362
 3001TIP3    H2 9010   5.573   1.202   2.087  0.5289 -0.5345  1.4063
 3002TIP3   OH2 9011   1.696   5.645   0.447 -0.3416 -0.2102 -0.2379
 3002TIP3    H1 9012   1.653   5.580   0.392  0.6877  0.3598 -1.7965
 3002TIP3    H2 9013   1.741   5.594   0.515  1.8060 -1.3582 -2.3712
 3003TIP3   OH2 9014   5.969   1.268   4.354 -0.7649  0.3087  0.7650
 3003TIP3    H1 9015   6.013   1.254   4.269 -1.0816 -1.1993  0.8232
 3003TIP3    H2 9016   6.025   1.331   4.399 -0.6969  1.3127 -0.6304
 3004TIP3   OH2 9017   6.036   1.057   3.092  0.1662 -0.4220  0.0804
 3004TIP3    H1 9018   6.107   1.105   3.051 -0.1882  1.4978  1.5932
 3004TIP3    H2 9019   5.962   1.069   3.033  0.6139 -0.8919 -0.5881
 3005TIP3   OH2 9020   1.842   2.410   1.932  0.0812 -0.0637 -0.0922
 3005TIP3    H1 9021   1.780   2.379   1.865  0.4392 -1.9039  0.3691
 3005TIP3    H2 9022   1.925   2.419   1.884 -0.0721  0.3949 -0.2751
 3006TIP3   OH2 9023   4.250   2.927   2.763 -0.2441 -0.5002 -0.1024
 3006TIP3    H1 9024   4.172   2.961   2.721  0.1227 -1.4245 -1.6148
 3006TIP3    H2 9025   4.322   2.948   2.703  0.2911 -1.9123 -0.0041
 3007TIP3   OH2 9026   2.808   1.665   1.096  0.2880 -0.0263 -0.0201
 3007TIP3    H1 9027   2.825   1.600   1.027  1.6762 -0.4006  0.6545
 3007TIP3    H2 9028   2.716   1.688   1.084  0.3324 -0.5335 -1.6216
 3008TIP3   OH2 9029   3.219   0.220   0.768  0.2279 -0.1975 -0.4103
 3008TIP3    H1 9030   3.124   0.211   0.771  0.2083 -0.7160 -1.9775
 3008TIP3    H2 9031   3.244   0.192   0.680  1.5638  2.5967 -1.0254
 3009TIP3   OH2 9032   3.214   2.726   0.881 -0.3782  0.5319  0.0857
 3009TIP3    H1 9033   3.280   2.668   0.919 -0.5781 -1.1586 -1.9312
 3009TIP3    H2 9034   3.251   2.754   0.798 -0.8548  2.2778  0.4261
 3010TIP3   OH2 9035   0.298   0.768   1.590 -0.3627  0.3135  0.7678
 3010TIP3    H1 9036   0.245   0.816   1.526  0.8935 -1.6192 -1.9006
 3010TIP3    H2 9037   0.240   0.700   1.623 -0.9584  1.1898  1.5530
 3011TIP3   OH2 9038   2.155   3.315   1.979 -0.1573  0.1819  0.5933
 3011TIP3    H1 9039   2.240   3.330   1.937  0.1620  1.6373  1.6844
 3011TIP3    H2 9040   2.122   3.235   1.938  2.5338 -1.4567  1.3514
 3012TIP3   OH2 9041   1.349   1.722   5.150  0.4851 -0.0315 -0.1995
 3012TIP3    H1 9042   1.426   1.708   5.095  1.2855 -0.5787  1.0183
 3012TIP3    H2 9043   1.374   1.793   5.209  0.0628 -0.2188  0.2154
 3013TIP3   OH2 9044   3.653   2.604   1.281 -0.3019 -0.5179 -0.1960
 3013TIP3    H1 9045   3.723   2.624   1.344 -0.1163 -2.2212  0.1919
 3013TIP3    H2 9046   3.630   2.689   1.243  1.8484  0.1354 -0.2022
 3014TIP3   OH2 9047   4.391   1.883   2.270  0.5744 -0.3355  0.3558
 3014TIP3    H1 9048   4.478   1.920   2.287  0.4835  0.9517 -1.5845
 3014TIP3    H2 9049   4.404   1.830   2.191 -0.5314  0.5253 -0.4273
 3015TIP3   OH2 9050   5.821   5.248   3.051 -0.3917  0.8169  0.6887
 3015TIP3    H1 9051   5.809   5.235   3.145  1.7179  0.5309  0.9814
 3015TIP3    H2 9052   5.893   5.312   3.045 -0.4859  0.8140 -0.7226
 3016TIP3   OH2 9053   0.435   0.228   4.550  0.0357 -0.6404  0.2089
 3016TIP3    H1 9054   0.407   0.152   4.499 -1.0117  0.7755 -1.4292
 3016TIP3    H2 9055   0.464   0.292   4.485  0.2809  0.6204  1.4883
 3017TIP3   OH2 9056   4.337   0.824   0.941 -0.6404  0.9046 -0.3299
 3017TIP3    H1 9057   4.423   0.785   0.923 -0.0775  1.5628  0.7979
 3017TIP3    H2 9058   4.284   0.752   0.973 -0.5380  0.4724 -1.1218
 3018TIP3   OH2 9059   2.603   2.698   0.947 -0.3124 -0.5755 -0.3239
 3018TIP3    H1 9060   2.632   2.693   1.038 -0.3488  0.1362 -0.2699
 3018TIP3    H2 9061   2.549   2.777   0.943 -2.0445 -1.7145 -0.4756
 3019TIP3   OH2 9062   1.386   2.088   3.964 -0.0527 -0.0309 -0.0354
 3019TIP3    H1 9063   1.394   1.994   3.948  1.0226  0.3155 -1.9068
 3019TIP3    H2 9064   1.296   2.109   3.942 -0.0685 -0.5065 -0.4395
 3020TIP3   OH2 9065   1.647   5.219   3.748 -0.6397 -0.2934 -0.0188
 3020TIP3    H1 9066   1.626   5.277   3.675 -0.4799  1.5035  1.2739
 3020TIP3    H2 9067   1.598   5.256   3.822  0.7470 -0.8339  1.2149
 3021TIP3   OH2 9068   0.806   2.745   3.505 -0.2000  0.0153 -0.1597
 3021TIP3    H1 9069   0.895   2.742   3.540 -0.8099 -1.1390  1.3635
 3021TIP3    H2 9070   0.817   2.783   3.417  1.8971 -0.9635 -0.3885
 3022TIP3   OH2 9071   1.331   0.127   5.091 -0.3851  0.6029 -0.9329
 3022TIP3    H1 9072   1.346   0.214   5.128 -0.0691  0.2096 -0.1089
 3022TIP3    H2 9073   1.391   0.070   5.139 -2.4341 -0.5409  0.4645
 3023TIP3   OH2 9074   2.975   4.081   1.475 -0.3326 -0.4704 -0.0097
 3023TIP3    H1 9075   3.030   4.156   1.452  0.5392 -1.6221 -1.9309
 3023TIP3    H2 9076   3.009   4.051   1.559  0.9692 -0.2078 -0.4267
 3024TIP3   OH2 9077   5.545   4.058   1.325  0.1453 -0.0036 -0.0747
 3024TIP3    H1 9078   5.610   4.039   1.257  0.6517  0.6726  0.2103
 3024TIP3    H2 9079   5.496   4.133   1.291 -0.0232 -0.0683  0.0245
 3025TIP3   OH2 9080   3.542   5.680   2.164 -0.1572  0.1125  0.1626
 3025TIP3    H1 9081   3.635   5.663   2.153  0.1066  1.2819  0.4678
 3025TIP3    H2 9082   3.521   5.743   2.094 -0.9760 -0.9887 -0.6139
 3026TIP3   OH2 9083   5.150   0.447   4.335  0.6807 -0.3272  0.0690
 3026TIP3    H1 9084   5.193   0.468   4.252  0.3829  0.4631  0.1019
 3026TIP3    H2 9085   5.175   0.357   4.353 -0.5709 -1.0912 -1.7119
 3027TIP3   OH2 9086   5.541   5.331   1.080 -0.5467 -0.2241  0.0006
 3027TIP3    H1 9087   5.493   5.306   1.001  1.6523 -0.2653 -1.3850
 3027TIP3    H2 9088   5.572   5.248   1.117 -1.3690 -0.1870  0.8356
 3028TIP3   OH2 9089   2.517   2.237   0.814 -0.1397 -0.4368 -0.6848
 3028TIP3    H1 9090   2.492   2.202   0.728 -0.2800 -1.6125 -0.1716
 3028TIP3    H2 9091   2.584   2.303   0.794  0.7562 -1.5891 -1.6157
 3029TIP3   OH2 9092   1.341   2.960   4.997  0.6330  0.2880  0.0273
 3029TIP3    H1 9093   1.277   2.927   4.933  0.5161  0.4857  0.0417
 3029TIP3    H2 9094   1.324   3.054   5.002  0.7729  0.3050  0.2047
 3030TIP3   OH2 9095   1.826   3.984   1.136  0.1695 -0.0230 -0.0815
 3030TIP3    H1 9096   1.845   4.074   1.165  0.0347  0.4306 -1.3579
 3030TIP3    H2 9097   1.753   3.993   1.075  2.5703 -0.4601 -3.2670
 3031TIP3   OH2 9098   3.875   1.681   3.944  0.1322 -0.1783  0.3405
 3031TIP3    H1 9099   3.806   1.634   3.991 -0.4353  1.7457  1.5296
 3031TIP3    H2 9100   3.928   1.721   4.012  1.7963 -0.6983 -0.5929
 3032TIP3   OH2 9101   3.390   2.661   1.952 -0.1041 -0.3996  0.0112
 3032TIP3    H1 9102   3.473   2.635   1.912 -0.8142 -0.3736 -1.5292
 3032TIP3    H2 9103   3.323   2.613   1.903 -1.1728  1.3541 -0.3269
 3033TIP3   OH2 9104   3.108   0.288   2.316  0.8440  0.0154  0.1165
 3033TIP3    H1 9105   3.202   0.271   2.313  0.5887 -1.3185 -0.9225
 3033TIP3    H2 9106   3.088   0.297   2.410  2.3393  2.5461  0.3086
 3034TIP3   OH2 9107   0.171   1.861   1.677 -0.0840  0.4261 -0.3342
 3034TIP3    H1 9108   0.199   1.903   1.596  1.9550 -0.3463 -0.0781
 3034TIP3    H2 9109   0.193   1.925   1.745  2.0174 -0.5152 -0.0503
 3035TIP3   OH2 9110   6.128   5.859   4.761  0.1214  0.5205 -0.9394
 3035TIP3    H1 9111   6.206   5.910   4.782  0.7838 -1.1501  0.8617
 3035TIP3    H2 9112   6.107   5.812   4.841 -1.5832 -0.6012 -1.9824
 3036TIP3   OH2 9113   5.394   1.556   1.201 -0.7238 -0.4749  0.7350
 3036TIP3    H1 9114   5.375   1.650   1.205 -0.6377 -0.2671 -2.1702
 3036TIP3    H2 9115   5.310   1.515   1.181 -0.2175 -0.6390 -1.2353
 3037TIP3   OH2 9116   5.138   2.099   2.837  0.2274  0.1029 -0.0694
 3037TIP3    H1 9117   5.150   2.191   2.814 -0.2192 -0.1225 -1.2564
 3037TIP3    H2 9118   5.176   2.091   2.925  1.0886  1.2205 -0.3203
 3038TIP3   OH2 9119   0.375   0.050   4.303 -0.5373  0.6309 -0.7672
 3038TIP3    H1 9120   0.357  -0.034   4.344  1.6474  1.2478  1.7105
 3038TIP3    H2 9121   0.468   0.047   4.280  0.1494  3.0004  1.2535
 3039TIP3   OH2 9122   0.861   4.396   3.063  0.3798 -0.0825  0.0481
 3039TIP3    H1 9123   0.907   4.313   3.049 -0.0043 -0.1788 -0.6997
 3039TIP3    H2 9124   0.842   4.397   3.156  1.1204 -0.4495  0.2162
 3040TIP3   OH2 9125   4.970   3.149   2.854 -0.1154  0.6571  0.3337
 3040TIP3    H1 9126   4.987   3.150   2.949  0.3046  0.1589  0.2721
 3040TIP3    H2 9127   4.890   3.199   2.843 -1.6680 -1.4588  1.2675
 3041TIP3   OH2 9128   0.130   3.842   2.745  0.5274  0.2793 -0.6378
 3041TIP3    H1 9129   0.046   3.814   2.781  1.0949 -0.3714  0.1940
 3041TIP3    H2 9130   0.188   3.767   2.755  1.0277  0.4718 -1.8712
 3042TIP3   OH2 9131   3.711   0.284   1.488 -0.0075 -0.3939 -0.5743
 3042TIP3    H1 9132   3.736   0.369   1.449 -0.4625 -0.1646 -0.3675
 3042TIP3    H2 9133   3.625   0.266   1.451 -0.1135 -0.5413 -0.2525
 3043TIP3   OH2 9134   0.064   3.519   4.866 -0.1488 -0.4380  0.3544
 3043TIP3    H1 9135   0.007   3.464   4.812  2.0585 -0.2474 -2.3954
 3043TIP3    H2 9136   0.082   3.467   4.944 -4.3274 -0.2968  1.6403
 3044TIP3   OH2 9137   5.317   4.191   2.038  0.3657  0.2789  0.6298
 3044TIP3    H1 9138   5.277   4.158   1.957  1.4000  0.0153  0.2118
 3044TIP3    H2 9139   5.348   4.113   2.083  1.2717  0.5323  0.4691
 3045TIP3   OH2 9140   3.935   1.122   4.725  0.5718  0.1851  0.1007
 3045TIP3    H1 9141   4.011   1.128   4.783  0.8699 -1.0976 -0.1198
 3045TIP3    H2 9142   3.944   1.196   4.666  1.1944  0.5297  0.6119
 3046TIP3   OH2 9143   1.717   1.499   2.593 -0.0339 -0.5504  0.0367
 3046TIP3    H1 9144   1.664   1.525   2.518  0.6361 -1.2240 -0.6853
 3046TIP3    H2 9145   1.792   1.558   2.592  0.2834 -0.9518 -0.1912
 3047TIP3   OH2 9146   1.414   2.460   1.011  0.0976  0.5836 -0.0966
 3047TIP3    H1 9147   1.461   2.430   1.089 -2.3838  0.0670  1.3104
 3047TIP3    H2 9148   1.364   2.384   0.982  1.0537  0.7373 -2.3381
 3048TIP3   OH2 9149   5.650   0.909   2.425 -0.6851 -0.0204 -0.4452
 3048TIP3    H1 9150   5.618   0.866   2.504 -0.8066  1.0146  0.0848
 3048TIP3    H2 9151   5.620   0.999   2.433  0.9721  0.5834 -0.7233
 3049TIP3   OH2 9152   1.451   4.434   1.626 -0.1930  0.1475  0.3124
 3049TIP3    H1 9153   1.375   4.405   1.576  0.0779 -0.4078  0.2099
 3049TIP3    H2 9154   1.516   4.458   1.560  0.1472 -0.5398  0.3806
 3050TIP3   OH2 9155   2.817   4.405   1.364  0.1320  0.3160  0.3226
 3050TIP3    H1 9156   2.748   4.339   1.376 -0.1128  0.6080  0.5588
 3050TIP3    H2 9157   2.899   4.357   1.374 -0.0486  0.1656  1.1587
 3051TIP3   OH2 9158   5.002   3.928   3.648 -0.2994 -0.2982 -0.1556
 3051TIP3    H1 9159   5.032   3.879   3.571 -1.7754 -1.1171 -0.2690
 3051TIP3    H2 9160   4.918   3.966   3.620 -0.0961  0.7151  0.5590
 3052TIP3   OH2 9161   1.627   1.387   0.175  0.2378 -0.3392 -0.3764
 3052TIP3    H1 9162   1.620   1.294   0.154  1.2599  0.0204 -2.5376
 3052TIP3    H2 9163   1.596   1.394   0.265 -1.5595 -2.4958 -0.7699
 3053TIP3   OH2 9164   3.100   1.918   1.357 -0.2806 -0.0263 -0.0417
 3053TIP3    H1 9165   3.188   1.942   1.385 -0.6412 -1.2570  2.3855
 3053TIP3    H2 9166   3.083   1.975   1.281  2.0084  1.2649  0.3097
 3054TIP3   OH2 9167   5.692   0.419   4.932  0.0093  0.0223 -0.2992
 3054TIP3    H1 9168   5.632   0.492   4.949  0.6009  0.5351 -0.3949
 3054TIP3    H2 9169   5.767   0.459   4.888  1.0803 -0.3740  1.0974
 3055TIP3   OH2 9170   3.451   0.792   1.198 -0.0038  0.0205  0.0437
 3055TIP3    H1 9171   3.516   0.724   1.213  1.1401  0.8125 -1.0673
 3055TIP3    H2 9172   3.373   0.762   1.244  0.9991 -1.1945  1.0103
 3056TIP3   OH2 9173   4.880   5.468   2.594  0.1509 -0.5170 -0.2348
 3056TIP3    H1 9174   4.927   5.435   2.518  1.4295 -0.1064  0.3349
 3056TIP3    H2 9175   4.819   5.399   2.618  3.2408 -2.9527  1.3931
 3057TIP3   OH2 9176   0.196   4.105   4.619 -0.0868 -0.2503  0.2734
 3057TIP3    H1 9177   0.160   4.028   4.576 -1.0310  1.1651 -1.6109
 3057TIP3    H2 9178   0.233   4.158   4.548  0.9499  0.8436  1.5626
 3058TIP3   OH2 9179   2.679   3.524   0.796  0.1693  0.4016  0.0659
 3058TIP3    H1 9180   2.640   3.514   0.883  0.3204  0.8105  0.1813
 3058TIP3    H2 9181   2.670   3.617   0.777  0.0156  0.2921 -0.4148
 3059TIP3   OH2 9182   5.522   3.663   3.471  0.9652  0.1797 -0.4332
 3059TIP3    H1 9183   5.435   3.631   3.495  1.5315 -0.8205  0.3835
 3059TIP3    H2 9184   5.528   3.646   3.377 -0.2730  1.6670 -0.8260
 3060TIP3   OH2 9185   3.084   1.079   2.279  0.0097  0.4110 -0.2242
 3060TIP3    H1 9186   3.146   1.014   2.313  1.0675  1.2265 -0.5192
 3060TIP3    H2 9187   3.129   1.118   2.204 -0.6974  1.3174 -0.1959
 3061TIP3   OH2 9188   5.646   2.538   1.703 -0.1858  0.0913 -0.6756
 3061TIP3    H1 9189   5.739   2.519   1.707 -0.1730  0.3394  2.3702
 3061TIP3    H2 9190   5.603   2.455   1.724 -0.6033  0.2387 -0.9293
 3062TIP3   OH2 9191   4.296   3.526   4.809 -0.1263 -0.6262  0.3069
 3062TIP3    H1 9192   4.304   3.514   4.903 -0.6581 -1.0943  0.3026
 3062TIP3    H2 9193   4.287   3.620   4.797  2.3249 -0.2998  0.5134
 3063TIP3   OH2 9194   2.304   5.419   3.606 -0.7063  0.1906 -0.2199
 3063TIP3    H1 9195   2.274   5.333   3.578  0.2310 -0.6685  1.2801
 3063TIP3    H2 9196   2.237   5.480   3.574 -1.9393 -1.2039 -0.3692
 3064TIP3   OH2 9197   5.031   5.710   0.290  0.0123  0.1446  0.0033
 3064TIP3    H1 9198   5.126   5.725   0.289 -0.1168  1.1790  0.9153
 3064TIP3    H2 9199   5.010   5.698   0.383 -0.6052 -1.2204 -0.2786
 3065TIP3   OH2 9200   4.565   5.786   2.749 -0.0060 -0.0122  0.2731
 3065TIP3    H1 9201   4.481   5.741   2.740 -0.0708 -0.1511  1.4134
 3065TIP3    H2 9202   4.609   5.772   2.665 -0.9863 -0.2044 -0.2220
 3066TIP3   OH2 9203   2.143   4.701   4.160 -0.0018  0.1381 -0.4871
 3066TIP3    H1 9204   2.207   4.772   4.158  0.9192 -0.6563 -0.4608
 3066TIP3    H2 9205   2.193   4.624   4.130 -0.5559 -0.7953  0.9064
 3067TIP3   OH2 9206   1.221   3.885   1.585  0.5925  0.2854 -0.6892
 3067TIP3    H1 9207   1.173   3.879   1.668 -1.2184  3.1278 -1.3885
 3067TIP3    H2 9208   1.313   3.886   1.611  0.2467 -2.3033  0.9474
 3068TIP3   OH2 9209   6.195   0.176   4.970 -0.8680 -0.6784  0.3692
 3068TIP3    H1 9210   6.190   0.202   4.878 -0.5224  1.0498  0.7920
 3068TIP3    H2 9211   6.281   0.134   4.979  0.1051  1.1761  0.3223
 3069TIP3   OH2 9212   6.116   4.425   4.800  0.4015  0.2925  0.0896
 3069TIP3    H1 9213   6.178   4.497   4.790  0.7376  0.0882  0.5772
 3069TIP3    H2 9214   6.161   4.350   4.761  0.3546  0.1984  0.2146
 3070TIP3   OH2 9215   3.844   1.210   4.256 -0.6956  0.3505 -0.1376
 3070TIP3    H1 9216   3.857   1.287   4.311 -0.1557  0.4134 -0.3525
 3070TIP3    H2 9217   3.772   1.233   4.198 -1.6319  0.0930  0.8852
 3071TIP3   OH2 9218   5.164   3.701   5.104 -0.0774  0.3834 -0.0088
 3071TIP3    H1 9219   5.151   3.748   5.187 -0.3414  0.4916 -0.1099
 3071TIP3    H2 9220   5.211   3.621   5.129  0.0573  0.5311  0.2121
 3072TIP3   OH2 9221   2.520   4.196   0.300  0.1530 -0.4122  0.0402
 3072TIP3    H1 9222   2.551   4.281   0.332  0.6935 -0.4062 -0.4911
 3072TIP3    H2 9223   2.550   4.191   0.209  1.6712 -1.9044  0.5634
 3073TIP3   OH2 9224   0.621   5.565   1.987  0.4591  0.7965 -0.0509
 3073TIP3    H1 9225   0.550   5.535   1.930  1.2264  0.6893 -0.9852
 3073TIP3    H2 9226   0.670   5.627   1.933  1.5680  0.2291  0.2741
 3074TIP3   OH2 9227   5.427   0.644   4.006  0.7067 -0.5129 -0.1203
 3074TIP3    H1 9228   5.487   0.625   3.934  0.2628 -0.7257 -0.4402
 3074TIP3    H2 9229   5.341   0.650   3.965  0.3096 -1.5548  0.5061
 3075TIP3   OH2 9230   0.758   0.122   2.590 -0.2146 -0.1798  0.2502
 3075TIP3    H1 9231   0.790   0.208   2.562  2.2196 -0.3222  2.1712
 3075TIP3    H2 9232   0.818   0.060   2.550 -0.4797 -0.8013  0.7993
 3076TIP3   OH2 9233   5.477   0.138   4.080  0.2138 -0.1146  0.0936
 3076TIP3    H1 9234   5.501   0.088   4.157  1.2518  0.1121 -0.0766
 3076TIP3    H2 9235   5.551   0.195   4.063 -0.0681 -0.0265 -0.9604
 3077TIP3   OH2 9236   3.720   3.492   4.844  0.3162  0.0376  0.2796
 3077TIP3    H1 9237   3.664   3.455   4.912 -0.3541  0.5903  0.0399
 3077TIP3    H2 9238   3.669   3.563   4.806  0.8330 -0.0072 -0.5412
 3078TIP3   OH2 9239   0.587   0.095   3.989  0.0915 -1.0108  0.3619
 3078TIP3    H1 9240   0.524   0.167   3.993  0.9588  0.0252 -2.5161
 3078TIP3    H2 9241   0.654   0.118   4.054 -0.2494  0.1867  0.3023
 3079TIP3   OH2 9242   1.273   0.372   3.453  0.3838  0.3285  0.2061
 3079TIP3    H1 9243   1.224   0.289   3.453 -0.5176  0.8421  1.1390
 3079TIP3    H2 9244   1.206   0.439   3.464  1.1108  1.1950 -0.5662
 3080TIP3   OH2 9245   0.153   2.948   1.243  0.7316  0.1238  0.2575
 3080TIP3    H1 9246   0.067   2.907   1.252 -0.8747  2.9428 -0.9970
 3080TIP3    H2 9247   0.158   2.971   1.150  2.0723  1.6076  0.6627
 3081TIP3   OH2 9248   5.261   0.230   1.048 -1.1422  0.4137 -0.3290
 3081TIP3    H1 9249   5.321   0.218   0.974 -2.0635 -1.0936 -0.8803
 3081TIP3    H2 9250   5.192   0.286   1.014 -1.2520  0.2177 -0.4316
 3082TIP3   OH2 9251   5.122   2.965   0.954  0.1459  0.1790 -0.1563
 3082TIP3    H1 9252   5.042   2.921   0.924 -1.0521  1.2122  1.3523
 3082TIP3    H2 9253   5.193   2.906   0.930 -1.0881 -0.8404 -1.4104
 3083TIP3   OH2 9254   0.661   3.096   1.629 -0.1626 -0.2255  0.4445
 3083TIP3    H1 9255   0.668   3.022   1.569 -1.2542 -0.0896  0.1297
 3083TIP3    H2 9256   0.749   3.134   1.630  0.7186 -2.1228  1.4222
 3084TIP3   OH2 9257   4.037   3.037   2.233 -0.2788  0.0290 -0.2844
 3084TIP3    H1 9258   3.981   3.113   2.217  1.3220  0.9731 -1.6951
 3084TIP3    H2 9259   4.022   2.979   2.159 -0.1238 -0.1903 -0.1467
 3085TIP3   OH2 9260   5.607   3.737   2.953 -0.1633 -0.2285  0.5024
 3085TIP3    H1 9261   5.649   3.651   2.958 -1.0459 -0.6614  0.5803
 3085TIP3    H2 9262   5.672   3.797   2.990  1.3621 -0.5082 -1.5225
 3086TIP3   OH2 9263   6.108   5.445   4.043  0.0505 -0.3217  0.2178
 3086TIP3    H1 9264   6.021   5.463   4.078 -0.0926  0.5144 -0.5318
 3086TIP3    H2 9265   6.144   5.532   4.024  1.2595 -0.6303  1.0050
 3087TIP3   OH2 9266   2.801   0.033   3.954 -0.9670  0.1508 -0.2584
 3087TIP3    H1 9267   2.836  -0.052   3.928  0.0063  0.5180 -0.1690
 3087TIP3    H2 9268   2.852   0.097   3.904 -1.2708  0.7156  0.1405
 3088TIP3   OH2 9269   1.149   0.624   3.481  0.1525 -0.4694  0.0679
 3088TIP3    H1 9270   1.127   0.627   3.388  0.0850 -0.1951  0.0944
 3088TIP3    H2 9271   1.244   0.633   3.483  0.2268 -1.1377 -0.0127
 3089TIP3   OH2 9272   0.860   4.476   2.300 -0.3210  0.3375  0.2470
 3089TIP3    H1 9273   0.840   4.505   2.388 -1.0327  0.0101  0.1980
 3089TIP3    H2 9274   0.806   4.531   2.243 -0.7350 -0.2211  0.0885
 3090TIP3   OH2 9275   5.870   4.996   2.463 -0.0691 -0.6179 -0.2989
 3090TIP3    H1 9276   5.806   5.016   2.532  0.5712  0.9436 -0.1026
 3090TIP3    H2 9277   5.953   5.027   2.498  0.4221 -0.6287 -1.4144
 3091TIP3   OH2 9278   6.178   0.845   2.936  0.5378  0.0881 -0.1666
 3091TIP3    H1 9279   6.176   0.882   2.847  1.1630 -0.5705 -0.4658
 3091TIP3    H2 9280   6.233   0.904   2.986  0.4692  0.2703 -0.3053
 3092TIP3   OH2 9281   2.888   3.863   4.683  0.1122  0.1961 -0.4479
 3092TIP3    H1 9282   2.856   3.892   4.768  0.0140 -0.3292 -0.3025
 3092TIP3    H2 9283   2.823   3.893   4.621  0.1345  0.4967 -0.3280
 3093TIP3   OH2 9284   2.243   2.450   3.568  0.0768  0.1869  0.0545
 3093TIP3    H1 9285   2.193   2.529   3.545 -0.1893 -0.0584 -0.2242
 3093TIP3    H2 9286   2.284   2.423   3.486 -0.5663 -0.4759 -0.0630
 3094TIP3   OH2 9287   5.540   0.317   3.236  0.5702 -0.1220  0.6903
 3094TIP3    H1 9288   5.449   0.303   3.259  0.3461  1.4883  0.9018
 3094TIP3    H2 9289   5.540   0.397   3.184  1.7711 -0.5399 -0.0002
 3095TIP3   OH2 9290   4.459   3.690   4.108  0.2248 -0.2421  1.0702
 3095TIP3    H1 9291   4.411   3.616   4.071 -0.2419  0.4839  0.1928
 3095TIP3    H2 9292   4.551   3.665   4.098  0.2164  0.5605 -2.1253
 3096TIP3   OH2 9293   5.678   5.182   0.481  0.5557 -0.1522 -0.2315
 3096TIP3    H1 9294   5.679   5.272   0.449 -0.1223 -0.4854 -1.2434
 3096TIP3    H2 9295   5.751   5.139   0.437  0.4104 -0.2845 -0.3468
 3097TIP3   OH2 9296   6.049   2.831   2.561  0.3357 -0.0059 -0.1918
 3097TIP3    H1 9297   6.144   2.840   2.570  0.3723 -1.9053  2.5648
 3097TIP3    H2 9298   6.030   2.863   2.473  3.7794 -1.3914 -1.5966
 3098TIP3   OH2 9299   1.399   0.246   2.978 -0.2403  0.0553 -0.0375
 3098TIP3    H1 9300   1.382   0.317   3.040  0.3235  0.5968 -0.4984
 3098TIP3    H2 9301   1.352   0.271   2.899 -0.5060 -0.3658 -0.0151
 3099TIP3   OH2 9302   5.857   3.432   1.529  0.3330 -0.7348 -0.0829
 3099TIP3    H1 9303   5.904   3.365   1.578  1.0498 -0.1667  0.0090
 3099TIP3    H2 9304   5.839   3.391   1.444 -1.6815 -2.0442  0.8791
 3100TIP3   OH2 9305   2.085   1.471   0.318  0.4605  0.1869 -0.2242
 3100TIP3    H1 9306   2.151   1.458   0.385  0.4283  1.2944  0.0360
 3100TIP3    H2 9307   2.008   1.425   0.351 -0.0079  1.8828  1.2147
 3101TIP3   OH2 9308   2.995   4.197   3.267 -0.2845 -0.0123 -0.6064
 3101TIP3    H1 9309   3.077   4.147   3.272 -0.3675 -0.0890  0.3021
 3101TIP3    H2 9310   2.929   4.138   3.303 -0.5878  0.3531 -0.5536
 3102TIP3   OH2 9311   1.738   3.732   4.400 -0.4598 -0.4045 -0.3830
 3102TIP3    H1 9312   1.687   3.806   4.369  0.8895  0.0832 -1.5908
 3102TIP3    H2 9313   1.805   3.719   4.332  0.4958 -1.5284  0.7166
 3103TIP3   OH2 9314   1.458   1.887   4.408 -0.1911 -0.6123  0.3117
 3103TIP3    H1 9315   1.528   1.834   4.447  0.3342 -1.1329 -1.2973
 3103TIP3    H2 9316   1.390   1.825   4.386 -0.1043 -0.4500 -0.4260
 3104TIP3   OH2 9317   0.242   1.748   2.173 -0.3121  0.5382  0.2683
 3104TIP3    H1 9318   0.184   1.683   2.213 -1.2565  0.5564 -1.0179
 3104TIP3    H2 9319   0.322   1.744   2.226 -0.6890 -1.0028  0.7876
 3105TIP3   OH2 9320   1.047   3.072   5.181  0.1226  0.3888  0.5147
 3105TIP3    H1 9321   1.135   3.060   5.147  1.0571 -0.3710  2.9955
 3105TIP3    H2 9322   0.993   3.010   5.131  1.2131 -0.0002 -0.2071
 3106TIP3   OH2 9323   5.799   4.309   4.630 -0.4897  0.0115  0.3732
 3106TIP3    H1 9324   5.791   4.358   4.549  0.2590 -0.0207  0.2704
 3106TIP3    H2 9325   5.873   4.249   4.615  0.1385  0.5207  1.3234
 3107TIP3   OH2 9326   6.078   0.110   3.619 -0.2975 -0.2614 -1.1492
 3107TIP3    H1 9327   6.163   0.079   3.652 -0.3421  0.8307  0.0851
 3107TIP3    H2 9328   6.097   0.197   3.582 -0.5217 -0.8712 -2.7648
 3108TIP3   OH2 9329   5.141   5.562   3.841 -0.0032  0.8181  0.1977
 3108TIP3    H1 9330   5.057   5.557   3.796  0.4390 -0.3469 -0.5495
 3108TIP3    H2 9331   5.180   5.644   3.811  0.0494  0.3133 -1.1414
 3109TIP3   OH2 9332   0.750   2.088   1.198 -0.4194 -0.4040  0.6365
 3109TIP3    H1 9333   0.744   2.047   1.284 -0.2608 -0.2588  0.7180
 3109TIP3    H2 9334   0.831   2.139   1.202 -0.6969  0.0398  0.5863
 3110TIP3   OH2 9335   0.784   3.757   0.130  0.1306  0.1867  0.1071
 3110TIP3    H1 9336   0.743   3.673   0.112  0.9011 -0.2935  0.5170
 3110TIP3    H2 9337   0.712   3.820   0.129 -0.3549 -0.3480 -0.9938
 3111TIP3   OH2 9338   4.429   3.770   0.597  0.0334 -0.1233 -0.4731
 3111TIP3    H1 9339   4.468   3.783   0.683 -0.8588 -0.5751  0.0217
 3111TIP3    H2 9340   4.498   3.794   0.535  0.7968 -0.1077  0.3599
 3112TIP3   OH2 9341   0.681   0.674   0.535 -0.1048 -0.4968 -0.2082
 3112TIP3    H1 9342   0.610   0.714   0.483  0.2292  1.9115  1.0199
 3112TIP3    H2 9343   0.636   0.612   0.592 -1.5817  1.8959  1.4664
 3113TIP3   OH2 9344   4.685   2.679   3.220  0.0483  0.4859  0.2753
 3113TIP3    H1 9345   4.635   2.706   3.143 -0.3300  0.2151  0.4252
 3113TIP3    H2 9346   4.752   2.747   3.230  0.3657  0.3026 -0.5353
 3114TIP3   OH2 9347   2.558   2.975   2.730  0.6804 -0.5067 -0.0445
 3114TIP3    H1 9348   2.465   2.957   2.717  0.1639  1.4669  0.6512
 3114TIP3    H2 9349   2.567   3.069   2.720  2.3101 -0.4244  1.5551
 3115TIP3   OH2 9350   1.838   1.968   3.153 -1.1401 -0.0224  0.2883
 3115TIP3    H1 9351   1.880   2.048   3.120  1.6036 -1.0379  1.0341
 3115TIP3    H2 9352   1.832   1.982   3.248 -1.2932 -0.4101  0.3375
 3116TIP3   OH2 9353   4.276   0.963   3.378 -0.2431  0.0346  1.0583
 3116TIP3    H1 9354   4.340   0.911   3.331  0.3856  1.5250  0.1718
 3116TIP3    H2 9355   4.196   0.910   3.377 -0.6673  0.4363 -2.8776
 3117TIP3   OH2 9356   4.665   0.155   2.147  0.0396  0.0072 -0.2803
 3117TIP3    H1 9357   4.652   0.148   2.241  0.1384 -0.0626 -0.2719
 3117TIP3    H2 9358   4.635   0.243   2.124 -2.0584 -0.6964 -0.5083
 3118TIP3   OH2 9359   3.223   3.372   1.936 -0.2361  0.2794 -0.2758
 3118TIP3    H1 9360   3.255   3.384   2.025 -0.3875 -0.6269 -0.0901
 3118TIP3    H2 9361   3.178   3.454   1.916  0.1626  0.6535  0.3243
 3119TIP3   OH2 9362   3.980   5.228   3.444  0.1802 -0.5696  0.1004
 3119TIP3    H1 9363   3.942   5.308   3.408 -0.8418 -0.6359  1.0095
 3119TIP3    H2 9364   3.972   5.164   3.373  1.0997  0.1330 -0.6712
 3120TIP3   OH2 9365   5.451   3.471   1.024  0.0705  0.4689  0.4476
 3120TIP3    H1 9366   5.496   3.387   1.025  0.9520  0.8578 -1.3234
 3120TIP3    H2 9367   5.365   3.454   1.062  0.5280 -1.0414  0.8453
 3121TIP3   OH2 9368   1.564   4.063   0.552  0.3554 -0.8771 -0.0010
 3121TIP3    H1 9369   1.610   4.146   0.546  3.0069 -2.2791 -0.6868
 3121TIP3    H2 9370   1.558   4.032   0.461 -0.1428 -1.6652  0.2841
 3122TIP3   OH2 9371   4.464   5.435   2.607  0.3248 -0.0249  0.0204
 3122TIP3    H1 9372   4.380   5.391   2.595  1.4280 -1.9934 -0.9697
 3122TIP3    H2 9373   4.468   5.498   2.534 -0.1583 -0.1266 -0.1002
 3123TIP3   OH2 9374   5.470   0.787   2.957 -0.2860  0.0650  0.5173
 3123TIP3    H1 9375   5.506   0.700   2.972 -2.2505 -0.6496  1.3759
 3123TIP3    H2 9376   5.502   0.840   3.030 -1.9128 -0.8732  1.9520
 3124TIP3   OH2 9377   2.748   4.737   1.077 -0.2795  0.2618  0.2187
 3124TIP3    H1 9378   2.800   4.815   1.095  1.2540 -0.6993  0.1588
 3124TIP3    H2 9379   2.727   4.702   1.164  1.2290 -0.6126  0.2750
 3125TIP3   OH2 9380   1.469   5.109   0.245  0.0982  0.0207 -0.5195
 3125TIP3    H1 9381   1.418   5.106   0.326  0.8311 -0.8511 -0.0744
 3125TIP3    H2 9382   1.405   5.128   0.177 -0.7301 -0.5030  0.0987
 3126TIP3   OH2 9383   2.739   1.343   4.712  0.0484 -0.0395  0.3098
 3126TIP3    H1 9384   2.831   1.354   4.688  0.3528  1.4573  1.9698
 3126TIP3    H2 9385   2.690   1.386   4.641  0.6574 -0.2544 -0.2449
 3127TIP3   OH2 9386   5.330   2.056   1.158  0.2980 -0.8811  0.0286
 3127TIP3    H1 9387   5.361   2.123   1.098 -1.6451  0.2879  0.2569
 3127TIP3    H2 9388   5.362   1.974   1.120  0.7138 -0.0243 -1.5680
 3128TIP3   OH2 9389   1.804   4.226   1.242 -0.1770 -0.0517  0.2841
 3128TIP3    H1 9390   1.851   4.268   1.314 -1.1602  1.5497  0.0605
 3128TIP3    H2 9391   1.715   4.215   1.275 -0.3894 -0.2300 -0.3365
 3129TIP3   OH2 9392   5.459   2.410   2.676 -0.0072  0.5732 -0.1865
 3129TIP3    H1 9393   5.374   2.443   2.704 -0.6749 -1.8077  0.8069
 3129TIP3    H2 9394   5.454   2.315   2.689  1.7824 -0.0016 -2.8151
 3130TIP3   OH2 9395   3.406   0.994   0.575  0.2404  0.0142 -0.1475
 3130TIP3    H1 9396   3.448   0.935   0.638  0.3591 -0.7655 -0.9474
 3130TIP3    H2 9397   3.391   1.075   0.625  1.8078 -0.0101  0.4170
 3131TIP3   OH2 9398   0.989   5.771   1.964  0.2629  1.5488  0.1094
 3131TIP3    H1 9399   1.026   5.788   2.051  1.8738 -0.2252 -0.1653
 3131TIP3    H2 9400   1.051   5.812   1.904  2.0638 -1.5610 -0.3675
 3132TIP3   OH2 9401   0.659   2.695   0.665 -0.4888  0.0975 -0.4418
 3132TIP3    H1 9402   0.617   2.718   0.747 -1.1972 -1.8569 -0.2195
 3132TIP3    H2 9403   0.694   2.778   0.632 -1.8605  1.2412  0.8627
 3133TIP3   OH2 9404   0.842   4.447   0.591 -0.3163 -0.1247 -0.4653
 3133TIP3    H1 9405   0.836   4.374   0.529  0.0782 -1.3275  0.8476
 3133TIP3    H2 9406   0.936   4.457   0.607 -0.1889  2.0419 -2.1246
 3134TIP3   OH2 9407   1.862   1.446   1.889 -0.3063 -0.3928 -0.7930
 3134TIP3    H1 9408   1.816   1.465   1.971 -0.2401 -0.8103 -0.6572
 3134TIP3    H2 9409   1.919   1.521   1.875 -2.5575  1.2112 -2.0793
 3135TIP3   OH2 9410   3.150   1.217   0.524 -0.2975 -0.1446 -0.1513
 3135TIP3    H1 9411   3.108   1.166   0.593  0.1339 -0.3295 -0.0192
 3135TIP3    H2 9412   3.221   1.263   0.569  0.2325 -0.5741 -0.5425
 3136TIP3   OH2 9413   4.311   0.137   4.007 -0.4347 -0.1556  0.1184
 3136TIP3    H1 9414   4.376   0.109   4.071  1.0277  0.9661 -0.8133
 3136TIP3    H2 9415   4.239   0.172   4.059  0.4973  0.2626  1.1580
 3137TIP3   OH2 9416   0.932   0.664   0.368 -0.1139  0.1314  0.3240
 3137TIP3    H1 9417   0.911   0.646   0.277 -0.3627 -0.2679  0.4549
 3137TIP3    H2 9418   0.849   0.649   0.415 -0.7505  2.9686  0.2998
 3138TIP3   OH2 9419   3.918   0.945   0.577 -0.7073  0.6597  0.0868
 3138TIP3    H1 9420   4.006   0.974   0.600  0.6370 -1.4990 -1.8546
 3138TIP3    H2 9421   3.897   0.879   0.643  0.2057 -0.5447 -0.7786
 3139TIP3   OH2 9422  -0.012   1.217   4.232 -0.2512 -0.8813  0.0515
 3139TIP3    H1 9423   0.001   1.226   4.326  1.1686  2.1583 -0.3057
 3139TIP3    H2 9424   0.065   1.169   4.201  0.6004  0.3833  0.1693
 3140TIP3   OH2 9425   3.924   4.276   0.713 -0.7452 -0.0465  0.2669
 3140TIP3    H1 9426   3.964   4.285   0.627 -0.0347  0.2266  0.6144
 3140TIP3    H2 9427   3.833   4.302   0.700 -1.3006 -2.3649 -0.9105
 3141TIP3   OH2 9428   3.656   5.496   3.547  0.1710 -0.1805  0.0429
 3141TIP3    H1 9429   3.689   5.495   3.637 -0.7114 -0.7392  0.3810
 3141TIP3    H2 9430   3.609   5.579   3.540 -2.1991 -1.3430  1.0676
 3142TIP3   OH2 9431   3.657   2.597   4.617  0.0361 -0.2560 -0.1288
 3142TIP3    H1 9432   3.608   2.624   4.695  2.0034  0.4354  0.9444
 3142TIP3    H2 9433   3.592   2.553   4.562 -1.9256  1.2562  0.8486
 3143TIP3   OH2 9434   0.132   1.661   3.759  0.6964  0.0320  0.3331
 3143TIP3    H1 9435   0.152   1.585   3.812 -0.8914  0.1660  1.1843
 3143TIP3    H2 9436   0.071   1.712   3.812 -2.2427 -0.6023 -2.1662
 3144TIP3   OH2 9437   1.053   4.865   2.896 -0.0931 -0.5803 -0.3114
 3144TIP3    H1 9438   1.059   4.814   2.815  0.7302 -1.0115  0.0030
 3144TIP3    H2 9439   0.979   4.826   2.943  0.4447 -1.4199 -0.1342
 3145TIP3   OH2 9440   2.064   3.697   4.659  0.1261  0.2382 -0.3143
 3145TIP3    H1 9441   2.125   3.716   4.731  0.9480  0.2617 -1.0074
 3145TIP3    H2 9442   2.008   3.775   4.655 -0.3261 -0.0100  0.6776
 3146TIP3   OH2 9443   3.321   0.254   1.507  0.2726 -0.4626  0.3347
 3146TIP3    H1 9444   3.317   0.308   1.586  0.3931 -1.4611  1.0334
 3146TIP3    H2 9445   3.359   0.313   1.441  2.8584 -0.3957  1.7180
 3147TIP3   OH2 9446   5.391   1.317   1.364  0.4507  0.0215  0.4416
 3147TIP3    H1 9447   5.302   1.287   1.385  0.7458 -0.9961  0.2953
 3147TIP3    H2 9448   5.378   1.403   1.323 -0.4670 -0.0963  0.4589
 3148TIP3   OH2 9449   4.836   5.071   2.484  0.3484 -0.0955 -0.2603
 3148TIP3    H1 9450   4.895   5.088   2.557 -0.6219  0.3372  0.4433
 3148TIP3    H2 9451   4.866   5.130   2.415 -0.0646  1.1088  0.5537
 3149TIP3   OH2 9452   0.360   4.371   2.355  0.5950 -0.6229  0.3786
 3149TIP3    H1 9453   0.311   4.320   2.421  0.8926 -0.2856  0.8672
 3149TIP3    H2 9454   0.437   4.317   2.335  0.8146 -0.4525  0.7579
 3150TIP3   OH2 9455   1.289   1.660   0.174 -0.1769  0.2750  0.6471
 3150TIP3    H1 9456   1.212   1.704   0.138 -0.5785 -1.0264 -0.1401
 3150TIP3    H2 9457   1.292   1.688   0.266 -0.7824  1.4081  0.3434
 3151TIP3   OH2 9458   1.247   5.685   2.050  0.0940 -0.2210  0.1631
 3151TIP3    H1 9459   1.184   5.615   2.068  0.8086 -0.9381 -0.0996
 3151TIP3    H2 9460   1.247   5.693   1.955  0.3171 -0.1350  0.1702
 3152TIP3   OH2 9461   2.426   4.979   4.441 -0.0721 -0.0262  0.1859
 3152TIP3    H1 9462   2.377   4.982   4.524 -0.4793 -0.1420 -0.0443
 3152TIP3    H2 9463   2.478   4.899   4.448  0.7438  0.5412  0.7909
 3153TIP3   OH2 9464   5.411   4.923   1.805 -0.3479  0.0799 -0.4620
 3153TIP3    H1 9465   5.320   4.892   1.804 -0.8802  1.5917 -0.2621
 3153TIP3    H2 9466   5.428   4.946   1.897 -0.6175  2.1714 -0.8954
 3154TIP3   OH2 9467   3.495   1.219   0.133 -0.0051  0.2668  0.2384
 3154TIP3    H1 9468   3.493   1.279   0.208 -0.0644  1.1772 -0.4844
 3154TIP3    H2 9469   3.423   1.248   0.077  0.8277  0.4087 -0.7867
 3155TIP3   OH2 9470   3.909   1.522   2.124 -0.1500  0.0854  0.5232
 3155TIP3    H1 9471   3.818   1.503   2.101  0.0433 -1.0339  0.6226
 3155TIP3    H2 9472   3.931   1.457   2.190  0.3871  1.0607  1.3416
 3156TIP3   OH2 9473   4.162   2.237   0.755 -0.0315 -0.9147  0.4115
 3156TIP3    H1 9474   4.153   2.199   0.668 -1.5764  2.7868 -1.2015
 3156TIP3    H2 9475   4.082   2.210   0.801 -0.1660 -1.2301  0.0024
 3157TIP3   OH2 9476   3.540   5.425   2.695 -0.1037 -0.1029  0.1837
 3157TIP3    H1 9477   3.609   5.479   2.655  0.4864 -1.9447 -1.4145
 3157TIP3    H2 9478   3.582   5.387   2.773  0.2031 -0.0436  0.0495
 3158TIP3   OH2 9479   2.760   4.980   2.435 -0.5240  0.2930 -0.4993
 3158TIP3    H1 9480   2.838   5.001   2.486 -0.8452  1.1287 -0.3389
 3158TIP3    H2 9481   2.771   5.029   2.353 -0.7446  0.1775 -0.6007
 3159TIP3   OH2 9482   1.517   1.752   3.547  0.1175 -0.6605  0.1499
 3159TIP3    H1 9483   1.609   1.731   3.564  0.6908  1.4982 -0.0172
 3159TIP3    H2 9484   1.490   1.688   3.482  1.6074 -1.1008 -0.0926
 3160TIP3   OH2 9485   4.181   3.252   3.856 -0.0110 -0.4720 -0.3517
 3160TIP3    H1 9486   4.177   3.179   3.918  0.9003 -1.4783 -1.4178
 3160TIP3    H2 9487   4.275   3.266   3.842 -0.1880  0.5532 -0.5751
 3161TIP3   OH2 9488   4.598   4.405   2.116  0.0643 -0.2256 -0.3838
 3161TIP3    H1 9489   4.655   4.352   2.173 -0.3551 -1.0599 -0.7368
 3161TIP3    H2 9490   4.651   4.420   2.038  0.8234  1.3153  0.3643
 3162TIP3   OH2 9491   0.580   4.509   4.140 -0.0453 -0.3904  0.3715
 3162TIP3    H1 9492   0.653   4.519   4.202  1.4104 -0.4947 -1.2513
 3162TIP3    H2 9493   0.537   4.428   4.168 -0.3193  0.3039  2.0939
 3163TIP3   OH2 9494   5.738   1.169   2.009  0.5044  0.1711 -0.0855
 3163TIP3    H1 9495   5.813   1.123   2.045  1.6139  2.1185  0.2187
 3163TIP3    H2 9496   5.774   1.223   1.939 -0.7881  0.4182 -0.5932
 3164TIP3   OH2 9497   4.790   0.769   3.143  0.2822 -0.1677  0.0839
 3164TIP3    H1 9498   4.732   0.799   3.074 -0.1483 -1.4583 -0.1503
 3164TIP3    H2 9499   4.869   0.822   3.134  0.0684 -0.0400 -1.1258
 3165TIP3   OH2 9500   2.048   2.391   4.113  0.2925 -0.0126 -0.3815
 3165TIP3    H1 9501   2.071   2.472   4.158  1.0704  0.0210 -0.8325
 3165TIP3    H2 9502   2.127   2.366   4.065 -1.2700  1.4546 -4.0958
 3166TIP3   OH2 9503   2.356   3.109   0.225  0.0873 -0.1300 -0.2369
 3166TIP3    H1 9504   2.389   3.037   0.171 -0.1239 -1.9408  1.9171
 3166TIP3    H2 9505   2.375   3.187   0.174  0.6517 -1.6534 -2.5355
 3167TIP3   OH2 9506   1.634   0.300   5.066  0.7529  0.2745  0.0085
 3167TIP3    H1 9507   1.553   0.307   5.017  1.5224  0.7156 -1.2599
 3167TIP3    H2 9508   1.609   0.263   5.150 -0.7729  0.5639 -0.3005
 3168TIP3   OH2 9509   1.075   0.596   4.246  0.6021 -0.0250 -0.6655
 3168TIP3    H1 9510   1.068   0.503   4.225  0.1311  0.2429 -1.7889
 3168TIP3    H2 9511   1.047   0.641   4.166 -1.1273  1.0764  0.4718
 3169TIP3   OH2 9512   3.376   2.661   3.275  0.2489 -0.2921 -0.4606
 3169TIP3    H1 9513   3.338   2.582   3.235  1.1410 -0.9911  0.0353
 3169TIP3    H2 9514   3.388   2.638   3.367 -0.0839  0.6594 -0.1741
 3170TIP3   OH2 9515   0.712   5.047   1.439 -0.8068 -0.3067 -0.0602
 3170TIP3    H1 9516   0.651   5.002   1.498 -1.0444 -2.5454 -1.8483
 3170TIP3    H2 9517   0.657   5.096   1.379 -0.7267 -0.3051 -0.1335
 3171TIP3   OH2 9518   4.154   2.234   5.069 -0.0921  0.0250  0.2119
 3171TIP3    H1 9519   4.097   2.157   5.061  0.0721 -0.1940  1.0204
 3171TIP3    H2 9520   4.239   2.204   5.039 -0.0362 -0.1041  0.4948
 3172TIP3   OH2 9521   6.178   3.974   0.243  0.1403 -0.7849  0.8316
 3172TIP3    H1 9522   6.195   4.027   0.320 -0.1319  2.0903 -0.9589
 3172TIP3    H2 9523   6.189   4.033   0.169  0.7702 -3.4852 -1.4339
 3173TIP3   OH2 9524   4.698   2.889   2.592  0.0456  0.1078 -0.2671
 3173TIP3    H1 9525   4.773   2.836   2.619 -0.6166 -0.5021  0.4358
 3173TIP3    H2 9526   4.622   2.833   2.610 -0.4853 -0.1514 -2.9739
 3174TIP3   OH2 9527   3.098   5.896   4.294 -0.7148  0.1396 -0.0529
 3174TIP3    H1 9528   3.077   5.803   4.284 -1.0479  0.1013  0.9120
 3174TIP3    H2 9529   3.194   5.900   4.289 -0.6777 -0.3112  0.2538
 3175TIP3   OH2 9530   3.710   4.380   2.614  0.2514 -0.1603 -0.0746
 3175TIP3    H1 9531   3.633   4.384   2.556 -0.3615 -1.8867  0.5595
 3175TIP3    H2 9532   3.725   4.287   2.627  2.6426  0.1301 -0.3757
 3176TIP3   OH2 9533   3.681   4.203   1.473 -0.3627  0.4838 -0.1006
 3176TIP3    H1 9534   3.591   4.169   1.469 -0.7218  1.4544 -2.1103
 3176TIP3    H2 9535   3.670   4.297   1.487  0.3957  0.4595  0.7045
 3177TIP3   OH2 9536   0.886   4.533   1.981 -0.2563  0.1749  0.0514
 3177TIP3    H1 9537   0.813   4.582   2.018 -1.0550 -0.7318 -0.2665
 3177TIP3    H2 9538   0.844   4.469   1.923  0.8787  0.6715 -1.3709
 3178TIP3   OH2 9539   3.290   2.241   4.443 -0.0007  0.5670 -0.0319
 3178TIP3    H1 9540   3.221   2.298   4.408 -1.6246 -0.2264  1.7254
 3178TIP3    H2 9541   3.328   2.198   4.365 -1.6675  0.8210 -1.0229
 3179TIP3   OH2 9542   0.612   5.283   1.174 -0.1553  0.1627  1.0414
 3179TIP3    H1 9543   0.532   5.239   1.203 -0.6629  1.3585  1.5163
 3179TIP3    H2 9544   0.607   5.371   1.212  1.0752  0.4786  0.5406
 3180TIP3   OH2 9545   2.711   2.031   2.198 -0.3114 -0.1927  0.4821
 3180TIP3    H1 9546   2.676   2.120   2.210 -0.9730 -0.5669  1.5332
 3180TIP3    H2 9547   2.672   1.981   2.270  1.2538 -0.9788  0.8110
 3181TIP3   OH2 9548   0.339   1.759   2.486 -0.2365 -0.1244 -0.0851
 3181TIP3    H1 9549   0.311   1.842   2.447  1.3987  0.6619  0.3064
 3181TIP3    H2 9550   0.340   1.777   2.581 -0.3241 -0.7477  0.0375
 3182TIP3   OH2 9551   4.381   2.205   1.385  0.1007 -0.5095  0.1414
 3182TIP3    H1 9552   4.290   2.217   1.356 -0.0158  0.2018  0.7647
 3182TIP3    H2 9553   4.431   2.271   1.337 -0.1031  0.7166  1.5350
 3183TIP3   OH2 9554   3.699   3.054   4.929 -0.2795  0.7011 -0.0173
 3183TIP3    H1 9555   3.638   3.042   4.856 -0.6824 -2.7611  0.7064
 3183TIP3    H2 9556   3.785   3.065   4.887 -0.9365  2.5144 -0.9902
 3184TIP3   OH2 9557   1.852   3.405   0.355  0.3608  0.0953 -0.0330
 3184TIP3    H1 9558   1.779   3.433   0.411  0.5988  0.7034 -0.0175
 3184TIP3    H2 9559   1.810   3.373   0.275 -0.0785 -2.2025  1.0476
 3185TIP3   OH2 9560   0.313   2.015   2.411  0.2984 -0.1123  0.0693
 3185TIP3    H1 9561   0.235   2.064   2.387 -0.3752 -0.5209  1.3452
 3185TIP3    H2 9562   0.380   2.043   2.348 -0.9529 -0.0197 -1.2745
 3186TIP3   OH2 9563   4.551   1.681   4.817  0.0793 -0.3017  0.2980
 3186TIP3    H1 9564   4.626   1.660   4.762  0.6459 -0.2202  1.0216
 3186TIP3    H2 9565   4.475   1.655   4.765  0.5688  0.3026 -0.7397
 3187TIP3   OH2 9566   1.683   5.096   1.060  0.0298  0.2112 -0.2220
 3187TIP3    H1 9567   1.661   5.052   0.978 -2.8029  1.0972 -0.0573
 3187TIP3    H2 9568   1.715   5.182   1.033 -1.9448  0.9255 -0.4769
 3188TIP3   OH2 9569   3.196   2.494   1.843 -0.5822  0.1017 -0.0432
 3188TIP3    H1 9570   3.113   2.535   1.864 -0.2327  0.5508  0.5094
 3188TIP3    H2 9571   3.176   2.430   1.775 -1.3694  0.2165  0.0802
 3189TIP3   OH2 9572   6.224   1.478   4.685 -0.0206 -0.2769  0.2687
 3189TIP3    H1 9573   6.244   1.572   4.689  0.6795 -0.3898 -0.2801
 3189TIP3    H2 9574   6.296   1.436   4.733  1.0770 -0.6847 -1.6174
 3190TIP3   OH2 9575   2.931   5.356   4.845 -0.6092 -0.6793 -0.1621
 3190TIP3    H1 9576   2.872   5.352   4.920  0.3586  1.3617  0.7879
 3190TIP3    H2 9577   3.011   5.313   4.876  0.3434  1.4842  0.6310
 3191TIP3   OH2 9578   2.602   1.868   4.628 -0.2885  0.2146 -0.0005
 3191TIP3    H1 9579   2.675   1.901   4.681 -0.0324  0.6235 -0.6013
 3191TIP3    H2 9580   2.562   1.947   4.590 -1.2457  0.0259  0.5685
 3192TIP3   OH2 9581   4.080   5.033   5.059  0.0476  0.3569  0.2748
 3192TIP3    H1 9582   4.159   4.983   5.034  0.0504 -0.2620  1.4689
 3192TIP3    H2 9583   4.099   5.122   5.031  0.7678  0.0256 -0.3439
 3193TIP3   OH2 9584   2.815   3.724   0.577 -0.2318  0.1943 -0.1068
 3193TIP3    H1 9585   2.762   3.773   0.639  1.9567  2.8342 -0.1394
 3193TIP3    H2 9586   2.846   3.648   0.627 -0.3978  1.0166  1.2953
 3194TIP3   OH2 9587   3.509   4.137   5.179  0.1174  0.0440  0.2362
 3194TIP3    H1 9588   3.560   4.199   5.127 -0.1657 -0.1032 -0.2153
 3194TIP3    H2 9589   3.449   4.096   5.117 -0.9573  0.6324  0.8654
 3195TIP3   OH2 9590   4.719   1.720   0.985  0.1273  0.0276 -0.3895
 3195TIP3    H1 9591   4.711   1.789   1.051 -2.1802  1.0734 -1.6481
 3195TIP3    H2 9592   4.778   1.656   1.024  1.1326  1.9848  1.4553
 3196TIP3   OH2 9593   1.591   1.798   4.963  0.4336 -0.4813 -0.0389
 3196TIP3    H1 9594   1.532   1.849   4.907 -0.8343 -0.9381  0.8264
 3196TIP3    H2 9595   1.578   1.707   4.935  0.6408 -0.5960  0.2370
 3197TIP3   OH2 9596   5.556   5.715   2.054 -0.6540 -0.1016  0.3876
 3197TIP3    H1 9597   5.589   5.761   2.130 -0.5905 -0.8426  0.8228
 3197TIP3    H2 9598   5.540   5.626   2.085 -1.5905 -0.1531 -0.2106
 3198TIP3   OH2 9599   0.706   5.962   0.345  0.0818 -0.0054 -0.2439
 3198TIP3    H1 9600   0.786   5.977   0.294  0.9983 -0.4847  0.9942
 3198TIP3    H2 9601   0.676   5.875   0.317  0.5238 -0.2246 -0.0575
 3199TIP3   OH2 9602   3.789   1.460   1.510  0.1470 -0.6245  0.3872
 3199TIP3    H1 9603   3.809   1.487   1.421 -0.4928  0.0108  0.4301
 3199TIP3    H2 9604   3.868   1.414   1.539  0.1446 -1.3589 -0.6975
 3200TIP3   OH2 9605   0.313   4.231   0.180 -0.2725  0.3426  0.1536
 3200TIP3    H1 9606   0.330   4.321   0.152  1.0135  0.6106  1.6350
 3200TIP3    H2 9607   0.392   4.183   0.153 -0.9543 -0.3742 -0.6384
 3201TIP3   OH2 9608   0.151   5.267   0.704 -0.1811 -0.3130  1.0242
 3201TIP3    H1 9609   0.153   5.313   0.620  0.7192  2.3094  2.3912
 3201TIP3    H2 9610   0.076   5.305   0.750 -0.1820 -1.1493  1.7323
 3202TIP3   OH2 9611   6.165   3.948   0.601 -0.0696  0.1067  0.5380
 3202TIP3    H1 9612   6.128   3.865   0.569  0.6829 -0.0518  0.0578
 3202TIP3    H2 9613   6.105   4.015   0.567  0.6202 -0.0731 -1.1222
 3203TIP3   OH2 9614   3.277   4.468  -0.011  0.1778 -0.5806 -0.1867
 3203TIP3    H1 9615   3.260   4.457   0.082 -0.1507 -0.5728 -0.2446
 3203TIP3    H2 9616   3.298   4.561  -0.021 -0.7702 -0.3664 -0.2681
 3204TIP3   OH2 9617   5.707   2.297   2.369 -0.8479  0.7448  0.3548
 3204TIP3    H1 9618   5.669   2.378   2.403  0.0556  1.2414  0.2314
 3204TIP3    H2 9619   5.677   2.229   2.429 -0.2031  1.4382  1.4949
 3205TIP3   OH2 9620   3.737   1.208   4.920 -0.2445 -0.2108  0.6142
 3205TIP3    H1 9621   3.830   1.186   4.911 -0.2927  0.0199 -0.4928
 3205TIP3    H2 9622   3.726   1.227   5.013  0.6068 -1.1859  0.9299
 3206TIP3   OH2 9623   0.111   3.274   1.447 -0.4182  0.7352  0.9273
 3206TIP3    H1 9624   0.122   3.278   1.352 -0.9491  1.0509  0.8795
 3206TIP3    H2 9625   0.160   3.350   1.480  0.3737  0.2280  0.9713
 3207TIP3   OH2 9626   4.211   3.258   1.621 -0.3804  0.4991 -0.2593
 3207TIP3    H1 9627   4.153   3.312   1.675 -0.4850  1.3450 -1.1769
 3207TIP3    H2 9628   4.162   3.177   1.607  0.0643 -0.1699  1.7215
 3208TIP3   OH2 9629   0.529   3.094   4.065  0.3340  0.4224 -0.2516
 3208TIP3    H1 9630   0.434   3.101   4.081  0.1019 -1.9117 -0.2312
 3208TIP3    H2 9631   0.537   3.089   3.970  0.1572 -1.6327 -0.2107
 3209TIP3   OH2 9632   4.087   4.070   4.114 -0.2486 -0.5505  0.4209
 3209TIP3    H1 9633   3.996   4.041   4.106 -0.9497  0.9362  2.2662
 3209TIP3    H2 9634   4.136   3.989   4.132 -1.4910 -1.1657  1.1852
 3210TIP3   OH2 9635   4.519   4.762   4.426 -0.4735  0.0535  0.0838
 3210TIP3    H1 9636   4.449   4.819   4.396 -2.1209 -2.2685 -0.7475
 3210TIP3    H2 9637   4.587   4.771   4.358 -0.3642  1.5208  0.3516
 3211TIP3   OH2 9638   5.204   4.747   4.506  0.4085 -0.4586  0.2145
 3211TIP3    H1 9639   5.240   4.696   4.434  1.8773  1.3182 -0.3867
 3211TIP3    H2 9640   5.110   4.729   4.504  0.7635 -2.4270 -0.4771
 3212TIP3   OH2 9641   1.778   5.819   3.885 -0.1704 -0.8948 -0.4380
 3212TIP3    H1 9642   1.840   5.800   3.954 -0.3900 -0.7672 -0.2036
 3212TIP3    H2 9643   1.697   5.843   3.931  0.1227  0.7083 -0.7056
 3213TIP3   OH2 9644   6.169   3.254   1.427  0.2482  0.4006  0.5932
 3213TIP3    H1 9645   6.121   3.236   1.508  0.1104 -0.7748  0.2737
 3213TIP3    H2 9646   6.261   3.244   1.451  0.3282  2.0343  1.0584
 3214TIP3   OH2 9647   3.463   1.017   1.825 -0.2726  0.1426  0.0040
 3214TIP3    H1 9648   3.388   1.046   1.877 -0.5362  0.2306 -0.4152
 3214TIP3    H2 9649   3.531   1.082   1.841 -0.4399  0.3090  0.0379
 3215TIP3   OH2 9650   4.024   3.589   4.531  0.0996  0.1083  0.5966
 3215TIP3    H1 9651   4.007   3.499   4.559 -0.2076  0.1435  0.5300
 3215TIP3    H2 9652   4.078   3.581   4.452  3.9648  0.0354  3.0049
 3216TIP3   OH2 9653   3.418   0.427   2.049  0.0130 -0.5847  0.0097
 3216TIP3    H1 9654   3.502   0.388   2.074  0.3764  0.9108  1.3156
 3216TIP3    H2 9655   3.441   0.492   1.983 -0.1386 -0.3729  0.1641
 3217TIP3   OH2 9656   0.942   4.683   3.834 -0.3772  0.0347  0.2903
 3217TIP3    H1 9657   0.974   4.666   3.923 -0.4824 -2.1972 -0.0296
 3217TIP3    H2 9658   0.976   4.610   3.782 -0.4342  1.2112 -1.4971
 3218TIP3   OH2 9659   0.692   5.973   2.485  0.0752 -0.1209 -0.2305
 3218TIP3    H1 9660   0.671   6.036   2.416 -0.3657 -1.2431 -1.1322
 3218TIP3    H2 9661   0.633   5.900   2.471  0.0306 -0.4219  1.2984
 3219TIP3   OH2 9662   5.985   3.878   4.857 -0.2296 -0.0707 -0.3472
 3219TIP3    H1 9663   6.005   3.790   4.888 -0.7307  0.6277  2.2681
 3219TIP3    H2 9664   5.890   3.884   4.862 -0.1278  0.9915  0.7761
 3220TIP3   OH2 9665   5.934   1.728   4.066  0.3782 -0.2834  0.3794
 3220TIP3    H1 9666   5.911   1.639   4.037  0.7428 -0.2484 -0.0259
 3220TIP3    H2 9667   5.991   1.714   4.141  1.0149 -0.4101 -0.1199
 3221TIP3   OH2 9668   5.552   1.247   3.806 -0.0964 -0.1718 -0.8727
 3221TIP3    H1 9669   5.459   1.247   3.782 -0.0497  0.4727 -1.0576
 3221TIP3    H2 9670   5.565   1.330   3.850  0.4818 -0.0967 -1.1785
 3222TIP3   OH2 9671   5.544   5.511   3.342  0.2318 -0.2289 -0.1728
 3222TIP3    H1 9672   5.625   5.496   3.392  0.3754  1.0477  0.0166
 3222TIP3    H2 9673   5.491   5.566   3.399 -0.3427 -0.1932 -0.7294
 3223TIP3   OH2 9674   3.572   5.304   4.811  0.1518 -0.0708  0.7145
 3223TIP3    H1 9675   3.651   5.308   4.865 -0.1515 -0.2760  1.1786
 3223TIP3    H2 9676   3.527   5.224   4.839 -0.4693  0.2976  0.8166
 3224TIP3   OH2 9677   4.815   4.442   1.945 -0.5180 -0.1983  0.2096
 3224TIP3    H1 9678   4.909   4.438   1.964 -0.3674 -0.5074 -0.5875
 3224TIP3    H2 9679   4.810   4.465   1.852 -1.2406  2.1253  0.7400
 3225TIP3   OH2 9680   5.151   3.241   0.431  0.4616  0.1331  0.0587
 3225TIP3    H1 9681   5.154   3.151   0.462  2.5408  0.2442  0.3275
 3225TIP3    H2 9682   5.073   3.279   0.472 -1.7235 -2.0583 -1.7267
 3226TIP3   OH2 9683   2.391   2.729   2.458  0.2012 -0.0555 -0.4144
 3226TIP3    H1 9684   2.477   2.765   2.480 -0.5909  1.1349  0.9029
 3226TIP3    H2 9685   2.369   2.769   2.375  0.4694  0.4715 -0.2381
 3227TIP3   OH2 9686   4.924   1.033   0.141  0.5515 -0.5713 -0.4385
 3227TIP3    H1 9687   4.837   1.062   0.167  0.4765 -1.5390  0.4009
 3227TIP3    H2 9688   4.967   1.006   0.222  1.6808 -0.0240 -0.8206
 3228TIP3   OH2 9689   0.034   5.250   4.547 -0.0227  0.2073 -0.2056
 3228TIP3    H1 9690  -0.040   5.193   4.570 -0.1050 -0.2340 -1.4593
 3228TIP3    H2 9691   0.082   5.200   4.481  1.4292  0.4752  0.6011
 3229TIP3   OH2 9692   5.917   0.786   2.097 -0.6810 -0.2818  0.1670
 3229TIP3    H1 9693   5.836   0.749   2.133 -0.6444 -2.1753 -1.5142
 3229TIP3    H2 9694   5.925   0.745   2.011  1.7404  0.3675  0.0287
 3230TIP3   OH2 9695   1.285   0.758   1.157  0.0959  0.0206  0.5577
 3230TIP3    H1 9696   1.259   0.754   1.248  0.5140  1.8891  0.8022
 3230TIP3    H2 9697   1.234   0.689   1.114 -1.9226  0.6798  1.7606
 3231TIP3   OH2 9698   5.836   2.832   3.393 -0.3672  0.0969 -0.4799
 3231TIP3    H1 9699   5.923   2.799   3.415 -0.0850  0.6734 -0.7094
 3231TIP3    H2 9700   5.848   2.877   3.309 -0.5391  1.5651  0.2580
 3232TIP3   OH2 9701   0.220   0.747   3.022  0.2480  0.3537  0.3962
 3232TIP3    H1 9702   0.294   0.767   3.080  0.7563 -0.3012 -0.0110
 3232TIP3    H2 9703   0.150   0.805   3.051  1.1487  1.5201  0.3323
 3233TIP3   OH2 9704   4.586   4.228   0.342 -0.0457 -0.5024 -0.1477
 3233TIP3    H1 9705   4.529   4.303   0.327  0.7662  0.0233 -0.6376
 3233TIP3    H2 9706   4.641   4.223   0.264  3.8025  1.8376  2.0597
 3234TIP3   OH2 9707   5.919   3.773   1.309 -0.3004  0.4856  0.7167
 3234TIP3    H1 9708   5.889   3.700   1.255 -0.3835 -0.5928  2.1633
 3234TIP3    H2 9709   5.986   3.816   1.257  0.0381 -0.8808 -0.0066
 3235TIP3   OH2 9710   3.766   3.593   4.071 -0.1508  0.4658 -0.6877
 3235TIP3    H1 9711   3.794   3.611   4.161  1.0667  1.8742 -1.3036
 3235TIP3    H2 9712   3.841   3.551   4.030  0.3580  2.2605 -1.7472
 3236TIP3   OH2 9713   5.571   5.075   1.218  0.8122 -0.0672  0.2430
 3236TIP3    H1 9714   5.655   5.030   1.212  0.5589 -0.9107  2.2833
 3236TIP3    H2 9715   5.507   5.005   1.228 -0.0571  0.6161 -0.3545
 3237TIP3   OH2 9716   4.228   4.310   1.189  0.0112 -0.5182 -0.4367
 3237TIP3    H1 9717   4.202   4.270   1.106  1.0747  0.3444 -1.2007
 3237TIP3    H2 9718   4.318   4.282   1.203  0.1854  0.1838 -0.0949
 3238TIP3   OH2 9719   2.953   2.663   4.524  0.1680  0.0596  0.1931
 3238TIP3    H1 9720   2.896   2.708   4.462  1.4380 -1.0966 -1.9298
 3238TIP3    H2 9721   2.943   2.570   4.503 -0.2899 -0.4999  2.6126
 3239TIP3   OH2 9722   1.223   2.009   4.938 -0.6068  0.0844 -0.2819
 3239TIP3    H1 9723   1.153   1.974   4.994  0.3410  0.0282  0.9019
 3239TIP3    H2 9724   1.228   2.102   4.961  0.7124 -0.2256  0.7499
 3240TIP3   OH2 9725   1.071   3.511   1.809  0.1032 -0.4577 -0.1255
 3240TIP3    H1 9726   1.160   3.539   1.791  0.3687 -1.4829 -0.5238
 3240TIP3    H2 9727   1.021   3.537   1.731 -0.0921  0.6837  0.3697
 3241TIP3   OH2 9728   4.328   4.195   2.143 -0.2568  0.5748 -0.1490
 3241TIP3    H1 9729   4.309   4.289   2.140 -1.9919  0.3007  0.8170
 3241TIP3    H2 9730   4.243   4.154   2.160  0.7240 -1.0301  1.2213
 3242TIP3   OH2 9731   4.929   0.859   4.298 -0.3180 -1.1318  0.2913
 3242TIP3    H1 9732   4.911   0.772   4.262 -0.3348 -0.6997 -0.7781
 3242TIP3    H2 9733   4.909   0.920   4.227 -0.0905 -0.2597  0.9477
 3243TIP3   OH2 9734   2.902   1.247   0.856  0.2731 -0.1115  0.3857
 3243TIP3    H1 9735   2.914   1.299   0.935 -1.2288  1.1168 -0.1522
 3243TIP3    H2 9736   2.986   1.202   0.844  1.1349  1.0813  1.6508
 3244TIP3   OH2 9737   6.185   1.033   4.540  0.2683 -0.0844  0.4055
 3244TIP3    H1 9738   6.235   1.060   4.462 -0.2001 -1.1127 -0.2782
 3244TIP3    H2 9739   6.177   0.938   4.531 -1.9019  0.0577  0.4276
 3245TIP3   OH2 9740   1.529   5.292   1.546  0.0752  0.4160  0.0494
 3245TIP3    H1 9741   1.549   5.211   1.593  0.5830  0.9215  0.7257
 3245TIP3    H2 9742   1.602   5.350   1.566  1.3540  0.0320 -2.9785
 3246TIP3   OH2 9743   3.797   2.225   5.109 -0.4718 -0.1964  0.3227
 3246TIP3    H1 9744   3.873   2.168   5.121  0.0121  0.3973  0.1289
 3246TIP3    H2 9745   3.815   2.273   5.028 -0.4078  0.9360  0.9811
 3247TIP3   OH2 9746   0.374   5.114   1.808  0.4759  0.3900 -0.0213
 3247TIP3    H1 9747   0.440   5.098   1.740  1.4526  0.5276  0.8658
 3247TIP3    H2 9748   0.416   5.085   1.889 -0.8096 -0.1304  0.4858
 3248TIP3   OH2 9749   2.461   3.961   3.059  0.1697 -0.1186  0.4822
 3248TIP3    H1 9750   2.466   3.957   3.154 -0.6912  0.5146  0.5677
 3248TIP3    H2 9751   2.422   4.047   3.040  3.4427  1.2687 -0.5813
 3249TIP3   OH2 9752   2.404   3.891   4.184  0.6318  0.5317  0.0777
 3249TIP3    H1 9753   2.471   3.932   4.238 -0.5496  0.1006  1.9562
 3249TIP3    H2 9754   2.347   3.964   4.157 -1.3755  0.3373  3.2788
 3250TIP3   OH2 9755   6.235   5.582   2.865 -0.1869 -0.2513  0.3410
 3250TIP3    H1 9756   6.298   5.646   2.833  0.2201 -0.3362  0.9560
 3250TIP3    H2 9757   6.186   5.555   2.787  0.2646  0.1159 -0.0723
 3251TIP3   OH2 9758   2.129   0.417   0.504  0.1172 -0.3940  0.0448
 3251TIP3    H1 9759   2.152   0.491   0.448  1.2553 -0.8370 -0.1005
 3251TIP3    H2 9760   2.212   0.388   0.542 -0.5982 -0.2874  1.7589
 3252TIP3   OH2 9761   4.924   3.488   2.663  0.1834 -0.2115  0.0777
 3252TIP3    H1 9762   5.003   3.498   2.610  0.7505  2.6258  1.2753
 3252TIP3    H2 9763   4.871   3.565   2.642 -1.3628 -1.0262  0.8096
 3253TIP3   OH2 9764   5.020   3.216   4.743 -0.5629  0.6094  0.4101
 3253TIP3    H1 9765   4.972   3.173   4.673 -0.0246 -0.0629  0.4441
 3253TIP3    H2 9766   5.065   3.144   4.789  1.3111  1.3088 -0.2584
 3254TIP3   OH2 9767   1.292   3.338   4.607 -0.2723 -0.2911 -0.6351
 3254TIP3    H1 9768   1.342   3.420   4.614  0.6642 -0.9496  1.2040
 3254TIP3    H2 9769   1.234   3.352   4.533 -0.7779  2.3921  0.1376
 3255TIP3   OH2 9770   0.777   4.709   0.657 -0.4740 -1.1192 -0.0296
 3255TIP3    H1 9771   0.864   4.750   0.657 -0.5314 -0.9115 -1.7532
 3255TIP3    H2 9772   0.795   4.617   0.640 -0.5351 -1.3133  0.8916
 3256TIP3   OH2 9773   5.256   3.224   0.959 -0.3751 -0.3385  0.2292
 3256TIP3    H1 9774   5.193   3.155   0.938 -0.8011  0.2785 -0.5589
 3256TIP3    H2 9775   5.337   3.177   0.981 -0.7447 -1.0910 -0.0072
 3257TIP3   OH2 9776   4.913   3.335   0.871  0.5544 -0.4061  0.8162
 3257TIP3    H1 9777   4.972   3.410   0.870 -1.2703  1.0948 -1.2939
 3257TIP3    H2 9778   4.955   3.270   0.815  0.6244  0.2897  0.0622
 3258TIP3   OH2 9779   0.451   1.036   1.084  0.2520 -0.1419  0.5274
 3258TIP3    H1 9780   0.529   1.011   1.034  1.0962  0.1679  1.6296
 3258TIP3    H2 9781   0.486   1.086   1.158 -1.0499  0.4420  0.7692
 3259TIP3   OH2 9782   4.119   2.522   3.362  0.4019  0.0422 -0.5469
 3259TIP3    H1 9783   4.137   2.431   3.338  1.7283  0.4838 -1.3327
 3259TIP3    H2 9784   4.201   2.568   3.344 -0.9213  1.8422 -2.3432
 3260TIP3   OH2 9785   2.343   2.198   2.252  1.1870 -0.6614  0.1031
 3260TIP3    H1 9786   2.368   2.252   2.327  1.3273 -0.7070  0.0893
 3260TIP3    H2 9787   2.330   2.110   2.289  0.7236 -0.5704  0.1674
 3261TIP3   OH2 9788   2.901   1.217   2.788 -0.5975  0.0126  0.2038
 3261TIP3    H1 9789   2.877   1.124   2.794 -1.4873  0.2060 -0.2542
 3261TIP3    H2 9790   2.992   1.216   2.757 -1.4100 -0.6994 -2.4623
 3262TIP3   OH2 9791   2.899   4.852   3.280 -0.0290  0.7282 -0.5703
 3262TIP3    H1 9792   2.845   4.791   3.229  1.2474 -2.1746  1.2800
 3262TIP3    H2 9793   2.846   4.872   3.357  0.5074 -0.1199  0.0377
 3263TIP3   OH2 9794   3.717   5.583   2.556 -0.6150  0.1865 -0.0541
 3263TIP3    H1 9795   3.802   5.568   2.513  0.2473  1.8147  0.9896
 3263TIP3    H2 9796   3.689   5.669   2.523 -1.8384 -0.2946 -0.3087
 3264TIP3   OH2 9797   2.072   3.325   0.055  0.0100 -0.3400 -0.9912
 3264TIP3    H1 9798   2.006   3.271   0.011 -3.3654  2.4837  0.1270
 3264TIP3    H2 9799   2.103   3.272   0.128 -0.3248 -2.0700 -2.0483
 3265TIP3   OH2 9800   1.557   5.690   4.417  0.0383  0.2946  0.3080
 3265TIP3    H1 9801   1.618   5.627   4.454  0.8023 -0.6044 -2.2668
 3265TIP3    H2 9802   1.488   5.636   4.377 -1.1061  1.2284  0.9368
 3266TIP3   OH2 9803   1.282   2.085   3.642  0.2937  0.1094  0.0702
 3266TIP3    H1 9804   1.245   2.028   3.575  3.5475 -2.4625  0.2041
 3266TIP3    H2 9805   1.221   2.079   3.715 -1.3851 -0.0637 -1.2700
 3267TIP3   OH2 9806   0.136   3.389   2.583 -0.5228 -0.4039 -0.0072
 3267TIP3    H1 9807   0.043   3.412   2.578  0.1165  2.2000 -3.0942
 3267TIP3    H2 9808   0.171   3.444   2.653 -1.1975 -1.1257  0.9150
 3268TIP3   OH2 9809   3.267   5.087   1.800  0.1001 -0.1873 -0.2927
 3268TIP3    H1 9810   3.300   5.009   1.755 -1.0616 -0.1746 -1.2240
 3268TIP3    H2 9811   3.289   5.160   1.741 -1.0944 -0.1228 -0.6715
 3269TIP3   OH2 9812   6.192   5.710   2.272  0.1440 -0.7024 -0.8588
 3269TIP3    H1 9813   6.191   5.772   2.344 -0.1372 -1.6225 -0.0432
 3269TIP3    H2 9814   6.232   5.757   2.199 -0.3833  0.5330 -0.3649
 3270TIP3   OH2 9815   0.387   3.465   0.739  0.5206 -0.3976 -0.9676
 3270TIP3    H1 9816   0.352   3.429   0.657  0.6899 -0.3954 -1.0406
 3270TIP3    H2 9817   0.363   3.557   0.737  1.5549 -0.1265 -1.5730
 3271TIP3   OH2 9818   2.806   2.066   1.399 -0.8267 -0.2563 -0.1738
 3271TIP3    H1 9819   2.766   2.077   1.312  0.7948  2.5106 -0.6920
 3271TIP3    H2 9820   2.860   1.987   1.390 -1.2976 -0.4683 -1.3960
 3272TIP3   OH2 9821   3.215   5.927   0.773  0.1027  0.6068  0.3331
 3272TIP3    H1 9822   3.178   5.960   0.692 -1.2206 -0.0414  0.6348
 3272TIP3    H2 9823   3.255   6.003   0.815  1.0541  0.8909 -1.0273
 3273TIP3   OH2 9824   2.385   3.114   3.188 -0.1956  0.7994  0.4453
 3273TIP3    H1 9825   2.339   3.129   3.105  1.1793  2.5323 -0.0716
 3273TIP3    H2 9826   2.466   3.071   3.163 -0.3686  0.1080  1.0584
 3274TIP3   OH2 9827   1.519   3.530   0.259  0.3600 -0.4120  0.5545
 3274TIP3    H1 9828   1.525   3.441   0.225 -0.4434  0.3719 -1.8629
 3274TIP3    H2 9829   1.553   3.525   0.348 -0.8585 -3.3719  0.9618
 3275TIP3   OH2 9830   1.312   1.838   3.798  0.0546  0.3453 -0.1247
 3275TIP3    H1 9831   1.245   1.818   3.733  0.1257 -1.2751  0.2550
 3275TIP3    H2 9832   1.377   1.889   3.750 -0.0828 -0.4842 -1.2450
 3276TIP3   OH2 9833   1.840   5.041   3.030 -0.5416 -0.3674  0.1394
 3276TIP3    H1 9834   1.831   5.036   3.125 -1.2431 -1.2948  0.0397
 3276TIP3    H2 9835   1.811   4.956   2.999 -3.0249  0.8072 -1.0889
 3277TIP3   OH2 9836   5.733   3.303   3.117 -0.1702 -0.2632 -0.3039
 3277TIP3    H1 9837   5.799   3.286   3.184 -0.7323  1.5885  0.7732
 3277TIP3    H2 9838   5.781   3.346   3.046 -0.0700  0.4290  0.1728
 3278TIP3   OH2 9839   2.196   2.771   0.060 -0.1397 -0.1493  0.4718
 3278TIP3    H1 9840   2.168   2.792  -0.029  1.0353 -0.6209 -0.0396
 3278TIP3    H2 9841   2.290   2.754   0.052  0.2426  0.9766  2.0147
 3279TIP3   OH2 9842   1.171   0.459   3.935 -0.2416  0.2228  0.2975
 3279TIP3    H1 9843   1.146   0.368   3.922  2.5268 -0.4928 -0.6249
 3279TIP3    H2 9844   1.233   0.457   4.007 -0.3816  1.4409  0.4774
 3280TIP3   OH2 9845   2.535   2.007   3.252  0.6224 -0.4742 -0.0102
 3280TIP3    H1 9846   2.505   2.058   3.327  0.7705 -1.2520  0.5819
 3280TIP3    H2 9847   2.485   2.042   3.178  0.7369  0.5381  0.3829
 3281TIP3   OH2 9848   4.244   5.684   3.734  0.6060  0.1628 -0.5080
 3281TIP3    H1 9849   4.183   5.685   3.807 -0.6226  2.0848 -1.4627
 3281TIP3    H2 9850   4.323   5.641   3.768  1.0453  3.0888  2.7843
 3282TIP3   OH2 9851   4.845   5.864   2.312  0.2279  0.6443 -0.5683
 3282TIP3    H1 9852   4.893   5.927   2.258 -1.3007  0.9266 -1.6530
 3282TIP3    H2 9853   4.887   5.780   2.293  1.9929  1.2172  0.5487
 3283TIP3   OH2 9854   4.080   1.321   4.526 -0.7275 -0.2192  0.0747
 3283TIP3    H1 9855   4.122   1.366   4.599  0.1594  0.3065 -0.7246
 3283TIP3    H2 9856   3.988   1.348   4.530 -0.5277  0.4012  0.5425
 3284TIP3   OH2 9857   2.966   1.752   4.565 -0.4058  0.4300 -0.1492
 3284TIP3    H1 9858   3.028   1.690   4.525 -0.4856  0.3163 -0.0990
 3284TIP3    H2 9859   2.978   1.833   4.517 -1.3658 -0.0361 -1.2372
 3285TIP3   OH2 9860   3.565   0.545   2.325  0.4765 -0.1723 -0.0518
 3285TIP3    H1 9861   3.570   0.458   2.285  0.1830 -0.0224 -0.4079
 3285TIP3    H2 9862   3.638   0.594   2.286  0.4138 -0.1410 -0.1294
 3286TIP3   OH2 9863   3.197   3.703   0.247 -0.2621  0.3293  0.1832
 3286TIP3    H1 9864   3.263   3.675   0.310  1.1732 -0.3306 -1.5549
 3286TIP3    H2 9865   3.114   3.688   0.292  0.7192  0.7094  2.2326
 3287TIP3   OH2 9866   6.307   1.742   4.662 -0.1742 -0.0520  0.5177
 3287TIP3    H1 9867   6.338   1.787   4.740 -2.5116  1.3505  0.7286
 3287TIP3    H2 9868   6.314   1.807   4.592 -2.1349  0.2046  0.5068
 3288TIP3   OH2 9869   3.087   2.357   4.086  0.1833  0.5157 -0.0294
 3288TIP3    H1 9870   3.119   2.318   4.005 -1.3264  0.0548 -0.4429
 3288TIP3    H2 9871   3.117   2.448   4.083 -0.4427  0.6957 -1.4562
 3289TIP3   OH2 9872   4.591   0.232   2.683  0.3223  0.2098 -0.1686
 3289TIP3    H1 9873   4.580   0.137   2.678  0.0736  0.2086  0.3323
 3289TIP3    H2 9874   4.612   0.258   2.593 -0.0280 -0.2659 -0.3946
 3290TIP3   OH2 9875   0.985   2.517   1.779  0.1318 -0.6232 -0.0600
 3290TIP3    H1 9876   1.006   2.478   1.864  1.3033 -2.5819 -1.1648
 3290TIP3    H2 9877   0.908   2.468   1.750 -0.2451  0.0183 -0.1525
 3291TIP3   OH2 9878   2.813   0.499   0.686 -0.2593 -0.5265 -0.4412
 3291TIP3    H1 9879   2.768   0.561   0.744  0.4142 -1.1265  0.7553
 3291TIP3    H2 9880   2.761   0.501   0.606 -0.9667  0.6576  0.0039
 3292TIP3   OH2 9881   5.901   2.528   2.175 -0.2245  0.0753  0.7881
 3292TIP3    H1 9882   5.916   2.609   2.127 -0.2314  0.6433  1.7111
 3292TIP3    H2 9883   5.868   2.556   2.261  3.3512 -0.6310  2.5941
 3293TIP3   OH2 9884   3.619   3.490   4.460 -0.0863 -0.2079  0.3108
 3293TIP3    H1 9885   3.534   3.494   4.416  0.1428  1.1295 -0.0433
 3293TIP3    H2 9886   3.615   3.410   4.512 -2.0153  0.4037  1.1899
 3294TIP3   OH2 9887   3.773   4.792   1.930 -0.5467  0.6027 -0.2083
 3294TIP3    H1 9888   3.775   4.708   1.976 -1.7472  1.5509  1.6865
 3294TIP3    H2 9889   3.860   4.800   1.891  1.0034  0.2233  2.8969
 3295TIP3   OH2 9890   0.924   4.779   4.642 -0.0983  0.0881 -0.1967
 3295TIP3    H1 9891   0.965   4.700   4.606  1.0688 -0.0531  1.3258
 3295TIP3    H2 9892   0.883   4.750   4.723 -2.2596  0.4867 -1.0904
 3296TIP3   OH2 9893   5.011   3.596   1.045  0.2824  0.0862  0.1668
 3296TIP3    H1 9894   5.059   3.521   1.079 -0.1727 -0.6527 -0.7638
 3296TIP3    H2 9895   5.074   3.644   0.991  0.3898 -0.0169  0.2021
 3297TIP3   OH2 9896   3.307   1.897   1.889  0.0407 -0.0253 -0.0552
 3297TIP3    H1 9897   3.399   1.915   1.868 -0.2929  0.0066 -1.5946
 3297TIP3    H2 9898   3.290   1.950   1.967  1.5578 -0.7167  0.7952
 3298TIP3   OH2 9899   3.741   0.530   1.325  0.5036 -0.3994  0.7333
 3298TIP3    H1 9900   3.746   0.626   1.332  1.1865 -0.4090  0.4279
 3298TIP3    H2 9901   3.740   0.513   1.231  0.0766 -0.6799  0.7871
 3299TIP3   OH2 9902   0.442   1.537   2.362 -0.2115 -0.0178 -0.2186
 3299TIP3    H1 9903   0.417   1.605   2.424 -0.1620  0.9171 -1.1825
 3299TIP3    H2 9904   0.363   1.519   2.312 -0.2772 -0.8325  0.1639
 3300TIP3   OH2 9905   5.114   4.985   0.149 -0.1498 -0.2283 -0.4078
 3300TIP3    H1 9906   5.204   5.017   0.155  0.3200 -1.2188 -1.6600
 3300TIP3    H2 9907   5.070   5.048   0.091 -0.8019  1.2933  1.6533
 3301TIP3   OH2 9908   1.723   0.965   4.655 -0.2675  0.4159 -0.5774
 3301TIP3    H1 9909   1.812   0.951   4.622  1.1098  2.0926  2.0725
 3301TIP3    H2 9910   1.711   0.897   4.722 -0.2961  1.1950  0.2263
 3302TIP3   OH2 9911   5.550   0.568   1.759 -0.5911  0.1448 -0.0970
 3302TIP3    H1 9912   5.557   0.535   1.849  1.8622  2.2038  0.5952
 3302TIP3    H2 9913   5.478   0.631   1.762  0.0969  0.9250  0.7242
 3303TIP3   OH2 9914   0.453   4.498   1.557 -0.3965 -0.0178  0.4782
 3303TIP3    H1 9915   0.466   4.403   1.562 -2.1947 -0.2285  2.5745
 3303TIP3    H2 9916   0.523   4.534   1.611 -0.5544 -0.2614  0.8544
 3304TIP3   OH2 9917   0.939   1.484   1.196  0.3430  0.1121  0.0029
 3304TIP3    H1 9918   0.948   1.435   1.114  0.8089 -1.1354  0.7852
 3304TIP3    H2 9919   1.028   1.511   1.218  0.0547  1.7130 -0.6245
 3305TIP3   OH2 9920   3.253   5.538   4.894 -0.5603  0.0962 -0.3731
 3305TIP3    H1 9921   3.329   5.574   4.939 -0.4839 -1.0834  0.4696
 3305TIP3    H2 9922   3.289   5.490   4.820 -0.2791 -1.9700  1.0086
 3306TIP3   OH2 9923   2.210   1.012   4.754 -0.2374 -0.3497 -0.3248
 3306TIP3    H1 9924   2.132   1.017   4.698 -0.8192  0.2157  0.5002
 3306TIP3    H2 9925   2.178   0.976   4.836  0.4815 -0.5724 -0.1348
 3307TIP3   OH2 9926   2.384   2.482   4.326 -0.1143  0.4947  0.1815
 3307TIP3    H1 9927   2.434   2.426   4.266 -0.6837 -1.1961  1.2158
 3307TIP3    H2 9928   2.359   2.558   4.273  2.5074  0.8622 -0.6899
 3308TIP3   OH2 9929   1.642   1.234   2.184 -0.1699  0.7866 -0.3161
 3308TIP3    H1 9930   1.640   1.316   2.233 -1.6274  1.4086 -1.3278
 3308TIP3    H2 9931   1.656   1.167   2.250 -0.1417  1.7605  0.6955
 3309TIP3   OH2 9932   3.372   4.294   4.372  0.4093  0.1798 -0.0969
 3309TIP3    H1 9933   3.317   4.280   4.294  1.6342  0.7914 -1.1121
 3309TIP3    H2 9934   3.355   4.218   4.427 -1.0685  0.1017 -0.5983
 3310TIP3   OH2 9935   4.673   5.603   3.452 -0.7009  0.2547  0.8717
 3310TIP3    H1 9936   4.650   5.596   3.360  3.2355  0.2183 -0.2924
 3310TIP3    H2 9937   4.665   5.696   3.472  2.5226  1.0688 -0.9424
 3311TIP3   OH2 9938   0.038   4.258   1.557 -0.1073  0.2783  0.0455
 3311TIP3    H1 9939  -0.021   4.314   1.608 -0.3074 -0.2508  0.4075
 3311TIP3    H2 9940  -0.015   4.180   1.537  0.3290 -0.0063 -0.0059
 3312TIP3   OH2 9941   6.075   1.243   4.700  0.5835  0.0608  0.0077
 3312TIP3    H1 9942   6.136   1.313   4.679  2.1352 -0.9995  0.8334
 3312TIP3    H2 9943   6.102   1.169   4.646  0.8853 -0.8284  1.3316
 3313TIP3   OH2 9944   1.894   4.409   2.041 -0.5805  0.4564  0.3592
 3313TIP3    H1 9945   1.808   4.372   2.019 -1.3776  1.0382  2.2947
 3313TIP3    H2 9946   1.883   4.503   2.024 -0.4894  0.5975  1.0754
 3314TIP3   OH2 9947   3.251   3.063   0.861  0.1532  0.1328 -0.0909
 3314TIP3    H1 9948   3.261   3.157   0.841 -0.0068  0.1519 -0.0804
 3314TIP3    H2 9949   3.334   3.024   0.832  0.1600  0.2543 -0.2403
 3315TIP3   OH2 9950   3.657   2.000   4.052 -0.2523  0.2188  0.0263
 3315TIP3    H1 9951   3.688   2.025   3.966  0.5732  1.5314  0.6732
 3315TIP3    H2 9952   3.564   2.026   4.053  0.2109  2.0466  0.1656
 3316TIP3   OH2 9953   5.036   3.055   1.204 -0.2783 -0.1241  0.0643
 3316TIP3    H1 9954   5.081   3.026   1.125 -1.4841  1.2537 -1.1811
 3316TIP3    H2 9955   5.003   3.142   1.183 -3.4153 -0.9751  0.9081
 3317TIP3   OH2 9956   4.836   2.313   2.504  0.1778  0.2225  0.1576
 3317TIP3    H1 9957   4.745   2.285   2.494  0.2241 -0.1327  0.6771
 3317TIP3    H2 9958   4.833   2.381   2.572  0.3717 -0.2065  0.5998
 3318TIP3   OH2 9959   1.323   1.307   4.999 -0.0948  0.9464  0.1588
 3318TIP3    H1 9960   1.271   1.374   5.042 -1.9073 -0.6730  0.6480
 3318TIP3    H2 9961   1.368   1.261   5.070 -0.2802  0.5313  0.0158
 3319TIP3   OH2 9962   2.950   3.675   3.181 -0.7012 -0.6139 -0.4375
 3319TIP3    H1 9963   3.038   3.645   3.159 -0.2562  0.5328 -0.2935
 3319TIP3    H2 9964   2.909   3.601   3.226  1.4693 -0.0146  2.8647
 3320TIP3   OH2 9965   1.799   3.745   4.134 -0.2043 -0.7707  0.6939
 3320TIP3    H1 9966   1.791   3.729   4.040  0.9397 -1.5271  0.7075
 3320TIP3    H2 9967   1.890   3.723   4.154  0.4735  2.2665  1.4184
 3321TIP3   OH2 9968   3.083   0.916   1.985 -0.2366  0.5320 -0.4141
 3321TIP3    H1 9969   3.169   0.907   2.026  0.0062  3.4091 -0.0761
 3321TIP3    H2 9970   3.102   0.935   1.893 -0.5242  0.3570 -0.5100
 3322TIP3   OH2 9971   2.279   2.365   0.809  0.3448  0.0713  0.0741
 3322TIP3    H1 9972   2.365   2.325   0.798 -0.1255 -1.8122  2.3177
 3322TIP3    H2 9973   2.220   2.311   0.755  0.0848 -0.8587  1.2406
 3323TIP3   OH2 9974   0.875   5.423   5.129  0.4993 -0.3533  0.2270
 3323TIP3    H1 9975   0.963   5.434   5.165 -0.5260  0.7161  2.5994
 3323TIP3    H2 9976   0.847   5.337   5.159  0.9276 -0.9542 -1.0418
 3324TIP3   OH2 9977   3.137   3.615   2.935  0.0087  0.6739  0.0494
 3324TIP3    H1 9978   3.043   3.630   2.929  0.1976  1.8649 -0.3298
 3324TIP3    H2 9979   3.150   3.528   2.898 -0.8565  0.8630 -0.7453
 3325TIP3   OH2 9980   2.336   5.677   4.151  0.4679 -0.0361  0.5478
 3325TIP3    H1 9981   2.423   5.638   4.165  1.1053  1.3622  0.6547
 3325TIP3    H2 9982   2.355   5.765   4.118 -0.9225  0.1742  0.2830
 3326TIP3   OH2 9983   0.882   2.147   3.014 -0.1910  0.3333 -0.1154
 3326TIP3    H1 9984   0.790   2.145   2.987 -0.5940 -2.1994  1.1414
 3326TIP3    H2 9985   0.879   2.169   3.107  0.4358  0.1046 -0.0355
 3327TIP3   OH2 9986   0.939   2.269   0.584 -0.3233  0.4067 -0.4880
 3327TIP3    H1 9987   0.883   2.207   0.537 -0.4286  0.8245 -0.9263
 3327TIP3    H2 9988   0.884   2.346   0.597 -0.1640  0.4461 -0.0352
 3328TIP3   OH2 9989   0.780   5.363   4.080 -0.5387  0.2017 -0.1169
 3328TIP3    H1 9990   0.756   5.281   4.122 -1.5043  0.0927 -0.8613
 3328TIP3    H2 9991   0.852   5.397   4.134 -0.1695 -1.0843  0.2407
 3329TIP3   OH2 9992   4.175   1.136   2.404 -0.3528  0.3651  0.0075
 3329TIP3    H1 9993   4.177   1.209   2.342  1.8535 -0.6961 -1.3109
 3329TIP3    H2 9994   4.225   1.167   2.480  1.1520  0.0842 -0.8183
 3330TIP3   OH2 9995   3.280   2.790   3.834 -0.2768  0.1885 -0.6356
 3330TIP3    H1 9996   3.368   2.822   3.851  0.2775 -1.2737 -0.5772
 3330TIP3    H2 9997   3.283   2.757   3.745 -1.0837  1.0905 -1.0153
 3331TIP3   OH2 9998   5.938   5.443   4.486 -0.4666  0.1123  0.5821
 3331TIP3    H1 9999   5.955   5.453   4.392 -0.4527  0.3105  0.6049
 3331TIP3    H210000   6.022   5.416   4.523 -0.0720  1.5298  0.7620
 3332TIP3   OH210001   2.275   2.707   2.933  0.1894 -0.2651 -0.0754
 3332TIP3    H110002   2.286   2.675   2.844  1.0853 -1.7318  0.5341
 3332TIP3    H210003   2.364   2.711   2.969 -0.2708 -1.3574  1.2873
 3333TIP3   OH210004   0.755   3.084   1.937 -0.3602 -0.4745 -0.2123
 3333TIP3    H110005   0.840   3.103   1.976 -0.8849  0.3154  0.5833
 3333TIP3    H210006   0.773   3.077   1.843  0.2282  2.0623 -0.3582
 3334TIP3   OH210007   5.103   2.014   1.463  0.1933 -1.0133  0.0922
 3334TIP3    H110008   5.082   2.011   1.556  0.7505  0.0178  0.2681
 3334TIP3    H210009   5.192   1.979   1.457  0.5443 -0.1281  0.0834
 3335TIP3   OH210010   1.631   2.518   2.542 -0.3234  0.0559 -0.1844
 3335TIP3    H110011   1.666   2.518   2.453 -1.1598 -0.3098 -0.5265
 3335TIP3    H210012   1.707   2.505   2.598  0.5218  2.2192 -0.7095
 3336TIP3   OH210013   0.464   0.049   0.026 -0.1997  0.0798 -0.1195
 3336TIP3    H110014   0.481   0.141   0.005 -0.6998  0.1527 -0.2260
 3336TIP3    H210015   0.531   0.000  -0.021 -1.0075  0.2721 -1.5071
 3337TIP3   OH210016   2.515   3.791   2.167  0.8734  0.2956  0.2559
 3337TIP3    H110017   2.517   3.800   2.071  0.8682  1.5722  0.3705
 3337TIP3    H210018   2.422   3.786   2.188  0.8030  1.5270  0.3114
 3338TIP3   OH210019   5.220   1.642   2.295 -0.0292 -0.2484  0.0194
 3338TIP3    H110020   5.151   1.617   2.356 -0.6196 -0.2694 -0.6346
 3338TIP3    H210021   5.268   1.560   2.279  0.0390 -0.2716  0.3513
 3339TIP3   OH210022   0.958   5.578   2.429 -0.3462 -0.0293  0.3488
 3339TIP3    H110023   0.986   5.668   2.440  0.0635  0.1826 -1.8160
 3339TIP3    H210024   0.898   5.580   2.354 -1.7830 -1.3067  1.3935
 3340TIP3   OH210025   3.310   4.263   4.767 -0.4479  0.0306  0.5068
 3340TIP3    H110026   3.292   4.339   4.824  0.4915  0.3236  0.4194
 3340TIP3    H210027   3.397   4.279   4.732 -1.4336  0.4364 -1.9483
 3341TIP3   OH210028   3.802   5.896   0.984 -0.0262  0.1394  0.4986
 3341TIP3    H110029   3.881   5.844   1.001  0.1528  0.1859 -0.1751
 3341TIP3    H210030   3.835   5.975   0.940 -0.3743  0.4954  0.8679
 3342TIP3   OH210031   3.530   2.153   4.991 -0.1151 -0.0625  0.6162
 3342TIP3    H110032   3.485   2.074   4.964  0.3350  0.3082 -1.3262
 3342TIP3    H210033   3.616   2.148   4.948 -0.0657  1.4547  0.4856
 3343TIP3   OH210034   5.640   5.794   1.371  0.3156  0.3563 -0.0108
 3343TIP3    H110035   5.653   5.770   1.280 -0.5025  1.7302 -0.5310
 3343TIP3    H210036   5.572   5.734   1.402  0.4137  0.0503 -0.3796
 3344TIP3   OH210037   5.194   5.717   4.662 -0.1067 -0.0715  0.9259
 3344TIP3    H110038   5.214   5.760   4.579 -1.2033 -0.1702  0.6018
 3344TIP3    H210039   5.150   5.636   4.638  0.2032 -0.4431  1.5852
 3345TIP3   OH210040   5.214   5.932   1.555  0.4338 -0.0637 -0.0869
 3345TIP3    H110041   5.182   5.880   1.628  1.2836  1.6986  1.6278
 3345TIP3    H210042   5.309   5.921   1.556  0.5434  0.7617 -0.2599
 3346TIP3   OH210043   2.017   5.891   2.774  0.0778  0.1831 -0.1463
 3346TIP3    H110044   1.937   5.920   2.819 -0.4684  0.4069 -1.2402
 3346TIP3    H210045   2.078   5.965   2.785 -0.4033  0.6605 -0.6407
 3347TIP3   OH210046   0.819   4.988   2.176 -0.1561  0.4472 -0.0697
 3347TIP3    H110047   0.868   5.069   2.162  0.3569  1.1980  4.6231
 3347TIP3    H210048   0.728   5.016   2.190 -0.1754  0.1015  0.5270
 3348TIP3   OH210049   4.438   4.567   4.208 -0.4624  0.1895  0.2104
 3348TIP3    H110050   4.383   4.582   4.286 -0.9016 -1.9760  0.3670
 3348TIP3    H210051   4.375   4.553   4.137 -0.1164 -0.8805  0.1023
 3349TIP3   OH210052   4.680   4.827   1.167 -0.3100 -0.5342  0.0820
 3349TIP3    H110053   4.661   4.858   1.255 -1.6239 -0.9070 -0.0466
 3349TIP3    H210054   4.767   4.861   1.148 -0.6571  0.9039  0.9148
 3350TIP3   OH210055   1.626   4.951   4.273 -0.2206 -0.7598 -0.2829
 3350TIP3    H110056   1.596   4.862   4.253  2.3362 -1.5365 -1.0608
 3350TIP3    H210057   1.675   4.977   4.195 -0.8672  1.3392 -0.0292
 3351TIP3   OH210058   4.386   3.551   1.133 -0.0608  0.3110  0.0521
 3351TIP3    H110059   4.422   3.638   1.150 -0.3967  0.0795  2.2698
 3351TIP3    H210060   4.454   3.490   1.162 -0.4988 -0.1495  0.1323
 3352TIP3   OH210061   3.358   3.247   3.002  0.0389 -0.1141 -0.1936
 3352TIP3    H110062   3.290   3.301   3.041 -2.1847 -2.0422 -1.1716
 3352TIP3    H210063   3.328   3.230   2.912  1.1676 -2.0150 -0.2895
 3353TIP3   OH210064   0.983   1.951   1.301 -0.1404  0.2554  0.1105
 3353TIP3    H110065   1.006   1.948   1.394  0.0329 -1.1226  0.0402
 3353TIP3    H210066   1.064   1.980   1.258 -0.0618  0.3854  0.3398
 3354TIP3   OH210067   1.397   5.071   3.054  0.1325  0.0353  0.4150
 3354TIP3    H110068   1.319   5.037   3.009  1.2237 -1.4100 -0.4613
 3354TIP3    H210069   1.428   5.142   2.998  0.8749 -1.0629 -0.6085
 3355TIP3   OH210070   4.707   0.190   4.117 -0.1690  0.1059  0.9808
 3355TIP3    H110071   4.628   0.234   4.086 -0.5543 -1.4772 -0.4035
 3355TIP3    H210072   4.700   0.192   4.212  0.0798  3.3828  1.0345
 3356TIP3   OH210073   3.829   1.809   2.378  0.6809 -0.0099  0.0623
 3356TIP3    H110074   3.826   1.904   2.374 -0.1649  0.0260  1.0325
 3356TIP3    H210075   3.746   1.781   2.339  2.1421 -0.5102 -2.9861
 3357TIP3   OH210076   2.275   2.647   0.827 -0.0919 -0.5729  0.6590
 3357TIP3    H110077   2.367   2.653   0.800  0.2567 -0.0710  1.8738
 3357TIP3    H210078   2.260   2.553   0.839  1.0018 -0.5355  2.7508
 3358TIP3   OH210079   1.715   2.133   4.675 -0.5743  0.6357 -0.4551
 3358TIP3    H110080   1.708   2.214   4.624  0.0686 -0.1085 -1.7906
 3358TIP3    H210081   1.626   2.117   4.707 -0.9281  1.3301 -1.0613
 3359TIP3   OH210082   1.431   1.178   1.248  0.2549 -0.7636 -0.1467
 3359TIP3    H110083   1.412   1.214   1.334  0.5114 -0.3211 -0.2728
 3359TIP3    H210084   1.344   1.163   1.209  0.0913  1.8242 -0.9631
 3360TIP3   OH210085   3.877   5.637   0.253 -0.4813 -0.2447 -0.2663
 3360TIP3    H110086   3.966   5.673   0.249 -0.4781 -0.2688 -0.3886
 3360TIP3    H210087   3.869   5.584   0.174  0.0500 -1.7262  0.6299
 3361TIP3   OH210088   5.883   5.959   4.777  0.5433 -0.1000  0.4726
 3361TIP3    H110089   5.897   6.028   4.712  0.2680 -0.5986 -0.1278
 3361TIP3    H210090   5.969   5.917   4.786  0.4521 -0.3998 -0.0062
 3362TIP3   OH210091   2.702   3.846   4.456  0.1439  0.0045 -0.7146
 3362TIP3    H110092   2.653   3.765   4.441 -1.3586  0.5040  1.1617
 3362TIP3    H210093   2.638   3.906   4.494  1.6855  1.4619 -0.3129
 3363TIP3   OH210094   3.147   1.163   0.269 -0.1465  0.0212  0.1646
 3363TIP3    H110095   3.224   1.106   0.270  1.2618  1.7579 -1.7887
 3363TIP3    H210096   3.141   1.196   0.359  0.4582 -1.2897  0.7117
 3364TIP3   OH210097   0.804   4.985   0.546 -0.1434  0.2822  0.3159
 3364TIP3    H110098   0.735   4.923   0.571 -0.4617  0.1335 -0.8875
 3364TIP3    H210099   0.883   4.932   0.542 -0.3497  0.0148 -0.3546
 3365TIP3   OH210100   3.507   5.177   2.587 -0.1512  0.7761 -0.0468
 3365TIP3    H110101   3.462   5.207   2.509 -0.7403  0.3064  0.0996
 3365TIP3    H210102   3.541   5.256   2.628 -0.2194  1.0648 -0.5409
 3366TIP3   OH210103   3.130   3.384   0.390 -0.5319  0.0676  0.0936
 3366TIP3    H110104   3.180   3.456   0.431 -0.4289 -0.2206  0.4854
 3366TIP3    H210105   3.189   3.349   0.324 -1.2559  1.5051 -1.3779
 3367TIP3   OH210106   4.651   3.095   4.629 -0.4768  0.0244  0.2584
 3367TIP3    H110107   4.608   3.121   4.548  1.4851 -1.1498 -1.2166
 3367TIP3    H210108   4.623   3.161   4.693 -1.5950  1.3169 -1.4924
 3368TIP3   OH210109   5.323   5.386   1.330 -0.2636 -0.0471  0.4901
 3368TIP3    H110110   5.344   5.318   1.395  0.3736 -0.0253  0.3058
 3368TIP3    H210111   5.350   5.348   1.246 -0.2787  0.2754  0.3404
 3369TIP3   OH210112   0.678   5.452   0.077  0.5215 -0.4688  0.9345
 3369TIP3    H110113   0.600   5.400   0.095 -0.2143  0.0664 -0.5902
 3369TIP3    H210114   0.718   5.411   0.001  0.8482  0.2079  0.7317
 3370TIP3   OH210115   3.427   1.692   1.258  0.1697  0.7676 -0.3173
 3370TIP3    H110116   3.368   1.766   1.274 -2.0995 -1.1748  0.8865
 3370TIP3    H210117   3.461   1.668   1.344  0.0624 -0.2224 -0.5384
 3371TIP3   OH210118   4.902   1.089   2.199  0.0739 -0.0504  0.0485
 3371TIP3    H110119   4.921   1.005   2.239 -1.1783  0.2261  1.2845
 3371TIP3    H210120   4.838   1.069   2.131 -1.0257  0.0018  1.0343
 3372TIP3   OH210121   2.811   0.265   4.310 -0.4280 -0.1457 -0.0965
 3372TIP3    H110122   2.771   0.289   4.226  2.2447 -1.2469 -1.8613
 3372TIP3    H210123   2.826   0.170   4.303  2.0994  0.1192  0.4634
 3373TIP3   OH210124   1.300   4.665   0.207 -0.7354  0.1401 -0.3360
 3373TIP3    H110125   1.360   4.615   0.151 -0.4704  0.1151 -0.0302
 3373TIP3    H210126   1.218   4.668   0.157  0.3053  2.5881 -2.0511
 3374TIP3   OH210127   0.757   0.586   3.292 -0.0085  0.1052 -0.4826
 3374TIP3    H110128   0.686   0.616   3.235 -0.6487  2.2156  1.2936
 3374TIP3    H210129   0.834   0.581   3.235 -1.6898 -3.7264 -2.8463
 3375TIP3   OH210130   2.924   2.133   3.471 -0.8361 -0.8032 -0.1771
 3375TIP3    H110131   2.927   2.171   3.559 -0.3486 -1.8378  0.2605
 3375TIP3    H210132   2.849   2.074   3.473 -1.4308 -0.0849 -0.7755
 3376TIP3   OH210133   0.462   1.752   3.775  0.0245  0.0356  0.0660
 3376TIP3    H110134   0.439   1.833   3.729  0.8869  0.7525  0.8860
 3376TIP3    H210135   0.531   1.713   3.721  0.3215  0.3609  0.2083
 3377TIP3   OH210136   3.296   1.430   0.052  0.3316 -0.3772  0.0538
 3377TIP3    H110137   3.286   1.418  -0.042 -1.4213 -0.1657  0.1833
 3377TIP3    H210138   3.226   1.377   0.091 -0.3094  1.2023  1.1323
 3378TIP3   OH210139   5.369   5.662   1.451  0.0736  0.6056 -0.3376
 3378TIP3    H110140   5.385   5.572   1.421 -0.5569  0.4661 -0.2760
 3378TIP3    H210141   5.349   5.653   1.544  2.0598  1.0425  0.1610
 3379TIP3   OH210142   4.889   5.677   1.757 -0.0681 -0.5112  0.5295
 3379TIP3    H110143   4.905   5.600   1.812  0.3138 -1.0586 -0.3289
 3379TIP3    H210144   4.970   5.727   1.761  0.4466 -1.2233 -0.5717
 3380TIP3   OH210145   0.871   1.807   4.710  0.6104 -0.1192 -0.2630
 3380TIP3    H110146   0.959   1.773   4.695  0.7916  0.6124 -0.8833
 3380TIP3    H210147   0.875   1.898   4.683 -0.2000  0.0718  0.2232
 3381TIP3   OH210148   4.475   3.016   3.335 -0.1772  0.1898  0.1073
 3381TIP3    H110149   4.412   3.045   3.269 -1.7199 -1.2074  0.8943
 3381TIP3    H210150   4.560   3.048   3.303 -1.0249  0.5570 -1.9271
 3382TIP3   OH210151   2.796   5.266   1.997  0.3463 -0.2766 -0.2650
 3382TIP3    H110152   2.839   5.348   2.020  1.1359 -0.5894 -0.5723
 3382TIP3    H210153   2.806   5.259   1.902  0.2533 -0.7019 -0.2486
 3383TIP3   OH210154   2.535   5.044   0.865  0.7363 -0.6395 -0.0831
 3383TIP3    H110155   2.626   5.020   0.847  0.8641 -0.8909  0.8539
 3383TIP3    H210156   2.488   4.961   0.870  0.7819 -0.6119  1.0998
 3384TIP3   OH210157   3.381   3.435   2.718  0.5944 -0.2671  0.1568
 3384TIP3    H110158   3.291   3.469   2.722 -0.0638 -1.6625 -1.3441
 3384TIP3    H210159   3.370   3.340   2.725  1.8272 -0.5452 -1.2811
 3385TIP3   OH210160   5.775   3.231   4.297  0.2741  0.0870  0.6997
 3385TIP3    H110161   5.808   3.228   4.387  2.5237  1.2623  0.0030
 3385TIP3    H210162   5.811   3.312   4.261 -0.3345 -0.4816 -1.3490
 3386TIP3   OH210163   2.386   5.690   2.595 -0.6828  0.5289 -0.1636
 3386TIP3    H110164   2.350   5.637   2.666 -0.2425 -0.9155 -0.9798
 3386TIP3    H210165   2.325   5.677   2.522  0.7391 -0.8868 -1.1489
 3387TIP3   OH210166   5.799   5.429   0.135 -0.1505 -0.2047  0.0418
 3387TIP3    H110167   5.807   5.524   0.146 -1.5841  0.1452 -1.4698
 3387TIP3    H210168   5.888   5.399   0.118  0.0053  1.3318 -2.2700
 3388TIP3   OH210169   4.073   4.120   2.261 -0.1484  0.1514  0.4365
 3388TIP3    H110170   4.120   4.122   2.344  0.4147  1.4603  0.1085
 3388TIP3    H210171   3.991   4.167   2.279  0.6036  1.7302 -0.0824
 3389TIP3   OH210172   3.802   1.243   3.017  0.4191 -0.8820  0.4613
 3389TIP3    H110173   3.889   1.271   2.986  0.7236 -1.1425  1.0613
 3389TIP3    H210174   3.820   1.164   3.069 -0.4400 -2.3576 -1.3645
 3390TIP3   OH210175   0.921   3.202   1.640 -0.3100 -0.4891 -0.4482
 3390TIP3    H110176   0.997   3.189   1.583  0.7857  1.3555  0.5045
 3390TIP3    H210177   0.956   3.195   1.729 -1.4177 -0.3954  0.0072
 3391TIP3   OH210178   5.117   3.714   4.623 -0.1924 -0.1533 -0.0913
 3391TIP3    H110179   5.132   3.620   4.621 -2.6921 -0.6457  0.6849
 3391TIP3    H210180   5.023   3.724   4.605  0.1113  2.2444 -0.7370
 3392TIP3   OH210181   1.353   2.309   2.302 -0.2010  0.0041 -0.9483
 3392TIP3    H110182   1.290   2.375   2.330 -0.8965  0.0552 -2.5576
 3392TIP3    H210183   1.390   2.275   2.384 -0.5422  1.6741 -0.0590
 3393TIP3   OH210184   5.698   0.244   1.787  0.1591  0.4238 -0.5869
 3393TIP3    H110185   5.705   0.149   1.796 -0.0790  0.2676 -1.7598
 3393TIP3    H210186   5.743   0.279   1.863  1.9196 -0.6150 -1.0811
 3394TIP3   OH210187   0.427   5.553   3.218 -0.0577 -0.3016 -0.1743
 3394TIP3    H110188   0.408   5.536   3.126 -0.0684 -0.8613 -0.0745
 3394TIP3    H210189   0.518   5.585   3.218 -0.4506  0.8664 -0.4893
 3395TIP3   OH210190   3.441   1.299   1.312 -0.5468  0.7597  0.4566
 3395TIP3    H110191   3.461   1.391   1.301  2.0602 -0.0438 -3.6858
 3395TIP3    H210192   3.469   1.278   1.400  2.2257  3.2205  0.2909
 3396TIP3   OH210193   2.453   4.921   0.546  0.2320 -0.2842  0.4476
 3396TIP3    H110194   2.497   4.931   0.461 -0.8148 -1.8765 -0.3439
 3396TIP3    H210195   2.502   4.853   0.591  0.3682  0.0702  0.8427
 3397TIP3   OH210196   4.599   2.179   2.645  0.3211  0.0304 -0.2654
 3397TIP3    H110197   4.531   2.139   2.699  0.6827  0.0215  0.1986
 3397TIP3    H210198   4.648   2.234   2.706 -0.0121  0.9936 -0.8424
 3398TIP3   OH210199   4.694   5.365   0.817 -0.1194 -0.2678 -0.4927
 3398TIP3    H110200   4.640   5.371   0.895  1.4343 -0.4092  0.6513
 3398TIP3    H210201   4.639   5.399   0.747 -1.2449  0.7662  0.8266
 3399TIP3   OH210202   0.071   1.582   2.314 -0.1736 -0.5832  0.1408
 3399TIP3    H110203  -0.004   1.629   2.350  1.1067  0.8356  1.1160
 3399TIP3    H210204   0.065   1.494   2.350 -1.1765 -0.3864  0.4718
 3400TIP3   OH210205   2.887   1.338   2.193  0.2081  0.4234  0.5602
 3400TIP3    H110206   2.914   1.266   2.136  0.8058 -0.1553  1.5580
 3400TIP3    H210207   2.918   1.417   2.148 -0.5164  0.0877 -0.5741
 3401TIP3   OH210208   0.755   4.276   2.084 -0.7900 -0.1382 -0.1969
 3401TIP3    H110209   0.738   4.315   1.998 -1.6084 -0.6735 -0.2872
 3401TIP3    H210210   0.832   4.324   2.117 -0.5184  0.1353 -1.1809
 3402TIP3   OH210211   0.364   1.314   5.162 -0.2817  0.2670 -0.5612
 3402TIP3    H110212   0.310   1.296   5.085 -0.6381  0.8154 -0.4454
 3402TIP3    H210213   0.435   1.370   5.129  0.6046 -0.9874 -0.8446
 3403TIP3   OH210214   4.261   4.847   4.951 -0.2943  0.2905  0.1702
 3403TIP3    H110215   4.253   4.754   4.968  0.8672  0.0115 -0.7342
 3403TIP3    H210216   4.330   4.877   5.011  0.2745  0.2955 -0.4781
 3404TIP3   OH210217   2.790   2.578   1.229  0.2692  0.2655  0.7824
 3404TIP3    H110218   2.761   2.496   1.190 -0.5742  1.1710 -0.5822
 3404TIP3    H210219   2.709   2.626   1.247  0.6784  0.3339  2.7166
 3405TIP3   OH210220   6.150   2.296   4.842  0.1129 -0.4156  0.1251
 3405TIP3    H110221   6.238   2.280   4.806 -0.3400  1.6984 -2.2203
 3405TIP3    H210222   6.091   2.252   4.781 -0.5393 -0.0875  0.5153
 3406TIP3   OH210223   5.498   3.091   1.963 -0.2618 -0.0483  0.2308
 3406TIP3    H110224   5.528   3.180   1.981  0.8542  0.2222 -2.4541
 3406TIP3    H210225   5.441   3.099   1.887 -0.9762 -1.5308  0.5645
 3407TIP3   OH210226   3.477   5.116   1.203 -0.3888 -0.4968  0.2803
 3407TIP3    H110227   3.541   5.044   1.202  0.9714  0.6691  0.1397
 3407TIP3    H210228   3.525   5.191   1.166 -1.9608  0.3307 -0.1474
 3408TIP3   OH210229   4.789   1.755   3.433 -0.0902 -0.5075  0.0690
 3408TIP3    H110230   4.746   1.718   3.510  0.2486 -2.5189 -0.6428
 3408TIP3    H210231   4.873   1.788   3.465 -0.3785 -0.4016  0.7253
 3409TIP3   OH210232   1.045   1.646   3.877 -0.5080 -0.3979 -0.4636
 3409TIP3    H110233   1.057   1.629   3.784 -0.6873  0.9328 -0.7375
 3409TIP3    H210234   1.004   1.732   3.882 -0.4840 -0.4326  0.8464
 3410TIP3   OH210235   0.989   3.025   3.425 -0.1190  0.5109 -0.6926
 3410TIP3    H110236   0.956   3.019   3.515  0.1216  0.1628 -0.6256
 3410TIP3    H210237   1.052   3.098   3.428 -2.6519  2.8989 -1.3860
 3411TIP3   OH210238   5.168   2.028   3.762  0.2604  0.1830  0.2421
 3411TIP3    H110239   5.246   2.080   3.781 -0.1398  0.6223  0.7172
 3411TIP3    H210240   5.108   2.089   3.719 -0.4822  0.3298  1.4310
 3412TIP3   OH210241   0.491   4.437   3.859  0.3719 -0.4174  0.0675
 3412TIP3    H110242   0.498   4.375   3.932  0.2716 -1.0715 -0.4705
 3412TIP3    H210243   0.458   4.517   3.899 -2.3529 -1.5596  0.3355
 3413TIP3   OH210244   1.986   2.090   4.203 -0.4847  0.0739  0.1032
 3413TIP3    H110245   2.015   2.139   4.125 -0.4859  0.6408  0.4496
 3413TIP3    H210246   1.963   2.003   4.170  2.2533 -0.6487 -0.1060
 3414TIP3   OH210247   4.984   3.188   3.137 -0.1893 -0.6558  0.2455
 3414TIP3    H110248   4.984   3.279   3.168 -1.0637 -0.2518 -0.8422
 3414TIP3    H210249   4.982   3.135   3.216  0.2680  0.2757  0.9030
 3415TIP3   OH210250   2.641   0.519   4.104  0.4413 -0.2610  0.2392
 3415TIP3    H110251   2.673   0.429   4.095  1.2068  0.1750 -1.9831
 3415TIP3    H210252   2.551   0.509   4.136 -0.1070 -1.9372 -1.6230
 3416TIP3   OH210253   6.300   4.314   5.018 -0.1113  0.0598  0.2346
 3416TIP3    H110254   6.271   4.239   4.966 -0.1968  0.6427 -0.5732
 3416TIP3    H210255   6.259   4.302   5.103  1.3840 -1.8224  0.7591
 3417TIP3   OH210256   0.698   1.112   4.124 -0.6465 -0.9099 -0.2808
 3417TIP3    H110257   0.681   1.101   4.030 -0.1752  1.1420 -0.6436
 3417TIP3    H210258   0.762   1.043   4.144 -1.1526 -1.7252 -1.3197
 3418TIP3   OH210259   2.523   4.382   4.245 -0.0365  0.1548  0.1359
 3418TIP3    H110260   2.469   4.326   4.300  0.6045  0.0237  0.6467
 3418TIP3    H210261   2.470   4.399   4.168  0.5121 -2.8918 -1.0608
 3419TIP3   OH210262   0.463   3.476   4.709 -0.2122  0.1561  0.2295
 3419TIP3    H110263   0.506   3.491   4.625  0.7083 -0.9554  0.4769
 3419TIP3    H210264   0.388   3.535   4.709  1.2796  2.1520 -0.2349
 3420TIP3   OH210265   5.320   5.874   1.971 -0.4108 -0.8849 -0.1472
 3420TIP3    H110266   5.372   5.949   2.000  0.1046 -0.8327 -1.1859
 3420TIP3    H210267   5.345   5.803   2.031  0.1384 -0.6004 -0.0343
 3421TIP3   OH210268   1.944   0.451   1.887  0.3379 -0.0394  0.4217
 3421TIP3    H110269   1.855   0.418   1.902  0.2232  0.0520 -0.0281
 3421TIP3    H210270   1.932   0.544   1.871  0.2098 -0.3996 -2.0496
 3422TIP3   OH210271   5.079   0.095   3.141 -0.3901 -0.4877 -0.1922
 3422TIP3    H110272   5.022   0.140   3.204  1.3990  0.1598  1.0364
 3422TIP3    H210273   5.029   0.016   3.117 -0.9875 -1.0395  2.4303
 3423TIP3   OH210274   0.665   0.657   2.154  0.2767  0.1685  0.0858
 3423TIP3    H110275   0.737   0.720   2.162 -0.4461  1.1822 -1.1206
 3423TIP3    H210276   0.596   0.705   2.109 -1.1213 -0.8293  1.0789
 3424TIP3   OH210277   4.526   1.255   0.784  0.3846  0.5207  0.7407
 3424TIP3    H110278   4.441   1.214   0.766  1.3146 -1.0040 -0.5401
 3424TIP3    H210279   4.517   1.345   0.752 -0.4224  0.0479 -0.4549
 3425TIP3   OH210280   0.320   4.181   4.386 -0.1486  0.8903 -0.1372
 3425TIP3    H110281   0.395   4.125   4.364 -0.4458 -0.1727  1.3992
 3425TIP3    H210282   0.331   4.258   4.331  1.6510  0.4164 -0.5131
 3426TIP3   OH210283   2.946   2.812   4.752 -0.2484 -0.3088 -0.2409
 3426TIP3    H110284   2.940   2.743   4.686 -1.8272 -0.3679 -0.0822
 3426TIP3    H210285   2.862   2.808   4.798  0.1112  0.9235  0.5704
 3427TIP3   OH210286   5.941   3.921   2.266 -0.1902 -0.2839  0.2367
 3427TIP3    H110287   5.901   3.838   2.240  0.6415 -0.3821 -0.7747
 3427TIP3    H210288   6.029   3.897   2.294 -0.9414 -0.1629  3.0477
 3428TIP3   OH210289   2.128   2.652   0.549 -0.4222 -0.1290 -0.0027
 3428TIP3    H110290   2.151   2.721   0.612 -1.2214 -0.9815  1.2736
 3428TIP3    H210291   2.128   2.571   0.601  0.2692 -1.0853 -1.4094
 3429TIP3   OH210292   1.486   2.272   2.555 -0.3364  0.0099 -0.1864
 3429TIP3    H110293   1.419   2.272   2.623  1.5625 -1.7673  1.8590
 3429TIP3    H210294   1.514   2.363   2.549  0.4562  0.0442  2.6007
 3430TIP3   OH210295   5.473   3.149   2.895 -0.1036  0.3263 -0.4880
 3430TIP3    H110296   5.546   3.107   2.940 -0.2290  1.8414  1.2141
 3430TIP3    H210297   5.413   3.175   2.964 -1.4578  0.6273 -1.7223
 3431TIP3   OH210298   5.990   4.508   0.131  0.4976  0.5927  0.0081
 3431TIP3    H110299   5.972   4.523   0.223 -0.8118  0.5896 -0.2236
 3431TIP3    H210300   6.074   4.464   0.129  0.2571  0.0517  1.2326
 3432TIP3   OH210301   0.048   4.027   2.196 -0.0446 -0.4046 -0.0904
 3432TIP3    H110302   0.075   4.064   2.112  1.8284 -2.2783 -0.3981
 3432TIP3    H210303   0.009   3.942   2.172  2.6304 -2.0496  0.9867
 3433TIP3   OH210304   3.338   1.902   3.499 -0.1224  0.3210  0.6448
 3433TIP3    H110305   3.319   1.981   3.450  1.4210  0.5770  0.4101
 3433TIP3    H210306   3.259   1.848   3.489  0.7559 -0.5418 -3.8350
 3434TIP3   OH210307   1.478   0.811   0.357  0.8112  0.5123  0.6690
 3434TIP3    H110308   1.459   0.893   0.310 -0.1276 -0.0817 -0.0245
 3434TIP3    H210309   1.392   0.779   0.384  0.6391 -2.2430 -2.5129
 3435TIP3   OH210310   0.366   3.731   3.452 -0.4118  0.8728  0.2951
 3435TIP3    H110311   0.432   3.770   3.394 -0.0714 -2.0205 -1.4434
 3435TIP3    H210312   0.290   3.788   3.442 -0.3001  0.6624 -2.9133
 3436TIP3   OH210313   4.021   4.877   1.816 -0.0223 -0.0447  0.1189
 3436TIP3    H110314   4.058   4.836   1.738  0.9935  1.0193  0.0125
 3436TIP3    H210315   3.978   4.956   1.783  0.0316  0.1843  0.5943
 3437TIP3   OH210316   2.668   2.477   0.792  0.3162  0.5678  0.4484
 3437TIP3    H110317   2.762   2.471   0.810  0.3636  0.8955  0.3223
 3437TIP3    H210318   2.636   2.544   0.853  0.0069 -0.1374  1.0714
 3438TIP3   OH210319   3.279   4.216   3.557  0.3851 -0.0244 -0.0214
 3438TIP3    H110320   3.264   4.298   3.509 -0.1051 -0.3732 -0.4745
 3438TIP3    H210321   3.283   4.242   3.649  1.4816  0.6760 -0.2411
 3439TIP3   OH210322   2.561   0.398   5.062 -0.4297 -0.2749 -0.1707
 3439TIP3    H110323   2.559   0.305   5.042  0.2590 -0.8484  2.0701
 3439TIP3    H210324   2.653   0.424   5.048 -0.4538 -0.1312 -0.0717
 3440TIP3   OH210325   5.395   1.530   1.591 -0.1850  0.0266  0.0468
 3440TIP3    H110326   5.405   1.437   1.614 -1.1119 -0.1915 -0.3980
 3440TIP3    H210327   5.473   1.549   1.538  1.5750  0.3203  2.5371
 3441TIP3   OH210328   4.047   1.210   3.776 -0.2456  0.2205 -0.1216
 3441TIP3    H110329   4.106   1.184   3.847 -0.6914  0.5027  0.3537
 3441TIP3    H210330   4.105   1.224   3.701  0.1885 -0.4304  0.0822
 3442TIP3   OH210331   5.305   4.362   0.232 -0.0965  0.3056 -0.5207
 3442TIP3    H110332   5.266   4.283   0.194  0.9552 -1.0466  1.0467
 3442TIP3    H210333   5.399   4.350   0.222  0.1238  0.7769  0.7749
 3443TIP3   OH210334   0.432   1.651   1.990  0.0588  0.1539 -0.2935
 3443TIP3    H110335   0.364   1.718   1.989 -0.3383 -0.1533  1.5167
 3443TIP3    H210336   0.393   1.578   2.039  1.3193 -0.4454 -0.1449
 3444TIP3   OH210337   0.534   5.403   3.759  0.5131 -0.2620  0.4383
 3444TIP3    H110338   0.590   5.383   3.684  0.0126 -1.1736  0.2854
 3444TIP3    H210339   0.560   5.491   3.786  0.9072 -0.0430 -0.6130
 3445TIP3   OH210340   4.386   1.330   1.061 -0.5423 -0.1680  0.0388
 3445TIP3    H110341   4.456   1.304   1.000 -0.1877  2.1144 -0.6471
 3445TIP3    H210342   4.411   1.290   1.144  0.4616 -1.0903 -0.6645
 3446TIP3   OH210343   4.015   0.981   1.663  0.3553  0.0575  0.0688
 3446TIP3    H110344   3.990   1.073   1.656  1.5215  0.3468 -0.4363
 3446TIP3    H210345   4.027   0.951   1.573  1.2984 -0.2146  0.2763
 3447TIP3   OH210346   2.133   5.060   2.334  0.6911  0.6224  0.2256
 3447TIP3    H110347   2.209   5.004   2.322  0.4294  0.4233 -0.5497
 3447TIP3    H210348   2.159   5.145   2.298  0.1328  0.2092 -1.2006
 3448TIP3   OH210349   0.379   3.827   4.791  0.0925  0.0204  0.0396
 3448TIP3    H110350   0.305   3.767   4.779  1.2374 -1.2618 -0.9475
 3448TIP3    H210351   0.436   3.811   4.715  1.1796  1.2762  0.5484
 3449TIP3   OH210352   0.152   1.334   3.373 -0.1773 -0.3440  0.1047
 3449TIP3    H110353   0.189   1.405   3.321 -0.0969  0.7125  1.5537
 3449TIP3    H210354   0.075   1.373   3.415  0.3523 -0.8392  1.5990
 3450TIP3   OH210355   5.709   4.828   2.095 -0.2591 -0.6030 -0.3630
 3450TIP3    H110356   5.748   4.915   2.105 -0.4793 -0.7433  2.7443
 3450TIP3    H210357   5.691   4.821   2.001  1.5204  1.9013 -1.0146
 3451TIP3   OH210358   5.143   2.332   0.283 -0.4791  0.1288  0.5798
 3451TIP3    H110359   5.095   2.276   0.222 -1.0023 -0.3676  1.4292
 3451TIP3    H210360   5.147   2.282   0.364 -0.8562  1.2638  1.3259
 3452TIP3   OH210361   2.210   1.924   0.831 -0.4846  0.1754  0.2364
 3452TIP3    H110362   2.136   1.954   0.883  0.0124 -0.0343  1.0912
 3452TIP3    H210363   2.224   1.993   0.767 -2.2521 -0.3821 -0.8151
 3453TIP3   OH210364   6.063   1.629   2.165 -0.3539  0.6659 -0.4103
 3453TIP3    H110365   5.994   1.694   2.150 -1.6011 -0.2602  0.9801
 3453TIP3    H210366   6.096   1.651   2.253 -0.1231  0.0248 -0.3362
 3454TIP3   OH210367   0.393   2.032   1.858 -0.1294 -0.2223  0.0646
 3454TIP3    H110368   0.460   2.067   1.917  0.0195  0.0607 -0.2682
 3454TIP3    H210369   0.320   2.092   1.867 -0.9138 -1.3437  1.5369
 3455TIP3   OH210370   4.742   5.281   4.171 -0.0411  0.5882  0.1521
 3455TIP3    H110371   4.794   5.324   4.103  0.4562  1.0670  0.8178
 3455TIP3    H210372   4.807   5.255   4.236 -0.6141  0.9698  0.8828
 3456TIP3   OH210373   4.803   1.726   0.716  0.6134  0.3120  0.2762
 3456TIP3    H110374   4.788   1.739   0.810  0.3912  0.1943  0.2575
 3456TIP3    H210375   4.716   1.733   0.676  0.6969  0.2913  0.0875
 3457TIP3   OH210376   0.711   2.671   4.417  0.0626  0.2995 -0.1113
 3457TIP3    H110377   0.631   2.721   4.429  1.1284  2.2010 -0.5675
 3457TIP3    H210378   0.757   2.716   4.347  1.2772 -1.1014 -0.2588
 3458TIP3   OH210379   4.997   5.481   0.106  0.1806  0.5810 -0.8510
 3458TIP3    H110380   5.035   5.530   0.179 -0.8349  1.4905 -0.9059
 3458TIP3    H210381   4.949   5.547   0.056 -1.1902 -0.4479 -0.9526
 3459TIP3   OH210382   1.840   2.336   2.189 -0.4291  0.1460  0.0197
 3459TIP3    H110383   1.791   2.258   2.162  1.5396 -0.6295 -1.5614
 3459TIP3    H210384   1.868   2.377   2.107  2.3667 -0.0252  0.7651
 3460TIP3   OH210385   2.078   0.832   4.364  0.0803 -0.0976  0.2949
 3460TIP3    H110386   2.043   0.804   4.279 -1.4746  0.6286  0.6540
 3460TIP3    H210387   2.171   0.810   4.360  0.6363  2.1317 -2.6046
 3461TIP3   OH210388   4.954   0.034   3.939 -0.3555 -0.4476 -0.3225
 3461TIP3    H110389   4.891  -0.004   4.001 -0.1592 -0.7535 -0.3082
 3461TIP3    H210390   5.035   0.040   3.989 -0.0898 -1.0768 -0.6709
 3462TIP3   OH210391   5.319   3.281   2.482 -0.0112 -0.2401  0.7127
 3462TIP3    H110392   5.394   3.329   2.517  0.1924 -0.6114  0.7951
 3462TIP3    H210393   5.271   3.252   2.560  1.4053 -2.6026  0.7929
 3463TIP3   OH210394   0.055   5.916   4.345 -0.0679 -0.2335 -0.4455
 3463TIP3    H110395   0.041   5.826   4.318  1.7050 -0.6536 -0.0677
 3463TIP3    H210396  -0.027   5.941   4.388 -0.3091 -1.9103  0.1349
 3464TIP3   OH210397   2.372   3.459   1.598  0.0990 -0.2339 -0.4308
 3464TIP3    H110398   2.329   3.523   1.655 -1.2937 -1.0500 -0.5207
 3464TIP3    H210399   2.466   3.478   1.607 -0.2479  1.4261 -0.0177
 3465TIP3   OH210400   5.950   4.734   0.311  0.0690  0.1928  0.5730
 3465TIP3    H110401   6.013   4.799   0.345  1.8348 -0.5677 -1.0348
 3465TIP3    H210402   5.918   4.773   0.230 -0.8672  0.1730  0.9295
 3466TIP3   OH210403   0.804   0.438   2.238  0.6711 -0.2600  0.0497
 3466TIP3    H110404   0.863   0.411   2.168 -0.7185 -0.8013 -0.9635
 3466TIP3    H210405   0.774   0.525   2.213  0.3777 -0.3423  0.1060
 3467TIP3   OH210406   4.502   5.823   3.331 -0.1368 -0.3870  0.1001
 3467TIP3    H110407   4.492   5.911   3.296 -0.3380 -1.3770 -2.5806
 3467TIP3    H210408   4.521   5.836   3.424  1.1678  2.4995 -0.4652
 3468TIP3   OH210409   3.647   1.451   3.166  0.0963 -0.1636  0.1723
 3468TIP3    H110410   3.701   1.402   3.104 -0.4370 -0.2767 -0.2063
 3468TIP3    H210411   3.701   1.526   3.190  0.0124  0.3175 -1.0417
 3469TIP3   OH210412   2.662   0.479   1.984 -0.2036 -0.0625 -0.7300
 3469TIP3    H110413   2.613   0.529   2.049 -0.4224 -0.7667 -0.3360
 3469TIP3    H210414   2.751   0.473   2.020 -0.7115 -1.8832  0.3834
 3470TIP3   OH210415   3.284   0.503   0.846 -0.0410 -0.1161 -0.4850
 3470TIP3    H110416   3.357   0.476   0.791  0.6580 -1.6212  1.0842
 3470TIP3    H210417   3.233   0.423   0.859 -2.1874  0.9440 -1.7609
 3471TIP3   OH210418   1.092   4.048   2.477  0.3367 -0.1947  0.0991
 3471TIP3    H110419   1.187   4.041   2.466  0.7054  1.0301  2.0432
 3471TIP3    H210420   1.077   4.039   2.571 -1.1988  1.9024  0.1356
 3472TIP3   OH210421   3.365   5.054   3.631 -0.3872  0.6098  0.5501
 3472TIP3    H110422   3.357   5.027   3.722  0.1181 -1.7968 -0.0477
 3472TIP3    H210423   3.449   5.099   3.626 -0.0433  0.0461  1.1353
 3473TIP3   OH210424   4.636   2.291   1.979 -0.0131  0.2981  0.2980
 3473TIP3    H110425   4.632   2.215   2.037 -0.7164  0.6823  0.7558
 3473TIP3    H210426   4.567   2.349   2.009 -1.1304  0.0327 -1.5844
 3474TIP3   OH210427   3.109   3.901   3.993 -0.0233 -0.3610 -0.9269
 3474TIP3    H110428   3.035   3.938   4.041  0.3791 -0.5148 -0.1691
 3474TIP3    H210429   3.143   3.973   3.941 -1.0374 -0.4266 -1.7109
 3475TIP3   OH210430   0.506   0.728   3.532  0.2276  0.1985 -0.0495
 3475TIP3    H110431   0.599   0.720   3.512  1.1439  1.9616  2.8916
 3475TIP3    H210432   0.488   0.822   3.531 -1.9860 -0.1369 -2.0023
 3476TIP3   OH210433   3.390   3.151   2.724  0.0754 -0.3825  0.0294
 3476TIP3    H110434   3.449   3.086   2.764  1.5802  1.3032  0.7022
 3476TIP3    H210435   3.384   3.125   2.632  0.4421 -1.6178  0.3404
 3477TIP3   OH210436   2.261   2.891   4.926  0.5830  0.9304  0.0929
 3477TIP3    H110437   2.220   2.975   4.947 -1.8624 -0.3923  1.0414
 3477TIP3    H210438   2.194   2.844   4.876  1.3178 -0.9908  0.8156
 3478TIP3   OH210439   0.645   3.468   2.327  0.4498 -0.4003  0.0773
 3478TIP3    H110440   0.655   3.524   2.404 -0.2651  0.2707 -0.2997
 3478TIP3    H210441   0.653   3.379   2.360  1.5396 -0.0963  0.7081
 3479TIP3   OH210442   0.252   3.436   1.907  0.1967  0.0457 -0.5457
 3479TIP3    H110443   0.318   3.384   1.952  0.4578  0.8724  0.0523
 3479TIP3    H210444   0.169   3.394   1.930  0.2406  0.9421  1.4651
 3480TIP3   OH210445   1.937   2.445   0.103 -0.3225  0.5910  0.0017
 3480TIP3    H110446   1.858   2.481   0.064 -1.0176 -0.5266  0.3445
 3480TIP3    H210447   1.947   2.493   0.186 -1.3851 -0.1428  0.5799
 3481TIP3   OH210448   3.716   0.824   3.074 -0.6322  0.4437  0.0113
 3481TIP3    H110449   3.630   0.860   3.050 -0.4153 -0.2446 -1.9661
 3481TIP3    H210450   3.768   0.901   3.098 -1.2817  1.0577 -0.4824
 3482TIP3   OH210451   6.049   3.456   1.276  0.2755  0.1913  0.4156
 3482TIP3    H110452   6.081   3.385   1.331 -1.0767  0.5352  1.7240
 3482TIP3    H210453   6.106   3.530   1.298 -0.6701  0.5183  1.9507
 3483TIP3   OH210454   5.803   1.191   4.695 -0.3561 -0.9554  0.2169
 3483TIP3    H110455   5.764   1.201   4.782  0.1068 -4.3928  0.9492
 3483TIP3    H210456   5.897   1.191   4.710 -0.0614  2.2455 -0.8983
 3484TIP3   OH210457   2.085   3.521   0.421 -0.0438 -0.1732  0.8032
 3484TIP3    H110458   2.061   3.576   0.496 -1.9148  1.8327 -1.1200
 3484TIP3    H210459   2.003   3.479   0.395 -0.0842  1.2096 -1.6052
 3485TIP3   OH210460   1.177   5.712   3.843  0.2099  0.2580 -0.4576
 3485TIP3    H110461   1.212   5.715   3.754  1.9552  0.1349  0.1874
 3485TIP3    H210462   1.198   5.798   3.879 -0.8101  0.4389 -0.2534
 3486TIP3   OH210463   2.365   0.131   0.388 -0.0462 -0.2794  0.4036
 3486TIP3    H110464   2.339   0.092   0.304 -1.1830 -0.9790  1.0438
 3486TIP3    H210465   2.282   0.161   0.426  0.7926  3.5399 -0.3535
 3487TIP3   OH210466   3.271   3.436   3.994 -0.5442 -0.4180  0.8475
 3487TIP3    H110467   3.294   3.522   4.027 -0.6771 -0.0005 -0.1076
 3487TIP3    H210468   3.304   3.435   3.904 -0.8040 -1.2490  0.7498
 3488TIP3   OH210469   5.598   0.733   3.374  0.2934  0.1802  0.1918
 3488TIP3    H110470   5.540   0.722   3.450  0.8639  0.3504  0.6582
 3488TIP3    H210471   5.634   0.821   3.385  0.7903 -0.0011  0.0112
 3489TIP3   OH210472   0.886   5.219   0.385 -0.4854  0.0700 -0.0282
 3489TIP3    H110473   0.856   5.134   0.417  2.2179 -0.5642  1.1155
 3489TIP3    H210474   0.875   5.214   0.290  0.6422 -2.0455 -0.1021
 3490TIP3   OH210475   4.099   2.209   1.292  0.0651 -0.0352  0.4753
 3490TIP3    H110476   4.068   2.296   1.319  2.5619  0.8739  0.7210
 3490TIP3    H210477   4.072   2.151   1.363 -1.3915  0.5555  0.4494
 3491TIP3   OH210478   5.868   0.987   2.275 -0.6668 -0.4695  0.4658
 3491TIP3    H110479   5.788   0.960   2.320 -1.9665 -0.5247 -1.7571
 3491TIP3    H210480   5.877   0.925   2.203  0.1048  0.8837 -0.6595
 3492TIP3   OH210481   1.964   3.106   1.070 -0.3508 -0.4533  0.4830
 3492TIP3    H110482   2.060   3.104   1.079  0.0775 -0.5108 -2.6726
 3492TIP3    H210483   1.945   3.035   1.009 -2.1143  0.9924 -0.7422
 3493TIP3   OH210484   4.830   2.835   1.185  0.0110 -0.4247 -0.0224
 3493TIP3    H110485   4.857   2.762   1.129 -0.1980 -0.7158  0.2488
 3493TIP3    H210486   4.893   2.905   1.166  1.7711 -1.5034  1.5270
 3494TIP3   OH210487   0.721   2.234   4.499  0.4150 -0.2454 -0.7085
 3494TIP3    H110488   0.731   2.319   4.541  0.9333 -1.1276  1.0586
 3494TIP3    H210489   0.705   2.255   4.407 -0.7754  1.7775 -0.1118
 3495TIP3   OH210490   0.648   2.175   2.884 -0.3757 -0.2044 -0.1001
 3495TIP3    H110491   0.610   2.087   2.890  0.2999 -0.7022 -2.3560
 3495TIP3    H210492   0.656   2.192   2.791 -0.1274  2.1353  0.2818
 3496TIP3   OH210493   4.258   0.548   3.828 -0.4218 -0.4045  0.5211
 3496TIP3    H110494   4.243   0.638   3.798  0.9729 -1.0904 -2.7227
 3496TIP3    H210495   4.184   0.498   3.794  0.0776 -0.8710  0.0991
 3497TIP3   OH210496   3.552   4.241   0.068  0.2522  0.3052 -0.0574
 3497TIP3    H110497   3.613   4.304   0.106 -0.7648  0.3725  1.5509
 3497TIP3    H210498   3.473   4.248   0.122 -0.6469 -0.8391 -1.1599
 3498TIP3   OH210499   0.458   3.660   3.703 -0.6013 -0.2860  0.2790
 3498TIP3    H110500   0.428   3.687   3.616  0.1552 -2.8447 -0.8879
 3498TIP3    H210501   0.547   3.694   3.709 -0.1944 -1.1486 -0.5269
 3499TIP3   OH210502   3.692   2.334   3.707 -0.2736  0.2240 -0.1084
 3499TIP3    H110503   3.702   2.414   3.657 -0.3695  0.8491  0.8410
 3499TIP3    H210504   3.760   2.339   3.775 -1.5277  0.4980  1.1931
 3500TIP3   OH210505   2.056   4.100   2.783  0.1837  0.2728 -0.1104
 3500TIP3    H110506   2.032   4.141   2.866  1.0988  2.0691 -0.6595
 3500TIP3    H210507   2.041   4.007   2.796 -1.7310  0.7298  1.3476
 3501TIP3   OH210508   1.828   5.364   1.061 -0.2321  0.5407 -0.0088
 3501TIP3    H110509   1.897   5.324   1.114  1.8612 -0.5485 -3.2359
 3501TIP3    H210510   1.841   5.459   1.072 -0.2578  0.3600  1.7943
 3502TIP3   OH210511   1.480   0.427   4.332  0.1583  0.2216  0.2801
 3502TIP3    H110512   1.555   0.437   4.391  0.9499 -0.6258 -0.5502
 3502TIP3    H210513   1.492   0.341   4.291 -0.2052  0.8961 -1.3398
 3503TIP3   OH210514   0.629   1.802   2.422 -0.2043  0.1823  0.6292
 3503TIP3    H110515   0.602   1.829   2.509 -0.3848 -0.1820  0.6913
 3503TIP3    H210516   0.624   1.706   2.424  1.8213  0.0399  0.8894
 3504TIP3   OH210517   3.398   0.936   0.207  0.0624 -0.4794  0.6052
 3504TIP3    H110518   3.403   1.026   0.175 -0.2995 -0.7396 -0.2143
 3504TIP3    H210519   3.429   0.883   0.134 -0.0085 -1.0392  0.9745
 3505TIP3   OH210520   5.401   0.193   2.476 -0.2463 -0.0863 -0.3927
 3505TIP3    H110521   5.455   0.122   2.510  0.3822  1.0818  1.1867
 3505TIP3    H210522   5.349   0.221   2.552 -0.8999  0.7664 -1.1362
 3506TIP3   OH210523   6.271   3.362   3.116  0.1383 -0.1774 -0.3966
 3506TIP3    H110524   6.282   3.387   3.208 -0.0440 -0.5139 -0.2831
 3506TIP3    H210525   6.203   3.295   3.117  1.7068 -1.8392 -0.5068
 3507TIP3   OH210526   5.906   5.222   3.745  0.1325 -0.1199  0.2311
 3507TIP3    H110527   5.926   5.206   3.653 -1.1969  0.1707 -0.1282
 3507TIP3    H210528   5.925   5.315   3.757  1.7959 -0.4859  0.6789
 3508TIP3   OH210529   4.135   5.015   0.744  0.0465 -0.4492 -0.5816
 3508TIP3    H110530   4.059   5.064   0.714 -0.1290 -0.7070 -0.5650
 3508TIP3    H210531   4.195   5.081   0.776 -0.5296 -0.2870  0.2124
 3509TIP3   OH210532   5.910   4.445   0.419 -0.3646 -0.0051  0.1143
 3509TIP3    H110533   5.876   4.534   0.410 -1.1003 -0.0514  1.8490
 3509TIP3    H210534   5.850   4.404   0.482  1.5468 -0.8416  1.4883
 3510TIP3   OH210535   3.289   0.640   0.270  0.0180 -0.1741 -0.3135
 3510TIP3    H110536   3.340   0.632   0.190  0.6275 -1.8505  0.1956
 3510TIP3    H210537   3.205   0.598   0.249  0.9724 -2.6924  0.5138
 3511TIP3   OH210538   2.717   5.807   4.983  0.0680 -0.2452 -0.3640
 3511TIP3    H110539   2.708   5.768   4.896  0.1020 -0.8173 -0.1130
 3511TIP3    H210540   2.710   5.901   4.968 -1.8712 -0.4191 -0.7474
 3512TIP3   OH210541   1.639   2.941   1.883  0.4116  0.1219 -0.2748
 3512TIP3    H110542   1.630   2.848   1.905  1.3049 -0.3645 -1.8156
 3512TIP3    H210543   1.727   2.949   1.848  0.0568  1.3822 -0.9381
 3513TIP3   OH210544   5.289   4.934   1.205  0.3551 -0.2525  0.0650
 3513TIP3    H110545   5.345   4.857   1.192 -0.2600 -0.6835 -0.0862
 3513TIP3    H210546   5.272   4.936   1.299  2.9474  1.5484  0.5851
 3514TIP3   OH210547   0.931   1.042   1.891 -0.0921  0.3126  0.2620
 3514TIP3    H110548   1.012   1.089   1.907  0.0445 -0.2158  1.1729
 3514TIP3    H210549   0.953   0.976   1.825 -0.1564  1.1593 -0.6172
 3515TIP3   OH210550   0.273   4.125   5.200 -0.3550 -0.1715  0.0146
 3515TIP3    H110551   0.180   4.143   5.209 -0.4322 -1.0360  1.0350
 3515TIP3    H210552   0.285   4.108   5.106 -1.2679 -0.3521 -0.0765
 3516TIP3   OH210553   4.943   1.541   1.053  0.2190  0.1347 -0.0858
 3516TIP3    H110554   5.018   1.600   1.045  0.5807 -0.4411 -1.1247
 3516TIP3    H210555   4.980   1.461   1.090  0.0167  0.0132 -0.1479
 3517TIP3   OH210556   1.336   0.045   4.836  0.0405 -0.7709  0.4591
 3517TIP3    H110557   1.329   0.107   4.909  0.2111 -0.3483  0.1167
 3517TIP3    H210558   1.359  -0.038   4.878  1.9107 -0.1587  0.7508
 3518TIP3   OH210559   4.952   2.944   1.972  0.3796 -0.3635  0.5710
 3518TIP3    H110560   5.040   2.936   1.934  0.5066 -2.3277  1.1582
 3518TIP3    H210561   4.920   3.029   1.941  1.7546 -0.4208 -1.1611
 3519TIP3   OH210562   2.568   0.342   4.467 -0.0830 -0.2278 -0.3174
 3519TIP3    H110563   2.622   0.309   4.394  0.1943  0.8847 -0.6430
 3519TIP3    H210564   2.507   0.271   4.486 -0.8651 -0.1681 -2.3503
 3520TIP3   OH210565   5.867   3.256   5.179 -0.1390 -0.7080 -0.3412
 3520TIP3    H110566   5.816   3.224   5.105 -0.5855 -1.0478  0.1035
 3520TIP3    H210567   5.871   3.351   5.167 -0.0092 -0.7818 -0.9158
 3521TIP3   OH210568   2.349   3.338   3.985  0.2576 -0.0047 -0.3394
 3521TIP3    H110569   2.288   3.266   4.002  0.1376  0.2821  0.4882
 3521TIP3    H210570   2.342   3.395   4.062  1.5488  0.0434 -0.2262
 3522TIP3   OH210571   3.975   0.993   3.610  0.5790  0.1175 -0.3966
 3522TIP3    H110572   3.883   1.004   3.587  0.3223  0.6450  0.8014
 3522TIP3    H210573   3.996   1.070   3.663  1.1245 -1.0028  1.0793
 3523TIP3   OH210574   6.224   2.503   0.721 -0.0830 -0.0244 -0.2677
 3523TIP3    H110575   6.256   2.459   0.800  0.8179 -0.2072 -0.7245
 3523TIP3    H210576   6.232   2.596   0.740 -2.8870  0.0582  1.0788
 3524TIP3   OH210577   1.911   5.355   2.224  0.2658  0.0459  0.7308
 3524TIP3    H110578   1.994   5.324   2.187 -0.0271 -2.2044  1.8078
 3524TIP3    H210579   1.872   5.408   2.155  1.2250 -1.3246 -0.9259
 3525TIP3   OH210580   4.396   0.510   4.228  0.2837  0.5513  0.0536
 3525TIP3    H110581   4.402   0.555   4.312 -0.9181 -2.8612  2.1958
 3525TIP3    H210582   4.304   0.483   4.223  0.2353  0.9946 -2.6237
 3526TIP3   OH210583   4.693   3.081   3.187  0.2502  0.5360  0.0897
 3526TIP3    H110584   4.787   3.088   3.174  0.1977  0.4905 -0.3402
 3526TIP3    H210585   4.655   3.129   3.113 -0.0659 -0.0485 -0.1346
 3527TIP3   OH210586   1.007   4.097   2.018  0.4386 -0.1365 -0.4630
 3527TIP3    H110587   0.997   4.004   2.040  1.0182 -0.2654 -0.7228
 3527TIP3    H210588   0.949   4.142   2.079 -0.8891 -0.7534 -1.2123
 3528TIP3   OH210589   1.150   2.500   2.024 -0.0152  0.4797  0.1518
 3528TIP3    H110590   1.165   2.583   1.979  1.3977  0.5390  0.7082
 3528TIP3    H210591   1.066   2.512   2.068 -0.9875  0.7553 -1.6642
 3529TIP3   OH210592   0.146   0.937   4.252 -0.4189  0.4335  0.2144
 3529TIP3    H110593   0.227   0.986   4.243 -0.5817  0.3294 -2.3409
 3529TIP3    H210594   0.167   0.867   4.314  1.5890  0.1137 -0.7739
 3530TIP3   OH210595   3.009   4.022   3.587  0.2269  0.2090 -0.3700
 3530TIP3    H110596   3.066   4.099   3.578  0.1705  0.1961 -0.8912
 3530TIP3    H210597   3.068   3.950   3.609  0.1969  0.5325  0.8282
 3531TIP3   OH210598   5.302   0.051   4.803 -0.2077 -0.5579 -0.0716
 3531TIP3    H110599   5.222   0.102   4.787 -0.8496 -1.2264  0.9000
 3531TIP3    H210600   5.354   0.106   4.862  0.9856  0.7500 -2.2073
 3532TIP3   OH210601   0.149   0.751   4.443 -0.2961 -0.2752  0.4664
 3532TIP3    H110602   0.091   0.688   4.400 -1.1796  0.3848  0.6725
 3532TIP3    H210603   0.141   0.731   4.536 -0.5023  0.0743  0.5250
 3533TIP3   OH210604   0.300   1.927   4.890  0.2117  0.3155 -0.8863
 3533TIP3    H110605   0.369   1.864   4.911 -1.7329 -1.7114 -0.1551
 3533TIP3    H210606   0.280   1.912   4.798 -2.2600 -2.4644 -0.0691
 3534TIP3   OH210607   6.306   3.185   4.122 -0.1719 -0.4618  0.4106
 3534TIP3    H110608   6.268   3.262   4.080 -0.0561  0.9382  2.6823
 3534TIP3    H210609   6.233   3.145   4.169 -0.1967 -1.6856 -0.6413
 3535TIP3   OH210610   4.879   0.296   4.537 -0.1903  0.7534  0.2293
 3535TIP3    H110611   4.935   0.223   4.511 -1.8369 -0.0582 -1.2387
 3535TIP3    H210612   4.913   0.371   4.488 -0.1243  0.3680 -0.3157
 3536TIP3   OH210613   5.258   0.442   4.073  0.6704 -0.3263 -0.2832
 3536TIP3    H110614   5.332   0.501   4.063 -0.5579  1.0577 -1.7590
 3536TIP3    H210615   5.244   0.406   3.986 -0.0758 -0.9599  0.0875
 3537TIP3   OH210616   5.254   1.723   3.134  0.2927  0.1117 -0.2180
 3537TIP3    H110617   5.328   1.757   3.083 -0.8466 -1.3957 -3.1065
 3537TIP3    H210618   5.185   1.788   3.122  0.6159  0.7349  1.1528
 3538TIP3   OH210619   3.100   0.577   1.788  0.0135 -0.3110  0.1795
 3538TIP3    H110620   3.183   0.624   1.791  0.2528 -0.7536  1.9149
 3538TIP3    H210621   3.051   0.609   1.864 -0.8774 -0.9905 -0.0758
 3539TIP3   OH210622   5.839   0.571   2.426 -0.4195 -0.1869 -0.5008
 3539TIP3    H110623   5.829   0.605   2.515  0.5083 -1.3469  0.0771
 3539TIP3    H210624   5.770   0.614   2.376 -1.4070 -0.0395  0.9290
 3540TIP3   OH210625   5.881   0.181   4.870 -0.0474 -0.5405  0.3335
 3540TIP3    H110626   5.976   0.170   4.872  0.0993  0.6662  1.1389
 3540TIP3    H210627   5.859   0.210   4.959 -1.2239 -1.1851  0.2722
 3541TIP3   OH210628   5.698   5.761   4.812  0.1241  0.1137 -0.2721
 3541TIP3    H110629   5.757   5.836   4.807  0.5152 -0.2123 -0.5203
 3541TIP3    H210630   5.747   5.688   4.774 -0.5702 -0.0763 -0.8231
 3542TIP3   OH210631   0.144   0.479   4.701 -0.0504 -0.2920  0.7074
 3542TIP3    H110632   0.080   0.449   4.637 -0.8180  0.6212  1.0242
 3542TIP3    H210633   0.229   0.458   4.662 -0.5299 -1.0163  0.0355
 3543TIP3   OH210634   3.186   4.891   0.880  0.3184  0.5825  0.2488
 3543TIP3    H110635   3.268   4.885   0.930  0.4181  0.9224  0.1310
 3543TIP3    H210636   3.126   4.939   0.938  0.5665  1.3560 -0.1120
 3544TIP3   OH210637   2.626   0.357   4.726 -0.2306 -0.5060 -0.0025
 3544TIP3    H110638   2.541   0.381   4.763  1.2216  3.0763  1.4634
 3544TIP3    H210639   2.610   0.347   4.633 -2.2374  0.3652  0.1969
 3545TIP3   OH210640   4.820   2.107   0.961  0.2508 -0.0254 -0.5370
 3545TIP3    H110641   4.906   2.073   0.938 -0.0407  0.1377 -2.0002
 3545TIP3    H210642   4.780   2.039   1.014  0.9917 -0.4324 -0.4910
 3546TIP3   OH210643   4.017   1.790   0.568 -0.4983 -0.5098  0.4414
 3546TIP3    H110644   4.090   1.752   0.520 -0.8926 -1.6958  0.7481
 3546TIP3    H210645   4.012   1.739   0.649 -1.5832 -0.3602  0.4886
 3547TIP3   OH210646   2.200   5.429   0.973 -0.0799 -0.4098  0.3820
 3547TIP3    H110647   2.232   5.387   0.893  0.8055 -0.4616  0.7563
 3547TIP3    H210648   2.272   5.485   1.001 -1.2179  1.3624 -0.0840
 3548TIP3   OH210649   0.662   1.595   1.020  0.0978 -0.0650 -0.2520
 3548TIP3    H110650   0.699   1.633   0.940  1.4372  0.9691  0.8147
 3548TIP3    H210651   0.639   1.505   0.995  1.2611 -0.0330 -1.5745
 3549TIP3   OH210652   4.941   2.680   1.634 -0.0620  0.3992 -0.2702
 3549TIP3    H110653   4.882   2.713   1.567 -1.1469  0.6806  0.7950
 3549TIP3    H210654   5.014   2.742   1.636 -1.4280  2.0223  0.7874
 3550TIP3   OH210655   2.778   3.972   4.944 -0.0097 -0.0561 -0.7822
 3550TIP3    H110656   2.768   3.879   4.962 -1.6112 -0.5290 -3.6120
 3550TIP3    H210657   2.689   4.002   4.923  0.4893  2.1064 -0.0957
 3551TIP3   OH210658   6.290   4.813   3.636 -0.8660  0.3606  0.5488
 3551TIP3    H110659   6.232   4.859   3.697 -1.0719  1.1352 -0.2223
 3551TIP3    H210660   6.244   4.814   3.552  0.8458  2.2703 -0.4530
 3552TIP3   OH210661   3.305   4.736   2.051  0.1135  0.3096 -0.5409
 3552TIP3    H110662   3.366   4.728   1.977 -2.0220 -1.7964 -2.2378
 3552TIP3    H210663   3.312   4.653   2.097  0.2101  0.9708  0.6763
 3553TIP3   OH210664   3.316   3.352   4.301 -0.3044 -0.3008  0.2929
 3553TIP3    H110665   3.257   3.280   4.323 -1.1428  0.0172 -0.8206
 3553TIP3    H210666   3.353   3.329   4.216  0.8338 -0.2689  0.7632
 3554TIP3   OH210667   1.574   4.462   4.948 -0.0283  0.2137 -0.2207
 3554TIP3    H110668   1.501   4.521   4.931 -1.1953 -1.1234 -0.0596
 3554TIP3    H210669   1.596   4.477   5.040  0.5680  1.2981 -0.5175
 3555TIP3   OH210670   0.313   5.825   2.619 -0.1473 -0.1440 -0.0852
 3555TIP3    H110671   0.250   5.896   2.631 -0.6879 -0.3420 -1.4984
 3555TIP3    H210672   0.342   5.835   2.528  1.2554 -0.5545  0.2940
 3556TIP3   OH210673   1.798   2.802   0.645  0.2228 -0.1961 -0.0862
 3556TIP3    H110674   1.838   2.790   0.732  2.5264  0.8295 -0.9263
 3556TIP3    H210675   1.780   2.896   0.640 -0.6741 -0.3809 -0.4191
 3557TIP3   OH210676   5.964   3.183   0.837  0.6383  0.2679 -0.0972
 3557TIP3    H110677   6.014   3.249   0.884 -1.1355  0.2978  1.8881
 3557TIP3    H210678   5.918   3.233   0.769 -0.0985  0.9942  0.9005
 3558TIP3   OH210679   1.438   3.415   2.122  1.0063 -0.1180 -0.2058
 3558TIP3    H110680   1.506   3.353   2.095  0.6148 -0.5814 -0.1298
 3558TIP3    H210681   1.393   3.438   2.041  1.1522  0.0702 -0.2342
 3559TIP3   OH210682   3.968   5.804   3.850 -0.1855  0.4532  0.1118
 3559TIP3    H110683   3.983   5.805   3.756  0.3816 -0.3357  0.1840
 3559TIP3    H210684   4.009   5.884   3.882 -1.1571  1.1807 -0.4078
 3560TIP3   OH210685   1.476   5.340   1.036  0.1436 -0.2379 -0.5896
 3560TIP3    H110686   1.529   5.353   1.115  0.2617  1.2862 -0.8920
 3560TIP3    H210687   1.465   5.428   1.000  0.1353 -0.9175 -2.3194
 3561TIP3   OH210688   2.855   4.606   3.976  0.3919  0.0996 -0.2635
 3561TIP3    H110689   2.870   4.658   4.056  1.7499 -2.9633  1.6600
 3561TIP3    H210690   2.760   4.607   3.965  0.1733  0.7698  1.2805
 3562TIP3   OH210691   1.515   2.797   0.724 -0.2730 -0.2956  0.1846
 3562TIP3    H110692   1.540   2.870   0.782  1.3865  0.4946 -1.4293
 3562TIP3    H210693   1.595   2.748   0.711 -0.4908 -0.2241 -1.7282
 3563TIP3   OH210694   5.602   4.141   2.356  0.0173 -0.4605  0.1096
 3563TIP3    H110695   5.628   4.200   2.426  2.1234 -1.8766  0.6239
 3563TIP3    H210696   5.590   4.197   2.280  1.3402  0.7236  0.7326
 3564TIP3   OH210697   2.295   0.309   5.139 -0.5088 -0.4664 -0.1926
 3564TIP3    H110698   2.320   0.236   5.082 -0.8519 -0.6777 -0.0740
 3564TIP3    H210699   2.376   0.359   5.149 -0.5029 -0.2766 -1.0823
 3565TIP3   OH210700   4.108   5.453   4.410 -0.5277  0.6908 -0.4940
 3565TIP3    H110701   4.107   5.521   4.478  1.3172  1.1840 -0.8930
 3565TIP3    H210702   4.185   5.400   4.431 -1.0130 -0.2964 -1.1339
 3566TIP3   OH210703   2.607   4.857   4.195  0.1509 -0.1489  0.6818
 3566TIP3    H110704   2.586   4.816   4.111 -0.5579  2.2485 -0.4030
 3566TIP3    H210705   2.546   4.817   4.257  0.7715 -2.0536  0.1389
 3567TIP3   OH210706   2.786   3.684   4.982 -0.2433 -0.0283  0.0181
 3567TIP3    H110707   2.751   3.634   4.908  0.6986 -1.2844  0.3988
 3567TIP3    H210708   2.878   3.660   4.986  0.2730  1.8355  0.1666
 3568TIP3   OH210709   5.988   2.292   1.144 -0.4757 -0.0428  0.7822
 3568TIP3    H110710   6.000   2.377   1.101  1.2667  0.2058  1.7028
 3568TIP3    H210711   5.898   2.295   1.178 -0.5840  1.2457  0.4232
 3569TIP3   OH210712   5.572   4.947   0.412 -0.2031 -0.3514  0.2730
 3569TIP3    H110713   5.476   4.946   0.415 -0.2543  0.2164 -0.7525
 3569TIP3    H210714   5.595   5.036   0.440  0.0235 -0.4882  0.5169
 3570TIP3   OH210715   3.794   2.132   1.477  0.5501 -0.4447  0.5557
 3570TIP3    H110716   3.880   2.099   1.503  1.0763  1.3154  1.2211
 3570TIP3    H210717   3.742   2.131   1.557  1.5899  3.2146  1.4660
 3571TIP3   OH210718   2.266   1.875   0.463 -0.1940  0.2421  0.2185
 3571TIP3    H110719   2.216   1.818   0.405 -1.8456 -0.3318  2.0876
 3571TIP3    H210720   2.338   1.821   0.494 -1.3372 -0.6493  1.4091
 3572TIP3   OH210721   1.382   3.784   2.941 -0.1681 -0.1908 -0.2754
 3572TIP3    H110722   1.299   3.753   2.904 -0.1076 -1.8551  0.9145
 3572TIP3    H210723   1.438   3.707   2.944  1.6914  1.0253 -1.6244
 3573TIP3   OH210724   1.757   1.539   1.468  0.2299 -0.4549  0.1933
 3573TIP3    H110725   1.681   1.585   1.433  1.2497  0.5039 -0.8268
 3573TIP3    H210726   1.829   1.599   1.456  1.1211 -1.2174  1.4502
 3574TIP3   OH210727   0.565   4.135   4.843  0.1016  0.2051  0.5105
 3574TIP3    H110728   0.490   4.186   4.815  0.4641  1.1304  1.1759
 3574TIP3    H210729   0.527   4.061   4.891 -0.3934  0.3802  0.3889
 3575TIP3   OH210730   5.754   1.703   3.383 -0.5760 -0.0429 -0.3433
 3575TIP3    H110731   5.820   1.633   3.388  1.5037  1.7491 -1.0869
 3575TIP3    H210732   5.739   1.714   3.289 -1.7637 -0.2448 -0.1859
 3576TIP3   OH210733   2.688   1.658   2.037  1.0024 -0.2101 -0.2787
 3576TIP3    H110734   2.732   1.628   1.957  1.4016 -0.5079  0.0441
 3576TIP3    H210735   2.735   1.738   2.061  0.2254  0.4406 -0.8953
 3577TIP3   OH210736   3.416   5.363   3.458  0.1491 -0.0480  0.2122
 3577TIP3    H110737   3.430   5.451   3.493  0.8200  0.6318 -1.6439
 3577TIP3    H210738   3.443   5.304   3.529 -0.3856  1.2190  1.5175
 3578TIP3   OH210739   4.175   1.971   3.589  0.3369  0.9961  0.4716
 3578TIP3    H110740   4.126   1.933   3.661  0.6908  0.4368  0.4252
 3578TIP3    H210741   4.110   2.020   3.539 -0.0365  0.8393  0.7957
 3579TIP3   OH210742   2.649   1.228   1.353  0.5658 -0.0209 -0.1777
 3579TIP3    H110743   2.642   1.143   1.397 -1.2087 -0.2061 -0.7315
 3579TIP3    H210744   2.559   1.252   1.333  1.0943  1.6547 -0.7119
 3580TIP3   OH210745   3.993   1.850   3.765  0.2623 -0.2171  0.8682
 3580TIP3    H110746   3.976   1.932   3.810  1.9114 -0.4771  2.0732
 3580TIP3    H210747   3.945   1.784   3.815  0.1687 -0.1783  0.8280
 3581TIP3   OH210748   4.371   3.705   3.321 -0.3805 -0.0503 -0.5121
 3581TIP3    H110749   4.308   3.645   3.282  0.2610 -0.6216 -0.6952
 3581TIP3    H210750   4.380   3.775   3.256  0.6892 -1.0000 -1.4516
 3582TIP3   OH210751   0.434   3.535   4.230 -0.7192 -0.1835 -0.0020
 3582TIP3    H110752   0.349   3.495   4.249 -0.8313  0.0147 -0.0897
 3582TIP3    H210753   0.432   3.551   4.135 -1.0469  0.8968  0.1793
 3583TIP3   OH210754   5.583   4.308   0.184  0.2929 -0.2652  0.3917
 3583TIP3    H110755   5.572   4.242   0.116 -0.9689 -0.1106  0.4177
 3583TIP3    H210756   5.647   4.369   0.149 -1.0826  0.3705 -1.1177
 3584TIP3   OH210757   4.372   3.223   1.387 -0.1223  0.5782  0.1933
 3584TIP3    H110758   4.351   3.280   1.313 -0.3228 -2.1183 -1.9879
 3584TIP3    H210759   4.291   3.218   1.437 -0.5863  0.9468 -0.5038
 3585TIP3   OH210760   0.215   1.572   4.705 -0.4991  0.2267  0.3006
 3585TIP3    H110761   0.216   1.667   4.700 -0.5674  0.1863 -0.7081
 3585TIP3    H210762   0.203   1.543   4.614 -0.5988 -0.7382  0.6081
 3586TIP3   OH210763   5.809   1.102   1.508  0.2167 -0.3610 -0.2886
 3586TIP3    H110764   5.774   1.016   1.534 -1.0142 -0.3745 -1.9004
 3586TIP3    H210765   5.893   1.081   1.466  0.8360 -0.5706  0.9695
 3587TIP3   OH210766   1.714   5.225   2.580  0.3650  0.2701  0.2962
 3587TIP3    H110767   1.726   5.231   2.674  0.7456  0.6736  0.2255
 3587TIP3    H210768   1.621   5.244   2.567 -0.0484 -1.3251  0.7067
 3588TIP3   OH210769   3.062   0.917   4.408 -0.1687  0.2180 -0.2804
 3588TIP3    H110770   2.985   0.967   4.433  0.7570  1.1852  0.7784
 3588TIP3    H210771   3.032   0.826   4.403 -1.8434  0.7959 -2.0374
 3589TIP3   OH210772   3.956   2.476   1.750 -0.0633 -0.0366 -0.1613
 3589TIP3    H110773   3.985   2.453   1.838  0.4484  2.5331  0.3945
 3589TIP3    H210774   4.034   2.509   1.706 -0.7170  0.5075 -0.9483
 3590TIP3   OH210775   5.471   4.184   0.485 -0.0046 -0.1539  0.1097
 3590TIP3    H110776   5.492   4.246   0.416 -0.0232 -0.1361  0.1202
 3590TIP3    H210777   5.376   4.177   0.483  0.0146 -0.3903 -0.0748
 3591TIP3   OH210778   0.920   4.989   1.738 -0.2678  0.1781 -0.1102
 3591TIP3    H110779   0.965   4.936   1.672  1.6477  0.0485  1.2202
 3591TIP3    H210780   0.969   4.974   1.819 -0.9734  2.3220  0.7846
 3592TIP3   OH210781   5.554   5.448   1.950 -0.5022 -0.3301  0.0829
 3592TIP3    H110782   5.566   5.470   1.858 -0.3573 -1.0589 -0.0748
 3592TIP3    H210783   5.632   5.399   1.974 -0.8448 -0.7240  0.4121
 3593TIP3   OH210784   1.398   5.452   4.394 -0.1087 -0.3803 -0.7127
 3593TIP3    H110785   1.313   5.451   4.350  0.1996 -0.2848 -1.3241
 3593TIP3    H210786   1.439   5.369   4.371 -0.0759 -0.4694 -0.3390
 3594TIP3   OH210787   1.794   3.271   1.198  0.1212 -0.4316 -0.1046
 3594TIP3    H110788   1.853   3.203   1.164  0.9630  0.5492 -0.6873
 3594TIP3    H210789   1.803   3.343   1.136 -0.6353  0.2744  0.5811
 3595TIP3   OH210790   3.408   1.602   3.508  0.4264  0.3774  0.3370
 3595TIP3    H110791   3.337   1.612   3.571  0.3032 -0.5661  0.3610
 3595TIP3    H210792   3.402   1.680   3.453 -1.0579 -0.0004 -0.0897
 3596TIP3   OH210793   3.742   2.931   3.242  0.1195 -0.4809  0.2016
 3596TIP3    H110794   3.687   2.997   3.201 -0.6215  0.2743  2.2772
 3596TIP3    H210795   3.754   2.864   3.175 -0.5629  0.9136 -1.3777
 3597TIP3   OH210796   2.859   1.549   3.258  0.8587 -0.4709  0.2884
 3597TIP3    H110797   2.912   1.584   3.187 -0.2351 -0.4770 -0.5482
 3597TIP3    H210798   2.872   1.454   3.253 -0.9627 -0.6871 -1.3813
 3598TIP3   OH210799   6.213   0.111   1.121  0.2473  0.5001  0.2782
 3598TIP3    H110800   6.145   0.175   1.144 -2.0805 -2.1997  1.5188
 3598TIP3    H210801   6.204   0.042   1.187  2.9282 -0.9450 -0.7195
 3599TIP3   OH210802   3.318   4.662   3.952 -0.1519  0.0546 -0.6387
 3599TIP3    H110803   3.246   4.672   4.014 -1.3428  0.5328 -2.0340
 3599TIP3    H210804   3.372   4.740   3.964  1.6384 -1.4249  2.1425
 3600TIP3   OH210805   1.034   2.266   4.358 -1.1348  0.0297 -0.3496
 3600TIP3    H110806   1.071   2.350   4.330  2.1925 -0.9725  0.5845
 3600TIP3    H210807   1.040   2.211   4.280  2.7921 -1.0977  0.5630
 3601TIP3   OH210808   5.157   2.881   2.562  0.4217  0.2934 -0.1115
 3601TIP3    H110809   5.203   2.959   2.592  1.4476 -0.6828  0.9033
 3601TIP3    H210810   5.225   2.824   2.527 -0.2523 -0.3842 -0.3507
 3602TIP3   OH210811   5.110   4.663   1.045  0.2131 -0.8939  0.2156
 3602TIP3    H110812   5.106   4.756   1.024  0.8253 -0.6031  1.2942
 3602TIP3    H210813   5.107   4.619   0.960  1.9161  0.1743 -0.4412
 3603TIP3   OH210814   2.617   2.322   3.813 -0.2302 -0.5312 -0.0408
 3603TIP3    H110815   2.589   2.230   3.806 -0.8545 -0.4846  1.4711
 3603TIP3    H210816   2.535   2.371   3.812  0.1308  0.3964 -4.3839
 3604TIP3   OH210817   3.325   0.334   1.208 -0.4475 -0.3285  0.2274
 3604TIP3    H110818   3.280   0.414   1.184  0.6675  0.5482  0.9663
 3604TIP3    H210819   3.308   0.274   1.135  1.8479  1.8572 -2.3469
 3605TIP3   OH210820   2.990   5.712   3.350  0.6132 -0.2101  0.5307
 3605TIP3    H110821   2.935   5.790   3.356  1.3598  0.2593  1.5903
 3605TIP3    H210822   2.947   5.648   3.408 -0.3617 -0.8459 -0.8390
 3606TIP3   OH210823   2.201   5.101   3.802 -0.4382 -0.1674 -0.2656
 3606TIP3    H110824   2.160   5.171   3.853 -0.6930 -1.2847  1.1177
 3606TIP3    H210825   2.171   5.117   3.712  0.0474  1.8751 -0.1270
 3607TIP3   OH210826   3.915   3.696   1.066  0.1685 -0.0497 -0.1954
 3607TIP3    H110827   3.866   3.778   1.068  0.0803 -0.1070 -0.0036
 3607TIP3    H210828   4.002   3.721   1.034 -0.1305 -0.0217 -1.0256
 3608TIP3   OH210829   4.537   4.395   0.831  0.2058 -0.0198 -0.0932
 3608TIP3    H110830   4.558   4.350   0.749  0.6534  0.4586 -0.2519
 3608TIP3    H210831   4.623   4.423   0.864  0.0921 -0.7927  0.8822
 3609TIP3   OH210832   2.763   3.291   4.947  0.7226 -0.2569  0.0892
 3609TIP3    H110833   2.703   3.249   4.886  1.0797  0.4302 -0.7507
 3609TIP3    H210834   2.831   3.329   4.892  0.8321  0.7412  0.8912
 3610TIP3   OH210835   3.732   2.827   0.112 -0.7323  0.1260  0.1739
 3610TIP3    H110836   3.705   2.849   0.201  0.3661  0.6577  0.3982
 3610TIP3    H210837   3.720   2.909   0.063 -1.7688 -0.2869 -0.2915
 3611TIP3   OH210838   4.198   3.114   4.157  0.0532 -0.5759  0.2695
 3611TIP3    H110839   4.145   3.087   4.232 -2.3960  2.6995 -0.1087
 3611TIP3    H210840   4.261   3.177   4.194 -0.9435  0.7942 -0.3093
 3612TIP3   OH210841   4.448   0.856   3.173  0.1667 -0.2930 -0.4003
 3612TIP3    H110842   4.523   0.813   3.214  1.3102  2.6286  0.8834
 3612TIP3    H210843   4.482   0.891   3.091 -0.3653 -0.6506 -0.7791
 3613TIP3   OH210844   5.406   1.038   4.651 -0.1625  0.4105  0.0037
 3613TIP3    H110845   5.342   1.094   4.695  2.0157  2.6933  0.4950
 3613TIP3    H210846   5.443   0.984   4.720 -0.1330  0.5459  0.0945
 3614TIP3   OH210847   4.309   4.552   5.041  0.0941 -0.1224 -0.0476
 3614TIP3    H110848   4.404   4.551   5.048  0.1831  1.5477 -0.6587
 3614TIP3    H210849   4.289   4.487   4.974  0.6223 -1.9096  1.4466
 3615TIP3   OH210850   3.034   5.543   1.701 -0.3849  0.0901  0.0706
 3615TIP3    H110851   3.091   5.613   1.670 -1.4432  0.8957 -0.1018
 3615TIP3    H210852   3.023   5.561   1.795  0.0893 -0.3969  0.2273
 3616TIP3   OH210853   5.013   4.727   4.929  0.0346 -0.1807 -0.3007
 3616TIP3    H110854   4.921   4.729   4.955  0.3343  0.6212  0.7785
 3616TIP3    H210855   5.023   4.805   4.874  0.4313  0.6948  0.9693
 3617TIP3   OH210856   3.214   1.783   4.045  0.0179 -0.0358 -0.2180
 3617TIP3    H110857   3.162   1.838   3.987  0.7989  1.5033  0.4949
 3617TIP3    H210858   3.272   1.735   3.986 -0.1313  0.4843 -0.7956
 3618TIP3   OH210859   0.726   3.431   1.551  0.1663 -0.0057 -0.1024
 3618TIP3    H110860   0.792   3.362   1.559  0.0741 -0.1387 -0.4727
 3618TIP3    H210861   0.691   3.440   1.640  0.0094 -0.6069 -0.0983
 3619TIP3   OH210862   1.387   3.756   3.704 -0.0307  0.3317  0.9695
 3619TIP3    H110863   1.330   3.779   3.631 -0.7479 -0.1434  1.3686
 3619TIP3    H210864   1.476   3.768   3.670 -0.3585  0.8503  0.2657
 3620TIP3   OH210865   1.819   4.366   4.386 -0.2940  0.1776 -0.4949
 3620TIP3    H110866   1.827   4.370   4.481  0.4848  2.0756 -0.5950
 3620TIP3    H210867   1.735   4.323   4.370 -1.5247  1.8099  1.1168
 3621TIP3   OH210868   0.669   0.521   2.559 -0.2567 -0.0004  0.2232
 3621TIP3    H110869   0.631   0.452   2.614  0.8968 -0.5024  0.4370
 3621TIP3    H210870   0.665   0.485   2.470 -0.4333  0.0137  0.2263
 3622TIP3   OH210871   5.706   2.255   0.113 -0.0465  0.4780 -0.4804
 3622TIP3    H110872   5.613   2.268   0.133 -0.0882  0.9148 -0.9222
 3622TIP3    H210873   5.737   2.342   0.087  0.7800  0.6020  0.8181
 3623TIP3   OH210874   4.607   0.414   3.400 -0.0702  0.0501 -0.3779
 3623TIP3    H110875   4.680   0.469   3.374  0.8912 -0.9353  0.1433
 3623TIP3    H210876   4.648   0.333   3.431 -1.4005 -0.7066 -0.5119
 3624TIP3   OH210877   0.046   5.324   1.570  0.0022  0.0692 -0.0989
 3624TIP3    H110878   0.104   5.400   1.569  0.0813  0.0112 -1.3497
 3624TIP3    H210879  -0.026   5.348   1.510  0.3971 -1.0990 -1.0810
 3625TIP3   OH210880   1.301   1.362   2.538  0.3496 -0.0724 -0.1693
 3625TIP3    H110881   1.385   1.379   2.582  0.0766 -0.6276  0.5871
 3625TIP3    H210882   1.275   1.447   2.505 -0.8706  1.1034  3.3253
 3626TIP3   OH210883   2.355   2.430   2.402  0.1375  0.2257  0.0333
 3626TIP3    H110884   2.382   2.521   2.391  0.3091  0.2268  0.4446
 3626TIP3    H210885   2.335   2.421   2.496  2.7562 -0.8386  0.5898
 3627TIP3   OH210886   3.023   0.180   4.620 -0.3799 -0.7214 -0.1827
 3627TIP3    H110887   2.989   0.099   4.583  0.4961 -1.6353  0.9651
 3627TIP3    H210888   3.118   0.172   4.612 -0.1928 -0.6749  1.6505
 3628TIP3   OH210889   5.525   4.637   0.761  0.1332  0.2514 -0.1917
 3628TIP3    H110890   5.583   4.648   0.686  0.5744  0.2508  0.1472
 3628TIP3    H210891   5.527   4.543   0.779 -0.4507  0.1643 -0.5550
 3629TIP3   OH210892   5.008   5.801   1.389  0.7583 -0.2137  0.1807
 3629TIP3    H110893   5.034   5.855   1.464  0.6413  0.0680  0.0167
 3629TIP3    H210894   5.061   5.721   1.398 -0.3045 -0.8130  1.3747
 3630TIP3   OH210895   4.807   5.340   1.574  0.4488 -0.3611 -0.6114
 3630TIP3    H110896   4.897   5.321   1.548  0.3228 -1.4406 -0.3216
 3630TIP3    H210897   4.813   5.355   1.669  0.1186 -2.0271 -0.2974
 3631TIP3   OH210898   0.953   5.608   0.958  0.3951 -0.5013  0.7076
 3631TIP3    H110899   0.906   5.534   0.997 -1.8002  0.3651 -0.1270
 3631TIP3    H210900   0.960   5.586   0.865 -1.6949  0.9467  0.1430
 3632TIP3   OH210901   2.259   3.958   3.806 -0.0207 -0.6564 -0.1474
 3632TIP3    H110902   2.274   4.041   3.760  0.5797 -1.0231 -0.6212
 3632TIP3    H210903   2.165   3.944   3.799 -0.2434  0.3279  0.5388
 3633TIP3   OH210904   5.084   5.292   1.509 -0.4844 -0.2118  0.4897
 3633TIP3    H110905   5.066   5.199   1.496 -0.8203 -0.0780 -0.0382
 3633TIP3    H210906   5.179   5.297   1.522 -0.5367 -0.6854  1.0749
 3634TIP3   OH210907   1.975   3.886   2.103 -0.0245  0.3995 -0.2113
 3634TIP3    H110908   2.029   3.926   2.035 -0.8413 -2.4195 -2.7541
 3634TIP3    H210909   1.887   3.881   2.064 -0.8775  0.0285  1.6594
 3635TIP3   OH210910   1.457   3.385   1.490 -0.0241 -0.3087 -0.4190
 3635TIP3    H110911   1.547   3.415   1.501 -0.4790  1.4731 -1.0882
 3635TIP3    H210912   1.461   3.316   1.424  1.2139 -2.6324  1.9071
 3636TIP3   OH210913   1.484   5.143   2.206 -0.3896 -0.3202  0.3147
 3636TIP3    H110914   1.404   5.105   2.169 -0.1903  0.2104 -0.7099
 3636TIP3    H210915   1.513   5.080   2.272  0.2797 -2.3040 -1.7539
 3637TIP3   OH210916   5.323   5.068   3.109  0.0647  0.6204  0.1176
 3637TIP3    H110917   5.248   5.123   3.087 -0.2247 -0.2986 -1.2935
 3637TIP3    H210918   5.388   5.087   3.042 -0.7082 -1.9889 -1.4886
 3638TIP3   OH210919   0.093   0.288   0.680  0.1741  0.5771  0.5341
 3638TIP3    H110920   0.032   0.311   0.751 -0.8797  0.4061 -0.2908
 3638TIP3    H210921   0.163   0.239   0.724 -0.2352  0.8458  1.5203
 3639TIP3   OH210922   4.320   0.711   0.484  0.1642 -0.1160  0.1002
 3639TIP3    H110923   4.351   0.777   0.545  0.8801 -0.5514  0.2210
 3639TIP3    H210924   4.228   0.733   0.469  0.2737  0.6309  0.4847
 3640TIP3   OH210925   1.002   0.327   2.087 -0.4199 -0.0776  0.6079
 3640TIP3    H110926   1.046   0.382   2.151 -0.3643  0.9177 -0.2601
 3640TIP3    H210927   1.042   0.240   2.098 -0.1425  0.1655  1.6376
 3641TIP3   OH210928   2.623   4.076   4.296 -0.3850  0.0823 -0.0638
 3641TIP3    H110929   2.658   4.163   4.277 -1.8519  0.2875 -2.0747
 3641TIP3    H210930   2.562   4.090   4.369 -1.4534  0.9550 -1.1029
 3642TIP3   OH210931   4.173   1.347   0.882  0.2329  0.1304 -0.1830
 3642TIP3    H110932   4.177   1.414   0.813 -1.0474 -0.0203 -0.4380
 3642TIP3    H210933   4.260   1.348   0.922  0.6103  1.0976 -0.9796
 3643TIP3   OH210934   2.204   2.102   0.621 -0.1160 -0.4577 -0.4345
 3643TIP3    H110935   2.144   2.167   0.583  0.5245  0.2983 -0.1902
 3643TIP3    H210936   2.205   2.030   0.559 -0.1591  0.1508 -1.1478
 3644TIP3   OH210937   3.959   1.914   2.939  0.2337  0.0021 -0.4670
 3644TIP3    H110938   3.910   1.875   3.011  0.3964  1.1382  0.2828
 3644TIP3    H210939   3.893   1.930   2.872 -0.5920  2.0071  0.7337
 3645TIP3   OH210940   2.544   0.645   2.167 -0.1700  0.6820 -0.6646
 3645TIP3    H110941   2.527   0.686   2.252  0.3698 -0.3198 -0.0486
 3645TIP3    H210942   2.458   0.641   2.125 -0.3968  1.4549 -0.2933
 3646TIP3   OH210943   1.644   2.098   3.457 -0.2306 -0.6204  0.1277
 3646TIP3    H110944   1.605   2.142   3.532  1.8819 -0.1281  1.0264
 3646TIP3    H210945   1.722   2.054   3.493  0.3456 -1.1211 -1.6205
 3647TIP3   OH210946   4.790   5.323   3.500  0.5147 -0.5254  0.0642
 3647TIP3    H110947   4.759   5.232   3.503  0.9422 -0.6775 -0.0161
 3647TIP3    H210948   4.712   5.374   3.480  0.5018 -1.0027 -1.2107
 3648TIP3   OH210949   5.939   4.065   2.477 -0.3411 -0.1090 -0.5094
 3648TIP3    H110950   6.030   4.089   2.460 -0.4441  0.6947  0.0385
 3648TIP3    H210951   5.919   3.999   2.410  0.3122  0.4858 -1.3094
 3649TIP3   OH210952   3.948   0.979   2.270 -0.2067 -0.0729 -0.7226
 3649TIP3    H110953   4.038   0.952   2.288 -0.1615  0.5281 -0.0265
 3649TIP3    H210954   3.941   1.067   2.307 -1.0351 -0.0491 -0.9165
 3650TIP3   OH210955   5.309   2.437   3.087 -0.2234  0.6078  0.1088
 3650TIP3    H110956   5.346   2.427   3.175  0.5194  1.2782 -0.1086
 3650TIP3    H210957   5.340   2.523   3.059 -1.4860  0.9282 -0.3269
 3651TIP3   OH210958   4.208   1.562   3.543  0.3490 -0.0673  0.6818
 3651TIP3    H110959   4.279   1.626   3.535  0.8876 -0.6489  0.6887
 3651TIP3    H210960   4.180   1.569   3.634  1.0624 -0.5034  0.9473
 3652TIP3   OH210961   4.284   2.098   1.619  0.2062 -0.4100 -0.1768
 3652TIP3    H110962   4.293   2.151   1.540  0.3597 -1.8514 -1.1701
 3652TIP3    H210963   4.320   2.012   1.594 -1.2607 -1.3870  0.9374
 3653TIP3   OH210964   5.775   4.082   4.904 -0.4807 -0.1629  0.3062
 3653TIP3    H110965   5.804   4.172   4.889  0.5287 -0.6374 -0.7551
 3653TIP3    H210966   5.727   4.059   4.824  0.8167 -1.1353 -0.2353
 3654TIP3   OH210967   5.811   1.538   1.932 -0.2669  0.5981 -0.3443
 3654TIP3    H110968   5.868   1.608   1.903 -0.6249  0.3677 -1.6546
 3654TIP3    H210969   5.725   1.560   1.896 -0.1871 -0.9699 -1.5945
 3655TIP3   OH210970   3.792   3.697   4.336 -0.0257 -0.3149  0.3915
 3655TIP3    H110971   3.733   3.630   4.371 -0.7642  0.6427  1.0254
 3655TIP3    H210972   3.876   3.678   4.378 -0.2640 -0.7544  0.6875
 3656TIP3   OH210973   3.584   0.746   0.416  0.1679 -0.1368 -0.5035
 3656TIP3    H110974   3.663   0.734   0.363  1.0299 -0.1879  0.7668
 3656TIP3    H210975   3.592   0.682   0.486 -1.6659 -1.0439 -1.0723
 3657TIP3   OH210976   2.357   1.027   5.093 -0.9494  0.3163  0.4802
 3657TIP3    H110977   2.366   0.935   5.119  0.3447  0.3923  0.3521
 3657TIP3    H210978   2.315   1.069   5.169 -0.5315 -0.1728  0.9904
 3658TIP3   OH210979   5.961   1.459   4.878  0.8259  0.5723  0.0950
 3658TIP3    H110980   6.004   1.397   4.819  0.0487  0.7583 -0.6934
 3658TIP3    H210981   6.011   1.540   4.868  0.1083  0.8994 -1.1062
 3659TIP3   OH210982   0.799   3.106   4.468 -0.4662 -0.1299 -0.1256
 3659TIP3    H110983   0.849   3.038   4.424 -1.5920  0.1935 -1.9858
 3659TIP3    H210984   0.828   3.101   4.560  0.0705 -2.5321 -0.3610
 3660TIP3   OH210985   5.001   0.899   3.461  0.5942  0.2743  0.4364
 3660TIP3    H110986   4.949   0.953   3.521  0.5171  1.0291 -0.2928
 3660TIP3    H210987   4.973   0.926   3.374  0.1265 -1.3730  0.0367
 3661TIP3   OH210988   5.478   5.870   1.016  0.0443 -0.2279 -0.2444
 3661TIP3    H110989   5.424   5.824   1.081  0.0284  0.0008 -0.0941
 3661TIP3    H210990   5.568   5.859   1.048  0.0349 -0.0997 -0.1717
 3662TIP3   OH210991   3.888   2.161   4.461 -0.4917  0.0019 -0.1519
 3662TIP3    H110992   3.866   2.154   4.369 -1.0192  1.2114 -0.1377
 3662TIP3    H210993   3.819   2.216   4.499  1.7130  2.7633  0.1735
 3663TIP3   OH210994   2.980   2.162   2.556  0.7378  0.4568 -0.0109
 3663TIP3    H110995   3.006   2.101   2.487  0.6620  0.3258  0.0744
 3663TIP3    H210996   2.950   2.240   2.509 -0.1726  0.0334 -0.1608
 3664TIP3   OH210997   0.592   3.315   2.789  0.3057 -0.5555  0.1468
 3664TIP3    H110998   0.677   3.298   2.830 -1.4812 -2.0377  3.6507
 3664TIP3    H210999   0.566   3.401   2.823 -0.5698 -1.1494  1.0250
 3665TIP3   OH211000   1.427   3.241   1.244 -0.4048 -0.3277 -0.1167
 3665TIP3    H111001   1.350   3.298   1.240 -0.7935 -0.8199  0.1612
 3665TIP3    H211002   1.439   3.210   1.154 -0.2508  0.1167 -0.2482
 3666TIP3   OH211003   2.029   3.196   2.732  0.3328 -0.1280 -0.1337
 3666TIP3    H111004   2.084   3.271   2.751  1.9329 -0.3996 -3.0206
 3666TIP3    H211005   1.973   3.186   2.809  2.8844  1.4469  2.0956
 3667TIP3   OH211006   2.730   4.588   4.857 -0.1184  0.1170  0.0532
 3667TIP3    H111007   2.688   4.508   4.887  0.5820  0.1047  1.0223
 3667TIP3    H211008   2.815   4.589   4.900 -1.2341  2.8516  2.5534
 3668TIP3   OH211009   3.527   1.528   1.489 -0.1115  0.7027  0.0367
 3668TIP3    H111010   3.618   1.499   1.499 -0.3360 -0.0337 -0.0324
 3668TIP3    H211011   3.504   1.564   1.575 -0.5813 -1.4847  0.8893
 3669TIP3   OH211012   5.230   0.350   1.926  0.9409  0.2652  0.1729
 3669TIP3    H111013   5.200   0.423   1.872 -0.9540  0.0702  0.8589
 3669TIP3    H211014   5.150   0.320   1.971  2.4260  0.6303  3.3180
 3670TIP3   OH211015   4.674   3.266   3.011  0.0002  0.2742 -0.0818
 3670TIP3    H111016   4.741   3.311   2.959  0.5352 -0.6566 -0.2297
 3670TIP3    H211017   4.608   3.333   3.028  0.6594  1.0489 -0.4811
 3671TIP3   OH211018   5.542   4.635   2.586 -0.0236  0.2068 -0.3805
 3671TIP3    H111019   5.604   4.570   2.554 -0.4848 -0.0413 -0.7734
 3671TIP3    H211020   5.488   4.588   2.650 -0.5058  0.1351 -0.8327
 3672TIP3   OH211021   3.936   2.581   3.072  0.2627  0.0489 -0.5451
 3672TIP3    H111022   3.893   2.496   3.073  0.4463 -0.0856  1.7844
 3672TIP3    H211023   4.010   2.572   3.133 -0.0802  2.0074  0.2546
 3673TIP3   OH211024   0.898   1.784   0.322 -0.2419  0.0998  0.4970
 3673TIP3    H111025   0.847   1.706   0.298  0.1820  0.0746 -0.3527
 3673TIP3    H211026   0.832   1.853   0.330 -0.4262  0.0919 -0.6980
 3674TIP3   OH211027   4.270   0.109   3.063  0.1118  0.2633  0.5794
 3674TIP3    H111028   4.331   0.105   3.137 -0.9238 -1.6133  1.4267
 3674TIP3    H211029   4.215   0.031   3.074 -0.1356 -0.0465 -2.1524
 3675TIP3   OH211030   5.120   4.333   2.727  0.1091 -0.3106 -0.2814
 3675TIP3    H111031   5.106   4.301   2.639  0.6935 -1.8562  0.1650
 3675TIP3    H211032   5.066   4.277   2.783  1.2433 -0.6448  0.5255
 3676TIP3   OH211033   3.254   5.432   4.302 -0.0582 -0.1715  1.3371
 3676TIP3    H111034   3.318   5.373   4.342  0.0849  0.0115  1.3790
 3676TIP3    H211035   3.287   5.446   4.213  1.5303  2.1870  2.2139
 3677TIP3   OH211036   0.084   5.133   4.288  0.1622  0.0352  0.5596
 3677TIP3    H111037   0.030   5.141   4.210  2.2915  0.5240 -0.9435
 3677TIP3    H211038   0.163   5.088   4.259  2.5258  3.2137  1.5559
 3678TIP3   OH211039   0.921   2.769   3.863  0.1288  0.2229  0.0604
 3678TIP3    H111040   0.957   2.682   3.847 -0.8610 -0.4189  1.1696
 3678TIP3    H211041   0.829   2.753   3.884 -0.6076  1.7183 -1.7567
 3679TIP3   OH211042   3.340   2.905   1.685  0.1153 -0.1055 -0.3427
 3679TIP3    H111043   3.339   2.986   1.736  2.7391 -1.4718  2.1521
 3679TIP3    H211044   3.256   2.863   1.705 -1.0823  1.6855 -1.3207
 3680TIP3   OH211045   2.351   1.941   1.820  0.1373  0.5713  0.4458
 3680TIP3    H111046   2.409   2.005   1.779  1.5070 -1.2647 -0.6104
 3680TIP3    H211047   2.382   1.856   1.788 -3.5167 -0.5155 -0.7002
 3681TIP3   OH211048   5.278   1.183   1.031  0.3814  0.4050 -1.0660
 3681TIP3    H111049   5.263   1.096   0.994  1.0361 -1.0420  1.7810
 3681TIP3    H211050   5.373   1.192   1.033  0.3389  2.2333 -3.3853
 3682TIP3   OH211051   4.815   5.654   3.118 -0.2446 -0.0085 -0.0892
 3682TIP3    H111052   4.769   5.728   3.078 -1.8297 -0.3006  1.0827
 3682TIP3    H211053   4.891   5.639   3.061 -0.4340  1.8640 -0.9046
 3683TIP3   OH211054   5.168   5.879   2.622 -0.0547  0.4562 -0.5665
 3683TIP3    H111055   5.202   5.937   2.690 -0.9511  0.7151 -0.3294
 3683TIP3    H211056   5.238   5.876   2.557  0.6051  0.6159  0.1190
 3684TIP3   OH211057   4.487   2.667   0.139 -0.2408 -0.5271  0.4692
 3684TIP3    H111058   4.393   2.659   0.155 -0.7727  0.3130 -1.7974
 3684TIP3    H211059   4.523   2.699   0.221 -2.5135  2.5921  0.4263
 3685TIP3   OH211060   5.452   5.953   4.177  0.0914  0.4198  0.6606
 3685TIP3    H111061   5.374   5.939   4.123  0.4804  3.7946 -1.0449
 3685TIP3    H211062   5.418   5.991   4.259 -0.1651 -0.1444  0.8225
 3686TIP3   OH211063   0.925   0.949   4.118 -0.8623  1.0493 -0.8600
 3686TIP3    H111064   0.997   0.993   4.072 -1.2941  1.8896 -0.7563
 3686TIP3    H211065   0.950   0.857   4.119  1.0161  1.5056  0.5978
 3687TIP3   OH211066   3.547   4.139   3.685  1.0139  0.0194  0.4171
 3687TIP3    H111067   3.462   4.152   3.644  1.3264 -1.6486 -0.8563
 3687TIP3    H211068   3.593   4.223   3.672 -0.6642  1.2386  1.8517
 3688TIP3   OH211069   2.221   5.047   2.754  0.1408  0.5021  0.6915
 3688TIP3    H111070   2.132   5.023   2.727  0.8077 -0.5145 -0.6905
 3688TIP3    H211071   2.254   5.101   2.683  1.3755 -0.8982  0.1648
 3689TIP3   OH211072   5.744   1.439   2.652  0.7922 -0.1879  0.1458
 3689TIP3    H111073   5.735   1.344   2.644 -0.5960 -0.0869  0.2653
 3689TIP3    H211074   5.741   1.471   2.562 -3.0807  0.0281  0.1881
 3690TIP3   OH211075   4.837   1.066   2.541  0.4506  0.1351  0.5767
 3690TIP3    H111076   4.824   1.055   2.635  1.7071  1.3798  0.9462
 3690TIP3    H211077   4.925   1.105   2.534  1.1025 -1.4989 -1.2181
 3691TIP3   OH211078   5.138   5.499   1.048  0.1005 -0.9367 -0.1582
 3691TIP3    H111079   5.097   5.448   0.978 -2.4851  1.4493 -0.5973
 3691TIP3    H211080   5.070   5.561   1.075  2.9656  2.4075  0.1536
 3692TIP3   OH211081   4.943   0.141   2.193  0.9068 -0.5357  0.5724
 3692TIP3    H111082   4.853   0.127   2.163  0.4923  0.3991  1.3079
 3692TIP3    H211083   4.958   0.235   2.180  1.9173 -0.7525  0.1041
 3693TIP3   OH211084   3.443   3.721   3.505  0.7562 -0.0109  0.0218
 3693TIP3    H111085   3.406   3.641   3.467 -2.0508  0.7715  0.8198
 3693TIP3    H211086   3.397   3.792   3.459  0.5031  1.0198  1.7727
 3694TIP3   OH211087   1.895   5.099   3.693 -0.1826 -0.0924  0.3925
 3694TIP3    H111088   1.819   5.158   3.693  0.2638  0.5251 -1.0465
 3694TIP3    H211089   1.955   5.136   3.758 -0.5016  0.2378  0.5018
 3695TIP3   OH211090   6.281   2.861   3.165 -0.5206  0.3875  0.1189
 3695TIP3    H111091   6.196   2.828   3.137 -0.8067  0.5509  0.7786
 3695TIP3    H211092   6.272   2.877   3.259  0.0189  1.0790  0.0711
 3696TIP3   OH211093   1.202   0.306   4.206 -0.0645 -0.4646 -0.1546
 3696TIP3    H111094   1.219   0.252   4.284 -1.1129  0.6306  0.8951
 3696TIP3    H211095   1.109   0.291   4.188 -0.1926  0.4190 -0.2731
 3697TIP3   OH211096   1.135   0.791   4.442  0.0384 -0.2469  0.2436
 3697TIP3    H111097   1.112   0.760   4.354  0.4852  1.7120 -0.6199
 3697TIP3    H211098   1.067   0.756   4.498 -0.2505 -1.5725 -0.8608
 3698TIP3   OH211099   4.442   0.163   5.047  0.2782 -0.0877 -0.4532
 3698TIP3    H111100   4.350   0.139   5.034 -0.3850  1.2364  1.3288
 3698TIP3    H211101   4.457   0.148   5.140  0.6768  3.2890  0.1392
 3699TIP3   OH211102   2.115   4.618   1.464 -0.3020  0.5517  0.3267
 3699TIP3    H111103   2.118   4.713   1.474 -0.6262  0.5672  0.2942
 3699TIP3    H211104   2.068   4.587   1.541  0.5031  0.3415  0.7525
 3700TIP3   OH211105   2.886   1.781   2.827 -0.4171  0.1472 -0.0126
 3700TIP3    H111106   2.843   1.853   2.780  1.8678  1.5954 -0.0456
 3700TIP3    H211107   2.946   1.744   2.763  0.9706  0.5535  1.0148
 3701TIP3   OH211108   3.207   4.649   1.149  0.2266  0.7480  0.3392
 3701TIP3    H111109   3.247   4.731   1.121  2.9638 -0.5518  0.0167
 3701TIP3    H211110   3.275   4.607   1.202 -1.1266 -1.2314  0.6014
 3702TIP3   OH211111   5.275   2.843   1.630  0.2632 -0.4512 -0.0601
 3702TIP3    H111112   5.249   2.865   1.540  0.1760 -0.7138 -0.1006
 3702TIP3    H211113   5.370   2.853   1.631  0.2882 -0.6730 -0.2445
 3703TIP3   OH211114   0.657   0.988   3.232  0.5692  0.6897 -0.1024
 3703TIP3    H111115   0.710   1.059   3.197  1.2392 -0.2403 -1.0732
 3703TIP3    H211116   0.689   0.910   3.185 -1.3687  0.0324 -0.4083
 3704TIP3   OH211117   5.716   0.784   0.306 -0.4276  0.1881 -0.0502
 3704TIP3    H111118   5.629   0.774   0.343  0.3183  0.0803  1.7607
 3704TIP3    H211119   5.713   0.869   0.261 -1.6375 -0.1243 -0.5898
 3705TIP3   OH211120   6.029   2.034   1.388  0.0703  0.7840  0.0557
 3705TIP3    H111121   5.957   1.979   1.355  0.2166 -0.8829  2.2948
 3705TIP3    H211122   6.094   2.032   1.318 -1.1295  0.4847 -1.1012
 3706TIP3   OH211123   4.645   1.109   4.402 -0.1494 -0.5615  0.0704
 3706TIP3    H111124   4.681   1.197   4.396  0.3130 -0.7087  0.5904
 3706TIP3    H211125   4.652   1.074   4.313 -2.6415  0.7873 -0.7609
 3707TIP3   OH211126   5.121   5.242   3.015 -0.3431 -0.1137 -0.0996
 3707TIP3    H111127   5.184   5.305   3.048 -0.2672  0.2527 -0.9362
 3707TIP3    H211128   5.065   5.292   2.956 -1.9662 -0.2277  1.2679
 3708TIP3   OH211129   2.288   4.469   3.652 -0.7706  0.1166  0.4499
 3708TIP3    H111130   2.288   4.375   3.669  1.9757 -0.1281 -0.4688
 3708TIP3    H211131   2.312   4.508   3.736  3.0828 -0.4474 -0.2088
 3709TIP3   OH211132   0.078   1.327   4.773  0.4576 -0.2213 -1.0459
 3709TIP3    H111133   0.114   1.262   4.833 -0.7599 -1.2545 -1.3851
 3709TIP3    H211134   0.150   1.388   4.757  0.8737 -0.0289  1.2848
 3710TIP3   OH211135   4.886   4.665   0.064  0.0903 -0.0108 -0.0370
 3710TIP3    H111136   4.827   4.629   0.130 -0.4266 -0.7721 -0.8992
 3710TIP3    H211137   4.924   4.742   0.106 -0.8696  0.0066  0.8490
 3711TIP3   OH211138   4.203   3.241   2.345 -0.0820 -0.1065  0.1658
 3711TIP3    H111139   4.217   3.164   2.289  1.0092  0.5121 -0.4566
 3711TIP3    H211140   4.108   3.254   2.345 -0.0990  0.2082 -2.0366
 3712TIP3   OH211141   1.625   0.810   3.358 -0.0643 -0.1413 -0.6625
 3712TIP3    H111142   1.672   0.893   3.350 -1.7772  1.0145  0.4687
 3712TIP3    H211143   1.602   0.787   3.268  0.9820  0.2454 -1.0494
 3713TIP3   OH211144   0.205   1.405   0.430  0.3525  0.1883  0.0272
 3713TIP3    H111145   0.204   1.442   0.518 -1.3086 -1.2501  0.6751
 3713TIP3    H211146   0.295   1.373   0.418  0.4060 -0.2762  1.5181
 3714TIP3   OH211147   6.233   4.318   0.123 -0.0029 -0.8051 -0.5028
 3714TIP3    H111148   6.292   4.262   0.174 -1.8204 -1.6400  0.8057
 3714TIP3    H211149   6.221   4.271   0.041  0.4072 -1.1111 -0.3903
 3715TIP3   OH211150   3.172   5.844   2.133  0.0622 -0.6796 -0.2589
 3715TIP3    H111151   3.096   5.841   2.190  0.5904  2.5687  0.7746
 3715TIP3    H211152   3.241   5.800   2.182  0.1683  0.9580  1.1430
 3716TIP3   OH211153   4.763   4.269   0.154  0.3197  0.3187  0.0815
 3716TIP3    H111154   4.700   4.289   0.084 -0.7717 -0.3306  0.8533
 3716TIP3    H211155   4.839   4.323   0.132  0.0146  0.1431 -1.5978
 3717TIP3   OH211156   2.043   3.466   5.169  0.1866 -0.0103 -0.1997
 3717TIP3    H111157   2.097   3.427   5.100  0.8611  0.2525  0.1643
 3717TIP3    H211158   1.989   3.395   5.201 -0.9401  0.0988 -1.7423
 3718TIP3   OH211159   4.401   1.828   0.758 -0.6466  0.1959 -0.2316
 3718TIP3    H111160   4.310   1.801   0.770 -1.2995  1.8912 -0.9628
 3718TIP3    H211161   4.412   1.905   0.814 -0.6559  1.8917 -2.4054
 3719TIP3   OH211162   4.772   1.656   4.654 -0.3790  0.3825  0.1122
 3719TIP3    H111163   4.728   1.611   4.583  1.5138 -0.6729 -0.4666
 3719TIP3    H211164   4.812   1.732   4.613  1.8462 -0.9365 -0.3261
 3720TIP3   OH211165   2.082   4.948   1.933 -0.3840 -0.1977 -0.2999
 3720TIP3    H111166   2.108   4.998   1.855  0.0787  2.2663  1.3072
 3720TIP3    H211167   2.073   5.015   2.002 -2.4455 -2.0469  1.3754
 3721TIP3   OH211168   1.488   2.404   0.170  0.0808  0.4113  0.6371
 3721TIP3    H111169   1.443   2.353   0.102  0.8376  0.3037  0.2043
 3721TIP3    H211170   1.537   2.470   0.123  0.7096  0.2653  1.0674
 3722TIP3   OH211171   1.944   4.463   3.166  0.3887  0.0862 -0.0651
 3722TIP3    H111172   1.851   4.470   3.145  0.2536 -0.7434  0.2013
 3722TIP3    H211173   1.971   4.553   3.185 -0.0450  0.5222 -1.3976
 3723TIP3   OH211174   0.306   5.697   4.325 -0.2461  0.1181 -0.2613
 3723TIP3    H111175   0.322   5.639   4.399  2.4845  1.3482  0.2451
 3723TIP3    H211176   0.253   5.769   4.361 -1.1801 -0.5918 -0.1901
 3724TIP3   OH211177   6.300   4.790   2.436  0.2542 -0.2329  0.3969
 3724TIP3    H111178   6.367   4.845   2.397  0.0448  0.8215  1.4482
 3724TIP3    H211179   6.217   4.829   2.408  0.0814 -0.9225 -0.0770
 3725TIP3   OH211180   5.532   0.342   1.570 -0.1734  0.5589  0.3432
 3725TIP3    H111181   5.590   0.303   1.636 -0.1540  0.3642  0.2132
 3725TIP3    H211182   5.510   0.428   1.605 -0.0224  0.5259  0.5217
 3726TIP3   OH211183   2.524   1.156   2.344  0.4046  0.1991 -0.2847
 3726TIP3    H111184   2.563   1.176   2.429  1.4704 -0.3181 -0.6259
 3726TIP3    H211185   2.557   1.224   2.286  0.7415 -0.2014 -0.5638
 3727TIP3   OH211186   0.627   3.247   4.795 -0.1533  0.2856 -0.1240
 3727TIP3    H111187   0.582   3.175   4.839  1.1907  0.2572  1.2964
 3727TIP3    H211188   0.557   3.309   4.773 -1.5544 -1.9084 -2.5279
 3728TIP3   OH211189   5.587   3.978   0.328  0.2139  0.3226  0.1228
 3728TIP3    H111190   5.512   4.005   0.381  0.1036 -0.4232  0.3671
 3728TIP3    H211191   5.575   4.023   0.244  1.1095  2.6039  1.1470
 3729TIP3   OH211192   4.777   2.308   1.201  0.2942  0.0356  0.2434
 3729TIP3    H111193   4.780   2.306   1.105  1.0352  0.9777  0.2328
 3729TIP3    H211194   4.815   2.224   1.228  0.1320 -0.2120 -0.2854
 3730TIP3   OH211195   4.979   3.489   4.034  0.2777  0.1954 -0.1082
 3730TIP3    H111196   5.035   3.542   4.091 -0.1476 -0.9062  1.3945
 3730TIP3    H211197   5.013   3.400   4.043 -0.4313 -0.1633 -0.8213
 3731TIP3   OH211198   0.320   2.266   2.056 -0.1152  0.2605 -0.6015
 3731TIP3    H111199   0.331   2.347   2.006 -0.3550  1.4186  1.1436
 3731TIP3    H211200   0.226   2.254   2.060 -0.0591 -0.6927 -1.7110
 3732TIP3   OH211201   1.081   2.646   0.721  0.0495  0.0492 -0.2487
 3732TIP3    H111202   1.081   2.740   0.703 -1.2138  0.4479  1.4952
 3732TIP3    H211203   1.169   2.628   0.753  0.4415  0.5437 -1.0282
 3733TIP3   OH211204   2.114   5.807   2.516  0.3002 -0.1200 -0.6219
 3733TIP3    H111205   2.157   5.884   2.479  1.7656 -0.6055 -0.0053
 3733TIP3    H211206   2.102   5.829   2.608  0.3268 -0.4519 -0.5385
 3734TIP3   OH211207   4.092   0.716   2.900 -0.1377  0.2012 -0.3759
 3734TIP3    H111208   4.146   0.695   2.976  0.1285  1.6721 -0.1279
 3734TIP3    H211209   4.041   0.637   2.885  1.2523 -0.8361  0.0819
 3735TIP3   OH211210   0.427   2.648   3.700 -0.4573  0.7385  0.7263
 3735TIP3    H111211   0.352   2.589   3.691 -1.5042  2.2212 -0.6718
 3735TIP3    H211212   0.402   2.708   3.770 -1.0048  1.8107 -0.3632
 3736TIP3   OH211213   1.683   2.110   0.183 -0.1837 -0.0418  0.7246
 3736TIP3    H111214   1.591   2.082   0.188 -0.2956  0.3829  1.1398
 3736TIP3    H211215   1.691   2.150   0.096 -0.6736  0.8639  1.0808
 3737TIP3   OH211216   5.847   3.082   1.755  0.5690 -0.5814  0.2709
 3737TIP3    H111217   5.825   3.069   1.847 -1.8941 -1.6776 -0.3654
 3737TIP3    H211218   5.883   2.998   1.727 -0.9125 -1.0830 -0.2579
 3738TIP3   OH211219   3.435   0.032   4.205 -0.1310 -0.1081 -0.0954
 3738TIP3    H111220   3.423   0.127   4.199  0.8695 -0.0284 -1.1911
 3738TIP3    H211221   3.383  -0.003   4.132  0.3740 -0.3057 -0.3654
 3739TIP3   OH211222   3.586   3.379   3.036 -0.2696 -1.0065 -0.1817
 3739TIP3    H111223   3.495   3.361   3.013 -0.7104 -1.5776  1.7874
 3739TIP3    H211224   3.581   3.443   3.108  0.8824 -0.9421 -0.1309
 3740TIP3   OH211225   1.081   1.302   1.528 -0.0885  0.3647 -0.8732
 3740TIP3    H111226   1.099   1.344   1.612  0.8279  0.3397 -1.0439
 3740TIP3    H211227   1.017   1.359   1.486 -1.1853 -0.0591  0.1736
 3741TIP3   OH211228   3.781   4.491   1.098 -0.0378 -0.1078  0.2315
 3741TIP3    H111229   3.856   4.468   1.152  1.7230  0.6888 -1.7546
 3741TIP3    H211230   3.777   4.424   1.030 -2.1061 -0.9858  1.1105
 3742TIP3   OH211231   3.577   5.300   1.013  0.3120 -0.1002 -0.0551
 3742TIP3    H111232   3.528   5.382   1.007 -1.8152 -1.1706  1.3769
 3742TIP3    H211233   3.666   5.327   1.034 -0.1593  1.8593 -0.3524
 3743TIP3   OH211234   5.206   1.326   3.240  0.2316 -0.3768  0.2891
 3743TIP3    H111235   5.167   1.335   3.153 -2.4948 -0.9404  1.3567
 3743TIP3    H211236   5.273   1.259   3.229  1.1710  0.8116 -1.7057
 3744TIP3   OH211237   4.987   4.773   0.523 -0.0320 -0.2263 -0.0539
 3744TIP3    H111238   4.923   4.791   0.592 -0.3663 -0.4136 -0.3138
 3744TIP3    H211239   5.011   4.681   0.536  0.5284 -0.0363  0.3221
 3745TIP3   OH211240   1.544   3.067   2.474 -0.1552  0.1766 -0.3913
 3745TIP3    H111241   1.554   3.161   2.459  1.4017 -0.2573 -2.7059
 3745TIP3    H211242   1.573   3.054   2.564  0.1304  1.8488 -0.1978
 3746TIP3   OH211243   1.981   1.461   2.792 -0.3197  0.8579  0.2579
 3746TIP3    H111244   1.965   1.491   2.703  0.7055  0.7192  0.0165
 3746TIP3    H211245   2.068   1.422   2.789 -0.6966 -0.0884  1.0885
 3747TIP3   OH211246   0.582   0.093   0.388 -0.0802 -0.6804 -0.4264
 3747TIP3    H111247   0.502   0.126   0.429 -0.0429 -1.6959  0.4803
 3747TIP3    H211248   0.619   0.031   0.451  1.3748 -0.3148 -0.8691
 3748TIP3   OH211249   1.948   2.241   3.354 -0.1807  0.2490 -0.0657
 3748TIP3    H111250   1.944   2.252   3.449  0.5444 -2.2001  0.3110
 3748TIP3    H211251   1.866   2.278   3.322 -1.8793 -1.6126  1.8430
 3749TIP3   OH211252   4.884   4.183   1.835  0.5372 -0.3919 -0.1093
 3749TIP3    H111253   4.891   4.195   1.930 -0.3324  1.4425 -0.2269
 3749TIP3    H211254   4.828   4.255   1.806  2.6478  0.5064 -2.2979
 3750TIP3   OH211255   3.863   4.151   1.726 -0.2135  0.1429  0.8982
 3750TIP3    H111256   3.933   4.134   1.788  0.2865  0.1421  0.3423
 3750TIP3    H211257   3.829   4.064   1.704  0.7548  0.0049 -0.1252
 3751TIP3   OH211258   2.400   3.691   0.051  0.1089  0.4165 -0.7377
 3751TIP3    H111259   2.489   3.698   0.084 -0.1220 -0.4137  0.0732
 3751TIP3    H211260   2.410   3.654  -0.037  0.5183 -0.3750 -0.3652
 3752TIP3   OH211261   6.100   1.099   2.355 -0.0264  0.3592 -0.2600
 3752TIP3    H111262   6.184   1.088   2.310 -0.3767  0.5795 -0.9780
 3752TIP3    H211263   6.046   1.027   2.322 -1.0265  1.7920 -1.9577
 3753TIP3   OH211264   1.336   1.835   4.765 -0.2515  0.4032  0.5108
 3753TIP3    H111265   1.324   1.888   4.687  0.2804  0.9808  0.8105
 3753TIP3    H211266   1.304   1.890   4.837  0.2693  0.3171  0.8182
 3754TIP3   OH211267   2.580   4.434   3.382 -0.0787  0.9354 -0.1300
 3754TIP3    H111268   2.622   4.457   3.465  0.2684 -0.1002 -0.0100
 3754TIP3    H211269   2.516   4.504   3.367  0.0353  1.2642  0.8824
 3755TIP3   OH211270   4.933   3.184   2.495  0.2720 -0.5453 -0.3245
 3755TIP3    H111271   5.003   3.172   2.560  0.4641  0.3663 -0.3462
 3755TIP3    H211272   4.971   3.154   2.413  0.0722 -1.5839 -0.0533
 3756TIP3   OH211273   4.698   5.334   2.707  0.2468  0.3488 -0.2475
 3756TIP3    H111274   4.676   5.251   2.750  1.7565 -0.5501 -1.1158
 3756TIP3    H211275   4.616   5.361   2.666 -0.5360 -0.1564  0.9345
 3757TIP3   OH211276   4.202   0.862   2.320  0.0472  0.7642  0.8696
 3757TIP3    H111277   4.277   0.811   2.349 -0.1793 -0.1019 -0.0116
 3757TIP3    H211278   4.214   0.948   2.361  2.3763  1.1853 -0.5067
 3758TIP3   OH211279   2.791   3.192   4.534 -0.2659  0.0654 -0.7003
 3758TIP3    H111280   2.791   3.284   4.505 -1.6915  0.4506  0.3955
 3758TIP3    H211281   2.883   3.168   4.536  0.1170  1.3290 -1.4352
 3759TIP3   OH211282   1.940   5.872   1.498  0.5779 -0.0251 -0.1708
 3759TIP3    H111283   2.028   5.892   1.532  0.6525 -0.5921 -0.0170
 3759TIP3    H211284   1.931   5.777   1.511  1.1456 -0.5460 -2.9856
 3760TIP3   OH211285   0.689   2.237   0.472  0.2856 -0.1234 -0.0560
 3760TIP3    H111286   0.677   2.327   0.442 -1.4889 -0.6608 -1.1000
 3760TIP3    H211287   0.625   2.226   0.542  2.5722  0.2881  2.2634
 3761TIP3   OH211288   3.720   4.900   2.885 -0.4232 -0.3051  0.4471
 3761TIP3    H111289   3.722   4.809   2.855  3.0890 -0.5938  1.1978
 3761TIP3    H211290   3.628   4.916   2.907 -1.0353 -3.8886  1.0237
 3762TIP3   OH211291   0.661   4.602   0.957 -0.0110 -0.0036 -0.4124
 3762TIP3    H111292   0.598   4.668   0.929 -1.2529 -1.7080 -1.9059
 3762TIP3    H211293   0.746   4.647   0.953 -1.0393  2.3827  1.7845
 3763TIP3   OH211294   0.531   4.391   0.826 -0.1590  0.6604  0.3995
 3763TIP3    H111295   0.596   4.450   0.866 -0.6220  2.0517 -0.8247
 3763TIP3    H211296   0.475   4.365   0.899  1.8674 -0.7901  1.5540
 3764TIP3   OH211297   0.967   3.291   2.515  0.5958  0.0297  1.0463
 3764TIP3    H111298   0.924   3.278   2.600 -0.8758 -1.3934  0.1404
 3764TIP3    H211299   1.018   3.211   2.501 -0.9092 -0.7575 -0.3297
 3765TIP3   OH211300   0.060   5.716   2.691 -0.3522  0.1732 -0.0022
 3765TIP3    H111301   0.151   5.698   2.666 -0.0674  2.7120 -1.1325
 3765TIP3    H211302   0.011   5.709   2.608 -0.9939 -0.0730  0.3918
 3766TIP3   OH211303   1.615   2.678   1.961 -0.0759 -0.0045 -0.6437
 3766TIP3    H111304   1.541   2.670   2.021 -0.2523 -0.2858 -0.9035
 3766TIP3    H211305   1.606   2.605   1.901  0.0032  0.3817 -1.1297
 3767TIP3   OH211306   5.090   2.731   0.580 -0.1910  0.0539 -0.4237
 3767TIP3    H111307   5.031   2.659   0.604 -1.8327  1.9305  1.6306
 3767TIP3    H211308   5.177   2.690   0.576 -1.1825 -2.2251 -0.4203
 3768TIP3   OH211309   2.295   4.299   3.380  0.1386  0.4401  0.0308
 3768TIP3    H111310   2.382   4.336   3.366 -0.3003  1.2799 -0.6031
 3768TIP3    H211311   2.254   4.357   3.444  0.1150 -0.0813  0.4966
 3769TIP3   OH211312   4.958   3.992   4.449  0.0352 -0.1324 -0.2898
 3769TIP3    H111313   4.929   4.083   4.461  0.3440 -0.0456 -0.1951
 3769TIP3    H211314   5.029   3.981   4.512 -0.0955 -0.4840 -0.2028
 3770TIP3   OH211315   1.465   3.261   4.399  0.0164  0.4850  0.1637
 3770TIP3    H111316   1.412   3.262   4.479  0.9150  0.3210  0.7845
 3770TIP3    H211317   1.547   3.218   4.426 -0.7955 -2.4875 -1.5867
 3771TIP3   OH211318   3.084   0.961   4.864  0.0560  0.6599  0.1199
 3771TIP3    H111319   3.110   0.873   4.892 -0.9511 -0.0703 -1.1184
 3771TIP3    H211320   3.146   1.019   4.907  1.1260 -0.7003  0.4911
 3772TIP3   OH211321   5.370   1.814   4.512  0.4154  0.3674 -0.3100
 3772TIP3    H111322   5.387   1.750   4.581 -1.0398 -0.2127 -0.4586
 3772TIP3    H211323   5.412   1.776   4.434 -0.1080 -0.2252 -0.3108
 3773TIP3   OH211324   1.440   1.304   1.712  0.5358  0.1439  0.8047
 3773TIP3    H111325   1.448   1.275   1.803  0.0146  0.2784  0.8926
 3773TIP3    H211326   1.519   1.356   1.696  1.5023 -1.3140  0.6432
 3774TIP3   OH211327   2.139   2.478   3.043  0.1388 -0.5490 -0.0102
 3774TIP3    H111328   2.125   2.512   3.131  0.7182  1.1309 -0.5283
 3774TIP3    H211329   2.150   2.556   2.988 -1.2962 -1.5043 -1.7685
 3775TIP3   OH211330   4.004   4.412   4.160 -0.4913 -0.2037  0.0738
 3775TIP3    H111331   4.073   4.411   4.227 -0.8962 -0.8257  0.4885
 3775TIP3    H211332   3.923   4.398   4.209 -1.0116  1.2592 -0.3113
 3776TIP3   OH211333   3.781   0.535   3.607  0.1929  0.0628  0.2750
 3776TIP3    H111334   3.726   0.463   3.636 -0.4177 -0.1510 -1.3386
 3776TIP3    H211335   3.778   0.531   3.512  1.8385  0.9435  0.1513
 3777TIP3   OH211336   1.581   3.925   4.606 -0.1298  0.2055  0.0759
 3777TIP3    H111337   1.625   3.861   4.550  0.1391  1.7910 -1.5977
 3777TIP3    H211338   1.569   3.879   4.689  3.9226 -0.6302  0.4054
 3778TIP3   OH211339   3.558   1.445   1.778 -0.3565 -0.0259  0.2789
 3778TIP3    H111340   3.577   1.369   1.834 -1.9596 -0.5130  0.2097
 3778TIP3    H211341   3.583   1.520   1.831 -0.4981 -0.5393  1.0901
 3779TIP3   OH211342   3.311   4.797   4.314 -0.3296 -0.1767  0.0629
 3779TIP3    H111343   3.317   4.724   4.375  0.3942  0.6740  1.0447
 3779TIP3    H211344   3.250   4.767   4.246 -2.7855 -0.3971  2.2235
 3780TIP3   OH211345   0.477   1.988   4.387 -0.0318  0.1598  0.2382
 3780TIP3    H111346   0.556   1.949   4.349 -1.0535 -0.7141 -1.0779
 3780TIP3    H211347   0.498   2.081   4.396  0.9791  0.0203 -0.5480
 3781TIP3   OH211348   3.157   1.031   3.823 -0.3181  0.9024  0.1256
 3781TIP3    H111349   3.247   1.064   3.831  0.3128 -0.9843  1.6166
 3781TIP3    H211350   3.167   0.942   3.790 -1.7109  0.9129 -0.3754
 3782TIP3   OH211351   5.352   1.096   2.711  0.2252  0.1643 -0.1085
 3782TIP3    H111352   5.282   1.035   2.734  0.2467  0.3507  0.4721
 3782TIP3    H211353   5.424   1.040   2.684  0.3220 -0.0865  0.6363
 3783TIP3   OH211354   4.677   0.194   0.844  0.1892  0.2679  0.3815
 3783TIP3    H111355   4.686   0.161   0.933  0.4522 -0.9496 -0.0709
 3783TIP3    H211356   4.632   0.124   0.797  2.2161 -0.2125 -1.0103
 3784TIP3   OH211357   0.146   4.817   4.037 -0.2294 -0.6129  0.0404
 3784TIP3    H111358   0.216   4.751   4.039  0.6202  0.2836  0.7857
 3784TIP3    H211359   0.150   4.854   3.949 -0.9886 -1.8154 -0.5274
 3785TIP3   OH211360   1.754   1.070   2.904 -0.4369  0.3074 -0.2255
 3785TIP3    H111361   1.767   1.010   2.978  0.8167  1.5236  0.5764
 3785TIP3    H211362   1.658   1.079   2.898 -0.5563  1.2629  2.1798
 3786TIP3   OH211363   3.184   1.462   1.431  0.1087  0.5118 -0.6045
 3786TIP3    H111364   3.264   1.471   1.378 -0.6477  1.5011 -1.6208
 3786TIP3    H211365   3.125   1.529   1.396 -1.9056 -1.4902 -1.2380
 3787TIP3   OH211366   0.565   5.139   2.956 -1.0215  0.3923 -0.1699
 3787TIP3    H111367   0.529   5.196   2.888 -2.6942  0.6340  0.8427
 3787TIP3    H211368   0.547   5.050   2.927 -2.7958  0.5154  0.4483
 3788TIP3   OH211369   2.345   0.406   2.903 -0.4111 -0.3826 -0.8363
 3788TIP3    H111370   2.348   0.501   2.905  0.0609 -0.3980 -0.6099
 3788TIP3    H211371   2.253   0.385   2.892 -0.4898  0.1038 -1.1169
 3789TIP3   OH211372   2.642   1.459   2.747 -0.1841  0.0762 -0.2116
 3789TIP3    H111373   2.626   1.553   2.738  2.1427  0.4005 -1.5963
 3789TIP3    H211374   2.705   1.452   2.819  0.0106 -0.3767 -0.4181
 3790TIP3   OH211375   0.271   3.885   3.086  0.2866 -0.3773  0.3901
 3790TIP3    H111376   0.229   3.935   3.156 -1.8056 -0.0004 -1.0355
 3790TIP3    H211377   0.319   3.950   3.036  0.4832 -0.3888  0.5618
 3791TIP3   OH211378   1.982   3.575   4.293 -0.0446  0.5505  0.0024
 3791TIP3    H111379   2.026   3.568   4.208 -0.2333  0.2388 -0.0714
 3791TIP3    H211380   2.047   3.617   4.350  1.0553 -1.5348  0.3857
 3792TIP3   OH211381   5.894   2.079   1.983  0.3538 -0.2943 -0.0371
 3792TIP3    H111382   5.846   2.038   1.911  2.0629  1.5655 -2.3995
 3792TIP3    H211383   5.868   2.171   1.980  2.4701  0.3624 -0.1163
 3793TIP3   OH211384   4.379   4.042   1.068 -0.1262  0.0121 -0.3028
 3793TIP3    H111385   4.465   4.077   1.045 -0.5626  1.3403 -0.0197
 3793TIP3    H211386   4.317   4.099   1.021 -0.8543 -2.2398 -2.3278
 3794TIP3   OH211387   2.393   4.074   0.516 -0.5185 -0.0805 -0.4186
 3794TIP3    H111388   2.381   3.989   0.473  0.3891 -0.3221 -0.2200
 3794TIP3    H211389   2.435   4.129   0.450  0.1300 -0.2053 -0.1194
 3795TIP3   OH211390   4.383   2.188   2.854  0.1621 -0.4947 -0.0226
 3795TIP3    H111391   4.400   2.250   2.783 -0.2778 -0.9484 -0.5405
 3795TIP3    H211392   4.345   2.242   2.924 -0.3799 -0.2038 -0.5315
 3796TIP3   OH211393   5.256   3.749   1.914 -0.0938  0.4816 -0.2335
 3796TIP3    H111394   5.212   3.821   1.869  2.0572  0.7530 -2.0941
 3796TIP3    H211395   5.349   3.768   1.903  0.5248 -1.8457  0.4937
 3797TIP3   OH211396   3.853   5.484   5.041 -0.6051  0.0250  0.7416
 3797TIP3    H111397   3.835   5.575   5.065 -1.1379  0.3218 -0.7066
 3797TIP3    H211398   3.852   5.484   4.946 -0.6717 -1.5213  0.7286
 3798TIP3   OH211399   2.904   2.377   0.247  0.4715  0.3410  0.2649
 3798TIP3    H111400   2.991   2.347   0.274  0.4098  0.9627  1.1752
 3798TIP3    H211401   2.921   2.441   0.178  0.6732 -0.3646 -0.3666
 3799TIP3   OH211402   2.903   3.797   3.707 -0.4270  0.3129 -0.0263
 3799TIP3    H111403   2.996   3.777   3.720 -0.7117 -1.8672 -0.9462
 3799TIP3    H211404   2.902   3.890   3.683  1.4653  0.4874  0.3797
 3800TIP3   OH211405   5.533   0.950   2.038 -0.2199  0.0384  1.1022
 3800TIP3    H111406   5.596   1.020   2.022  0.2895 -0.7764 -0.8249
 3800TIP3    H211407   5.584   0.882   2.082  0.0064 -0.1908  0.5043
 3801TIP3   OH211408   4.775   4.824   4.005 -0.1430 -0.3764  0.3279
 3801TIP3    H111409   4.760   4.739   3.965 -0.5631 -0.4155  0.5551
 3801TIP3    H211410   4.834   4.869   3.945  2.0689 -1.7016  1.3966
 3802TIP3   OH211411   1.458   0.812   3.726 -0.2363 -0.1688 -0.0740
 3802TIP3    H111412   1.405   0.828   3.804  0.6519 -1.5486  0.8716
 3802TIP3    H211413   1.536   0.866   3.739  0.6007 -1.5324  0.7767
 3803TIP3   OH211414   5.617   2.254   4.425  0.5164 -0.4577 -0.4729
 3803TIP3    H111415   5.543   2.243   4.366  1.3701  0.7886 -1.8601
 3803TIP3    H211416   5.589   2.213   4.507 -1.6720 -0.0300 -0.9448
 3804TIP3   OH211417   0.433   0.052   1.750 -0.4561 -0.1218  0.1241
 3804TIP3    H111418   0.527   0.033   1.757 -0.7197 -2.4822 -1.3714
 3804TIP3    H211419   0.427   0.110   1.674 -0.2564 -0.6890 -0.3354
 3805TIP3   OH211420   0.719   4.386   1.813  0.1587 -0.3594  0.4010
 3805TIP3    H111421   0.640   4.335   1.795  0.3665 -0.2844 -0.8328
 3805TIP3    H211422   0.719   4.454   1.746  0.6646  0.3602  1.1154
 3806TIP3   OH211423   5.109   2.149   0.876 -0.3731 -0.3014 -0.0617
 3806TIP3    H111424   5.170   2.167   0.805  0.0462  0.5219  0.4852
 3806TIP3    H211425   5.162   2.155   0.956 -1.2508  0.9889  0.4649
 3807TIP3   OH211426   5.155   4.398   3.300 -0.5300  0.5665 -0.1566
 3807TIP3    H111427   5.130   4.327   3.241  0.3351 -0.0617  0.2089
 3807TIP3    H211428   5.246   4.416   3.277 -0.8581  1.8297 -0.5059
 3808TIP3   OH211429   5.442   1.739   5.011  0.1814  0.4448  0.1615
 3808TIP3    H111430   5.383   1.708   5.079 -1.3323 -1.1829 -1.7416
 3808TIP3    H211431   5.521   1.688   5.022 -0.7360 -1.1612 -0.3407
 3809TIP3   OH211432   4.124   3.843   3.847 -0.4174  0.4019  0.0699
 3809TIP3    H111433   4.177   3.886   3.915 -0.8116  1.2375 -0.1379
 3809TIP3    H211434   4.172   3.859   3.766  0.5871 -1.4637  0.2409
 3810TIP3   OH211435   5.752   3.708   4.883  0.1217  0.1652 -0.0729
 3810TIP3    H111436   5.757   3.726   4.789  0.6487  1.2880  0.1547
 3810TIP3    H211437   5.688   3.771   4.916  1.8798  1.6201  0.7214
 3811TIP3   OH211438   3.101   5.679   3.992 -0.0806  0.6106 -0.1926
 3811TIP3    H111439   3.161   5.605   3.997 -0.6244  0.1783 -0.0576
 3811TIP3    H211440   3.099   5.701   3.899  1.6731  1.7872 -0.0020
 3812TIP3   OH211441   1.627   5.420   0.294 -0.1369  0.3918 -0.2209
 3812TIP3    H111442   1.544   5.379   0.319  0.4678 -0.1460  0.9910
 3812TIP3    H211443   1.689   5.347   0.289 -0.2406  0.3277 -3.8652
 3813TIP3   OH211444   2.889   0.941   3.449 -0.6595  1.2520  0.3584
 3813TIP3    H111445   2.948   1.003   3.493  2.2789 -2.6734  2.5852
 3813TIP3    H211446   2.845   0.895   3.521  0.0410 -1.5997 -0.8997
 3814TIP3   OH211447   1.546   4.940   3.730  0.3120 -0.2231  0.0121
 3814TIP3    H111448   1.585   5.027   3.720 -2.1949  1.2852  2.0126
 3814TIP3    H211449   1.464   4.956   3.777 -0.4669 -3.6619  0.0855
 3815TIP3   OH211450   3.183   1.188   1.230 -0.1225  0.0470  0.2963
 3815TIP3    H111451   3.197   1.201   1.324  0.0183 -0.2038  0.3106
 3815TIP3    H211452   3.094   1.219   1.215 -0.5995 -1.0419  0.7464
 3816TIP3   OH211453   4.607   0.366   4.555 -0.0411  0.1871 -0.2362
 3816TIP3    H111454   4.589   0.310   4.480 -2.2613 -0.2027  0.5315
 3816TIP3    H211455   4.697   0.344   4.580 -0.0090 -1.2203 -1.4638
 3817TIP3   OH211456   3.626   4.698   4.406 -0.6992  0.1613 -0.8238
 3817TIP3    H111457   3.558   4.722   4.468  1.4504 -0.0389  1.7919
 3817TIP3    H211458   3.621   4.602   4.400 -0.9587  0.1874 -1.0438
 3818TIP3   OH211459   1.850   5.741   0.886 -0.5625  0.3942 -0.3625
 3818TIP3    H111460   1.777   5.707   0.834 -1.1257  0.5013  0.3572
 3818TIP3    H211461   1.838   5.836   0.886 -0.1470  0.4501 -0.6440
 3819TIP3   OH211462   1.927   1.282   2.116  0.8942  0.0164  0.2040
 3819TIP3    H111463   1.955   1.200   2.156  0.8825 -0.9929 -1.7530
 3819TIP3    H211464   1.838   1.296   2.148  1.3365 -0.0469  1.5249
 3820TIP3   OH211465   5.045   5.355   0.845 -0.1006  0.1304  0.2059
 3820TIP3    H111466   4.954   5.363   0.815 -0.0449 -0.5650 -0.1613
 3820TIP3    H211467   5.052   5.265   0.875  0.5386  0.1147  0.0163
 3821TIP3   OH211468   5.038   4.602   1.304  0.6185  0.5815 -0.2412
 3821TIP3    H111469   4.971   4.540   1.276 -1.9864  2.0655  2.0375
 3821TIP3    H211470   5.051   4.659   1.229 -1.1509  0.5307 -0.6456
 3822TIP3   OH211471   1.771   2.736   1.350 -0.1397 -0.0006 -0.6349
 3822TIP3    H111472   1.851   2.782   1.325 -0.4127  0.6633 -0.2939
 3822TIP3    H211473   1.772   2.656   1.296  1.0104 -0.2643 -0.2513
 3823TIP3   OH211474   3.108   3.771   0.756  0.0180  0.5819 -0.5513
 3823TIP3    H111475   3.021   3.731   0.761 -0.1648  1.0423  0.0426
 3823TIP3    H211476   3.124   3.806   0.843  2.0262 -1.9922  0.2527
 3824TIP3   OH211477   1.351   2.083   4.569  0.2092 -0.1958  0.2954
 3824TIP3    H111478   1.407   2.027   4.514  1.0963  1.5279 -0.6532
 3824TIP3    H211479   1.264   2.044   4.562  0.7210 -1.2522 -0.6146
 3825TIP3   OH211480   3.567   4.323   2.967 -0.3345 -0.0330 -0.0440
 3825TIP3    H111481   3.499   4.361   2.911  0.0434 -0.4425 -0.7913
 3825TIP3    H211482   3.624   4.397   2.989  1.1302 -0.3215 -2.5399
 3826TIP3   OH211483   6.109   2.828   4.748  0.1971 -0.2069  0.1908
 3826TIP3    H111484   6.075   2.831   4.658  0.3486 -0.1860  0.1344
 3826TIP3    H211485   6.132   2.737   4.762 -0.4037 -0.3329  0.4230
 3827TIP3   OH211486   5.550   3.317   2.111 -0.1519 -0.0231 -0.0450
 3827TIP3    H111487   5.473   3.359   2.149 -1.7385 -2.7161  0.0353
 3827TIP3    H211488   5.585   3.263   2.182  0.5671 -0.3891 -0.6655
 3828TIP3   OH211489   6.134   2.196   1.895  0.1081  0.0042 -0.1305
 3828TIP3    H111490   6.107   2.118   1.945 -1.6727  0.0845 -0.9027
 3828TIP3    H211491   6.071   2.202   1.824  1.6608  0.7982 -1.5138
 3829TIP3   OH211492   6.228   4.774   3.049 -0.0934  0.1144 -0.1210
 3829TIP3    H111493   6.256   4.818   2.969 -2.9432  0.1729 -1.2183
 3829TIP3    H211494   6.180   4.696   3.019 -2.6134  0.9657  1.3384
 3830TIP3   OH211495   3.867   5.790   4.102  0.3489 -0.2653  0.3162
 3830TIP3    H111496   3.881   5.698   4.127  0.6339 -0.0424  1.0027
 3830TIP3    H211497   3.918   5.801   4.022 -1.3366 -1.2531 -0.9474
 3831TIP3   OH211498   0.678   4.104   3.751  0.0465 -0.4030  0.5149
 3831TIP3    H111499   0.760   4.059   3.733  1.4201  2.1931 -0.2529
 3831TIP3    H211500   0.673   4.173   3.685 -2.0852  0.3544  1.3613
 3832TIP3   OH211501   3.073   5.520   5.106 -0.1528  0.0993  0.1577
 3832TIP3    H111502   3.094   5.496   5.015 -1.6438 -2.0345  0.3075
 3832TIP3    H211503   3.138   5.587   5.128  0.8101  0.0483 -2.1812
 3833TIP3   OH211504   3.457   1.076   3.799  0.2461  0.0097  0.8961
 3833TIP3    H111505   3.493   1.030   3.724  0.3759  0.5361  0.6263
 3833TIP3    H211506   3.508   1.045   3.874 -1.1667 -1.9781  1.0909
 3834TIP3   OH211507   0.780   1.096   4.961 -0.1749  0.2342  0.1855
 3834TIP3    H111508   0.799   1.004   4.981 -1.5022 -0.1479 -0.2168
 3834TIP3    H211509   0.687   1.097   4.939  0.1181  1.4476 -1.1791
 3835TIP3   OH211510   5.967   1.720   1.717  0.4415  0.4831  0.6432
 3835TIP3    H111511   5.882   1.676   1.712  0.8670 -0.2437 -0.6092
 3835TIP3    H211512   5.960   1.792   1.655 -0.0362  1.8863  2.2433
 3836TIP3   OH211513   5.322   4.902   2.206  0.1110  0.3193 -0.1382
 3836TIP3    H111514   5.265   4.911   2.283 -1.8473  0.2947 -1.5125
 3836TIP3    H211515   5.395   4.849   2.237 -1.4149 -1.0737  1.3260
 3837TIP3   OH211516   6.308   4.231   4.712 -0.1464 -0.0628 -0.4123
 3837TIP3    H111517   6.389   4.190   4.682 -0.0528  0.0963 -0.3786
 3837TIP3    H211518   6.270   4.169   4.774  0.5036  0.3456  0.4145
 3838TIP3   OH211519   0.330   5.652   1.312  0.9736  0.4325 -0.2405
 3838TIP3    H111520   0.336   5.745   1.292  1.0659  0.4322 -0.2169
 3838TIP3    H211521   0.404   5.613   1.266  0.1425  0.1699 -1.4040
 3839TIP3   OH211522   3.485   1.308   2.340  0.2872 -0.0441 -0.2589
 3839TIP3    H111523   3.567   1.272   2.373 -0.5988 -0.7874  1.2471
 3839TIP3    H211524   3.445   1.350   2.417 -1.2860 -0.7286 -0.6720
 3840TIP3   OH211525   1.237   1.045   2.957 -0.1312  0.0829  0.3765
 3840TIP3    H111526   1.223   0.976   3.022 -0.2097 -1.6634 -1.4068
 3840TIP3    H211527   1.149   1.080   2.941 -0.5283 -1.3136 -0.6804
 3841TIP3   OH211528   3.556   3.382   5.080  0.1815  0.2829 -0.6173
 3841TIP3    H111529   3.518   3.452   5.132 -0.9732  0.0102 -1.0447
 3841TIP3    H211530   3.623   3.343   5.136 -1.7085 -0.6745  1.1115
 3842TIP3   OH211531   2.156   4.224   5.026  0.5100  0.4820 -0.3202
 3842TIP3    H111532   2.093   4.288   4.994 -0.9541 -1.7027 -2.0986
 3842TIP3    H211533   2.208   4.271   5.091 -3.0043  2.3941  1.3413
 3843TIP3   OH211534   4.921   5.272   4.357 -0.2563 -0.2305 -0.0043
 3843TIP3    H111535   4.996   5.330   4.373 -1.3273  1.2819 -0.2604
 3843TIP3    H211536   4.882   5.258   4.443 -0.4495  0.0777 -0.0400
 3844TIP3   OH211537   1.459   2.675   4.291  0.5270 -0.6728  0.0270
 3844TIP3    H111538   1.409   2.756   4.281 -0.4429 -1.2242  0.1592
 3844TIP3    H211539   1.547   2.703   4.316 -0.0337  0.3221  1.0022
 3845TIP3   OH211540   0.342   5.221   1.093 -0.0417  0.2704  0.3382
 3845TIP3    H111541   0.316   5.312   1.103 -0.0076  0.4057 -0.6635
 3845TIP3    H211542   0.363   5.212   1.000 -0.9265 -0.9823  0.2304
 3846TIP3   OH211543   5.995   3.740   0.535  0.1567 -0.0844  0.0437
 3846TIP3    H111544   5.944   3.659   0.527 -0.8835  0.2585  2.2054
 3846TIP3    H211545   5.961   3.796   0.466  0.9654 -1.4836 -1.5610
 3847TIP3   OH211546   2.773   5.060   3.523  0.8860  0.5101 -0.5017
 3847TIP3    H111547   2.700   5.049   3.584  1.5036 -1.3498 -0.0449
 3847TIP3    H211548   2.745   5.016   3.443  2.0192 -1.5743  0.1690
 3848TIP3   OH211549   1.351   0.940   1.852 -0.0486  0.0097  0.0422
 3848TIP3    H111550   1.263   0.907   1.838 -0.8486  1.3043  1.6713
 3848TIP3    H211551   1.376   0.978   1.768 -0.8939 -0.6781 -0.5338
 3849TIP3   OH211552   1.895   0.255   4.965  0.9272 -0.1258  0.6127
 3849TIP3    H111553   1.804   0.283   4.977  0.1560 -2.0313 -0.2857
 3849TIP3    H211554   1.904   0.179   5.023  1.9326 -0.0063  0.6251
 3850TIP3   OH211555   5.931   3.262   2.858  0.0605  0.4475  0.0737
 3850TIP3    H111556   5.892   3.176   2.873  0.4018  0.2264 -0.2949
 3850TIP3    H211557   5.972   3.255   2.772  1.8214  0.3454  0.8963
 3851TIP3   OH211558   3.231   0.195   2.030  0.3660  0.2916 -0.2887
 3851TIP3    H111559   3.270   0.282   2.038  0.5619  0.6308 -3.4241
 3851TIP3    H211560   3.306   0.136   2.026  0.2370 -0.0505  1.6635
 3852TIP3   OH211561   5.742   5.746   4.243 -0.3251  0.0965  0.0928
 3852TIP3    H111562   5.836   5.730   4.252  0.0980  0.9229 -2.2758
 3852TIP3    H211563   5.734   5.803   4.167 -2.6849  1.0237  0.9339
 3853TIP3   OH211564   0.821   4.161   0.518  0.1306  0.3884  0.1552
 3853TIP3    H111565   0.764   4.170   0.594  2.3067  0.7073  1.8635
 3853TIP3    H211566   0.798   4.077   0.480 -1.0620  0.2490  1.1100
 3854TIP3   OH211567   4.587   5.230   4.715 -0.3672  0.0701 -0.2541
 3854TIP3    H111568   4.533   5.178   4.775  2.8495 -1.9563  1.1286
 3854TIP3    H211569   4.545   5.219   4.630 -1.6324 -2.2130  0.5696
 3855TIP3   OH211570   2.491   0.439   2.670 -0.3004 -0.5541 -0.3422
 3855TIP3    H111571   2.446   0.521   2.647 -1.4296 -1.2124 -0.5357
 3855TIP3    H211572   2.447   0.409   2.750  1.7532  0.2771  1.1917
 3856TIP3   OH211573   5.271   4.874   0.462  0.2079 -0.3369 -0.3291
 3856TIP3    H111574   5.250   4.853   0.371 -0.5013 -0.0856 -0.2315
 3856TIP3    H211575   5.194   4.844   0.511 -1.4477  3.3796 -0.2880
 3857TIP3   OH211576   2.575   3.155   1.602  0.0834  0.4966  0.0972
 3857TIP3    H111577   2.654   3.170   1.655 -0.1536 -0.3700  0.7089
 3857TIP3    H211578   2.503   3.167   1.663 -0.1798 -0.9393  0.0862
 3858TIP3   OH211579   4.511   4.013   1.477  0.1963  0.0231 -0.3409
 3858TIP3    H111580   4.532   4.067   1.554 -0.3036  1.8103 -1.4018
 3858TIP3    H211581   4.591   3.963   1.461  1.4656  1.9893 -0.5116
 3859TIP3   OH211582   2.673   2.809   4.949  0.2596  0.5214 -0.4081
 3859TIP3    H111583   2.609   2.855   4.895  0.7400 -0.6568 -2.0355
 3859TIP3    H211584   2.661   2.717   4.927  1.6067  0.1669  0.2584
 3860TIP3   OH211585   1.492   0.961   4.253  0.3530  0.3803  0.0597
 3860TIP3    H111586   1.553   0.896   4.287 -1.8128 -0.8584  1.8057
 3860TIP3    H211587   1.471   0.931   4.165 -0.6239 -1.4084  0.8429
 3861TIP3   OH211588   5.270   3.788   4.392  0.1200  0.5448  0.4527
 3861TIP3    H111589   5.210   3.750   4.456 -2.3383 -0.9921 -2.5172
 3861TIP3    H211590   5.325   3.715   4.364 -1.0701  0.3336 -1.4868
 3862TIP3   OH211591   3.778   2.988   1.677  0.4518  0.2806  0.1474
 3862TIP3    H111592   3.722   2.955   1.606  1.5317  1.6066 -1.3999
 3862TIP3    H211593   3.719   3.039   1.732 -0.0982  0.7612 -0.8523
 3863TIP3   OH211594   2.800   2.307   0.501  0.1937  0.8398  0.1118
 3863TIP3    H111595   2.836   2.374   0.559  1.2880  0.0568  0.3613
 3863TIP3    H211596   2.797   2.349   0.415  0.7837  1.2494  0.2825
 3864TIP3   OH211597   2.674   4.352   1.733  0.2133  0.3543  0.5297
 3864TIP3    H111598   2.716   4.276   1.693  0.8850  0.1488  1.5959
 3864TIP3    H211599   2.635   4.318   1.813 -1.9149  0.5621 -0.3389
 3865TIP3   OH211600   2.299   0.745   2.044  0.5361  0.8622 -0.1464
 3865TIP3    H111601   2.284   0.698   1.961  2.9938 -0.2404 -0.0464
 3865TIP3    H211602   2.268   0.834   2.027 -4.3183 -0.5690 -0.3746
 3866TIP3   OH211603   1.713   5.861   1.111 -0.4828 -0.1964 -0.7831
 3866TIP3    H111604   1.745   5.771   1.114 -0.9908 -0.4477  3.8520
 3866TIP3    H211605   1.788   5.912   1.079  1.6003 -1.7940  1.1982
 3867TIP3   OH211606   5.978   4.065   5.103 -0.4310 -0.6242 -0.1969
 3867TIP3    H111607   5.919   4.043   5.175 -0.8189 -1.8335 -0.8626
 3867TIP3    H211608   5.921   4.068   5.026  0.0011  0.5201 -0.4871
 3868TIP3   OH211609   5.955   5.142   3.501  0.4468  0.2193  0.5092
 3868TIP3    H111610   6.029   5.186   3.458 -0.1898  0.5151 -0.3015
 3868TIP3    H211611   5.938   5.065   3.447 -0.1657  0.4306  0.3985
 3869TIP3   OH211612   1.701   5.756   2.494  0.6064  0.4043  0.2706
 3869TIP3    H111613   1.714   5.809   2.415  1.1591 -1.3799 -0.9070
 3869TIP3    H211614   1.607   5.740   2.497  0.6077  0.3091 -0.1503
 3870TIP3   OH211615   5.818   3.026   2.950  0.3248  0.2212  0.0440
 3870TIP3    H111616   5.740   3.045   3.002 -1.0903  0.0295 -1.8789
 3870TIP3    H211617   5.839   2.935   2.969 -0.5050 -0.0086 -0.1254
 3871TIP3   OH211618   3.318   4.082   2.937  0.0846 -0.3100 -0.1860
 3871TIP3    H111619   3.403   4.056   2.972 -0.6032  0.3003  2.1006
 3871TIP3    H211620   3.339   4.134   2.860  1.9081  1.4096  1.3719
 3872TIP3   OH211621   2.122   3.503   3.059 -0.4109  0.0172 -0.1831
 3872TIP3    H111622   2.093   3.466   3.142 -1.0354  0.4287 -0.2121
 3872TIP3    H211623   2.190   3.566   3.084  1.1216 -1.5764 -0.1864
 3873TIP3   OH211624   3.037   2.472   3.267 -0.4981 -0.6778 -0.0994
 3873TIP3    H111625   3.012   2.492   3.177 -0.7982  2.6531  0.5921
 3873TIP3    H211626   2.964   2.420   3.301 -1.2132 -0.4574 -1.2545
 3874TIP3   OH211627   2.475   3.950   1.350  0.1863  0.2061  0.1629
 3874TIP3    H111628   2.457   3.890   1.278  1.6893  0.9437 -0.9056
 3874TIP3    H211629   2.475   3.896   1.428  1.1652 -1.1485 -0.7274
 3875TIP3   OH211630   2.500   0.258   3.880  0.4650 -0.0008  0.8737
 3875TIP3    H111631   2.449   0.339   3.872  0.9497  0.2118 -0.1981
 3875TIP3    H211632   2.438   0.189   3.859 -0.1272  0.0131  2.4343
 3876TIP3   OH211633   4.844   4.074   2.509 -0.4070 -0.3183 -0.3725
 3876TIP3    H111634   4.885   4.083   2.595 -1.6203 -2.1236  0.4488
 3876TIP3    H211635   4.896   4.006   2.465 -0.3307 -0.0291 -0.7380
 3877TIP3   OH211636   0.924   2.582   2.311  0.0010 -0.0200 -0.6460
 3877TIP3    H111637   0.987   2.648   2.281  0.2085  0.1306  0.1069
 3877TIP3    H211638   0.889   2.544   2.230 -0.5466  1.4186 -1.1178
 3878TIP3   OH211639   4.220   3.474  -0.001  0.2386 -0.2916 -0.3830
 3878TIP3    H111640   4.287   3.535   0.031  1.0424 -1.2541 -0.1647
 3878TIP3    H211641   4.267   3.391  -0.012 -1.1154 -1.2548  0.7324
 3879TIP3   OH211642   5.185   4.310   4.496 -0.1823  0.2232 -0.5417
 3879TIP3    H111643   5.200   4.238   4.556  1.2138  0.7183 -0.2665
 3879TIP3    H211644   5.118   4.364   4.539  0.8390  0.6020  0.6151
 3880TIP3   OH211645   1.000   1.547   4.503  0.1137  0.3017 -0.8211
 3880TIP3    H111646   1.036   1.579   4.586  0.2274  1.3554 -1.2494
 3880TIP3    H211647   1.040   1.461   4.491  0.1628  0.1772  0.1694
 3881TIP3   OH211648   4.985   1.880   3.942 -0.0578 -0.4993  0.1345
 3881TIP3    H111649   4.944   1.948   3.889  0.4421  0.1208  0.5216
 3881TIP3    H211650   4.965   1.904   4.033  2.1045  0.5055  0.4115
 3882TIP3   OH211651   6.183   0.241   4.706  0.0731  0.6287  0.2496
 3882TIP3    H111652   6.108   0.265   4.652 -1.6496 -1.0665  1.7204
 3882TIP3    H211653   6.243   0.197   4.646 -0.3358  1.5558 -0.8612
 3883TIP3   OH211654   0.444   5.025   2.055 -0.5937 -0.3833 -0.0302
 3883TIP3    H111655   0.506   5.028   2.128 -0.6102  1.0752 -0.0574
 3883TIP3    H211656   0.397   4.943   2.068  0.0607 -0.6125  1.0502
 3884TIP3   OH211657   2.947   5.991   4.527 -0.5297 -0.1972 -0.5244
 3884TIP3    H111658   2.969   5.955   4.442  1.7708 -1.0650  0.3644
 3884TIP3    H211659   2.897   5.922   4.571  0.8540 -0.9734 -0.1138
 3885TIP3   OH211660   4.899   3.534   0.204  0.1534  0.2919  0.2063
 3885TIP3    H111661   4.807   3.559   0.212 -0.1028  0.0382 -1.4682
 3885TIP3    H211662   4.897   3.438   0.197  0.6178  0.2282  0.9154
 3886TIP3   OH211663   5.015   5.048   0.703 -0.6066 -0.0964 -0.3976
 3886TIP3    H111664   4.936   5.092   0.734  1.4343  2.5693  1.5718
 3886TIP3    H211665   5.026   5.079   0.614 -0.2312  2.0468  0.3349
 3887TIP3   OH211666   0.832   0.614   0.123  0.7823 -0.5365 -0.0288
 3887TIP3    H111667   0.869   0.588   0.039  2.5111 -0.0116  0.5308
 3887TIP3    H211668   0.751   0.564   0.130  0.3287 -0.2365 -2.2170
 3888TIP3   OH211669   1.698   2.219   3.206 -0.3165  0.0931  0.4489
 3888TIP3    H111670   1.679   2.175   3.289  1.1772 -0.5751  0.4713
 3888TIP3    H211671   1.654   2.167   3.139 -0.2285 -0.2794  0.6795
 3889TIP3   OH211672   3.002   4.392   2.850  0.2995 -0.1878  0.1352
 3889TIP3    H111673   2.919   4.439   2.863  0.0734 -0.1291 -1.3357
 3889TIP3    H211674   2.995   4.316   2.907 -0.6100  0.0262  0.3306
 3890TIP3   OH211675   3.871   3.949   3.928 -0.5931 -0.4952  0.3194
 3890TIP3    H111676   3.881   4.039   3.898 -1.6374 -0.2855  0.5465
 3890TIP3    H211677   3.955   3.907   3.909 -0.7041  0.0287 -1.4811
 3891TIP3   OH211678   4.542   2.593   4.616  0.2450  0.2911 -0.2800
 3891TIP3    H111679   4.488   2.672   4.620 -0.9180 -0.4476 -0.7931
 3891TIP3    H211680   4.558   2.579   4.522  0.7449  0.1256 -0.1723
 3892TIP3   OH211681   4.370   5.200   2.874  0.3509 -0.5510 -0.3267
 3892TIP3    H111682   4.287   5.153   2.876 -0.4481  0.7908 -0.7189
 3892TIP3    H211683   4.419   5.165   2.948 -1.2664 -0.1130  0.9965
 3893TIP3   OH211684   2.054   1.116   3.059 -0.1185  0.4244  0.0727
 3893TIP3    H111685   2.012   1.166   3.129 -0.6817 -0.1683  0.1698
 3893TIP3    H211686   2.032   1.025   3.077  1.3854  0.0614  0.2240
 3894TIP3   OH211687   1.067   1.792   3.105  0.2651 -0.1181 -0.0685
 3894TIP3    H111688   1.140   1.759   3.157 -2.6384 -3.6503  2.2882
 3894TIP3    H211689   1.029   1.715   3.064 -2.2111  1.4988 -1.0784
 3895TIP3   OH211690   2.326   3.526   0.979 -0.3044  0.2814  0.7337
 3895TIP3    H111691   2.413   3.510   1.015  0.1634  1.0178 -0.0140
 3895TIP3    H211692   2.337   3.512   0.885 -0.6163  1.8246  0.4461
 3896TIP3   OH211693   1.937   4.392   1.397 -0.3765  0.2574  0.4045
 3896TIP3    H111694   2.000   4.428   1.335  0.2828 -1.2194  0.1650
 3896TIP3    H211695   1.935   4.455   1.469  0.0216  1.2097 -0.4052
 3897TIP3   OH211696   3.074   0.759   1.126  0.4265  0.0171 -0.1195
 3897TIP3    H111697   3.137   0.690   1.111  1.4041  0.2719  2.3488
 3897TIP3    H211698   3.017   0.726   1.196 -2.3420 -0.2491 -2.3126
 3898TIP3   OH211699   5.048   2.533   4.555 -0.0689  0.4345  0.1364
 3898TIP3    H111700   5.095   2.451   4.544  1.6452  1.2653  0.9191
 3898TIP3    H211701   5.085   2.591   4.488 -0.0155  1.0783  0.7058
 3899TIP3   OH211702   2.211   1.111   3.725  0.2513 -0.2575 -0.2442
 3899TIP3    H111703   2.286   1.112   3.665  0.7819 -0.8943  0.3811
 3899TIP3    H211704   2.204   1.020   3.753  0.4657  0.1244  1.1762
 3900TIP3   OH211705   1.941   2.503   4.703  0.0649  0.1192  0.4644
 3900TIP3    H111706   1.877   2.554   4.654 -0.6666 -1.8634 -0.7523
 3900TIP3    H211707   1.965   2.432   4.644 -0.1761 -1.8900  2.6597
 3901TIP3   OH211708   0.970   5.529   2.852  0.2679 -0.0471 -0.5042
 3901TIP3    H111709   1.010   5.547   2.767  1.2818 -2.2291 -0.5612
 3901TIP3    H211710   0.877   5.515   2.832  0.2369  0.8088 -1.0228
 3902TIP3   OH211711   0.228   3.068   4.063 -0.0655  0.3234  0.2102
 3902TIP3    H111712   0.215   2.978   4.093 -0.3218 -0.0297 -0.9373
 3902TIP3    H211713   0.141   3.108   4.070 -0.2188  0.1105 -0.4912
 3903TIP3   OH211714   1.476   5.968   2.396 -0.2372  0.2585  0.0849
 3903TIP3    H111715   1.432   5.889   2.427 -2.3033  0.6978 -1.5128
 3903TIP3    H211716   1.463   5.967   2.301  2.5291  0.8891 -0.3735
 3904TIP3   OH211717   5.012   4.388   0.067  0.0068  0.5776 -0.5391
 3904TIP3    H111718   5.029   4.480   0.091  2.9996  0.0982 -0.4337
 3904TIP3    H211719   5.079   4.368   0.001  0.8533 -2.1133  0.9830
 3905TIP3   OH211720   4.544   1.536   2.785  0.0018 -0.3119 -0.3452
 3905TIP3    H111721   4.491   1.611   2.811  0.2268 -0.4159  0.4617
 3905TIP3    H211722   4.518   1.518   2.695  0.6657  1.3645 -0.9263
 3906TIP3   OH211723   2.014   4.846   2.966  0.4878 -0.8983 -0.2605
 3906TIP3    H111724   2.019   4.894   2.884 -1.6177  1.3141  0.7833
 3906TIP3    H211725   1.962   4.768   2.945  0.5245 -0.6915 -1.1524
 3907TIP3   OH211726   1.432   2.833   2.711 -0.1685  0.5127 -0.2990
 3907TIP3    H111727   1.383   2.797   2.637 -0.7900  1.6966 -0.4864
 3907TIP3    H211728   1.524   2.821   2.687 -0.3328 -1.6766  0.0251
 3908TIP3   OH211729   0.459   4.072   1.442  0.2587 -0.3842  0.0698
 3908TIP3    H111730   0.492   3.986   1.415 -0.8618 -0.6189 -0.6408
 3908TIP3    H211731   0.365   4.059   1.454  0.0345  0.7837 -0.2396
 3909TIP3   OH211732   1.094   5.347   3.043 -0.6684  0.1343  0.4210
 3909TIP3    H111733   1.026   5.384   2.987 -2.2011  0.8282  2.5968
 3909TIP3    H211734   1.072   5.254   3.049  0.0833 -0.1552 -0.8258
 3910TIP3   OH211735   0.030   3.378   2.224  0.0919  0.3851 -0.2901
 3910TIP3    H111736  -0.063   3.387   2.248 -0.4360  1.3786 -2.4073
 3910TIP3    H211737   0.042   3.285   2.209 -0.0542  0.0010  1.6939
 3911TIP3   OH211738   1.305   1.623   3.989  0.0151 -0.4476  0.8200
 3911TIP3    H111739   1.210   1.610   3.982 -0.3148  0.8350  2.3579
 3911TIP3    H211740   1.319   1.712   3.956  0.8111 -0.8977 -0.0989
 3912TIP3   OH211741   4.216   5.941   3.714 -0.4048 -0.4170  0.0003
 3912TIP3    H111742   4.276   5.948   3.788 -0.8374 -0.9958  0.4121
 3912TIP3    H211743   4.206   5.847   3.700 -1.1925 -0.3265 -0.0775
 3913TIP3   OH211744   2.086   2.089   4.445  0.0400  0.1531  0.2755
 3913TIP3    H111745   2.052   2.087   4.356 -1.3491  0.8534  0.7598
 3913TIP3    H211746   2.023   2.039   4.496 -0.6710  1.9808  1.3040
 3914TIP3   OH211747   5.145   5.773   1.791 -0.1734  0.4155 -0.0384
 3914TIP3    H111748   5.204   5.791   1.864 -0.1334  0.9591 -0.2056
 3914TIP3    H211749   5.170   5.685   1.761  0.3166  0.5042  0.1126
 3915TIP3   OH211750   4.210   1.742   1.889  0.3558 -0.2150 -0.6085
 3915TIP3    H111751   4.214   1.831   1.854 -0.7059  0.0909  0.0033
 3915TIP3    H211752   4.117   1.727   1.906  0.7090 -0.7030  1.1446
 3916TIP3   OH211753   1.031   2.617   4.108 -0.1290 -0.5633 -0.1202
 3916TIP3    H111754   0.953   2.657   4.147  0.9309  0.6391  0.8544
 3916TIP3    H211755   1.089   2.600   4.183  1.3704  0.4523 -1.0076
 3917TIP3   OH211756   4.681   2.230   1.510  0.1811  0.0854  0.1235
 3917TIP3    H111757   4.588   2.231   1.485  0.2927 -0.3463 -0.3051
 3917TIP3    H211758   4.723   2.290   1.448  0.3790 -0.6177 -0.4277
 3918TIP3   OH211759   1.840   2.553   1.107  0.1955 -0.4886  0.0396
 3918TIP3    H111760   1.768   2.541   1.046 -0.2206  1.6936  0.0180
 3918TIP3    H211761   1.915   2.513   1.064 -0.4121 -0.3121 -1.2386
 3919TIP3   OH211762   4.168   2.136   2.453 -0.3849 -0.5985 -0.2003
 3919TIP3    H111763   4.249   2.186   2.441 -0.3165 -0.4445  0.8439
 3919TIP3    H211764   4.156   2.090   2.369  0.7508 -0.5849 -0.3865
 3920TIP3   OH211765   3.300   2.976   5.034 -0.3783 -0.1120 -0.3802
 3920TIP3    H111766   3.372   3.039   5.044 -0.5659  0.1491 -0.6727
 3920TIP3    H211767   3.221   3.028   5.049 -0.5996 -0.0173 -1.7772
 3921TIP3   OH211768   0.324   1.007   4.719 -0.2933 -0.5277 -0.2502
 3921TIP3    H111769   0.352   1.043   4.635  0.2877  0.3976  0.3313
 3921TIP3    H211770   0.265   0.935   4.695 -0.9571  0.3733 -1.4389
 3922TIP3   OH211771   0.030   0.316   2.400 -0.4531  0.0524  0.0457
 3922TIP3    H111772  -0.019   0.283   2.325  1.3432 -0.0580 -1.1277
 3922TIP3    H211773   0.069   0.238   2.440  1.7921  0.4268 -1.2779
 3923TIP3   OH211774   0.686   3.178   0.078 -0.4392  0.6735 -0.2947
 3923TIP3    H111775   0.605   3.209   0.036 -0.5351  0.8538  0.0209
 3923TIP3    H211776   0.661   3.099   0.124 -0.2120  0.1594 -1.0297
 3924TIP3   OH211777   3.679   4.211   3.381  0.0650 -0.8581 -0.0117
 3924TIP3    H111778   3.658   4.273   3.451  0.8862 -0.1738 -0.3563
 3924TIP3    H211779   3.764   4.240   3.348 -0.1373 -1.4066 -1.0416
 3925TIP3   OH211780   1.204   0.817   5.171  0.5221 -0.2733 -0.0684
 3925TIP3    H111781   1.149   0.780   5.239  1.1008  0.4456  0.8042
 3925TIP3    H211782   1.143   0.855   5.108 -0.0185 -1.1345 -0.0729
 3926TIP3   OH211783   1.515   3.291   0.625  0.4283 -0.3737 -0.3922
 3926TIP3    H111784   1.436   3.293   0.680 -1.0937  0.3381 -2.4994
 3926TIP3    H211785   1.587   3.278   0.688 -1.1734  0.5943  1.7767
 3927TIP3   OH211786   2.708   3.059   0.330 -0.4752 -0.2585  0.0222
 3927TIP3    H111787   2.765   3.048   0.407 -1.1316  0.1139  0.5752
 3927TIP3    H211788   2.626   3.017   0.356 -1.5408  1.9654  0.4849
 3928TIP3   OH211789   4.095   3.307   4.867  0.2253  0.2155  0.2910
 3928TIP3    H111790   4.128   3.381   4.816  1.5375 -0.3408  0.3131
 3928TIP3    H211791   4.117   3.329   4.958  0.3326 -0.0586  0.3310
 3929TIP3   OH211792   1.947   0.200   2.035  0.0013 -0.1229 -0.3151
 3929TIP3    H111793   1.982   0.220   1.948  1.9599 -0.3273  0.3864
 3929TIP3    H211794   1.860   0.165   2.017  0.5200 -0.5755 -2.2309
 3930TIP3   OH211795   3.600   4.245   1.929  0.0868 -0.1759 -0.2914
 3930TIP3    H111796   3.687   4.284   1.929 -0.1161  0.3023 -1.3433
 3930TIP3    H211797   3.540   4.320   1.936 -0.2408 -0.5847  2.1453
 3931TIP3   OH211798   2.180   2.407   2.171 -0.3761 -0.6404  0.2467
 3931TIP3    H111799   2.242   2.358   2.224 -0.5513  0.1874  1.2365
 3931TIP3    H211800   2.119   2.340   2.138  0.9801 -1.4470 -0.6961
 3932TIP3   OH211801   5.680   2.849   5.021 -0.6086 -0.2887 -0.6124
 3932TIP3    H111802   5.645   2.802   5.097  1.6046 -0.2870  0.4993
 3932TIP3    H211803   5.616   2.918   5.004 -0.5807  0.5525  2.1098
 3933TIP3   OH211804   3.163   5.287   1.656 -0.2272 -0.0457  0.2262
 3933TIP3    H111805   3.129   5.277   1.567  0.0975 -0.1240  0.1106
 3933TIP3    H211806   3.139   5.376   1.681  0.0296  0.1154 -0.0894
 3934TIP3   OH211807   0.555   2.112   4.678 -0.4926  0.0122  0.1306
 3934TIP3    H111808   0.587   2.032   4.721 -0.9176  1.0422  2.4896
 3934TIP3    H211809   0.629   2.142   4.625 -0.7577 -2.6233 -1.9739
 3935TIP3   OH211810   1.357   3.595   4.648 -0.0313 -0.4854 -0.2637
 3935TIP3    H111811   1.288   3.637   4.698  1.2928 -0.4086  1.6060
 3935TIP3    H211812   1.437   3.609   4.700  1.2687 -1.2164 -1.9487
 3936TIP3   OH211813   3.454   2.351   0.839  0.0472  0.3016  0.0618
 3936TIP3    H111814   3.541   2.347   0.799  0.1685  0.1384  0.3327
 3936TIP3    H211815   3.452   2.275   0.898 -0.8785 -0.6385 -1.1280
 3937TIP3   OH211816   5.372   5.852   2.304 -0.7552  0.3309  0.8499
 3937TIP3    H111817   5.440   5.788   2.325 -1.1278  0.0152  1.1072
 3937TIP3    H211818   5.290   5.804   2.313 -0.9442 -0.0937 -2.1839
 3938TIP3   OH211819   3.547   5.559   4.339  0.0501 -0.6362  0.2076
 3938TIP3    H111820   3.512   5.625   4.399 -0.9873  0.2012 -1.2557
 3938TIP3    H211821   3.642   5.562   4.354 -0.0057  0.9219  0.4533
 3939TIP3   OH211822   0.024   1.964   4.870 -0.4618  0.6216 -0.2758
 3939TIP3    H111823   0.118   1.948   4.884 -0.3955  0.7188 -0.6047
 3939TIP3    H211824   0.016   2.059   4.873 -0.4745  0.6375 -0.7048
 3940TIP3   OH211825   0.603   3.751   4.260  0.5326  0.3643  0.2960
 3940TIP3    H111826   0.687   3.708   4.276 -0.9712 -1.7140  3.6771
 3940TIP3    H211827   0.540   3.678   4.254 -1.0384  1.7978 -2.8883
 3941TIP3   OH211828   6.021   3.312   3.884  0.4203  0.6039  0.5165
 3941TIP3    H111829   6.088   3.340   3.946 -0.6315  0.5534  1.7194
 3941TIP3    H211830   5.942   3.359   3.911 -0.7415 -1.4903  0.9726
 3942TIP3   OH211831   1.030   1.367   4.054 -0.6264  0.0139  0.1304
 3942TIP3    H111832   1.030   1.357   3.959  1.6938  0.9672 -0.0636
 3942TIP3    H211833   0.941   1.347   4.081 -1.3598 -0.2519 -2.2445
 3943TIP3   OH211834   5.162   4.398   4.217 -0.3084  0.2448  0.3540
 3943TIP3    H111835   5.068   4.404   4.203 -0.2640  1.8511  0.5051
 3943TIP3    H211836   5.171   4.360   4.305 -0.8399  0.7460  0.6307
 3944TIP3   OH211837   6.204   1.741   1.234 -0.2073 -0.1219  0.0635
 3944TIP3    H111838   6.141   1.721   1.303 -2.3223  0.6154 -1.5402
 3944TIP3    H211839   6.191   1.834   1.216 -0.8026 -0.5943 -2.3093
 3945TIP3   OH211840   4.624   2.331   3.849  0.2670 -0.0556  0.1223
 3945TIP3    H111841   4.657   2.385   3.778 -1.5271  0.6946 -0.1861
 3945TIP3    H211842   4.702   2.306   3.898  1.4188  0.3602 -1.4366
 3946TIP3   OH211843   3.905   3.332   4.379  0.0526 -0.0185  0.4661
 3946TIP3    H111844   3.857   3.368   4.454 -0.0957 -0.6410  0.6777
 3946TIP3    H211845   3.852   3.258   4.351 -0.1837  0.5383 -0.6113
 3947TIP3   OH211846   0.851   5.712   4.867 -0.5423 -0.1221  0.0120
 3947TIP3    H111847   0.833   5.705   4.774 -1.4093 -0.1907  0.1742
 3947TIP3    H211848   0.931   5.661   4.880 -0.0099  0.4826 -0.8032
 3948TIP3   OH211849   3.969   5.917   4.508 -0.0281 -0.1790  0.2824
 3948TIP3    H111850   4.004   5.871   4.584  1.4778  0.8314  0.2468
 3948TIP3    H211851   3.874   5.908   4.515  0.1311 -0.9289  1.7412
 3949TIP3   OH211852   6.185   2.570   1.228 -0.1538  0.4761  0.1597
 3949TIP3    H111853   6.185   2.618   1.311  0.5102 -0.5327  0.7674
 3949TIP3    H211854   6.150   2.483   1.251 -1.1865  0.6019 -0.8799
 3950TIP3   OH211855   1.264   3.035   2.012  0.0498 -0.4575  0.2237
 3950TIP3    H111856   1.192   3.085   2.051 -1.1156 -1.3905 -0.6291
 3950TIP3    H211857   1.323   3.017   2.085 -1.1536 -0.6147  1.2012
 3951TIP3   OH211858   3.805   0.324   4.736  0.5422 -0.4273 -0.2780
 3951TIP3    H111859   3.736   0.326   4.669  1.3589  3.2965 -1.2131
 3951TIP3    H211860   3.876   0.275   4.694 -0.2046 -1.2207 -0.6753
 3952TIP3   OH211861   3.568   2.059   4.459 -0.7626 -0.3750 -0.8199
 3952TIP3    H111862   3.528   2.012   4.532  1.7992  1.8854  2.3649
 3952TIP3    H211863   3.639   2.003   4.429 -0.1983 -0.2646  0.2635
 3953TIP3   OH211864   3.741   1.346   1.098 -0.1848 -0.2844 -0.0072
 3953TIP3    H111865   3.705   1.290   1.029  1.3203 -1.8007  0.3900
 3953TIP3    H211866   3.711   1.305   1.180  0.3348 -0.0922  0.2796
 3954TIP3   OH211867   2.418   0.684   2.583  0.3203 -0.0732 -0.2889
 3954TIP3    H111868   2.375   0.690   2.498 -0.3002 -1.0794 -0.0713
 3954TIP3    H211869   2.493   0.743   2.576 -0.4565  0.8701 -1.0657
 3955TIP3   OH211870   5.162   5.675   2.280  0.5657  0.2320 -0.2951
 3955TIP3    H111871   5.193   5.600   2.229  0.5329  0.0466 -0.0402
 3955TIP3    H211872   5.069   5.656   2.296  0.6385  0.1742  0.0482
 3956TIP3   OH211873   4.179   3.688   3.023  0.5908 -0.2588  0.0040
 3956TIP3    H111874   4.245   3.747   3.059  1.6043 -1.9437  1.0387
 3956TIP3    H211875   4.226   3.638   2.956 -0.0034 -0.5462 -0.2027
 3957TIP3   OH211876   4.042   2.943   1.617  0.2278  0.3625 -0.5578
 3957TIP3    H111877   4.101   2.950   1.693 -0.0938  2.1466 -0.4308
 3957TIP3    H211878   3.955   2.960   1.652 -0.1975 -0.8603 -0.9893
 3958TIP3   OH211879   4.104   5.529   3.498 -0.7790 -0.3217 -0.0306
 3958TIP3    H111880   4.171   5.488   3.553  0.4415 -0.2705 -1.4322
 3958TIP3    H211881   4.134   5.619   3.488 -1.3083 -0.1750 -0.3106
 3959TIP3   OH211882   4.517   1.973   4.809 -0.1383 -0.2062 -0.5458
 3959TIP3    H111883   4.487   1.993   4.720 -0.1097 -1.2426 -0.7908
 3959TIP3    H211884   4.504   1.879   4.819  2.0379 -0.5199 -0.2693
 3960TIP3   OH211885   2.307   1.829   3.961  0.2992 -0.5930  0.4640
 3960TIP3    H111886   2.216   1.800   3.974  0.4520 -0.4171  2.0082
 3960TIP3    H211887   2.313   1.911   4.009  0.8641  0.2368 -0.9603
 3961TIP3   OH211888   0.880   5.359   3.261 -0.2281 -0.7135  0.1379
 3961TIP3    H111889   0.924   5.444   3.262  0.9423 -1.2858  1.4840
 3961TIP3    H211890   0.878   5.334   3.169  0.4588  0.2358 -0.1548
 3962TIP3   OH211891   0.225   1.528   4.444  0.0898  0.2691  0.1248
 3962TIP3    H111892   0.167   1.599   4.417 -0.3359 -0.0715  0.1367
 3962TIP3    H211893   0.300   1.534   4.385 -1.2246 -1.0358 -1.7835
 3963TIP3   OH211894   3.205   3.497   0.848 -0.3756 -0.2403 -0.1065
 3963TIP3    H111895   3.189   3.491   0.943  0.2562 -0.8190 -0.0336
 3963TIP3    H211896   3.124   3.536   0.813 -0.6567 -0.1131  0.6525
 3964TIP3   OH211897   3.925   5.789   5.063 -0.1751  0.3398  0.0007
 3964TIP3    H111898   3.977   5.827   5.134  0.0789  0.1318 -0.0745
 3964TIP3    H211899   3.837   5.822   5.079  0.1914  1.6718 -0.5377
 3965TIP3   OH211900   0.931   3.956   3.199  0.2412  0.0187  0.1310
 3965TIP3    H111901   0.860   3.893   3.212 -0.0721  0.0564 -1.2337
 3965TIP3    H211902   0.976   3.959   3.283 -0.4058 -1.2063  0.5456
 3966TIP3   OH211903   2.520   5.249   0.684  0.4638 -0.0130 -0.4875
 3966TIP3    H111904   2.445   5.300   0.712  1.7125  1.4720  0.3269
 3966TIP3    H211905   2.517   5.170   0.738 -0.0827  0.3806  0.0691
 3967TIP3   OH211906   3.063   1.592   4.165 -0.2670  0.3382  0.0755
 3967TIP3    H111907   2.967   1.597   4.161 -0.2525  1.4362  0.8080
 3967TIP3    H211908   3.093   1.665   4.110  0.1877 -0.7644 -1.2050
 3968TIP3   OH211909   1.039   3.732   0.192  0.4313 -0.5910  0.0613
 3968TIP3    H111910   1.028   3.687   0.276 -0.3455 -0.6175 -0.0432
 3968TIP3    H211911   0.949   3.744   0.160  0.6237  1.1297  0.1232
 3969TIP3   OH211912   4.473   5.722   4.782  0.2414  0.9599  0.1240
 3969TIP3    H111913   4.399   5.663   4.766  1.6699 -0.8286 -0.2443
 3969TIP3    H211914   4.517   5.729   4.697 -0.3568  3.2777 -0.0432
 3970TIP3   OH211915   2.218   5.936   1.539 -0.0860  0.1017 -0.3387
 3970TIP3    H111916   2.264   5.986   1.606 -1.9863 -0.8415  1.7963
 3970TIP3    H211917   2.214   5.995   1.464  0.4562  1.9613  1.0167
 3971TIP3   OH211918   2.409   4.596   3.853 -0.5498  0.2122  0.3751
 3971TIP3    H111919   2.482   4.651   3.882 -1.1500  1.1485  0.1610
 3971TIP3    H211920   2.384   4.546   3.930  2.2268 -2.4005 -0.2339
 3972TIP3   OH211921   1.412   4.480   4.168 -0.2362  0.1325 -0.0642
 3972TIP3    H111922   1.354   4.551   4.195  0.5191  1.2628 -1.3092
 3972TIP3    H211923   1.396   4.470   4.074 -0.1059 -1.1545  0.0292
 3973TIP3   OH211924   6.289   0.524   1.353  0.3918  0.3225  0.1804
 3973TIP3    H111925   6.304   0.472   1.432  0.6337  1.7076  1.0678
 3973TIP3    H211926   6.376   0.538   1.316  0.3298  0.1431 -0.0367
 3974TIP3   OH211927   3.469   3.797   2.080 -0.2176 -0.4857 -0.7645
 3974TIP3    H111928   3.487   3.782   2.172  0.1693  1.3945 -0.4901
 3974TIP3    H211929   3.544   3.760   2.034  0.7211  0.6094 -0.1451
 3975TIP3   OH211930   2.944   5.257   2.619  0.5048 -0.0445  0.2440
 3975TIP3    H111931   2.900   5.296   2.543 -1.2772  0.2396  1.3654
 3975TIP3    H211932   2.975   5.172   2.587  1.7362  0.9513 -1.3711
 3976TIP3   OH211933   3.433   2.911   4.241 -0.3941 -0.0463 -0.4754
 3976TIP3    H111934   3.526   2.892   4.226 -0.2027  0.1430  0.4104
 3976TIP3    H211935   3.417   2.882   4.331 -1.7526 -2.1146 -1.3107
 3977TIP3   OH211936   4.076   0.442   1.838  0.0769  0.1815  0.4760
 3977TIP3    H111937   4.012   0.510   1.859 -1.9883 -1.2161 -0.8088
 3977TIP3    H211938   4.089   0.450   1.743  2.0237  0.5558  0.7388
 3978TIP3   OH211939   5.010   4.603   3.182  0.5191 -0.2853 -0.1868
 3978TIP3    H111940   5.072   4.550   3.232 -0.0909  0.2401  1.1899
 3978TIP3    H211941   5.062   4.676   3.149  0.6751  0.0799  0.8373
 3979TIP3   OH211942   3.736   3.323   2.810  0.6356  0.3532  0.7613
 3979TIP3    H111943   3.793   3.370   2.871  0.4249 -0.6069  1.7348
 3979TIP3    H211944   3.648   3.330   2.849  0.0479  1.7473 -0.6750
 3980TIP3   OH211945   4.549   1.279   1.321 -0.1566 -0.0695 -0.2512
 3980TIP3    H111946   4.588   1.196   1.347 -0.4228 -0.7797 -2.0186
 3980TIP3    H211947   4.621   1.342   1.321 -0.0457 -0.1397  1.5842
 3981TIP3   OH211948   5.809   4.324   3.197  0.2818 -0.1968  0.5985
 3981TIP3    H111949   5.766   4.314   3.282  0.2384 -1.5128  0.4384
 3981TIP3    H211950   5.901   4.307   3.214  0.0581 -2.1278  0.1320
 3982TIP3   OH211951   5.464   1.748   3.335 -0.0413  0.5072  1.0604
 3982TIP3    H111952   5.522   1.679   3.303  1.1245  1.3909  1.1997
 3982TIP3    H211953   5.376   1.714   3.319  0.4722  0.1754 -1.5552
 3983TIP3   OH211954   1.299   2.654   0.872 -0.5286  0.2096  0.2393
 3983TIP3    H111955   1.335   2.583   0.925 -0.2881  1.2155  1.4638
 3983TIP3    H211956   1.365   2.670   0.805 -0.7993 -1.0209 -0.3485
 3984TIP3   OH211957   3.933   0.258   0.246  0.2443  0.4644 -0.1623
 3984TIP3    H111958   4.019   0.237   0.210  0.6312  0.5226  0.7042
 3984TIP3    H211959   3.878   0.272   0.169  0.8605 -0.1564 -0.7315
 3985TIP3   OH211960   0.987   2.234   1.189  0.0507 -0.1505  0.5123
 3985TIP3    H111961   1.066   2.179   1.183  0.0271 -0.0747 -0.7668
 3985TIP3    H211962   0.984   2.281   1.105 -0.7704  0.6619  0.9748
 3986TIP3   OH211963   3.721   4.093   2.642 -0.6244 -0.1337 -0.0756
 3986TIP3    H111964   3.724   3.998   2.657 -2.0971 -0.1800  0.1246
 3986TIP3    H211965   3.812   4.118   2.625 -0.3653 -1.8131 -1.5130
 3987TIP3   OH211966   2.386   5.535   1.774  0.7075 -0.1440 -0.0662
 3987TIP3    H111967   2.458   5.573   1.824 -0.7107  0.6699  1.4673
 3987TIP3    H211968   2.413   5.445   1.758  2.1774  0.2164  0.2291
 3988TIP3   OH211969   3.806   1.942   0.543 -0.3838 -0.7766  0.6043
 3988TIP3    H111970   3.887   1.891   0.551  0.3763  0.1170 -0.9663
 3988TIP3    H211971   3.751   1.890   0.483 -0.5651 -0.8771  0.8545
 3989TIP3   OH211972   5.745   1.794   4.378  0.0677  0.3556  0.3455
 3989TIP3    H111973   5.743   1.698   4.381 -1.2036  0.3750  2.0609
 3989TIP3    H211974   5.796   1.819   4.456  0.0196  1.0727  0.1568
 3990TIP3   OH211975   2.844   2.262   3.245 -0.1057  0.0813 -0.1831
 3990TIP3    H111976   2.755   2.229   3.231 -0.0741  0.3419 -1.0734
 3990TIP3    H211977   2.875   2.216   3.323 -1.2144  0.3804  0.4557
 3991TIP3   OH211978   2.998   1.656   1.284  0.1531  0.7306  0.2703
 3991TIP3    H111979   3.051   1.735   1.298 -0.8273  1.5917 -0.6582
 3991TIP3    H211980   2.937   1.681   1.215 -0.4751 -0.7166  0.2809
 3992TIP3   OH211981   6.098   3.191   4.333 -0.3564 -0.1849  0.3902
 3992TIP3    H111982   6.021   3.221   4.381  0.7658  1.9595  0.9852
 3992TIP3    H211983   6.156   3.153   4.399 -0.1973 -0.2511  0.2151
 3993TIP3   OH211984   5.623   2.679   3.966  0.0685  0.2491  0.1367
 3993TIP3    H111985   5.591   2.743   3.902 -0.5129  0.2278  0.4059
 3993TIP3    H211986   5.655   2.607   3.912  1.1967  0.9598 -0.1918
 3994TIP3   OH211987   3.977   1.603   4.326  0.4436  0.0401 -0.2332
 3994TIP3    H111988   3.967   1.660   4.250 -0.2354 -0.0032 -0.1842
 3994TIP3    H211989   4.071   1.593   4.336  0.6227  1.6847  0.1411
 3995TIP3   OH211990   4.131   4.323   0.201 -0.1464  0.2949  0.7571
 3995TIP3    H111991   4.227   4.319   0.192 -0.0700  0.3610  1.5400
 3995TIP3    H211992   4.104   4.384   0.132  0.3510  0.1204  0.3925
 3996TIP3   OH211993   6.037   3.736   2.995  0.3875  0.2185 -0.5432
 3996TIP3    H111994   5.981   3.697   2.928 -0.0287  1.6490 -1.0706
 3996TIP3    H211995   5.993   3.716   3.078  0.9962 -1.7146 -0.6346
 3997TIP3   OH211996   4.016   4.329   2.040  0.3250 -0.0511  0.2351
 3997TIP3    H111997   3.980   4.276   2.111 -0.3554  0.1999  0.0845
 3997TIP3    H211998   4.026   4.267   1.967 -0.9398  0.1152 -0.1002
 3998TIP3   OH211999   1.867   1.281   3.267  0.1858  0.1099 -0.1515
 3998TIP3    H112000   1.858   1.312   3.177 -3.3513  0.4851  0.1972
 3998TIP3    H212001   1.933   1.338   3.306  0.6845  0.9085 -2.0842
 3999TIP3   OH212002   1.481   4.853   3.467 -0.3484  0.5970 -0.4901
 3999TIP3    H112003   1.478   4.766   3.507  0.5827 -0.9063 -3.4285
 3999TIP3    H212004   1.511   4.910   3.538  1.5159 -1.8982  0.8991
 4000TIP3   OH212005   0.065   2.229   4.279  0.3606 -0.0138 -0.0451
 4000TIP3    H112006  -0.014   2.190   4.241 -0.2518  1.3485 -0.2319
 4000TIP3    H212007   0.066   2.196   4.369 -0.6310  0.2416  0.0717
 4001TIP3   OH212008   3.373   5.583   3.849 -0.2537 -0.2339 -0.3460
 4001TIP3    H112009   3.351   5.670   3.883 -1.0276 -0.9879  1.2003
 4001TIP3    H212010   3.425   5.600   3.771 -2.6883  1.6319 -1.7063
 4002TIP3   OH212011   0.163   5.505   0.556 -0.2877  0.3330  0.1381
 4002TIP3    H112012   0.132   5.595   0.546  0.9273  0.8832  1.0953
 4002TIP3    H212013   0.250   5.505   0.515 -0.1043 -0.2985  0.5168
 4003TIP3   OH212014   5.844   1.376   3.012 -0.2481 -0.1715  0.3137
 4003TIP3    H112015   5.896   1.324   2.951  0.2544 -0.7280  1.1969
 4003TIP3    H212016   5.766   1.323   3.028  0.5715 -1.0214  1.7384
 4004TIP3   OH212017   2.637   3.789   5.182 -0.0081  0.4446  0.0119
 4004TIP3    H112018   2.561   3.743   5.219 -0.0343  0.0525 -0.5277
 4004TIP3    H212019   2.672   3.729   5.117 -0.1115  1.2330 -0.7947
 4005TIP3   OH212020   2.696   2.083   4.095 -0.9075  0.6473 -0.0902
 4005TIP3    H112021   2.762   2.098   4.028 -0.2749  2.0721  0.8120
 4005TIP3    H212022   2.746   2.068   4.176 -1.6650 -0.5664  0.1929
 4006TIP3   OH212023   0.988   3.652   4.489  0.0119  0.3406 -0.0696
 4006TIP3    H112024   0.907   3.609   4.518 -0.2571  0.6104 -0.4109
 4006TIP3    H212025   1.037   3.667   4.570 -0.3364  0.2845  0.1559
 4007TIP3   OH212026   2.081   0.272   3.029  0.1557 -0.0845 -0.4596
 4007TIP3    H112027   1.989   0.267   3.056  0.0882  0.5919 -0.5586
 4007TIP3    H212028   2.119   0.190   3.060 -0.0487  0.4213  1.2089
 4008TIP3   OH212029   2.884   0.673   1.305 -0.2786 -0.5874 -0.2177
 4008TIP3    H112030   2.793   0.696   1.286 -0.6704 -1.9414 -0.0536
 4008TIP3    H212031   2.888   0.667   1.401  0.6181  1.8577 -0.0146
 4009TIP3   OH212032   3.244   3.373   2.242 -0.4042  0.4110 -0.1307
 4009TIP3    H112033   3.214   3.310   2.308 -1.5763  0.8467 -0.2220
 4009TIP3    H212034   3.190   3.451   2.258 -1.3869  0.2129 -2.1765
 4010TIP3   OH212035   1.355   5.935   3.916 -0.4005  0.1408  0.3287
 4010TIP3    H112036   1.311   6.012   3.880 -1.1997  0.3406  1.6384
 4010TIP3    H212037   1.411   5.970   3.985  1.3512 -0.1976 -0.8536
 4011TIP3   OH212038   5.095   2.302   3.349  0.3506  0.5486 -0.3022
 4011TIP3    H112039   5.189   2.308   3.337  0.4015  1.3605  0.4025
 4011TIP3    H212040   5.058   2.332   3.266  0.7150  0.3040 -0.5520
 4012TIP3   OH212041   6.168   2.501   1.981 -0.1097 -0.1419  0.3679
 4012TIP3    H112042   6.132   2.500   2.069  0.8520  0.4513  0.7828
 4012TIP3    H212043   6.166   2.409   1.953 -0.6458 -0.2992  0.9077
 4013TIP3   OH212044   5.685   0.031   2.062 -0.8286 -0.0611  0.3591
 4013TIP3    H112045   5.640  -0.045   2.025 -0.9204  0.2647 -0.2105
 4013TIP3    H212046   5.657   0.104   2.007  0.7848  0.0659 -0.3418
 4014TIP3   OH212047   3.562   2.966   2.872  0.0944  0.3932 -0.8767
 4014TIP3    H112048   3.579   3.046   2.921  0.4817 -0.5187  0.5232
 4014TIP3    H212049   3.577   2.895   2.935 -0.0192 -0.7945 -2.1423
 4015TIP3   OH212050   6.170   2.922   2.857  0.4101  0.0058 -0.2000
 4015TIP3    H112051   6.163   2.921   2.762  1.3357 -2.3258 -0.3075
 4015TIP3    H212052   6.238   2.988   2.875 -0.5441  1.2661 -1.0263
 4016TIP3   OH212053   1.522   3.299   1.764 -0.1166  0.2597  0.2840
 4016TIP3    H112054   1.589   3.327   1.701 -0.1710  2.3263  1.0706
 4016TIP3    H212055   1.572   3.265   1.838 -0.0447 -1.6249 -0.5801
 4017TIP3   OH212056   6.313   1.500   3.540  0.0679 -0.2818 -1.2163
 4017TIP3    H112057   6.331   1.566   3.473 -1.5941  0.8470 -0.6298
 4017TIP3    H212058   6.322   1.548   3.623  1.8341 -1.5831 -0.6099
 4018TIP3   OH212059   4.511   0.922   4.053 -0.6514 -0.0932 -0.5014
 4018TIP3    H112060   4.429   0.876   4.070 -0.2820 -0.9617 -0.9762
 4018TIP3    H212061   4.572   0.852   4.029  1.0918  0.0807  2.8432
 4019TIP3   OH212062   3.341   3.454   3.418  0.0431  0.0545 -0.3930
 4019TIP3    H112063   3.304   3.367   3.404  1.6181 -0.4629 -1.6570
 4019TIP3    H212064   3.364   3.485   3.330  0.7009  1.2133  0.1619
 4020TIP3   OH212065   1.447   4.346   2.601  0.0051 -0.3511  0.1031
 4020TIP3    H112066   1.359   4.361   2.636  0.6571  0.8213  1.3928
 4020TIP3    H212067   1.434   4.331   2.508 -1.5095  0.5679  0.1226
 4021TIP3   OH212068   2.690   5.486   0.701  0.4271  0.0671 -0.3378
 4021TIP3    H112069   2.725   5.450   0.782  0.1703 -0.4997 -0.4706
 4021TIP3    H212070   2.616   5.429   0.679  0.6288  0.0792 -1.0878
 4022TIP3   OH212071   5.204   0.880   3.072  0.0110  0.6405 -0.4205
 4022TIP3    H112072   5.174   0.923   2.992  0.4066 -0.0236 -0.9398
 4022TIP3    H212073   5.293   0.850   3.051 -0.0428  0.0905  0.1196
 4023TIP3   OH212074   2.044   0.517   3.652 -0.1816  0.1406  0.2431
 4023TIP3    H112075   1.955   0.482   3.651  0.0794 -0.6512  1.7982
 4023TIP3    H212076   2.085   0.475   3.728  1.8348 -0.2956 -1.0163
 4024TIP3   OH212077   1.949   5.812   3.626 -0.3406  0.4441  0.2210
 4024TIP3    H112078   1.887   5.879   3.596  0.0739  0.6924 -0.0839
 4024TIP3    H212079   1.956   5.826   3.720  0.2222  1.2390  0.0711
 4025TIP3   OH212080   1.302   0.733   2.639 -0.1325  0.1196 -0.5306
 4025TIP3    H112081   1.270   0.823   2.637 -0.8875 -0.1000  0.9088
 4025TIP3    H212082   1.346   0.725   2.723 -1.4913 -1.3154  0.0825
 4026TIP3   OH212083   1.182   2.312   3.238  0.4116 -0.0776  0.3018
 4026TIP3    H112084   1.250   2.349   3.293  0.2506  0.6016  0.0538
 4026TIP3    H212085   1.201   2.218   3.235  0.3579 -0.1397  1.5868
 4027TIP3   OH212086   3.313   5.016   3.903  0.6084 -0.2560  0.3890
 4027TIP3    H112087   3.389   5.053   3.947 -0.7037  2.0588  0.8979
 4027TIP3    H212088   3.240   5.071   3.932 -0.6522  0.2098 -3.1736
 4028TIP3   OH212089   4.677   1.534   0.067  0.0623 -0.0986  0.2049
 4028TIP3    H112090   4.705   1.447   0.041 -0.2484 -0.5182  1.2309
 4028TIP3    H212091   4.582   1.530   0.069  0.0139  0.4645 -0.3746
 4029TIP3   OH212092   3.282   3.166   3.349 -0.0199 -0.4262  0.1608
 4029TIP3    H112093   3.232   3.161   3.430 -1.5568  0.3199 -0.6888
 4029TIP3    H212094   3.267   3.082   3.306  0.8911 -0.8668  0.6898
 4030TIP3   OH212095   4.738   4.903   3.105  0.0584 -0.0399  0.4422
 4030TIP3    H112096   4.649   4.933   3.087  0.6057  1.4636  0.0815
 4030TIP3    H212097   4.782   4.980   3.141  0.7362 -1.2401  2.3484
 4031TIP3   OH212098   2.056   4.172   1.096 -0.0420  0.2623 -0.0589
 4031TIP3    H112099   2.089   4.262   1.100  1.7768 -0.3829  0.4223
 4031TIP3    H212100   2.021   4.156   1.184 -1.1721  0.7514 -0.3965
 4032TIP3   OH212101   6.231   2.460   3.030 -0.1988  0.0811  0.0348
 4032TIP3    H112102   6.164   2.407   3.075  0.4277 -0.7212  0.0483
 4032TIP3    H212103   6.314   2.426   3.064  0.2140  2.1040  1.1971
 4033TIP3   OH212104   5.121   4.003   1.829 -0.0552 -0.3430 -0.2294
 4033TIP3    H112105   5.160   4.039   1.749 -0.0250  0.1525  0.0029
 4033TIP3    H212106   5.044   4.059   1.845  0.6199  0.3360  0.7512
 4034TIP3   OH212107   2.401   5.942   0.639 -0.0247 -0.3238 -0.2396
 4034TIP3    H112108   2.467   5.916   0.574  2.2985  1.2407  1.3493
 4034TIP3    H212109   2.393   5.865   0.696 -0.3075 -0.8487 -0.9638
 4035TIP3   OH212110   0.690   3.976   2.016 -0.2798  0.3596 -1.0164
 4035TIP3    H112111   0.729   4.044   2.070 -0.6356 -0.0487 -0.2383
 4035TIP3    H212112   0.755   3.906   2.014  0.4472  1.0245 -2.4998
 4036TIP3   OH212113   6.169   4.302   0.645 -0.2981  0.2598 -0.1385
 4036TIP3    H112114   6.108   4.255   0.587  0.0361 -2.2188  1.3800
 4036TIP3    H212115   6.251   4.305   0.596 -0.2745 -0.9908 -0.2206
 4037TIP3   OH212116   3.827   0.418   3.347 -0.0897  0.1889  0.1177
 4037TIP3    H112117   3.843   0.485   3.280 -1.3972 -0.9572 -1.4407
 4037TIP3    H212118   3.905   0.363   3.345 -0.4466 -0.3060 -1.0906
 4038TIP3   OH212119   3.334   2.762   0.601  0.6134 -0.2817 -0.4863
 4038TIP3    H112120   3.262   2.760   0.537  0.3140 -0.8170 -0.1411
 4038TIP3    H212121   3.351   2.855   0.616  0.5789 -0.1519 -1.2235
 4039TIP3   OH212122   4.551   5.469   5.127  0.0867 -0.2472 -0.1023
 4039TIP3    H112123   4.562   5.527   5.202  1.3647 -0.4651 -0.0898
 4039TIP3    H212124   4.597   5.389   5.152  0.7314 -0.2399 -1.1896
 4040TIP3   OH212125   5.018   4.637   0.773  0.3850 -0.2377 -0.2089
 4040TIP3    H112126   4.976   4.561   0.733  1.1108 -0.5605 -0.3672
 4040TIP3    H212127   4.948   4.702   0.779 -0.2651 -0.9465  0.0246
 4041TIP3   OH212128   0.245   1.894   4.591  0.7288  0.3940 -0.3229
 4041TIP3    H112129   0.329   1.911   4.548  0.9149 -2.4193 -1.2598
 4041TIP3    H212130   0.194   1.847   4.525 -0.4191 -0.6725  1.2684
 4042TIP3   OH212131   5.725   1.976   3.413 -0.0873 -0.9388  0.2332
 4042TIP3    H112132   5.636   1.963   3.446 -0.0488 -1.2114  0.2270
 4042TIP3    H212133   5.768   1.892   3.425 -0.5279 -1.5082 -1.9218
 4043TIP3   OH212134   4.471   1.963   1.307  0.2905 -0.7649 -0.1190
 4043TIP3    H112135   4.451   2.057   1.316  0.0837 -0.7749 -0.4805
 4043TIP3    H212136   4.459   1.928   1.395  3.1740  0.0828  0.7270
 4044TIP3   OH212137   1.748   1.867   0.014 -0.1780  0.0666  0.0525
 4044TIP3    H112138   1.830   1.875  -0.034  0.8602 -0.0863  1.7360
 4044TIP3    H212139   1.755   1.931   0.085 -1.4292 -0.1206  0.3739
 4045TIP3   OH212140   1.491   2.985   0.416  0.5196 -0.1753  0.4303
 4045TIP3    H112141   1.568   3.002   0.470  0.7009 -1.5525  0.6465
 4045TIP3    H212142   1.475   3.067   0.370  3.9484 -0.6497 -1.9694
 4046TIP3   OH212143   0.112   3.114   3.102 -0.0108  0.1427  0.4784
 4046TIP3    H112144   0.101   3.019   3.105  1.6952 -0.1039  0.3072
 4046TIP3    H212145   0.121   3.140   3.193 -0.6217  0.1739  0.5348
 4047TIP3   OH212146   3.971   5.310   2.564  0.6042 -0.0883 -0.6238
 4047TIP3    H112147   3.915   5.235   2.584  0.7260 -0.1726 -0.6036
 4047TIP3    H212148   3.953   5.372   2.636  1.9723 -0.9023  0.4626
 4048TIP3   OH212149   1.145   0.304   1.625  0.1336  0.0353 -0.1565
 4048TIP3    H112150   1.166   0.211   1.634 -1.2272 -0.1753  1.5400
 4048TIP3    H212151   1.163   0.341   1.712  0.4708  1.3185 -0.7538
 4049TIP3   OH212152   5.567   3.703   0.234  0.1459  0.0612  0.4128
 4049TIP3    H112153   5.537   3.788   0.268  1.7525  0.8023  0.0536
 4049TIP3    H212154   5.662   3.711   0.230  0.3225 -1.7311  0.2475
 4050TIP3   OH212155   3.057   1.034   0.733 -0.0100 -0.1729  0.3970
 4050TIP3    H112156   3.024   0.952   0.696  1.7287 -0.9609  0.5055
 4050TIP3    H212157   3.051   1.021   0.828  1.6287 -0.8120  0.4483
 4051TIP3   OH212158   4.438   1.714   2.046 -0.0866 -0.5936  0.4287
 4051TIP3    H112159   4.460   1.622   2.055  0.7427 -0.3948  0.5345
 4051TIP3    H212160   4.362   1.716   1.988  0.4074 -1.2879 -0.2534
 4052TIP3   OH212161   3.333   3.859   2.501  0.2038 -0.2081  0.6129
 4052TIP3    H112162   3.268   3.928   2.499 -0.4002 -0.6978  2.0710
 4052TIP3    H212163   3.342   3.837   2.594  0.2514 -2.1780  0.1843
 4053TIP3   OH212164   0.750   0.359   0.898  0.5799 -0.4831 -0.1519
 4053TIP3    H112165   0.790   0.281   0.935 -0.0079 -0.6976  0.0462
 4053TIP3    H212166   0.823   0.419   0.883  0.8588 -0.4430  1.2126
 4054TIP3   OH212167   4.017   5.674   1.827 -0.0635  0.1625  0.6344
 4054TIP3    H112168   4.059   5.678   1.914  2.8709  1.7222 -0.6815
 4054TIP3    H212169   3.943   5.615   1.839 -0.1040  0.6808  4.3054
 4055TIP3   OH212170   0.656   2.444   3.685 -0.2279 -0.3559  0.0026
 4055TIP3    H112171   0.707   2.457   3.765  1.8519 -0.4182 -1.2199
 4055TIP3    H212172   0.596   2.518   3.683  0.7231  0.4815  0.8970
 4056TIP3   OH212173   0.590   1.323   4.530  0.0242 -0.1065  0.0414
 4056TIP3    H112174   0.600   1.416   4.551 -0.4358  0.1287 -0.7170
 4056TIP3    H212175   0.680   1.291   4.517  0.2879 -0.1395  1.7353
 4057TIP3   OH212176   0.848   5.383   4.538 -0.0348 -0.1967  0.3032
 4057TIP3    H112177   0.774   5.415   4.590  0.2386  1.9797 -0.5460
 4057TIP3    H212178   0.841   5.287   4.544 -2.6552 -0.0770  0.6056
 4058TIP3   OH212179   0.420   2.349   0.707 -0.6560  0.3443 -0.4993
 4058TIP3    H112180   0.381   2.432   0.735 -1.4328  0.0314 -0.6436
 4058TIP3    H212181   0.490   2.333   0.771 -0.4885  1.1151 -0.4806
 4059TIP3   OH212182   4.490   0.859   0.671 -0.2077  0.2278  0.0936
 4059TIP3    H112183   4.451   0.803   0.738  3.4415 -1.8436  0.7507
 4059TIP3    H212184   4.473   0.949   0.701 -1.5636 -0.5854  1.9296
 4060TIP3   OH212185   5.056   3.490   3.153 -0.0410 -0.2293 -0.2580
 4060TIP3    H112186   5.149   3.508   3.159 -0.1235  0.0766  0.1752
 4060TIP3    H212187   5.032   3.459   3.241 -0.2454 -0.7981 -0.5097
 4061TIP3   OH212188   3.299   5.355   4.692  0.1585  0.5397  0.1212
 4061TIP3    H112189   3.373   5.321   4.742  0.5938  1.1449 -0.0992
 4061TIP3    H212190   3.331   5.361   4.602 -0.2860  0.4366 -0.0482
 4062TIP3   OH212191   0.885   2.536   1.157 -0.3586 -0.3404 -0.0608
 4062TIP3    H112192   0.863   2.453   1.200  1.1075 -0.2256  0.9831
 4062TIP3    H212193   0.944   2.510   1.086 -1.1929 -0.3259 -0.7806
 4063TIP3   OH212194   1.514   0.194   4.653 -0.3259  0.9948  0.0050
 4063TIP3    H112195   1.526   0.135   4.578 -0.1162  1.3075 -0.2088
 4063TIP3    H212196   1.459   0.144   4.714 -1.4929  1.1774 -0.8526
 4064TIP3   OH212197   2.871   2.787   3.959  0.0446 -0.3010  0.3198
 4064TIP3    H112198   2.826   2.709   3.927 -2.1664  1.2299 -0.5476
 4064TIP3    H212199   2.941   2.803   3.895  0.3847 -1.3942  0.3920
 4065TIP3   OH212200   6.167   3.457   4.338  0.3770 -0.0510 -0.4848
 4065TIP3    H112201   6.182   3.363   4.334  1.2523 -0.0618  1.6905
 4065TIP3    H212202   6.212   3.491   4.261  2.0013 -1.2193 -0.1073
 4066TIP3   OH212203   1.176   1.246   1.955  0.1092 -0.0478  0.4331
 4066TIP3    H112204   1.138   1.265   2.041 -0.9627 -1.5163  0.3193
 4066TIP3    H212205   1.264   1.214   1.974  0.0790  0.1533  0.9299
 4067TIP3   OH212206   0.644   3.918   2.435  0.1815 -0.0452  0.2882
 4067TIP3    H112207   0.586   3.856   2.390 -0.7275  1.6556 -0.9875
 4067TIP3    H212208   0.731   3.900   2.400 -0.4873  1.1670 -2.1968
 4068TIP3   OH212209   2.469   0.204   1.164  0.1176  0.0008 -0.1947
 4068TIP3    H112210   2.416   0.266   1.115 -1.1292 -2.0621 -1.5941
 4068TIP3    H212211   2.518   0.155   1.098 -0.7865 -2.1361  0.6255
 4069TIP3   OH212212   2.699   1.796   3.029 -0.4411 -0.0825  0.3453
 4069TIP3    H112213   2.731   1.791   2.938  1.6954  2.5983  0.8255
 4069TIP3    H212214   2.636   1.724   3.035  0.8143 -1.6666 -2.6499
 4070TIP3   OH212215   4.650   0.471   3.790  0.6024  1.0523  0.4335
 4070TIP3    H112216   4.715   0.401   3.787  0.5572  1.0053  0.5480
 4070TIP3    H212217   4.610   0.464   3.877 -0.8939 -0.1095 -0.3063
 4071TIP3   OH212218   3.785   4.607   1.595 -0.5062 -0.0977  0.2290
 4071TIP3    H112219   3.725   4.658   1.649 -1.0811  0.6558 -1.0802
 4071TIP3    H212220   3.808   4.665   1.522  2.2892 -0.1212  0.9487
 4072TIP3   OH212221   0.947   3.712   4.915 -0.0907  0.4562 -0.2697
 4072TIP3    H112222   0.882   3.727   4.983  0.9099  2.1399  0.3661
 4072TIP3    H212223   0.898   3.712   4.833 -0.9487  1.1269  0.2373
 4073TIP3   OH212224   3.671   5.152   4.462 -0.0479  0.2993 -0.3406
 4073TIP3    H112225   3.703   5.110   4.382  0.2982 -0.9922  0.4501
 4073TIP3    H212226   3.674   5.083   4.528  1.6574  1.8513  1.3153
 4074TIP3   OH212227   5.468   4.486   3.227  0.1211  0.1640  0.2451
 4074TIP3    H112228   5.492   4.524   3.312  0.9119 -0.7920  0.4732
 4074TIP3    H212229   5.526   4.530   3.165 -1.2793  1.7469 -0.0171
 4075TIP3   OH212230   0.634   1.710   0.754 -0.3988 -0.1847 -0.3278
 4075TIP3    H112231   0.567   1.776   0.771 -0.9529 -1.2113  1.7869
 4075TIP3    H212232   0.715   1.760   0.745 -0.7470  0.8103  1.5378
 4076TIP3   OH212233   1.099   5.944   3.405  0.2808 -0.3432 -0.4594
 4076TIP3    H112234   1.009   5.954   3.375  0.3876  0.5760 -0.5037
 4076TIP3    H212235   1.102   5.857   3.444 -0.7872 -0.1444  0.0975
 4077TIP3   OH212236   3.752   3.951   4.238 -0.5913  0.1281  0.2024
 4077TIP3    H112237   3.743   3.863   4.275  2.4387 -0.4493 -0.2403
 4077TIP3    H212238   3.717   4.008   4.306  0.6895 -1.2101  2.0975
 4078TIP3   OH212239   0.653   2.571   3.225  0.2094  0.0445 -0.4593
 4078TIP3    H112240   0.642   2.642   3.288  0.4765  0.0133 -0.3747
 4078TIP3    H212241   0.579   2.513   3.241 -0.3882  0.6482 -0.9936
 4079TIP3   OH212242   1.507   3.901   3.374  0.7365 -0.4392 -0.1166
 4079TIP3    H112243   1.545   3.898   3.462  0.3502 -3.5379  0.0660
 4079TIP3    H212244   1.428   3.955   3.384  2.7107  2.5400  0.4486
 4080TIP3   OH212245   5.912   2.005   0.170  0.1678 -0.4297 -0.2405
 4080TIP3    H112246   5.893   2.097   0.150  0.9000 -0.5161 -1.4216
 4080TIP3    H212247   5.842   1.979   0.230 -1.8440  0.0318 -2.2672
 4081TIP3   OH212248   5.308   2.283   2.126  0.3742  0.2880 -0.3645
 4081TIP3    H112249   5.308   2.267   2.220 -2.3038  0.6445 -0.2198
 4081TIP3    H212250   5.400   2.299   2.104  1.1816 -0.7176  1.9971
 4082TIP3   OH212251   1.118   4.461   2.120  0.3488  0.1294  0.3397
 4082TIP3    H112252   1.032   4.498   2.100  1.5611  3.4180  0.7021
 4082TIP3    H212253   1.125   4.466   2.215 -0.2375 -3.2527  0.6883
 4083TIP3   OH212254   6.291   3.298   0.803 -0.1092  0.2810  0.2308
 4083TIP3    H112255   6.261   3.314   0.893  0.8231  1.2401  0.3943
 4083TIP3    H212256   6.257   3.373   0.753  1.6116  1.1799  0.3438
 4084TIP3   OH212257   4.718   5.009   0.115  0.3051 -0.2666  0.5899
 4084TIP3    H112258   4.767   4.952   0.175  1.1337  1.3161  1.4858
 4084TIP3    H212259   4.760   5.095   0.124  0.0117  0.1996 -1.7700
 4085TIP3   OH212260   3.144   0.871   0.472  0.1006  1.1241  0.2181
 4085TIP3    H112261   3.165   0.913   0.556  0.0680 -0.0970  0.8592
 4085TIP3    H212262   3.066   0.820   0.490  1.0407 -0.4742 -0.0930
 4086TIP3   OH212263   2.357   0.964   2.443 -0.0414  0.1896 -0.2964
 4086TIP3    H112264   2.395   1.042   2.403 -0.2666 -0.1957 -1.2997
 4086TIP3    H212265   2.300   0.998   2.512  2.2291  0.7740  1.3999
 4087TIP3   OH212266   3.785   5.005   0.914  0.2110 -0.0604  0.0269
 4087TIP3    H112267   3.801   4.924   0.866  0.7624  0.8471 -1.3780
 4087TIP3    H212268   3.850   5.005   0.984  1.2092 -0.1406 -0.8799
 4088TIP3   OH212269   0.113   5.040   4.759  0.3298  0.1992 -0.5139
 4088TIP3    H112270   0.043   5.019   4.697  0.2400 -1.4234  0.0868
 4088TIP3    H212271   0.127   4.958   4.807  1.1034  1.1310  0.8970
 4089TIP3   OH212272   5.128   4.282   1.379 -0.9245  0.1105 -0.3908
 4089TIP3    H112273   5.183   4.359   1.367  0.5267 -0.5052  1.7067
 4089TIP3    H212274   5.159   4.220   1.313 -0.4960  0.5126 -0.5712
 4090TIP3   OH212275   0.901   4.301   0.939  0.3229 -0.1576  0.3813
 4090TIP3    H112276   0.892   4.387   0.897 -0.9551  0.0140  0.9623
 4090TIP3    H212277   0.968   4.257   0.888  2.3002  1.8163  1.1112
 4091TIP3   OH212278   4.319   4.688   3.093 -0.0621 -0.2063 -0.3769
 4091TIP3    H112279   4.298   4.632   3.167  0.6603  0.4382  0.3311
 4091TIP3    H212280   4.276   4.646   3.018 -1.3715 -0.4956  0.5046
 4092TIP3   OH212281   4.934   0.348   1.966  0.0672  0.2617 -0.0659
 4092TIP3    H112282   4.851   0.383   1.998  0.3597  0.3948  0.5718
 4092TIP3    H212283   4.910   0.271   1.915 -0.3978 -0.2526  0.9048
 4093TIP3   OH212284   5.207   1.227   4.091  0.1988 -0.2778 -0.2212
 4093TIP3    H112285   5.130   1.262   4.136  0.0048  0.3132 -0.9887
 4093TIP3    H212286   5.247   1.303   4.048  0.8284 -0.6929 -0.3939
 4094TIP3   OH212287   4.223   5.315   2.541 -0.1101 -0.5311 -0.0544
 4094TIP3    H112288   4.214   5.238   2.485 -0.4914  0.6133 -1.6438
 4094TIP3    H212289   4.134   5.333   2.572 -0.0219 -0.7250  0.3149
 4095TIP3   OH212290   5.185   3.994   0.642 -0.4213  0.0239  0.0699
 4095TIP3    H112291   5.094   3.981   0.616 -0.3443 -1.3516  0.4174
 4095TIP3    H212292   5.209   4.079   0.606 -1.9689  0.5936  0.3418
 4096TIP3   OH212293   1.155   3.719   0.661 -0.1617  0.1312 -0.0504
 4096TIP3    H112294   1.106   3.678   0.590  0.2547  0.1961 -0.3746
 4096TIP3    H212295   1.235   3.667   0.669 -0.4921 -0.2676  0.7982
 4097TIP3   OH212296   1.830   5.495   2.952 -0.2237 -0.5317 -0.2952
 4097TIP3    H112297   1.837   5.559   3.022  2.1232  0.4054 -1.3016
 4097TIP3    H212298   1.890   5.526   2.884 -0.8005 -2.5402 -1.8329
 4098TIP3   OH212299   1.928   0.464   0.870  0.0163  0.0146 -0.8778
 4098TIP3    H112300   1.855   0.510   0.829  0.4484  2.3143  0.8001
 4098TIP3    H212301   2.005   0.493   0.822  0.0167 -1.6517 -1.9965
 4099TIP3   OH212302   0.662   2.109   1.748 -0.9560 -0.7091  0.3461
 4099TIP3    H112303   0.585   2.143   1.703 -0.4680  1.3633  0.9515
 4099TIP3    H212304   0.630   2.087   1.836 -1.3897 -2.4471 -0.2094
 4100TIP3   OH212305   1.275   5.103   0.474  0.0106  0.1134  0.0800
 4100TIP3    H112306   1.243   5.013   0.470  0.8986 -0.2127 -4.2290
 4100TIP3    H212307   1.198   5.154   0.499 -1.5158 -1.5291 -1.0196
 4101TIP3   OH212308   0.380   1.606   0.918  0.0652  0.1514 -0.9224
 4101TIP3    H112309   0.476   1.597   0.923  0.1473  1.5130  1.3730
 4101TIP3    H212310   0.366   1.700   0.910 -1.1206 -0.0592 -1.5004
 4102TIP3   OH212311   5.455   3.652   4.672 -0.3808 -0.7372 -0.3793
 4102TIP3    H112312   5.497   3.646   4.758 -1.2260 -1.6296 -0.0066
 4102TIP3    H212313   5.378   3.707   4.686 -1.5691 -2.3840 -0.0872
 4103TIP3   OH212314   1.901   1.269   2.450 -0.1690  0.4132 -0.0476
 4103TIP3    H112315   1.995   1.288   2.459 -0.0862 -0.6965  2.3834
 4103TIP3    H212316   1.866   1.342   2.400  2.0741  0.5914 -1.4904
 4104TIP3   OH212317   0.742   3.835   0.655 -0.1718 -0.2578  0.9100
 4104TIP3    H112318   0.704   3.904   0.709 -1.1097 -0.2166  0.2229
 4104TIP3    H212319   0.803   3.790   0.713  2.1275  2.4615  0.8258
 4105TIP3   OH212320   5.865   0.066   3.416  0.6990 -0.3133 -0.3219
 4105TIP3    H112321   5.955   0.075   3.447  0.8906  1.6424 -1.3386
 4105TIP3    H212322   5.819   0.023   3.488  2.3355 -0.9831  0.3715
 4106TIP3   OH212323   0.998   5.158   2.351 -0.2349  0.5881 -0.3641
 4106TIP3    H112324   1.042   5.156   2.266 -1.6193 -1.4203 -1.1083
 4106TIP3    H212325   1.045   5.095   2.405  0.1248  1.2496  0.1154
 4107TIP3   OH212326   3.782   0.091   2.723 -0.0337  0.3240  0.0108
 4107TIP3    H112327   3.801   0.031   2.651  0.6935 -0.2432  0.6614
 4107TIP3    H212328   3.868   0.114   2.759 -0.3637  0.9501  0.4161
 4108TIP3   OH212329   2.950   5.871   0.893 -0.9023  0.1475  0.0571
 4108TIP3    H112330   3.008   5.911   0.828 -1.3771  0.8706  0.0657
 4108TIP3    H212331   2.945   5.779   0.867 -1.2844  0.4698 -1.0788
 4109TIP3   OH212332   4.774   3.156   4.948 -0.6456  0.5077  0.0900
 4109TIP3    H112333   4.793   3.108   5.029  0.5487  1.6565  0.5279
 4109TIP3    H212334   4.783   3.091   4.879 -0.0129 -0.1214  0.7451
 4110TIP3   OH212335   4.118   2.437   1.952  0.7421 -0.1679 -0.6493
 4110TIP3    H112336   4.172   2.399   1.882  2.2250  1.3594 -0.4218
 4110TIP3    H212337   4.181   2.487   2.005 -0.7319  0.6530  0.3849
 4111TIP3   OH212338   1.733   4.421   1.028 -0.1833 -0.1865 -0.6182
 4111TIP3    H112339   1.767   4.391   0.944  1.1279  2.4328 -1.1285
 4111TIP3    H212340   1.768   4.358   1.091  3.0907  0.5126 -1.5149
 4112TIP3   OH212341   3.914   2.912   1.293 -0.5534  1.1382  0.3504
 4112TIP3    H112342   3.918   3.008   1.297 -0.3957  1.1349  0.2586
 4112TIP3    H212343   4.002   2.885   1.267 -0.8775  1.0221 -0.6627
 4113TIP3   OH212344   0.822   2.766   0.028  0.1746 -0.4770  0.4835
 4113TIP3    H112345   0.828   2.671   0.026  1.0869 -0.4313  0.8640
 4113TIP3    H212346   0.753   2.787  -0.035  0.1934 -1.3698  0.1598
 4114TIP3   OH212347   6.234   3.590   3.598 -0.7172  0.2491 -0.2892
 4114TIP3    H112348   6.285   3.516   3.566 -0.3233  1.0360 -1.5666
 4114TIP3    H212349   6.233   3.580   3.693 -0.7160 -1.4067 -0.4494
 4115TIP3   OH212350   2.760   1.361   2.988  0.0806  0.0596 -0.7159
 4115TIP3    H112351   2.827   1.410   3.036 -0.8305  0.0157  0.6719
 4115TIP3    H212352   2.808   1.315   2.920  1.2089  1.4208 -0.8849
 4116TIP3   OH212353   4.463   1.446   2.074 -0.2769 -0.3459 -0.2306
 4116TIP3    H112354   4.385   1.391   2.072  1.4463 -2.9709 -2.5183
 4116TIP3    H212355   4.533   1.390   2.042  2.2694  2.3814  0.1119
 4117TIP3   OH212356   5.799   3.111   2.067  0.3891 -0.9355  0.0299
 4117TIP3    H112357   5.704   3.106   2.075  0.4315 -1.8752 -0.0159
 4117TIP3    H212358   5.828   3.020   2.062  0.9997 -0.6951 -3.4606
 4118TIP3   OH212359   0.671   5.860   3.526 -0.2956 -0.4457  0.3170
 4118TIP3    H112360   0.758   5.892   3.502 -0.2359 -0.7417  0.1260
 4118TIP3    H212361   0.676   5.765   3.512 -1.1251 -0.2994 -1.2246
 4119TIP3   OH212362   4.732   4.358   2.503 -0.7932  0.1228  0.5013
 4119TIP3    H112363   4.650   4.371   2.551 -0.3146 -0.2877  1.4473
 4119TIP3    H212364   4.783   4.299   2.558 -0.1159 -0.1452 -0.3939
 4120TIP3   OH212365   2.975   0.421   4.483  0.1114 -0.2956  0.4206
 4120TIP3    H112366   3.000   0.351   4.544 -0.4634  0.3885  1.4803
 4120TIP3    H212367   2.909   0.381   4.427  2.0184 -1.5214 -1.0965
 4121TIP3   OH212368   2.961   0.673   2.001  0.3478 -0.0025 -0.0090
 4121TIP3    H112369   2.867   0.680   2.018  0.0693  0.2211 -1.5127
 4121TIP3    H212370   2.997   0.757   2.031  0.2006 -0.3718  1.2550
 4122TIP3   OH212371   0.150   0.553   1.647 -0.0406 -0.6042 -0.1505
 4122TIP3    H112372   0.099   0.556   1.728  1.8886 -1.3748  1.1618
 4122TIP3    H212373   0.120   0.474   1.602 -1.6695  0.2394 -0.6165
 4123TIP3   OH212374   0.190   1.085   3.284  0.6918  0.8092  0.3480
 4123TIP3    H112375   0.162   1.026   3.355 -0.5633  0.0054 -0.7475
 4123TIP3    H212376   0.176   1.173   3.319 -0.9314  0.4287  0.7721
 4124TIP3   OH212377   0.594   4.548   1.223 -0.1216 -0.2170  0.7238
 4124TIP3    H112378   0.679   4.536   1.265  1.5192  2.4102 -1.4916
 4124TIP3    H212379   0.615   4.568   1.131 -3.1081  0.5857  0.1008
 4125TIP3   OH212380   5.856   3.043   1.037  1.0874  0.3310  0.3344
 4125TIP3    H112381   5.764   3.069   1.044  0.3355 -1.7782 -0.6656
 4125TIP3    H212382   5.887   3.088   0.958 -0.0661 -1.2537 -1.1294
 4126TIP3   OH212383   0.757   0.314   3.332  0.0369 -0.4884  0.6232
 4126TIP3    H112384   0.750   0.409   3.326 -0.0077 -0.5038  0.4019
 4126TIP3    H212385   0.773   0.286   3.241 -0.8528 -0.7647  0.5502
 4127TIP3   OH212386   1.586   4.863   4.800  0.1186  0.3264 -0.3337
 4127TIP3    H112387   1.596   4.949   4.841  0.2040  0.5370 -0.7876
 4127TIP3    H212388   1.604   4.879   4.707 -0.8089  0.0009 -0.5736
 4128TIP3   OH212389   5.166   0.627   3.605 -0.1029 -0.0724  0.5150
 4128TIP3    H112390   5.172   0.575   3.526  1.2828 -1.3307  1.3950
 4128TIP3    H212391   5.076   0.659   3.606 -0.3213 -0.5280 -1.2282
 4129TIP3   OH212392   5.567   2.684   0.116 -0.0842  0.2291  0.2346
 4129TIP3    H112393   5.557   2.752   0.050 -1.2647  0.1374  0.2831
 4129TIP3    H212394   5.545   2.727   0.199  0.0527  0.0113  0.3859
 4130TIP3   OH212395   1.075   4.057   2.760 -0.1174  0.1322  0.3601
 4130TIP3    H112396   1.006   4.099   2.811 -1.3721 -2.4838  0.9837
 4130TIP3    H212397   1.122   4.003   2.823 -0.2554 -1.4312 -0.8395
 4131TIP3   OH212398   1.118   3.774   4.705  0.0573 -0.0811 -0.1820
 4131TIP3    H112399   1.087   3.734   4.786  2.3208  0.2047  0.8995
 4131TIP3    H212400   1.128   3.867   4.726  1.0140 -0.0671 -0.6671
 4132TIP3   OH212401   0.206   1.133   2.889  0.0815 -0.1836 -0.0689
 4132TIP3    H112402   0.191   1.048   2.847 -1.2795  0.3528 -0.7458
 4132TIP3    H212403   0.299   1.133   2.910  0.1386 -1.7940 -0.1543
 4133TIP3   OH212404   0.751   1.580   2.518  0.3387  0.0613  0.8310
 4133TIP3    H112405   0.801   1.629   2.584 -0.5186  0.1514  1.4326
 4133TIP3    H212406   0.712   1.507   2.568 -0.5457  0.2871  0.4857
 4134TIP3   OH212407   2.343   5.008   1.614 -0.3353 -0.5913 -0.0051
 4134TIP3    H112408   2.390   4.967   1.686  1.9508  2.3576  0.3868
 4134TIP3    H212409   2.401   4.998   1.538  0.0220  1.2631 -0.0221
 4135TIP3   OH212410   5.445   4.278   1.171 -0.6181  0.7368  0.0549
 4135TIP3    H112411   5.414   4.368   1.162  0.1716  1.1709  1.3168
 4135TIP3    H212412   5.523   4.274   1.116 -1.3111  0.4662 -0.9234
 4136TIP3   OH212413   2.886   1.093   3.088 -0.3547  0.5306 -0.4450
 4136TIP3    H112414   2.953   1.124   3.027 -0.8351 -0.6945 -1.6483
 4136TIP3    H212415   2.822   1.048   3.033 -0.7050 -0.8285  0.9731
 4137TIP3   OH212416   2.813   5.048   0.843 -0.3759 -1.0666  0.0544
 4137TIP3    H112417   2.888   5.052   0.903 -0.4494 -1.6595  0.1930
 4137TIP3    H212418   2.845   4.997   0.769  0.6104  1.9164 -1.7419
 4138TIP3   OH212419   3.332   4.447   5.021  0.2909  0.0169  0.2585
 4138TIP3    H112420   3.421   4.464   5.052  0.4069 -0.4923  0.2188
 4138TIP3    H212421   3.282   4.430   5.100 -0.5347  3.3939  0.6302
 4139TIP3   OH212422   1.741   5.693   1.855 -0.0656  0.6519 -0.4978
 4139TIP3    H112423   1.655   5.734   1.845 -0.3150  0.4687  0.7672
 4139TIP3    H212424   1.740   5.656   1.943  1.5638  1.2545 -0.1942
 4140TIP3   OH212425   0.614   5.416   4.697  0.1846 -0.1626 -0.2501
 4140TIP3    H112426   0.541   5.357   4.712  0.5545 -0.2992  1.1953
 4140TIP3    H212427   0.656   5.424   4.783  1.9189 -0.1674 -1.0551
 4141TIP3   OH212428   4.041   4.091   4.395 -0.3893  0.9788 -0.6422
 4141TIP3    H112429   4.060   4.107   4.302 -1.0658  3.3373 -0.4398
 4141TIP3    H212430   4.104   4.024   4.421  0.1366  0.6108 -2.6792
 4142TIP3   OH212431   0.527   3.763   4.557 -0.0723 -0.3286 -0.1585
 4142TIP3    H112432   0.533   3.679   4.512  1.5350 -0.1813 -0.2725
 4142TIP3    H212433   0.500   3.825   4.490 -0.1168 -0.5471 -0.3418
 4143TIP3   OH212434   5.946   5.289   1.613  0.6754  0.3638  0.7999
 4143TIP3    H112435   5.892   5.234   1.670  0.6091  0.4527  0.8235
 4143TIP3    H212436   5.988   5.227   1.554 -1.6607  0.4618 -1.1374
 4144TIP3   OH212437   4.613   0.764   1.150 -0.0065  0.0491  0.1618
 4144TIP3    H112438   4.675   0.781   1.079  0.8347  2.0645  1.2955
 4144TIP3    H212439   4.577   0.677   1.130  1.2159 -0.0441 -1.9497
 4145TIP3   OH212440   4.082   3.803   1.673  0.2073 -0.2047 -0.1020
 4145TIP3    H112441   4.145   3.841   1.611 -0.0282 -1.1528 -0.9522
 4145TIP3    H212442   3.999   3.846   1.651  0.4707  0.8229  0.8184
 4146TIP3   OH212443   4.050   0.193   5.110 -0.0870  0.2373  0.4402
 4146TIP3    H112444   4.090   0.241   5.183  0.9247 -0.6399  0.4911
 4146TIP3    H212445   4.040   0.258   5.041  0.8725  0.6191  0.6498
 4147TIP3   OH212446   1.054   5.391   0.028  0.5940  0.1741 -0.3376
 4147TIP3    H112447   0.963   5.420   0.034  0.3950 -0.5096  0.0432
 4147TIP3    H212448   1.084   5.422  -0.058 -0.1363  0.0206 -0.6537
 4148TIP3   OH212449   0.279   1.706   2.819 -0.3175 -0.1158  0.0807
 4148TIP3    H112450   0.363   1.664   2.839  0.7787  1.8255 -0.2358
 4148TIP3    H212451   0.214   1.651   2.864  1.3279 -0.3241  2.3867
 4149TIP3   OH212452   0.214   5.534   1.553  0.0476  0.1592 -0.0897
 4149TIP3    H112453   0.141   5.594   1.565  0.0412  0.4380 -1.4054
 4149TIP3    H212454   0.261   5.568   1.477  0.1186 -1.4127 -0.7777
 4150TIP3   OH212455   4.578   2.532   2.921 -0.2546  0.1774 -0.0281
 4150TIP3    H112456   4.564   2.625   2.935  1.0084  0.9693 -3.1500
 4150TIP3    H212457   4.499   2.503   2.875 -0.4843 -0.2297  0.6101
 4151TIP3   OH212458   4.959   4.357   5.134 -0.1846  0.0143  0.1058
 4151TIP3    H112459   5.019   4.288   5.161 -0.1541  0.1363  0.3545
 4151TIP3    H212460   4.877   4.338   5.180 -0.3732 -0.2134 -0.3155
 4152TIP3   OH212461   0.148   3.956   1.450 -0.3836 -0.0228  0.2673
 4152TIP3    H112462   0.191   3.875   1.478  1.4782  1.0279  0.5491
 4152TIP3    H212463   0.084   3.975   1.519 -0.5306 -1.0007  0.4136
 4153TIP3   OH212464   5.392   4.213   2.709 -0.1701 -0.0406 -0.3162
 4153TIP3    H112465   5.432   4.296   2.734 -0.1851  0.3020 -1.3834
 4153TIP3    H212466   5.298   4.230   2.708 -0.1299  0.2476 -1.5323
 4154TIP3   OH212467   6.076   3.386   2.264 -0.3537 -0.2228  0.4122
 4154TIP3    H112468   6.019   3.439   2.319 -0.9030 -0.3469 -0.0326
 4154TIP3    H212469   6.031   3.302   2.255  0.3850 -0.6827  0.8930
 4155TIP3   OH212470   5.647   1.876   1.525  0.5885  0.5862  0.1937
 4155TIP3    H112471   5.712   1.874   1.455  0.3748  0.4359 -0.0039
 4155TIP3    H212472   5.634   1.784   1.548  0.8777  0.6545  0.6392
 4156TIP3   OH212473   1.644   2.357   4.075  0.1036  0.3073 -0.7152
 4156TIP3    H112474   1.687   2.317   4.151  1.1908  1.5014 -0.6660
 4156TIP3    H212475   1.553   2.369   4.103  0.4465  0.5596  0.3433
 4157TIP3   OH212476   4.974   5.036   1.609 -0.2432  0.0866 -0.2767
 4157TIP3    H112477   4.959   4.950   1.649 -0.3323  0.4055  0.3703
 4157TIP3    H212478   4.902   5.045   1.546 -0.1034 -0.4096 -0.5186
 4158TIP3   OH212479   1.353   0.400   5.104 -0.5547  0.0724 -0.7869
 4158TIP3    H112480   1.365   0.495   5.112 -0.4503  0.1350 -1.5651
 4158TIP3    H212481   1.331   0.387   5.011  1.1927 -0.8482 -1.1156
 4159TIP3   OH212482   2.283   5.258   1.911 -0.6866 -0.1183 -0.3778
 4159TIP3    H112483   2.213   5.299   1.860 -0.1739  2.5625  0.8800
 4159TIP3    H212484   2.361   5.267   1.856 -0.3715  1.6803  0.2957
 4160TIP3   OH212485   4.357   2.360   4.623  0.0508 -0.6091 -0.1221
 4160TIP3    H112486   4.413   2.437   4.631 -0.0588 -0.5071 -0.3141
 4160TIP3    H212487   4.291   2.371   4.692  1.3841 -1.7050  1.4043
 4161TIP3   OH212488   3.391   1.678   4.612  0.5174  0.2061 -0.0056
 4161TIP3    H112489   3.327   1.638   4.553  1.5329  0.3517 -1.2683
 4161TIP3    H212490   3.394   1.620   4.688 -1.9671  0.8381  0.6519
 4162TIP3   OH212491   1.690   4.684   0.741  0.1665 -0.1443 -0.2396
 4162TIP3    H112492   1.656   4.768   0.773  1.8294  0.5394 -0.1341
 4162TIP3    H212493   1.627   4.619   0.770 -0.9172  1.0238  0.1019
 4163TIP3   OH212494   2.061   1.681   3.966 -0.0972 -0.4660  0.0299
 4163TIP3    H112495   2.068   1.613   4.033  0.7294  0.9019  1.3878
 4163TIP3    H212496   2.022   1.636   3.891 -1.5325 -1.9354  1.5737
 4164TIP3   OH212497   5.023   4.251   3.516  0.7506  0.2774 -0.8863
 4164TIP3    H112498   5.016   4.311   3.442  0.8360  0.0597 -1.0742
 4164TIP3    H212499   5.117   4.237   3.527  0.7168 -0.2874 -1.2319
 4165TIP3   OH212500   4.742   2.573   1.812 -0.8889 -0.0330  0.3509
 4165TIP3    H112501   4.733   2.617   1.896 -2.0959  1.1435 -0.3681
 4165TIP3    H212502   4.833   2.589   1.786 -0.5091 -0.3997  1.4026
 4166TIP3   OH212503   6.041   2.844   4.495 -0.2098  0.3317 -0.5771
 4166TIP3    H112504   6.001   2.916   4.446  0.4125  1.4719  0.5270
 4166TIP3    H212505   6.130   2.839   4.461 -0.4367 -0.3430 -1.0840
 4167TIP3   OH212506   3.748   5.891   0.181  0.0439 -0.2054 -0.0592
 4167TIP3    H112507   3.733   5.856   0.094 -0.0565 -1.2080  0.3435
 4167TIP3    H212508   3.801   5.823   0.225 -1.6811 -0.7121  1.3381
 4168TIP3   OH212509   3.224   2.974   4.069  0.0289  0.0384  0.1158
 4168TIP3    H112510   3.300   2.960   4.125 -0.2705  0.5737  0.6659
 4168TIP3    H212511   3.172   2.894   4.080  0.2405 -0.0911  0.1756
 4169TIP3   OH212512   5.658   5.110   0.143  0.5119 -0.4948  0.5455
 4169TIP3    H112513   5.743   5.119   0.186  0.2440 -0.9280  1.1844
 4169TIP3    H212514   5.649   5.016   0.126  0.9493 -0.2627 -1.1828
 4170TIP3   OH212515   3.453   4.024   3.376 -0.5592  0.1046  0.0046
 4170TIP3    H112516   3.408   4.071   3.446 -0.3984  0.4096 -0.0939
 4170TIP3    H212517   3.538   4.067   3.369  0.0036 -0.8704  0.6272
 4171TIP3   OH212518   1.681   4.035   0.881  0.2386  0.6061  0.0125
 4171TIP3    H112519   1.602   4.032   0.827 -0.7609  0.6860  1.4129
 4171TIP3    H212520   1.721   4.119   0.861  0.0843  0.4719 -0.8692
 4172TIP3   OH212521   1.827   4.995   1.721  0.0040 -0.3515 -0.7377
 4172TIP3    H112522   1.893   5.063   1.738  0.4200 -1.1517  1.0123
 4172TIP3    H212523   1.743   5.037   1.739  0.2691 -0.3169  0.4704
 4173TIP3   OH212524   4.673   5.039   3.561 -0.7114  0.4307 -0.3152
 4173TIP3    H112525   4.733   4.979   3.517 -1.3379 -0.4988  0.0652
 4173TIP3    H212526   4.624   5.081   3.489 -0.7466 -0.0213 -0.5562
 4174TIP3   OH212527   1.797   1.618   0.151  0.4403 -0.0286  0.4496
 4174TIP3    H112528   1.799   1.707   0.116 -0.2812  0.7744  2.3148
 4174TIP3    H212529   1.721   1.577   0.110  0.4398  0.4001  0.0189
 4175TIP3   OH212530   5.290   3.542   0.232  0.0714 -0.2414  0.3029
 4175TIP3    H112531   5.365   3.581   0.187 -0.0973 -0.3381 -0.0630
 4175TIP3    H212532   5.239   3.617   0.261 -0.1820 -0.1817 -0.2816
 4176TIP3   OH212533   2.774   3.011   4.080  0.9560 -0.5473 -0.1772
 4176TIP3    H112534   2.704   3.010   4.014  0.3848 -1.6857  0.4030
 4176TIP3    H212535   2.831   2.938   4.055  0.6778 -1.0535  0.6233
 4177TIP3   OH212536   1.959   0.174   1.757 -0.2742 -0.0875  0.3859
 4177TIP3    H112537   1.875   0.206   1.723  0.1947  1.9532  0.9996
 4177TIP3    H212538   2.016   0.171   1.680 -0.2460  0.9171  0.3533
 4178TIP3   OH212539   4.192   3.440   1.270 -0.8125  0.0108 -0.3852
 4178TIP3    H112540   4.209   3.480   1.355 -0.5228  1.0225 -0.9001
 4178TIP3    H212541   4.254   3.482   1.210 -3.2804  1.9304 -1.8113
 4179TIP3   OH212542   1.354   4.828   5.016  0.0157  0.2023 -0.5247
 4179TIP3    H112543   1.409   4.866   5.085 -0.6763 -0.6037  0.5082
 4179TIP3    H212544   1.285   4.893   5.002 -0.7762 -0.3366  0.7441
 4180TIP3   OH212545   4.388   5.060   0.022 -0.3307 -0.0822 -0.2435
 4180TIP3    H112546   4.418   4.975   0.055  0.1696  0.5190  0.8837
 4180TIP3    H212547   4.300   5.069   0.057  0.3934  0.7966  1.4749
 4181TIP3   OH212548   5.694   3.608   3.680 -0.3544 -0.6312  0.4319
 4181TIP3    H112549   5.629   3.616   3.610  0.5045  1.6534 -0.2055
 4181TIP3    H212550   5.642   3.602   3.760 -1.4119  1.2070 -0.0523
 4182TIP3   OH212551   5.785   2.052   2.283  0.1122 -0.1646 -0.1166
 4182TIP3    H112552   5.757   2.141   2.305  0.2197 -0.2644  0.4410
 4182TIP3    H212553   5.704   2.005   2.264  0.1602  0.8743 -3.7977
 4183TIP3   OH212554   4.554   0.921   2.170  0.2073  0.4409  0.2121
 4183TIP3    H112555   4.470   0.928   2.125  0.8435  1.1853 -0.9059
 4183TIP3    H212556   4.567   1.007   2.210  1.7977  1.4042 -2.1782
 4184TIP3   OH212557   3.885   5.428   2.331  0.2374  0.0258  0.3328
 4184TIP3    H112558   3.890   5.382   2.415  0.7843  0.4437  0.5371
 4184TIP3    H212559   3.903   5.361   2.266 -0.2452 -0.3147  0.5439
 4185TIP3   OH212560   3.822   1.800   3.557 -0.6896 -0.1364 -0.4755
 4185TIP3    H112561   3.765   1.734   3.596 -0.1440  0.3501  1.2458
 4185TIP3    H212562   3.888   1.817   3.624  0.7278  0.2704 -1.9008
 4186TIP3   OH212563   0.293   4.090   0.826  0.4520 -0.1327  0.4186
 4186TIP3    H112564   0.307   4.169   0.879  0.5952 -0.7938  1.3859
 4186TIP3    H212565   0.329   4.113   0.740 -0.0328  1.0566  0.5134
 4187TIP3   OH212566   1.045   1.846   4.243 -0.3208 -0.4703  0.4948
 4187TIP3    H112567   1.114   1.793   4.285 -0.2638  0.7063  1.9708
 4187TIP3    H212568   0.972   1.785   4.231 -0.0187 -1.0675  1.5388
 4188TIP3   OH212569   3.513   3.199   3.932  0.3410 -0.2217 -0.4923
 4188TIP3    H112570   3.604   3.214   3.907  0.7120 -0.6120  0.6095
 4188TIP3    H212571   3.496   3.263   4.001 -0.4900  0.4297 -1.2761
 4189TIP3   OH212572   5.212   3.465   4.650 -0.3789  0.6632  0.0260
 4189TIP3    H112573   5.169   3.387   4.686  0.9256 -0.3350 -0.4975
 4189TIP3    H212574   5.306   3.449   4.664 -0.0286  1.6779 -1.0260
 4190TIP3   OH212575   2.254   4.242   3.765  0.1828  0.7030  0.3821
 4190TIP3    H112576   2.160   4.255   3.779  0.3477  1.9671  0.5056
 4190TIP3    H212577   2.295   4.279   3.844  0.8123  0.9072 -0.0314
 4191TIP3   OH212578   4.781   2.490   2.732  0.2367  0.8528 -0.2834
 4191TIP3    H112579   4.730   2.517   2.808 -1.2549  0.1804 -1.0049
 4191TIP3    H212580   4.842   2.563   2.716 -0.1640  1.4643  0.8823
 4192TIP3   OH212581   1.260   4.365   3.595 -0.0668  0.1801  0.1697
 4192TIP3    H112582   1.185   4.382   3.652 -1.6250  0.6658 -1.9437
 4192TIP3    H212583   1.246   4.421   3.519  2.0734 -0.2763 -0.6192
 4193TIP3   OH212584   4.581   4.457   5.040  0.4812 -0.8292 -0.3831
 4193TIP3    H112585   4.561   4.402   4.965 -0.1768 -1.6186  0.3430
 4193TIP3    H212586   4.606   4.395   5.109 -1.6986 -0.4000  0.8939
 4194TIP3   OH212587   2.353   1.852   4.925 -0.0922  0.4389 -0.3180
 4194TIP3    H112588   2.265   1.851   4.963  0.4454  0.6604  0.9604
 4194TIP3    H212589   2.340   1.887   4.837 -1.3909 -0.2834 -0.4453
 4195TIP3   OH212590   5.768   4.803   4.501 -0.3961  0.1466  0.3347
 4195TIP3    H112591   5.833   4.749   4.546 -0.0540 -1.7738 -2.2328
 4195TIP3    H212592   5.819   4.873   4.460 -0.0327 -0.6651 -0.6661
 4196TIP3   OH212593   2.156   4.701   0.480 -0.0317 -0.4556 -0.1879
 4196TIP3    H112594   2.216   4.733   0.548  0.5477 -1.5418 -0.1619
 4196TIP3    H212595   2.082   4.761   0.484 -1.3530 -2.0385  3.3561
 4197TIP3   OH212596   3.165   1.491   2.842  0.0730 -0.2949  0.7275
 4197TIP3    H112597   3.237   1.487   2.779 -0.7018 -0.3351 -0.1838
 4197TIP3    H212598   3.189   1.429   2.910 -0.3007 -2.3020 -0.8773
 4198TIP3   OH212599   3.606   4.289   2.254  0.0517  0.8291  0.4925
 4198TIP3    H112600   3.622   4.203   2.293 -0.3492  0.6650  0.2982
 4198TIP3    H212601   3.552   4.271   2.177 -2.4958  1.4625  1.9823
 4199TIP3   OH212602   5.727   4.715   0.488  0.2912 -0.1763  0.2066
 4199TIP3    H112603   5.804   4.731   0.433  0.6846 -0.1413  0.7569
 4199TIP3    H212604   5.673   4.792   0.477  0.5402 -0.0098  0.1421
 4200TIP3   OH212605   1.298   3.500   4.125 -0.4993  0.1012 -0.3811
 4200TIP3    H112606   1.356   3.437   4.083  0.7480  1.5042 -0.8334
 4200TIP3    H212607   1.346   3.583   4.123 -1.3182  0.7133  1.8265
 4201TIP3   OH212608   2.924   1.960   0.933  0.6613 -0.5979  0.1275
 4201TIP3    H112609   2.889   2.014   0.862 -1.5790 -1.3292  0.5863
 4201TIP3    H212610   2.930   1.872   0.895 -1.9137 -1.3070  1.1178
 4202TIP3   OH212611   5.536   0.150   1.206  0.3043  0.2302 -0.7018
 4202TIP3    H112612   5.460   0.124   1.259  0.5363  1.0289  0.0640
 4202TIP3    H212613   5.605   0.088   1.230  0.8589  1.4406  1.1192
 4203TIP3   OH212614   2.352   3.251   1.779  0.0377  0.0671 -0.5924
 4203TIP3    H112615   2.406   3.282   1.852 -0.1969  1.2875 -0.9227
 4203TIP3    H212616   2.344   3.327   1.721 -1.8610 -0.1507 -0.6642
 4204TIP3   OH212617   2.536   2.962   3.962  0.4157  0.0661 -0.6333
 4204TIP3    H112618   2.443   2.985   3.965  0.0074 -1.3360 -1.3476
 4204TIP3    H212619   2.551   2.939   3.870  1.2227 -0.6817 -0.3225
 4205TIP3   OH212620   0.619   0.085   1.459 -0.0263  0.2251 -0.0785
 4205TIP3    H112621   0.526   0.087   1.439 -0.1536  1.3953  0.5959
 4205TIP3    H212622   0.638   0.169   1.500  1.2249 -0.1935  0.2651
 4206TIP3   OH212623   3.231   5.052   4.471 -0.3952 -0.1032  0.4157
 4206TIP3    H112624   3.284   5.131   4.466  0.2507 -0.4511  1.4863
 4206TIP3    H212625   3.260   4.999   4.397  0.9886 -0.4118  1.1422
 4207TIP3   OH212626   3.452   3.800   3.200 -0.4400  0.4048 -0.0562
 4207TIP3    H112627   3.468   3.875   3.258 -0.8877 -0.4186  1.1725
 4207TIP3    H212628   3.535   3.754   3.197 -0.0367  1.1833 -1.1796
 4208TIP3   OH212629   3.872   5.487   3.317  0.2838 -0.0683  0.1408
 4208TIP3    H112630   3.819   5.566   3.308  1.9486  1.0822  0.0669
 4208TIP3    H212631   3.915   5.497   3.402  1.3685 -0.3382 -0.3600
 4209TIP3   OH212632   1.742   3.331   2.621 -0.4367 -0.0765 -0.2132
 4209TIP3    H112633   1.660   3.346   2.573  0.2387 -0.0974 -1.3941
 4209TIP3    H212634   1.734   3.242   2.654 -0.3633 -0.5469 -1.4247
 4210TIP3   OH212635   1.996   3.304   3.767  0.4853  0.2963  0.2349
 4210TIP3    H112636   1.917   3.343   3.805 -1.7519 -1.2868 -2.4388
 4210TIP3    H212637   2.030   3.246   3.836  0.1652  1.9846  1.9087
 4211TIP3   OH212638   1.463   1.261   3.801  0.3533  0.0322  0.4123
 4211TIP3    H112639   1.544   1.278   3.753 -0.1947  1.2070 -0.1283
 4211TIP3    H212640   1.452   1.166   3.796  1.9171 -0.2044  0.8721
 4212TIP3   OH212641   2.820   4.505   2.431 -0.5199  0.0099  0.1331
 4212TIP3    H112642   2.840   4.521   2.523 -1.4915 -0.4292  0.4279
 4212TIP3    H212643   2.754   4.571   2.409  0.3483  0.6920 -0.5087
 4213TIP3   OH212644   4.243   0.201   3.732  0.0734  0.1242 -0.0835
 4213TIP3    H112645   4.294   0.268   3.688 -0.7253  0.6631 -0.2264
 4213TIP3    H212646   4.277   0.200   3.822  0.6318  0.1528 -0.2956
 4214TIP3   OH212647   4.235   3.414   2.572 -0.0583 -0.1089 -0.2141
 4214TIP3    H112648   4.250   3.504   2.546  2.3928 -0.2435  0.4829
 4214TIP3    H212649   4.227   3.366   2.489  1.3011  0.3687 -0.6354
 4215TIP3   OH212650   2.567   3.445   1.366 -0.2473 -0.1173  0.0563
 4215TIP3    H112651   2.488   3.406   1.330  0.4694 -0.4220 -1.2375
 4215TIP3    H212652   2.634   3.377   1.357  0.5045  0.6449 -0.2206
 4216TIP3   OH212653   5.492   4.079   3.458  0.0354  0.0237  0.0534
 4216TIP3    H112654   5.501   4.018   3.530 -0.4045  1.3958  1.3211
 4216TIP3    H212655   5.417   4.046   3.408 -1.8483  0.8641  2.1729
 4217TIP3   OH212656   6.206   4.055   4.897  0.0245 -0.3386 -0.2571
 4217TIP3    H112657   6.116   4.026   4.911 -0.4585  1.4751  0.6815
 4217TIP3    H212658   6.257   3.974   4.895 -1.2386 -1.3062  2.2354
 4218TIP3   OH212659   5.903   1.525   3.265 -0.5314 -0.1729  0.0936
 4218TIP3    H112660   5.900   1.453   3.201 -0.2614  0.4620 -0.6532
 4218TIP3    H212661   5.960   1.493   3.335 -0.2969 -0.6273 -0.2989
 4219TIP3   OH212662   3.504   3.004   0.738 -0.2006  0.4286  0.5405
 4219TIP3    H112663   3.581   2.947   0.737 -0.2629  0.3011 -1.4690
 4219TIP3    H212664   3.525   3.073   0.674 -2.8479 -1.1960 -2.3414
 4220TIP3   OH212665   0.957   0.280   3.952 -0.5690 -0.7227  0.0689
 4220TIP3    H112666   0.902   0.347   3.913  0.0825 -0.7478 -0.9341
 4220TIP3    H212667   0.908   0.249   4.029 -0.0769  2.1509  1.6705
 4221TIP3   OH212668   6.032   1.742   4.540  0.2552 -0.2457 -0.2554
 4221TIP3    H112669   5.965   1.799   4.577  0.2035 -0.3607 -0.1714
 4221TIP3    H212670   6.114   1.772   4.581  0.3925  0.4948 -1.0431
 4222TIP3   OH212671   5.323   5.715   1.165  0.0952  0.1687 -0.4299
 4222TIP3    H112672   5.335   5.734   1.259 -2.3441  1.0941 -0.2283
 4222TIP3    H212673   5.281   5.629   1.163 -1.3415  0.8445 -0.5340
 4223TIP3   OH212674   5.707   4.257   3.449  0.3351  0.4415  0.5144
 4223TIP3    H112675   5.627   4.206   3.457  0.7952 -0.0735  2.1634
 4223TIP3    H212676   5.774   4.202   3.490  1.6953  0.5442 -1.4446
 4224TIP3   OH212677   4.083   1.146   4.128 -0.3169 -0.4613  0.2021
 4224TIP3    H112678   4.114   1.096   4.204 -0.4607 -1.2329 -0.2398
 4224TIP3    H212679   3.990   1.158   4.144 -0.4901 -1.2421 -0.1886
 4225TIP3   OH212680   0.259   2.834   0.689 -0.2098 -0.1984  0.2842
 4225TIP3    H112681   0.228   2.759   0.638  0.9959 -1.9892  2.0364
 4225TIP3    H212682   0.207   2.833   0.769  0.4812  0.2433  0.7586
 4226TIP3   OH212683   4.023   4.262   5.041  0.0618 -0.2086  0.2842
 4226TIP3    H112684   4.023   4.254   5.136 -0.6234 -2.3803  0.1327
 4226TIP3    H212685   3.959   4.199   5.011 -1.0982  1.7207 -1.5666
 4227TIP3   OH212686   4.669   2.783   2.308 -0.3234 -0.3216 -0.2447
 4227TIP3    H112687   4.574   2.774   2.315 -0.2981 -1.0445 -0.7453
 4227TIP3    H212688   4.686   2.874   2.332 -1.2530  0.1149 -1.1274
 4228TIP3   OH212689   6.231   1.996   1.560  0.0428 -0.1513  0.1199
 4228TIP3    H112690   6.307   2.039   1.519 -0.2159 -1.6621 -2.1734
 4228TIP3    H212691   6.158   2.019   1.503 -0.6673 -1.0218  0.6670
 4229TIP3   OH212692   4.334   1.315   4.321 -0.3507  0.0236 -0.0687
 4229TIP3    H112693   4.360   1.235   4.367 -1.0518  0.8049  1.8246
 4229TIP3    H212694   4.239   1.318   4.330 -0.2150  1.9693  1.6384
 4230TIP3   OH212695   2.581   1.229   1.036  0.3233  0.1265 -0.3930
 4230TIP3    H112696   2.509   1.219   1.098  1.9215 -2.0900  1.2432
 4230TIP3    H212697   2.634   1.301   1.071 -0.5706  1.1651 -1.1172
 4231TIP3   OH212698   3.152   5.497   2.934  0.1082 -0.4161 -0.3945
 4231TIP3    H112699   3.143   5.540   2.849 -0.1147  0.7417  0.1927
 4231TIP3    H212700   3.156   5.569   2.997 -1.7010 -1.2339  0.7643
 4232TIP3   OH212701   3.232   4.184   4.123 -0.0666 -0.5720 -0.4246
 4232TIP3    H112702   3.234   4.262   4.068 -1.3207  1.2041  1.8599
 4232TIP3    H212703   3.139   4.159   4.125 -0.1644 -0.1624  1.3876
 4233TIP3   OH212704   3.346   2.485   0.398 -0.3357  0.2497  0.1080
 4233TIP3    H112705   3.409   2.450   0.334 -1.4813 -0.3049 -0.7553
 4233TIP3    H212706   3.399   2.541   0.456  1.4371 -2.1369  0.9778
 4234TIP3   OH212707   0.717   4.260   3.278  0.5861  0.0668 -0.5020
 4234TIP3    H112708   0.772   4.190   3.244  0.4226  1.3133 -3.6337
 4234TIP3    H212709   0.759   4.286   3.360  2.1475 -1.8543 -0.6309
 4235TIP3   OH212710   0.310   0.866   0.930  0.3760  1.0691  0.3572
 4235TIP3    H112711   0.364   0.935   0.967 -0.8341  2.5961 -0.6113
 4235TIP3    H212712   0.257   0.909   0.863 -0.9113 -0.6655  0.1710
 4236TIP3   OH212713   4.161   0.338   3.176 -0.0652 -0.2761 -0.3906
 4236TIP3    H112714   4.119   0.414   3.136  2.4977  1.1196 -0.6834
 4236TIP3    H212715   4.221   0.306   3.109  1.5146 -0.2545  0.9388
 4237TIP3   OH212716   4.807   2.598   2.432 -0.1661 -0.3765  0.0882
 4237TIP3    H112717   4.883   2.565   2.385  0.5242  1.7856 -0.4623
 4237TIP3    H212718   4.772   2.667   2.375 -0.8645  0.5298  1.5522
 4238TIP3   OH212719   1.179   1.013   1.106  0.4333  0.8840 -0.4205
 4238TIP3    H112720   1.232   0.934   1.115 -0.3137  0.4945  0.6765
 4238TIP3    H212721   1.139   1.026   1.192  1.8576  3.4078 -0.0157
 4239TIP3   OH212722   4.241   5.866   4.971  0.3075  0.0347 -0.3428
 4239TIP3    H112723   4.328   5.877   4.932  1.1492  0.5082  1.5177
 4239TIP3    H212724   4.185   5.838   4.899  1.6846  1.1272 -1.9075
 4240TIP3   OH212725   0.780   5.606   1.614  0.9325  0.1614  0.0835
 4240TIP3    H112726   0.699   5.570   1.579  2.1731 -0.6741 -2.1040
 4240TIP3    H212727   0.828   5.636   1.538  1.8008  2.6398  1.5052
 4241TIP3   OH212728   3.294   5.930   0.478 -0.6985  0.2286  0.3889
 4241TIP3    H112729   3.365   5.976   0.523  0.5036  0.1458 -1.2997
 4241TIP3    H212730   3.273   5.986   0.403  0.2942 -1.5023 -1.2978
 4242TIP3   OH212731   0.180   4.447   4.005 -0.5535  0.2560 -0.4312
 4242TIP3    H112732   0.253   4.507   3.991 -1.1416  0.7493 -1.4527
 4242TIP3    H212733   0.130   4.450   3.924 -0.3636 -1.9671 -0.7198
 4243TIP3   OH212734   6.084   1.670   4.287 -0.0952  0.0170  0.0818
 4243TIP3    H112735   6.103   1.576   4.287 -0.5132 -0.0776 -0.9549
 4243TIP3    H212736   6.071   1.692   4.379 -0.8500 -1.1241  0.2703
 4244TIP3   OH212737   1.358   3.629   4.382  0.1076  0.1080 -0.3174
 4244TIP3    H112738   1.300   3.557   4.357 -1.7607  1.3085  0.3905
 4244TIP3    H212739   1.361   3.626   4.477  0.7326  0.4444 -0.3187
 4245TIP3   OH212740   4.326   4.051   1.728  0.3032  0.1727 -0.4719
 4245TIP3    H112741   4.382   4.107   1.781  0.6135  0.6430 -1.2762
 4245TIP3    H212742   4.375   3.970   1.717  0.3935  0.2098 -0.3409
 4246TIP3   OH212743   1.504   0.776   1.481  0.3857 -0.2444  0.1915
 4246TIP3    H112744   1.448   0.849   1.507 -0.2024 -0.2293 -1.0541
 4246TIP3    H212745   1.577   0.778   1.543  1.1938  2.3465 -0.7204
 4247TIP3   OH212746   4.940   4.554   4.602 -0.3570 -0.1715 -0.7174
 4247TIP3    H112747   5.013   4.551   4.664 -0.9830 -0.1613  0.0364
 4247TIP3    H212748   4.887   4.477   4.623 -0.8978  0.1599 -0.8413
 4248TIP3   OH212749   2.541   2.704   3.015  0.3952 -0.4704 -0.4236
 4248TIP3    H112750   2.541   2.610   3.032 -0.5100 -0.5997 -1.0647
 4248TIP3    H212751   2.613   2.717   2.954 -0.2906 -0.9516 -1.3505
 4249TIP3   OH212752   6.270   4.310   3.580  0.1292 -0.2180 -0.0308
 4249TIP3    H112753   6.259   4.399   3.615  0.5167  0.2924 -1.1671
 4249TIP3    H212754   6.352   4.314   3.530 -0.3121 -0.9697 -0.8432
 4250TIP3   OH212755   3.686   0.897   2.386  0.4392  0.2875 -0.7588
 4250TIP3    H112756   3.772   0.890   2.344  0.1924  2.7771 -1.8483
 4250TIP3    H212757   3.638   0.959   2.332 -2.1485 -1.1396 -0.2501
 4251TIP3   OH212758   3.296   3.263   5.007 -0.5884 -0.0919  0.5836
 4251TIP3    H112759   3.384   3.293   4.987 -0.0146 -2.2485 -0.3430
 4251TIP3    H212760   3.268   3.319   5.080  0.1211  3.0216 -1.3434
 4252TIP3   OH212761   4.143   4.813   2.058 -0.6228 -0.1923  0.2865
 4252TIP3    H112762   4.094   4.837   1.979  0.2001 -2.0074 -0.8307
 4252TIP3    H212763   4.129   4.719   2.068  3.0437 -0.9648 -0.4583
 4253TIP3   OH212764   4.613   3.649   0.180 -0.4142  1.1217  0.4279
 4253TIP3    H112765   4.584   3.702   0.254 -0.1069  1.9523 -0.0372
 4253TIP3    H212766   4.567   3.565   0.191 -4.3646  2.8365 -1.1167
 4254TIP3   OH212767   1.255   2.228   0.927 -0.0613 -0.3466 -0.2924
 4254TIP3    H112768   1.294   2.160   0.982  2.4725  1.4530  0.2826
 4254TIP3    H212769   1.225   2.181   0.849  0.9315 -2.2211  0.3887
 4255TIP3   OH212770   5.581   1.496   2.905  0.4075  0.0194  0.0823
 4255TIP3    H112771   5.645   1.454   2.847  0.9609 -0.9455  1.3381
 4255TIP3    H212772   5.499   1.449   2.888  0.2296  0.6491 -0.8723
 4256TIP3   OH212773   3.071   3.192   4.000 -1.0745 -0.3655 -0.3806
 4256TIP3    H112774   3.109   3.113   4.039 -1.1835 -0.6500 -0.8403
 4256TIP3    H212775   3.141   3.227   3.945 -0.4105  0.8370  1.1464
 4257TIP3   OH212776   0.186   3.385   4.201  0.0684  0.1613  0.1072
 4257TIP3    H112777   0.205   3.300   4.162  0.2470 -0.1517  0.8573
 4257TIP3    H212778   0.116   3.422   4.147  0.6939 -0.0116 -0.8379
 4258TIP3   OH212779   2.498   0.563   3.842 -0.0397 -0.2675 -0.2840
 4258TIP3    H112780   2.591   0.565   3.865 -0.4941 -1.5963  1.9828
 4258TIP3    H212781   2.455   0.610   3.913 -1.1312  0.1843 -1.2193
 4259TIP3   OH212782   1.549   5.532   2.718 -0.5521  0.2087 -0.4191
 4259TIP3    H112783   1.576   5.594   2.786  1.8372  0.7792 -1.8072
 4259TIP3    H212784   1.515   5.457   2.768 -0.1738  1.1550  1.3706
 4260TIP3   OH212785   4.926   1.459   3.578 -0.0237 -0.0228 -0.3509
 4260TIP3    H112786   5.010   1.433   3.540  0.5850 -1.8914  1.9760
 4260TIP3    H212787   4.944   1.541   3.624  1.0523 -1.1728  1.4287
 4261TIP3   OH212788   5.757   2.810   4.270  0.1675  0.2146  0.5679
 4261TIP3    H112789   5.798   2.739   4.320 -0.7868  1.3035  3.0674
 4261TIP3    H212790   5.665   2.808   4.298 -0.9810 -0.4158 -2.8085
 4262TIP3   OH212791   5.948   3.181   3.336 -0.1046 -0.5855 -0.5906
 4262TIP3    H112792   5.973   3.138   3.418  1.7641  1.5003  0.0233
 4262TIP3    H212793   6.014   3.153   3.273  0.4315  0.3958 -0.4872
 4263TIP3   OH212794   3.508   1.554   4.353  0.1994  0.6718  0.0159
 4263TIP3    H112795   3.554   1.579   4.433  0.0112  0.1248  0.2971
 4263TIP3    H212796   3.459   1.475   4.376 -1.1153  1.3898 -0.1954
 4264TIP3   OH212797   1.465   1.188   1.952  1.0210  0.3922 -0.2776
 4264TIP3    H112798   1.442   1.096   1.946  1.4501  0.3426 -1.2977
 4264TIP3    H212799   1.547   1.189   2.002  0.9914  0.2232 -0.2267
 4265TIP3   OH212800   1.505   0.233   1.081 -0.1699 -0.5805  0.6157
 4265TIP3    H112801   1.509   0.297   1.153 -0.5353  0.2124 -0.0604
 4265TIP3    H212802   1.511   0.286   1.002 -2.1539 -1.2288 -0.0048
 4266TIP3   OH212803   3.761   3.325   0.199  0.4669 -0.0013  0.5647
 4266TIP3    H112804   3.844   3.364   0.173  0.0654  0.1265 -0.5478
 4266TIP3    H212805   3.717   3.394   0.250  1.0738 -0.1111  1.2592
 4267TIP3   OH212806   4.552   0.267   2.390 -0.0243 -0.0138  0.1332
 4267TIP3    H112807   4.626   0.328   2.386 -0.2426  0.2696  0.4143
 4267TIP3    H212808   4.476   0.320   2.368 -0.3824  0.0961  1.5908
 4268TIP3   OH212809   1.674   1.069   1.299 -0.4485 -0.5578 -0.5851
 4268TIP3    H112810   1.659   1.087   1.391  0.2555 -0.6559 -0.4453
 4268TIP3    H212811   1.593   1.096   1.255 -0.8602 -0.6984  0.0793
 4269TIP3   OH212812   6.051   0.748   3.209 -0.4459  0.0519 -0.4098
 4269TIP3    H112813   6.018   0.675   3.157 -1.6267 -0.3424  0.8212
 4269TIP3    H212814   6.052   0.823   3.149 -1.4525 -0.4643 -1.0925
 4270TIP3   OH212815   0.500   4.248   2.979  0.1640 -0.4420  0.2464
 4270TIP3    H112816   0.433   4.302   3.018 -1.1600 -1.2824 -0.7595
 4270TIP3    H212817   0.538   4.302   2.910  0.2080 -0.1167  0.5283
 4271TIP3   OH212818   1.883   3.704   3.291  0.4378  0.1072  0.0321
 4271TIP3    H112819   1.950   3.767   3.318  0.1984  0.6458 -0.6041
 4271TIP3    H212820   1.931   3.621   3.283  0.9638  0.4134 -0.0755
 4272TIP3   OH212821   2.401   3.509   5.161  0.0952  0.1924 -0.1690
 4272TIP3    H112822   2.325   3.475   5.113  0.0282 -0.5874  0.4689
 4272TIP3    H212823   2.456   3.432   5.177  0.8328  0.6898 -0.2775
 4273TIP3   OH212824   5.206   5.838   4.906  0.3939  0.2402  0.3760
 4273TIP3    H112825   5.123   5.878   4.931 -0.4301 -0.6486 -0.8410
 4273TIP3    H212826   5.196   5.817   4.813  2.3671  1.0373 -0.0774
 4274TIP3   OH212827   1.594   5.346   1.294  0.1007  0.1800  0.2654
 4274TIP3    H112828   1.543   5.324   1.371  0.8155  1.0137  0.9888
 4274TIP3    H212829   1.670   5.288   1.298 -0.4368 -0.6031 -0.4618
 4275TIP3   OH212830   4.147   2.260   3.284 -0.0351 -0.0962 -0.2574
 4275TIP3    H112831   4.085   2.191   3.261  1.2420 -0.9987 -1.1315
 4275TIP3    H212832   4.211   2.218   3.341  0.5751  0.4386 -0.5272
 4276TIP3   OH212833   4.686   2.070   3.246 -0.0931 -0.2314 -0.4114
 4276TIP3    H112834   4.755   2.034   3.191 -0.5559  1.2551 -2.0512
 4276TIP3    H212835   4.604   2.040   3.207 -0.4290  0.6483 -0.4042
 4277TIP3   OH212836   4.523   5.663   4.110  0.3180 -0.4484 -0.2189
 4277TIP3    H112837   4.492   5.611   4.036 -0.3987 -0.5397  0.1440
 4277TIP3    H212838   4.525   5.602   4.183 -2.6180  0.4715  0.7458
 4278TIP3   OH212839   1.799   4.453   0.303  0.2356 -0.6300  0.3393
 4278TIP3    H112840   1.773   4.508   0.229  2.4349 -1.5296 -1.2279
 4278TIP3    H212841   1.894   4.469   0.311  0.5937 -2.8309  0.9744
 4279TIP3   OH212842   5.617   1.960   0.842 -0.9345 -0.0301 -0.0157
 4279TIP3    H112843   5.653   1.897   0.779 -0.9569  1.4580 -1.6079
 4279TIP3    H212844   5.690   1.980   0.900 -1.1015 -1.9464  0.9286
 4280TIP3   OH212845   2.928   2.039   5.035 -0.0237 -0.5132  0.3472
 4280TIP3    H112846   2.884   1.956   5.021  0.0164 -0.2899 -1.2427
 4280TIP3    H212847   2.933   2.079   4.948  1.0708  0.5894  0.8843
 4281TIP3   OH212848   2.561   2.636   3.521  0.3157  0.4254  0.7236
 4281TIP3    H112849   2.641   2.584   3.523  0.8897  1.3070  1.6854
 4281TIP3    H212850   2.576   2.706   3.585 -1.2384  0.5775  0.9692
 4282TIP3   OH212851   3.165   3.194   3.590 -0.0612 -0.6224  0.1581
 4282TIP3    H112852   3.123   3.273   3.624  0.9564 -1.1754  3.0452
 4282TIP3    H212853   3.192   3.147   3.669  1.0043 -2.9543 -1.5105
 4283TIP3   OH212854   0.580   1.802   4.733  0.0891  0.4997  0.1559
 4283TIP3    H112855   0.673   1.802   4.712 -0.2146  0.4801 -1.2697
 4283TIP3    H212856   0.557   1.709   4.740 -0.0872  0.4684 -0.7684
 4284TIP3   OH212857   3.127   0.848   5.172  0.0831 -0.0772  0.4855
 4284TIP3    H112858   3.065   0.791   5.219 -1.2822  0.0756 -1.0546
 4284TIP3    H212859   3.165   0.791   5.106  1.2488 -0.0285  1.0883
 4285TIP3   OH212860   4.698   2.449   4.426  0.1514  0.0335  0.3630
 4285TIP3    H112861   4.781   2.452   4.377  0.1058 -0.1162  0.2758
 4285TIP3    H212862   4.724   2.434   4.517  0.1860 -0.8540  0.2198
 4286TIP3   OH212863   4.391   5.566   1.914 -0.1776 -0.2299 -0.1967
 4286TIP3    H112864   4.436   5.638   1.870  1.0533 -1.2983 -0.7544
 4286TIP3    H212865   4.350   5.517   1.844  1.5684 -1.7913 -0.2268
 4287TIP3   OH212866   0.311   1.856   4.240  0.2903 -0.7886  0.7485
 4287TIP3    H112867   0.351   1.806   4.168 -2.7656 -1.0011 -0.9640
 4287TIP3    H212868   0.385   1.901   4.282  2.3172 -1.1285 -2.1535
 4288TIP3   OH212869   5.918   2.844   1.670  0.7417 -0.3642  0.1842
 4288TIP3    H112870   5.929   2.805   1.583  2.1679 -0.1516  0.2453
 4288TIP3    H212871   5.973   2.790   1.727  1.3668  0.6634  0.5834
 4289TIP3   OH212872   2.412   3.652   4.665  0.3550  0.2827  0.0059
 4289TIP3    H112873   2.369   3.616   4.742 -1.4234  0.0434 -1.0420
 4289TIP3    H212874   2.389   3.745   4.665  1.0275  0.4508  0.1978
 4290TIP3   OH212875   0.764   4.995   2.661 -0.3740 -0.1526 -0.7467
 4290TIP3    H112876   0.714   4.954   2.731  0.0740  0.2107 -0.2015
 4290TIP3    H212877   0.729   5.085   2.656  0.6843  0.3285  0.1238
 4291TIP3   OH212878   3.107   1.627   5.020 -0.0197 -0.3186 -0.5539
 4291TIP3    H112879   3.012   1.615   5.024 -0.2864  0.9342 -2.3176
 4291TIP3    H212880   3.126   1.682   5.096 -0.3364 -2.3051  1.0661
 4292TIP3   OH212881   4.105   1.474   2.559  0.1587 -0.5210  0.6900
 4292TIP3    H112882   4.122   1.468   2.465 -1.6765  0.0270  0.2662
 4292TIP3    H212883   4.102   1.569   2.576 -2.6985 -0.4884  0.5596
 4293TIP3   OH212884   2.665   0.214   2.935  0.1321  0.2848 -0.5082
 4293TIP3    H112885   2.736   0.252   2.884 -0.8591  0.4232 -1.8459
 4293TIP3    H212886   2.592   0.209   2.873 -1.0403  0.2185  0.8420
 4294TIP3   OH212887   3.889   4.750   4.353 -0.2391 -1.0598  0.2546
 4294TIP3    H112888   3.799   4.724   4.374 -1.1830  1.1119 -0.7304
 4294TIP3    H212889   3.905   4.713   4.267 -0.9091  0.0552 -0.3700
 4295TIP3   OH212890   0.740   2.993   1.035  0.0499  0.1748 -0.1797
 4295TIP3    H112891   0.711   2.980   1.126  0.5889  0.5134  0.0425
 4295TIP3    H212892   0.677   3.057   1.000 -0.2540 -0.0745 -0.0943
 4296TIP3   OH212893   3.015   1.866   3.703 -0.1271 -0.1293 -0.4676
 4296TIP3    H112894   2.921   1.853   3.715 -0.1331  0.5844  0.3802
 4296TIP3    H212895   3.033   1.831   3.616 -1.0511 -0.8909 -0.3670
 4297TIP3   OH212896   1.876   4.863   4.836 -0.2034 -0.0034  0.1052
 4297TIP3    H112897   1.901   4.897   4.922 -2.2633 -0.8530  1.1296
 4297TIP3    H212898   1.781   4.874   4.833 -0.3748 -1.4679 -1.3995
 4298TIP3   OH212899   2.295   0.904   0.793  0.3312 -0.0389 -0.6507
 4298TIP3    H112900   2.328   0.843   0.858  0.7943 -0.9495 -1.7088
 4298TIP3    H212901   2.357   0.977   0.795  0.5405 -0.2258 -0.3191
 4299TIP3   OH212902   1.364   0.085   3.857  0.2216 -0.4660  0.4991
 4299TIP3    H112903   1.274   0.090   3.889  0.1500 -0.8812  0.3693
 4299TIP3    H212904   1.393   0.176   3.852 -0.0531 -0.3510  0.9345
 4300TIP3   OH212905   3.011   2.149   2.886 -0.0444 -0.2128  0.0995
 4300TIP3    H112906   3.007   2.127   2.793  0.3449  0.9334 -0.2051
 4300TIP3    H212907   2.921   2.170   2.909 -0.2400 -1.0592  0.1327
 4301TIP3   OH212908   1.514   5.539   3.127  0.2292 -0.5653  0.7223
 4301TIP3    H112909   1.471   5.480   3.189 -0.4428  0.3162  1.1150
 4301TIP3    H212910   1.559   5.603   3.182  1.9046 -1.3293  0.3175
 4302TIP3   OH212911   3.836   5.668   4.365 -0.5668 -0.3278 -0.5040
 4302TIP3    H112912   3.878   5.735   4.312 -2.3428  0.3913 -1.0779
 4302TIP3    H212913   3.907   5.630   4.417  0.6954  1.0557 -1.1565
 4303TIP3   OH212914   0.083   2.270   4.790  0.6302 -0.0884  0.0302
 4303TIP3    H112915   0.082   2.364   4.810 -1.0893  0.1554 -1.0343
 4303TIP3    H212916   0.170   2.241   4.819  0.9395  1.6641  1.0536
 4304TIP3   OH212917   0.115   3.127   2.504 -0.1551  0.2792 -0.4967
 4304TIP3    H112918   0.111   3.213   2.547  1.0131 -0.4792  1.2595
 4304TIP3    H212919   0.043   3.128   2.442 -0.7975  2.1534  0.2052
 4305TIP3   OH212920   0.362   0.106   1.390  0.2854  0.1091 -0.5036
 4305TIP3    H112921   0.348   0.177   1.452  0.0031 -0.5813  0.2418
 4305TIP3    H212922   0.275   0.078   1.365  0.3720  1.4144 -2.4720
 4306TIP3   OH212923   1.590   0.553   3.131  0.0382  0.1996 -0.5577
 4306TIP3    H112924   1.555   0.642   3.118 -1.7271 -0.5401 -1.1939
 4306TIP3    H212925   1.521   0.508   3.179  0.2335 -1.2744 -1.6160
 4307TIP3   OH212926   6.246   2.681   0.993 -0.4150  0.5932  0.1412
 4307TIP3    H112927   6.170   2.703   0.939 -0.4703  0.5159  0.1888
 4307TIP3    H212928   6.209   2.654   1.077 -0.4663 -1.6994 -0.5499
 4308TIP3   OH212929   4.194   1.343   0.168  0.0934 -0.5716 -0.5608
 4308TIP3    H112930   4.104   1.370   0.148 -0.9244 -2.1316  1.5229
 4308TIP3    H212931   4.203   1.256   0.129  0.4045 -0.7601 -0.0851
 4309TIP3   OH212932   4.505   2.519   3.425 -0.0111 -0.8531  0.6955
 4309TIP3    H112933   4.593   2.494   3.453  0.6307 -0.6094 -1.0180
 4309TIP3    H212934   4.466   2.437   3.395 -0.1575 -0.8506  0.8752
 4310TIP3   OH212935   2.494   4.684   4.706  0.4482 -0.0359  0.2202
 4310TIP3    H112936   2.412   4.648   4.738  0.6175 -1.1997 -0.5692
 4310TIP3    H212937   2.554   4.680   4.781  0.2420 -0.7101  0.3501
 4311TIP3   OH212938   3.279   5.288   3.040  0.5751 -0.0382  0.3352
 4311TIP3    H112939   3.305   5.261   2.951 -3.0985  1.4212 -1.4096
 4311TIP3    H212940   3.225   5.366   3.026  1.2312  1.2817  4.0979
 4312TIP3   OH212941   3.972   1.830   4.189  0.2569 -0.1332 -0.4589
 4312TIP3    H112942   3.946   1.876   4.110  3.0158  2.2345 -0.1278
 4312TIP3    H212943   4.060   1.861   4.208  1.1683 -3.3973  1.5344
 4313TIP3   OH212944   2.118   4.349   4.325  0.2167 -0.0571 -0.6342
 4313TIP3    H112945   2.142   4.373   4.236  0.9099  0.6167 -0.2790
 4313TIP3    H212946   2.025   4.328   4.320 -0.3666  2.2936 -1.1010
 4314TIP3   OH212947   2.407   0.504   0.516  0.1875  0.3915  0.2299
 4314TIP3    H112948   2.398   0.530   0.608  1.4607  3.0058 -0.3007
 4314TIP3    H212949   2.438   0.583   0.472 -0.3489 -0.8116 -2.4672
 4315TIP3   OH212950   2.345   0.609   4.603 -0.4082 -0.1268 -0.3021
 4315TIP3    H112951   2.413   0.598   4.537  2.3174 -2.5373  2.5937
 4315TIP3    H212952   2.351   0.701   4.629  2.3558 -0.4159  0.3633
 4316TIP3   OH212953   0.292   5.313   2.406  0.0474  0.3053  0.7126
 4316TIP3    H112954   0.340   5.312   2.324 -1.0694  1.1872  0.0180
 4316TIP3    H212955   0.300   5.224   2.440  0.1265 -0.1964 -0.5774
 4317TIP3   OH212956   5.863   1.062   0.650  0.3736  0.2567 -0.0851
 4317TIP3    H112957   5.903   1.056   0.564 -0.6354 -1.9096 -0.4736
 4317TIP3    H212958   5.775   1.025   0.639 -0.8023  2.4184  1.3052
 4318TIP3   OH212959   4.662   1.212   2.989  0.7588  0.2175 -0.1171
 4318TIP3    H112960   4.632   1.223   2.899 -1.8277  0.8643  0.7414
 4318TIP3    H212961   4.643   1.296   3.032  0.5828 -0.5394  1.3637
 4319TIP3   OH212962   0.823   4.778   1.504 -0.4692  0.0948  0.3210
 4319TIP3    H112963   0.789   4.858   1.462  0.5498  0.3949  0.0440
 4319TIP3    H212964   0.902   4.757   1.454 -1.2016 -1.6045 -0.1769
 4320TIP3   OH212965   1.525   0.522   3.738  0.2061 -0.9060  0.1614
 4320TIP3    H112966   1.517   0.494   3.647 -1.2469  0.8897 -0.3085
 4320TIP3    H212967   1.506   0.616   3.737  0.2591 -0.8136  2.3032
 4321TIP3   OH212968   2.091   4.089   3.433  0.5738 -0.1678 -0.3350
 4321TIP3    H112969   2.148   4.159   3.401  0.1400  0.2240 -0.2509
 4321TIP3    H212970   2.004   4.128   3.438  0.6392 -0.1390  1.4777
 4322TIP3   OH212971   2.524   4.611   0.567  0.3453  0.7118 -0.1075
 4322TIP3    H112972   2.584   4.538   0.584 -0.3499  0.2206  0.2655
 4322TIP3    H212973   2.466   4.579   0.498 -1.8302 -0.2236  2.0142
 4323TIP3   OH212974   0.726   2.114   4.212 -0.1955 -0.1444  0.6971
 4323TIP3    H112975   0.686   2.045   4.159 -0.9442  0.9407 -0.1907
 4323TIP3    H212976   0.818   2.088   4.220 -0.2813 -0.8150 -0.3257
 4324TIP3   OH212977   4.836   5.243   4.622 -0.1005  0.3590 -0.3671
 4324TIP3    H112978   4.898   5.196   4.677 -0.4043 -0.4793 -0.7230
 4324TIP3    H212979   4.752   5.234   4.667 -0.3411 -0.2842 -0.9330
 4325TIP3   OH212980   5.268   2.044   4.661 -0.1865  0.5670 -0.3935
 4325TIP3    H112981   5.269   1.960   4.614  0.2789  0.5107 -0.2944
 4325TIP3    H212982   5.361   2.062   4.678 -0.3982  0.0171  1.4992
 4326TIP3   OH212983   4.561   4.519   1.588  0.1315 -0.6106  0.3990
 4326TIP3    H112984   4.477   4.478   1.610 -0.2722 -0.6599 -1.1237
 4326TIP3    H212985   4.545   4.613   1.597  0.6913 -0.6666  2.6317
 4327TIP3   OH212986   1.454   2.737   3.439  0.1247 -0.0189 -0.0857
 4327TIP3    H112987   1.478   2.647   3.464  1.2669 -0.5067 -2.5864
 4327TIP3    H212988   1.533   2.788   3.458 -0.6553  0.6126  1.7047
 4328TIP3   OH212989   2.064   1.516   5.164 -0.0196  0.2617 -0.2597
 4328TIP3    H112990   2.034   1.532   5.074 -2.1366  2.1191  0.7052
 4328TIP3    H212991   2.160   1.513   5.156 -0.1407 -2.7996 -2.9934
 4329TIP3   OH212992   4.672   1.603   1.912  0.2595  0.1026 -0.3950
 4329TIP3    H112993   4.739   1.650   1.961 -0.9648  0.5178  0.9537
 4329TIP3    H212994   4.649   1.528   1.967 -0.6992  0.2349 -0.5863
 4330TIP3   OH212995   1.911   2.994   1.821  0.2509  0.4506  0.7977
 4330TIP3    H112996   1.932   2.982   1.913 -1.9278 -1.2356  1.1582
 4330TIP3    H212997   1.914   2.906   1.784 -0.7964  0.8393 -0.2772
 4331TIP3   OH212998   6.314   3.350   0.134  0.3303 -0.3875  0.1284
 4331TIP3    H112999   6.318   3.420   0.200  0.5094 -0.5092  0.2480
 4331TIP3    H213000   6.294   3.271   0.185 -0.8949 -0.2560 -0.1268
 4332TIP3   OH213001   3.240   4.747   2.993 -0.2750  0.0858  0.1554
 4332TIP3    H113002   3.196   4.828   3.016  0.3059 -0.0305  1.7663
 4332TIP3    H213003   3.169   4.683   2.986 -0.5603  0.3336  0.7266
 4333TIP3   OH213004   5.517   0.564   4.657 -0.3181  0.2889 -0.5827
 4333TIP3    H113005   5.602   0.598   4.632  0.1137 -0.9516 -0.8933
 4333TIP3    H213006   5.511   0.581   4.751 -1.3590  3.7120 -1.1348
 4334TIP3   OH213007   2.436   2.878   1.104  0.6670  0.2429 -0.0759
 4334TIP3    H113008   2.473   2.967   1.108  0.4698  0.3013  0.3878
 4334TIP3    H213009   2.373   2.882   1.032 -0.0293  0.7389  0.5482
 4335TIP3   OH213010   3.101   2.238   2.102  0.0532  0.2636  0.4089
 4335TIP3    H113011   3.082   2.270   2.190 -0.9643 -1.0235  0.6823
 4335TIP3    H213012   3.048   2.294   2.045  0.6813  1.0707  0.5984
 4336TIP3   OH213013   1.726   3.687   3.602 -0.0009 -0.2919 -0.0546
 4336TIP3    H113014   1.674   3.608   3.586 -2.6618  0.8902  1.9604
 4336TIP3    H213015   1.773   3.702   3.521 -1.1489 -2.7029 -1.2677
 4337TIP3   OH213016   1.340   1.579   2.335 -0.1937 -0.9021  0.2935
 4337TIP3    H113017   1.369   1.560   2.246 -0.7749 -1.2961  0.1836
 4337TIP3    H213018   1.258   1.628   2.323 -0.4642 -1.2737  0.6120
 4338TIP3   OH213019   1.048   0.962   3.736 -0.1456  0.6789 -0.5012
 4338TIP3    H113020   1.017   0.981   3.648  2.7184 -0.3124 -1.8641
 4338TIP3    H213021   1.061   0.868   3.737  1.3639  0.8548  0.3791
 4339TIP3   OH213022   2.965   5.913   1.568 -0.5035 -0.5987 -0.3393
 4339TIP3    H113023   3.040   5.862   1.598  0.8319  0.4508 -1.7124
 4339TIP3    H213024   2.979   6.000   1.606 -0.3998 -0.0858 -1.5307
 4340TIP3   OH213025   5.992   4.448   2.304  0.1999  0.5564  0.7869
 4340TIP3    H113026   6.048   4.397   2.245 -1.2776 -1.1943  0.7841
 4340TIP3    H213027   5.909   4.454   2.258 -0.3482  0.9672  1.8003
 4341TIP3   OH213028   0.049   5.909   1.382 -0.4098  0.1605 -0.2356
 4341TIP3    H113029   0.110   5.880   1.450  1.4746  2.2286 -0.9475
 4341TIP3    H213030  -0.029   5.937   1.431  1.2043  2.4112  1.2842
 4342TIP3   OH213031   5.386   3.141   1.707  0.3006  0.6887  0.4286
 4342TIP3    H113032   5.395   3.231   1.675  0.7975  0.4492 -0.1427
 4342TIP3    H213033   5.408   3.087   1.631 -1.2510  0.0591  0.3880
 4343TIP3   OH213034   4.985   5.061   2.026  0.1653 -0.0028  0.3402
 4343TIP3    H113035   5.056   5.076   2.089 -0.5646  0.5522  1.0557
 4343TIP3    H213036   5.001   5.124   1.956  1.7157 -1.4819 -0.7090
 4344TIP3   OH213037   0.815   0.551   1.735 -0.1848  0.3849  0.3739
 4344TIP3    H113038   0.739   0.578   1.787 -1.2681 -1.3813 -0.2370
 4344TIP3    H213039   0.890   0.577   1.788 -1.2291  0.7347  1.7356
 4345TIP3   OH213040   5.328   2.312   0.757 -0.3942  0.4129 -0.3493
 4345TIP3    H113041   5.256   2.372   0.774 -2.4959 -1.2845 -2.5487
 4345TIP3    H213042   5.347   2.321   0.664  0.9492 -0.5349 -0.2060
 4346TIP3   OH213043   4.671   5.632   1.567 -0.1558 -0.4142  0.3288
 4346TIP3    H113044   4.745   5.577   1.592  0.2561 -0.9025 -1.7290
 4346TIP3    H213045   4.684   5.714   1.614  1.5834 -0.5768  0.1917
 4347TIP3   OH213046   1.206   3.684   0.955  0.3578 -0.2541 -0.3667
 4347TIP3    H113047   1.227   3.671   0.862  1.8414 -1.2117  0.0695
 4347TIP3    H213048   1.144   3.758   0.955 -0.2003 -0.6572 -2.1542
 4348TIP3   OH213049   4.268   4.579   1.476  0.0870  0.4032  0.4061
 4348TIP3    H113050   4.289   4.594   1.384  1.0050 -0.0208  0.5351
 4348TIP3    H213051   4.189   4.525   1.474  0.5670 -0.3020 -0.1547
 4349TIP3   OH213052   4.589   4.515   3.601  0.5313  0.2817 -0.5570
 4349TIP3    H113053   4.672   4.530   3.556 -0.6911 -0.7835 -3.4253
 4349TIP3    H213054   4.591   4.423   3.627  0.1685  0.1764 -0.8831
 4350TIP3   OH213055   1.599   5.117   1.804  0.3230 -0.0421 -0.2208
 4350TIP3    H113056   1.608   5.197   1.856 -1.6301  0.4264 -0.4861
 4350TIP3    H213057   1.535   5.064   1.852 -0.9673  0.0800 -1.6960
 4351TIP3   OH213058   0.923   3.834   2.091 -0.3373  0.1803  0.1343
 4351TIP3    H113059   0.930   3.857   2.184  0.3318 -0.5630  0.2836
 4351TIP3    H213060   0.917   3.739   2.090 -0.3584  0.1832 -0.5835
 4352TIP3   OH213061   1.568   0.413   3.484  0.6180  0.2394 -0.2975
 4352TIP3    H113062   1.599   0.322   3.483  0.5722  0.2154 -1.3819
 4352TIP3    H213063   1.476   0.408   3.459  0.4769  0.5441  0.1506
 4353TIP3   OH213064   5.454   0.250   4.916  0.0407  0.3904 -1.1734
 4353TIP3    H113065   5.418   0.307   4.848 -0.0125 -0.7797 -2.1698
 4353TIP3    H213066   5.543   0.283   4.930  0.0736  0.6095 -1.8637
 4354TIP3   OH213067   4.671   1.323   1.956 -0.1200  0.1805 -0.3302
 4354TIP3    H113068   4.687   1.338   1.863 -0.5382  0.5825 -0.3400
 4354TIP3    H213069   4.680   1.228   1.967 -1.3511 -0.0369 -1.0437
 4355TIP3   OH213070   3.761   1.263   0.232 -0.0660 -0.1885  0.2028
 4355TIP3    H113071   3.836   1.205   0.244 -1.0244 -1.3157  1.0323
 4355TIP3    H213072   3.692   1.206   0.199 -0.9612  0.5292  0.7676
 4356TIP3   OH213073   0.127   0.621   3.502  0.0207  0.2579  0.1943
 4356TIP3    H113074   0.083   0.584   3.578 -0.0085 -0.1152  0.0018
 4356TIP3    H213075   0.057   0.633   3.437 -0.0581  1.1570  0.4417
 4357TIP3   OH213076   5.477   2.811   0.333 -0.0223 -0.2760 -0.2679
 4357TIP3    H113077   5.384   2.796   0.316 -0.1604 -1.5133  1.2674
 4357TIP3    H213078   5.492   2.902   0.309 -1.2015 -0.5557 -2.2207
 4358TIP3   OH213079   5.567   2.097   1.326  0.9004 -0.4597  0.0233
 4358TIP3    H113080   5.483   2.075   1.287 -0.0214  0.9621  1.0850
 4358TIP3    H213081   5.615   2.014   1.329  0.8869 -0.7426 -3.6143
 4359TIP3   OH213082   4.716   0.420   0.705 -0.7205  0.2201 -0.1165
 4359TIP3    H113083   4.695   0.340   0.753  0.3542  0.2345  0.4206
 4359TIP3    H213084   4.751   0.390   0.622 -1.1384  0.1567 -0.2710
 4360TIP3   OH213085   0.189   5.354   4.751  0.8409 -0.2159  0.2056
 4360TIP3    H113086   0.109   5.315   4.715 -0.9605  2.9329  0.4089
 4360TIP3    H213087   0.171   5.361   4.845  0.1718  2.7065 -0.0370
 4361TIP3   OH213088   0.066   1.570   1.199  0.4719  0.3185  0.1304
 4361TIP3    H113089  -0.019   1.614   1.204 -0.0115 -0.7138  1.8890
 4361TIP3    H213090   0.048   1.488   1.153  0.6602  0.3616 -0.0252
 4362TIP3   OH213091   1.119   4.463   4.083 -0.4298  0.2147 -0.5110
 4362TIP3    H113092   1.113   4.371   4.057 -0.0210 -0.1434  0.5762
 4362TIP3    H213093   1.033   4.500   4.061 -0.0999 -0.0156 -2.3419
 4363TIP3   OH213094   0.839   5.217   0.104  0.7937  0.1817 -0.6107
 4363TIP3    H113095   0.901   5.167   0.052  0.8294  0.7308 -1.1006
 4363TIP3    H213096   0.755   5.204   0.061  0.7298  0.2014 -0.4933
 4364TIP3   OH213097   2.485   3.765   1.884 -0.0168  0.5295  0.4295
 4364TIP3    H113098   2.546   3.715   1.830  0.0355 -0.9576  1.7932
 4364TIP3    H213099   2.398   3.730   1.862 -0.1443  0.9302  0.2774
 4365TIP3   OH213100   0.618   2.821   2.796  0.0442  0.0571 -0.3652
 4365TIP3    H113101   0.621   2.830   2.701  0.7865 -1.4784 -0.5117
 4365TIP3    H213102   0.709   2.836   2.825 -0.6871  3.9764  0.5290
 4366TIP3   OH213103   3.139   4.465   0.205  0.4471 -0.6877  0.3984
 4366TIP3    H113104   3.054   4.455   0.163  1.2976 -1.5478 -1.2630
 4366TIP3    H213105   3.139   4.553   0.241 -0.9424 -0.4842 -0.0573
 4367TIP3   OH213106   0.588   4.156   1.661  0.2085 -0.1120 -0.2491
 4367TIP3    H113107   0.540   4.130   1.582 -1.1266  0.0989  0.4758
 4367TIP3    H213108   0.535   4.124   1.733  0.3232  1.5482  0.6156
 4368TIP3   OH213109   0.735   5.939   2.770 -0.6324 -0.0335  0.0973
 4368TIP3    H113110   0.828   5.959   2.780 -1.0195  1.8141  0.4601
 4368TIP3    H213111   0.715   5.965   2.680 -0.3156 -2.8280 -0.8865
 4369TIP3   OH213112   1.861   4.674   2.259 -0.0082  0.1746 -0.3270
 4369TIP3    H113113   1.772   4.660   2.289  0.0849  0.2363 -0.0166
 4369TIP3    H213114   1.853   4.733   2.184 -0.3724 -1.1504 -1.3724
 4370TIP3   OH213115   1.133   3.237   0.675  0.4064  0.4217  0.1912
 4370TIP3    H113116   1.175   3.152   0.687  2.9481  1.8864  2.9292
 4370TIP3    H213117   1.098   3.234   0.586  2.5348 -2.5764 -0.7140
 4371TIP3   OH213118   1.781   4.996   0.343  0.5993  0.2232 -0.1304
 4371TIP3    H113119   1.702   4.984   0.396  0.6739  0.8606  0.1367
 4371TIP3    H213120   1.791   5.091   0.337 -0.8686  0.3000 -3.4526
 4372TIP3   OH213121   5.149   0.247   0.630 -0.1767  0.8200  0.4151
 4372TIP3    H113122   5.094   0.169   0.624  0.8090 -0.0398  1.8751
 4372TIP3    H213123   5.160   0.276   0.539 -2.4188  0.6194  0.0394
 4373TIP3   OH213124   4.085   4.074   2.841 -0.5373  0.1936 -0.1488
 4373TIP3    H113125   4.082   3.982   2.865  0.7635 -0.3524 -1.8680
 4373TIP3    H213126   4.066   4.074   2.747  2.8815  1.2366 -0.9887
 4374TIP3   OH213127   2.151   1.258   1.384  0.5497  0.1547  0.3127
 4374TIP3    H113128   2.088   1.316   1.342 -0.3763 -1.2244 -0.2762
 4374TIP3    H213129   2.098   1.194   1.431  1.5550  1.0500  2.8087
 4375TIP3   OH213130   2.691   2.757   2.366  0.5393 -0.6525  0.5752
 4375TIP3    H113131   2.768   2.755   2.422  1.5710  0.6555 -0.7521
 4375TIP3    H213132   2.674   2.850   2.351  1.1799 -0.9409 -2.4222
 4376TIP3   OH213133   3.846   0.031   4.903  0.6445  0.3527 -0.4438
 4376TIP3    H113134   3.856   0.025   4.808  0.7471 -0.0448 -0.4079
 4376TIP3    H213135   3.803  -0.050   4.928 -0.0699  0.7850 -0.2404
 4377TIP3   OH213136   2.036   1.555   4.891  0.1402  0.2889  0.6959
 4377TIP3    H113137   2.021   1.505   4.811  1.0599 -0.7645  1.1446
 4377TIP3    H213138   2.059   1.643   4.860  1.7821 -0.4348 -0.2818
 4378TIP3   OH213139   5.820   5.609   0.556 -0.0464 -0.0038  0.3772
 4378TIP3    H113140   5.847   5.673   0.490 -0.2905 -0.6673 -0.3875
 4378TIP3    H213141   5.758   5.552   0.510 -0.4442 -0.3023  1.2673
 4379TIP3   OH213142   4.152   1.372   4.786  0.1435 -0.3203  0.1978
 4379TIP3    H113143   4.244   1.352   4.800  0.2599  0.5841  0.7875
 4379TIP3    H213144   4.108   1.339   4.865  0.0945  0.1199  0.3557
 4380TIP3   OH213145   0.981   0.650   5.152  0.1798 -0.5587 -0.0260
 4380TIP3    H113146   0.969   0.561   5.120 -0.7012  0.2134 -2.0652
 4380TIP3    H213147   0.968   0.644   5.247 -2.0142 -2.2821 -0.3419
 4381TIP3   OH213148   1.458   5.588   2.172  0.1056 -0.4934 -0.5083
 4381TIP3    H113149   1.404   5.640   2.113  0.0774 -0.8332 -0.7863
 4381TIP3    H213150   1.397   5.550   2.235  0.3720  1.6085  1.0907
 4382TIP3   OH213151   3.339   1.226   0.727 -0.1910 -0.1007 -0.3275
 4382TIP3    H113152   3.294   1.238   0.810 -2.5712  0.7130 -1.6616
 4382TIP3    H213153   3.407   1.293   0.727 -1.0440  0.7837  0.4030
 4383TIP3   OH213154   2.022   2.740   4.806 -0.5668 -0.1377 -0.4329
 4383TIP3    H113155   2.019   2.666   4.745 -2.0749  0.1092 -0.6833
 4383TIP3    H213156   2.008   2.817   4.750  1.8617  0.4815 -0.3215
 4384TIP3   OH213157   1.962   1.020   2.254 -0.1605  0.3479  0.4581
 4384TIP3    H113158   1.978   0.990   2.343 -0.8961 -2.3060 -0.2253
 4384TIP3    H213159   1.877   0.983   2.231  0.2898  0.4513 -1.5610
 4385TIP3   OH213160   1.363   2.612   5.143  0.0260  0.5574  0.1931
 4385TIP3    H113161   1.444   2.661   5.156 -0.4393  0.9387  2.0513
 4385TIP3    H213162   1.332   2.639   5.057  0.2454  2.9054  0.7597
 4386TIP3   OH213163   1.589   3.305   2.364  0.9589 -0.2434 -0.2034
 4386TIP3    H113164   1.652   3.376   2.352  1.3348 -0.3265  1.1490
 4386TIP3    H213165   1.514   3.330   2.310  2.0279 -0.0198 -1.6615
 4387TIP3   OH213166   5.348   1.862   1.462  0.3453  0.0592  0.3775
 4387TIP3    H113167   5.330   1.826   1.549 -1.7300  2.9705  1.3323
 4387TIP3    H213168   5.435   1.900   1.469 -0.3087  1.4315  1.7083
 4388TIP3   OH213169   3.119   0.168   4.059  0.4075 -0.0762  0.7174
 4388TIP3    H113170   3.193   0.218   4.023  0.8457  0.0568  1.7571
 4388TIP3    H213171   3.077   0.229   4.119 -1.8318  0.5660 -1.3513
 4389TIP3   OH213172   1.802   1.894   2.287  0.7396  0.1683 -0.2641
 4389TIP3    H113173   1.706   1.895   2.281  0.7810 -0.0169 -0.9230
 4389TIP3    H213174   1.823   1.807   2.320  0.8397 -0.9125 -2.9583
 4390TIP3   OH213175   4.943   1.034   0.513  0.0504  0.4008  0.6433
 4390TIP3    H113176   4.879   1.096   0.546  0.0067  0.6129  0.1789
 4390TIP3    H213177   5.017   1.088   0.485 -0.3725  0.3568 -0.6604
 4391TIP3   OH213178   4.564   3.830   2.465 -0.6434 -0.3678  0.2823
 4391TIP3    H113179   4.546   3.794   2.379 -0.1326 -0.0391  0.0310
 4391TIP3    H213180   4.577   3.923   2.450  0.3649 -0.4514  0.5653
 4392TIP3   OH213181   1.648   2.530   2.273 -0.1952  0.3549 -0.0350
 4392TIP3    H113182   1.702   2.452   2.264  0.6860  0.8625  0.7090
 4392TIP3    H213183   1.690   2.596   2.217 -2.0311 -0.2089 -2.2353
 4393TIP3   OH213184   2.059   4.906   3.407 -0.2935 -0.4257 -0.0618
 4393TIP3    H113185   2.109   4.853   3.470 -0.4397  1.1122  1.4239
 4393TIP3    H213186   2.122   4.971   3.375 -1.1670  1.4226  1.6989
 4394TIP3   OH213187   3.972   2.490   4.269  0.2541 -0.1243 -0.2652
 4394TIP3    H113188   4.007   2.552   4.205  1.5680  0.6097  1.1008
 4394TIP3    H213189   3.918   2.430   4.217  0.0024  1.3603 -1.8228
 4395TIP3   OH213190   0.362   3.645   0.152 -0.2787 -0.1232 -0.5657
 4395TIP3    H113191   0.340   3.585   0.081  0.6077 -1.2821  0.1126
 4395TIP3    H213192   0.374   3.730   0.109  1.6534 -1.0787 -2.0484
 4396TIP3   OH213193   4.811   4.232   4.421  0.5170 -0.1853 -0.3665
 4396TIP3    H113194   4.850   4.259   4.339  0.5783  0.1955 -0.2161
 4396TIP3    H213195   4.732   4.286   4.428  0.2340 -0.5893 -0.4285
 4397TIP3   OH213196   4.642   1.649   3.678  0.0321  0.1691 -0.4997
 4397TIP3    H113197   4.585   1.571   3.678  0.0457  0.1513  0.7244
 4397TIP3    H213198   4.714   1.625   3.735  0.0195  1.1006 -0.0911
 4398TIP3   OH213199   1.450   3.654   2.350  0.1297 -0.3602  0.3534
 4398TIP3    H113200   1.531   3.704   2.340 -0.1208 -0.1649 -0.9066
 4398TIP3    H213201   1.412   3.653   2.262  0.8088 -3.9676 -0.0560
 4399TIP3   OH213202   4.753   5.507   4.533  0.5394 -0.2876 -0.5533
 4399TIP3    H113203   4.803   5.426   4.536  1.3619  0.2389  0.3942
 4399TIP3    H213204   4.817   5.576   4.550 -0.5558  0.3684  1.1879
 4400TIP3   OH213205   4.388   0.660   2.466  0.2007 -0.4052 -0.0015
 4400TIP3    H113206   4.331   0.613   2.526  0.7705  0.1719  1.0266
 4400TIP3    H213207   4.449   0.707   2.523 -1.7865  3.5434 -0.7586
 4401TIP3   OH213208   5.722   2.288   4.797  0.2594  0.4422 -0.6966
 4401TIP3    H113209   5.807   2.269   4.759  1.3365  0.2195  1.6085
 4401TIP3    H213210   5.717   2.384   4.800  0.5914  0.4541 -0.5190
 4402TIP3   OH213211   5.681   4.445   2.477  0.3708 -0.1155 -0.4748
 4402TIP3    H113212   5.716   4.464   2.390  2.3944 -1.4577 -0.0159
 4402TIP3    H213213   5.754   4.406   2.525 -1.1255 -0.8597  1.3484
 4403TIP3   OH213214   2.589   4.928   4.854 -0.4700 -0.2699 -0.1423
 4403TIP3    H113215   2.648   4.969   4.918  0.9527 -0.5805 -1.1857
 4403TIP3    H213216   2.524   4.882   4.907 -0.4688  1.0334  1.0572
 4404TIP3   OH213217   2.127   4.895   1.488  0.6705  0.2486  0.1475
 4404TIP3    H113218   2.190   4.950   1.534 -0.1794  1.5244 -0.1358
 4404TIP3    H213219   2.131   4.925   1.397 -1.0713  1.1248  0.3098
 4405TIP3   OH213220   5.273   5.700   5.130  0.0665 -0.2925 -0.7424
 4405TIP3    H113221   5.228   5.741   5.056 -2.0502 -0.5127  0.3516
 4405TIP3    H213222   5.339   5.764   5.156  2.0058 -0.8748 -3.7627
 4406TIP3   OH213223   5.188   4.437   3.927 -0.4677 -0.1798  0.0691
 4406TIP3    H113224   5.222   4.439   4.017  2.2716  1.3970 -0.8851
 4406TIP3    H213225   5.094   4.451   3.937 -0.1058  1.0483  2.6501
 4407TIP3   OH213226   3.236   5.485   1.299  0.8096 -0.3100 -0.4298
 4407TIP3    H113227   3.183   5.415   1.336  0.1544 -1.3695 -3.1337
 4407TIP3    H213228   3.326   5.462   1.321  0.5415 -1.5939 -0.6254
 4408TIP3   OH213229   1.618   5.642   1.445  0.0056 -0.4536  0.4682
 4408TIP3    H113230   1.627   5.563   1.498 -1.4201 -1.0628 -0.1608
 4408TIP3    H213231   1.547   5.691   1.486  1.5410  1.0434  1.4643
 4409TIP3   OH213232   0.432   4.914   0.507  0.5040 -0.4625 -0.0528
 4409TIP3    H113233   0.467   4.933   0.594  0.3264 -0.5792  0.0454
 4409TIP3    H213234   0.500   4.944   0.447 -0.2783  1.6098  0.0367
 4410TIP3   OH213235   2.357   2.812   3.464  0.5190  0.0520  0.4556
 4410TIP3    H113236   2.288   2.770   3.515  1.5173  0.2103  2.0068
 4410TIP3    H213237   2.424   2.743   3.454  0.6072  0.2148 -0.0993
 4411TIP3   OH213238   0.171   4.129   1.987 -0.3519 -0.0595 -0.3772
 4411TIP3    H113239   0.262   4.097   1.992 -0.1249  0.7065  0.6878
 4411TIP3    H213240   0.179   4.224   1.985 -1.1843  0.0918  1.7133
 4412TIP3   OH213241   2.265   5.659   1.524 -0.2892 -0.0330 -0.1456
 4412TIP3    H113242   2.262   5.754   1.527 -0.2451  0.0428 -1.7643
 4412TIP3    H213243   2.307   5.634   1.606 -0.2987  1.3371  0.2942
 4413TIP3   OH213244   6.077   3.894   1.810  0.0614 -0.3999 -0.2860
 4413TIP3    H113245   6.011   3.893   1.741 -0.3267  2.0896 -0.0302
 4413TIP3    H213246   6.089   3.801   1.833 -1.3574 -1.1149 -2.1709
 4414TIP3   OH213247   3.692   4.273   5.022 -0.3684 -0.8169  0.1024
 4414TIP3    H113248   3.634   4.331   4.973 -0.0451  1.0718  1.8410
 4414TIP3    H213249   3.779   4.311   5.014  0.4569 -2.7931 -1.2133
 4415TIP3   OH213250   3.471   0.137   3.416  0.5676 -0.2644 -0.3645
 4415TIP3    H113251   3.493   0.228   3.396  1.6364 -0.9623 -2.8075
 4415TIP3    H213252   3.391   0.121   3.366  0.0744 -0.5299  0.4941
 4416TIP3   OH213253   6.288   1.060   1.221 -0.7025  0.1338 -0.9344
 4416TIP3    H113254   6.202   1.063   1.264 -0.7626  1.5997 -1.0909
 4416TIP3    H213255   6.289   0.977   1.174 -0.0752 -2.3648  2.9828
 4417TIP3   OH213256   4.312   1.361   1.468 -0.2049 -0.1406  0.0990
 4417TIP3    H113257   4.372   1.384   1.397 -1.0392  0.2959 -0.4757
 4417TIP3    H213258   4.294   1.268   1.454 -0.5469 -0.0001 -0.3980
 4418TIP3   OH213259   3.444   2.076   3.179  0.0997  0.1985 -0.1938
 4418TIP3    H113260   3.425   1.984   3.163 -0.0912  0.3200 -0.7123
 4418TIP3    H213261   3.513   2.098   3.116  0.8384  0.1709  0.5893
 4419TIP3   OH213262   3.149   3.286   1.146  0.6317  0.3698 -0.7362
 4419TIP3    H113263   3.101   3.245   1.073  0.3754  1.0217 -0.9420
 4419TIP3    H213264   3.107   3.251   1.225  0.7444 -0.1484 -0.9035
 4420TIP3   OH213265   1.941   4.229   0.228 -0.1077  0.0444 -0.3232
 4420TIP3    H113266   1.957   4.282   0.306  0.9144  0.5179 -0.8407
 4420TIP3    H213267   1.916   4.143   0.262  2.1769 -0.3396  0.5919
 4421TIP3   OH213268   0.291   0.833   2.281 -0.0284  0.2718  0.1131
 4421TIP3    H113269   0.279   0.905   2.344 -2.9387 -0.7263  0.8566
 4421TIP3    H213270   0.257   0.756   2.327 -0.0188 -0.9439 -1.8382
 4422TIP3   OH213271   0.289   4.060   2.660  0.5704  0.0285  0.0136
 4422TIP3    H113272   0.254   4.092   2.577  0.1013 -1.4558 -0.3846
 4422TIP3    H213273   0.235   3.984   2.682  2.2202 -1.1002  0.4178
 4423TIP3   OH213274   1.937   3.401   0.757 -0.1906  0.0754 -0.0160
 4423TIP3    H113275   1.887   3.481   0.746 -0.1745 -0.1197 -1.8709
 4423TIP3    H213276   1.984   3.412   0.840 -1.1211  1.4465  0.3508
 4424TIP3   OH213277   1.951   4.700   0.843 -0.4757 -0.1235  0.0085
 4424TIP3    H113278   1.862   4.695   0.810 -0.5956  0.2161  0.2732
 4424TIP3    H213279   1.998   4.629   0.798 -1.1733 -1.0981  0.7936
 4425TIP3   OH213280   5.564   0.146   0.595  0.6029  0.3748  0.5181
 4425TIP3    H113281   5.556   0.194   0.513  0.6448 -0.1979  0.1773
 4425TIP3    H213282   5.657   0.126   0.603  0.8020  1.5049  1.3328
 4426TIP3   OH213283   4.880   3.403   4.879  0.9311 -0.5785  0.0636
 4426TIP3    H113284   4.817   3.336   4.905  0.8454 -1.0610 -1.3366
 4426TIP3    H213285   4.950   3.355   4.835  1.1050  0.1976 -0.5253
 4427TIP3   OH213286   4.186   1.657   4.899  0.2550 -0.1880 -0.6443
 4427TIP3    H113287   4.140   1.577   4.875 -2.0649  0.9112 -0.0834
 4427TIP3    H213288   4.186   1.709   4.820 -1.1923  0.5809 -0.1630
 4428TIP3   OH213289   2.922   1.307   4.974  0.1008  0.0979 -0.4769
 4428TIP3    H113290   2.854   1.262   5.025  1.0830  0.4405  1.2367
 4428TIP3    H213291   2.876   1.380   4.933 -0.1782  2.1570  3.0412
 4429TIP3   OH213292   0.957   5.837   4.131  0.4053 -0.1988  0.1341
 4429TIP3    H113293   0.905   5.789   4.066  0.4168  0.3288 -0.2641
 4429TIP3    H213294   0.957   5.927   4.100  0.1721  0.1133  1.0187
 4430TIP3   OH213295   4.790   2.124   3.492 -0.5796  0.3697  0.1007
 4430TIP3    H113296   4.758   2.126   3.402 -1.2523  0.2878  0.3310
 4430TIP3    H213297   4.763   2.209   3.529  2.2338  1.7008 -0.6073
 4431TIP3   OH213298   4.465   4.286   3.338  0.1804 -0.1869 -0.4424
 4431TIP3    H113299   4.496   4.321   3.254 -0.5172  3.8054  0.7590
 4431TIP3    H213300   4.371   4.274   3.326  0.5070 -2.6209 -1.0561
 4432TIP3   OH213301   3.501   2.817   1.178 -0.5737 -0.5139 -0.1074
 4432TIP3    H113302   3.513   2.905   1.143 -3.0148 -0.2809 -0.5849
 4432TIP3    H213303   3.458   2.830   1.262 -0.9807 -1.2242 -0.1875
 4433TIP3   OH213304   5.259   5.421   4.836 -0.0702 -0.3191  0.1393
 4433TIP3    H113305   5.291   5.437   4.925 -0.9548  0.2752  0.3679
 4433TIP3    H213306   5.324   5.463   4.779 -1.8494  3.5625  0.6858
 4434TIP3   OH213307   4.524   4.312   4.809 -0.0185 -0.4239  0.2483
 4434TIP3    H113308   4.567   4.378   4.755 -0.2585  0.7440  1.4265
 4434TIP3    H213309   4.435   4.307   4.774 -0.1034  0.1424  0.3745
 4435TIP3   OH213310   2.493   2.223   1.564 -0.3364  0.2292  0.4770
 4435TIP3    H113311   2.523   2.307   1.529  2.3401 -1.0780 -0.5750
 4435TIP3    H213312   2.497   2.234   1.659  0.4244  1.1426  0.3559
 4436TIP3   OH213313   2.568   5.850   4.341 -0.1382 -0.3309 -0.1751
 4436TIP3    H113314   2.540   5.759   4.355 -2.7922  0.4426 -0.0505
 4436TIP3    H213315   2.522   5.900   4.408  3.2119  0.9114  1.4097
 4437TIP3   OH213316   3.664   4.580   2.271 -0.5109 -0.5620  0.7722
 4437TIP3    H113317   3.663   4.485   2.287 -1.4625 -0.7214 -0.1284
 4437TIP3    H213318   3.745   4.594   2.221 -1.7653 -1.3863 -1.6338
 4438TIP3   OH213319   6.023   5.759   4.241 -0.1489 -0.1420  0.1119
 4438TIP3    H113320   6.096   5.721   4.192 -0.8716 -0.7301 -0.5510
 4438TIP3    H213321   6.057   5.772   4.329 -0.1365 -3.3679  0.7082
 4439TIP3   OH213322   2.423   2.222   2.656  0.1602 -0.0334 -0.0232
 4439TIP3    H113323   2.356   2.255   2.716  0.6123  0.8710 -0.0125
 4439TIP3    H213324   2.493   2.286   2.660  0.7572 -0.6404 -0.5362
 4440TIP3   OH213325   1.323   4.992   1.055 -0.2777 -0.1880 -0.1723
 4440TIP3    H113326   1.238   4.999   1.097 -0.7750 -1.7801 -0.8270
 4440TIP3    H213327   1.311   5.031   0.969  0.1796  1.2016  0.3586
 4441TIP3   OH213328   2.833   5.036   4.203  0.0777  0.7293 -0.4001
 4441TIP3    H113329   2.857   5.010   4.291 -0.0247 -0.5770 -0.7466
 4441TIP3    H213330   2.745   5.001   4.190 -0.5247  2.1885 -0.5133
 4442TIP3   OH213331   2.249   2.649   1.213 -0.3601 -0.0667  0.1626
 4442TIP3    H113332   2.312   2.713   1.246 -1.9413  1.2400  0.8012
 4442TIP3    H213333   2.166   2.676   1.252 -1.1103 -2.5204  0.4248
 4443TIP3   OH213334   4.933   5.397   2.884 -0.1802  0.0232  0.1506
 4443TIP3    H113335   4.864   5.378   2.820 -0.3690 -0.1034  0.3894
 4443TIP3    H213336   4.955   5.489   2.868 -0.3090  0.0255 -0.0193
 4444TIP3   OH213337   4.604   5.505   3.198 -0.8292  0.6843 -0.4374
 4444TIP3    H113338   4.672   5.568   3.172 -0.9839  1.0009 -0.0833
 4444TIP3    H213339   4.558   5.486   3.117  0.2077 -0.1799 -0.8487
 4445TIP3   OH213340   3.815   5.633   2.138  0.0443 -0.1605  0.1830
 4445TIP3    H113341   3.840   5.583   2.216  0.4962  0.3606  0.3847
 4445TIP3    H213342   3.895   5.681   2.114  0.0907 -0.7776 -0.9657
 4446TIP3   OH213343   3.840   4.680   0.887  0.2098 -0.0018 -0.6715
 4446TIP3    H113344   3.836   4.669   0.982 -1.1030  0.8731 -0.5960
 4446TIP3    H213345   3.932   4.696   0.868  0.2894  1.3761  0.6633
 4447TIP3   OH213346   0.265   3.403   2.335  0.0071 -0.1802 -0.6744
 4447TIP3    H113347   0.193   3.424   2.277  0.1396 -1.1916 -1.2328
 4447TIP3    H213348   0.227   3.408   2.423 -0.5466  0.0273 -0.9229
 4448TIP3   OH213349   3.440   3.815   1.282 -0.2053 -0.3114 -0.2582
 4448TIP3    H113350   3.432   3.870   1.204 -0.6968  0.7166  0.4931
 4448TIP3    H213351   3.422   3.726   1.251 -0.2318  0.0557 -1.3363
 4449TIP3   OH213352   5.452   2.496   4.200 -0.4556  0.2713 -0.3627
 4449TIP3    H113353   5.490   2.559   4.138  1.1493  0.5837  0.8461
 4449TIP3    H213354   5.362   2.486   4.172 -0.0919  1.2677 -2.0483
 4450TIP3   OH213355   0.801   0.789   4.620  0.1371 -0.6305  0.5794
 4450TIP3    H113356   0.772   0.822   4.535 -3.0385 -0.4714  1.6077
 4450TIP3    H213357   0.820   0.868   4.671 -0.8275 -0.5902  0.8991
 4451TIP3   OH213358   6.330   0.540   2.542  0.3535  0.0187  0.3888
 4451TIP3    H113359   6.325   0.501   2.629 -1.0799  0.2166  0.4237
 4451TIP3    H213360   6.345   0.466   2.483 -0.1946 -0.3159  0.6629
 4452TIP3   OH213361   2.813   3.919   4.212 -0.5252 -0.0825  0.8270
 4452TIP3    H113362   2.746   3.981   4.241 -0.3453 -0.3513  1.8594
 4452TIP3    H213363   2.840   3.873   4.292  0.8932  0.0173  0.4354
 4453TIP3   OH213364   3.317   2.466   3.789 -0.1996 -0.2358  0.1961
 4453TIP3    H113365   3.363   2.497   3.868  0.2819  1.3218 -0.6560
 4453TIP3    H213366   3.361   2.510   3.717 -2.7951  1.0741 -0.7124
 4454TIP3   OH213367   4.150   4.557   1.981  0.2122  0.3720  0.5956
 4454TIP3    H113368   4.141   4.472   2.025  0.3794  0.3741  0.6358
 4454TIP3    H213369   4.123   4.540   1.891 -0.3231  0.4118  0.7480
 4455TIP3   OH213370   5.729   0.451   0.892 -0.4330 -0.3823 -0.1406
 4455TIP3    H113371   5.717   0.465   0.798 -0.2294  0.2983 -0.0790
 4455TIP3    H213372   5.719   0.357   0.904 -1.9851 -0.3046 -0.6116
 4456TIP3   OH213373   2.915   5.604   4.161 -0.0301  0.6651 -0.1663
 4456TIP3    H113374   2.985   5.627   4.099 -0.1680  1.2197 -0.1153
 4456TIP3    H213375   2.927   5.510   4.175  1.3600  0.9251  0.6513
 4457TIP3   OH213376   4.880   0.415   4.153 -0.0863  0.5034 -0.0060
 4457TIP3    H113377   4.848   0.331   4.122 -1.0904 -0.3708  3.0029
 4457TIP3    H213378   4.976   0.405   4.154 -0.2112 -0.8660  0.8699
 4458TIP3   OH213379   3.150   0.481   4.038 -0.1309 -0.2337 -0.0253
 4458TIP3    H113380   3.096   0.527   3.973  1.6256 -0.7909 -2.0088
 4458TIP3    H213381   3.239   0.506   4.017  0.7031 -2.4630  0.5189
 4459TIP3   OH213382   1.679   1.542   4.300  0.4026  0.3858  0.3049
 4459TIP3    H113383   1.602   1.485   4.298  0.6168  0.0971  0.3656
 4459TIP3    H213384   1.702   1.555   4.208  0.5744  0.0782  0.3041
 4460TIP3   OH213385   4.822   4.168   4.710  0.0534  0.0110  0.4072
 4460TIP3    H113386   4.852   4.242   4.763  0.5938  0.4323 -0.4580
 4460TIP3    H213387   4.808   4.205   4.622  1.2609 -1.0763 -0.2818
 4461TIP3   OH213388   3.472   5.786   1.924 -1.1267  0.0304 -0.4523
 4461TIP3    H113389   3.528   5.780   1.847 -0.4106  0.8837 -0.0244
 4461TIP3    H213390   3.419   5.706   1.922  1.5862 -1.9037  0.2899
 4462TIP3   OH213391   1.152   4.849   4.795 -0.8119  0.4490 -0.4551
 4462TIP3    H113392   1.068   4.817   4.761 -0.2609 -0.5036 -0.9530
 4462TIP3    H213393   1.133   4.937   4.826 -1.7874  0.6120 -1.4502
 4463TIP3   OH213394   0.755   0.448   3.758  0.4835  0.5578  0.6315
 4463TIP3    H113395   0.795   0.477   3.676  0.8575 -1.3345  0.0954
 4463TIP3    H213396   0.703   0.372   3.733  1.9337 -1.0902  2.3876
 4464TIP3   OH213397   2.758   4.312   0.838  0.1966  0.0915  0.5563
 4464TIP3    H113398   2.709   4.324   0.919 -1.9404 -1.2067 -0.4703
 4464TIP3    H213399   2.794   4.399   0.819  0.3926  0.5200  2.6225
 4465TIP3   OH213400   2.407   4.940   3.957  0.4914  0.0608 -0.4483
 4465TIP3    H113401   2.326   4.943   3.907 -0.0941 -1.2104  0.3843
 4465TIP3    H213402   2.381   4.964   4.046  1.1505  0.2584 -0.3018
 4466TIP3   OH213403   0.103   4.580   2.583  0.5731  0.4225  0.5515
 4466TIP3    H113404   0.081   4.656   2.529  1.9833 -0.1580 -0.9013
 4466TIP3    H213405   0.056   4.507   2.543 -1.5084  0.6096  2.4753
 4467TIP3   OH213406   2.744   4.133   3.603  0.0529 -0.6429 -0.5600
 4467TIP3    H113407   2.833   4.102   3.586 -0.2877 -1.2205 -1.3611
 4467TIP3    H213408   2.756   4.209   3.660  1.0298 -0.9924 -0.2693
 4468TIP3   OH213409   1.977   4.426   4.615  0.2054  0.0717  0.0309
 4468TIP3    H113410   1.900   4.469   4.654 -0.7727  0.0138 -1.7176
 4468TIP3    H213411   2.022   4.497   4.569  1.8243  0.3130  1.8914
 4469TIP3   OH213412   3.346   0.401   3.622  0.0674 -0.1594  0.7089
 4469TIP3    H113413   3.376   0.447   3.701 -0.9844  2.1532 -0.1633
 4469TIP3    H213414   3.423   0.401   3.565  1.0057 -2.3209  1.8271
 4470TIP3   OH213415   3.553   5.108   0.826  0.0739 -0.0106  0.1182
 4470TIP3    H113416   3.626   5.086   0.885 -1.9538 -1.0000  2.4225
 4470TIP3    H213417   3.538   5.201   0.842 -0.2726 -0.2055  0.9798
 4471TIP3   OH213418   0.480   2.139   3.877 -0.0503 -0.5043  0.1147
 4471TIP3    H113419   0.538   2.210   3.850  0.5291 -1.8118 -2.3586
 4471TIP3    H213420   0.434   2.173   3.953  2.2567  1.4426  0.7380
 4472TIP3   OH213421   5.708   3.911   3.599  0.3443  0.5852 -0.7291
 4472TIP3    H113422   5.653   3.961   3.659  0.1834 -0.9128  0.4233
 4472TIP3    H213423   5.651   3.841   3.566  1.4408 -0.8921  0.3548
 4473TIP3   OH213424   3.729   4.997   2.098 -0.5529  0.3073 -0.4239
 4473TIP3    H113425   3.777   4.979   2.179 -1.3104 -0.8995 -0.2279
 4473TIP3    H213426   3.730   4.914   2.050 -2.6846  0.1511 -0.2865
 4474TIP3   OH213427   4.462   3.004   0.463  0.3468 -0.2236 -0.4421
 4474TIP3    H113428   4.444   3.072   0.527  1.8099 -2.0896  2.1426
 4474TIP3    H213429   4.396   2.937   0.479 -0.3128 -0.0174 -2.0979
 4475TIP3   OH213430   1.591   1.935   2.526 -0.3562 -0.4702  0.2919
 4475TIP3    H113431   1.639   2.011   2.559 -0.3608 -0.8377  1.1960
 4475TIP3    H213432   1.544   1.968   2.449 -0.1711  0.3814  0.5252
 4476TIP3   OH213433   5.246   3.231   3.389  0.5430  0.4941  0.4336
 4476TIP3    H113434   5.284   3.221   3.302 -2.1497  0.2901 -0.8317
 4476TIP3    H213435   5.210   3.144   3.409 -2.9648  1.5862 -0.4499
 4477TIP3   OH213436   4.464   3.254   3.844 -0.2826 -0.3180 -0.4604
 4477TIP3    H113437   4.513   3.188   3.892 -1.4018  0.0780  1.3078
 4477TIP3    H213438   4.468   3.225   3.753 -0.7242 -2.8403  0.2495
 4478TIP3   OH213439   3.966   3.519   3.455  0.0106 -0.6748 -0.4892
 4478TIP3    H113440   3.973   3.540   3.362  2.5829  3.0551  0.3114
 4478TIP3    H213441   3.892   3.571   3.486  1.4831  1.2368  0.0767
 4479TIP3   OH213442   4.058   3.559   2.262 -0.4262  0.2109 -0.3307
 4479TIP3    H113443   4.045   3.566   2.167 -1.0989  0.7739 -0.1972
 4479TIP3    H213444   4.152   3.575   2.274 -0.2270 -0.4079 -0.9459
 4480TIP3   OH213445   5.609   2.669   3.295 -0.0429 -0.7959 -0.0082
 4480TIP3    H113446   5.635   2.602   3.232  1.3149 -0.7368  0.4567
 4480TIP3    H213447   5.691   2.712   3.319 -0.5684 -0.6416  1.6035
 4481TIP3   OH213448   1.253   2.345   3.567  0.5780 -0.4981 -0.2875
 4481TIP3    H113449   1.231   2.261   3.608 -0.7673  0.0257  0.1382
 4481TIP3    H213450   1.292   2.322   3.483  2.0529 -1.5750  0.6586
 4482TIP3   OH213451   0.494   3.556   2.635 -0.0229 -0.3266  0.0358
 4482TIP3    H113452   0.485   3.605   2.717  1.4972  0.3268 -0.1484
 4482TIP3    H213453   0.450   3.611   2.570 -0.2772 -0.3098  0.2215
 4483TIP3   OH213454   2.511   2.470   2.669 -0.1894  0.0463 -0.1372
 4483TIP3    H113455   2.577   2.540   2.670 -0.2290  0.1210  1.9366
 4483TIP3    H213456   2.441   2.503   2.726 -1.5313 -0.5173 -1.3930
 4484TIP3   OH213457   4.921   1.298   2.354  0.0814 -0.8325 -0.3310
 4484TIP3    H113458   4.871   1.235   2.302  0.9814 -0.2762 -1.9318
 4484TIP3    H213459   5.008   1.259   2.361  0.3761 -0.2154 -0.5118
 4485TIP3   OH213460   4.385   2.093   0.567  0.3498  0.0334 -1.0046
 4485TIP3    H113461   4.451   2.024   0.568  1.1203  0.7610  0.3928
 4485TIP3    H213462   4.435   2.174   0.564 -0.4968  0.5824 -0.5368
 4486TIP3   OH213463   3.805   0.028   2.098 -0.5180  0.4712  0.0891
 4486TIP3    H113464   3.876  -0.031   2.075  0.3344  1.2471  0.6602
 4486TIP3    H213465   3.734   0.004   2.039  0.0482 -0.6448 -0.1607
 4487TIP3   OH213466   3.620   4.449   0.239  0.1522 -0.2312 -0.1072
 4487TIP3    H113467   3.564   4.527   0.236  0.1148 -0.2081  0.7928
 4487TIP3    H213468   3.639   4.438   0.332  2.0220  0.0390 -0.4171
 4488TIP3   OH213469   2.490   3.840   3.892 -0.0086 -0.6190 -0.1180
 4488TIP3    H113470   2.411   3.891   3.879  0.0819 -0.5998 -0.5955
 4488TIP3    H213471   2.497   3.831   3.987 -0.4914 -0.4814 -0.0672
 4489TIP3   OH213472   0.719   2.960   0.516  0.7840 -0.3301  0.0738
 4489TIP3    H113473   0.780   2.964   0.443  0.2567 -0.0205 -0.3554
 4489TIP3    H213474   0.775   2.962   0.594  1.2723  1.1371 -0.2883
 4490TIP3   OH213475   2.486   2.733   0.139  0.6797  0.6510  0.5986
 4490TIP3    H113476   2.434   2.715   0.217  0.2362 -2.2511 -0.2343
 4490TIP3    H213477   2.577   2.733   0.171  0.7144 -2.8920  0.9362
 4491TIP3   OH213478   1.794   3.863   1.422  0.2217  0.3624  0.1811
 4491TIP3    H113479   1.819   3.931   1.359 -1.2973 -0.0665 -0.9547
 4491TIP3    H213480   1.710   3.831   1.389 -0.8558  0.4119  2.7122
 4492TIP3   OH213481   6.029   1.532   3.506 -0.1240 -0.1974  0.1882
 4492TIP3    H113482   6.125   1.534   3.516  0.0720  1.7758 -1.5422
 4492TIP3    H213483   6.001   1.621   3.525 -1.6738 -0.7849  0.8091
 4493TIP3   OH213484   0.676   4.614   1.668 -0.1243 -0.2685 -0.2429
 4493TIP3    H113485   0.710   4.666   1.595  0.9467 -0.2119  0.2794
 4493TIP3    H213486   0.699   4.664   1.746 -0.3070 -0.8611  0.1950
 4494TIP3   OH213487   5.299   0.709   1.820  0.0712 -0.2135 -0.2755
 4494TIP3    H113488   5.325   0.678   1.906  2.0287 -0.9339 -1.0751
 4494TIP3    H213489   5.255   0.635   1.779 -1.4533  0.3363  0.3065
 4495TIP3   OH213490   0.770   4.587   3.565 -0.1569 -0.5395  0.2650
 4495TIP3    H113491   0.809   4.593   3.478 -2.2802  0.3510 -0.6990
 4495TIP3    H213492   0.719   4.667   3.574 -2.8863 -2.2095  0.7849
 4496TIP3   OH213493   4.137   4.820   1.573 -0.2203 -0.0034  0.0334
 4496TIP3    H113494   4.206   4.754   1.567 -0.3643 -0.1600  0.0981
 4496TIP3    H213495   4.181   4.903   1.552 -0.0316 -0.1144 -0.0098
 4497TIP3   OH213496   3.662   0.076   0.197  0.1377  0.2770  0.4137
 4497TIP3    H113497   3.721   0.109   0.130 -0.1222 -1.1836 -0.5726
 4497TIP3    H213498   3.581   0.058   0.151 -0.4211  0.2974  1.3537
 4498TIP3   OH213499   2.074   4.150   1.386  0.3108 -0.0016 -0.3800
 4498TIP3    H113500   2.150   4.150   1.445  0.7176 -1.0298 -0.8878
 4498TIP3    H213501   2.021   4.224   1.416 -0.4223 -1.5373  2.4704
 4499TIP3   OH213502   0.129   5.691   1.812 -0.2049  0.0587  0.3598
 4499TIP3    H113503   0.217   5.654   1.810 -0.8361 -1.4722 -0.4542
 4499TIP3    H213504   0.075   5.623   1.852 -1.2489  0.4626 -0.3091
 4500TIP3   OH213505   1.818   5.237   2.856  0.3726 -0.5567  0.0635
 4500TIP3    H113506   1.837   5.183   2.933  1.2368 -0.1335  0.1586
 4500TIP3    H213507   1.834   5.326   2.885  1.4686 -0.4493 -0.8202
 4501TIP3   OH213508   3.263   3.356   0.138  0.4249  0.0278  0.6479
 4501TIP3    H113509   3.193   3.354   0.072  0.2344  2.4638  0.6663
 4501TIP3    H213510   3.343   3.369   0.087  0.5344 -0.1719  0.7703
 4502TIP3   OH213511   3.468   4.946   2.962 -0.3406 -0.1312 -0.0154
 4502TIP3    H113512   3.391   4.889   2.967  0.0915 -0.7852 -0.6688
 4502TIP3    H213513   3.509   4.939   3.048 -0.6823 -0.2381  0.1411
 4503TIP3   OH213514   5.533   1.527   3.780  0.4221 -0.4141 -0.3197
 4503TIP3    H113515   5.499   1.514   3.691 -0.1832 -1.0794 -0.0036
 4503TIP3    H213516   5.571   1.614   3.779  1.3205 -0.7928 -1.5199
 4504TIP3   OH213517   4.894   2.254   3.994 -0.1280  0.0288  0.7904
 4504TIP3    H113518   4.896   2.184   3.929  2.1389 -1.1596  2.0015
 4504TIP3    H213519   4.981   2.293   3.990 -0.8687  1.8345  1.1852
 4505TIP3   OH213520   5.343   5.883   0.776 -0.0988 -0.0168  0.0746
 4505TIP3    H113521   5.358   5.802   0.727 -2.4973 -0.0376 -0.7459
 4505TIP3    H213522   5.417   5.888   0.836  1.0820 -1.8452 -1.1073
 4506TIP3   OH213523   2.655   1.528   0.407 -0.2927  0.7450 -0.1408
 4506TIP3    H113524   2.596   1.604   0.404 -2.0274 -0.4557  1.1630
 4506TIP3    H213525   2.717   1.549   0.477 -1.0665  0.7774  0.5531
 4507TIP3   OH213526   1.445   5.603   0.993  0.2809 -0.0685  0.2890
 4507TIP3    H113527   1.514   5.668   1.007  0.5778 -0.4428  0.5784
 4507TIP3    H213528   1.363   5.651   1.008  0.4567  0.4544 -0.3539
 4508TIP3   OH213529   1.260   2.721   3.660 -0.1570 -0.3295  0.0717
 4508TIP3    H113530   1.306   2.693   3.739 -0.1931 -0.2680  0.1139
 4508TIP3    H213531   1.315   2.790   3.623 -1.1093  1.0118  1.0810
 4509TIP3   OH213532   3.133   3.666   1.320 -0.5601 -0.1439 -0.0999
 4509TIP3    H113533   3.206   3.612   1.288 -0.3710 -0.5800  1.0238
 4509TIP3    H213534   3.163   3.756   1.306 -1.8500 -0.1449 -4.2771
 4510TIP3   OH213535   0.838   2.509   0.728 -0.3014  0.0463 -0.1239
 4510TIP3    H113536   0.769   2.568   0.700 -0.6021 -0.0853  0.3292
 4510TIP3    H213537   0.919   2.554   0.706 -0.5299  0.1618 -0.7435
 4511TIP3   OH213538   4.786   5.379   1.283  0.2833 -0.4628  0.1353
 4511TIP3    H113539   4.751   5.390   1.372 -0.8120 -0.0018 -0.3345
 4511TIP3    H213540   4.710   5.390   1.226  1.3250  1.5744 -0.9948
 4512TIP3   OH213541   2.798   5.599   2.845  0.3634  0.0981  0.6203
 4512TIP3    H113542   2.739   5.674   2.848 -0.2361 -0.3339  0.0720
 4512TIP3    H213543   2.885   5.637   2.833  0.1769  0.7350  1.1976
 4513TIP3   OH213544   5.709   4.122   0.737 -0.0418  0.1610  0.1259
 4513TIP3    H113545   5.673   4.043   0.696  1.6879 -1.3660  1.3721
 4513TIP3    H213546   5.757   4.089   0.813  3.0172  2.1002 -0.7761
 4514TIP3   OH213547   5.087   5.970   3.644  0.2616 -0.1779 -0.4454
 4514TIP3    H113548   5.063   5.906   3.577 -0.1935  0.8837 -1.3363
 4514TIP3    H213549   5.159   5.929   3.691  0.4780 -1.0432 -1.4773
 4515TIP3   OH213550   0.486   3.416   1.399  0.3467  0.8317  0.5509
 4515TIP3    H113551   0.419   3.419   1.468  0.6550  0.5466  0.8667
 4515TIP3    H213552   0.569   3.424   1.445  0.5837  0.1306  0.2678
 4516TIP3   OH213553   4.209   3.895   0.698 -0.0199 -0.4136 -0.0269
 4516TIP3    H113554   4.280   3.858   0.646 -0.4616  0.0119 -0.9483
 4516TIP3    H213555   4.141   3.917   0.635 -1.3066 -1.5113  0.9129
 4517TIP3   OH213556   4.684   0.193   3.523 -0.1844 -0.4635 -0.3818
 4517TIP3    H113557   4.657   0.105   3.497 -1.3365 -1.0763  2.5465
 4517TIP3    H213558   4.725   0.182   3.609 -1.1828  1.9275  0.5127
 4518TIP3   OH213559   3.107   4.715   2.517  0.1025  0.3905  0.1298
 4518TIP3    H113560   3.138   4.788   2.463  0.8620 -0.4698 -0.6381
 4518TIP3    H213561   3.159   4.720   2.597  1.7158 -0.5361 -0.7969
 4519TIP3   OH213562   6.231   2.551   3.628  0.6175  0.2148  0.3599
 4519TIP3    H113563   6.236   2.505   3.712 -0.4472  0.1429  0.3908
 4519TIP3    H213564   6.219   2.481   3.563  4.0476 -0.0230 -0.2299
 4520TIP3   OH213565   3.712   1.742   2.962  0.5296 -0.0973 -1.0533
 4520TIP3    H113566   3.729   1.670   3.023 -1.7049 -0.4806 -0.8015
 4520TIP3    H213567   3.748   1.712   2.879  0.5826 -1.0651 -0.6982
 4521TIP3   OH213568   6.073   3.986   2.918 -0.4441  0.1078  0.1572
 4521TIP3    H113569   6.081   3.907   2.970  0.8351  0.3615  0.3876
 4521TIP3    H213570   6.141   4.044   2.953  0.0435  0.5084 -1.3894
 4522TIP3   OH213571   3.681   4.966   1.518  0.4604  0.4779 -0.0852
 4522TIP3    H113572   3.759   4.912   1.502  0.8190  1.6252 -2.6145
 4522TIP3    H213573   3.614   4.929   1.461 -0.7814 -0.2149  1.7389
 4523TIP3   OH213574   2.552   3.594   4.103  0.6696  0.2217 -0.0301
 4523TIP3    H113575   2.632   3.646   4.094  0.7247  0.0581 -0.5729
 4523TIP3    H213576   2.548   3.543   4.022 -1.2985  2.0927 -1.2405
 4524TIP3   OH213577   3.343   0.825   4.272  0.3299 -0.6910  0.0545
 4524TIP3    H113578   3.328   0.734   4.247  1.4489 -1.0623  0.6661
 4524TIP3    H213579   3.287   0.838   4.348  0.8367 -1.1456  0.5099
 4525TIP3   OH213580   2.062   5.331   2.517 -0.2756  0.1184 -0.4456
 4525TIP3    H113581   2.079   5.412   2.468 -1.7238 -0.1894 -1.4934
 4525TIP3    H213582   2.148   5.307   2.553  0.5010  1.2302 -1.4813
 4526TIP3   OH213583   4.802   0.596   4.361  0.1656  0.1315  0.4353
 4526TIP3    H113584   4.818   0.542   4.284 -0.6874  0.6913 -0.1582
 4526TIP3    H213585   4.889   0.612   4.398  0.7842  1.0937 -1.2870
 4527TIP3   OH213586   2.435   5.437   2.327 -0.4307  0.2673  0.5660
 4527TIP3    H113587   2.435   5.517   2.274  2.5289  0.7068  1.0617
 4527TIP3    H213588   2.478   5.372   2.271 -0.8502 -0.3734  0.9777
 4528TIP3   OH213589   0.622   4.886   4.875  0.0682  0.4233  0.0074
 4528TIP3    H113590   0.573   4.840   4.807 -0.0216  0.0551  0.3195
 4528TIP3    H213591   0.704   4.837   4.884 -0.6556 -0.5825  1.3932
 4529TIP3   OH213592   2.971   4.692   2.267 -0.2586  0.7087 -0.5263
 4529TIP3    H113593   2.884   4.721   2.292 -0.6997 -0.3724 -0.7517
 4529TIP3    H213594   2.992   4.622   2.329  1.0530  1.8956  0.4359
 4530TIP3   OH213595   4.871   3.254   0.191 -0.0740  0.0160  0.3269
 4530TIP3    H113596   4.965   3.242   0.179 -0.1846 -1.0840  0.4429
 4530TIP3    H213597   4.850   3.200   0.268 -0.5551  1.4184  1.2039
 4531TIP3   OH213598   5.824   5.010   0.853  0.3337 -1.1564 -0.0466
 4531TIP3    H113599   5.848   4.924   0.818  0.8041 -1.7596  1.6881
 4531TIP3    H213600   5.729   5.008   0.859  0.4413 -3.0297  3.3752
 4532TIP3   OH213601   4.500   2.682   2.658 -0.0840  0.0544 -0.6010
 4532TIP3    H113602   4.484   2.610   2.597 -3.1168 -0.7328  0.9580
 4532TIP3    H213603   4.433   2.673   2.725  0.3974  3.4444  0.5465
 4533TIP3   OH213604   3.324   3.528   3.145 -0.4961  0.5163 -0.0792
 4533TIP3    H113605   3.365   3.613   3.160  0.1676  0.7228 -2.6143
 4533TIP3    H213606   3.256   3.545   3.080 -1.4376 -0.6434  0.5700
 4534TIP3   OH213607   5.511   0.678   2.504  0.5410  0.1040 -0.6712
 4534TIP3    H113608   5.546   0.626   2.577  1.6997 -0.9732 -1.9198
 4534TIP3    H213609   5.454   0.617   2.457  0.3775  0.5622 -1.0682
 4535TIP3   OH213610   2.576   5.886   1.596 -0.6763  0.0837  0.6481
 4535TIP3    H113611   2.587   5.943   1.672 -1.0605  0.9722  0.0524
 4535TIP3    H213612   2.590   5.944   1.520 -0.6252 -0.7104  0.0360
 4536TIP3   OH213613   1.824   5.656   3.166 -0.2385 -0.0334 -0.1517
 4536TIP3    H113614   1.754   5.698   3.216 -1.4083 -1.1733 -0.7538
 4536TIP3    H213615   1.850   5.581   3.218  1.0751  0.7686  0.4018
 4537TIP3   OH213616   3.753   4.201   0.336  0.4653 -0.2936 -0.1514
 4537TIP3    H113617   3.691   4.266   0.304  2.1297  1.4313 -0.0664
 4537TIP3    H213618   3.792   4.165   0.257  2.0117  1.3854 -0.2223
 4538TIP3   OH213619   1.001   0.364   4.463 -0.2433  0.1223 -0.7353
 4538TIP3    H113620   1.013   0.326   4.551  1.0015 -0.2791 -1.0530
 4538TIP3    H213621   1.065   0.435   4.459 -0.3030  0.1458 -1.3149
 4539TIP3   OH213622   4.621   0.806   3.402 -0.1050  0.0422 -0.2845
 4539TIP3    H113623   4.572   0.844   3.475  0.0076  1.3421 -0.8595
 4539TIP3    H213624   4.693   0.758   3.444 -1.0342 -0.7066  0.5064
 4540TIP3   OH213625   5.576   2.665   1.965  0.5663  0.5523  0.1412
 4540TIP3    H113626   5.586   2.653   1.870 -0.5628 -0.0793  0.0864
 4540TIP3    H213627   5.665   2.683   1.996  0.7650  2.1171 -1.2112
 4541TIP3   OH213628   5.750   3.282   1.316  0.3328 -0.2221  0.6970
 4541TIP3    H113629   5.740   3.212   1.380 -0.9183 -0.0167  0.7506
 4541TIP3    H213630   5.701   3.252   1.239  0.5876  0.1740  0.3709
 4542TIP3   OH213631   5.455   5.161   3.328 -0.0189  0.0683  0.5864
 4542TIP3    H113632   5.398   5.184   3.401 -0.0877  0.5760  0.3738
 4542TIP3    H213633   5.399   5.113   3.267  0.2640 -1.2333  1.3033
 4543TIP3   OH213634   0.116   2.206   1.544 -0.3357  0.0554  0.0512
 4543TIP3    H113635   0.200   2.212   1.498 -0.4194 -1.1177 -0.2974
 4543TIP3    H213636   0.139   2.185   1.634 -0.2475 -0.2773 -0.0467
 4544TIP3   OH213637   2.726   2.136   1.918  0.8037 -0.4059 -0.2055
 4544TIP3    H113638   2.734   2.100   2.007  1.8310 -0.3178 -0.2585
 4544TIP3    H213639   2.761   2.068   1.861 -0.2900 -0.6620 -0.6046
 4545TIP3   OH213640   3.989   3.801   5.182  0.4483 -0.1135  0.0887
 4545TIP3    H113641   3.972   3.749   5.103  0.7303 -0.6402  0.3654
 4545TIP3    H213642   4.082   3.822   5.177  0.2901  0.5397 -0.1205
 4546TIP3   OH213643   3.623   5.354   3.917  0.1018 -0.1060  0.0640
 4546TIP3    H113644   3.614   5.432   3.972 -0.6493 -0.2541  0.1575
 4546TIP3    H213645   3.712   5.361   3.880 -0.1082  1.0156 -0.2744
 4547TIP3   OH213646   3.482   1.688   0.184 -0.7950 -0.2332  0.3366
 4547TIP3    H113647   3.515   1.619   0.127  0.5527 -0.5313  1.4371
 4547TIP3    H213648   3.402   1.652   0.223 -0.5484 -0.8493  0.2731
 4548TIP3   OH213649   1.214   2.246   5.064 -0.5368 -1.0478  0.0570
 4548TIP3    H113650   1.144   2.299   5.103 -1.0856 -1.7496  0.0313
 4548TIP3    H213651   1.295   2.281   5.104 -0.8964 -0.2537  0.1048
 4549TIP3   OH213652   4.765   5.931   0.903  0.3569  0.3537 -0.2451
 4549TIP3    H113653   4.754   5.932   0.998 -1.8709  0.7022 -0.4335
 4549TIP3    H213654   4.859   5.922   0.889  0.6799 -0.3029  1.9807
 4550TIP3   OH213655   2.854   2.959   2.939 -0.2217 -0.0865 -0.1208
 4550TIP3    H113656   2.800   2.929   3.012 -1.2787 -0.3038 -0.9757
 4550TIP3    H213657   2.943   2.931   2.962 -0.8586 -2.0725  0.0869
 4551TIP3   OH213658   1.759   0.806   0.267  0.4832 -0.1674 -0.0097
 4551TIP3    H113659   1.801   0.797   0.182  1.4635 -1.8073  0.6133
 4551TIP3    H213660   1.668   0.780   0.251  0.6236 -0.3255 -0.5762
 4552TIP3   OH213661   5.708   5.954   4.075  0.3748  0.3395  0.2819
 4552TIP3    H113662   5.622   5.947   4.116  0.9777 -0.1940  1.5269
 4552TIP3    H213663   5.690   5.972   3.983 -1.0358  2.3176  0.8726
 4553TIP3   OH213664   6.228   5.774   0.167 -0.1804 -0.0358 -0.5923
 4553TIP3    H113665   6.304   5.725   0.136 -0.7745 -1.0804 -0.4588
 4553TIP3    H213666   6.199   5.727   0.245  0.4317  1.7240  0.7686
 4554TIP3   OH213667   0.530   2.859   4.868  0.1653 -0.2151 -0.0359
 4554TIP3    H113668   0.534   2.949   4.901 -0.7725 -0.0528 -0.3308
 4554TIP3    H213669   0.498   2.808   4.942  0.2627 -0.2347 -0.0067
 4555TIP3   OH213670   1.624   3.115   1.360 -0.0489 -0.0368 -0.3702
 4555TIP3    H113671   1.678   3.161   1.296  1.0456  0.2837  0.7609
 4555TIP3    H213672   1.534   3.130   1.330  0.2988  2.3518 -0.3618
 4556TIP3   OH213673   1.045   0.071   2.796 -0.1533 -0.0225  0.4832
 4556TIP3    H113674   1.008   0.045   2.881  1.5246 -1.7494  0.7373
 4556TIP3    H213675   1.095   0.150   2.816 -0.9447  0.4279  0.7762
 4557TIP3   OH213676   5.470   4.380   2.946 -0.1145 -0.4658 -0.1336
 4557TIP3    H113677   5.496   4.397   3.037  2.1547 -0.6266 -0.6923
 4557TIP3    H213678   5.494   4.288   2.932  1.6218  0.1433 -1.4968
 4558TIP3   OH213679   1.823   3.350   4.320  0.1430  0.4005 -0.7021
 4558TIP3    H113680   1.740   3.377   4.280  0.0332 -1.4817 -1.8335
 4558TIP3    H213681   1.885   3.418   4.293 -0.5073  0.5556 -1.8938
 4559TIP3   OH213682   0.717   3.530   3.451 -0.2340 -0.1143 -0.3172
 4559TIP3    H113683   0.724   3.439   3.481  2.1161  0.0581 -0.1654
 4559TIP3    H213684   0.764   3.581   3.516  0.1281  0.9668 -1.3838
 4560TIP3   OH213685   3.870   5.494   4.065 -0.4472  0.4789 -0.2194
 4560TIP3    H113686   3.891   5.421   4.123 -0.9297 -0.2213 -0.9029
 4560TIP3    H213687   3.775   5.507   4.076 -0.2522  1.4541  0.4031
 4561TIP3   OH213688   2.342   1.816   2.862  0.2137  0.2354  0.1910
 4561TIP3    H113689   2.273   1.868   2.903  0.3820  1.0697 -0.5783
 4561TIP3    H213690   2.406   1.879   2.831  1.0071 -0.4943  0.2849
 4562TIP3   OH213691   5.993   1.369   2.751  0.1353  0.5303 -0.0066
 4562TIP3    H113692   6.008   1.326   2.667  0.6304  0.4144  0.1401
 4562TIP3    H213693   5.909   1.413   2.740 -0.3094 -0.3357 -0.2174
 4563TIP3   OH213694   5.082   0.615   2.049 -0.2454 -0.0606  0.0746
 4563TIP3    H113695   5.130   0.604   2.132  1.4656  1.7544 -0.5955
 4563TIP3    H213696   5.013   0.549   2.053  1.6870 -2.1664  1.5639
 4564TIP3   OH213697   2.898   1.826   1.521  0.1468  0.5465  0.3000
 4564TIP3    H113698   2.899   1.731   1.532 -0.0060  0.4358 -0.5736
 4564TIP3    H213699   2.980   1.845   1.476 -0.3012  0.7010 -0.4646
 4565TIP3   OH213700   4.365   2.094   0.930  0.5101  0.8988  0.0732
 4565TIP3    H113701   4.430   2.164   0.918 -0.4704  1.5750 -1.7618
 4565TIP3    H213702   4.286   2.127   0.886 -0.8766 -0.1971  1.6159
 4566TIP3   OH213703   4.122   2.662   4.112 -0.3012 -0.5167  0.1155
 4566TIP3    H113704   4.062   2.693   4.045 -0.5982 -1.3864 -0.0339
 4566TIP3    H213705   4.209   2.684   4.078 -0.2531 -3.2822 -1.8865
 4567TIP3   OH213706   2.286   3.597   2.300  0.5921 -0.4456  0.1783
 4567TIP3    H113707   2.275   3.691   2.314 -0.6684 -0.4145 -0.8449
 4567TIP3    H213708   2.203   3.559   2.327  0.7552 -1.1554 -0.2957
 4568TIP3   OH213709   6.131   1.254   2.936  0.0709  0.2171  0.0327
 4568TIP3    H113710   6.214   1.296   2.911  1.2993 -2.1965 -0.2578
 4568TIP3    H213711   6.066   1.294   2.879  1.3479  0.9001 -1.0159
 4569TIP3   OH213712   1.390   4.457   4.553  0.0971  0.2921  0.3617
 4569TIP3    H113713   1.464   4.494   4.601  0.1999 -0.0970  0.5061
 4569TIP3    H213714   1.332   4.532   4.538 -0.5759  0.2096  2.2676
 4570TIP3   OH213715   5.196   4.835   4.176 -0.6991 -0.2608 -0.1954
 4570TIP3    H113716   5.265   4.901   4.179 -1.1307  0.2531 -1.1121
 4570TIP3    H213717   5.114   4.885   4.176 -1.0263 -0.6949 -2.1361
 4571TIP3   OH213718   5.447   0.006   4.586 -0.5521 -0.1146  0.1054
 4571TIP3    H113719   5.398   0.009   4.668  0.1732 -1.3188  0.6170
 4571TIP3    H213720   5.527   0.055   4.605 -0.5267 -0.1228  0.0166
 4572TIP3   OH213721   0.467   3.095   4.955  0.5594 -0.0857 -0.0836
 4572TIP3    H113722   0.396   3.094   4.892 -0.5367  0.8006  1.0943
 4572TIP3    H213723   0.424   3.097   5.040  1.9964 -0.4388  0.6835
 4573TIP3   OH213724   1.484   3.614   3.942 -0.2301  0.5111  0.3773
 4573TIP3    H113725   1.501   3.631   3.849 -0.1392  0.9568  0.4724
 4573TIP3    H213726   1.556   3.558   3.969 -0.7027 -0.3019 -0.0198
 4574TIP3   OH213727   4.743   5.606   0.647 -0.3516  0.6239 -0.4646
 4574TIP3    H113728   4.665   5.576   0.599  0.3258 -0.8095 -0.7242
 4574TIP3    H213729   4.740   5.559   0.730  0.5913 -0.0002 -0.7645
 4575TIP3   OH213730   1.654   4.535   2.632  0.2981  0.1424 -0.1031
 4575TIP3    H113731   1.721   4.473   2.604 -0.3337  0.3830 -2.3490
 4575TIP3    H213732   1.578   4.481   2.654  0.6968 -0.0278  0.9206
 4576TIP3   OH213733   3.496   4.849   4.118 -0.3388  0.0315 -0.4187
 4576TIP3    H113734   3.487   4.939   4.089  2.1309  0.9550  1.3325
 4576TIP3    H213735   3.454   4.846   4.203 -1.2477 -0.7746 -0.8679
 4577TIP3   OH213736   1.605   3.776   0.539 -0.1390 -0.1792  0.6412
 4577TIP3    H113737   1.557   3.852   0.507  1.3591  0.9584  0.9879
 4577TIP3    H213738   1.669   3.757   0.471 -1.5235 -2.2003 -0.2007
 4578TIP3   OH213739   5.403   5.380   4.165  0.1985  0.4374 -0.5387
 4578TIP3    H113740   5.427   5.472   4.179 -0.5767  0.4681  0.6835
 4578TIP3    H213741   5.476   5.344   4.114  1.7162  1.1265  1.0427
 4579TIP3   OH213742   3.319   3.179   1.752 -0.0752  0.0480 -0.4940
 4579TIP3    H113743   3.268   3.222   1.683  0.0515  1.2080  0.1127
 4579TIP3    H213744   3.327   3.245   1.820 -0.1260 -1.0573  0.6100
 4580TIP3   OH213745   0.682   5.158   4.276 -0.4183  0.1951 -0.8332
 4580TIP3    H113746   0.650   5.107   4.350  0.8814 -0.1694 -0.5033
 4580TIP3    H213747   0.645   5.245   4.289 -2.4124 -0.5409 -1.2372
 4581TIP3   OH213748   1.064   5.076   3.121 -0.5733 -0.3680 -0.0514
 4581TIP3    H113749   1.056   5.002   3.060  0.3388 -0.7918  0.3241
 4581TIP3    H213750   1.111   5.040   3.196  0.8562  0.8471 -0.3174
 4582TIP3   OH213751   1.935   2.537   0.364  0.3040 -0.5326  0.3386
 4582TIP3    H113752   1.851   2.518   0.405  0.8858 -0.0130  1.8599
 4582TIP3    H213753   1.979   2.595   0.426  1.5905 -0.4002 -0.6553
 4583TIP3   OH213754   2.788   2.266   1.609 -0.2572  0.6106  0.2313
 4583TIP3    H113755   2.881   2.275   1.626 -0.2009 -0.2004  0.4150
 4583TIP3    H213756   2.783   2.227   1.522 -0.3860 -0.2764  0.6231
 4584TIP3   OH213757   2.595   4.501   3.666 -0.6315  0.0949  0.4548
 4584TIP3    H113758   2.656   4.442   3.710  0.4892  0.1735 -0.9387
 4584TIP3    H213759   2.517   4.500   3.722  0.1908 -0.9290  1.6495
 4585TIP3   OH213760   1.389   1.573   1.048  0.0938 -0.1352  0.2029
 4585TIP3    H113761   1.320   1.566   1.114  0.7264  1.2171  1.0417
 4585TIP3    H213762   1.342   1.591   0.966 -0.5530  1.9407  0.9611
 4586TIP3   OH213763   5.705   1.161   2.704  1.0092 -0.1015  0.0628
 4586TIP3    H113764   5.643   1.142   2.633  0.5402 -2.0814  0.9261
 4586TIP3    H213765   5.784   1.112   2.680  1.5063  0.7176  0.0050
 4587TIP3   OH213766   4.057   4.023   1.339  0.1087 -0.0390 -0.4790
 4587TIP3    H113767   3.969   3.992   1.356 -0.0480  1.0432  0.9019
 4587TIP3    H213768   4.056   4.115   1.367  1.0255  0.7130 -2.6825
 4588TIP3   OH213769   2.902   3.439   0.263 -0.7816 -0.0502 -0.2242
 4588TIP3    H113770   2.975   3.411   0.318 -0.1522 -0.0752 -1.0389
 4588TIP3    H213771   2.859   3.358   0.236 -0.6905 -0.0742 -0.2973
 4589TIP3   OH213772   0.778   3.248   3.228 -0.3304 -0.2473 -0.1719
 4589TIP3    H113773   0.716   3.310   3.190 -0.1081  0.5680  0.7810
 4589TIP3    H213774   0.790   3.277   3.318 -0.8310 -2.1358  0.5551
 4590TIP3   OH213775   1.768   5.843   0.281  0.0339 -0.1508  0.2404
 4590TIP3    H113776   1.739   5.760   0.319 -0.4275 -0.5157 -0.8530
 4590TIP3    H213777   1.735   5.910   0.340 -0.7356 -0.6898  0.4411
 4591TIP3   OH213778   2.126   2.096   3.185  0.2440 -0.5039  0.2327
 4591TIP3    H113779   2.062   2.151   3.231  0.3588  0.3844 -0.6490
 4591TIP3    H213780   2.129   2.016   3.238  0.4654  0.5181  1.8615
 4592TIP3   OH213781   6.129   5.008   4.825  0.2131  0.6401 -0.4043
 4592TIP3    H113782   6.124   4.919   4.860  0.0395  0.0750 -1.8085
 4592TIP3    H213783   6.157   4.997   4.735 -1.8470  1.8338 -1.2737
 4593TIP3   OH213784   6.074   3.801   5.128  0.3079  0.1719  0.1940
 4593TIP3    H113785   6.143   3.809   5.062 -0.5158  0.5570 -0.6353
 4593TIP3    H213786   6.043   3.890   5.142  1.2191  0.2693  1.9522
 4594TIP3   OH213787   4.803   4.499   2.792 -0.0503  0.2156 -0.2026
 4594TIP3    H113788   4.808   4.525   2.884  0.4101 -0.4570 -0.0275
 4594TIP3    H213789   4.863   4.425   2.785  0.6461  0.8547 -1.2600
 4595TIP3   OH213790   0.197   0.758   1.863 -0.2825  0.5506  0.2440
 4595TIP3    H113791   0.242   0.674   1.858 -0.3144  0.5907 -0.9217
 4595TIP3    H213792   0.104   0.736   1.854 -0.2701  0.7326 -0.3474
 4596TIP3   OH213793   1.837   5.414   0.561  0.1173  0.4111  0.4350
 4596TIP3    H113794   1.765   5.352   0.564  0.7380 -0.4373 -1.2552
 4596TIP3    H213795   1.909   5.370   0.605  0.5515 -0.0803 -0.7452
 4597TIP3   OH213796   2.822   4.609   0.788 -0.2392  0.2270 -0.4029
 4597TIP3    H113797   2.804   4.663   0.865  0.0229  0.0002 -0.1781
 4597TIP3    H213798   2.867   4.667   0.727 -0.4607  0.4118 -0.3907
 4598TIP3   OH213799   0.888   0.551   3.546 -0.1666 -0.0039  0.2301
 4598TIP3    H113800   0.836   0.565   3.467 -0.6869  2.9752  0.9662
 4598TIP3    H213801   0.977   0.575   3.522 -0.5949  2.4627  0.8313
 4599TIP3   OH213802   5.852   1.939   4.632  0.3816 -0.2462 -0.4262
 4599TIP3    H113803   5.810   1.903   4.710  0.3381 -0.2825 -0.4668
 4599TIP3    H213804   5.874   2.029   4.656 -2.0504  0.6359 -1.2743
 4600TIP3   OH213805   0.379   5.271   2.150 -0.0434  0.1401  0.9034
 4600TIP3    H113806   0.418   5.331   2.086 -2.8730  0.5843 -0.5627
 4600TIP3    H213807   0.391   5.184   2.111 -1.8282  0.4157 -0.4055
 4601TIP3   OH213808   5.275   3.415   0.735 -0.1243 -0.3555  0.4286
 4601TIP3    H113809   5.312   3.384   0.652  0.7246 -0.7748  0.9570
 4601TIP3    H213810   5.279   3.339   0.793  0.9615  0.4157  1.3997
 4602TIP3   OH213811   4.877   4.179   2.762 -0.8482 -0.2352  0.3014
 4602TIP3    H113812   4.949   4.147   2.817 -0.5268  1.7092  1.0983
 4602TIP3    H213813   4.799   4.166   2.816 -0.3740  3.1612  2.1192
 4603TIP3   OH213814   5.829   4.947   1.199 -0.2429 -0.8542 -0.3894
 4603TIP3    H113815   5.808   4.855   1.184  1.0616 -0.9702 -1.6858
 4603TIP3    H213816   5.900   4.966   1.138 -0.2371  0.9231  0.1152
 4604TIP3   OH213817   2.399   5.851   3.265  0.1300  0.2338  0.2271
 4604TIP3    H113818   2.318   5.840   3.316 -0.6972  2.6197 -0.4799
 4604TIP3    H213819   2.420   5.944   3.272  0.8632  0.3462 -2.4663
 4605TIP3   OH213820   4.399   3.983   3.437 -0.5082  0.0576  0.7271
 4605TIP3    H113821   4.450   3.910   3.402  0.8643  0.7137  1.2640
 4605TIP3    H213822   4.464   4.053   3.450 -1.5975  1.0025  1.2425
 4606TIP3   OH213823   3.943   4.490   4.577  0.2481  0.1368 -0.1283
 4606TIP3    H113824   3.858   4.533   4.588  0.5405  0.8005 -0.4134
 4606TIP3    H213825   4.006   4.562   4.581  0.6627 -0.0926 -1.9804
 4607TIP3   OH213826   3.921   5.423   3.055 -0.0141 -0.5052 -0.5823
 4607TIP3    H113827   4.014   5.406   3.068  0.1821  0.6700 -0.2682
 4607TIP3    H213828   3.884   5.424   3.143 -0.2486 -0.5752 -0.6774
 4608TIP3   OH213829   5.283   5.479   2.094  0.2998  0.0921  0.4603
 4608TIP3    H113830   5.341   5.475   2.018  2.0659  0.4439  1.7337
 4608TIP3    H213831   5.337   5.451   2.168 -1.2119  0.2543  1.7016
 4609TIP3   OH213832   4.692   4.841   2.559 -0.1923 -0.1176  0.1339
 4609TIP3    H113833   4.634   4.838   2.635 -0.1843  1.3077  0.2230
 4609TIP3    H213834   4.720   4.933   2.553  2.4592 -0.8074  0.4100
 4610TIP3   OH213835   4.066   1.684   2.284 -0.0643 -0.0096  0.3660
 4610TIP3    H113836   3.999   1.732   2.332 -1.2868  0.1850 -1.4351
 4610TIP3    H213837   4.017   1.630   2.222  1.3539 -2.1379  0.9908
 4611TIP3   OH213838   4.578   3.838   0.365  0.4396 -0.4319  0.1232
 4611TIP3    H113839   4.647   3.887   0.322  0.7166 -3.2538 -3.0249
 4611TIP3    H213840   4.496   3.875   0.332  0.4364  0.8351  1.4225
 4612TIP3   OH213841   0.065   4.819   1.286 -0.1015 -0.0702 -0.0166
 4612TIP3    H113842   0.085   4.897   1.235  1.5005  0.5785  1.4853
 4612TIP3    H213843  -0.028   4.826   1.305 -0.3877  0.4620 -1.5022
 4613TIP3   OH213844   5.888   4.028   0.912 -0.0719 -0.2778 -0.3373
 4613TIP3    H113845   5.980   4.049   0.904  0.1359 -1.6195 -1.9175
 4613TIP3    H213846   5.880   3.938   0.879 -1.7765 -0.5873  0.7463
 4614TIP3   OH213847   5.798   0.072   2.303  0.5277  0.2722 -0.1780
 4614TIP3    H113848   5.776   0.059   2.211 -0.2824  0.2889  0.0095
 4614TIP3    H213849   5.800   0.167   2.315 -2.3485  0.3371  0.4852
 4615TIP3   OH213850   1.379   5.805   2.788  1.1362  0.1025 -0.1450
 4615TIP3    H113851   1.450   5.821   2.850  1.2654 -1.5692  0.1894
 4615TIP3    H213852   1.304   5.781   2.843  0.1530  2.1919 -0.4647
 4616TIP3   OH213853   2.262   4.152   3.045  0.4263  0.2407 -0.4601
 4616TIP3    H113854   2.247   4.227   3.103  0.7755 -0.6910  0.8618
 4616TIP3    H213855   2.177   4.109   3.040  0.3944  0.3251 -0.6622
 4617TIP3   OH213856   4.914   4.139   1.055 -0.0868 -0.0116  0.1033
 4617TIP3    H113857   4.926   4.085   0.976  0.0643 -0.8868  0.7087
 4617TIP3    H213858   4.986   4.202   1.051 -0.3290  0.2284 -0.6761
 4618TIP3   OH213859   2.832   0.630   0.190  0.3774 -0.3341  0.3441
 4618TIP3    H113860   2.765   0.695   0.170  0.4707  1.0085  3.6800
 4618TIP3    H213861   2.913   0.680   0.194  1.3020 -1.5906 -1.7016
 4619TIP3   OH213862   4.470   1.004   1.210  0.1129 -0.6655 -0.2502
 4619TIP3    H113863   4.551   1.038   1.172  1.2488 -0.2092  2.3745
 4619TIP3    H213864   4.481   0.909   1.210 -1.3939 -1.0023 -4.0019
 4620TIP3   OH213865   2.376   0.423   4.841  0.6358  0.6918  0.1162
 4620TIP3    H113866   2.338   0.497   4.792 -0.8792  1.0407  1.7248
 4620TIP3    H213867   2.424   0.464   4.913 -1.1171  0.1545  1.6642
 4621TIP3   OH213868   4.500   2.490   1.723 -0.0255 -0.8366 -0.2951
 4621TIP3    H113869   4.505   2.556   1.653 -0.3388  0.5255  0.9243
 4621TIP3    H213870   4.589   2.485   1.757  0.4111 -2.3960 -1.5259
 4622TIP3   OH213871   1.823   2.465   4.964 -0.4757  0.1907 -0.2748
 4622TIP3    H113872   1.868   2.459   4.880 -0.5439  1.1601 -0.3909
 4622TIP3    H213873   1.845   2.384   5.009 -0.5895 -0.4286 -1.2981
 4623TIP3   OH213874   4.415   1.094   5.029 -0.0157  0.1508  0.1564
 4623TIP3    H113875   4.340   1.130   5.074 -0.3297 -1.4198  0.9795
 4623TIP3    H213876   4.465   1.048   5.097  0.3465 -0.9318 -0.7991
 4624TIP3   OH213877   4.852   5.441   3.974  0.1260  0.1955 -0.4678
 4624TIP3    H113878   4.844   5.433   3.879 -1.3519 -0.9581 -0.2731
 4624TIP3    H213879   4.821   5.529   3.993 -2.5496 -0.5944 -0.8049
 4625TIP3   OH213880   0.222   4.852   0.362  0.0037  0.0575  0.0006
 4625TIP3    H113881   0.270   4.811   0.290  0.2299 -0.7515  0.5947
 4625TIP3    H213882   0.289   4.899   0.412 -0.4251  2.2910 -1.3809
 4626TIP3   OH213883   2.258   1.021   1.092 -0.8685  0.0510  0.1878
 4626TIP3    H113884   2.343   0.977   1.090 -0.8388  0.1487 -0.6821
 4626TIP3    H213885   2.277   1.107   1.129 -0.5923  0.0779 -0.0164
 4627TIP3   OH213886   5.851   0.119   0.638  0.0640  0.0849  0.0279
 4627TIP3    H113887   5.901   0.071   0.572  0.3744  0.6378 -0.1474
 4627TIP3    H213888   5.912   0.129   0.711 -0.0763  0.0102  0.1561
 4628TIP3   OH213889   6.009   0.467   2.182 -0.4315  0.3395  0.3238
 4628TIP3    H113890   6.088   0.514   2.154 -0.3391  0.6747  1.1060
 4628TIP3    H213891   5.970   0.525   2.249 -2.0018  0.7634 -0.9077
 4629TIP3   OH213892   0.055   3.511   3.326  0.1867 -0.2492  0.0021
 4629TIP3    H113893   0.109   3.534   3.249  1.5735 -0.1483  0.9623
 4629TIP3    H213894   0.006   3.591   3.345  1.0566  0.2694  0.1660
 4630TIP3   OH213895   4.543   4.044   4.125 -0.2679  0.2802 -0.5166
 4630TIP3    H113896   4.622   4.020   4.077  1.2507 -1.8918  2.6528
 4630TIP3    H213897   4.558   4.134   4.154 -0.8764  1.3355 -3.2318
 4631TIP3   OH213898   2.462   0.104   1.932  0.7815 -0.3465 -0.0798
 4631TIP3    H113899   2.437   0.118   1.841 -0.6353  1.2980  0.5046
 4631TIP3    H213900   2.557   0.095   1.930  0.9666  1.4722 -1.5369
 4632TIP3   OH213901   5.264   5.856   3.811  0.6131  0.2563  0.4316
 4632TIP3    H113902   5.356   5.830   3.803  0.6313  0.2398  0.6838
 4632TIP3    H213903   5.246   5.850   3.905  0.6571  1.3129  0.5148
 4633TIP3   OH213904   1.614   3.408   4.801 -0.5221  0.1826 -0.2126
 4633TIP3    H113905   1.690   3.455   4.766 -0.1324  0.6519  1.1764
 4633TIP3    H213906   1.555   3.477   4.831 -1.0429 -0.1927 -0.3641
 4634TIP3   OH213907   6.324   0.816   4.923  0.1197  0.6114  0.0857
 4634TIP3    H113908   6.265   0.885   4.892  1.0934  1.5871  0.3542
 4634TIP3    H213909   6.330   0.831   5.017  0.1387 -0.0085  0.1845
 4635TIP3   OH213910   1.697   1.385   1.682 -0.7092 -0.8804  0.3563
 4635TIP3    H113911   1.747   1.388   1.764  0.7896 -1.7176 -0.4811
 4635TIP3    H213912   1.737   1.454   1.628 -2.0333  0.0202  0.4812
 4636TIP3   OH213913   5.210   0.060   3.548 -0.0298 -0.1143  0.2293
 4636TIP3    H113914   5.126   0.039   3.506 -0.3553  2.0865 -0.3971
 4636TIP3    H213915   5.188   0.077   3.639 -0.5891  1.8284 -0.2136
 4637TIP3   OH213916   4.794   2.115   2.222 -0.3912 -0.1335  0.6457
 4637TIP3    H113917   4.746   2.119   2.305 -1.1134  1.5033  0.1791
 4637TIP3    H213918   4.869   2.174   2.236  0.2250 -0.8715  0.5591
 4638TIP3   OH213919   5.712   2.250   0.942  0.3791 -0.4566 -0.0541
 4638TIP3    H113920   5.766   2.298   0.879 -0.4267 -1.3251 -1.4730
 4638TIP3    H213921   5.772   2.186   0.980  0.6628 -0.6168 -0.7389
 4639TIP3   OH213922   0.846   3.163   2.298 -0.3222 -0.0929 -0.3262
 4639TIP3    H113923   0.861   3.212   2.380  0.9409 -2.0353  0.6713
 4639TIP3    H213924   0.785   3.094   2.323  1.6467 -1.9756 -0.4339
 4640TIP3   OH213925   1.401   2.536   1.648 -0.0322 -0.4443 -0.0775
 4640TIP3    H113926   1.361   2.623   1.649  1.0860  0.0796 -0.1175
 4640TIP3    H213927   1.482   2.547   1.598  0.4625 -1.3518  0.5009
 4641TIP3   OH213928   3.262   0.229   4.376 -0.5359  0.6309 -0.6002
 4641TIP3    H113929   3.222   0.156   4.328  2.5980 -1.8958  0.2203
 4641TIP3    H213930   3.335   0.256   4.321  1.1601 -0.1326  1.1695
 4642TIP3   OH213931   0.725   4.891   0.991 -0.1460 -0.1327  0.1948
 4642TIP3    H113932   0.762   4.978   0.982  0.2590 -0.3338 -0.1449
 4642TIP3    H213933   0.794   4.832   0.959 -0.8457 -0.4909 -0.7122
 4643TIP3   OH213934   1.507   2.095   3.057  0.5975 -0.1081 -0.2660
 4643TIP3    H113935   1.429   2.074   3.107  0.5073 -1.7272 -1.0248
 4643TIP3    H213936   1.484   2.174   3.008 -0.4698 -0.4318 -0.3031
 4644TIP3   OH213937   0.911   3.716   2.799 -0.3336 -0.7067 -0.4146
 4644TIP3    H113938   0.838   3.680   2.749 -1.4917 -0.9592  1.3742
 4644TIP3    H213939   0.989   3.680   2.757 -1.1576  0.2519 -2.8986
 4645TIP3   OH213940   1.098   5.219   5.133  0.0832 -0.5223 -0.0405
 4645TIP3    H113941   1.144   5.240   5.214  0.8168  0.4699 -0.6820
 4645TIP3    H213942   1.027   5.161   5.159  0.5716 -0.5686  1.2403
 4646TIP3   OH213943   0.988   0.864   2.378 -0.3651  0.4266  0.3210
 4646TIP3    H113944   1.040   0.913   2.442 -0.5904  1.0319  0.0425
 4646TIP3    H213945   0.934   0.806   2.431  1.0907 -0.7413  0.5992
 4647TIP3   OH213946   5.036   5.155   3.714  0.3973 -0.0965 -0.1219
 4647TIP3    H113947   4.998   5.068   3.719  0.2148  0.0559  1.6801
 4647TIP3    H213948   4.967   5.210   3.677  0.0962 -0.4785 -0.1249
 4648TIP3   OH213949   4.896   2.056   2.542  0.2701  0.2542  0.3613
 4648TIP3    H113950   4.895   2.151   2.533  3.2098  0.4685  1.2306
 4648TIP3    H213951   4.832   2.038   2.611 -0.3368  1.5942  0.1788
 4649TIP3   OH213952   1.986   0.351   0.182 -0.5707 -0.1770 -0.2495
 4649TIP3    H113953   1.999   0.258   0.161  0.9918 -0.1553  0.4855
 4649TIP3    H213954   2.047   0.397   0.125 -0.3339  0.2856  0.3683
 4650TIP3   OH213955   0.280   4.809   1.727  0.5186  0.4130 -0.2534
 4650TIP3    H113956   0.228   4.781   1.652  0.3996  0.6314 -0.2528
 4650TIP3    H213957   0.242   4.894   1.752  0.1986  0.0882  0.3932
 4651TIP3   OH213958   0.002   3.221   3.671 -0.3060 -0.1305  0.2965
 4651TIP3    H113959   0.021   3.130   3.693  0.6764  0.0810  0.4089
 4651TIP3    H213960   0.047   3.272   3.739 -1.2113  0.4373  0.4907
 4652TIP3   OH213961   3.948   1.523   1.305 -0.5225  0.0967  0.2231
 4652TIP3    H113962   3.896   1.568   1.238 -2.3038 -1.4215  0.5004
 4652TIP3    H213963   3.990   1.451   1.259 -0.5720 -0.0808  0.4535
 4653TIP3   OH213964   5.080   0.853   0.656  0.8909  0.2191 -0.3194
 4653TIP3    H113965   5.024   0.906   0.600  0.4238 -0.0277 -0.0853
 4653TIP3    H213966   5.166   0.895   0.649  0.1884  2.0353  1.1559
 4654TIP3   OH213967   1.406   3.077   0.997  0.4503 -0.3018  0.6140
 4654TIP3    H113968   1.364   2.992   1.005 -0.5340  0.2719  1.8369
 4654TIP3    H213969   1.499   3.059   1.007  0.4289 -1.4335 -0.8838
 4655TIP3   OH213970   2.662   0.843   0.096  0.3095 -0.0712 -0.1966
 4655TIP3    H113971   2.572   0.860   0.068  0.3941 -1.0286 -1.1246
 4655TIP3    H213972   2.708   0.925   0.080  0.0548 -0.1947 -1.6911
 4656TIP3   OH213973   0.890   3.705   0.940 -0.0713 -0.0807 -0.1267
 4656TIP3    H113974   0.832   3.662   1.002 -0.8427  1.2160  0.1018
 4656TIP3    H213975   0.944   3.635   0.904 -1.7438 -1.3345 -0.3151
 4657TIP3   OH213976   1.516   2.116   4.252 -0.0336 -0.2739  0.2747
 4657TIP3    H113977   1.474   2.031   4.267 -0.0486 -0.4653 -0.7298
 4657TIP3    H213978   1.510   2.129   4.157 -0.3985  1.0480  0.4562
 4658TIP3   OH213979   0.577   4.121   0.117  0.5391  0.0600 -0.5881
 4658TIP3    H113980   0.574   4.179   0.041  0.3272  0.9738  0.0936
 4658TIP3    H213981   0.667   4.126   0.148  0.9178 -1.2058 -1.4339
 4659TIP3   OH213982   2.723   4.473   2.978  1.1810  0.1962 -0.1529
 4659TIP3    H113983   2.718   4.382   3.005  1.0284  0.5397  1.0074
 4659TIP3    H213984   2.635   4.508   2.995  1.1394  0.4748 -0.9130
 4660TIP3   OH213985   1.308   4.819   4.161 -0.4523 -0.2476 -0.2426
 4660TIP3    H113986   1.373   4.769   4.111 -1.6571 -1.2867 -0.8237
 4660TIP3    H213987   1.288   4.764   4.236  1.7853  1.5642  1.8312
 4661TIP3   OH213988   4.595   0.105   0.035 -0.3566  0.2900  0.6668
 4661TIP3    H113989   4.681   0.142   0.056 -0.5187  0.9061  0.2637
 4661TIP3    H213990   4.536   0.145   0.099 -0.4342  0.3032  0.5876
 4662TIP3   OH213991   6.107   1.323   1.055 -0.2687 -0.6881 -0.0000
 4662TIP3    H113992   6.056   1.311   1.135  1.2286 -1.4298  0.8891
 4662TIP3    H213993   6.053   1.284   0.986 -0.9836 -1.2690  0.8681
 4663TIP3   OH213994   3.994   4.228   4.626  0.2756 -0.1604 -0.2619
 4663TIP3    H113995   4.005   4.189   4.539 -0.1969  0.3850 -0.5751
 4663TIP3    H213996   3.967   4.318   4.608 -0.0057 -0.0990  0.4514
 4664TIP3   OH213997   3.960   0.111   3.242 -0.6022  0.1135 -0.6395
 4664TIP3    H113998   3.963   0.104   3.337 -0.9784  0.1503 -0.6233
 4664TIP3    H213999   4.032   0.170   3.220 -1.1353  0.9051 -0.2952
 4665TIP3   OH214000   3.718   0.998   0.144  0.1459  0.1519  0.5709
 4665TIP3    H114001   3.644   0.980   0.086  1.4825 -1.2437 -0.7774
 4665TIP3    H214002   3.725   0.920   0.199  1.3245 -0.2672 -0.1395
 4666TIP3   OH214003   1.169   2.492   4.348 -0.3884 -0.7776 -0.0669
 4666TIP3    H114004   1.252   2.458   4.380 -1.6736 -3.7849  0.4223
 4666TIP3    H214005   1.117   2.508   4.426 -1.0039 -1.0532 -0.4063
 4667TIP3   OH214006   3.579   4.227   1.006  0.3788  0.0339 -0.4304
 4667TIP3    H114007   3.515   4.228   0.935  0.9442 -0.7903 -0.9736
 4667TIP3    H214008   3.662   4.248   0.963  0.6197  0.1506  0.0922
 4668TIP3   OH214009   5.464   4.535   3.488 -0.3924 -0.5100  0.1837
 4668TIP3    H114010   5.402   4.510   3.557 -0.9289  2.0670  0.7123
 4668TIP3    H214011   5.452   4.629   3.478  1.8380 -0.3261 -1.3331
 4669TIP3   OH214012   1.180   3.233   3.452 -0.1573  0.0400  0.5548
 4669TIP3    H114013   1.244   3.302   3.436 -1.9750  1.4398 -1.3483
 4669TIP3    H214014   1.129   3.265   3.527 -1.2795  1.0720 -0.5978
 4670TIP3   OH214015   5.864   5.350   2.201 -0.4017  0.1339  0.3173
 4670TIP3    H114016   5.838   5.321   2.288 -0.0978  0.1360  0.4093
 4670TIP3    H214017   5.958   5.334   2.197 -0.5882 -0.8713 -0.4011
 4671TIP3   OH214018   3.975   4.967   4.494 -0.7460 -0.1648 -0.4275
 4671TIP3    H114019   3.893   4.959   4.544  0.0496  0.4242  1.0434
 4671TIP3    H214020   3.976   4.889   4.438 -1.9323 -0.5908  0.1002
 4672TIP3   OH214021   6.199   5.015   1.807  0.5381 -0.2230 -0.1977
 4672TIP3    H114022   6.283   4.973   1.826  0.1933 -0.2757  1.2871
 4672TIP3    H214023   6.192   5.085   1.872  1.1887  2.3546 -2.6882
 4673TIP3   OH214024   3.582   2.143   1.284  0.3140 -0.4967 -0.4178
 4673TIP3    H114025   3.640   2.153   1.360 -0.8365 -0.7740  0.5127
 4673TIP3    H214026   3.639   2.160   1.209  1.4503 -0.0966  0.5008
 4674TIP3   OH214027   5.575   2.166   1.604 -0.0206 -0.5816 -0.1519
 4674TIP3    H114028   5.482   2.189   1.606  0.2897  0.7676 -0.1789
 4674TIP3    H214029   5.591   2.138   1.514 -0.3839 -0.7163 -0.1757
 4675TIP3   OH214030   1.792   4.969   3.277 -0.5349  0.6205  0.2097
 4675TIP3    H114031   1.705   4.930   3.271  0.3721 -1.3320 -1.9963
 4675TIP3    H214032   1.823   4.945   3.364 -1.3809 -0.5300  0.2204
 4676TIP3   OH214033   2.930   3.501   0.705  0.2721  0.1928  0.2342
 4676TIP3    H114034   2.848   3.495   0.754  1.4174  0.7010  2.3928
 4676TIP3    H214035   2.951   3.410   0.683 -0.3154 -0.0580  0.6605
 4677TIP3   OH214036   1.022   4.880   1.973 -0.4067 -0.9731  0.0553
 4677TIP3    H114037   1.108   4.839   1.974 -0.9157 -2.1390 -0.8123
 4677TIP3    H214038   0.968   4.825   2.030 -0.4882 -0.0022  0.9389
 4678TIP3   OH214039   4.085   3.399   4.193  0.1827 -0.0910  0.7188
 4678TIP3    H114040   4.016   3.388   4.258  0.7854 -1.4678  1.1767
 4678TIP3    H214041   4.159   3.350   4.228  1.1918  0.8213 -0.0635
 4679TIP3   OH214042   1.582   0.034   3.204 -0.9374  0.7811 -0.7050
 4679TIP3    H114043   1.639  -0.043   3.202 -1.6630  0.0040  2.3611
 4679TIP3    H214044   1.642   0.108   3.192  0.2426 -0.1400 -0.7021
 4680TIP3   OH214045   1.664   3.252   5.081  0.0659 -0.4978 -0.4906
 4680TIP3    H114046   1.598   3.264   5.013  0.5924 -0.5016 -1.0160
 4680TIP3    H214047   1.623   3.285   5.161 -0.5195 -0.3867 -0.8314
 4681TIP3   OH214048   2.177   4.234   4.560  0.4110  0.1415 -0.5546
 4681TIP3    H114049   2.150   4.273   4.477 -1.3737 -1.2416 -0.6996
 4681TIP3    H214050   2.109   4.261   4.622 -1.5299 -3.3328 -0.8862
 4682TIP3   OH214051   1.710   1.916   2.922 -0.1943  0.3527 -0.1395
 4682TIP3    H114052   1.779   1.931   2.988  1.0655 -2.1141 -0.7819
 4682TIP3    H214053   1.636   1.968   2.953  1.3981  1.8069  1.4823
 4683TIP3   OH214054   0.460   1.746   4.048 -0.5220  0.2083 -0.4559
 4683TIP3    H114055   0.430   1.754   3.957 -1.7398  1.8042  0.0322
 4683TIP3    H214056   0.492   1.656   4.055 -2.3816 -0.6419 -1.8986
 4684TIP3   OH214057   3.211   3.658   2.366 -0.5105  0.0463 -0.0788
 4684TIP3    H114058   3.275   3.728   2.381  0.3211 -0.6329 -0.3770
 4684TIP3    H214059   3.187   3.667   2.274 -1.7830  1.0524  0.3226
 4685TIP3   OH214060   4.136   1.125   3.154 -0.2956 -0.1516 -0.5058
 4685TIP3    H114061   4.182   1.097   3.233  1.6971  0.2083 -1.4865
 4685TIP3    H214062   4.188   1.197   3.119 -1.2582 -0.1333 -2.0139
 4686TIP3   OH214063   1.796   4.189   5.034  0.2558  0.6091 -0.3856
 4686TIP3    H114064   1.704   4.210   5.054  0.3469  0.4126  0.2913
 4686TIP3    H214065   1.846   4.241   5.098  0.5452 -0.4429  0.2751
 4687TIP3   OH214066   5.421   1.894   0.490  0.0736 -0.1315  0.1724
 4687TIP3    H114067   5.466   1.853   0.563 -1.0550 -0.3208  0.7966
 4687TIP3    H214068   5.329   1.896   0.517 -0.0630  1.8445 -0.2860
 4688TIP3   OH214069   2.020   0.807   0.946  0.0441  0.1903  0.4336
 4688TIP3    H114070   1.939   0.807   0.997  0.9006 -1.2395  1.8935
 4688TIP3    H214071   2.015   0.727   0.894  0.2795  0.3663  0.1392
 4689TIP3   OH214072   4.617   4.408   3.091 -0.1144 -0.0344  0.0210
 4689TIP3    H114073   4.549   4.400   3.024 -1.0249  0.0378  0.9133
 4689TIP3    H214074   4.669   4.484   3.065 -0.1120 -0.3452 -0.8970
 4690TIP3   OH214075   3.502   4.626   2.943  0.3500 -0.0858 -0.1830
 4690TIP3    H114076   3.421   4.677   2.949  1.7450  2.5098 -1.7178
 4690TIP3    H214077   3.536   4.626   3.033  0.1295  1.4855 -0.0661
 4691TIP3   OH214078   1.088   3.797   1.840 -0.0999 -0.2774  0.2440
 4691TIP3    H114079   1.053   3.804   1.929  1.6950  0.3069  0.9488
 4691TIP3    H214080   1.012   3.780   1.785 -1.3889  0.4181  1.7547
 4692TIP3   OH214081   5.585   1.989   2.814 -0.2469 -0.4351  0.1210
 4692TIP3    H114082   5.610   1.898   2.798 -0.5160 -0.1579 -2.2831
 4692TIP3    H214083   5.517   1.983   2.881 -0.1928 -2.0012  0.0832
 4693TIP3   OH214084   0.514   5.791   2.789  0.4631  0.2036  0.0437
 4693TIP3    H114085   0.576   5.865   2.791 -0.5986  1.1254  0.1660
 4693TIP3    H214086   0.468   5.802   2.706 -0.0985  0.0277  0.3272
 4694TIP3   OH214087   1.345   3.711   3.228 -0.1363  0.1830 -0.7340
 4694TIP3    H114088   1.381   3.723   3.140  3.8811 -3.7365  0.0310
 4694TIP3    H214089   1.396   3.771   3.283 -0.2191  0.1353 -0.6050
 4695TIP3   OH214090   0.170   0.293   2.076 -0.0779  0.0720 -0.1179
 4695TIP3    H114091   0.220   0.211   2.075  0.3188  0.3092 -1.5007
 4695TIP3    H214092   0.237   0.361   2.068 -0.5263  0.4585 -0.5474
 4696TIP3   OH214093   6.123   3.363   1.023 -1.0595  0.1005 -0.2910
 4696TIP3    H114094   6.065   3.422   0.976  0.8832  0.9513 -1.7431
 4696TIP3    H214095   6.114   3.389   1.115 -2.7433  0.3652 -0.4971
 4697TIP3   OH214096   1.029   2.565   3.691 -0.3714  0.3093 -0.7438
 4697TIP3    H114097   1.099   2.625   3.668 -1.2810  0.7566 -2.5778
 4697TIP3    H214098   1.023   2.505   3.616 -2.1606  0.5149 -0.8038
 4698TIP3   OH214099   3.251   1.600   0.349 -0.2807 -0.0943 -0.1546
 4698TIP3    H114100   3.157   1.597   0.365 -0.6524  1.2357 -1.8057
 4698TIP3    H214101   3.286   1.646   0.425 -0.9162 -0.7771  0.5720
 4699TIP3   OH214102   2.879   3.556   2.114 -0.0824  0.3910  0.2494
 4699TIP3    H114103   2.877   3.650   2.130  1.2583  0.4773  0.0247
 4699TIP3    H214104   2.897   3.548   2.020 -1.1352 -0.1008  0.0776
 4700TIP3   OH214105   1.862   5.683   4.453  0.4283 -0.4589  0.3216
 4700TIP3    H114106   1.796   5.743   4.417  1.2994 -0.4803 -1.4320
 4700TIP3    H214107   1.942   5.735   4.456  1.0880 -1.3447 -0.7834
 4701TIP3   OH214108   3.136   0.270   0.370 -0.7670 -0.0314 -0.2697
 4701TIP3    H114109   3.205   0.240   0.429 -1.0556  1.3343  0.7977
 4701TIP3    H214110   3.101   0.349   0.411 -2.8403 -0.5686 -0.8747
 4702TIP3   OH214111   3.453   0.046   3.013  0.2650  0.6847  0.5735
 4702TIP3    H114112   3.545   0.021   3.014  0.1190 -0.0306 -1.1250
 4702TIP3    H214113   3.405  -0.036   3.025 -0.1628  0.9420  0.6783
 4703TIP3   OH214114   2.368   0.660   0.158 -0.4983 -0.5241  0.2700
 4703TIP3    H114115   2.436   0.595   0.175  0.7975  0.8890  0.6761
 4703TIP3    H214116   2.370   0.672   0.063 -0.4863 -0.8064  0.2334
 4704TIP3   OH214117   4.231   1.295   2.010 -0.1116 -0.0182  0.0956
 4704TIP3    H114118   4.168   1.224   2.001 -0.8851  0.7852 -1.1584
 4704TIP3    H214119   4.247   1.324   1.920  1.0289  0.6823  0.4987
 4705TIP3   OH214120   4.732   1.478   1.331  0.4643  0.2205 -0.5245
 4705TIP3    H114121   4.816   1.524   1.325  0.7876 -0.2487  0.2902
 4705TIP3    H214122   4.666   1.547   1.320  0.9407  0.5347 -1.5821
 4706TIP3   OH214123   2.726   4.244   4.077  0.2655 -0.0468 -0.0083
 4706TIP3    H114124   2.670   4.315   4.108 -0.3366 -0.0206 -1.0820
 4706TIP3    H214125   2.665   4.174   4.053  0.7357 -0.2728 -0.5652
 4707TIP3   OH214126   3.731   2.526   0.467  0.3535 -0.0302  0.0351
 4707TIP3    H114127   3.650   2.519   0.519 -0.3640  1.1169 -0.8794
 4707TIP3    H214128   3.800   2.495   0.526 -1.0412 -4.2818 -0.1747
 4708TIP3   OH214129   1.071   0.395   0.571  0.5435 -0.3013  0.2561
 4708TIP3    H114130   0.984   0.417   0.536  0.9914 -0.5275 -1.0696
 4708TIP3    H214131   1.064   0.302   0.593 -0.1834  0.1704  2.2309
 4709TIP3   OH214132   1.348   4.059   2.409  0.3010 -0.2495 -0.3336
 4709TIP3    H114133   1.340   4.096   2.322  1.6507  1.3450  0.1544
 4709TIP3    H214134   1.438   4.025   2.413 -0.5403 -2.6945 -0.3833
 4710TIP3   OH214135   5.247   3.998   3.397 -0.0921 -0.3055 -0.2369
 4710TIP3    H114136   5.221   4.035   3.312 -0.2028  0.0055 -0.0666
 4710TIP3    H214137   5.240   3.903   3.384 -2.1347 -0.2308  0.0466
 4711TIP3   OH214138   5.170   1.686   3.392 -0.1538  0.0398  0.3933
 4711TIP3    H114139   5.149   1.698   3.299 -1.3725  1.6297  0.8403
 4711TIP3    H214140   5.146   1.596   3.411 -0.4133 -0.1346 -0.7037
 4712TIP3   OH214141   1.693   4.472   3.968  0.0207 -0.4513  0.1959
 4712TIP3    H114142   1.707   4.401   4.030 -0.3524  1.1383  2.1972
 4712TIP3    H214143   1.764   4.534   3.985 -0.6416  0.4706 -0.2656
 4713TIP3   OH214144   5.644   1.572   5.046  0.7592  0.2202  0.8218
 4713TIP3    H114145   5.702   1.544   4.975 -1.3732  0.4786 -1.1447
 4713TIP3    H214146   5.676   1.527   5.124  1.6508 -2.1467 -0.8218
 4714TIP3   OH214147   2.972   0.020   3.292  0.2155  0.2450 -0.6790
 4714TIP3    H114148   2.936   0.017   3.203 -0.6955  2.0950 -0.4017
 4714TIP3    H214149   2.918   0.083   3.338  1.5231  0.3191  0.8279
 4715TIP3   OH214150   5.073   2.236   4.401 -0.4766 -0.1966 -0.0333
 4715TIP3    H114151   5.165   2.211   4.391 -0.2335  0.3064  0.9006
 4715TIP3    H214152   5.026   2.174   4.345  0.3746 -0.8308 -0.0757
 4716TIP3   OH214153   1.476   3.040   2.193 -0.6558  0.0585 -0.1771
 4716TIP3    H114154   1.557   3.065   2.150  0.1066  2.1310  2.1806
 4716TIP3    H214155   1.500   3.031   2.286 -2.8346 -0.7305  0.3716
 4717TIP3   OH214156   1.991   4.426   2.318 -0.2900  0.4381  0.5691
 4717TIP3    H114157   2.051   4.427   2.244 -0.5564  1.1540  0.3524
 4717TIP3    H214158   1.921   4.487   2.292 -0.3932  0.6778  1.3987
 4718TIP3   OH214159   1.437   4.570   0.865  0.2523  0.0148 -0.0382
 4718TIP3    H114160   1.408   4.564   0.956 -0.0612  1.0707 -0.0580
 4718TIP3    H214161   1.409   4.487   0.826 -1.6923  0.4894  0.2536
 4719TIP3   OH214162   2.396   0.060   4.649  0.3929  0.4955  0.2372
 4719TIP3    H114163   2.337  -0.009   4.678  2.3154 -1.0866  0.5725
 4719TIP3    H214164   2.338   0.126   4.609 -1.5074 -1.2622 -0.0709
 4720TIP3   OH214165   0.461   3.825   2.216 -0.2056 -0.2353  0.0719
 4720TIP3    H114166   0.491   3.785   2.134 -0.1125  1.6226 -0.8325
 4720TIP3    H214167   0.446   3.917   2.194 -0.1406  0.3149  2.1600
 4721TIP3   OH214168   1.053   4.542   4.997 -0.2949  0.2671  0.1975
 4721TIP3    H114169   1.094   4.492   4.927  0.4775  1.4505 -0.2412
 4721TIP3    H214170   1.124   4.560   5.059 -0.4557  1.0718  0.1702
 4722TIP3   OH214171   4.791   2.795   1.442 -0.0502 -0.5604  0.1687
 4722TIP3    H114172   4.817   2.884   1.463 -0.4171 -0.4612  0.2107
 4722TIP3    H214173   4.806   2.787   1.347 -0.3977 -0.3204  0.0908
 4723TIP3   OH214174   4.594   5.117   2.366  0.3955 -0.2193 -0.2937
 4723TIP3    H114175   4.683   5.121   2.401  0.2670 -1.2369  0.1911
 4723TIP3    H214176   4.539   5.099   2.443  0.0323 -1.8087 -0.8908
 4724TIP3   OH214177   2.131   2.675   1.593 -0.5464 -0.0570 -0.1155
 4724TIP3    H114178   2.106   2.585   1.611 -2.7488  0.5894  0.3358
 4724TIP3    H214179   2.153   2.712   1.679 -2.5740  0.6246  0.1513
 4725TIP3   OH214180   6.033   0.475   4.265  0.0936  0.7418  0.8385
 4725TIP3    H114181   6.014   0.439   4.178 -0.7497  1.9082  0.5070
 4725TIP3    H214182   6.009   0.567   4.258  1.7220  1.2726  1.7962
 4726TIP3   OH214183   2.016   2.375   0.994 -0.4797 -0.2470  0.4303
 4726TIP3    H114184   1.951   2.304   0.995 -0.3089 -0.3972  1.3577
 4726TIP3    H214185   2.100   2.329   0.993 -0.3149 -0.1137  2.9769
 4727TIP3   OH214186   3.350   5.011   0.671 -1.0150 -0.0212 -1.1066
 4727TIP3    H114187   3.277   5.001   0.733 -1.1510  0.3693 -1.2009
 4727TIP3    H214188   3.422   5.046   0.723 -1.0927  0.1935 -1.1408
 4728TIP3   OH214189   1.737   4.789   2.958  0.1622  0.1290 -0.7012
 4728TIP3    H114190   1.699   4.834   2.882 -0.6855 -0.2059 -0.4891
 4728TIP3    H214191   1.671   4.799   3.027  0.7102  0.0099 -0.1475
 4729TIP3   OH214192   4.504   1.823   4.345  0.3886 -0.1848 -0.0726
 4729TIP3    H114193   4.418   1.854   4.317  0.9703  0.4636 -1.1893
 4729TIP3    H214194   4.545   1.900   4.384  0.2640 -0.6379  0.9907
 4730TIP3   OH214195   4.801   0.623   0.892 -0.3070  0.1623  0.0333
 4730TIP3    H114196   4.894   0.614   0.873  0.3112  1.9837  1.8528
 4730TIP3    H214197   4.759   0.550   0.845  1.8590  0.0270 -1.8295
 4731TIP3   OH214198   1.011   4.516   4.636 -0.3527 -0.0793 -0.3288
 4731TIP3    H114199   1.019   4.467   4.554  0.6721  0.1312 -0.3720
 4731TIP3    H214200   1.059   4.464   4.700  1.1738  1.0734 -0.4870
 4732TIP3   OH214201   3.891   3.488   1.235  0.2128 -0.6580 -0.1945
 4732TIP3    H114202   3.891   3.564   1.177  0.6499 -0.7661 -0.3345
 4732TIP3    H214203   3.983   3.465   1.246  0.0843 -1.2154 -0.2190
 4733TIP3   OH214204   0.964   1.345   0.889  0.3997 -0.3169 -0.2118
 4733TIP3    H114205   0.997   1.388   0.811 -1.5610  1.3224 -0.2044
 4733TIP3    H214206   1.043   1.319   0.937  1.6337  0.4597 -1.7366
 4734TIP3   OH214207   5.971   5.801   3.239  0.0855  0.2200 -0.3166
 4734TIP3    H114208   6.037   5.828   3.175 -0.1359  1.0774 -0.1971
 4734TIP3    H214209   6.017   5.737   3.294 -0.3449 -2.2230 -2.6022
 4735TIP3   OH214210   3.859   5.925   0.459  0.3239  0.4165  0.1902
 4735TIP3    H114211   3.927   5.873   0.503 -0.8140  0.0079  1.5468
 4735TIP3    H214212   3.777   5.883   0.485 -0.4271  0.1489 -2.4199
 4736TIP3   OH214213   5.472   4.984   4.832 -0.5763 -0.6970  0.3605
 4736TIP3    H114214   5.411   5.054   4.855 -3.1976 -2.9810  0.8417
 4736TIP3    H214215   5.435   4.906   4.872  2.5775 -2.3148  0.4138
 4737TIP3   OH214216   1.063   0.569   2.555  0.0558  0.1735  0.0268
 4737TIP3    H114217   0.976   0.602   2.532 -0.3363  0.0837  1.2641
 4737TIP3    H214218   1.119   0.646   2.556  0.1344  0.1511 -1.3372
 4738TIP3   OH214219   2.187   4.972   0.587  0.8473 -0.2062 -0.0118
 4738TIP3    H114220   2.280   4.974   0.563  0.9433  0.8351  0.3806
 4738TIP3    H214221   2.187   4.950   0.680  0.6037 -1.7611 -0.3543
 4739TIP3   OH214222   5.861   1.229   1.761  0.5579  0.3726 -0.0022
 4739TIP3    H114223   5.953   1.206   1.752  1.2449  2.7699  0.2671
 4739TIP3    H214224   5.828   1.230   1.671  0.8955 -0.0846 -0.1340
 4740TIP3   OH214225   1.899   5.444   3.323 -0.3623 -0.4046  0.1117
 4740TIP3    H114226   1.835   5.373   3.312  0.7577 -1.4743  0.2707
 4740TIP3    H214227   1.925   5.440   3.415 -2.2070  1.9672  0.8477
 4741TIP3   OH214228   3.748   0.706   2.172  0.5594 -0.3793  0.0660
 4741TIP3    H114229   3.739   0.743   2.084  0.6152  0.6529  0.4751
 4741TIP3    H214230   3.843   0.697   2.184  0.5823  0.0819  0.2528
 4742TIP3   OH214231   5.596   0.771   0.974 -0.3428 -0.5689 -0.2566
 4742TIP3    H114232   5.528   0.759   1.040 -0.7102  0.4750 -0.4227
 4742TIP3    H214233   5.674   0.732   1.013 -0.8353 -1.0110  0.3007
 4743TIP3   OH214234   0.458   2.392   1.615  0.1132 -0.4126 -0.0246
 4743TIP3    H114235   0.463   2.298   1.597  0.9660 -0.1958 -1.0786
 4743TIP3    H214236   0.439   2.431   1.529 -1.4569  0.2932  0.6236
 4744TIP3   OH214237   6.268   0.599   3.316  0.5256  0.1620  0.5492
 4744TIP3    H114238   6.270   0.521   3.260 -2.1166  0.2930  0.1736
 4744TIP3    H214239   6.192   0.648   3.286  1.9786  2.8273  0.9394
 4745TIP3   OH214240   2.904   0.301   1.440  0.2152  0.3504 -0.1145
 4745TIP3    H114241   2.827   0.320   1.386 -0.7325 -1.9213  0.3372
 4745TIP3    H214242   2.970   0.269   1.378 -0.1444 -0.2613 -0.1848
 4746TIP3   OH214243   2.559   2.299   4.181  0.2331 -0.1326  0.1039
 4746TIP3    H114244   2.617   2.369   4.213  2.4360 -2.6898  2.1472
 4746TIP3    H214245   2.617   2.240   4.134 -1.5184 -0.8292 -1.2811
 4747TIP3   OH214246   4.136   5.103   0.160 -0.0244 -0.2653  0.0296
 4747TIP3    H114247   4.121   5.030   0.220  0.9493 -0.4461  0.0750
 4747TIP3    H214248   4.057   5.107   0.107 -0.2597 -1.0932  0.2972
 4748TIP3   OH214249   6.268   0.428   0.890 -0.6085  0.3851  0.3109
 4748TIP3    H114250   6.299   0.514   0.862  1.3282 -0.1027  0.8354
 4748TIP3    H214251   6.197   0.407   0.829 -0.2778  1.8089 -0.6063
 4749TIP3   OH214252   5.861   5.395   0.713  0.2929  0.2513  0.3685
 4749TIP3    H114253   5.876   5.476   0.664  0.7027  0.0293  0.1272
 4749TIP3    H214254   5.766   5.390   0.721  0.1749  0.0367 -0.8506
 4750TIP3   OH214255   1.494   5.787   0.591  0.1825  0.5202 -0.3853
 4750TIP3    H114256   1.442   5.830   0.524 -0.6376  2.0249  1.1365
 4750TIP3    H214257   1.560   5.738   0.543 -2.2127 -0.9451 -2.3779
 4751TIP3   OH214258   5.715   0.299   5.180  0.4264 -0.1998 -0.2415
 4751TIP3    H114259   5.691   0.331   5.093 -0.5919 -0.4113 -0.0493
 4751TIP3    H214260   5.640   0.319   5.235 -0.0268 -2.3736  0.0203
 4752TIP3   OH214261   2.496   2.947   0.451 -0.0485  0.1559 -0.1475
 4752TIP3    H114262   2.531   2.877   0.506 -0.9484 -1.3417 -1.3889
 4752TIP3    H214263   2.420   2.907   0.408 -0.5273  1.8848 -0.9760
 4753TIP3   OH214264   0.656   1.268   0.085 -0.0942  0.1075 -0.3680
 4753TIP3    H114265   0.642   1.323   0.162  0.6159  1.3171 -1.0745
 4753TIP3    H214266   0.603   1.190   0.101  1.3467 -0.4493  2.1046
 4754TIP3   OH214267   1.040   3.723   1.368 -0.5461 -0.3969 -0.0761
 4754TIP3    H114268   1.079   3.742   1.453 -0.7324 -0.1655 -0.0423
 4754TIP3    H214269   1.095   3.653   1.332  1.4125  1.5509 -1.0768
 4755TIP3   OH214270   3.368   1.781   0.538  0.1563 -0.1297 -0.6259
 4755TIP3    H114271   3.315   1.845   0.490 -1.2749 -0.4499  0.4573
 4755TIP3    H214272   3.381   1.821   0.624  2.0832  0.1291 -0.9955
 4756TIP3   OH214273   5.991   1.402   0.302  0.7931  0.3910  0.1486
 4756TIP3    H114274   6.048   1.437   0.371  1.4164  1.7808 -1.0195
 4756TIP3    H214275   5.959   1.319   0.337  0.5961  1.3236  2.3802
 4757TIP3   OH214276   3.131   4.552   3.207  0.2414 -0.0050  0.3208
 4757TIP3    H114277   3.178   4.478   3.168 -0.2390 -0.0651 -0.1456
 4757TIP3    H214278   3.083   4.514   3.281 -0.2753 -0.2273 -0.1241
 4758TIP3   OH214279   0.574   0.366   4.379  0.1314 -0.7495 -0.3692
 4758TIP3    H114280   0.620   0.438   4.421 -0.9312  0.2864 -0.8987
 4758TIP3    H214281   0.534   0.405   4.301 -1.1878 -1.6936 -0.2173
 4759TIP3   OH214282   5.950   2.297   4.642 -0.0980 -0.1716 -0.6603
 4759TIP3    H114283   5.921   2.387   4.626 -2.3718 -0.8809 -0.9216
 4759TIP3    H214284   6.002   2.275   4.564  2.9704  1.7513  0.6417
 4760TIP3   OH214285   3.023   2.504   5.038 -0.5997  0.2054 -0.4937
 4760TIP3    H114286   3.046   2.597   5.038 -0.5713  0.2102  0.4204
 4760TIP3    H214287   2.979   2.491   5.122 -0.6537 -0.5933 -0.6428
 4761TIP3   OH214288   1.938   1.654   2.602 -0.3632  0.5916  0.2140
 4761TIP3    H114289   2.025   1.685   2.628 -0.2734  0.0547  0.5781
 4761TIP3    H214290   1.936   1.664   2.507  0.0823  0.6462  0.2082
 4762TIP3   OH214291   2.247   5.274   0.752  0.2745 -0.1252 -0.2157
 4762TIP3    H114292   2.175   5.256   0.692 -0.9184 -0.5731  1.2981
 4762TIP3    H214293   2.261   5.191   0.799  1.1845  0.2128  0.1382
 4763TIP3   OH214294   4.535   5.565   0.383  0.5308  0.5929  0.0618
 4763TIP3    H114295   4.478   5.587   0.309  0.2033 -0.5960 -0.0653
 4763TIP3    H214296   4.583   5.646   0.401  0.2304  1.0557 -1.1047
 4764TIP3   OH214297   3.267   4.330   1.676  0.5372  0.8617  0.4239
 4764TIP3    H114298   3.348   4.327   1.624  1.2360  2.3009  1.3568
 4764TIP3    H214299   3.207   4.382   1.623  0.0626 -0.5342 -0.4474
 4765TIP3   OH214300   3.557   4.387   4.781  0.0380  0.1445 -0.1541
 4765TIP3    H114301   3.607   4.317   4.738  0.9782 -0.3713  1.6906
 4765TIP3    H214302   3.621   4.457   4.794  0.8976 -1.0808  3.5810
 4766TIP3   OH214303   3.078   0.117   1.322 -0.1724  0.2689 -0.7464
 4766TIP3    H114304   3.155   0.163   1.356 -0.2062 -1.7205  2.3702
 4766TIP3    H214305   3.114   0.043   1.273 -0.1195  0.1798 -0.5716
 4767TIP3   OH214306   5.538   5.444   1.654 -0.0108 -0.0095  0.0283
 4767TIP3    H114307   5.622   5.488   1.667  0.3899 -0.1702 -1.7737
 4767TIP3    H214308   5.558   5.372   1.594 -1.2598 -0.6636  0.3694
 4768TIP3   OH214309   3.503   2.726   0.925  0.2257  0.5811 -0.2431
 4768TIP3    H114310   3.578   2.668   0.918  0.6963  1.3119 -1.5270
 4768TIP3    H214311   3.508   2.762   1.014  0.6890 -0.3057  0.0946
 4769TIP3   OH214312   5.362   4.799   2.902 -0.2080 -0.3828  0.3976
 4769TIP3    H114313   5.455   4.819   2.892 -0.9891  2.3687 -3.2224
 4769TIP3    H214314   5.347   4.721   2.849 -0.1452 -0.2028  0.1170
 4770TIP3   OH214315   0.472   3.631   3.988  0.7405 -0.1764  0.0905
 4770TIP3    H114316   0.502   3.718   4.012  0.1180 -0.1567  0.8219
 4770TIP3    H214317   0.473   3.631   3.892 -2.1580  1.6911 -0.0572
 4771TIP3   OH214318   3.745   5.777   1.513  0.2206 -0.0200 -0.1185
 4771TIP3    H114319   3.654   5.793   1.490 -0.0702 -0.1556  0.8759
 4771TIP3    H214320   3.742   5.710   1.582  0.9239  1.2906  1.2654
 4772TIP3   OH214321   3.963   4.632   2.338 -0.1814  0.0731  0.0756
 4772TIP3    H114322   3.967   4.566   2.407 -0.0586 -0.0982 -0.0950
 4772TIP3    H214323   4.025   4.700   2.365 -0.8932  0.5126  0.6568
 4773TIP3   OH214324   4.806   0.629   3.607 -0.1722  0.0542 -0.1647
 4773TIP3    H114325   4.812   0.712   3.654  0.5196  0.1319 -0.3725
 4773TIP3    H214326   4.754   0.573   3.664  0.8345  0.0782  0.8220
 4774TIP3   OH214327   3.159   3.044   4.768  0.3635  0.9611  0.0549
 4774TIP3    H114328   3.149   2.977   4.836  0.9760  0.8067  0.0001
 4774TIP3    H214329   3.078   3.037   4.716  0.8771 -0.4910 -0.6066
 4775TIP3   OH214330   1.321   5.379   0.395 -0.7452 -0.4674  0.3651
 4775TIP3    H114331   1.239   5.424   0.375 -0.8713 -1.0498 -0.4296
 4775TIP3    H214332   1.295   5.290   0.419 -0.3781 -0.5466  0.4789
 4776TIP3   OH214333   1.291   3.217   5.045  0.3598  0.9483 -0.4556
 4776TIP3    H114334   1.338   3.285   5.094 -1.2354  1.4940  0.3503
 4776TIP3    H214335   1.204   3.253   5.030 -1.0945 -1.5103  1.3799
 4777TIP3   OH214336   6.087   5.762   5.015  0.3144 -0.2571  0.1192
 4777TIP3    H114337   6.091   5.842   5.067 -1.1449  0.5234 -0.8831
 4777TIP3    H214338   6.014   5.713   5.052  0.3902 -0.5216 -0.0793
 4778TIP3   OH214339   0.486   3.038   1.894 -0.0134  0.8287 -0.5286
 4778TIP3    H114340   0.575   3.074   1.896 -0.2298  1.4379 -1.3843
 4778TIP3    H214341   0.485   2.982   1.816  0.4665 -1.4824  1.0476
 4779TIP3   OH214342   4.532   2.695   1.537  0.3316  0.1709  0.1788
 4779TIP3    H114343   4.474   2.711   1.463 -0.3011 -0.6762  0.4789
 4779TIP3    H214344   4.618   2.725   1.507  0.2934 -1.0323 -1.2653
 4780TIP3   OH214345   0.636   2.148   3.217  0.4754 -0.3739  0.1838
 4780TIP3    H114346   0.728   2.174   3.214  0.4340 -0.3298 -1.3360
 4780TIP3    H214347   0.592   2.220   3.262  0.7769  0.9635 -1.5519
 4781TIP3   OH214348   0.036   5.727   1.174  0.2294  0.0118  0.3669
 4781TIP3    H114349   0.002   5.675   1.246  1.5690  0.4210  1.3236
 4781TIP3    H214350   0.051   5.814   1.211 -0.7118  0.7401 -0.8616
 4782TIP3   OH214351   2.801   2.498   2.193  0.1551  0.4518 -0.6245
 4782TIP3    H114352   2.720   2.514   2.241  0.6309  1.5710 -0.1500
 4782TIP3    H214353   2.780   2.427   2.133 -0.9795  0.2708 -0.0402
 4783TIP3   OH214354   1.624   4.268   4.124  0.5061 -0.3812  0.2918
 4783TIP3    H114355   1.534   4.261   4.090  0.6304  1.2224 -0.5118
 4783TIP3    H214356   1.616   4.249   4.217 -1.0907  1.7120  0.6756
 4784TIP3   OH214357   1.808   4.132   2.204 -0.3578  0.2672 -0.2391
 4784TIP3    H114358   1.788   4.148   2.297 -1.3820 -2.9911  0.2052
 4784TIP3    H214359   1.728   4.159   2.158  0.6044  3.1328 -0.4595
 4785TIP3   OH214360   3.562   3.230   3.388 -0.3418 -0.1960 -0.6599
 4785TIP3    H114361   3.545   3.313   3.343  0.8857 -0.1107 -0.9985
 4785TIP3    H214362   3.475   3.196   3.408 -0.8639  1.3817 -0.1011
 4786TIP3   OH214363   0.828   5.172   1.053  0.2206 -0.7398  0.0742
 4786TIP3    H114364   0.742   5.210   1.070  1.1682  1.2307  0.8224
 4786TIP3    H214365   0.845   5.191   0.961  0.0743 -0.6251  0.0705
 4787TIP3   OH214366   2.917   1.074   2.518  0.0923  0.0307 -0.0633
 4787TIP3    H114367   3.008   1.094   2.539 -0.0610  0.8216 -0.1429
 4787TIP3    H214368   2.920   1.039   2.429  0.4045 -0.6541  0.2120
 4788TIP3   OH214369   6.084   0.397   3.989 -0.0717 -0.3577  0.0231
 4788TIP3    H114370   6.108   0.368   3.901 -2.2928  0.9419 -1.1070
 4788TIP3    H214371   6.145   0.468   4.008  0.6474 -0.8666 -0.3073
 4789TIP3   OH214372   4.229   1.584   4.165  0.7392  0.2691  0.6267
 4789TIP3    H114373   4.242   1.643   4.091 -0.5213  0.7296  0.7630
 4789TIP3    H214374   4.211   1.499   4.125 -1.0142  0.7349  0.3528
 4790TIP3   OH214375   3.884   1.003   3.182  0.2713  0.5206  0.7920
 4790TIP3    H114376   3.856   1.003   3.273 -0.6769 -0.7970  0.5461
 4790TIP3    H214377   3.975   1.031   3.184  0.4311 -0.0384  2.2088
 4791TIP3   OH214378   5.157   4.515   4.775 -0.0808 -0.5208  0.3325
 4791TIP3    H114379   5.156   4.601   4.817  0.5510 -0.5627  0.4546
 4791TIP3    H214380   5.250   4.494   4.766 -0.2244 -1.2516  0.4343
 4792TIP3   OH214381   2.213   2.660   2.659 -0.0637  0.4907  0.2533
 4792TIP3    H114382   2.122   2.671   2.633  0.4551  1.7537 -1.1678
 4792TIP3    H214383   2.264   2.691   2.584  1.5553 -0.9697  0.6680
 4793TIP3   OH214384   0.534   0.764   0.330  0.6025 -0.9682 -0.6502
 4793TIP3    H114385   0.485   0.731   0.255  1.2302 -0.2129 -1.4078
 4793TIP3    H214386   0.580   0.842   0.297 -1.1038  0.9415  1.1303
 4794TIP3   OH214387   0.539   0.576   1.548  0.5250  0.7113  0.2952
 4794TIP3    H114388   0.479   0.603   1.479  0.0389  0.0411  0.4485
 4794TIP3    H214389   0.543   0.651   1.607 -1.1063  0.3492  0.9171
 4795TIP3   OH214390   2.218   0.298   2.538 -0.4312 -0.0337 -0.0839
 4795TIP3    H114391   2.207   0.393   2.531  2.2200  0.6136  2.5591
 4795TIP3    H214392   2.164   0.273   2.613  2.2950  0.2833  2.1193
 4796TIP3   OH214393   5.159   5.107   4.592  0.2985 -0.1112  0.0725
 4796TIP3    H114394   5.178   5.192   4.552 -1.1448 -0.2590 -1.0435
 4796TIP3    H214395   5.238   5.055   4.578  0.6637  0.5945 -0.5582
 4797TIP3   OH214396   1.334   4.046   4.563 -0.0607  0.3087 -0.2848
 4797TIP3    H114397   1.419   4.005   4.547 -0.2220  0.4093 -1.4403
 4797TIP3    H214398   1.331   4.059   4.658  0.6048 -1.0293 -0.0613
 4798TIP3   OH214399   3.489   1.248   1.573 -0.0510  0.2993  0.4069
 4798TIP3    H114400   3.570   1.203   1.598  1.1138  1.0906 -1.6841
 4798TIP3    H214401   3.499   1.337   1.607 -0.4022  0.1785  0.8287
 4799TIP3   OH214402   2.761   1.710   2.522  0.1237  0.2445 -0.2883
 4799TIP3    H114403   2.844   1.672   2.552 -0.4296 -2.5044 -1.8584
 4799TIP3    H214404   2.700   1.692   2.593  0.0254 -1.3952 -0.7389
 4800TIP3   OH214405   4.472   3.820   1.794  0.0368 -0.1607  0.2751
 4800TIP3    H114406   4.471   3.855   1.883 -0.1532  3.7437 -1.1058
 4800TIP3    H214407   4.560   3.839   1.761 -0.5680  0.4728 -1.0521
 4801TIP3   OH214408   4.363   3.164   0.706 -0.5126 -0.3472  0.1416
 4801TIP3    H114409   4.401   3.218   0.776  2.0023 -0.9153 -0.6867
 4801TIP3    H214410   4.349   3.078   0.746 -1.7273  0.0661  0.6547
 4802TIP3   OH214411   2.236   3.696   4.409  0.3968 -0.0454  0.1128
 4802TIP3    H114412   2.209   3.787   4.392  1.2149  0.1658 -0.1264
 4802TIP3    H214413   2.218   3.682   4.502  0.4413  0.4281  0.1957
 4803TIP3   OH214414   2.164   3.934   2.567  0.4540  0.6875 -0.1638
 4803TIP3    H114415   2.139   3.893   2.650  0.6796  0.5690 -0.1538
 4803TIP3    H214416   2.085   3.928   2.513  0.5078  0.1793 -0.1887
 4804TIP3   OH214417   5.883   3.489   2.434  0.0373 -0.5527 -0.9007
 4804TIP3    H114418   5.827   3.472   2.510 -0.0856 -2.3002 -1.3328
 4804TIP3    H214419   5.829   3.543   2.376  0.2186  1.0122  0.3029
 4805TIP3   OH214420   1.020   3.597   4.058  1.0854 -0.0208 -0.3339
 4805TIP3    H114421   1.096   3.545   4.084  1.1748  1.3081  2.5255
 4805TIP3    H214422   1.057   3.679   4.026  1.0162  1.1371  2.2367
 4806TIP3   OH214423   5.125   1.163   0.351  0.1643 -0.1189 -0.0330
 4806TIP3    H114424   5.055   1.211   0.307  0.3943 -0.9909 -1.4035
 4806TIP3    H214425   5.198   1.225   0.357 -0.7596  0.8979  1.6689
 4807TIP3   OH214426   5.988   5.639   2.571  0.0290  0.2102  0.1758
 4807TIP3    H114427   5.986   5.734   2.583 -1.1264 -0.0588  2.7064
 4807TIP3    H214428   5.902   5.609   2.600  1.0320 -1.7578  1.3865
 4808TIP3   OH214429   0.951   1.651   1.644 -0.1091 -0.2396  0.4175
 4808TIP3    H114430   0.952   1.575   1.702 -2.5722 -1.1122 -0.5471
 4808TIP3    H214431   0.860   1.657   1.614  0.5464  1.6322 -1.4366
 4809TIP3   OH214432   4.034   2.181   2.081 -0.1129 -0.4088  0.3667
 4809TIP3    H114433   4.065   2.107   2.132  0.1565  1.5980  3.3906
 4809TIP3    H214434   4.109   2.207   2.027  0.1182 -1.6529  0.0671
 4810TIP3   OH214435   5.915   4.755   4.049 -0.0337  0.3900  0.0574
 4810TIP3    H114436   5.928   4.797   3.964 -0.0618 -0.0434 -0.1625
 4810TIP3    H214437   5.980   4.684   4.051 -0.1648  0.2743  0.3173
 4811TIP3   OH214438   6.062   2.698   3.482  0.3598 -0.2194 -0.6685
 4811TIP3    H114439   6.121   2.654   3.544 -0.4727 -1.2763 -0.5880
 4811TIP3    H214440   6.061   2.641   3.405  1.6686  1.2670 -1.8435
 4812TIP3   OH214441   1.713   2.773   3.533 -0.5607 -0.5284 -0.2898
 4812TIP3    H114442   1.766   2.697   3.557  0.6379  0.3341 -0.1369
 4812TIP3    H214443   1.730   2.837   3.602 -1.6301 -0.1418 -0.3649
 4813TIP3   OH214444   4.340   1.018   1.656 -1.0006 -0.1562  0.1502
 4813TIP3    H114445   4.329   1.052   1.567  1.5730 -0.2852 -0.2969
 4813TIP3    H214446   4.288   0.938   1.658  0.9863 -1.6385 -2.1907
 4814TIP3   OH214447   5.685   3.237   2.459 -0.5486 -0.3213 -0.1869
 4814TIP3    H114448   5.644   3.176   2.398 -1.1643 -0.4020  0.2951
 4814TIP3    H214449   5.614   3.295   2.485  0.1768  1.1057 -1.2211
 4815TIP3   OH214450   4.555   1.356   4.130 -0.0248  0.0911  0.4494
 4815TIP3    H114451   4.482   1.343   4.191 -0.8528  0.0070 -0.5206
 4815TIP3    H214452   4.527   1.311   4.050  1.5735 -0.9030  0.3891
 4816TIP3   OH214453   3.403   5.775   1.490 -0.2628 -0.4728  0.1535
 4816TIP3    H114454   3.420   5.867   1.510  0.1640 -0.6500  0.6099
 4816TIP3    H214455   3.370   5.776   1.400  0.4875  0.0453 -0.1205
 4817TIP3   OH214456   4.629   5.573  -0.024 -0.2492 -0.3786  0.3286
 4817TIP3    H114457   4.639   5.478  -0.021 -0.8390 -0.4319  0.7334
 4817TIP3    H214458   4.594   5.596   0.062  0.9797  0.3459  0.6464
 4818TIP3   OH214459   0.655   5.670   0.548 -0.5596  0.0503  0.2815
 4818TIP3    H114460   0.561   5.658   0.535 -0.5301 -0.9260  0.8721
 4818TIP3    H214461   0.695   5.645   0.465 -0.8402  0.7691 -0.0718
 4819TIP3   OH214462   1.474   2.155   4.826  0.7110 -0.1799 -0.0992
 4819TIP3    H114463   1.464   2.110   4.910  0.6578  0.5278  0.2802
 4819TIP3    H214464   1.408   2.115   4.769 -0.2191  0.3115  0.6129
 4820TIP3   OH214465   5.751   5.629   3.807 -0.4301  0.4095  0.0720
 4820TIP3    H114466   5.783   5.712   3.771 -0.7391  0.8047  0.6734
 4820TIP3    H214467   5.831   5.581   3.830 -0.1915 -0.2778 -1.9792
 4821TIP3   OH214468   2.492   3.205   2.056  0.0608  0.5439  0.3933
 4821TIP3    H114469   2.573   3.177   2.099  0.0933  0.9337  0.5896
 4821TIP3    H214470   2.430   3.134   2.074 -0.6260  1.6736  3.0688
 4822TIP3   OH214471   4.196   3.112   1.108 -0.1597 -0.0536 -0.0270
 4822TIP3    H114472   4.289   3.129   1.095 -0.6271  1.6239 -1.6403
 4822TIP3    H214473   4.175   3.153   1.192  0.4250  0.1180  0.0342
 4823TIP3   OH214474   2.687   0.278   3.643  0.6914  0.2056  0.5427
 4823TIP3    H114475   2.688   0.244   3.733 -1.5309 -2.7892 -0.4127
 4823TIP3    H214476   2.599   0.316   3.633  0.1612 -1.2722 -0.8762
 4824TIP3   OH214477   4.760   1.564   3.934  0.5185 -0.5325 -0.3599
 4824TIP3    H114478   4.694   1.581   4.001  1.6267  0.7446  0.4573
 4824TIP3    H214479   4.831   1.625   3.954  1.1325 -0.5130 -2.3618
 4825TIP3   OH214480   1.404   0.097   3.423 -0.6646 -0.0146 -0.2090
 4825TIP3    H114481   1.478   0.071   3.368 -0.7018 -2.0164  0.6138
 4825TIP3    H214482   1.423   0.187   3.448  0.5577  0.1241 -1.5058
 4826TIP3   OH214483   6.164   5.405   2.222  0.5271  1.4268  0.0603
 4826TIP3    H114484   6.233   5.390   2.287  0.8844  1.1656 -0.3603
 4826TIP3    H214485   6.159   5.500   2.213  0.8768  1.4483  0.0580
 4827TIP3   OH214486   5.962   0.545   3.045 -0.2538 -0.8618 -0.2184
 4827TIP3    H114487   5.970   0.451   3.030  0.5059 -0.9238  0.4716
 4827TIP3    H214488   5.897   0.574   2.981 -1.4878 -2.0665  0.4362
 4828TIP3   OH214489   4.935   1.162   3.609 -0.0886  0.0810 -0.2934
 4828TIP3    H114490   4.964   1.247   3.575  0.2507  0.3343  0.6025
 4828TIP3    H214491   4.844   1.155   3.580  0.0418  0.5066 -0.8284
 4829TIP3   OH214492   2.958   5.603   0.870  0.6001  0.5685  0.1428
 4829TIP3    H114493   3.023   5.615   0.939 -0.7963  2.4961  1.2051
 4829TIP3    H214494   2.895   5.541   0.905  1.1052 -0.2366 -0.3440
 4830TIP3   OH214495   5.958   1.399   3.758 -0.6501  0.3808  0.0182
 4830TIP3    H114496   5.973   1.420   3.666 -0.7895  1.4413  0.2271
 4830TIP3    H214497   5.946   1.304   3.759  1.0856  0.1160 -0.8135
 4831TIP3   OH214498   2.310   3.822   0.390 -0.2431  0.5133  0.0750
 4831TIP3    H114499   2.373   3.752   0.371  1.4487  1.7938  0.6541
 4831TIP3    H214500   2.263   3.835   0.308  0.1550 -0.5998 -0.3415
 4832TIP3   OH214501   3.659   5.767   0.602  0.2822  0.3744 -0.5528
 4832TIP3    H114502   3.642   5.826   0.676  0.9855 -3.2728  2.8226
 4832TIP3    H214503   3.574   5.726   0.585  0.7844 -1.1836  0.5614
 4833TIP3   OH214504   3.085   5.231   1.386 -0.2907  0.3271 -0.2163
 4833TIP3    H114505   3.128   5.151   1.356  2.3826  1.8659 -0.7709
 4833TIP3    H214506   3.010   5.241   1.327 -0.5999 -1.6427 -0.2327
 4834TIP3   OH214507   0.278   2.081   0.760 -0.1929  0.1511  0.0626
 4834TIP3    H114508   0.286   2.095   0.665  1.3278  0.9533  0.2674
 4834TIP3    H214509   0.319   2.159   0.798  0.6066 -0.8761  1.3661
 4835TIP3   OH214510   2.988   3.176   1.953  0.3765 -0.2674  0.1603
 4835TIP3    H114511   3.013   3.142   1.867  1.0084  0.0565  0.2096
 4835TIP3    H214512   3.068   3.170   2.005  0.1325  0.0272  0.5744
 4836TIP3   OH214513   1.147   1.911   4.572  0.1376 -0.4338  0.1541
 4836TIP3    H114514   1.061   1.947   4.551 -0.6535 -0.4664  2.9671
 4836TIP3    H214515   1.140   1.818   4.553 -0.6280 -0.5193  0.8066
 4837TIP3   OH214516   2.352   2.624   4.917  0.1744  0.1128 -0.0371
 4837TIP3    H114517   2.432   2.627   4.969 -0.8075 -1.3130  1.6714
 4837TIP3    H214518   2.320   2.715   4.916 -1.1482 -0.0765  4.2611
 4838TIP3   OH214519   2.411   2.049   4.094  0.1170  0.0036  0.3320
 4838TIP3    H114520   2.502   2.078   4.092  0.0524  0.1698 -0.1624
 4838TIP3    H214521   2.389   2.048   4.188  0.0153  1.8637  0.3578
 4839TIP3   OH214522   2.636   0.094   0.055  0.0185  0.3763 -0.3590
 4839TIP3    H114523   2.688   0.013   0.054 -1.0736 -0.3503 -0.2299
 4839TIP3    H214524   2.656   0.134   0.139 -0.5263 -0.5020  0.1981
 4840TIP3   OH214525   1.299   3.131   1.752 -0.0363  0.0533  0.2243
 4840TIP3    H114526   1.290   3.088   1.837 -0.0381  0.2987  0.3519
 4840TIP3    H214527   1.383   3.176   1.758 -1.0712  2.0389  1.0176
 4841TIP3   OH214528   3.240   5.413   0.545 -0.1496 -0.3286  0.5644
 4841TIP3    H114529   3.154   5.435   0.581 -0.1761  1.1693 -0.3340
 4841TIP3    H214530   3.272   5.495   0.506  0.7975 -1.3327 -0.8882
 4842TIP3   OH214531   5.472   1.988   3.455 -0.1312 -0.2327 -0.1245
 4842TIP3    H114532   5.487   1.921   3.389 -0.5291 -0.4610  0.0148
 4842TIP3    H214533   5.427   1.943   3.526 -1.8166  0.5054 -0.6801
 4843TIP3   OH214534   1.352   4.243   4.276 -0.1958 -0.4160 -0.0577
 4843TIP3    H114535   1.402   4.236   4.358 -0.1887 -1.0469 -0.1156
 4843TIP3    H214536   1.369   4.332   4.245  1.5354 -0.8722 -0.4925
 4844TIP3   OH214537   2.685   0.240   4.073 -0.2317  0.0945 -0.3145
 4844TIP3    H114538   2.739   0.164   4.049 -0.8983 -0.2926 -0.6033
 4844TIP3    H214539   2.623   0.249   4.001 -1.0778  0.0356  0.3874
 4845TIP3   OH214540   4.546   3.954   5.180 -0.4023  0.0465 -0.1301
 4845TIP3    H114541   4.545   3.990   5.091 -0.5139 -0.0946 -0.1854
 4845TIP3    H214542   4.454   3.951   5.206 -0.2882  1.5989  0.5970
 4846TIP3   OH214543   3.433   5.520   0.986  0.3494  0.2026 -0.3108
 4846TIP3    H114544   3.403   5.574   0.912 -0.7179 -0.8662 -0.6902
 4846TIP3    H214545   3.406   5.569   1.063 -0.9181  0.0811 -0.6492
 4847TIP3   OH214546   3.203   4.483   2.368  0.6653  0.4570  0.2152
 4847TIP3    H114547   3.254   4.531   2.302 -0.9106  1.8787 -0.0587
 4847TIP3    H214548   3.177   4.551   2.431 -0.5010 -0.2912  0.5629
 4848TIP3   OH214549   0.755   5.744   3.964  0.3116 -0.6324  0.6821
 4848TIP3    H114550   0.682   5.724   4.024  0.3249 -0.9636  0.5907
 4848TIP3    H214551   0.780   5.659   3.928 -1.1191 -0.1998 -1.4735
 4849TIP3   OH214552   2.450   1.706   0.314 -0.0848 -0.4586  0.0200
 4849TIP3    H114553   2.467   1.792   0.274  1.9440 -1.2919 -1.0720
 4849TIP3    H214554   2.412   1.655   0.243  2.0822 -1.4836 -0.4880
 4850TIP3   OH214555   3.919   5.323   4.251  0.5320 -0.0634 -0.0674
 4850TIP3    H114556   3.972   5.276   4.187 -0.1000  1.7025 -2.0036
 4850TIP3    H214557   3.982   5.374   4.302  0.8670  0.7351 -1.2403
 4851TIP3   OH214558   5.868   5.552   5.092  0.0216  0.8394 -0.5434
 4851TIP3    H114559   5.785   5.509   5.071  0.2347  0.1382 -0.0051
 4851TIP3    H214560   5.851   5.597   5.174 -0.1026  1.5183 -0.9359
 4852TIP3   OH214561   4.752   3.727   4.110  0.4688  0.6753  0.0171
 4852TIP3    H114562   4.827   3.744   4.168  0.1768  0.7186  0.3842
 4852TIP3    H214563   4.728   3.813   4.076  0.2200  0.7386  0.3523
 4853TIP3   OH214564   1.557   0.306   0.824 -0.2319 -0.4407 -0.2656
 4853TIP3    H114565   1.587   0.392   0.794 -0.7619 -0.0750  0.2123
 4853TIP3    H214566   1.463   0.306   0.805 -0.3642 -0.6405  0.3480
 4854TIP3   OH214567   5.630   0.489   0.638  0.2469 -0.2456  0.2019
 4854TIP3    H114568   5.612   0.449   0.552  0.7921 -2.0788  0.8911
 4854TIP3    H214569   5.543   0.497   0.679  0.1873 -1.6325  0.4021
 4855TIP3   OH214570   0.674   3.522   1.051  0.2627  0.0921  0.2534
 4855TIP3    H114571   0.753   3.489   1.093  0.2234 -0.2175  0.0897
 4855TIP3    H214572   0.678   3.486   0.962 -1.4082 -2.2176  1.0139
 4856TIP3   OH214573   4.622   1.142   2.361  0.1712 -0.0665  0.0603
 4856TIP3    H114574   4.696   1.121   2.418 -0.3527 -1.0049  0.4240
 4856TIP3    H214575   4.632   1.235   2.342  2.0049 -0.3791 -0.7400
 4857TIP3   OH214576   4.801   4.448   1.662 -0.5657 -0.4669  0.1861
 4857TIP3    H114577   4.714   4.487   1.652 -0.4454 -0.2919 -0.1887
 4857TIP3    H214578   4.809   4.387   1.588  0.5943  1.3297 -1.2366
 4858TIP3   OH214579   1.655   0.600   0.510  0.3683 -0.3568 -0.0386
 4858TIP3    H114580   1.634   0.668   0.446 -1.8299 -1.0799 -0.1754
 4858TIP3    H214581   1.720   0.545   0.468 -0.3776 -0.2999 -1.3167
 4859TIP3   OH214582   0.993   1.896   5.047 -0.0084  0.8047  0.4135
 4859TIP3    H114583   0.967   1.822   4.993  0.2216  2.5366 -2.2465
 4859TIP3    H214584   0.937   1.968   5.019  3.6276  3.2033 -1.5878
 4860TIP3   OH214585   5.584   3.726   2.666  0.6916 -0.0498 -0.0657
 4860TIP3    H114586   5.599   3.731   2.761 -0.5358  3.0550  0.0805
 4860TIP3    H214587   5.626   3.805   2.631 -0.9696  0.1695 -1.7346
 4861TIP3   OH214588   3.138   0.737   0.759  0.4438  0.7348 -0.4714
 4861TIP3    H114589   3.064   0.766   0.812  1.6749  2.2374  0.5076
 4861TIP3    H214590   3.171   0.659   0.805 -0.0400  0.5323 -0.4628
 4862TIP3   OH214591   4.531   3.610   3.535 -0.4702 -0.3130 -0.1209
 4862TIP3    H114592   4.481   3.529   3.541  0.1083 -0.7268 -0.7146
 4862TIP3    H214593   4.476   3.668   3.481 -1.2818  0.0224  1.0228
 4863TIP3   OH214594   5.368   5.113   0.176 -0.1448 -0.2351  0.3059
 4863TIP3    H114595   5.462   5.096   0.165 -0.3050 -0.7668 -0.3353
 4863TIP3    H214596   5.360   5.147   0.265  0.5195 -1.2741  0.7842
 4864TIP3   OH214597   1.527   4.738   3.989 -0.2470  0.0644  0.3268
 4864TIP3    H114598   1.585   4.687   3.932  0.0812  0.0637  0.6514
 4864TIP3    H214599   1.574   4.821   4.003  0.0394 -0.2258  1.1929
 4865TIP3   OH214600   0.233   2.626   0.315  0.1674  0.3535 -0.2827
 4865TIP3    H114601   0.202   2.590   0.397 -0.9816  1.0408 -0.3877
 4865TIP3    H214602   0.326   2.642   0.329 -0.2259  1.5764  1.3226
 4866TIP3   OH214603   1.005   2.671   2.770  0.2004  0.4399 -0.2004
 4866TIP3    H114604   0.961   2.704   2.848  0.1360  2.2166 -0.9430
 4866TIP3    H214605   1.019   2.578   2.787  1.9377  1.1349  2.7243
 4867TIP3   OH214606   4.921   0.439   0.384 -0.4801 -0.1133 -0.5409
 4867TIP3    H114607   5.011   0.432   0.414 -1.0764  0.8562  1.6952
 4867TIP3    H214608   4.912   0.529   0.354 -0.5985 -0.3485 -1.2460
 4868TIP3   OH214609   2.115   4.626   4.431  0.1203  0.2954 -0.1453
 4868TIP3    H114610   2.129   4.706   4.382 -0.1427 -0.2126 -1.0820
 4868TIP3    H214611   2.118   4.556   4.365 -0.9788 -0.3447  0.4409
 4869TIP3   OH214612   1.538   4.174   4.862  0.1407 -0.1619  0.3669
 4869TIP3    H114613   1.456   4.191   4.908 -1.4009 -0.7103 -2.0280
 4869TIP3    H214614   1.569   4.261   4.835 -0.0680 -0.0206  0.5844
 4870TIP3   OH214615   1.690   5.237   3.325 -0.1125 -0.2669 -0.4093
 4870TIP3    H114616   1.606   5.230   3.371 -0.4508  3.2520 -0.2292
 4870TIP3    H214617   1.712   5.147   3.301 -2.7067 -1.5849  1.6780
 4871TIP3   OH214618   3.849   5.244   4.781  0.1818  0.8557 -0.6172
 4871TIP3    H114619   3.800   5.252   4.699 -0.6773  0.3151 -0.1623
 4871TIP3    H214620   3.936   5.278   4.759  0.3609 -0.4482 -2.0968
 4872TIP3   OH214621   3.695   4.180   4.679 -0.0285 -0.4057  0.1566
 4872TIP3    H114622   3.712   4.090   4.706 -1.4897 -0.8419 -0.3315
 4872TIP3    H214623   3.766   4.200   4.618  0.0472 -1.3870 -0.0945
 4873TIP3   OH214624   5.627   3.513   0.777 -0.2563 -0.6616 -0.7143
 4873TIP3    H114625   5.585   3.575   0.717  0.6600  1.5153  0.7723
 4873TIP3    H214626   5.579   3.522   0.859  0.6906 -0.9926 -0.1025
 4874TIP3   OH214627   0.414   0.429   4.177  0.1334 -0.0277  0.0334
 4874TIP3    H114628   0.467   0.411   4.100  0.3791 -0.5181  0.3124
 4874TIP3    H214629   0.370   0.512   4.158  1.9687  1.0581  0.2945
 4875TIP3   OH214630   2.047   1.146   4.450  0.0092  0.0530  0.4473
 4875TIP3    H114631   1.967   1.193   4.426  0.0581 -0.6120 -1.1857
 4875TIP3    H214632   2.018   1.082   4.516 -0.5911  0.4948  0.6248
 4876TIP3   OH214633   1.732   3.120   0.281 -0.2099  0.0510 -0.1472
 4876TIP3    H114634   1.748   3.126   0.187  0.3463  0.2630 -0.0432
 4876TIP3    H214635   1.804   3.066   0.314 -1.1212 -1.1212 -0.0168
 4877TIP3   OH214636   5.735   4.615   4.228 -0.4318 -0.3203 -0.4275
 4877TIP3    H114637   5.793   4.676   4.183 -0.4246 -0.3099 -0.4042
 4877TIP3    H214638   5.744   4.533   4.180  1.3603 -0.9965  0.9254
 4878TIP3   OH214639   5.946   2.950   1.423  0.2703  0.0264 -0.2253
 4878TIP3    H114640   5.859   2.985   1.444 -0.1130 -2.5746  3.4936
 4878TIP3    H214641   5.995   3.026   1.392 -2.1619  2.5436  1.4993
 4879TIP3   OH214642   0.020   3.821   4.919  0.3085  0.5971  0.1324
 4879TIP3    H114643   0.085   3.838   4.988 -1.3396  2.7064  1.2660
 4879TIP3    H214644   0.027   3.727   4.904  3.1981  0.6246  0.5996
 4880TIP3   OH214645   5.064   3.953   4.800  0.3170  0.4195 -0.4819
 4880TIP3    H114646   5.097   4.035   4.763 -0.7418  0.1602 -2.0819
 4880TIP3    H214647   5.040   3.900   4.724  1.7877 -1.7640  0.4683
 4881TIP3   OH214648   3.643   0.338   3.855  0.0777  0.3426  0.2512
 4881TIP3    H114649   3.579   0.408   3.865 -1.7437 -1.2386  0.1861
 4881TIP3    H214650   3.676   0.322   3.944 -0.1225  0.6927  0.3883
 4882TIP3   OH214651   1.359   1.352   4.655 -0.0327 -0.0796 -0.0281
 4882TIP3    H114652   1.366   1.256   4.654 -0.5780 -0.1438  0.7825
 4882TIP3    H214653   1.322   1.372   4.741 -0.0580  0.8547 -0.2441
 4883TIP3   OH214654   0.798   3.273   3.531  0.0219  0.0447  0.1985
 4883TIP3    H114655   0.739   3.225   3.589  0.9276 -0.4290  0.7370
 4883TIP3    H214656   0.884   3.268   3.573  1.1213 -1.8396 -1.9874
 4884TIP3   OH214657   2.382   5.344   3.894 -0.1934  0.5683  0.5888
 4884TIP3    H114658   2.412   5.342   3.803 -0.4459  2.3022  0.4231
 4884TIP3    H214659   2.292   5.376   3.889 -1.0903 -1.6513  1.3108
 4885TIP3   OH214660   1.108   0.275   3.705 -0.3330 -0.0380  0.7619
 4885TIP3    H114661   1.104   0.370   3.695  1.0477  0.0616  0.9812
 4885TIP3    H214662   1.061   0.258   3.786 -1.3937  0.3462  0.2503
 4886TIP3   OH214663   3.322   4.264   0.250 -0.6966 -0.1646  0.2234
 4886TIP3    H114664   3.311   4.220   0.334 -1.3499  0.1568  0.3120
 4886TIP3    H214665   3.257   4.334   0.251  1.2017  1.6956  0.6751
 4887TIP3   OH214666   3.409   1.076   3.345  0.0721 -0.8252  0.0835
 4887TIP3    H114667   3.429   1.157   3.392  1.1640 -2.2765  2.2763
 4887TIP3    H214668   3.320   1.089   3.312 -0.3382  0.7072  1.6359
 4888TIP3   OH214669   1.821   3.755   3.851  0.3615 -0.3477  0.0916
 4888TIP3    H114670   1.806   3.724   3.762  1.6488 -0.3964 -0.1391
 4888TIP3    H214671   1.889   3.697   3.886  0.3148  0.0521  0.8881
 4889TIP3   OH214672   2.665   1.028   1.779  0.0776  0.6327 -0.3599
 4889TIP3    H114673   2.632   1.036   1.868 -1.3284  0.4371 -0.8411
 4889TIP3    H214674   2.718   1.107   1.765  0.0708  0.7965  0.5364
 4890TIP3   OH214675   4.606   2.009   2.057 -0.0247 -0.8768  0.0552
 4890TIP3    H114676   4.666   2.042   2.124 -0.6042  0.0726  0.1194
 4890TIP3    H214677   4.619   1.914   2.058  1.8931 -0.6640 -0.3304
 4891TIP3   OH214678   5.111   1.084   4.355 -0.0068 -0.2261  0.0925
 4891TIP3    H114679   5.046   1.013   4.356  0.8109 -1.0092  1.5742
 4891TIP3    H214680   5.151   1.081   4.441 -0.2077  2.3459  0.3516
 4892TIP3   OH214681   2.860   3.169   0.134 -0.9313 -0.1134  0.4900
 4892TIP3    H114682   2.803   3.135   0.203  1.3417  1.3262  3.2903
 4892TIP3    H214683   2.947   3.138   0.157 -0.0780  0.1427 -2.0206
 4893TIP3   OH214684   4.781   1.211   0.642  0.4296  0.6508 -0.6121
 4893TIP3    H114685   4.690   1.187   0.623  0.5719  0.8085 -1.5329
 4893TIP3    H214686   4.775   1.272   0.716 -0.1285 -0.1243  0.0026
 4894TIP3   OH214687   0.247   1.466   3.958 -0.2092 -0.7652  0.2074
 4894TIP3    H114688   0.282   1.381   3.930  0.3278 -0.4814  0.0028
 4894TIP3    H214689   0.316   1.503   4.013 -0.7342 -0.7609  0.8692
 4895TIP3   OH214690   2.106   5.312   1.455 -0.3671 -0.3040 -0.1092
 4895TIP3    H114691   2.102   5.405   1.477 -1.1207 -0.4549  0.4194
 4895TIP3    H214692   2.097   5.311   1.359 -2.9907  0.0711  0.0360
 4896TIP3   OH214693   2.641   0.546   1.054  0.0129  0.3516 -1.1416
 4896TIP3    H114694   2.644   0.639   1.031  3.2248  0.5971 -0.2259
 4896TIP3    H214695   2.713   0.507   1.004  1.6342 -0.7099  1.7505
 4897TIP3   OH214696   1.591   4.156   4.400  0.2718 -0.0004 -0.1433
 4897TIP3    H114697   1.619   4.155   4.492 -2.6497  1.8989  0.9122
 4897TIP3    H214698   1.574   4.064   4.379  3.3272 -0.7910  0.2817
 4898TIP3   OH214699   0.398   4.605   0.519 -0.3049 -0.2954  0.0818
 4898TIP3    H114700   0.463   4.654   0.470  1.0571 -1.0890  1.0232
 4898TIP3    H214701   0.319   4.658   0.513  0.3468  0.5781 -1.2958
 4899TIP3   OH214702   3.588   3.869   4.952  0.1287  0.1521 -0.1599
 4899TIP3    H114703   3.655   3.862   4.884  2.0005 -2.1757  1.7101
 4899TIP3    H214704   3.557   3.959   4.946  3.5197  1.4378 -1.1488
 4900TIP3   OH214705   1.525   2.490   3.583 -0.2211 -0.1021 -0.0480
 4900TIP3    H114706   1.618   2.498   3.602 -0.3918 -1.2132  1.4586
 4900TIP3    H214707   1.481   2.525   3.661 -0.9977 -1.9197  0.4034
 4901TIP3   OH214708   1.042   4.519   3.452  0.9484 -0.0149  0.3299
 4901TIP3    H114709   1.046   4.592   3.513  0.5184 -0.7109  1.2035
 4901TIP3    H214710   1.082   4.554   3.371  1.1260  1.0428  0.8515
 4902TIP3   OH214711   6.159   1.827   3.340  0.0610 -0.4839  0.3300
 4902TIP3    H114712   6.239   1.844   3.290 -0.0062  0.2422  0.4587
 4902TIP3    H214713   6.185   1.763   3.406  0.1289 -1.5402 -0.6868
 4903TIP3   OH214714   0.762   4.696   2.168 -0.2054  0.3369 -0.0174
 4903TIP3    H114715   0.666   4.698   2.160 -0.6972 -0.6095  3.8515
 4903TIP3    H214716   0.787   4.788   2.175 -1.1036  0.5202  1.0104
 4904TIP3   OH214717   3.367   3.311   0.721  0.1202 -0.0625  0.0231
 4904TIP3    H114718   3.460   3.327   0.702  0.4836 -0.5629  1.3092
 4904TIP3    H214719   3.336   3.392   0.761 -0.3732  0.6001 -1.6102
 4905TIP3   OH214720   2.488   4.804   2.912 -0.1290  0.1487 -0.1084
 4905TIP3    H114721   2.542   4.849   2.847 -1.3386  0.0924 -1.1694
 4905TIP3    H214722   2.409   4.777   2.865 -0.5235 -0.9302  1.0974
 4906TIP3   OH214723   0.768   4.151   2.803 -0.3332  0.8436 -0.4380
 4906TIP3    H114724   0.678   4.133   2.777  0.5081 -1.1121 -2.3702
 4906TIP3    H214725   0.784   4.089   2.875 -0.9583  2.3483  1.0714
 4907TIP3   OH214726   1.010   3.950   1.010 -0.5092 -0.4072  0.2944
 4907TIP3    H114727   0.990   3.988   1.095  0.3761 -0.4939  0.5548
 4907TIP3    H214728   0.950   3.876   1.002 -2.0933  0.8795 -0.1190
 4908TIP3   OH214729   0.912   5.218   1.331  0.3895 -0.1583 -0.1220
 4908TIP3    H114730   0.858   5.247   1.257  1.8677  0.8261 -0.8501
 4908TIP3    H214731   0.850   5.174   1.389 -1.2606  1.1936 -0.7648
 4909TIP3   OH214732   3.764   3.921   1.150 -0.1200  0.4096 -0.1138
 4909TIP3    H114733   3.766   3.934   1.245 -0.9328  0.8807 -0.1538
 4909TIP3    H214734   3.695   3.979   1.119 -0.7161 -0.6612 -0.8601
 4910TIP3   OH214735   4.148   4.686   4.671 -0.0493 -0.1919 -0.3297
 4910TIP3    H114736   4.094   4.672   4.749 -0.3650 -0.8058 -0.6486
 4910TIP3    H214737   4.228   4.727   4.704 -1.2270  2.0271 -0.0041
 4911TIP3   OH214738   4.573   2.410   0.932  0.0547 -0.1476 -0.1034
 4911TIP3    H114739   4.635   2.366   0.874 -0.4089 -0.6512 -0.2291
 4911TIP3    H214740   4.553   2.492   0.888  1.2356  0.3761  0.3264
 4912TIP3   OH214741   3.589   2.981   4.511  0.3517  0.1438 -0.2279
 4912TIP3    H114742   3.511   2.926   4.517 -0.2222  0.7503 -1.6834
 4912TIP3    H214743   3.662   2.919   4.510 -0.1987 -0.5163 -0.3710
 4913TIP3   OH214744   2.423   1.333   2.729 -0.6519 -0.0950 -0.2973
 4913TIP3    H114745   2.403   1.388   2.653  0.3646  0.8605  0.1084
 4913TIP3    H214746   2.501   1.372   2.767 -1.0268 -0.6800  1.1288
 4914TIP3   OH214747   4.764   1.074   1.928 -0.0585 -0.3338  0.2621
 4914TIP3    H114748   4.826   1.009   1.895 -0.9946 -1.0125 -0.1973
 4914TIP3    H214749   4.710   1.096   1.853 -0.2638  0.3952  0.6142
 4915TIP3   OH214750   5.312   5.711   2.871 -0.2001 -0.0142  0.4940
 4915TIP3    H114751   5.362   5.726   2.951  0.6047 -0.9764  0.1878
 4915TIP3    H214752   5.337   5.784   2.813 -1.1833  0.9809  1.2745
 4916TIP3   OH214753   2.241   3.654   1.214  0.0001 -0.2128  0.1498
 4916TIP3    H114754   2.192   3.707   1.151 -0.9851 -1.0141  0.2173
 4916TIP3    H214755   2.304   3.606   1.161 -1.0616 -1.1523 -0.2927
 4917TIP3   OH214756   1.325   0.229   0.533  0.1096 -0.0722 -0.1387
 4917TIP3    H114757   1.363   0.277   0.606  1.2727 -0.5049 -0.4445
 4917TIP3    H214758   1.236   0.208   0.562 -0.1339  1.5240  0.3242
 4918TIP3   OH214759   1.679   4.898   4.547 -0.0665 -0.3818  0.5769
 4918TIP3    H114760   1.683   4.927   4.456 -1.3422 -1.1617  0.2487
 4918TIP3    H214761   1.769   4.900   4.577  0.5669 -1.4289 -1.1249
 4919TIP3   OH214762   1.403   1.076   2.587  0.0801  0.5462  0.4503
 4919TIP3    H114763   1.420   1.059   2.495  0.6165 -0.7384  0.7702
 4919TIP3    H214764   1.437   1.165   2.602  0.8794  0.3876 -0.3583
 4920TIP3   OH214765   5.702   3.779   1.051  0.1442 -0.7839  0.2309
 4920TIP3    H114766   5.647   3.757   0.975  1.3471 -2.1154 -0.3085
 4920TIP3    H214767   5.685   3.710   1.114 -0.2341 -0.1289  0.8603
 4921TIP3   OH214768   6.071   1.136   1.394 -0.1403  0.1511 -0.4544
 4921TIP3    H114769   6.039   1.222   1.364  0.3548  0.2021 -0.8475
 4921TIP3    H214770   6.104   1.152   1.483  0.5339  0.5133 -0.7621
 4922TIP3   OH214771   3.798   3.967   1.424  0.9532 -0.1044  0.5469
 4922TIP3    H114772   3.762   3.910   1.493 -2.5087 -0.3922 -1.2513
 4922TIP3    H214773   3.743   4.045   1.425  0.9901  0.0302 -1.6129
 4923TIP3   OH214774   0.181   4.848   3.766  0.1803 -0.4316 -0.2291
 4923TIP3    H114775   0.100   4.836   3.716 -0.0646 -0.3512  0.1494
 4923TIP3    H214776   0.235   4.903   3.710 -0.8950  1.4308  0.4615
 4924TIP3   OH214777   3.858   3.444   0.795  0.1628 -0.4473 -0.1026
 4924TIP3    H114778   3.841   3.522   0.848  1.0347 -0.2478 -0.1022
 4924TIP3    H214779   3.953   3.442   0.785  0.0501 -0.7894 -1.2051
 4925TIP3   OH214780   3.720   0.264   5.002 -0.0020 -0.7480 -0.1899
 4925TIP3    H114781   3.740   0.322   4.928 -1.2798 -2.5399 -2.0552
 4925TIP3    H214782   3.774   0.187   4.987 -0.8532 -1.4594  0.2860
 4926TIP3   OH214783   4.704   5.883   3.554 -0.6798  0.2376 -0.7237
 4926TIP3    H114784   4.795   5.859   3.571 -0.4815 -0.0069 -2.0341
 4926TIP3    H214785   4.664   5.890   3.641  0.3470 -0.5806 -0.1692
 4927TIP3   OH214786   4.136   5.741   4.357  0.0307  0.1053 -0.3472
 4927TIP3    H114787   4.170   5.747   4.268  0.5995 -1.6074 -0.2817
 4927TIP3    H214788   4.101   5.828   4.375 -0.3644  0.4085 -2.3319
 4928TIP3   OH214789   1.723   1.363   4.992  0.4834  0.0455 -0.4179
 4928TIP3    H114790   1.794   1.422   5.016  0.4856 -0.1718  0.1116
 4928TIP3    H214791   1.748   1.329   4.905  2.5416 -2.3394  0.9743
 4929TIP3   OH214792   0.100   2.723   3.726  0.0706 -0.2410 -0.1206
 4929TIP3    H114793   0.109   2.685   3.814 -4.1175  0.6787  0.9260
 4929TIP3    H214794   0.044   2.661   3.679  1.1233 -0.0263 -1.7436
 4930TIP3   OH214795   3.815   0.096   0.447  0.8657 -0.1306  0.6055
 4930TIP3    H114796   3.825   0.158   0.374 -1.7825 -0.2144  0.0413
 4930TIP3    H214797   3.723   0.103   0.471  1.1731 -1.7432  2.4934
 4931TIP3   OH214798   0.977   5.426   4.258 -0.1703 -0.6477  0.1951
 4931TIP3    H114799   1.030   5.505   4.247  0.1011 -0.9586 -0.7920
 4931TIP3    H214800   0.940   5.435   4.346  0.8733 -0.0456  0.5971
 4932TIP3   OH214801   4.635   5.015   0.517 -0.8055  0.5297 -0.5899
 4932TIP3    H114802   4.702   5.063   0.468 -0.0761 -0.6441 -0.7960
 4932TIP3    H214803   4.554   5.062   0.501  0.1624  2.8399  0.8133
 4933TIP3   OH214804   1.594   5.765   3.280 -0.2746  0.2241  0.2429
 4933TIP3    H114805   1.548   5.758   3.364  2.6068 -0.1233  1.9403
 4933TIP3    H214806   1.559   5.844   3.240 -0.6557  1.3033  2.5339
 4934TIP3   OH214807   1.451   1.001   4.948 -0.5071 -0.1338  0.0835
 4934TIP3    H114808   1.456   0.908   4.971 -2.6507 -0.4168 -0.3748
 4934TIP3    H214809   1.424   1.045   5.028 -2.0220 -0.2962 -0.3045
 4935TIP3   OH214810   5.600   2.835   3.741  0.3099  0.5760  0.7438
 4935TIP3    H114811   5.598   2.914   3.687 -1.4631  0.2784  0.2972
 4935TIP3    H214812   5.660   2.776   3.696 -1.0138  0.3947 -0.8941
 4936TIP3   OH214813   3.786   3.684   0.503 -0.2421 -0.3023 -0.8693
 4936TIP3    H114814   3.769   3.755   0.441  0.2430 -1.5852 -2.5662
 4936TIP3    H214815   3.876   3.656   0.482 -0.1270 -0.8669  0.3340
 4937TIP3   OH214816   4.717   5.846   2.966  0.0621 -0.2797  0.5481
 4937TIP3    H114817   4.637   5.873   2.922  0.2171  0.9625  0.9943
 4937TIP3    H214818   4.786   5.856   2.900 -0.1952 -1.8509  0.0001
 4938TIP3   OH214819   4.258   3.819   3.591  0.6033 -0.1602  0.1009
 4938TIP3    H114820   4.282   3.802   3.500  1.2655 -0.0045  0.2416
 4938TIP3    H214821   4.272   3.913   3.603 -1.3001  0.2039 -0.1629
 4939TIP3   OH214822   0.340   2.180   4.834 -0.0113 -0.1278  0.0527
 4939TIP3    H114823   0.347   2.098   4.882 -0.5026  0.0191  0.3900
 4939TIP3    H214824   0.412   2.178   4.771  1.4422  0.2486  1.6307
 4940TIP3   OH214825   4.458   3.269   1.765 -0.0087  0.0226 -0.5419
 4940TIP3    H114826   4.521   3.340   1.751  0.7629 -0.8603 -1.7418
 4940TIP3    H214827   4.396   3.278   1.693  0.0833 -0.4965 -0.6883
 4941TIP3   OH214828   2.800   2.955   4.360  0.3159  0.1553  0.4648
 4941TIP3    H114829   2.779   2.979   4.269 -4.0135  0.7055  1.3995
 4941TIP3    H214830   2.810   3.039   4.405 -0.1599 -0.0588  0.9753
 4942TIP3   OH214831   2.215   3.080   1.393 -0.2421 -0.2597 -0.5242
 4942TIP3    H114832   2.253   2.996   1.366 -0.6581 -0.5614 -0.1878
 4942TIP3    H214833   2.140   3.056   1.446 -1.1191  0.3343 -1.4626
 4943TIP3   OH214834   3.294   3.789   2.776  0.5409 -0.2037 -0.0408
 4943TIP3    H114835   3.285   3.869   2.827 -2.2633 -0.1981 -0.4145
 4943TIP3    H214836   3.225   3.731   2.808  0.9876 -1.5637 -1.3786
 4944TIP3   OH214837   0.305   3.732   0.709 -0.4970  0.1635  0.3141
 4944TIP3    H114838   0.210   3.743   0.707 -0.5727 -0.4960  0.1427
 4944TIP3    H214839   0.336   3.777   0.631 -0.8596 -1.2762 -0.7030
 4945TIP3   OH214840   4.483   1.987   3.095  0.0531  0.6282  0.6251
 4945TIP3    H114841   4.435   1.914   3.134  0.4444 -0.1944 -0.3809
 4945TIP3    H214842   4.432   2.010   3.016 -1.1966  2.8187  1.9527
 4946TIP3   OH214843   5.290   5.408   2.629  0.2624  0.0189  0.0201
 4946TIP3    H114844   5.269   5.363   2.547 -0.5660  0.9655 -0.3108
 4946TIP3    H214845   5.220   5.473   2.639 -0.0393 -0.5063  1.8127
 4947TIP3   OH214846   0.701   1.570   4.461 -0.2315  0.1845  0.5588
 4947TIP3    H114847   0.734   1.659   4.469 -0.0539  0.1013  0.7618
 4947TIP3    H214848   0.778   1.514   4.471 -0.2111  0.0242 -0.3900
 4948TIP3   OH214849   2.406   5.564   0.545  0.5903  0.1846 -0.0879
 4948TIP3    H114850   2.401   5.469   0.540  1.2411  0.1393  0.0017
 4948TIP3    H214851   2.449   5.590   0.464  0.5534  0.3908 -0.0417
 4949TIP3   OH214852   0.234   3.661   0.404 -0.0175 -0.3566  0.1968
 4949TIP3    H114853   0.290   3.667   0.326 -0.0436 -0.3071  0.1819
 4949TIP3    H214854   0.217   3.752   0.428  4.0143 -0.0767  3.1675
 4950TIP3   OH214855   1.652   3.670   0.772 -0.1452 -0.3893 -0.4644
 4950TIP3    H114856   1.735   3.700   0.809 -0.4053  1.1291 -1.0519
 4950TIP3    H214857   1.645   3.716   0.689 -1.4679 -0.6807 -0.5276
 4951TIP3   OH214858   3.444   3.865   0.518 -0.6679  0.5097  0.6436
 4951TIP3    H114859   3.425   3.771   0.511  0.2004  0.3639  0.0832
 4951TIP3    H214860   3.439   3.897   0.428  0.8893  0.6088  0.5585
 4952TIP3   OH214861   5.961   3.015   0.475 -0.0073  0.3046  0.6175
 4952TIP3    H114862   5.898   2.976   0.414  0.5394  0.8173 -0.2930
 4952TIP3    H214863   5.939   3.108   0.477  0.2301  0.3568  0.9192
 4953TIP3   OH214864   5.954   2.544   1.031  0.4215 -0.1831  0.3505
 4953TIP3    H114865   5.996   2.596   1.100  0.5935  0.3432 -0.1377
 4953TIP3    H214866   5.867   2.583   1.022 -0.7041 -2.0755  2.2423
 4954TIP3   OH214867   0.324   2.733   4.770  0.0578  0.5192  0.3938
 4954TIP3    H114868   0.387   2.674   4.729 -1.3365 -0.7735  0.0269
 4954TIP3    H214869   0.376   2.808   4.798  1.4135  0.5366 -1.9118
 4955TIP3   OH214870   2.802   3.717   2.433 -0.2694  0.2839  0.5200
 4955TIP3    H114871   2.860   3.672   2.495  0.9960  0.7185 -0.3171
 4955TIP3    H214872   2.754   3.647   2.389  1.9313 -0.3594 -1.0289
 4956TIP3   OH214873   5.897   1.555   0.062  0.1978  0.1276  0.0175
 4956TIP3    H114874   5.838   1.623   0.095  0.4041  0.4962 -0.3543
 4956TIP3    H214875   5.893   1.486   0.128  0.9226  1.0203  1.0505
 4957TIP3   OH214876   5.999   4.211   1.774  0.6156  0.2917 -0.3349
 4957TIP3    H114877   6.081   4.251   1.745  1.1066 -0.4801 -0.0553
 4957TIP3    H214878   6.022   4.168   1.856 -0.0866  0.1126 -0.2286
 4958TIP3   OH214879   6.200   5.835   3.085  0.3872 -0.0681  0.8327
 4958TIP3    H114880   6.230   5.764   3.141  1.2652  0.1873  0.7051
 4958TIP3    H214881   6.264   5.905   3.098 -0.1747  0.5137  0.5673
 4959TIP3   OH214882   3.746   1.022   3.478 -0.4023  0.2934  0.1303
 4959TIP3    H114883   3.704   1.091   3.426  0.5147 -1.1057 -2.6504
 4959TIP3    H214884   3.702   0.942   3.452  0.0691 -0.4811  1.6054
 4960TIP3   OH214885   5.759   1.227   0.055 -0.0236 -0.8517  0.3008
 4960TIP3    H114886   5.759   1.149   0.110  0.3459  0.1310  1.7542
 4960TIP3    H214887   5.714   1.294   0.107  2.8914  0.9624  0.7411
 4961TIP3   OH214888   3.882   1.454   0.663 -0.2741 -0.1974 -0.7107
 4961TIP3    H114889   3.947   1.501   0.610 -2.5657  3.9994 -0.3012
 4961TIP3    H214890   3.834   1.400   0.601  0.8655 -0.0437 -1.7582
 4962TIP3   OH214891   2.525   5.285   1.755  0.9470 -0.7567  0.3913
 4962TIP3    H114892   2.600   5.341   1.735  0.6608 -1.4024 -3.2456
 4962TIP3    H214893   2.557   5.196   1.740 -0.2375 -1.1169 -0.0937
 4963TIP3   OH214894   3.728   1.011   1.109 -0.2921 -0.5989 -0.2287
 4963TIP3    H114895   3.815   0.993   1.074  0.1547 -0.9808  1.0216
 4963TIP3    H214896   3.693   1.081   1.054  2.2440  2.1472  1.4066
 4964TIP3   OH214897   4.148   2.842   5.051  0.6465 -1.1467  0.2350
 4964TIP3    H114898   4.121   2.826   5.141 -1.2208 -2.5885 -0.5067
 4964TIP3    H214899   4.210   2.771   5.032  0.0477 -1.6174  0.0084
 4965TIP3   OH214900   3.460   2.513   3.544  0.4338 -0.4576 -0.0510
 4965TIP3    H114901   3.542   2.550   3.576  1.1808 -0.9577 -1.2899
 4965TIP3    H214902   3.485   2.427   3.509 -1.1619 -2.0891  2.4474
 4966TIP3   OH214903   3.204   0.519   3.171  0.8261  0.2910  0.2873
 4966TIP3    H114904   3.195   0.424   3.184 -1.8476  0.2573 -0.9875
 4966TIP3    H214905   3.153   0.557   3.243 -0.2606  0.6120 -0.6089
 4967TIP3   OH214906   0.435   1.672   1.455 -0.1698 -0.1938  0.3444
 4967TIP3    H114907   0.409   1.737   1.389 -0.2839  0.1872  0.7633
 4967TIP3    H214908   0.488   1.721   1.518  0.9555 -0.8029 -0.0929
 4968TIP3   OH214909   5.220   1.777   4.174 -0.0515 -0.1939 -0.0052
 4968TIP3    H114910   5.220   1.768   4.078  0.5018  0.5115 -0.0824
 4968TIP3    H214911   5.313   1.769   4.198 -0.2609 -1.1317  0.5595
 4969TIP3   OH214912   3.223   4.662   3.696  0.5111 -0.0436  0.1337
 4969TIP3    H114913   3.271   4.651   3.778  0.6942  1.3850  0.2330
 4969TIP3    H214914   3.170   4.741   3.709 -0.3796 -0.4776 -0.6914
 4970TIP3   OH214915   1.206   3.476   1.328 -0.1802 -0.2139 -0.0354
 4970TIP3    H114916   1.156   3.403   1.291 -1.4921  1.3875 -1.6125
 4970TIP3    H214917   1.262   3.436   1.395 -1.2303 -2.5544 -0.4711
 4971TIP3   OH214918   5.785   2.481   3.833  0.9165 -0.0628  0.6030
 4971TIP3    H114919   5.857   2.471   3.895  1.3431 -1.8849 -0.1082
 4971TIP3    H214920   5.821   2.537   3.764  1.5897 -0.7268  0.3937
 4972TIP3   OH214921   1.976   1.112   3.906 -0.2218  0.0314 -0.0723
 4972TIP3    H114922   1.946   1.121   3.815  1.0164  0.4083 -0.4650
 4972TIP3    H214923   1.903   1.143   3.959 -0.8448  0.1089 -0.9557
 4973TIP3   OH214924   4.468   4.227   1.900  0.6353 -1.0635  0.4097
 4973TIP3    H114925   4.450   4.243   1.992  1.6472  1.6599  0.2166
 4973TIP3    H214926   4.423   4.297   1.854  0.7224 -1.9715 -1.1349
 4974TIP3   OH214927   3.156   2.837   1.996  0.2501  0.0630  0.1799
 4974TIP3    H114928   3.222   2.768   2.002  1.1236  0.8965  0.6714
 4974TIP3    H214929   3.074   2.795   2.020  0.7610 -0.8045  0.4485
 4975TIP3   OH214930   1.907   4.628   5.107  0.3467 -0.1251 -0.0652
 4975TIP3    H114931   1.837   4.600   5.165  1.0524  1.6464  1.7749
 4975TIP3    H214932   1.881   4.715   5.078  0.7645 -0.3461 -1.1390
 4976TIP3   OH214933   4.192   1.962   4.563  0.3491 -0.7028 -0.1533
 4976TIP3    H114934   4.264   2.024   4.573 -0.1815 -0.1895  0.6317
 4976TIP3    H214935   4.117   2.006   4.602 -0.9396 -0.3151 -2.8130
 4977TIP3   OH214936   3.358   4.056   4.960  0.0036  0.1135 -0.4665
 4977TIP3    H114937   3.354   4.126   4.896 -0.6116  0.2566 -0.2792
 4977TIP3    H214938   3.272   4.014   4.955 -0.0954  0.2119  0.3642
 4978TIP3   OH214939   2.628   3.983   2.469 -0.3505  0.0834  0.3412
 4978TIP3    H114940   2.600   3.931   2.544 -2.0059 -0.0541 -0.3118
 4978TIP3    H214941   2.610   3.927   2.393  0.3667  0.5908 -0.2129
 4979TIP3   OH214942   2.181   0.693   1.483  0.7392  0.2845  0.5019
 4979TIP3    H114943   2.087   0.678   1.495 -0.3897  2.6333 -3.5341
 4979TIP3    H214944   2.220   0.606   1.490 -1.8548 -0.9269  1.2226
 4980TIP3   OH214945   1.475   2.176   2.096  0.6892 -0.0304 -0.4475
 4980TIP3    H114946   1.412   2.232   2.142  0.6370 -0.2784 -0.2107
 4980TIP3    H214947   1.429   2.148   2.017  1.8789  2.9749 -2.3684
 4981TIP3   OH214948   4.852   5.026   1.075  0.0960 -0.1032 -0.3524
 4981TIP3    H114949   4.908   4.972   1.019 -0.7860 -1.3958 -0.0488
 4981TIP3    H214950   4.837   5.106   1.025  0.4198 -0.6656 -1.3790
 4982TIP3   OH214951   4.563   4.311   4.235 -0.9086  0.1130  0.2073
 4982TIP3    H114952   4.503   4.369   4.187  0.6081  0.4572 -1.3794
 4982TIP3    H214953   4.595   4.364   4.308 -1.1694  0.5404  0.0140
 4983TIP3   OH214954   2.628   0.740   1.286 -0.1675  0.1655 -0.1750
 4983TIP3    H114955   2.569   0.673   1.252  1.5188 -1.6163  0.2879
 4983TIP3    H214956   2.585   0.771   1.366 -0.7088 -0.7857 -0.0800
 4984TIP3   OH214957   5.368   4.022   2.906 -0.3588 -0.1432  0.1040
 4984TIP3    H114958   5.449   4.067   2.929 -1.1474  0.5831  1.6161
 4984TIP3    H214959   5.379   3.933   2.940  0.5665 -0.6554 -1.4654
 4985TIP3   OH214960   5.775   2.639   3.602  0.7243 -0.0255 -0.8086
 4985TIP3    H114961   5.741   2.588   3.528  0.1631 -0.2310 -0.4136
 4985TIP3    H214962   5.859   2.673   3.571  2.6584 -3.6743 -0.0234
 4986TIP3   OH214963   3.912   2.144   3.143  0.0232 -0.0366  0.8456
 4986TIP3    H114964   3.874   2.057   3.128  2.2738 -0.9260 -0.1543
 4986TIP3    H214965   3.901   2.189   3.059  0.0513  0.1462  0.9407
 4987TIP3   OH214966   0.138   5.410   2.131  0.0184  0.2792 -0.2549
 4987TIP3    H114967   0.208   5.351   2.159 -0.3846  0.3539  0.9941
 4987TIP3    H214968   0.106   5.373   2.049  1.6118  0.3307 -0.9327
 4988TIP3   OH214969   4.382   0.449   0.630  0.6695 -0.2046 -0.1529
 4988TIP3    H114970   4.417   0.371   0.586 -0.2760 -0.4396 -0.5148
 4988TIP3    H214971   4.340   0.499   0.561  1.3494  0.6881  0.0643
 4989TIP3   OH214972   3.815   2.670   2.090  0.3690  0.4504  0.6039
 4989TIP3    H114973   3.753   2.721   2.142 -0.1582  0.7974 -0.3347
 4989TIP3    H214974   3.879   2.734   2.060 -0.0668  0.5069 -0.2420
 4990TIP3   OH214975   3.257   1.180   4.972  0.2630 -0.0243  0.2348
 4990TIP3    H114976   3.347   1.148   4.961 -0.1295 -1.1290  0.1323
 4990TIP3    H214977   3.251   1.256   4.914  0.9987 -0.2134 -0.0997
 4991TIP3   OH214978   2.396   5.601   1.046  0.1964 -0.0366 -0.2338
 4991TIP3    H114979   2.486   5.618   1.018  0.8042 -0.1163  1.5662
 4991TIP3    H214980   2.393   5.628   1.137 -0.9551 -2.1892  0.4514
 4992TIP3   OH214981   0.739   5.245   2.348 -0.6451 -0.1049  0.1493
 4992TIP3    H114982   0.830   5.214   2.356 -1.4098 -3.2604 -1.5475
 4992TIP3    H214983   0.732   5.274   2.257 -1.4079 -0.2167  0.1656
 4993TIP3   OH214984   4.916   2.308   0.552 -0.4548  0.2438 -0.7763
 4993TIP3    H114985   4.873   2.311   0.466  1.3429 -2.3527 -1.8884
 4993TIP3    H214986   4.982   2.239   0.544  0.7933  0.9074  2.2714
 4994TIP3   OH214987   4.636   3.284   0.845  0.2440 -0.2918  0.2610
 4994TIP3    H114988   4.631   3.242   0.930  0.7660  0.5689  0.7257
 4994TIP3    H214989   4.730   3.300   0.831  0.0679  0.6368  0.0648
 4995TIP3   OH214990   0.624   3.763   2.987 -0.4655  0.1246  0.1359
 4995TIP3    H114991   0.566   3.815   2.931  0.8824  0.7681 -0.7133
 4995TIP3    H214992   0.700   3.820   3.003 -0.0203 -0.7156  1.1555
 4996TIP3   OH214993   3.875   4.297   2.261 -0.4905 -0.0928  0.2862
 4996TIP3    H114994   3.893   4.357   2.334 -2.1577  3.1837 -1.7506
 4996TIP3    H214995   3.781   4.280   2.266 -0.4643 -0.5595 -0.5809
 4997TIP3   OH214996   3.639   1.208   0.891 -0.3814 -0.5768  0.2376
 4997TIP3    H114997   3.672   1.160   0.815  2.1116 -0.5320  1.2109
 4997TIP3    H214998   3.605   1.290   0.855 -0.8923 -1.3175 -1.0010
 4998TIP3   OH214999   6.224   5.380   0.805  0.4975 -0.6370 -0.1489
 4998TIP3    H115000   6.234   5.436   0.883 -1.5105  0.6664 -0.7644
 4998TIP3    H215001   6.146   5.328   0.823  0.2166 -0.5718 -1.1339
 4999TIP3   OH215002   2.518   5.216   4.695 -0.2029 -0.4118  0.3635
 4999TIP3    H115003   2.424   5.228   4.712  0.0759 -0.2226  1.9151
 4999TIP3    H215004   2.539   5.132   4.738  0.4731 -0.1068  0.6423
 5000TIP3   OH215005   4.962   4.986   4.287  0.2814  0.1048 -0.2262
 5000TIP3    H115006   4.926   4.918   4.344  1.9531 -0.7927 -0.1703
 5000TIP3    H215007   4.934   5.069   4.327  0.9054 -0.5107  1.5714
 5001TIP3   OH215008   4.669   4.097   2.050  0.9251  0.3089  0.0905
 5001TIP3    H115009   4.636   4.123   2.136 -0.6418 -2.2067  0.3798
 5001TIP3    H215010   4.598   4.118   1.990  0.4119 -1.3694  0.0593
 5002TIP3   OH215011   3.226   0.681   4.585  0.2941  0.0377  0.1534
 5002TIP3    H115012   3.305   0.718   4.625  1.2384 -0.2085 -1.4035
 5002TIP3    H215013   3.259   0.626   4.514 -1.3127  1.5756 -1.9028
 5003TIP3   OH215014   3.563   4.051   3.062 -0.3090  0.1623 -0.2819
 5003TIP3    H115015   3.580   4.138   3.025  0.5204 -0.9122 -2.6617
 5003TIP3    H215016   3.646   4.004   3.052 -1.4459 -1.7085 -1.5954
 5004TIP3   OH215017   1.976   0.139   4.445 -0.1540 -0.3237  0.0723
 5004TIP3    H115018   1.898   0.101   4.486 -0.9712  1.4993  0.3154
 5004TIP3    H215019   1.940   0.199   4.379  1.0725  0.0533 -0.2694
 5005TIP3   OH215020   3.646   0.036   0.964 -0.2240 -0.3014  0.3128
 5005TIP3    H115021   3.689   0.002   1.044 -0.7114 -1.4208  0.1163
 5005TIP3    H215022   3.690  -0.010   0.893 -1.4758 -1.2002  0.0855
 5006TIP3   OH215023   0.509   1.334   1.500 -0.3310 -0.4256 -0.6560
 5006TIP3    H115024   0.557   1.356   1.420  0.0940 -2.1714 -0.9398
 5006TIP3    H215025   0.486   1.242   1.489 -2.6307  0.0050  0.0710
 5007TIP3   OH215026   5.737   4.071   4.022 -0.0602 -0.0413 -0.3094
 5007TIP3    H115027   5.781   4.132   3.962  0.0977 -0.3066 -0.4622
 5007TIP3    H215028   5.781   3.988   4.009 -1.0118 -0.4715 -0.9175
 5008TIP3   OH215029   5.565   4.034   4.714 -0.5765  0.6648  0.3805
 5008TIP3    H115030   5.570   4.129   4.707  0.1716  0.5701 -0.5802
 5008TIP3    H215031   5.564   4.003   4.624 -0.5070 -0.2515  0.6844
 5009TIP3   OH215032   5.581   2.543   2.373 -0.2827  0.4205 -0.4553
 5009TIP3    H115033   5.624   2.608   2.429  0.1716  0.3665 -0.7339
 5009TIP3    H215034   5.496   2.582   2.353 -0.5014  0.3780  0.3738
 5010TIP3   OH215035   3.635   1.023   4.058 -0.2832  0.2785 -0.2215
 5010TIP3    H115036   3.560   1.039   4.116 -0.4060  0.7495 -0.5032
 5010TIP3    H215037   3.671   1.110   4.041  2.9357 -0.1128  3.2596
 5011TIP3   OH215038   3.808   2.964   4.033  0.0764 -0.1394 -0.1971
 5011TIP3    H115039   3.808   3.059   4.021  1.9007 -0.1069 -0.1124
 5011TIP3    H215040   3.799   2.929   3.944 -0.4939  0.0959 -0.2379
 5012TIP3   OH215041   1.103   2.238   2.101  0.5526 -0.2752  0.6484
 5012TIP3    H115042   1.038   2.256   2.168  0.6889  1.6455  0.3143
 5012TIP3    H215043   1.129   2.324   2.068  2.7444 -1.0007  0.2810
 5013TIP3   OH215044   1.310   4.780   4.607 -0.3869 -0.0140  0.3802
 5013TIP3    H115045   1.385   4.733   4.644  0.4797  0.2993 -0.9007
 5013TIP3    H215046   1.262   4.813   4.683  0.7766 -0.2095  1.2246
 5014TIP3   OH215047   2.810   5.640   0.089  0.1628  0.3407  0.1464
 5014TIP3    H115048   2.888   5.684   0.121 -0.8573  0.5583  2.5360
 5014TIP3    H215049   2.805   5.559   0.140 -1.3201  0.4773  0.2561
 5015TIP3   OH215050   3.581   1.888   4.878 -0.2208 -0.2463  0.1082
 5015TIP3    H115051   3.528   1.813   4.906 -1.2591  0.5791  0.3905
 5015TIP3    H215052   3.541   1.917   4.796 -1.9607  2.0282  1.6283
 5016TIP3   OH215053   3.857   1.724   0.863  0.1654 -0.0078 -0.0017
 5016TIP3    H115054   3.895   1.642   0.832 -1.0562 -1.0595  1.1656
 5016TIP3    H215055   3.762   1.710   0.861 -0.0387  0.9639  1.2511
 5017TIP3   OH215056   4.822   2.195   5.151  0.6869 -0.3776 -0.3773
 5017TIP3    H115057   4.733   2.224   5.170  0.5131 -0.4832 -1.0159
 5017TIP3    H215058   4.814   2.141   5.073  1.2417 -0.8238 -0.1340
 5018TIP3   OH215059   1.064   0.112   5.040  0.1241 -0.5670 -0.4801
 5018TIP3    H115060   1.146   0.098   5.087  0.2904  0.4234 -0.4596
 5018TIP3    H215061   1.074   0.062   4.959  1.2050  0.4165 -0.9777
 5019TIP3   OH215062   2.019   1.394   4.657 -0.4179  0.0520  0.8388
 5019TIP3    H115063   2.027   1.439   4.573 -2.1998  0.3884  0.8203
 5019TIP3    H215064   2.103   1.348   4.668 -0.3842 -0.5169 -1.4024
 5020TIP3   OH215065   2.432   0.225   2.365  0.0337 -0.1644 -0.2361
 5020TIP3    H115066   2.373   0.260   2.432 -1.4895 -1.2336 -0.9569
 5020TIP3    H215067   2.434   0.292   2.297 -1.0888 -0.4721 -0.5998
 5021TIP3   OH215068   6.160   5.281   1.399 -0.6113  0.4173  0.4493
 5021TIP3    H115069   6.087   5.263   1.340 -1.7137  0.3840  1.7834
 5021TIP3    H215070   6.213   5.346   1.352 -1.7414  0.8077 -0.3387
 5022TIP3   OH215071   0.491   4.739   2.064 -0.0006  0.1492 -0.3322
 5022TIP3    H115072   0.440   4.693   1.997 -0.0426  0.1223 -0.2813
 5022TIP3    H215073   0.444   4.724   2.145  0.1410  0.0418 -0.2693
 5023TIP3   OH215074   6.234   1.437   3.841  0.0478 -0.6147 -0.3882
 5023TIP3    H115075   6.250   1.488   3.920 -0.7548  1.0302 -1.2507
 5023TIP3    H215076   6.139   1.430   3.835 -0.0018  0.7413 -2.0533
 5024TIP3   OH215077   4.367   4.460   1.796 -0.3323 -0.2944 -0.2947
 5024TIP3    H115078   4.386   4.554   1.796 -0.4000 -0.2808 -0.3922
 5024TIP3    H215079   4.271   4.455   1.788 -0.2524 -0.3913 -1.2554
 5025TIP3   OH215080   6.298   2.571   4.470 -0.1045 -0.0524 -0.5381
 5025TIP3    H115081   6.232   2.576   4.539  1.3529  0.7311  0.8548
 5025TIP3    H215082   6.370   2.624   4.502  1.4209 -1.2916 -1.7688
 5026TIP3   OH215083   0.349   4.340   4.841 -0.7369  0.0880  0.0848
 5026TIP3    H115084   0.300   4.389   4.907 -2.3829  0.6519 -1.4745
 5026TIP3    H215085   0.299   4.352   4.760  1.7451  0.2564 -1.5242
 5027TIP3   OH215086   3.515   2.367   2.471 -0.4203  0.2859  0.4746
 5027TIP3    H115087   3.478   2.384   2.384 -0.3280 -0.7488  0.2283
 5027TIP3    H215088   3.549   2.452   2.499  2.3789  0.0538 -1.8134
 5028TIP3   OH215089   4.198   1.753   5.164  0.4395 -0.0266 -0.1943
 5028TIP3    H115090   4.206   1.683   5.229  0.5253 -0.0516 -0.2317
 5028TIP3    H215091   4.177   1.708   5.082 -1.0776  0.1010  0.0856
 5029TIP3   OH215092   4.628   1.969   0.338 -0.1431 -0.3827  0.2240
 5029TIP3    H115093   4.712   1.927   0.320  0.3641  0.5094  0.4609
 5029TIP3    H215094   4.591   1.919   0.410  0.8336  0.0618  1.0548
 5030TIP3   OH215095   4.149   1.421   3.021 -0.4220 -0.1956  0.0522
 5030TIP3    H115096   4.099   1.456   2.947  1.0422  1.5152 -0.1717
 5030TIP3    H215097   4.115   1.467   3.098  0.3741  0.5313 -0.0219
 5031TIP3   OH215098   4.196   5.331   0.619  0.6693 -0.1359 -0.0998
 5031TIP3    H115099   4.109   5.303   0.589  0.6025 -1.7877  1.4494
 5031TIP3    H215100   4.210   5.415   0.575 -2.3747  0.9728  0.7459
 5032TIP3   OH215101   2.262   1.959   2.334 -0.1297  0.6967 -0.2319
 5032TIP3    H115102   2.187   1.962   2.393 -0.3239  0.0306 -0.4369
 5032TIP3    H215103   2.226   1.980   2.248 -0.0397  0.6061 -0.2923
 5033TIP3   OH215104   4.099   1.538   3.293  0.5360  0.0627  0.2496
 5033TIP3    H115105   4.089   1.483   3.370  0.3242  0.1023  0.2495
 5033TIP3    H215106   4.160   1.607   3.320  1.5293 -0.6881 -0.0240
 5034TIP3   OH215107   1.226   3.400   2.350  0.2501 -0.1256  0.4208
 5034TIP3    H115108   1.265   3.390   2.436 -0.9604  0.2296  1.0403
 5034TIP3    H215109   1.289   3.452   2.300  0.8424 -0.1078  1.1770
 5035TIP3   OH215110   1.800   5.524   2.570  0.3346 -0.3089 -0.4440
 5035TIP3    H115111   1.750   5.598   2.537 -0.5025 -0.6620  0.0039
 5035TIP3    H215112   1.745   5.486   2.639  2.1888  0.6546  1.6917
 5036TIP3   OH215113   2.892   1.464   3.590  0.4632 -0.4136 -0.2521
 5036TIP3    H115114   2.819   1.503   3.542  0.4390  2.0826  1.6481
 5036TIP3    H215115   2.949   1.429   3.522  0.2316  2.5494 -2.1225
 5037TIP3   OH215116   4.334   5.773   0.463 -0.3186  0.6471  0.2557
 5037TIP3    H115117   4.297   5.861   0.474 -0.3411  0.5356  1.1550
 5037TIP3    H215118   4.419   5.788   0.423 -1.3847  0.8945 -2.0738
 5038TIP3   OH215119   1.050   5.452   4.872 -0.4319 -0.2295  0.5954
 5038TIP3    H115120   0.999   5.438   4.952 -2.1202  0.6302 -0.2596
 5038TIP3    H215121   1.089   5.367   4.853  0.5383 -0.2945  2.6368
 5039TIP3   OH215122   3.064   3.504   4.229 -0.6239 -0.1918 -0.1051
 5039TIP3    H115123   3.072   3.599   4.240 -1.5135 -0.0126 -0.8235
 5039TIP3    H215124   3.153   3.470   4.239 -0.1781  0.8041 -0.5803
 5040TIP3   OH215125   6.087   0.528   1.146 -0.4940  0.5647  0.3100
 5040TIP3    H115126   6.129   0.563   1.067 -1.9982 -1.0413 -1.2836
 5040TIP3    H215127   6.160   0.513   1.207  0.7648  1.3893 -0.9248
 5041TIP3   OH215128   2.582   0.098   0.930  0.4197  0.5893 -0.0750
 5041TIP3    H115129   2.604   0.177   0.880 -1.1957  1.6577  0.8264
 5041TIP3    H215130   2.610   0.026   0.874  0.0369  1.7534 -1.8610
 5042TIP3   OH215131   1.770   1.501   2.299  0.2312  0.3972 -0.3067
 5042TIP3    H115132   1.703   1.558   2.337  0.5918  0.5525  0.1014
 5042TIP3    H215133   1.852   1.549   2.309  0.3053  0.5669 -1.5433
 5043TIP3   OH215134   5.701   3.031   3.553 -0.1206  0.0921  0.3634
 5043TIP3    H115135   5.775   3.081   3.587 -0.8319  0.8068  0.9181
 5043TIP3    H215136   5.740   2.954   3.514  0.9925  0.9608 -0.2995
 5044TIP3   OH215137   2.695   1.280   3.676 -0.4698  0.1649 -0.0791
 5044TIP3    H115138   2.722   1.255   3.764 -0.6856 -2.5544 -0.6958
 5044TIP3    H215139   2.766   1.336   3.644  1.3627 -1.6338  0.6275
 5045TIP3   OH215140   2.142   0.099   0.521  0.2996  0.0768  0.1581
 5045TIP3    H115141   2.093   0.072   0.444  0.5549  1.0791 -0.3691
 5045TIP3    H215142   2.085   0.162   0.566  0.8408  0.7931 -0.1394
 5046TIP3   OH215143   3.491   3.479   2.048 -0.3279  0.3866  0.4074
 5046TIP3    H115144   3.451   3.545   1.991  0.2078  0.1773 -0.2238
 5046TIP3    H215145   3.438   3.481   2.128 -0.6719  1.1649  0.1680
 5047TIP3   OH215146   1.826   3.762   4.903 -0.1423  0.6692  0.4220
 5047TIP3    H115147   1.829   3.856   4.884  0.2934  0.3670 -1.1589
 5047TIP3    H215148   1.912   3.741   4.938 -0.6787  1.0782  2.0827
 5048TIP3   OH215149   4.370   3.507   0.558 -0.1255  0.1129 -0.1053
 5048TIP3    H115150   4.382   3.463   0.643 -1.0600 -0.9237 -0.4768
 5048TIP3    H215151   4.384   3.600   0.577  1.7858 -0.2845  0.7459
 5049TIP3   OH215152   2.158   4.097   0.112 -0.2175  0.0709  0.1118
 5049TIP3    H115153   2.091   4.156   0.146 -0.7952 -0.6394  0.2253
 5049TIP3    H215154   2.113   4.014   0.100  0.8922 -0.7459  1.2720
 5050TIP3   OH215155   1.023   4.908   2.623 -0.2521 -0.1521 -0.8797
 5050TIP3    H115156   1.009   4.814   2.612 -0.8553  0.0290 -1.7696
 5050TIP3    H215157   0.942   4.940   2.661 -0.7286  0.2587 -2.1821
 5051TIP3   OH215158   5.735   5.551   2.644  0.3782 -0.2075  0.1898
 5051TIP3    H115159   5.728   5.530   2.737  0.3076 -1.1665 -0.0250
 5051TIP3    H215160   5.658   5.606   2.627  0.5227  0.1786  0.7467
 5052TIP3   OH215161   4.087   4.960   3.037 -0.2253  0.0088 -0.3352
 5052TIP3    H115162   4.063   4.867   3.036 -2.6437  0.5408 -2.0047
 5052TIP3    H215163   4.140   4.971   3.116 -1.2981 -2.4408  0.8202
 5053TIP3   OH215164   1.542   4.808   3.162  0.6292 -0.1520  0.0364
 5053TIP3    H115165   1.517   4.813   3.255 -0.4716 -0.7144 -0.2183
 5053TIP3    H215166   1.490   4.876   3.120  1.6728  0.6003 -0.0763
 5054TIP3   OH215167   0.483   1.909   0.838  0.0104 -0.0290 -0.0098
 5054TIP3    H115168   0.408   1.965   0.819  1.8329  2.1448 -1.4121
 5054TIP3    H215169   0.514   1.939   0.924 -0.0035 -0.0285 -0.0051
 5055TIP3   OH215170   3.158   4.991   1.292  0.0971 -0.4564 -0.1866
 5055TIP3    H115171   3.103   4.927   1.339  1.0552 -1.5612 -0.5080
 5055TIP3    H215172   3.129   4.985   1.201 -0.1211 -0.0889 -0.1426
 5056TIP3   OH215173   2.868   1.013   0.228 -0.0345  0.0460  0.0929
 5056TIP3    H115174   2.933   1.066   0.273 -0.6680 -0.0171  1.1022
 5056TIP3    H215175   2.784   1.054   0.250 -0.3880 -0.2166 -0.7117
 5057TIP3   OH215176   5.335   4.780   4.945 -0.0934 -1.1239 -0.2727
 5057TIP3    H115177   5.244   4.765   4.970 -0.1461 -1.9641 -0.9504
 5057TIP3    H215178   5.382   4.784   5.029 -0.3293 -3.5067  0.0224
 5058TIP3   OH215179   0.933   3.287   4.316  0.2685 -0.2947  0.2272
 5058TIP3    H115180   0.878   3.360   4.286  0.0612 -0.2896  0.6151
 5058TIP3    H215181   0.887   3.253   4.392 -1.4992 -3.0699 -1.8825
 5059TIP3   OH215182   1.516   3.287   4.094 -0.3117  0.1990  0.0692
 5059TIP3    H115183   1.562   3.353   4.146  0.0134 -0.4923  0.6901
 5059TIP3    H215184   1.586   3.230   4.061 -0.4127  1.1082 -1.8937
 5060TIP3   OH215185   2.034   2.809   3.052 -0.4128 -0.6195 -0.3304
 5060TIP3    H115186   2.078   2.836   3.132 -2.2227  0.3200  0.4172
 5060TIP3    H215187   2.104   2.799   2.988  0.8464  1.3846  0.6166
 5061TIP3   OH215188   0.196   5.451   1.082  0.0370  0.6571  0.7765
 5061TIP3    H115189   0.196   5.526   1.141  0.4505  0.1071  1.4937
 5061TIP3    H215190   0.190   5.489   0.995 -2.7770  1.4309  1.2259
 5062TIP3   OH215191   0.867   1.339   5.062 -0.8940  0.0207 -0.3258
 5062TIP3    H115192   0.864   1.263   5.004  2.9497  0.4772 -1.3575
 5062TIP3    H215193   0.891   1.304   5.147 -0.1863 -0.0391 -0.5476
 5063TIP3   OH215194   0.168   4.344   3.416  0.0261  0.2400  0.0060
 5063TIP3    H115195   0.261   4.368   3.411  0.4625 -1.3604 -0.3292
 5063TIP3    H215196   0.155   4.283   3.343 -1.4661  0.9185 -0.3323
 5064TIP3   OH215197   2.771   2.484   4.238 -0.2054  0.8077  0.2267
 5064TIP3    H115198   2.807   2.493   4.150  0.1783  0.7949  0.3792
 5064TIP3    H215199   2.736   2.571   4.259  1.0093  1.2152  0.6215
 5065TIP3   OH215200   0.319   4.290   1.034 -0.0966  0.1223 -0.4797
 5065TIP3    H115201   0.337   4.255   1.121  0.9191 -2.5861 -1.6916
 5065TIP3    H215202   0.315   4.385   1.048 -0.9159 -0.2427  2.6400
 5066TIP3   OH215203   1.544   4.873   1.503  0.2474  0.3927  0.0632
 5066TIP3    H115204   1.543   4.945   1.441  2.5677 -0.0773 -0.5973
 5066TIP3    H215205   1.471   4.817   1.476  0.9640  0.4009 -2.0225
 5067TIP3   OH215206   6.208   3.494   2.583 -0.0206 -0.3691 -0.4869
 5067TIP3    H115207   6.156   3.414   2.585 -0.6533  0.0332  1.0937
 5067TIP3    H215208   6.142   3.564   2.583  0.4645  0.1638  2.2178
 5068TIP3   OH215209   3.506   2.695   4.843 -0.2136 -0.1214 -0.1295
 5068TIP3    H115210   3.504   2.789   4.831 -0.1660 -0.0965  0.0536
 5068TIP3    H215211   3.416   2.672   4.868 -0.7604 -0.3966 -2.1492
 5069TIP3   OH215212   5.077   2.959   0.059 -0.0295  0.3101  0.2506
 5069TIP3    H115213   5.061   2.864   0.057 -1.5175  0.5135  1.0511
 5069TIP3    H215214   5.095   2.982  -0.032 -2.4961 -0.3177 -0.4729
 5070TIP3   OH215215   3.957   1.337   3.464  0.0505 -0.0919 -0.5343
 5070TIP3    H115216   4.033   1.282   3.479 -0.7546 -0.9992  0.4300
 5070TIP3    H215217   3.921   1.353   3.552 -0.9763  0.1466 -0.9758
 5071TIP3   OH215218   4.470   5.520   3.828  0.1366  0.1450 -0.3406
 5071TIP3    H115219   4.502   5.459   3.895  2.5305 -0.0910 -1.6081
 5071TIP3    H215220   4.454   5.466   3.751 -1.5602  0.5726 -0.3169
 5072TIP3   OH215221   3.982   4.039   2.586  0.4816 -0.4312  0.4614
 5072TIP3    H115222   3.970   3.947   2.563  0.9323 -0.6643  1.1231
 5072TIP3    H215223   4.063   4.064   2.542  0.8767 -0.6304  1.0652
 5073TIP3   OH215224   3.763   3.842   2.734  0.2339  0.2345  0.2606
 5073TIP3    H115225   3.709   3.762   2.736  0.9375 -0.2603 -0.2901
 5073TIP3    H215226   3.799   3.848   2.823 -0.0128  0.0759  0.3730
 5074TIP3   OH215227   1.948   0.794   3.655  0.0674 -0.1245 -0.0313
 5074TIP3    H115228   1.958   0.835   3.569 -0.1014 -1.0817 -0.5278
 5074TIP3    H215229   1.958   0.700   3.638 -0.3362 -0.3596  0.9360
 5075TIP3   OH215230   3.132   5.158   0.222  0.1087  0.3889 -0.0805
 5075TIP3    H115231   3.217   5.120   0.200  0.0533  0.4573 -0.4205
 5075TIP3    H215232   3.153   5.248   0.247  0.0958  0.5169 -0.5254
 5076TIP3   OH215233   5.088   3.234   4.002 -0.1734 -0.0222  0.6813
 5076TIP3    H115234   5.176   3.260   3.973 -0.3335  0.4865  0.6399
 5076TIP3    H215235   5.067   3.157   3.949  0.9292 -1.1966  1.8707
 5077TIP3   OH215236   5.785   1.596   0.499 -0.2479  0.0869  0.3589
 5077TIP3    H115237   5.835   1.665   0.455  0.6280 -0.6642  0.1489
 5077TIP3    H215238   5.851   1.546   0.547 -1.0127  0.0521  1.4103
 5078TIP3   OH215239   2.010   2.626   2.312 -0.3778  0.5100 -0.7600
 5078TIP3    H115240   1.941   2.648   2.249  0.4257  0.7173 -1.5808
 5078TIP3    H215241   2.054   2.550   2.274  1.1121  1.5824 -1.2609
 5079TIP3   OH215242   5.987   1.922   2.847  0.1180  0.4907 -0.0959
 5079TIP3    H115243   5.938   1.846   2.814 -1.0852  0.7629  0.9975
 5079TIP3    H215244   5.964   1.927   2.939  0.9949  1.5986  0.0841
 5080TIP3   OH215245   4.526   3.744   2.203  0.3904  0.1139  0.1186
 5080TIP3    H115246   4.538   3.836   2.182 -0.0346  0.1247 -0.0759
 5080TIP3    H215247   4.509   3.702   2.119 -0.9118  0.0978  0.3695
 5081TIP3   OH215248   0.987   3.587   0.416 -0.2759  0.5031 -0.0507
 5081TIP3    H115249   1.065   3.533   0.401 -1.2404 -0.6631 -1.1583
 5081TIP3    H215250   0.929   3.531   0.469  0.4940  2.2140  2.7833
 5082TIP3   OH215251   0.689   0.565   4.892  0.2632 -0.6073 -0.1356
 5082TIP3    H115252   0.682   0.588   4.800  1.5095  1.0676  0.1343
 5082TIP3    H215253   0.667   0.472   4.896  0.0533 -0.6678 -2.0867
 5083TIP3   OH215254   4.393   3.934   2.026 -0.2136  0.0214 -0.0358
 5083TIP3    H115255   4.358   4.018   2.056  1.0021  0.8353 -0.8130
 5083TIP3    H215256   4.316   3.884   2.000 -0.8589  1.6444 -1.4349
 5084TIP3   OH215257   4.896   0.844   4.581  0.0657 -0.1682 -0.4313
 5084TIP3    H115258   4.894   0.842   4.486  0.9751 -1.4335 -0.4352
 5084TIP3    H215259   4.927   0.758   4.607  0.8730  0.5040  0.9780
 5085TIP3   OH215260   0.558   5.978   4.628 -0.0254  1.0042  0.2008
 5085TIP3    H115261   0.468   6.006   4.613 -1.1191 -1.3382  1.7351
 5085TIP3    H215262   0.554   5.883   4.628  2.5902  0.8153 -0.2614
 5086TIP3   OH215263   2.855   0.973   1.378 -0.6818 -0.4214 -0.2097
 5086TIP3    H115264   2.917   0.950   1.448 -2.6314 -0.7501  1.5170
 5086TIP3    H215265   2.769   0.960   1.418 -1.9873 -3.0972 -3.4545
 5087TIP3   OH215266   2.903   0.097   1.604  0.8067 -0.1673  0.1106
 5087TIP3    H115267   2.909   0.177   1.551  2.3435 -0.3121  0.0233
 5087TIP3    H215268   2.932   0.124   1.691  0.6871 -0.4917  0.2521
 5088TIP3   OH215269   4.572   0.179   4.353  0.0661  0.1427 -0.3956
 5088TIP3    H115270   4.579   0.115   4.423  0.7895  0.3253 -0.2871
 5088TIP3    H215271   4.479   0.201   4.348 -0.0160 -0.0372  0.3480
 5089TIP3   OH215272   1.042   0.632   1.894  0.3694  0.1259 -0.4337
 5089TIP3    H115273   1.120   0.580   1.912  1.3077  1.1837 -1.2593
 5089TIP3    H215274   1.017   0.668   1.980  0.7251 -0.2925 -0.1491
 5090TIP3   OH215275   5.066   3.381   2.111 -0.1561 -0.3882 -0.0033
 5090TIP3    H115276   5.023   3.418   2.035 -1.0184 -0.5317  0.4021
 5090TIP3    H215277   5.129   3.318   2.075 -0.2512 -0.1405 -0.6049
 5091TIP3   OH215278   5.956   1.710   0.337  0.6519 -0.4212  0.3169
 5091TIP3    H115279   6.028   1.746   0.286  0.1540  0.8749  0.4890
 5091TIP3    H215280   5.926   1.634   0.287  0.9589  0.0988 -0.6829
 5092TIP3   OH215281   4.072   0.733   1.882 -0.7179  0.4860 -0.0117
 5092TIP3    H115282   4.142   0.729   1.817 -1.8850 -0.2711 -1.2851
 5092TIP3    H215283   4.009   0.796   1.846  0.0618  2.5363  1.9688
 5093TIP3   OH215284   1.569   3.507   3.257  0.1180 -0.0527 -0.2915
 5093TIP3    H115285   1.570   3.496   3.352  0.2199 -1.5816 -0.4417
 5093TIP3    H215286   1.478   3.529   3.237  0.3363  1.4716  0.2502
 5094TIP3   OH215287   5.988   1.517   0.662  0.0915  0.1904 -0.0110
 5094TIP3    H115288   5.972   1.600   0.709  0.1489 -0.8226  1.9005
 5094TIP3    H215289   6.048   1.541   0.592  0.6781  1.6649  0.9375
 5095TIP3   OH215290   3.393   2.012   4.073 -0.0531 -0.2201 -0.1191
 5095TIP3    H115291   3.331   1.943   4.100 -1.3967  0.8585 -0.3443
 5095TIP3    H215292   3.374   2.026   3.980 -1.9218  2.4666  0.5554
 5096TIP3   OH215293   0.396   1.838   3.152  0.0669 -0.1059 -0.4047
 5096TIP3    H115294   0.352   1.754   3.162 -1.8584  0.8087 -0.6953
 5096TIP3    H215295   0.385   1.881   3.236  0.3714  0.1599 -0.4998
 5097TIP3   OH215296   3.152   1.026   1.007 -0.2000 -0.0619 -0.0963
 5097TIP3    H115297   3.149   0.950   1.065  4.2586 -0.5937 -0.1642
 5097TIP3    H215298   3.140   1.102   1.065 -0.3770 -0.7035  0.7186
 5098TIP3   OH215299   3.094   2.293   1.652  0.9393 -0.1527 -0.2767
 5098TIP3    H115300   3.122   2.209   1.688  0.1701 -0.2564  0.1047
 5098TIP3    H215301   3.147   2.305   1.574  0.6454 -1.2924 -0.6694
 5099TIP3   OH215302   3.168   5.637   4.461  0.0330 -0.0849  0.1812
 5099TIP3    H115303   3.191   5.557   4.414 -1.0406 -0.8324  0.8768
 5099TIP3    H215304   3.079   5.622   4.492  0.6274  0.4295  2.3207
 5100TIP3   OH215305   2.350   2.973   2.137  0.2492 -0.4737  0.1093
 5100TIP3    H115306   2.377   2.887   2.105 -2.5452 -1.2226 -0.5901
 5100TIP3    H215307   2.270   2.956   2.187  0.8038  1.5147  1.8224
 5101TIP3   OH215308   0.973   0.809   2.107  0.4495  0.2336 -0.7030
 5101TIP3    H115309   0.988   0.884   2.050 -2.9446  1.6471  0.0433
 5101TIP3    H215310   0.982   0.844   2.195 -0.3444 -0.4389 -0.3470
 5102TIP3   OH215311   2.463   2.244   0.304 -1.0271  0.1239  0.2999
 5102TIP3    H115312   2.507   2.323   0.271  0.0421 -0.2609  0.7438
 5102TIP3    H215313   2.370   2.262   0.293 -0.8060  1.4468  0.3841
 5103TIP3   OH215314   0.663   1.143   1.214 -0.2174  0.1180 -0.1484
 5103TIP3    H115315   0.675   1.086   1.290  1.6976 -0.0606 -0.5206
 5103TIP3    H215316   0.667   1.232   1.250 -0.3064  0.0321  0.0752
 5104TIP3   OH215317   5.712   3.024   4.677 -0.3651 -0.5437  0.2009
 5104TIP3    H115318   5.726   2.943   4.628 -0.3782 -0.2906 -0.2222
 5104TIP3    H215319   5.651   2.999   4.746 -0.2811 -0.9235  0.1434
 5105TIP3   OH215320   4.417   0.143   3.425 -0.1532  0.1304 -0.2294
 5105TIP3    H115321   4.432   0.185   3.510  2.4023 -2.7037  0.9260
 5105TIP3    H215322   4.487   0.177   3.369 -0.2754  0.0830 -0.4123
 5106TIP3   OH215323   3.862   4.567   2.074 -0.1672  0.3128  0.3616
 5106TIP3    H115324   3.923   4.593   2.143  0.1923  0.0077  0.1657
 5106TIP3    H215325   3.910   4.500   2.024 -0.1570  1.0179 -0.5986
 5107TIP3   OH215326   5.527   4.665   4.528 -0.1395  0.0317  0.4493
 5107TIP3    H115327   5.612   4.700   4.501  0.9152 -0.6614  2.5838
 5107TIP3    H215328   5.466   4.737   4.516  0.8915  0.8084 -0.3802
 5108TIP3   OH215329   5.017   5.151   0.440 -0.1927 -0.5400 -0.4736
 5108TIP3    H115330   5.109   5.175   0.432  0.4145 -2.2307  0.9356
 5108TIP3    H215331   4.990   5.131   0.350  1.2203 -1.3875 -0.7406
 5109TIP3   OH215332   5.616   4.627   3.031 -0.9154  0.2401 -0.3027
 5109TIP3    H115333   5.624   4.653   2.939  0.6750  0.9292  0.0054
 5109TIP3    H215334   5.580   4.704   3.075 -2.6027 -0.4117 -0.4743
 5110TIP3   OH215335   5.652   1.318   3.358  0.0273  0.1187  0.3851
 5110TIP3    H115336   5.732   1.265   3.358 -0.3602 -0.4750 -0.1131
 5110TIP3    H215337   5.607   1.293   3.439  0.0949  0.0608  0.4047
 5111TIP3   OH215338   6.068   4.376   2.869  0.6768 -1.3432 -0.1538
 5111TIP3    H115339   6.074   4.467   2.896 -0.8755 -0.0791 -3.5644
 5111TIP3    H215340   5.975   4.354   2.878  0.9018 -2.3475 -0.1136
 5112TIP3   OH215341   5.586   1.681   1.885 -0.7825 -0.5425  0.3825
 5112TIP3    H115342   5.496   1.661   1.910 -0.6692  0.2831  1.5622
 5112TIP3    H215343   5.586   1.776   1.869 -0.5033 -0.8126 -1.3936
 5113TIP3   OH215344   1.749   0.831   3.984 -0.1700 -0.0459  0.3877
 5113TIP3    H115345   1.749   0.898   3.915 -0.0926 -0.2287  0.2100
 5113TIP3    H215346   1.656   0.810   3.996 -0.1137 -0.7541 -0.3837
 5114TIP3   OH215347   6.017   5.705   1.993 -0.2488 -0.0649  0.5540
 5114TIP3    H115348   5.999   5.770   2.061  1.3947  0.5687  0.4233
 5114TIP3    H215349   6.049   5.756   1.919  0.1472 -0.9486  0.1098
 5115TIP3   OH215350   4.738   3.914   4.791  0.5294  0.6147  0.1932
 5115TIP3    H115351   4.775   3.888   4.875  0.2763  0.5168  0.2749
 5115TIP3    H215352   4.765   4.005   4.780  1.9146  0.1749 -0.3593
 5116TIP3   OH215353   0.272   2.674   1.775 -0.2609 -0.0749  0.2540
 5116TIP3    H115354   0.276   2.770   1.770 -1.2769 -0.0936 -1.8754
 5116TIP3    H215355   0.214   2.649   1.704  0.0925 -2.3061  0.6948
 5117TIP3   OH215356   3.921   5.775   2.396  1.2419  0.2190 -0.6402
 5117TIP3    H115357   3.829   5.794   2.410  1.4383 -0.2887  1.8926
 5117TIP3    H215358   3.952   5.844   2.338 -0.6637  0.5027 -1.3755
 5118TIP3   OH215359   5.409   4.979   4.535 -0.2222  0.1694  0.0525
 5118TIP3    H115360   5.467   4.992   4.610  2.1136 -1.5170 -1.3287
 5118TIP3    H215361   5.354   4.905   4.559 -1.2015  1.1579  0.9847
 5119TIP3   OH215362   3.065   4.466   4.361  0.6084 -0.2334 -0.2708
 5119TIP3    H115363   3.127   4.484   4.431 -0.1763 -0.2658  0.4512
 5119TIP3    H215364   2.993   4.419   4.404  0.2230 -0.4567 -1.1379
 5120TIP3   OH215365   1.962   2.889   0.127 -0.2649 -0.1874  0.5204
 5120TIP3    H115366   1.939   2.845   0.209  0.6201 -2.4083 -0.3371
 5120TIP3    H215367   2.052   2.861   0.110 -0.6210 -0.2747 -1.4790
 5121TIP3   OH215368   2.042   1.148   4.971 -0.0166 -0.1944  0.1520
 5121TIP3    H115369   1.968   1.190   4.927  0.0013  0.2680  0.5553
 5121TIP3    H215370   2.112   1.213   4.968 -0.1342  0.0087  1.1977
 5122TIP3   OH215371   4.712   5.800   0.203 -0.0245  0.7429  0.2671
 5122TIP3    H115372   4.799   5.774   0.171  0.3685  1.6661  0.5568
 5122TIP3    H215373   4.662   5.819   0.124  0.3658  1.2297  0.1365
 5123TIP3   OH215374   5.463   5.353   0.056  0.1777  1.1777  0.1006
 5123TIP3    H115375   5.414   5.360  -0.026 -0.9296  0.0007  0.6300
 5123TIP3    H215376   5.417   5.286   0.106  1.5604  0.9858  1.1836
 5124TIP3   OH215377   3.854   3.360   1.715  0.0757 -0.7151  0.6512
 5124TIP3    H115378   3.822   3.301   1.647 -2.2243  0.8921  0.1878
 5124TIP3    H215379   3.908   3.424   1.669  1.7351 -1.8302  0.9951
 5125TIP3   OH215380   2.122   3.778   4.107 -0.0809  1.0198 -0.0622
 5125TIP3    H115381   2.185   3.821   4.164  0.3260  0.8058 -0.3453
 5125TIP3    H215382   2.170   3.760   4.026  0.1821 -1.1149  0.4914
 5126TIP3   OH215383   2.622   3.334   3.952 -0.6940  0.2889  0.0458
 5126TIP3    H115384   2.543   3.290   3.984 -0.6173 -1.4938 -2.0130
 5126TIP3    H215385   2.593   3.384   3.876  0.0724  0.0597 -0.4077
 5127TIP3   OH215386   2.661   3.558   4.734  0.3470  0.0416 -1.5842
 5127TIP3    H115387   2.572   3.592   4.728 -0.2880 -0.7148  1.6798
 5127TIP3    H215388   2.657   3.473   4.691 -1.7514 -1.8445  1.8601
 5128TIP3   OH215389   5.652   1.073   4.517 -0.0648  0.1899 -0.6105
 5128TIP3    H115390   5.559   1.082   4.536 -0.0649 -0.4207 -0.2956
 5128TIP3    H215391   5.696   1.111   4.593 -0.0608 -2.9646  1.1207
 5129TIP3   OH215392   5.332   1.855   2.463  0.2534  0.1048  0.2331
 5129TIP3    H115393   5.308   1.795   2.393  0.9684 -1.1031  1.0034
 5129TIP3    H215394   5.264   1.923   2.460 -0.3670 -0.5308 -0.8724
 5130TIP3   OH215395   2.291  -0.001   2.376 -0.5532 -0.3626 -0.4796
 5130TIP3    H115396   2.204   0.037   2.386 -0.7232 -1.0498  0.7697
 5130TIP3    H215397   2.351   0.074   2.383 -0.8491 -0.3152  2.5412
 5131TIP3   OH215398   2.080   0.383   4.803 -0.3619  0.2715 -0.6356
 5131TIP3    H115399   2.158   0.366   4.856 -0.6206  1.0488  0.0054
 5131TIP3    H215400   2.013   0.326   4.840 -0.1191 -0.4010 -1.1898
 5132TIP3   OH215401   0.334   1.818   0.540 -0.1140 -0.2631 -0.2084
 5132TIP3    H115402   0.419   1.793   0.503  0.6716 -1.0068  1.9699
 5132TIP3    H215403   0.347   1.906   0.576 -0.2682 -0.3715  0.1195
 5133TIP3   OH215404   2.077   5.477   3.996 -0.1481 -0.0951 -0.3707
 5133TIP3    H115405   2.143   5.470   4.065  2.4267 -0.5935 -2.6903
 5133TIP3    H215406   2.023   5.553   4.021  1.2469  0.2875  1.6804
 5134TIP3   OH215407   1.149   4.171   3.967  0.0811 -0.4042  0.0993
 5134TIP3    H115408   1.138   4.151   4.060  0.1046  1.3375  0.5041
 5134TIP3    H215409   1.218   4.112   3.937 -0.0591 -1.1081  1.1321
 5135TIP3   OH215410   2.684   3.713   1.246  0.3143 -0.3676  0.1132
 5135TIP3    H115411   2.657   3.630   1.287  1.2569 -2.4523 -3.1545
 5135TIP3    H215412   2.738   3.755   1.312  0.4186 -2.7054  1.6435
 5136TIP3   OH215413   0.446   0.127   2.468 -0.0158  0.2201 -0.3316
 5136TIP3    H115414   0.446   0.181   2.390  1.3538  0.0281 -0.4805
 5136TIP3    H215415   0.516   0.064   2.454 -0.7705 -0.8141  0.3773
 5137TIP3   OH215416   1.391   3.992   2.767 -0.4297  0.3721 -0.1124
 5137TIP3    H115417   1.398   3.929   2.838 -0.2157  0.5275  0.0050
 5137TIP3    H215418   1.370   3.939   2.690 -1.7631  0.3247  0.2722
 5138TIP3   OH215419   3.975   2.026   5.084 -0.3914  0.2024  0.2005
 5138TIP3    H115420   3.990   1.947   5.136  1.9275 -0.2466 -1.0077
 5138TIP3    H215421   3.928   1.996   5.006  0.2425  0.0357 -0.1257
 5139TIP3   OH215422   2.534   1.032   2.724  0.4819  0.0056 -0.4139
 5139TIP3    H115423   2.583   1.086   2.661  1.0269 -0.0482 -0.0436
 5139TIP3    H215424   2.500   0.959   2.672  1.1720 -0.1932 -0.5953
 5140TIP3   OH215425   4.312   2.230   4.350 -0.1377  0.2520  0.1998
 5140TIP3    H115426   4.396   2.238   4.304  0.7936 -0.9634  1.6267
 5140TIP3    H215427   4.331   2.255   4.440 -1.2420 -0.4141  0.6339
 5141TIP3   OH215428   3.957   0.457   3.949  0.1824 -0.0466  0.9488
 5141TIP3    H115429   3.943   0.542   3.908  1.1680  0.8703  2.3974
 5141TIP3    H215430   3.944   0.394   3.879  2.3109  1.4262 -0.9207
 5142TIP3   OH215431   0.373   2.421   4.963 -0.2921  0.1828 -0.1411
 5142TIP3    H115432   0.343   2.383   5.045 -2.4829  0.2880 -0.8148
 5142TIP3    H215433   0.367   2.350   4.900 -0.5074  0.5913 -0.5898
 5143TIP3   OH215434   1.300   0.369   0.792  0.0680 -0.1017  0.2217
 5143TIP3    H115435   1.241   0.390   0.720  1.4574 -0.8058 -1.1818
 5143TIP3    H215436   1.255   0.300   0.841 -0.2216 -0.7469 -0.9206
 5144TIP3   OH215437   5.002   4.923   4.725 -0.5150  0.0871  0.8794
 5144TIP3    H115438   4.925   4.890   4.679 -1.1934  0.7894  1.4806
 5144TIP3    H215439   5.051   4.972   4.659 -0.6100 -0.3158  0.5077
 5145TIP3   OH215440   6.305   3.450   2.848  0.3078  0.1385  0.0083
 5145TIP3    H115441   6.283   3.428   2.939 -0.3993  0.6600 -0.0356
 5145TIP3    H215442   6.246   3.397   2.795 -0.4143  1.0406 -0.1155
 5146TIP3   OH215443   4.907   0.234   3.347  0.5639 -0.0757  0.4040
 5146TIP3    H115444   4.875   0.301   3.406  1.6415 -0.2643  1.2251
 5146TIP3    H215445   4.888   0.268   3.259  2.0762  1.8294  0.7508
 5147TIP3   OH215446   6.040   0.400   2.532  0.7133  0.4027 -0.1898
 5147TIP3    H115447   6.022   0.468   2.597  0.2344 -0.5278  0.7014
 5147TIP3    H215448   6.015   0.438   2.448  1.0677  1.5366  0.2018
 5148TIP3   OH215449   3.424   3.910   3.811 -0.2935  0.7151 -0.0625
 5148TIP3    H115450   3.464   3.977   3.755 -0.0210  0.8236  0.2585
 5148TIP3    H215451   3.498   3.873   3.859 -0.7003  1.6095  1.2882
 5149TIP3   OH215452   3.061   4.743   1.724  0.3611 -0.3598  0.1013
 5149TIP3    H115453   3.052   4.661   1.675 -0.2898 -0.4197  0.3066
 5149TIP3    H215454   3.044   4.717   1.815  1.9377 -0.3251  0.4284
 5150TIP3   OH215455   5.123   0.687   2.703 -0.1308 -0.4872  0.5094
 5150TIP3    H115456   5.146   0.730   2.621 -0.7542  0.9522  1.0641
 5150TIP3    H215457   5.054   0.625   2.679 -0.8623  0.4867  0.0644
 5151TIP3   OH215458   2.296   4.406   2.308  0.5179 -0.5597  0.0319
 5151TIP3    H115459   2.272   4.394   2.399 -0.1027 -0.4785 -0.1157
 5151TIP3    H215460   2.344   4.327   2.285 -0.8022 -1.3795 -0.0457
 5152TIP3   OH215461   5.557   3.993   3.832 -0.4482 -0.7253  0.8117
 5152TIP3    H115462   5.578   4.079   3.794  1.3364 -1.8541 -0.9933
 5152TIP3    H215463   5.613   3.986   3.909 -1.6101  0.2313  1.7848
 5153TIP3   OH215464   1.091   3.797   2.998  0.2233  0.2334 -0.4400
 5153TIP3    H115465   1.030   3.750   2.939  0.6421 -1.3305  0.3147
 5153TIP3    H215466   1.099   3.740   3.074  0.8957  1.5009  0.4729
 5154TIP3   OH215467   3.475   0.387   2.527  0.5130 -0.0890  0.1364
 5154TIP3    H115468   3.526   0.396   2.608  0.7031 -0.3786  0.0523
 5154TIP3    H215469   3.518   0.447   2.466  1.7361 -1.4429 -0.4034
 5155TIP3   OH215470   3.371   2.628   2.782  0.4191 -0.1649  0.0591
 5155TIP3    H115471   3.406   2.539   2.776  3.4380  0.8714  0.4927
 5155TIP3    H215472   3.426   2.680   2.723  1.3995  2.0722  2.7223
 5156TIP3   OH215473   3.265   0.356   1.753 -0.4601  0.0870 -0.2474
 5156TIP3    H115474   3.200   0.287   1.767 -0.7452  0.2088 -0.9284
 5156TIP3    H215475   3.215   0.437   1.761 -0.2606  0.1974 -0.1277
 5157TIP3   OH215476   3.408   1.920   2.272  0.2357 -0.3667 -0.3993
 5157TIP3    H115477   3.382   1.889   2.359  0.1288  0.3860 -0.1597
 5157TIP3    H215478   3.332   1.901   2.217  0.9832 -2.6226 -0.7983
 5158TIP3   OH215479   0.977   2.528   4.994  0.0690 -0.0235 -0.1839
 5158TIP3    H115480   1.053   2.471   5.010 -1.4190 -2.7155 -1.9813
 5158TIP3    H215481   0.903   2.480   5.031 -1.0833  1.4508 -0.4900
 5159TIP3   OH215482   1.173   5.883   1.800 -0.0378 -0.7543 -0.6200
 5159TIP3    H115483   1.208   5.968   1.827  2.2876 -1.8378 -0.0229
 5159TIP3    H215484   1.173   5.887   1.704 -0.5803  0.1427 -0.5943
 5160TIP3   OH215485   0.320   2.504   2.909  0.9632 -0.3260 -0.1762
 5160TIP3    H115486   0.396   2.446   2.912 -0.1472 -1.8013  1.7227
 5160TIP3    H215487   0.258   2.459   2.852  0.4367 -0.5918  0.5919
 5161TIP3   OH215488   2.959   2.052   0.412 -0.5253 -0.3565 -0.1682
 5161TIP3    H115489   2.920   1.970   0.382 -1.5141  1.4198 -4.4454
 5161TIP3    H215490   2.885   2.111   0.423  0.2454  0.3065  1.8882
 5162TIP3   OH215491   5.620   3.298   3.539 -0.1932  0.5976 -0.0155
 5162TIP3    H115492   5.708   3.320   3.569  0.1536  0.5226 -0.9383
 5162TIP3    H215493   5.620   3.202   3.534 -0.8545  0.4963  1.5008
 5163TIP3   OH215494   4.497   4.250   1.285 -0.3981 -0.0622 -0.0507
 5163TIP3    H115495   4.507   4.166   1.328  1.0733  0.2498  0.2508
 5163TIP3    H215496   4.541   4.239   1.200  1.9843  1.0743  0.9433
 5164TIP3   OH215497   0.760   2.931   3.308 -0.0878  0.2668 -0.0048
 5164TIP3    H115498   0.724   3.002   3.254  0.2654  1.1885  0.9351
 5164TIP3    H215499   0.843   2.967   3.341 -0.4123 -0.1748  1.3419
 5165TIP3   OH215500   4.293   2.579   1.113 -0.2629  0.1787 -0.3927
 5165TIP3    H115501   4.228   2.534   1.060 -1.0454  0.9839 -0.1463
 5165TIP3    H215502   4.367   2.518   1.118 -0.9194 -0.6717 -0.8346
 5166TIP3   OH215503   2.579   0.139   3.201  0.2735 -0.1411 -0.1147
 5166TIP3    H115504   2.661   0.092   3.185 -0.6363 -2.1538  0.7832
 5166TIP3    H215505   2.550   0.166   3.114  0.8814 -1.2169 -0.6753
 5167TIP3   OH215506   2.350   2.078   4.364  0.0234 -0.4529  0.0802
 5167TIP3    H115507   2.257   2.074   4.390 -0.8376 -0.6968 -2.7428
 5167TIP3    H215508   2.379   2.165   4.392 -1.6260  0.3833 -0.6733
 5168TIP3   OH215509   5.340   1.140   4.875 -0.6448  0.3574 -0.5554
 5168TIP3    H115510   5.346   1.235   4.866 -1.8324  0.4987 -0.0608
 5168TIP3    H215511   5.264   1.126   4.932  0.1705 -0.8551  0.2713
 5169TIP3   OH215512   4.552   0.423   4.804 -0.1376  0.2075  0.4538
 5169TIP3    H115513   4.637   0.464   4.821 -0.0829  1.0538 -1.6061
 5169TIP3    H215514   4.555   0.398   4.712 -1.4236 -1.5388  0.8285
 5170TIP3   OH215515   5.574   4.434   3.996 -0.3619  0.1361  0.3584
 5170TIP3    H115516   5.510   4.475   4.054  0.8035  1.3915  0.7966
 5170TIP3    H215517   5.613   4.364   4.050  0.9635  1.5214  1.2633
 5171TIP3   OH215518   3.628   0.408   0.318 -0.4167  0.3572  0.1006
 5171TIP3    H115519   3.560   0.346   0.345 -0.0738  0.0964  0.3719
 5171TIP3    H215520   3.599   0.438   0.231 -1.1979  0.7273  0.4813
 5172TIP3   OH215521   5.449   3.705   0.914  0.0503  0.1698 -0.3305
 5172TIP3    H115522   5.360   3.709   0.879 -0.8997  3.8319  1.9593
 5172TIP3    H215523   5.455   3.618   0.954 -1.5239 -1.1142 -2.6508
 5173TIP3   OH215524   4.557   5.838   4.505 -0.2869 -0.0694  0.1614
 5173TIP3    H115525   4.650   5.816   4.507  0.0224  1.1831  1.1505
 5173TIP3    H215526   4.512   5.755   4.488  1.1556 -0.2046 -4.0972
 5174TIP3   OH215527   4.069   0.100   4.219  0.2362  0.1105 -0.3822
 5174TIP3    H115528   4.024   0.017   4.207  0.2652 -0.1238  0.9611
 5174TIP3    H215529   4.038   0.155   4.147 -1.9751 -0.1477  0.2919
 5175TIP3   OH215530   1.190   2.097   0.364  0.2306  0.6021  0.2586
 5175TIP3    H115531   1.150   2.172   0.320 -0.2675  0.0242 -0.3026
 5175TIP3    H215532   1.249   2.135   0.428  0.0593  1.4728 -0.0889
 5176TIP3   OH215533   2.417   5.713   1.288 -0.4445 -0.3290 -0.1542
 5176TIP3    H115534   2.343   5.715   1.349 -1.1649  2.1512 -0.9919
 5176TIP3    H215535   2.490   5.680   1.340 -0.6901  2.8488  2.5639
 5177TIP3   OH215536   2.136   1.550   4.453 -0.4057  0.3746  0.0536
 5177TIP3    H115537   2.192   1.568   4.378  0.8840  1.9225  1.3142
 5177TIP3    H215538   2.196   1.518   4.520 -1.9185 -4.0904 -0.4133
 5178TIP3   OH215539   4.618   5.156   3.306 -0.5255 -0.0157 -0.0656
 5178TIP3    H115540   4.548   5.175   3.243  0.0303  2.1442 -0.1052
 5178TIP3    H215541   4.696   5.144   3.251 -0.3590  0.1869  0.1288
 5179TIP3   OH215542   6.072   0.148   2.581 -0.1274  0.2442 -0.2311
 5179TIP3    H115543   6.054   0.098   2.502  1.4555  0.0630 -0.5034
 5179TIP3    H215544   6.090   0.236   2.550  1.0141  0.0559 -0.1552
 5180TIP3   OH215545   0.193   3.660   4.684  0.0632  0.0248 -0.4531
 5180TIP3    H115546   0.148   3.609   4.751  1.3796 -0.2505  0.2429
 5180TIP3    H215547   0.170   3.617   4.602 -2.9589  1.3606 -0.4519
 5181TIP3   OH215548   1.985   3.551   3.939 -0.1073 -0.5752 -0.1639
 5181TIP3    H115549   2.028   3.486   3.882 -0.6237 -0.9007 -0.1857
 5181TIP3    H215550   2.054   3.615   3.957  0.0271 -0.3707 -1.2908
 5182TIP3   OH215551   1.165   1.763   1.477  0.3782 -0.1512 -0.0335
 5182TIP3    H115552   1.239   1.723   1.522  0.6801 -1.3126 -1.4799
 5182TIP3    H215553   1.088   1.735   1.526  0.7943 -0.0088  0.7146
 5183TIP3   OH215554   5.216   4.034   0.905  0.3604 -0.0533  0.2386
 5183TIP3    H115555   5.235   3.956   0.957 -0.9847 -0.8744 -0.4456
 5183TIP3    H215556   5.205   4.001   0.816 -0.0064  0.9555 -0.1048
 5184TIP3   OH215557   5.135   2.685   5.087  0.8519  0.0514 -0.1581
 5184TIP3    H115558   5.222   2.697   5.049  1.2595 -1.9396  0.0338
 5184TIP3    H215559   5.110   2.597   5.061 -1.1193  0.5872 -0.1808
 5185TIP3   OH215560   3.361   1.435   2.550  0.1645  0.1033 -0.6542
 5185TIP3    H115561   3.425   1.469   2.613 -0.2883 -2.3221  1.3039
 5185TIP3    H215562   3.307   1.510   2.527  0.8771  1.2710  1.2380
 5186TIP3   OH215563   4.102   0.578   4.494 -0.3086 -0.1120  0.1071
 5186TIP3    H115564   4.161   0.631   4.440  1.1920  0.4590  2.1651
 5186TIP3    H215565   4.089   0.631   4.573 -1.8980 -1.1694  0.5946
 5187TIP3   OH215566   2.370   1.217   4.833  0.5215  0.5801  0.3333
 5187TIP3    H115567   2.330   1.268   4.903 -1.2003 -1.6148  1.0578
 5187TIP3    H215568   2.334   1.129   4.843  1.3951 -0.2029 -2.3986
 5188TIP3   OH215569   0.392   0.327   3.880 -0.1882 -0.4819  0.3051
 5188TIP3    H115570   0.303   0.296   3.893 -0.0102 -1.0229  0.2378
 5188TIP3    H215571   0.382   0.407   3.829 -0.6261 -0.6110  0.1862
 5189TIP3   OH215572   5.324   4.533   2.794 -0.0066  0.3057 -0.2645
 5189TIP3    H115573   5.243   4.482   2.791 -0.4323  0.9714 -0.3541
 5189TIP3    H215574   5.382   4.483   2.851 -0.7552  0.2090  0.4401
 5190TIP3   OH215575   1.118   5.459   4.545  0.5187 -0.2125  0.0267
 5190TIP3    H115576   1.159   5.409   4.615  0.9187  0.9416  0.6388
 5190TIP3    H215577   1.025   5.438   4.551  0.7251 -1.1799  0.0106
 5191TIP3   OH215578   5.533   2.501   1.025  0.1532 -0.0380 -0.3190
 5191TIP3    H115579   5.616   2.506   1.073  0.2390  0.4988 -0.5262
 5191TIP3    H215580   5.498   2.415   1.049  0.7930 -0.2937 -0.2688
 5192TIP3   OH215581   4.562   4.646   2.764 -0.1204 -0.3682  0.5665
 5192TIP3    H115582   4.641   4.592   2.766  1.0378  1.1948 -0.4722
 5192TIP3    H215583   4.492   4.587   2.793  1.1436 -2.2519 -0.0000
 5193TIP3   OH215584   5.395   0.181   5.163 -0.0925  0.2706 -0.4843
 5193TIP3    H115585   5.430   0.212   5.080  1.9156  0.4204  0.3443
 5193TIP3    H215586   5.342   0.105   5.141  1.5735 -0.5725 -1.8064
 5194TIP3   OH215587   3.039   5.205   4.614  0.0663 -0.3357 -0.0062
 5194TIP3    H115588   3.099   5.153   4.561 -0.4649 -1.8958  0.8347
 5194TIP3    H215589   3.095   5.270   4.658  0.4596  1.2442 -2.6485
 5195TIP3   OH215590   2.504   1.376   5.015  0.0680 -0.9306  0.1072
 5195TIP3    H115591   2.526   1.450   4.959 -0.1175  0.2170  1.4998
 5195TIP3    H215592   2.494   1.302   4.955 -1.5863  0.5481 -1.5434
 5196TIP3   OH215593   3.829   4.723   4.007 -0.5565  0.5081 -0.5160
 5196TIP3    H115594   3.892   4.795   4.017  0.8131 -0.6766 -0.3281
 5196TIP3    H215595   3.828   4.706   3.913 -0.0226  0.0352 -0.4378
 5197TIP3   OH215596   5.793   3.628   3.155 -0.0906 -0.5787 -0.1720
 5197TIP3    H115597   5.843   3.560   3.199 -0.8723 -1.6152 -0.8180
 5197TIP3    H215598   5.794   3.703   3.215  1.1888 -0.9854  0.3363
 5198TIP3   OH215599   2.291   3.129   3.698 -0.5558 -0.4191 -0.5540
 5198TIP3    H115600   2.383   3.149   3.681 -0.2137 -1.7220 -0.2861
 5198TIP3    H215601   2.289   3.097   3.788 -1.2875 -0.3585 -0.5403
 5199TIP3   OH215602   0.919   3.061   4.104  0.1575 -0.3690 -0.0011
 5199TIP3    H115603   0.940   3.117   4.178 -0.0576 -0.0098 -0.2083
 5199TIP3    H215604   0.888   3.121   4.036  2.7854 -0.3308 -1.3212
 5200TIP3   OH215605   4.234   1.346   4.031  0.0747 -0.1260 -0.1356
 5200TIP3    H115606   4.301   1.302   3.978  0.5962  0.3900  0.0959
 5200TIP3    H215607   4.176   1.275   4.059  1.3814 -0.8095  0.9306
 5201TIP3   OH215608   1.476   0.796   4.035  0.8557  0.7701  0.4186
 5201TIP3    H115609   1.429   0.719   4.065  0.7524  0.1402 -1.2598
 5201TIP3    H215610   1.408   0.854   4.001  1.1900 -0.1733 -2.0838
 5202TIP3   OH215611   3.848   5.101   1.708 -0.4923  0.0228 -0.2051
 5202TIP3    H115612   3.787   5.128   1.776  1.1238  1.2515  0.8380
 5202TIP3    H215613   3.795   5.052   1.645 -2.0178 -1.2975  1.9958
 5203TIP3   OH215614   4.908   4.202   3.937 -0.1294  0.4887 -0.0625
 5203TIP3    H115615   4.851   4.245   3.873  0.7219  2.8506  0.6384
 5203TIP3    H215616   4.983   4.172   3.885 -0.0899  1.1404 -0.3977
 5204TIP3   OH215617   2.611   1.055   2.054 -0.0512 -0.0725  0.5256
 5204TIP3    H115618   2.628   1.085   2.143  0.0872  0.6238  0.2692
 5204TIP3    H215619   2.516   1.065   2.043 -0.5435 -2.7385  1.5107
 5205TIP3   OH215620   0.403   1.360   1.089  0.3902 -0.2130 -0.3575
 5205TIP3    H115621   0.485   1.340   1.044  0.6064  0.7289 -0.3891
 5205TIP3    H215622   0.354   1.415   1.028 -0.2554 -0.7265 -0.3177
 5206TIP3   OH215623   4.806   5.707   4.947 -0.2326  0.5887  0.1432
 5206TIP3    H115624   4.815   5.611   4.950  0.1756  0.6437  1.0390
 5206TIP3    H215625   4.731   5.726   5.003 -0.1746  0.8112  0.1469
 5207TIP3   OH215626   5.529   1.813   1.209  0.4698 -0.2619  0.1715
 5207TIP3    H115627   5.524   1.798   1.115  0.1536 -2.3157  0.4730
 5207TIP3    H215628   5.621   1.795   1.231  0.3859 -0.4626  0.3556
 5208TIP3   OH215629   3.518   1.156   2.944  0.1348 -0.0637 -0.2190
 5208TIP3    H115630   3.497   1.242   2.981  0.4955 -0.4893  1.0045
 5208TIP3    H215631   3.613   1.149   2.954 -0.1256 -1.4423  1.5745
 5209TIP3   OH215632   1.397   2.593   2.140 -0.6829 -0.2321  0.1689
 5209TIP3    H115633   1.437   2.529   2.197 -0.1141 -0.2081 -0.1971
 5209TIP3    H215634   1.315   2.553   2.112 -0.7696 -0.4093  0.6727
 5210TIP3   OH215635   2.641   4.596   1.296  0.7198  0.5589 -0.3380
 5210TIP3    H115636   2.709   4.536   1.325  0.0254  0.3319  0.8875
 5210TIP3    H215637   2.564   4.540   1.281  0.5146  0.9387 -0.7514
 5211TIP3   OH215638   5.991   5.957   4.029  0.3479 -0.0282  0.1186
 5211TIP3    H115639   6.023   5.901   4.099  0.0084  1.1727  1.2665
 5211TIP3    H215640   5.896   5.951   4.034  0.2805 -1.9833 -1.9723
 5212TIP3   OH215641   4.345   2.944   4.014  0.1668 -0.2074  0.4257
 5212TIP3    H115642   4.302   2.903   3.938 -0.0696 -2.0629  1.5063
 5212TIP3    H215643   4.280   3.006   4.048  0.2593  0.6146 -0.8252
 5213TIP3   OH215644   5.052   1.648   0.204  0.1237  0.3672  0.2094
 5213TIP3    H115645   5.066   1.555   0.216 -0.3792  0.3110  0.3687
 5213TIP3    H215646   5.132   1.689   0.237  0.7287 -0.0557 -0.7208
 5214TIP3   OH215647   4.893   5.879   2.756  0.5481 -0.6068  0.2251
 5214TIP3    H115648   4.907   5.959   2.707  1.2049  0.0989  1.5192
 5214TIP3    H215649   4.846   5.821   2.695 -1.5818  1.3849 -0.1567
 5215TIP3   OH215650   4.797   3.632   3.447 -0.1421  0.1009  0.1359
 5215TIP3    H115651   4.788   3.580   3.366 -1.6803 -0.8793  0.8775
 5215TIP3    H215652   4.712   3.621   3.491  1.2484 -0.9232  2.7771
 5216TIP3   OH215653   3.000   2.878   0.388 -0.0727  0.0328  0.4678
 5216TIP3    H115654   3.024   2.788   0.405 -1.7581 -0.3559  1.0215
 5216TIP3    H215655   2.978   2.914   0.475  0.8911  1.0825  0.3012
 5217TIP3   OH215656   2.666   0.867   4.301  0.0467  0.5529 -0.2470
 5217TIP3    H115657   2.651   0.773   4.301  0.9716  0.3849  0.8439
 5217TIP3    H215658   2.760   0.876   4.317 -0.2864  1.6868  1.2342
 5218TIP3   OH215659   0.438   0.476   3.001  0.8872 -0.1155 -0.0675
 5218TIP3    H115660   0.388   0.406   2.959 -0.3136  0.9313 -0.4670
 5218TIP3    H215661   0.463   0.534   2.929  4.0069 -1.3172 -0.0928
 5219TIP3   OH215662   4.395   3.060   2.547 -0.7483 -0.3355  0.0669
 5219TIP3    H115663   4.473   3.089   2.500 -0.6331 -0.9126 -0.0988
 5219TIP3    H215664   4.322   3.081   2.489 -0.6159 -0.9318 -0.3234
 5220TIP3   OH215665   2.514   4.102   3.994  0.6458 -0.4822  0.1532
 5220TIP3    H115666   2.534   4.031   3.933 -1.1006 -0.0214 -1.0396
 5220TIP3    H215667   2.436   4.072   4.041  0.0497  0.5041 -0.1775
 5221TIP3   OH215668   1.790   0.576   3.452  0.4272  0.4299  0.7675
 5221TIP3    H115669   1.742   0.648   3.411 -0.1517 -0.4761 -0.2039
 5221TIP3    H215670   1.729   0.502   3.448  2.3158 -1.1620 -1.7679
 5222TIP3   OH215671   4.564   5.050   3.833 -0.5271 -0.1010  0.1735
 5222TIP3    H115672   4.559   4.968   3.881  1.2812  0.3323  1.1866
 5222TIP3    H215673   4.626   5.033   3.762 -2.3586 -0.4155 -1.4595
 5223TIP3   OH215674   3.771   4.803   3.185  0.5652  0.4123  0.1925
 5223TIP3    H115675   3.716   4.727   3.205  0.0375  0.5475 -0.6866
 5223TIP3    H215676   3.805   4.786   3.098 -1.0018  1.9666 -0.7832
 5224TIP3   OH215677   4.318   5.042   1.507 -0.0753 -0.4519  0.3695
 5224TIP3    H115678   4.294   5.125   1.466  1.0756 -1.1813 -1.9485
 5224TIP3    H215679   4.379   5.066   1.576 -0.3580  0.6710  0.2555
 5225TIP3   OH215680   3.850   2.421   2.501 -0.5526  0.0279  0.0378
 5225TIP3    H115681   3.833   2.424   2.407  1.4553  2.1775 -0.3172
 5225TIP3    H215682   3.807   2.499   2.536 -1.1445 -0.6664  0.9422
 5226TIP3   OH215683   1.203   5.376   1.108 -0.1985  0.1540  0.2047
 5226TIP3    H115684   1.180   5.283   1.107  0.3045  0.0201  0.5055
 5226TIP3    H215685   1.295   5.378   1.082 -0.2330  0.5792  0.1046
 5227TIP3   OH215686   5.377   2.152   2.657  0.2050 -0.2674  0.0468
 5227TIP3    H115687   5.434   2.076   2.669 -0.1749 -0.2876  2.1209
 5227TIP3    H215688   5.307   2.120   2.599  0.9611 -0.9808 -0.4962
 5228TIP3   OH215689   0.732   2.866   1.521  0.2619 -0.4950  0.2937
 5228TIP3    H115690   0.718   2.783   1.476  1.4629  0.5847 -2.3118
 5228TIP3    H215691   0.788   2.845   1.595  3.5016 -1.6836 -2.2602
 5229TIP3   OH215692   5.763   5.328   2.455 -0.1436  0.1960  0.4275
 5229TIP3    H115693   5.736   5.392   2.521 -1.6466  0.5303 -0.4701
 5229TIP3    H215694   5.754   5.243   2.500  1.3380  0.5366  1.4454
 5230TIP3   OH215695   3.997   5.713   3.121  0.0416 -0.4440  0.2608
 5230TIP3    H115696   3.964   5.635   3.075 -1.1634 -0.4324  1.0403
 5230TIP3    H215697   4.083   5.688   3.152  0.9475 -0.4214 -2.0325
 5231TIP3   OH215698   5.109   4.560   3.504  0.5552  0.4037  0.2321
 5231TIP3    H115699   5.124   4.485   3.446 -0.4638  0.5025 -0.1859
 5231TIP3    H215700   5.194   4.579   3.542  0.9923 -0.4438 -0.2973
 5232TIP3   OH215701   2.930   3.945   3.156 -0.0039 -0.2878  0.5760
 5232TIP3    H115702   2.910   3.851   3.151  0.9838 -0.5309  1.0375
 5232TIP3    H215703   3.004   3.951   3.216  2.8414  0.3268 -2.6517
 5233TIP3   OH215704   0.006   5.465   0.261 -0.3470  0.0673  0.0397
 5233TIP3    H115705   0.063   5.521   0.208 -0.5273  1.4341  1.2301
 5233TIP3    H215706   0.063   5.434   0.331 -0.5799 -0.2112  0.1065
 5234TIP3   OH215707   0.535   1.872   1.660  0.2477 -0.4096 -0.5302
 5234TIP3    H115708   0.476   1.858   1.734 -0.9686 -0.7062 -1.5057
 5234TIP3    H215709   0.610   1.917   1.697 -0.6897  0.1841  0.7416
 5235TIP3   OH215710   4.562   4.956   1.379 -0.2327  0.1185  0.4337
 5235TIP3    H115711   4.586   4.898   1.451 -0.0230  0.6460  0.7926
 5235TIP3    H215712   4.478   4.994   1.405 -0.7290 -0.5623 -0.1290
 5236TIP3   OH215713   4.982   1.693   1.422 -0.0231  0.2226 -0.1270
 5236TIP3    H115714   4.988   1.727   1.332  0.1615  0.7485  0.0809
 5236TIP3    H215715   4.896   1.721   1.452 -0.0739  0.0694 -0.1326
 5237TIP3   OH215716   5.670   5.147   4.896 -0.2979  0.0927  0.4711
 5237TIP3    H115717   5.745   5.134   4.838 -0.4002 -0.7942  0.5301
 5237TIP3    H215718   5.607   5.080   4.871  0.1890 -1.2044  2.4681
 5238TIP3   OH215719   5.908   0.322   2.917 -0.1598 -0.0734 -0.4910
 5238TIP3    H115720   5.875   0.298   2.830  1.1092  0.3697 -1.1259
 5238TIP3    H215721   6.000   0.344   2.902 -0.5988  2.7806  0.4490
 5239TIP3   OH215722   3.856   4.219   3.863 -0.0540  0.7985 -0.1158
 5239TIP3    H115723   3.776   4.245   3.817 -0.5530  1.0278  0.8420
 5239TIP3    H215724   3.833   4.227   3.956  0.7377 -0.1876  0.1824
 5240TIP3   OH215725   3.406   2.362   2.821 -0.0610  0.2620  0.7046
 5240TIP3    H115726   3.404   2.309   2.741  0.8200  0.3995  0.5833
 5240TIP3    H215727   3.367   2.306   2.888 -0.3693 -0.0343  0.2826
 5241TIP3   OH215728   3.783   2.012   2.739  0.0699 -0.1413 -0.6536
 5241TIP3    H115729   3.704   2.043   2.694 -1.1566 -2.5427 -0.3199
 5241TIP3    H215730   3.854   2.065   2.702 -1.7386  2.7084 -0.3370
 5242TIP3   OH215731   1.846   2.039   1.516 -0.4240 -0.1341  0.5977
 5242TIP3    H115732   1.936   2.035   1.547 -0.3494 -1.5981  0.2510
 5242TIP3    H215733   1.850   2.097   1.440  0.0249  0.6369  1.2002
 5243TIP3   OH215734   3.601   5.351   3.262 -0.0000  0.1462 -0.2218
 5243TIP3    H115735   3.526   5.368   3.319 -0.4722 -0.0910 -0.7651
 5243TIP3    H215736   3.677   5.380   3.313 -0.6081  2.2073 -0.3986
 5244TIP3   OH215737   4.528   3.905   3.785 -0.2282 -0.5921 -0.7101
 5244TIP3    H115738   4.597   3.945   3.731  1.5091  1.3031  2.5765
 5244TIP3    H215739   4.455   3.967   3.780  0.6020  0.5418  0.4140
 5245TIP3   OH215740   0.711   1.084   2.026  0.0727 -0.1661  0.4863
 5245TIP3    H115741   0.767   1.091   1.948 -0.6663  2.4301  0.0845
 5245TIP3    H215742   0.652   1.012   2.006  0.3494  0.0055 -1.1035
 5246TIP3   OH215743   5.604   3.674   4.173  0.3373 -0.2021  0.1520
 5246TIP3    H115744   5.593   3.668   4.268 -0.9258  0.7147  0.0948
 5246TIP3    H215745   5.682   3.729   4.161  1.0860 -1.1325  0.6345
 5247TIP3   OH215746   4.019   4.070   1.084 -0.2860  0.4029 -0.3633
 5247TIP3    H115747   4.030   4.043   1.175 -0.1396  0.0446 -0.4873
 5247TIP3    H215748   4.039   3.992   1.032 -0.9794  0.4295 -0.6832
 5248TIP3   OH215749   0.415   5.287   1.455 -0.6550  0.1676  0.3173
 5248TIP3    H115750   0.456   5.300   1.540 -0.9657  0.0259  0.4936
 5248TIP3    H215751   0.326   5.320   1.466 -1.2594 -1.4380  0.5778
 5249TIP3   OH215752   0.693   3.435   1.838  0.9398 -0.4117  0.3486
 5249TIP3    H115753   0.719   3.396   1.922 -0.3832 -0.1351  0.9213
 5249TIP3    H215754   0.709   3.529   1.850  1.8037 -0.4888 -0.1325
 5250TIP3   OH215755   1.401   2.887   3.882 -0.6643  1.1745  0.7883
 5250TIP3    H115756   1.448   2.823   3.937 -1.1164 -0.9263 -1.1300
 5250TIP3    H215757   1.323   2.909   3.933 -1.6173 -1.5376  0.6533
 5251TIP3   OH215758   1.390   4.746   1.186  0.1460 -0.1830 -0.4725
 5251TIP3    H115759   1.468   4.692   1.172  1.1457  0.6326  1.5906
 5251TIP3    H215760   1.391   4.808   1.113  1.1375 -0.5066 -0.7592
 5252TIP3   OH215761   5.004   2.574   3.141 -0.4382  0.3404 -0.1489
 5252TIP3    H115762   4.925   2.561   3.090  0.0214 -0.5972 -0.6483
 5252TIP3    H215763   5.068   2.608   3.077  0.0047 -0.4021 -0.1172
 5253TIP3   OH215764   0.712   1.604   2.029  0.1522  0.1860  0.6208
 5253TIP3    H115765   0.620   1.622   2.009  0.3117  1.0091  0.5621
 5253TIP3    H215766   0.728   1.652   2.111  0.5329  0.0524  0.6252
 5254TIP3   OH215767   2.846   5.237   1.203 -0.1502 -0.1574 -0.0345
 5254TIP3    H115768   2.816   5.326   1.187  1.7832  0.1856 -2.3323
 5254TIP3    H215769   2.769   5.182   1.186 -0.9106  0.9606 -0.2746
 5255TIP3   OH215770   1.850   2.504   3.644  0.6132  0.2577  0.0553
 5255TIP3    H115771   1.866   2.454   3.725  1.1108  0.0005 -0.1957
 5255TIP3    H215772   1.848   2.437   3.575 -0.4835  0.4015 -0.0733
 5256TIP3   OH215773   3.911   1.709   1.897  0.5212 -0.0520  0.2389
 5256TIP3    H115774   3.879   1.778   1.956  4.3695 -0.2041  2.9290
 5256TIP3    H215775   3.897   1.628   1.946  2.3937 -0.3391  0.3820
 5257TIP3   OH215776   4.611   1.455   3.117 -0.3271 -0.5756  0.3678
 5257TIP3    H115777   4.663   1.463   3.197 -2.2450  0.2315  1.6333
 5257TIP3    H215778   4.623   1.539   3.072  0.4804 -0.8984 -0.0336
 5258TIP3   OH215779   0.261   2.237   1.306 -0.4455  0.1147 -0.2362
 5258TIP3    H115780   0.237   2.328   1.322 -2.9497 -0.1025 -2.1760
 5258TIP3    H215781   0.324   2.241   1.235 -0.3562  0.3457 -0.1454
 5259TIP3   OH215782   4.817   4.270   2.245  0.1021  0.4023 -0.1034
 5259TIP3    H115783   4.776   4.254   2.330  1.1823 -0.5400  0.2642
 5259TIP3    H215784   4.875   4.345   2.261 -0.1938  0.6524 -0.1893
 5260TIP3   OH215785   5.895   3.638   2.779  0.8447 -0.1651 -0.2365
 5260TIP3    H115786   5.967   3.672   2.725 -0.6133  2.6604 -0.5975
 5260TIP3    H215787   5.826   3.704   2.770 -0.0843 -0.3687  3.7969
 5261TIP3   OH215788   3.436   3.944   0.232 -0.0010  0.3979 -0.6695
 5261TIP3    H115789   3.379   3.902   0.168  0.8923 -0.1561 -1.1210
 5261TIP3    H215790   3.432   4.038   0.210 -1.0764  0.4378 -0.3965
 5262TIP3   OH215791   2.611   0.277   0.702 -0.5938 -0.0688 -0.7552
 5262TIP3    H115792   2.529   0.319   0.677 -0.8428 -0.5276 -0.7237
 5262TIP3    H215793   2.677   0.346   0.694 -0.9428  0.2393 -1.0142
 5263TIP3   OH215794   0.774   2.774   1.982 -0.1708 -0.0938 -0.7678
 5263TIP3    H115795   0.695   2.720   1.984 -0.0450 -0.2662  1.3833
 5263TIP3    H215796   0.746   2.859   2.016  0.0949  0.6036 -2.2047
 5264TIP3   OH215797   0.754   3.743   3.246 -0.0953  0.4172 -0.1597
 5264TIP3    H115798   0.759   3.676   3.314  0.0157  0.2491 -0.3308
 5264TIP3    H215799   0.662   3.765   3.241 -0.1811  0.0363 -0.3310
 5265TIP3   OH215800   2.528   2.042   5.024 -0.5623 -0.3462  0.0607
 5265TIP3    H115801   2.455   1.983   5.008 -0.7570 -0.3114  0.8152
 5265TIP3    H215802   2.558   2.021   5.113 -1.7978  1.9213  1.0867
 5266TIP3   OH215803   5.709   0.139   4.676 -0.0117 -0.1307  0.0723
 5266TIP3    H115804   5.751   0.171   4.756 -0.2770  0.3546  0.0191
 5266TIP3    H215805   5.723   0.208   4.612 -0.2150 -0.3099 -0.1656
 5267TIP3   OH215806   1.878   4.570   2.871  0.0503  0.2520  0.7102
 5267TIP3    H115807   1.829   4.642   2.911  0.4419  0.1661  1.3452
 5267TIP3    H215808   1.822   4.494   2.882 -1.5704  0.8663 -2.2349
 5268TIP3   OH215809   1.003   5.866   2.486  0.3201  0.0777 -0.5270
 5268TIP3    H115810   1.067   5.912   2.540  1.7306 -0.4797 -1.6624
 5268TIP3    H215811   0.918   5.897   2.518  1.1125  0.2107  1.5658
 5269TIP3   OH215812   0.091   0.574   0.191 -0.3436 -0.3822 -0.1047
 5269TIP3    H115813   0.157   0.562   0.122 -1.2472  1.3040 -1.3388
 5269TIP3    H215814   0.008   0.548   0.149 -0.8655  0.4042  0.4214
 5270TIP3   OH215815   1.945   3.483   2.588  0.4535 -0.0879  0.2839
 5270TIP3    H115816   1.895   3.401   2.594 -0.7922  0.6075 -0.3537
 5270TIP3    H215817   1.954   3.511   2.679  0.1848 -0.5251  0.4514
 5271TIP3   OH215818   4.904   3.687   4.987  0.1869  0.1617 -0.0218
 5271TIP3    H115819   4.879   3.612   4.933  1.0118 -0.2624  0.1682
 5271TIP3    H215820   4.986   3.660   5.028 -1.5162 -0.4522  3.2535
 5272TIP3   OH215821   0.807   0.803   5.005  0.1643 -0.1293 -0.0089
 5272TIP3    H115822   0.745   0.734   4.977  1.3168 -1.6900  1.1061
 5272TIP3    H215823   0.880   0.755   5.043  0.7561  1.7591  1.3837
 5273TIP3   OH215824   5.376   3.487   4.939 -0.0984  0.0352  0.0002
 5273TIP3    H115825   5.320   3.554   4.900 -1.1596 -1.1160 -0.5350
 5273TIP3    H215826   5.386   3.421   4.870 -0.0302 -0.8964  0.8780
 5274TIP3   OH215827   0.824   4.098   1.575  0.3281  0.5782  0.2406
 5274TIP3    H115828   0.822   4.150   1.494  0.8470  0.7779  0.3476
 5274TIP3    H215829   0.739   4.114   1.616 -0.1682  0.0111 -0.5449
 5275TIP3   OH215830   5.026   5.264   1.212 -0.0560  0.4300  0.1481
 5275TIP3    H115831   5.063   5.348   1.238 -0.5998  1.1875 -1.3906
 5275TIP3    H215832   4.931   5.276   1.220 -0.1404 -0.0269 -0.1058
 5276TIP3   OH215833   4.241   4.061   5.050  0.7374  0.4069 -0.1417
 5276TIP3    H115834   4.154   4.052   5.012 -0.1719  1.0298  1.6468
 5276TIP3    H215835   4.300   4.065   4.975 -0.5978 -1.4585 -1.3818
 5277TIP3   OH215836   1.504   3.909   4.330  1.1795 -0.0766  0.4846
 5277TIP3    H115837   1.475   3.903   4.240  0.9870  1.3240  0.4343
 5277TIP3    H215838   1.476   3.827   4.370 -1.6436  0.6020  0.0875
 5278TIP3   OH215839   2.081   0.851   4.983 -0.1107  0.5593 -0.4939
 5278TIP3    H115840   2.034   0.926   5.019 -0.4099 -0.1937  0.7188
 5278TIP3    H215841   2.147   0.831   5.048  0.0828 -0.1246 -0.8985
 5279TIP3   OH215842   3.443   0.898   3.583  0.4471  0.2083  0.3903
 5279TIP3    H115843   3.357   0.858   3.594 -0.2248  1.2541 -0.8645
 5279TIP3    H215844   3.432   0.960   3.511  1.6433  2.0801  1.7184
 5280TIP3   OH215845   0.492   1.064   2.969  0.0471  0.3433 -0.1934
 5280TIP3    H115846   0.468   1.011   3.046 -0.2466  0.0786 -0.4657
 5280TIP3    H215847   0.568   1.019   2.932 -0.4801 -0.1477 -0.6865
 5281TIP3   OH215848   1.016   4.167   3.048  0.8672  0.1364  0.3229
 5281TIP3    H115849   0.963   4.096   3.082  1.6493  0.1200  1.5315
 5281TIP3    H215850   1.106   4.143   3.067  1.4322 -0.1351 -2.2558
 5282TIP3   OH215851   6.140   2.458   2.280  0.1181  0.4596  0.1940
 5282TIP3    H115852   6.209   2.459   2.346 -0.2544 -0.7953  0.6362
 5282TIP3    H215853   6.060   2.442   2.329 -0.1853 -0.3891 -0.5484
 5283TIP3   OH215854   3.592   5.933   3.640  0.2541  0.0383 -0.1855
 5283TIP3    H115855   3.637   5.942   3.724  0.1915 -0.8151 -0.0573
 5283TIP3    H215856   3.512   5.985   3.649  0.0036 -0.4556  0.4567
 5284TIP3   OH215857   2.538   1.180   4.591 -0.4863  0.2567  0.0287
 5284TIP3    H115858   2.610   1.210   4.646 -0.8902  1.6481 -0.1631
 5284TIP3    H215859   2.473   1.146   4.653  0.0619 -0.4433  0.2380
 5285TIP3   OH215860   1.155   4.324   2.537 -0.6795 -0.4850  0.8673
 5285TIP3    H115861   1.119   4.316   2.625 -1.2954 -2.6836  0.4831
 5285TIP3    H215862   1.155   4.235   2.503  1.0145  0.0881 -0.8057
 5286TIP3   OH215863   4.691   2.951   1.767  0.4755 -0.2230  0.3944
 5286TIP3    H115864   4.699   3.036   1.723  0.8635  0.8170  2.3676
 5286TIP3    H215865   4.728   2.888   1.705  1.9409  1.3103 -0.3677
 5287TIP3   OH215866   4.568   2.884   0.823  0.0784 -0.6045  0.3134
 5287TIP3    H115867   4.546   2.796   0.792 -0.7976 -0.2292 -0.1969
 5287TIP3    H215868   4.536   2.887   0.913  2.0448 -1.4917  1.0706
 5288TIP3   OH215869   0.707   2.399   3.955 -0.1249 -0.1808 -0.0953
 5288TIP3    H115870   0.799   2.426   3.966 -0.0523 -0.6972  0.6417
 5288TIP3    H215871   0.676   2.384   4.044 -0.8323 -0.3238 -0.3628
 5289TIP3   OH215872   2.995   3.139   1.661  0.3424  0.0129 -0.0896
 5289TIP3    H115873   2.973   3.048   1.641  0.2445 -0.5110  2.1899
 5289TIP3    H215874   3.051   3.166   1.588 -1.4900 -1.0917 -2.0023
 5290TIP3   OH215875   0.159   4.511   5.015 -0.4452  0.1974 -0.3123
 5290TIP3    H115876   0.074   4.474   4.993 -1.6975  3.3847 -1.3793
 5290TIP3    H215877   0.154   4.530   5.109 -0.3624 -0.7894 -0.0932
 5291TIP3   OH215878   5.017   3.363   3.396 -0.3836  0.2633 -0.3224
 5291TIP3    H115879   5.094   3.313   3.422 -1.3571 -1.0982  0.0684
 5291TIP3    H215880   4.988   3.406   3.477 -0.0988  0.6915 -0.4462
 5292TIP3   OH215881   0.626   5.558   3.494 -0.0776 -0.1090  0.8239
 5292TIP3    H115882   0.550   5.585   3.442  0.8402  0.9597 -0.0279
 5292TIP3    H215883   0.634   5.464   3.478 -0.0946  0.1121 -0.6618
 5293TIP3   OH215884   0.985   2.796   1.218 -0.5307  0.4356 -0.2651
 5293TIP3    H115885   0.914   2.739   1.246 -0.0233  0.9827  2.4288
 5293TIP3    H215886   1.060   2.739   1.208  0.3097  0.5595  3.6566
 5294TIP3   OH215887   0.947   5.855   1.537 -0.1529 -0.3175 -0.3639
 5294TIP3    H115888   1.037   5.888   1.542  0.3556 -1.7909  2.3303
 5294TIP3    H215889   0.892   5.932   1.551  0.8083  0.2186  0.6015
 5295TIP3   OH215890   1.838   4.218   3.404  0.0158  0.5334 -0.0501
 5295TIP3    H115891   1.863   4.279   3.335 -1.8713 -0.3697 -1.6146
 5295TIP3    H215892   1.743   4.226   3.410  0.0215 -0.2030  1.7102
 5296TIP3   OH215893   4.807   4.814   0.702 -0.1269 -0.1528  0.1550
 5296TIP3    H115894   4.742   4.776   0.761 -0.0626  0.8533  0.8855
 5296TIP3    H215895   4.757   4.870   0.644  0.2474  2.3920  2.1200
 5297TIP3   OH215896   5.366   3.395   0.448 -0.0656  0.3435  0.0319
 5297TIP3    H115897   5.291   3.339   0.431  1.8244 -1.8103 -1.8266
 5297TIP3    H215898   5.377   3.446   0.368  1.5666 -0.8404 -0.5643
 5298TIP3   OH215899   6.041   4.806   1.874 -0.0646  0.1433 -0.1922
 5298TIP3    H115900   6.076   4.892   1.850 -0.4973  0.1213 -0.9357
 5298TIP3    H215901   6.094   4.744   1.824  1.8572 -0.2309  2.1345
 5299TIP3   OH215902   6.101   1.288   3.207  0.0143 -0.4754 -0.1177
 5299TIP3    H115903   6.152   1.369   3.205  0.8714 -1.0006 -0.2525
 5299TIP3    H215904   6.083   1.269   3.115  0.2035 -0.6752 -0.1136
 5300TIP3   OH215905   0.480   0.386   0.537 -0.0133 -0.0022  0.3764
 5300TIP3    H115906   0.437   0.304   0.563 -0.3500  0.0226 -0.0825
 5300TIP3    H215907   0.407   0.447   0.524  0.1946  0.1790  0.0628
 5301TIP3   OH215908   4.827   0.694   0.160  0.0478 -0.4119 -0.0255
 5301TIP3    H115909   4.820   0.751   0.236  1.2203 -0.5703  0.2138
 5301TIP3    H215910   4.743   0.703   0.116 -0.3024  0.4019  0.7808
 5302TIP3   OH215911   0.854   5.645   1.356  0.3477 -0.2401  0.0389
 5302TIP3    H115912   0.935   5.630   1.307  1.4265 -0.3996  1.7754
 5302TIP3    H215913   0.865   5.733   1.394 -0.7741  0.1766 -0.5526
 5303TIP3   OH215914   3.729   3.913   3.672  0.1347  0.0097 -0.2052
 5303TIP3    H115915   3.775   3.914   3.756 -1.3290 -1.8208  0.7074
 5303TIP3    H215916   3.684   3.998   3.668 -0.8045 -0.3537  1.5232
 5304TIP3   OH215917   0.398   4.298   4.151  0.3018  0.4241 -0.3271
 5304TIP3    H115918   0.313   4.266   4.120  0.6773  1.1813 -2.2777
 5304TIP3    H215919   0.462   4.261   4.090  1.1173  1.7483 -0.3222
 5305TIP3   OH215920   5.457   0.797   0.457 -0.5500 -0.2118 -0.1021
 5305TIP3    H115921   5.427   0.712   0.487 -1.1910 -0.2375 -0.7879
 5305TIP3    H215922   5.396   0.860   0.494 -0.5909 -0.1294 -0.3067
 5306TIP3   OH215923   6.242   4.199   2.977 -0.6045 -0.5377  0.8133
 5306TIP3    H115924   6.324   4.192   2.927  0.4541  0.3704  2.3326
 5306TIP3    H215925   6.195   4.271   2.935 -0.8864 -1.3930 -0.3882
 5307TIP3   OH215926   4.167   5.423   0.129  0.0046 -0.2048  0.0882
 5307TIP3    H115927   4.151   5.480   0.053  1.0463  0.3213  0.2462
 5307TIP3    H215928   4.137   5.337   0.100 -0.9744  0.2729 -0.3978
 5308TIP3   OH215929   2.149   5.682   0.521 -0.4610 -0.1372  0.2358
 5308TIP3    H115930   2.241   5.658   0.523 -0.0413  1.3299 -0.4119
 5308TIP3    H215931   2.114   5.649   0.604  0.4152 -1.5138  0.0850
 5309TIP3   OH215932   4.867   3.189   4.152  0.4204 -0.2641  0.0326
 5309TIP3    H115933   4.893   3.222   4.239 -2.0474  1.9361  0.0461
 5309TIP3    H215934   4.938   3.217   4.094  1.5074 -0.6838  1.1142
 5310TIP3   OH215935   6.254   0.366   3.707 -0.2519  0.4503  0.0146
 5310TIP3    H115936   6.220   0.448   3.671 -0.0797  0.2780 -0.5505
 5310TIP3    H215937   6.316   0.334   3.641 -0.9661 -0.5782 -0.2004
 5311TIP3   OH215938   4.673   5.646   1.981  0.5133  0.2112 -0.4531
 5311TIP3    H115939   4.726   5.690   1.914  1.6229 -2.9895 -1.8512
 5311TIP3    H215940   4.594   5.618   1.934 -0.7969  1.7160  0.7398
 5312TIP3   OH215941   0.930   3.974   1.258 -0.1971 -0.4069 -0.1640
 5312TIP3    H115942   0.988   4.026   1.314 -0.5594 -0.4236  0.2355
 5312TIP3    H215943   0.911   3.896   1.311 -2.2979  0.5772  0.5894
 5313TIP3   OH215944   1.873   1.300   0.417 -0.0672  0.9179  0.0096
 5313TIP3    H115945   1.792   1.340   0.446  0.1483  1.1506  0.2958
 5313TIP3    H215946   1.849   1.211   0.391  0.0420  0.0230  2.7070
 5314TIP3   OH215947   4.245   5.283   2.178  0.1673  0.6770 -0.4961
 5314TIP3    H115948   4.175   5.348   2.182 -0.1735  0.3460 -0.9361
 5314TIP3    H215949   4.212   5.209   2.229  0.2100  0.5407 -0.6622
 5315TIP3   OH215950   1.785   5.607   1.208 -0.0891  0.2186  0.1093
 5315TIP3    H115951   1.735   5.531   1.237 -0.8563  0.5781 -0.2715
 5315TIP3    H215952   1.775   5.671   1.279  1.7823 -0.5414  1.1389
 5316TIP3   OH215953   3.486   0.315   4.625 -0.6769  0.0431 -0.1826
 5316TIP3    H115954   3.542   0.279   4.557  0.5491 -0.5552  1.0867
 5316TIP3    H215955   3.437   0.240   4.658 -1.7349  0.4388 -0.8038
 5317TIP3   OH215956   1.149   1.443   0.130  0.1148 -0.4596  0.9712
 5317TIP3    H115957   1.215   1.500   0.169  0.2396 -0.1361  0.3013
 5317TIP3    H215958   1.142   1.369   0.191  0.4349 -0.0533  1.5063
 5318TIP3   OH215959   3.551   2.422   3.110  0.3336  0.0087 -0.0861
 5318TIP3    H115960   3.463   2.400   3.141  0.0965 -0.5535 -1.1319
 5318TIP3    H215961   3.588   2.339   3.081  1.4440  0.1405  0.8859
 5319TIP3   OH215962   5.472   0.745   3.619  0.3919 -0.0013  0.2867
 5319TIP3    H115963   5.446   0.829   3.658 -1.8699 -0.1863 -0.6912
 5319TIP3    H215964   5.508   0.695   3.693 -2.8709  0.0194  2.1061
 5320TIP3   OH215965   3.663   1.479   0.088 -0.0938 -0.5915  0.2612
 5320TIP3    H115966   3.696   1.413   0.149  0.0200 -0.2641  0.5593
 5320TIP3    H215967   3.601   1.432   0.032  0.1562 -0.9993  0.3223
 5321TIP3   OH215968   0.094   2.954   0.447  0.3449  0.0625  0.0505
 5321TIP3    H115969   0.092   3.012   0.523  0.1939 -0.7862  0.7122
 5321TIP3    H215970   0.075   2.867   0.483  2.5538 -0.7468 -0.5806
 5322TIP3   OH215971   1.954   3.115   3.239  1.1310  0.1738  0.2523
 5322TIP3    H115972   2.028   3.055   3.230  1.3040  0.5396 -0.8350
 5322TIP3    H215973   1.926   3.132   3.149  1.9543  2.8263  0.4353
 5323TIP3   OH215974   6.092   5.271   0.402 -0.0055  0.7337 -0.3931
 5323TIP3    H115975   6.147   5.224   0.464 -0.8932 -0.2618 -0.3280
 5323TIP3    H215976   6.073   5.355   0.444  2.1175  1.4559 -0.7852
 5324TIP3   OH215977   2.529   2.314   5.157 -0.1114  0.1619 -0.8922
 5324TIP3    H115978   2.440   2.281   5.167  0.2290 -0.1658  1.9940
 5324TIP3    H215979   2.579   2.237   5.128 -0.1031 -0.8465  1.5516
 5325TIP3   OH215980   4.467   2.111   4.559 -0.4957  0.0506  0.2697
 5325TIP3    H115981   4.445   2.193   4.603 -0.7598  0.5376 -0.7457
 5325TIP3    H215982   4.562   2.113   4.550 -0.4637  0.0575  0.5961
 5326TIP3   OH215983   1.451   2.455   3.850 -0.2668  0.4734  0.6323
 5326TIP3    H115984   1.360   2.441   3.876 -0.1369 -0.9791  0.3725
 5326TIP3    H215985   1.499   2.384   3.892  0.3854 -0.1347 -1.0566
 5327TIP3   OH215986   0.389   1.069   4.215 -0.1961 -0.2814  0.0588
 5327TIP3    H115987   0.417   1.150   4.173 -1.7829  0.3666  0.1848
 5327TIP3    H215988   0.462   1.008   4.202  1.8927  1.6964  1.6263
 5328TIP3   OH215989   3.211   5.977   1.890 -0.2020  0.0960 -0.2080
 5328TIP3    H115990   3.303   5.999   1.902 -0.2971 -0.4067  1.7395
 5328TIP3    H215991   3.187   5.929   1.969 -1.8741 -0.6996 -1.1455
 5329TIP3   OH215992   5.323   1.691   3.622 -0.0572 -0.4338  0.7031
 5329TIP3    H115993   5.276   1.691   3.538  1.0507  1.5411  0.0024
 5329TIP3    H215994   5.413   1.718   3.599  0.3545 -0.1429  2.4814
 5330TIP3   OH215995   5.612   1.941   0.079 -0.2347 -0.2430  0.3595
 5330TIP3    H115996   5.540   1.944   0.142  0.8612 -0.6621  1.6743
 5330TIP3    H215997   5.637   2.033   0.067  1.1278 -0.2472  2.4960
 5331TIP3   OH215998   2.570   5.549   3.917  0.0941  0.2633  0.3527
 5331TIP3    H115999   2.558   5.512   4.004  1.0690  1.3860  0.9940
 5331TIP3    H216000   2.525   5.488   3.859 -0.7042 -0.4282  1.6456
 5332TIP3   OH216001   5.762   5.490   1.382  0.0505 -0.1422 -0.1959
 5332TIP3    H116002   5.702   5.423   1.413 -0.3317 -0.9048 -2.3721
 5332TIP3    H216003   5.721   5.524   1.302  1.7976  0.3398 -0.9512
 5333TIP3   OH216004   3.944   0.171   1.505 -0.2007 -0.0161 -0.2384
 5333TIP3    H116005   3.852   0.194   1.499 -0.3150 -0.5444 -0.4874
 5333TIP3    H216006   3.949   0.079   1.480  0.2898 -0.2196  0.5434
 5334TIP3   OH216007   2.600   5.030   3.735  0.2643  0.2860 -0.3803
 5334TIP3    H116008   2.527   5.013   3.794  0.3000  0.6026 -0.2447
 5334TIP3    H216009   2.676   5.039   3.792  1.0215 -3.0357 -0.6636
 5335TIP3   OH216010   1.371   0.048   2.475  0.0826 -0.0966  1.1857
 5335TIP3    H116011   1.455   0.089   2.453 -0.1169  0.2899  1.1427
 5335TIP3    H216012   1.376   0.035   2.569 -0.4516  1.4051  1.4466
 5336TIP3   OH216013   2.907   3.707   0.226 -0.1656 -0.2646 -0.2483
 5336TIP3    H116014   2.824   3.728   0.184 -0.0272  0.4744 -0.1626
 5336TIP3    H216015   2.897   3.616   0.254 -1.4914  0.2370  1.0462
 5337TIP3   OH216016   1.982   3.956   3.740  0.0629  0.2411 -0.5010
 5337TIP3    H116017   1.909   3.907   3.778  0.4670  0.9107  1.2294
 5337TIP3    H216018   1.943   4.039   3.714  0.0530  0.3109 -0.2688
 5338TIP3   OH216019   3.385   3.685   0.776  0.1926  0.3846 -0.1720
 5338TIP3    H116020   3.335   3.625   0.831  2.1182 -0.7768  0.3562
 5338TIP3    H216021   3.318   3.741   0.736 -1.7651 -2.4644 -1.1896
 5339TIP3   OH216022   2.329   3.763   3.578  0.1303 -0.3363 -0.1836
 5339TIP3    H116023   2.421   3.788   3.580 -0.0569  0.3129  0.9685
 5339TIP3    H216024   2.283   3.832   3.627 -0.3813 -2.8810  3.3095
 5340TIP3   OH216025   2.669   1.698   0.734 -1.0831  0.0388 -0.2486
 5340TIP3    H116026   2.612   1.702   0.811 -0.2642  3.5801  0.3717
 5340TIP3    H216027   2.656   1.782   0.690  1.9469  0.0741 -1.3182
 5341TIP3   OH216028   2.956   2.584   1.742  0.4554  0.3765  0.0997
 5341TIP3    H116029   2.894   2.658   1.742  0.2097  0.1986  1.4229
 5341TIP3    H216030   2.965   2.561   1.650 -0.3580  1.3203 -0.2434
 5342TIP3   OH216031   5.151   4.212   4.806 -0.2237  0.1547  0.2504
 5342TIP3    H116032   5.225   4.237   4.861  0.9908 -1.5250 -0.5322
 5342TIP3    H216033   5.075   4.216   4.865  0.8699 -0.5507  1.7676
 5343TIP3   OH216034   0.824   2.369   2.553 -0.7854 -0.2500  0.1095
 5343TIP3    H116035   0.864   2.318   2.623 -3.2430 -2.6186 -0.0417
 5343TIP3    H216036   0.794   2.304   2.490  0.1544  1.7305 -2.5742
 5344TIP3   OH216037   2.068   4.209   2.125 -0.1504  0.4721 -0.3086
 5344TIP3    H116038   2.004   4.138   2.129  0.9732 -0.5090  1.6846
 5344TIP3    H216039   2.015   4.288   2.115 -1.8073 -0.2274  2.0103
 5345TIP3   OH216040   1.745   5.575   2.088  0.2121 -0.2914 -0.1658
 5345TIP3    H116041   1.666   5.595   2.139  0.0296 -1.2956 -0.0377
 5345TIP3    H216042   1.816   5.619   2.134 -0.3955  1.4727 -0.8320
 5346TIP3   OH216043   1.012   2.784   2.126 -0.4780 -0.0481 -0.1019
 5346TIP3    H116044   1.085   2.799   2.066  0.7613  0.4324  1.4465
 5346TIP3    H216045   0.935   2.778   2.070  0.5787  0.6794 -1.6955
 5347TIP3   OH216046   5.928   1.021   2.631 -0.2056 -0.4334  0.5708
 5347TIP3    H116047   5.931   0.927   2.648  0.9744 -0.5887 -0.3485
 5347TIP3    H216048   5.981   1.033   2.552 -0.5708  0.9698  0.5127
 5348TIP3   OH216049   2.896   5.987   0.616  0.8348 -0.2636 -0.0145
 5348TIP3    H116050   2.832   5.940   0.669 -0.2010 -0.5238 -1.4543
 5348TIP3    H216051   2.896   5.941   0.531  1.6936  0.7684 -0.6010
 5349TIP3   OH216052   1.182   4.280   4.545  0.0687 -0.7867  0.2823
 5349TIP3    H116053   1.255   4.342   4.536 -0.4118 -0.4247 -1.5527
 5349TIP3    H216054   1.223   4.194   4.532  0.5636 -0.7998  1.7878
 5350TIP3   OH216055   5.276   1.221   3.722  0.0598 -0.3911  0.0574
 5350TIP3    H116056   5.287   1.131   3.691 -2.8072 -0.5622 -0.7180
 5350TIP3    H216057   5.263   1.211   3.817  1.2860 -0.6134  0.2156
 5351TIP3   OH216058   1.085   0.181   3.193  0.3453 -0.1095  0.1379
 5351TIP3    H116059   1.176   0.208   3.202  0.5808 -0.7995 -0.1404
 5351TIP3    H216060   1.054   0.172   3.283  0.4436  0.4629  0.2354
 5352TIP3   OH216061   1.209   1.551   1.261  0.1796  0.1702  0.2899
 5352TIP3    H116062   1.185   1.627   1.315  0.5721  0.5402 -0.0491
 5352TIP3    H216063   1.249   1.490   1.323  0.1276  0.3642  0.5177
 5353TIP3   OH216064   3.470   2.917   0.338  0.2111  0.2073  0.1156
 5353TIP3    H116065   3.542   2.885   0.392  0.1042  0.1262  0.2131
 5353TIP3    H216066   3.404   2.946   0.402 -0.3199 -0.7851  0.0458
 5354TIP3   OH216067   5.013   1.257   1.631 -0.5609 -0.2061 -0.3474
 5354TIP3    H116068   5.076   1.317   1.591 -0.6271 -1.1922 -2.0265
 5354TIP3    H216069   4.936   1.312   1.649 -0.1181  0.4893 -0.5323
 5355TIP3   OH216070   2.530   3.654   4.379 -0.0900  0.3150 -0.0106
 5355TIP3    H116071   2.521   3.619   4.290  0.4853 -0.2929  0.1630
 5355TIP3    H216072   2.442   3.681   4.403 -0.4046 -0.3134 -0.4413
 5356TIP3   OH216073   1.655   0.251   1.940 -0.6294 -0.1380 -0.2591
 5356TIP3    H116074   1.672   0.215   1.853 -2.2796 -0.9058 -0.3025
 5356TIP3    H216075   1.565   0.225   1.960 -0.6326  0.8901  1.2605
 5357TIP3   OH216076   3.334   3.724   4.560  0.1436  0.1475 -0.8332
 5357TIP3    H116077   3.348   3.671   4.481 -3.3555 -0.3414 -1.2754
 5357TIP3    H216078   3.292   3.804   4.528  0.2964  0.7325  0.3814
 5358TIP3   OH216079   3.952   1.408   0.049  0.1874 -0.2332  0.2743
 5358TIP3    H116080   3.904   1.452  -0.021 -0.4679  0.1475  0.9485
 5358TIP3    H216081   3.888   1.351   0.091 -0.3344  1.8394  2.5563
 5359TIP3   OH216082   5.501   0.598   3.164  0.0001  0.3686 -0.3940
 5359TIP3    H116083   5.408   0.618   3.171 -0.0510  0.0015  0.0957
 5359TIP3    H216084   5.543   0.656   3.227  0.1717  0.9394 -1.0241
 5360TIP3   OH216085   4.220   0.975   3.939 -0.2557 -0.5728 -0.1829
 5360TIP3    H116086   4.237   0.904   4.001 -1.5377 -0.5706  0.1975
 5360TIP3    H216087   4.170   1.039   3.988  1.5530  1.0258 -0.2946
 5361TIP3   OH216088   2.083   0.692   4.756 -0.1510  0.4635 -0.0799
 5361TIP3    H116089   2.096   0.743   4.835 -1.5094  0.4857  0.1486
 5361TIP3    H216090   2.082   0.601   4.786  0.6368  0.3873 -0.2630
 5362TIP3   OH216091   2.271   3.023   3.974  0.6712 -0.4710 -0.7889
 5362TIP3    H116092   2.193   3.078   3.970  0.7308 -0.3985 -0.9507
 5362TIP3    H216093   2.237   2.933   3.971  0.6761 -0.4372 -2.3799
 5363TIP3   OH216094   0.435   4.092   2.056 -0.2361  0.3708 -0.0423
 5363TIP3    H116095   0.522   4.055   2.044 -0.0180  1.1864 -1.1359
 5363TIP3    H216096   0.439   4.135   2.141 -0.2281 -1.2944  0.8429
 5364TIP3   OH216097   0.148   5.805   5.064  0.1994  0.1010  0.5352
 5364TIP3    H116098   0.086   5.785   5.135  1.3344 -0.6114  1.3729
 5364TIP3    H216099   0.214   5.862   5.105  1.2647 -0.8993  0.2848
 5365TIP3   OH216100   2.749   5.170   2.802  0.8601 -0.1277  0.4089
 5365TIP3    H116101   2.680   5.234   2.821  0.2448  0.0980 -2.1933
 5365TIP3    H216102   2.817   5.221   2.758  0.3638 -1.1619 -1.7042
 5366TIP3   OH216103   3.862   1.897   4.879  0.1138 -0.7024 -0.2118
 5366TIP3    H116104   3.890   1.811   4.846 -0.4312 -0.6345 -0.8673
 5366TIP3    H216105   3.768   1.889   4.889  0.0866 -0.2425 -0.0884
 5367TIP3   OH216106   1.482   3.703   1.821  0.3186  0.4194 -0.2645
 5367TIP3    H116107   1.561   3.650   1.831  1.2350  1.0684 -3.2402
 5367TIP3    H216108   1.415   3.642   1.791  0.7038  0.4735 -1.2716
 5368TIP3   OH216109   3.673   2.946   1.404 -0.4402  0.3362  0.1302
 5368TIP3    H116110   3.630   3.020   1.362 -1.5078 -1.1941 -1.6575
 5368TIP3    H216111   3.749   2.928   1.349 -0.6512 -0.3684  0.0497
 5369TIP3   OH216112   0.689   3.505   0.080  0.0687  0.2261  0.5214
 5369TIP3    H116113   0.684   3.491   0.174 -1.5285  0.5289  0.4940
 5369TIP3    H216114   0.630   3.440   0.043  3.0429 -2.1284 -0.5574
 5370TIP3   OH216115   1.401   4.035   0.763  0.1249  0.3970 -0.2409
 5370TIP3    H116116   1.312   4.000   0.751 -0.0489  1.2301 -1.5290
 5370TIP3    H216117   1.447   4.010   0.683  1.1987 -0.3692  0.5822
 5371TIP3   OH216118   0.893   1.509  -0.015 -0.2739  0.0769  0.0166
 5371TIP3    H116119   0.825   1.511   0.053  1.1678  0.6786  1.4901
 5371TIP3    H216120   0.975   1.496   0.032  0.6370 -1.2046 -1.7666
 5372TIP3   OH216121   3.677   2.480   2.818 -0.3732  0.4302 -0.2622
 5372TIP3    H116122   3.712   2.395   2.793  0.5437  0.3042  1.3874
 5372TIP3    H216123   3.593   2.460   2.860 -0.8748  0.4880 -1.1893
 5373TIP3   OH216124   4.422   2.927   1.327  0.3410  0.2437 -0.3142
 5373TIP3    H116125   4.340   2.935   1.279  1.3198 -0.7234 -2.2698
 5373TIP3    H216126   4.431   3.009   1.374 -2.2440 -0.0263  0.8397
 5374TIP3   OH216127   5.433   2.210   0.208 -0.5668 -0.1453  0.1078
 5374TIP3    H116128   5.403   2.119   0.209 -0.2177 -0.2767 -0.6563
 5374TIP3    H216129   5.446   2.232   0.300  0.3349 -1.1999  0.2521
 5375TIP3   OH216130   2.985   0.207   3.824 -0.2037 -0.4168 -0.7170
 5375TIP3    H116131   3.050   0.168   3.765  0.1337 -0.6405 -0.2047
 5375TIP3    H216132   3.027   0.204   3.910 -0.5364  0.2694 -0.5315
 5376TIP3   OH216133   5.017   5.210   2.669  0.0837 -0.0688  0.0833
 5376TIP3    H116134   5.078   5.281   2.690 -2.2781  2.5408 -1.1473
 5376TIP3    H216135   4.949   5.216   2.737 -0.2049 -1.0677 -0.1099
 5377TIP3   OH216136   2.711   0.357   1.280 -0.0016  0.1454  0.6826
 5377TIP3    H116137   2.669   0.413   1.215  1.5632  0.0330 -0.5016
 5377TIP3    H216138   2.688   0.268   1.253 -2.2987  0.1446  2.4287
 5378TIP3   OH216139   2.710   4.794   3.084 -0.7315 -0.1913  0.2209
 5378TIP3    H116140   2.672   4.844   3.156 -1.2443  0.4591 -0.4894
 5378TIP3    H216141   2.637   4.776   3.026 -0.3245 -0.7281 -0.1355
 5379TIP3   OH216142   2.222   0.692   3.543 -0.0810 -0.0110  0.1531
 5379TIP3    H116143   2.237   0.646   3.460  0.6643 -0.7464  0.6886
 5379TIP3    H216144   2.149   0.645   3.583  0.1102 -0.1780  0.3030
 5380TIP3   OH216145   3.754   3.890   4.705  0.2700 -0.2224 -0.0025
 5380TIP3    H116146   3.842   3.857   4.718  1.1818  1.6392 -1.0244
 5380TIP3    H216147   3.704   3.814   4.674  1.1363 -1.6048  1.7853
 5381TIP3   OH216148   0.017   0.841   3.688  0.0757 -0.1491  0.4535
 5381TIP3    H116149   0.086   0.888   3.641 -0.3516 -0.3963 -0.4348
 5381TIP3    H216150  -0.048   0.819   3.621  0.2095 -1.9158  0.8489
 5382TIP3   OH216151   2.861   5.369   3.528 -0.0201  0.0222 -0.1181
 5382TIP3    H116152   2.820   5.287   3.556  1.3723 -0.9829 -0.8513
 5382TIP3    H216153   2.947   5.369   3.571 -0.0310  1.1504 -0.0613
 5383TIP3   OH216154   1.811   5.933   5.186  0.3788 -0.2759  0.7490
 5383TIP3    H116155   1.719   5.944   5.160  0.6556 -0.4809 -0.3903
 5383TIP3    H216156   1.855   6.010   5.150  0.2899  1.0998  3.3657
 5384TIP3   OH216157   2.650   0.844   2.475  0.3859 -0.1019  0.5030
 5384TIP3    H116158   2.736   0.802   2.463 -0.1600 -0.8458 -1.1646
 5384TIP3    H216159   2.660   0.931   2.435  0.0125 -0.7059 -0.9905
 5385TIP3   OH216160   2.011   0.130   3.935  0.0293  0.1358  0.1584
 5385TIP3    H116161   1.962   0.058   3.976 -1.0755  0.5190 -0.4272
 5385TIP3    H216162   2.039   0.185   4.007 -0.6620  0.0502  0.4996
 5386TIP3   OH216163   0.153   4.197   2.850  0.7327 -0.3404  0.1781
 5386TIP3    H116164   0.232   4.148   2.872 -0.1653 -0.8787  2.4940
 5386TIP3    H216165   0.155   4.205   2.755  1.5654 -3.7669 -0.2202
 5387TIP3   OH216166   5.713   0.651   0.008 -0.3569 -0.0869  0.5233
 5387TIP3    H116167   5.798   0.696   0.012 -0.3580 -0.1640  1.6759
 5387TIP3    H216168   5.652   0.710   0.052 -0.5479 -0.7801  1.2212
 5388TIP3   OH216169   1.041   4.720   1.361 -0.4726 -0.7941  0.0125
 5388TIP3    H116170   1.133   4.735   1.384 -0.3256 -2.1658  0.4301
 5388TIP3    H216171   1.042   4.712   1.265 -0.2177 -0.4379 -0.0165
 5389TIP3   OH216172   2.436   1.969   0.982  0.4263  0.4767 -1.2236
 5389TIP3    H116173   2.348   1.947   0.951 -1.0798  1.5928  1.8160
 5389TIP3    H216174   2.453   2.056   0.945 -0.4179  0.8809 -0.7071
 5390TIP3   OH216175   2.983   4.480   1.117 -0.5904 -0.5838  0.4890
 5390TIP3    H116176   2.916   4.493   1.184  0.5332 -0.2181  1.5912
 5390TIP3    H216177   3.044   4.553   1.131  0.8372 -1.7505  0.5344
 5391TIP3   OH216178   1.430   5.130   3.997 -0.2975  0.4907  0.4965
 5391TIP3    H116179   1.381   5.072   3.939  1.2829  0.8136 -1.2599
 5391TIP3    H216180   1.377   5.135   4.077 -1.4007 -1.8564  0.0031
 5392TIP3   OH216181   3.628   1.683   2.251 -0.6567 -0.0631  0.4092
 5392TIP3    H116182   3.583   1.739   2.188 -0.5433 -0.4411 -0.0131
 5392TIP3    H216183   3.642   1.601   2.204  1.5780  0.4401  0.1063
 5393TIP3   OH216184   6.294   0.956   2.698 -0.0051 -0.3270 -0.2652
 5393TIP3    H116185   6.278   0.908   2.617  0.6594  0.0423 -0.6263
 5393TIP3    H216186   6.377   0.921   2.731 -0.7784 -1.2331  0.8388
 5394TIP3   OH216187   0.057   2.987   1.531  0.2045 -0.4822 -0.2412
 5394TIP3    H116188   0.073   3.038   1.452  0.0515  0.5440  0.3834
 5394TIP3    H216189   0.102   3.034   1.600 -2.9133  0.9144  1.0393
 5395TIP3   OH216190   1.213   0.983   0.494 -0.0504  0.0917  0.3391
 5395TIP3    H116191   1.120   1.005   0.503  0.1453  0.5982  1.2591
 5395TIP3    H216192   1.214   0.908   0.435 -1.0715 -0.1073  0.5547
 5396TIP3   OH216193   2.102   1.079   4.172 -0.4654  0.2959 -0.3032
 5396TIP3    H116194   2.127   1.073   4.265  0.3266  0.0117 -0.5243
 5396TIP3    H216195   2.007   1.091   4.174 -0.4734  0.2152  0.5427
 5397TIP3   OH216196   3.343   2.522   1.054 -0.1054  0.6317  0.5015
 5397TIP3    H116197   3.365   2.445   1.000  0.0129  1.1007 -0.1368
 5397TIP3    H216198   3.426   2.547   1.094 -0.0572  0.6649  0.3837
 5398TIP3   OH216199   6.306   5.611   4.969 -0.4819  0.0863 -0.4372
 5398TIP3    H116200   6.222   5.653   4.986 -0.5398  0.2047 -1.0249
 5398TIP3    H216201   6.371   5.672   5.004 -0.6441 -0.0766  0.1600
 5399TIP3   OH216202   6.301   2.001   3.571  0.0845 -0.3367 -0.1812
 5399TIP3    H116203   6.308   2.044   3.486  1.1605  1.0023  0.5474
 5399TIP3    H216204   6.300   2.073   3.634 -0.1972 -1.3241  0.9655
 5400TIP3   OH216205   5.784   3.022   2.599 -0.4153 -0.1269 -0.5239
 5400TIP3    H116206   5.800   3.026   2.693 -2.3774 -3.4438  0.1082
 5400TIP3    H216207   5.746   3.107   2.577  0.9343  1.0590  1.4342
 5401TIP3   OH216208   2.357   5.202   0.443  0.1505  0.6427  0.7206
 5401TIP3    H116209   2.407   5.174   0.366 -1.2894  1.7812 -0.7047
 5401TIP3    H216210   2.415   5.186   0.517  0.4670 -3.5190 -0.1674
 5402TIP3   OH216211   4.963   1.338   0.223 -0.4995 -0.0664  0.0451
 5402TIP3    H116212   4.877   1.379   0.235 -0.3778  0.2947 -0.2716
 5402TIP3    H216213   4.975   1.336   0.128 -0.1755 -0.1523  0.0871
 5403TIP3   OH216214   2.828   5.622   3.855  0.0696  0.3157  0.6263
 5403TIP3    H116215   2.874   5.544   3.888  0.4966  0.9574  1.5677
 5403TIP3    H216216   2.736   5.607   3.878  0.4954  1.3085  3.3585
 5404TIP3   OH216217   1.747   2.644   4.533  0.0090 -0.1105  0.5947
 5404TIP3    H116218   1.666   2.664   4.580 -0.9302 -1.5878 -0.3143
 5404TIP3    H216219   1.762   2.720   4.477  0.4905  1.1389  2.3290
 5405TIP3   OH216220   1.965   1.037   0.723 -0.0264 -0.3447 -1.0354
 5405TIP3    H116221   1.890   1.077   0.767  1.2588  0.9407  0.1214
 5405TIP3    H216222   1.940   1.032   0.631 -1.0629  1.2206 -0.8733
 5406TIP3   OH216223   2.791   3.204   2.406 -0.0588  0.4619 -0.0180
 5406TIP3    H116224   2.775   3.247   2.322  1.4974 -1.2233 -1.2317
 5406TIP3    H216225   2.717   3.144   2.417  0.2132  0.0036 -0.6556
 5407TIP3   OH216226   4.238   1.729   3.923 -0.4314 -0.6867 -0.4267
 5407TIP3    H116227   4.256   1.801   3.863  3.4290 -1.4815 -0.4828
 5407TIP3    H216228   4.209   1.657   3.866 -0.2380 -0.3989 -0.8889
 5408TIP3   OH216229   3.508   3.337   1.054  0.2552 -0.4948 -0.0997
 5408TIP3    H116230   3.458   3.282   0.993 -1.1762  0.8511 -0.1876
 5408TIP3    H216231   3.509   3.286   1.136 -2.8320  0.1153  0.4598
 5409TIP3   OH216232   5.675   1.376   1.500  0.3469  0.4804  0.1783
 5409TIP3    H116233   5.593   1.361   1.453  1.8936 -1.0489 -2.2755
 5409TIP3    H216234   5.712   1.288   1.510  1.5245  1.1074  1.5883
 5410TIP3   OH216235   3.480   5.076   4.924 -0.0178  0.0653 -0.0798
 5410TIP3    H116236   3.520   5.000   4.965  0.1331  0.0465 -0.2573
 5410TIP3    H216237   3.411   5.039   4.867  0.7016 -0.0190 -0.9192
 5411TIP3   OH216238   2.580   5.886   0.427 -0.5876 -0.0849  0.5274
 5411TIP3    H116239   2.548   5.900   0.338 -1.8530  0.2402  1.0008
 5411TIP3    H216240   2.667   5.848   0.417 -1.0664 -0.8663 -0.8511
 5412TIP3   OH216241   2.946   0.413   2.073 -0.0474  0.0603  0.1625
 5412TIP3    H116242   2.974   0.503   2.062  0.3372  0.3017  2.4895
 5412TIP3    H216243   3.010   0.375   2.134  0.2725 -2.0424 -1.3501
 5413TIP3   OH216244   4.252   2.910   3.746  0.0672  0.1100  0.2695
 5413TIP3    H116245   4.172   2.957   3.724  0.3436 -0.1691 -1.4563
 5413TIP3    H216246   4.243   2.824   3.704  1.4379  0.2249 -0.3261
 5414TIP3   OH216247   3.620   2.178   0.209 -0.2303  0.0387 -0.2443
 5414TIP3    H116248   3.671   2.222   0.142  1.3154 -1.1147  0.1261
 5414TIP3    H216249   3.612   2.088   0.177 -0.4562 -0.2419  0.5888
 5415TIP3   OH216250   5.670   1.817   3.083 -0.2107  0.5192 -0.5203
 5415TIP3    H116251   5.636   1.734   3.116  2.1113  0.2161  1.4532
 5415TIP3    H216252   5.603   1.882   3.106 -0.7466 -0.4167  0.6440
 5416TIP3   OH216253   1.265   0.050   1.668 -0.4423 -0.1348 -0.4667
 5416TIP3    H116254   1.286  -0.037   1.699 -1.8022 -0.5377 -0.6299
 5416TIP3    H216255   1.327   0.065   1.596 -0.3601 -1.0600 -0.6001
 5417TIP3   OH216256   3.010   0.620   3.832 -0.0795 -0.2720 -0.3999
 5417TIP3    H116257   2.953   0.618   3.909 -1.0503  2.7805 -0.9108
 5417TIP3    H216258   2.962   0.571   3.766  0.5833 -2.5814  0.7037
 5418TIP3   OH216259   1.787   1.688   3.657 -0.2726  0.1430 -0.6367
 5418TIP3    H116260   1.797   1.754   3.725 -0.1976 -1.5031  1.0611
 5418TIP3    H216261   1.868   1.637   3.662 -1.2184 -1.4019 -0.3327
 5419TIP3   OH216262   5.591   3.070   2.263  0.6726  0.0591 -0.1422
 5419TIP3    H116263   5.634   2.994   2.302  1.6033 -0.0432 -1.3051
 5419TIP3    H216264   5.515   3.035   2.217  0.8571 -0.1182 -0.3127
 5420TIP3   OH216265   5.013   4.162   2.095  0.5002 -0.0205 -0.6294
 5420TIP3    H116266   4.952   4.218   2.142 -0.2541 -1.4253  0.1259
 5420TIP3    H216267   5.080   4.222   2.063 -1.2116  1.5710 -1.4372
 5421TIP3   OH216268   1.519   1.956   2.264 -0.1170  0.7448  0.4530
 5421TIP3    H116269   1.428   1.929   2.252 -0.1863  0.6614  1.0796
 5421TIP3    H216270   1.522   2.047   2.235 -0.3730  0.7091  0.3158
 5422TIP3   OH216271   5.447   3.411   1.613  0.1901 -0.0199  0.0732
 5422TIP3    H116272   5.509   3.480   1.586 -1.3104  0.6973 -1.7472
 5422TIP3    H216273   5.383   3.457   1.667  0.0649 -0.3168  0.1763
 5423TIP3   OH216274   2.460   5.823   0.146 -0.2213  0.1047  0.0912
 5423TIP3    H116275   2.485   5.786   0.062 -2.9070  0.1218 -0.8014
 5423TIP3    H216276   2.451   5.916   0.130  0.6818  0.3213  0.7931
 5424TIP3   OH216277   5.159   2.766   4.713 -0.3369  0.1837  0.3606
 5424TIP3    H116278   5.197   2.764   4.625 -0.3786 -0.3263  0.3500
 5424TIP3    H216279   5.101   2.690   4.716  0.5137 -0.4595  1.1964
 5425TIP3   OH216280   2.945   3.253   5.174 -0.0561 -0.5540  0.5999
 5425TIP3    H116281   2.951   3.292   5.087  0.5666 -2.7057 -0.3779
 5425TIP3    H216282   2.854   3.268   5.200  0.1269  1.4537  0.3022
 5426TIP3   OH216283   5.857   4.744   0.738  0.0107 -0.2779  0.3257
 5426TIP3    H116284   5.805   4.718   0.662  1.3513 -0.6476 -0.4868
 5426TIP3    H216285   5.936   4.691   0.733  0.0883 -0.3894  2.0525
 5427TIP3   OH216286   0.819   2.125   4.955  0.0655 -0.0342 -0.4406
 5427TIP3    H116287   0.813   2.198   4.893 -1.0664  0.3852  0.1429
 5427TIP3    H216288   0.883   2.155   5.021  0.2169  0.0907 -0.6430
 5428TIP3   OH216289   3.523   2.367   2.043 -0.0070  0.6813  0.0109
 5428TIP3    H116290   3.548   2.421   1.968 -0.0606  0.2972 -0.2857
 5428TIP3    H216291   3.497   2.431   2.111  0.5274  1.0424 -0.1166
 5429TIP3   OH216292   3.359   1.935   0.793 -0.0247 -0.6052  0.3145
 5429TIP3    H116293   3.300   2.006   0.768  0.7809  0.5420  1.5581
 5429TIP3    H216294   3.313   1.889   0.863  0.1294 -0.3011  0.6202
 5430TIP3   OH216295   1.068   1.051   3.292  0.5968 -0.1093 -0.1856
 5430TIP3    H116296   1.079   1.124   3.352  0.1593 -1.1606  1.2402
 5430TIP3    H216297   0.984   1.066   3.249 -0.1658 -0.4459  1.1310
 5431TIP3   OH216298   3.550   0.165   1.259 -0.2651  0.6899 -0.1768
 5431TIP3    H116299   3.487   0.236   1.245 -1.2776 -0.3908 -1.3058
 5431TIP3    H216300   3.562   0.126   1.173  1.4272  0.3887  0.1429
 5432TIP3   OH216301   4.064   3.029   4.427  0.6243 -0.3581  0.3417
 5432TIP3    H116302   4.130   2.968   4.460  0.8552 -0.9217 -1.0983
 5432TIP3    H216303   4.056   3.095   4.496  1.7443 -0.9829  1.1023
 5433TIP3   OH216304   3.805   3.278   1.463  0.7629  0.1537  0.6545
 5433TIP3    H116305   3.771   3.355   1.417  1.7361  0.0868 -0.2082
 5433TIP3    H216306   3.785   3.205   1.405 -0.2840 -0.2799  1.5374
 5434TIP3   OH216307   2.221   3.381   4.969  0.3450  0.1449  0.0015
 5434TIP3    H116308   2.270   3.302   4.992  1.0145  0.5651  0.0292
 5434TIP3    H216309   2.191   3.365   4.880  0.9399  0.0818 -0.1909
 5435TIP3   OH216310   3.700   1.340   0.505 -0.1449  0.6545 -0.4299
 5435TIP3    H116311   3.719   1.348   0.412 -0.4528  0.1646 -0.5401
 5435TIP3    H216312   3.704   1.246   0.522  0.3257  0.7730  0.1440
 5436TIP3   OH216313   0.549   5.551   2.933  0.1656 -0.3338  0.3315
 5436TIP3    H116314   0.624   5.516   2.884 -0.3396 -2.1638  0.7765
 5436TIP3    H216315   0.529   5.634   2.890  1.0721 -0.8651 -1.2099
 5437TIP3   OH216316   2.707   4.269   2.093 -0.6495 -0.4072  0.0453
 5437TIP3    H116317   2.642   4.232   2.034 -0.3605 -0.7450 -0.0720
 5437TIP3    H216318   2.687   4.362   2.097 -1.1443 -0.5099  0.0219
 5438TIP3   OH216319   6.237   5.145   0.605 -0.1103 -0.5605 -0.6429
 5438TIP3    H116320   6.192   5.092   0.671 -1.0551  1.6719  0.6507
 5438TIP3    H216321   6.313   5.181   0.651 -1.8865  2.6959  0.0734
 5439TIP3   OH216322   4.371   5.115   0.462 -0.0530 -0.0616 -0.2464
 5439TIP3    H116323   4.306   5.178   0.491 -1.1339 -0.5135 -1.5668
 5439TIP3    H216324   4.381   5.131   0.368  0.7994 -0.8426 -0.3147
 5440TIP3   OH216325   4.276   2.912   0.745 -0.2583 -0.3110  0.1391
 5440TIP3    H116326   4.250   2.871   0.663  0.5927 -0.0931 -0.2569
 5440TIP3    H216327   4.299   2.839   0.802 -0.9516 -0.4673  0.2182
 5441TIP3   OH216328   5.368   2.546   3.361  0.4645 -0.2158  0.0336
 5441TIP3    H116329   5.382   2.466   3.412  2.6148 -0.4144 -0.7680
 5441TIP3    H216330   5.456   2.579   3.343 -0.3293  1.4592 -1.0353
 5442TIP3   OH216331   2.304   2.034   0.078  0.3002  0.4158 -0.2147
 5442TIP3    H116332   2.239   2.018   0.147 -0.0706 -0.9603 -0.8475
 5442TIP3    H216333   2.347   2.116   0.104  0.0502  0.0276  1.5573
 5443TIP3   OH216334   2.795   3.295   2.146 -0.2610  0.3803 -0.2971
 5443TIP3    H116335   2.865   3.255   2.095 -1.1389 -2.1227  0.3400
 5443TIP3    H216336   2.804   3.389   2.129  2.2385  0.0087 -1.4573
 5444TIP3   OH216337   6.105   4.757   4.915 -0.5265  0.3138  0.1137
 5444TIP3    H116338   6.177   4.700   4.890 -1.1089 -0.1811 -0.4642
 5444TIP3    H216339   6.061   4.711   4.986  0.4472  1.1952  1.3502
 5445TIP3   OH216340   0.156   2.179   4.547  0.0509  0.0239  0.1313
 5445TIP3    H116341   0.120   2.219   4.627  0.4950  0.8886 -0.0812
 5445TIP3    H216342   0.148   2.085   4.561 -1.6128  0.1682  0.3939
 5446TIP3   OH216343   5.565   2.344   3.542  0.0875  0.4253  0.9100
 5446TIP3    H116344   5.638   2.283   3.532 -0.2326  0.3313 -1.2097
 5446TIP3    H216345   5.544   2.341   3.636  1.8306 -0.6462  1.3084
 5447TIP3   OH216346   5.479   3.674   2.167 -0.4178  0.4891  0.6282
 5447TIP3    H116347   5.531   3.634   2.097 -0.3676  0.0455  0.9134
 5447TIP3    H216348   5.504   3.625   2.246 -1.6380 -0.0852  0.6826
 5448TIP3   OH216349   1.446   4.083   1.044 -0.6444  0.2207  0.0636
 5448TIP3    H116350   1.431   4.113   0.954 -1.0000  0.5944  0.2493
 5448TIP3    H216351   1.465   3.990   1.034  0.9772  0.5798 -0.5707
 5449TIP3   OH216352   0.599   0.584   1.877 -0.0696  0.5730 -0.0528
 5449TIP3    H116353   0.528   0.520   1.879  0.6501 -0.2339  0.1743
 5449TIP3    H216354   0.630   0.589   1.967  2.0283 -1.2569 -0.5835
 5450TIP3   OH216355   3.747   1.181   1.626 -0.2548 -0.8026  0.0527
 5450TIP3    H116356   3.832   1.221   1.608  0.0129 -1.9227 -1.2685
 5450TIP3    H216357   3.744   1.174   1.722  0.2586  1.0689  0.2586
 5451TIP3   OH216358   4.654   3.160   1.455 -0.2110  0.4601  0.2155
 5451TIP3    H116359   4.689   3.202   1.377  1.0259 -2.3189 -0.8521
 5451TIP3    H216360   4.562   3.187   1.457  0.5751  3.4633 -0.0919
 5452TIP3   OH216361   3.177   5.775   1.679  0.3956  0.4870  0.1770
 5452TIP3    H116362   3.198   5.852   1.732  2.0606  1.3978 -1.6697
 5452TIP3    H216363   3.251   5.767   1.618 -1.9458  0.4058 -2.9325
 5453TIP3   OH216364   2.520   5.232   4.319 -0.0687 -0.0333 -0.1280
 5453TIP3    H116365   2.472   5.156   4.351 -0.1725  0.2472  0.3952
 5453TIP3    H216366   2.589   5.247   4.384 -0.8593  1.1058  0.5057
 5454TIP3   OH216367   3.668   3.691   5.147  0.0166  0.1248 -0.0001
 5454TIP3    H116368   3.756   3.688   5.108 -0.3456 -0.5783 -0.7994
 5454TIP3    H216369   3.625   3.764   5.103  0.1037  0.2917  0.1893
 5455TIP3   OH216370   1.058   1.816   0.077 -0.4097  0.3908 -0.8481
 5455TIP3    H116371   1.012   1.826   0.160 -0.1313  0.0760 -0.6513
 5455TIP3    H216372   0.994   1.840   0.010 -1.0697 -0.6879 -0.6184
 5456TIP3   OH216373   5.199   3.856   3.133 -0.9652  0.1790  0.5473
 5456TIP3    H116374   5.293   3.840   3.138 -0.9444  0.0340 -0.1417
 5456TIP3    H216375   5.167   3.790   3.070 -1.4911  0.3637  0.6144
 5457TIP3   OH216376   1.279   5.290   1.963  0.2133  0.1335 -0.3141
 5457TIP3    H116377   1.245   5.217   1.912 -0.9755  1.5410 -1.6372
 5457TIP3    H216378   1.374   5.277   1.963  0.0226 -1.5198 -0.2773
 5458TIP3   OH216379   1.529   5.896   1.897  0.7105 -0.3462 -0.4872
 5458TIP3    H116380   1.542   5.923   1.806  1.2633  1.1483  0.0063
 5458TIP3    H216381   1.459   5.954   1.929  2.0985  0.7408  0.6767
 5459TIP3   OH216382   2.935   2.783   1.150  0.3327 -0.2603  0.5351
 5459TIP3    H116383   3.025   2.772   1.179  0.2904  0.3079  0.8928
 5459TIP3    H216384   2.887   2.711   1.193  0.3460  0.3257  1.5564
 5460TIP3   OH216385   2.192   1.738   2.645  0.4779 -0.1717  0.2939
 5460TIP3    H116386   2.243   1.761   2.722 -0.7782  1.0588  0.7952
 5460TIP3    H216387   2.184   1.820   2.596  0.5468 -0.7550 -0.7300
 5461TIP3   OH216388   2.926   1.870   3.190  0.1498  0.0426 -0.3061
 5461TIP3    H116389   2.868   1.820   3.133 -0.0356 -0.5260  0.3716
 5461TIP3    H216390   3.009   1.875   3.142  0.6010 -2.0710  0.1712
 5462TIP3   OH216391   5.617   1.762   0.636  0.5214 -0.0786  0.6871
 5462TIP3    H116392   5.602   1.721   0.722  1.1214 -0.4574  0.6174
 5462TIP3    H216393   5.676   1.701   0.591 -1.3571 -0.9267 -0.7693
 5463TIP3   OH216394   2.417   5.336   1.202 -0.2166 -0.0079 -0.0499
 5463TIP3    H116395   2.330   5.352   1.236 -0.1960  1.6958 -0.6989
 5463TIP3    H216396   2.472   5.402   1.243  0.4715 -0.1102 -0.7706
 5464TIP3   OH216397   6.174   5.660   3.326 -0.3833  0.2674 -0.1128
 5464TIP3    H116398   6.218   5.666   3.411  0.8718  0.0932 -0.7272
 5464TIP3    H216399   6.240   5.621   3.268 -0.7380  1.6530 -1.5004
 5465TIP3   OH216400   0.677   1.426   1.306 -0.2314  0.4839  0.4116
 5465TIP3    H116401   0.619   1.499   1.286  1.1403  1.0277 -1.8911
 5465TIP3    H216402   0.765   1.463   1.301  0.4579 -1.1108  0.2115
 5466TIP3   OH216403   3.867   1.176   2.703  0.7371 -0.4426  0.2189
 5466TIP3    H116404   3.910   1.229   2.770 -0.6314  0.3346  0.5454
 5466TIP3    H216405   3.878   1.086   2.733  2.5540 -0.3283 -0.0043
 5467TIP3   OH216406   3.403   1.864   1.583  0.3091  0.1234  0.3240
 5467TIP3    H116407   3.391   1.957   1.599 -1.0835  0.3331 -1.4971
 5467TIP3    H216408   3.496   1.848   1.596  0.6811  1.9108  0.0543
 5468TIP3   OH216409   2.955   1.757   0.759 -0.0116  0.3410 -0.0848
 5468TIP3    H116410   2.867   1.721   0.767 -0.4036  1.4526  0.9518
 5468TIP3    H216411   2.960   1.789   0.669 -1.0266  1.1280  0.1183
 5469TIP3   OH216412   2.000   2.464   0.734 -0.2463  0.1064  0.2898
 5469TIP3    H116413   2.038   2.446   0.820 -0.2922  0.8986  0.4864
 5469TIP3    H216414   1.906   2.452   0.747 -0.5924  2.8370  1.1170
 5470TIP3   OH216415   4.846   3.932   2.146  0.1755  0.7475  0.0865
 5470TIP3    H116416   4.916   3.996   2.150 -0.1727  1.1280  0.1387
 5470TIP3    H216417   4.776   3.975   2.097 -0.7874  1.1201  1.7243
 5471TIP3   OH216418   1.395   1.941   3.367 -0.4453 -0.0098 -0.2561
 5471TIP3    H116419   1.415   2.015   3.424 -1.1844  0.8936 -1.1325
 5471TIP3    H216420   1.381   1.868   3.427 -0.2140  0.6799  0.6580
 5472TIP3   OH216421   1.508   1.538   4.939  0.4154 -0.2030  0.2051
 5472TIP3    H116422   1.444   1.468   4.946 -0.4478  0.6193  0.6885
 5472TIP3    H216423   1.593   1.493   4.941 -0.1240 -1.2917 -0.3404
 5473TIP3   OH216424   0.830   3.058   4.736  0.6010  0.4376 -0.3306
 5473TIP3    H116425   0.808   2.975   4.776  0.9390  0.3062 -0.4115
 5473TIP3    H216426   0.766   3.120   4.771  0.3144  0.1317 -0.3185
 5474TIP3   OH216427   3.749   4.579   4.783  0.2588  0.5066 -0.1443
 5474TIP3    H116428   3.703   4.655   4.819  1.4292 -0.0797  2.9649
 5474TIP3    H216429   3.839   4.588   4.815  1.8531  0.4310 -4.1009
 5475TIP3   OH216430   0.181   0.692   3.854 -0.3150 -0.1889  0.5401
 5475TIP3    H116431   0.224   0.625   3.800 -1.0149  1.2785 -2.0022
 5475TIP3    H216432   0.136   0.748   3.791 -0.9849  1.8240  2.6790
 5476TIP3   OH216433   2.687   2.139   3.006 -0.3614  0.0101 -0.6237
 5476TIP3    H116434   2.597   2.115   2.982 -0.5937  1.5405 -1.3949
 5476TIP3    H216435   2.721   2.061   3.050 -2.1154 -0.5581 -0.1553
 5477TIP3   OH216436   5.793   0.640   2.691  0.3719 -0.0183  0.6437
 5477TIP3    H116437   5.733   0.620   2.763  0.0322 -1.0767  0.0901
 5477TIP3    H216438   5.880   0.619   2.724  0.1925 -0.7408  0.6741
 5478TIP3   OH216439   5.235   2.893   1.910  0.6034  0.0653  0.6768
 5478TIP3    H116440   5.221   2.838   1.833 -0.8460  1.3865 -0.0740
 5478TIP3    H216441   5.327   2.879   1.934  1.0357 -0.5546 -1.1704
 5479TIP3   OH216442   1.652   3.821   3.160 -0.0840  0.2955 -0.1730
 5479TIP3    H116443   1.716   3.752   3.175 -0.4876 -0.4443 -1.6458
 5479TIP3    H216444   1.625   3.849   3.247  1.9793  0.4046  0.4753
 5480TIP3   OH216445   2.856   5.824   3.083 -0.5451 -0.0876  0.2199
 5480TIP3    H116446   2.765   5.818   3.110 -0.8047 -2.1026 -0.8752
 5480TIP3    H216447   2.903   5.771   3.148 -0.4293 -0.5156 -0.2034
 5481TIP3   OH216448   2.392   0.395   0.258  0.8347  0.0718  0.0414
 5481TIP3    H116449   2.408   0.455   0.331 -1.5545  1.5104 -0.4807
 5481TIP3    H216450   2.381   0.309   0.299  0.5080  0.6786  1.2774
 5482TIP3   OH216451   2.730   0.468   0.424  0.4046 -0.3163 -0.5488
 5482TIP3    H116452   2.725   0.380   0.388 -0.5783 -0.2931 -0.4983
 5482TIP3    H216453   2.728   0.526   0.348 -4.0395 -0.1632 -0.5653
 5483TIP3   OH216454   4.650   5.018   2.102  0.7512  0.2255 -0.4871
 5483TIP3    H116455   4.668   4.925   2.117  2.9774  0.6290 -0.1938
 5483TIP3    H216456   4.595   5.044   2.176 -0.2050 -0.9223 -0.7668
 5484TIP3   OH216457   3.679   3.261   2.174 -0.6342  0.2719  0.3043
 5484TIP3    H116458   3.626   3.183   2.158  0.0233  0.2235 -2.0142
 5484TIP3    H216459   3.618   3.334   2.163 -0.8576  0.1306  0.6144
 5485TIP3   OH216460   5.078   0.289   3.928  0.2352  0.2620 -0.2771
 5485TIP3    H116461   5.007   0.236   3.893 -0.4624  0.8638  0.1929
 5485TIP3    H216462   5.130   0.228   3.980 -0.7791  0.1137  0.5863
 5486TIP3   OH216463   4.073   5.260   1.755 -0.3481 -0.1874 -0.7198
 5486TIP3    H116464   4.108   5.200   1.820  0.2601  1.4169  0.5111
 5486TIP3    H216465   3.986   5.225   1.734 -1.1607 -0.0605  2.0181
 5487TIP3   OH216466   3.694   2.289   0.728 -0.3431  0.5143 -0.2765
 5487TIP3    H116467   3.681   2.249   0.642 -2.0587 -2.9127  1.3497
 5487TIP3    H216468   3.778   2.255   0.758 -0.0817  1.1180 -0.3308
 5488TIP3   OH216469   2.380   2.427   1.100  0.2766  0.2465 -0.2298
 5488TIP3    H116470   2.346   2.497   1.156  2.3156  0.4945  0.7876
 5488TIP3    H216471   2.372   2.461   1.011 -0.9629  0.7687  0.0656
 5489TIP3   OH216472   3.445   3.646   4.867 -0.3199  0.2777 -0.3134
 5489TIP3    H116473   3.380   3.645   4.937  1.7652 -1.4368  1.7919
 5489TIP3    H216474   3.493   3.728   4.881  0.3055 -0.2165  0.5415
 5490TIP3   OH216475   4.386   1.024   4.483  0.2815  0.8316 -0.1882
 5490TIP3    H116476   4.467   1.030   4.433 -0.0576 -1.3503 -1.0848
 5490TIP3    H216477   4.414   1.014   4.573  1.0154  0.0551 -0.4967
 5491TIP3   OH216478   2.102   3.087   5.015  0.6376 -0.0657 -0.0144
 5491TIP3    H116479   2.050   3.153   4.969  1.3775 -0.5382 -1.5772
 5491TIP3    H216480   2.037   3.024   5.047  0.1948 -0.6342 -1.9203
 5492TIP3   OH216481   3.717   2.655   3.609 -0.2223  0.1418  0.5184
 5492TIP3    H116482   3.723   2.729   3.670  0.0531  0.0371  0.6218
 5492TIP3    H216483   3.718   2.695   3.523 -0.7942  0.3038  0.5824
 5493TIP3   OH216484   5.188   1.407   3.496 -0.0804 -0.1612  0.4346
 5493TIP3    H116485   5.263   1.369   3.542  1.4637  1.0114 -0.9625
 5493TIP3    H216486   5.196   1.374   3.407 -0.2215  1.3030 -0.1491
 5494TIP3   OH216487   4.891   4.414   4.161 -0.2322  0.0890 -0.6105
 5494TIP3    H116488   4.861   4.368   4.083 -0.3554 -0.9311  0.0108
 5494TIP3    H216489   4.840   4.495   4.164 -0.7242 -0.1964 -1.2055
 5495TIP3   OH216490   0.665   2.414   2.295  0.2462  0.1196  0.1077
 5495TIP3    H116491   0.737   2.352   2.290  0.1429  0.0474 -0.5748
 5495TIP3    H216492   0.587   2.360   2.305  0.1755  0.1464 -0.2941
 5496TIP3   OH216493   5.344   2.281   2.404  0.0817  0.4548  0.5725
 5496TIP3    H116494   5.325   2.375   2.392 -0.4619  0.5936  2.2621
 5496TIP3    H216495   5.383   2.276   2.491  2.6552 -0.5884 -0.5357
 5497TIP3   OH216496   0.689   5.619   4.464  0.0783 -0.1868 -0.0988
 5497TIP3    H116497   0.709   5.530   4.436 -0.0990 -0.0848 -0.5561
 5497TIP3    H216498   0.670   5.667   4.383  2.9131  0.9903 -0.1926
 5498TIP3   OH216499   0.649   2.312   0.858  0.4563 -0.1375 -0.0890
 5498TIP3    H116500   0.701   2.385   0.826  0.5502 -1.2765 -2.8182
 5498TIP3    H216501   0.710   2.238   0.860 -0.1739 -0.6537  0.3354
 5499TIP3   OH216502   0.315   0.674   0.546  0.6977  0.1987 -0.1402
 5499TIP3    H116503   0.302   0.599   0.489  0.1516 -0.2078  0.4988
 5499TIP3    H216504   0.294   0.750   0.492 -1.1678 -0.2545 -0.1181
 5500TIP3   OH216505   1.050   5.245   0.627  0.1580  0.1864  0.3190
 5500TIP3    H116506   1.027   5.329   0.667 -1.2001 -0.5585  1.1669
 5500TIP3    H216507   0.995   5.240   0.549 -2.0140 -1.1590  1.8254
 5501TIP3   OH216508   3.091   1.344   2.357 -0.7281 -0.1534  0.7777
 5501TIP3    H116509   3.006   1.340   2.312 -0.7609 -0.9980  0.8839
 5501TIP3    H216510   3.134   1.262   2.332  0.8613  1.0835 -0.7953
 5502TIP3   OH216511   4.129   1.064   4.383  0.3912  0.1210 -0.3962
 5502TIP3    H116512   4.201   1.016   4.425 -0.1832  0.1225  0.6312
 5502TIP3    H216513   4.116   1.141   4.439  0.0207  0.4583 -0.9418
 5503TIP3   OH216514   3.951   1.215   0.777 -0.4776  0.3697  0.5330
 5503TIP3    H116515   3.903   1.297   0.765 -1.5341 -0.4360 -1.0959
 5503TIP3    H216516   4.039   1.242   0.804 -1.3153  1.9414  1.8803
 5504TIP3   OH216517   2.925   3.134   3.340  0.0406  1.0229 -0.0456
 5504TIP3    H116518   2.860   3.171   3.399 -0.2334  0.6738 -0.1202
 5504TIP3    H216519   2.973   3.071   3.393 -0.3506  0.5492 -0.2425
 5505TIP3   OH216520   1.422   2.027   0.083  0.8479 -0.4618  0.2685
 5505TIP3    H116521   1.365   2.098   0.053 -0.1145 -1.4720 -0.3335
 5505TIP3    H216522   1.470   2.000   0.005  0.3388 -1.2622  0.2256
 5506TIP3   OH216523   0.685   0.946   2.815  0.2431  0.1649 -0.4153
 5506TIP3    H116524   0.703   1.040   2.813  1.1649  0.1658  2.7400
 5506TIP3    H216525   0.771   0.904   2.808  0.0084 -0.3820 -0.1535
 5507TIP3   OH216526   1.593   0.473   1.644 -0.5763 -0.2451  0.5620
 5507TIP3    H116527   1.612   0.564   1.621 -2.1698 -0.6589 -3.1878
 5507TIP3    H216528   1.505   0.476   1.681 -1.1133 -0.3399 -0.6735
 5508TIP3   OH216529   0.176   0.438   0.455 -0.0971  0.6511  0.1970
 5508TIP3    H116530   0.177   0.395   0.370  1.7918  0.2957  0.3600
 5508TIP3    H216531   0.158   0.368   0.517 -2.3350  1.0456  0.0874
 5509TIP3   OH216532   2.210   2.615   4.484 -0.5785  0.3430  0.2075
 5509TIP3    H116533   2.137   2.559   4.512 -0.8079  0.1870 -0.6673
 5509TIP3    H216534   2.270   2.556   4.439 -1.5307  0.9779 -2.0513
 5510TIP3   OH216535   1.888   3.878   0.795  0.0399 -0.3762  0.2620
 5510TIP3    H116536   1.953   3.937   0.834  1.0340  0.2402 -2.1315
 5510TIP3    H216537   1.804   3.917   0.817  0.5020 -0.3556  2.1575
 5511TIP3   OH216538   6.008   5.195   0.823 -0.2749  0.5931  0.1399
 5511TIP3    H116539   5.940   5.131   0.841  0.1397  0.0140 -0.3257
 5511TIP3    H216540   5.974   5.247   0.750  0.7956 -1.3154 -1.8216
 5512TIP3   OH216541   2.408   5.234  -0.008 -0.0971 -0.1961 -0.5600
 5512TIP3    H116542   2.393   5.275   0.077  1.2378 -1.2318  0.2146
 5512TIP3    H216543   2.322   5.199  -0.033 -1.1932  2.5513 -1.0438
 5513TIP3   OH216544   6.332   2.943   4.319 -0.2896  0.1574  0.1872
 5513TIP3    H116545   6.245   2.931   4.281  0.1249 -1.6978 -0.2857
 5513TIP3    H216546   6.331   3.032   4.354 -2.3735  0.1809  0.1991
 5514TIP3   OH216547   1.545   4.465   1.358 -0.4878 -0.3904  0.4752
 5514TIP3    H116548   1.512   4.411   1.285 -0.9996  0.2569  0.2162
 5514TIP3    H216549   1.596   4.533   1.315 -0.1398 -0.4625  0.7786
 5515TIP3   OH216550   5.045   5.084   4.061  0.0215 -0.2827 -0.2954
 5515TIP3    H116551   5.030   5.021   3.990  1.0943 -1.2012  0.2493
 5515TIP3    H216552   5.019   5.038   4.140 -0.4735  0.4743 -0.0074
 5516TIP3   OH216553   1.105   3.298   4.788  0.1396  0.4881  0.0884
 5516TIP3    H116554   1.141   3.340   4.866 -0.9253 -1.4851  1.7704
 5516TIP3    H216555   1.174   3.304   4.723  2.4680 -0.7145  2.2564
 5517TIP3   OH216556   2.778   2.956   2.137  0.0822  0.1370 -0.0760
 5517TIP3    H116557   2.702   2.947   2.080  0.2243  0.5722 -0.3363
 5517TIP3    H216558   2.816   2.868   2.140  0.6249  0.3105 -1.4255
 5518TIP3   OH216559   5.475   5.626   2.614  0.1624  0.2832  0.4318
 5518TIP3    H116560   5.444   5.669   2.694  1.8937 -0.6260  1.6818
 5518TIP3    H216561   5.455   5.533   2.628 -0.5027  0.2506 -0.6968
 5519TIP3   OH216562   5.301   3.415   4.312  0.9747  0.1315  0.2484
 5519TIP3    H116563   5.370   3.391   4.251 -0.4124  0.0180 -1.3623
 5519TIP3    H216564   5.243   3.472   4.261 -1.7787 -2.2133  0.5121
 5520TIP3   OH216565   3.475   1.939   3.721  0.5212  0.1766  0.1001
 5520TIP3    H116566   3.410   1.931   3.652 -1.5965  0.3843  1.9533
 5520TIP3    H216567   3.480   2.034   3.738  2.1532  0.2736 -0.7229
 5521TIP3   OH216568   5.366   0.322   3.523 -0.1311 -0.4284  0.0476
 5521TIP3    H116569   5.352   0.347   3.431 -1.2878  1.2482  0.6277
 5521TIP3    H216570   5.305   0.249   3.536  0.6171 -1.2121 -0.7077
 5522TIP3   OH216571   5.075   0.627   0.811 -0.2447  0.2303 -0.3096
 5522TIP3    H116572   5.163   0.630   0.848 -0.2873  0.2565 -0.2094
 5522TIP3    H216573   5.066   0.709   0.763 -0.4248  0.4934  0.1662
 5523TIP3   OH216574   3.184   2.325   4.709  0.2622 -0.5114  0.0812
 5523TIP3    H116575   3.250   2.309   4.641  2.1914  0.1487  1.7014
 5523TIP3    H216576   3.101   2.300   4.668  1.1594  0.9732 -2.9096
 5524TIP3   OH216577   5.525   4.757   1.201 -0.4634 -0.0953  0.0636
 5524TIP3    H116578   5.604   4.729   1.156  0.3487  2.4315 -0.2358
 5524TIP3    H216579   5.532   4.720   1.289  1.0856  0.1231  0.0568
 5525TIP3   OH216580   6.342   3.909   1.809  0.6485 -0.0090 -0.8219
 5525TIP3    H116581   6.380   3.989   1.845  0.3795 -0.2518  0.0457
 5525TIP3    H216582   6.247   3.925   1.811  0.5797 -0.4329 -0.4052
 5526TIP3   OH216583   4.431   2.768   2.054  0.8896  0.0473 -0.0551
 5526TIP3    H116584   4.455   2.769   1.961  0.9016 -1.5109 -0.1015
 5526TIP3    H216585   4.472   2.846   2.091 -0.3103  1.5013 -1.6220
 5527TIP3   OH216586   3.721   2.568   0.882 -0.4729 -0.3045  0.1289
 5527TIP3    H116587   3.729   2.481   0.843  2.6844 -0.0579 -0.0387
 5527TIP3    H216588   3.749   2.556   0.973 -0.4270  0.4556  0.2177
 5528TIP3   OH216589   2.855   2.088   4.344  0.0227  0.0414  0.4721
 5528TIP3    H116590   2.813   2.159   4.392 -0.1932  0.1540  0.1259
 5528TIP3    H216591   2.943   2.082   4.381  0.4265  1.2353 -0.2198
 5529TIP3   OH216592   4.819   0.589   2.714  0.4111 -0.3743  0.0122
 5529TIP3    H116593   4.823   0.664   2.655  4.0035  0.2028  0.7390
 5529TIP3    H216594   4.748   0.610   2.775  0.5336  1.8856 -0.5280
 5530TIP3   OH216595   1.067   2.278   0.224 -0.3213  0.2801  0.4805
 5530TIP3    H116596   0.980   2.296   0.260 -1.4995 -0.5012 -1.7721
 5530TIP3    H216597   1.110   2.363   0.222 -0.6570  0.5438  2.4549
 5531TIP3   OH216598   0.900   1.878   3.877  0.0452 -0.2072  0.5384
 5531TIP3    H116599   0.823   1.898   3.930  0.2167 -2.6297  1.8432
 5531TIP3    H216600   0.872   1.894   3.786 -1.4319  0.5467  1.0975
 5532TIP3   OH216601   2.556   5.513   4.208 -0.8114  0.5387  0.4280
 5532TIP3    H116602   2.642   5.548   4.229 -0.9275  1.4626 -0.5280
 5532TIP3    H216603   2.551   5.430   4.255  0.0208  1.1632  1.6702
 5533TIP3   OH216604   4.236   0.695   3.126  0.1241 -0.0792 -0.2735
 5533TIP3    H116605   4.287   0.771   3.156  0.6935 -0.6848  0.3152
 5533TIP3    H216606   4.263   0.624   3.184  0.0469 -0.8854 -1.2092
 5534TIP3   OH216607   4.460   2.533   0.399 -0.6631  0.3972 -0.2278
 5534TIP3    H116608   4.539   2.502   0.354 -0.0965  2.3139 -0.6645
 5534TIP3    H216609   4.484   2.620   0.431 -1.3835 -0.4535  2.9683
 5535TIP3   OH216610   3.860   1.433   1.791 -0.5184 -0.1132 -0.0447
 5535TIP3    H116611   3.844   1.350   1.837  0.1181 -0.1402  0.1406
 5535TIP3    H216612   3.774   1.459   1.758 -1.5348  1.1360  3.1908
 5536TIP3   OH216613   5.974   2.881   2.308 -0.0175 -0.3015 -0.2902
 5536TIP3    H116614   5.953   2.974   2.319 -1.2493 -0.6110  0.1058
 5536TIP3    H216615   5.976   2.867   2.213  2.0982  0.5129 -0.4382
 5537TIP3   OH216616   1.178   3.833   4.174  0.1179  0.0945  0.6274
 5537TIP3    H116617   1.236   3.771   4.217 -2.5946 -2.5725  0.8314
 5537TIP3    H216618   1.159   3.898   4.241  0.4321 -0.7804  1.6014
 5538TIP3   OH216619   3.379   4.047   4.527  0.4887  0.3970  0.3423
 5538TIP3    H116620   3.445   3.989   4.565  1.1970  2.0483  1.8190
 5538TIP3    H216621   3.297   4.021   4.567  0.8907  0.7269  1.4153
 5539TIP3   OH216622   5.976   1.536   5.132 -0.0313 -0.4869 -0.9711
 5539TIP3    H116623   6.057   1.583   5.116 -1.2200  1.4136 -1.7821
 5539TIP3    H216624   5.950   1.502   5.047  0.1227 -1.4754 -0.6357
 5540TIP3   OH216625   4.602   1.484   5.010  0.4604  0.0425  0.1492
 5540TIP3    H116626   4.545   1.539   4.956  1.3174  2.2303  1.3442
 5540TIP3    H216627   4.563   1.488   5.098 -0.2157 -2.4459  0.0305
 5541TIP3   OH216628   1.333   0.612   0.108  0.9532  0.0121  0.9284
 5541TIP3    H116629   1.344   0.619   0.203  2.3561  0.6792  0.7623
 5541TIP3    H216630   1.420   0.635   0.074  1.5114 -3.5756 -0.4223
 5542TIP3   OH216631   1.093   4.161   4.253 -0.3308  0.3209 -0.8196
 5542TIP3    H116632   1.180   4.182   4.285  0.1740 -0.8707 -1.3414
 5542TIP3    H216633   1.061   4.093   4.312 -1.3613  1.4844  0.0082
 5543TIP3   OH216634   0.840   4.733   4.916 -0.9710  0.3783 -0.4313
 5543TIP3    H116635   0.898   4.656   4.917 -0.8869  0.3711 -2.1598
 5543TIP3    H216636   0.780   4.719   4.989  0.3493 -0.2868  0.5635
 5544TIP3   OH216637   5.199   3.591   1.628  0.0218  0.2867  0.1856
 5544TIP3    H116638   5.250   3.672   1.640 -0.2646  0.3636  0.9665
 5544TIP3    H216639   5.130   3.615   1.567  0.5323  0.3581 -0.3712
 5545TIP3   OH216640   1.479   1.527  -0.011  0.6755  0.4491  0.1678
 5545TIP3    H116641   1.538   1.472   0.041 -0.5571 -0.3144  0.8247
 5545TIP3    H216642   1.433   1.581   0.054  1.3222  1.7236 -0.4139
 5546TIP3   OH216643   1.479   2.587   2.930  0.1003 -0.5128  0.1969
 5546TIP3    H116644   1.405   2.594   2.869  0.2098 -0.8992  0.0184
 5546TIP3    H216645   1.461   2.653   2.997  0.8084  1.1427 -1.1333
 5547TIP3   OH216646   6.239   4.016   3.548 -0.1600  0.8082 -0.0597
 5547TIP3    H116647   6.223   4.107   3.523 -1.1003  1.0729  1.3820
 5547TIP3    H216648   6.188   4.003   3.628 -0.3442 -1.1108 -0.4321
 5548TIP3   OH216649   3.432   1.447   3.805  0.2015 -0.1660  0.2547
 5548TIP3    H116650   3.340   1.435   3.785  0.6919 -1.9711 -1.1631
 5548TIP3    H216651   3.435   1.526   3.860 -2.0128  0.7911 -0.8885
 5549TIP3   OH216652   2.290   2.761   0.341 -0.1574 -0.9520  0.2198
 5549TIP3    H116653   2.233   2.747   0.416 -0.5050  1.0079  0.3802
 5549TIP3    H216654   2.232   2.753   0.265 -0.9853  2.0177  0.4179
 5550TIP3   OH216655   5.499   1.758   4.226 -0.1988  0.6017  0.0298
 5550TIP3    H116656   5.587   1.748   4.262  0.7519  2.0060 -1.6975
 5550TIP3    H216657   5.514   1.801   4.141 -2.4488 -0.4401 -0.9544
 5551TIP3   OH216658   6.203   1.860   0.293  0.1387 -0.0125  0.0596
 5551TIP3    H116659   6.299   1.859   0.299  0.1020 -0.8919  0.9067
 5551TIP3    H216660   6.183   1.930   0.231  1.3312  0.1479 -0.1707
 5552TIP3   OH216661   3.951   0.837   4.137  0.2973  0.6865 -0.1611
 5552TIP3    H116662   3.912   0.871   4.218 -1.2063 -0.4043 -0.3995
 5552TIP3    H216663   4.037   0.804   4.164 -0.1462  0.4130  0.9783
 5553TIP3   OH216664   1.084   2.993   4.809  0.2046 -0.0362  0.2801
 5553TIP3    H116665   1.008   2.956   4.764 -1.4446  1.0011  2.0558
 5553TIP3    H216666   1.074   3.088   4.799  0.4304  0.1742  1.7769
 5554TIP3   OH216667   3.080   4.936   0.419  0.7065  0.0809 -0.0697
 5554TIP3    H116668   3.082   5.011   0.479  0.6319 -0.2924  0.4150
 5554TIP3    H216669   3.047   4.972   0.337  0.6022  0.5663  0.1769
 5555TIP3   OH216670   6.301   2.216   3.723  0.3342 -0.5482 -0.2178
 5555TIP3    H116671   6.278   2.266   3.800 -1.2886 -2.3086  0.5102
 5555TIP3    H216672   6.396   2.226   3.716  0.3213  0.8805  1.0805
 5556TIP3   OH216673   6.359   1.355   5.159  0.2288 -0.1347 -0.0744
 5556TIP3    H116674   6.360   1.267   5.197  0.3690  0.6698  1.9198
 5556TIP3    H216675   6.269   1.368   5.129  0.7870 -1.8589 -2.7912
 5557TIP3   OH216676   0.195  -0.029   0.224  0.1628 -0.1265 -0.2815
 5557TIP3    H116677   0.281  -0.006   0.188 -0.1749 -0.5345 -1.4136
 5557TIP3    H216678   0.150   0.055   0.236  0.2562  0.0203 -0.9179
 5558TIP3   OH216679   2.931   0.570   1.557  0.1196 -0.1272  0.3921
 5558TIP3    H116680   2.914   0.487   1.513  2.0068 -0.9040  1.0302
 5558TIP3    H216681   2.973   0.546   1.639 -0.8066  1.4149  1.3707
 5559TIP3   OH216682   5.486   4.593   4.790  0.1502  0.4992  0.3729
 5559TIP3    H116683   5.501   4.621   4.699 -1.2091  0.0189 -0.0153
 5559TIP3    H216684   5.453   4.672   4.833 -0.1564  0.4630  0.2039
 5560TIP3   OH216685   1.666   3.014   0.966 -0.3403  0.4682  0.5984
 5560TIP3    H116686   1.704   3.096   0.933 -0.4215  0.4886  0.5554
 5560TIP3    H216687   1.729   2.947   0.942 -1.7498  0.0370 -2.2599
 5561TIP3   OH216688   4.041   0.368   4.914 -0.1052  0.0807 -0.2222
 5561TIP3    H116689   3.978   0.416   4.860  2.2930  1.2204 -2.2262
 5561TIP3    H216690   4.105   0.333   4.852  1.3186 -0.8978  1.6736
 5562TIP3   OH216691   0.599   1.977   4.952  0.4537  0.4362  0.4048
 5562TIP3    H116692   0.673   2.038   4.956  0.8896 -0.0481 -0.1644
 5562TIP3    H216693   0.623   1.915   4.883 -0.6547  0.4923 -0.0415
 5563TIP3   OH216694   4.900   1.495   3.145 -0.1641  0.4126 -0.3531
 5563TIP3    H116695   4.991   1.481   3.120 -0.3718 -1.9174 -0.0835
 5563TIP3    H216696   4.897   1.473   3.238 -0.9152  0.8831 -0.2583
 5564TIP3   OH216697   1.759   4.856   5.116 -0.9040 -0.2636 -0.3947
 5564TIP3    H116698   1.710   4.922   5.068 -3.4196 -1.3398  0.5115
 5564TIP3    H216699   1.747   4.880   5.208  0.3886 -0.5377 -0.1297
 5565TIP3   OH216700   0.528   4.787   3.720  0.3512 -0.5233 -0.2737
 5565TIP3    H116701   0.519   4.869   3.672  2.2705  0.0659  0.2463
 5565TIP3    H216702   0.524   4.813   3.812 -0.9626 -1.3073 -0.0910
 5566TIP3   OH216703   0.244   2.213   4.038 -0.5259  0.4191 -0.1086
 5566TIP3    H116704   0.292   2.248   4.113 -0.8617 -0.5999  0.6070
 5566TIP3    H216705   0.178   2.155   4.077 -0.8015 -0.0160 -1.1846
 5567TIP3   OH216706   2.252   0.605   1.187  0.0471  0.5376 -0.3819
 5567TIP3    H116707   2.184   0.664   1.219 -3.0637 -1.3840 -2.8544
 5567TIP3    H216708   2.235   0.522   1.230 -1.0217 -0.6984 -2.9894
 5568TIP3   OH216709   0.034   1.683   0.906 -0.0963  0.7810 -0.1700
 5568TIP3    H116710  -0.019   1.604   0.896 -0.9642  1.1841  1.0538
 5568TIP3    H216711   0.079   1.671   0.990 -1.1927  2.1086  0.6389
 5569TIP3   OH216712   5.003   3.959   1.270 -0.0031  0.1286 -0.6341
 5569TIP3    H116713   5.093   3.991   1.270  0.7953 -1.9554 -0.4005
 5569TIP3    H216714   4.966   3.992   1.188  1.5868 -0.5452 -1.6568
 5570TIP3   OH216715   6.254   3.631   1.383 -0.2273 -0.1138  0.0242
 5570TIP3    H116716   6.239   3.614   1.476  1.9303 -0.0371  0.4475
 5570TIP3    H216717   6.338   3.589   1.365 -0.9664 -0.7905 -2.1065
 5571TIP3   OH216718   6.254   4.007   2.635  0.0179 -0.1518 -0.7910
 5571TIP3    H116719   6.198   3.993   2.711 -0.6564 -0.1969 -1.2941
 5571TIP3    H216720   6.330   3.950   2.651  0.7345  1.1120  0.6895
 5572TIP3   OH216721   0.878   0.336   2.483 -0.7505 -0.7453 -0.0631
 5572TIP3    H116722   0.856   0.353   2.392 -0.2016 -1.7244 -0.3925
 5572TIP3    H216723   0.967   0.370   2.493  0.3304 -3.2000 -0.7092
 5573TIP3   OH216724   3.651   5.905   3.935  0.8813 -0.3246 -0.1998
 5573TIP3    H116725   3.686   5.986   3.974 -1.0846  0.6491 -0.3233
 5573TIP3    H216726   3.704   5.835   3.972  1.0821  0.8302  1.8326
 5574TIP3   OH216727   3.156   1.555   4.450 -0.2796  0.0947  0.8088
 5574TIP3    H116728   3.139   1.571   4.357 -2.7019  2.0341  1.4891
 5574TIP3    H216729   3.191   1.466   4.453  0.7000  0.2844 -2.0153
 5575TIP3   OH216730   0.579   5.672   3.757 -0.1751 -0.2148  0.1247
 5575TIP3    H116731   0.609   5.629   3.677  1.5925 -2.9598  2.0830
 5575TIP3    H216732   0.660   5.700   3.801 -1.1154  1.5225  0.8350
 5576TIP3   OH216733   1.624   5.388   2.300 -0.2741  0.0702  0.4837
 5576TIP3    H116734   1.581   5.468   2.271 -0.9364 -0.2637  0.5455
 5576TIP3    H216735   1.556   5.321   2.297  0.1407 -0.3819  0.9407
 5577TIP3   OH216736   2.512   1.419   4.112  0.0740  0.3106 -0.2677
 5577TIP3    H116737   2.542   1.332   4.087 -1.0786  0.3241 -1.8688
 5577TIP3    H216738   2.589   1.475   4.101  0.6446 -0.3864  0.1128
 5578TIP3   OH216739   4.653   3.418   2.071 -0.1033  0.1755 -0.3152
 5578TIP3    H116740   4.621   3.362   2.142  0.8614 -0.7483 -0.5779
 5578TIP3    H216741   4.708   3.483   2.115 -0.0123 -0.0165 -0.1390
 5579TIP3   OH216742   3.463   1.832   3.064  0.3795  0.0825 -0.8138
 5579TIP3    H116743   3.374   1.814   3.033  0.0425 -0.3708  0.3677
 5579TIP3    H216744   3.514   1.757   3.035 -0.1438 -0.8282  0.5471
 5580TIP3   OH216745   5.878   2.626   2.438 -0.3689  0.1678 -0.0758
 5580TIP3    H116746   5.917   2.542   2.463  0.1299 -0.2489 -2.0832
 5580TIP3    H216747   5.951   2.688   2.443  0.2319 -0.2853 -2.1782
 5581TIP3   OH216748   2.254   4.118   4.099 -0.3705 -0.3295 -0.1112
 5581TIP3    H116749   2.274   4.209   4.077  0.6224 -0.4063  0.4570
 5581TIP3    H216750   2.158   4.112   4.091 -0.5526  1.0358  0.8973
 5582TIP3   OH216751   1.862   1.616   3.355  0.0115 -0.6196  0.6792
 5582TIP3    H116752   1.804   1.564   3.298  2.9303 -3.8427  0.3003
 5582TIP3    H216753   1.825   1.603   3.443 -1.2485 -0.4639  0.2024
 5583TIP3   OH216754   5.706   0.658   4.140 -0.4993  0.2635  0.0613
 5583TIP3    H116755   5.709   0.749   4.167 -0.0882 -0.1134  1.3780
 5583TIP3    H216756   5.639   0.618   4.196 -1.5636 -0.0196 -1.3297
 5584TIP3   OH216757   0.249   5.754   3.156 -0.2639 -0.6781  0.4618
 5584TIP3    H116758   0.331   5.716   3.189 -0.9645 -2.3620  0.3642
 5584TIP3    H216759   0.185   5.683   3.165 -1.4691  0.2630 -0.4623
 5585TIP3   OH216760   5.730   3.960   1.776 -0.1174 -0.2749  0.2993
 5585TIP3    H116761   5.664   3.896   1.803 -1.1778  0.7950  0.3686
 5585TIP3    H216762   5.708   4.039   1.826 -0.2952  0.8547 -1.4783
 5586TIP3   OH216763   0.068   1.295   3.669  0.4161  0.7264 -0.5071
 5586TIP3    H116764   0.041   1.381   3.638 -2.2916  0.2127  0.1989
 5586TIP3    H216765   0.002   1.270   3.733  0.7563 -2.1361 -1.1226
 5587TIP3   OH216766   4.500   5.484   0.652  0.0398  0.0494 -0.4418
 5587TIP3    H116767   4.470   5.459   0.565  0.2150  0.3183 -0.5816
 5587TIP3    H216768   4.428   5.536   0.689 -0.9163 -1.7550  0.3862
 5588TIP3   OH216769   5.313   5.121   4.314 -0.3192  0.5462 -0.6530
 5588TIP3    H116770   5.393   5.091   4.270 -1.2742 -2.0164 -0.7822
 5588TIP3    H216771   5.325   5.097   4.406 -1.0777 -0.2228 -0.7425
 5589TIP3   OH216772   1.693   4.868   2.381  0.2556 -0.2466 -0.2593
 5589TIP3    H116773   1.618   4.918   2.415  0.2791  0.4248 -1.1562
 5589TIP3    H216774   1.653   4.794   2.334  0.2337 -1.7923  2.0237
 5590TIP3   OH216775   6.133   4.430   2.548  0.3948 -0.3772  0.2995
 5590TIP3    H116776   6.088   4.443   2.464  0.7138  2.3093  0.4366
 5590TIP3    H216777   6.068   4.388   2.604 -0.4840 -0.4239 -0.7263
 5591TIP3   OH216778   1.597   1.783   3.203 -0.2469  0.8367  0.2809
 5591TIP3    H116779   1.672   1.826   3.162  1.3694  0.0721  2.2500
 5591TIP3    H216780   1.559   1.851   3.259  0.9745  0.4176  1.7041
 5592TIP3   OH216781   1.695   2.567   5.181  0.2297  0.0991 -0.1033
 5592TIP3    H116782   1.727   2.502   5.119  0.2062 -0.1125  0.1072
 5592TIP3    H216783   1.692   2.649   5.130 -0.0705 -0.1324 -0.4611
 5593TIP3   OH216784   2.592   0.717   3.514  0.1863 -0.1768  0.0051
 5593TIP3    H116785   2.539   0.735   3.592  0.7181  0.3398  0.2521
 5593TIP3    H216786   2.666   0.666   3.546 -0.5897 -1.6636 -0.4793
 5594TIP3   OH216787   5.505   5.722   3.777  0.3360 -0.1184 -0.6163
 5594TIP3    H116788   5.600   5.717   3.791  0.2380  0.8589  0.5886
 5594TIP3    H216789   5.482   5.636   3.743  1.4402 -0.9466  0.6001
 5595TIP3   OH216790   2.863   1.225   4.282 -0.3072  0.2715 -0.3227
 5595TIP3    H116791   2.864   1.185   4.369 -0.1961  1.2627  0.1486
 5595TIP3    H216792   2.950   1.210   4.247 -0.1062  0.5313  0.0592
 5596TIP3   OH216793   2.945   0.109   2.152  0.0023  0.0332  0.8947
 5596TIP3    H116794   2.862   0.122   2.198 -1.5901  2.4345 -2.2839
 5596TIP3    H216795   3.006   0.167   2.198 -0.2923 -0.9317  2.5941
 5597TIP3   OH216796   5.095   3.734   0.214 -0.2815  0.0386 -0.5850
 5597TIP3    H116797   5.023   3.675   0.195 -1.3710  1.0662  0.2365
 5597TIP3    H216798   5.054   3.820   0.225  0.8558  0.3657  1.4776
 5598TIP3   OH216799   5.608   4.137   3.026  0.3290  0.4433  0.1229
 5598TIP3    H116800   5.645   4.049   3.019 -1.3375 -0.4173  1.3535
 5598TIP3    H216801   5.681   4.192   3.052  1.5994 -0.3820 -1.5391
 5599TIP3   OH216802   0.061   4.191   0.308 -0.0611  0.6471 -0.7846
 5599TIP3    H116803   0.067   4.221   0.399 -0.6520 -1.7864  0.1200
 5599TIP3    H216804   0.143   4.219   0.268  0.7953  0.6105  0.8676
 5600TIP3   OH216805   3.168   4.668   0.404  0.0410  0.3281  0.2284
 5600TIP3    H116806   3.112   4.619   0.463  0.2238 -1.0018 -0.6543
 5600TIP3    H216807   3.141   4.759   0.415 -1.9987 -0.2099  0.1610
 5601TIP3   OH216808   3.324   5.228   2.379  0.3302 -0.0102  0.3712
 5601TIP3    H116809   3.315   5.225   2.284 -1.6719 -1.5094  0.5375
 5601TIP3    H216810   3.265   5.298   2.407  1.6129  1.0642  0.4949
 5602TIP3   OH216811   3.484   1.095   4.517 -0.0088 -0.2235  0.1652
 5602TIP3    H116812   3.393   1.076   4.542 -0.4344 -1.5836 -2.1081
 5602TIP3    H216813   3.535   1.074   4.595 -1.5283 -0.6804  1.0860
 5603TIP3   OH216814   2.304   4.917   4.689 -0.2936 -0.1297 -0.2864
 5603TIP3    H116815   2.379   4.864   4.715 -0.1478  0.5110  0.6840
 5603TIP3    H216816   2.227   4.865   4.714 -0.1600 -0.2182 -0.0594
 5604TIP3   OH216817   2.291   1.315   3.978  0.2502  0.2448  0.4743
 5604TIP3    H116818   2.370   1.360   4.010  1.0709 -1.4176  0.9124
 5604TIP3    H216819   2.218   1.365   4.014  1.0668  2.0949 -0.2969
 5605TIP3   OH216820   3.351   3.489   3.708  0.0938  0.2009  0.0187
 5605TIP3    H116821   3.331   3.496   3.614  1.6740 -0.5115 -0.4073
 5605TIP3    H216822   3.445   3.503   3.713 -0.3095  2.8802  1.8472
 5606TIP3   OH216823   5.789   4.379   0.644  0.1280 -0.0565  0.1297
 5606TIP3    H116824   5.820   4.387   0.735 -1.9683  2.2056  0.7632
 5606TIP3    H216825   5.753   4.291   0.639  0.5808 -0.3456  1.3996
 5607TIP3   OH216826   2.453   4.185   2.201 -0.4277 -0.0606 -0.3360
 5607TIP3    H116827   2.428   4.121   2.134 -0.8978  1.2001 -1.4009
 5607TIP3    H216828   2.540   4.214   2.174  0.6257 -1.5904  1.2040
 5608TIP3   OH216829   2.801   2.735   5.182  0.4780 -0.4939  0.2689
 5608TIP3    H116830   2.744   2.763   5.110 -0.7531  1.1628  1.7826
 5608TIP3    H216831   2.890   2.743   5.148 -0.0757  0.4327 -1.0107
 5609TIP3   OH216832   2.714   2.046   1.115  0.2326  0.4298  0.1844
 5609TIP3    H116833   2.657   1.981   1.074  0.5490  0.1135  0.2427
 5609TIP3    H216834   2.797   2.039   1.067 -0.0559  1.5383 -0.5356
 5610TIP3   OH216835   4.885   1.847   4.480  0.3762  0.1565 -0.6765
 5610TIP3    H116836   4.918   1.804   4.400 -1.1332 -1.7798 -0.3435
 5610TIP3    H216837   4.962   1.852   4.537  0.6484 -2.2922 -0.7043
 5611TIP3   OH216838   3.005   3.921   0.537 -0.2412  0.1122  0.9275
 5611TIP3    H116839   3.061   3.885   0.607  1.2870 -0.7145 -0.6474
 5611TIP3    H216840   2.932   3.860   0.531  0.8205 -1.1563  0.2824
 5612TIP3   OH216841   4.778   1.870   5.069 -0.0142  0.0399  0.4166
 5612TIP3    H116842   4.805   1.795   5.016  0.5667 -0.2675  1.1276
 5612TIP3    H216843   4.754   1.937   5.005 -0.3883 -0.6868 -0.2315
 5613TIP3   OH216844   3.208   4.010   3.213 -0.4334  0.1787 -0.1316
 5613TIP3    H116845   3.289   4.017   3.264 -1.3305  1.4809  1.1762
 5613TIP3    H216846   3.238   3.995   3.123  1.3329  2.5128 -0.0190
 5614TIP3   OH216847   4.608   3.376   1.253  0.3376 -0.3388 -0.0105
 5614TIP3    H116848   4.701   3.392   1.237  1.3198 -1.5299  3.5004
 5614TIP3    H216849   4.586   3.432   1.328 -1.2208 -1.4460  0.4225
 5615TIP3   OH216850   6.315   3.764   4.094 -0.0995  0.2061 -0.1329
 5615TIP3    H116851   6.264   3.683   4.095  0.3133 -0.0609  1.6931
 5615TIP3    H216852   6.406   3.736   4.082  0.3690  0.1202  2.9153
 5616TIP3   OH216853   4.824   4.127   3.380  0.0960 -0.0264 -0.0941
 5616TIP3    H116854   4.898   4.151   3.436  1.4033  0.7962 -2.0742
 5616TIP3    H216855   4.803   4.207   3.332 -0.9516 -0.7204 -0.8448
 5617TIP3   OH216856   5.005   2.948   1.567  0.1948 -0.1889 -0.0033
 5617TIP3    H116857   5.023   3.000   1.646 -1.0816  0.0857  0.1283
 5617TIP3    H216858   5.085   2.956   1.515  0.5475  0.7609  0.6453
 5618TIP3   OH216859   0.244   5.749   4.738 -0.4985 -0.1082 -0.3199
 5618TIP3    H116860   0.323   5.760   4.685 -0.3288  0.5974  0.0693
 5618TIP3    H216861   0.274   5.757   4.828 -1.2403  1.9077 -0.1911
 5619TIP3   OH216862   0.142   3.115   2.164  0.7382  0.1201 -0.1565
 5619TIP3    H116863   0.142   3.032   2.115  0.8172 -0.1996  0.3821
 5619TIP3    H216864   0.209   3.168   2.120 -0.3805  0.4956 -1.4826
 5620TIP3   OH216865   0.297   5.597   3.999 -0.3161 -0.2219 -0.8547
 5620TIP3    H116866   0.270   5.671   4.053  0.8412 -0.6785  0.4018
 5620TIP3    H216867   0.242   5.604   3.920 -4.0527 -1.0267  1.4070
 5621TIP3   OH216868   2.324   1.377   2.176 -0.3193 -0.0861  0.7243
 5621TIP3    H116869   2.411   1.410   2.195 -1.1215  1.7552  1.4483
 5621TIP3    H216870   2.325   1.358   2.082  0.2146  2.1018  0.2250
 5622TIP3   OH216871   2.661   3.691   3.579 -0.0190 -0.0364  0.1526
 5622TIP3    H116872   2.661   3.766   3.519 -0.6939  0.0015  0.1912
 5622TIP3    H216873   2.729   3.712   3.643  0.4457  0.1003 -0.3705
 5623TIP3   OH216874   2.350   0.044   3.805 -0.8657 -0.1565 -0.3459
 5623TIP3    H116875   2.416  -0.001   3.753 -2.3198 -1.4675 -1.1287
 5623TIP3    H216876   2.277   0.057   3.745 -1.2960  1.4267  0.4470
 5624TIP3   OH216877   1.946   4.914   0.129  0.2073  0.0940 -0.2765
 5624TIP3    H116878   1.881   4.963   0.181 -1.8359 -1.7139 -0.9824
 5624TIP3    H216879   2.005   4.877   0.195 -0.5113  0.3541  0.5464
 5625TIP3   OH216880   4.659   0.764   1.979  0.2059  0.0891  0.3051
 5625TIP3    H116881   4.727   0.830   1.966  0.3836 -0.1828 -0.1503
 5625TIP3    H216882   4.610   0.795   2.056 -1.8748  2.5893 -1.8374
 5626TIP3   OH216883   2.007   5.785   1.774  0.3896 -0.0713  0.1780
 5626TIP3    H116884   2.038   5.714   1.718  0.4949  1.1755 -1.4127
 5626TIP3    H216885   1.927   5.751   1.815  0.4657 -1.1136 -0.5167
 5627TIP3   OH216886   3.930   0.631   1.558  0.4648  0.0280 -0.0392
 5627TIP3    H116887   3.857   0.641   1.619 -0.1182 -1.3187 -0.4984
 5627TIP3    H216888   3.998   0.689   1.593 -0.0419 -0.3310  1.5992
 5628TIP3   OH216889   0.207   5.590   0.849 -0.2339  0.4428  0.0726
 5628TIP3    H116890   0.138   5.656   0.839  0.9308  1.6261 -0.4718
 5628TIP3    H216891   0.206   5.541   0.766 -2.1446 -1.3400  1.0600
 5629TIP3   OH216892   3.362   4.030   2.003 -0.4021  0.4707 -0.1944
 5629TIP3    H116893   3.413   3.951   2.024 -0.2299  0.9413  1.3108
 5629TIP3    H216894   3.379   4.046   1.910  0.5720 -0.5479 -0.2161
 5630TIP3   OH216895   4.269   1.267   2.618  0.3685  0.2374 -0.4966
 5630TIP3    H116896   4.189   1.319   2.611  0.7139  0.7241 -0.8565
 5630TIP3    H216897   4.261   1.222   2.702 -1.0319 -0.9769 -1.2155
 5631TIP3   OH216898   3.044   4.092   2.939 -0.4487 -0.2664 -0.0111
 5631TIP3    H116899   3.002   4.060   3.019 -0.4131 -1.8727 -0.5915
 5631TIP3    H216900   3.137   4.077   2.954 -0.4751 -0.9570 -0.4953
 5632TIP3   OH216901   6.108   4.190   1.235 -0.5977 -0.5506 -0.1944
 5632TIP3    H116902   6.198   4.161   1.221  0.0311  0.3113  1.7700
 5632TIP3    H216903   6.060   4.110   1.254 -0.5647 -1.1748 -2.3930
 5633TIP3   OH216904   4.440   1.178   3.960  0.3661 -0.5963  0.1124
 5633TIP3    H116905   4.462   1.168   3.867  1.5767 -0.6377  0.3866
 5633TIP3    H216906   4.437   1.088   3.994 -1.1185 -0.6515 -0.0898
 5634TIP3   OH216907   4.454   4.736   4.697  0.0168  0.8355 -0.1580
 5634TIP3    H116908   4.434   4.643   4.686  2.0890  0.2672  0.4581
 5634TIP3    H216909   4.462   4.770   4.608 -4.1679  1.3482 -0.5423
 5635TIP3   OH216910   5.142   3.715   2.190  0.2836 -0.1509  0.1845
 5635TIP3    H116911   5.182   3.692   2.106  1.8061 -0.2274  0.9082
 5635TIP3    H216912   5.146   3.811   2.193  0.8045 -0.1816  0.4466
 5636TIP3   OH216913   0.978   4.753   0.297  0.1881 -0.5009 -0.2641
 5636TIP3    H116914   0.904   4.734   0.239 -1.1192 -0.4933  1.3137
 5636TIP3    H216915   1.017   4.833   0.260 -1.3345  0.1822 -0.4827
 5637TIP3   OH216916   0.388   4.655   4.026 -0.4693 -0.3115 -0.0105
 5637TIP3    H116917   0.430   4.737   3.998  1.3403 -1.9137 -2.4050
 5637TIP3    H216918   0.457   4.608   4.072 -0.8150 -1.3485 -0.5274
 5638TIP3   OH216919   4.747   1.363   4.338  0.1161 -0.1745  0.3774
 5638TIP3    H116920   4.719   1.441   4.386  0.6981  0.7074 -0.6702
 5638TIP3    H216921   4.693   1.362   4.259  1.2067  0.0893 -0.3953
 5639TIP3   OH216922   5.234   2.163   3.085  0.5346  0.6380  0.3530
 5639TIP3    H116923   5.270   2.251   3.075  1.1055  0.4123  0.3603
 5639TIP3    H216924   5.140   2.175   3.089  0.4639  1.0848 -1.6525
 5640TIP3   OH216925   1.494   2.801   1.264 -0.3768  0.0961 -0.2423
 5640TIP3    H116926   1.583   2.816   1.296 -0.1940 -0.5674 -0.4193
 5640TIP3    H216927   1.480   2.706   1.274 -0.5975 -0.0136 -1.3801
 5641TIP3   OH216928   4.587   3.711   0.821  0.2511 -0.1807 -0.3166
 5641TIP3    H116929   4.647   3.676   0.754 -0.0327 -1.4393  0.0537
 5641TIP3    H216930   4.632   3.695   0.904  0.3278  0.8168 -0.1555
 5642TIP3   OH216931   3.403   2.839   2.310  0.2107  0.2806 -0.3241
 5642TIP3    H116932   3.382   2.750   2.280  0.5821 -0.2996  1.0771
 5642TIP3    H216933   3.498   2.839   2.320  0.4784  1.4942 -2.2507
 5643TIP3   OH216934   5.399   2.922   2.712 -0.3413 -0.0578 -0.3185
 5643TIP3    H116935   5.459   2.875   2.654  1.0607  0.0573  0.9795
 5643TIP3    H216936   5.451   2.995   2.746 -1.1389 -0.0666  0.9955
 5644TIP3   OH216937   1.403   4.647   4.816  0.1389  0.4809 -0.8981
 5644TIP3    H116938   1.435   4.730   4.851  0.9531 -0.6935  1.3606
 5644TIP3    H216939   1.311   4.644   4.843  0.7017 -0.3158  1.1379
 5645TIP3   OH216940   4.602   0.446   1.072  0.5238  0.4230  0.1480
 5645TIP3    H116941   4.633   0.448   1.162  0.2731  1.3125  0.2183
 5645TIP3    H216942   4.658   0.381   1.029 -1.0089 -2.0066  1.5340
 5646TIP3   OH216943   5.491   2.472   1.348  0.0956  0.0926  0.5500
 5646TIP3    H116944   5.465   2.508   1.433 -0.3543  0.2932  0.3315
 5646TIP3    H216945   5.433   2.398   1.334  1.4741 -1.1841  1.3135
 5647TIP3   OH216946   3.199   1.329   3.103 -0.6165 -0.0904 -0.7325
 5647TIP3    H116947   3.235   1.295   3.185 -1.1985  0.5696 -0.1907
 5647TIP3    H216948   3.151   1.255   3.065  0.3830 -0.6607 -0.9336
 5648TIP3   OH216949   0.636   1.888   3.376  0.5108 -0.2117  0.5647
 5648TIP3    H116950   0.644   1.964   3.318  1.4013  0.1747  1.1614
 5648TIP3    H216951   0.544   1.865   3.374  0.5222 -0.1910 -0.9764
 5649TIP3   OH216952   4.892   3.740   4.430  0.0104 -0.4688  0.0523
 5649TIP3    H116953   4.804   3.731   4.466  0.2764 -0.5846  0.6773
 5649TIP3    H216954   4.903   3.833   4.414  0.5459 -0.1678  1.9632
 5650TIP3   OH216955   5.282   0.468   3.788  0.5628  0.0191  0.2440
 5650TIP3    H116956   5.242   0.525   3.722 -0.9158 -0.0846  1.0153
 5650TIP3    H216957   5.368   0.447   3.752 -0.2928 -0.2425 -1.7631
 5651TIP3   OH216958   5.210   5.038   2.723 -0.4276 -0.1176 -0.0864
 5651TIP3    H116959   5.128   5.077   2.693 -2.0984 -2.5053  0.9952
 5651TIP3    H216960   5.233   5.087   2.802  1.6379  3.3174 -2.5304
 5652TIP3   OH216961   0.994   5.144   2.048 -0.5871  0.2880 -0.1215
 5652TIP3    H116962   0.973   5.197   1.971  1.0329  1.0986 -0.0511
 5652TIP3    H216963   1.037   5.066   2.013  0.5532  0.8644 -0.0371
 5653TIP3   OH216964   4.286   1.916   1.105 -0.1356 -0.2190 -0.1698
 5653TIP3    H116965   4.315   1.985   1.045 -2.8583  0.1111 -1.2573
 5653TIP3    H216966   4.352   1.914   1.173  0.7139  2.5853 -0.7818
 5654TIP3   OH216967   5.678   4.582   1.859  0.1712  0.2825 -0.4395
 5654TIP3    H116968   5.745   4.581   1.928 -0.7073  0.9814  0.4467
 5654TIP3    H216969   5.703   4.510   1.801  0.0462 -1.4043  1.4768
 5655TIP3   OH216970   2.088   5.638   0.812  0.5347  0.2438 -0.0884
 5655TIP3    H116971   2.082   5.555   0.860 -0.2826 -0.6827 -1.7126
 5655TIP3    H216972   2.001   5.677   0.820  0.5241  0.2946 -0.4504
 5656TIP3   OH216973   2.011   3.994   5.126  0.7608 -0.1118 -0.0034
 5656TIP3    H116974   2.080   4.058   5.112 -0.6437  1.5214  0.2278
 5656TIP3    H216975   1.933   4.033   5.085 -0.9634 -0.0278  3.0634
 5657TIP3   OH216976   0.484   2.253   3.533 -0.1994 -0.3508  0.7830
 5657TIP3    H116977   0.546   2.319   3.564 -0.7772 -0.4508  2.2197
 5657TIP3    H216978   0.446   2.291   3.454  0.1989  0.6099  1.0420
 5658TIP3   OH216979   1.947   5.180   4.759 -0.2306 -0.2735  0.2417
 5658TIP3    H116980   1.950   5.085   4.744 -0.8020 -0.6293  2.1828
 5658TIP3    H216981   2.038   5.206   4.770  0.3290  0.0914 -3.7082
 5659TIP3   OH216982   3.513   5.156   1.637 -0.2810 -0.1487 -0.0229
 5659TIP3    H116983   3.556   5.080   1.597 -1.9338 -1.4729  0.5570
 5659TIP3    H216984   3.563   5.174   1.716 -0.7624 -1.7070  0.6808
 5660TIP3   OH216985   4.860   3.649   2.065  0.8345 -0.6687 -0.2310
 5660TIP3    H116986   4.877   3.743   2.075 -1.0918 -0.2942 -0.0248
 5660TIP3    H216987   4.922   3.607   2.125  1.6451  0.4561 -0.2399
 5661TIP3   OH216988   4.402   4.045   0.457 -0.0553 -0.0654  0.4310
 5661TIP3    H116989   4.355   4.124   0.483 -0.0164 -0.3246  1.3468
 5661TIP3    H216990   4.485   4.076   0.421 -0.3678  0.3383  0.0497
 5662TIP3   OH216991   1.156   4.356   4.819  0.1577  0.4889 -0.0101
 5662TIP3    H116992   1.183   4.312   4.739 -0.3548 -0.4419  0.3169
 5662TIP3    H216993   1.211   4.319   4.888 -0.8508 -0.3121  0.4054
 5663TIP3   OH216994   2.488   2.722   0.662 -0.1714  0.4313 -0.8225
 5663TIP3    H116995   2.582   2.726   0.681 -0.4910  2.0285  0.6831
 5663TIP3    H216996   2.472   2.630   0.641  1.6967  0.1067 -0.9981
 5664TIP3   OH216997   4.951   2.696   2.646 -0.0816  0.0259  0.2299
 5664TIP3    H116998   4.923   2.659   2.562 -1.1822  2.5928 -0.6597
 5664TIP3    H216999   5.023   2.755   2.623 -1.5816  2.1779  0.6774
 5665TIP3   OH217000   5.901   3.526   4.660  0.1037 -0.5777  0.0347
 5665TIP3    H117001   5.825   3.467   4.664 -0.6304  0.0113 -2.8087
 5665TIP3    H217002   5.864   3.613   4.672  0.2365 -0.2777 -1.4766
 5666TIP3   OH217003   0.123   2.132   1.814  0.9186  0.2348  0.8408
 5666TIP3    H117004   0.104   2.189   1.888 -3.4043  1.5174 -0.9263
 5666TIP3    H217005   0.066   2.056   1.827 -0.2828  0.6954 -1.2769
 5667TIP3   OH217006   2.374   2.969   0.744 -0.0619 -0.2108 -0.2628
 5667TIP3    H117007   2.414   2.892   0.705 -1.3105  0.2598 -2.6374
 5667TIP3    H217008   2.412   3.043   0.696 -1.8786  0.3860 -0.8604
 5668TIP3   OH217009   4.889   0.023   2.695  0.0218 -0.1629 -0.2303
 5668TIP3    H117010   4.939   0.022   2.613  0.1980 -2.2359 -0.1553
 5668TIP3    H217011   4.946  -0.023   2.757 -1.5911 -1.8666  0.0693
 5669TIP3   OH217012   5.548   2.750   1.326 -0.0685 -0.6085 -0.2169
 5669TIP3    H117013   5.632   2.729   1.286 -0.6833 -1.0180 -1.3219
 5669TIP3    H217014   5.497   2.669   1.319 -1.1418  0.1245 -1.0862
 5670TIP3   OH217015   5.534   3.446   2.589  0.3563 -0.3421  0.3644
 5670TIP3    H117016   5.531   3.538   2.616  0.1206 -0.0124 -0.7395
 5670TIP3    H217017   5.599   3.406   2.647  0.1673  0.4232  1.1245
 5671TIP3   OH217018   0.231   3.095   4.803  0.7127 -0.3518  0.4227
 5671TIP3    H117019   0.167   3.023   4.803 -0.0072  0.2502 -0.6151
 5671TIP3    H217020   0.195   3.158   4.740  1.1588  1.0725  1.5400
 5672TIP3   OH217021   3.463   2.145   1.619  0.1846 -0.0662 -0.2949
 5672TIP3    H117022   3.442   2.145   1.712  1.2787 -0.5118 -0.0322
 5672TIP3    H217023   3.548   2.188   1.614  0.8215 -1.3372 -0.9072
 5673TIP3   OH217024   1.837   0.271   4.245 -0.6727  0.2743  0.2179
 5673TIP3    H117025   1.761   0.219   4.219 -0.5505 -0.4858  1.3140
 5673TIP3    H217026   1.800   0.352   4.279 -0.8433  1.1994 -2.0245
 5674TIP3   OH217027   5.654   5.428   4.989 -0.1242 -0.0993  0.5564
 5674TIP3    H117028   5.649   5.335   4.969 -2.1971  0.1243 -0.1275
 5674TIP3    H217029   5.570   5.449   5.029  0.1689  1.5596  0.3755
 5675TIP3   OH217030   0.858   1.113   2.240  0.0804  0.0083  0.5129
 5675TIP3    H117031   0.807   1.096   2.161  0.4736 -0.6011  0.3867
 5675TIP3    H217032   0.811   1.067   2.310  0.5327 -0.6707  0.3713
 5676TIP3   OH217033   4.539   3.124   0.219  0.3366  0.0247  0.1162
 5676TIP3    H117034   4.633   3.121   0.236  0.4170  0.9799 -0.0963
 5676TIP3    H217035   4.499   3.097   0.301  0.7864  0.3861  0.4616
 5677TIP3   OH217036   2.313   0.728   2.314 -0.1536 -0.0757 -0.1710
 5677TIP3    H117037   2.310   0.745   2.220  1.5987  0.5228 -0.1639
 5677TIP3    H217038   2.324   0.814   2.354 -0.6645 -0.3453  0.5783
 5678TIP3   OH217039   1.003   5.152   3.911  0.2208  0.7814 -0.0737
 5678TIP3    H117040   0.943   5.077   3.905  1.1489  0.0353 -0.2003
 5678TIP3    H217041   1.005   5.174   4.004 -1.3926  1.7922 -0.2270
 5679TIP3   OH217042   3.400   1.621   2.015  0.2667  0.4664 -0.1161
 5679TIP3    H117043   3.335   1.649   1.950  0.5628  0.7862 -0.2810
 5679TIP3    H217044   3.350   1.609   2.096 -0.2784 -0.8945 -0.6230
 5680TIP3   OH217045   2.734   2.760   1.654  0.0828 -0.2063  0.2619
 5680TIP3    H117046   2.686   2.782   1.733 -0.0127  0.3969  0.0399
 5680TIP3    H217047   2.712   2.669   1.637  1.1636 -0.7687  1.6881
 5681TIP3   OH217048   5.130   4.918   0.920  0.0723 -0.3093 -1.0121
 5681TIP3    H117049   5.186   4.974   0.973 -2.0339 -0.0491  1.1455
 5681TIP3    H217050   5.105   4.972   0.846 -1.7477  1.6886  0.9155
 5682TIP3   OH217051   0.025   4.005   4.258  0.0053  0.3923 -0.5151
 5682TIP3    H117052   0.001   3.939   4.193  1.3115  0.9864 -1.6575
 5682TIP3    H217053   0.084   3.959   4.318 -1.6102 -0.2974  0.6031
 5683TIP3   OH217054   0.403   3.023   3.435 -0.1400 -0.5401  0.1964
 5683TIP3    H117055   0.457   3.003   3.512 -1.6292  1.6389  1.9068
 5683TIP3    H217056   0.324   2.970   3.446 -0.6839  0.3342  0.6014
 5684TIP3   OH217057   3.265   2.279   1.429  0.0141  0.3147 -0.2057
 5684TIP3    H117058   3.345   2.325   1.407  0.3680 -0.1643  0.0647
 5684TIP3    H217059   3.294   2.196   1.468 -0.6096 -0.1579 -0.7121
 5685TIP3   OH217060   1.125   3.474   4.991 -0.3277  0.4053 -0.2375
 5685TIP3    H117061   1.083   3.552   4.955 -0.7857  0.2063 -0.1450
 5685TIP3    H217062   1.062   3.440   5.055 -0.0191  0.1088 -0.0875
 5686TIP3   OH217063   5.865   2.384   0.777 -0.1044  0.5557  0.3512
 5686TIP3    H117064   5.907   2.379   0.691 -1.8301  1.5268 -0.5997
 5686TIP3    H217065   5.887   2.471   0.810 -1.4741  1.1476 -0.2414
 5687TIP3   OH217066   4.483   2.487   4.216  0.3294  0.5400  0.3626
 5687TIP3    H117067   4.403   2.501   4.266  0.0342  2.0877 -0.4850
 5687TIP3    H217068   4.554   2.508   4.277  0.0229  1.0301  0.5563
 5688TIP3   OH217069   2.028   0.937   3.377  0.2893  0.5463 -0.1348
 5688TIP3    H117070   2.116   0.967   3.357 -0.5273  0.8497 -4.0127
 5688TIP3    H217071   2.033   0.842   3.372  0.1954  0.6048 -1.4976
 5689TIP3   OH217072   0.385   4.442   3.140  0.3897 -0.1278 -0.5288
 5689TIP3    H117073   0.387   4.402   3.227  0.4203 -3.3584 -1.8863
 5689TIP3    H217074   0.463   4.497   3.137  0.4737 -0.0891  1.4096
 5690TIP3   OH217075   1.803   0.496   3.763  0.2361  0.0842  0.0163
 5690TIP3    H117076   1.712   0.502   3.734  0.4943  0.8243 -0.6814
 5690TIP3    H217077   1.799   0.508   3.858 -0.5284 -1.3419  0.1826
 5691TIP3   OH217078   1.309   2.831   1.070 -0.4253  0.2580  0.2939
 5691TIP3    H117079   1.379   2.797   1.125  0.4123  0.2799 -0.7353
 5691TIP3    H217080   1.285   2.758   1.013 -0.6097  0.5272  0.0240
 5692TIP3   OH217081   3.865   2.667   1.450 -0.1953  0.6412  0.3491
 5692TIP3    H117082   3.884   2.733   1.383  0.8420 -0.2989 -0.3139
 5692TIP3    H217083   3.893   2.708   1.532  1.2939  0.6952 -0.1636
 5693TIP3   OH217084   6.002   1.133   3.686 -0.0054 -0.0244  0.2090
 5693TIP3    H117085   5.910   1.110   3.695 -0.1778  0.1026 -0.9811
 5693TIP3    H217086   6.044   1.053   3.656 -0.0074  0.2946 -0.6822
 5694TIP3   OH217087   5.810   0.027   1.255  0.5728 -0.1592 -0.2600
 5694TIP3    H117088   5.846  -0.032   1.188  1.2882 -1.9929  1.6192
 5694TIP3    H217089   5.865   0.105   1.251  0.5692 -0.1962 -1.8022
 5695TIP3   OH217090   1.827   5.929   3.017  0.0227 -0.0665 -0.5038
 5695TIP3    H117091   1.834   6.012   3.063 -0.5198  0.5388 -1.4918
 5695TIP3    H217092   1.888   5.871   3.064  0.4684  0.8931  0.1417
 5696TIP3   OH217093   4.505   4.610   2.448 -0.3139 -0.0424  0.3151
 5696TIP3    H117094   4.424   4.641   2.488  0.1905  1.1997  0.4103
 5696TIP3    H217095   4.574   4.660   2.490  0.2997  0.7627 -1.5491
 5697TIP3   OH217096   2.873   2.383   4.844  0.3420 -0.0038  0.1358
 5697TIP3    H117097   2.797   2.438   4.866 -0.7127 -1.1832 -0.4157
 5697TIP3    H217098   2.939   2.407   4.909 -1.0797 -0.1010  1.7009
 5698TIP3   OH217099   2.360   5.311   2.581  0.1133  0.3852  0.7657
 5698TIP3    H117100   2.421   5.239   2.565  0.9689  0.8267  1.9034
 5698TIP3    H217101   2.349   5.353   2.496  1.3142  0.2168  0.5122
 5699TIP3   OH217102   6.085   5.009   1.063 -0.2986  0.2507  0.2908
 5699TIP3    H117103   6.072   5.097   1.029 -2.8717 -0.9852 -2.3062
 5699TIP3    H217104   6.166   4.979   1.021 -0.0027  0.9607  0.3342
 5700TIP3   OH217105   1.747   5.908   4.214  0.1609 -0.1986  0.1420
 5700TIP3    H117106   1.711   5.991   4.243  0.8725  0.0844  0.2418
 5700TIP3    H217107   1.673   5.862   4.174 -0.7132 -0.3401  1.7992
 5701TIP3   OH217108   2.341   5.693   4.877  0.4094 -0.0526  0.0108
 5701TIP3    H117109   2.412   5.636   4.906  1.7565  1.5255 -0.0543
 5701TIP3    H217110   2.320   5.747   4.953 -2.5532 -2.1375  0.8715
 5702TIP3   OH217111   0.997   2.934   4.379  0.3264  0.4812 -0.0469
 5702TIP3    H117112   1.033   2.852   4.412 -0.5867  0.1170  0.0553
 5702TIP3    H217113   1.068   2.971   4.327  1.0577  0.0591  0.6164
 5703TIP3   OH217114   0.441   0.368   1.899 -0.2050  0.2899  0.5097
 5703TIP3    H117115   0.425   0.297   1.962 -1.4395 -0.0313 -0.1299
 5703TIP3    H217116   0.408   0.335   1.816 -0.0397  1.3026  0.0216
 5704TIP3   OH217117   1.186   0.387   1.879  0.4292 -0.0978 -0.2686
 5704TIP3    H117118   1.113   0.358   1.933  0.3362  0.7342  0.0724
 5704TIP3    H217119   1.248   0.425   1.942  0.3788  0.7671 -0.7207
 5705TIP3   OH217120   0.838   1.227   4.514  0.0448  0.2005  0.5763
 5705TIP3    H117121   0.830   1.171   4.591 -0.0405 -1.3924 -0.5478
 5705TIP3    H217122   0.932   1.242   4.505  0.2505 -1.3460 -0.1688
 5706TIP3   OH217123   2.117   1.659   0.913 -0.1599  0.3645 -0.2265
 5706TIP3    H117124   2.136   1.743   0.869 -3.0525  1.1262 -0.2332
 5706TIP3    H217125   2.133   1.593   0.845  1.2964  0.9423 -0.4956
 5707TIP3   OH217126   1.448   5.378   4.776 -0.1849  0.0817  0.4036
 5707TIP3    H117127   1.533   5.393   4.736  0.4742  0.9911  2.0526
 5707TIP3    H217128   1.423   5.463   4.813 -0.9531 -0.5842  1.5032
 5708TIP3   OH217129   3.239   4.158   0.486  0.0288 -0.1384  0.1726
 5708TIP3    H117130   3.179   4.105   0.539  1.2129 -0.2536  1.4468
 5708TIP3    H217131   3.249   4.239   0.534  0.4939  0.0877 -0.2935
 5709TIP3   OH217132   5.966   2.360   2.478  0.1555 -0.1216 -0.3400
 5709TIP3    H117133   5.997   2.362   2.569 -0.5870  1.8516 -0.0941
 5709TIP3    H217134   5.880   2.319   2.483 -0.5125  1.3047  0.0746
 5710TIP3   OH217135   4.530   5.734   2.203 -0.2680 -0.3514 -0.8431
 5710TIP3    H117136   4.611   5.775   2.234 -0.4173  1.2835 -2.4108
 5710TIP3    H217137   4.557   5.687   2.124 -0.3984 -2.0491  0.0924
 5711TIP3   OH217138   4.731   1.136   3.853  0.2535  0.5648  0.6117
 5711TIP3    H117139   4.798   1.199   3.883 -0.0010  0.4995  1.3372
 5711TIP3    H217140   4.656   1.152   3.910 -0.7769  1.4049 -0.9145
 5712TIP3   OH217141   5.530   4.350   0.796  0.1693 -0.3359  0.1899
 5712TIP3    H117142   5.559   4.312   0.879 -2.3919 -1.6583  0.5519
 5712TIP3    H217143   5.569   4.293   0.729  0.7742 -0.3215  0.5155
 5713TIP3   OH217144   0.665   5.686   3.156 -0.2049 -0.1169  0.2656
 5713TIP3    H117145   0.670   5.688   3.060 -0.3957  2.0455  0.2458
 5713TIP3    H217146   0.755   5.668   3.184  0.3954  1.6574 -0.3563
 5714TIP3   OH217147   0.736   0.614   4.220 -0.7234 -0.0667 -0.0064
 5714TIP3    H117148   0.702   0.624   4.131 -0.6870  1.1098  0.0937
 5714TIP3    H217149   0.725   0.701   4.260 -1.1636 -0.6993  1.2950
 5715TIP3   OH217150   2.137   0.761   1.758  0.3194  0.7194  0.2967
 5715TIP3    H117151   2.144   0.731   1.667  1.3102  1.0466  0.2570
 5715TIP3    H217152   2.202   0.831   1.765  0.7885  0.1814  1.4671
 5716TIP3   OH217153   5.982   5.804   2.909  0.1470  0.2326 -0.0094
 5716TIP3    H117154   6.058   5.814   2.965  0.4536 -1.2230 -0.1299
 5716TIP3    H217155   5.985   5.880   2.851  2.2791 -0.4749 -0.9115
 5717TIP3   OH217156   3.277   4.742   2.724 -0.1530 -0.4337 -0.5643
 5717TIP3    H117157   3.245   4.749   2.814 -1.2509  0.0281 -0.9658
 5717TIP3    H217158   3.348   4.805   2.719 -1.1490  0.7477 -0.4440
 5718TIP3   OH217159   3.013   0.180   4.947 -0.1297  0.3476  0.1793
 5718TIP3    H117160   2.944   0.123   4.913  1.0941 -0.8713 -0.4087
 5718TIP3    H217161   2.980   0.269   4.936 -1.6740 -0.2138  0.1308
 5719TIP3   OH217162   1.367   1.539   2.771 -0.4431  0.6955 -0.1846
 5719TIP3    H117163   1.426   1.614   2.775 -0.4129  0.6304  0.7430
 5719TIP3    H217164   1.406   1.475   2.830 -0.5811  0.0288 -0.8135
 5720TIP3   OH217165   3.304   1.222   2.153  0.6512  0.2226 -0.0925
 5720TIP3    H117166   3.273   1.236   2.063  1.4870 -2.0289 -0.8230
 5720TIP3    H217167   3.358   1.298   2.172 -1.7542  2.1332 -0.3756
 5721TIP3   OH217168   4.014   4.461   3.890  0.2360  0.3343 -0.2779
 5721TIP3    H117169   3.958   4.385   3.872 -1.1944  1.3971 -0.4762
 5721TIP3    H217170   4.023   4.461   3.986  2.0317 -1.2752 -0.3890
 5722TIP3   OH217171   2.666   5.392   0.191  0.7550  0.4325  0.4030
 5722TIP3    H117172   2.598   5.459   0.190  0.6930  0.3677  0.2625
 5722TIP3    H217173   2.644   5.338   0.267 -0.0392 -0.2867 -0.3162
 5723TIP3   OH217174   4.917   3.276   1.126 -0.4658  0.1233  0.4413
 5723TIP3    H117175   4.993   3.330   1.150 -0.4655 -0.1735  1.1183
 5723TIP3    H217176   4.894   3.305   1.038  2.3997 -1.9072 -1.1419
 5724TIP3   OH217177   0.559   5.035   2.308 -0.0354 -0.3745 -0.6280
 5724TIP3    H117178   0.611   5.114   2.326  0.9289 -0.9101 -0.9763
 5724TIP3    H217179   0.484   5.042   2.366  0.7532  0.1265  0.3636
 5725TIP3   OH217180   3.021   1.168   0.017 -0.5422  0.5515  0.2512
 5725TIP3    H117181   2.953   1.102   0.014 -0.2921  0.3193 -1.4238
 5725TIP3    H217182   3.067   1.152   0.099 -0.8758 -0.9571  0.1649
 5726TIP3   OH217183   2.957   1.258   1.437  0.1549 -0.2244 -0.4018
 5726TIP3    H117184   2.913   1.178   1.410  2.3082 -1.4759 -0.4889
 5726TIP3    H217185   3.033   1.228   1.488  0.6396  1.7894  0.1794
 5727TIP3   OH217186   0.586   1.096   3.791  0.3875  0.5254  0.1019
 5727TIP3    H117187   0.541   1.106   3.707  0.3324 -1.0253 -0.0697
 5727TIP3    H217188   0.670   1.140   3.779  0.8102 -0.5816 -1.1199
 5728TIP3   OH217189   5.600   0.892   4.774  0.3788 -0.3162 -0.0739
 5728TIP3    H117190   5.648   0.872   4.854  2.6009  0.6505 -1.0863
 5728TIP3    H217191   5.667   0.897   4.706 -0.9768  2.2555 -1.3713
 5729TIP3   OH217192   5.632   2.550   0.762 -0.1382  0.1472  0.3366
 5729TIP3    H117193   5.675   2.467   0.740  0.8825  0.9022 -0.6990
 5729TIP3    H217194   5.599   2.537   0.851  0.6103 -1.1242  0.4626
 5730TIP3   OH217195   0.407   2.261   4.502  0.1175 -0.5113  0.1066
 5730TIP3    H117196   0.465   2.213   4.562 -0.3344 -0.1446  0.8488
 5730TIP3    H217197   0.320   2.225   4.520  0.1320 -1.2316 -1.1727
 5731TIP3   OH217198   1.794   1.799   5.164 -0.2338 -0.3563 -0.2562
 5731TIP3    H117199   1.736   1.788   5.088 -1.7124 -1.1593  0.9275
 5731TIP3    H217200   1.788   1.892   5.185 -0.2924 -0.2425 -0.7587
 5732TIP3   OH217201   1.729   2.912   2.298 -0.0458 -0.2844  0.5441
 5732TIP3    H117202   1.673   2.903   2.376  0.1012  2.2126  1.0231
 5732TIP3    H217203   1.787   2.985   2.319  0.6048 -0.1297 -1.5772
 5733TIP3   OH217204   5.166   2.993   4.436  0.0758 -0.1444  0.2880
 5733TIP3    H117205   5.078   3.009   4.470 -0.9714  1.9367 -2.9608
 5733TIP3    H217206   5.215   3.072   4.459 -0.1262  0.4719 -1.2679
 5734TIP3   OH217207   4.690   2.527  -0.012  0.4119 -0.0542 -0.1599
 5734TIP3    H117208   4.749   2.603  -0.014  0.9560 -0.4798 -0.7140
 5734TIP3    H217209   4.611   2.559   0.032  1.1109  0.4844  0.7412
 5735TIP3   OH217210   0.487   5.834   3.309  0.1684 -0.0769 -0.0683
 5735TIP3    H117211   0.549   5.854   3.380 -0.4544 -0.0308  0.4706
 5735TIP3    H217212   0.543   5.808   3.236  0.8290 -0.0998  0.4291
 5736TIP3   OH217213   2.773   1.212   0.429  0.0398  0.6796  0.0401
 5736TIP3    H117214   2.680   1.192   0.420 -0.0717  0.7117  1.0117
 5736TIP3    H217215   2.775   1.305   0.449  0.2895  0.6993 -0.0770
 5737TIP3   OH217216   6.242   1.464   1.687  0.1759  0.0768  0.2729
 5737TIP3    H117217   6.215   1.537   1.743 -3.3129 -0.6672 -0.2481
 5737TIP3    H217218   6.249   1.503   1.600 -0.8568  0.0065  0.1435
 5738TIP3   OH217219   0.037   5.580   4.701  0.3449 -0.0233 -0.3069
 5738TIP3    H117220   0.104   5.649   4.709 -0.0711  0.2805  0.8849
 5738TIP3    H217221   0.009   5.564   4.792 -0.0897 -1.2502 -0.6372
 5739TIP3   OH217222   6.106   1.332   2.501 -0.0944 -0.2299  0.2437
 5739TIP3    H117223   6.078   1.267   2.437 -1.6438 -0.3117  0.9544
 5739TIP3    H217224   6.185   1.295   2.540  0.5151 -0.4661 -1.1613
 5740TIP3   OH217225   2.634   4.246   4.772  0.2673 -0.1906  0.6089
 5740TIP3    H117226   2.605   4.181   4.836 -1.5276  1.1144  1.1811
 5740TIP3    H217227   2.583   4.324   4.792  2.5791  1.5519  0.1723
 5741TIP3   OH217228   2.493   1.417   4.379  0.1425  0.1607 -0.2310
 5741TIP3    H117229   2.499   1.440   4.286 -1.6870  0.6989 -0.2394
 5741TIP3    H217230   2.535   1.331   4.385  4.0502  1.7745 -0.7959
 5742TIP3   OH217231   1.672   4.545   3.420 -0.2277 -0.1659 -0.6286
 5742TIP3    H117232   1.719   4.592   3.489  0.8134 -1.8982 -0.0971
 5742TIP3    H217233   1.661   4.457   3.454 -1.1362 -0.6341 -2.0377
 5743TIP3   OH217234   1.492   4.080   0.097  0.0486  0.0313 -0.4418
 5743TIP3    H117235   1.433   4.127   0.157  1.2440 -1.3472  2.0043
 5743TIP3    H217236   1.568   4.137   0.089  0.1736 -0.0643 -0.0198
 5744TIP3   OH217237   1.598   3.506   4.243 -0.2748 -0.6692 -0.1821
 5744TIP3    H117238   1.643   3.590   4.245 -2.4305  0.6248 -1.9816
 5744TIP3    H217239   1.528   3.514   4.307  0.0568 -1.4771  0.3055
 5745TIP3   OH217240   0.780   5.825   0.999  0.6663  0.5554 -0.4278
 5745TIP3    H117241   0.820   5.739   0.986 -1.2794 -0.7107  1.2296
 5745TIP3    H217242   0.685   5.808   0.994  0.2250  2.8026 -1.0010
 5746TIP3   OH217243   1.994   4.230   3.037 -0.3387  0.6908 -0.3919
 5746TIP3    H117244   1.899   4.236   3.024 -0.1977  2.5114 -0.9695
 5746TIP3    H217245   2.014   4.301   3.099  0.9321  2.2113 -2.4055
 5747TIP3   OH217246   2.470   3.189   0.569 -0.1941 -0.7303 -0.2123
 5747TIP3    H117247   2.387   3.234   0.556  0.0617 -0.0117  0.5540
 5747TIP3    H217248   2.475   3.127   0.497 -1.1968 -0.4899 -0.5091
 5748TIP3   OH217249   2.370   1.267   1.216 -0.1837 -0.1646 -0.4927
 5748TIP3    H117250   2.341   1.350   1.178 -0.9345  0.2308  0.8638
 5748TIP3    H217251   2.304   1.247   1.283  0.6057 -1.2789 -0.0169
 5749TIP3   OH217252   0.288   2.270   0.990  0.7003  0.0956 -0.1006
 5749TIP3    H117253   0.262   2.185   1.024  0.8322  0.8998  2.2032
 5749TIP3    H217254   0.377   2.283   1.025 -0.3734  2.3451  2.1692
 5750TIP3   OH217255  -0.024   4.650   3.325  0.4770  0.0108 -0.1156
 5750TIP3    H117256   0.019   4.707   3.262  0.8001 -0.0581  0.0404
 5750TIP3    H217257   0.047   4.599   3.365  0.4728  1.1094  1.3772
 5751TIP3   OH217258   5.556   3.495   1.338  0.2572 -0.6538 -0.0592
 5751TIP3    H117259   5.602   3.413   1.322  2.5114  0.2244  1.4338
 5751TIP3    H217260   5.609   3.562   1.296  1.4837  0.5850  3.1003
 5752TIP3   OH217261   2.317   3.625   2.693 -0.0454 -0.2040 -0.2965
 5752TIP3    H117262   2.349   3.588   2.611 -0.7471 -0.0400 -0.6572
 5752TIP3    H217263   2.330   3.720   2.683  0.6089 -0.2415  0.1194
 5753TIP3   OH217264   5.573   5.432   3.703 -0.2599  0.3071 -0.1127
 5753TIP3    H117265   5.589   5.423   3.610  2.8917 -1.8611  0.5077
 5753TIP3    H217266   5.657   5.457   3.740 -1.2596  0.4535  2.2451
 5754TIP3   OH217267   5.964   0.542   4.856 -0.1398 -0.9450  0.2825
 5754TIP3    H117268   5.957   0.599   4.933  0.9503 -0.5177  0.0847
 5754TIP3    H217269   6.057   0.519   4.852 -0.3178 -1.5381 -0.4980
 5755TIP3   OH217270   5.427   4.509   4.218  0.4674 -0.2152  0.5082
 5755TIP3    H117271   5.488   4.508   4.292  1.0349  0.9736  0.0788
 5755TIP3    H217272   5.344   4.481   4.256  0.3893  1.7640  1.9709
 5756TIP3   OH217273   0.960   4.319   3.763 -0.0716 -0.4365 -0.9279
 5756TIP3    H117274   0.885   4.334   3.821 -1.1536 -0.4052 -2.2936
 5756TIP3    H217275   1.030   4.291   3.822 -0.0952  2.7403  0.8813
 5757TIP3   OH217276   4.260   2.567   2.151 -0.2949 -0.1065 -0.2052
 5757TIP3    H117277   4.193   2.618   2.195 -1.3987 -1.9019  0.2964
 5757TIP3    H217278   4.324   2.632   2.120 -1.2221  1.4654  1.0618
 5758TIP3   OH217279   4.057   3.581   0.515 -0.4071  0.0071  0.1383
 5758TIP3    H117280   4.020   3.499   0.483 -1.0442 -0.1879  1.3367
 5758TIP3    H217281   4.124   3.555   0.578  0.7024  0.3931 -0.8284
 5759TIP3   OH217282   3.997   1.919   3.323 -0.2775  0.3145  0.5038
 5759TIP3    H117283   3.941   1.968   3.262  0.3178 -0.7791 -1.0077
 5759TIP3    H217284   3.938   1.894   3.394 -1.6656 -0.4315 -0.8283
 5760TIP3   OH217285   4.837   2.758   4.753  0.3343  0.3092 -0.2641
 5760TIP3    H117286   4.771   2.813   4.796 -0.8899 -3.4168  3.3169
 5760TIP3    H217287   4.789   2.711   4.686  0.8969  1.9072 -1.8584
 5761TIP3   OH217288   3.086   3.769   4.288 -0.4918  0.2812  0.4357
 5761TIP3    H117289   3.169   3.812   4.267 -0.7132  0.0618 -1.0312
 5761TIP3    H217290   3.019   3.825   4.248 -1.0106  0.1545  1.1106
 5762TIP3   OH217291   0.163   5.284   1.894  0.5623  0.4070 -0.2625
 5762TIP3    H117292   0.121   5.309   1.812 -2.0355 -2.5293 -0.0329
 5762TIP3    H217293   0.175   5.189   1.888  0.8170  0.1607  2.5005
 5763TIP3   OH217294   1.132   0.860   4.795 -0.1835 -0.5630  0.1810
 5763TIP3    H117295   1.212   0.845   4.744 -1.0534  0.4743 -1.5917
 5763TIP3    H217296   1.147   0.944   4.839 -0.1814 -0.4793  0.0255
 5764TIP3   OH217297   1.311   4.420   1.120 -0.2664  0.5184 -0.1327
 5764TIP3    H117298   1.294   4.386   1.208  0.9314  1.0282  0.3245
 5764TIP3    H217299   1.329   4.342   1.067 -1.3101  0.1847 -0.0219
 5765TIP3   OH217300   5.876   5.463   1.954  0.4554  0.4076  0.5321
 5765TIP3    H117301   5.878   5.423   2.041  0.6091 -2.0934 -0.5215
 5765TIP3    H217302   5.935   5.538   1.961 -0.7765  1.2482  2.9626
 5766TIP3   OH217303   2.878   0.358   4.789  0.1273  0.2486  0.0630
 5766TIP3    H117304   2.910   0.285   4.736  1.4177  4.2814 -5.6764
 5766TIP3    H217305   2.784   0.360   4.772  0.3962  0.9750 -1.4588
 5767TIP3   OH217306   4.690   4.643   4.218  0.1303 -0.8478 -0.1687
 5767TIP3    H117307   4.611   4.591   4.224  1.1727 -2.5251 -0.2983
 5767TIP3    H217308   4.685   4.685   4.132 -1.3763  0.4188  0.4975
 5768TIP3   OH217309   0.668   2.535   0.440  0.6948  0.0373 -0.4486
 5768TIP3    H117310   0.611   2.577   0.377  0.6251 -0.2014 -0.5451
 5768TIP3    H217311   0.654   2.583   0.522 -0.8685 -1.0388 -0.0461
 5769TIP3   OH217312   1.732   0.121   2.874  0.5682  0.0545 -0.3235
 5769TIP3    H117313   1.754   0.214   2.872  1.9031 -0.2283  0.3057
 5769TIP3    H217314   1.653   0.117   2.929  1.5024  0.6615  1.1385
 5770TIP3   OH217315   1.631   2.711   1.576 -0.1886 -0.5203 -0.2340
 5770TIP3    H117316   1.601   2.802   1.575  1.2969  0.1256  2.9476
 5770TIP3    H217317   1.693   2.706   1.502 -0.4114  0.9905 -0.5605
 5771TIP3   OH217318   1.130   3.847   3.882  0.1761  0.0286  0.5631
 5771TIP3    H117319   1.154   3.880   3.969 -0.6830 -1.3131  1.3241
 5771TIP3    H217320   1.212   3.813   3.846  0.3516 -0.2363  1.2134
 5772TIP3   OH217321   4.728   2.278   0.759 -0.6959  0.3294 -0.6844
 5772TIP3    H117322   4.749   2.202   0.813 -2.8836  1.0464  1.3067
 5772TIP3    H217323   4.805   2.289   0.703 -0.6566 -3.9028 -1.7978
 5773TIP3   OH217324   5.582   1.104   3.540 -0.0005  0.4855  0.0071
 5773TIP3    H117325   5.649   1.110   3.608 -0.6216 -2.2078  0.9599
 5773TIP3    H217326   5.511   1.056   3.581 -1.0206  0.0888 -2.1174
 5774TIP3   OH217327   0.056   0.533   1.935 -0.3695 -0.2770  0.0874
 5774TIP3    H117328  -0.032   0.506   1.909 -0.3259  0.7685 -1.2893
 5774TIP3    H217329   0.091   0.458   1.982 -0.9178 -1.9089 -1.9554
 5775TIP3   OH217330   1.999   5.237   3.913 -0.3335  0.0899  0.3477
 5775TIP3    H117331   1.966   5.198   3.995  1.1756  0.8341  1.3572
 5775TIP3    H217332   2.011   5.329   3.934 -0.8889  0.4966 -1.0570
 5776TIP3   OH217333   1.246   3.478   0.356  0.1727 -0.0607  0.1247
 5776TIP3    H117334   1.220   3.453   0.268 -0.6080  0.1743  0.2824
 5776TIP3    H217335   1.317   3.542   0.343  0.3784 -0.3756 -0.3146
 5777TIP3   OH217336   3.655   0.337   2.144 -0.0543  0.1323 -0.4012
 5777TIP3    H117337   3.689   0.269   2.202  0.3828  0.2312 -0.5369
 5777TIP3    H217338   3.690   0.315   2.058 -0.3008  0.2589 -0.5340
 5778TIP3   OH217339   1.331   3.508   1.696  0.0951  0.3241 -0.5464
 5778TIP3    H117340   1.379   3.449   1.754 -1.8507 -1.6778 -0.8374
 5778TIP3    H217341   1.357   3.482   1.608  0.8351  1.3873 -0.6603
 5779TIP3   OH217342   2.008   2.134   0.160 -0.2081  0.4014  0.4496
 5779TIP3    H117343   2.011   2.124   0.065  0.6500  1.5205  0.3324
 5779TIP3    H217344   1.963   2.218   0.174  0.4127  0.6540  0.9807
 5780TIP3   OH217345   0.676   4.169   0.743  0.0036  0.4421 -0.1934
 5780TIP3    H117346   0.673   4.133   0.832 -0.2384  0.3651 -0.2310
 5780TIP3    H217347   0.633   4.254   0.750 -0.1222  0.3856 -0.2569
 5781TIP3   OH217348   0.491   4.566   4.543  0.3270 -0.2211  0.1565
 5781TIP3    H117349   0.465   4.626   4.613 -0.4848  0.5311 -0.7530
 5781TIP3    H217350   0.510   4.484   4.587 -0.2479  0.2155  1.2518
 5782TIP3   OH217351   0.745   4.269   1.390 -0.7634 -0.3539  0.4101
 5782TIP3    H117352   0.727   4.223   1.308 -0.4095 -1.6051  1.0206
 5782TIP3    H217353   0.785   4.352   1.362  1.8029 -1.8383 -0.6589
 5783TIP3   OH217354   3.399   5.686   0.785 -0.2878 -0.2354 -0.1030
 5783TIP3    H117355   3.320   5.739   0.775 -0.0805 -0.1724 -1.4835
 5783TIP3    H217356   3.470   5.749   0.795 -0.4838 -0.2853  2.1340
 5784TIP3   OH217357   2.291   1.612   4.238 -0.5445  0.1911 -0.2048
 5784TIP3    H117358   2.338   1.683   4.281 -0.8322  0.5290 -0.4390
 5784TIP3    H217359   2.327   1.609   4.149 -1.6012  1.0759 -0.6858
 5785TIP3   OH217360   3.628   3.478   3.666 -0.2205  0.6622  0.3236
 5785TIP3    H117361   3.665   3.489   3.578  0.2465  0.4208  0.4923
 5785TIP3    H217362   3.698   3.504   3.725 -0.2879  0.1217  0.6439
 5786TIP3   OH217363   5.170   1.167   1.403 -0.3731  0.2595  0.4398
 5786TIP3    H117364   5.145   1.104   1.335  0.2011  0.3275  0.1608
 5786TIP3    H217365   5.109   1.150   1.475 -0.6609 -0.1527  0.1039
 5787TIP3   OH217366   4.609   0.771   0.022  0.2319 -0.3353 -0.2544
 5787TIP3    H117367   4.525   0.815   0.035  1.0892  1.3184 -0.0323
 5787TIP3    H217368   4.590   0.698  -0.037 -1.1974  0.5540 -0.9300
 5788TIP3   OH217369   1.939   5.720   5.063  0.6324 -0.4868 -0.3268
 5788TIP3    H117370   1.888   5.794   5.094  1.5703 -0.2235  0.6500
 5788TIP3    H217371   1.883   5.677   4.998 -0.0905  0.8131 -0.5865
 5789TIP3   OH217372   5.294   0.853   2.096  1.0144 -0.1489  0.3007
 5789TIP3    H117373   5.364   0.914   2.076  0.3519  1.0920  1.5547
 5789TIP3    H217374   5.235   0.858   2.020  1.8950 -0.6686 -0.4369
 5790TIP3   OH217375   6.026   1.811   3.580  0.3166  0.2669  0.6962
 5790TIP3    H117376   6.089   1.876   3.548 -0.3768  0.6475  0.0931
 5790TIP3    H217377   5.971   1.859   3.642  0.8494 -0.1621  1.5293
 5791TIP3   OH217378   2.071   4.739   4.707 -0.1832  0.1279 -0.2997
 5791TIP3    H117379   2.046   4.711   4.619  0.3932 -2.5121  0.2900
 5791TIP3    H217380   1.989   4.768   4.746 -1.1912 -2.1276 -0.5679
 5792TIP3   OH217381   1.262   2.669   4.862 -0.2456 -0.0101 -0.8060
 5792TIP3    H117382   1.187   2.681   4.803 -0.9182  0.2265  0.0782
 5792TIP3    H217383   1.291   2.579   4.844 -2.6544 -1.2746  0.9285
 5793TIP3   OH217384   4.845   1.536   2.189  0.3078 -0.3109 -0.5151
 5793TIP3    H117385   4.861   1.631   2.191  0.1954 -0.2983 -0.2568
 5793TIP3    H217386   4.904   1.500   2.256  0.9172 -0.5097 -1.1404
 5794TIP3   OH217387   5.662   0.163   2.653 -0.0150 -0.1908  0.3209
 5794TIP3    H117388   5.595   0.176   2.720 -0.6937 -0.8981 -0.2152
 5794TIP3    H217389   5.721   0.097   2.691 -0.9453 -1.3199 -0.1644
 5795TIP3   OH217390   4.703   0.672   0.549 -0.2352 -0.2712 -0.2240
 5795TIP3    H117391   4.634   0.704   0.606 -0.1737 -0.5909  0.0350
 5795TIP3    H217392   4.720   0.582   0.579 -1.0731 -0.9033 -1.5581
 5796TIP3   OH217393   5.787   2.207   2.880 -0.2763  0.0174 -0.1747
 5796TIP3    H117394   5.801   2.274   2.813 -1.5187  0.4132 -0.0670
 5796TIP3    H217395   5.718   2.151   2.843  1.6046 -2.0067 -0.8370
 5797TIP3   OH217396   2.634   2.725   4.325 -0.5146  0.2549 -0.5189
 5797TIP3    H117397   2.559   2.739   4.267  0.2353 -0.6154 -1.7460
 5797TIP3    H217398   2.670   2.812   4.339 -0.6699  0.4822 -1.4336
 5798TIP3   OH217399   3.415   4.966   0.209 -0.6093 -0.1404  0.0588
 5798TIP3    H117400   3.330   4.943   0.171 -0.2694  0.4039 -1.0758
 5798TIP3    H217401   3.401   4.963   0.304 -1.6239 -1.0396 -0.1058
 5799TIP3   OH217402   0.477   0.296   1.582 -0.2265  0.3747 -0.6615
 5799TIP3    H117403   0.562   0.274   1.620 -0.3786 -0.0976 -0.5871
 5799TIP3    H217404   0.480   0.391   1.570  0.1342  0.4232 -0.2265
 5800TIP3   OH217405   3.599   4.008   0.726 -0.0349  0.2204  0.8406
 5800TIP3    H117406   3.645   3.940   0.775  0.1394 -1.5991 -1.6618
 5800TIP3    H217407   3.541   3.960   0.667 -1.3583  2.3308  0.3081
 5801TIP3   OH217408   4.783   0.901   0.881  0.0605 -0.1597 -0.4692
 5801TIP3    H117409   4.830   0.931   0.803  1.0203 -2.1476 -0.7271
 5801TIP3    H217410   4.791   0.806   0.878  0.5139 -0.2846  2.3011
 5802TIP3   OH217411   5.159   2.988   0.546  0.4608  0.6337 -0.2416
 5802TIP3    H117412   5.134   2.896   0.560  0.1092  0.9766  1.7255
 5802TIP3    H217413   5.254   2.988   0.555  0.3635  0.6125  0.9633
 5803TIP3   OH217414   4.742   1.518   0.357  0.3319 -0.1026  0.3969
 5803TIP3    H117415   4.708   1.584   0.416  1.9137  1.2454 -0.1318
 5803TIP3    H217416   4.711   1.545   0.270 -0.0919 -0.8000  0.3217
 5804TIP3   OH217417   5.177   3.400   1.135 -0.0738 -0.4117  0.2572
 5804TIP3    H117418   5.208   3.337   1.069  1.3150  0.8450 -0.3633
 5804TIP3    H217419   5.207   3.364   1.218  2.6392  0.3976 -0.2645
 5805TIP3   OH217420   1.148   4.546   2.371  0.0674 -0.4942 -0.1472
 5805TIP3    H117421   1.181   4.458   2.391 -1.8080 -1.4987 -1.1775
 5805TIP3    H217422   1.066   4.551   2.419 -1.0511 -0.2875 -1.9855
 5806TIP3   OH217423   2.335   2.440   4.715 -0.2079  0.4090 -0.0559
 5806TIP3    H117424   2.303   2.512   4.769 -3.0853 -1.1313  0.5222
 5806TIP3    H217425   2.384   2.385   4.775 -0.0363  0.6709  0.0466
 5807TIP3   OH217426   2.793   1.466   0.655  0.7782  0.0861  0.0899
 5807TIP3    H117427   2.723   1.522   0.689 -1.4710 -1.5084 -1.6044
 5807TIP3    H217428   2.799   1.395   0.719 -0.4846 -0.7049 -0.6205
 5808TIP3   OH217429   0.895   1.058   4.717  0.5454  0.0212  0.3153
 5808TIP3    H117430   0.990   1.064   4.725  0.6821  0.5099 -1.3095
 5808TIP3    H217431   0.861   1.094   4.799  1.7520  0.2575  0.7229
 5809TIP3   OH217432   4.435   2.208   3.987  0.4962 -0.6745  0.8137
 5809TIP3    H117433   4.465   2.181   4.074 -0.0086 -0.1980  1.1379
 5809TIP3    H217434   4.488   2.285   3.966  0.7390 -0.8926  0.6223
 5810TIP3   OH217435   3.848   4.056   3.099  0.1119 -0.2473 -0.1991
 5810TIP3    H117436   3.843   4.018   3.186  0.5645 -0.4099 -0.2432
 5810TIP3    H217437   3.863   4.150   3.115 -0.0151 -0.2436 -0.1006
 5811TIP3   OH217438   0.962   4.003   3.489 -0.1288 -0.1540  0.2323
 5811TIP3    H117439   0.961   4.096   3.510 -0.3773 -0.4725  1.7220
 5811TIP3    H217440   0.927   3.960   3.567 -1.8490 -1.3830 -1.1166
 5812TIP3   OH217441   5.532   1.158   2.463  0.8682  0.3885  0.1369
 5812TIP3    H117442   5.482   1.225   2.508  0.0666 -0.0870 -0.0169
 5812TIP3    H217443   5.585   1.206   2.399  1.1774  0.9626  0.8193
 5813TIP3   OH217444   3.603   3.022   1.016  0.2505  0.1340  0.3661
 5813TIP3    H117445   3.577   2.957   0.951 -2.4999  0.4648  1.0334
 5813TIP3    H217446   3.658   3.083   0.968 -0.1132 -0.6898 -1.1467
 5814TIP3   OH217447   5.115   2.041   2.163 -0.0105  0.2662  0.3891
 5814TIP3    H117448   5.110   2.043   2.067  1.3922  0.2381  0.2972
 5814TIP3    H217449   5.092   2.130   2.190  0.4424  0.5155 -0.0290
 5815TIP3   OH217450   2.985   1.540   3.855  0.0527  0.6624 -0.2257
 5815TIP3    H117451   2.921   1.516   3.788 -0.7196  1.2701  0.2794
 5815TIP3    H217452   2.984   1.466   3.916  2.7485 -1.2214 -2.1995
 5816TIP3   OH217453   4.304   5.639   0.729  0.4583  0.5928  0.1618
 5816TIP3    H117454   4.214   5.640   0.760  0.0790  0.9004 -0.9087
 5816TIP3    H217455   4.302   5.689   0.648  1.2607 -0.8519 -0.7854
 5817TIP3   OH217456   2.675   4.049   2.897 -0.2719 -0.5875  0.0101
 5817TIP3    H117457   2.608   4.030   2.963  0.1638  1.0570  0.9842
 5817TIP3    H217458   2.741   4.100   2.944  1.2642 -1.4413 -1.1331
 5818TIP3   OH217459   0.008   0.150   4.506 -0.2079 -0.0282 -0.1171
 5818TIP3    H117460   0.063   0.150   4.427  1.5918  0.0369  1.0842
 5818TIP3    H217461   0.063   0.110   4.573 -0.7098  2.2799  1.7700
 5819TIP3   OH217462   2.112   4.140   2.382 -0.4385  0.1057 -0.0899
 5819TIP3    H117463   2.128   4.203   2.311 -0.8633 -0.2193 -0.4848
 5819TIP3    H217464   2.053   4.075   2.342 -2.1021  0.8372  1.0584
 5820TIP3   OH217465   1.871   0.184   3.304 -0.2716  0.4002  0.5858
 5820TIP3    H117466   1.846   0.239   3.229 -2.1438  0.4066  1.1762
 5820TIP3    H217467   1.961   0.211   3.325 -1.0173  3.0356  0.6674
 5821TIP3   OH217468   0.162   2.796   5.041 -0.4597 -0.4215 -0.0826
 5821TIP3    H117469   0.108   2.754   5.108 -0.5098  1.1893  0.9415
 5821TIP3    H217470   0.229   2.731   5.020 -2.2288 -2.1320 -0.7357
 5822TIP3   OH217471   2.322   0.514   0.794 -0.2152 -0.2166  0.1926
 5822TIP3    H117472   2.349   0.580   0.858 -1.8072  0.3268  0.3516
 5822TIP3    H217473   2.314   0.433   0.844  0.0410 -0.1406  0.3576
 5823TIP3   OH217474   3.031   5.059   3.559  0.1096  0.7198 -0.3087
 5823TIP3    H117475   2.936   5.054   3.546 -0.2050  0.8768  1.6698
 5823TIP3    H217476   3.045   5.027   3.648  1.6475  2.9832  0.3468
 5824TIP3   OH217477   3.504   3.514   2.472  0.0381 -0.4532  0.9751
 5824TIP3    H117478   3.418   3.494   2.435  0.1141 -2.4762  1.7650
 5824TIP3    H217479   3.486   3.541   2.562  0.2378 -1.3672  1.2995
 5825TIP3   OH217480   6.081   4.136   4.173  0.4252  0.0774 -0.2929
 5825TIP3    H117481   6.155   4.162   4.228  0.3985 -1.3891  0.5033
 5825TIP3    H217482   6.080   4.199   4.102  3.0388 -0.4086 -0.8656
 5826TIP3   OH217483   5.042   4.612   5.199 -0.2641  0.3466  0.7303
 5826TIP3    H117484   5.021   4.638   5.109 -1.1899  0.5152  0.9915
 5826TIP3    H217485   5.034   4.516   5.198  1.3841  0.1809  0.2250
 5827TIP3   OH217486   2.878   3.472   1.108 -0.1664  0.4911 -0.0777
 5827TIP3    H117487   2.919   3.546   1.065  0.9969  0.1908  0.4733
 5827TIP3    H217488   2.911   3.395   1.061  0.0879  0.2352  0.5089
 5828TIP3   OH217489   1.140   5.408   2.150 -0.5194 -0.2237  0.5657
 5828TIP3    H117490   1.065   5.348   2.156  0.5295 -1.5178  1.5647
 5828TIP3    H217491   1.201   5.363   2.092  0.2674 -0.1048  1.2914
 5829TIP3   OH217492   4.640   3.156   4.324  0.6057 -0.0015 -0.3903
 5829TIP3    H117493   4.725   3.127   4.292  1.5711  1.1387  0.9689
 5829TIP3    H217494   4.648   3.251   4.330 -1.3967  0.3211 -1.8689
 5830TIP3   OH217495   4.583   5.377   1.090 -0.4593 -0.5281 -0.1086
 5830TIP3    H117496   4.571   5.283   1.105  0.1946 -0.6505 -0.3200
 5830TIP3    H217497   4.502   5.416   1.122 -1.2416 -1.2725 -1.1137
 5831TIP3   OH217498   3.442   0.975   0.977  0.9401 -0.6172  0.2122
 5831TIP3    H117499   3.438   0.917   1.053  1.5960 -0.7998  0.1109
 5831TIP3    H217500   3.351   0.984   0.950  0.7396 -0.8698  0.7793
 5832TIP3   OH217501   3.796   1.658   2.726  0.2016  0.1394  0.0974
 5832TIP3    H117502   3.876   1.692   2.687 -0.8423  0.3008 -2.0610
 5832TIP3    H217503   3.725   1.694   2.673 -1.3961  0.5190  2.3094
 5833TIP3   OH217504   2.361   3.990   1.770 -0.3084  0.3733  0.1869
 5833TIP3    H117505   2.412   3.929   1.824  0.4627  0.7676 -0.0786
 5833TIP3    H217506   2.279   4.002   1.818 -0.6097 -1.1023  0.1036
 5834TIP3   OH217507   4.833   2.046   3.776 -0.3208 -0.3244  0.1043
 5834TIP3    H117508   4.832   2.054   3.680 -0.0720 -1.5035 -0.0091
 5834TIP3    H217509   4.753   1.997   3.797  0.0217 -0.7520  0.4267
 5835TIP3   OH217510   3.147   0.892   3.131  0.1136 -0.2932  0.0083
 5835TIP3    H117511   3.147   0.830   3.204 -1.4735 -0.1264  0.1947
 5835TIP3    H217512   3.054   0.905   3.111  0.5252 -0.8834 -2.5548
 5836TIP3   OH217513   3.198   1.946   0.412 -0.0198  0.5877  0.7613
 5836TIP3    H117514   3.206   1.968   0.319 -1.5637 -2.8153 -0.3179
 5836TIP3    H217515   3.126   2.001   0.444 -1.2321 -0.0191 -0.7925
 5837TIP3   OH217516   2.639   4.725   3.513  0.1290  0.2399  0.5286
 5837TIP3    H117517   2.595   4.661   3.569  0.7840 -0.4023  0.3330
 5837TIP3    H217518   2.723   4.740   3.556 -0.7190  2.3950  1.5681
 5838TIP3   OH217519   5.237   4.154   0.049  0.0433 -0.0698  0.4247
 5838TIP3    H117520   5.281   4.177  -0.033 -2.9523 -0.3356 -1.4217
 5838TIP3    H217521   5.194   4.070   0.030 -0.8413 -0.0618  2.1988
 5839TIP3   OH217522   6.105   5.755   4.510  0.6015  0.0817 -0.1928
 5839TIP3    H117523   6.116   5.660   4.511 -1.7796 -0.2549 -0.0168
 5839TIP3    H217524   6.117   5.781   4.602  2.0735  0.1238 -0.3608
 5840TIP3   OH217525   3.636   3.201   4.303  0.1429 -0.2419 -0.2698
 5840TIP3    H117526   3.647   3.217   4.397 -0.1217  2.5436 -0.6510
 5840TIP3    H217527   3.557   3.147   4.298 -0.2396  0.1439  1.0661
 5841TIP3   OH217528   2.264   2.415   5.085 -0.7115 -0.0103  0.0160
 5841TIP3    H117529   2.284   2.493   5.033  0.7544 -1.0894 -1.0990
 5841TIP3    H217530   2.300   2.434   5.172  1.8338 -0.3659 -0.9010
 5842TIP3   OH217531   2.319   0.453   1.486 -1.0056 -0.2971 -0.1990
 5842TIP3    H117532   2.310   0.395   1.410 -1.4114  1.6869 -1.7522
 5842TIP3    H217533   2.404   0.432   1.523 -1.3557 -2.2137 -0.3836
 5843TIP3   OH217534   3.904   2.690   3.374 -0.0659 -0.0039 -0.3630
 5843TIP3    H117535   3.975   2.626   3.376  0.7596  0.8250 -1.6452
 5843TIP3    H217536   3.939   2.765   3.423 -0.2147  0.2601 -0.6612
 5844TIP3   OH217537   1.243   3.213   3.928 -0.0748  0.2366  0.9073
 5844TIP3    H117538   1.230   3.120   3.913 -0.8151  0.4785 -0.0812
 5844TIP3    H217539   1.288   3.218   4.013  0.6778 -1.0352  0.6068
 5845TIP3   OH217540   5.868   4.301   2.639 -0.4822 -0.0968 -0.1346
 5845TIP3    H117541   5.829   4.294   2.726  1.5974 -0.5544  0.8229
 5845TIP3    H217542   5.866   4.212   2.604  0.2526 -0.2425  0.1830
 5846TIP3   OH217543   2.506   4.043   4.926  0.0142 -0.3848 -0.5904
 5846TIP3    H117544   2.413   4.022   4.921  0.1634 -1.2752  0.2438
 5846TIP3    H217545   2.522   4.059   5.018  0.4662  0.8923 -0.8684
 5847TIP3   OH217546   1.904   1.911   2.723  0.7139 -0.4900 -0.2559
 5847TIP3    H117547   1.830   1.965   2.751 -0.3925  0.1754 -3.9129
 5847TIP3    H217548   1.873   1.821   2.735  0.4956 -0.2719  0.9661
 5848TIP3   OH217549   4.316   4.553   0.895 -0.4859  0.0436  0.0957
 5848TIP3    H117550   4.397   4.505   0.876  0.3058  1.5222 -0.4275
 5848TIP3    H217551   4.338   4.609   0.969 -1.7277 -1.1497  1.4171
 5849TIP3   OH217552   5.204   0.333   0.387  0.5547  0.3972  0.1731
 5849TIP3    H117553   5.165   0.279   0.318  1.6022  1.3699 -1.2342
 5849TIP3    H217554   5.292   0.353   0.355  1.1495  0.7043  1.9059
 5850TIP3   OH217555   4.751   0.127   2.931 -0.3795  0.6634  0.0975
 5850TIP3    H117556   4.801   0.115   2.851  0.7800  2.4935  0.4984
 5850TIP3    H217557   4.670   0.170   2.902  0.6872  2.7095  0.0326
 5851TIP3   OH217558   5.852   0.208   0.208 -0.2201 -0.2627  0.5572
 5851TIP3    H117559   5.777   0.215   0.267 -2.0149 -1.3649 -1.4942
 5851TIP3    H217560   5.863   0.114   0.194  1.4821 -0.1184  0.6878
 5852TIP3   OH217561   5.070   2.981   4.886 -0.4839 -0.1081 -0.2094
 5852TIP3    H117562   5.154   3.020   4.910 -0.7942 -0.8701  2.3938
 5852TIP3    H217563   5.093   2.901   4.839  0.1714  1.1956 -2.2109
 5853TIP3   OH217564   3.035   0.830   1.543  0.1539 -0.0042 -0.2644
 5853TIP3    H117565   3.106   0.804   1.483  1.1778  1.3720  0.2943
 5853TIP3    H217566   2.992   0.747   1.565  2.7598 -1.2036  0.8365
 5854TIP3   OH217567   4.958   3.365   4.370  0.1813 -0.4587 -0.1674
 5854TIP3    H117568   4.872   3.406   4.372  0.2149 -0.2206 -1.9010
 5854TIP3    H217569   5.009   3.413   4.436 -1.4432 -1.7793  2.1769
 5855TIP3   OH217570   2.886   4.709   3.629  0.1104 -0.3114 -0.5468
 5855TIP3    H117571   2.910   4.619   3.649 -2.4856 -0.7994  0.8724
 5855TIP3    H217572   2.943   4.762   3.686  0.1179 -1.1962  0.3019
 5856TIP3   OH217573   4.179   5.114   4.639  0.2344 -0.4467 -0.0572
 5856TIP3    H117574   4.094   5.072   4.624 -0.2426  1.1235 -2.2274
 5856TIP3    H217575   4.168   5.203   4.605  2.1701  0.4415  1.4533
 5857TIP3   OH217576   2.388   4.011   3.345  0.0853  0.4692 -0.6976
 5857TIP3    H117577   2.311   4.033   3.397  0.3171  0.6658 -0.4351
 5857TIP3    H217578   2.438   4.093   3.340  1.4615 -0.1977  1.1464
 5858TIP3   OH217579   1.177   2.749   1.910 -0.5210 -0.2152  0.2201
 5858TIP3    H117580   1.223   2.828   1.938  0.1664 -0.7880  0.7442
 5858TIP3    H217581   1.201   2.737   1.819 -0.5757  0.1414  0.1584
 5859TIP3   OH217582   5.893   5.096   0.295 -0.4772 -0.6350  0.5712
 5859TIP3    H117583   5.946   5.027   0.255 -1.4802  0.2931 -2.6202
 5859TIP3    H217584   5.957   5.158   0.329  0.6229  0.2056 -2.7251
 5860TIP3   OH217585   3.746   3.169   1.203 -0.3224  0.0626 -0.0868
 5860TIP3    H117586   3.773   3.252   1.164 -0.2972 -0.0061 -0.2142
 5860TIP3    H217587   3.686   3.131   1.139  1.3993 -1.0855 -1.0746
 5861TIP3   OH217588   5.597   3.785   1.347  0.0444 -0.2832 -0.4284
 5861TIP3    H117589   5.571   3.874   1.371 -0.3732 -0.5250  0.0440
 5861TIP3    H217590   5.691   3.783   1.360  0.4690  0.8021 -2.7752
 5862TIP3   OH217591   5.823   4.635   1.562  0.4777 -0.2144  0.3761
 5862TIP3    H117592   5.839   4.553   1.609  0.6006 -0.3017  0.1834
 5862TIP3    H217593   5.902   4.649   1.509  0.9596  0.6449  1.2979
 5863TIP3   OH217594   4.738   3.428   3.235 -0.2791 -0.4320 -0.0818
 5863TIP3    H117595   4.657   3.445   3.187  0.7813  1.9780 -1.1778
 5863TIP3    H217596   4.794   3.383   3.172  0.4511  1.0954 -0.5831
 5864TIP3   OH217597   0.449   3.988   2.900 -0.3156 -0.2898 -0.2667
 5864TIP3    H117598   0.465   4.081   2.919  1.9029 -0.1542 -2.3244
 5864TIP3    H217599   0.408   3.988   2.814  0.4273 -1.2121 -0.6422
 5865TIP3   OH217600   5.242   1.760   3.883 -0.1961 -0.0514 -0.0121
 5865TIP3    H117601   5.202   1.846   3.871  0.1453 -0.1005 -1.8726
 5865TIP3    H217602   5.256   1.728   3.794  1.0651 -1.3960  0.6286
 5866TIP3   OH217603   5.830   2.336   2.015 -0.4779  0.0959 -0.1116
 5866TIP3    H117604   5.735   2.335   2.026 -0.5863  0.7914 -0.8741
 5866TIP3    H217605   5.861   2.401   2.079 -0.4742 -0.4023  0.3963
 5867TIP3   OH217606   1.951   3.578   2.868  0.0367 -0.2654 -0.4003
 5867TIP3    H117607   2.027   3.544   2.916 -0.3456  0.4215  0.7324
 5867TIP3    H217608   1.875   3.542   2.914 -0.3524  1.0508  0.0478
 5868TIP3   OH217609   4.388   2.133   5.013 -0.8369  0.2159 -0.0679
 5868TIP3    H117610   4.365   2.064   5.076  0.9538  0.8507  1.3885
 5868TIP3    H217611   4.408   2.086   4.932 -0.2348 -0.9493  0.7215
 5869TIP3   OH217612   1.731   1.070   3.350  0.5664 -0.1711 -0.1653
 5869TIP3    H117613   1.713   1.152   3.304 -1.8271  0.8309  2.2662
 5869TIP3    H217614   1.822   1.077   3.379  0.5023  1.4750 -0.3185
 5870TIP3   OH217615   1.618   0.237   0.151  0.3211  0.2977  0.6374
 5870TIP3    H117616   1.701   0.188   0.150  0.8887  1.2270  0.6611
 5870TIP3    H217617   1.552   0.173   0.124  0.6069 -1.2325  3.1514
 5871TIP3   OH217618   6.058   0.132   0.805  0.5904 -0.3551 -0.2292
 5871TIP3    H117619   6.117   0.192   0.758 -0.0484  0.3706 -0.1108
 5871TIP3    H217620   6.115   0.060   0.832  1.3468  0.1315 -0.4835
 5872TIP3   OH217621   4.664   0.726   3.926 -0.1876  0.4306  0.4635
 5872TIP3    H117622   4.737   0.707   3.985  1.2212  0.8639 -1.0588
 5872TIP3    H217623   4.671   0.659   3.857  0.4366  2.0023 -1.0895
 5873TIP3   OH217624   3.638   2.201   2.987 -0.1147  0.0978  0.6941
 5873TIP3    H117625   3.590   2.185   2.906 -1.6051 -0.9220  1.7295
 5873TIP3    H217626   3.730   2.200   2.961 -0.5579 -0.1883 -0.9672
 5874TIP3   OH217627   2.097   1.956   1.163 -0.6256  0.2371 -0.3550
 5874TIP3    H117628   2.046   1.973   1.084 -0.3269 -1.4753 -0.9541
 5874TIP3    H217629   2.068   2.024   1.224 -2.9309 -0.0572 -0.9900
 5875TIP3   OH217630   1.374   1.890   0.350 -0.1126  0.0792 -0.7797
 5875TIP3    H117631   1.285   1.922   0.369 -0.1486  0.7023 -1.8749
 5875TIP3    H217632   1.398   1.934   0.268  1.8031  1.1124  0.2577
 5876TIP3   OH217633   6.154   1.348   0.085  0.6487  0.0379 -0.2003
 5876TIP3    H117634   6.213   1.420   0.064  2.0946 -0.4715  1.7960
 5876TIP3    H217635   6.086   1.387   0.139  1.1851  0.0024  0.5094
 5877TIP3   OH217636   4.136   3.315   1.937 -0.7300  0.1583  0.6666
 5877TIP3    H117637   4.057   3.279   1.978 -2.2408 -0.1698 -2.2698
 5877TIP3    H217638   4.122   3.410   1.939  0.2114  0.3172  2.6219
 5878TIP3   OH217639   3.888   5.931   2.038 -0.6610  0.1356  0.0747
 5878TIP3    H117640   3.798   5.904   2.052 -0.1099 -0.7960  2.0718
 5878TIP3    H217641   3.941   5.857   2.068  0.7888  1.3280  0.5741
 5879TIP3   OH217642   2.380   4.843   5.016 -0.1247 -0.5970  0.1183
 5879TIP3    H117643   2.299   4.839   5.067  0.2611 -2.5197  0.6540
 5879TIP3    H217644   2.383   4.760   4.969  2.0339 -1.0208  0.9135
 5880TIP3   OH217645   5.901   5.279   5.200  0.2463  0.6375 -0.3262
 5880TIP3    H117646   5.913   5.330   5.120  1.2190  1.6438  0.4483
 5880TIP3    H217647   5.908   5.188   5.171 -1.8839  0.8511 -1.7885
 5881TIP3   OH217648   3.338   1.776   4.966 -0.4657 -0.2576  0.3560
 5881TIP3    H117649   3.330   1.872   4.973  0.3965 -0.0553 -1.0604
 5881TIP3    H217650   3.248   1.744   4.965 -0.7964  0.6493 -0.2543
 5882TIP3   OH217651   1.610   5.088   4.969  0.1229 -0.5748 -0.2723
 5882TIP3    H117652   1.643   5.171   5.002 -0.5836 -0.1581 -0.5833
 5882TIP3    H217653   1.515   5.098   4.971  0.0142 -1.5504  0.1184
 5883TIP3   OH217654   3.498   3.407   1.494  0.5298 -0.0307 -0.2104
 5883TIP3    H117655   3.543   3.491   1.489 -0.1061  0.2953 -0.5416
 5883TIP3    H217656   3.520   3.373   1.581 -0.1799  1.0458  0.4074
 5884TIP3   OH217657   3.452   0.476   0.085 -0.4434  0.6693 -0.3137
 5884TIP3    H117658   3.368   0.431   0.075  0.2836 -0.9638  0.5924
 5884TIP3    H217659   3.508   0.439   0.018  0.9244 -1.7788  2.0142
 5885TIP3   OH217660   4.105   4.769   0.872 -0.6974 -0.3317 -0.0206
 5885TIP3    H117661   4.116   4.851   0.824 -2.6812 -1.3995 -2.4650
 5885TIP3    H217662   4.188   4.723   0.859  0.5119  1.2299  1.5199
 5886TIP3   OH217663   6.063   1.967   5.036 -0.1459 -0.2812 -0.1513
 5886TIP3    H117664   6.140   1.963   5.094 -0.4084 -0.7104  0.1781
 5886TIP3    H217665   5.996   2.011   5.088 -0.0435  0.3445 -0.5394
 5887TIP3   OH217666   6.044   2.843   0.887 -0.3397 -0.5519  0.5615
 5887TIP3    H117667   5.968   2.808   0.839  0.0728  0.0709 -0.5830
 5887TIP3    H217668   6.007   2.912   0.941 -0.8411 -1.3756  1.3018
 5888TIP3   OH217669   6.067   3.730   3.415  0.0443  0.2756  0.6086
 5888TIP3    H117670   6.034   3.654   3.464 -0.5367  0.6563  0.8208
 5888TIP3    H217671   6.145   3.758   3.464  0.7394 -0.6632  0.0734
 5889TIP3   OH217672   4.519   2.783   2.962  0.0376  0.4950 -0.4524
 5889TIP3    H117673   4.566   2.859   2.928  0.5493  0.7463  0.7733
 5889TIP3    H217674   4.430   2.793   2.928  0.2503  1.3272 -0.7903
 5890TIP3   OH217675   5.158   5.092   5.144  0.3471 -0.2936 -0.2336
 5890TIP3    H117676   5.073   5.135   5.151  1.4300  2.0541 -0.6229
 5890TIP3    H217677   5.184   5.104   5.053  1.0293 -1.2083 -0.1809
 5891TIP3   OH217678   1.611   4.607   2.352 -0.1350 -0.3989 -0.1241
 5891TIP3    H117679   1.577   4.529   2.309  0.9468 -1.1113  0.2936
 5891TIP3    H217680   1.617   4.583   2.444  0.2887  0.1570 -0.0013
 5892TIP3   OH217681   0.030   1.979   0.755 -0.0683  0.3079 -0.3206
 5892TIP3    H117682   0.008   1.916   0.824 -0.5289  0.2244 -0.5428
 5892TIP3    H217683   0.119   2.007   0.777  0.3623 -0.8273 -0.5052
 5893TIP3   OH217684   5.758   3.840   4.634  0.3499 -0.1013 -0.0402
 5893TIP3    H117685   5.783   3.857   4.543  1.4938  1.6258  0.5412
 5893TIP3    H217686   5.664   3.856   4.637 -0.1692 -2.4378 -1.3594
 5894TIP3   OH217687   4.563   4.884   1.631 -0.3464 -0.9572  0.3865
 5894TIP3    H117688   4.644   4.895   1.681  0.9246 -1.7833 -1.3811
 5894TIP3    H217689   4.501   4.846   1.694  0.8025 -0.8500  1.6308
 5895TIP3   OH217690   1.128   1.643   4.756 -0.6867  0.1064  0.3322
 5895TIP3    H117691   1.140   1.625   4.849 -0.3935  2.5171  0.8236
 5895TIP3    H217692   1.199   1.703   4.734 -1.3793  0.4102 -1.1996
 5896TIP3   OH217693   6.316   1.754   4.005  0.1695 -0.7424 -0.5962
 5896TIP3    H117694   6.319   1.760   4.100  0.3975  0.0936 -0.6463
 5896TIP3    H217695   6.273   1.835   3.978  2.3839  0.2653 -1.3367
 5897TIP3   OH217696   6.099   4.568   0.638 -0.5906  0.3387  0.7070
 5897TIP3    H117697   6.128   4.477   0.637  2.8005  1.2720 -1.2256
 5897TIP3    H217698   6.029   4.572   0.574  0.0211 -0.7330 -0.0668
 5898TIP3   OH217699   3.127   4.630   4.144  0.6101 -0.0659  0.4690
 5898TIP3    H117700   3.122   4.597   4.234  1.0279  0.5798  0.7330
 5898TIP3    H217701   3.052   4.689   4.137  0.0701 -0.7738  0.1081
 5899TIP3   OH217702   3.148   0.975   1.737  0.1660  0.6064 -0.2255
 5899TIP3    H117703   3.125   0.905   1.676  0.6829  1.4844 -1.4688
 5899TIP3    H217704   3.158   1.053   1.682  0.7924  1.4032  0.9625
 5900TIP3   OH217705   5.135   4.573   0.256  0.2650 -0.1454 -0.9274
 5900TIP3    H117706   5.190   4.495   0.264  0.2177 -0.0004  1.8157
 5900TIP3    H217707   5.067   4.560   0.323 -1.0871  1.2099 -1.9910
 5901TIP3   OH217708   6.274   0.572   0.424 -0.4508  0.0447  0.0569
 5901TIP3    H117709   6.352   0.518   0.424 -0.9447 -0.8453 -2.5719
 5901TIP3    H217710   6.299   0.651   0.376 -0.3552  1.1947  1.9174
 5902TIP3   OH217711   3.629   4.567   3.207 -0.2825  0.6999 -0.2413
 5902TIP3    H117712   3.547   4.577   3.257  0.0041 -0.7763  0.5783
 5902TIP3    H217713   3.690   4.529   3.270  0.3083 -0.5568 -1.5280
 5903TIP3   OH217714   2.166   5.921   2.152 -0.1204 -0.0999  0.1459
 5903TIP3    H117715   2.196   5.934   2.242 -0.1455  0.8763  0.0246
 5903TIP3    H217716   2.132   6.006   2.126 -0.6484 -0.5305 -0.5949
 5904TIP3   OH217717   3.845   4.733   0.462  0.0117 -0.4904 -0.3883
 5904TIP3    H117718   3.842   4.691   0.376 -0.9869 -2.1965  0.4252
 5904TIP3    H217719   3.928   4.780   0.463  0.2283 -0.7646 -2.1225
 5905TIP3   OH217720   4.974   0.807   2.219  0.2316  1.3373 -0.1938
 5905TIP3    H117721   5.038   0.807   2.148 -0.0020  1.4170 -0.4012
 5905TIP3    H217722   4.912   0.738   2.196 -0.2077  1.7969 -0.3921
 5906TIP3   OH217723   3.636   5.887   2.770 -0.1321  0.0035  0.0717
 5906TIP3    H117724   3.597   5.799   2.769  1.1725 -0.6036  0.3263
 5906TIP3    H217725   3.729   5.871   2.783  1.1350  1.0117 -5.2482
 5907TIP3   OH217726   0.447   0.938   1.800  0.3573  0.3187 -0.0661
 5907TIP3    H117727   0.411   0.870   1.743 -0.3008  0.5397  0.0802
 5907TIP3    H217728   0.490   0.999   1.741  1.6548 -0.6284 -0.1421
 5908TIP3   OH217729   4.627   3.534   0.454  0.6286 -0.0344  0.1097
 5908TIP3    H117730   4.616   3.500   0.365 -0.1743 -0.8882  0.5270
 5908TIP3    H217731   4.544   3.516   0.497  2.2033 -3.1203  2.2021
 5909TIP3   OH217732   1.331   5.415   0.693 -0.0681  0.0308  0.3966
 5909TIP3    H117733   1.286   5.498   0.706 -0.4483  0.3448 -2.3155
 5909TIP3    H217734   1.346   5.410   0.599  1.9569 -1.9691  0.7234
 5910TIP3   OH217735   2.045   2.888   2.053 -0.0623  0.2031 -0.2845
 5910TIP3    H117736   2.072   2.902   2.144  1.8620 -0.9742 -0.6272
 5910TIP3    H217737   1.975   2.823   2.059 -0.0809  0.2775  0.3621
 5911TIP3   OH217738   3.971   2.699   0.385 -0.2477 -0.6506  0.1057
 5911TIP3    H117739   3.944   2.620   0.338 -0.2915 -0.5858  0.0211
 5911TIP3    H217740   3.986   2.670   0.475  0.8406 -0.9882 -0.1672
 5912TIP3   OH217741   3.105   4.214   2.288  0.4592 -0.0701  0.0410
 5912TIP3    H117742   3.133   4.294   2.333  0.7877  0.1591 -0.5636
 5912TIP3    H217743   3.111   4.146   2.355  2.1044  0.0436  0.0457
 5913TIP3   OH217744   6.314   0.594   2.988  0.0622 -0.6088  0.1002
 5913TIP3    H117745   6.271   0.679   2.987  0.1383 -0.5545 -1.6501
 5913TIP3    H217746   6.405   0.613   3.012 -0.0955 -0.3025  0.4579
 5914TIP3   OH217747   1.122   1.049   2.148 -0.4840  0.2513  0.3938
 5914TIP3    H117748   1.184   1.101   2.198  0.3127 -0.1553 -0.1500
 5914TIP3    H217749   1.036   1.080   2.176 -0.0358  0.8836  1.0898
 5915TIP3   OH217750   4.655   3.488   4.683 -0.2672  0.0784 -0.3870
 5915TIP3    H117751   4.580   3.429   4.676  0.1329 -0.5685  0.5302
 5915TIP3    H217752   4.720   3.438   4.732 -0.1866  1.5339  1.0720
 5916TIP3   OH217753   1.912   1.930   3.432 -0.0919 -0.3448  0.1175
 5916TIP3    H117754   1.912   1.836   3.416 -3.7102 -0.4042 -0.2926
 5916TIP3    H217755   1.957   1.941   3.515  1.0473 -2.3151 -0.1805
 5917TIP3   OH217756   0.503   3.510   2.960 -0.4028 -0.4546 -0.1841
 5917TIP3    H117757   0.545   3.591   2.986 -2.3485  0.5334  0.0591
 5917TIP3    H217758   0.503   3.456   3.039 -2.9324  1.0577  0.9585
 5918TIP3   OH217759   4.346   2.407   3.723 -0.3559 -0.2199  0.0766
 5918TIP3    H117760   4.399   2.327   3.725  0.0799 -0.0098 -1.4335
 5918TIP3    H217761   4.402   2.474   3.762 -0.5415 -0.5389  0.9101
 5919TIP3   OH217762   6.148   4.467   4.343  0.1363 -0.0137  0.4413
 5919TIP3    H117763   6.237   4.503   4.349 -0.4161  1.1806  4.2483
 5919TIP3    H217764   6.160   4.372   4.347  1.2399  0.0507 -0.5538
 5920TIP3   OH217765   5.659   4.503   4.961  0.1671  0.5664  0.0157
 5920TIP3    H117766   5.728   4.441   4.939  2.0141  2.1593  0.9655
 5920TIP3    H217767   5.612   4.518   4.879 -0.5400 -2.2164 -0.1788
 5921TIP3   OH217768   1.571   2.610   4.895  0.2394  0.1700  0.3491
 5921TIP3    H117769   1.661   2.584   4.915 -0.0815 -1.6170 -0.2824
 5921TIP3    H217770   1.578   2.696   4.855  1.6195  0.2679  0.7748
 5922TIP3   OH217771   2.315   3.346   1.366  0.1952  0.8370  0.2421
 5922TIP3    H117772   2.310   3.251   1.376  0.4649  0.7132 -0.6879
 5922TIP3    H217773   2.332   3.379   1.454 -2.4509  0.2329  1.0421
 5923TIP3   OH217774   2.253   3.633   3.880  0.7358 -0.4247  0.5903
 5923TIP3    H117775   2.299   3.553   3.905  1.9383  0.0189 -0.1479
 5923TIP3    H217776   2.319   3.688   3.839 -0.4280  0.2637 -0.4478
 5924TIP3   OH217777   3.678   1.077   0.538  0.1181 -0.1993 -0.4534
 5924TIP3    H117778   3.607   1.015   0.552  0.9938 -0.8227  1.8600
 5924TIP3    H217779   3.757   1.022   0.531  0.3677  0.3616 -4.4629
 5925TIP3   OH217780   5.444   0.901   4.114 -0.4200 -0.1258  0.0771
 5925TIP3    H117781   5.529   0.927   4.148 -0.7395  2.5671 -0.9324
 5925TIP3    H217782   5.461   0.820   4.067  1.1214 -0.7916  1.6477
 5926TIP3   OH217783   1.542   2.162   1.547  0.5230 -0.5163 -0.0536
 5926TIP3    H117784   1.462   2.208   1.573  1.9511  1.3604  1.3975
 5926TIP3    H217785   1.605   2.232   1.531  2.2591 -1.9536  0.2095
 5927TIP3   OH217786   1.497   4.468   0.127 -0.2438  0.1256  0.1673
 5927TIP3    H117787   1.587   4.441   0.144  1.1498  1.1749 -4.2729
 5927TIP3    H217788   1.445   4.389   0.140  2.0534 -1.7919 -1.5789
 5928TIP3   OH217789   2.002   4.415   4.948  0.0841 -0.4191  0.0688
 5928TIP3    H117790   1.948   4.392   4.872  0.5708 -1.0952 -0.0791
 5928TIP3    H217791   1.950   4.481   4.994 -1.5208 -2.0045  0.6601
 5929TIP3   OH217792   5.909   2.484   1.762 -0.0023  0.1802  0.5581
 5929TIP3    H117793   5.870   2.422   1.824  1.1260 -0.6936  0.4281
 5929TIP3    H217794   5.988   2.516   1.806  0.5447 -0.0760 -0.2026
 5930TIP3   OH217795   4.762   1.450   3.377  1.0785 -0.3166  0.3145
 5930TIP3    H117796   4.816   1.469   3.454  2.4574  1.5234 -1.0218
 5930TIP3    H217797   4.675   1.482   3.401  1.5820  0.6306  0.9711
 5931TIP3   OH217798   0.056   4.717   4.488 -0.1706 -0.7976  0.1441
 5931TIP3    H117799   0.141   4.756   4.511  0.1459 -1.4191  0.0301
 5931TIP3    H217800   0.053   4.722   4.393 -1.2054  1.1876  0.2105
 5932TIP3   OH217801   4.797   2.490   3.385 -0.1798 -0.0081 -0.0635
 5932TIP3    H117802   4.786   2.429   3.312  1.2317  2.2008 -2.2589
 5932TIP3    H217803   4.798   2.576   3.345 -1.2098  1.5018  2.8153
 5933TIP3   OH217804   2.365   1.748   0.006 -0.0099  0.0583 -0.7580
 5933TIP3    H117805   2.311   1.804   0.062 -0.4745 -1.3890  0.3020
 5933TIP3    H217806   2.352   1.660   0.041  2.5156 -0.4346 -0.9243
 5934TIP3   OH217807   4.550   4.034   4.589  0.0722 -0.5563  0.0486
 5934TIP3    H117808   4.639   4.025   4.624 -0.2737 -2.1351  0.5868
 5934TIP3    H217809   4.550   3.982   4.509 -0.2768 -0.2376 -0.1647
 5935TIP3   OH217810   1.298   2.785   1.641  0.3771  0.6144 -0.6287
 5935TIP3    H117811   1.273   2.805   1.551 -0.5626  0.8635 -0.3322
 5935TIP3    H217812   1.360   2.854   1.665  2.0078 -0.4492 -1.6373
 5936TIP3   OH217813   4.787   2.780   0.150 -0.2351  0.3119  0.3231
 5936TIP3    H117814   4.737   2.843   0.097  0.0795  0.6614  0.4397
 5936TIP3    H217815   4.723   2.747   0.214 -1.2970 -1.8891 -1.7042
 5937TIP3   OH217816   4.507   0.876   2.591  0.0830  0.1018 -0.1775
 5937TIP3    H117817   4.428   0.919   2.623  0.4109 -0.4623  1.4999
 5937TIP3    H217818   4.548   0.941   2.533 -1.8911  0.1560 -1.6146
 5938TIP3   OH217819   3.544   3.635   2.823  0.5994  0.0632 -0.4699
 5938TIP3    H117820   3.460   3.680   2.836  0.5709 -0.3356  0.8751
 5938TIP3    H217821   3.520   3.548   2.792  0.5883  0.4134 -1.4767
 5939TIP3   OH217822   3.075   0.508   2.923  0.4438  0.4452  1.0438
 5939TIP3    H117823   3.143   0.543   2.866 -0.9142 -0.8528 -1.5643
 5939TIP3    H217824   3.111   0.518   3.011  3.3088  1.2434 -0.0728
 5940TIP3   OH217825   0.799   3.813   3.986  0.3768  0.0026  0.1721
 5940TIP3    H117826   0.705   3.805   3.971  0.3928  1.8352 -1.1904
 5940TIP3    H217827   0.813   3.770   4.070 -1.2741 -2.3674 -0.6595
 5941TIP3   OH217828   5.648   4.782   2.810 -0.6762 -0.9587 -0.2688
 5941TIP3    H117829   5.604   4.791   2.725  0.4137  0.5399 -0.7120
 5941TIP3    H217830   5.712   4.853   2.812  1.2669 -2.6250  0.6375
 5942TIP3   OH217831   6.152   3.243   2.678 -0.3718  0.2562 -0.0566
 5942TIP3    H117832   6.185   3.204   2.759 -0.6663  0.7095  0.2852
 5942TIP3    H217833   6.156   3.172   2.614  1.2532  0.2794 -0.0278
 5943TIP3   OH217834   5.903   4.657   3.295 -0.5406 -0.5463  0.2283
 5943TIP3    H117835   5.943   4.580   3.334  0.9437 -0.2545 -0.6786
 5943TIP3    H217836   5.809   4.640   3.300 -0.2513 -2.1789  0.4860
 5944TIP3   OH217837   0.037   0.335   1.527 -0.3241 -0.3004 -0.2723
 5944TIP3    H117838   0.084   0.252   1.519  1.4063  0.2591  2.5853
 5944TIP3    H217839  -0.054   0.310   1.542  0.1015 -1.6736  0.1276
 5945TIP3   OH217840   2.117   2.966   4.365  0.1136 -0.0340  0.0928
 5945TIP3    H117841   2.201   2.974   4.319  0.7131  0.6541  1.2516
 5945TIP3    H217842   2.054   2.944   4.297  1.4429 -1.8792 -0.6252
 5946TIP3   OH217843   5.633   0.555   2.896  0.4508  0.2071 -0.2376
 5946TIP3    H117844   5.607   0.513   2.978  2.8462 -0.9853  0.0017
 5946TIP3    H217845   5.594   0.501   2.828  0.2436 -0.0725  0.0968
 5947TIP3   OH217846   1.296   5.051   4.540  0.3123  0.4143  0.3418
 5947TIP3    H117847   1.299   4.956   4.539  0.1699  0.3573 -2.7164
 5947TIP3    H217848   1.368   5.078   4.484 -0.2038  2.0939  0.4241
 5948TIP3   OH217849   5.219   0.857   1.604 -0.8304  0.4610 -0.2630
 5948TIP3    H117850   5.133   0.836   1.565  0.0855 -0.3982 -1.9375
 5948TIP3    H217851   5.237   0.783   1.662 -1.5341  1.0159  0.6975
 5949TIP3   OH217852   2.012   5.597   2.746 -0.4572 -0.1548 -0.9996
 5949TIP3    H117853   1.995   5.691   2.757  0.7962  0.0243 -0.4006
 5949TIP3    H217854   1.950   5.569   2.679  0.3318  1.5015 -2.5208
 5950TIP3   OH217855   0.167   4.806   0.695 -0.0516  0.0285 -0.0280
 5950TIP3    H117856   0.199   4.870   0.631  1.9700 -1.6093 -0.7813
 5950TIP3    H217857   0.222   4.820   0.772 -0.0345 -0.3400  0.0302
 5951TIP3   OH217858   0.165   2.821   4.133  0.0115  0.6554 -0.3580
 5951TIP3    H117859   0.089   2.800   4.078 -0.4509  1.1896  0.0691
 5951TIP3    H217860   0.129   2.831   4.221  1.0024 -2.1079  0.4613
 5952TIP3   OH217861   3.329   3.951   4.282 -0.2492 -0.0882  0.1200
 5952TIP3    H117862   3.358   3.999   4.360  1.2938 -0.6274 -0.0804
 5952TIP3    H217863   3.317   4.019   4.215  0.4884  0.1811  0.2456
 5953TIP3   OH217864   1.480   4.816   1.910 -0.1604  0.1730  0.3388
 5953TIP3    H117865   1.419   4.757   1.954  0.5788 -0.5500  0.4295
 5953TIP3    H217866   1.442   4.831   1.824 -0.6767  0.0788  0.5472
 5954TIP3   OH217867   3.374   0.596   5.145 -0.0513 -0.0028 -0.0672
 5954TIP3    H117868   3.373   0.653   5.068 -0.5682  0.7051  0.4556
 5954TIP3    H217869   3.424   0.644   5.210 -0.2823 -0.2528  0.2995
 5955TIP3   OH217870   0.797   1.967   3.610  0.3288 -0.2728  0.4781
 5955TIP3    H117871   0.706   1.991   3.631 -0.0142 -1.1731  0.1048
 5955TIP3    H217872   0.790   1.917   3.528  1.2775  0.4543 -0.0638
 5956TIP3   OH217873   1.356   0.705   2.384  0.1360 -0.4122  0.3372
 5956TIP3    H117874   1.340   0.708   2.479 -1.7411 -0.0303  0.0553
 5956TIP3    H217875   1.279   0.747   2.346 -0.2767 -2.6279 -1.4687
 5957TIP3   OH217876   2.495   2.270   1.836  0.0343 -0.0756  0.2268
 5957TIP3    H117877   2.577   2.238   1.874 -0.3900 -1.4738  0.0128
 5957TIP3    H217878   2.468   2.340   1.894  1.6298  0.7600  0.0287
 5958TIP3   OH217879   1.369   4.802   0.716  0.3751  0.4495 -0.0512
 5958TIP3    H117880   1.384   4.714   0.750 -0.3340  1.3026  2.8050
 5958TIP3    H217881   1.447   4.851   0.742  0.2147  0.9441 -0.4933
 5959TIP3   OH217882   1.282   4.838   0.443 -0.1222  0.2952 -0.1872
 5959TIP3    H117883   1.321   4.789   0.370  0.2012  1.0190 -0.5159
 5959TIP3    H217884   1.327   4.805   0.521  1.8044  1.7026 -0.6425
 5960TIP3   OH217885   2.158   2.206   3.696  0.6299 -0.0024  0.0879
 5960TIP3    H117886   2.184   2.293   3.666 -3.3339  0.8290 -1.4126
 5960TIP3    H217887   2.178   2.148   3.623  0.7139  0.1184  0.0146
 5961TIP3   OH217888   4.991   1.492   0.498  0.0342 -0.1646  0.7557
 5961TIP3    H117889   4.976   1.487   0.593  1.8751  0.4779  1.1315
 5961TIP3    H217890   4.905   1.513   0.461 -0.9052 -1.2972  2.1776
 5962TIP3   OH217891   5.651   0.723   2.202  0.0263 -0.3094 -0.6960
 5962TIP3    H117892   5.622   0.766   2.282 -0.6365 -1.6004 -0.2142
 5962TIP3    H217893   5.606   0.638   2.202 -1.3401  0.3105 -3.2645
 5963TIP3   OH217894   1.747   3.948   2.567  0.1002  0.0003  0.3847
 5963TIP3    H117895   1.740   3.998   2.648  2.1855  0.0887  0.5647
 5963TIP3    H217896   1.723   3.858   2.591  0.5083  0.0701  1.0487
 5964TIP3   OH217897   4.011   3.514   2.767 -0.2422  0.2903 -0.8301
 5964TIP3    H117898   4.059   3.468   2.698 -0.5520  0.1786 -0.9726
 5964TIP3    H217899   4.047   3.478   2.849 -1.1521 -0.9268 -0.9405
 5965TIP3   OH217900   1.963   1.410   0.755 -0.5428  0.1686 -0.7395
 5965TIP3    H117901   1.877   1.412   0.797  0.3692 -0.1869  1.2986
 5965TIP3    H217902   1.962   1.483   0.694 -2.1577  0.4021 -0.4756
 5966TIP3   OH217903   6.153   2.324   4.448 -0.8762  0.3307  0.6146
 5966TIP3    H117904   6.216   2.396   4.452 -2.0122  1.3288  1.2078
 5966TIP3    H217905   6.139   2.310   4.354  1.0685 -0.7012  0.4375
 5967TIP3   OH217906   6.205   3.399   4.689 -0.3228 -0.2574  0.3822
 5967TIP3    H117907   6.176   3.309   4.707  0.1127 -0.3421  0.6576
 5967TIP3    H217908   6.156   3.452   4.751  0.3326 -0.4340  1.0632
 5968TIP3   OH217909   1.373   4.016   3.877 -1.0268 -0.9017  0.4768
 5968TIP3    H117910   1.372   3.928   3.838  0.8143 -0.1568 -1.4674
 5968TIP3    H217911   1.444   4.012   3.941 -1.0516 -0.8897  0.5047
 5969TIP3   OH217912   3.392   1.948   4.683  0.3317  0.2818 -0.1231
 5969TIP3    H117913   3.405   1.861   4.646  0.9277  0.5271 -0.5046
 5969TIP3    H217914   3.302   1.947   4.716  0.3147 -0.4541 -0.1782
 5970TIP3   OH217915   4.875   4.224   1.442  0.1930 -0.0006  0.0710
 5970TIP3    H117916   4.966   4.247   1.420  0.5749 -1.9468 -0.5641
 5970TIP3    H217917   4.874   4.129   1.442 -2.1722 -0.0438 -1.2527
 5971TIP3   OH217918   1.180   3.865  -0.004  0.5907 -0.5517 -0.1904
 5971TIP3    H117919   1.137   3.818   0.068 -0.6494 -1.1455 -1.2875
 5971TIP3    H217920   1.270   3.831  -0.003  1.4949  1.4823  2.8097
 5972TIP3   OH217921   1.191   1.399   3.119 -0.3501 -0.0758 -0.1917
 5972TIP3    H117922   1.126   1.460   3.084 -1.7256 -2.1996 -1.5791
 5972TIP3    H217923   1.275   1.443   3.104 -1.3339  2.1953  0.4860
 5973TIP3   OH217924   3.272   0.755   3.796 -0.0774  0.0998 -0.2228
 5973TIP3    H117925   3.325   0.711   3.862 -0.3930  0.3124  0.1824
 5973TIP3    H217926   3.195   0.699   3.786 -0.6559  0.7224  0.5635
 5974TIP3   OH217927   1.097   2.723   3.052  0.0892  0.3812 -0.4113
 5974TIP3    H117928   1.114   2.784   3.124 -0.7307  0.2986 -0.1438
 5974TIP3    H217929   1.004   2.734   3.033  0.4953  1.1130 -2.1215
 5975TIP3   OH217930   3.154   5.919   1.109 -0.3730 -0.0618 -0.0784
 5975TIP3    H117931   3.110   5.881   1.033 -2.1986 -0.4645  1.1133
 5975TIP3    H217932   3.174   6.009   1.084 -1.3513 -0.0547 -0.8742
 5976TIP3   OH217933   0.399   4.770   4.717  0.3342  0.3525 -0.3153
 5976TIP3    H117934   0.386   4.826   4.640  2.2134  0.4292 -0.6460
 5976TIP3    H217935   0.320   4.781   4.769 -0.4915  1.1978 -1.6856
 5977TIP3   OH217936   4.965   0.170   1.289  0.5352 -0.1674 -0.3893
 5977TIP3    H117937   5.026   0.119   1.236  2.0028 -0.0039  1.0791
 5977TIP3    H217938   5.014   0.247   1.317 -0.5240  0.2706  0.3551
 5978TIP3   OH217939   4.241   3.899   4.482  0.0786 -0.0704 -0.4044
 5978TIP3    H117940   4.324   3.895   4.435  0.3656  1.8682 -0.1195
 5978TIP3    H217941   4.214   3.807   4.490  3.0461 -0.9677  1.0106
 5979TIP3   OH217942   2.648   4.697   2.343  0.2829 -0.2549 -0.6987
 5979TIP3    H117943   2.645   4.749   2.423  1.8601 -1.8079  0.4505
 5979TIP3    H217944   2.557   4.679   2.323 -0.1507 -0.1515  0.9991
 5980TIP3   OH217945   0.393   3.930   1.702  0.2835  0.4048  0.4986
 5980TIP3    H117946   0.319   3.990   1.708 -0.7144 -0.8224  0.8473
 5980TIP3    H217947   0.388   3.877   1.781 -1.1759 -2.6781 -1.4662
 5981TIP3   OH217948   2.511   2.252   3.401 -0.0243  0.3257  0.3934
 5981TIP3    H117949   2.460   2.308   3.342  0.9358 -0.7437 -1.5754
 5981TIP3    H217950   2.593   2.300   3.413  0.8381 -0.5816 -1.3736
 5982TIP3   OH217951   2.409   2.496   0.569 -0.0471  0.4903 -0.2642
 5982TIP3    H117952   2.377   2.512   0.480  1.0280  2.1553 -0.3880
 5982TIP3    H217953   2.482   2.434   0.557 -0.6649 -0.2190 -0.4010
 5983TIP3   OH217954   0.555   1.761   0.394  0.4405 -0.7970  0.7429
 5983TIP3    H117955   0.606   1.681   0.382  1.3256 -0.3624  1.4930
 5983TIP3    H217956   0.614   1.831   0.367 -0.5064 -0.4016 -0.4148
 5984TIP3   OH217957   3.377   4.206   2.692 -0.0549  0.4511 -0.1286
 5984TIP3    H117958   3.348   4.297   2.698 -0.4419  0.3118  0.1487
 5984TIP3    H217959   3.468   4.211   2.661 -0.4677  0.8809 -1.3339
 5985TIP3   OH217960   2.025   2.169   2.054  0.0282 -0.3412 -0.0129
 5985TIP3    H117961   2.050   2.168   1.962  1.2700  0.0994  0.2991
 5985TIP3    H217962   1.929   2.160   2.053  0.1314 -1.7663 -1.2709
 5986TIP3   OH217963   1.518   2.313   0.411  0.2248 -0.0019 -0.1882
 5986TIP3    H117964   1.451   2.365   0.456  3.0354  2.9060  1.0808
 5986TIP3    H217965   1.506   2.332   0.318 -1.0957 -0.1254 -0.0596
 5987TIP3   OH217966   3.443   4.030   1.755  0.0319 -0.4315  0.2330
 5987TIP3    H117967   3.447   3.991   1.667 -1.4530  0.0747 -0.0920
 5987TIP3    H217968   3.507   4.101   1.753 -2.0162  1.5488 -1.5213
 5988TIP3   OH217969   2.014   1.413   4.171  0.0609  0.2521 -0.1456
 5988TIP3    H117970   1.964   1.346   4.216  1.2322  0.0209  0.8726
 5988TIP3    H217971   2.059   1.461   4.241 -0.2789  1.7127 -0.8933
 5989TIP3   OH217972   1.671   0.817   4.414 -1.3574  0.5273 -0.3766
 5989TIP3    H117973   1.707   0.730   4.430 -1.3627  0.1566 -2.0948
 5989TIP3    H217974   1.642   0.848   4.499 -2.9124 -1.8550  0.0518
 5990TIP3   OH217975   4.717   5.964   1.166 -0.1165  0.4615 -0.1341
 5990TIP3    H117976   4.679   6.046   1.197  0.5040  0.2189  1.3777
 5990TIP3    H217977   4.661   5.896   1.203 -0.0909  0.1707 -0.6167
 5991TIP3   OH217978   4.123   4.012   4.771 -0.0990  0.5706  0.1435
 5991TIP3    H117979   4.077   3.929   4.760  0.9001  0.0906 -0.5774
 5991TIP3    H217980   4.060   4.078   4.742 -0.1061 -0.1263 -1.5974
 5992TIP3   OH217981   5.416   2.969   1.221 -0.2570  0.5438 -0.0212
 5992TIP3    H117982   5.479   2.904   1.250 -1.3812 -0.4978  0.1884
 5992TIP3    H217983   5.455   3.008   1.143  1.3035  1.0078  0.9610
 5993TIP3   OH217984   4.272   1.910   2.642 -1.0922  0.1501 -0.0757
 5993TIP3    H117985   4.360   1.904   2.604 -1.1051 -0.1829 -0.0580
 5993TIP3    H217986   4.223   1.964   2.581 -1.3695 -1.1084 -1.0215
 5994TIP3   OH217987   4.737   3.866   1.738 -0.4075  0.2027 -0.0252
 5994TIP3    H117988   4.742   3.955   1.772 -0.6486  0.5799 -0.9635
 5994TIP3    H217989   4.767   3.873   1.648  0.0043 -0.7507  0.0222
 5995TIP3   OH217990   0.874   5.642   3.613 -0.0721 -0.3009  0.1364
 5995TIP3    H117991   0.806   5.598   3.561 -0.5605  0.3262  0.2295
 5995TIP3    H217992   0.885   5.586   3.690 -0.3220 -0.5276  0.0076
 5996TIP3   OH217993   1.557   5.778   4.938  0.3231  0.0945 -0.3412
 5996TIP3    H117994   1.481   5.758   4.883  0.0683 -2.5812  0.8102
 5996TIP3    H217995   1.523   5.775   5.028  1.7439 -1.2858  0.2038
 5997TIP3   OH217996   3.614   3.102   0.141  0.4148  0.4452  0.3256
 5997TIP3    H117997   3.656   3.180   0.176  1.9612 -0.0246 -0.4156
 5997TIP3    H217998   3.551   3.076   0.208  0.7539  1.6246  1.1193
 5998TIP3   OH217999   4.096   0.252   1.199 -0.0919  0.0838  0.7063
 5998TIP3    H118000   4.170   0.301   1.162  1.2948 -0.8705  2.0480
 5998TIP3    H218001   4.033   0.320   1.225  0.6399  0.9874  0.2075
 5999TIP3   OH218002   1.256   4.012   3.089 -0.3219 -0.1667  0.3653
 5999TIP3    H118003   1.221   3.932   3.050  0.2208 -0.3240  0.1907
 5999TIP3    H218004   1.340   4.025   3.045 -0.0711  0.0940  0.9186
 6000TIP3   OH218005   1.010   5.976   2.816  0.3654 -0.7465 -0.2873
 6000TIP3    H118006   1.049   5.899   2.858  1.3865  0.2507  0.6502
 6000TIP3    H218007   1.071   5.998   2.745  0.9360  0.1388  0.4613
 6001TIP3   OH218008   3.684   4.935   1.185  0.0772 -0.0054 -0.4517
 6001TIP3    H118009   3.777   4.938   1.163  0.1292  0.8067 -0.1581
 6001TIP3    H218010   3.660   4.843   1.177  0.6369 -0.0690 -1.6466
 6002TIP3   OH218011   0.953   0.009   3.044  0.0793  0.4125 -0.2409
 6002TIP3    H118012   0.876   0.001   3.100  0.8441 -1.5284  0.6305
 6002TIP3    H218013   1.015   0.060   3.096  0.0549  0.3494 -0.1492
 6003TIP3   OH218014   1.589   0.742   2.779  0.5234  0.5360 -0.4466
 6003TIP3    H118015   1.616   0.779   2.695 -0.1685  2.4158  0.1214
 6003TIP3    H218016   1.547   0.814   2.826  0.6334 -0.5286  1.4166
 6004TIP3   OH218017   4.012   0.165   3.947 -0.6050 -0.3509 -0.1304
 6004TIP3    H118018   3.995   0.076   3.917  1.7403 -0.6589 -0.6955
 6004TIP3    H218019   4.066   0.205   3.879 -0.9125  1.2410  0.4982
 6005TIP3   OH218020   5.064   3.017   3.838 -0.1779  0.3315 -0.6439
 6005TIP3    H118021   5.146   3.046   3.799 -0.9237 -0.1947 -2.7315
 6005TIP3    H218022   5.086   2.933   3.879 -0.0628 -0.9432 -3.1179
 6006TIP3   OH218023   0.954   4.194   2.264  0.1785  0.4165  0.1404
 6006TIP3    H118024   0.920   4.272   2.306 -1.5786 -1.0597  1.6077
 6006TIP3    H218025   0.997   4.145   2.334  1.8919  0.3341 -0.8913
 6007TIP3   OH218026   4.235   0.739   1.634 -0.5225 -0.3373  0.0897
 6007TIP3    H118027   4.204   0.761   1.546 -0.8772  1.3685  0.6067
 6007TIP3    H218028   4.305   0.675   1.619 -0.6300 -0.1354 -1.4273
 6008TIP3   OH218029   5.220   5.357   4.471 -0.0400 -0.0789 -0.3036
 6008TIP3    H118030   5.240   5.300   4.396  1.2827  0.2423 -0.2164
 6008TIP3    H218031   5.304   5.393   4.497 -0.5897  0.3915  0.8925
 6009TIP3   OH218032   1.229   0.382   2.799  0.0877 -0.4007 -0.3093
 6009TIP3    H118033   1.148   0.387   2.850  0.1901 -0.4938 -0.1372
 6009TIP3    H218034   1.200   0.381   2.708 -0.0074  3.2100 -0.4401
 6010TIP3   OH218035   5.444   0.973   3.808  0.1642  0.2570  0.0207
 6010TIP3    H118036   5.391   0.958   3.887  0.1984 -0.4305 -0.0755
 6010TIP3    H218037   5.531   0.943   3.833  0.3539  0.7696 -0.0317
 6011TIP3   OH218038   5.377   5.447   5.096  0.4500  0.0599  0.2752
 6011TIP3    H118039   5.348   5.536   5.113 -0.3728 -0.2815  0.7310
 6011TIP3    H218040   5.422   5.419   5.176 -0.2221 -0.2922  0.5358
 6012TIP3   OH218041   5.224   5.758   4.088 -0.2246 -0.6789 -0.0871
 6012TIP3    H118042   5.142   5.806   4.098 -0.6715 -1.7741  1.9833
 6012TIP3    H218043   5.197   5.668   4.069  0.5381 -0.7950 -0.7070
 6013TIP3   OH218044   3.038   2.519   3.810  0.1606  0.4060  0.0870
 6013TIP3    H118045   3.032   2.487   3.720  0.3945 -0.3441  0.3386
 6013TIP3    H218046   3.130   2.544   3.820  0.4956 -0.9539  0.5965
 6014TIP3   OH218047   3.805   5.422   0.825 -0.3013  0.2199 -0.6999
 6014TIP3    H118048   3.829   5.350   0.767 -1.0794 -0.4281 -0.2420
 6014TIP3    H218049   3.719   5.451   0.793 -0.4392  0.2878 -0.2747
 6015TIP3   OH218050   5.544   0.418   1.128 -0.1013  0.1497 -0.4398
 6015TIP3    H118051   5.542   0.323   1.141 -2.2931 -0.0530 -1.7616
 6015TIP3    H218052   5.612   0.432   1.061  0.0927 -0.4885 -0.3834
 6016TIP3   OH218053   2.548   2.708   1.288  0.1044 -0.3120  0.8935
 6016TIP3    H118054   2.575   2.768   1.357  2.9161 -0.7367  0.2923
 6016TIP3    H218055   2.509   2.765   1.221 -1.5713  0.2256  2.2555
 6017TIP3   OH218056   1.616   1.441   3.380 -0.1476 -0.5999 -0.5496
 6017TIP3    H118057   1.592   1.406   3.295 -0.9952 -1.0010 -0.1565
 6017TIP3    H218058   1.631   1.363   3.434 -0.5313 -0.3502 -0.0820
 6018TIP3   OH218059   6.000   0.794   0.427  0.3117 -0.1946  0.2500
 6018TIP3    H118060   5.912   0.758   0.420 -0.8087  2.3915  0.0060
 6018TIP3    H218061   6.052   0.723   0.465 -1.9695 -1.6303  0.8602
 6019TIP3   OH218062   1.693   3.675   2.697 -0.5064 -0.2917  0.8800
 6019TIP3    H118063   1.718   3.705   2.784  0.1345 -0.3754  0.7260
 6019TIP3    H218064   1.760   3.611   2.673 -0.0612  0.5117 -0.1146
 6020TIP3   OH218065   5.512   1.806   3.945  0.2590 -0.0451 -0.2716
 6020TIP3    H118066   5.429   1.763   3.924 -0.7753  1.1646  1.0690
 6020TIP3    H218067   5.520   1.876   3.880 -1.2254  1.5747  1.1925
 6021TIP3   OH218068   3.909   4.314   2.915 -0.2773 -0.3963  0.6517
 6021TIP3    H118069   3.816   4.296   2.906 -0.0860 -1.0110 -0.3253
 6021TIP3    H218070   3.951   4.229   2.898  0.4501 -0.2092  1.4218
 6022TIP3   OH218071   2.342   1.546   5.164 -0.2571  0.3542 -0.3376
 6022TIP3    H118072   2.415   1.512   5.112 -1.5966 -0.2729 -1.8632
 6022TIP3    H218073   2.358   1.640   5.167 -0.2110  0.4301 -2.0309
 6023TIP3   OH218074   0.146   2.391   2.697  0.2697  0.5123  0.2840
 6023TIP3    H118075   0.238   2.382   2.673  0.0437  0.1828 -0.4873
 6023TIP3    H218076   0.104   2.312   2.663 -0.2131  0.3994  1.0864
 6024TIP3   OH218077   5.851   3.532   3.998  0.1848 -0.6256 -0.1675
 6024TIP3    H118078   5.757   3.529   4.012  0.2570 -0.1108  0.5017
 6024TIP3    H218079   5.888   3.517   4.085  0.7317 -1.2236 -0.4910
 6025TIP3   OH218080   3.922   5.927   2.812 -0.0106 -0.0697 -0.0213
 6025TIP3    H118081   3.924   5.991   2.741  0.2718 -0.6109 -0.5047
 6025TIP3    H218082   3.960   5.848   2.774  0.5188 -0.2445  0.8523
 6026TIP3   OH218083   4.171   0.592   0.207  0.0805  0.0055 -0.0889
 6026TIP3    H118084   4.133   0.610   0.293  0.9616 -0.1059  0.3387
 6026TIP3    H218085   4.209   0.504   0.216  0.8669  0.3089 -0.3299
 6027TIP3   OH218086   6.162   2.118   0.414 -0.9730  0.1124 -0.4453
 6027TIP3    H118087   6.067   2.132   0.414 -1.1925 -0.7623 -3.1712
 6027TIP3    H218088   6.172   2.023   0.413 -0.0371  0.1968  0.1071
 6028TIP3   OH218089   2.181   2.978   1.675 -0.1767  0.1398 -0.1589
 6028TIP3    H118090   2.211   3.066   1.699 -2.8742  0.8955  0.7665
 6028TIP3    H218091   2.089   2.990   1.651 -0.9010 -2.5851  0.9418
 6029TIP3   OH218092   4.451   5.764   0.989  0.2178  0.0776 -0.4811
 6029TIP3    H118093   4.441   5.751   0.894 -2.3520  1.5787 -0.4977
 6029TIP3    H218094   4.425   5.855   1.004  0.0374 -0.2813  1.7254
 6030TIP3   OH218095   2.591   3.199   4.769 -0.2288 -0.9449 -0.2811
 6030TIP3    H118096   2.557   3.110   4.775 -0.1579 -1.0077 -0.7806
 6030TIP3    H218097   2.633   3.203   4.683 -2.3007  0.2790 -1.2945
 6031TIP3   OH218098   0.059   5.184   3.837 -0.0579  0.3026 -0.3026
 6031TIP3    H118099   0.153   5.176   3.854  0.1401 -1.3310 -1.8432
 6031TIP3    H218100   0.041   5.117   3.771 -1.7900  2.3785 -2.1112
 6032TIP3   OH218101   0.506   2.719   0.273  0.1514  0.1373 -0.2717
 6032TIP3    H118102   0.486   2.806   0.309  0.5933 -0.6215  1.9384
 6032TIP3    H218103   0.498   2.730   0.178  0.3285  2.6159 -0.0574
 6033TIP3   OH218104   2.202   4.166   0.677  0.1468  0.5993  0.4798
 6033TIP3    H118105   2.235   4.215   0.753 -1.1173  0.9081  0.8544
 6033TIP3    H218106   2.281   4.137   0.631  0.9727  2.9742  0.2507
 6034TIP3   OH218107   4.277   5.918   2.184  0.1769 -0.3494 -0.2103
 6034TIP3    H118108   4.274   5.972   2.262 -1.3349  1.0660 -1.1816
 6034TIP3    H218109   4.357   5.866   2.193  0.3801  0.2566  1.9263
 6035TIP3   OH218110   4.128   3.432   0.849 -0.6756  0.2614 -0.1336
 6035TIP3    H118111   4.104   3.435   0.942 -0.5647 -0.9187 -0.0514
 6035TIP3    H218112   4.223   3.426   0.850 -0.6301  0.8609 -0.3525
 6036TIP3   OH218113   0.026   1.039   0.872  0.5268  0.4393 -0.2564
 6036TIP3    H118114   0.087   1.097   0.917 -0.5382  0.8714  0.6715
 6036TIP3    H218115   0.020   0.962   0.928 -0.8378  0.9982  0.3998
 6037TIP3   OH218116   3.733   1.904   4.315  0.5760  0.3696 -0.2725
 6037TIP3    H118117   3.818   1.866   4.291  0.4697  0.5579 -0.9753
 6037TIP3    H218118   3.688   1.917   4.231 -0.3495 -0.1999  0.1149
 6038TIP3   OH218119   0.469   2.840   1.683  0.2749 -0.2661  0.3252
 6038TIP3    H118120   0.452   2.746   1.681 -0.7821 -0.1953  2.8178
 6038TIP3    H218121   0.528   2.855   1.609 -0.6470 -2.6254 -0.9945
 6039TIP3   OH218122   2.288   4.056   1.527 -0.2056 -0.5699  0.2086
 6039TIP3    H118123   2.269   3.967   1.499 -0.4348 -0.4128 -0.1390
 6039TIP3    H218124   2.333   4.046   1.612  1.5354 -1.0969 -0.7223
 6040TIP3   OH218125   4.578   5.124   4.434 -0.0189  0.2848 -0.6124
 6040TIP3    H118126   4.639   5.075   4.489 -1.1353 -1.6733 -1.0021
 6040TIP3    H218127   4.589   5.086   4.347 -0.6372  1.0350 -1.0338
 6041TIP3   OH218128   4.924   4.349   0.729  0.3566  0.0871 -0.4455
 6041TIP3    H118129   5.013   4.314   0.738  0.3262  0.0122 -0.4367
 6041TIP3    H218130   4.896   4.366   0.819  0.1085 -0.5189 -0.4038
 6042TIP3   OH218131   3.216   3.311   1.491 -0.3122 -0.2248  0.2240
 6042TIP3    H118132   3.280   3.379   1.472  1.6084 -2.1023 -0.3593
 6042TIP3    H218133   3.137   3.340   1.446  0.8166  1.0218 -1.0549
 6043TIP3   OH218134   3.180   3.887   1.006  0.2534  0.1297  0.8454
 6043TIP3    H118135   3.158   3.980   1.014 -1.7477 -0.1535 -0.6364
 6043TIP3    H218136   3.264   3.879   1.051  0.5230  2.6549  0.9703
 6044TIP3   OH218137   5.748   1.956   4.115  0.3344 -0.6153  0.1053
 6044TIP3    H118138   5.793   1.874   4.095  1.0350 -0.5597  1.3442
 6044TIP3    H218139   5.771   1.974   4.207  0.0699  0.8805 -0.0961
 6045TIP3   OH218140   4.349   4.480   2.161 -0.1029  0.0239 -0.3612
 6045TIP3    H118141   4.307   4.523   2.087  0.7714 -1.0709 -1.5456
 6045TIP3    H218142   4.443   4.487   2.142  0.1029 -0.8771  0.2770
 6046TIP3   OH218143   1.341   2.634   4.554  0.2671  0.4923 -0.2215
 6046TIP3    H118144   1.375   2.627   4.465  2.3491  0.2475  0.5555
 6046TIP3    H218145   1.344   2.544   4.588 -0.5341  0.5806  0.1043
 6047TIP3   OH218146   4.518   5.934   0.739 -0.1175 -0.5746 -0.6269
 6047TIP3    H118147   4.605   5.931   0.780 -0.7087 -0.6652  0.6534
 6047TIP3    H218148   4.512   5.852   0.691  0.8494 -0.1745 -1.4930
 6048TIP3   OH218149   5.364   2.263   3.407  0.1512 -0.5644  0.1728
 6048TIP3    H118150   5.347   2.169   3.411 -0.5821 -0.3894  1.8657
 6048TIP3    H218151   5.441   2.276   3.464  0.0289 -0.0967  0.2339
 6049TIP3   OH218152   3.313   0.128   1.013 -0.6063  0.1262  0.3616
 6049TIP3    H118153   3.261   0.144   0.934 -0.9093  0.1627  0.5707
 6049TIP3    H218154   3.290   0.039   1.039  1.3134 -0.8362 -0.9839
 6050TIP3   OH218155   1.305   0.470   0.395 -0.2346 -0.3991 -0.1416
 6050TIP3    H118156   1.360   0.392   0.388  1.7051  1.0102 -1.6898
 6050TIP3    H218157   1.219   0.437   0.420  0.9142 -2.8572  0.8376
 6051TIP3   OH218158   3.244   4.443   1.933 -0.3932 -0.3865  0.3424
 6051TIP3    H118159   3.225   4.392   1.854  0.7152  0.3272 -0.3967
 6051TIP3    H218160   3.280   4.378   1.994  1.3413 -0.4616 -0.7153
 6052TIP3   OH218161   4.384   2.401   2.632  0.0713 -0.3957 -0.3285
 6052TIP3    H118162   4.439   2.414   2.555  0.4123  0.4471  0.0506
 6052TIP3    H218163   4.296   2.424   2.604  0.1663 -0.2655 -0.5149
 6053TIP3   OH218164   1.869   0.894   1.321  0.0254 -0.5026 -0.1873
 6053TIP3    H118165   1.866   0.840   1.242 -0.2822 -0.1969 -0.3906
 6053TIP3    H218166   1.801   0.960   1.307 -0.3564 -0.7280  0.5369
 6054TIP3   OH218167   6.088   0.855   3.839  0.1681 -0.4464  0.2581
 6054TIP3    H118168   6.015   0.832   3.782  0.6631 -1.0416 -0.1415
 6054TIP3    H218169   6.165   0.819   3.796  0.8790  1.2334  0.0310
 6055TIP3   OH218170   6.163   3.705   0.186 -0.4553 -0.3340 -0.1363
 6055TIP3    H118171   6.150   3.789   0.231 -0.3933  0.2016 -1.0860
 6055TIP3    H218172   6.192   3.729   0.098 -0.2685 -1.3617 -0.3706
 6056TIP3   OH218173   1.922   4.469   3.732 -0.0149  0.4871 -0.0757
 6056TIP3    H118174   1.980   4.522   3.677  1.3553  2.6666  3.1875
 6056TIP3    H218175   1.849   4.527   3.753 -2.0464 -1.2675 -1.7061
 6057TIP3   OH218176   5.323   1.005   2.363 -0.3420 -0.1776  0.0742
 6057TIP3    H118177   5.409   1.030   2.396 -0.6452 -1.3832  1.8725
 6057TIP3    H218178   5.304   1.071   2.295  1.1771  1.2001  0.9069
 6058TIP3   OH218179   3.327   2.927   3.586  0.5230  0.0594  1.1098
 6058TIP3    H118180   3.419   2.928   3.559  1.1404  0.6124  3.0371
 6058TIP3    H218181   3.324   2.984   3.663 -1.8596  1.7528 -0.0859
 6059TIP3   OH218182   0.345   4.463   2.676  0.1418  0.3266  0.3841
 6059TIP3    H118183   0.266   4.488   2.628  0.5509  0.0780 -0.4491
 6059TIP3    H218184   0.408   4.533   2.657  1.0263 -0.8524 -1.2952
 6060TIP3   OH218185   0.199   4.737   2.796 -0.0285  0.0232  0.0627
 6060TIP3    H118186   0.293   4.738   2.782 -0.1569 -0.0981 -0.8778
 6060TIP3    H218187   0.165   4.677   2.729 -0.7886  0.2000  0.2720
 6061TIP3   OH218188   1.720   4.249   4.645 -0.0338  0.2756  0.2234
 6061TIP3    H118189   1.721   4.202   4.729  1.3517 -0.1451 -0.0101
 6061TIP3    H218190   1.725   4.341   4.670  0.0640  0.1689  0.6093
 6062TIP3   OH218191   5.634   0.238   3.497  0.1968  0.1962  0.0111
 6062TIP3    H118192   5.659   0.261   3.586 -0.9002  1.1090  0.1162
 6062TIP3    H218193   5.539   0.250   3.495  0.0193 -1.0998 -0.9188
 6063TIP3   OH218194   5.721   2.099   2.563  0.0735 -0.0342 -0.4954
 6063TIP3    H118195   5.746   2.032   2.500 -0.2233  0.2523 -0.9268
 6063TIP3    H218196   5.702   2.051   2.643 -2.8952 -0.8197 -1.5444
 6064TIP3   OH218197   0.615   4.917   5.193 -0.4824  0.7196  0.4383
 6064TIP3    H118198   0.536   4.968   5.209 -2.1311 -2.0049  1.7237
 6064TIP3    H218199   0.599   4.873   5.109 -0.1838  0.3882  0.5502
 6065TIP3   OH218200   2.947   0.098   0.828 -0.0083  0.2455 -0.4084
 6065TIP3    H118201   2.918   0.114   0.739  0.4408 -1.8432 -0.9863
 6065TIP3    H218202   2.941   0.003   0.839 -2.6110  0.5847  2.7005
 6066TIP3   OH218203   1.093   2.732   4.521 -0.0732  0.0624 -0.2559
 6066TIP3    H118204   1.186   2.712   4.536 -0.3140 -1.7548 -0.9596
 6066TIP3    H218205   1.048   2.698   4.598 -0.3199 -0.5555 -0.6699
 6067TIP3   OH218206   5.312   0.022   3.284 -0.5661 -0.1288  0.0108
 6067TIP3    H118207   5.234   0.051   3.237 -0.1791  1.0017  0.0420
 6067TIP3    H218208   5.288   0.027   3.376 -0.7924 -0.8051 -0.0020
 6068TIP3   OH218209   5.887   4.672   2.573  0.1934  0.4656  0.1436
 6068TIP3    H118210   5.976   4.669   2.609  0.6348 -0.3464 -0.9545
 6068TIP3    H218211   5.831   4.685   2.650  1.2052  0.2888  0.9419
 6069TIP3   OH218212   2.100   2.634   4.235 -0.3711 -0.6410 -0.3552
 6069TIP3    H118213   2.149   2.673   4.308  0.5064 -0.4146 -1.0407
 6069TIP3    H218214   2.021   2.687   4.228  0.2788  0.3385 -0.5599
 6070TIP3   OH218215   6.168   3.867   1.247  0.4073 -0.0939 -1.0046
 6070TIP3    H118216   6.172   3.814   1.167  0.3786 -0.9868 -0.4326
 6070TIP3    H218217   6.219   3.817   1.311  1.1776  1.0444 -0.6992
 6071TIP3   OH218218   2.262   4.292   1.914  0.7312  0.2826  0.4327
 6071TIP3    H118219   2.210   4.304   1.993  1.4053  0.0793  0.9211
 6071TIP3    H218220   2.276   4.381   1.881 -1.7947  0.2273 -0.9778
 6072TIP3   OH218221   3.406   4.542   2.191 -0.3131 -0.1034  0.0402
 6072TIP3    H118222   3.490   4.568   2.230 -0.8361  0.3776  0.8844
 6072TIP3    H218223   3.410   4.447   2.188  0.6185 -0.0636 -0.7603
 6073TIP3   OH218224   4.738   0.444   2.390  0.1490  0.5143  1.1909
 6073TIP3    H118225   4.720   0.534   2.415  3.5143  1.5558  0.2726
 6073TIP3    H218226   4.831   0.431   2.407  0.4361 -1.8657 -1.3307
 6074TIP3   OH218227   5.851   3.257   0.385  0.0513 -0.0894  0.4114
 6074TIP3    H118228   5.914   3.253   0.313 -0.1135 -0.8930  0.3047
 6074TIP3    H218229   5.768   3.278   0.343 -0.0847 -0.7585  0.3307
 6075TIP3   OH218230   4.553   2.895   5.125 -0.5568  0.8668 -0.1702
 6075TIP3    H118231   4.589   2.984   5.136  0.4713  0.4539 -0.0361
 6075TIP3    H218232   4.577   2.849   5.205 -1.0376  0.4474 -0.2623
 6076TIP3   OH218233   6.218   2.586   2.804  0.4963  0.3139  0.2463
 6076TIP3    H118234   6.281   2.657   2.819 -0.1142  1.1962 -1.1671
 6076TIP3    H218235   6.226   2.531   2.882  1.7226  1.3715  0.9206
 6077TIP3   OH218236   5.202   3.662   0.786  0.2171 -0.5167 -0.0492
 6077TIP3    H118237   5.212   3.569   0.766  2.2737 -0.1124 -1.1315
 6077TIP3    H218238   5.192   3.704   0.701 -2.3252  0.1597  0.4950
 6078TIP3   OH218239   5.959   3.700   1.562 -0.3570 -0.0336 -0.1552
 6078TIP3    H118240   5.931   3.612   1.538 -1.2009  0.6020 -1.6550
 6078TIP3    H218241   5.970   3.745   1.478 -1.1748  1.6529  0.6016
 6079TIP3   OH218242   1.448   1.311   2.917  0.5984 -0.1513  0.1901
 6079TIP3    H118243   1.489   1.331   3.001  0.6723  0.8362 -0.0608
 6079TIP3    H218244   1.401   1.229   2.932  3.9593 -2.2857  0.0394
 6080TIP3   OH218245   2.613   0.831   0.575  0.5934 -0.6661 -0.2923
 6080TIP3    H118246   2.576   0.853   0.490  0.8874  2.2028  0.2123
 6080TIP3    H218247   2.612   0.913   0.624  0.4346 -2.1837  2.5124
 6081TIP3   OH218248   4.660   3.042   2.384  0.3262 -0.3749 -0.4625
 6081TIP3    H118249   4.692   3.020   2.472 -1.5117  0.0882  0.3662
 6081TIP3    H218250   4.738   3.072   2.338  1.3601 -0.7069  0.9819
 6082TIP3   OH218251   3.217   0.543   2.243  0.3988 -0.3911  0.6504
 6082TIP3    H118252   3.181   0.455   2.235  0.8799 -0.5778  0.4861
 6082TIP3    H218253   3.273   0.553   2.166 -1.2923  0.8495 -0.4622
 6083TIP3   OH218254   1.347   0.586   4.148  0.1554  0.2016  0.0156
 6083TIP3    H118255   1.406   0.565   4.220 -0.4042  0.6615  0.6155
 6083TIP3    H218256   1.259   0.569   4.182 -0.1652  1.1903 -0.2760
 6084TIP3   OH218257   2.895   5.064   2.192 -0.3284 -0.0195 -0.4994
 6084TIP3    H118258   2.859   5.112   2.118  2.9896  1.3076 -1.4537
 6084TIP3    H218259   2.969   5.015   2.155 -1.0860 -2.7050  1.2283
 6085TIP3   OH218260   1.633   0.674   2.261  0.4099  0.1336  0.5062
 6085TIP3    H118261   1.553   0.693   2.308 -0.9497  0.3244 -1.7408
 6085TIP3    H218262   1.621   0.585   2.227  0.8947  0.3731 -0.3298
 6086TIP3   OH218263   4.284   1.097   1.404  0.4702  0.5754  0.7084
 6086TIP3    H118264   4.357   1.066   1.349  1.0435  1.4252  0.9696
 6086TIP3    H218265   4.211   1.107   1.343  0.4227 -0.7278  0.5197
 6087TIP3   OH218266   5.914   2.517   4.322  0.0961  0.6559 -0.0092
 6087TIP3    H118267   5.855   2.451   4.288  1.2031 -0.8083  0.8043
 6087TIP3    H218268   5.885   2.533   4.411  0.3393  0.6506  0.0728
 6088TIP3   OH218269   4.057   3.111   1.403  0.2890  0.5709 -0.3949
 6088TIP3    H118270   3.998   3.171   1.449  2.1614  0.8550  1.8168
 6088TIP3    H218271   4.077   3.043   1.467 -0.2228 -1.3949 -2.2108
 6089TIP3   OH218272   4.467   2.953   4.262 -0.1324  0.4254  0.3179
 6089TIP3    H118273   4.409   2.983   4.192 -1.7290  0.9706  1.8165
 6089TIP3    H218274   4.512   3.032   4.291  2.8441 -0.2239 -1.9810
 6090TIP3   OH218275   5.665   5.456   0.375  0.0236  0.4047  0.1282
 6090TIP3    H118276   5.683   5.432   0.284 -1.6767 -0.3130 -0.0471
 6090TIP3    H218277   5.615   5.537   0.369  2.0535  1.7859  0.5711
 6091TIP3   OH218278   0.109   2.501   4.928 -0.6791 -0.3508  0.2785
 6091TIP3    H118279   0.098   2.518   5.022 -2.6378  0.5201 -0.0556
 6091TIP3    H218280   0.203   2.489   4.917 -0.4807 -1.4216  2.4895
 6092TIP3   OH218281   6.136   3.367   0.545  0.0340 -0.3159  0.0695
 6092TIP3    H118282   6.073   3.378   0.617  1.8800 -1.2136  1.9376
 6092TIP3    H218283   6.137   3.452   0.502 -0.7245  0.4609  1.4870
 6093TIP3   OH218284   6.076   0.420   0.294  0.4863  0.1123 -0.1598
 6093TIP3    H118285   6.131   0.485   0.336  0.8239  0.4907 -1.1552
 6093TIP3    H218286   5.988   0.439   0.326  0.1231  2.7555 -2.3287
 6094TIP3   OH218287   5.248   4.084   1.220 -0.0419  0.1568 -0.4274
 6094TIP3    H118288   5.300   4.155   1.183 -1.6114  1.3873 -0.3932
 6094TIP3    H218289   5.282   4.005   1.178  2.6658  0.7200  0.5613
 6095TIP3   OH218290   4.793   5.068   2.782  0.4544  0.1162 -0.1896
 6095TIP3    H118291   4.863   5.021   2.828  0.7533  0.1144 -0.6371
 6095TIP3    H218292   4.718   5.010   2.786  0.6116 -0.0832 -0.1057
 6096TIP3   OH218293   4.906   5.020   4.983  0.1563  0.4346 -0.3947
 6096TIP3    H118294   4.840   4.957   5.011 -1.3372  2.1069  0.0330
 6096TIP3    H218295   4.963   4.971   4.924 -0.2411 -1.5933  0.8098
 6097TIP3   OH218296   3.112   4.908   1.971  0.4910 -0.5320  0.0037
 6097TIP3    H118297   3.155   4.828   2.002  2.1603  0.3105 -0.0384
 6097TIP3    H218298   3.174   4.947   1.910 -0.3003  0.7875  0.0066
 6098TIP3   OH218299   1.626   2.685   0.327  0.6849  0.1431 -0.3956
 6098TIP3    H118300   1.587   2.747   0.388 -0.7921 -0.6165 -0.5406
 6098TIP3    H218301   1.669   2.620   0.383 -2.1910 -1.5624 -0.0125
 6099TIP3   OH218302   1.390   5.186   3.360 -0.2866 -0.0643  0.0085
 6099TIP3    H118303   1.308   5.138   3.372  0.2688 -0.8070  1.0430
 6099TIP3    H218304   1.450   5.122   3.320  0.2386 -0.0344  0.7144
 6100TIP3   OH218305   3.089   3.223   0.621  0.9715  0.0014 -0.3800
 6100TIP3    H118306   3.175   3.232   0.661  0.1626  1.1877  1.2073
 6100TIP3    H218307   3.086   3.292   0.555  0.9982  0.3951  0.0267
 6101TIP3   OH218308   4.801   2.231   1.762 -0.2394 -0.1305 -0.4221
 6101TIP3    H118309   4.743   2.273   1.826 -0.7698 -2.9861  1.1611
 6101TIP3    H218310   4.748   2.225   1.682 -1.1495 -0.3022  0.1777
 6102TIP3   OH218311   4.374   4.440   3.927 -0.0958  0.0569  0.0141
 6102TIP3    H118312   4.336   4.352   3.919 -0.1255 -0.0152  0.9301
 6102TIP3    H218313   4.299   4.497   3.944  0.0204  0.1421  0.2417
 6103TIP3   OH218314   1.250   2.367   2.700  0.4722 -0.5479  0.6488
 6103TIP3    H118315   1.202   2.387   2.619  0.2240  0.5697  1.0630
 6103TIP3    H218316   1.192   2.395   2.770  1.1016 -0.6011  1.1960
 6104TIP3   OH218317   3.435   1.388   3.305  0.1164  0.0359 -0.0726
 6104TIP3    H118318   3.414   1.463   3.360 -1.0244  1.6099 -2.5170
 6104TIP3    H218319   3.508   1.417   3.250  1.6806 -1.7269  0.9294
 6105TIP3   OH218320   2.217   0.341   1.261 -0.0444  0.2094 -0.6134
 6105TIP3    H118321   2.135   0.309   1.223 -0.7542 -0.4450  1.2954
 6105TIP3    H218322   2.284   0.285   1.223 -0.7025 -0.3563 -0.9711
 6106TIP3   OH218323   2.959   5.838   2.839  0.0539  0.4222 -0.0970
 6106TIP3    H118324   3.047   5.867   2.863  1.2587 -2.6732 -0.4013
 6106TIP3    H218325   2.914   5.824   2.923  0.3886  0.4591  0.0880
 6107TIP3   OH218326   2.158   0.466   4.315 -0.4527  0.1797 -0.1723
 6107TIP3    H118327   2.085   0.501   4.365 -2.0316 -0.6287 -1.7740
 6107TIP3    H218328   2.198   0.401   4.373 -1.3403  0.2671  0.5575
 6108TIP3   OH218329   1.158   1.127   4.094  0.1154  0.3779  0.0623
 6108TIP3    H118330   1.116   1.213   4.091 -0.4372  0.1475  0.9772
 6108TIP3    H218331   1.170   1.109   4.187 -0.8067 -1.0252 -0.0619
 6109TIP3   OH218332   0.976   5.084   4.863 -0.2221 -0.1297 -0.2743
 6109TIP3    H118333   1.042   5.151   4.845 -0.9842  0.9123  0.6722
 6109TIP3    H218334   0.894   5.133   4.873 -0.5556 -1.0117  1.8641
 6110TIP3   OH218335   2.613   3.591   1.722 -0.2757  0.0481  0.4546
 6110TIP3    H118336   2.583   3.517   1.774 -0.0748 -1.1182 -1.0178
 6110TIP3    H218337   2.703   3.606   1.751 -0.2663 -0.3832  0.6544
 6111TIP3   OH218338   0.584   5.018   0.299  0.7095 -0.1568 -0.0685
 6111TIP3    H118339   0.575   5.113   0.293 -0.9679 -0.2221  0.6555
 6111TIP3    H218340   0.564   4.986   0.211  1.8734  0.1719 -0.4662
 6112TIP3   OH218341   6.189   4.645   1.706 -0.2430  0.1938  0.1643
 6112TIP3    H118342   6.278   4.668   1.681  0.0022  0.1706  0.9899
 6112TIP3    H218343   6.139   4.650   1.625  0.5538 -0.0147 -0.3481
 6113TIP3   OH218344   0.003   3.298   1.751 -0.9307 -0.2675 -0.7340
 6113TIP3    H118345  -0.011   3.383   1.709  0.9183  0.0110 -0.9123
 6113TIP3    H218346   0.070   3.256   1.696 -2.1542 -2.0642 -0.9240
 6114TIP3   OH218347   3.048   2.393   3.550 -0.2248 -0.0508 -0.1140
 6114TIP3    H118348   3.124   2.336   3.558  0.2994  0.0641 -2.9886
 6114TIP3    H218349   3.058   2.434   3.464 -2.0820  2.1875  0.6286
 6115TIP3   OH218350   1.849   2.421   3.906  0.5734  0.0256 -0.2012
 6115TIP3    H118351   1.913   2.394   3.973 -0.9157 -0.6446  0.9986
 6115TIP3    H218352   1.764   2.415   3.950 -0.4053  0.1309 -1.9991
 6116TIP3   OH218353   1.269   0.661   2.930 -0.1738 -0.4617  0.1019
 6116TIP3    H118354   1.243   0.595   2.865 -0.3668  0.0704 -0.3729
 6116TIP3    H218355   1.205   0.651   3.001  0.3663 -1.4145  0.4672
 6117TIP3   OH218356   4.780   4.281   3.698  0.1581 -0.6265 -0.2124
 6117TIP3    H118357   4.836   4.275   3.621  1.8466 -1.6625  1.0258
 6117TIP3    H218358   4.692   4.261   3.666  0.2816  1.7205 -2.3517
 6118TIP3   OH218359   6.329   3.941   0.872  0.2728 -0.4231 -0.4328
 6118TIP3    H118360   6.379   4.020   0.854 -0.7985  0.8194  1.6843
 6118TIP3    H218361   6.253   3.947   0.814  0.2670  0.0377 -0.3770
 6119TIP3   OH218362   3.241   2.340   4.996 -0.3233  0.4986  0.1585
 6119TIP3    H118363   3.148   2.356   5.010 -0.3885 -0.4328  0.8674
 6119TIP3    H218364   3.250   2.334   4.900 -0.9896  0.5356  0.0883
 6120TIP3   OH218365   2.414   3.194   5.011 -0.1332 -0.4985 -0.6459
 6120TIP3    H118366   2.448   3.150   5.089 -0.7224 -2.5923 -1.4838
 6120TIP3    H218367   2.477   3.171   4.942  0.4573  1.4366 -0.7969
 6121TIP3   OH218368   0.330   2.009   0.250  0.5553  0.0736  0.1130
 6121TIP3    H118369   0.343   2.085   0.307  0.8983 -0.0338  0.1815
 6121TIP3    H218370   0.314   2.047   0.163 -0.3825  0.2436  0.3554
 6122TIP3   OH218371   0.673   1.617   1.622 -0.0288 -0.0892 -0.2936
 6122TIP3    H118372   0.648   1.709   1.631  0.7726 -0.0695  2.3759
 6122TIP3    H218373   0.604   1.578   1.568 -1.6295  1.5855  0.4618
 6123TIP3   OH218374   3.718   1.272   3.359  0.4515  0.0025  0.1728
 6123TIP3    H118375   3.804   1.301   3.390  0.1214  0.9820  0.2066
 6123TIP3    H218376   3.691   1.340   3.297  0.0452 -0.7083 -0.4515
 6124TIP3   OH218377   0.104   2.304   3.120 -0.3916  0.2434  0.7649
 6124TIP3    H118378   0.190   2.332   3.153 -0.1928  1.4876 -0.6717
 6124TIP3    H218379   0.104   2.209   3.132  2.2925 -0.1910 -1.4849
 6125TIP3   OH218380   0.891   3.782   4.275  0.6158  0.0050 -0.4745
 6125TIP3    H118381   0.935   3.730   4.343 -0.5959 -0.4730 -0.0047
 6125TIP3    H218382   0.870   3.865   4.318  1.7556  0.5584 -0.9504
 6126TIP3   OH218383   4.621   2.994   1.137  0.2869 -0.5321  0.1150
 6126TIP3    H118384   4.701   2.942   1.149  0.0387 -0.9338  0.0335
 6126TIP3    H218385   4.560   2.958   1.201  0.5343  0.5405  1.0008
 6127TIP3   OH218386   2.239   5.498   0.011 -0.1395  0.1638  0.3404
 6127TIP3    H118387   2.183   5.567   0.047 -0.5453 -0.5926  1.1884
 6127TIP3    H218388   2.223   5.422   0.066  0.3523 -0.6044 -0.5395
 6128TIP3   OH218389   4.166   1.069   0.568  0.5862  0.0385  0.5794
 6128TIP3    H118390   4.200   1.085   0.656  1.8892 -0.7779  0.2567
 6128TIP3    H218391   4.219   1.125   0.512  1.0961 -0.8871  0.1150
 6129TIP3   OH218392   3.834   0.512   0.690  0.0871 -0.3147  0.3523
 6129TIP3    H118393   3.881   0.445   0.740 -0.0327 -0.0698  0.8019
 6129TIP3    H218394   3.857   0.495   0.599 -2.1861 -2.7590  0.1340
 6130TIP3   OH218395   3.744   5.017   4.228  0.2610  0.2989 -0.5417
 6130TIP3    H118396   3.719   4.928   4.203 -0.5400  0.0777  0.9571
 6130TIP3    H218397   3.838   5.011   4.246  0.4313  0.0155 -1.4811
 6131TIP3   OH218398   2.878   1.618   1.836  0.3148  0.0819  0.1327
 6131TIP3    H118399   2.867   1.549   1.771 -0.0227  2.3739 -2.4594
 6131TIP3    H218400   2.920   1.576   1.911 -1.2214 -3.1846 -0.6696
 6132TIP3   OH218401   3.041   3.327   3.079 -0.4135  0.3671  0.0985
 6132TIP3    H118402   3.113   3.312   3.140  2.2195 -1.3793 -3.1009
 6132TIP3    H218403   2.974   3.264   3.104  0.8716 -0.7627  0.7921
 6133TIP3   OH218404   5.528   3.844   4.955  0.2238 -0.1323  0.3309
 6133TIP3    H118405   5.447   3.796   4.942  0.3920 -1.0346  2.2423
 6133TIP3    H218406   5.516   3.925   4.906 -1.6526 -0.4363  0.2144
 6134TIP3   OH218407   4.384   2.593   3.973  0.1976 -0.3339  0.2837
 6134TIP3    H118408   4.413   2.542   4.049 -2.6741  0.4256  2.0690
 6134TIP3    H218409   4.465   2.626   3.934  1.8654 -1.9350  2.1582
 6135TIP3   OH218410   1.716   3.551   1.837  0.2218 -0.3421 -0.4389
 6135TIP3    H118411   1.728   3.492   1.763  2.3452 -0.1879 -0.2798
 6135TIP3    H218412   1.792   3.537   1.892 -0.2712  1.0415  0.6677
 6136TIP3   OH218413   0.822   5.493   3.847 -0.6421  0.3827  0.1635
 6136TIP3    H118414   0.795   5.445   3.925  0.8455 -0.2847  0.3095
 6136TIP3    H218415   0.905   5.451   3.821 -0.7229  1.0889 -1.3231
 6137TIP3   OH218416   1.830   5.502   4.876 -0.1954  0.4953  0.6292
 6137TIP3    H118417   1.788   5.549   4.804  0.7963 -0.4789 -0.6251
 6137TIP3    H218418   1.921   5.528   4.873  0.0508 -0.2815  0.9205
 6138TIP3   OH218419   0.397   0.935   3.178  0.1604  0.1772 -0.0310
 6138TIP3    H118420   0.338   0.994   3.226  1.7949  0.9304  1.1543
 6138TIP3    H218421   0.474   0.927   3.235 -0.2328 -3.7036  0.2519
 6139TIP3   OH218422   2.872   2.160   0.729 -0.5409 -0.4073  0.5161
 6139TIP3    H118423   2.874   2.239   0.783 -0.8857  1.7619 -2.4340
 6139TIP3    H218424   2.851   2.191   0.641  1.9987 -3.4202 -1.3810
 6140TIP3   OH218425   2.348   0.301   2.076  0.3113  0.3245 -0.7403
 6140TIP3    H118426   2.369   0.216   2.038 -0.6107  0.2042 -1.0005
 6140TIP3    H218427   2.333   0.358   2.001  2.5339  1.1893 -0.6188
 6141TIP3   OH218428   2.642   2.402   0.189  0.1491 -0.3529 -0.2462
 6141TIP3    H118429   2.732   2.376   0.173  1.0334  0.6358  2.4271
 6141TIP3    H218430   2.648   2.465   0.261 -2.2902  3.1074 -2.7104
 6142TIP3   OH218431   6.021   2.562   3.235 -0.0572  0.7860  0.7550
 6142TIP3    H118432   6.063   2.633   3.188  0.0841  0.0237 -0.3034
 6142TIP3    H218433   5.995   2.500   3.167 -2.5623  1.0312  1.3868
 6143TIP3   OH218434   1.225   2.170   1.454  0.2097  0.2991  0.0092
 6143TIP3    H118435   1.181   2.100   1.503 -1.4091  1.3141  0.0969
 6143TIP3    H218436   1.233   2.135   1.365 -0.9586  0.1233 -0.0464
 6144TIP3   OH218437   4.272   3.877   1.419 -0.3987 -0.2075 -0.7359
 6144TIP3    H118438   4.342   3.933   1.453 -0.8215 -0.7544  1.1482
 6144TIP3    H218439   4.210   3.939   1.380 -1.7490  1.0113  2.8839
 6145TIP3   OH218440   6.013   0.309   4.512  1.2117  0.3680 -0.2173
 6145TIP3    H118441   5.918   0.311   4.528  1.4405  2.5770  1.4385
 6145TIP3    H218442   6.028   0.376   4.446  1.6861  0.5095  0.0294
 6146TIP3   OH218443   0.414   4.653   0.822  0.5698 -0.1844  0.2621
 6146TIP3    H118444   0.410   4.733   0.770  2.1333 -0.0888  0.2518
 6146TIP3    H218445   0.444   4.586   0.762  3.1244  0.0774  1.1150
 6147TIP3   OH218446   1.156   5.573   3.182 -0.3535  0.3851 -0.3398
 6147TIP3    H118447   1.227   5.542   3.238 -0.1025 -0.1700 -0.9479
 6147TIP3    H218448   1.142   5.502   3.119 -1.3255  0.5590 -0.3406
 6148TIP3   OH218449   0.162   5.673   2.114  0.1209 -0.1155 -0.0263
 6148TIP3    H118450   0.145   5.579   2.116 -0.9379 -0.0300 -2.0412
 6148TIP3    H218451   0.120   5.703   2.034 -0.8210  2.3371  1.2760
 6149TIP3   OH218452   1.128   5.703   3.524 -0.1579 -0.1220 -0.2517
 6149TIP3    H118453   1.138   5.608   3.516  1.0773 -0.1056  0.7962
 6149TIP3    H218454   1.043   5.714   3.568 -0.4316 -0.7190 -0.6105
 6150TIP3   OH218455   0.236   5.997   3.337 -0.0681 -0.7497  0.1948
 6150TIP3    H118456   0.327   6.027   3.335  0.1490 -1.3697  0.5433
 6150TIP3    H218457   0.242   5.902   3.331 -0.7007 -0.7874  0.1146
 6151TIP3   OH218458   0.043   1.001   3.050  0.5636 -0.5409  0.1313
 6151TIP3    H118459   0.074   1.031   3.135  1.6457 -0.3412 -0.3165
 6151TIP3    H218460   0.078   1.064   2.987 -0.8411 -0.2583 -0.4082
 6152TIP3   OH218461   0.960   1.286   2.475  0.0132  0.5070  0.1529
 6152TIP3    H118462   0.948   1.366   2.526  0.0287  0.6394 -0.0524
 6152TIP3    H218463   0.933   1.216   2.534 -2.0326  0.8047 -0.3492
 6153TIP3   OH218464   5.165   0.354   1.293  0.3508 -0.8956  0.0683
 6153TIP3    H118465   5.217   0.431   1.320  0.0351 -1.3273  2.0922
 6153TIP3    H218466   5.225   0.303   1.239  0.0290  1.5479 -2.8490
 6154TIP3   OH218467   5.878   4.154   3.805  0.6322 -0.2080 -0.5070
 6154TIP3    H118468   5.897   4.077   3.752 -0.9035 -0.7284 -0.3588
 6154TIP3    H218469   5.893   4.228   3.746  1.0404 -0.6769 -0.9993
 6155TIP3   OH218470   3.381   1.311   1.033  0.1648 -0.3304  0.1002
 6155TIP3    H118471   3.429   1.252   0.976 -0.4797 -1.2108  0.4457
 6155TIP3    H218472   3.334   1.253   1.093  2.7055  0.4721  3.1840
 6156TIP3   OH218473   1.982   2.245   2.447 -0.1831  0.2644  0.3466
 6156TIP3    H118474   1.986   2.282   2.358  0.5386 -1.8072 -0.5357
 6156TIP3    H218475   1.888   2.231   2.462 -0.2808  0.2136 -0.2606
 6157TIP3   OH218476   5.974   1.285   0.793 -0.5526 -0.2571 -0.0567
 6157TIP3    H118477   5.959   1.360   0.735 -0.0351 -0.1679 -0.0772
 6157TIP3    H218478   5.924   1.214   0.753 -0.2288 -0.1888 -0.6043
 6158TIP3   OH218479   0.268   3.466   1.589  0.0838 -0.3042  0.2603
 6158TIP3    H118480   0.324   3.436   1.660  1.3079  2.1904  0.4204
 6158TIP3    H218481   0.213   3.534   1.628  2.6013  3.0691 -1.6030
 6159TIP3   OH218482   3.957   2.451   3.604 -0.3485 -0.0938 -0.2651
 6159TIP3    H118483   3.999   2.460   3.519  1.4851  1.2684  0.7120
 6159TIP3    H218484   3.884   2.513   3.601 -0.7249 -0.5629 -1.0652
 6160TIP3   OH218485   1.519   2.959   1.566 -0.4917  0.0879 -0.0280
 6160TIP3    H118486   1.508   3.027   1.633 -0.5525  0.5524 -0.5000
 6160TIP3    H218487   1.554   3.006   1.491  1.7232 -0.7945  0.3750
 6161TIP3   OH218488   0.984   0.394   1.109 -0.0759 -0.3868  0.3298
 6161TIP3    H118489   1.046   0.380   1.180 -0.3418  0.2993  0.7109
 6161TIP3    H218490   0.965   0.307   1.075  0.7070 -0.6434  0.5376
 6162TIP3   OH218491   3.439   0.122   1.816  0.2872 -0.0224  0.3227
 6162TIP3    H118492   3.408   0.207   1.784  0.2986 -0.8617 -2.1642
 6162TIP3    H218493   3.514   0.101   1.759  1.4840 -0.8672  2.1261
 6163TIP3   OH218494   2.720   5.279   3.890  0.1034 -0.3795  0.3624
 6163TIP3    H118495   2.648   5.250   3.947 -0.0130 -1.2951 -0.2365
 6163TIP3    H218496   2.677   5.309   3.810  0.2982  0.4446  0.5639
 6164TIP3   OH218497   0.526   2.489   1.059 -0.4300 -0.2181 -0.4601
 6164TIP3    H118498   0.547   2.423   0.993  0.3443 -0.8337  0.3743
 6164TIP3    H218499   0.562   2.570   1.024 -1.6932 -0.1349 -1.6563
 6165TIP3   OH218500   3.656   4.379   3.629  0.2186  0.0704  0.6960
 6165TIP3    H118501   3.577   4.414   3.668 -0.8204  0.7072 -1.7728
 6165TIP3    H218502   3.718   4.453   3.629 -0.2075  0.4379  0.0784
 6166TIP3   OH218503   5.269   5.757   4.398  0.0388 -0.1644  0.2871
 6166TIP3    H118504   5.295   5.710   4.319  2.0995  1.9405 -0.3892
 6166TIP3    H218505   5.352   5.787   4.437 -1.0805  1.6522  1.4295
 6167TIP3   OH218506   3.087   2.639   0.471 -0.6366 -0.1225 -0.1113
 6167TIP3    H118507   3.163   2.585   0.448 -0.8231 -0.4273 -0.0210
 6167TIP3    H218508   3.043   2.590   0.540 -1.2105 -0.2175 -0.5345
 6168TIP3   OH218509   1.150   1.440   1.749  0.0817 -0.4833 -0.2012
 6168TIP3    H118510   1.148   1.517   1.807  4.6898 -0.7672  0.7279
 6168TIP3    H218511   1.145   1.366   1.809 -0.6779 -0.8822 -0.7516
 6169TIP3   OH218512   2.503   2.276   4.832 -0.3492  0.2315 -0.3306
 6169TIP3    H118513   2.525   2.231   4.914  1.5140 -0.2947 -1.0508
 6169TIP3    H218514   2.469   2.207   4.775 -1.6611  0.5995 -0.0054
 6170TIP3   OH218515   2.747   3.472   4.439  0.0502 -0.3461  0.0676
 6170TIP3    H118516   2.802   3.543   4.472 -0.2402 -0.7228  1.4369
 6170TIP3    H218517   2.658   3.507   4.443 -0.0891 -0.7537  0.7140
 6171TIP3   OH218518   0.863   4.147   0.184  0.5147  0.3489 -0.6023
 6171TIP3    H118519   0.832   4.163   0.273 -0.6529  0.5689 -1.0333
 6171TIP3    H218520   0.957   4.161   0.189  0.4492  0.4858  0.5675
 6172TIP3   OH218521   1.294   4.050   3.368 -0.5618  0.4728 -0.0583
 6172TIP3    H118522   1.326   4.140   3.362  3.7335 -0.9386 -1.1571
 6172TIP3    H218523   1.259   4.030   3.281 -0.8209  0.8026 -0.0319
 6173TIP3   OH218524   5.359   2.545   4.961 -0.0041  0.4300  0.8506
 6173TIP3    H118525   5.418   2.614   4.930 -0.0944  0.9143  1.7222
 6173TIP3    H218526   5.390   2.465   4.917 -1.1702  1.3301 -1.8212
 6174TIP3   OH218527   4.129   2.738   2.357  0.0348 -0.7619 -0.2098
 6174TIP3    H118528   4.076   2.802   2.310 -1.4938 -1.3831  0.6124
 6174TIP3    H218529   4.108   2.752   2.449  2.2941 -0.1699  0.2886
 6175TIP3   OH218530   4.658   3.859   3.097 -0.3150 -0.7487 -0.1432
 6175TIP3    H118531   4.746   3.892   3.116 -0.3520 -0.9888  0.4972
 6175TIP3    H218532   4.657   3.771   3.135 -0.5341 -1.1061 -0.9597
 6176TIP3   OH218533   6.150   1.575   2.738  0.0349  0.0851 -0.6680
 6176TIP3    H118534   6.066   1.621   2.744 -0.0711 -0.1875  0.0032
 6176TIP3    H218535   6.128   1.483   2.753  0.3051 -0.1486 -1.5827
 6177TIP3   OH218536   0.730   5.959   4.394 -0.6777  0.0562 -0.4856
 6177TIP3    H118537   0.691   5.907   4.324 -0.0149 -1.6034  0.3320
 6177TIP3    H218538   0.663   5.962   4.462 -0.2762 -0.8112 -0.0335
 6178TIP3   OH218539   2.635   2.139   4.595 -0.3159  0.3263 -0.5342
 6178TIP3    H118540   2.551   2.161   4.555  1.3742  0.1066 -4.7131
 6178TIP3    H218541   2.676   2.224   4.613 -0.2953  0.4726 -1.2522
 6179TIP3   OH218542   4.022   1.953   1.411 -0.3214  0.0577  0.4942
 6179TIP3    H118543   4.031   1.886   1.479  0.3074  0.1665  0.5246
 6179TIP3    H218544   3.939   1.932   1.368 -0.5052 -0.2799  1.0028
 6180TIP3   OH218545   5.043   5.548   4.525  0.4028  0.0880 -0.0179
 6180TIP3    H118546   5.009   5.576   4.440  0.0984 -0.3142 -0.0305
 6180TIP3    H218547   5.122   5.498   4.503 -0.3778 -1.1159 -0.1586
 6181TIP3   OH218548   1.713   2.946   4.600 -0.1317  0.7364  0.3892
 6181TIP3    H118549   1.691   3.029   4.559  1.1691  0.8977 -0.0064
 6181TIP3    H218550   1.630   2.899   4.604 -0.2174  0.2393 -3.4714
 6182TIP3   OH218551   0.942   0.136   1.790  0.3349 -0.1086  0.3432
 6182TIP3    H118552   0.986   0.086   1.721  1.6925  0.8930  0.4495
 6182TIP3    H218553   1.010   0.192   1.826 -1.3461  2.6751 -0.5199
 6183TIP3   OH218554   2.591   5.697   5.188 -0.7004 -0.1360 -0.1305
 6183TIP3    H118555   2.536   5.624   5.162 -3.0045  1.8783 -1.3014
 6183TIP3    H218556   2.617   5.738   5.105  0.2808  0.5900  0.5119
 6184TIP3   OH218557   1.187   0.126   2.127 -0.2117  0.0099  0.0473
 6184TIP3    H118558   1.264   0.169   2.163 -0.7213 -0.8879  2.4232
 6184TIP3    H218559   1.172   0.051   2.185 -1.7724 -0.9144 -1.4600
 6185TIP3   OH218560   6.159   0.349   0.643  0.6368  0.0390 -0.5271
 6185TIP3    H118561   6.239   0.374   0.596  1.6212 -2.1633 -0.1473
 6185TIP3    H218562   6.089   0.362   0.579  1.4465  0.8366 -1.2783
 6186TIP3   OH218563   3.865   5.052   0.047 -0.1214  0.0345  0.2117
 6186TIP3    H118564   3.837   5.090   0.131 -0.3182 -0.4699  0.3748
 6186TIP3    H218565   3.783   5.035   0.000  0.0017  0.9534 -0.3776
 6187TIP3   OH218566   0.489   0.394   0.901  0.2254 -0.3376  0.1684
 6187TIP3    H118567   0.476   0.478   0.856 -0.2284 -0.0112  0.8877
 6187TIP3    H218568   0.583   0.381   0.903  0.4436  1.1722  1.8447
 6188TIP3   OH218569   4.938   3.962   5.049  0.3246 -0.7659 -0.2924
 6188TIP3    H118570   4.980   3.979   4.965 -1.6088 -2.4194 -1.6846
 6188TIP3    H218571   4.922   3.868   5.050 -1.5455 -0.5013  0.9881
 6189TIP3   OH218572   3.591   2.075   2.538  0.0012 -0.4386  0.2477
 6189TIP3    H118573   3.590   2.009   2.468  3.9607  0.0516 -0.4886
 6189TIP3    H218574   3.576   2.158   2.493 -2.4504 -0.4985  0.8205
 6190TIP3   OH218575   1.106   4.573   0.502 -0.5333 -0.7307 -0.1932
 6190TIP3    H118576   1.118   4.506   0.435  0.3775 -0.3122 -0.4621
 6190TIP3    H218577   1.084   4.653   0.454  2.3316  0.1567 -0.2758
 6191TIP3   OH218578  -0.011   3.126   2.859  0.0032 -0.3920 -0.5544
 6191TIP3    H118579   0.065   3.134   2.803 -0.3129  1.1164 -0.7961
 6191TIP3    H218580   0.025   3.120   2.948  0.4039  2.5865 -0.4383
 6192TIP3   OH218581   1.935   4.544   1.641  0.3394  0.7249 -1.0709
 6192TIP3    H118582   1.885   4.463   1.651  0.6860  0.7941  3.3680
 6192TIP3    H218583   1.869   4.613   1.642  0.2360  0.6234 -0.6905
 6193TIP3   OH218584   2.057   5.828   3.187 -0.5082  0.2829 -0.6627
 6193TIP3    H118585   2.019   5.815   3.274  0.7978  0.8003  0.0176
 6193TIP3    H218586   2.079   5.739   3.158  0.2795  0.2009  0.1355
 6194TIP3   OH218587   0.697   4.622   5.123 -0.6463  0.2116  0.2431
 6194TIP3    H118588   0.753   4.638   5.199  0.6246  1.1478 -0.8364
 6194TIP3    H218589   0.614   4.592   5.160 -0.4569  1.7166  2.0573
 6195TIP3   OH218590   5.773   5.429   3.485  0.2248  0.6843 -0.0082
 6195TIP3    H118591   5.788   5.519   3.457 -0.1394  0.5261 -0.7097
 6195TIP3    H218592   5.855   5.405   3.529  0.2454  1.4204  0.3861
 6196TIP3   OH218593   0.089   2.884   2.020 -0.4834 -0.2014  0.3283
 6196TIP3    H118594   0.032   2.871   2.096 -0.0557  0.9434  0.8826
 6196TIP3    H218595   0.092   2.799   1.977 -1.7843 -0.5434  0.8569
 6197TIP3   OH218596   3.047   4.903   3.805 -0.9883 -0.2305 -0.0125
 6197TIP3    H118597   3.134   4.938   3.823 -0.5712 -1.1374 -0.2247
 6197TIP3    H218598   2.989   4.953   3.862 -0.3341  0.4003  0.1126
 6198TIP3   OH218599   5.865   3.029   4.141 -0.4069 -0.0353  0.0908
 6198TIP3    H118600   5.872   3.100   4.204  1.6096 -1.1560  1.2108
 6198TIP3    H218601   5.827   2.957   4.189 -1.1129 -0.1795 -0.6558
 6199TIP3   OH218602   5.578   5.286   0.752  0.3942 -0.1891  0.6906
 6199TIP3    H118603   5.607   5.248   0.670 -0.1467 -0.5858  0.6749
 6199TIP3    H218604   5.557   5.211   0.808 -2.4462  0.0066  0.0385
 6200TIP3   OH218605   3.634   5.833   4.279 -0.2664  0.4403 -0.0538
 6200TIP3    H118606   3.684   5.818   4.359  1.4532  1.4166 -0.8730
 6200TIP3    H218607   3.623   5.746   4.240  1.1581  0.2264 -0.0272
 6201TIP3   OH218608   4.442   2.641   0.789 -0.4490 -0.3444  0.1965
 6201TIP3    H118609   4.361   2.596   0.765 -1.8643  2.9890 -2.1431
 6201TIP3    H218610   4.506   2.611   0.725 -0.7317 -0.6745  0.0632
 6202TIP3   OH218611   3.695   0.719   4.418  0.0015 -0.2382  0.0258
 6202TIP3    H118612   3.727   0.784   4.355 -1.6573  0.8989  0.2719
 6202TIP3    H218613   3.721   0.755   4.504 -1.7750  0.7006  0.2286
 6203TIP3   OH218614   5.819   3.925   2.699 -0.3469  0.1737 -0.2183
 6203TIP3    H118615   5.837   3.920   2.605 -0.9773 -0.4692 -0.3130
 6203TIP3    H218616   5.878   3.994   2.731  0.9909 -0.6535 -0.8034
 6204TIP3   OH218617   2.845   2.445   3.028  0.0837 -0.0764 -0.3866
 6204TIP3    H118618   2.910   2.410   2.966  0.5304  1.3914 -0.7915
 6204TIP3    H218619   2.844   2.382   3.100  1.0126 -0.7967 -0.9759
 6205TIP3   OH218620   2.060   4.468   0.377  0.2748  0.5236  0.2272
 6205TIP3    H118621   2.091   4.547   0.420 -0.0630  0.5619  0.4078
 6205TIP3    H218622   2.138   4.429   0.338  0.6543  0.2623  1.2382
 6206TIP3   OH218623   2.809   4.549   2.714  0.0066 -0.4355 -0.4220
 6206TIP3    H118624   2.750   4.616   2.679 -1.2998 -0.9960  0.5930
 6206TIP3    H218625   2.798   4.557   2.809  1.5906 -0.5605 -0.2170
 6207TIP3   OH218626   2.542   0.293   1.544  0.0268  0.6042  0.1123
 6207TIP3    H118627   2.610   0.315   1.608 -0.1094  1.2008  0.0654
 6207TIP3    H218628   2.576   0.326   1.461 -0.4082  1.1034  0.1266
 6208TIP3   OH218629   2.208   4.723   3.548 -0.2564 -0.2597 -0.0602
 6208TIP3    H118630   2.212   4.629   3.566  0.7783 -0.1529  0.3188
 6208TIP3    H218631   2.293   4.756   3.576 -1.5027  1.2322  2.2030
 6209TIP3   OH218632   6.045   2.368   2.738  0.0278 -0.1073 -0.7009
 6209TIP3    H118633   6.109   2.438   2.747  0.8967 -0.9292 -0.3324
 6209TIP3    H218634   6.085   2.293   2.782 -0.7850 -0.9040 -1.2807
 6210TIP3   OH218635   5.686   3.634   1.650 -0.7382 -0.3486  0.9047
 6210TIP3    H118636   5.695   3.545   1.616 -0.2459 -0.1234  0.4345
 6210TIP3    H218637   5.772   3.673   1.637 -1.1102  0.3805  0.5885
 6211TIP3   OH218638   3.875   3.123   2.937 -0.1236  0.0458 -0.2344
 6211TIP3    H118639   3.873   3.158   2.849  3.3072  1.7203  0.1990
 6211TIP3    H218640   3.885   3.028   2.925  0.3793  0.2580 -1.6700
 6212TIP3   OH218641   5.064   1.885   3.581  0.3678  0.2445 -0.0610
 6212TIP3    H118642   5.109   1.927   3.655  0.6606  0.5265 -0.3988
 6212TIP3    H218643   5.133   1.866   3.518  0.1071  0.0660 -0.2949
 6213TIP3   OH218644   3.422   2.819   1.450  0.0884  0.4129  0.2392
 6213TIP3    H118645   3.511   2.851   1.440  0.7060 -0.5181  2.1745
 6213TIP3    H218646   3.396   2.847   1.538 -0.8662 -0.8112  0.3781
 6214TIP3   OH218647   5.506   4.029   4.207 -0.6488 -0.4394  0.0046
 6214TIP3    H118648   5.442   4.000   4.143 -0.6508 -3.1982  1.1039
 6214TIP3    H218649   5.579   4.062   4.155 -1.0222 -1.7256 -1.4246
 6215TIP3   OH218650   5.200   5.285   3.884  0.4475 -0.0551  0.6220
 6215TIP3    H118651   5.186   5.379   3.873  1.7099  0.1506  0.6555
 6215TIP3    H218652   5.149   5.245   3.813  0.1308  0.6644  0.4335
 6216TIP3   OH218653   5.172   1.035   1.809  0.4342  0.1689  0.3633
 6216TIP3    H118654   5.188   0.978   1.735 -3.5114 -0.3012 -0.3359
 6216TIP3    H218655   5.105   1.096   1.779  0.6899  1.7836  2.7323
 6217TIP3   OH218656   2.051   2.358   4.448  0.0723  0.3086  0.2100
 6217TIP3    H118657   2.079   2.267   4.459 -0.9491  0.0583  0.8852
 6217TIP3    H218658   2.047   2.371   4.353 -3.7716 -1.6943 -0.0664
 6218TIP3   OH218659   1.628   3.818   2.233 -0.0727  0.0214  0.4677
 6218TIP3    H118660   1.683   3.884   2.190  0.5285 -1.4013 -1.0835
 6218TIP3    H218661   1.561   3.797   2.169 -1.3419  0.3553  1.6302
 6219TIP3   OH218662   0.683   0.636   3.956 -0.0492  0.3903 -0.5068
 6219TIP3    H118663   0.715   0.570   3.894 -1.1830 -1.3487  0.6552
 6219TIP3    H218664   0.630   0.695   3.903  1.2829  0.6248 -1.6423
 6220TIP3   OH218665   4.781   0.871   0.375  0.1262 -0.2271  0.1782
 6220TIP3    H118666   4.841   0.929   0.422  0.9947 -0.3935 -0.6800
 6220TIP3    H218667   4.755   0.805   0.439  0.3171  0.2499  0.7526
 6221TIP3   OH218668   5.839   2.094   4.386 -0.1185 -0.8150  0.3234
 6221TIP3    H118669   5.769   2.159   4.389  0.4728 -0.1886  0.8061
 6221TIP3    H218670   5.837   2.052   4.472  0.2000 -0.6778  0.4011
 6222TIP3   OH218671   4.191   2.680   3.612  0.0814 -0.0560  0.1917
 6222TIP3    H118672   4.237   2.730   3.543 -0.9437  1.2316  0.3986
 6222TIP3    H218673   4.219   2.589   3.598  1.9504  0.5319 -0.2607
 6223TIP3   OH218674   2.823   3.534   2.953 -0.5868 -0.6426 -0.1530
 6223TIP3    H118675   2.856   3.519   3.042  0.7403  0.7333 -0.3659
 6223TIP3    H218676   2.735   3.496   2.953 -0.7765 -0.3230  1.8747
 6224TIP3   OH218677   4.171   0.936   4.877 -0.3615 -0.1157 -0.1461
 6224TIP3    H118678   4.135   1.010   4.925 -1.7121 -1.0528  0.3191
 6224TIP3    H218679   4.255   0.969   4.842  0.0636  0.9703  1.7674
 6225TIP3   OH218680   3.361   0.722   2.372  0.4067 -0.3049 -0.1238
 6225TIP3    H118681   3.311   0.653   2.327  0.6634 -1.2623  1.0059
 6225TIP3    H218682   3.450   0.688   2.378  0.1029 -0.9095  2.3450
 6226TIP3   OH218683   3.433   5.920   0.088 -0.1870 -1.2393 -0.2191
 6226TIP3    H118684   3.465   5.924  -0.003 -0.7545  0.8691 -0.3664
 6226TIP3    H218685   3.504   5.959   0.140 -0.8578 -0.1792 -0.0748
 6227TIP3   OH218686   4.947   4.637   2.239  0.3436  0.0115  0.5472
 6227TIP3    H118687   4.969   4.587   2.318 -1.0360  0.9844  1.6190
 6227TIP3    H218688   4.862   4.677   2.260  0.8844  1.9118 -0.6481
 6228TIP3   OH218689   5.328   5.416   3.167 -0.3917  1.2689  0.3739
 6228TIP3    H118690   5.359   5.446   3.081  0.7889 -3.1066 -1.0051
 6228TIP3    H218691   5.407   5.412   3.221 -0.6267  1.3494  0.7227
 6229TIP3   OH218692   5.397   1.250   1.672 -0.0798 -0.0456  0.3122
 6229TIP3    H118693   5.359   1.241   1.760 -0.4168  0.4570  0.2202
 6229TIP3    H218694   5.389   1.163   1.634 -3.2575  0.5160 -0.5517
 6230TIP3   OH218695   0.903   5.326   3.513  0.2212  0.3101  0.3261
 6230TIP3    H118696   0.829   5.273   3.542 -0.9856  1.7031 -0.1061
 6230TIP3    H218697   0.884   5.345   3.421  1.1603  0.6320  0.1874
 6231TIP3   OH218698   4.771   2.858   3.808  0.0395 -0.1059 -0.1841
 6231TIP3    H118699   4.844   2.842   3.748 -0.5985 -1.2452 -0.6848
 6231TIP3    H218700   4.812   2.872   3.893  0.8995  0.3962 -0.6713
 6232TIP3   OH218701   1.182   3.671   2.210  0.2827 -0.5041 -0.5221
 6232TIP3    H118702   1.168   3.645   2.301 -0.7955 -0.0440 -0.5316
 6232TIP3    H218703   1.100   3.648   2.166  0.9001 -0.9963 -1.4541
 6233TIP3   OH218704   3.921   2.431   1.103  0.2325  0.0885  0.0967
 6233TIP3    H118705   3.919   2.455   1.196 -0.4841  0.8565 -0.1058
 6233TIP3    H218706   3.851   2.367   1.093 -0.5258  0.9379 -0.1480
 6234TIP3   OH218707   5.186   2.761   1.206 -0.0309 -0.2775  0.2501
 6234TIP3    H118708   5.177   2.788   1.297 -1.8677 -0.7882  0.2698
 6234TIP3    H218709   5.240   2.829   1.166 -0.1206  0.5503  1.4794
 6235TIP3   OH218710   2.313   1.514   0.166 -0.4453  0.3239  0.0676
 6235TIP3    H118711   2.242   1.531   0.227 -0.6409 -0.1808 -0.0141
 6235TIP3    H218712   2.290   1.431   0.125  0.1626  0.1853 -0.0002
 6236TIP3   OH218713   2.747   1.790   3.714  0.0764 -0.5009 -0.1173
 6236TIP3    H118714   2.687   1.727   3.754 -2.4243  0.7506 -1.5870
 6236TIP3    H218715   2.751   1.765   3.622  0.8859  0.1583 -0.2732
 6237TIP3   OH218716   0.528   4.901   3.988 -0.4003 -0.4788 -0.0354
 6237TIP3    H118717   0.487   4.986   3.976  0.1312 -0.3534 -1.0827
 6237TIP3    H218718   0.617   4.920   4.014 -0.6189 -0.7357  0.9247
 6238TIP3   OH218719   0.320   4.104   0.528 -0.4944  0.0783 -0.4152
 6238TIP3    H118720   0.364   4.187   0.508 -0.3339 -0.2166 -1.3667
 6238TIP3    H218721   0.381   4.037   0.496 -1.2040 -0.3666 -0.8530
 6239TIP3   OH218722   0.199   4.719   3.176 -0.4288 -0.2749 -0.4196
 6239TIP3    H118723   0.265   4.676   3.231 -1.4285  0.0210  1.0845
 6239TIP3    H218724   0.247   4.788   3.131  0.3704 -0.3066  0.3538
 6240TIP3   OH218725   0.458   2.130   1.530 -0.0546  0.4051  0.5575
 6240TIP3    H118726   0.534   2.151   1.476 -0.4872 -0.8178 -0.5853
 6240TIP3    H218727   0.473   2.039   1.558  0.6418  1.2862  3.3859
 6241TIP3   OH218728   2.869   5.854   0.365  0.2087 -0.2750  0.0047
 6241TIP3    H118729   2.882   5.765   0.331  0.2703  0.1926 -1.2580
 6241TIP3    H218730   2.918   5.910   0.304  0.2611  0.6184  0.8482
 6242TIP3   OH218731   1.487   5.393   3.905 -0.4115  0.0498 -0.5342
 6242TIP3    H118732   1.418   5.452   3.935 -1.1280  0.0221 -2.0614
 6242TIP3    H218733   1.471   5.311   3.953 -0.1025  0.7125  0.7328
 6243TIP3   OH218734   3.553   3.115   3.132  0.2545  0.7612 -0.2000
 6243TIP3    H118735   3.468   3.145   3.100  0.3066  2.0345  0.7940
 6243TIP3    H218736   3.568   3.165   3.212  1.0686 -0.8282  0.6917
 6244TIP3   OH218737   4.621   1.233   2.718  0.4778 -0.4918  0.2440
 6244TIP3    H118738   4.555   1.298   2.691  0.5499  0.3143  1.9251
 6244TIP3    H218739   4.702   1.264   2.679  0.2750 -0.2689 -0.0058
 6245TIP3   OH218740   4.618   1.597   4.432 -0.2125  0.4922  0.1470
 6245TIP3    H118741   4.600   1.688   4.411  1.7700  0.8336 -0.2621
 6245TIP3    H218742   4.532   1.560   4.454 -1.0848  2.3694  0.0859
 6246TIP3   OH218743   5.622   5.763   5.076 -0.6330 -0.3581 -0.0940
 6246TIP3    H118744   5.617   5.679   5.032 -0.4199 -1.0842  1.2115
 6246TIP3    H218745   5.703   5.803   5.045 -1.3315 -0.0773 -1.6287
 6247TIP3   OH218746   6.132   3.096   3.156  0.4020  0.6157  0.0764
 6247TIP3    H118747   6.213   3.047   3.173 -0.4962 -0.2819  1.9752
 6247TIP3    H218748   6.103   3.065   3.070  0.6186 -1.0988  0.6059
 6248TIP3   OH218749   2.852   4.302   4.459 -0.2369 -0.6063  0.0818
 6248TIP3    H118750   2.899   4.245   4.398  1.0262 -0.0787  0.5397
 6248TIP3    H218751   2.874   4.267   4.546 -2.9687 -2.0940  0.2787
 6249TIP3   OH218752   2.349   2.096   3.018 -0.7534 -0.8820  0.2653
 6249TIP3    H118753   2.315   2.150   2.947  0.7310 -0.6845 -0.3281
 6249TIP3    H218754   2.280   2.098   3.085 -1.0798  1.1093 -0.0662
 6250TIP3   OH218755   1.986   2.227   2.981  0.0667  0.1455 -0.1638
 6250TIP3    H118756   2.020   2.314   3.004 -0.0402  0.2105 -0.2490
 6250TIP3    H218757   2.048   2.166   3.020 -0.4584  0.2430  0.8568
 6251TIP3   OH218758   0.135   3.168   0.619  0.0536 -0.1760  0.3956
 6251TIP3    H118759   0.147   3.233   0.550 -2.4160 -0.0077  0.0453
 6251TIP3    H218760   0.069   3.207   0.677  0.9085 -1.0062  1.9856
 6252TIP3   OH218761   0.374   1.528   1.721 -0.2003 -0.6321  0.0011
 6252TIP3    H118762   0.413   1.608   1.758  0.3654 -0.8189 -0.1891
 6252TIP3    H218763   0.397   1.459   1.784 -1.4129 -0.5063  0.6065
 6253TIP3   OH218764   5.651   3.417   0.250  0.6650 -0.0168 -0.1125
 6253TIP3    H118765   5.676   3.376   0.167  1.7107 -0.5566  0.4626
 6253TIP3    H218766   5.620   3.504   0.225  0.2483 -0.4398 -1.1423
 6254TIP3   OH218767   1.734   4.743   1.673  0.8017 -0.4894  0.3037
 6254TIP3    H118768   1.680   4.766   1.597 -0.0448 -2.3944  0.2817
 6254TIP3    H218769   1.783   4.823   1.692  0.6066  0.2243 -1.8843
 6255TIP3   OH218770   2.968   3.638   4.508 -0.1801  0.3523 -0.0088
 6255TIP3    H118771   3.020   3.686   4.443  1.5856 -0.2925  0.8865
 6255TIP3    H218772   2.936   3.705   4.568 -2.1637  1.0115 -1.6921
 6256TIP3   OH218773   2.892   2.125   4.759  0.1331 -0.3566 -0.3630
 6256TIP3    H118774   2.800   2.102   4.773  0.0155 -0.0430 -0.5968
 6256TIP3    H218775   2.898   2.216   4.788  0.8355 -0.9742  1.5574
 6257TIP3   OH218776   3.633   4.541   4.100  0.3257 -0.0863 -0.4480
 6257TIP3    H118777   3.605   4.589   4.178  0.6143  0.5639 -0.7422
 6257TIP3    H218778   3.701   4.595   4.061  1.9207 -1.5543  0.1683
 6258TIP3   OH218779   0.449   1.003   3.507  0.1119 -0.0422  0.1278
 6258TIP3    H118780   0.517   1.065   3.482  0.5391  0.3599  2.1013
 6258TIP3    H218781   0.378   1.057   3.542 -0.5325 -0.5486 -0.3608
 6259TIP3   OH218782   3.989   5.179   2.898  0.5359  0.0369  0.0219
 6259TIP3    H118783   3.960   5.244   2.962 -1.7429 -0.2543 -0.6513
 6259TIP3    H218784   4.032   5.111   2.951  1.3576  1.1881  0.8988
 6260TIP3   OH218785   0.893   1.087   3.072  0.1776 -0.2543  0.2306
 6260TIP3    H118786   0.923   1.093   2.981  0.2037 -0.8074  0.1964
 6260TIP3    H218787   0.861   0.997   3.080 -0.7390  0.0852  0.4909
 6261TIP3   OH218788   5.437   3.024   0.603  0.0673  0.4012  0.0961
 6261TIP3    H118789   5.464   3.036   0.694 -0.3971  2.5444 -0.0092
 6261TIP3    H218790   5.490   3.086   0.554  0.4849 -0.8973 -1.1673
 6262TIP3   OH218791   1.002   3.036   1.115  0.1181 -0.3422 -0.4249
 6262TIP3    H118792   0.921   3.021   1.067  0.3315 -1.9050 -0.3735
 6262TIP3    H218793   1.013   2.956   1.168  2.1238 -0.5672 -1.0977
 6263TIP3   OH218794   5.950   3.987   1.580 -0.3678  0.4405  0.4198
 6263TIP3    H118795   5.884   4.003   1.648 -0.5460 -1.0175  0.6173
 6263TIP3    H218796   5.919   3.909   1.534  0.4091  0.6728 -0.5168
 6264TIP3   OH218797   4.254   3.673   1.847  0.6440  0.6574  0.1856
 6264TIP3    H118798   4.188   3.689   1.780  0.3233 -0.7972  0.1284
 6264TIP3    H218799   4.334   3.715   1.814  1.0311 -1.6421 -2.0850
 6265TIP3   OH218800   6.205   2.174   2.896 -0.0524  0.2492 -0.3400
 6265TIP3    H118801   6.196   2.116   2.820  0.9622  0.0729 -0.3431
 6265TIP3    H218802   6.299   2.171   2.917 -0.4706 -0.6018  1.6350
 6266TIP3   OH218803   2.737   0.980   2.904 -0.0720  0.1700  0.4028
 6266TIP3    H118804   2.647   0.993   2.874 -0.8222 -1.2289  1.9075
 6266TIP3    H218805   2.759   0.892   2.876  1.3420  0.9312 -1.0612
 6267TIP3   OH218806   3.248   0.227   3.061 -0.1647  0.1889 -0.1593
 6267TIP3    H118807   3.328   0.174   3.057  0.5143  1.2309 -0.7384
 6267TIP3    H218808   3.183   0.176   3.012 -0.6108 -1.8423  2.2908
 6268TIP3   OH218809   1.762   1.627   0.454 -0.1101  0.1703  0.4048
 6268TIP3    H118810   1.762   1.615   0.359 -0.5075  1.8423  0.1692
 6268TIP3    H218811   1.698   1.563   0.486  0.1608 -0.5338 -0.4264
 6269TIP3   OH218812   5.380   1.817   2.757 -0.0558 -0.3114 -0.0905
 6269TIP3    H118813   5.295   1.862   2.763  0.5157  0.5471  2.5021
 6269TIP3    H218814   5.406   1.830   2.665 -3.1133 -1.4782 -1.2764
 6270TIP3   OH218815   0.296   4.596   1.910 -0.0316 -0.0809 -0.1583
 6270TIP3    H118816   0.279   4.679   1.865  1.6101 -0.0576 -0.8320
 6270TIP3    H218817   0.302   4.532   1.839 -1.5016 -0.8335  0.3722
 6271TIP3   OH218818   1.513   0.652   1.934  0.2477  0.3038 -0.1924
 6271TIP3    H118819   1.463   0.717   1.983  0.3346 -0.2964  0.7085
 6271TIP3    H218820   1.529   0.581   1.996  2.7817  0.7548 -0.2323
 6272TIP3   OH218821   0.291   0.145   3.111  0.4140  0.3644 -0.1877
 6272TIP3    H118822   0.299   0.169   3.203  0.8064  1.7019 -0.5527
 6272TIP3    H218823   0.380   0.123   3.084  0.1032 -1.2969  0.0670
 6273TIP3   OH218824   0.621   5.273   3.442 -0.3569  0.2628 -0.7451
 6273TIP3    H118825   0.582   5.288   3.356 -0.5846  0.0983 -0.6713
 6273TIP3    H218826   0.581   5.192   3.473 -1.7496  1.3226  0.3447
 6274TIP3   OH218827   1.088   4.605   1.793 -0.7308  0.0298 -0.2883
 6274TIP3    H118828   1.060   4.562   1.712 -0.0837  0.3277 -0.6748
 6274TIP3    H218829   1.028   4.572   1.859 -0.2465 -1.4729 -0.5711
 6275TIP3   OH218830   0.409   3.905   0.064  0.3422 -0.0357 -0.2338
 6275TIP3    H118831   0.457   3.969   0.116 -0.3181 -0.6820  1.2551
 6275TIP3    H218832   0.457   3.899  -0.019  2.5524 -0.2981  0.9858
 6276TIP3   OH218833   1.894   1.290   0.111  0.0372  0.0554  0.2458
 6276TIP3    H118834   1.826   1.351   0.140 -0.3561 -1.1871  2.1691
 6276TIP3    H218835   1.858   1.203   0.134  1.3859 -0.7642 -0.6307
 6277TIP3   OH218836   2.682   0.277   2.541 -0.4313 -0.4698 -0.0221
 6277TIP3    H118837   2.656   0.200   2.592 -3.0793  1.2535  1.4380
 6277TIP3    H218838   2.632   0.349   2.578  0.7397  1.7203 -2.3617
 6278TIP3   OH218839   4.568   2.288   5.143  0.3856  0.1651 -0.2785
 6278TIP3    H118840   4.499   2.238   5.098 -1.8477  1.0278  1.9635
 6278TIP3    H218841   4.558   2.377   5.111  0.3062  0.3322  0.2030
 6279TIP3   OH218842   1.743   5.491   1.655  0.0229  0.0964 -0.1173
 6279TIP3    H118843   1.773   5.401   1.671 -0.8864 -0.1207  0.4182
 6279TIP3    H218844   1.756   5.536   1.738 -1.2827 -0.0553  0.1915
 6280TIP3   OH218845   4.897   4.875   0.290 -0.3565 -0.2207  0.6790
 6280TIP3    H118846   4.974   4.898   0.239  0.5965 -2.1718  1.1580
 6280TIP3    H218847   4.930   4.857   0.378 -1.6645  0.9434  1.4468
 6281TIP3   OH218848   3.946   3.297   2.381  0.2703 -0.4305 -0.8409
 6281TIP3    H118849   3.948   3.385   2.342  0.6869 -0.9739 -2.1042
 6281TIP3    H218850   3.863   3.294   2.428 -1.3433 -0.4198 -3.4591
 6282TIP3   OH218851   0.172   5.104   1.258 -0.0567  0.3585  0.3219
 6282TIP3    H118852   0.232   5.132   1.190 -0.7194  1.6017  0.2236
 6282TIP3    H218853   0.090   5.149   1.239 -1.6458 -2.6057 -0.5678
 6283TIP3   OH218854   4.615   4.161   1.057 -0.0825 -0.7175 -0.6041
 6283TIP3    H118855   4.624   4.227   0.988  0.9786  0.0327  0.2083
 6283TIP3    H218856   4.705   4.146   1.086 -0.4777 -1.3172  0.3374
 6284TIP3   OH218857   3.328   5.725   1.220  0.2003 -0.0662  0.5820
 6284TIP3    H118858   3.270   5.798   1.197 -0.2352 -0.0796  1.5934
 6284TIP3    H218859   3.269   5.654   1.246  0.5959 -1.0727 -1.1502
 6285TIP3   OH218860   4.897   1.473   0.766 -0.5015 -0.3405  0.4455
 6285TIP3    H118861   4.846   1.554   0.771 -0.0747 -0.0192 -0.2994
 6285TIP3    H218862   4.948   1.472   0.847  0.3198  0.7121 -0.0316
 6286TIP3   OH218863   3.484   0.228   5.166 -0.0652  0.4790  0.0446
 6286TIP3    H118864   3.556   0.218   5.104 -0.7128 -1.9413 -0.4395
 6286TIP3    H218865   3.416   0.274   5.117 -0.3275 -0.8405 -0.8865
 6287TIP3   OH218866   5.402   1.453   4.632 -0.0066 -0.8301 -0.0998
 6287TIP3    H118867   5.441   1.533   4.665 -0.7141 -0.3474 -0.3895
 6287TIP3    H218868   5.469   1.414   4.576 -0.0806  0.2273 -0.9723
 6288TIP3   OH218869   0.826   2.783   4.184 -0.4330  0.4573  0.9219
 6288TIP3    H118870   0.771   2.769   4.106  1.4726  1.0551 -0.6299
 6288TIP3    H218871   0.862   2.870   4.172  1.7898 -0.3658  1.2177
 6289TIP3   OH218872   4.231   4.643   4.391 -0.5264 -0.0360 -0.0934
 6289TIP3    H118873   4.192   4.556   4.378  1.2412 -0.9891  0.6691
 6289TIP3    H218874   4.197   4.673   4.475 -1.8040  0.4094 -0.7490
 6290TIP3   OH218875   3.145   5.442   2.090 -0.5945  0.0218  0.2612
 6290TIP3    H118876   3.184   5.500   2.155 -0.0830 -0.5766  0.4991
 6290TIP3    H218877   3.150   5.355   2.129 -2.4955 -0.0383  0.4526
 6291TIP3   OH218878   2.414   2.760   4.195  0.7413  0.4600 -0.1374
 6291TIP3    H118879   2.399   2.773   4.101 -1.6501  0.2588  0.1538
 6291TIP3    H218880   2.404   2.847   4.233  1.9483  0.5850 -0.0460
 6292TIP3   OH218881   2.942   3.734   0.985  0.0605  0.1461  0.6762
 6292TIP3    H118882   2.897   3.814   1.010  0.2295  1.9894 -3.9671
 6292TIP3    H218883   3.035   3.757   0.987  0.0918  0.3363 -1.1088
 6293TIP3   OH218884   0.017   5.836   3.970 -0.4642  0.1831 -0.0168
 6293TIP3    H118885   0.046   5.804   3.885  0.5497 -1.0030  0.7297
 6293TIP3    H218886   0.062   5.920   3.981  0.7677 -0.4476  0.0306
 6294TIP3   OH218887   3.704   2.204   0.476  0.4612  0.5121  0.0295
 6294TIP3    H118888   3.669   2.191   0.388  0.5804  2.5491 -0.3655
 6294TIP3    H218889   3.739   2.119   0.501 -1.0713 -0.5369 -1.2085
 6295TIP3   OH218890   5.355   1.900   2.119  0.1499 -0.2818 -0.2160
 6295TIP3    H118891   5.382   1.933   2.034 -0.1492 -1.9723 -1.0007
 6295TIP3    H218892   5.284   1.959   2.146  0.2708  0.2924 -1.1180
 6296TIP3   OH218893   3.441   0.801   4.742  0.5124  0.0640  0.2524
 6296TIP3    H118894   3.502   0.873   4.723  2.5494 -1.0355  2.0994
 6296TIP3    H218895   3.498   0.727   4.763 -1.5157 -1.7160 -0.1838
 6297TIP3   OH218896   2.686   1.986   1.643 -0.1091 -0.1787 -0.3585
 6297TIP3    H118897   2.628   2.063   1.642  2.0028  1.5099 -1.2425
 6297TIP3    H218898   2.743   1.999   1.567  2.5194 -0.8427  1.4086
 6298TIP3   OH218899   0.068   0.630   2.229  0.4232  0.0666  0.1025
 6298TIP3    H118900   0.136   0.602   2.168 -0.3031  1.1516 -1.2868
 6298TIP3    H218901   0.011   0.685   2.176 -1.7883 -1.1416  1.1173
 6299TIP3   OH218902   2.055   1.711   1.941 -0.1587  0.7421  0.6494
 6299TIP3    H118903   2.057   1.651   2.016 -1.6067  0.7862  0.7545
 6299TIP3    H218904   2.062   1.798   1.981 -1.0161  0.7707  0.7747
 6300TIP3   OH218905   1.788   0.798   4.862  0.2742 -0.6048 -0.1635
 6300TIP3    H118906   1.868   0.747   4.876  1.1862  1.0804  1.1991
 6300TIP3    H218907   1.717   0.736   4.878  1.3212 -1.6930  0.4093
 6301TIP3   OH218908   5.153   2.509   0.839 -0.2653  0.4816  0.0606
 6301TIP3    H118909   5.212   2.580   0.815 -0.7401  0.6911 -0.5422
 6301TIP3    H218910   5.144   2.515   0.934 -1.1521  1.9365 -0.0823
 6302TIP3   OH218911   3.633   2.960   3.503 -1.3177 -0.2287 -0.0402
 6302TIP3    H118912   3.675   2.940   3.419 -1.2035  0.0885 -0.0600
 6302TIP3    H218913   3.651   3.053   3.517  0.8818 -0.7998  1.5711
 6303TIP3   OH218914   1.985   3.971   4.682  0.3174 -0.3718 -0.0093
 6303TIP3    H118915   1.906   3.999   4.728 -0.0221 -1.7104  0.2593
 6303TIP3    H218916   1.980   4.014   4.596 -0.1471  0.3968  0.3894
 6304TIP3   OH218917   0.513   3.326   1.138  0.5425 -0.2729 -0.2028
 6304TIP3    H118918   0.560   3.402   1.105  0.0838 -0.3954 -1.1782
 6304TIP3    H218919   0.501   3.343   1.232  2.6915 -0.3415  0.1424
 6305TIP3   OH218920   5.228   3.655   2.914  0.0639  0.3095 -0.2436
 6305TIP3    H118921   5.276   3.572   2.917  0.2451  0.4199  2.2362
 6305TIP3    H218922   5.236   3.685   2.824 -1.1894 -3.0363 -1.6311
 6306TIP3   OH218923   5.701   3.434   2.805 -0.0254 -0.1008  0.2509
 6306TIP3    H118924   5.762   3.367   2.834 -0.1880 -0.7910 -0.8972
 6306TIP3    H218925   5.756   3.509   2.781  0.3077 -0.4219  0.0007
 6307TIP3   OH218926   0.622   2.768   0.956 -0.3313 -0.4059  0.5366
 6307TIP3    H118927   0.713   2.755   0.982 -0.4958  0.2951  1.5178
 6307TIP3    H218928   0.599   2.853   0.993 -1.0594 -0.0619 -0.6368
 6308TIP3   OH218929   4.147   5.546   2.294  0.1602 -0.2511  0.3294
 6308TIP3    H118930   4.205   5.506   2.359  0.2612 -2.7008 -1.1295
 6308TIP3    H218931   4.059   5.519   2.321 -0.0167  0.6448  0.6811
 6309TIP3   OH218932   1.728   2.147   1.757 -0.1665  0.2475  0.0181
 6309TIP3    H118933   1.637   2.140   1.729  0.3073 -1.7927 -1.2147
 6309TIP3    H218934   1.779   2.135   1.677  1.1929  0.4718  0.8207
 6310TIP3   OH218935   5.307   3.808   3.905  0.4026  0.2594  0.0866
 6310TIP3    H118936   5.240   3.813   3.837 -0.3777 -0.2421  0.7908
 6310TIP3    H218937   5.358   3.888   3.894  0.3571  0.1439 -1.1406
 6311TIP3   OH218938   3.121   2.028   4.473  0.3492 -0.3913  0.1736
 6311TIP3    H118939   3.199   2.078   4.495 -0.0148 -0.0356  0.6883
 6311TIP3    H218940   3.151   1.963   4.410  0.3953  1.9820 -2.4488
 6312TIP3   OH218941   0.375   5.161   0.794 -0.3436  0.0294 -0.2677
 6312TIP3    H118942   0.434   5.211   0.738 -1.3874  0.7266 -0.7804
 6312TIP3    H218943   0.287   5.190   0.769 -0.9457 -1.3607  0.1117
 6313TIP3   OH218944   3.171   4.144   1.102  0.0536 -0.2259 -0.1923
 6313TIP3    H118945   3.077   4.159   1.100  0.1320  0.4754 -2.8723
 6313TIP3    H218946   3.208   4.212   1.046  2.0626 -1.0414  0.0408
 6314TIP3   OH218947   4.716   1.922   1.152 -0.3190  0.2691 -0.3534
 6314TIP3    H118948   4.786   1.966   1.200 -1.0639  0.0593  0.9862
 6314TIP3    H218949   4.637   1.941   1.202 -0.7253 -2.2770  0.1025
 6315TIP3   OH218950   3.854   3.104   0.526 -0.4215  0.2294  0.7854
 6315TIP3    H118951   3.920   3.087   0.593 -0.6627  0.8998  1.2101
 6315TIP3    H218952   3.863   3.198   0.507  1.9612 -0.5534 -2.6330
 6316TIP3   OH218953   3.643   2.573   1.855 -0.0243  0.1802  0.1026
 6316TIP3    H118954   3.671   2.555   1.765 -0.0118 -1.0648  0.3344
 6316TIP3    H218955   3.722   2.607   1.898  0.6944 -1.5607  0.2662
 6317TIP3   OH218956   3.130   5.228   0.841  0.2879  0.1776  0.0902
 6317TIP3    H118957   3.195   5.280   0.793  0.1834  0.7373  0.5463
 6317TIP3    H218958   3.168   5.217   0.929 -0.4976  1.0119  0.5382
 6318TIP3   OH218959   1.571   2.659   0.032  0.1678  0.2070 -0.3397
 6318TIP3    H118960   1.611   2.693   0.112 -0.2486  2.3289 -0.9630
 6318TIP3    H218961   1.477   2.658   0.050  0.1568 -0.3970 -0.4198
 6319TIP3   OH218962   0.583   1.884   1.108 -0.2580 -0.2182 -0.0438
 6319TIP3    H118963   0.619   1.797   1.090 -0.1953 -0.1419 -0.3006
 6319TIP3    H218964   0.660   1.940   1.120 -0.3014 -0.3064  0.6708
 6320TIP3   OH218965   0.005   0.624   0.704 -0.0645 -0.3657 -0.4161
 6320TIP3    H118966   0.002   0.715   0.677  1.3585 -0.0800  0.3059
 6320TIP3    H218967   0.044   0.578   0.630  0.8539 -0.0954 -0.1085
 6321TIP3   OH218968   3.804   0.823   4.658  0.5111 -0.5637 -0.4941
 6321TIP3    H118969   3.900   0.822   4.661  0.5340  0.9062  1.5852
 6321TIP3    H218970   3.778   0.790   4.744 -0.9131 -2.1581 -1.4968
 6322TIP3   OH218971   4.535   0.564   1.860 -0.5201  0.0885  0.4130
 6322TIP3    H118972   4.445   0.541   1.884 -0.2073 -0.7970  0.7785
 6322TIP3    H218973   4.555   0.640   1.915 -0.9465  0.1260  0.5258
 6323TIP3   OH218974   4.105   5.799   0.281  0.0630  0.1362  0.0945
 6323TIP3    H118975   4.200   5.799   0.294  0.0490 -0.6808  0.2396
 6323TIP3    H218976   4.070   5.845   0.358  0.3522  0.6921 -0.1019
 6324TIP3   OH218977   2.112   0.552   2.484 -0.4145 -0.0777 -0.3008
 6324TIP3    H118978   2.184   0.608   2.457 -1.0310  1.2563  0.6917
 6324TIP3    H218979   2.039   0.577   2.426 -0.9338  0.7924  0.6965
 6325TIP3   OH218980   2.446   0.796   4.012 -0.2396  0.5524  0.0910
 6325TIP3    H118981   2.354   0.769   4.012  0.0242 -0.4413 -1.0312
 6325TIP3    H218982   2.445   0.882   4.054 -1.9688  1.4956 -1.7054
 6326TIP3   OH218983   0.771   3.371   2.106 -0.1673 -0.0498 -0.3610
 6326TIP3    H118984   0.738   3.431   2.173  0.2336  0.4931 -0.6419
 6326TIP3    H218985   0.793   3.291   2.153  2.3692  1.1062  0.5971
 6327TIP3   OH218986   2.329   0.260   0.922  0.0149 -0.0231  0.0305
 6327TIP3    H118987   2.241   0.224   0.917 -0.0708  0.3142 -1.3174
 6327TIP3    H218988   2.387   0.186   0.906  0.0554 -0.4447  1.8690
 6328TIP3   OH218989   4.006   3.775   0.268  0.1170 -0.7220  0.5124
 6328TIP3    H118990   4.042   3.743   0.351  0.3723 -1.1691  0.2326
 6328TIP3    H218991   4.025   3.869   0.268  0.9829 -0.8906  0.5264
 6329TIP3   OH218992   4.445   4.421   2.893 -0.0067  0.4167 -0.4167
 6329TIP3    H118993   4.479   4.337   2.862  1.4563  1.4179 -1.6900
 6329TIP3    H218994   4.350   4.409   2.896  0.1988 -1.4547  0.0315
 6330TIP3   OH218995   2.072   1.514   2.129  0.8362 -0.1141  0.8682
 6330TIP3    H118996   2.159   1.475   2.137  1.5215  1.2468  0.4561
 6330TIP3    H218997   2.013   1.440   2.116  2.2086 -0.9786 -0.9684
 6331TIP3   OH218998   1.136   1.853   3.525 -0.0853  0.2349 -0.2111
 6331TIP3    H118999   1.062   1.822   3.578  1.4479 -1.2743  1.1862
 6331TIP3    H219000   1.129   1.804   3.443 -1.2624  0.9878 -0.5861
 6332TIP3   OH219001   5.089   5.434   4.117  0.4139  0.1028 -0.2046
 6332TIP3    H119002   5.035   5.437   4.038  1.2010  0.2763 -0.7399
 6332TIP3    H219003   5.031   5.467   4.186 -0.3096 -0.1320 -0.6814
 6333TIP3   OH219004   0.966   0.675   4.002  1.0083 -0.0173  0.3914
 6333TIP3    H119005   0.871   0.675   3.987  1.1966 -1.1038 -1.0040
 6333TIP3    H219006   1.004   0.691   3.916  2.1005  1.7102  1.1536
 6334TIP3   OH219007   0.638   1.859   2.681  0.2919  0.0659 -0.0870
 6334TIP3    H119008   0.586   1.858   2.761 -1.6651 -0.1249 -1.2970
 6334TIP3    H219009   0.724   1.892   2.709 -0.3442  0.0931  2.0458
 6335TIP3   OH219010   4.821   1.097   1.206 -0.5592  0.5267  0.0345
 6335TIP3    H119011   4.749   1.107   1.144 -0.0727  1.5847 -0.3842
 6335TIP3    H219012   4.779   1.089   1.292 -1.2444 -1.1279 -0.4195
 6336TIP3   OH219013   3.731   3.318   2.531  0.8659  0.2260  0.1409
 6336TIP3    H119014   3.744   3.331   2.625  2.1149  2.2259 -0.2631
 6336TIP3    H219015   3.655   3.372   2.510  1.0521  0.3718 -0.1438
 6337TIP3   OH219016   5.729   3.444   5.024  0.7333  0.5667 -0.2273
 6337TIP3    H119017   5.724   3.376   4.957 -0.1888  1.4192 -1.0653
 6337TIP3    H219018   5.710   3.525   4.977 -2.5843  0.9391  1.4667
 6338TIP3   OH219019   3.134   1.417   0.982 -0.2596 -0.0385  0.1904
 6338TIP3    H119020   3.214   1.365   0.991  0.9286  1.8074  1.0359
 6338TIP3    H219021   3.164   1.499   0.942 -2.0311  0.0870 -0.9911
 6339TIP3   OH219022   4.549   2.125   2.388  0.7098  0.2533  0.0022
 6339TIP3    H119023   4.554   2.157   2.478 -0.2242 -1.2139  0.6137
 6339TIP3    H219024   4.483   2.180   2.347  2.2885  2.0147 -0.3077
 6340TIP3   OH219025   5.394   4.584   1.788 -0.2156  0.3405  0.2155
 6340TIP3    H119026   5.486   4.608   1.800 -0.2018  2.3320 -2.6900
 6340TIP3    H219027   5.358   4.585   1.876  2.6702 -1.3891  1.5747
 6341TIP3   OH219028   1.093   0.845   1.744 -0.4237 -0.9683  0.1363
 6341TIP3    H119029   1.062   0.834   1.655  0.9132 -1.9761 -0.2253
 6341TIP3    H219030   1.058   0.770   1.792 -1.9462  0.0688  0.7247
 6342TIP3   OH219031   6.235   1.140   0.653  0.5119 -0.0816 -0.2497
 6342TIP3    H119032   6.148   1.171   0.680  0.1447 -1.3946  0.1582
 6342TIP3    H219033   6.278   1.116   0.736  0.3266 -1.7472 -0.5978
 6343TIP3   OH219034   0.709   3.902   3.505  0.5650 -0.3849 -0.2409
 6343TIP3    H119035   0.774   3.947   3.451  0.2516 -0.8319 -1.0023
 6343TIP3    H219036   0.634   3.960   3.506  0.2648 -0.7529 -0.9878
 6344TIP3   OH219037   4.063   3.573   2.003  0.7373 -0.1298  0.4000
 6344TIP3    H119038   4.043   3.664   2.026 -1.0857  0.1582 -1.9885
 6344TIP3    H219039   4.129   3.580   1.934 -0.1330 -0.5403 -0.4951
 6345TIP3   OH219040   0.353   0.825   2.579 -0.7121  0.5470  0.1380
 6345TIP3    H119041   0.446   0.832   2.558 -0.7489  0.5487 -0.0319
 6345TIP3    H219042   0.322   0.751   2.527 -0.3579 -0.8466  1.8133
 6346TIP3   OH219043   1.593   4.697   0.412 -0.3574  0.0257 -0.3149
 6346TIP3    H119044   1.626   4.709   0.323  0.9461  0.4706  0.2072
 6346TIP3    H219045   1.616   4.607   0.434  1.3342  0.5880  0.3513
 6347TIP3   OH219046   5.375   2.831   3.272 -0.4842  0.0657  0.1452
 6347TIP3    H119047   5.464   2.796   3.279 -1.6999 -3.1929  1.3137
 6347TIP3    H219048   5.327   2.763   3.225 -2.7765  0.8756  1.1874
 6348TIP3   OH219049   3.273   4.314   0.930  0.3449  0.0554 -0.6034
 6348TIP3    H119050   3.247   4.406   0.944 -0.7750 -0.3051 -0.1636
 6348TIP3    H219051   3.306   4.312   0.840  1.6090  1.1390 -0.2018
 6349TIP3   OH219052   5.387   3.287   5.110 -0.0785  0.1602  0.1411
 6349TIP3    H119053   5.389   3.376   5.077 -1.7418 -0.6333 -2.4227
 6349TIP3    H219054   5.443   3.238   5.049 -0.0521 -0.7388  0.8643
 6350TIP3   OH219055   2.300   0.991   2.989  0.7203 -0.4554  0.4387
 6350TIP3    H119056   2.211   1.018   3.012  0.6510  0.4570 -0.7514
 6350TIP3    H219057   2.305   0.899   3.014 -0.3792 -0.3766  1.0216
 6351TIP3   OH219058   2.394   2.283   4.511  0.5369  0.0752 -0.5409
 6351TIP3    H119059   2.408   2.355   4.449  0.1813  0.0380 -0.6670
 6351TIP3    H219060   2.333   2.319   4.575  1.8781  0.5440  0.5207
 6352TIP3   OH219061   1.000   2.674   0.333  0.4854 -0.0183  0.2065
 6352TIP3    H119062   0.984   2.749   0.391  0.0501 -0.9829  1.3649
 6352TIP3    H219063   1.093   2.655   0.344  0.6423  0.4606 -0.2413
 6353TIP3   OH219064   3.983   2.848   2.970  0.1076  0.5691  0.7901
 6353TIP3    H119065   3.930   2.769   2.975  0.5860  0.0985 -1.0323
 6353TIP3    H219066   4.035   2.846   3.051  0.7473 -1.4816  0.4045
 6354TIP3   OH219067   1.370   1.689   3.090 -0.3936 -0.2053 -0.2061
 6354TIP3    H119068   1.371   1.693   2.994 -0.9172 -1.8518 -0.3056
 6354TIP3    H219069   1.459   1.715   3.116 -0.5732  1.3522 -1.0641
 6355TIP3   OH219070   4.351   3.391   3.561 -0.0327 -0.0455  0.0630
 6355TIP3    H119071   4.365   3.298   3.579  0.6275 -0.2658 -1.4860
 6355TIP3    H219072   4.292   3.420   3.631 -2.0997 -2.1648 -0.6877
 6356TIP3   OH219073   4.419   0.475   2.700 -0.7239  0.2145  0.1112
 6356TIP3    H119074   4.482   0.406   2.675 -0.5413  0.4522 -0.0906
 6356TIP3    H219075   4.462   0.522   2.771 -1.1028 -0.2516  0.6615
 6357TIP3   OH219076   6.220   2.354   3.435 -0.7176  0.2708 -0.1128
 6357TIP3    H119077   6.224   2.259   3.442 -1.4971  0.0026 -2.4264
 6357TIP3    H219078   6.309   2.381   3.412 -0.5085  0.1109  0.4958
 6358TIP3   OH219079   3.494   4.761   1.865 -0.0310 -0.3197 -0.1198
 6358TIP3    H119080   3.446   4.798   1.792  0.2766  0.7083  0.1869
 6358TIP3    H219081   3.584   4.793   1.854  0.7558 -2.5747 -0.9457
 6359TIP3   OH219082   2.361   3.433   4.476  0.4034 -0.2250 -0.1144
 6359TIP3    H119083   2.406   3.513   4.505  0.7382 -0.0139 -1.1707
 6359TIP3    H219084   2.303   3.411   4.549  1.3246  0.1848  0.7832
 6360TIP3   OH219085   1.595   1.423   1.137  0.2447 -0.4394 -0.3954
 6360TIP3    H119086   1.533   1.477   1.089  0.2703  1.2585  1.3591
 6360TIP3    H219087   1.541   1.363   1.188  0.2001 -1.6291 -1.7748
 6361TIP3   OH219088   6.139   4.903   1.308  0.0857 -0.9784  0.0340
 6361TIP3    H119089   6.118   4.951   1.228  0.6244  0.0063  0.4635
 6361TIP3    H219090   6.096   4.953   1.378  0.9673 -0.8936  0.5301
 6362TIP3   OH219091   1.524   4.176   2.088 -0.1234 -0.0228  0.4093
 6362TIP3    H119092   1.552   4.209   2.003 -2.9674 -0.0293 -0.6561
 6362TIP3    H219093   1.437   4.139   2.072 -0.2984 -1.0361  3.1167
 6363TIP3   OH219094   5.442   0.992   1.559  0.5324 -0.1593  0.0024
 6363TIP3    H119095   5.469   0.972   1.649 -0.8116  1.2970  0.7839
 6363TIP3    H219096   5.356   0.950   1.550 -0.5469  1.7978  0.3635
 6364TIP3   OH219097   6.200   3.078   0.613  0.8530  0.1118 -0.3880
 6364TIP3    H119098   6.118   3.029   0.615  0.9837 -0.0740  0.4693
 6364TIP3    H219099   6.174   3.168   0.631  0.8114  0.0985 -0.3812
 6365TIP3   OH219100   1.844   4.957   1.425  0.5678  0.1481  0.1840
 6365TIP3    H119101   1.779   4.961   1.495  0.7837  2.1504  0.3264
 6365TIP3    H219102   1.923   4.924   1.468  0.9348  2.1135  1.1552
 6366TIP3   OH219103   0.316   5.016   3.198 -0.7215 -0.4240 -0.0562
 6366TIP3    H119104   0.280   5.090   3.247  0.6714  0.0047  0.3674
 6366TIP3    H219105   0.333   4.950   3.265 -1.2458 -0.8553 -0.3349
 6367TIP3   OH219106   5.897   0.232   3.780 -0.2693 -0.0576  0.1935
 6367TIP3    H119107   5.944   0.253   3.861 -0.3593 -0.2917  0.3086
 6367TIP3    H219108   5.965   0.200   3.720 -0.1638  0.3576  0.0879
 6368TIP3   OH219109   3.779   3.791   1.636 -0.0844  0.2031  0.2670
 6368TIP3    H119110   3.734   3.720   1.591 -0.4149  1.0756 -0.8206
 6368TIP3    H219111   3.807   3.753   1.719 -0.4045 -1.1384 -0.2209
 6369TIP3   OH219112   4.113   0.702   4.724 -0.3013 -0.1657 -0.5100
 6369TIP3    H119113   4.208   0.696   4.737 -0.5167 -1.0253  0.8512
 6369TIP3    H219114   4.089   0.786   4.764 -0.4321 -1.1149  1.5489
 6370TIP3   OH219115   2.779   2.761   0.222 -0.2588 -0.3164 -0.3609
 6370TIP3    H119116   2.792   2.677   0.177 -0.2720 -0.2373 -0.5111
 6370TIP3    H219117   2.867   2.786   0.251 -0.1269  0.0151 -1.0214
 6371TIP3   OH219118   4.704   3.988   0.151 -0.0200 -0.2105 -0.0836
 6371TIP3    H119119   4.760   3.955   0.082  0.0784 -1.3491  0.5280
 6371TIP3    H219120   4.749   4.066   0.185  0.7413 -0.6040 -0.1931
 6372TIP3   OH219121   2.532   0.946   1.112 -0.1544 -0.6674  0.2194
 6372TIP3    H119122   2.596   1.008   1.077 -0.8950 -0.0243 -0.0250
 6372TIP3    H219123   2.574   0.910   1.190  0.2452  0.2280  0.4319
 6373TIP3   OH219124   5.973   2.849   5.001  0.3993  0.4939  0.1041
 6373TIP3    H119125   5.884   2.882   5.013 -0.9628 -2.2194 -1.4344
 6373TIP3    H219126   5.984   2.843   4.906  1.4677 -1.0552  0.2849
 6374TIP3   OH219127   0.581   0.245   3.045 -0.3598 -0.3171 -0.0449
 6374TIP3    H119128   0.546   0.334   3.047 -0.0131 -0.1707  1.9119
 6374TIP3    H219129   0.658   0.250   2.988 -1.0166  0.3383 -0.9025
 6375TIP3   OH219130   5.104   5.619   2.647  0.4576  0.5059 -0.6522
 6375TIP3    H119131   5.105   5.715   2.643 -0.6289  0.5397 -0.3804
 6375TIP3    H219132   5.011   5.596   2.653  0.7759 -0.4259  1.9466
 6376TIP3   OH219133   6.155   1.588   2.442 -0.2612  0.4851 -0.4973
 6376TIP3    H119134   6.137   1.494   2.434  1.9594 -0.2020  1.3523
 6376TIP3    H219135   6.180   1.599   2.533  1.1039  2.5677 -1.0592
 6377TIP3   OH219136   5.112   0.224   2.896  0.3407 -0.0770 -0.4640
 6377TIP3    H119137   5.027   0.266   2.883  0.5603  0.3540 -0.5517
 6377TIP3    H219138   5.098   0.162   2.967 -0.4166 -1.1183 -1.4949
 6378TIP3   OH219139   3.911   3.796   2.987 -0.2152 -0.3854 -0.1473
 6378TIP3    H119140   3.992   3.762   3.024 -1.5500 -1.7674  1.7114
 6378TIP3    H219141   3.901   3.883   3.027 -1.5194 -1.7619  2.8786
 6379TIP3   OH219142   5.039   5.674   2.952 -0.1596 -0.8150 -0.3261
 6379TIP3    H119143   5.134   5.682   2.940 -0.0661  1.8151  1.3410
 6379TIP3    H219144   5.001   5.730   2.884 -0.3554  0.0853  0.4934
 6380TIP3   OH219145   0.886   3.380   2.857  0.4874  0.1900  0.5004
 6380TIP3    H119146   0.875   3.425   2.941  0.5319  0.3224  0.4347
 6380TIP3    H219147   0.980   3.365   2.850  0.6558  1.5270 -0.2289
 6381TIP3   OH219148   2.313   4.378   0.289  1.0227 -0.3233  0.3300
 6381TIP3    H119149   2.317   4.362   0.195 -3.0662 -1.4379  0.1578
 6381TIP3    H219150   2.337   4.295   0.329 -1.4123 -1.2712  0.0104
 6382TIP3   OH219151   3.644   4.029   2.343  0.1747  0.1851 -0.2744
 6382TIP3    H119152   3.653   4.058   2.434  1.3881 -0.8005 -0.0548
 6382TIP3    H219153   3.620   3.937   2.349  1.9614 -0.3752 -0.9026
 6383TIP3   OH219154   5.267   3.367   1.387  0.0714  0.0013 -0.2475
 6383TIP3    H119155   5.209   3.404   1.453  0.7033  2.0246 -0.7677
 6383TIP3    H219156   5.353   3.364   1.430  0.2630  0.2784 -0.6066
 6384TIP3   OH219157   5.945   2.304   3.401  0.0198 -0.5019 -0.4002
 6384TIP3    H119158   6.037   2.328   3.387 -0.2933  0.4902 -0.7618
 6384TIP3    H219159   5.902   2.326   3.319 -0.9426  1.0139  0.4702
 6385TIP3   OH219160   4.947   1.692   3.738  0.1116 -0.1983  0.5347
 6385TIP3    H119161   4.991   1.731   3.814  2.1368 -0.6743 -0.3304
 6385TIP3    H219162   4.979   1.742   3.663 -0.2646 -1.0347 -0.2020
 6386TIP3   OH219163   0.025   0.084   0.507 -0.7349 -0.2444 -0.2121
 6386TIP3    H119164   0.034   0.161   0.563 -0.8154 -0.4418  0.0767
 6386TIP3    H219165  -0.028   0.114   0.433 -0.8515 -0.0482 -0.0513
 6387TIP3   OH219166   2.841   5.016   4.506  0.1943 -0.2573 -0.1891
 6387TIP3    H119167   2.927   5.036   4.543 -0.2219 -0.4913  0.9600
 6387TIP3    H219168   2.816   4.934   4.548 -1.3776  0.7331  0.9268
 6388TIP3   OH219169   5.569   4.245   3.729 -0.1461  0.5588  0.1053
 6388TIP3    H119170   5.637   4.300   3.690  0.0010  1.6889  1.8104
 6388TIP3    H219171   5.520   4.305   3.785 -0.6070 -0.8523  1.2776
 6389TIP3   OH219172   3.547   0.100   0.623 -0.1081 -0.1643 -0.1979
 6389TIP3    H119173   3.579   0.020   0.665  1.1720  0.0175 -0.7511
 6389TIP3    H219174   3.537   0.163   0.694 -0.7021 -0.6864  0.1845
 6390TIP3   OH219175   0.281   1.441   2.144  0.6694 -0.3995 -0.7254
 6390TIP3    H119176   0.280   1.362   2.091 -1.2862 -0.7175 -0.2944
 6390TIP3    H219177   0.189   1.465   2.154  1.1840  1.8189 -0.6637
 6391TIP3   OH219178   2.332   3.133   2.463 -0.2134  0.1561 -0.4981
 6391TIP3    H119179   2.290   3.165   2.383 -1.1033 -0.3049 -0.2272
 6391TIP3    H219180   2.358   3.213   2.509 -0.7742  0.4577 -0.6880
 6392TIP3   OH219181   0.576   5.039   4.492  0.9911  0.0845 -0.1374
 6392TIP3    H119182   0.513   5.084   4.549 -0.6061 -2.5880  0.4254
 6392TIP3    H219183   0.660   5.052   4.535  0.7162  2.7638 -0.2477
 6393TIP3   OH219184   4.435   2.842   1.763  0.2635 -0.4936 -0.3025
 6393TIP3    H119185   4.452   2.788   1.686  0.3070 -2.5478  1.0835
 6393TIP3    H219186   4.515   2.894   1.773 -0.8698  2.1654 -3.3435
 6394TIP3   OH219187   1.504   1.122   0.466 -0.0385  0.5524 -0.7245
 6394TIP3    H119188   1.437   1.067   0.425  0.9564 -1.4865  0.2418
 6394TIP3    H219189   1.496   1.104   0.560  2.1983 -0.1809 -0.6245
 6395TIP3   OH219190   0.421   0.804   4.494 -0.6758  0.2849  0.2593
 6395TIP3    H119191   0.326   0.796   4.494 -0.7725  0.4008 -2.7838
 6395TIP3    H219192   0.448   0.769   4.409  2.0089  0.3342  1.0055
 6396TIP3   OH219193   0.509   0.856   2.060 -0.3462  0.1583  0.0083
 6396TIP3    H119194   0.478   0.887   1.975  1.4834  1.1947 -0.3557
 6396TIP3    H219195   0.430   0.840   2.110 -1.4633  0.5751 -1.5337
 6397TIP3   OH219196   6.230   2.106   0.091 -0.4920 -0.5379 -0.0125
 6397TIP3    H119197   6.194   2.153   0.016  0.3055 -1.2313 -0.8502
 6397TIP3    H219198   6.187   2.146   0.167 -0.7587  0.6757 -0.7767
 6398TIP3   OH219199   5.229   4.131   1.606 -0.0172  0.1650 -0.1109
 6398TIP3    H119200   5.189   4.179   1.533 -0.9647  0.4100  0.5573
 6398TIP3    H219201   5.298   4.190   1.638 -1.8474  1.6269  1.3818
 6399TIP3   OH219202   0.120   0.044   0.982  0.2440 -0.0830 -0.0744
 6399TIP3    H119203   0.039   0.086   1.011 -0.9980  0.5717 -3.8321
 6399TIP3    H219204   0.173   0.116   0.947  3.1978 -0.3003  3.4276
 6400TIP3   OH219205   1.751   3.702   0.313 -0.6024  0.5827 -0.1667
 6400TIP3    H119206   1.834   3.667   0.282 -0.9107  0.6981 -1.1427
 6400TIP3    H219207   1.685   3.649   0.269 -1.0744  2.0465 -1.2906
 6401TIP3   OH219208   3.038   0.709   3.345  0.1466 -0.0982 -0.1316
 6401TIP3    H119209   3.004   0.770   3.411 -1.0864 -0.5279 -0.3353
 6401TIP3    H219210   3.037   0.624   3.389  0.1513 -0.2470 -0.4205
 6402TIP3   OH219211   3.629   4.666   1.257 -0.1668  0.7774 -0.3606
 6402TIP3    H119212   3.703   4.611   1.233 -1.2919 -0.8907 -0.1618
 6402TIP3    H219213   3.554   4.626   1.213 -1.3455  1.0155  1.3470
 6403TIP3   OH219214   2.494   1.606   1.293 -0.6860  0.3782  0.1280
 6403TIP3    H119215   2.417   1.657   1.266  0.3063  1.9260  0.0604
 6403TIP3    H219216   2.522   1.647   1.374 -0.2637 -0.5536  0.4608
 6404TIP3   OH219217   2.095   5.208   4.315 -0.0037  0.4679  0.3785
 6404TIP3    H119218   2.085   5.269   4.388 -0.6328  1.3398 -0.4112
 6404TIP3    H219219   2.128   5.262   4.243  1.4837 -0.5569  0.2521
 6405TIP3   OH219220   4.937   4.371   4.847  0.2879 -0.7381 -0.3920
 6405TIP3    H119221   5.008   4.431   4.825  1.2429 -1.3417  0.9116
 6405TIP3    H219222   4.936   4.369   4.942 -1.6631 -0.5599 -0.3834
 6406TIP3   OH219223   0.545   4.026   4.284 -0.0611  0.2514  0.4979
 6406TIP3    H119224   0.575   3.939   4.259 -0.2046  0.7725 -1.6996
 6406TIP3    H219225   0.607   4.055   4.351  1.4622 -0.5927 -0.4946
 6407TIP3   OH219226   3.437   2.388   0.148 -0.2180 -0.2876  0.7711
 6407TIP3    H119227   3.500   2.455   0.174 -0.4049 -0.6657  2.3035
 6407TIP3    H219228   3.466   2.309   0.195 -0.2725 -1.1728 -0.6301
 6408TIP3   OH219229   1.580   5.409   3.561 -0.1000  0.4431 -0.1472
 6408TIP3    H119230   1.614   5.496   3.582  1.3728 -0.2998  0.6822
 6408TIP3    H219231   1.512   5.425   3.496 -0.2023  2.2545  0.3588
 6409TIP3   OH219232   5.584   1.048   1.018 -0.1660  0.3796  0.5771
 6409TIP3    H119233   5.582   0.956   0.992  0.7812  0.4695  0.1614
 6409TIP3    H219234   5.550   1.048   1.108 -1.5558 -0.1770  0.0781
 6410TIP3   OH219235   3.942   4.765   3.582 -0.2257  0.2740 -0.2078
 6410TIP3    H119236   4.012   4.767   3.517  0.0998  0.0830  0.1319
 6410TIP3    H219237   3.874   4.822   3.546  0.0809  0.4187 -0.5668
 6411TIP3   OH219238   1.584   4.655   4.551 -0.1278  0.3036 -0.1739
 6411TIP3    H119239   1.624   4.625   4.470  0.1832 -0.0776  0.1109
 6411TIP3    H219240   1.578   4.750   4.542  1.1062  0.4130 -0.1242
 6412TIP3   OH219241   2.975   4.120   4.117  0.5142  0.4097  0.3707
 6412TIP3    H119242   2.889   4.152   4.090 -0.2493 -1.9307 -0.2305
 6412TIP3    H219243   2.958   4.078   4.202  1.0295 -0.1571  0.1978
 6413TIP3   OH219244   2.501   5.939   2.669  0.2470 -0.0022  0.4594
 6413TIP3    H119245   2.567   5.896   2.724  0.2536 -0.0641  0.4030
 6413TIP3    H219246   2.446   5.867   2.638  0.4466 -0.0050  0.1070
 6414TIP3   OH219247   5.942   2.364   3.061  0.0532  0.0934 -0.0263
 6414TIP3    H119248   6.000   2.293   3.088  1.3385  1.2022  0.2043
 6414TIP3    H219249   5.910   2.337   2.975  1.1274 -0.4318 -0.2754
 6415TIP3   OH219250   2.099   1.918   2.933  0.9159 -0.0559 -0.1302
 6415TIP3    H119251   2.034   1.931   2.863 -0.2404  1.6183  1.1860
 6415TIP3    H219252   2.056   1.858   2.994  0.7652  0.6513  0.4833
 6416TIP3   OH219253   0.098   3.757   2.446 -0.2082  0.2288  0.1248
 6416TIP3    H119254   0.182   3.714   2.433  0.2556  0.8308  1.0107
 6416TIP3    H219255   0.063   3.717   2.525 -0.7035  0.0696 -0.1702
 6417TIP3   OH219256   4.270   3.034   3.017 -0.0272  0.4937 -0.4128
 6417TIP3    H119257   4.232   2.967   3.075 -1.2914  0.4848 -1.2206
 6417TIP3    H219258   4.264   2.996   2.930  0.4801  1.1297 -0.7262
 6418TIP3   OH219259   4.491   2.148   3.696 -1.3702  0.2555 -0.2900
 6418TIP3    H119260   4.522   2.213   3.760 -3.1879 -0.1518  1.0721
 6418TIP3    H219261   4.538   2.068   3.719 -0.8955  0.4829 -0.4529
 6419TIP3   OH219262   5.230   3.174   2.024 -0.3926  0.0583 -0.1900
 6419TIP3    H119263   5.310   3.215   1.989 -0.3449  0.9568  0.8946
 6419TIP3    H219264   5.222   3.092   1.976 -0.3779  1.2287 -2.3276
 6420TIP3   OH219265   4.127   0.118   0.732  0.1221 -0.4782  0.1351
 6420TIP3    H119266   4.166   0.067   0.803  1.1560 -0.3680 -0.3287
 6420TIP3    H219267   4.181   0.098   0.655 -0.4894  0.0106 -0.4417
 6421TIP3   OH219268   3.188   1.585   3.664  0.0080 -0.3077  0.2222
 6421TIP3    H119269   3.168   1.509   3.610  0.2814 -2.8558  3.3914
 6421TIP3    H219270   3.116   1.589   3.726 -0.1763  2.3294 -0.0633
 6422TIP3   OH219271   3.516   2.220   3.418  0.2374 -0.4135  0.3325
 6422TIP3    H119272   3.607   2.197   3.438  0.2860 -0.2067  0.3495
 6422TIP3    H219273   3.503   2.188   3.329 -0.1269 -1.7641  0.8520
 6423TIP3   OH219274   3.842   2.872   4.471 -0.1258  0.3938  0.5680
 6423TIP3    H119275   3.897   2.932   4.421 -0.8941 -0.3968 -1.3591
 6423TIP3    H219276   3.899   2.798   4.491  0.2808  0.8637  1.1706
 6424TIP3   OH219277   2.290   4.745   2.730 -0.3085 -0.6670 -0.0480
 6424TIP3    H119278   2.245   4.828   2.746  1.2084  0.0190  0.9177
 6424TIP3    H219279   2.221   4.684   2.707 -1.4310  0.9689 -1.2863
 6425TIP3   OH219280   0.552   0.837   3.831 -0.4305  0.4388  0.2787
 6425TIP3    H119281   0.594   0.805   3.752 -2.0242  0.5272 -0.6472
 6425TIP3    H219282   0.568   0.932   3.830 -0.4854  0.4463  0.0240
 6426TIP3   OH219283   4.170   4.408   2.889 -0.0528  0.2203 -0.1535
 6426TIP3    H119284   4.080   4.377   2.879 -0.6023  1.8021 -0.4467
 6426TIP3    H219285   4.182   4.418   2.983 -0.8172  1.6379 -0.1706
 6427TIP3   OH219286   2.762   0.829   3.209 -0.5143  0.0194  0.5444
 6427TIP3    H119287   2.845   0.848   3.254  0.3014  0.1852 -0.9601
 6427TIP3    H219288   2.780   0.749   3.159 -0.2474  1.5972 -2.0957
 6428TIP3   OH219289   4.421   2.167   0.306 -0.2194 -0.1009  0.2965
 6428TIP3    H119290   4.373   2.129   0.379 -1.8772 -1.0959 -1.2006
 6428TIP3    H219291   4.504   2.119   0.304 -0.5194 -0.6645  0.9923
 6429TIP3   OH219292   5.918   5.912   2.662  0.7302  0.5655 -0.2793
 6429TIP3    H119293   5.825   5.903   2.684  0.6451 -0.0874 -0.8669
 6429TIP3    H219294   5.934   6.006   2.665  0.9178  0.5780  3.3132
 6430TIP3   OH219295   5.228   5.073   3.494 -0.3202 -0.0644  0.2173
 6430TIP3    H119296   5.249   5.135   3.563 -0.4117  0.0177  0.1704
 6430TIP3    H219297   5.189   5.125   3.425  1.1767  0.0918 -0.5410
 6431TIP3   OH219298   1.744   2.356   0.784  0.0171  0.1784  0.2375
 6431TIP3    H119299   1.658   2.319   0.763  0.4573 -0.0995 -1.2205
 6431TIP3    H219300   1.787   2.288   0.837 -0.1942 -0.2297 -0.1068
 6432TIP3   OH219301   6.291   0.835   1.097 -0.5387  0.6215  0.5200
 6432TIP3    H119302   6.369   0.783   1.112 -0.3158  0.6099 -0.5677
 6432TIP3    H219303   6.236   0.781   1.040  0.0429  1.8236 -1.2964
 6433TIP3   OH219304   1.878   1.988   0.349 -0.1030 -0.0007 -0.1925
 6433TIP3    H119305   1.946   2.043   0.310 -0.1636  0.0001 -0.2983
 6433TIP3    H219306   1.796   2.022   0.313 -0.2373  0.5779  0.6388
 6434TIP3   OH219307   5.331   2.822   3.980  0.3289  0.4771 -0.4032
 6434TIP3    H119308   5.260   2.835   4.042  0.4630  0.9390 -0.3392
 6434TIP3    H219309   5.379   2.905   3.981  2.1841 -0.5476  1.1791
 6435TIP3   OH219310   0.839   5.053   3.264  0.8342 -0.0163 -0.5660
 6435TIP3    H119311   0.904   5.047   3.195  2.2403  0.3773  0.6831
 6435TIP3    H219312   0.858   5.135   3.309 -1.0992  0.5573 -0.7065
 6436TIP3   OH219313   4.748   3.213   3.439  0.4966 -0.3694  0.4108
 6436TIP3    H119314   4.825   3.269   3.447  0.2584 -0.1778  1.4467
 6436TIP3    H219315   4.698   3.251   3.367  0.7401  0.2684  0.5735
 6437TIP3   OH219316   3.600   3.012   5.181 -1.2217  0.0102 -0.2191
 6437TIP3    H119317   3.625   3.022   5.089 -3.4536  0.6632 -0.8050
 6437TIP3    H219318   3.582   2.918   5.191 -3.3320  0.2728 -1.1473
 6438TIP3   OH219319   1.367   1.391   1.444 -0.4944  0.5388  0.7599
 6438TIP3    H119320   1.329   1.370   1.529 -0.9393 -1.3627  0.1310
 6438TIP3    H219321   1.437   1.453   1.464 -1.1958  0.8635  2.3881
 6439TIP3   OH219322   0.759   3.550   2.639 -0.2855 -0.6777 -0.5019
 6439TIP3    H119323   0.667   3.527   2.649 -0.2023 -0.6268  0.4912
 6439TIP3    H219324   0.806   3.487   2.693  0.2154 -0.3373 -0.5238
 6440TIP3   OH219325   3.675   2.296   4.577 -0.1997  0.4061 -0.5485
 6440TIP3    H119326   3.627   2.359   4.524 -0.7112 -0.5498 -1.2403
 6440TIP3    H219327   3.638   2.211   4.553  0.5487 -0.1718  0.2921
 6441TIP3   OH219328   1.947   1.071   1.061  0.3176  0.7516 -0.0978
 6441TIP3    H119329   1.884   1.082   0.990  0.8904 -0.7522 -0.8810
 6441TIP3    H219330   1.894   1.039   1.135  0.2472 -1.5403 -1.0632
 6442TIP3   OH219331   5.743   0.359   4.507  0.1197 -0.0374 -0.4717
 6442TIP3    H119332   5.752   0.448   4.541 -0.5558 -0.3157  0.4724
 6442TIP3    H219333   5.665   0.363   4.451 -0.5808 -0.2764  0.4593
 6443TIP3   OH219334   3.996   4.867   2.566 -0.1506  0.2002 -0.4954
 6443TIP3    H119335   4.018   4.785   2.611  0.4516  0.9898  0.7192
 6443TIP3    H219336   3.924   4.904   2.616 -0.4189  0.4188 -1.0326
 6444TIP3   OH219337   4.143   5.265   4.896 -0.6652 -0.2434 -0.2908
 6444TIP3    H119338   4.163   5.323   4.970 -1.8533  0.6019 -0.6038
 6444TIP3    H219339   4.222   5.266   4.842  0.1438 -0.7052  0.8361
 6445TIP3   OH219340   4.675   4.916   5.110 -0.5155  0.0578  0.2797
 6445TIP3    H119341   4.598   4.871   5.144 -1.2885  1.8189  1.0316
 6445TIP3    H219342   4.662   5.008   5.136  1.0541  0.6889 -0.9763
 6446TIP3   OH219343   6.133   4.595   4.098  0.0901 -0.2964 -0.4195
 6446TIP3    H119344   6.176   4.532   4.040  0.1821  0.1300 -0.8186
 6446TIP3    H219345   6.121   4.547   4.180  1.0809 -0.5090 -0.3852
 6447TIP3   OH219346   5.267   1.228   1.994 -0.5779  0.2025  0.1058
 6447TIP3    H119347   5.241   1.152   1.942 -2.1584 -0.0011  1.1175
 6447TIP3    H219348   5.191   1.245   2.050  0.2887  1.6728  0.8803
 6448TIP3   OH219349   0.163   5.357   5.036 -0.0660 -0.0098  0.0246
 6448TIP3    H119350   0.117   5.299   5.096 -0.6879  0.1135 -0.3258
 6448TIP3    H219351   0.115   5.440   5.041 -0.7219 -0.2939 -1.3786
 6449TIP3   OH219352   4.659   5.207   5.153 -0.0812  0.1551  0.2200
 6449TIP3    H119353   4.742   5.247   5.178  1.2805 -1.8598 -0.7782
 6449TIP3    H219354   4.660   5.206   5.057  0.3577 -2.8284  0.1496
 6450TIP3   OH219355   2.616   3.857   2.711 -0.0454 -0.7502 -0.1229
 6450TIP3    H119356   2.704   3.837   2.679  0.2319  2.1267 -1.4693
 6450TIP3    H219357   2.630   3.913   2.788 -0.6820 -0.2879 -0.3339
 6451TIP3   OH219358   2.928   0.682   4.335  0.8718  0.0905 -0.3268
 6451TIP3    H119359   3.020   0.657   4.343  0.6640 -0.4717  0.4136
 6451TIP3    H219360   2.882   0.627   4.398  0.0279  0.4000 -0.6500
 6452TIP3   OH219361   5.308   0.412   2.962 -0.0142 -0.5305  0.1227
 6452TIP3    H119362   5.240   0.345   2.951 -0.0333 -0.2083 -2.2753
 6452TIP3    H219363   5.285   0.480   2.897  1.0630  0.9003  1.1824
 6453TIP3   OH219364   0.767   4.579   2.539 -0.3579 -0.1909  0.4085
 6453TIP3    H119365   0.704   4.520   2.581 -1.5115  0.3853 -0.4538
 6453TIP3    H219366   0.714   4.653   2.508  0.1175 -1.1450 -3.1807
 6454TIP3   OH219367   0.402   2.459   1.876 -0.0753 -0.0449 -0.2436
 6454TIP3    H119368   0.342   2.532   1.862 -1.2726 -0.9966 -0.2810
 6454TIP3    H219369   0.431   2.434   1.788  2.4308  1.9803 -0.1289
 6455TIP3   OH219370   1.556   1.283   2.673 -0.4995 -0.6204 -0.2959
 6455TIP3    H119371   1.524   1.290   2.763 -0.2370  0.4555 -0.2780
 6455TIP3    H219372   1.616   1.356   2.663  0.6167 -1.5787 -0.8922
 6456TIP3   OH219373   2.371   0.729   0.993  0.3690  0.0821  0.1161
 6456TIP3    H119374   2.325   0.675   1.058  0.3696  1.3830  1.2644
 6456TIP3    H219375   2.430   0.784   1.045  0.8789  0.6861 -1.0604
 6457TIP3   OH219376   4.827   1.359   2.618 -0.2988  0.1058 -0.4684
 6457TIP3    H119377   4.905   1.339   2.670 -1.4671 -1.2912  0.7948
 6457TIP3    H219378   4.853   1.340   2.528  0.7467 -0.5527 -0.0437
 6458TIP3   OH219379   0.698   0.920   1.621 -0.4435 -0.2409 -0.0946
 6458TIP3    H119380   0.694   1.015   1.627 -0.8156 -0.1374 -1.6765
 6458TIP3    H219381   0.674   0.890   1.709  3.0216  1.1154  1.5296
 6459TIP3   OH219382   4.524   1.640   1.277  0.6501  0.1336  0.2750
 6459TIP3    H119383   4.520   1.612   1.185 -0.0515 -1.8101  0.8458
 6459TIP3    H219384   4.474   1.722   1.279  0.4430  0.0614 -1.0241
 6460TIP3   OH219385   0.684   3.449   5.094  0.0979 -0.7891  0.0765
 6460TIP3    H119386   0.677   3.542   5.075 -0.3135 -0.7264  0.5135
 6460TIP3    H219387   0.677   3.406   5.008  0.9583 -0.3956 -0.2037
 6461TIP3   OH219388   1.675   0.528   4.042 -0.3681  0.3645 -0.2181
 6461TIP3    H119389   1.641   0.442   4.018  0.1623 -0.1957  0.9599
 6461TIP3    H219390   1.600   0.587   4.034 -1.2020 -0.5404  0.7161
 6462TIP3   OH219391   0.998   2.234   1.834 -0.7750  0.0314  0.3711
 6462TIP3    H119392   1.086   2.229   1.873 -0.2965 -0.8760 -0.7802
 6462TIP3    H219393   0.940   2.203   1.904 -0.3781  2.0552  1.6711
 6463TIP3   OH219394   6.159   5.916   1.837  0.3929 -0.3392  0.1808
 6463TIP3    H119395   6.235   5.890   1.890  0.0755  0.5006  1.0863
 6463TIP3    H219396   6.174   6.008   1.818 -0.4780 -0.1229  0.5129
 6464TIP3   OH219397   2.815   0.600   2.991 -0.1189  0.4900  0.3148
 6464TIP3    H119398   2.907   0.587   2.966 -0.2614 -0.0483  0.0528
 6464TIP3    H219399   2.769   0.613   2.908 -0.4776 -0.5477  0.3367
 6465TIP3   OH219400   5.317   1.498   3.949  1.1000  0.0303  0.0498
 6465TIP3    H119401   5.399   1.524   3.906  0.5362  0.1883 -0.9584
 6465TIP3    H219402   5.252   1.562   3.919  0.2274 -1.0974 -0.5504
 6466TIP3   OH219403   3.919   3.619   4.986  0.1520  0.2061  0.5135
 6466TIP3    H119404   3.866   3.559   4.934  0.0251  0.4105  0.4109
 6466TIP3    H219405   3.990   3.564   5.020  1.1667  0.4046 -1.2026
 6467TIP3   OH219406   4.053   5.506   1.351 -0.2031  0.7194 -0.2773
 6467TIP3    H119407   4.028   5.466   1.435  0.3205 -0.4663 -0.6556
 6467TIP3    H219408   3.982   5.566   1.330 -0.8709  0.2139  0.4858
 6468TIP3   OH219409   2.282   5.037   3.011 -0.6268 -0.1425  0.2420
 6468TIP3    H119410   2.247   5.029   2.922 -0.4193 -0.9197  0.2184
 6468TIP3    H219411   2.325   5.122   3.013  0.3425 -0.5854 -0.7657
 6469TIP3   OH219412   2.782   4.378   0.267  0.1769  0.3342  0.0029
 6469TIP3    H119413   2.747   4.388   0.178  0.0428  0.0542  0.0247
 6469TIP3    H219414   2.838   4.301   0.262 -1.0724 -0.6317  0.5480
 6470TIP3   OH219415   2.938   2.563   0.046 -0.3099 -0.3540 -0.1822
 6470TIP3    H119416   2.906   2.546  -0.043 -0.2729 -0.1732 -0.2309
 6470TIP3    H219417   3.016   2.617   0.033 -0.6398  0.1742 -0.0138
 6471TIP3   OH219418   5.404   5.563   0.929  0.1541 -0.1508  0.1928
 6471TIP3    H119419   5.455   5.614   0.992  0.1112  1.1588 -0.7894
 6471TIP3    H219420   5.318   5.553   0.969  0.4347 -0.2372  0.7795
 6472TIP3   OH219421   2.340   4.697   0.252  0.0680 -0.0691  0.1134
 6472TIP3    H119422   2.360   4.604   0.249 -1.4186 -0.3838 -1.1828
 6472TIP3    H219423   2.284   4.708   0.329  0.8465 -0.0847  0.7000
 6473TIP3   OH219424   4.238   4.216   0.905 -0.2823  0.1688  0.2744
 6473TIP3    H119425   4.146   4.192   0.897 -0.0454 -0.0403 -2.8488
 6473TIP3    H219426   4.247   4.295   0.851  1.4692 -0.1689 -0.0000
 6474TIP3   OH219427   1.887   3.645   1.573 -0.4232 -0.3145  0.4094
 6474TIP3    H119428   1.869   3.721   1.519  0.1899 -0.6946 -0.3581
 6474TIP3    H219429   1.974   3.615   1.545  0.5345  0.2611  2.5439
 6475TIP3   OH219430   1.669   3.100   3.310  0.0743  0.2035  0.6207
 6475TIP3    H119431   1.702   3.156   3.381  1.1221  0.5826 -0.1325
 6475TIP3    H219432   1.741   3.039   3.293 -0.3631 -0.2035  0.2210
 6476TIP3   OH219433   0.474   4.606   2.941  0.0816 -0.3221 -0.2623
 6476TIP3    H119434   0.537   4.553   2.892 -0.2543 -0.6491 -0.3481
 6476TIP3    H219435   0.389   4.567   2.920 -0.1737  0.2804 -0.3506
 6477TIP3   OH219436   3.040   3.595   5.045  0.3495  0.1451 -0.5257
 6477TIP3    H119437   3.131   3.625   5.053  0.6694 -0.8834 -0.1049
 6477TIP3    H219438   3.044   3.522   4.984  0.5636 -2.7390  2.6571
 6478TIP3   OH219439   0.693   4.915   3.463 -0.1958  0.2103  1.0013
 6478TIP3    H119440   0.603   4.941   3.446 -0.6386 -1.9415 -0.4361
 6478TIP3    H219441   0.743   4.953   3.390  0.0202  1.0617  1.5772
 6479TIP3   OH219442   5.651   3.248   0.719  0.1539 -0.2527  0.2782
 6479TIP3    H119443   5.609   3.227   0.803 -1.2277 -1.3963 -0.6590
 6479TIP3    H219444   5.650   3.344   0.716 -1.4640 -0.2098  0.7842
 6480TIP3   OH219445   4.452   0.558   0.294 -0.0961  0.0623 -0.3079
 6480TIP3    H119446   4.502   0.515   0.363 -0.2311 -0.1764 -0.3557
 6480TIP3    H219447   4.402   0.626   0.339 -2.0151 -1.5940  0.2556
 6481TIP3   OH219448   6.060   3.652   3.851  0.2884 -0.3001  0.9178
 6481TIP3    H119449   5.996   3.618   3.914 -0.7359 -0.5970 -0.2407
 6481TIP3    H219450   6.138   3.597   3.864 -0.7446 -1.9954  0.2868
 6482TIP3   OH219451   2.621   4.522   2.095 -0.6832 -0.0704 -0.4790
 6482TIP3    H119452   2.586   4.587   2.156  0.4514  0.8160 -0.7206
 6482TIP3    H219453   2.662   4.574   2.026  0.0394 -1.0447 -0.8145
 6483TIP3   OH219454   2.720   0.803   2.054  0.2027 -0.1523 -0.6772
 6483TIP3    H119455   2.658   0.741   2.093  0.8086 -0.0970  0.3940
 6483TIP3    H219456   2.665   0.873   2.018 -0.3671 -0.2123  0.0671
 6484TIP3   OH219457   1.705   1.406   3.709 -0.0425 -0.5378  0.0285
 6484TIP3    H119458   1.644   1.426   3.637 -0.3505 -0.1445  0.3935
 6484TIP3    H219459   1.731   1.492   3.742  1.2566 -0.6864 -0.5670
 6485TIP3   OH219460   4.495   2.400   1.185 -0.2980  0.3215  0.2669
 6485TIP3    H119461   4.563   2.440   1.240 -0.0483  0.7603 -0.3560
 6485TIP3    H219462   4.538   2.384   1.101 -1.3625  2.0432 -0.6685
 6486TIP3   OH219463   0.102   0.291   4.940  0.0745 -0.9189  0.3391
 6486TIP3    H119464   0.122   0.313   4.850  1.5026  0.3965  0.9387
 6486TIP3    H219465   0.010   0.317   4.951 -0.5949 -2.5084 -1.1122
 6487TIP3   OH219466   2.247   5.742   1.971  0.6500  0.7801 -0.4288
 6487TIP3    H119467   2.221   5.820   2.021  0.1347  1.2839 -1.4522
 6487TIP3    H219468   2.179   5.734   1.904 -1.0124 -2.2655  1.3977
 6488TIP3   OH219469   6.162   0.770   4.449 -0.0625 -0.0187  0.1533
 6488TIP3    H119470   6.220   0.735   4.381  2.2648 -0.3893  2.1762
 6488TIP3    H219471   6.124   0.693   4.491 -1.6918  0.2132 -0.8081
 6489TIP3   OH219472   3.611   3.519   3.281 -0.9983 -0.1621  0.1421
 6489TIP3    H119473   3.644   3.581   3.216  1.6531 -0.8452  0.7192
 6489TIP3    H219474   3.618   3.565   3.364 -0.0330 -0.8233  0.4453
 6490TIP3   OH219475   4.328   0.742   4.411  0.1038 -0.4108 -0.7163
 6490TIP3    H119476   4.407   0.690   4.429  0.4537 -0.3556 -1.9860
 6490TIP3    H219477   4.345   0.827   4.451  0.9272 -0.2307 -1.4075
 6491TIP3   OH219478   4.932   5.260   5.122  0.1345  0.0744  0.1092
 6491TIP3    H119479   4.956   5.337   5.071  0.2051  1.0514  1.5559
 6491TIP3    H219480   4.923   5.190   5.058 -0.9766  1.5218 -1.3822
 6492TIP3   OH219481   4.630   2.761   4.182  0.0448 -0.2316  0.1503
 6492TIP3    H119482   4.569   2.832   4.206 -0.5173 -0.9247  0.8149
 6492TIP3    H219483   4.574   2.695   4.140  0.5198 -0.4152 -0.1948
 6493TIP3   OH219484   5.808   5.916   3.710  0.2517 -0.8272  0.1210
 6493TIP3    H119485   5.714   5.928   3.698 -0.3681 -1.1906  3.5454
 6493TIP3    H219486   5.841   6.002   3.735  0.7212 -0.8423 -0.4218
 6494TIP3   OH219487   0.004   4.980   0.964 -0.2585  0.5748  0.1241
 6494TIP3    H119488   0.014   5.061   1.014  0.8231 -0.2904  1.3909
 6494TIP3    H219489   0.091   4.961   0.931  0.1475 -1.4253  2.1162
 6495TIP3   OH219490   3.334   4.865   1.663  0.5218 -0.7238  0.2681
 6495TIP3    H119491   3.255   4.810   1.662 -0.3446  0.4521 -1.0040
 6495TIP3    H219492   3.354   4.879   1.570  1.5094 -0.0130  0.5712
 6496TIP3   OH219493   3.001   5.824   1.304 -0.2727 -1.2547  0.0363
 6496TIP3    H119494   3.008   5.858   1.394  1.7803 -2.3099  0.3245
 6496TIP3    H219495   3.044   5.890   1.250  0.4289 -1.6316  0.1245
 6497TIP3   OH219496   1.008   0.348   2.977  0.7029 -0.1139  0.0338
 6497TIP3    H119497   1.003   0.432   3.022  0.6503 -0.9985  1.7681
 6497TIP3    H219498   1.017   0.284   3.047 -1.9434 -1.8225 -1.0062
 6498TIP3   OH219499   4.857   2.900   5.052  0.1417  0.0687  0.7290
 6498TIP3    H119500   4.819   2.824   5.008 -1.4792  0.6220  1.1118
 6498TIP3    H219501   4.937   2.919   5.002 -0.8475 -0.2393 -1.0616
 6499TIP3   OH219502   1.365   5.817   3.433  0.1050  0.6548 -0.1106
 6499TIP3    H119503   1.279   5.778   3.448  0.4065 -0.6741 -1.6160
 6499TIP3    H219504   1.352   5.910   3.454 -1.1719  0.1660  1.5387
 6500TIP3   OH219505   2.961   2.954   0.664  0.3574  0.2179 -0.7066
 6500TIP3    H119506   2.964   2.950   0.760 -0.6058 -0.1649 -0.6869
 6500TIP3    H219507   2.984   3.044   0.643 -1.0206  0.7489 -0.0374
 6501TIP3   OH219508   0.911   4.249   4.610 -0.1962  0.3321 -0.4909
 6501TIP3    H119509   0.939   4.182   4.671 -0.9718  2.0769  1.9223
 6501TIP3    H219510   0.992   4.286   4.576  0.3222  0.4914  0.8630
 6502TIP3   OH219511   4.563   4.603   3.334  0.3397  0.1101 -0.3832
 6502TIP3    H119512   4.557   4.529   3.394 -1.4522  0.1416 -0.4666
 6502TIP3    H219513   4.556   4.564   3.247  1.0296  0.2365 -0.4984
 6503TIP3   OH219514   1.436   3.494   2.997  0.6277  0.0423 -0.3485
 6503TIP3    H119515   1.515   3.446   3.021 -0.5325 -0.4275  2.9495
 6503TIP3    H219516   1.376   3.427   2.966  0.3508 -0.1273  0.5241
 6504TIP3   OH219517   2.414   1.938   2.611  0.2370  0.1069 -0.3114
 6504TIP3    H119518   2.463   2.018   2.631  1.4228 -0.3662 -1.2243
 6504TIP3    H219519   2.396   1.944   2.517 -3.0330  1.0881  0.2632
 6505TIP3   OH219520   0.807   5.175   0.780 -0.0427 -0.0077 -0.1323
 6505TIP3    H119521   0.900   5.180   0.760 -0.1434  0.1090 -0.6114
 6505TIP3    H219522   0.771   5.117   0.713 -0.1822 -0.7369  0.5669
 6506TIP3   OH219523   1.474   4.225   3.711  0.3587 -0.3773  0.1363
 6506TIP3    H119524   1.400   4.243   3.653  1.6727  2.5889 -0.8171
 6506TIP3    H219525   1.442   4.159   3.772 -2.0220 -1.5164 -2.1640
 6507TIP3   OH219526   5.890   3.240   4.539  0.1807  0.1709 -0.1214
 6507TIP3    H119527   5.951   3.302   4.578  0.7297 -1.1155  1.1138
 6507TIP3    H219528   5.823   3.226   4.606 -0.0650 -0.4030 -0.4773
 6508TIP3   OH219529   4.318   0.418   1.074  0.3382 -0.4241 -0.1350
 6508TIP3    H119530   4.413   0.421   1.069  0.3489 -0.2042  0.1660
 6508TIP3    H219531   4.289   0.504   1.043  0.3707  0.5924  2.4498
 6509TIP3   OH219532   5.686   0.910   4.269  0.2582 -0.3150 -0.1356
 6509TIP3    H119533   5.655   0.945   4.353 -1.1806 -1.0310 -0.3383
 6509TIP3    H219534   5.762   0.964   4.247 -1.1717  1.9597  0.1348
 6510TIP3   OH219535   4.729   1.688   1.561 -0.0107 -0.2756  0.3967
 6510TIP3    H119536   4.673   1.714   1.635 -1.0857  1.1381 -0.8402
 6510TIP3    H219537   4.670   1.688   1.486  1.4283  0.1662 -0.7817
 6511TIP3   OH219538   0.069   5.039   1.557 -0.5682 -0.1795 -0.0178
 6511TIP3    H119539   0.058   5.121   1.604 -1.6315 -0.1182 -0.3574
 6511TIP3    H219540   0.068   5.063   1.465  0.8636 -0.3782 -0.1013
 6512TIP3   OH219541   4.204   5.518   0.418 -0.2085 -0.3384  0.1540
 6512TIP3    H119542   4.181   5.485   0.331 -1.7596  0.0823  0.3739
 6512TIP3    H219543   4.279   5.575   0.402 -0.4438 -0.2922 -0.9065
 6513TIP3   OH219544   0.365   3.700   1.863 -0.6272 -0.8097 -0.0176
 6513TIP3    H119545   0.300   3.629   1.866 -0.4263 -1.1864 -2.4600
 6513TIP3    H219546   0.449   3.655   1.851 -0.2886 -0.2146  0.1080
 6514TIP3   OH219547   5.414   4.350   1.620 -0.2964 -0.3314 -0.1449
 6514TIP3    H119548   5.509   4.335   1.615 -0.4490 -1.4040 -0.1748
 6514TIP3    H219549   5.405   4.428   1.674  0.6260  0.1434 -0.6483
 6515TIP3   OH219550   0.664   4.435   2.873 -0.0839 -0.2254  0.3402
 6515TIP3    H119551   0.730   4.427   2.941 -1.0353 -1.6082  1.1581
 6515TIP3    H219552   0.703   4.395   2.795  0.5474  0.2439  0.4142
 6516TIP3   OH219553  -0.008   4.903   2.736 -0.0473 -0.0320 -0.4883
 6516TIP3    H119554   0.021   4.932   2.650  0.3435 -2.2622 -1.1734
 6516TIP3    H219555   0.073   4.878   2.781 -0.1626  1.7986  0.8652
 6517TIP3   OH219556   0.202   4.155   2.395 -0.0200 -0.0536 -0.0792
 6517TIP3    H119557   0.134   4.216   2.424 -1.2584 -1.7718  0.8406
 6517TIP3    H219558   0.164   4.111   2.319  0.8256  0.2347 -0.6831
 6518TIP3   OH219559   6.181   5.927   3.484 -0.0086  0.2856 -0.1759
 6518TIP3    H119560   6.259   5.974   3.515 -2.2721  3.9097  0.5441
 6518TIP3    H219561   6.162   5.966   3.399 -0.9803 -0.7082 -0.4370
 6519TIP3   OH219562   0.544   0.601   5.140  0.0336  0.7924 -0.1045
 6519TIP3    H119563   0.600   0.587   5.063 -0.3378 -0.3901 -0.1841
 6519TIP3    H219564   0.536   0.514   5.179 -1.5714  0.9821  0.0326
 6520TIP3   OH219565   0.826   2.447   3.468 -0.1141  0.6040  0.2930
 6520TIP3    H119566   0.852   2.538   3.454 -1.1962  1.0598  1.1222
 6520TIP3    H219567   0.773   2.449   3.547 -0.4201 -0.7068  0.1423
 6521TIP3   OH219568   0.958   3.356   5.188 -0.3586 -0.0327  0.4137
 6521TIP3    H119569   0.888   3.372   5.125 -0.7341 -0.2458  0.7777
 6521TIP3    H219570   0.978   3.263   5.179  1.5587  0.4593 -1.4249
 6522TIP3   OH219571   1.086   4.030   0.307  0.1490 -0.1638 -0.1853
 6522TIP3    H119572   1.126   3.948   0.279  0.0987 -0.8373  1.5604
 6522TIP3    H219573   0.995   4.006   0.328 -0.5657  0.8632 -1.9074
 6523TIP3   OH219574   2.658   4.249   2.676 -1.0026  0.0804 -0.2924
 6523TIP3    H119575   2.603   4.228   2.752 -2.1427  1.1503 -0.7834
 6523TIP3    H219576   2.687   4.339   2.691 -0.0459 -0.1880 -0.4503
 6524TIP3   OH219577   3.790   3.209   3.893  0.4537  0.3812 -0.6754
 6524TIP3    H119578   3.790   3.191   3.799 -0.1088  2.1787 -1.0452
 6524TIP3    H219579   3.851   3.281   3.904 -1.2800  1.8165 -0.0350
 6525TIP3   OH219580   0.480   1.151   0.760 -0.3120  0.2790  0.2886
 6525TIP3    H119581   0.408   1.091   0.745  1.3069 -1.3565 -1.4670
 6525TIP3    H219582   0.535   1.107   0.824  0.2712  0.4605 -0.0799
 6526TIP3   OH219583   3.907   3.126   4.769 -0.4433  0.0148 -0.0200
 6526TIP3    H119584   3.954   3.196   4.815  0.1762  0.1505 -0.8358
 6526TIP3    H219585   3.971   3.054   4.763 -0.9366 -0.4792  0.4388
 6527TIP3   OH219586   6.141   5.543   0.560 -0.1554  0.0518 -0.1318
 6527TIP3    H119587   6.208   5.533   0.628  0.5774  2.1117 -0.4739
 6527TIP3    H219588   6.058   5.544   0.607  0.2957  0.7518  0.6647
 6528TIP3   OH219589   2.510   3.617   2.895  0.7652 -0.5414 -0.2283
 6528TIP3    H119590   2.437   3.609   2.834  1.6642 -0.8100 -1.2927
 6528TIP3    H219591   2.563   3.689   2.860  1.1557 -0.5259  0.3793
 6529TIP3   OH219592   3.617   1.932   3.419  0.3717 -0.5567 -0.2394
 6529TIP3    H119593   3.667   1.892   3.490 -0.0119  0.1952  0.4642
 6529TIP3    H219594   3.527   1.933   3.451  0.5162  1.8398  0.2335
 6530TIP3   OH219595   3.686   5.066   0.247 -0.3014  0.5035  0.4412
 6530TIP3    H119596   3.605   5.015   0.241 -0.7492  1.3132 -1.0177
 6530TIP3    H219597   3.658   5.152   0.278  0.2797  0.2537  1.7197
 6531TIP3   OH219598   1.148   0.138   0.200  0.1313 -0.3112  0.0366
 6531TIP3    H119599   1.211   0.177   0.138  1.2788 -2.2012 -0.0760
 6531TIP3    H219600   1.088   0.210   0.221  0.9713  0.9713 -1.6179
 6532TIP3   OH219601   0.124   0.381   1.109  0.7573 -0.2835  0.4369
 6532TIP3    H119602   0.149   0.473   1.094  0.0913 -0.2155 -0.3362
 6532TIP3    H219603   0.041   0.371   1.061 -0.3650 -0.6751  2.3609
 6533TIP3   OH219604   1.239   2.528   0.229 -0.5611 -0.2853  0.1187
 6533TIP3    H119605   1.240   2.581   0.150 -1.0296 -0.6127 -0.1142
 6533TIP3    H219606   1.321   2.480   0.228  0.2275  0.9969  0.7276
 6534TIP3   OH219607   2.933   2.880   1.526 -0.5251  0.0636 -0.1964
 6534TIP3    H119608   2.848   2.845   1.553 -1.3909  1.1306 -1.4103
 6534TIP3    H219609   2.977   2.807   1.483 -0.7518 -0.5327  0.5519
 6535TIP3   OH219610   5.736   5.601   1.737  0.7316  0.0351 -0.2075
 6535TIP3    H119611   5.756   5.561   1.822  1.2199 -0.5330 -0.5765
 6535TIP3    H219612   5.818   5.594   1.688  0.4988  0.5051 -0.6721
 6536TIP3   OH219613   6.236   0.377   3.164  0.4776  0.1029  0.3134
 6536TIP3    H119614   6.265   0.293   3.128 -0.6376 -0.4198  0.5816
 6536TIP3    H219615   6.250   0.440   3.094 -1.5922 -0.8735 -1.0627
 6537TIP3   OH219616   0.121   3.837   3.548 -0.7581  0.6633  0.4934
 6537TIP3    H119617   0.043   3.893   3.545 -0.4555  1.0581 -0.3893
 6537TIP3    H219618   0.092   3.759   3.595 -1.7743  0.6686 -0.0884
 6538TIP3   OH219619   1.883   4.017   4.206 -0.9406  0.7263 -0.1073
 6538TIP3    H119620   1.862   4.047   4.118  1.2823  0.7711 -0.6781
 6538TIP3    H219621   1.861   3.924   4.205  1.1071  0.2016 -1.4737
 6539TIP3   OH219622   5.886   0.379   3.248 -0.4726 -0.1533 -0.2159
 6539TIP3    H119623   5.897   0.360   3.155 -2.5842  0.6643 -0.6931
 6539TIP3    H219624   5.925   0.466   3.260  0.7755 -0.7206 -0.0804
 6540TIP3   OH219625   4.428   4.078   0.769 -0.4026 -0.0273 -0.8903
 6540TIP3    H119626   4.363   4.118   0.827  0.4868 -2.3112  1.9280
 6540TIP3    H219627   4.384   4.000   0.734  0.5711 -1.3781  0.7403
 6541TIP3   OH219628   4.142   3.854   0.965  0.3598 -0.2240 -0.0012
 6541TIP3    H119629   4.228   3.872   1.002  0.6946 -0.1526 -0.7807
 6541TIP3    H219630   4.158   3.845   0.871 -0.4865 -0.1919 -0.1595
 6542TIP3   OH219631   1.025   5.759   0.196  0.6229  0.0421 -0.0743
 6542TIP3    H119632   1.006   5.852   0.210  2.4357  0.6304 -1.1706
 6542TIP3    H219633   0.972   5.734   0.121 -0.0399  0.1057  0.3627
 6543TIP3   OH219634   5.282   2.497   1.831 -0.0288  0.0531 -0.4084
 6543TIP3    H119635   5.286   2.546   1.913 -0.1549 -0.4870 -0.0703
 6543TIP3    H219636   5.210   2.435   1.844 -0.0673 -0.0144 -0.9405
 6544TIP3   OH219637   1.333   3.321   0.880 -0.5201  0.0481  0.1002
 6544TIP3    H119638   1.376   3.238   0.901  1.6972  0.7578 -1.3209
 6544TIP3    H219639   1.246   3.295   0.850 -0.1894 -1.6864  0.4877
 6545TIP3   OH219640   2.834   0.044   3.061 -0.0131 -0.0208 -0.6242
 6545TIP3    H119641   2.824  -0.004   2.979 -1.0216 -0.5072 -0.2335
 6545TIP3    H219642   2.793   0.129   3.043 -1.6753 -0.6874 -0.1691
 6546TIP3   OH219643   3.881   4.266   0.978  0.9458  0.1918  0.3723
 6546TIP3    H119644   3.905   4.274   0.885 -1.7270  0.3072 -0.3804
 6546TIP3    H219645   3.900   4.174   0.999 -0.7857 -0.5688 -1.0861
 6547TIP3   OH219646   2.875   1.841   4.833  0.0425 -0.3166 -0.2229
 6547TIP3    H119647   2.842   1.767   4.884  3.2708 -0.7831  1.4618
 6547TIP3    H219648   2.884   1.807   4.744 -1.9074 -0.7498 -0.2975
 6548TIP3   OH219649   4.440   1.376   1.702  0.1097 -0.6164  0.2499
 6548TIP3    H119650   4.395   1.366   1.617  1.7209  2.9246 -1.2001
 6548TIP3    H219651   4.373   1.411   1.760 -0.4347 -0.8744 -0.2078
 6549TIP3   OH219652   2.822   4.494   3.244  0.0793  0.4057  0.3090
 6549TIP3    H119653   2.743   4.452   3.278  0.2430  0.8160  1.1980
 6549TIP3    H219654   2.816   4.481   3.149 -0.7128 -0.1577  0.4253
 6550TIP3   OH219655   0.356   2.950   0.357 -0.2263 -0.6192  0.2417
 6550TIP3    H119656   0.267   2.944   0.389 -1.0817  1.7409 -1.3978
 6550TIP3    H219657   0.408   2.974   0.434 -1.2653 -0.4437  0.8996
 6551TIP3   OH219658   4.984   1.704   4.285 -0.4015 -0.1769 -0.0475
 6551TIP3    H119659   5.002   1.619   4.325 -1.2019  0.7587  2.5026
 6551TIP3    H219660   5.070   1.741   4.266  0.0275 -0.6892  0.8325
 6552TIP3   OH219661   0.725   0.332   0.374  0.0203 -0.0250 -0.6053
 6552TIP3    H119662   0.765   0.330   0.461 -2.6429  1.6828  0.7874
 6552TIP3    H219663   0.685   0.246   0.364  1.8985 -0.9084 -1.0336
 6553TIP3   OH219664   0.940   0.827   2.825  0.5878  0.0666  0.0224
 6553TIP3    H119665   0.949   0.787   2.739  2.0387  1.5215 -0.5513
 6553TIP3    H219666   0.963   0.919   2.812  0.4169  0.4283  1.8855
 6554TIP3   OH219667   4.502   0.150   3.825 -0.1584  0.8093  0.4496
 6554TIP3    H119668   4.454   0.077   3.863  1.6102 -0.0085  1.2533
 6554TIP3    H219669   4.501   0.217   3.893  1.8505 -0.1454  1.5171
 6555TIP3   OH219670   1.766   2.864   4.874 -0.4517 -0.1966  0.2365
 6555TIP3    H119671   1.732   2.902   4.793 -1.7824 -1.4613  0.1546
 6555TIP3    H219672   1.861   2.873   4.866 -0.5418 -0.2658 -1.4643
 6556TIP3   OH219673   5.823   5.694   3.438  0.2725  0.0750  0.2651
 6556TIP3    H119674   5.865   5.751   3.373  1.7539  2.3521  2.9973
 6556TIP3    H219675   5.859   5.723   3.522 -0.9147 -3.2314  2.1055
 6557TIP3   OH219676   2.834   3.712   4.007  0.4037  0.5140 -0.2565
 6557TIP3    H119677   2.890   3.743   3.936 -0.5317 -0.3035 -1.3901
 6557TIP3    H219678   2.825   3.787   4.065  0.3934  1.5166 -1.5081
 6558TIP3   OH219679   2.740   2.419   3.533 -0.7626 -0.1302  0.2268
 6558TIP3    H119680   2.712   2.393   3.620 -1.5418 -1.1685 -0.3035
 6558TIP3    H219681   2.833   2.440   3.542 -0.7591 -0.5419  1.2359
 6559TIP3   OH219682   2.990   1.608   2.088  0.4753  0.4820 -0.2765
 6559TIP3    H119683   2.970   1.701   2.102  0.0757  0.1569  1.6613
 6559TIP3    H219684   3.076   1.596   2.128  0.1167 -0.1417  0.3401
 6560TIP3   OH219685   4.551   0.956   0.225  0.4025  0.4144 -0.1131
 6560TIP3    H119686   4.624   0.897   0.246 -0.1139 -0.2588 -0.1582
 6560TIP3    H219687   4.587   1.016   0.160  0.5448 -0.7686 -1.1586
 6561TIP3   OH219688   5.173   4.241   0.508 -0.5724 -0.1196  0.3555
 6561TIP3    H119689   5.103   4.237   0.443  0.0026 -2.2681 -0.2238
 6561TIP3    H219690   5.161   4.325   0.552 -2.3242  0.4040 -1.0244
 6562TIP3   OH219691   4.961   0.515   1.373 -0.2595 -0.6077  0.2913
 6562TIP3    H119692   5.005   0.594   1.340 -1.0808 -0.2885 -0.0511
 6562TIP3    H219693   4.996   0.444   1.320 -0.2083 -0.3467 -0.0281
 6563TIP3   OH219694   2.131   1.255   0.930  0.8182 -0.4449 -0.0839
 6563TIP3    H119695   2.133   1.295   1.017  0.4295  0.8285 -0.6361
 6563TIP3    H219696   2.055   1.296   0.887  0.7581 -1.3635 -0.8774
 6564TIP3   OH219697   2.290   1.423   0.762  0.2150 -0.2763 -0.1304
 6564TIP3    H119698   2.311   1.474   0.841 -1.9356  2.4338 -1.1043
 6564TIP3    H219699   2.238   1.350   0.794 -0.2616  0.5408  1.0538
 6565TIP3   OH219700   2.613   4.159   3.345 -0.3365 -0.2140 -0.4956
 6565TIP3    H119701   2.585   4.246   3.372 -4.6908 -1.5535  0.0008
 6565TIP3    H219702   2.647   4.118   3.424 -2.2060 -0.2753  0.3184
 6566TIP3   OH219703   1.250   0.416   4.861 -0.6218 -0.4626  0.6408
 6566TIP3    H119704   1.182   0.479   4.884 -0.8150 -0.5240  0.2371
 6566TIP3    H219705   1.286   0.448   4.778  1.4656  0.9105  1.9708
 6567TIP3   OH219706   3.884   0.699   3.788  0.4812  0.4257 -0.5463
 6567TIP3    H119707   3.840   0.625   3.747  0.0169  0.3041  0.1492
 6567TIP3    H219708   3.958   0.719   3.730 -0.8213  1.0326 -2.0642
 6568TIP3   OH219709   5.198   3.738   2.656 -0.3800  0.4811  0.5025
 6568TIP3    H119710   5.184   3.692   2.573 -0.4846 -0.5110  1.0464
 6568TIP3    H219711   5.251   3.814   2.633  2.7825 -1.6764  0.0056
 6569TIP3   OH219712   0.290   5.896   2.944  0.7480  0.2810  0.2673
 6569TIP3    H119713   0.283   5.838   3.020 -2.0560 -3.3067 -2.3904
 6569TIP3    H219714   0.369   5.866   2.898  0.4080 -0.0507 -0.0993
 6570TIP3   OH219715   4.481   1.502   3.415  0.0146  0.3269 -0.0797
 6570TIP3    H119716   4.470   1.590   3.449 -1.3300 -0.2517  1.1026
 6570TIP3    H219717   4.398   1.482   3.372 -0.0201 -0.6369  0.3901
 6571TIP3   OH219718   6.287   1.133   2.171 -0.1945  0.1892  0.3562
 6571TIP3    H119719   6.266   1.172   2.086 -0.7772 -0.7715  0.0401
 6571TIP3    H219720   6.336   1.053   2.149 -1.8202 -0.9889  0.8012
 6572TIP3   OH219721   0.161   4.167   4.072  0.2787  0.8998 -0.1148
 6572TIP3    H119722   0.087   4.128   4.118 -0.3846  0.7339 -1.2836
 6572TIP3    H219723   0.121   4.224   4.006  1.1519 -0.1039 -1.5628
 6573TIP3   OH219724   1.013   5.936   4.397 -0.1897 -0.4178 -0.0746
 6573TIP3    H119725   1.033   5.888   4.317  2.3090 -1.1386  0.9009
 6573TIP3    H219726   0.920   5.958   4.389 -0.5013 -2.1830 -2.2457
 6574TIP3   OH219727   5.344   0.605   1.052 -0.2799 -0.4027 -0.0345
 6574TIP3    H119728   5.413   0.539   1.063  0.1093 -0.2726 -1.4846
 6574TIP3    H219729   5.360   0.667   1.123  0.6752 -0.7376  0.0687
 6575TIP3   OH219730   3.671   4.817   4.929  0.1688  0.2023  0.5459
 6575TIP3    H119731   3.726   4.896   4.925  0.0385  0.3451  1.3382
 6575TIP3    H219732   3.715   4.762   4.995  0.5460 -0.6154 -0.3690
 6576TIP3   OH219733   2.236   3.783   1.488  0.5691 -0.5775 -0.1715
 6576TIP3    H119734   2.240   3.725   1.412 -1.4386  0.3100 -1.0357
 6576TIP3    H219735   2.144   3.809   1.493  0.5864 -0.7721  2.7262
 6577TIP3   OH219736   4.757   0.237   1.755  0.0366 -0.1691 -0.2302
 6577TIP3    H119737   4.690   0.188   1.802 -1.4819  0.3990 -1.6792
 6577TIP3    H219738   4.838   0.190   1.773 -1.0939 -2.2536 -0.2416
 6578TIP3   OH219739   0.087   4.979   1.971 -0.2114  0.1153  0.2020
 6578TIP3    H119740   0.068   5.047   2.036  3.2924  1.3057  0.1681
 6578TIP3    H219741   0.120   4.906   2.023  0.5204  0.2436 -0.0760
 6579TIP3   OH219742   0.047   1.336   2.841 -0.1134 -0.8747  0.3170
 6579TIP3    H119743   0.106   1.269   2.874 -2.0437 -2.9294 -0.1214
 6579TIP3    H219744   0.077   1.417   2.882  1.8946 -2.0869  1.4333
 6580TIP3   OH219745   3.782   0.272   4.105  0.0412 -0.1328  1.0144
 6580TIP3    H119746   3.764   0.360   4.140 -1.4468  0.4424 -1.0148
 6580TIP3    H219747   3.862   0.282   4.054 -0.6003  0.2812  0.0695
 6581TIP3   OH219748   2.559   3.675   0.380 -0.9812  0.9923  0.0343
 6581TIP3    H119749   2.616   3.717   0.443 -1.2253 -0.6743  1.4361
 6581TIP3    H219750   2.589   3.584   0.376 -0.2468  1.2483 -3.1360
 6582TIP3   OH219751   3.186   1.988   2.125  0.2183 -0.1080  0.6374
 6582TIP3    H119752   3.102   1.944   2.136 -1.2553  2.3940  0.2347
 6582TIP3    H219753   3.163   2.081   2.116  3.0985  0.7844  1.4419
 6583TIP3   OH219754   6.230   1.673   5.124  0.0421 -0.0997 -0.2666
 6583TIP3    H119755   6.240   1.743   5.189  1.5066 -0.1890 -0.3512
 6583TIP3    H219756   6.317   1.664   5.085 -0.4007 -1.1921 -1.0658
 6584TIP3   OH219757   2.115   4.776   2.275 -0.1577  0.4004  0.2688
 6584TIP3    H119758   2.042   4.715   2.266  0.1135  0.2664 -1.5149
 6584TIP3    H219759   2.083   4.844   2.334 -2.1365  0.8811 -1.2132
 6585TIP3   OH219760   2.815   1.639   4.092 -0.3004  0.5331 -0.5463
 6585TIP3    H119761   2.732   1.687   4.087  1.3419  3.8125  0.6084
 6585TIP3    H219762   2.842   1.629   4.001 -2.1596 -1.1723 -0.9879
 6586TIP3   OH219763   4.388   3.194   2.016  0.3040 -0.2383  0.7144
 6586TIP3    H119764   4.304   3.240   2.022 -0.1226 -1.1041  1.6984
 6586TIP3    H219765   4.416   3.208   1.925 -2.4368 -2.5085 -0.6757
 6587TIP3   OH219766   0.778   0.882   0.703  0.5047  0.4358  0.2885
 6587TIP3    H119767   0.778   0.953   0.638  2.1766  0.9163  0.7645
 6587TIP3    H219768   0.740   0.808   0.656 -1.8303  1.7476 -0.0538
 6588TIP3   OH219769   5.136   1.318   4.555  0.0431 -0.1048 -0.0342
 6588TIP3    H119770   5.099   1.290   4.638 -0.2493  1.7721  0.5260
 6588TIP3    H219771   5.214   1.369   4.579 -0.0118  0.4093 -0.9069
 6589TIP3   OH219772   6.262   0.536   4.853 -0.2372  1.0883  0.3751
 6589TIP3    H119773   6.275   0.628   4.878 -0.2442  1.5381 -1.1823
 6589TIP3    H219774   6.341   0.512   4.806 -0.5681  0.5296  0.0943
 6590TIP3   OH219775   2.624   4.218   1.446 -0.6731  0.1321  0.2324
 6590TIP3    H119776   2.566   4.275   1.496 -0.1128 -0.3053  1.4266
 6590TIP3    H219777   2.633   4.140   1.500  1.0396  0.2016  0.0987
 6591TIP3   OH219778   3.155   2.052   1.729  0.7415 -0.0051 -0.6817
 6591TIP3    H119779   3.075   1.999   1.725  1.7288 -1.6652  0.4570
 6591TIP3    H219780   3.211   2.006   1.792  2.3426  1.4733 -0.9634
 6592TIP3   OH219781   2.408   5.966   4.124  0.9549 -0.2017  0.0283
 6592TIP3    H119782   2.465   5.970   4.201  0.6487  2.0140  0.2017
 6592TIP3    H219783   2.467   5.962   4.049  1.2820 -0.4484  0.2986
 6593TIP3   OH219784   0.455   2.775   4.428  0.8425 -0.5626  0.2974
 6593TIP3    H119785   0.383   2.723   4.394  1.0059  0.0850 -1.1342
 6593TIP3    H219786   0.414   2.846   4.477  0.5556 -0.9275  0.5829
 6594TIP3   OH219787   3.156   5.773   3.747  0.0875  0.2464  0.1622
 6594TIP3    H119788   3.228   5.835   3.738  0.7104 -0.5742 -0.5496
 6594TIP3    H219789   3.087   5.808   3.690  0.9010 -0.3766 -1.2407
 6595TIP3   OH219790   2.180   3.989   4.406  0.0409 -0.4434 -0.1804
 6595TIP3    H119791   2.220   4.024   4.326 -3.0710 -0.6664 -2.0080
 6595TIP3    H219792   2.136   4.064   4.446 -0.2910 -0.7844  0.0988
 6596TIP3   OH219793   0.089   3.276   1.182 -0.6046 -0.1143  0.4778
 6596TIP3    H119794   0.020   3.241   1.126  0.0816 -1.5210  0.4678
 6596TIP3    H219795   0.168   3.273   1.127 -0.1379 -0.5191  1.1509
 6597TIP3   OH219796   5.076   0.408   4.868 -0.2487 -0.4779  0.0530
 6597TIP3    H119797   5.161   0.404   4.823 -0.3266 -0.5895 -0.0862
 6597TIP3    H219798   5.038   0.322   4.853  0.1187 -0.8418  1.1126
 6598TIP3   OH219799   5.990   4.423   3.408 -0.1086 -0.1564 -0.1314
 6598TIP3    H119800   6.070   4.371   3.395  1.8506  2.3467  0.9860
 6598TIP3    H219801   5.942   4.377   3.476  0.1842 -1.8961 -1.0538
 6599TIP3   OH219802   3.637   1.026   4.726  0.0106 -0.2099  0.2341
 6599TIP3    H119803   3.676   1.099   4.775 -1.4685  1.3182 -0.7300
 6599TIP3    H219804   3.710   0.984   4.682  0.7176  2.2683 -1.1455
 6600TIP3   OH219805   1.647   0.781   1.743 -0.3649  0.0348 -0.3044
 6600TIP3    H119806   1.731   0.736   1.753 -0.1824 -0.2820 -2.6992
 6600TIP3    H219807   1.594   0.749   1.816  0.3061 -2.8208 -0.9346
 6601TIP3   OH219808   2.456   4.376   1.581 -0.2993  0.0583 -1.3698
 6601TIP3    H119809   2.522   4.369   1.651  1.1964 -2.4985 -2.9038
 6601TIP3    H219810   2.395   4.442   1.614  0.9262 -0.1992  1.8449
 6602TIP3   OH219811   0.593   3.203   0.437 -0.0365 -0.6316 -0.2870
 6602TIP3    H119812   0.509   3.209   0.483 -0.2532  0.0568 -0.7654
 6602TIP3    H219813   0.628   3.117   0.463 -1.2650 -1.2941 -0.7203
 6603TIP3   OH219814   3.943   0.733   0.792  0.0825  0.1277 -0.7101
 6603TIP3    H119815   3.869   0.748   0.850 -1.1374 -0.2028 -2.1019
 6603TIP3    H219816   3.927   0.646   0.755  0.4930  0.5504 -1.9435
 6604TIP3   OH219817   5.585   2.067   4.659  0.3857  0.1422 -0.2611
 6604TIP3    H119818   5.649   2.065   4.730  1.3058  0.7464 -1.0380
 6604TIP3    H219819   5.571   1.975   4.637  0.9359 -0.0042 -0.0254
 6605TIP3   OH219820   0.434   5.729   1.796 -0.3931  0.0664 -0.0399
 6605TIP3    H119821   0.424   5.805   1.739  1.1962  1.5938  1.5862
 6605TIP3    H219822   0.529   5.717   1.804 -0.6081 -2.2154 -0.3768
 6606TIP3   OH219823   1.270   1.466   3.756  0.3401  0.9567 -0.6810
 6606TIP3    H119824   1.339   1.399   3.753 -0.6286 -0.2576  1.5765
 6606TIP3    H219825   1.283   1.510   3.840 -0.8196  1.6487 -0.8408
 6607TIP3   OH219826   3.975   3.993   0.549 -0.3156  0.1742 -0.3851
 6607TIP3    H119827   3.950   4.071   0.597  0.0311  1.2687 -1.8961
 6607TIP3    H219828   3.897   3.938   0.549 -0.1303 -0.1641  1.9181
 6608TIP3   OH219829   2.995   4.536   4.892  0.0389 -0.1955  0.2809
 6608TIP3    H119830   2.997   4.507   4.984 -1.7127  3.4741  1.6714
 6608TIP3    H219831   3.073   4.590   4.882 -0.7584  1.0023  0.2934
 6609TIP3   OH219832   0.665   0.181   2.264  0.7500 -0.0153  0.5778
 6609TIP3    H119833   0.702   0.269   2.252  0.1720  0.0191 -1.2450
 6609TIP3    H219834   0.738   0.121   2.247  1.6029  0.0443  3.4820
 6610TIP3   OH219835   0.232   2.816   2.281  0.2514  0.3274  0.0676
 6610TIP3    H119836   0.240   2.897   2.231  0.0263  0.9647  1.0607
 6610TIP3    H219837   0.149   2.778   2.252  0.2148  0.5882 -0.1760
 6611TIP3   OH219838   3.806   1.587   5.040  0.2324 -0.4943  0.0918
 6611TIP3    H119839   3.710   1.590   5.046 -0.1419 -2.0292 -2.9005
 6611TIP3    H219840   3.835   1.555   5.125 -1.6897  1.9089  1.7763
 6612TIP3   OH219841   1.711   5.014   4.001 -0.4359  0.0727  0.4804
 6612TIP3    H119842   1.637   5.073   3.991 -0.4698  0.0837  0.7740
 6612TIP3    H219843   1.761   5.023   3.919  0.2616  1.4899  1.0124
 6613TIP3   OH219844   5.082   1.718   0.656  0.8701 -0.8849 -0.1729
 6613TIP3    H119845   5.068   1.675   0.571 -0.3450  2.0045 -1.5953
 6613TIP3    H219846   4.999   1.764   0.673  2.6090  2.4074  0.1581
 6614TIP3   OH219847   1.278   5.553   4.048 -0.0565 -0.2536  0.0344
 6614TIP3    H119848   1.253   5.606   3.972  0.3695  0.1011  0.1362
 6614TIP3    H219849   1.203   5.560   4.107  0.1510  0.5749  0.2164
 6615TIP3   OH219850   2.581   1.975   0.305 -0.1085 -0.0536  0.5137
 6615TIP3    H119851   2.658   1.954   0.252 -0.3396 -0.7279  0.4256
 6615TIP3    H219852   2.562   2.066   0.285  0.4136 -0.0094  0.2083
 6616TIP3   OH219853   1.565   4.914   2.775  0.2373  0.4779 -0.0049
 6616TIP3    H119854   1.474   4.944   2.769  0.5527  1.5976  0.4931
 6616TIP3    H219855   1.612   4.966   2.709  0.7963  1.1271  0.8748
 6617TIP3   OH219856   3.931   1.318   2.347 -0.0158  0.4119  0.5328
 6617TIP3    H119857   3.843   1.305   2.382 -0.2622  4.2043  1.7182
 6617TIP3    H219858   3.987   1.326   2.424  0.9865  0.3229 -0.1665
 6618TIP3   OH219859   1.535   5.308   2.000 -0.0228  0.0927  0.4689
 6618TIP3    H119860   1.529   5.259   2.082 -0.2562 -0.4113  0.1542
 6618TIP3    H219861   1.544   5.399   2.028  1.4612 -0.2102  1.0758
 6619TIP3   OH219862   1.954   1.734   1.426 -0.1711  0.1254 -0.2024
 6619TIP3    H119863   1.969   1.761   1.516  1.0018  1.0951 -0.6559
 6619TIP3    H219864   1.922   1.813   1.382 -1.0875 -0.4334 -0.5719
 6620TIP3   OH219865   6.066   4.198   3.211  0.4923  0.1919 -0.0011
 6620TIP3    H119866   6.132   4.129   3.212 -0.6311 -0.9406 -0.8897
 6620TIP3    H219867   6.114   4.278   3.189  1.3391 -0.8836 -2.3665
 6621TIP3   OH219868   2.892   0.221   0.621  0.2712  0.1202  0.6331
 6621TIP3    H119869   2.874   0.313   0.641 -0.5823  0.1323 -0.1236
 6621TIP3    H219870   2.868   0.211   0.529  0.0818 -0.9267  0.7773
 6622TIP3   OH219871   4.503   1.207   3.687 -0.2540  0.8621 -0.0016
 6622TIP3    H119872   4.596   1.191   3.672 -0.2282 -0.9622  1.6162
 6622TIP3    H219873   4.465   1.214   3.600  1.0539 -0.8001 -0.7716
 6623TIP3   OH219874   5.671   2.327   5.170 -0.3808  0.3480 -0.3703
 6623TIP3    H119875   5.673   2.352   5.077  0.1061  1.8918  0.0338
 6623TIP3    H219876   5.727   2.390   5.213  1.1479 -1.6555  0.7235
 6624TIP3   OH219877   3.735   1.440   4.737 -0.6242 -0.4877 -0.4202
 6624TIP3    H119878   3.755   1.381   4.810  0.2853 -1.3009 -1.2897
 6624TIP3    H219879   3.641   1.429   4.723 -0.4884 -1.6773 -0.5077
 6625TIP3   OH219880   5.891   4.281   0.000 -0.1509 -0.5059  0.0661
 6625TIP3    H119881   5.921   4.365   0.037 -0.1391 -1.3161  2.0441
 6625TIP3    H219882   5.971   4.240  -0.032  0.0370 -0.2997  0.2609
 6626TIP3   OH219883   6.161   5.447   2.639 -0.3187 -0.3350 -0.4825
 6626TIP3    H119884   6.209   5.436   2.556 -0.0020  0.0945 -0.3613
 6626TIP3    H219885   6.092   5.510   2.619 -0.1012 -0.0576 -0.3657
 6627TIP3   OH219886   5.059   1.873   4.696 -0.3446  0.0981 -0.2738
 6627TIP3    H119887   5.056   1.820   4.776 -0.0367 -0.5582 -0.6861
 6627TIP3    H219888   5.125   1.940   4.714 -1.6064  1.1535  0.7181
 6628TIP3   OH219889   0.092   1.772   3.173  0.1448  0.0489  0.1335
 6628TIP3    H119890   0.138   1.690   3.190 -0.5601 -0.3113  0.3497
 6628TIP3    H219891   0.062   1.765   3.083  1.6568  0.8645 -0.4742
 6629TIP3   OH219892   3.186   3.260   2.476 -0.0248  0.3704  0.2605
 6629TIP3    H119893   3.240   3.182   2.486 -0.3531 -0.1548 -1.7348
 6629TIP3    H219894   3.104   3.238   2.521 -0.6277 -1.0127 -1.3999
 6630TIP3   OH219895   4.040   5.714   2.649 -0.1923  0.0659  0.1947
 6630TIP3    H119896   3.987   5.722   2.569 -1.3418  0.8341  0.9955
 6630TIP3    H219897   4.025   5.625   2.678 -1.0725  0.2670  0.4018
 6631TIP3   OH219898   5.879   3.780   0.796 -0.0410 -0.2442  0.2227
 6631TIP3    H119899   5.922   3.768   0.711  2.0513  2.0615  0.8380
 6631TIP3    H219900   5.786   3.775   0.777  0.4142 -1.5904 -1.8844
 6632TIP3   OH219901   5.555   2.350   3.817 -0.0027  0.0805 -0.1777
 6632TIP3    H119902   5.644   2.380   3.835  0.0963 -0.7859  0.9399
 6632TIP3    H219903   5.499   2.424   3.842  0.3034 -0.1397  1.2622
 6633TIP3   OH219904   0.479   1.326   0.423 -0.2864  0.0797  0.1570
 6633TIP3    H119905   0.541   1.374   0.367 -0.9649  1.0309  0.1910
 6633TIP3    H219906   0.518   1.328   0.510 -1.7012  3.4213  0.8916
 6634TIP3   OH219907   3.494   5.472   3.050  0.2071  0.2320  0.4243
 6634TIP3    H119908   3.423   5.409   3.035  1.2539 -0.5484 -1.5851
 6634TIP3    H219909   3.561   5.421   3.097  0.6491  0.1152 -0.3247
 6635TIP3   OH219910   4.724   5.263   2.037  0.2291  0.2084  0.0548
 6635TIP3    H119911   4.700   5.175   2.068 -1.1935  0.0608 -1.3187
 6635TIP3    H219912   4.655   5.320   2.071  1.4789  0.9287  1.4537
 6636TIP3   OH219913   5.901   3.158   3.679  0.5393 -0.0212 -0.4169
 6636TIP3    H119914   5.944   3.229   3.727  2.2718 -0.7560 -0.7973
 6636TIP3    H219915   5.973   3.109   3.639 -0.7562 -0.4943 -2.2986
 6637TIP3   OH219916   0.855   5.281   1.768 -0.9186  0.1782 -0.1376
 6637TIP3    H119917   0.871   5.375   1.776  1.7857 -0.3514  2.2911
 6637TIP3    H219918   0.922   5.252   1.705  1.4428 -0.6441  2.5525
 6638TIP3   OH219919   4.819   2.437   4.705 -1.0215 -0.1772  0.4408
 6638TIP3    H119920   4.890   2.494   4.676 -2.1205 -0.1787 -2.5830
 6638TIP3    H219921   4.862   2.353   4.723 -0.0655  0.2161  0.0560
 6639TIP3   OH219922   5.002   1.930   1.713  0.3265  0.0945  0.2381
 6639TIP3    H119923   5.000   1.969   1.801  1.7030  0.3187  0.1913
 6639TIP3    H219924   4.989   1.837   1.728 -0.9431  0.2953  0.5340
 6640TIP3   OH219925   5.582   1.754   3.587  0.2846  0.2963 -0.0315
 6640TIP3    H119926   5.651   1.782   3.648  0.7143 -0.5186 -0.1221
 6640TIP3    H219927   5.628   1.740   3.504 -0.0371  0.0165 -0.1673
   6.33872   5.97619   5.17554   0.00000   0.00000  -2.11291   0.00000  -2.11291  -2.98811
