Title t= 214.00000 step= 107000
44463
    1GLY      N    1   2.507   3.219   3.927
    1GLY    HT1    2   2.458   3.298   3.881
    1GLY    HT2    3   2.605   3.241   3.954
    1GLY    HT3    4   2.446   3.195   4.008
    1GLY     CA    5   2.501   3.094   3.840
    1GLY    HA1    6   2.579   3.094   3.766
    1GLY    HA2    7   2.401   3.081   3.802
    1GLY      C    8   2.528   2.976   3.932
    1GLY      O    9   2.564   2.998   4.048
    2PRO      N   10   2.509   2.855   3.885
    2PRO     CD   11   2.409   2.823   3.776
    2PRO    HD1   12   2.456   2.850   3.679
    2PRO    HD2   13   2.315   2.879   3.789
    2PRO     CA   14   2.555   2.731   3.956
    2PRO     HA   15   2.491   2.719   4.042
    2PRO     CB   16   2.525   2.631   3.845
    2PRO    HB1   17   2.518   2.525   3.878
    2PRO    HB2   18   2.587   2.644   3.753
    2PRO     CG   19   2.385   2.671   3.795
    2PRO    HG1   20   2.353   2.612   3.706
    2PRO    HG2   21   2.309   2.655   3.874
    2PRO      C   22   2.709   2.721   4.005
    2PRO      O   23   2.806   2.773   3.941
    3GLY      N   24   2.739   2.649   4.119
    3GLY     HN   25   2.660   2.636   4.179
    3GLY     CA   26   2.871   2.594   4.164
    3GLY    HA1   27   2.856   2.535   4.253
    3GLY    HA2   28   2.950   2.668   4.170
    3GLY      C   29   2.922   2.492   4.057
    3GLY      O   30   2.845   2.424   3.986
    4ASP      N   31   3.043   2.466   4.067
    4ASP     HN   32   3.096   2.516   4.135
    4ASP     CA   33   3.115   2.364   3.994
    4ASP     HA   34   3.108   2.382   3.887
    4ASP     CB   35   3.268   2.362   4.021
    4ASP    HB1   36   3.319   2.272   3.982
    4ASP    HB2   37   3.295   2.360   4.129
    4ASP     CG   38   3.333   2.485   3.967
    4ASP    OD1   39   3.420   2.553   4.027
    4ASP    OD2   40   3.309   2.503   3.843
    4ASP      C   41   3.072   2.222   4.020
    4ASP      O   42   3.031   2.205   4.131
    5PRO      N   43   3.074   2.119   3.935
    5PRO     CD   44   3.092   2.141   3.792
    5PRO    HD1   45   3.200   2.160   3.774
    5PRO    HD2   46   3.019   2.220   3.762
    5PRO     CA   47   3.055   1.975   3.973
    5PRO     HA   48   2.954   1.967   4.010
    5PRO     CB   49   3.082   1.906   3.838
    5PRO    HB1   50   3.042   1.803   3.827
    5PRO    HB2   51   3.193   1.894   3.830
    5PRO     CG   52   3.033   2.012   3.737
    5PRO    HG1   53   3.079   1.983   3.640
    5PRO    HG2   54   2.922   2.008   3.742
    5PRO      C   55   3.141   1.919   4.084
    5PRO      O   56   3.260   1.950   4.080
    6GLY      N   57   3.089   1.847   4.189
    6GLY     HN   58   2.990   1.845   4.197
    6GLY     CA   59   3.159   1.799   4.308
    6GLY    HA1   60   3.088   1.738   4.362
    6GLY    HA2   61   3.181   1.886   4.369
    6GLY      C   62   3.287   1.722   4.278
    6GLY      O   63   3.310   1.654   4.178
    7PRO      N   64   3.386   1.724   4.369
    7PRO     CD   65   3.377   1.793   4.498
    7PRO    HD1   66   3.277   1.771   4.542
    7PRO    HD2   67   3.395   1.902   4.493
    7PRO     CA   68   3.518   1.655   4.355
    7PRO     HA   69   3.563   1.696   4.266
    7PRO     CB   70   3.593   1.696   4.482
    7PRO    HB1   71   3.649   1.790   4.464
    7PRO    HB2   72   3.669   1.619   4.508
    7PRO     CG   73   3.483   1.719   4.581
    7PRO    HG1   74   3.431   1.628   4.619
    7PRO    HG2   75   3.507   1.753   4.684
    7PRO      C   76   3.506   1.508   4.345
    7PRO      O   77   3.417   1.448   4.401
    8GLY      N   78   3.605   1.446   4.280
    8GLY     HN   79   3.682   1.499   4.246
    8GLY     CA   80   3.596   1.300   4.239
    8GLY    HA1   81   3.557   1.248   4.326
    8GLY    HA2   82   3.691   1.260   4.207
    8GLY      C   83   3.505   1.274   4.123
    8GLY      O   84   3.453   1.372   4.065
    9ASP      N   85   3.493   1.146   4.086
    9ASP     HN   86   3.547   1.083   4.142
    9ASP     CA   87   3.409   1.087   3.983
    9ASP     HA   88   3.458   1.115   3.892
    9ASP     CB   89   3.408   0.938   4.008
    9ASP    HB1   90   3.326   0.883   3.955
    9ASP    HB2   91   3.398   0.917   4.117
    9ASP     CG   92   3.530   0.870   3.958
    9ASP    OD1   93   3.629   0.935   3.917
    9ASP    OD2   94   3.534   0.743   3.962
    9ASP      C   95   3.267   1.140   3.979
    9ASP      O   96   3.219   1.162   4.088
   10PRO      N   97   3.208   1.165   3.869
   10PRO     CD   98   3.277   1.180   3.738
   10PRO    HD1   99   3.310   1.084   3.692
   10PRO    HD2  100   3.357   1.256   3.749
   10PRO     CA  101   3.062   1.186   3.852
   10PRO     HA  102   3.025   1.282   3.887
   10PRO     CB  103   3.044   1.192   3.702
   10PRO    HB1  104   2.961   1.256   3.664
   10PRO    HB2  105   3.036   1.087   3.668
   10PRO     CG  106   3.177   1.247   3.648
   10PRO    HG1  107   3.200   1.234   3.540
   10PRO    HG2  108   3.182   1.357   3.665
   10PRO      C  109   2.971   1.092   3.924
   10PRO      O  110   3.005   0.974   3.939
   11GLY      N  111   2.858   1.137   3.975
   11GLY     HN  112   2.842   1.234   3.965
   11GLY     CA  113   2.750   1.051   4.028
   11GLY    HA1  114   2.789   0.968   4.085
   11GLY    HA2  115   2.690   1.028   3.941
   11GLY      C  116   2.665   1.131   4.124
   11GLY      O  117   2.714   1.237   4.166
   12PRO      N  118   2.545   1.078   4.152
   12PRO     CD  119   2.494   0.954   4.093
   12PRO    HD1  120   2.530   0.863   4.146
   12PRO    HD2  121   2.515   0.938   3.985
   12PRO     CA  122   2.449   1.144   4.246
   12PRO     HA  123   2.421   1.239   4.202
   12PRO     CB  124   2.329   1.046   4.236
   12PRO    HB1  125   2.227   1.088   4.247
   12PRO    HB2  126   2.342   0.975   4.320
   12PRO     CG  127   2.342   0.959   4.118
   12PRO    HG1  128   2.283   0.866   4.128
   12PRO    HG2  129   2.287   1.004   4.033
   12PRO      C  130   2.488   1.185   4.384
   12PRO      O  131   2.548   1.107   4.459
   13GLY      N  132   2.458   1.308   4.420
   13GLY     HN  133   2.404   1.360   4.354
   13GLY     CA  134   2.482   1.375   4.551
   13GLY    HA1  135   2.474   1.481   4.532
   13GLY    HA2  136   2.581   1.342   4.580
   13GLY      C  137   2.388   1.334   4.651
   13GLY      O  138   2.278   1.291   4.615
   14ASP      N  139   2.425   1.356   4.783
   14ASP     HN  140   2.504   1.413   4.804
   14ASP     CA  141   2.352   1.327   4.903
   14ASP     HA  142   2.339   1.220   4.897
   14ASP     CB  143   2.443   1.361   5.030
   14ASP    HB1  144   2.371   1.362   5.115
   14ASP    HB2  145   2.484   1.461   5.005
   14ASP     CG  146   2.548   1.261   5.049
   14ASP    OD1  147   2.655   1.298   5.099
   14ASP    OD2  148   2.527   1.140   5.022
   14ASP      C  149   2.209   1.388   4.920
   14ASP      O  150   2.190   1.509   4.888
   15PRO      N  151   2.110   1.317   4.966
   15PRO     CD  152   2.108   1.175   4.942
   15PRO    HD1  153   2.161   1.129   5.028
   15PRO    HD2  154   2.155   1.143   4.846
   15PRO     CA  155   1.979   1.367   5.000
   15PRO     HA  156   1.944   1.435   4.923
   15PRO     CB  157   1.902   1.239   5.026
   15PRO    HB1  158   1.792   1.241   5.016
   15PRO    HB2  159   1.928   1.201   5.128
   15PRO     CG  160   1.962   1.136   4.935
   15PRO    HG1  161   1.961   1.029   4.962
   15PRO    HG2  162   1.926   1.154   4.832
   15PRO      C  163   1.979   1.448   5.128
   15PRO    OT1  164   2.047   1.401   5.224
   15PRO    OT2  165   1.915   1.554   5.141
   16LIT    LIT  166   1.944   1.515   5.342
   17LIT    LIT  167   2.359   1.901   5.678
   18LIT    LIT  168   2.576   6.595   2.235
   19LIT    LIT  169   5.276   5.294   1.474
   20LIT    LIT  170   1.983   5.979   3.743
   21LIT    LIT  171   8.193   1.966   2.938
   22LIT    LIT  172   0.597   1.293   4.260
   23LIT    LIT  173   1.160   1.838   3.017
   24LIT    LIT  174   1.065   1.374   5.466
   25LIT    LIT  175   4.769   0.533   5.137
   26LIT    LIT  176   7.753   2.200   1.611
   27LIT    LIT  177   0.463   3.139   5.988
   28LIT    LIT  178   5.318   1.073   5.191
   29LIT    LIT  179   3.010   4.910   1.302
   30LIT    LIT  180   3.427   3.787   0.024
   31LIT    LIT  181   6.812   5.884   5.390
   32LIT    LIT  182   4.422   4.536   0.624
   33LIT    LIT  183   7.415   2.331   1.065
   34LIT    LIT  184   4.854   7.317   3.437
   35LIT    LIT  185   4.293   7.765   6.754
   36LIT    LIT  186   3.536   0.249   3.841
   37LIT    LIT  187   8.281   6.518   1.313
   38LIT    LIT  188   7.975   0.046   4.408
   39LIT    LIT  189   8.230   7.342   3.194
   40LIT    LIT  190   0.146   0.826   2.076
   41LIT    LIT  191   1.636   7.253   4.305
   42LIT    LIT  192   7.035   0.759   0.424
   43LIT    LIT  193   5.473   2.663   1.186
   44LIT    LIT  194   6.583   2.601   5.003
   45LIT    LIT  195   7.551   5.694   3.575
   46LIT    LIT  196   7.102   4.807   2.224
   47LIT    LIT  197   0.416   5.006   2.131
   48LIT    LIT  198   6.349   2.818   3.235
   49LIT    LIT  199   7.736   1.815   6.287
   50LIT    LIT  200   7.686   0.623   4.198
   51LIT    LIT  201   2.207   0.460   4.140
   52LIT    LIT  202   7.496   5.662   0.749
   53LIT    LIT  203   0.057   3.263   1.987
   54LIT    LIT  204   1.071   3.532   1.721
   55LIT    LIT  205   6.263   7.706   2.958
   56LIT    LIT  206   4.596   6.819   1.745
   57LIT    LIT  207   5.733   3.425   2.734
   58LIT    LIT  208   2.685   1.116   5.144
   59LIT    LIT  209   0.710   6.636   4.874
   60LIT    LIT  210   3.756   5.251   5.282
   61CLA    CLA  211   8.214   4.923   3.957
   62CLA    CLA  212   2.317   3.986   5.006
   63CLA    CLA  213   1.581   1.426   2.876
   64CLA    CLA  214   4.838   3.321   1.841
   65CLA    CLA  215   4.072   7.616   2.963
   66CLA    CLA  216   8.106   0.422   3.982
   67CLA    CLA  217   1.489   0.982   5.902
   68CLA    CLA  218   6.579   0.447   5.137
   69CLA    CLA  219   1.841   2.277   6.032
   70CLA    CLA  220   4.374   6.760   4.817
   71CLA    CLA  221   0.637   5.533   6.288
   72CLA    CLA  222   3.088   5.338   1.254
   73CLA    CLA  223   0.100   3.510   1.107
   74CLA    CLA  224   7.405   6.026   3.319
   75CLA    CLA  225   7.327   0.636   4.626
   76CLA    CLA  226   4.170   1.037   1.340
   77CLA    CLA  227   3.482   4.676   4.979
   78CLA    CLA  228   4.314   4.756   0.974
   79CLA    CLA  229   5.238   1.999   6.730
   80CLA    CLA  230   7.453   4.460   1.355
   81CLA    CLA  231   5.759   6.070   5.901
   82CLA    CLA  232   0.276   0.510   6.150
   83CLA    CLA  233   2.040   5.236   0.218
   84CLA    CLA  234   2.369   1.356   0.317
   85CLA    CLA  235   4.124   6.085   5.934
   86CLA    CLA  236   7.229   3.856   3.370
   87CLA    CLA  237   2.835   6.607   2.633
   88CLA    CLA  238   5.215   5.485   1.035
   89CLA    CLA  239   6.774   4.386   4.855
   90CLA    CLA  240   0.432   6.574   6.681
   91CLA    CLA  241   3.602   3.180   1.750
   92CLA    CLA  242   7.501   7.165   4.813
   93CLA    CLA  243   4.028   1.475   4.346
   94CLA    CLA  244   1.958   2.615   6.609
   95CLA    CLA  245   2.267   5.639   4.758
   96CLA    CLA  246   0.221   0.896   2.521
   97CLA    CLA  247   6.027   2.217   4.228
   98CLA    CLA  248   1.592   6.228   3.841
   99CLA    CLA  249   7.206   2.327   1.154
  100CLA    CLA  250   1.128   4.363   4.198
  101CLA    CLA  251   8.260   2.060   2.740
  102CLA    CLA  252   0.456   1.030   4.625
  103TIP3   OH2  253   1.970   6.191   5.070
  103TIP3    H1  254   1.934   6.118   5.021
  103TIP3    H2  255   2.035   6.230   5.011
  104TIP3   OH2  256   6.452   5.622   5.928
  104TIP3    H1  257   6.406   5.546   5.893
  104TIP3    H2  258   6.438   5.616   6.023
  105TIP3   OH2  259   7.683   2.656   4.189
  105TIP3    H1  260   7.720   2.631   4.274
  105TIP3    H2  261   7.758   2.687   4.139
  106TIP3   OH2  262   6.189   5.108   0.569
  106TIP3    H1  263   6.183   5.203   0.571
  106TIP3    H2  264   6.263   5.086   0.626
  107TIP3   OH2  265   1.760   4.543   2.760
  107TIP3    H1  266   1.698   4.580   2.697
  107TIP3    H2  267   1.706   4.520   2.836
  108TIP3   OH2  268   0.439   5.030   1.534
  108TIP3    H1  269   0.360   5.047   1.483
  108TIP3    H2  270   0.463   4.940   1.511
  109TIP3   OH2  271   0.648   5.184   1.525
  109TIP3    H1  272   0.572   5.127   1.523
  109TIP3    H2  273   0.688   5.173   1.438
  110TIP3   OH2  274   6.521   5.550   4.226
  110TIP3    H1  275   6.454   5.491   4.262
  110TIP3    H2  276   6.600   5.495   4.220
  111TIP3   OH2  277   0.637   6.405   5.418
  111TIP3    H1  278   0.655   6.346   5.492
  111TIP3    H2  279   0.697   6.478   5.430
  112TIP3   OH2  280   3.053   3.397   5.181
  112TIP3    H1  281   3.089   3.389   5.093
  112TIP3    H2  282   3.017   3.311   5.201
  113TIP3   OH2  283   6.392   2.333   3.456
  113TIP3    H1  284   6.431   2.253   3.422
  113TIP3    H2  285   6.466   2.394   3.466
  114TIP3   OH2  286   1.236   0.167   2.363
  114TIP3    H1  287   1.310   0.153   2.422
  114TIP3    H2  288   1.267   0.235   2.302
  115TIP3   OH2  289   6.713   7.028   2.851
  115TIP3    H1  290   6.700   7.104   2.908
  115TIP3    H2  291   6.768   6.969   2.903
  116TIP3   OH2  292   1.863   2.906   5.540
  116TIP3    H1  293   1.789   2.848   5.521
  116TIP3    H2  294   1.824   2.979   5.588
  117TIP3   OH2  295   5.638   6.033   4.406
  117TIP3    H1  296   5.714   5.978   4.425
  117TIP3    H2  297   5.621   6.079   4.489
  118TIP3   OH2  298   8.220   4.897   6.700
  118TIP3    H1  299   8.224   4.845   6.620
  118TIP3    H2  300   8.252   4.984   6.673
  119TIP3   OH2  301   7.614   6.674   2.086
  119TIP3    H1  302   7.572   6.598   2.044
  119TIP3    H2  303   7.635   6.644   2.174
  120TIP3   OH2  304   4.180   2.430   1.934
  120TIP3    H1  305   4.195   2.427   1.839
  120TIP3    H2  306   4.097   2.383   1.946
  121TIP3   OH2  307   1.325   2.287   6.263
  121TIP3    H1  308   1.303   2.307   6.354
  121TIP3    H2  309   1.397   2.346   6.242
  122TIP3   OH2  310   5.110   6.815   5.656
  122TIP3    H1  311   5.044   6.814   5.586
  122TIP3    H2  312   5.145   6.904   5.655
  123TIP3   OH2  313   4.651   5.762   1.790
  123TIP3    H1  314   4.641   5.688   1.730
  123TIP3    H2  315   4.575   5.757   1.848
  124TIP3   OH2  316   0.380   6.988   4.095
  124TIP3    H1  317   0.468   7.021   4.078
  124TIP3    H2  318   0.332   7.064   4.127
  125TIP3   OH2  319   0.420   4.736   2.638
  125TIP3    H1  320   0.390   4.706   2.723
  125TIP3    H2  321   0.516   4.735   2.645
  126TIP3   OH2  322   2.785   1.292   1.378
  126TIP3    H1  323   2.779   1.197   1.378
  126TIP3    H2  324   2.707   1.322   1.332
  127TIP3   OH2  325   1.908   3.198   5.951
  127TIP3    H1  326   1.998   3.202   5.985
  127TIP3    H2  327   1.854   3.231   6.023
  128TIP3   OH2  328   5.653   6.721   5.303
  128TIP3    H1  329   5.748   6.705   5.305
  128TIP3    H2  330   5.640   6.791   5.367
  129TIP3   OH2  331   7.815   6.410   1.460
  129TIP3    H1  332   7.808   6.315   1.458
  129TIP3    H2  333   7.865   6.428   1.540
  130TIP3   OH2  334   0.776   0.313   2.789
  130TIP3    H1  335   0.772   0.237   2.731
  130TIP3    H2  336   0.692   0.357   2.776
  131TIP3   OH2  337   4.336   2.375   0.071
  131TIP3    H1  338   4.356   2.448   0.130
  131TIP3    H2  339   4.350   2.296   0.124
  132TIP3   OH2  340   3.933   4.326   5.333
  132TIP3    H1  341   3.913   4.328   5.239
  132TIP3    H2  342   4.028   4.328   5.337
  133TIP3   OH2  343   0.432   7.140   5.854
  133TIP3    H1  344   0.495   7.171   5.920
  133TIP3    H2  345   0.487   7.098   5.787
  134TIP3   OH2  346   2.428   0.891   3.658
  134TIP3    H1  347   2.436   0.898   3.563
  134TIP3    H2  348   2.405   0.980   3.686
  135TIP3   OH2  349   6.163   6.816   6.593
  135TIP3    H1  350   6.073   6.785   6.583
  135TIP3    H2  351   6.215   6.737   6.599
  136TIP3   OH2  352   1.077   3.616   1.549
  136TIP3    H1  353   1.159   3.623   1.499
  136TIP3    H2  354   1.019   3.680   1.508
  137TIP3   OH2  355   2.061   3.909   0.575
  137TIP3    H1  356   1.994   3.841   0.577
  137TIP3    H2  357   2.135   3.869   0.529
  138TIP3   OH2  358   1.029   3.457   6.123
  138TIP3    H1  359   0.953   3.401   6.139
  138TIP3    H2  360   1.027   3.520   6.195
  139TIP3   OH2  361   5.339   1.153   6.729
  139TIP3    H1  362   5.253   1.116   6.709
  139TIP3    H2  363   5.396   1.121   6.659
  140TIP3   OH2  364   1.304   7.758   1.385
  140TIP3    H1  365   1.314   7.712   1.468
  140TIP3    H2  366   1.392   7.787   1.362
  141TIP3   OH2  367   3.063   3.167   1.497
  141TIP3    H1  368   3.144   3.199   1.459
  141TIP3    H2  369   2.994   3.208   1.445
  142TIP3   OH2  370   4.425   4.893   2.534
  142TIP3    H1  371   4.340   4.853   2.549
  142TIP3    H2  372   4.412   4.952   2.460
  143TIP3   OH2  373   6.039   2.920   4.993
  143TIP3    H1  374   6.113   2.924   4.932
  143TIP3    H2  375   6.077   2.882   5.073
  144TIP3   OH2  376   1.522   6.339   1.687
  144TIP3    H1  377   1.595   6.278   1.692
  144TIP3    H2  378   1.562   6.423   1.664
  145TIP3   OH2  379   6.779   5.236   3.967
  145TIP3    H1  380   6.755   5.143   3.974
  145TIP3    H2  381   6.858   5.236   3.912
  146TIP3   OH2  382   5.601   2.990   2.178
  146TIP3    H1  383   5.514   3.029   2.184
  146TIP3    H2  384   5.658   3.061   2.148
  147TIP3   OH2  385   1.433   2.117   3.233
  147TIP3    H1  386   1.501   2.173   3.196
  147TIP3    H2  387   1.480   2.044   3.272
  148TIP3   OH2  388   6.971   3.661   3.352
  148TIP3    H1  389   6.919   3.687   3.428
  148TIP3    H2  390   7.050   3.715   3.357
  149TIP3   OH2  391   1.796   6.585   0.516
  149TIP3    H1  392   1.749   6.583   0.433
  149TIP3    H2  393   1.744   6.641   0.573
  150TIP3   OH2  394   5.037   6.189   1.609
  150TIP3    H1  395   5.125   6.173   1.644
  150TIP3    H2  396   5.038   6.148   1.523
  151TIP3   OH2  397   0.911   4.779   4.296
  151TIP3    H1  398   0.902   4.696   4.250
  151TIP3    H2  399   0.873   4.763   4.382
  152TIP3   OH2  400   2.033   6.758   6.237
  152TIP3    H1  401   1.952   6.712   6.217
  152TIP3    H2  402   2.093   6.732   6.167
  153TIP3   OH2  403   6.098   5.582   2.357
  153TIP3    H1  404   6.099   5.594   2.452
  153TIP3    H2  405   6.025   5.636   2.327
  154TIP3   OH2  406   5.189   6.912   3.794
  154TIP3    H1  407   5.218   6.905   3.885
  154TIP3    H2  408   5.270   6.926   3.745
  155TIP3   OH2  409   6.115   7.662   0.561
  155TIP3    H1  410   6.183   7.595   0.560
  155TIP3    H2  411   6.161   7.744   0.576
  156TIP3   OH2  412   1.332   4.906   3.139
  156TIP3    H1  413   1.361   4.878   3.225
  156TIP3    H2  414   1.408   4.951   3.102
  157TIP3   OH2  415   2.814   2.888   1.395
  157TIP3    H1  416   2.759   2.940   1.337
  157TIP3    H2  417   2.802   2.928   1.482
  158TIP3   OH2  418   3.709   0.131   1.157
  158TIP3    H1  419   3.751   0.184   1.224
  158TIP3    H2  420   3.701   0.044   1.197
  159TIP3   OH2  421   5.610   7.335   1.396
  159TIP3    H1  422   5.674   7.286   1.447
  159TIP3    H2  423   5.585   7.408   1.452
  160TIP3   OH2  424   3.836   3.892   1.424
  160TIP3    H1  425   3.774   3.842   1.478
  160TIP3    H2  426   3.876   3.827   1.367
  161TIP3   OH2  427   2.100   0.354   6.021
  161TIP3    H1  428   2.030   0.396   5.971
  161TIP3    H2  429   2.091   0.389   6.110
  162TIP3   OH2  430   8.249   2.989   0.834
  162TIP3    H1  431   8.286   3.055   0.775
  162TIP3    H2  432   8.292   2.907   0.808
  163TIP3   OH2  433   0.677   1.680   2.998
  163TIP3    H1  434   0.717   1.751   2.948
  163TIP3    H2  435   0.588   1.673   2.963
  164TIP3   OH2  436   7.263   5.997   0.800
  164TIP3    H1  437   7.221   6.025   0.719
  164TIP3    H2  438   7.309   6.075   0.831
  165TIP3   OH2  439   5.406   3.271   4.860
  165TIP3    H1  440   5.395   3.360   4.827
  165TIP3    H2  441   5.319   3.247   4.892
  166TIP3   OH2  442   5.956   7.631   1.056
  166TIP3    H1  443   5.900   7.554   1.058
  166TIP3    H2  444   5.966   7.651   0.963
  167TIP3   OH2  445   7.122   2.492   5.585
  167TIP3    H1  446   7.144   2.550   5.657
  167TIP3    H2  447   7.175   2.414   5.599
  168TIP3   OH2  448   7.433   4.104   1.092
  168TIP3    H1  449   7.501   4.170   1.080
  168TIP3    H2  450   7.467   4.026   1.048
  169TIP3   OH2  451   5.717   2.648   2.406
  169TIP3    H1  452   5.774   2.721   2.383
  169TIP3    H2  453   5.663   2.681   2.478
  170TIP3   OH2  454   7.698   4.029   6.328
  170TIP3    H1  455   7.679   3.989   6.413
  170TIP3    H2  456   7.624   4.088   6.312
  171TIP3   OH2  457   3.768   5.071   6.515
  171TIP3    H1  458   3.850   5.083   6.562
  171TIP3    H2  459   3.729   4.992   6.552
  172TIP3   OH2  460   5.703   2.017   2.561
  172TIP3    H1  461   5.785   2.055   2.592
  172TIP3    H2  462   5.642   2.090   2.558
  173TIP3   OH2  463   3.948   5.311   5.298
  173TIP3    H1  464   3.965   5.344   5.386
  173TIP3    H2  465   4.003   5.366   5.241
  174TIP3   OH2  466   6.427   4.895   3.948
  174TIP3    H1  467   6.371   4.817   3.951
  174TIP3    H2  468   6.439   4.920   4.039
  175TIP3   OH2  469   4.576   6.887   4.156
  175TIP3    H1  470   4.567   6.832   4.234
  175TIP3    H2  471   4.486   6.907   4.131
  176TIP3   OH2  472   4.432   4.742   4.513
  176TIP3    H1  473   4.364   4.740   4.446
  176TIP3    H2  474   4.391   4.788   4.586
  177TIP3   OH2  475   1.022   7.708   3.839
  177TIP3    H1  476   0.930   7.691   3.817
  177TIP3    H2  477   1.052   7.628   3.881
  178TIP3   OH2  478   3.816   7.538   3.463
  178TIP3    H1  479   3.795   7.608   3.401
  178TIP3    H2  480   3.836   7.463   3.408
  179TIP3   OH2  481   7.825   7.113   4.792
  179TIP3    H1  482   7.854   7.168   4.719
  179TIP3    H2  483   7.731   7.127   4.797
  180TIP3   OH2  484   0.835   1.141   4.610
  180TIP3    H1  485   0.800   1.109   4.693
  180TIP3    H2  486   0.927   1.162   4.629
  181TIP3   OH2  487   7.613   6.322   2.732
  181TIP3    H1  488   7.661   6.302   2.652
  181TIP3    H2  489   7.680   6.324   2.800
  182TIP3   OH2  490   8.264   6.864   0.677
  182TIP3    H1  491   8.281   6.893   0.587
  182TIP3    H2  492   8.173   6.835   0.676
  183TIP3   OH2  493   1.169   5.965   6.745
  183TIP3    H1  494   1.217   6.028   6.799
  183TIP3    H2  495   1.118   6.020   6.684
  184TIP3   OH2  496   7.760   7.139   1.885
  184TIP3    H1  497   7.768   7.047   1.909
  184TIP3    H2  498   7.697   7.174   1.948
  185TIP3   OH2  499   4.552   4.529   0.102
  185TIP3    H1  500   4.541   4.469   0.176
  185TIP3    H2  501   4.469   4.575   0.096
  186TIP3   OH2  502   7.159   0.013   5.601
  186TIP3    H1  503   7.100  -0.048   5.646
  186TIP3    H2  504   7.116   0.098   5.610
  187TIP3   OH2  505   2.882   6.190   4.188
  187TIP3    H1  506   2.957   6.133   4.174
  187TIP3    H2  507   2.823   6.140   4.243
  188TIP3   OH2  508   3.738   3.172   5.307
  188TIP3    H1  509   3.730   3.135   5.219
  188TIP3    H2  510   3.721   3.266   5.295
  189TIP3   OH2  511   3.488   3.529   0.680
  189TIP3    H1  512   3.521   3.469   0.613
  189TIP3    H2  513   3.422   3.479   0.728
  190TIP3   OH2  514   3.198   6.868   0.860
  190TIP3    H1  515   3.116   6.902   0.895
  190TIP3    H2  516   3.248   6.946   0.836
  191TIP3   OH2  517   7.642   4.850   0.777
  191TIP3    H1  518   7.607   4.761   0.787
  191TIP3    H2  519   7.737   4.837   0.771
  192TIP3   OH2  520   5.188   6.211   6.582
  192TIP3    H1  521   5.233   6.127   6.592
  192TIP3    H2  522   5.099   6.194   6.611
  193TIP3   OH2  523   6.695   6.061   0.518
  193TIP3    H1  524   6.714   6.016   0.436
  193TIP3    H2  525   6.602   6.084   0.511
  194TIP3   OH2  526   6.032   3.639   2.263
  194TIP3    H1  527   6.075   3.724   2.267
  194TIP3    H2  528   6.091   3.579   2.308
  195TIP3   OH2  529   6.250   7.486   0.868
  195TIP3    H1  530   6.320   7.442   0.917
  195TIP3    H2  531   6.173   7.430   0.880
  196TIP3   OH2  532   1.161   2.672   0.384
  196TIP3    H1  533   1.216   2.593   0.380
  196TIP3    H2  534   1.075   2.642   0.355
  197TIP3   OH2  535   0.904   0.272   1.481
  197TIP3    H1  536   0.930   0.271   1.573
  197TIP3    H2  537   0.852   0.352   1.472
  198TIP3   OH2  538   6.309   6.580   3.184
  198TIP3    H1  539   6.255   6.533   3.247
  198TIP3    H2  540   6.337   6.512   3.122
  199TIP3   OH2  541   4.292   2.823   0.200
  199TIP3    H1  542   4.282   2.736   0.240
  199TIP3    H2  543   4.371   2.816   0.147
  200TIP3   OH2  544   4.406   3.803   4.732
  200TIP3    H1  545   4.389   3.851   4.813
  200TIP3    H2  546   4.481   3.848   4.692
  201TIP3   OH2  547   0.090   5.212   6.160
  201TIP3    H1  548   0.143   5.133   6.154
  201TIP3    H2  549   0.000   5.182   6.149
  202TIP3   OH2  550   1.830   0.761   4.622
  202TIP3    H1  551   1.809   0.746   4.714
  202TIP3    H2  552   1.813   0.854   4.608
  203TIP3   OH2  553   0.993   6.026   2.020
  203TIP3    H1  554   0.919   5.971   2.045
  203TIP3    H2  555   1.018   5.994   1.933
  204TIP3   OH2  556   3.763   4.429   3.974
  204TIP3    H1  557   3.702   4.466   3.911
  204TIP3    H2  558   3.789   4.345   3.936
  205TIP3   OH2  559   2.109   6.218   1.917
  205TIP3    H1  560   2.150   6.260   1.993
  205TIP3    H2  561   2.040   6.164   1.954
  206TIP3   OH2  562   3.714   4.509   6.644
  206TIP3    H1  563   3.662   4.444   6.691
  206TIP3    H2  564   3.654   4.545   6.578
  207TIP3   OH2  565   3.225   5.393   6.358
  207TIP3    H1  566   3.174   5.463   6.399
  207TIP3    H2  567   3.237   5.422   6.268
  208TIP3   OH2  568   7.347   2.442   3.217
  208TIP3    H1  569   7.361   2.498   3.141
  208TIP3    H2  570   7.253   2.448   3.235
  209TIP3   OH2  571   3.119   4.174   1.907
  209TIP3    H1  572   3.033   4.135   1.923
  209TIP3    H2  573   3.125   4.244   1.972
  210TIP3   OH2  574   7.145   2.870   4.501
  210TIP3    H1  575   7.150   2.960   4.468
  210TIP3    H2  576   7.134   2.817   4.423
  211TIP3   OH2  577   7.994   3.964   0.708
  211TIP3    H1  578   8.075   3.987   0.663
  211TIP3    H2  579   7.959   4.048   0.738
  212TIP3   OH2  580   0.548   7.151   0.991
  212TIP3    H1  581   0.581   7.176   1.078
  212TIP3    H2  582   0.455   7.173   0.995
  213TIP3   OH2  583   5.276   6.041   1.958
  213TIP3    H1  584   5.234   5.997   1.884
  213TIP3    H2  585   5.247   5.993   2.035
  214TIP3   OH2  586   1.967   6.019   1.007
  214TIP3    H1  587   1.891   5.961   1.010
  214TIP3    H2  588   1.935   6.097   0.962
  215TIP3   OH2  589   7.798   5.702   2.219
  215TIP3    H1  590   7.773   5.735   2.305
  215TIP3    H2  591   7.762   5.613   2.216
  216TIP3   OH2  592   1.946   3.848   3.356
  216TIP3    H1  593   2.028   3.801   3.336
  216TIP3    H2  594   1.975   3.928   3.399
  217TIP3   OH2  595   1.257   6.207   5.041
  217TIP3    H1  596   1.268   6.291   5.086
  217TIP3    H2  597   1.167   6.182   5.059
  218TIP3   OH2  598   8.338   2.294   2.527
  218TIP3    H1  599   8.292   2.247   2.597
  218TIP3    H2  600   8.393   2.227   2.485
  219TIP3   OH2  601   3.078   4.218   2.620
  219TIP3    H1  602   3.172   4.214   2.638
  219TIP3    H2  603   3.057   4.134   2.579
  220TIP3   OH2  604   2.327   4.305   1.745
  220TIP3    H1  605   2.347   4.398   1.753
  220TIP3    H2  606   2.407   4.265   1.712
  221TIP3   OH2  607   6.903   1.229   1.190
  221TIP3    H1  608   6.987   1.270   1.211
  221TIP3    H2  609   6.839   1.299   1.199
  222TIP3   OH2  610   7.227   7.757   4.999
  222TIP3    H1  611   7.260   7.685   4.945
  222TIP3    H2  612   7.185   7.817   4.936
  223TIP3   OH2  613   6.487   7.792   4.805
  223TIP3    H1  614   6.566   7.822   4.760
  223TIP3    H2  615   6.475   7.702   4.775
  224TIP3   OH2  616   6.897   0.609   0.402
  224TIP3    H1  617   6.859   0.540   0.457
  224TIP3    H2  618   6.827   0.633   0.342
  225TIP3   OH2  619   4.924   2.095   3.652
  225TIP3    H1  620   4.889   2.020   3.605
  225TIP3    H2  621   4.853   2.124   3.709
  226TIP3   OH2  622   2.039   7.192   4.926
  226TIP3    H1  623   1.989   7.114   4.901
  226TIP3    H2  624   2.094   7.210   4.850
  227TIP3   OH2  625   2.440   2.075   1.303
  227TIP3    H1  626   2.409   2.131   1.375
  227TIP3    H2  627   2.425   2.128   1.224
  228TIP3   OH2  628   0.990   7.742   4.314
  228TIP3    H1  629   0.920   7.807   4.309
  228TIP3    H2  630   1.040   7.754   4.234
  229TIP3   OH2  631   8.219   2.340   3.888
  229TIP3    H1  632   8.253   2.402   3.952
  229TIP3    H2  633   8.147   2.386   3.845
  230TIP3   OH2  634   7.304   3.137   1.502
  230TIP3    H1  635   7.310   3.102   1.413
  230TIP3    H2  636   7.221   3.184   1.504
  231TIP3   OH2  637   5.249   4.825   4.957
  231TIP3    H1  638   5.271   4.852   4.868
  231TIP3    H2  639   5.156   4.801   4.953
  232TIP3   OH2  640   3.225   3.725   2.678
  232TIP3    H1  641   3.287   3.675   2.731
  232TIP3    H2  642   3.251   3.707   2.588
  233TIP3   OH2  643   3.072   2.985   6.203
  233TIP3    H1  644   3.167   2.980   6.211
  233TIP3    H2  645   3.042   2.896   6.218
  234TIP3   OH2  646   3.617   0.643   4.581
  234TIP3    H1  647   3.673   0.707   4.624
  234TIP3    H2  648   3.654   0.558   4.604
  235TIP3   OH2  649   3.427   1.887   1.132
  235TIP3    H1  650   3.458   1.965   1.086
  235TIP3    H2  651   3.433   1.909   1.225
  236TIP3   OH2  652   5.053   3.335   3.421
  236TIP3    H1  653   4.995   3.289   3.362
  236TIP3    H2  654   5.133   3.283   3.422
  237TIP3   OH2  655   5.007   5.957   4.505
  237TIP3    H1  656   4.960   5.905   4.440
  237TIP3    H2  657   4.971   6.045   4.495
  238TIP3   OH2  658   2.365   5.154   3.459
  238TIP3    H1  659   2.417   5.212   3.403
  238TIP3    H2  660   2.310   5.105   3.398
  239TIP3   OH2  661   5.549   7.111   3.594
  239TIP3    H1  662   5.499   7.144   3.669
  239TIP3    H2  663   5.640   7.114   3.624
  240TIP3   OH2  664   2.910   3.163   5.253
  240TIP3    H1  665   2.933   3.110   5.176
  240TIP3    H2  666   2.815   3.154   5.261
  241TIP3   OH2  667   0.020   5.598   0.393
  241TIP3    H1  668   0.070   5.599   0.311
  241TIP3    H2  669   0.065   5.662   0.449
  242TIP3   OH2  670   4.731   7.768   3.164
  242TIP3    H1  671   4.708   7.706   3.094
  242TIP3    H2  672   4.650   7.777   3.214
  243TIP3   OH2  673   4.020   7.266   0.585
  243TIP3    H1  674   3.954   7.276   0.516
  243TIP3    H2  675   3.972   7.282   0.666
  244TIP3   OH2  676   2.171   1.948   1.213
  244TIP3    H1  677   2.178   1.873   1.155
  244TIP3    H2  678   2.250   2.000   1.195
  245TIP3   OH2  679   5.336   6.594   0.658
  245TIP3    H1  680   5.294   6.654   0.597
  245TIP3    H2  681   5.373   6.525   0.601
  246TIP3   OH2  682   6.324   5.916   5.097
  246TIP3    H1  683   6.342   5.895   5.189
  246TIP3    H2  684   6.251   5.979   5.101
  247TIP3   OH2  685   8.232   1.689   0.532
  247TIP3    H1  686   8.238   1.602   0.571
  247TIP3    H2  687   8.313   1.732   0.559
  248TIP3   OH2  688   2.415   1.938   2.477
  248TIP3    H1  689   2.392   2.012   2.420
  248TIP3    H2  690   2.485   1.893   2.430
  249TIP3   OH2  691   1.409   1.816   4.590
  249TIP3    H1  692   1.451   1.823   4.676
  249TIP3    H2  693   1.319   1.845   4.605
  250TIP3   OH2  694   3.374   1.723   6.465
  250TIP3    H1  695   3.374   1.728   6.369
  250TIP3    H2  696   3.448   1.778   6.491
  251TIP3   OH2  697   1.828   3.209   4.349
  251TIP3    H1  698   1.801   3.199   4.440
  251TIP3    H2  699   1.810   3.301   4.329
  252TIP3   OH2  700   8.282   4.446   2.332
  252TIP3    H1  701   8.210   4.465   2.391
  252TIP3    H2  702   8.350   4.509   2.355
  253TIP3   OH2  703   1.561   4.108   0.366
  253TIP3    H1  704   1.600   4.036   0.316
  253TIP3    H2  705   1.519   4.065   0.441
  254TIP3   OH2  706   3.445   4.488   5.532
  254TIP3    H1  707   3.527   4.492   5.581
  254TIP3    H2  708   3.466   4.527   5.447
  255TIP3   OH2  709   5.578   1.165   3.248
  255TIP3    H1  710   5.531   1.217   3.183
  255TIP3    H2  711   5.652   1.220   3.275
  256TIP3   OH2  712   5.660   5.021   2.614
  256TIP3    H1  713   5.709   4.943   2.636
  256TIP3    H2  714   5.704   5.056   2.536
  257TIP3   OH2  715   2.190   1.266   2.005
  257TIP3    H1  716   2.106   1.233   1.973
  257TIP3    H2  717   2.253   1.197   1.981
  258TIP3   OH2  718   7.677   7.475   5.956
  258TIP3    H1  719   7.770   7.476   5.981
  258TIP3    H2  720   7.679   7.477   5.860
  259TIP3   OH2  721   4.744   7.617   6.054
  259TIP3    H1  722   4.836   7.593   6.036
  259TIP3    H2  723   4.746   7.653   6.142
  260TIP3   OH2  724   6.147   6.242   0.192
  260TIP3    H1  725   6.176   6.190   0.117
  260TIP3    H2  726   6.110   6.178   0.253
  261TIP3   OH2  727   7.086   4.004   5.400
  261TIP3    H1  728   7.150   3.970   5.463
  261TIP3    H2  729   7.092   4.099   5.408
  262TIP3   OH2  730   3.100   4.639   0.126
  262TIP3    H1  731   3.061   4.712   0.078
  262TIP3    H2  732   3.157   4.681   0.191
  263TIP3   OH2  733   5.107   1.336   2.203
  263TIP3    H1  734   5.149   1.319   2.287
  263TIP3    H2  735   5.112   1.431   2.191
  264TIP3   OH2  736   6.410   6.163   0.343
  264TIP3    H1  737   6.367   6.238   0.383
  264TIP3    H2  738   6.428   6.104   0.416
  265TIP3   OH2  739   2.174   7.629   5.932
  265TIP3    H1  740   2.228   7.708   5.928
  265TIP3    H2  741   2.158   7.616   6.026
  266TIP3   OH2  742   4.191   4.633   1.900
  266TIP3    H1  743   4.136   4.609   1.825
  266TIP3    H2  744   4.279   4.605   1.875
  267TIP3   OH2  745   0.067   0.427   3.205
  267TIP3    H1  746   0.126   0.418   3.280
  267TIP3    H2  747  -0.021   0.428   3.244
  268TIP3   OH2  748   6.595   3.532   4.059
  268TIP3    H1  749   6.577   3.535   4.153
  268TIP3    H2  750   6.555   3.450   4.030
  269TIP3   OH2  751   6.477   6.849   3.489
  269TIP3    H1  752   6.501   6.940   3.505
  269TIP3    H2  753   6.497   6.804   3.571
  270TIP3   OH2  754   7.348   3.160   4.076
  270TIP3    H1  755   7.329   3.079   4.123
  270TIP3    H2  756   7.427   3.141   4.026
  271TIP3   OH2  757   1.979   7.028   6.172
  271TIP3    H1  758   1.919   7.065   6.237
  271TIP3    H2  759   1.995   6.939   6.201
  272TIP3   OH2  760   6.501   0.873   6.747
  272TIP3    H1  761   6.471   0.874   6.656
  272TIP3    H2  762   6.595   0.855   6.741
  273TIP3   OH2  763   2.821   6.095   4.731
  273TIP3    H1  764   2.751   6.144   4.775
  273TIP3    H2  765   2.880   6.069   4.802
  274TIP3   OH2  766   6.804   2.073   4.589
  274TIP3    H1  767   6.719   2.069   4.632
  274TIP3    H2  768   6.812   1.989   4.544
  275TIP3   OH2  769   4.819   6.199   5.625
  275TIP3    H1  770   4.734   6.188   5.584
  275TIP3    H2  771   4.865   6.262   5.570
  276TIP3   OH2  772   4.777   5.826   4.007
  276TIP3    H1  773   4.835   5.760   3.969
  276TIP3    H2  774   4.725   5.857   3.933
  277TIP3   OH2  775   3.843   1.522   6.311
  277TIP3    H1  776   3.905   1.504   6.240
  277TIP3    H2  777   3.774   1.456   6.299
  278TIP3   OH2  778   7.936   6.511   2.091
  278TIP3    H1  779   7.926   6.509   2.186
  278TIP3    H2  780   8.009   6.452   2.073
  279TIP3   OH2  781   6.693   7.079   5.770
  279TIP3    H1  782   6.601   7.056   5.754
  279TIP3    H2  783   6.729   7.002   5.815
  280TIP3   OH2  784   3.629   6.372   3.366
  280TIP3    H1  785   3.690   6.418   3.309
  280TIP3    H2  786   3.671   6.288   3.383
  281TIP3   OH2  787   4.099   0.979   4.842
  281TIP3    H1  788   4.015   1.024   4.847
  281TIP3    H2  789   4.164   1.046   4.862
  282TIP3   OH2  790   1.721   0.930   0.813
  282TIP3    H1  791   1.751   1.015   0.846
  282TIP3    H2  792   1.655   0.902   0.876
  283TIP3   OH2  793   4.657   3.977   2.196
  283TIP3    H1  794   4.627   3.958   2.284
  283TIP3    H2  795   4.582   3.957   2.140
  284TIP3   OH2  796   2.329   1.600   5.549
  284TIP3    H1  797   2.275   1.606   5.471
  284TIP3    H2  798   2.361   1.510   5.550
  285TIP3   OH2  799   2.505   7.527   5.310
  285TIP3    H1  800   2.596   7.499   5.317
  285TIP3    H2  801   2.476   7.539   5.401
  286TIP3   OH2  802   2.686   1.695   4.526
  286TIP3    H1  803   2.757   1.759   4.522
  286TIP3    H2  804   2.622   1.734   4.586
  287TIP3   OH2  805   2.939   0.494   5.258
  287TIP3    H1  806   3.012   0.501   5.320
  287TIP3    H2  807   2.981   0.473   5.174
  288TIP3   OH2  808   4.996   6.761   1.623
  288TIP3    H1  809   5.039   6.846   1.612
  288TIP3    H2  810   5.066   6.701   1.649
  289TIP3   OH2  811   1.667   6.266   5.897
  289TIP3    H1  812   1.675   6.177   5.862
  289TIP3    H2  813   1.580   6.296   5.868
  290TIP3   OH2  814   7.899   2.464   2.622
  290TIP3    H1  815   7.877   2.528   2.554
  290TIP3    H2  816   7.814   2.427   2.647
  291TIP3   OH2  817   8.275   5.245   3.279
  291TIP3    H1  818   8.261   5.158   3.242
  291TIP3    H2  819   8.187   5.278   3.298
  292TIP3   OH2  820   3.584   4.269   6.767
  292TIP3    H1  821   3.524   4.244   6.837
  292TIP3    H2  822   3.569   4.205   6.698
  293TIP3   OH2  823   7.292   2.768   5.080
  293TIP3    H1  824   7.359   2.747   5.016
  293TIP3    H2  825   7.213   2.784   5.028
  294TIP3   OH2  826   5.722   0.378   4.191
  294TIP3    H1  827   5.744   0.298   4.143
  294TIP3    H2  828   5.729   0.448   4.126
  295TIP3   OH2  829   2.533   6.449   3.289
  295TIP3    H1  830   2.628   6.449   3.298
  295TIP3    H2  831   2.500   6.416   3.373
  296TIP3   OH2  832   4.703   2.867   1.563
  296TIP3    H1  833   4.741   2.851   1.477
  296TIP3    H2  834   4.767   2.923   1.608
  297TIP3   OH2  835   6.737   6.814   0.387
  297TIP3    H1  836   6.729   6.736   0.442
  297TIP3    H2  837   6.822   6.804   0.343
  298TIP3   OH2  838   0.863   1.937   2.155
  298TIP3    H1  839   0.896   1.918   2.243
  298TIP3    H2  840   0.889   1.861   2.103
  299TIP3   OH2  841   7.360   4.707   4.054
  299TIP3    H1  842   7.371   4.740   3.964
  299TIP3    H2  843   7.296   4.767   4.093
  300TIP3   OH2  844   2.755   3.396   0.301
  300TIP3    H1  845   2.734   3.355   0.217
  300TIP3    H2  846   2.751   3.490   0.284
  301TIP3   OH2  847   7.750   4.697   6.711
  301TIP3    H1  848   7.708   4.725   6.792
  301TIP3    H2  849   7.741   4.601   6.712
  302TIP3   OH2  850   4.689   4.426   1.679
  302TIP3    H1  851   4.712   4.487   1.609
  302TIP3    H2  852   4.749   4.449   1.750
  303TIP3   OH2  853   4.619   3.418   4.206
  303TIP3    H1  854   4.609   3.364   4.285
  303TIP3    H2  855   4.530   3.448   4.187
  304TIP3   OH2  856   5.645   5.580   4.489
  304TIP3    H1  857   5.728   5.532   4.489
  304TIP3    H2  858   5.670   5.671   4.505
  305TIP3   OH2  859   1.346   5.606   3.830
  305TIP3    H1  860   1.440   5.620   3.835
  305TIP3    H2  861   1.326   5.545   3.901
  306TIP3   OH2  862   2.595   3.422   5.264
  306TIP3    H1  863   2.539   3.498   5.249
  306TIP3    H2  864   2.662   3.429   5.195
  307TIP3   OH2  865   1.808   6.314   6.117
  307TIP3    H1  866   1.895   6.276   6.113
  307TIP3    H2  867   1.771   6.301   6.030
  308TIP3   OH2  868   7.790   0.063   5.620
  308TIP3    H1  869   7.809   0.101   5.535
  308TIP3    H2  870   7.796  -0.031   5.607
  309TIP3   OH2  871   2.914   4.634   4.266
  309TIP3    H1  872   2.889   4.620   4.175
  309TIP3    H2  873   2.908   4.548   4.306
  310TIP3   OH2  874   1.247   7.458   2.786
  310TIP3    H1  875   1.268   7.391   2.720
  310TIP3    H2  876   1.332   7.495   2.809
  311TIP3   OH2  877   3.278   1.797   0.796
  311TIP3    H1  878   3.277   1.749   0.879
  311TIP3    H2  879   3.256   1.731   0.730
  312TIP3   OH2  880   7.224   4.583   3.099
  312TIP3    H1  881   7.254   4.587   3.190
  312TIP3    H2  882   7.132   4.555   3.105
  313TIP3   OH2  883   3.110   1.752   2.270
  313TIP3    H1  884   3.022   1.717   2.284
  313TIP3    H2  885   3.167   1.695   2.322
  314TIP3   OH2  886   7.900   7.194   1.188
  314TIP3    H1  887   7.922   7.152   1.271
  314TIP3    H2  888   7.908   7.287   1.205
  315TIP3   OH2  889   6.983   5.979   5.411
  315TIP3    H1  890   7.070   5.988   5.374
  315TIP3    H2  891   6.991   6.013   5.500
  316TIP3   OH2  892   5.962   3.934   4.344
  316TIP3    H1  893   6.006   3.853   4.318
  316TIP3    H2  894   5.871   3.909   4.357
  317TIP3   OH2  895   0.878   5.921   5.748
  317TIP3    H1  896   0.880   5.826   5.758
  317TIP3    H2  897   0.804   5.949   5.802
  318TIP3   OH2  898   0.774   4.424   5.965
  318TIP3    H1  899   0.836   4.371   6.015
  318TIP3    H2  900   0.723   4.361   5.915
  319TIP3   OH2  901   7.372   1.756   5.181
  319TIP3    H1  902   7.443   1.750   5.117
  319TIP3    H2  903   7.416   1.745   5.266
  320TIP3   OH2  904   4.188   1.072   0.538
  320TIP3    H1  905   4.148   1.151   0.500
  320TIP3    H2  906   4.114   1.024   0.576
  321TIP3   OH2  907   6.322   0.356   3.775
  321TIP3    H1  908   6.246   0.379   3.721
  321TIP3    H2  909   6.296   0.275   3.819
  322TIP3   OH2  910   5.067   0.125   2.391
  322TIP3    H1  911   5.015   0.093   2.317
  322TIP3    H2  912   5.041   0.069   2.465
  323TIP3   OH2  913   5.241   0.962   1.500
  323TIP3    H1  914   5.219   0.983   1.590
  323TIP3    H2  915   5.185   0.887   1.478
  324TIP3   OH2  916   5.012   3.471   2.052
  324TIP3    H1  917   4.945   3.437   1.993
  324TIP3    H2  918   4.978   3.557   2.080
  325TIP3   OH2  919   7.275   1.248   5.210
  325TIP3    H1  920   7.199   1.193   5.228
  325TIP3    H2  921   7.239   1.329   5.176
  326TIP3   OH2  922   7.284   7.290   5.131
  326TIP3    H1  923   7.358   7.351   5.137
  326TIP3    H2  924   7.318   7.207   5.163
  327TIP3   OH2  925   0.500   0.484   0.134
  327TIP3    H1  926   0.573   0.435   0.173
  327TIP3    H2  927   0.506   0.467   0.040
  328TIP3   OH2  928   1.989   0.702   1.429
  328TIP3    H1  929   2.019   0.641   1.495
  328TIP3    H2  930   1.894   0.691   1.428
  329TIP3   OH2  931   6.486   7.259   5.498
  329TIP3    H1  932   6.560   7.316   5.520
  329TIP3    H2  933   6.487   7.192   5.567
  330TIP3   OH2  934   5.010   6.061   5.960
  330TIP3    H1  935   4.938   6.124   5.959
  330TIP3    H2  936   4.992   6.005   6.036
  331TIP3   OH2  937   1.204   5.146   3.283
  331TIP3    H1  938   1.228   5.065   3.239
  331TIP3    H2  939   1.279   5.166   3.340
  332TIP3   OH2  940   3.008   2.306   3.344
  332TIP3    H1  941   2.952   2.367   3.296
  332TIP3    H2  942   3.009   2.339   3.434
  333TIP3   OH2  943   5.896   1.952   4.001
  333TIP3    H1  944   5.930   2.008   3.931
  333TIP3    H2  945   5.901   2.006   4.080
  334TIP3   OH2  946   4.083   3.773   0.985
  334TIP3    H1  947   4.070   3.775   0.891
  334TIP3    H2  948   4.157   3.832   1.000
  335TIP3   OH2  949   2.352   4.338   5.018
  335TIP3    H1  950   2.407   4.370   5.090
  335TIP3    H2  951   2.309   4.260   5.053
  336TIP3   OH2  952   0.394   5.025   1.081
  336TIP3    H1  953   0.364   4.998   0.994
  336TIP3    H2  954   0.373   4.950   1.137
  337TIP3   OH2  955   1.318   7.570   3.205
  337TIP3    H1  956   1.318   7.657   3.246
  337TIP3    H2  957   1.256   7.519   3.258
  338TIP3   OH2  958   5.234   2.050   0.370
  338TIP3    H1  959   5.168   1.999   0.417
  338TIP3    H2  960   5.262   1.992   0.299
  339TIP3   OH2  961   6.510   3.078   4.581
  339TIP3    H1  962   6.570   3.122   4.521
  339TIP3    H2  963   6.448   3.033   4.525
  340TIP3   OH2  964   5.012   5.867   3.480
  340TIP3    H1  965   5.094   5.837   3.519
  340TIP3    H2  966   5.039   5.921   3.406
  341TIP3   OH2  967   5.808   5.064   0.693
  341TIP3    H1  968   5.792   5.121   0.768
  341TIP3    H2  969   5.744   4.994   0.703
  342TIP3   OH2  970   4.720   7.170   1.203
  342TIP3    H1  971   4.744   7.077   1.199
  342TIP3    H2  972   4.703   7.186   1.296
  343TIP3   OH2  973   3.646   3.251   0.119
  343TIP3    H1  974   3.623   3.288   0.034
  343TIP3    H2  975   3.740   3.263   0.126
  344TIP3   OH2  976   1.626   5.697   2.740
  344TIP3    H1  977   1.584   5.611   2.740
  344TIP3    H2  978   1.675   5.699   2.658
  345TIP3   OH2  979   0.846   5.962   6.723
  345TIP3    H1  980   0.870   5.916   6.802
  345TIP3    H2  981   0.776   6.022   6.750
  346TIP3   OH2  982   8.085   7.659   6.433
  346TIP3    H1  983   8.096   7.677   6.527
  346TIP3    H2  984   7.990   7.659   6.420
  347TIP3   OH2  985   1.925   3.692   4.039
  347TIP3    H1  986   1.968   3.704   4.123
  347TIP3    H2  987   1.831   3.697   4.059
  348TIP3   OH2  988   3.549   5.082   2.130
  348TIP3    H1  989   3.488   5.155   2.117
  348TIP3    H2  990   3.635   5.121   2.119
  349TIP3   OH2  991   5.523   1.302   3.560
  349TIP3    H1  992   5.496   1.310   3.652
  349TIP3    H2  993   5.572   1.219   3.557
  350TIP3   OH2  994   4.427   6.197   3.400
  350TIP3    H1  995   4.482   6.121   3.416
  350TIP3    H2  996   4.350   6.162   3.356
  351TIP3   OH2  997   5.870   6.831   2.968
  351TIP3    H1  998   5.964   6.815   2.964
  351TIP3    H2  999   5.855   6.862   3.058
  352TIP3   OH2 1000   2.212   2.376   2.532
  352TIP3    H1 1001   2.245   2.458   2.496
  352TIP3    H2 1002   2.245   2.309   2.473
  353TIP3   OH2 1003   6.962   5.219   5.616
  353TIP3    H1 1004   7.003   5.304   5.631
  353TIP3    H2 1005   7.033   5.156   5.629
  354TIP3   OH2 1006   7.494   2.518   4.472
  354TIP3    H1 1007   7.452   2.502   4.388
  354TIP3    H2 1008   7.532   2.606   4.463
  355TIP3   OH2 1009   0.375   6.825   4.332
  355TIP3    H1 1010   0.403   6.864   4.250
  355TIP3    H2 1011   0.338   6.740   4.307
  356TIP3   OH2 1012   0.928   0.476   1.247
  356TIP3    H1 1013   0.959   0.385   1.242
  356TIP3    H2 1014   0.863   0.474   1.317
  357TIP3   OH2 1015   1.221   5.864   1.145
  357TIP3    H1 1016   1.199   5.948   1.185
  357TIP3    H2 1017   1.154   5.850   1.078
  358TIP3   OH2 1018   0.163   4.179   6.682
  358TIP3    H1 1019   0.229   4.238   6.717
  358TIP3    H2 1020   0.209   4.098   6.665
  359TIP3   OH2 1021   4.549   7.502   3.851
  359TIP3    H1 1022   4.459   7.488   3.881
  359TIP3    H2 1023   4.540   7.528   3.760
  360TIP3   OH2 1024   4.935   0.334   3.258
  360TIP3    H1 1025   5.001   0.265   3.259
  360TIP3    H2 1026   4.942   0.373   3.171
  361TIP3   OH2 1027   2.038   4.746   2.724
  361TIP3    H1 1028   1.993   4.663   2.709
  361TIP3    H2 1029   2.080   4.735   2.810
  362TIP3   OH2 1030   2.544   4.451   1.851
  362TIP3    H1 1031   2.553   4.464   1.945
  362TIP3    H2 1032   2.522   4.538   1.816
  363TIP3   OH2 1033   2.884   0.986   1.673
  363TIP3    H1 1034   2.941   1.057   1.703
  363TIP3    H2 1035   2.812   0.986   1.735
  364TIP3   OH2 1036   5.930   4.537   2.926
  364TIP3    H1 1037   5.948   4.489   2.846
  364TIP3    H2 1038   5.958   4.627   2.908
  365TIP3   OH2 1039   7.241   6.561   3.274
  365TIP3    H1 1040   7.332   6.542   3.251
  365TIP3    H2 1041   7.228   6.651   3.246
  366TIP3   OH2 1042   1.663   7.717   4.330
  366TIP3    H1 1043   1.640   7.682   4.416
  366TIP3    H2 1044   1.739   7.773   4.346
  367TIP3   OH2 1045   3.206   6.429   5.816
  367TIP3    H1 1046   3.163   6.460   5.736
  367TIP3    H2 1047   3.186   6.336   5.820
  368TIP3   OH2 1048   8.059   2.235   0.730
  368TIP3    H1 1049   8.116   2.180   0.783
  368TIP3    H2 1050   7.982   2.249   0.785
  369TIP3   OH2 1051   1.161   3.486   0.754
  369TIP3    H1 1052   1.223   3.458   0.686
  369TIP3    H2 1053   1.164   3.416   0.819
  370TIP3   OH2 1054   1.321   5.572   3.520
  370TIP3    H1 1055   1.306   5.556   3.613
  370TIP3    H2 1056   1.245   5.622   3.491
  371TIP3   OH2 1057   7.634   3.960   2.318
  371TIP3    H1 1058   7.672   4.037   2.361
  371TIP3    H2 1059   7.621   3.897   2.389
  372TIP3   OH2 1060   2.299   0.540   4.576
  372TIP3    H1 1061   2.246   0.599   4.629
  372TIP3    H2 1062   2.389   0.571   4.590
  373TIP3   OH2 1063   7.447   5.193   0.235
  373TIP3    H1 1064   7.427   5.175   0.144
  373TIP3    H2 1065   7.471   5.286   0.236
  374TIP3   OH2 1066   6.025   3.586   5.730
  374TIP3    H1 1067   5.965   3.534   5.784
  374TIP3    H2 1068   6.067   3.646   5.792
  375TIP3   OH2 1069   5.577   0.852   6.655
  375TIP3    H1 1070   5.557   0.903   6.734
  375TIP3    H2 1071   5.561   0.913   6.583
  376TIP3   OH2 1072   8.305   1.698   5.269
  376TIP3    H1 1073   8.371   1.634   5.297
  376TIP3    H2 1074   8.269   1.660   5.189
  377TIP3   OH2 1075   2.206   6.552   3.436
  377TIP3    H1 1076   2.204   6.459   3.455
  377TIP3    H2 1077   2.245   6.592   3.514
  378TIP3   OH2 1078   3.261   0.972   1.450
  378TIP3    H1 1079   3.326   0.946   1.515
  378TIP3    H2 1080   3.288   1.059   1.422
  379TIP3   OH2 1081   0.446   1.454   2.308
  379TIP3    H1 1082   0.429   1.518   2.239
  379TIP3    H2 1083   0.532   1.478   2.342
  380TIP3   OH2 1084   1.170   7.310   4.686
  380TIP3    H1 1085   1.109   7.362   4.739
  380TIP3    H2 1086   1.213   7.252   4.749
  381TIP3   OH2 1087   0.239   4.564   4.606
  381TIP3    H1 1088   0.321   4.554   4.558
  381TIP3    H2 1089   0.235   4.489   4.664
  382TIP3   OH2 1090   5.829   3.897   2.741
  382TIP3    H1 1091   5.747   3.871   2.700
  382TIP3    H2 1092   5.897   3.868   2.680
  383TIP3   OH2 1093   2.858   3.977   6.140
  383TIP3    H1 1094   2.860   4.047   6.074
  383TIP3    H2 1095   2.837   3.898   6.091
  384TIP3   OH2 1096   5.982   4.784   4.427
  384TIP3    H1 1097   5.996   4.812   4.517
  384TIP3    H2 1098   6.069   4.777   4.389
  385TIP3   OH2 1099   7.709   0.551   6.641
  385TIP3    H1 1100   7.621   0.524   6.614
  385TIP3    H2 1101   7.694   0.612   6.713
  386TIP3   OH2 1102   4.749   2.430   1.047
  386TIP3    H1 1103   4.695   2.375   0.990
  386TIP3    H2 1104   4.836   2.391   1.042
  387TIP3   OH2 1105   5.186   7.426   1.558
  387TIP3    H1 1106   5.228   7.511   1.547
  387TIP3    H2 1107   5.216   7.395   1.643
  388TIP3   OH2 1108   6.002   5.089   3.215
  388TIP3    H1 1109   6.084   5.100   3.263
  388TIP3    H2 1110   5.936   5.073   3.282
  389TIP3   OH2 1111   6.462   6.070   0.091
  389TIP3    H1 1112   6.445   6.127   0.166
  389TIP3    H2 1113   6.472   5.983   0.129
  390TIP3   OH2 1114   7.809   6.001   4.922
  390TIP3    H1 1115   7.790   6.017   5.015
  390TIP3    H2 1116   7.778   6.080   4.878
  391TIP3   OH2 1117   3.169   3.189   5.398
  391TIP3    H1 1118   3.152   3.189   5.493
  391TIP3    H2 1119   3.101   3.133   5.362
  392TIP3   OH2 1120   1.208   2.411   1.574
  392TIP3    H1 1121   1.204   2.387   1.667
  392TIP3    H2 1122   1.253   2.495   1.573
  393TIP3   OH2 1123   3.071   1.513   4.074
  393TIP3    H1 1124   3.099   1.441   4.130
  393TIP3    H2 1125   3.140   1.579   4.084
  394TIP3   OH2 1126   6.441   6.884   5.290
  394TIP3    H1 1127   6.434   6.844   5.376
  394TIP3    H2 1128   6.400   6.970   5.300
  395TIP3   OH2 1129   3.064   4.236   0.668
  395TIP3    H1 1130   3.111   4.168   0.716
  395TIP3    H2 1131   3.122   4.258   0.595
  396TIP3   OH2 1132   8.261   0.755   3.116
  396TIP3    H1 1133   8.329   0.776   3.180
  396TIP3    H2 1134   8.186   0.728   3.168
  397TIP3   OH2 1135   2.723   6.060   3.965
  397TIP3    H1 1136   2.765   6.114   4.032
  397TIP3    H2 1137   2.644   6.026   4.006
  398TIP3   OH2 1138   6.371   2.034   3.862
  398TIP3    H1 1139   6.448   2.064   3.909
  398TIP3    H2 1140   6.310   2.008   3.931
  399TIP3   OH2 1141   2.198   6.528   2.031
  399TIP3    H1 1142   2.201   6.453   2.092
  399TIP3    H2 1143   2.116   6.573   2.053
  400TIP3   OH2 1144   6.286   6.092   1.716
  400TIP3    H1 1145   6.319   6.172   1.757
  400TIP3    H2 1146   6.307   6.102   1.623
  401TIP3   OH2 1147   2.759   0.190   5.238
  401TIP3    H1 1148   2.677   0.196   5.288
  401TIP3    H2 1149   2.731   0.193   5.146
  402TIP3   OH2 1150   5.715   4.829   6.688
  402TIP3    H1 1151   5.706   4.924   6.694
  402TIP3    H2 1152   5.655   4.795   6.754
  403TIP3   OH2 1153   0.379   6.182   3.565
  403TIP3    H1 1154   0.310   6.197   3.629
  403TIP3    H2 1155   0.384   6.087   3.556
  404TIP3   OH2 1156   5.083   3.859   4.004
  404TIP3    H1 1157   5.137   3.845   3.926
  404TIP3    H2 1158   5.146   3.881   4.073
  405TIP3   OH2 1159   1.334   6.032   1.736
  405TIP3    H1 1160   1.275   6.107   1.727
  405TIP3    H2 1161   1.338   5.995   1.648
  406TIP3   OH2 1162   6.394   3.553   3.773
  406TIP3    H1 1163   6.302   3.569   3.755
  406TIP3    H2 1164   6.441   3.596   3.701
  407TIP3   OH2 1165   4.971   6.482   5.523
  407TIP3    H1 1166   5.057   6.453   5.552
  407TIP3    H2 1167   4.984   6.505   5.431
  408TIP3   OH2 1168   3.797   1.672   2.641
  408TIP3    H1 1169   3.817   1.595   2.586
  408TIP3    H2 1170   3.732   1.720   2.590
  409TIP3   OH2 1171   3.718   7.087   6.182
  409TIP3    H1 1172   3.786   7.147   6.212
  409TIP3    H2 1173   3.758   7.040   6.109
  410TIP3   OH2 1174   5.368   0.959   3.135
  410TIP3    H1 1175   5.434   1.028   3.129
  410TIP3    H2 1176   5.295   0.991   3.082
  411TIP3   OH2 1177   5.244   4.094   2.139
  411TIP3    H1 1178   5.283   4.010   2.119
  411TIP3    H2 1179   5.191   4.078   2.217
  412TIP3   OH2 1180   3.951   7.535   6.499
  412TIP3    H1 1181   3.995   7.555   6.416
  412TIP3    H2 1182   3.894   7.461   6.479
  413TIP3   OH2 1183   4.234   0.514   2.757
  413TIP3    H1 1184   4.189   0.432   2.777
  413TIP3    H2 1185   4.305   0.519   2.821
  414TIP3   OH2 1186   2.908   5.121   0.369
  414TIP3    H1 1187   2.823   5.149   0.333
  414TIP3    H2 1188   2.885   5.069   0.446
  415TIP3   OH2 1189   2.468   2.923   5.960
  415TIP3    H1 1190   2.425   2.986   6.018
  415TIP3    H2 1191   2.397   2.877   5.916
  416TIP3   OH2 1192   4.632   1.819   4.551
  416TIP3    H1 1193   4.555   1.855   4.595
  416TIP3    H2 1194   4.602   1.803   4.461
  417TIP3   OH2 1195   3.376   0.357   0.209
  417TIP3    H1 1196   3.357   0.438   0.257
  417TIP3    H2 1197   3.395   0.292   0.277
  418TIP3   OH2 1198   6.719   2.945   3.437
  418TIP3    H1 1199   6.636   2.975   3.474
  418TIP3    H2 1200   6.742   3.011   3.372
  419TIP3   OH2 1201   7.421   6.905   1.966
  419TIP3    H1 1202   7.426   6.978   2.028
  419TIP3    H2 1203   7.354   6.932   1.902
  420TIP3   OH2 1204   6.348   2.543   1.142
  420TIP3    H1 1205   6.266   2.565   1.186
  420TIP3    H2 1206   6.407   2.615   1.164
  421TIP3   OH2 1207   0.058   1.857   0.721
  421TIP3    H1 1208   0.023   1.944   0.741
  421TIP3    H2 1209   0.044   1.807   0.802
  422TIP3   OH2 1210   6.616   4.564   1.292
  422TIP3    H1 1211   6.541   4.510   1.319
  422TIP3    H2 1212   6.580   4.652   1.285
  423TIP3   OH2 1213   3.168   3.986   0.779
  423TIP3    H1 1214   3.170   3.891   0.785
  423TIP3    H2 1215   3.130   4.015   0.862
  424TIP3   OH2 1216   6.597   6.489   5.736
  424TIP3    H1 1217   6.504   6.474   5.719
  424TIP3    H2 1218   6.611   6.450   5.823
  425TIP3   OH2 1219   8.029   5.090   6.457
  425TIP3    H1 1220   8.107   5.075   6.511
  425TIP3    H2 1221   7.964   5.027   6.491
  426TIP3   OH2 1222   5.906   4.031   3.148
  426TIP3    H1 1223   5.931   3.956   3.094
  426TIP3    H2 1224   5.867   4.093   3.086
  427TIP3   OH2 1225   0.820   6.769   6.449
  427TIP3    H1 1226   0.807   6.850   6.400
  427TIP3    H2 1227   0.733   6.732   6.458
  428TIP3   OH2 1228   0.960   6.086   4.798
  428TIP3    H1 1229   1.051   6.089   4.769
  428TIP3    H2 1230   0.960   6.130   4.883
  429TIP3   OH2 1231   6.452   7.468   1.641
  429TIP3    H1 1232   6.496   7.553   1.642
  429TIP3    H2 1233   6.360   7.489   1.624
  430TIP3   OH2 1234   0.735   4.283   2.770
  430TIP3    H1 1235   0.764   4.197   2.740
  430TIP3    H2 1236   0.682   4.316   2.698
  431TIP3   OH2 1237   0.293   6.167   0.407
  431TIP3    H1 1238   0.342   6.246   0.385
  431TIP3    H2 1239   0.243   6.146   0.329
  432TIP3   OH2 1240   5.591   6.809   4.840
  432TIP3    H1 1241   5.678   6.773   4.855
  432TIP3    H2 1242   5.538   6.775   4.912
  433TIP3   OH2 1243   2.567   3.462   5.601
  433TIP3    H1 1244   2.588   3.495   5.514
  433TIP3    H2 1245   2.570   3.539   5.657
  434TIP3   OH2 1246   4.589   1.854   6.793
  434TIP3    H1 1247   4.596   1.876   6.700
  434TIP3    H2 1248   4.665   1.797   6.809
  435TIP3   OH2 1249   0.883   1.620   4.446
  435TIP3    H1 1250   0.971   1.642   4.417
  435TIP3    H2 1251   0.893   1.597   4.539
  436TIP3   OH2 1252   2.808   5.928   3.732
  436TIP3    H1 1253   2.777   6.001   3.786
  436TIP3    H2 1254   2.732   5.904   3.679
  437TIP3   OH2 1255   7.900   5.551   6.124
  437TIP3    H1 1256   7.882   5.466   6.083
  437TIP3    H2 1257   7.920   5.609   6.050
  438TIP3   OH2 1258   5.355   3.872   1.036
  438TIP3    H1 1259   5.358   3.785   1.078
  438TIP3    H2 1260   5.285   3.918   1.082
  439TIP3   OH2 1261   6.603   0.380   4.434
  439TIP3    H1 1262   6.671   0.445   4.415
  439TIP3    H2 1263   6.533   0.431   4.477
  440TIP3   OH2 1264   7.526   6.159   5.322
  440TIP3    H1 1265   7.459   6.093   5.342
  440TIP3    H2 1266   7.605   6.108   5.301
  441TIP3   OH2 1267   4.103   1.241   5.334
  441TIP3    H1 1268   4.124   1.322   5.380
  441TIP3    H2 1269   4.008   1.245   5.322
  442TIP3   OH2 1270   4.760   3.758   6.466
  442TIP3    H1 1271   4.807   3.776   6.385
  442TIP3    H2 1272   4.699   3.688   6.443
  443TIP3   OH2 1273   2.057   2.141   5.489
  443TIP3    H1 1274   1.986   2.078   5.474
  443TIP3    H2 1275   2.028   2.194   5.562
  444TIP3   OH2 1276   5.570   6.335   2.778
  444TIP3    H1 1277   5.587   6.428   2.795
  444TIP3    H2 1278   5.657   6.295   2.772
  445TIP3   OH2 1279   3.198   6.608   1.198
  445TIP3    H1 1280   3.214   6.568   1.112
  445TIP3    H2 1281   3.275   6.663   1.214
  446TIP3   OH2 1282   5.204   0.982   5.598
  446TIP3    H1 1283   5.293   0.954   5.575
  446TIP3    H2 1284   5.217   1.067   5.640
  447TIP3   OH2 1285   3.175   6.955   0.184
  447TIP3    H1 1286   3.202   6.879   0.236
  447TIP3    H2 1287   3.080   6.944   0.173
  448TIP3   OH2 1288   1.636   3.228   0.777
  448TIP3    H1 1289   1.616   3.164   0.845
  448TIP3    H2 1290   1.672   3.303   0.824
  449TIP3   OH2 1291   7.775   1.985   4.176
  449TIP3    H1 1292   7.858   2.008   4.134
  449TIP3    H2 1293   7.708   2.014   4.114
  450TIP3   OH2 1294   5.461   5.679   5.109
  450TIP3    H1 1295   5.421   5.605   5.063
  450TIP3    H2 1296   5.505   5.639   5.185
  451TIP3   OH2 1297   6.478   2.103   3.335
  451TIP3    H1 1298   6.419   2.068   3.268
  451TIP3    H2 1299   6.560   2.056   3.322
  452TIP3   OH2 1300   0.811   5.212   0.963
  452TIP3    H1 1301   0.750   5.279   0.932
  452TIP3    H2 1302   0.798   5.138   0.904
  453TIP3   OH2 1303   5.793   0.188   6.047
  453TIP3    H1 1304   5.874   0.237   6.056
  453TIP3    H2 1305   5.821   0.096   6.043
  454TIP3   OH2 1306   2.672   7.780   0.367
  454TIP3    H1 1307   2.608   7.710   0.381
  454TIP3    H2 1308   2.680   7.786   0.272
  455TIP3   OH2 1309   1.773   7.398   4.687
  455TIP3    H1 1310   1.702   7.434   4.739
  455TIP3    H2 1311   1.830   7.354   4.750
  456TIP3   OH2 1312   2.737   5.944   6.620
  456TIP3    H1 1313   2.715   5.851   6.616
  456TIP3    H2 1314   2.814   5.954   6.564
  457TIP3   OH2 1315   3.934   0.080   4.144
  457TIP3    H1 1316   3.994   0.014   4.109
  457TIP3    H2 1317   3.944   0.155   4.085
  458TIP3   OH2 1318   6.649   7.315   0.277
  458TIP3    H1 1319   6.646   7.220   0.294
  458TIP3    H2 1320   6.591   7.327   0.201
  459TIP3   OH2 1321   7.273   4.399   2.283
  459TIP3    H1 1322   7.314   4.313   2.275
  459TIP3    H2 1323   7.278   4.437   2.196
  460TIP3   OH2 1324   4.821   4.114   1.637
  460TIP3    H1 1325   4.770   4.037   1.614
  460TIP3    H2 1326   4.777   4.150   1.714
  461TIP3   OH2 1327   3.897   3.390   6.272
  461TIP3    H1 1328   3.844   3.442   6.211
  461TIP3    H2 1329   3.847   3.392   6.354
  462TIP3   OH2 1330   8.248   3.233   1.093
  462TIP3    H1 1331   8.269   3.326   1.089
  462TIP3    H2 1332   8.153   3.230   1.107
  463TIP3   OH2 1333   3.801   3.744   1.053
  463TIP3    H1 1334   3.892   3.740   1.081
  463TIP3    H2 1335   3.804   3.773   0.962
  464TIP3   OH2 1336   3.229   0.929   5.879
  464TIP3    H1 1337   3.208   0.914   5.787
  464TIP3    H2 1338   3.153   0.896   5.927
  465TIP3   OH2 1339   1.452   1.644   5.107
  465TIP3    H1 1340   1.502   1.667   5.185
  465TIP3    H2 1341   1.382   1.587   5.139
  466TIP3   OH2 1342   7.525   4.509   0.042
  466TIP3    H1 1343   7.447   4.455   0.029
  466TIP3    H2 1344   7.584   4.483  -0.029
  467TIP3   OH2 1345   2.139   4.450   1.378
  467TIP3    H1 1346   2.054   4.419   1.348
  467TIP3    H2 1347   2.185   4.372   1.407
  468TIP3   OH2 1348   0.970   3.492   3.420
  468TIP3    H1 1349   1.017   3.515   3.500
  468TIP3    H2 1350   0.879   3.516   3.438
  469TIP3   OH2 1351   3.626   6.924   3.945
  469TIP3    H1 1352   3.564   6.942   4.016
  469TIP3    H2 1353   3.583   6.857   3.892
  470TIP3   OH2 1354   8.052   1.673   5.793
  470TIP3    H1 1355   7.981   1.735   5.809
  470TIP3    H2 1356   8.060   1.670   5.697
  471TIP3   OH2 1357   8.152   7.029   5.643
  471TIP3    H1 1358   8.188   6.949   5.681
  471TIP3    H2 1359   8.203   7.099   5.683
  472TIP3   OH2 1360   2.617   7.644   4.785
  472TIP3    H1 1361   2.713   7.650   4.783
  472TIP3    H2 1362   2.590   7.718   4.840
  473TIP3   OH2 1363   7.235   2.189   5.588
  473TIP3    H1 1364   7.225   2.211   5.495
  473TIP3    H2 1365   7.211   2.097   5.594
  474TIP3   OH2 1366   4.489   3.768   3.280
  474TIP3    H1 1367   4.529   3.848   3.313
  474TIP3    H2 1368   4.546   3.698   3.310
  475TIP3   OH2 1369   8.175   0.561   5.711
  475TIP3    H1 1370   8.156   0.554   5.805
  475TIP3    H2 1371   8.090   0.572   5.670
  476TIP3   OH2 1372   4.771   1.880   0.907
  476TIP3    H1 1373   4.676   1.872   0.914
  476TIP3    H2 1374   4.786   1.970   0.877
  477TIP3   OH2 1375   2.575   3.718   4.605
  477TIP3    H1 1376   2.604   3.627   4.600
  477TIP3    H2 1377   2.609   3.758   4.525
  478TIP3   OH2 1378   0.931   3.870   6.331
  478TIP3    H1 1379   1.001   3.934   6.344
  478TIP3    H2 1380   0.875   3.910   6.265
  479TIP3   OH2 1381   7.316   0.121   2.891
  479TIP3    H1 1382   7.289   0.171   2.814
  479TIP3    H2 1383   7.238   0.071   2.916
  480TIP3   OH2 1384   8.204   6.350   4.686
  480TIP3    H1 1385   8.157   6.433   4.690
  480TIP3    H2 1386   8.136   6.284   4.689
  481TIP3   OH2 1387   7.119   3.905   5.805
  481TIP3    H1 1388   7.196   3.890   5.750
  481TIP3    H2 1389   7.097   3.997   5.790
  482TIP3   OH2 1390   6.277   5.145   3.200
  482TIP3    H1 1391   6.326   5.069   3.167
  482TIP3    H2 1392   6.326   5.173   3.278
  483TIP3   OH2 1393   0.702   1.437   2.042
  483TIP3    H1 1394   0.612   1.468   2.031
  483TIP3    H2 1395   0.715   1.376   1.969
  484TIP3   OH2 1396   0.452   6.859   3.338
  484TIP3    H1 1397   0.458   6.949   3.371
  484TIP3    H2 1398   0.438   6.806   3.417
  485TIP3   OH2 1399   0.854   4.702   5.887
  485TIP3    H1 1400   0.832   4.617   5.926
  485TIP3    H2 1401   0.770   4.748   5.884
  486TIP3   OH2 1402   1.524   4.681   1.898
  486TIP3    H1 1403   1.463   4.727   1.841
  486TIP3    H2 1404   1.527   4.592   1.863
  487TIP3   OH2 1405   3.676   2.840   0.628
  487TIP3    H1 1406   3.678   2.899   0.703
  487TIP3    H2 1407   3.676   2.752   0.665
  488TIP3   OH2 1408   5.819   4.985   3.667
  488TIP3    H1 1409   5.744   4.965   3.724
  488TIP3    H2 1410   5.844   4.901   3.629
  489TIP3   OH2 1411   1.893   7.583   4.514
  489TIP3    H1 1412   1.858   7.519   4.577
  489TIP3    H2 1413   1.979   7.606   4.549
  490TIP3   OH2 1414   1.449   7.253   5.276
  490TIP3    H1 1415   1.497   7.232   5.356
  490TIP3    H2 1416   1.378   7.311   5.305
  491TIP3   OH2 1417   0.584   3.266   4.514
  491TIP3    H1 1418   0.520   3.247   4.583
  491TIP3    H2 1419   0.572   3.359   4.496
  492TIP3   OH2 1420   7.924   2.118   2.726
  492TIP3    H1 1421   7.942   2.170   2.647
  492TIP3    H2 1422   8.008   2.077   2.747
  493TIP3   OH2 1423   7.051   0.135   6.761
  493TIP3    H1 1424   7.089   0.205   6.708
  493TIP3    H2 1425   6.963   0.168   6.783
  494TIP3   OH2 1426   6.179   3.650   3.063
  494TIP3    H1 1427   6.260   3.622   3.106
  494TIP3    H2 1428   6.147   3.722   3.117
  495TIP3   OH2 1429   2.120   5.368   3.406
  495TIP3    H1 1430   2.172   5.448   3.411
  495TIP3    H2 1431   2.046   5.383   3.466
  496TIP3   OH2 1432   2.362   4.852   2.721
  496TIP3    H1 1433   2.330   4.871   2.632
  496TIP3    H2 1434   2.415   4.773   2.710
  497TIP3   OH2 1435   1.255   3.697   1.112
  497TIP3    H1 1436   1.292   3.750   1.041
  497TIP3    H2 1437   1.270   3.607   1.085
  498TIP3   OH2 1438   3.455   5.939   0.155
  498TIP3    H1 1439   3.457   5.859   0.102
  498TIP3    H2 1440   3.519   5.996   0.113
  499TIP3   OH2 1441   2.382   0.282   1.060
  499TIP3    H1 1442   2.461   0.312   1.105
  499TIP3    H2 1443   2.408   0.200   1.017
  500TIP3   OH2 1444   4.519   3.950   3.503
  500TIP3    H1 1445   4.588   3.966   3.568
  500TIP3    H2 1446   4.494   4.038   3.474
  501TIP3   OH2 1447   1.159   3.613   5.251
  501TIP3    H1 1448   1.125   3.703   5.247
  501TIP3    H2 1449   1.217   3.607   5.175
  502TIP3   OH2 1450   6.690   5.976   3.665
  502TIP3    H1 1451   6.720   6.005   3.751
  502TIP3    H2 1452   6.761   5.922   3.631
  503TIP3   OH2 1453   3.374   5.156   4.870
  503TIP3    H1 1454   3.319   5.083   4.898
  503TIP3    H2 1455   3.416   5.126   4.790
  504TIP3   OH2 1456   3.184   5.035   2.074
  504TIP3    H1 1457   3.206   4.945   2.050
  504TIP3    H2 1458   3.193   5.085   1.993
  505TIP3   OH2 1459   7.978   7.192   2.759
  505TIP3    H1 1460   7.998   7.285   2.750
  505TIP3    H2 1461   8.037   7.148   2.699
  506TIP3   OH2 1462   1.994   6.180   6.641
  506TIP3    H1 1463   1.960   6.220   6.721
  506TIP3    H2 1464   1.988   6.085   6.657
  507TIP3   OH2 1465   2.316   5.829   4.290
  507TIP3    H1 1466   2.239   5.772   4.283
  507TIP3    H2 1467   2.341   5.823   4.383
  508TIP3   OH2 1468   5.103   3.405   4.257
  508TIP3    H1 1469   5.022   3.368   4.221
  508TIP3    H2 1470   5.103   3.496   4.226
  509TIP3   OH2 1471   7.273   6.719   6.780
  509TIP3    H1 1472   7.246   6.651   6.718
  509TIP3    H2 1473   7.357   6.689   6.814
  510TIP3   OH2 1474   3.542   2.206   0.275
  510TIP3    H1 1475   3.485   2.216   0.351
  510TIP3    H2 1476   3.557   2.112   0.268
  511TIP3   OH2 1477   7.003   5.101   4.190
  511TIP3    H1 1478   6.955   5.029   4.231
  511TIP3    H2 1479   7.055   5.138   4.261
  512TIP3   OH2 1480   3.295   6.872   1.185
  512TIP3    H1 1481   3.233   6.941   1.160
  512TIP3    H2 1482   3.333   6.843   1.102
  513TIP3   OH2 1483   0.529   1.840   4.557
  513TIP3    H1 1484   0.456   1.862   4.499
  513TIP3    H2 1485   0.488   1.824   4.642
  514TIP3   OH2 1486   2.661   2.928   6.462
  514TIP3    H1 1487   2.702   3.005   6.422
  514TIP3    H2 1488   2.643   2.870   6.388
  515TIP3   OH2 1489   7.662   0.143   0.801
  515TIP3    H1 1490   7.679   0.210   0.734
  515TIP3    H2 1491   7.613   0.075   0.755
  516TIP3   OH2 1492   5.368   5.036   6.695
  516TIP3    H1 1493   5.382   4.941   6.694
  516TIP3    H2 1494   5.301   5.050   6.762
  517TIP3   OH2 1495   4.921   2.992   0.950
  517TIP3    H1 1496   4.880   2.936   0.883
  517TIP3    H2 1497   5.009   2.957   0.959
  518TIP3   OH2 1498   5.809   5.742   4.034
  518TIP3    H1 1499   5.829   5.829   4.001
  518TIP3    H2 1500   5.770   5.696   3.960
  519TIP3   OH2 1501   0.742   7.752   5.100
  519TIP3    H1 1502   0.797   7.674   5.100
  519TIP3    H2 1503   0.802   7.824   5.119
  520TIP3   OH2 1504   6.033   0.722   6.361
  520TIP3    H1 1505   5.953   0.763   6.393
  520TIP3    H2 1506   6.006   0.671   6.285
  521TIP3   OH2 1507   1.794   6.472   3.989
  521TIP3    H1 1508   1.720   6.419   3.958
  521TIP3    H2 1509   1.754   6.551   4.025
  522TIP3   OH2 1510   0.700   3.905   4.542
  522TIP3    H1 1511   0.649   3.850   4.483
  522TIP3    H2 1512   0.771   3.848   4.572
  523TIP3   OH2 1513   4.437   6.793   5.296
  523TIP3    H1 1514   4.427   6.872   5.242
  523TIP3    H2 1515   4.466   6.826   5.381
  524TIP3   OH2 1516   5.593   2.916   6.300
  524TIP3    H1 1517   5.600   2.833   6.252
  524TIP3    H2 1518   5.498   2.929   6.310
  525TIP3   OH2 1519   6.243   7.277   3.600
  525TIP3    H1 1520   6.326   7.260   3.555
  525TIP3    H2 1521   6.223   7.368   3.581
  526TIP3   OH2 1522   2.429   0.330   2.802
  526TIP3    H1 1523   2.345   0.294   2.775
  526TIP3    H2 1524   2.459   0.273   2.873
  527TIP3   OH2 1525   6.090   3.388   0.136
  527TIP3    H1 1526   6.064   3.306   0.179
  527TIP3    H2 1527   6.052   3.382   0.048
  528TIP3   OH2 1528   0.843   3.553   5.695
  528TIP3    H1 1529   0.889   3.554   5.612
  528TIP3    H2 1530   0.765   3.607   5.681
  529TIP3   OH2 1531   3.662   2.985   1.531
  529TIP3    H1 1532   3.667   2.898   1.573
  529TIP3    H2 1533   3.658   3.046   1.604
  530TIP3   OH2 1534   1.585   3.699   4.128
  530TIP3    H1 1535   1.503   3.653   4.110
  530TIP3    H2 1536   1.576   3.732   4.217
  531TIP3   OH2 1537   1.041   4.848   3.273
  531TIP3    H1 1538   0.957   4.813   3.301
  531TIP3    H2 1539   1.057   4.922   3.332
  532TIP3   OH2 1540   4.070   0.727   2.773
  532TIP3    H1 1541   3.992   0.691   2.815
  532TIP3    H2 1542   4.134   0.656   2.777
  533TIP3   OH2 1543   5.477   6.572   3.138
  533TIP3    H1 1544   5.516   6.605   3.220
  533TIP3    H2 1545   5.495   6.641   3.074
  534TIP3   OH2 1546   8.074   4.154   2.416
  534TIP3    H1 1547   8.020   4.088   2.373
  534TIP3    H2 1548   8.161   4.115   2.421
  535TIP3   OH2 1549   4.244   3.833   3.472
  535TIP3    H1 1550   4.323   3.800   3.430
  535TIP3    H2 1551   4.224   3.914   3.425
  536TIP3   OH2 1552   2.449   5.537   6.748
  536TIP3    H1 1553   2.444   5.603   6.817
  536TIP3    H2 1554   2.395   5.464   6.780
  537TIP3   OH2 1555   1.846   1.228   0.379
  537TIP3    H1 1556   1.926   1.263   0.419
  537TIP3    H2 1557   1.877   1.164   0.316
  538TIP3   OH2 1558   1.202   3.040   4.615
  538TIP3    H1 1559   1.237   2.980   4.549
  538TIP3    H2 1560   1.223   3.000   4.699
  539TIP3   OH2 1561   4.961   5.713   2.923
  539TIP3    H1 1562   5.040   5.680   2.966
  539TIP3    H2 1563   4.955   5.662   2.842
  540TIP3   OH2 1564   0.381   5.530   5.894
  540TIP3    H1 1565   0.301   5.538   5.842
  540TIP3    H2 1566   0.370   5.447   5.940
  541TIP3   OH2 1567   8.076   4.177   3.749
  541TIP3    H1 1568   8.120   4.260   3.731
  541TIP3    H2 1569   8.087   4.126   3.668
  542TIP3   OH2 1570   6.194   4.732   0.915
  542TIP3    H1 1571   6.187   4.801   0.849
  542TIP3    H2 1572   6.107   4.693   0.919
  543TIP3   OH2 1573   4.312   3.510   3.597
  543TIP3    H1 1574   4.284   3.493   3.686
  543TIP3    H2 1575   4.334   3.603   3.596
  544TIP3   OH2 1576   1.504   3.016   5.341
  544TIP3    H1 1577   1.413   3.037   5.361
  544TIP3    H2 1578   1.527   2.947   5.403
  545TIP3   OH2 1579   5.124   7.417   3.046
  545TIP3    H1 1580   5.210   7.377   3.037
  545TIP3    H2 1581   5.128   7.465   3.128
  546TIP3   OH2 1582   7.137   7.395   3.288
  546TIP3    H1 1583   7.087   7.315   3.274
  546TIP3    H2 1584   7.219   7.382   3.240
  547TIP3   OH2 1585   1.760   6.724   2.216
  547TIP3    H1 1586   1.674   6.736   2.175
  547TIP3    H2 1587   1.740   6.682   2.300
  548TIP3   OH2 1588   1.810   7.794   5.251
  548TIP3    H1 1589   1.830   7.700   5.257
  548TIP3    H2 1590   1.747   7.810   5.321
  549TIP3   OH2 1591   4.360   5.194   5.569
  549TIP3    H1 1592   4.377   5.144   5.649
  549TIP3    H2 1593   4.290   5.146   5.525
  550TIP3   OH2 1594   6.388   1.760   5.360
  550TIP3    H1 1595   6.385   1.670   5.393
  550TIP3    H2 1596   6.300   1.793   5.372
  551TIP3   OH2 1597   0.159   0.848   3.900
  551TIP3    H1 1598   0.252   0.867   3.916
  551TIP3    H2 1599   0.157   0.807   3.814
  552TIP3   OH2 1600   0.980   2.790   0.708
  552TIP3    H1 1601   1.065   2.798   0.665
  552TIP3    H2 1602   0.958   2.697   0.700
  553TIP3   OH2 1603   6.076   6.454   6.502
  553TIP3    H1 1604   6.139   6.500   6.556
  553TIP3    H2 1605   6.013   6.521   6.475
  554TIP3   OH2 1606   3.249   7.456   6.403
  554TIP3    H1 1607   3.178   7.400   6.435
  554TIP3    H2 1608   3.215   7.495   6.323
  555TIP3   OH2 1609   3.111   1.076   2.842
  555TIP3    H1 1610   3.182   1.028   2.800
  555TIP3    H2 1611   3.082   1.139   2.776
  556TIP3   OH2 1612   3.444   0.159   4.683
  556TIP3    H1 1613   3.368   0.213   4.706
  556TIP3    H2 1614   3.518   0.220   4.686
  557TIP3   OH2 1615   5.493   1.245   2.804
  557TIP3    H1 1616   5.503   1.152   2.783
  557TIP3    H2 1617   5.568   1.287   2.761
  558TIP3   OH2 1618   5.441   0.533   0.901
  558TIP3    H1 1619   5.426   0.581   0.819
  558TIP3    H2 1620   5.527   0.564   0.931
  559TIP3   OH2 1621   7.293   0.090   1.438
  559TIP3    H1 1622   7.302   0.020   1.503
  559TIP3    H2 1623   7.342   0.058   1.362
  560TIP3   OH2 1624   3.825   7.339   2.573
  560TIP3    H1 1625   3.839   7.328   2.479
  560TIP3    H2 1626   3.894   7.399   2.600
  561TIP3   OH2 1627   5.355   7.182   3.789
  561TIP3    H1 1628   5.263   7.155   3.785
  561TIP3    H2 1629   5.368   7.209   3.879
  562TIP3   OH2 1630   7.408   2.354   5.747
  562TIP3    H1 1631   7.337   2.391   5.800
  562TIP3    H2 1632   7.368   2.276   5.706
  563TIP3   OH2 1633   6.577   4.284   1.973
  563TIP3    H1 1634   6.661   4.312   1.936
  563TIP3    H2 1635   6.550   4.211   1.918
  564TIP3   OH2 1636   6.928   1.217   0.862
  564TIP3    H1 1637   6.890   1.147   0.811
  564TIP3    H2 1638   6.957   1.175   0.943
  565TIP3   OH2 1639  -0.065   1.466   6.204
  565TIP3    H1 1640  -0.047   1.385   6.157
  565TIP3    H2 1641   0.003   1.526   6.175
  566TIP3   OH2 1642   4.488   4.383   2.034
  566TIP3    H1 1643   4.461   4.300   1.994
  566TIP3    H2 1644   4.494   4.363   2.127
  567TIP3   OH2 1645   4.760   5.017   3.083
  567TIP3    H1 1646   4.800   5.054   3.004
  567TIP3    H2 1647   4.675   4.984   3.054
  568TIP3   OH2 1648   4.783   6.982   5.217
  568TIP3    H1 1649   4.876   6.984   5.195
  568TIP3    H2 1650   4.760   6.889   5.218
  569TIP3   OH2 1651   4.663   2.707   2.409
  569TIP3    H1 1652   4.729   2.662   2.461
  569TIP3    H2 1653   4.582   2.698   2.460
  570TIP3   OH2 1654   3.167   0.566   3.861
  570TIP3    H1 1655   3.161   0.655   3.824
  570TIP3    H2 1656   3.135   0.576   3.951
  571TIP3   OH2 1657   3.240   3.394   0.162
  571TIP3    H1 1658   3.255   3.399   0.256
  571TIP3    H2 1659   3.184   3.317   0.150
  572TIP3   OH2 1660   7.005   2.562   3.979
  572TIP3    H1 1661   7.040   2.488   3.930
  572TIP3    H2 1662   6.997   2.632   3.915
  573TIP3   OH2 1663   6.257   1.848   2.419
  573TIP3    H1 1664   6.275   1.930   2.373
  573TIP3    H2 1665   6.324   1.787   2.387
  574TIP3   OH2 1666   0.320   3.532   0.739
  574TIP3    H1 1667   0.361   3.489   0.814
  574TIP3    H2 1668   0.258   3.594   0.777
  575TIP3   OH2 1669   4.196   5.927   0.277
  575TIP3    H1 1670   4.184   6.009   0.323
  575TIP3    H2 1671   4.279   5.892   0.311
  576TIP3   OH2 1672   7.477   6.552   0.147
  576TIP3    H1 1673   7.567   6.524   0.164
  576TIP3    H2 1674   7.485   6.620   0.080
  577TIP3   OH2 1675   4.751   6.469   2.116
  577TIP3    H1 1676   4.755   6.391   2.172
  577TIP3    H2 1677   4.723   6.539   2.175
  578TIP3   OH2 1678   7.729   2.883   1.235
  578TIP3    H1 1679   7.736   2.978   1.228
  578TIP3    H2 1680   7.648   2.862   1.188
  579TIP3   OH2 1681   7.394   5.054   1.175
  579TIP3    H1 1682   7.345   4.974   1.154
  579TIP3    H2 1683   7.422   5.041   1.266
  580TIP3   OH2 1684   4.092   2.958   2.528
  580TIP3    H1 1685   4.155   2.911   2.474
  580TIP3    H2 1686   4.024   2.894   2.547
  581TIP3   OH2 1687   0.084   4.677   4.049
  581TIP3    H1 1688   0.162   4.697   4.101
  581TIP3    H2 1689   0.050   4.763   4.023
  582TIP3   OH2 1690   0.271   4.943   5.311
  582TIP3    H1 1691   0.300   4.857   5.342
  582TIP3    H2 1692   0.328   4.963   5.237
  583TIP3   OH2 1693   6.215   6.800   6.090
  583TIP3    H1 1694   6.134   6.824   6.135
  583TIP3    H2 1695   6.210   6.705   6.080
  584TIP3   OH2 1696   2.502   6.958   0.526
  584TIP3    H1 1697   2.517   7.051   0.544
  584TIP3    H2 1698   2.475   6.921   0.610
  585TIP3   OH2 1699   2.518   1.813   5.743
  585TIP3    H1 1700   2.577   1.742   5.717
  585TIP3    H2 1701   2.522   1.813   5.839
  586TIP3   OH2 1702   7.823   5.548   5.676
  586TIP3    H1 1703   7.845   5.461   5.641
  586TIP3    H2 1704   7.897   5.571   5.732
  587TIP3   OH2 1705   0.095   2.889   6.330
  587TIP3    H1 1706   0.022   2.899   6.269
  587TIP3    H2 1707   0.129   2.977   6.343
  588TIP3   OH2 1708   1.872   7.699   6.099
  588TIP3    H1 1709   1.854   7.739   6.015
  588TIP3    H2 1710   1.794   7.717   6.152
  589TIP3   OH2 1711   0.097   3.442   4.480
  589TIP3    H1 1712   0.157   3.408   4.548
  589TIP3    H2 1713   0.155   3.483   4.416
  590TIP3   OH2 1714   5.364   4.946   4.717
  590TIP3    H1 1715   5.390   4.927   4.627
  590TIP3    H2 1716   5.349   5.041   4.718
  591TIP3   OH2 1717   1.328   0.187   1.690
  591TIP3    H1 1718   1.291   0.225   1.610
  591TIP3    H2 1719   1.330   0.093   1.672
  592TIP3   OH2 1720   3.675   6.788   3.520
  592TIP3    H1 1721   3.705   6.803   3.610
  592TIP3    H2 1722   3.753   6.803   3.467
  593TIP3   OH2 1723   3.921   6.355   5.981
  593TIP3    H1 1724   3.971   6.292   5.929
  593TIP3    H2 1725   3.835   6.313   5.993
  594TIP3   OH2 1726   3.088   5.931   2.433
  594TIP3    H1 1727   3.010   5.974   2.467
  594TIP3    H2 1728   3.099   5.966   2.344
  595TIP3   OH2 1729   7.201   4.065   0.035
  595TIP3    H1 1730   7.150   4.144   0.021
  595TIP3    H2 1731   7.142   4.006   0.082
  596TIP3   OH2 1732   1.987   1.995   3.094
  596TIP3    H1 1733   1.910   1.973   3.041
  596TIP3    H2 1734   2.033   2.062   3.042
  597TIP3   OH2 1735   6.259   4.848   4.309
  597TIP3    H1 1736   6.336   4.847   4.251
  597TIP3    H2 1737   6.294   4.829   4.396
  598TIP3   OH2 1738   1.151   3.613   2.290
  598TIP3    H1 1739   1.176   3.649   2.375
  598TIP3    H2 1740   1.118   3.525   2.310
  599TIP3   OH2 1741   5.115   6.267   6.315
  599TIP3    H1 1742   5.120   6.209   6.390
  599TIP3    H2 1743   5.036   6.319   6.329
  600TIP3   OH2 1744   7.013   0.677   4.376
  600TIP3    H1 1745   7.092   0.626   4.393
  600TIP3    H2 1746   6.987   0.711   4.461
  601TIP3   OH2 1747   2.657   5.680   6.504
  601TIP3    H1 1748   2.736   5.692   6.452
  601TIP3    H2 1749   2.683   5.623   6.576
  602TIP3   OH2 1750   7.142   3.603   2.011
  602TIP3    H1 1751   7.048   3.589   1.998
  602TIP3    H2 1752   7.179   3.600   1.923
  603TIP3   OH2 1753   7.255   5.373   0.031
  603TIP3    H1 1754   7.300   5.364  -0.054
  603TIP3    H2 1755   7.194   5.299   0.034
  604TIP3   OH2 1756   2.417   0.570   5.181
  604TIP3    H1 1757   2.385   0.633   5.245
  604TIP3    H2 1758   2.511   0.564   5.197
  605TIP3   OH2 1759   4.463   7.139   5.594
  605TIP3    H1 1760   4.518   7.068   5.627
  605TIP3    H2 1761   4.501   7.163   5.510
  606TIP3   OH2 1762   6.596   6.747   1.521
  606TIP3    H1 1763   6.651   6.816   1.485
  606TIP3    H2 1764   6.634   6.729   1.607
  607TIP3   OH2 1765   7.560   0.164   4.025
  607TIP3    H1 1766   7.495   0.208   4.080
  607TIP3    H2 1767   7.636   0.222   4.028
  608TIP3   OH2 1768   7.727   4.098   0.957
  608TIP3    H1 1769   7.691   4.170   1.009
  608TIP3    H2 1770   7.655   4.072   0.900
  609TIP3   OH2 1771   2.497   6.360   2.797
  609TIP3    H1 1772   2.586   6.391   2.818
  609TIP3    H2 1773   2.476   6.403   2.714
  610TIP3   OH2 1774   5.128   0.413   3.426
  610TIP3    H1 1775   5.054   0.388   3.371
  610TIP3    H2 1776   5.157   0.498   3.391
  611TIP3   OH2 1777   1.376   1.594   1.977
  611TIP3    H1 1778   1.336   1.548   2.051
  611TIP3    H2 1779   1.398   1.524   1.915
  612TIP3   OH2 1780   1.678   5.964   6.622
  612TIP3    H1 1781   1.709   6.032   6.563
  612TIP3    H2 1782   1.678   5.884   6.569
  613TIP3   OH2 1783   7.375   7.232   2.689
  613TIP3    H1 1784   7.288   7.269   2.702
  613TIP3    H2 1785   7.416   7.236   2.776
  614TIP3   OH2 1786   1.093   4.130   1.968
  614TIP3    H1 1787   1.035   4.176   2.028
  614TIP3    H2 1788   1.181   4.147   2.003
  615TIP3   OH2 1789   1.190   5.884   5.466
  615TIP3    H1 1790   1.265   5.884   5.526
  615TIP3    H2 1791   1.219   5.832   5.391
  616TIP3   OH2 1792   0.293   0.874   0.753
  616TIP3    H1 1793   0.382   0.843   0.735
  616TIP3    H2 1794   0.302   0.928   0.832
  617TIP3   OH2 1795   4.005   2.418   5.425
  617TIP3    H1 1796   4.065   2.450   5.357
  617TIP3    H2 1797   3.976   2.497   5.470
  618TIP3   OH2 1798   7.576   0.727   3.637
  618TIP3    H1 1799   7.557   0.696   3.548
  618TIP3    H2 1800   7.608   0.816   3.626
  619TIP3   OH2 1801   0.999   6.786   6.635
  619TIP3    H1 1802   0.953   6.780   6.552
  619TIP3    H2 1803   0.929   6.783   6.701
  620TIP3   OH2 1804   5.670   4.277   2.274
  620TIP3    H1 1805   5.659   4.272   2.179
  620TIP3    H2 1806   5.582   4.274   2.309
  621TIP3   OH2 1807   5.549   6.903   3.955
  621TIP3    H1 1808   5.466   6.938   3.988
  621TIP3    H2 1809   5.597   6.877   4.034
  622TIP3   OH2 1810   0.527   6.761   1.762
  622TIP3    H1 1811   0.548   6.670   1.784
  622TIP3    H2 1812   0.608   6.809   1.777
  623TIP3   OH2 1813   6.934   6.406   6.395
  623TIP3    H1 1814   6.938   6.477   6.331
  623TIP3    H2 1815   7.020   6.405   6.436
  624TIP3   OH2 1816   6.854   4.493   1.193
  624TIP3    H1 1817   6.772   4.500   1.241
  624TIP3    H2 1818   6.908   4.434   1.246
  625TIP3   OH2 1819   4.904   5.383   2.887
  625TIP3    H1 1820   4.858   5.413   2.966
  625TIP3    H2 1821   4.873   5.442   2.818
  626TIP3   OH2 1822   3.954   3.454   2.388
  626TIP3    H1 1823   4.047   3.475   2.399
  626TIP3    H2 1824   3.947   3.362   2.412
  627TIP3   OH2 1825   5.254   7.051   3.208
  627TIP3    H1 1826   5.192   7.044   3.280
  627TIP3    H2 1827   5.204   7.088   3.135
  628TIP3   OH2 1828   5.584   2.803   1.050
  628TIP3    H1 1829   5.518   2.851   0.999
  628TIP3    H2 1830   5.643   2.871   1.082
  629TIP3   OH2 1831   2.906   6.820   2.883
  629TIP3    H1 1832   2.925   6.755   2.815
  629TIP3    H2 1833   2.991   6.840   2.921
  630TIP3   OH2 1834   3.956   1.500   2.815
  630TIP3    H1 1835   3.888   1.547   2.766
  630TIP3    H2 1836   4.016   1.568   2.844
  631TIP3   OH2 1837   1.254   0.705   2.172
  631TIP3    H1 1838   1.210   0.647   2.235
  631TIP3    H2 1839   1.196   0.705   2.095
  632TIP3   OH2 1840   3.513   0.566   3.791
  632TIP3    H1 1841   3.590   0.590   3.741
  632TIP3    H2 1842   3.520   0.618   3.872
  633TIP3   OH2 1843   3.425   7.069   5.820
  633TIP3    H1 1844   3.336   7.101   5.834
  633TIP3    H2 1845   3.452   7.109   5.738
  634TIP3   OH2 1846   1.021   5.006   4.225
  634TIP3    H1 1847   1.114   4.986   4.233
  634TIP3    H2 1848   0.976   4.925   4.247
  635TIP3   OH2 1849   5.788   6.234   3.519
  635TIP3    H1 1850   5.718   6.292   3.487
  635TIP3    H2 1851   5.859   6.294   3.543
  636TIP3   OH2 1852   3.157   5.771   0.485
  636TIP3    H1 1853   3.084   5.727   0.528
  636TIP3    H2 1854   3.193   5.706   0.425
  637TIP3   OH2 1855   7.919   5.020   2.042
  637TIP3    H1 1856   7.844   4.977   2.082
  637TIP3    H2 1857   7.954   5.077   2.111
  638TIP3   OH2 1858   4.797   5.359   5.376
  638TIP3    H1 1859   4.714   5.354   5.423
  638TIP3    H2 1860   4.845   5.430   5.418
  639TIP3   OH2 1861   7.051   0.679   1.298
  639TIP3    H1 1862   7.068   0.603   1.243
  639TIP3    H2 1863   7.137   0.705   1.331
  640TIP3   OH2 1864   0.555   0.662   2.941
  640TIP3    H1 1865   0.529   0.573   2.962
  640TIP3    H2 1866   0.475   0.703   2.908
  641TIP3   OH2 1867   6.433   1.264   3.659
  641TIP3    H1 1868   6.426   1.227   3.747
  641TIP3    H2 1869   6.375   1.209   3.606
  642TIP3   OH2 1870   1.306   5.004   2.091
  642TIP3    H1 1871   1.220   5.040   2.116
  642TIP3    H2 1872   1.291   4.910   2.082
  643TIP3   OH2 1873   1.868   4.955   4.074
  643TIP3    H1 1874   1.781   4.920   4.092
  643TIP3    H2 1875   1.853   5.046   4.048
  644TIP3   OH2 1876   2.802   4.166   5.935
  644TIP3    H1 1877   2.797   4.238   5.998
  644TIP3    H2 1878   2.803   4.209   5.850
  645TIP3   OH2 1879   6.277   7.444   4.054
  645TIP3    H1 1880   6.223   7.477   4.126
  645TIP3    H2 1881   6.216   7.430   3.982
  646TIP3   OH2 1882   0.531   2.336   1.258
  646TIP3    H1 1883   0.583   2.255   1.256
  646TIP3    H2 1884   0.487   2.339   1.174
  647TIP3   OH2 1885   0.218   0.967   2.203
  647TIP3    H1 1886   0.194   1.059   2.197
  647TIP3    H2 1887   0.257   0.957   2.289
  648TIP3   OH2 1888   7.375   6.469   6.635
  648TIP3    H1 1889   7.409   6.532   6.571
  648TIP3    H2 1890   7.307   6.421   6.588
  649TIP3   OH2 1891   5.954   2.872   3.452
  649TIP3    H1 1892   5.872   2.894   3.408
  649TIP3    H2 1893   5.933   2.874   3.545
  650TIP3   OH2 1894   4.117   0.207   0.371
  650TIP3    H1 1895   4.102   0.113   0.360
  650TIP3    H2 1896   4.040   0.238   0.418
  651TIP3   OH2 1897   5.719   4.438   6.737
  651TIP3    H1 1898   5.721   4.343   6.744
  651TIP3    H2 1899   5.645   4.456   6.678
  652TIP3   OH2 1900   4.418   7.053   5.177
  652TIP3    H1 1901   4.454   7.116   5.239
  652TIP3    H2 1902   4.373   7.107   5.111
  653TIP3   OH2 1903   0.769   0.729   6.201
  653TIP3    H1 1904   0.715   0.807   6.190
  653TIP3    H2 1905   0.818   0.744   6.282
  654TIP3   OH2 1906   6.770   7.035   4.578
  654TIP3    H1 1907   6.779   7.018   4.484
  654TIP3    H2 1908   6.858   7.059   4.606
  655TIP3   OH2 1909   8.003   1.637   2.738
  655TIP3    H1 1910   7.914   1.618   2.709
  655TIP3    H2 1911   8.059   1.583   2.683
  656TIP3   OH2 1912   5.434   7.818   6.718
  656TIP3    H1 1913   5.489   7.755   6.671
  656TIP3    H2 1914   5.487   7.898   6.722
  657TIP3   OH2 1915   0.345   6.634   2.783
  657TIP3    H1 1916   0.317   6.548   2.751
  657TIP3    H2 1917   0.427   6.618   2.830
  658TIP3   OH2 1918   6.506   0.972   0.412
  658TIP3    H1 1919   6.513   0.885   0.452
  658TIP3    H2 1920   6.456   1.024   0.475
  659TIP3   OH2 1921   6.883   4.367   2.151
  659TIP3    H1 1922   6.867   4.402   2.064
  659TIP3    H2 1923   6.853   4.277   2.147
  660TIP3   OH2 1924   7.133   6.341   6.569
  660TIP3    H1 1925   7.087   6.309   6.646
  660TIP3    H2 1926   7.161   6.262   6.523
  661TIP3   OH2 1927   5.338   2.932   4.087
  661TIP3    H1 1928   5.358   2.860   4.146
  661TIP3    H2 1929   5.348   2.894   3.999
  662TIP3   OH2 1930   1.078   3.257   3.648
  662TIP3    H1 1931   0.997   3.308   3.659
  662TIP3    H2 1932   1.048   3.170   3.620
  663TIP3   OH2 1933   0.833   2.939   3.221
  663TIP3    H1 1934   0.913   2.921   3.271
  663TIP3    H2 1935   0.859   3.007   3.159
  664TIP3   OH2 1936   2.024   4.851   4.280
  664TIP3    H1 1937   1.958   4.891   4.223
  664TIP3    H2 1938   1.974   4.810   4.351
  665TIP3   OH2 1939   1.278   6.904   5.845
  665TIP3    H1 1940   1.293   6.936   5.934
  665TIP3    H2 1941   1.189   6.868   5.847
  666TIP3   OH2 1942   3.366   7.455   5.628
  666TIP3    H1 1943   3.287   7.495   5.666
  666TIP3    H2 1944   3.423   7.438   5.703
  667TIP3   OH2 1945   0.757   1.701   0.998
  667TIP3    H1 1946   0.784   1.788   0.969
  667TIP3    H2 1947   0.664   1.697   0.978
  668TIP3   OH2 1948   3.311   3.550   6.588
  668TIP3    H1 1949   3.275   3.616   6.528
  668TIP3    H2 1950   3.338   3.600   6.665
  669TIP3   OH2 1951   3.835   1.062   2.324
  669TIP3    H1 1952   3.929   1.076   2.334
  669TIP3    H2 1953   3.802   1.143   2.285
  670TIP3   OH2 1954   3.932   1.717   4.513
  670TIP3    H1 1955   3.907   1.786   4.452
  670TIP3    H2 1956   3.969   1.648   4.458
  671TIP3   OH2 1957   5.652   3.706   6.468
  671TIP3    H1 1958   5.616   3.692   6.555
  671TIP3    H2 1959   5.585   3.756   6.422
  672TIP3   OH2 1960   4.425   3.016   2.362
  672TIP3    H1 1961   4.447   2.934   2.317
  672TIP3    H2 1962   4.507   3.043   2.404
  673TIP3   OH2 1963   5.805   5.936   2.476
  673TIP3    H1 1964   5.737   5.955   2.541
  673TIP3    H2 1965   5.760   5.947   2.392
  674TIP3   OH2 1966   5.512   0.550   1.962
  674TIP3    H1 1967   5.463   0.489   1.907
  674TIP3    H2 1968   5.461   0.556   2.043
  675TIP3   OH2 1969   7.854   2.790   0.912
  675TIP3    H1 1970   7.885   2.873   0.949
  675TIP3    H2 1971   7.793   2.815   0.843
  676TIP3   OH2 1972   1.276   0.223   4.353
  676TIP3    H1 1973   1.262   0.303   4.403
  676TIP3    H2 1974   1.345   0.246   4.290
  677TIP3   OH2 1975   6.482   6.381   3.459
  677TIP3    H1 1976   6.425   6.354   3.387
  677TIP3    H2 1977   6.554   6.318   3.458
  678TIP3   OH2 1978   5.559   4.379   2.751
  678TIP3    H1 1979   5.500   4.364   2.824
  678TIP3    H2 1980   5.565   4.294   2.708
  679TIP3   OH2 1981   2.842   2.638   1.263
  679TIP3    H1 1982   2.819   2.723   1.302
  679TIP3    H2 1983   2.901   2.598   1.326
  680TIP3   OH2 1984   6.197   4.784   1.561
  680TIP3    H1 1985   6.177   4.727   1.487
  680TIP3    H2 1986   6.185   4.728   1.638
  681TIP3   OH2 1987   1.883   4.381   1.357
  681TIP3    H1 1988   1.802   4.425   1.385
  681TIP3    H2 1989   1.864   4.288   1.365
  682TIP3   OH2 1990   3.327   7.280   2.422
  682TIP3    H1 1991   3.302   7.318   2.506
  682TIP3    H2 1992   3.421   7.263   2.430
  683TIP3   OH2 1993   3.265   5.153   4.456
  683TIP3    H1 1994   3.345   5.124   4.501
  683TIP3    H2 1995   3.281   5.245   4.437
  684TIP3   OH2 1996   3.804   7.159   5.800
  684TIP3    H1 1997   3.749   7.085   5.825
  684TIP3    H2 1998   3.849   7.129   5.721
  685TIP3   OH2 1999   2.994   3.684   4.243
  685TIP3    H1 2000   2.927   3.619   4.222
  685TIP3    H2 2001   3.040   3.647   4.318
  686TIP3   OH2 2002   0.164   0.915   6.775
  686TIP3    H1 2003   0.189   1.007   6.783
  686TIP3    H2 2004   0.100   0.913   6.704
  687TIP3   OH2 2005   3.840   6.034   4.783
  687TIP3    H1 2006   3.903   6.023   4.712
  687TIP3    H2 2007   3.783   6.106   4.754
  688TIP3   OH2 2008   3.762   6.961   2.104
  688TIP3    H1 2009   3.831   7.024   2.083
  688TIP3    H2 2010   3.694   6.977   2.039
  689TIP3   OH2 2011   4.803   4.254   1.371
  689TIP3    H1 2012   4.839   4.253   1.459
  689TIP3    H2 2013   4.806   4.163   1.342
  690TIP3   OH2 2014   7.840   1.065   5.486
  690TIP3    H1 2015   7.747   1.070   5.508
  690TIP3    H2 2016   7.872   1.154   5.504
  691TIP3   OH2 2017   8.196   3.655   5.283
  691TIP3    H1 2018   8.200   3.745   5.251
  691TIP3    H2 2019   8.104   3.643   5.307
  692TIP3   OH2 2020   5.430   5.436   2.381
  692TIP3    H1 2021   5.400   5.458   2.469
  692TIP3    H2 2022   5.357   5.386   2.343
  693TIP3   OH2 2023   2.681   0.353   0.003
  693TIP3    H1 2024   2.725   0.431   0.035
  693TIP3    H2 2025   2.604   0.387  -0.044
  694TIP3   OH2 2026   7.403   7.148   6.484
  694TIP3    H1 2027   7.337   7.106   6.539
  694TIP3    H2 2028   7.476   7.166   6.544
  695TIP3   OH2 2029   0.915   1.670   5.918
  695TIP3    H1 2030   0.932   1.708   6.005
  695TIP3    H2 2031   1.002   1.653   5.882
  696TIP3   OH2 2032   3.989   5.488   5.515
  696TIP3    H1 2033   3.894   5.493   5.511
  696TIP3    H2 2034   4.007   5.441   5.596
  697TIP3   OH2 2035   1.927   5.833   3.614
  697TIP3    H1 2036   1.874   5.792   3.545
  697TIP3    H2 2037   1.974   5.760   3.655
  698TIP3   OH2 2038   0.463   5.946   3.694
  698TIP3    H1 2039   0.517   5.973   3.768
  698TIP3    H2 2040   0.491   5.856   3.675
  699TIP3   OH2 2041   7.478   7.045   0.757
  699TIP3    H1 2042   7.398   7.054   0.705
  699TIP3    H2 2043   7.490   6.950   0.767
  700TIP3   OH2 2044   4.771   1.418   1.335
  700TIP3    H1 2045   4.702   1.377   1.282
  700TIP3    H2 2046   4.841   1.352   1.336
  701TIP3   OH2 2047   7.863   6.866   6.392
  701TIP3    H1 2048   7.870   6.877   6.487
  701TIP3    H2 2049   7.788   6.919   6.368
  702TIP3   OH2 2050   2.111   6.082   5.898
  702TIP3    H1 2051   2.096   6.101   5.806
  702TIP3    H2 2052   2.115   5.986   5.902
  703TIP3   OH2 2053   7.475   1.615   3.384
  703TIP3    H1 2054   7.399   1.564   3.355
  703TIP3    H2 2055   7.438   1.693   3.425
  704TIP3   OH2 2056   1.747   2.709   0.778
  704TIP3    H1 2057   1.828   2.734   0.733
  704TIP3    H2 2058   1.776   2.667   0.859
  705TIP3   OH2 2059   7.496   3.548   6.152
  705TIP3    H1 2060   7.542   3.592   6.224
  705TIP3    H2 2061   7.404   3.570   6.166
  706TIP3   OH2 2062   3.633   0.844   3.318
  706TIP3    H1 2063   3.574   0.769   3.316
  706TIP3    H2 2064   3.589   0.908   3.375
  707TIP3   OH2 2065   4.844   3.872   5.980
  707TIP3    H1 2066   4.909   3.893   6.047
  707TIP3    H2 2067   4.759   3.888   6.022
  708TIP3   OH2 2068   6.665   2.705   5.369
  708TIP3    H1 2069   6.732   2.681   5.433
  708TIP3    H2 2070   6.590   2.733   5.421
  709TIP3   OH2 2071   7.709   4.204   1.797
  709TIP3    H1 2072   7.670   4.118   1.783
  709TIP3    H2 2073   7.739   4.231   1.710
  710TIP3   OH2 2074   5.728   5.029   3.009
  710TIP3    H1 2075   5.693   5.080   3.082
  710TIP3    H2 2076   5.722   4.938   3.038
  711TIP3   OH2 2077   8.109   6.959   5.972
  711TIP3    H1 2078   8.181   6.907   5.933
  711TIP3    H2 2079   8.036   6.947   5.911
  712TIP3   OH2 2080   0.509   1.628   5.027
  712TIP3    H1 2081   0.603   1.639   5.046
  712TIP3    H2 2082   0.477   1.572   5.097
  713TIP3   OH2 2083   7.794   2.736   2.850
  713TIP3    H1 2084   7.848   2.687   2.788
  713TIP3    H2 2085   7.842   2.817   2.864
  714TIP3   OH2 2086   0.697   7.267   3.526
  714TIP3    H1 2087   0.744   7.320   3.461
  714TIP3    H2 2088   0.751   7.188   3.536
  715TIP3   OH2 2089   5.488   2.963   0.317
  715TIP3    H1 2090   5.458   2.890   0.371
  715TIP3    H2 2091   5.579   2.976   0.341
  716TIP3   OH2 2092   0.981   1.764   1.651
  716TIP3    H1 2093   1.059   1.711   1.669
  716TIP3    H2 2094   0.908   1.702   1.652
  717TIP3   OH2 2095   3.139   6.356   2.979
  717TIP3    H1 2096   3.172   6.323   2.895
  717TIP3    H2 2097   3.076   6.290   3.008
  718TIP3   OH2 2098   1.365   5.808   2.772
  718TIP3    H1 2099   1.449   5.762   2.766
  718TIP3    H2 2100   1.316   5.777   2.696
  719TIP3   OH2 2101   4.874   3.010   3.429
  719TIP3    H1 2102   4.866   2.917   3.405
  719TIP3    H2 2103   4.919   3.050   3.354
  720TIP3   OH2 2104   1.370   2.903   4.296
  720TIP3    H1 2105   1.276   2.889   4.294
  720TIP3    H2 2106   1.408   2.821   4.264
  721TIP3   OH2 2107   0.960   0.051   0.905
  721TIP3    H1 2108   1.013  -0.016   0.949
  721TIP3    H2 2109   0.876   0.009   0.890
  722TIP3   OH2 2110   1.158   2.588   2.850
  722TIP3    H1 2111   1.139   2.590   2.757
  722TIP3    H2 2112   1.101   2.655   2.888
  723TIP3   OH2 2113   5.300   7.017   0.086
  723TIP3    H1 2114   5.287   6.962   0.163
  723TIP3    H2 2115   5.307   6.956   0.013
  724TIP3   OH2 2116   7.880   3.442   3.329
  724TIP3    H1 2117   7.810   3.416   3.269
  724TIP3    H2 2118   7.842   3.512   3.381
  725TIP3   OH2 2119   4.201   0.157   1.052
  725TIP3    H1 2120   4.201   0.216   0.977
  725TIP3    H2 2121   4.201   0.214   1.129
  726TIP3   OH2 2122   6.687   4.008   0.349
  726TIP3    H1 2123   6.687   4.016   0.254
  726TIP3    H2 2124   6.673   4.098   0.380
  727TIP3   OH2 2125   8.092   4.883   3.118
  727TIP3    H1 2126   8.149   4.897   3.042
  727TIP3    H2 2127   8.022   4.826   3.085
  728TIP3   OH2 2128   1.394   7.404   1.545
  728TIP3    H1 2129   1.465   7.358   1.590
  728TIP3    H2 2130   1.338   7.334   1.511
  729TIP3   OH2 2131   4.457   4.345   6.409
  729TIP3    H1 2132   4.507   4.313   6.334
  729TIP3    H2 2133   4.374   4.298   6.405
  730TIP3   OH2 2134   2.156   6.410   2.499
  730TIP3    H1 2135   2.208   6.465   2.558
  730TIP3    H2 2136   2.129   6.336   2.554
  731TIP3   OH2 2137   4.034   0.427   3.462
  731TIP3    H1 2138   4.101   0.493   3.478
  731TIP3    H2 2139   3.995   0.452   3.378
  732TIP3   OH2 2140   3.576   7.558   4.494
  732TIP3    H1 2141   3.646   7.604   4.540
  732TIP3    H2 2142   3.533   7.506   4.561
  733TIP3   OH2 2143   5.210   3.770   3.567
  733TIP3    H1 2144   5.203   3.845   3.508
  733TIP3    H2 2145   5.213   3.808   3.654
  734TIP3   OH2 2146   6.918   6.286   4.036
  734TIP3    H1 2147   7.000   6.335   4.047
  734TIP3    H2 2148   6.905   6.242   4.120
  735TIP3   OH2 2149   2.184   3.592   4.579
  735TIP3    H1 2150   2.208   3.671   4.627
  735TIP3    H2 2151   2.263   3.570   4.529
  736TIP3   OH2 2152   6.666   3.079   6.410
  736TIP3    H1 2153   6.693   3.143   6.345
  736TIP3    H2 2154   6.719   3.099   6.487
  737TIP3   OH2 2155   3.480   0.272   1.832
  737TIP3    H1 2156   3.537   0.271   1.755
  737TIP3    H2 2157   3.456   0.180   1.844
  738TIP3   OH2 2158   0.155   3.180   4.730
  738TIP3    H1 2159   0.206   3.114   4.777
  738TIP3    H2 2160   0.067   3.175   4.769
  739TIP3   OH2 2161   2.032   6.611   0.654
  739TIP3    H1 2162   1.960   6.597   0.592
  739TIP3    H2 2163   2.097   6.661   0.605
  740TIP3   OH2 2164   1.727   2.935   5.992
  740TIP3    H1 2165   1.765   2.978   6.069
  740TIP3    H2 2166   1.703   2.848   6.023
  741TIP3   OH2 2167   6.742   2.304   4.309
  741TIP3    H1 2168   6.757   2.273   4.219
  741TIP3    H2 2169   6.774   2.394   4.309
  742TIP3   OH2 2170   6.905   0.167   6.392
  742TIP3    H1 2171   6.882   0.163   6.485
  742TIP3    H2 2172   6.851   0.238   6.356
  743TIP3   OH2 2173   6.024   5.775   5.363
  743TIP3    H1 2174   6.045   5.687   5.335
  743TIP3    H2 2175   5.945   5.766   5.417
  744TIP3   OH2 2176   0.182   1.754   4.026
  744TIP3    H1 2177   0.118   1.697   3.984
  744TIP3    H2 2178   0.213   1.811   3.956
  745TIP3   OH2 2179   0.595   4.228   5.920
  745TIP3    H1 2180   0.630   4.145   5.889
  745TIP3    H2 2181   0.562   4.271   5.840
  746TIP3   OH2 2182   1.636   7.663   4.053
  746TIP3    H1 2183   1.715   7.648   4.001
  746TIP3    H2 2184   1.664   7.648   4.143
  747TIP3   OH2 2185   2.385   1.723   4.940
  747TIP3    H1 2186   2.338   1.648   4.903
  747TIP3    H2 2187   2.423   1.690   5.021
  748TIP3   OH2 2188   0.393   0.746   1.032
  748TIP3    H1 2189   0.397   0.694   0.952
  748TIP3    H2 2190   0.303   0.777   1.035
  749TIP3   OH2 2191   8.104   7.190   0.938
  749TIP3    H1 2192   8.118   7.284   0.925
  749TIP3    H2 2193   8.009   7.179   0.934
  750TIP3   OH2 2194   2.427   4.513   5.920
  750TIP3    H1 2195   2.436   4.591   5.866
  750TIP3    H2 2196   2.475   4.445   5.872
  751TIP3   OH2 2197   2.924   7.600   6.497
  751TIP3    H1 2198   2.839   7.633   6.526
  751TIP3    H2 2199   2.926   7.509   6.527
  752TIP3   OH2 2200   5.435   3.216   2.487
  752TIP3    H1 2201   5.426   3.161   2.409
  752TIP3    H2 2202   5.383   3.172   2.554
  753TIP3   OH2 2203   3.183   1.526   1.290
  753TIP3    H1 2204   3.120   1.574   1.344
  753TIP3    H2 2205   3.134   1.450   1.258
  754TIP3   OH2 2206   1.092   7.715   6.643
  754TIP3    H1 2207   1.145   7.643   6.607
  754TIP3    H2 2208   1.051   7.677   6.721
  755TIP3   OH2 2209   7.978   0.086   2.319
  755TIP3    H1 2210   8.028   0.148   2.371
  755TIP3    H2 2211   7.887   0.115   2.327
  756TIP3   OH2 2212   0.417   7.105   5.460
  756TIP3    H1 2213   0.370   7.032   5.500
  756TIP3    H2 2214   0.352   7.146   5.402
  757TIP3   OH2 2215   4.841   4.155   2.363
  757TIP3    H1 2216   4.881   4.235   2.328
  757TIP3    H2 2217   4.798   4.114   2.287
  758TIP3   OH2 2218   6.974   1.582   2.711
  758TIP3    H1 2219   7.051   1.542   2.670
  758TIP3    H2 2220   7.009   1.630   2.786
  759TIP3   OH2 2221   8.096   6.388   5.654
  759TIP3    H1 2222   8.089   6.445   5.577
  759TIP3    H2 2223   8.044   6.311   5.632
  760TIP3   OH2 2224   6.548   6.576   6.567
  760TIP3    H1 2225   6.613   6.646   6.558
  760TIP3    H2 2226   6.590   6.512   6.624
  761TIP3   OH2 2227   4.612   0.348   3.801
  761TIP3    H1 2228   4.550   0.375   3.869
  761TIP3    H2 2229   4.584   0.397   3.723
  762TIP3   OH2 2230   8.194   2.629   2.455
  762TIP3    H1 2231   8.161   2.577   2.529
  762TIP3    H2 2232   8.289   2.621   2.462
  763TIP3   OH2 2233   4.370   7.801   3.459
  763TIP3    H1 2234   4.291   7.845   3.492
  763TIP3    H2 2235   4.364   7.810   3.364
  764TIP3   OH2 2236   0.982   4.553   1.832
  764TIP3    H1 2237   0.983   4.466   1.793
  764TIP3    H2 2238   1.066   4.560   1.877
  765TIP3   OH2 2239   0.744   2.638   5.204
  765TIP3    H1 2240   0.744   2.544   5.187
  765TIP3    H2 2241   0.664   2.670   5.162
  766TIP3   OH2 2242   0.734   3.848   6.548
  766TIP3    H1 2243   0.742   3.944   6.554
  766TIP3    H2 2244   0.809   3.821   6.495
  767TIP3   OH2 2245   8.153   7.404   6.281
  767TIP3    H1 2246   8.236   7.365   6.308
  767TIP3    H2 2247   8.155   7.492   6.318
  768TIP3   OH2 2248   7.975   4.278   1.867
  768TIP3    H1 2249   7.886   4.252   1.845
  768TIP3    H2 2250   7.992   4.239   1.953
  769TIP3   OH2 2251   4.719   6.677   0.115
  769TIP3    H1 2252   4.757   6.606   0.063
  769TIP3    H2 2253   4.625   6.661   0.113
  770TIP3   OH2 2254   4.081   2.031   2.970
  770TIP3    H1 2255   4.170   1.996   2.963
  770TIP3    H2 2256   4.072   2.089   2.895
  771TIP3   OH2 2257   8.000   5.873   1.006
  771TIP3    H1 2258   7.922   5.910   1.047
  771TIP3    H2 2259   8.033   5.943   0.950
  772TIP3   OH2 2260   2.346   2.057   5.818
  772TIP3    H1 2261   2.264   2.106   5.816
  772TIP3    H2 2262   2.394   2.094   5.893
  773TIP3   OH2 2263   2.556   6.022   5.487
  773TIP3    H1 2264   2.624   6.053   5.427
  773TIP3    H2 2265   2.585   5.934   5.512
  774TIP3   OH2 2266   3.511   6.317   0.189
  774TIP3    H1 2267   3.467   6.384   0.136
  774TIP3    H2 2268   3.465   6.319   0.273
  775TIP3   OH2 2269   4.930   6.422   6.050
  775TIP3    H1 2270   4.885   6.367   5.986
  775TIP3    H2 2271   5.022   6.417   6.025
  776TIP3   OH2 2272   7.926   4.021   5.579
  776TIP3    H1 2273   7.919   4.088   5.647
  776TIP3    H2 2274   8.009   4.042   5.534
  777TIP3   OH2 2275   3.536   0.085   3.946
  777TIP3    H1 2276   3.522   0.089   4.040
  777TIP3    H2 2277   3.528  -0.008   3.924
  778TIP3   OH2 2278   4.449   7.489   5.710
  778TIP3    H1 2279   4.388   7.425   5.673
  778TIP3    H2 2280   4.528   7.438   5.729
  779TIP3   OH2 2281   7.095   3.047   6.166
  779TIP3    H1 2282   7.043   3.046   6.246
  779TIP3    H2 2283   7.157   3.119   6.178
  780TIP3   OH2 2284   5.614   0.113   3.043
  780TIP3    H1 2285   5.677   0.186   3.036
  780TIP3    H2 2286   5.575   0.123   3.130
  781TIP3   OH2 2287   0.101   0.788   4.835
  781TIP3    H1 2288   0.187   0.779   4.876
  781TIP3    H2 2289   0.099   0.877   4.801
  782TIP3   OH2 2290   2.697   0.536   0.908
  782TIP3    H1 2291   2.687   0.459   0.964
  782TIP3    H2 2292   2.740   0.600   0.965
  783TIP3   OH2 2293   2.318   1.084   1.831
  783TIP3    H1 2294   2.335   1.118   1.743
  783TIP3    H2 2295   2.241   1.029   1.822
  784TIP3   OH2 2296   4.994   4.439   4.743
  784TIP3    H1 2297   5.086   4.456   4.766
  784TIP3    H2 2298   4.951   4.524   4.754
  785TIP3   OH2 2299   1.721   2.471   2.514
  785TIP3    H1 2300   1.649   2.452   2.574
  785TIP3    H2 2301   1.781   2.397   2.523
  786TIP3   OH2 2302   6.709   1.929   1.419
  786TIP3    H1 2303   6.644   1.971   1.475
  786TIP3    H2 2304   6.739   1.854   1.470
  787TIP3   OH2 2305   7.262   4.156   2.899
  787TIP3    H1 2306   7.303   4.097   2.962
  787TIP3    H2 2307   7.327   4.165   2.829
  788TIP3   OH2 2308   4.081   2.934   3.906
  788TIP3    H1 2309   4.005   2.908   3.853
  788TIP3    H2 2310   4.053   3.016   3.948
  789TIP3   OH2 2311   2.618   7.708   0.825
  789TIP3    H1 2312   2.559   7.782   0.808
  789TIP3    H2 2313   2.699   7.749   0.856
  790TIP3   OH2 2314   5.027   5.043   4.778
  790TIP3    H1 2315   5.047   5.075   4.690
  790TIP3    H2 2316   5.075   5.101   4.837
  791TIP3   OH2 2317   2.412   6.726   0.987
  791TIP3    H1 2318   2.406   6.631   0.981
  791TIP3    H2 2319   2.368   6.748   1.069
  792TIP3   OH2 2320   4.292   2.001   5.005
  792TIP3    H1 2321   4.325   2.082   4.966
  792TIP3    H2 2322   4.200   2.018   5.023
  793TIP3   OH2 2323   5.386   0.453   2.280
  793TIP3    H1 2324   5.342   0.388   2.335
  793TIP3    H2 2325   5.331   0.531   2.285
  794TIP3   OH2 2326   4.986   1.937   0.440
  794TIP3    H1 2327   5.014   1.950   0.350
  794TIP3    H2 2328   5.018   1.850   0.464
  795TIP3   OH2 2329   4.896   5.212   4.341
  795TIP3    H1 2330   4.809   5.211   4.302
  795TIP3    H2 2331   4.952   5.252   4.275
  796TIP3   OH2 2332   2.664   2.617   1.905
  796TIP3    H1 2333   2.741   2.675   1.901
  796TIP3    H2 2334   2.600   2.666   1.957
  797TIP3   OH2 2335   3.498   3.560   2.773
  797TIP3    H1 2336   3.504   3.496   2.703
  797TIP3    H2 2337   3.541   3.518   2.848
  798TIP3   OH2 2338   1.200   0.920   6.189
  798TIP3    H1 2339   1.206   0.948   6.098
  798TIP3    H2 2340   1.191   0.825   6.185
  799TIP3   OH2 2341   5.079   4.658   0.710
  799TIP3    H1 2342   5.044   4.570   0.699
  799TIP3    H2 2343   5.002   4.715   0.711
  800TIP3   OH2 2344   5.194   4.857   6.484
  800TIP3    H1 2345   5.238   4.924   6.536
  800TIP3    H2 2346   5.104   4.857   6.517
  801TIP3   OH2 2347   7.844   7.548   0.358
  801TIP3    H1 2348   7.895   7.501   0.425
  801TIP3    H2 2349   7.825   7.633   0.398
  802TIP3   OH2 2350   6.518   3.651   4.606
  802TIP3    H1 2351   6.599   3.604   4.627
  802TIP3    H2 2352   6.463   3.585   4.563
  803TIP3   OH2 2353   1.697   4.653   0.049
  803TIP3    H1 2354   1.776   4.615   0.088
  803TIP3    H2 2355   1.702   4.628  -0.044
  804TIP3   OH2 2356   8.213   3.485   6.191
  804TIP3    H1 2357   8.170   3.400   6.194
  804TIP3    H2 2358   8.281   3.480   6.258
  805TIP3   OH2 2359   3.173   2.849   0.454
  805TIP3    H1 2360   3.224   2.850   0.373
  805TIP3    H2 2361   3.150   2.941   0.469
  806TIP3   OH2 2362   4.429   1.856   5.239
  806TIP3    H1 2363   4.371   1.904   5.298
  806TIP3    H2 2364   4.403   1.884   5.151
  807TIP3   OH2 2365   4.060   5.519   2.696
  807TIP3    H1 2366   4.080   5.451   2.760
  807TIP3    H2 2367   4.032   5.594   2.749
  808TIP3   OH2 2368   7.439   3.054   0.460
  808TIP3    H1 2369   7.454   3.019   0.372
  808TIP3    H2 2370   7.522   3.096   0.483
  809TIP3   OH2 2371   3.459   5.862   2.733
  809TIP3    H1 2372   3.365   5.847   2.740
  809TIP3    H2 2373   3.493   5.783   2.690
  810TIP3   OH2 2374   6.263   5.082   2.512
  810TIP3    H1 2375   6.309   5.075   2.595
  810TIP3    H2 2376   6.171   5.092   2.536
  811TIP3   OH2 2377   7.154   0.964   2.975
  811TIP3    H1 2378   7.115   0.996   3.056
  811TIP3    H2 2379   7.172   1.042   2.923
  812TIP3   OH2 2380   5.183   1.424   1.609
  812TIP3    H1 2381   5.267   1.421   1.654
  812TIP3    H2 2382   5.198   1.479   1.533
  813TIP3   OH2 2383   1.132   3.010   3.038
  813TIP3    H1 2384   1.079   3.056   3.104
  813TIP3    H2 2385   1.187   3.079   3.000
  814TIP3   OH2 2386   2.164   2.133   6.526
  814TIP3    H1 2387   2.216   2.073   6.579
  814TIP3    H2 2388   2.223   2.161   6.456
  815TIP3   OH2 2389   2.662   0.546   5.291
  815TIP3    H1 2390   2.745   0.503   5.270
  815TIP3    H2 2391   2.674   0.580   5.379
  816TIP3   OH2 2392   4.724   3.713   3.001
  816TIP3    H1 2393   4.756   3.802   3.016
  816TIP3    H2 2394   4.746   3.665   3.081
  817TIP3   OH2 2395   3.440   5.339   6.541
  817TIP3    H1 2396   3.428   5.253   6.583
  817TIP3    H2 2397   3.352   5.366   6.517
  818TIP3   OH2 2398   6.022   3.732   2.598
  818TIP3    H1 2399   6.065   3.688   2.672
  818TIP3    H2 2400   6.091   3.784   2.557
  819TIP3   OH2 2401   6.736   4.498   0.296
  819TIP3    H1 2402   6.689   4.571   0.336
  819TIP3    H2 2403   6.670   4.429   0.287
  820TIP3   OH2 2404   6.929   6.723   3.928
  820TIP3    H1 2405   6.898   6.751   4.014
  820TIP3    H2 2406   6.915   6.799   3.872
  821TIP3   OH2 2407   1.427   7.797   2.394
  821TIP3    H1 2408   1.333   7.804   2.410
  821TIP3    H2 2409   1.439   7.828   2.304
  822TIP3   OH2 2410   0.077   0.096   1.928
  822TIP3    H1 2411   0.164   0.112   1.890
  822TIP3    H2 2412   0.089   0.114   2.022
  823TIP3   OH2 2413   2.190   1.203   3.603
  823TIP3    H1 2414   2.210   1.159   3.686
  823TIP3    H2 2415   2.156   1.288   3.628
  824TIP3   OH2 2416   2.896   0.312   4.314
  824TIP3    H1 2417   2.888   0.302   4.409
  824TIP3    H2 2418   2.901   0.406   4.301
  825TIP3   OH2 2419   4.090   2.185   3.778
  825TIP3    H1 2420   4.097   2.096   3.812
  825TIP3    H2 2421   3.997   2.196   3.757
  826TIP3   OH2 2422   6.903   1.878   0.698
  826TIP3    H1 2423   6.981   1.824   0.703
  826TIP3    H2 2424   6.900   1.910   0.608
  827TIP3   OH2 2425   2.644   6.636   3.599
  827TIP3    H1 2426   2.690   6.635   3.515
  827TIP3    H2 2427   2.711   6.657   3.663
  828TIP3   OH2 2428   7.954   1.684   6.781
  828TIP3    H1 2429   8.043   1.666   6.750
  828TIP3    H2 2430   7.905   1.604   6.763
  829TIP3   OH2 2431   5.158   4.737   5.682
  829TIP3    H1 2432   5.118   4.823   5.691
  829TIP3    H2 2433   5.235   4.751   5.627
  830TIP3   OH2 2434   4.917   0.208   1.325
  830TIP3    H1 2435   4.842   0.212   1.383
  830TIP3    H2 2436   4.952   0.297   1.324
  831TIP3   OH2 2437   5.776   7.218   4.639
  831TIP3    H1 2438   5.682   7.210   4.657
  831TIP3    H2 2439   5.786   7.307   4.604
  832TIP3   OH2 2440   1.479   0.818   3.308
  832TIP3    H1 2441   1.451   0.875   3.380
  832TIP3    H2 2442   1.517   0.742   3.351
  833TIP3   OH2 2443   1.879   2.794   1.068
  833TIP3    H1 2444   1.867   2.865   1.005
  833TIP3    H2 2445   1.973   2.774   1.064
  834TIP3   OH2 2446   3.854   5.901   2.141
  834TIP3    H1 2447   3.804   5.841   2.195
  834TIP3    H2 2448   3.901   5.957   2.203
  835TIP3   OH2 2449   7.444   0.867   5.034
  835TIP3    H1 2450   7.376   0.807   5.065
  835TIP3    H2 2451   7.520   0.848   5.089
  836TIP3   OH2 2452   1.413   2.097   3.701
  836TIP3    H1 2453   1.468   2.083   3.624
  836TIP3    H2 2454   1.326   2.068   3.675
  837TIP3   OH2 2455   3.769   5.927   6.348
  837TIP3    H1 2456   3.783   6.004   6.292
  837TIP3    H2 2457   3.674   5.921   6.358
  838TIP3   OH2 2458   2.563   4.658   6.644
  838TIP3    H1 2459   2.589   4.599   6.715
  838TIP3    H2 2460   2.638   4.716   6.631
  839TIP3   OH2 2461   4.075   3.026   1.601
  839TIP3    H1 2462   4.071   3.122   1.607
  839TIP3    H2 2463   4.142   3.009   1.536
  840TIP3   OH2 2464   6.951   1.566   5.213
  840TIP3    H1 2465   6.995   1.579   5.129
  840TIP3    H2 2466   6.911   1.479   5.206
  841TIP3   OH2 2467   6.548   1.985   5.344
  841TIP3    H1 2468   6.600   1.957   5.419
  841TIP3    H2 2469   6.482   1.916   5.333
  842TIP3   OH2 2470   4.585   5.081   0.517
  842TIP3    H1 2471   4.567   5.103   0.608
  842TIP3    H2 2472   4.624   4.994   0.521
  843TIP3   OH2 2473   1.199   0.904   0.913
  843TIP3    H1 2474   1.119   0.955   0.899
  843TIP3    H2 2475   1.269   0.968   0.911
  844TIP3   OH2 2476   1.598   4.901   4.099
  844TIP3    H1 2477   1.549   4.819   4.102
  844TIP3    H2 2478   1.606   4.928   4.190
  845TIP3   OH2 2479   4.668   1.836   2.659
  845TIP3    H1 2480   4.603   1.856   2.591
  845TIP3    H2 2481   4.630   1.761   2.706
  846TIP3   OH2 2482   1.210   6.407   2.090
  846TIP3    H1 2483   1.249   6.320   2.083
  846TIP3    H2 2484   1.146   6.410   2.019
  847TIP3   OH2 2485   7.730   5.425   2.897
  847TIP3    H1 2486   7.749   5.420   2.803
  847TIP3    H2 2487   7.649   5.475   2.903
  848TIP3   OH2 2488   1.561   7.746   5.056
  848TIP3    H1 2489   1.649   7.751   5.093
  848TIP3    H2 2490   1.573   7.704   4.971
  849TIP3   OH2 2491   0.809   1.624   5.038
  849TIP3    H1 2492   0.813   1.676   4.957
  849TIP3    H2 2493   0.889   1.573   5.036
  850TIP3   OH2 2494   4.280   5.212   1.436
  850TIP3    H1 2495   4.300   5.128   1.478
  850TIP3    H2 2496   4.222   5.189   1.363
  851TIP3   OH2 2497   7.371   2.860   0.630
  851TIP3    H1 2498   7.349   2.926   0.565
  851TIP3    H2 2499   7.465   2.845   0.620
  852TIP3   OH2 2500   3.875   5.674   0.450
  852TIP3    H1 2501   3.945   5.705   0.507
  852TIP3    H2 2502   3.824   5.752   0.430
  853TIP3   OH2 2503   7.669   3.534   1.188
  853TIP3    H1 2504   7.709   3.510   1.272
  853TIP3    H2 2505   7.605   3.464   1.171
  854TIP3   OH2 2506   2.646   0.180   6.049
  854TIP3    H1 2507   2.571   0.185   6.108
  854TIP3    H2 2508   2.722   0.177   6.107
  855TIP3   OH2 2509   0.398   3.302   4.735
  855TIP3    H1 2510   0.380   3.392   4.706
  855TIP3    H2 2511   0.312   3.259   4.732
  856TIP3   OH2 2512   7.106   5.027   4.788
  856TIP3    H1 2513   7.017   5.011   4.819
  856TIP3    H2 2514   7.105   5.001   4.696
  857TIP3   OH2 2515   1.915   0.805   4.232
  857TIP3    H1 2516   1.841   0.830   4.288
  857TIP3    H2 2517   1.988   0.796   4.293
  858TIP3   OH2 2518   7.439   2.417   0.067
  858TIP3    H1 2519   7.408   2.506   0.084
  858TIP3    H2 2520   7.506   2.402   0.134
  859TIP3   OH2 2521   7.710   0.931   3.521
  859TIP3    H1 2522   7.789   0.933   3.466
  859TIP3    H2 2523   7.703   1.019   3.557
  860TIP3   OH2 2524   5.516   5.807   3.659
  860TIP3    H1 2525   5.502   5.833   3.750
  860TIP3    H2 2526   5.517   5.711   3.662
  861TIP3   OH2 2527   5.168   1.966   0.780
  861TIP3    H1 2528   5.142   1.881   0.744
  861TIP3    H2 2529   5.228   2.002   0.715
  862TIP3   OH2 2530   5.819   2.765   0.834
  862TIP3    H1 2531   5.729   2.791   0.818
  862TIP3    H2 2532   5.867   2.791   0.756
  863TIP3   OH2 2533   4.904   2.744   0.534
  863TIP3    H1 2534   4.839   2.682   0.500
  863TIP3    H2 2535   4.977   2.739   0.473
  864TIP3   OH2 2536   0.693   6.792   6.724
  864TIP3    H1 2537   0.641   6.781   6.804
  864TIP3    H2 2538   0.673   6.880   6.694
  865TIP3   OH2 2539   4.711   0.947   4.532
  865TIP3    H1 2540   4.691   1.027   4.484
  865TIP3    H2 2541   4.734   0.883   4.464
  866TIP3   OH2 2542   6.779   0.368   4.902
  866TIP3    H1 2543   6.767   0.435   4.835
  866TIP3    H2 2544   6.706   0.382   4.963
  867TIP3   OH2 2545   0.180   1.998   3.251
  867TIP3    H1 2546   0.270   1.968   3.235
  867TIP3    H2 2547   0.178   2.019   3.344
  868TIP3   OH2 2548   5.781   6.900   5.519
  868TIP3    H1 2549   5.771   6.825   5.578
  868TIP3    H2 2550   5.861   6.942   5.548
  869TIP3   OH2 2551   0.809   1.859   4.525
  869TIP3    H1 2552   0.828   1.783   4.470
  869TIP3    H2 2553   0.714   1.861   4.529
  870TIP3   OH2 2554   7.852   0.597   0.165
  870TIP3    H1 2555   7.844   0.539   0.090
  870TIP3    H2 2556   7.935   0.571   0.207
  871TIP3   OH2 2557   3.029   0.871   3.485
  871TIP3    H1 2558   2.953   0.924   3.460
  871TIP3    H2 2559   3.098   0.897   3.424
  872TIP3   OH2 2560   3.220   1.483   4.900
  872TIP3    H1 2561   3.289   1.465   4.836
  872TIP3    H2 2562   3.144   1.510   4.847
  873TIP3   OH2 2563   6.030   3.108   0.682
  873TIP3    H1 2564   6.017   3.198   0.654
  873TIP3    H2 2565   6.119   3.106   0.716
  874TIP3   OH2 2566   3.308   4.739   6.378
  874TIP3    H1 2567   3.262   4.706   6.455
  874TIP3    H2 2568   3.245   4.732   6.307
  875TIP3   OH2 2569   4.120   6.346   1.752
  875TIP3    H1 2570   4.063   6.311   1.683
  875TIP3    H2 2571   4.061   6.359   1.827
  876TIP3   OH2 2572   3.332   7.356   3.521
  876TIP3    H1 2573   3.375   7.276   3.492
  876TIP3    H2 2574   3.354   7.421   3.455
  877TIP3   OH2 2575   1.594   1.668   5.385
  877TIP3    H1 2576   1.545   1.699   5.460
  877TIP3    H2 2577   1.633   1.748   5.347
  878TIP3   OH2 2578   4.091   1.611   4.802
  878TIP3    H1 2579   4.164   1.672   4.805
  878TIP3    H2 2580   4.044   1.634   4.721
  879TIP3   OH2 2581   8.025   5.150   5.314
  879TIP3    H1 2582   8.086   5.224   5.313
  879TIP3    H2 2583   8.050   5.099   5.391
  880TIP3   OH2 2584   4.401   5.256   1.147
  880TIP3    H1 2585   4.308   5.250   1.126
  880TIP3    H2 2586   4.407   5.328   1.210
  881TIP3   OH2 2587   2.950   0.243   2.637
  881TIP3    H1 2588   2.863   0.277   2.654
  881TIP3    H2 2589   2.959   0.247   2.541
  882TIP3   OH2 2590   7.528   3.302   4.272
  882TIP3    H1 2591   7.513   3.208   4.261
  882TIP3    H2 2592   7.607   3.308   4.326
  883TIP3   OH2 2593   5.878   7.369   4.300
  883TIP3    H1 2594   5.829   7.382   4.382
  883TIP3    H2 2595   5.820   7.316   4.245
  884TIP3   OH2 2596   4.660   5.295   5.140
  884TIP3    H1 2597   4.657   5.208   5.099
  884TIP3    H2 2598   4.685   5.277   5.231
  885TIP3   OH2 2599   7.703   0.307   0.602
  885TIP3    H1 2600   7.760   0.246   0.554
  885TIP3    H2 2601   7.754   0.387   0.611
  886TIP3   OH2 2602   4.092   7.155   4.496
  886TIP3    H1 2603   4.081   7.204   4.577
  886TIP3    H2 2604   4.177   7.185   4.462
  887TIP3   OH2 2605   2.777   7.446   5.275
  887TIP3    H1 2606   2.852   7.506   5.282
  887TIP3    H2 2607   2.801   7.371   5.328
  888TIP3   OH2 2608   7.058   1.413   3.846
  888TIP3    H1 2609   7.073   1.460   3.928
  888TIP3    H2 2610   6.966   1.386   3.850
  889TIP3   OH2 2611   4.128   2.991   3.617
  889TIP3    H1 2612   4.140   3.086   3.626
  889TIP3    H2 2613   4.142   2.957   3.705
  890TIP3   OH2 2614   6.697   2.104   0.519
  890TIP3    H1 2615   6.663   2.029   0.470
  890TIP3    H2 2616   6.757   2.147   0.457
  891TIP3   OH2 2617   4.120   2.568   6.376
  891TIP3    H1 2618   4.168   2.566   6.293
  891TIP3    H2 2619   4.171   2.627   6.431
  892TIP3   OH2 2620   5.964   7.365   6.591
  892TIP3    H1 2621   5.882   7.407   6.565
  892TIP3    H2 2622   5.961   7.364   6.686
  893TIP3   OH2 2623   3.513   2.116   2.249
  893TIP3    H1 2624   3.482   2.072   2.170
  893TIP3    H2 2625   3.605   2.137   2.231
  894TIP3   OH2 2626   3.294   3.183   1.823
  894TIP3    H1 2627   3.317   3.180   1.915
  894TIP3    H2 2628   3.375   3.159   1.777
  895TIP3   OH2 2629   7.351   2.182   3.213
  895TIP3    H1 2630   7.419   2.146   3.158
  895TIP3    H2 2631   7.366   2.277   3.212
  896TIP3   OH2 2632   4.290   7.258   6.159
  896TIP3    H1 2633   4.228   7.203   6.208
  896TIP3    H2 2634   4.353   7.195   6.123
  897TIP3   OH2 2635   6.187   0.563   0.957
  897TIP3    H1 2636   6.111   0.580   0.901
  897TIP3    H2 2637   6.262   0.586   0.902
  898TIP3   OH2 2638   5.309   5.803   2.764
  898TIP3    H1 2639   5.325   5.865   2.835
  898TIP3    H2 2640   5.218   5.818   2.738
  899TIP3   OH2 2641   4.141   3.820   1.317
  899TIP3    H1 2642   4.203   3.866   1.374
  899TIP3    H2 2643   4.158   3.855   1.229
  900TIP3   OH2 2644   0.503   3.365   1.972
  900TIP3    H1 2645   0.578   3.418   2.000
  900TIP3    H2 2646   0.522   3.343   1.880
  901TIP3   OH2 2647   0.735   5.628   6.578
  901TIP3    H1 2648   0.772   5.590   6.658
  901TIP3    H2 2649   0.719   5.552   6.521
  902TIP3   OH2 2650   3.193   3.400   2.224
  902TIP3    H1 2651   3.144   3.383   2.305
  902TIP3    H2 2652   3.283   3.377   2.245
  903TIP3   OH2 2653   1.613   5.640   3.886
  903TIP3    H1 2654   1.599   5.732   3.910
  903TIP3    H2 2655   1.614   5.593   3.969
  904TIP3   OH2 2656   8.224   3.368   5.360
  904TIP3    H1 2657   8.236   3.347   5.453
  904TIP3    H2 2658   8.196   3.459   5.359
  905TIP3   OH2 2659   0.709   7.107   2.577
  905TIP3    H1 2660   0.754   7.134   2.657
  905TIP3    H2 2661   0.780   7.092   2.514
  906TIP3   OH2 2662   2.915   5.172   6.620
  906TIP3    H1 2663   2.844   5.237   6.621
  906TIP3    H2 2664   2.915   5.136   6.709
  907TIP3   OH2 2665   2.108   2.763   1.710
  907TIP3    H1 2666   2.129   2.708   1.785
  907TIP3    H2 2667   2.042   2.824   1.743
  908TIP3   OH2 2668   3.137   2.453   5.480
  908TIP3    H1 2669   3.102   2.455   5.570
  908TIP3    H2 2670   3.124   2.362   5.452
  909TIP3   OH2 2671   3.336   3.496   2.525
  909TIP3    H1 2672   3.371   3.419   2.479
  909TIP3    H2 2673   3.394   3.568   2.499
  910TIP3   OH2 2674   5.196   2.192   2.068
  910TIP3    H1 2675   5.198   2.121   2.004
  910TIP3    H2 2676   5.113   2.180   2.114
  911TIP3   OH2 2677   3.775   7.141   3.902
  911TIP3    H1 2678   3.702   7.199   3.879
  911TIP3    H2 2679   3.736   7.054   3.906
  912TIP3   OH2 2680   6.101   3.758   5.925
  912TIP3    H1 2681   6.137   3.751   6.014
  912TIP3    H2 2682   6.124   3.847   5.897
  913TIP3   OH2 2683   6.906   6.587   2.703
  913TIP3    H1 2684   6.884   6.527   2.774
  913TIP3    H2 2685   6.831   6.582   2.643
  914TIP3   OH2 2686   0.796   6.057   3.271
  914TIP3    H1 2687   0.768   6.068   3.362
  914TIP3    H2 2688   0.722   6.088   3.219
  915TIP3   OH2 2689   1.882   0.874   2.835
  915TIP3    H1 2690   1.902   0.881   2.928
  915TIP3    H2 2691   1.896   0.782   2.814
  916TIP3   OH2 2692   7.591   6.784   0.796
  916TIP3    H1 2693   7.563   6.709   0.745
  916TIP3    H2 2694   7.614   6.748   0.882
  917TIP3   OH2 2695   0.470   0.340   1.948
  917TIP3    H1 2696   0.494   0.415   1.893
  917TIP3    H2 2697   0.422   0.379   2.022
  918TIP3   OH2 2698   4.036   6.864   0.357
  918TIP3    H1 2699   3.984   6.877   0.436
  918TIP3    H2 2700   4.054   6.952   0.325
  919TIP3   OH2 2701   8.256   2.885   2.683
  919TIP3    H1 2702   8.289   2.797   2.665
  919TIP3    H2 2703   8.163   2.881   2.662
  920TIP3   OH2 2704   7.250   3.418   6.373
  920TIP3    H1 2705   7.188   3.474   6.327
  920TIP3    H2 2706   7.303   3.478   6.426
  921TIP3   OH2 2707   4.463   3.989   0.276
  921TIP3    H1 2708   4.516   4.050   0.328
  921TIP3    H2 2709   4.527   3.937   0.228
  922TIP3   OH2 2710   7.333   2.918   4.189
  922TIP3    H1 2711   7.274   2.862   4.240
  922TIP3    H2 2712   7.406   2.937   4.249
  923TIP3   OH2 2713   3.613   3.798   3.966
  923TIP3    H1 2714   3.540   3.782   3.905
  923TIP3    H2 2715   3.572   3.796   4.052
  924TIP3   OH2 2716   7.784   2.702   2.480
  924TIP3    H1 2717   7.736   2.775   2.517
  924TIP3    H2 2718   7.718   2.634   2.466
  925TIP3   OH2 2719   4.837   3.112   1.585
  925TIP3    H1 2720   4.820   3.167   1.661
  925TIP3    H2 2721   4.933   3.109   1.578
  926TIP3   OH2 2722   3.335   0.563   5.395
  926TIP3    H1 2723   3.277   0.629   5.356
  926TIP3    H2 2724   3.302   0.553   5.484
  927TIP3   OH2 2725   6.241   5.417   1.930
  927TIP3    H1 2726   6.242   5.438   1.837
  927TIP3    H2 2727   6.150   5.429   1.957
  928TIP3   OH2 2728   5.127   0.307   4.755
  928TIP3    H1 2729   5.185   0.320   4.830
  928TIP3    H2 2730   5.041   0.293   4.795
  929TIP3   OH2 2731   4.443   4.503   3.397
  929TIP3    H1 2732   4.482   4.569   3.455
  929TIP3    H2 2733   4.348   4.518   3.404
  930TIP3   OH2 2734   1.572   4.427   3.419
  930TIP3    H1 2735   1.560   4.444   3.512
  930TIP3    H2 2736   1.484   4.406   3.387
  931TIP3   OH2 2737   0.082   4.870   6.398
  931TIP3    H1 2738   0.099   4.825   6.315
  931TIP3    H2 2739   0.033   4.807   6.450
  932TIP3   OH2 2740   7.712   6.336   2.445
  932TIP3    H1 2741   7.650   6.264   2.433
  932TIP3    H2 2742   7.669   6.411   2.403
  933TIP3   OH2 2743   6.844   6.797   0.673
  933TIP3    H1 2744   6.924   6.752   0.645
  933TIP3    H2 2745   6.863   6.890   0.659
  934TIP3   OH2 2746   7.991   0.305   2.895
  934TIP3    H1 2747   7.980   0.380   2.953
  934TIP3    H2 2748   7.920   0.246   2.918
  935TIP3   OH2 2749   7.763   5.295   6.557
  935TIP3    H1 2750   7.693   5.233   6.537
  935TIP3    H2 2751   7.720   5.363   6.610
  936TIP3   OH2 2752   3.273   0.330   2.045
  936TIP3    H1 2753   3.341   0.384   2.004
  936TIP3    H2 2754   3.319   0.279   2.111
  937TIP3   OH2 2755   7.733   1.731   1.227
  937TIP3    H1 2756   7.739   1.636   1.240
  937TIP3    H2 2757   7.654   1.743   1.175
  938TIP3   OH2 2758   0.471   2.768   0.241
  938TIP3    H1 2759   0.448   2.859   0.223
  938TIP3    H2 2760   0.414   2.743   0.313
  939TIP3   OH2 2761   5.496   7.555   6.075
  939TIP3    H1 2762   5.568   7.558   6.012
  939TIP3    H2 2763   5.462   7.645   6.078
  940TIP3   OH2 2764   3.388   4.699   0.952
  940TIP3    H1 2765   3.440   4.629   0.992
  940TIP3    H2 2766   3.298   4.680   0.979
  941TIP3   OH2 2767   5.193   2.872   3.320
  941TIP3    H1 2768   5.116   2.816   3.310
  941TIP3    H2 2769   5.262   2.813   3.351
  942TIP3   OH2 2770   5.666   3.236   6.648
  942TIP3    H1 2771   5.631   3.281   6.725
  942TIP3    H2 2772   5.716   3.303   6.602
  943TIP3   OH2 2773   0.286   1.239   4.818
  943TIP3    H1 2774   0.342   1.192   4.758
  943TIP3    H2 2775   0.260   1.318   4.771
  944TIP3   OH2 2776   3.533   4.210   1.267
  944TIP3    H1 2777   3.569   4.254   1.189
  944TIP3    H2 2778   3.551   4.117   1.252
  945TIP3   OH2 2779   4.574   2.644   5.536
  945TIP3    H1 2780   4.523   2.724   5.548
  945TIP3    H2 2781   4.661   2.666   5.570
  946TIP3   OH2 2782   6.758   1.497   3.262
  946TIP3    H1 2783   6.745   1.407   3.230
  946TIP3    H2 2784   6.686   1.511   3.324
  947TIP3   OH2 2785   5.335   2.444   4.372
  947TIP3    H1 2786   5.280   2.510   4.329
  947TIP3    H2 2787   5.414   2.491   4.397
  948TIP3   OH2 2788   0.147   6.775   2.876
  948TIP3    H1 2789   0.212   6.716   2.840
  948TIP3    H2 2790   0.078   6.779   2.810
  949TIP3   OH2 2791   7.096   4.886   3.272
  949TIP3    H1 2792   7.040   4.891   3.350
  949TIP3    H2 2793   7.177   4.846   3.303
  950TIP3   OH2 2794   0.885   5.753   1.247
  950TIP3    H1 2795   0.916   5.809   1.176
  950TIP3    H2 2796   0.817   5.804   1.290
  951TIP3   OH2 2797   4.074   6.536   2.944
  951TIP3    H1 2798   3.995   6.486   2.923
  951TIP3    H2 2799   4.041   6.619   2.978
  952TIP3   OH2 2800   3.980   5.838   4.084
  952TIP3    H1 2801   3.912   5.905   4.097
  952TIP3    H2 2802   3.932   5.755   4.087
  953TIP3   OH2 2803   2.594   4.216   0.167
  953TIP3    H1 2804   2.509   4.233   0.207
  953TIP3    H2 2805   2.612   4.293   0.113
  954TIP3   OH2 2806   4.745   6.847   2.043
  954TIP3    H1 2807   4.756   6.766   2.093
  954TIP3    H2 2808   4.775   6.825   1.955
  955TIP3   OH2 2809   1.344   4.799   2.744
  955TIP3    H1 2810   1.365   4.891   2.759
  955TIP3    H2 2811   1.252   4.791   2.770
  956TIP3   OH2 2812   3.934   7.203   4.105
  956TIP3    H1 2813   3.871   7.230   4.172
  956TIP3    H2 2814   3.883   7.202   4.024
  957TIP3   OH2 2815   5.848   5.267   6.553
  957TIP3    H1 2816   5.876   5.273   6.461
  957TIP3    H2 2817   5.816   5.354   6.574
  958TIP3   OH2 2818   0.473   2.199   4.453
  958TIP3    H1 2819   0.493   2.273   4.511
  958TIP3    H2 2820   0.557   2.158   4.436
  959TIP3   OH2 2821  -0.016   4.445   5.288
  959TIP3    H1 2822   0.002   4.355   5.317
  959TIP3    H2 2823   0.043   4.500   5.340
  960TIP3   OH2 2824   5.846   4.799   2.583
  960TIP3    H1 2825   5.832   4.709   2.612
  960TIP3    H2 2826   5.906   4.792   2.509
  961TIP3   OH2 2827   5.798   4.536   2.338
  961TIP3    H1 2828   5.892   4.520   2.348
  961TIP3    H2 2829   5.765   4.457   2.295
  962TIP3   OH2 2830   8.155   2.019   4.495
  962TIP3    H1 2831   8.068   2.022   4.536
  962TIP3    H2 2832   8.149   1.949   4.431
  963TIP3   OH2 2833   6.036   7.738   2.650
  963TIP3    H1 2834   6.040   7.820   2.601
  963TIP3    H2 2835   5.964   7.689   2.608
  964TIP3   OH2 2836   1.343   4.486   1.132
  964TIP3    H1 2837   1.385   4.496   1.046
  964TIP3    H2 2838   1.279   4.416   1.119
  965TIP3   OH2 2839   7.332   4.765   1.487
  965TIP3    H1 2840   7.254   4.785   1.435
  965TIP3    H2 2841   7.364   4.682   1.451
  966TIP3   OH2 2842   5.007   3.106   1.235
  966TIP3    H1 2843   4.978   3.046   1.304
  966TIP3    H2 2844   4.961   3.076   1.157
  967TIP3   OH2 2845   5.069   5.439   5.479
  967TIP3    H1 2846   5.014   5.513   5.504
  967TIP3    H2 2847   5.156   5.462   5.513
  968TIP3   OH2 2848   4.618   4.830   5.118
  968TIP3    H1 2849   4.605   4.773   5.042
  968TIP3    H2 2850   4.708   4.812   5.146
  969TIP3   OH2 2851   0.132   6.500   5.638
  969TIP3    H1 2852   0.054   6.455   5.606
  969TIP3    H2 2853   0.177   6.531   5.559
  970TIP3   OH2 2854   3.563   0.715   0.693
  970TIP3    H1 2855   3.552   0.703   0.599
  970TIP3    H2 2856   3.511   0.792   0.714
  971TIP3   OH2 2857   4.006   4.070   0.888
  971TIP3    H1 2858   4.094   4.100   0.868
  971TIP3    H2 2859   3.998   4.079   0.983
  972TIP3   OH2 2860   5.629   5.456   1.286
  972TIP3    H1 2861   5.658   5.497   1.205
  972TIP3    H2 2862   5.708   5.416   1.323
  973TIP3   OH2 2863   3.643   3.514   6.127
  973TIP3    H1 2864   3.658   3.479   6.039
  973TIP3    H2 2865   3.552   3.492   6.147
  974TIP3   OH2 2866   5.690   6.681   5.718
  974TIP3    H1 2867   5.618   6.623   5.694
  974TIP3    H2 2868   5.666   6.712   5.806
  975TIP3   OH2 2869   2.426   6.910   2.283
  975TIP3    H1 2870   2.377   6.858   2.220
  975TIP3    H2 2871   2.359   6.944   2.344
  976TIP3   OH2 2872   5.827   7.033   3.925
  976TIP3    H1 2873   5.875   7.037   4.008
  976TIP3    H2 2874   5.748   6.982   3.945
  977TIP3   OH2 2875   0.761   1.706   1.996
  977TIP3    H1 2876   0.754   1.613   2.015
  977TIP3    H2 2877   0.850   1.717   1.962
  978TIP3   OH2 2878   7.938   4.723   2.257
  978TIP3    H1 2879   7.874   4.761   2.318
  978TIP3    H2 2880   8.022   4.761   2.283
  979TIP3   OH2 2881   0.420   5.161   0.675
  979TIP3    H1 2882   0.396   5.201   0.592
  979TIP3    H2 2883   0.470   5.082   0.651
  980TIP3   OH2 2884   2.411   4.800   3.098
  980TIP3    H1 2885   2.403   4.880   3.045
  980TIP3    H2 2886   2.326   4.790   3.140
  981TIP3   OH2 2887   0.480   3.258   2.798
  981TIP3    H1 2888   0.410   3.249   2.733
  981TIP3    H2 2889   0.537   3.326   2.763
  982TIP3   OH2 2890   5.510   3.738   5.572
  982TIP3    H1 2891   5.495   3.668   5.634
  982TIP3    H2 2892   5.553   3.696   5.497
  983TIP3   OH2 2893   8.295   7.245   0.391
  983TIP3    H1 2894   8.301   7.339   0.379
  983TIP3    H2 2895   8.202   7.225   0.382
  984TIP3   OH2 2896   6.568   4.243   0.431
  984TIP3    H1 2897   6.505   4.188   0.385
  984TIP3    H2 2898   6.558   4.220   0.523
  985TIP3   OH2 2899   7.791   6.775   5.049
  985TIP3    H1 2900   7.768   6.864   5.022
  985TIP3    H2 2901   7.796   6.725   4.967
  986TIP3   OH2 2902   0.678   1.427   6.659
  986TIP3    H1 2903   0.771   1.405   6.666
  986TIP3    H2 2904   0.633   1.342   6.664
  987TIP3   OH2 2905   0.341   7.457   0.617
  987TIP3    H1 2906   0.317   7.503   0.537
  987TIP3    H2 2907   0.325   7.365   0.597
  988TIP3   OH2 2908   6.038   4.020   6.220
  988TIP3    H1 2909   6.004   3.943   6.264
  988TIP3    H2 2910   6.094   4.063   6.285
  989TIP3   OH2 2911   5.453   1.690   3.594
  989TIP3    H1 2912   5.514   1.763   3.582
  989TIP3    H2 2913   5.508   1.614   3.612
  990TIP3   OH2 2914   2.604   5.095   6.171
  990TIP3    H1 2915   2.610   5.003   6.197
  990TIP3    H2 2916   2.580   5.091   6.078
  991TIP3   OH2 2917   3.895   0.164   0.941
  991TIP3    H1 2918   3.815   0.164   0.994
  991TIP3    H2 2919   3.963   0.134   1.001
  992TIP3   OH2 2920   0.592   5.599   1.771
  992TIP3    H1 2921   0.627   5.560   1.691
  992TIP3    H2 2922   0.502   5.568   1.776
  993TIP3   OH2 2923   7.048   0.230   5.745
  993TIP3    H1 2924   7.087   0.181   5.817
  993TIP3    H2 2925   7.096   0.313   5.744
  994TIP3   OH2 2926   0.623   5.416   4.447
  994TIP3    H1 2927   0.564   5.462   4.387
  994TIP3    H2 2928   0.700   5.474   4.454
  995TIP3   OH2 2929   0.361   6.978   6.084
  995TIP3    H1 2930   0.305   7.005   6.157
  995TIP3    H2 2931   0.334   7.035   6.012
  996TIP3   OH2 2932   3.562   1.997   6.271
  996TIP3    H1 2933   3.654   1.971   6.261
  996TIP3    H2 2934   3.533   2.019   6.183
  997TIP3   OH2 2935   2.407   4.378   4.711
  997TIP3    H1 2936   2.320   4.411   4.691
  997TIP3    H2 2937   2.436   4.429   4.787
  998TIP3   OH2 2938   3.356   1.669   5.321
  998TIP3    H1 2939   3.380   1.668   5.228
  998TIP3    H2 2940   3.434   1.636   5.366
  999TIP3   OH2 2941   3.359   7.102   3.898
  999TIP3    H1 2942   3.367   7.055   3.981
  999TIP3    H2 2943   3.437   7.158   3.894
 1000TIP3   OH2 2944   2.744   1.151   0.157
 1000TIP3    H1 2945   2.689   1.089   0.205
 1000TIP3    H2 2946   2.742   1.120   0.067
 1001TIP3   OH2 2947   6.617   6.627   3.963
 1001TIP3    H1 2948   6.682   6.560   3.942
 1001TIP3    H2 2949   6.591   6.662   3.878
 1002TIP3   OH2 2950   0.669   5.639   5.142
 1002TIP3    H1 2951   0.750   5.677   5.107
 1002TIP3    H2 2952   0.699   5.575   5.207
 1003TIP3   OH2 2953   1.050   5.755   4.867
 1003TIP3    H1 2954   0.957   5.774   4.854
 1003TIP3    H2 2955   1.094   5.794   4.792
 1004TIP3   OH2 2956   4.537   0.466   6.732
 1004TIP3    H1 2957   4.542   0.454   6.637
 1004TIP3    H2 2958   4.454   0.427   6.757
 1005TIP3   OH2 2959   6.427   1.439   5.262
 1005TIP3    H1 2960   6.362   1.502   5.231
 1005TIP3    H2 2961   6.472   1.410   5.182
 1006TIP3   OH2 2962   4.996   6.797   3.662
 1006TIP3    H1 2963   5.056   6.754   3.601
 1006TIP3    H2 2964   5.053   6.841   3.725
 1007TIP3   OH2 2965   4.427   6.154   5.010
 1007TIP3    H1 2966   4.439   6.222   4.943
 1007TIP3    H2 2967   4.349   6.106   4.980
 1008TIP3   OH2 2968   1.305   1.827   6.284
 1008TIP3    H1 2969   1.239   1.757   6.276
 1008TIP3    H2 2970   1.344   1.813   6.370
 1009TIP3   OH2 2971   4.463   7.740   2.277
 1009TIP3    H1 2972   4.495   7.774   2.361
 1009TIP3    H2 2973   4.452   7.646   2.293
 1010TIP3   OH2 2974   0.495   7.189   1.653
 1010TIP3    H1 2975   0.553   7.145   1.716
 1010TIP3    H2 2976   0.411   7.193   1.698
 1011TIP3   OH2 2977   7.086   2.493   3.241
 1011TIP3    H1 2978   7.081   2.578   3.197
 1011TIP3    H2 2979   7.025   2.438   3.192
 1012TIP3   OH2 2980   7.861   2.673   0.274
 1012TIP3    H1 2981   7.861   2.579   0.292
 1012TIP3    H2 2982   7.954   2.697   0.268
 1013TIP3   OH2 2983   3.153   6.691   3.922
 1013TIP3    H1 2984   3.214   6.685   3.995
 1013TIP3    H2 2985   3.165   6.610   3.873
 1014TIP3   OH2 2986   3.738   3.422   6.588
 1014TIP3    H1 2987   3.661   3.395   6.639
 1014TIP3    H2 2988   3.747   3.515   6.605
 1015TIP3   OH2 2989   0.285   4.216   6.078
 1015TIP3    H1 2990   0.270   4.273   6.002
 1015TIP3    H2 2991   0.291   4.276   6.152
 1016TIP3   OH2 2992   8.070   7.068   6.452
 1016TIP3    H1 2993   8.001   7.006   6.431
 1016TIP3    H2 2994   8.119   7.078   6.371
 1017TIP3   OH2 2995   8.043   1.826   6.044
 1017TIP3    H1 2996   7.952   1.817   6.072
 1017TIP3    H2 2997   8.051   1.769   5.968
 1018TIP3   OH2 2998   5.584   6.337   0.435
 1018TIP3    H1 2999   5.672   6.300   0.431
 1018TIP3    H2 3000   5.563   6.341   0.528
 1019TIP3   OH2 3001   2.593   1.907   6.690
 1019TIP3    H1 3002   2.613   1.896   6.783
 1019TIP3    H2 3003   2.669   1.953   6.654
 1020TIP3   OH2 3004   5.424   0.400   3.183
 1020TIP3    H1 3005   5.451   0.413   3.274
 1020TIP3    H2 3006   5.370   0.477   3.163
 1021TIP3   OH2 3007   2.909   4.051   2.021
 1021TIP3    H1 3008   2.872   3.993   2.088
 1021TIP3    H2 3009   2.842   4.118   2.007
 1022TIP3   OH2 3010   0.475   3.790   4.351
 1022TIP3    H1 3011   0.498   3.747   4.269
 1022TIP3    H2 3012   0.494   3.883   4.337
 1023TIP3   OH2 3013   0.330   0.675   0.199
 1023TIP3    H1 3014   0.417   0.708   0.221
 1023TIP3    H2 3015   0.344   0.583   0.177
 1024TIP3   OH2 3016   0.047   1.502   2.960
 1024TIP3    H1 3017   0.119   1.453   2.920
 1024TIP3    H2 3018   0.025   1.569   2.896
 1025TIP3   OH2 3019   3.897   4.013   0.092
 1025TIP3    H1 3020   3.972   3.953   0.095
 1025TIP3    H2 3021   3.845   3.990   0.169
 1026TIP3   OH2 3022   3.258   6.170   3.278
 1026TIP3    H1 3023   3.193   6.183   3.347
 1026TIP3    H2 3024   3.208   6.176   3.197
 1027TIP3   OH2 3025   4.313   7.238   1.743
 1027TIP3    H1 3026   4.218   7.252   1.750
 1027TIP3    H2 3027   4.338   7.200   1.827
 1028TIP3   OH2 3028   5.079   3.379   0.630
 1028TIP3    H1 3029   5.108   3.443   0.565
 1028TIP3    H2 3030   5.058   3.432   0.707
 1029TIP3   OH2 3031   3.554   4.426   2.190
 1029TIP3    H1 3032   3.537   4.347   2.240
 1029TIP3    H2 3033   3.516   4.409   2.103
 1030TIP3   OH2 3034   5.087   2.850   4.489
 1030TIP3    H1 3035   4.992   2.861   4.483
 1030TIP3    H2 3036   5.122   2.939   4.487
 1031TIP3   OH2 3037   4.318   1.457   0.119
 1031TIP3    H1 3038   4.261   1.482   0.192
 1031TIP3    H2 3039   4.322   1.535   0.064
 1032TIP3   OH2 3040   8.039   2.769   6.686
 1032TIP3    H1 3041   8.044   2.674   6.690
 1032TIP3    H2 3042   8.092   2.793   6.610
 1033TIP3   OH2 3043   4.456   1.433   0.419
 1033TIP3    H1 3044   4.439   1.339   0.411
 1033TIP3    H2 3045   4.535   1.447   0.366
 1034TIP3   OH2 3046   7.451   4.619   5.462
 1034TIP3    H1 3047   7.402   4.539   5.442
 1034TIP3    H2 3048   7.446   4.670   5.382
 1035TIP3   OH2 3049   7.750   7.488   0.667
 1035TIP3    H1 3050   7.676   7.461   0.612
 1035TIP3    H2 3051   7.827   7.451   0.624
 1036TIP3   OH2 3052   1.382   5.054   1.813
 1036TIP3    H1 3053   1.316   4.985   1.802
 1036TIP3    H2 3054   1.387   5.067   1.907
 1037TIP3   OH2 3055   1.207   5.300   2.251
 1037TIP3    H1 3056   1.183   5.391   2.265
 1037TIP3    H2 3057   1.184   5.283   2.159
 1038TIP3   OH2 3058   3.718   0.250   3.778
 1038TIP3    H1 3059   3.770   0.170   3.789
 1038TIP3    H2 3060   3.770   0.304   3.719
 1039TIP3   OH2 3061   2.924   1.563   0.135
 1039TIP3    H1 3062   2.987   1.597   0.199
 1039TIP3    H2 3063   2.870   1.502   0.184
 1040TIP3   OH2 3064   4.594   6.499   2.581
 1040TIP3    H1 3065   4.577   6.593   2.574
 1040TIP3    H2 3066   4.650   6.478   2.507
 1041TIP3   OH2 3067   1.490   7.189   1.186
 1041TIP3    H1 3068   1.499   7.169   1.279
 1041TIP3    H2 3069   1.425   7.126   1.154
 1042TIP3   OH2 3070   1.997   4.279   2.347
 1042TIP3    H1 3071   2.078   4.330   2.344
 1042TIP3    H2 3072   1.966   4.278   2.257
 1043TIP3   OH2 3073   6.346   1.362   6.418
 1043TIP3    H1 3074   6.341   1.452   6.451
 1043TIP3    H2 3075   6.255   1.336   6.404
 1044TIP3   OH2 3076   7.938   5.750   3.170
 1044TIP3    H1 3077   8.004   5.721   3.107
 1044TIP3    H2 3078   7.899   5.669   3.203
 1045TIP3   OH2 3079   0.196   7.544   2.672
 1045TIP3    H1 3080   0.130   7.487   2.711
 1045TIP3    H2 3081   0.273   7.488   2.661
 1046TIP3   OH2 3082   6.459   3.659   2.793
 1046TIP3    H1 3083   6.496   3.643   2.881
 1046TIP3    H2 3084   6.446   3.754   2.790
 1047TIP3   OH2 3085   2.971   5.527   3.222
 1047TIP3    H1 3086   2.977   5.465   3.295
 1047TIP3    H2 3087   3.026   5.601   3.249
 1048TIP3   OH2 3088   2.883   2.235   0.845
 1048TIP3    H1 3089   2.788   2.236   0.859
 1048TIP3    H2 3090   2.920   2.259   0.930
 1049TIP3   OH2 3091   3.954   1.996   3.598
 1049TIP3    H1 3092   3.861   2.014   3.588
 1049TIP3    H2 3093   3.959   1.903   3.617
 1050TIP3   OH2 3094   0.148   3.924   1.770
 1050TIP3    H1 3095   0.090   3.960   1.703
 1050TIP3    H2 3096   0.131   3.978   1.847
 1051TIP3   OH2 3097   4.868   5.618   5.487
 1051TIP3    H1 3098   4.926   5.690   5.512
 1051TIP3    H2 3099   4.787   5.661   5.461
 1052TIP3   OH2 3100   7.164   4.615   4.561
 1052TIP3    H1 3101   7.150   4.523   4.584
 1052TIP3    H2 3102   7.259   4.623   4.553
 1053TIP3   OH2 3103   8.185   2.907   6.154
 1053TIP3    H1 3104   8.150   2.877   6.070
 1053TIP3    H2 3105   8.108   2.916   6.210
 1054TIP3   OH2 3106   8.204   2.930   5.014
 1054TIP3    H1 3107   8.183   2.850   4.966
 1054TIP3    H2 3108   8.197   2.904   5.106
 1055TIP3   OH2 3109   2.027   0.204   1.497
 1055TIP3    H1 3110   2.024   0.224   1.591
 1055TIP3    H2 3111   1.958   0.139   1.484
 1056TIP3   OH2 3112   3.917   4.486   4.190
 1056TIP3    H1 3113   3.849   4.494   4.124
 1056TIP3    H2 3114   3.948   4.395   4.182
 1057TIP3   OH2 3115   4.716   4.549   4.974
 1057TIP3    H1 3116   4.640   4.501   5.004
 1057TIP3    H2 3117   4.787   4.523   5.033
 1058TIP3   OH2 3118   5.252   2.810   5.993
 1058TIP3    H1 3119   5.183   2.745   5.979
 1058TIP3    H2 3120   5.222   2.861   6.068
 1059TIP3   OH2 3121   0.731   1.475   0.709
 1059TIP3    H1 3122   0.784   1.466   0.630
 1059TIP3    H2 3123   0.714   1.568   0.718
 1060TIP3   OH2 3124   6.853   4.695   3.329
 1060TIP3    H1 3125   6.842   4.789   3.343
 1060TIP3    H2 3126   6.828   4.655   3.412
 1061TIP3   OH2 3127   6.012   6.309   3.199
 1061TIP3    H1 3128   6.051   6.352   3.123
 1061TIP3    H2 3129   5.921   6.339   3.201
 1062TIP3   OH2 3130   4.466   7.199   4.295
 1062TIP3    H1 3131   4.557   7.179   4.318
 1062TIP3    H2 3132   4.454   7.160   4.208
 1063TIP3   OH2 3133   1.470   7.386   4.327
 1063TIP3    H1 3134   1.443   7.477   4.312
 1063TIP3    H2 3135   1.388   7.338   4.334
 1064TIP3   OH2 3136   4.477   3.311   3.947
 1064TIP3    H1 3137   4.501   3.223   3.975
 1064TIP3    H2 3138   4.556   3.346   3.905
 1065TIP3   OH2 3139   5.140   7.525   4.447
 1065TIP3    H1 3140   5.173   7.581   4.518
 1065TIP3    H2 3141   5.193   7.446   4.453
 1066TIP3   OH2 3142   7.917   1.941   1.252
 1066TIP3    H1 3143   7.855   1.868   1.248
 1066TIP3    H2 3144   7.950   1.939   1.342
 1067TIP3   OH2 3145   5.376   0.961   1.962
 1067TIP3    H1 3146   5.389   1.055   1.952
 1067TIP3    H2 3147   5.287   0.953   1.998
 1068TIP3   OH2 3148   2.188   4.351   6.441
 1068TIP3    H1 3149   2.226   4.280   6.493
 1068TIP3    H2 3150   2.122   4.307   6.387
 1069TIP3   OH2 3151   2.715   1.605   5.718
 1069TIP3    H1 3152   2.752   1.520   5.742
 1069TIP3    H2 3153   2.777   1.669   5.753
 1070TIP3   OH2 3154   6.393   5.468   5.430
 1070TIP3    H1 3155   6.442   5.518   5.495
 1070TIP3    H2 3156   6.438   5.383   5.426
 1071TIP3   OH2 3157   3.300   0.375   1.511
 1071TIP3    H1 3158   3.298   0.469   1.496
 1071TIP3    H2 3159   3.353   0.363   1.589
 1072TIP3   OH2 3160   8.123   0.585   6.383
 1072TIP3    H1 3161   8.163   0.539   6.309
 1072TIP3    H2 3162   8.195   0.594   6.446
 1073TIP3   OH2 3163   6.786   1.364   5.155
 1073TIP3    H1 3164   6.744   1.369   5.241
 1073TIP3    H2 3165   6.807   1.271   5.144
 1074TIP3   OH2 3166   6.960   0.931   2.310
 1074TIP3    H1 3167   6.984   1.011   2.357
 1074TIP3    H2 3168   7.006   0.938   2.226
 1075TIP3   OH2 3169   5.949   2.015   1.970
 1075TIP3    H1 3170   5.860   1.988   1.947
 1075TIP3    H2 3171   5.972   2.080   1.903
 1076TIP3   OH2 3172   7.082   3.119   4.399
 1076TIP3    H1 3173   7.144   3.179   4.358
 1076TIP3    H2 3174   7.012   3.176   4.433
 1077TIP3   OH2 3175   8.037   6.745   2.666
 1077TIP3    H1 3176   8.003   6.756   2.755
 1077TIP3    H2 3177   8.024   6.831   2.625
 1078TIP3   OH2 3178   5.957   5.480   1.422
 1078TIP3    H1 3179   5.901   5.496   1.498
 1078TIP3    H2 3180   6.001   5.397   1.443
 1079TIP3   OH2 3181   7.037   5.571   2.283
 1079TIP3    H1 3182   6.981   5.493   2.284
 1079TIP3    H2 3183   7.119   5.541   2.322
 1080TIP3   OH2 3184   1.553   3.731   5.306
 1080TIP3    H1 3185   1.479   3.792   5.304
 1080TIP3    H2 3186   1.617   3.768   5.245
 1081TIP3   OH2 3187   3.147   6.210   0.769
 1081TIP3    H1 3188   3.196   6.154   0.828
 1081TIP3    H2 3189   3.171   6.179   0.681
 1082TIP3   OH2 3190   3.336   6.527   1.692
 1082TIP3    H1 3191   3.302   6.465   1.627
 1082TIP3    H2 3192   3.370   6.471   1.762
 1083TIP3   OH2 3193   2.722   6.391   4.316
 1083TIP3    H1 3194   2.809   6.406   4.353
 1083TIP3    H2 3195   2.695   6.306   4.351
 1084TIP3   OH2 3196   1.285   3.455   2.746
 1084TIP3    H1 3197   1.360   3.444   2.688
 1084TIP3    H2 3198   1.252   3.366   2.759
 1085TIP3   OH2 3199   5.140   3.279   4.910
 1085TIP3    H1 3200   5.048   3.305   4.899
 1085TIP3    H2 3201   5.172   3.333   4.982
 1086TIP3   OH2 3202   0.972   5.601   3.252
 1086TIP3    H1 3203   0.885   5.577   3.282
 1086TIP3    H2 3204   0.960   5.626   3.160
 1087TIP3   OH2 3205   3.992   6.664   0.696
 1087TIP3    H1 3206   3.946   6.639   0.776
 1087TIP3    H2 3207   4.063   6.600   0.688
 1088TIP3   OH2 3208   0.613   4.496   4.258
 1088TIP3    H1 3209   0.654   4.561   4.201
 1088TIP3    H2 3210   0.683   4.465   4.315
 1089TIP3   OH2 3211   0.241   5.694   2.861
 1089TIP3    H1 3212   0.183   5.628   2.898
 1089TIP3    H2 3213   0.328   5.671   2.895
 1090TIP3   OH2 3214   4.023   3.870   2.168
 1090TIP3    H1 3215   4.089   3.811   2.204
 1090TIP3    H2 3216   3.945   3.816   2.157
 1091TIP3   OH2 3217   4.855   6.978   3.023
 1091TIP3    H1 3218   4.797   6.983   3.099
 1091TIP3    H2 3219   4.936   6.940   3.057
 1092TIP3   OH2 3220   1.164   7.748   4.519
 1092TIP3    H1 3221   1.096   7.776   4.581
 1092TIP3    H2 3222   1.117   7.722   4.441
 1093TIP3   OH2 3223   0.533   5.574   2.266
 1093TIP3    H1 3224   0.477   5.590   2.190
 1093TIP3    H2 3225   0.575   5.489   2.247
 1094TIP3   OH2 3226   7.908   2.347   2.237
 1094TIP3    H1 3227   7.914   2.297   2.318
 1094TIP3    H2 3228   7.836   2.408   2.251
 1095TIP3   OH2 3229   7.496   6.188   6.636
 1095TIP3    H1 3230   7.492   6.129   6.561
 1095TIP3    H2 3231   7.467   6.272   6.601
 1096TIP3   OH2 3232   7.416   0.415   0.903
 1096TIP3    H1 3233   7.461   0.488   0.861
 1096TIP3    H2 3234   7.443   0.420   0.995
 1097TIP3   OH2 3235   4.530   6.768   2.705
 1097TIP3    H1 3236   4.506   6.858   2.681
 1097TIP3    H2 3237   4.623   6.772   2.724
 1098TIP3   OH2 3238   7.174   6.813   4.557
 1098TIP3    H1 3239   7.246   6.799   4.618
 1098TIP3    H2 3240   7.203   6.772   4.475
 1099TIP3   OH2 3241   6.613   0.399   0.085
 1099TIP3    H1 3242   6.550   0.416   0.015
 1099TIP3    H2 3243   6.594   0.309   0.112
 1100TIP3   OH2 3244   0.675   4.463   6.392
 1100TIP3    H1 3245   0.750   4.405   6.382
 1100TIP3    H2 3246   0.606   4.407   6.429
 1101TIP3   OH2 3247   5.458   2.903   3.207
 1101TIP3    H1 3248   5.369   2.910   3.241
 1101TIP3    H2 3249   5.461   2.967   3.136
 1102TIP3   OH2 3250   1.492   7.668   6.345
 1102TIP3    H1 3251   1.516   7.585   6.305
 1102TIP3    H2 3252   1.559   7.683   6.412
 1103TIP3   OH2 3253   2.385   2.891   4.694
 1103TIP3    H1 3254   2.329   2.835   4.640
 1103TIP3    H2 3255   2.467   2.897   4.644
 1104TIP3   OH2 3256   3.537   2.803   5.535
 1104TIP3    H1 3257   3.476   2.738   5.500
 1104TIP3    H2 3258   3.499   2.887   5.510
 1105TIP3   OH2 3259   2.070   1.973   3.993
 1105TIP3    H1 3260   2.064   1.956   4.087
 1105TIP3    H2 3261   2.160   2.002   3.980
 1106TIP3   OH2 3262   7.712   5.658   6.302
 1106TIP3    H1 3263   7.761   5.689   6.378
 1106TIP3    H2 3264   7.778   5.615   6.247
 1107TIP3   OH2 3265   6.241   7.633   5.692
 1107TIP3    H1 3266   6.304   7.700   5.718
 1107TIP3    H2 3267   6.279   7.593   5.614
 1108TIP3   OH2 3268   2.179   5.087   4.273
 1108TIP3    H1 3269   2.105   5.026   4.277
 1108TIP3    H2 3270   2.213   5.079   4.184
 1109TIP3   OH2 3271   2.756   2.205   0.367
 1109TIP3    H1 3272   2.752   2.204   0.271
 1109TIP3    H2 3273   2.718   2.121   0.393
 1110TIP3   OH2 3274   2.879   1.884   0.757
 1110TIP3    H1 3275   2.940   1.955   0.738
 1110TIP3    H2 3276   2.807   1.927   0.804
 1111TIP3   OH2 3277   3.487   2.503   0.872
 1111TIP3    H1 3278   3.471   2.595   0.891
 1111TIP3    H2 3279   3.439   2.456   0.941
 1112TIP3   OH2 3280   0.288   3.361   5.761
 1112TIP3    H1 3281   0.359   3.392   5.705
 1112TIP3    H2 3282   0.293   3.266   5.756
 1113TIP3   OH2 3283   7.252   5.751   5.229
 1113TIP3    H1 3284   7.250   5.668   5.181
 1113TIP3    H2 3285   7.183   5.803   5.190
 1114TIP3   OH2 3286   2.233   4.056   1.837
 1114TIP3    H1 3287   2.252   4.132   1.781
 1114TIP3    H2 3288   2.296   3.989   1.810
 1115TIP3   OH2 3289   1.994   5.395   5.813
 1115TIP3    H1 3290   2.002   5.315   5.865
 1115TIP3    H2 3291   1.922   5.377   5.753
 1116TIP3   OH2 3292   5.619   6.760   3.357
 1116TIP3    H1 3293   5.560   6.835   3.345
 1116TIP3    H2 3294   5.691   6.794   3.409
 1117TIP3   OH2 3295   0.517   0.769   0.639
 1117TIP3    H1 3296   0.505   0.676   0.656
 1117TIP3    H2 3297   0.608   0.778   0.612
 1118TIP3   OH2 3298   1.898   6.573   4.984
 1118TIP3    H1 3299   1.942   6.550   5.066
 1118TIP3    H2 3300   1.844   6.648   5.006
 1119TIP3   OH2 3301   7.426   7.063   4.357
 1119TIP3    H1 3302   7.401   7.113   4.280
 1119TIP3    H2 3303   7.440   6.974   4.325
 1120TIP3   OH2 3304   7.978   5.862   2.541
 1120TIP3    H1 3305   7.924   5.941   2.545
 1120TIP3    H2 3306   8.060   5.891   2.502
 1121TIP3   OH2 3307   1.498   6.972   0.913
 1121TIP3    H1 3308   1.587   6.947   0.936
 1121TIP3    H2 3309   1.443   6.901   0.947
 1122TIP3   OH2 3310   0.904   1.512   4.045
 1122TIP3    H1 3311   0.873   1.462   3.970
 1122TIP3    H2 3312   0.973   1.458   4.083
 1123TIP3   OH2 3313   6.589   5.628   3.081
 1123TIP3    H1 3314   6.587   5.708   3.133
 1123TIP3    H2 3315   6.522   5.642   3.014
 1124TIP3   OH2 3316   5.706   0.657   0.397
 1124TIP3    H1 3317   5.621   0.659   0.354
 1124TIP3    H2 3318   5.744   0.743   0.378
 1125TIP3   OH2 3319   6.071   4.712   2.420
 1125TIP3    H1 3320   6.154   4.680   2.384
 1125TIP3    H2 3321   6.038   4.773   2.354
 1126TIP3   OH2 3322   4.787   3.603   2.696
 1126TIP3    H1 3323   4.707   3.627   2.650
 1126TIP3    H2 3324   4.800   3.674   2.759
 1127TIP3   OH2 3325   2.723   6.554   1.800
 1127TIP3    H1 3326   2.646   6.565   1.745
 1127TIP3    H2 3327   2.797   6.546   1.739
 1128TIP3   OH2 3328   7.284   5.342   3.833
 1128TIP3    H1 3329   7.320   5.402   3.768
 1128TIP3    H2 3330   7.306   5.382   3.917
 1129TIP3   OH2 3331   0.450   7.084   2.104
 1129TIP3    H1 3332   0.380   7.143   2.132
 1129TIP3    H2 3333   0.433   7.003   2.152
 1130TIP3   OH2 3334   7.704   6.950   2.142
 1130TIP3    H1 3335   7.712   6.856   2.158
 1130TIP3    H2 3336   7.647   6.957   2.065
 1131TIP3   OH2 3337   5.377   6.416   3.449
 1131TIP3    H1 3338   5.370   6.390   3.541
 1131TIP3    H2 3339   5.467   6.446   3.439
 1132TIP3   OH2 3340   1.813   0.833   6.535
 1132TIP3    H1 3341   1.724   0.799   6.527
 1132TIP3    H2 3342   1.819   0.863   6.626
 1133TIP3   OH2 3343   1.843   3.666   6.572
 1133TIP3    H1 3344   1.835   3.737   6.508
 1133TIP3    H2 3345   1.886   3.595   6.524
 1134TIP3   OH2 3346   1.731   4.290   6.447
 1134TIP3    H1 3347   1.653   4.261   6.494
 1134TIP3    H2 3348   1.725   4.386   6.447
 1135TIP3   OH2 3349   7.510   3.046   1.686
 1135TIP3    H1 3350   7.438   3.098   1.652
 1135TIP3    H2 3351   7.535   2.990   1.613
 1136TIP3   OH2 3352   6.696   2.486   6.331
 1136TIP3    H1 3353   6.634   2.487   6.258
 1136TIP3    H2 3354   6.751   2.409   6.315
 1137TIP3   OH2 3355   3.119   6.477   1.992
 1137TIP3    H1 3356   3.072   6.550   1.951
 1137TIP3    H2 3357   3.152   6.514   2.074
 1138TIP3   OH2 3358   8.023   2.548   6.035
 1138TIP3    H1 3359   7.945   2.568   6.086
 1138TIP3    H2 3360   8.047   2.631   5.993
 1139TIP3   OH2 3361   0.894   4.176   4.301
 1139TIP3    H1 3362   0.956   4.103   4.303
 1139TIP3    H2 3363   0.945   4.249   4.264
 1140TIP3   OH2 3364   4.116   7.548   5.238
 1140TIP3    H1 3365   4.046   7.484   5.253
 1140TIP3    H2 3366   4.157   7.520   5.156
 1141TIP3   OH2 3367   6.906   5.799   3.620
 1141TIP3    H1 3368   6.947   5.828   3.701
 1141TIP3    H2 3369   6.954   5.719   3.596
 1142TIP3   OH2 3370   0.157   2.436   6.606
 1142TIP3    H1 3371   0.186   2.518   6.646
 1142TIP3    H2 3372   0.121   2.385   6.679
 1143TIP3   OH2 3373   2.254   5.247   6.256
 1143TIP3    H1 3374   2.235   5.171   6.311
 1143TIP3    H2 3375   2.287   5.313   6.317
 1144TIP3   OH2 3376   4.595   3.574   2.457
 1144TIP3    H1 3377   4.548   3.649   2.422
 1144TIP3    H2 3378   4.678   3.574   2.410
 1145TIP3   OH2 3379   5.319   3.974   5.583
 1145TIP3    H1 3380   5.336   3.879   5.584
 1145TIP3    H2 3381   5.315   3.999   5.675
 1146TIP3   OH2 3382   2.626   6.434   5.389
 1146TIP3    H1 3383   2.594   6.374   5.457
 1146TIP3    H2 3384   2.614   6.521   5.427
 1147TIP3   OH2 3385   5.920   1.254   6.599
 1147TIP3    H1 3386   5.876   1.186   6.651
 1147TIP3    H2 3387   6.000   1.212   6.568
 1148TIP3   OH2 3388   4.835   4.820   3.797
 1148TIP3    H1 3389   4.867   4.739   3.837
 1148TIP3    H2 3390   4.785   4.790   3.721
 1149TIP3   OH2 3391   0.485   1.408   3.012
 1149TIP3    H1 3392   0.397   1.410   2.975
 1149TIP3    H2 3393   0.544   1.410   2.937
 1150TIP3   OH2 3394   3.053   5.823   3.937
 1150TIP3    H1 3395   3.117   5.751   3.931
 1150TIP3    H2 3396   3.008   5.821   3.853
 1151TIP3   OH2 3397   2.698   1.487   4.790
 1151TIP3    H1 3398   2.782   1.442   4.802
 1151TIP3    H2 3399   2.704   1.564   4.846
 1152TIP3   OH2 3400   0.707   0.934   2.076
 1152TIP3    H1 3401   0.701   0.995   2.149
 1152TIP3    H2 3402   0.701   0.990   1.998
 1153TIP3   OH2 3403   6.042   6.866   4.713
 1153TIP3    H1 3404   6.027   6.937   4.650
 1153TIP3    H2 3405   6.062   6.790   4.658
 1154TIP3   OH2 3406   4.425   2.374   4.045
 1154TIP3    H1 3407   4.336   2.385   4.077
 1154TIP3    H2 3408   4.420   2.392   3.951
 1155TIP3   OH2 3409   6.088   0.531   5.553
 1155TIP3    H1 3410   6.165   0.493   5.512
 1155TIP3    H2 3411   6.119   0.613   5.591
 1156TIP3   OH2 3412   2.042   7.668   3.445
 1156TIP3    H1 3413   1.996   7.710   3.372
 1156TIP3    H2 3414   2.111   7.616   3.404
 1157TIP3   OH2 3415   0.109   4.415   1.678
 1157TIP3    H1 3416   0.051   4.349   1.716
 1157TIP3    H2 3417   0.060   4.496   1.684
 1158TIP3   OH2 3418   4.161   0.720   3.628
 1158TIP3    H1 3419   4.255   0.713   3.610
 1158TIP3    H2 3420   4.129   0.630   3.624
 1159TIP3   OH2 3421   5.639   0.929   3.342
 1159TIP3    H1 3422   5.584   0.897   3.414
 1159TIP3    H2 3423   5.605   1.016   3.323
 1160TIP3   OH2 3424   2.423   7.731   2.254
 1160TIP3    H1 3425   2.512   7.699   2.264
 1160TIP3    H2 3426   2.395   7.700   2.168
 1161TIP3   OH2 3427   1.234   2.854   2.387
 1161TIP3    H1 3428   1.194   2.927   2.339
 1161TIP3    H2 3429   1.302   2.895   2.441
 1162TIP3   OH2 3430   3.476   1.212   0.686
 1162TIP3    H1 3431   3.459   1.118   0.684
 1162TIP3    H2 3432   3.407   1.249   0.741
 1163TIP3   OH2 3433   0.431   3.795   2.597
 1163TIP3    H1 3434   0.395   3.883   2.583
 1163TIP3    H2 3435   0.434   3.756   2.509
 1164TIP3   OH2 3436   6.225   0.315   0.457
 1164TIP3    H1 3437   6.177   0.382   0.409
 1164TIP3    H2 3438   6.163   0.282   0.522
 1165TIP3   OH2 3439   3.234   3.064   4.034
 1165TIP3    H1 3440   3.249   3.081   3.941
 1165TIP3    H2 3441   3.317   3.029   4.065
 1166TIP3   OH2 3442   5.758   3.450   5.916
 1166TIP3    H1 3443   5.824   3.398   5.961
 1166TIP3    H2 3444   5.771   3.539   5.949
 1167TIP3   OH2 3445   3.006   7.364   1.331
 1167TIP3    H1 3446   2.998   7.269   1.343
 1167TIP3    H2 3447   3.051   7.395   1.410
 1168TIP3   OH2 3448   1.348   6.891   1.913
 1168TIP3    H1 3449   1.374   6.969   1.962
 1168TIP3    H2 3450   1.355   6.917   1.821
 1169TIP3   OH2 3451   4.599   6.230   1.399
 1169TIP3    H1 3452   4.645   6.162   1.448
 1169TIP3    H2 3453   4.552   6.183   1.330
 1170TIP3   OH2 3454   2.313   1.778   6.459
 1170TIP3    H1 3455   2.346   1.853   6.410
 1170TIP3    H2 3456   2.386   1.716   6.460
 1171TIP3   OH2 3457   6.475   1.266   4.823
 1171TIP3    H1 3458   6.462   1.173   4.837
 1171TIP3    H2 3459   6.526   1.272   4.742
 1172TIP3   OH2 3460   2.405   7.697   4.181
 1172TIP3    H1 3461   2.419   7.711   4.088
 1172TIP3    H2 3462   2.455   7.767   4.224
 1173TIP3   OH2 3463   5.799   4.394   6.033
 1173TIP3    H1 3464   5.776   4.469   6.088
 1173TIP3    H2 3465   5.773   4.318   6.084
 1174TIP3   OH2 3466   5.858   5.151   1.225
 1174TIP3    H1 3467   5.769   5.141   1.261
 1174TIP3    H2 3468   5.908   5.082   1.268
 1175TIP3   OH2 3469   7.827   0.349   1.039
 1175TIP3    H1 3470   7.884   0.329   1.114
 1175TIP3    H2 3471   7.859   0.292   0.969
 1176TIP3   OH2 3472   3.688   2.433   4.366
 1176TIP3    H1 3473   3.602   2.392   4.381
 1176TIP3    H2 3474   3.698   2.431   4.271
 1177TIP3   OH2 3475   4.584   2.555   0.718
 1177TIP3    H1 3476   4.645   2.553   0.645
 1177TIP3    H2 3477   4.554   2.646   0.723
 1178TIP3   OH2 3478   5.010   7.438   4.067
 1178TIP3    H1 3479   4.945   7.387   4.018
 1178TIP3    H2 3480   5.037   7.507   4.006
 1179TIP3   OH2 3481   5.612   5.109   5.671
 1179TIP3    H1 3482   5.547   5.039   5.678
 1179TIP3    H2 3483   5.637   5.127   5.761
 1180TIP3   OH2 3484   1.161   6.888   3.208
 1180TIP3    H1 3485   1.136   6.796   3.199
 1180TIP3    H2 3486   1.234   6.899   3.147
 1181TIP3   OH2 3487   5.409   5.515   6.270
 1181TIP3    H1 3488   5.397   5.561   6.353
 1181TIP3    H2 3489   5.500   5.531   6.246
 1182TIP3   OH2 3490   4.856   5.605   2.681
 1182TIP3    H1 3491   4.786   5.658   2.719
 1182TIP3    H2 3492   4.814   5.554   2.612
 1183TIP3   OH2 3493   0.181   0.876   1.536
 1183TIP3    H1 3494   0.170   0.833   1.621
 1183TIP3    H2 3495   0.093   0.905   1.512
 1184TIP3   OH2 3496   4.849   0.054   3.614
 1184TIP3    H1 3497   4.944   0.056   3.598
 1184TIP3    H2 3498   4.817  -0.017   3.557
 1185TIP3   OH2 3499   4.148   2.376   4.913
 1185TIP3    H1 3500   4.213   2.339   4.854
 1185TIP3    H2 3501   4.163   2.470   4.909
 1186TIP3   OH2 3502   1.433   5.378   2.416
 1186TIP3    H1 3503   1.377   5.352   2.343
 1186TIP3    H2 3504   1.490   5.446   2.380
 1187TIP3   OH2 3505   2.900   7.665   3.330
 1187TIP3    H1 3506   2.861   7.595   3.277
 1187TIP3    H2 3507   2.950   7.717   3.267
 1188TIP3   OH2 3508   4.227   3.486   2.466
 1188TIP3    H1 3509   4.246   3.401   2.428
 1188TIP3    H2 3510   4.276   3.487   2.549
 1189TIP3   OH2 3511   3.629   2.063   5.782
 1189TIP3    H1 3512   3.632   2.108   5.697
 1189TIP3    H2 3513   3.716   2.077   5.819
 1190TIP3   OH2 3514   7.384   5.116   3.654
 1190TIP3    H1 3515   7.336   5.180   3.706
 1190TIP3    H2 3516   7.455   5.087   3.711
 1191TIP3   OH2 3517   7.263   5.118   0.426
 1191TIP3    H1 3518   7.314   5.122   0.345
 1191TIP3    H2 3519   7.260   5.209   0.457
 1192TIP3   OH2 3520   4.107   7.062   5.090
 1192TIP3    H1 3521   4.160   6.985   5.068
 1192TIP3    H2 3522   4.026   7.050   5.040
 1193TIP3   OH2 3523   4.599   5.419   6.348
 1193TIP3    H1 3524   4.626   5.377   6.429
 1193TIP3    H2 3525   4.674   5.409   6.289
 1194TIP3   OH2 3526   0.566   4.964   4.186
 1194TIP3    H1 3527   0.545   5.039   4.131
 1194TIP3    H2 3528   0.582   4.893   4.124
 1195TIP3   OH2 3529   7.107   7.795   1.517
 1195TIP3    H1 3530   7.150   7.710   1.515
 1195TIP3    H2 3531   7.059   7.796   1.600
 1196TIP3   OH2 3532   1.729   0.311   0.902
 1196TIP3    H1 3533   1.787   0.293   0.976
 1196TIP3    H2 3534   1.669   0.377   0.935
 1197TIP3   OH2 3535   8.117   4.490   3.836
 1197TIP3    H1 3536   8.085   4.536   3.913
 1197TIP3    H2 3537   8.056   4.517   3.766
 1198TIP3   OH2 3538   0.083   3.019   5.479
 1198TIP3    H1 3539   0.056   3.102   5.440
 1198TIP3    H2 3540   0.107   2.965   5.403
 1199TIP3   OH2 3541   3.324   3.131   0.698
 1199TIP3    H1 3542   3.380   3.059   0.670
 1199TIP3    H2 3543   3.278   3.097   0.775
 1200TIP3   OH2 3544   6.542   1.280   1.554
 1200TIP3    H1 3545   6.567   1.344   1.621
 1200TIP3    H2 3546   6.593   1.306   1.476
 1201TIP3   OH2 3547   1.177   6.108   1.279
 1201TIP3    H1 3548   1.096   6.134   1.322
 1201TIP3    H2 3549   1.222   6.190   1.259
 1202TIP3   OH2 3550   7.176   2.602   0.946
 1202TIP3    H1 3551   7.214   2.539   1.008
 1202TIP3    H2 3552   7.085   2.612   0.976
 1203TIP3   OH2 3553   2.953   7.474   2.823
 1203TIP3    H1 3554   2.940   7.563   2.858
 1203TIP3    H2 3555   2.986   7.424   2.898
 1204TIP3   OH2 3556   2.997   5.574   3.655
 1204TIP3    H1 3557   3.086   5.537   3.662
 1204TIP3    H2 3558   2.993   5.609   3.566
 1205TIP3   OH2 3559   4.162   5.891   4.303
 1205TIP3    H1 3560   4.111   5.847   4.236
 1205TIP3    H2 3561   4.253   5.876   4.278
 1206TIP3   OH2 3562   1.989   7.365   0.941
 1206TIP3    H1 3563   2.040   7.432   0.986
 1206TIP3    H2 3564   1.951   7.312   1.011
 1207TIP3   OH2 3565   0.971   1.873   2.434
 1207TIP3    H1 3566   0.889   1.919   2.452
 1207TIP3    H2 3567   1.038   1.942   2.434
 1208TIP3   OH2 3568   0.068   6.069   1.201
 1208TIP3    H1 3569   0.073   6.072   1.106
 1208TIP3    H2 3570   0.089   5.978   1.224
 1209TIP3   OH2 3571   0.191   2.428   0.018
 1209TIP3    H1 3572   0.169   2.499   0.079
 1209TIP3    H2 3573   0.135   2.445  -0.058
 1210TIP3   OH2 3574   5.850   1.732   2.516
 1210TIP3    H1 3575   5.903   1.809   2.493
 1210TIP3    H2 3576   5.886   1.704   2.600
 1211TIP3   OH2 3577   0.432   5.832   2.429
 1211TIP3    H1 3578   0.431   5.789   2.514
 1211TIP3    H2 3579   0.519   5.814   2.393
 1212TIP3   OH2 3580   1.856   7.723   1.277
 1212TIP3    H1 3581   1.894   7.775   1.348
 1212TIP3    H2 3582   1.846   7.785   1.205
 1213TIP3   OH2 3583   4.106   2.079   1.780
 1213TIP3    H1 3584   4.059   2.138   1.721
 1213TIP3    H2 3585   4.190   2.063   1.737
 1214TIP3   OH2 3586   3.014   1.183   1.812
 1214TIP3    H1 3587   2.958   1.256   1.840
 1214TIP3    H2 3588   3.080   1.176   1.881
 1215TIP3   OH2 3589   6.365   3.893   2.243
 1215TIP3    H1 3590   6.340   3.981   2.214
 1215TIP3    H2 3591   6.430   3.864   2.179
 1216TIP3   OH2 3592   8.212   7.200   4.993
 1216TIP3    H1 3593   8.242   7.199   4.903
 1216TIP3    H2 3594   8.204   7.293   5.015
 1217TIP3   OH2 3595   6.545   0.685   4.180
 1217TIP3    H1 3596   6.473   0.640   4.135
 1217TIP3    H2 3597   6.547   0.772   4.140
 1218TIP3   OH2 3598   5.058   4.851   6.227
 1218TIP3    H1 3599   5.021   4.824   6.311
 1218TIP3    H2 3600   5.088   4.769   6.187
 1219TIP3   OH2 3601   0.931   7.260   0.608
 1219TIP3    H1 3602   0.877   7.184   0.630
 1219TIP3    H2 3603   1.019   7.223   0.596
 1220TIP3   OH2 3604   7.679   7.677   4.993
 1220TIP3    H1 3605   7.622   7.719   5.058
 1220TIP3    H2 3606   7.767   7.684   5.031
 1221TIP3   OH2 3607   6.060   3.447   6.176
 1221TIP3    H1 3608   6.125   3.409   6.117
 1221TIP3    H2 3609   6.106   3.457   6.260
 1222TIP3   OH2 3610   6.746   3.137   6.668
 1222TIP3    H1 3611   6.661   3.180   6.664
 1222TIP3    H2 3612   6.805   3.205   6.700
 1223TIP3   OH2 3613   1.859   6.366   2.652
 1223TIP3    H1 3614   1.810   6.285   2.666
 1223TIP3    H2 3615   1.909   6.377   2.733
 1224TIP3   OH2 3616   0.117   0.369   1.081
 1224TIP3    H1 3617   0.041   0.312   1.071
 1224TIP3    H2 3618   0.087   0.454   1.048
 1225TIP3   OH2 3619   1.586   1.370   0.719
 1225TIP3    H1 3620   1.668   1.418   0.726
 1225TIP3    H2 3621   1.610   1.286   0.679
 1226TIP3   OH2 3622   0.964   2.659   4.127
 1226TIP3    H1 3623   0.964   2.597   4.200
 1226TIP3    H2 3624   0.894   2.629   4.070
 1227TIP3   OH2 3625   5.646   4.490   1.176
 1227TIP3    H1 3626   5.653   4.580   1.208
 1227TIP3    H2 3627   5.564   4.458   1.214
 1228TIP3   OH2 3628   2.738   3.202   2.350
 1228TIP3    H1 3629   2.690   3.275   2.390
 1228TIP3    H2 3630   2.698   3.124   2.388
 1229TIP3   OH2 3631   6.583   7.417   0.982
 1229TIP3    H1 3632   6.629   7.496   1.009
 1229TIP3    H2 3633   6.508   7.411   1.042
 1230TIP3   OH2 3634   1.273   5.393   5.956
 1230TIP3    H1 3635   1.226   5.428   5.881
 1230TIP3    H2 3636   1.355   5.359   5.920
 1231TIP3   OH2 3637   5.954   1.194   1.344
 1231TIP3    H1 3638   5.957   1.288   1.364
 1231TIP3    H2 3639   5.942   1.152   1.429
 1232TIP3   OH2 3640   2.528   3.395   0.475
 1232TIP3    H1 3641   2.539   3.490   0.484
 1232TIP3    H2 3642   2.591   3.370   0.407
 1233TIP3   OH2 3643   3.859   4.693   5.752
 1233TIP3    H1 3644   3.897   4.666   5.669
 1233TIP3    H2 3645   3.887   4.625   5.814
 1234TIP3   OH2 3646   6.041   1.026   2.720
 1234TIP3    H1 3647   6.107   1.053   2.656
 1234TIP3    H2 3648   5.972   0.985   2.667
 1235TIP3   OH2 3649   4.752   2.909   6.211
 1235TIP3    H1 3650   4.794   2.899   6.126
 1235TIP3    H2 3651   4.682   2.843   6.211
 1236TIP3   OH2 3652   1.239   2.654   2.196
 1236TIP3    H1 3653   1.318   2.600   2.195
 1236TIP3    H2 3654   1.258   2.724   2.258
 1237TIP3   OH2 3655   3.210   0.820   0.291
 1237TIP3    H1 3656   3.243   0.904   0.324
 1237TIP3    H2 3657   3.283   0.784   0.240
 1238TIP3   OH2 3658   1.084   1.177   0.441
 1238TIP3    H1 3659   1.147   1.116   0.403
 1238TIP3    H2 3660   1.076   1.247   0.376
 1239TIP3   OH2 3661   5.103   3.987   1.115
 1239TIP3    H1 3662   5.029   3.997   1.175
 1239TIP3    H2 3663   5.082   3.909   1.064
 1240TIP3   OH2 3664   1.764   5.829   2.957
 1240TIP3    H1 3665   1.716   5.866   2.883
 1240TIP3    H2 3666   1.737   5.737   2.960
 1241TIP3   OH2 3667   7.267   6.393   3.521
 1241TIP3    H1 3668   7.179   6.355   3.520
 1241TIP3    H2 3669   7.257   6.479   3.481
 1242TIP3   OH2 3670   6.195   5.863   5.943
 1242TIP3    H1 3671   6.215   5.775   5.977
 1242TIP3    H2 3672   6.264   5.918   5.978
 1243TIP3   OH2 3673   2.988   3.665   6.744
 1243TIP3    H1 3674   2.915   3.671   6.681
 1243TIP3    H2 3675   3.047   3.735   6.717
 1244TIP3   OH2 3676   3.606   2.258   1.773
 1244TIP3    H1 3677   3.644   2.171   1.759
 1244TIP3    H2 3678   3.530   2.243   1.829
 1245TIP3   OH2 3679   7.818   1.920   2.087
 1245TIP3    H1 3680   7.849   2.003   2.052
 1245TIP3    H2 3681   7.736   1.941   2.131
 1246TIP3   OH2 3682   2.262   3.024   2.166
 1246TIP3    H1 3683   2.307   2.947   2.201
 1246TIP3    H2 3684   2.172   3.015   2.197
 1247TIP3   OH2 3685   6.716   1.276   4.204
 1247TIP3    H1 3686   6.762   1.223   4.139
 1247TIP3    H2 3687   6.684   1.213   4.269
 1248TIP3   OH2 3688   5.044   2.944   2.271
 1248TIP3    H1 3689   5.003   3.003   2.335
 1248TIP3    H2 3690   5.084   2.876   2.324
 1249TIP3   OH2 3691   7.727   1.508   4.500
 1249TIP3    H1 3692   7.771   1.459   4.430
 1249TIP3    H2 3693   7.786   1.499   4.575
 1250TIP3   OH2 3694   2.346   0.469   4.289
 1250TIP3    H1 3695   2.327   0.472   4.382
 1250TIP3    H2 3696   2.426   0.522   4.279
 1251TIP3   OH2 3697   1.546   7.410   0.461
 1251TIP3    H1 3698   1.613   7.474   0.486
 1251TIP3    H2 3699   1.482   7.413   0.532
 1252TIP3   OH2 3700   1.096   7.209   5.974
 1252TIP3    H1 3701   1.147   7.140   6.017
 1252TIP3    H2 3702   1.006   7.191   5.999
 1253TIP3   OH2 3703   3.311   0.654   0.917
 1253TIP3    H1 3704   3.389   0.688   0.960
 1253TIP3    H2 3705   3.262   0.611   0.986
 1254TIP3   OH2 3706   0.158   6.915   3.979
 1254TIP3    H1 3707   0.245   6.921   4.016
 1254TIP3    H2 3708   0.099   6.914   4.054
 1255TIP3   OH2 3709   7.694   2.418   1.350
 1255TIP3    H1 3710   7.767   2.410   1.289
 1255TIP3    H2 3711   7.666   2.328   1.366
 1256TIP3   OH2 3712   3.337   5.608   0.346
 1256TIP3    H1 3713   3.338   5.516   0.322
 1256TIP3    H2 3714   3.390   5.613   0.425
 1257TIP3   OH2 3715   6.999   1.228   4.967
 1257TIP3    H1 3716   7.091   1.252   4.972
 1257TIP3    H2 3717   6.978   1.232   4.874
 1258TIP3   OH2 3718   2.743   1.000   0.596
 1258TIP3    H1 3719   2.683   1.057   0.549
 1258TIP3    H2 3720   2.693   0.970   0.672
 1259TIP3   OH2 3721   4.464   4.588   6.246
 1259TIP3    H1 3722   4.450   4.515   6.305
 1259TIP3    H2 3723   4.393   4.649   6.266
 1260TIP3   OH2 3724   7.636   2.060   6.468
 1260TIP3    H1 3725   7.552   2.025   6.497
 1260TIP3    H2 3726   7.640   2.148   6.506
 1261TIP3   OH2 3727   2.085   1.133   4.477
 1261TIP3    H1 3728   2.141   1.169   4.546
 1261TIP3    H2 3729   2.143   1.126   4.400
 1262TIP3   OH2 3730   4.005   5.916   5.697
 1262TIP3    H1 3731   4.053   5.836   5.717
 1262TIP3    H2 3732   4.038   5.980   5.759
 1263TIP3   OH2 3733   5.095   6.123   3.472
 1263TIP3    H1 3734   5.116   6.195   3.532
 1263TIP3    H2 3735   5.180   6.089   3.446
 1264TIP3   OH2 3736   1.155   1.699   4.048
 1264TIP3    H1 3737   1.223   1.708   3.981
 1264TIP3    H2 3738   1.108   1.620   4.024
 1265TIP3   OH2 3739   5.227   3.128   1.041
 1265TIP3    H1 3740   5.226   3.201   0.980
 1265TIP3    H2 3741   5.159   3.148   1.104
 1266TIP3   OH2 3742   2.155   4.541   5.011
 1266TIP3    H1 3743   2.239   4.496   5.003
 1266TIP3    H2 3744   2.151   4.598   4.934
 1267TIP3   OH2 3745   4.137   1.961   2.528
 1267TIP3    H1 3746   4.209   1.932   2.583
 1267TIP3    H2 3747   4.165   2.047   2.496
 1268TIP3   OH2 3748   4.820   6.213   1.792
 1268TIP3    H1 3749   4.807   6.137   1.849
 1268TIP3    H2 3750   4.887   6.185   1.730
 1269TIP3   OH2 3751   0.300   1.990   0.038
 1269TIP3    H1 3752   0.215   1.952   0.061
 1269TIP3    H2 3753   0.365   1.928   0.072
 1270TIP3   OH2 3754   1.685   6.103   2.997
 1270TIP3    H1 3755   1.699   6.015   3.032
 1270TIP3    H2 3756   1.676   6.159   3.074
 1271TIP3   OH2 3757   5.746   3.753   1.176
 1271TIP3    H1 3758   5.689   3.739   1.101
 1271TIP3    H2 3759   5.711   3.831   1.219
 1272TIP3   OH2 3760   2.975   4.607   3.247
 1272TIP3    H1 3761   2.936   4.694   3.246
 1272TIP3    H2 3762   3.049   4.615   3.307
 1273TIP3   OH2 3763   7.942   6.667   3.027
 1273TIP3    H1 3764   7.932   6.675   3.122
 1273TIP3    H2 3765   8.036   6.654   3.014
 1274TIP3   OH2 3766   2.387   1.155   0.079
 1274TIP3    H1 3767   2.319   1.186   0.020
 1274TIP3    H2 3768   2.375   1.208   0.158
 1275TIP3   OH2 3769   2.210   3.318   3.396
 1275TIP3    H1 3770   2.190   3.229   3.427
 1275TIP3    H2 3771   2.206   3.372   3.475
 1276TIP3   OH2 3772   6.041   3.323   3.465
 1276TIP3    H1 3773   6.081   3.322   3.378
 1276TIP3    H2 3774   6.115   3.325   3.525
 1277TIP3   OH2 3775   3.548   4.724   4.411
 1277TIP3    H1 3776   3.508   4.732   4.498
 1277TIP3    H2 3777   3.504   4.649   4.371
 1278TIP3   OH2 3778   7.091   1.632   1.948
 1278TIP3    H1 3779   7.119   1.563   2.008
 1278TIP3    H2 3780   7.034   1.688   2.001
 1279TIP3   OH2 3781   5.449   7.643   4.034
 1279TIP3    H1 3782   5.512   7.611   3.970
 1279TIP3    H2 3783   5.363   7.626   3.995
 1280TIP3   OH2 3784   4.297   5.137   5.113
 1280TIP3    H1 3785   4.353   5.105   5.184
 1280TIP3    H2 3786   4.212   5.097   5.129
 1281TIP3   OH2 3787   5.532   5.423   6.663
 1281TIP3    H1 3788   5.600   5.455   6.723
 1281TIP3    H2 3789   5.464   5.389   6.720
 1282TIP3   OH2 3790   1.308   3.519   4.021
 1282TIP3    H1 3791   1.243   3.489   4.085
 1282TIP3    H2 3792   1.262   3.585   3.969
 1283TIP3   OH2 3793   5.489   5.007   0.711
 1283TIP3    H1 3794   5.466   4.932   0.766
 1283TIP3    H2 3795   5.535   4.969   0.636
 1284TIP3   OH2 3796   7.241   1.166   4.340
 1284TIP3    H1 3797   7.191   1.086   4.325
 1284TIP3    H2 3798   7.327   1.136   4.368
 1285TIP3   OH2 3799   6.100   3.654   0.486
 1285TIP3    H1 3800   6.035   3.675   0.553
 1285TIP3    H2 3801   6.048   3.623   0.412
 1286TIP3   OH2 3802   2.670   1.247   3.731
 1286TIP3    H1 3803   2.737   1.304   3.767
 1286TIP3    H2 3804   2.648   1.286   3.646
 1287TIP3   OH2 3805   3.650   2.936   1.926
 1287TIP3    H1 3806   3.735   2.925   1.884
 1287TIP3    H2 3807   3.609   3.010   1.880
 1288TIP3   OH2 3808   7.800   2.333   6.177
 1288TIP3    H1 3809   7.878   2.318   6.125
 1288TIP3    H2 3810   7.740   2.262   6.154
 1289TIP3   OH2 3811   0.364   2.694   0.698
 1289TIP3    H1 3812   0.453   2.660   0.694
 1289TIP3    H2 3813   0.371   2.773   0.752
 1290TIP3   OH2 3814   7.029   3.673   0.617
 1290TIP3    H1 3815   7.116   3.702   0.592
 1290TIP3    H2 3816   7.020   3.586   0.579
 1291TIP3   OH2 3817   4.663   7.807   4.380
 1291TIP3    H1 3818   4.674   7.718   4.411
 1291TIP3    H2 3819   4.621   7.798   4.294
 1292TIP3   OH2 3820   3.040   3.191   2.398
 1292TIP3    H1 3821   3.068   3.176   2.489
 1292TIP3    H2 3822   2.947   3.209   2.404
 1293TIP3   OH2 3823   5.993   2.430   2.278
 1293TIP3    H1 3824   6.035   2.402   2.359
 1293TIP3    H2 3825   6.035   2.513   2.257
 1294TIP3   OH2 3826   2.860   2.871   4.449
 1294TIP3    H1 3827   2.912   2.940   4.489
 1294TIP3    H2 3828   2.878   2.877   4.355
 1295TIP3   OH2 3829   5.987   7.043   5.621
 1295TIP3    H1 3830   6.043   6.970   5.647
 1295TIP3    H2 3831   6.045   7.120   5.623
 1296TIP3   OH2 3832   3.625   3.401   1.281
 1296TIP3    H1 3833   3.630   3.341   1.355
 1296TIP3    H2 3834   3.716   3.412   1.253
 1297TIP3   OH2 3835   2.457   1.260   1.293
 1297TIP3    H1 3836   2.365   1.234   1.284
 1297TIP3    H2 3837   2.491   1.260   1.204
 1298TIP3   OH2 3838   1.233   6.348   2.629
 1298TIP3    H1 3839   1.192   6.261   2.633
 1298TIP3    H2 3840   1.284   6.354   2.709
 1299TIP3   OH2 3841   0.350   2.390   3.179
 1299TIP3    H1 3842   0.294   2.342   3.240
 1299TIP3    H2 3843   0.309   2.476   3.172
 1300TIP3   OH2 3844   3.501   7.075   1.754
 1300TIP3    H1 3845   3.438   7.094   1.824
 1300TIP3    H2 3846   3.485   6.983   1.733
 1301TIP3   OH2 3847   1.141   5.796   2.576
 1301TIP3    H1 3848   1.082   5.784   2.501
 1301TIP3    H2 3849   1.217   5.841   2.540
 1302TIP3   OH2 3850   4.470   2.225   3.579
 1302TIP3    H1 3851   4.386   2.179   3.583
 1302TIP3    H2 3852   4.457   2.303   3.632
 1303TIP3   OH2 3853   3.434   1.168   2.586
 1303TIP3    H1 3854   3.374   1.134   2.520
 1303TIP3    H2 3855   3.492   1.095   2.606
 1304TIP3   OH2 3856   7.076   4.792   3.872
 1304TIP3    H1 3857   7.160   4.783   3.828
 1304TIP3    H2 3858   7.034   4.865   3.827
 1305TIP3   OH2 3859   7.072   3.633   0.896
 1305TIP3    H1 3860   7.164   3.611   0.880
 1305TIP3    H2 3861   7.030   3.625   0.811
 1306TIP3   OH2 3862   6.621   2.997   5.446
 1306TIP3    H1 3863   6.717   2.989   5.446
 1306TIP3    H2 3864   6.604   3.084   5.481
 1307TIP3   OH2 3865   7.381   3.499   5.040
 1307TIP3    H1 3866   7.326   3.432   5.080
 1307TIP3    H2 3867   7.471   3.471   5.058
 1308TIP3   OH2 3868   5.506   4.849   4.521
 1308TIP3    H1 3869   5.581   4.891   4.479
 1308TIP3    H2 3870   5.521   4.755   4.510
 1309TIP3   OH2 3871   3.443   6.870   4.705
 1309TIP3    H1 3872   3.454   6.778   4.731
 1309TIP3    H2 3873   3.481   6.920   4.777
 1310TIP3   OH2 3874   2.547   0.187   0.633
 1310TIP3    H1 3875   2.505   0.273   0.644
 1310TIP3    H2 3876   2.632   0.207   0.594
 1311TIP3   OH2 3877   0.362   3.232   6.650
 1311TIP3    H1 3878   0.287   3.244   6.708
 1311TIP3    H2 3879   0.432   3.197   6.706
 1312TIP3   OH2 3880   4.489   0.106   2.238
 1312TIP3    H1 3881   4.529   0.106   2.151
 1312TIP3    H2 3882   4.397   0.125   2.222
 1313TIP3   OH2 3883   1.442   0.394   3.633
 1313TIP3    H1 3884   1.521   0.355   3.595
 1313TIP3    H2 3885   1.378   0.323   3.633
 1314TIP3   OH2 3886   3.993   2.672   5.047
 1314TIP3    H1 3887   3.943   2.620   4.983
 1314TIP3    H2 3888   3.956   2.760   5.040
 1315TIP3   OH2 3889   6.171   1.932   5.361
 1315TIP3    H1 3890   6.221   1.998   5.408
 1315TIP3    H2 3891   6.139   1.977   5.283
 1316TIP3   OH2 3892   5.350   5.098   6.028
 1316TIP3    H1 3893   5.256   5.112   6.017
 1316TIP3    H2 3894   5.358   5.055   6.113
 1317TIP3   OH2 3895   5.997   3.205   6.581
 1317TIP3    H1 3896   5.958   3.176   6.499
 1317TIP3    H2 3897   5.925   3.248   6.628
 1318TIP3   OH2 3898   2.795   4.257   1.161
 1318TIP3    H1 3899   2.859   4.327   1.144
 1318TIP3    H2 3900   2.795   4.246   1.256
 1319TIP3   OH2 3901   6.830   6.029   3.894
 1319TIP3    H1 3902   6.920   6.040   3.865
 1319TIP3    H2 3903   6.815   6.103   3.953
 1320TIP3   OH2 3904   7.846   5.201   1.069
 1320TIP3    H1 3905   7.804   5.115   1.065
 1320TIP3    H2 3906   7.801   5.246   1.142
 1321TIP3   OH2 3907   6.301   1.227   5.333
 1321TIP3    H1 3908   6.342   1.155   5.286
 1321TIP3    H2 3909   6.369   1.294   5.338
 1322TIP3   OH2 3910   6.080   1.089   4.530
 1322TIP3    H1 3911   6.082   1.134   4.615
 1322TIP3    H2 3912   6.038   1.151   4.471
 1323TIP3   OH2 3913   7.490   4.349   2.541
 1323TIP3    H1 3914   7.481   4.392   2.626
 1323TIP3    H2 3915   7.431   4.273   2.546
 1324TIP3   OH2 3916   4.392   3.905   5.549
 1324TIP3    H1 3917   4.405   3.853   5.628
 1324TIP3    H2 3918   4.393   3.841   5.478
 1325TIP3   OH2 3919   0.187   1.919   5.284
 1325TIP3    H1 3920   0.228   1.932   5.198
 1325TIP3    H2 3921   0.144   1.834   5.278
 1326TIP3   OH2 3922   0.090   1.578   3.208
 1326TIP3    H1 3923   0.081   1.559   3.115
 1326TIP3    H2 3924   0.130   1.499   3.245
 1327TIP3   OH2 3925   5.338   4.518   5.489
 1327TIP3    H1 3926   5.408   4.520   5.424
 1327TIP3    H2 3927   5.320   4.610   5.507
 1328TIP3   OH2 3928   5.384   1.492   6.056
 1328TIP3    H1 3929   5.426   1.514   6.139
 1328TIP3    H2 3930   5.354   1.402   6.068
 1329TIP3   OH2 3931   3.349   5.882   5.403
 1329TIP3    H1 3932   3.297   5.870   5.324
 1329TIP3    H2 3933   3.375   5.974   5.401
 1330TIP3   OH2 3934   2.999   1.982   2.374
 1330TIP3    H1 3935   3.071   2.043   2.388
 1330TIP3    H2 3936   3.041   1.902   2.343
 1331TIP3   OH2 3937   4.597   5.946   3.412
 1331TIP3    H1 3938   4.596   5.872   3.473
 1331TIP3    H2 3939   4.670   6.001   3.442
 1332TIP3   OH2 3940   0.870   0.274   0.368
 1332TIP3    H1 3941   0.957   0.304   0.395
 1332TIP3    H2 3942   0.814   0.291   0.444
 1333TIP3   OH2 3943   6.195   4.730   3.985
 1333TIP3    H1 3944   6.132   4.757   3.918
 1333TIP3    H2 3945   6.140   4.701   4.058
 1334TIP3   OH2 3946   6.229   2.367   3.933
 1334TIP3    H1 3947   6.279   2.327   4.004
 1334TIP3    H2 3948   6.145   2.389   3.971
 1335TIP3   OH2 3949   2.273   2.690   0.471
 1335TIP3    H1 3950   2.211   2.756   0.439
 1335TIP3    H2 3951   2.220   2.629   0.522
 1336TIP3   OH2 3952   5.840   5.808   4.452
 1336TIP3    H1 3953   5.827   5.761   4.369
 1336TIP3    H2 3954   5.911   5.761   4.495
 1337TIP3   OH2 3955   6.297   5.672   3.313
 1337TIP3    H1 3956   6.218   5.709   3.350
 1337TIP3    H2 3957   6.366   5.695   3.375
 1338TIP3   OH2 3958   2.792   7.265   1.118
 1338TIP3    H1 3959   2.715   7.310   1.083
 1338TIP3    H2 3960   2.831   7.328   1.179
 1339TIP3   OH2 3961   7.339   3.063   5.426
 1339TIP3    H1 3962   7.434   3.067   5.412
 1339TIP3    H2 3963   7.330   3.051   5.521
 1340TIP3   OH2 3964   3.164   3.895   6.096
 1340TIP3    H1 3965   3.161   3.932   6.008
 1340TIP3    H2 3966   3.141   3.803   6.084
 1341TIP3   OH2 3967   1.275   5.554   5.530
 1341TIP3    H1 3968   1.359   5.594   5.551
 1341TIP3    H2 3969   1.246   5.515   5.612
 1342TIP3   OH2 3970   2.405   5.633   0.289
 1342TIP3    H1 3971   2.435   5.632   0.198
 1342TIP3    H2 3972   2.310   5.620   0.283
 1343TIP3   OH2 3973   4.958   7.086   5.820
 1343TIP3    H1 3974   4.956   7.105   5.914
 1343TIP3    H2 3975   5.048   7.061   5.802
 1344TIP3   OH2 3976   7.734   1.041   6.569
 1344TIP3    H1 3977   7.744   1.124   6.616
 1344TIP3    H2 3978   7.721   0.976   6.638
 1345TIP3   OH2 3979   3.321   3.381   4.324
 1345TIP3    H1 3980   3.325   3.326   4.402
 1345TIP3    H2 3981   3.296   3.467   4.357
 1346TIP3   OH2 3982   6.762   2.661   2.021
 1346TIP3    H1 3983   6.841   2.691   2.067
 1346TIP3    H2 3984   6.793   2.637   1.934
 1347TIP3   OH2 3985   4.996   3.438   5.812
 1347TIP3    H1 3986   5.020   3.449   5.720
 1347TIP3    H2 3987   5.079   3.423   5.857
 1348TIP3   OH2 3988   6.699   5.949   1.395
 1348TIP3    H1 3989   6.615   5.926   1.353
 1348TIP3    H2 3990   6.736   5.865   1.420
 1349TIP3   OH2 3991   4.086   6.156   1.377
 1349TIP3    H1 3992   4.034   6.208   1.439
 1349TIP3    H2 3993   4.098   6.072   1.420
 1350TIP3   OH2 3994   3.925   6.590   2.638
 1350TIP3    H1 3995   3.872   6.665   2.665
 1350TIP3    H2 3996   3.873   6.513   2.661
 1351TIP3   OH2 3997   8.140   2.651   0.161
 1351TIP3    H1 3998   8.100   2.564   0.163
 1351TIP3    H2 3999   8.209   2.647   0.226
 1352TIP3   OH2 4000   0.890   2.857   1.431
 1352TIP3    H1 4001   0.838   2.926   1.390
 1352TIP3    H2 4002   0.826   2.793   1.462
 1353TIP3   OH2 4003   6.191   3.598   1.997
 1353TIP3    H1 4004   6.213   3.511   2.032
 1353TIP3    H2 4005   6.257   3.656   2.033
 1354TIP3   OH2 4006   5.299   6.998   4.045
 1354TIP3    H1 4007   5.267   7.089   4.051
 1354TIP3    H2 4008   5.311   6.970   4.136
 1355TIP3   OH2 4009   5.633   3.584   6.163
 1355TIP3    H1 4010   5.696   3.651   6.187
 1355TIP3    H2 4011   5.678   3.501   6.179
 1356TIP3   OH2 4012   2.811   2.332   4.581
 1356TIP3    H1 4013   2.841   2.385   4.654
 1356TIP3    H2 4014   2.890   2.291   4.546
 1357TIP3   OH2 4015   5.154   4.784   4.613
 1357TIP3    H1 4016   5.211   4.849   4.654
 1357TIP3    H2 4017   5.212   4.710   4.594
 1358TIP3   OH2 4018   7.544   1.968   1.906
 1358TIP3    H1 4019   7.461   1.924   1.888
 1358TIP3    H2 4020   7.557   1.957   2.000
 1359TIP3   OH2 4021   0.138   5.549   2.173
 1359TIP3    H1 4022   0.073   5.595   2.119
 1359TIP3    H2 4023   0.118   5.575   2.263
 1360TIP3   OH2 4024   1.828   6.565   6.266
 1360TIP3    H1 4025   1.870   6.518   6.338
 1360TIP3    H2 4026   1.778   6.497   6.220
 1361TIP3   OH2 4027   6.406   4.973   4.852
 1361TIP3    H1 4028   6.498   4.949   4.858
 1361TIP3    H2 4029   6.366   4.932   4.929
 1362TIP3   OH2 4030   5.742   2.079   6.391
 1362TIP3    H1 4031   5.816   2.084   6.451
 1362TIP3    H2 4032   5.672   2.039   6.442
 1363TIP3   OH2 4033   1.394   4.594   2.568
 1363TIP3    H1 4034   1.376   4.683   2.598
 1363TIP3    H2 4035   1.362   4.538   2.638
 1364TIP3   OH2 4036   2.140   7.736   5.588
 1364TIP3    H1 4037   2.174   7.662   5.639
 1364TIP3    H2 4038   2.046   7.718   5.581
 1365TIP3   OH2 4039   1.884   2.369   3.805
 1365TIP3    H1 4040   1.825   2.334   3.739
 1365TIP3    H2 4041   1.826   2.405   3.872
 1366TIP3   OH2 4042   7.636   4.812   1.275
 1366TIP3    H1 4043   7.689   4.738   1.304
 1366TIP3    H2 4044   7.642   4.875   1.347
 1367TIP3   OH2 4045   1.935   4.991   2.854
 1367TIP3    H1 4046   1.908   5.010   2.764
 1367TIP3    H2 4047   1.966   4.900   2.851
 1368TIP3   OH2 4048   5.713   6.336   3.177
 1368TIP3    H1 4049   5.617   6.346   3.173
 1368TIP3    H2 4050   5.729   6.248   3.144
 1369TIP3   OH2 4051   4.466   5.488   6.112
 1369TIP3    H1 4052   4.495   5.454   6.197
 1369TIP3    H2 4053   4.488   5.419   6.050
 1370TIP3   OH2 4054   3.255   7.129   1.946
 1370TIP3    H1 4055   3.188   7.142   1.878
 1370TIP3    H2 4056   3.260   7.213   1.991
 1371TIP3   OH2 4057   4.120   4.527   6.323
 1371TIP3    H1 4058   4.100   4.500   6.233
 1371TIP3    H2 4059   4.043   4.504   6.374
 1372TIP3   OH2 4060   6.486   5.579   1.251
 1372TIP3    H1 4061   6.444   5.519   1.312
 1372TIP3    H2 4062   6.508   5.525   1.175
 1373TIP3   OH2 4063   0.078   6.226   0.218
 1373TIP3    H1 4064   0.008   6.238   0.283
 1373TIP3    H2 4065   0.033   6.195   0.140
 1374TIP3   OH2 4066   4.309   2.611   0.354
 1374TIP3    H1 4067   4.394   2.567   0.348
 1374TIP3    H2 4068   4.251   2.546   0.394
 1375TIP3   OH2 4069   7.069   4.077   2.290
 1375TIP3    H1 4070   7.104   4.127   2.216
 1375TIP3    H2 4071   6.976   4.095   2.290
 1376TIP3   OH2 4072   7.799   7.408   3.135
 1376TIP3    H1 4073   7.771   7.494   3.102
 1376TIP3    H2 4074   7.743   7.391   3.210
 1377TIP3   OH2 4075   5.301   2.750   1.167
 1377TIP3    H1 4076   5.237   2.783   1.104
 1377TIP3    H2 4077   5.273   2.785   1.251
 1378TIP3   OH2 4078   2.152   7.585   3.023
 1378TIP3    H1 4079   2.239   7.595   2.985
 1378TIP3    H2 4080   2.092   7.613   2.953
 1379TIP3   OH2 4081   4.124   5.723   3.309
 1379TIP3    H1 4082   4.171   5.757   3.233
 1379TIP3    H2 4083   4.192   5.706   3.374
 1380TIP3   OH2 4084   1.474   4.588   5.906
 1380TIP3    H1 4085   1.489   4.567   5.814
 1380TIP3    H2 4086   1.540   4.537   5.953
 1381TIP3   OH2 4087   6.083   5.586   6.284
 1381TIP3    H1 4088   5.996   5.623   6.302
 1381TIP3    H2 4089   6.091   5.514   6.346
 1382TIP3   OH2 4090   6.664   5.848   4.927
 1382TIP3    H1 4091   6.713   5.800   4.860
 1382TIP3    H2 4092   6.605   5.783   4.965
 1383TIP3   OH2 4093   5.838   1.366   0.222
 1383TIP3    H1 4094   5.837   1.462   0.226
 1383TIP3    H2 4095   5.873   1.346   0.136
 1384TIP3   OH2 4096   3.109   4.646   0.464
 1384TIP3    H1 4097   3.182   4.630   0.403
 1384TIP3    H2 4098   3.151   4.679   0.543
 1385TIP3   OH2 4099   0.590   1.247   3.239
 1385TIP3    H1 4100   0.683   1.269   3.247
 1385TIP3    H2 4101   0.563   1.289   3.157
 1386TIP3   OH2 4102   1.405   0.002   4.490
 1386TIP3    H1 4103   1.341   0.073   4.485
 1386TIP3    H2 4104   1.490   0.047   4.489
 1387TIP3   OH2 4105   4.976   6.259   0.560
 1387TIP3    H1 4106   4.929   6.175   0.559
 1387TIP3    H2 4107   4.918   6.319   0.513
 1388TIP3   OH2 4108   1.884   5.145   4.347
 1388TIP3    H1 4109   1.871   5.228   4.301
 1388TIP3    H2 4110   1.940   5.168   4.421
 1389TIP3   OH2 4111   5.142   0.536   5.733
 1389TIP3    H1 4112   5.123   0.510   5.643
 1389TIP3    H2 4113   5.237   0.546   5.736
 1390TIP3   OH2 4114   0.278   3.739   1.606
 1390TIP3    H1 4115   0.260   3.778   1.520
 1390TIP3    H2 4116   0.265   3.811   1.668
 1391TIP3   OH2 4117   2.927   7.291   0.100
 1391TIP3    H1 4118   2.895   7.337   0.023
 1391TIP3    H2 4119   2.850   7.247   0.136
 1392TIP3   OH2 4120   7.672   3.140   3.454
 1392TIP3    H1 4121   7.717   3.103   3.378
 1392TIP3    H2 4122   7.597   3.186   3.418
 1393TIP3   OH2 4123   0.226   4.557   0.123
 1393TIP3    H1 4124   0.257   4.592   0.207
 1393TIP3    H2 4125   0.299   4.572   0.063
 1394TIP3   OH2 4126   0.988   3.814   4.372
 1394TIP3    H1 4127   1.031   3.837   4.454
 1394TIP3    H2 4128   1.035   3.865   4.306
 1395TIP3   OH2 4129   1.652   4.785   5.071
 1395TIP3    H1 4130   1.691   4.712   5.120
 1395TIP3    H2 4131   1.567   4.798   5.113
 1396TIP3   OH2 4132   0.265   4.828   0.518
 1396TIP3    H1 4133   0.209   4.755   0.495
 1396TIP3    H2 4134   0.205   4.900   0.536
 1397TIP3   OH2 4135   1.223   1.747   0.416
 1397TIP3    H1 4136   1.308   1.739   0.372
 1397TIP3    H2 4137   1.218   1.668   0.471
 1398TIP3   OH2 4138   5.949   6.349   2.568
 1398TIP3    H1 4139   5.998   6.295   2.505
 1398TIP3    H2 4140   6.010   6.420   2.591
 1399TIP3   OH2 4141   7.223   6.800   3.166
 1399TIP3    H1 4142   7.309   6.800   3.125
 1399TIP3    H2 4143   7.224   6.874   3.227
 1400TIP3   OH2 4144   6.900   0.277   2.897
 1400TIP3    H1 4145   6.920   0.366   2.925
 1400TIP3    H2 4146   6.894   0.284   2.801
 1401TIP3   OH2 4147   2.415   5.724   5.996
 1401TIP3    H1 4148   2.348   5.667   5.958
 1401TIP3    H2 4149   2.404   5.714   6.091
 1402TIP3   OH2 4150   0.846   0.514   3.323
 1402TIP3    H1 4151   0.815   0.605   3.328
 1402TIP3    H2 4152   0.813   0.482   3.239
 1403TIP3   OH2 4153   7.428   2.745   0.912
 1403TIP3    H1 4154   7.425   2.817   0.849
 1403TIP3    H2 4155   7.342   2.703   0.905
 1404TIP3   OH2 4156   1.133   4.359   5.731
 1404TIP3    H1 4157   1.091   4.281   5.767
 1404TIP3    H2 4158   1.175   4.401   5.806
 1405TIP3   OH2 4159   4.624   3.146   3.269
 1405TIP3    H1 4160   4.536   3.161   3.303
 1405TIP3    H2 4161   4.610   3.092   3.191
 1406TIP3   OH2 4162   3.805   7.056   2.710
 1406TIP3    H1 4163   3.842   6.972   2.683
 1406TIP3    H2 4164   3.737   7.074   2.645
 1407TIP3   OH2 4165   0.079   2.357   6.106
 1407TIP3    H1 4166   0.170   2.386   6.099
 1407TIP3    H2 4167   0.072   2.319   6.194
 1408TIP3   OH2 4168   7.735   1.206   3.625
 1408TIP3    H1 4169   7.767   1.281   3.675
 1408TIP3    H2 4170   7.745   1.231   3.533
 1409TIP3   OH2 4171   0.398   2.052   2.998
 1409TIP3    H1 4172   0.438   2.135   2.973
 1409TIP3    H2 4173   0.348   2.072   3.078
 1410TIP3   OH2 4174   2.577   3.964   6.182
 1410TIP3    H1 4175   2.519   3.889   6.188
 1410TIP3    H2 4176   2.663   3.927   6.160
 1411TIP3   OH2 4177   7.387   1.867   3.818
 1411TIP3    H1 4178   7.350   1.785   3.850
 1411TIP3    H2 4179   7.455   1.889   3.882
 1412TIP3   OH2 4180   4.904   7.445   1.574
 1412TIP3    H1 4181   4.999   7.439   1.587
 1412TIP3    H2 4182   4.893   7.513   1.508
 1413TIP3   OH2 4183   7.856   0.341   6.761
 1413TIP3    H1 4184   7.808   0.414   6.722
 1413TIP3    H2 4185   7.936   0.335   6.709
 1414TIP3   OH2 4186   2.007   3.994   4.385
 1414TIP3    H1 4187   2.077   4.057   4.365
 1414TIP3    H2 4188   2.050   3.908   4.380
 1415TIP3   OH2 4189   5.791   2.661   3.929
 1415TIP3    H1 4190   5.794   2.654   4.024
 1415TIP3    H2 4191   5.719   2.721   3.911
 1416TIP3   OH2 4192   5.082   4.006   1.574
 1416TIP3    H1 4193   5.096   4.073   1.506
 1416TIP3    H2 4194   5.031   4.050   1.641
 1417TIP3   OH2 4195   4.936   2.154   1.227
 1417TIP3    H1 4196   4.966   2.120   1.143
 1417TIP3    H2 4197   5.006   2.134   1.288
 1418TIP3   OH2 4198   6.236   6.332   1.132
 1418TIP3    H1 4199   6.266   6.252   1.090
 1418TIP3    H2 4200   6.214   6.391   1.059
 1419TIP3   OH2 4201   5.726   6.900   6.756
 1419TIP3    H1 4202   5.766   6.813   6.754
 1419TIP3    H2 4203   5.639   6.885   6.795
 1420TIP3   OH2 4204   4.650   0.089   1.999
 1420TIP3    H1 4205   4.666  -0.004   1.983
 1420TIP3    H2 4206   4.570   0.108   1.949
 1421TIP3   OH2 4207   2.678   3.999   4.680
 1421TIP3    H1 4208   2.656   3.907   4.690
 1421TIP3    H2 4209   2.597   4.046   4.702
 1422TIP3   OH2 4210   1.036   2.422   3.151
 1422TIP3    H1 4211   1.077   2.500   3.113
 1422TIP3    H2 4212   1.049   2.432   3.245
 1423TIP3   OH2 4213   3.450   2.992   4.873
 1423TIP3    H1 4214   3.393   2.982   4.797
 1423TIP3    H2 4215   3.391   3.018   4.944
 1424TIP3   OH2 4216   5.172   4.027   6.680
 1424TIP3    H1 4217   5.093   4.003   6.632
 1424TIP3    H2 4218   5.140   4.083   6.752
 1425TIP3   OH2 4219   7.777   7.250   5.710
 1425TIP3    H1 4220   7.797   7.268   5.619
 1425TIP3    H2 4221   7.862   7.239   5.752
 1426TIP3   OH2 4222   7.588   0.183   6.514
 1426TIP3    H1 4223   7.680   0.186   6.541
 1426TIP3    H2 4224   7.569   0.271   6.481
 1427TIP3   OH2 4225   3.365   7.040   3.028
 1427TIP3    H1 4226   3.271   7.040   3.007
 1427TIP3    H2 4227   3.384   6.950   3.056
 1428TIP3   OH2 4228   4.933   3.152   2.420
 1428TIP3    H1 4229   4.918   3.192   2.334
 1428TIP3    H2 4230   4.938   3.226   2.481
 1429TIP3   OH2 4231   3.442   0.501   1.271
 1429TIP3    H1 4232   3.405   0.575   1.319
 1429TIP3    H2 4233   3.524   0.483   1.316
 1430TIP3   OH2 4234   6.552   6.675   3.681
 1430TIP3    H1 4235   6.627   6.671   3.622
 1430TIP3    H2 4236   6.503   6.595   3.663
 1431TIP3   OH2 4237   4.554   7.078   0.508
 1431TIP3    H1 4238   4.537   7.073   0.414
 1431TIP3    H2 4239   4.514   7.161   0.535
 1432TIP3   OH2 4240   5.850   2.296   2.098
 1432TIP3    H1 4241   5.912   2.335   2.161
 1432TIP3    H2 4242   5.905   2.247   2.038
 1433TIP3   OH2 4243   3.258   0.866   3.096
 1433TIP3    H1 4244   3.214   0.915   3.027
 1433TIP3    H2 4245   3.275   0.930   3.165
 1434TIP3   OH2 4246   2.979   3.367   6.383
 1434TIP3    H1 4247   2.892   3.333   6.365
 1434TIP3    H2 4248   2.974   3.459   6.358
 1435TIP3   OH2 4249   6.464   6.554   4.907
 1435TIP3    H1 4250   6.415   6.569   4.987
 1435TIP3    H2 4251   6.447   6.463   4.885
 1436TIP3   OH2 4252   6.256   3.943   3.733
 1436TIP3    H1 4253   6.218   3.865   3.774
 1436TIP3    H2 4254   6.348   3.921   3.719
 1437TIP3   OH2 4255   1.396   6.580   2.858
 1437TIP3    H1 4256   1.345   6.646   2.812
 1437TIP3    H2 4257   1.486   6.611   2.854
 1438TIP3   OH2 4258   5.912   3.894   4.946
 1438TIP3    H1 4259   5.850   3.821   4.946
 1438TIP3    H2 4260   5.995   3.855   4.971
 1439TIP3   OH2 4261   6.841   1.925   1.840
 1439TIP3    H1 4262   6.917   1.950   1.893
 1439TIP3    H2 4263   6.878   1.869   1.771
 1440TIP3   OH2 4264   2.670   2.136   2.900
 1440TIP3    H1 4265   2.761   2.150   2.876
 1440TIP3    H2 4266   2.621   2.152   2.819
 1441TIP3   OH2 4267   3.966   2.182   4.453
 1441TIP3    H1 4268   4.029   2.210   4.520
 1441TIP3    H2 4269   3.996   2.224   4.373
 1442TIP3   OH2 4270   4.435   6.238   5.953
 1442TIP3    H1 4271   4.469   6.290   5.880
 1442TIP3    H2 4272   4.345   6.218   5.929
 1443TIP3   OH2 4273   5.336   0.203   6.557
 1443TIP3    H1 4274   5.363   0.280   6.507
 1443TIP3    H2 4275   5.287   0.238   6.631
 1444TIP3   OH2 4276   0.781   0.040   0.580
 1444TIP3    H1 4277   0.754   0.132   0.575
 1444TIP3    H2 4278   0.791   0.023   0.674
 1445TIP3   OH2 4279   5.532   1.833   3.090
 1445TIP3    H1 4280   5.514   1.765   3.026
 1445TIP3    H2 4281   5.549   1.912   3.038
 1446TIP3   OH2 4282   7.229   2.622   2.527
 1446TIP3    H1 4283   7.257   2.540   2.568
 1446TIP3    H2 4284   7.219   2.683   2.599
 1447TIP3   OH2 4285   0.394   3.604   2.836
 1447TIP3    H1 4286   0.465   3.595   2.899
 1447TIP3    H2 4287   0.427   3.666   2.771
 1448TIP3   OH2 4288   5.032   7.662   2.436
 1448TIP3    H1 4289   4.972   7.622   2.373
 1448TIP3    H2 4290   5.091   7.715   2.382
 1449TIP3   OH2 4291   7.619   7.144   1.078
 1449TIP3    H1 4292   7.573   7.065   1.106
 1449TIP3    H2 4293   7.709   7.131   1.111
 1450TIP3   OH2 4294   5.058   2.038   5.967
 1450TIP3    H1 4295   5.077   2.123   6.006
 1450TIP3    H2 4296   5.059   2.055   5.872
 1451TIP3   OH2 4297   6.040   0.960   1.099
 1451TIP3    H1 4298   6.004   0.951   1.187
 1451TIP3    H2 4299   6.132   0.934   1.108
 1452TIP3   OH2 4300   2.582   7.428   5.571
 1452TIP3    H1 4301   2.632   7.363   5.521
 1452TIP3    H2 4302   2.640   7.504   5.575
 1453TIP3   OH2 4303   5.818   4.354   1.691
 1453TIP3    H1 4304   5.795   4.274   1.738
 1453TIP3    H2 4305   5.850   4.325   1.606
 1454TIP3   OH2 4306   6.371   0.310   4.929
 1454TIP3    H1 4307   6.414   0.278   4.850
 1454TIP3    H2 4308   6.439   0.362   4.973
 1455TIP3   OH2 4309   4.385   3.244   1.199
 1455TIP3    H1 4310   4.429   3.165   1.229
 1455TIP3    H2 4311   4.424   3.314   1.251
 1456TIP3   OH2 4312   6.439   4.353   5.864
 1456TIP3    H1 4313   6.419   4.333   5.773
 1456TIP3    H2 4314   6.410   4.443   5.877
 1457TIP3   OH2 4315   1.541   1.082   3.925
 1457TIP3    H1 4316   1.490   1.005   3.900
 1457TIP3    H2 4317   1.616   1.047   3.973
 1458TIP3   OH2 4318   3.389   7.495   4.701
 1458TIP3    H1 4319   3.395   7.400   4.690
 1458TIP3    H2 4320   3.395   7.509   4.796
 1459TIP3   OH2 4321   0.055   1.106   4.842
 1459TIP3    H1 4322   0.140   1.151   4.836
 1459TIP3    H2 4323   0.031   1.089   4.751
 1460TIP3   OH2 4324   3.433   3.285   2.924
 1460TIP3    H1 4325   3.482   3.251   2.849
 1460TIP3    H2 4326   3.367   3.218   2.942
 1461TIP3   OH2 4327   1.144   5.073   2.965
 1461TIP3    H1 4328   1.209   5.143   2.972
 1461TIP3    H2 4329   1.180   5.001   3.017
 1462TIP3   OH2 4330   0.194   2.839   5.016
 1462TIP3    H1 4331   0.190   2.798   4.929
 1462TIP3    H2 4332   0.110   2.886   5.024
 1463TIP3   OH2 4333   7.910   5.071   0.430
 1463TIP3    H1 4334   7.999   5.087   0.400
 1463TIP3    H2 4335   7.855   5.085   0.353
 1464TIP3   OH2 4336   3.882   5.859   3.158
 1464TIP3    H1 4337   3.876   5.952   3.136
 1464TIP3    H2 4338   3.955   5.827   3.105
 1465TIP3   OH2 4339   4.510   2.648   5.972
 1465TIP3    H1 4340   4.465   2.643   5.888
 1465TIP3    H2 4341   4.595   2.687   5.952
 1466TIP3   OH2 4342   3.016   2.322   0.417
 1466TIP3    H1 4343   2.930   2.283   0.401
 1466TIP3    H2 4344   3.071   2.249   0.444
 1467TIP3   OH2 4345   7.680   7.183   0.658
 1467TIP3    H1 4346   7.611   7.128   0.695
 1467TIP3    H2 4347   7.633   7.249   0.607
 1468TIP3   OH2 4348   6.437   0.560   2.182
 1468TIP3    H1 4349   6.458   0.526   2.268
 1468TIP3    H2 4350   6.352   0.602   2.193
 1469TIP3   OH2 4351   3.343   4.684   3.187
 1469TIP3    H1 4352   3.362   4.770   3.223
 1469TIP3    H2 4353   3.278   4.700   3.118
 1470TIP3   OH2 4354   6.279   0.127   4.588
 1470TIP3    H1 4355   6.200   0.086   4.553
 1470TIP3    H2 4356   6.346   0.109   4.522
 1471TIP3   OH2 4357   0.334   5.769   2.153
 1471TIP3    H1 4358   0.271   5.697   2.147
 1471TIP3    H2 4359   0.342   5.785   2.247
 1472TIP3   OH2 4360   3.852   2.848   3.815
 1472TIP3    H1 4361   3.767   2.828   3.855
 1472TIP3    H2 4362   3.830   2.889   3.732
 1473TIP3   OH2 4363   2.278   1.460   0.975
 1473TIP3    H1 4364   2.330   1.520   0.921
 1473TIP3    H2 4365   2.315   1.468   1.063
 1474TIP3   OH2 4366   2.155   2.611   1.127
 1474TIP3    H1 4367   2.140   2.573   1.213
 1474TIP3    H2 4368   2.087   2.573   1.071
 1475TIP3   OH2 4369   1.094   2.990   6.582
 1475TIP3    H1 4370   1.009   3.033   6.579
 1475TIP3    H2 4371   1.080   2.905   6.541
 1476TIP3   OH2 4372   3.983   0.275   4.842
 1476TIP3    H1 4373   4.056   0.336   4.842
 1476TIP3    H2 4374   3.907   0.327   4.869
 1477TIP3   OH2 4375   0.351   3.035   0.710
 1477TIP3    H1 4376   0.431   3.023   0.658
 1477TIP3    H2 4377   0.352   2.963   0.773
 1478TIP3   OH2 4378   3.748   6.200   0.097
 1478TIP3    H1 4379   3.666   6.233   0.133
 1478TIP3    H2 4380   3.816   6.247   0.145
 1479TIP3   OH2 4381   3.409   7.269   2.886
 1479TIP3    H1 4382   3.451   7.319   2.956
 1479TIP3    H2 4383   3.391   7.183   2.925
 1480TIP3   OH2 4384   4.831   2.634   5.629
 1480TIP3    H1 4385   4.923   2.661   5.634
 1480TIP3    H2 4386   4.825   2.560   5.689
 1481TIP3   OH2 4387   0.244   7.296   2.139
 1481TIP3    H1 4388   0.160   7.272   2.179
 1481TIP3    H2 4389   0.225   7.376   2.090
 1482TIP3   OH2 4390   7.490   0.298   3.605
 1482TIP3    H1 4391   7.473   0.203   3.605
 1482TIP3    H2 4392   7.433   0.332   3.674
 1483TIP3   OH2 4393   4.886   5.381   1.599
 1483TIP3    H1 4394   4.826   5.454   1.583
 1483TIP3    H2 4395   4.831   5.303   1.591
 1484TIP3   OH2 4396   1.314   2.797   5.453
 1484TIP3    H1 4397   1.330   2.872   5.510
 1484TIP3    H2 4398   1.221   2.777   5.464
 1485TIP3   OH2 4399   6.706   6.526   5.467
 1485TIP3    H1 4400   6.736   6.440   5.437
 1485TIP3    H2 4401   6.677   6.511   5.557
 1486TIP3   OH2 4402   5.762   7.029   6.160
 1486TIP3    H1 4403   5.699   7.080   6.109
 1486TIP3    H2 4404   5.722   7.023   6.247
 1487TIP3   OH2 4405   0.240   4.954   6.103
 1487TIP3    H1 4406   0.200   4.869   6.120
 1487TIP3    H2 4407   0.245   4.959   6.008
 1488TIP3   OH2 4408   4.607   1.028   6.072
 1488TIP3    H1 4409   4.702   1.038   6.077
 1488TIP3    H2 4410   4.575   1.114   6.048
 1489TIP3   OH2 4411   7.397   4.991   0.042
 1489TIP3    H1 4412   7.402   4.899   0.071
 1489TIP3    H2 4413   7.426   4.989  -0.049
 1490TIP3   OH2 4414   7.805   7.306   0.879
 1490TIP3    H1 4415   7.790   7.372   0.812
 1490TIP3    H2 4416   7.771   7.225   0.840
 1491TIP3   OH2 4417   7.550   6.833   1.420
 1491TIP3    H1 4418   7.492   6.817   1.345
 1491TIP3    H2 4419   7.500   6.891   1.478
 1492TIP3   OH2 4420   7.563   3.451   0.883
 1492TIP3    H1 4421   7.581   3.358   0.868
 1492TIP3    H2 4422   7.603   3.470   0.968
 1493TIP3   OH2 4423   4.182   2.902   1.800
 1493TIP3    H1 4424   4.225   2.820   1.776
 1493TIP3    H2 4425   4.140   2.931   1.719
 1494TIP3   OH2 4426   5.696   6.908   1.612
 1494TIP3    H1 4427   5.740   6.991   1.595
 1494TIP3    H2 4428   5.680   6.908   1.706
 1495TIP3   OH2 4429   8.304   2.501   4.939
 1495TIP3    H1 4430   8.223   2.451   4.929
 1495TIP3    H2 4431   8.356   2.450   5.002
 1496TIP3   OH2 4432   6.017   3.548   3.953
 1496TIP3    H1 4433   5.989   3.524   4.041
 1496TIP3    H2 4434   5.958   3.499   3.895
 1497TIP3   OH2 4435   5.690   7.809   1.307
 1497TIP3    H1 4436   5.783   7.806   1.329
 1497TIP3    H2 4437   5.648   7.833   1.390
 1498TIP3   OH2 4438   0.178   3.650   5.247
 1498TIP3    H1 4439   0.093   3.607   5.253
 1498TIP3    H2 4440   0.173   3.700   5.165
 1499TIP3   OH2 4441   2.623   5.348   4.106
 1499TIP3    H1 4442   2.600   5.287   4.036
 1499TIP3    H2 4443   2.715   5.330   4.125
 1500TIP3   OH2 4444   1.927   3.632   0.917
 1500TIP3    H1 4445   2.019   3.652   0.932
 1500TIP3    H2 4446   1.919   3.625   0.822
 1501TIP3   OH2 4447   5.265   0.518   3.923
 1501TIP3    H1 4448   5.320   0.464   3.980
 1501TIP3    H2 4449   5.176   0.507   3.958
 1502TIP3   OH2 4450   5.866   2.482   3.050
 1502TIP3    H1 4451   5.840   2.527   2.969
 1502TIP3    H2 4452   5.785   2.444   3.083
 1503TIP3   OH2 4453   2.365   3.337   1.564
 1503TIP3    H1 4454   2.411   3.393   1.628
 1503TIP3    H2 4455   2.355   3.253   1.609
 1504TIP3   OH2 4456   2.284   7.832   5.141
 1504TIP3    H1 4457   2.203   7.784   5.159
 1504TIP3    H2 4458   2.351   7.763   5.133
 1505TIP3   OH2 4459   1.502   4.423   5.634
 1505TIP3    H1 4460   1.587   4.435   5.590
 1505TIP3    H2 4461   1.447   4.380   5.569
 1506TIP3   OH2 4462   3.730   5.036   3.402
 1506TIP3    H1 4463   3.714   5.035   3.307
 1506TIP3    H2 4464   3.660   5.090   3.438
 1507TIP3   OH2 4465   2.904   3.214   4.913
 1507TIP3    H1 4466   2.888   3.143   4.975
 1507TIP3    H2 4467   2.869   3.292   4.957
 1508TIP3   OH2 4468   0.119   6.610   1.748
 1508TIP3    H1 4469   0.193   6.571   1.702
 1508TIP3    H2 4470   0.140   6.704   1.752
 1509TIP3   OH2 4471   7.714   1.559   0.661
 1509TIP3    H1 4472   7.630   1.604   0.667
 1509TIP3    H2 4473   7.732   1.554   0.567
 1510TIP3   OH2 4474   3.882   7.330   6.219
 1510TIP3    H1 4475   3.976   7.331   6.236
 1510TIP3    H2 4476   3.848   7.406   6.266
 1511TIP3   OH2 4477   3.788   3.956   1.915
 1511TIP3    H1 4478   3.806   3.973   2.007
 1511TIP3    H2 4479   3.806   4.039   1.871
 1512TIP3   OH2 4480   6.673   1.425   4.411
 1512TIP3    H1 4481   6.656   1.357   4.475
 1512TIP3    H2 4482   6.679   1.379   4.328
 1513TIP3   OH2 4483   7.020   2.419   0.647
 1513TIP3    H1 4484   7.071   2.500   0.638
 1513TIP3    H2 4485   6.986   2.403   0.559
 1514TIP3   OH2 4486   7.924   6.640   1.642
 1514TIP3    H1 4487   8.010   6.598   1.638
 1514TIP3    H2 4488   7.918   6.673   1.732
 1515TIP3   OH2 4489   7.714   4.924   3.009
 1515TIP3    H1 4490   7.764   5.005   3.004
 1515TIP3    H2 4491   7.742   4.884   3.092
 1516TIP3   OH2 4492   7.228   5.284   5.469
 1516TIP3    H1 4493   7.246   5.269   5.377
 1516TIP3    H2 4494   7.200   5.199   5.502
 1517TIP3   OH2 4495   7.195   1.005   2.598
 1517TIP3    H1 4496   7.159   0.931   2.647
 1517TIP3    H2 4497   7.194   1.078   2.660
 1518TIP3   OH2 4498   7.874   0.224   4.037
 1518TIP3    H1 4499   7.933   0.299   4.028
 1518TIP3    H2 4500   7.884   0.176   3.955
 1519TIP3   OH2 4501   2.695   1.918   2.049
 1519TIP3    H1 4502   2.790   1.929   2.044
 1519TIP3    H2 4503   2.661   1.969   1.976
 1520TIP3   OH2 4504   1.849   2.911   2.569
 1520TIP3    H1 4505   1.892   2.953   2.643
 1520TIP3    H2 4506   1.813   2.984   2.518
 1521TIP3   OH2 4507   1.630   4.749   4.803
 1521TIP3    H1 4508   1.626   4.747   4.899
 1521TIP3    H2 4509   1.723   4.762   4.783
 1522TIP3   OH2 4510   5.487   4.996   5.022
 1522TIP3    H1 4511   5.432   4.924   4.992
 1522TIP3    H2 4512   5.426   5.059   5.060
 1523TIP3   OH2 4513   2.283   4.183   3.011
 1523TIP3    H1 4514   2.332   4.227   3.080
 1523TIP3    H2 4515   2.265   4.251   2.947
 1524TIP3   OH2 4516   5.422   4.564   4.110
 1524TIP3    H1 4517   5.401   4.627   4.178
 1524TIP3    H2 4518   5.340   4.549   4.064
 1525TIP3   OH2 4519   3.803   5.071   5.308
 1525TIP3    H1 4520   3.767   5.012   5.242
 1525TIP3    H2 4521   3.824   5.015   5.383
 1526TIP3   OH2 4522   5.459   6.488   5.711
 1526TIP3    H1 4523   5.443   6.508   5.803
 1526TIP3    H2 4524   5.495   6.400   5.712
 1527TIP3   OH2 4525   3.646   4.739   5.495
 1527TIP3    H1 4526   3.603   4.821   5.471
 1527TIP3    H2 4527   3.618   4.677   5.427
 1528TIP3   OH2 4528   7.639   2.269   5.518
 1528TIP3    H1 4529   7.638   2.361   5.493
 1528TIP3    H2 4530   7.635   2.222   5.435
 1529TIP3   OH2 4531   7.625   3.947   1.712
 1529TIP3    H1 4532   7.711   3.964   1.672
 1529TIP3    H2 4533   7.573   3.910   1.640
 1530TIP3   OH2 4534   4.538   4.467   2.928
 1530TIP3    H1 4535   4.510   4.416   2.852
 1530TIP3    H2 4536   4.580   4.545   2.890
 1531TIP3   OH2 4537   5.824   0.892   2.565
 1531TIP3    H1 4538   5.789   0.812   2.603
 1531TIP3    H2 4539   5.801   0.886   2.472
 1532TIP3   OH2 4540   6.670   5.527   5.197
 1532TIP3    H1 4541   6.749   5.514   5.144
 1532TIP3    H2 4542   6.681   5.469   5.272
 1533TIP3   OH2 4543   5.755   0.927   3.970
 1533TIP3    H1 4544   5.696   0.944   3.897
 1533TIP3    H2 4545   5.831   0.982   3.953
 1534TIP3   OH2 4546   0.518   7.014   5.155
 1534TIP3    H1 4547   0.524   7.097   5.204
 1534TIP3    H2 4548   0.559   6.950   5.213
 1535TIP3   OH2 4549   0.890   1.137   2.438
 1535TIP3    H1 4550   0.981   1.164   2.427
 1535TIP3    H2 4551   0.872   1.151   2.531
 1536TIP3   OH2 4552   5.282   7.322   4.023
 1536TIP3    H1 4553   5.197   7.365   4.031
 1536TIP3    H2 4554   5.306   7.298   4.113
 1537TIP3   OH2 4555   4.146   3.450   2.904
 1537TIP3    H1 4556   4.200   3.493   2.971
 1537TIP3    H2 4557   4.087   3.394   2.954
 1538TIP3   OH2 4558   2.719   5.106   4.272
 1538TIP3    H1 4559   2.708   5.163   4.348
 1538TIP3    H2 4560   2.777   5.156   4.213
 1539TIP3   OH2 4561   2.151   5.998   5.614
 1539TIP3    H1 4562   2.198   5.925   5.573
 1539TIP3    H2 4563   2.064   5.963   5.631
 1540TIP3   OH2 4564   7.395   2.924   0.189
 1540TIP3    H1 4565   7.464   2.940   0.125
 1540TIP3    H2 4566   7.315   2.957   0.148
 1541TIP3   OH2 4567   0.285   7.240   0.281
 1541TIP3    H1 4568   0.340   7.162   0.267
 1541TIP3    H2 4569   0.224   7.215   0.350
 1542TIP3   OH2 4570   6.895   4.351   2.472
 1542TIP3    H1 4571   6.880   4.398   2.391
 1542TIP3    H2 4572   6.962   4.402   2.518
 1543TIP3   OH2 4573   5.886   6.827   3.502
 1543TIP3    H1 4574   5.861   6.912   3.539
 1543TIP3    H2 4575   5.957   6.796   3.559
 1544TIP3   OH2 4576   7.241   5.132   5.237
 1544TIP3    H1 4577   7.232   5.140   5.142
 1544TIP3    H2 4578   7.281   5.046   5.251
 1545TIP3   OH2 4579   0.839   4.982   2.210
 1545TIP3    H1 4580   0.747   4.960   2.222
 1545TIP3    H2 4581   0.855   5.056   2.268
 1546TIP3   OH2 4582   7.391   5.095   4.661
 1546TIP3    H1 4583   7.359   5.019   4.710
 1546TIP3    H2 4584   7.471   5.065   4.618
 1547TIP3   OH2 4585   4.766   4.264   6.718
 1547TIP3    H1 4586   4.830   4.289   6.651
 1547TIP3    H2 4587   4.817   4.257   6.799
 1548TIP3   OH2 4588   0.763   5.046   5.013
 1548TIP3    H1 4589   0.730   5.108   4.948
 1548TIP3    H2 4590   0.738   5.084   5.097
 1549TIP3   OH2 4591   3.938   6.271   2.910
 1549TIP3    H1 4592   4.003   6.213   2.949
 1549TIP3    H2 4593   3.959   6.271   2.817
 1550TIP3   OH2 4594   6.526   6.878   2.713
 1550TIP3    H1 4595   6.611   6.901   2.749
 1550TIP3    H2 4596   6.543   6.802   2.657
 1551TIP3   OH2 4597   2.282   5.808   1.308
 1551TIP3    H1 4598   2.287   5.817   1.404
 1551TIP3    H2 4599   2.333   5.882   1.275
 1552TIP3   OH2 4600   5.045   1.809   6.560
 1552TIP3    H1 4601   5.107   1.872   6.596
 1552TIP3    H2 4602   5.099   1.751   6.506
 1553TIP3   OH2 4603   2.299   1.798   3.105
 1553TIP3    H1 4604   2.281   1.782   3.012
 1553TIP3    H2 4605   2.393   1.813   3.109
 1554TIP3   OH2 4606   4.231   4.746   4.329
 1554TIP3    H1 4607   4.189   4.722   4.247
 1554TIP3    H2 4608   4.168   4.805   4.372
 1555TIP3   OH2 4609   6.621   7.654   5.244
 1555TIP3    H1 4610   6.646   7.664   5.336
 1555TIP3    H2 4611   6.641   7.739   5.205
 1556TIP3   OH2 4612   5.733   4.285   0.570
 1556TIP3    H1 4613   5.706   4.311   0.482
 1556TIP3    H2 4614   5.804   4.222   0.556
 1557TIP3   OH2 4615   5.832   4.171   4.599
 1557TIP3    H1 4616   5.738   4.169   4.616
 1557TIP3    H2 4617   5.860   4.258   4.628
 1558TIP3   OH2 4618   0.080   0.715   4.556
 1558TIP3    H1 4619   0.015   0.656   4.519
 1558TIP3    H2 4620   0.058   0.719   4.649
 1559TIP3   OH2 4621   6.820   0.540   5.873
 1559TIP3    H1 4622   6.788   0.569   5.788
 1559TIP3    H2 4623   6.746   0.555   5.933
 1560TIP3   OH2 4624   8.146   6.242   6.365
 1560TIP3    H1 4625   8.105   6.285   6.440
 1560TIP3    H2 4626   8.240   6.251   6.381
 1561TIP3   OH2 4627   8.241   4.826   2.580
 1561TIP3    H1 4628   8.147   4.827   2.595
 1561TIP3    H2 4629   8.272   4.908   2.619
 1562TIP3   OH2 4630   1.063   0.630   1.962
 1562TIP3    H1 4631   1.097   0.694   1.900
 1562TIP3    H2 4632   1.097   0.546   1.930
 1563TIP3   OH2 4633   2.504   3.642   1.078
 1563TIP3    H1 4634   2.552   3.645   1.161
 1563TIP3    H2 4635   2.465   3.554   1.076
 1564TIP3   OH2 4636   1.877   5.039   2.352
 1564TIP3    H1 4637   1.794   5.038   2.305
 1564TIP3    H2 4638   1.865   4.978   2.425
 1565TIP3   OH2 4639   4.550   0.159   0.169
 1565TIP3    H1 4640   4.490   0.099   0.214
 1565TIP3    H2 4641   4.623   0.170   0.229
 1566TIP3   OH2 4642   8.261   6.057   1.578
 1566TIP3    H1 4643   8.259   5.966   1.607
 1566TIP3    H2 4644   8.174   6.072   1.541
 1567TIP3   OH2 4645   7.749   1.449   1.257
 1567TIP3    H1 4646   7.720   1.375   1.310
 1567TIP3    H2 4647   7.833   1.421   1.221
 1568TIP3   OH2 4648   6.891   5.725   1.224
 1568TIP3    H1 4649   6.964   5.784   1.204
 1568TIP3    H2 4650   6.826   5.745   1.157
 1569TIP3   OH2 4651   6.240   0.808   3.352
 1569TIP3    H1 4652   6.178   0.735   3.351
 1569TIP3    H2 4653   6.262   0.822   3.260
 1570TIP3   OH2 4654   5.823   7.399   6.159
 1570TIP3    H1 4655   5.816   7.351   6.076
 1570TIP3    H2 4656   5.838   7.490   6.133
 1571TIP3   OH2 4657   2.059   2.325   0.967
 1571TIP3    H1 4658   2.019   2.237   0.971
 1571TIP3    H2 4659   1.989   2.384   0.997
 1572TIP3   OH2 4660   1.960   3.702   4.904
 1572TIP3    H1 4661   1.930   3.778   4.853
 1572TIP3    H2 4662   1.926   3.626   4.857
 1573TIP3   OH2 4663   6.419   1.986   1.973
 1573TIP3    H1 4664   6.416   2.072   2.014
 1573TIP3    H2 4665   6.366   1.995   1.893
 1574TIP3   OH2 4666   5.667   1.524   3.068
 1574TIP3    H1 4667   5.590   1.561   3.024
 1574TIP3    H2 4668   5.713   1.476   2.999
 1575TIP3   OH2 4669   3.954   1.201   6.119
 1575TIP3    H1 4670   3.964   1.106   6.130
 1575TIP3    H2 4671   3.881   1.224   6.176
 1576TIP3   OH2 4672   5.449   3.128   4.632
 1576TIP3    H1 4673   5.424   3.170   4.714
 1576TIP3    H2 4674   5.473   3.039   4.657
 1577TIP3   OH2 4675   7.576   4.276   4.121
 1577TIP3    H1 4676   7.593   4.347   4.183
 1577TIP3    H2 4677   7.533   4.319   4.047
 1578TIP3   OH2 4678   1.062   3.359   1.331
 1578TIP3    H1 4679   1.153   3.328   1.334
 1578TIP3    H2 4680   1.019   3.313   1.404
 1579TIP3   OH2 4681   3.789   5.484   3.913
 1579TIP3    H1 4682   3.815   5.424   3.843
 1579TIP3    H2 4683   3.726   5.434   3.965
 1580TIP3   OH2 4684   4.654  -0.006   2.418
 1580TIP3    H1 4685   4.639   0.058   2.489
 1580TIP3    H2 4686   4.580   0.008   2.358
 1581TIP3   OH2 4687   3.574   6.457   5.599
 1581TIP3    H1 4688   3.601   6.382   5.545
 1581TIP3    H2 4689   3.623   6.531   5.564
 1582TIP3   OH2 4690   6.477   7.613   0.328
 1582TIP3    H1 4691   6.422   7.690   0.315
 1582TIP3    H2 4692   6.501   7.585   0.240
 1583TIP3   OH2 4693   6.555   5.101   1.356
 1583TIP3    H1 4694   6.616   5.164   1.395
 1583TIP3    H2 4695   6.532   5.042   1.428
 1584TIP3   OH2 4696   4.753   1.615   3.068
 1584TIP3    H1 4697   4.764   1.649   3.156
 1584TIP3    H2 4698   4.797   1.530   3.069
 1585TIP3   OH2 4699   1.035   2.195   1.528
 1585TIP3    H1 4700   1.081   2.265   1.482
 1585TIP3    H2 4701   1.088   2.117   1.513
 1586TIP3   OH2 4702   7.361   2.378   4.664
 1586TIP3    H1 4703   7.391   2.447   4.604
 1586TIP3    H2 4704   7.429   2.310   4.656
 1587TIP3   OH2 4705   6.026   0.306   6.100
 1587TIP3    H1 4706   6.095   0.303   6.167
 1587TIP3    H2 4707   5.980   0.388   6.118
 1588TIP3   OH2 4708   3.229   7.612   0.409
 1588TIP3    H1 4709   3.315   7.585   0.376
 1588TIP3    H2 4710   3.167   7.555   0.363
 1589TIP3   OH2 4711   6.676   1.104   2.822
 1589TIP3    H1 4712   6.683   1.010   2.803
 1589TIP3    H2 4713   6.585   1.126   2.801
 1590TIP3   OH2 4714   0.677   5.333   3.586
 1590TIP3    H1 4715   0.745   5.287   3.537
 1590TIP3    H2 4716   0.721   5.362   3.667
 1591TIP3   OH2 4717   4.075   7.808   2.217
 1591TIP3    H1 4718   4.049   7.869   2.148
 1591TIP3    H2 4719   4.133   7.745   2.174
 1592TIP3   OH2 4720   3.424   0.096   1.553
 1592TIP3    H1 4721   3.337   0.136   1.553
 1592TIP3    H2 4722   3.485   0.170   1.556
 1593TIP3   OH2 4723   1.175   3.690   3.231
 1593TIP3    H1 4724   1.202   3.674   3.321
 1593TIP3    H2 4725   1.081   3.675   3.230
 1594TIP3   OH2 4726   6.081   1.234   4.769
 1594TIP3    H1 4727   6.144   1.305   4.751
 1594TIP3    H2 4728   6.103   1.205   4.857
 1595TIP3   OH2 4729   7.734   1.890   0.603
 1595TIP3    H1 4730   7.666   1.823   0.599
 1595TIP3    H2 4731   7.784   1.868   0.681
 1596TIP3   OH2 4732   8.062   1.968   5.301
 1596TIP3    H1 4733   8.102   1.890   5.264
 1596TIP3    H2 4734   8.053   1.948   5.395
 1597TIP3   OH2 4735   3.406   6.353   4.971
 1597TIP3    H1 4736   3.361   6.273   4.946
 1597TIP3    H2 4737   3.406   6.352   5.067
 1598TIP3   OH2 4738   5.457   4.501   1.409
 1598TIP3    H1 4739   5.391   4.570   1.412
 1598TIP3    H2 4740   5.471   4.477   1.501
 1599TIP3   OH2 4741   1.383   6.545   1.056
 1599TIP3    H1 4742   1.476   6.522   1.056
 1599TIP3    H2 4743   1.339   6.465   1.085
 1600TIP3   OH2 4744   6.422   7.764   1.677
 1600TIP3    H1 4745   6.454   7.854   1.688
 1600TIP3    H2 4746   6.427   7.749   1.582
 1601TIP3   OH2 4747   3.971   6.507   5.265
 1601TIP3    H1 4748   3.995   6.420   5.232
 1601TIP3    H2 4749   4.055   6.548   5.287
 1602TIP3   OH2 4750   6.754   2.830   4.014
 1602TIP3    H1 4751   6.838   2.848   4.057
 1602TIP3    H2 4752   6.702   2.787   4.082
 1603TIP3   OH2 4753   5.903   7.664   4.960
 1603TIP3    H1 4754   5.938   7.631   4.877
 1603TIP3    H2 4755   5.934   7.754   4.966
 1604TIP3   OH2 4756   0.516   0.664   1.257
 1604TIP3    H1 4757   0.609   0.640   1.259
 1604TIP3    H2 4758   0.494   0.667   1.165
 1605TIP3   OH2 4759   5.067   0.846   2.339
 1605TIP3    H1 4760   5.050   0.809   2.426
 1605TIP3    H2 4761   5.036   0.937   2.346
 1606TIP3   OH2 4762   6.341   2.784   6.375
 1606TIP3    H1 4763   6.294   2.706   6.346
 1606TIP3    H2 4764   6.349   2.838   6.296
 1607TIP3   OH2 4765   0.647   7.032   1.480
 1607TIP3    H1 4766   0.721   7.085   1.454
 1607TIP3    H2 4767   0.597   7.088   1.540
 1608TIP3   OH2 4768   7.277   2.249   1.871
 1608TIP3    H1 4769   7.241   2.169   1.833
 1608TIP3    H2 4770   7.362   2.260   1.829
 1609TIP3   OH2 4771   6.857   0.146   0.098
 1609TIP3    H1 4772   6.827   0.232   0.068
 1609TIP3    H2 4773   6.947   0.161   0.129
 1610TIP3   OH2 4774   2.337   2.227   2.333
 1610TIP3    H1 4775   2.265   2.231   2.271
 1610TIP3    H2 4776   2.405   2.281   2.295
 1611TIP3   OH2 4777   2.939   4.338   2.438
 1611TIP3    H1 4778   2.967   4.275   2.372
 1611TIP3    H2 4779   2.992   4.318   2.515
 1612TIP3   OH2 4780   5.804   7.789   0.278
 1612TIP3    H1 4781   5.770   7.700   0.291
 1612TIP3    H2 4782   5.749   7.825   0.208
 1613TIP3   OH2 4783   5.604   0.725   4.956
 1613TIP3    H1 4784   5.681   0.673   4.978
 1613TIP3    H2 4785   5.638   0.814   4.943
 1614TIP3   OH2 4786   6.152   2.997   6.259
 1614TIP3    H1 4787   6.181   3.033   6.342
 1614TIP3    H2 4788   6.233   2.972   6.214
 1615TIP3   OH2 4789   2.822   5.975   2.182
 1615TIP3    H1 4790   2.809   6.018   2.097
 1615TIP3    H2 4791   2.776   6.031   2.245
 1616TIP3   OH2 4792   5.043   5.657   4.291
 1616TIP3    H1 4793   4.956   5.691   4.270
 1616TIP3    H2 4794   5.094   5.668   4.211
 1617TIP3   OH2 4795   7.329   6.723   3.619
 1617TIP3    H1 4796   7.388   6.672   3.562
 1617TIP3    H2 4797   7.387   6.784   3.664
 1618TIP3   OH2 4798   2.824   7.799   4.547
 1618TIP3    H1 4799   2.833   7.715   4.501
 1618TIP3    H2 4800   2.848   7.780   4.637
 1619TIP3   OH2 4801   0.364   4.273   2.744
 1619TIP3    H1 4802   0.338   4.196   2.795
 1619TIP3    H2 4803   0.284   4.301   2.700
 1620TIP3   OH2 4804   1.761   7.004   2.288
 1620TIP3    H1 4805   1.757   6.993   2.383
 1620TIP3    H2 4806   1.774   6.916   2.254
 1621TIP3   OH2 4807   5.372   2.361   3.749
 1621TIP3    H1 4808   5.319   2.290   3.714
 1621TIP3    H2 4809   5.337   2.376   3.837
 1622TIP3   OH2 4810   3.285   1.371   2.577
 1622TIP3    H1 4811   3.248   1.373   2.665
 1622TIP3    H2 4812   3.363   1.316   2.584
 1623TIP3   OH2 4813   0.617   4.450   2.555
 1623TIP3    H1 4814   0.618   4.520   2.489
 1623TIP3    H2 4815   0.570   4.378   2.513
 1624TIP3   OH2 4816   0.381   1.654   2.670
 1624TIP3    H1 4817   0.386   1.694   2.756
 1624TIP3    H2 4818   0.288   1.654   2.648
 1625TIP3   OH2 4819   8.229   3.728   3.660
 1625TIP3    H1 4820   8.270   3.671   3.595
 1625TIP3    H2 4821   8.267   3.699   3.743
 1626TIP3   OH2 4822   7.212   6.850   2.350
 1626TIP3    H1 4823   7.240   6.917   2.413
 1626TIP3    H2 4824   7.287   6.792   2.342
 1627TIP3   OH2 4825   1.063   7.260   1.236
 1627TIP3    H1 4826   1.060   7.341   1.286
 1627TIP3    H2 4827   0.975   7.222   1.246
 1628TIP3   OH2 4828   0.518   4.893   0.574
 1628TIP3    H1 4829   0.433   4.859   0.548
 1628TIP3    H2 4830   0.558   4.923   0.492
 1629TIP3   OH2 4831   8.187   6.060   5.400
 1629TIP3    H1 4832   8.179   6.002   5.476
 1629TIP3    H2 4833   8.278   6.052   5.373
 1630TIP3   OH2 4834   3.454   1.268   3.389
 1630TIP3    H1 4835   3.520   1.295   3.325
 1630TIP3    H2 4836   3.434   1.177   3.367
 1631TIP3   OH2 4837   2.883   5.257   2.297
 1631TIP3    H1 4838   2.955   5.199   2.323
 1631TIP3    H2 4839   2.804   5.205   2.308
 1632TIP3   OH2 4840   4.230   3.791   2.835
 1632TIP3    H1 4841   4.184   3.709   2.820
 1632TIP3    H2 4842   4.286   3.774   2.911
 1633TIP3   OH2 4843   7.052   4.633   0.599
 1633TIP3    H1 4844   6.960   4.630   0.625
 1633TIP3    H2 4845   7.070   4.546   0.564
 1634TIP3   OH2 4846   7.402   3.021   2.616
 1634TIP3    H1 4847   7.385   3.077   2.692
 1634TIP3    H2 4848   7.377   3.075   2.541
 1635TIP3   OH2 4849   4.730   3.874   0.284
 1635TIP3    H1 4850   4.699   3.835   0.202
 1635TIP3    H2 4851   4.802   3.817   0.312
 1636TIP3   OH2 4852   6.871   5.814   4.104
 1636TIP3    H1 4853   6.939   5.855   4.158
 1636TIP3    H2 4854   6.838   5.885   4.049
 1637TIP3   OH2 4855   4.006   0.556   0.433
 1637TIP3    H1 4856   4.004   0.556   0.337
 1637TIP3    H2 4857   3.939   0.620   0.459
 1638TIP3   OH2 4858   7.192   3.200   1.166
 1638TIP3    H1 4859   7.162   3.269   1.225
 1638TIP3    H2 4860   7.144   3.215   1.085
 1639TIP3   OH2 4861   4.738   4.933   2.124
 1639TIP3    H1 4862   4.685   4.944   2.203
 1639TIP3    H2 4863   4.699   4.993   2.060
 1640TIP3   OH2 4864   3.877   4.977   1.960
 1640TIP3    H1 4865   3.911   4.923   2.031
 1640TIP3    H2 4866   3.849   5.058   2.002
 1641TIP3   OH2 4867   4.106   4.522   2.143
 1641TIP3    H1 4868   4.195   4.542   2.174
 1641TIP3    H2 4869   4.104   4.554   2.053
 1642TIP3   OH2 4870   5.309   2.135   2.549
 1642TIP3    H1 4871   5.310   2.040   2.560
 1642TIP3    H2 4872   5.324   2.170   2.637
 1643TIP3   OH2 4873   2.836   5.762   0.484
 1643TIP3    H1 4874   2.810   5.674   0.458
 1643TIP3    H2 4875   2.753   5.810   0.492
 1644TIP3   OH2 4876   2.897   4.872   6.339
 1644TIP3    H1 4877   2.959   4.942   6.360
 1644TIP3    H2 4878   2.950   4.804   6.297
 1645TIP3   OH2 4879   7.628   1.270   4.843
 1645TIP3    H1 4880   7.676   1.191   4.817
 1645TIP3    H2 4881   7.559   1.239   4.901
 1646TIP3   OH2 4882   0.732   4.173   4.515
 1646TIP3    H1 4883   0.749   4.079   4.525
 1646TIP3    H2 4884   0.783   4.198   4.438
 1647TIP3   OH2 4885   3.125   1.526   5.415
 1647TIP3    H1 4886   3.211   1.554   5.383
 1647TIP3    H2 4887   3.118   1.565   5.502
 1648TIP3   OH2 4888   4.154   1.747   6.257
 1648TIP3    H1 4889   4.195   1.815   6.311
 1648TIP3    H2 4890   4.211   1.671   6.267
 1649TIP3   OH2 4891   8.025   2.068   3.326
 1649TIP3    H1 4892   8.067   2.135   3.379
 1649TIP3    H2 4893   7.951   2.037   3.379
 1650TIP3   OH2 4894   8.194   3.935   1.179
 1650TIP3    H1 4895   8.101   3.953   1.196
 1650TIP3    H2 4896   8.195   3.897   1.091
 1651TIP3   OH2 4897   0.434   6.672   5.653
 1651TIP3    H1 4898   0.450   6.580   5.634
 1651TIP3    H2 4899   0.426   6.676   5.748
 1652TIP3   OH2 4900   0.619   7.102   5.637
 1652TIP3    H1 4901   0.562   7.126   5.564
 1652TIP3    H2 4902   0.703   7.141   5.616
 1653TIP3   OH2 4903   1.480   4.206   6.291
 1653TIP3    H1 4904   1.476   4.120   6.332
 1653TIP3    H2 4905   1.570   4.236   6.307
 1654TIP3   OH2 4906   5.680   5.293   2.721
 1654TIP3    H1 4907   5.671   5.344   2.641
 1654TIP3    H2 4908   5.673   5.202   2.693
 1655TIP3   OH2 4909   5.284   4.401   2.626
 1655TIP3    H1 4910   5.356   4.338   2.613
 1655TIP3    H2 4911   5.314   4.456   2.698
 1656TIP3   OH2 4912   0.480   3.554   6.139
 1656TIP3    H1 4913   0.521   3.623   6.190
 1656TIP3    H2 4914   0.528   3.474   6.162
 1657TIP3   OH2 4915   2.304   6.366   1.578
 1657TIP3    H1 4916   2.315   6.412   1.662
 1657TIP3    H2 4917   2.380   6.308   1.573
 1658TIP3   OH2 4918   7.507   6.437   3.168
 1658TIP3    H1 4919   7.514   6.354   3.121
 1658TIP3    H2 4920   7.548   6.501   3.111
 1659TIP3   OH2 4921   6.336   7.549   3.305
 1659TIP3    H1 4922   6.350   7.539   3.399
 1659TIP3    H2 4923   6.296   7.467   3.277
 1660TIP3   OH2 4924   5.245   4.191   6.164
 1660TIP3    H1 4925   5.292   4.143   6.232
 1660TIP3    H2 4926   5.258   4.283   6.186
 1661TIP3   OH2 4927   1.187   2.053   3.546
 1661TIP3    H1 4928   1.179   1.973   3.494
 1661TIP3    H2 4929   1.122   2.043   3.616
 1662TIP3   OH2 4930   1.043   4.620   4.051
 1662TIP3    H1 4931   1.108   4.690   4.061
 1662TIP3    H2 4932   1.071   4.552   4.113
 1663TIP3   OH2 4933   3.072   5.491   1.621
 1663TIP3    H1 4934   3.056   5.495   1.716
 1663TIP3    H2 4935   3.148   5.547   1.607
 1664TIP3   OH2 4936   5.289   1.279   0.845
 1664TIP3    H1 4937   5.348   1.218   0.888
 1664TIP3    H2 4938   5.338   1.360   0.838
 1665TIP3   OH2 4939   6.687   1.083   4.376
 1665TIP3    H1 4940   6.674   0.990   4.359
 1665TIP3    H2 4941   6.781   1.094   4.384
 1666TIP3   OH2 4942   5.305   6.761   6.334
 1666TIP3    H1 4943   5.212   6.778   6.319
 1666TIP3    H2 4944   5.311   6.666   6.344
 1667TIP3   OH2 4945   0.389   3.308   6.381
 1667TIP3    H1 4946   0.398   3.403   6.394
 1667TIP3    H2 4947   0.386   3.273   6.470
 1668TIP3   OH2 4948   7.782   5.035   5.238
 1668TIP3    H1 4949   7.708   5.093   5.220
 1668TIP3    H2 4950   7.855   5.093   5.256
 1669TIP3   OH2 4951   5.836   2.687   6.239
 1669TIP3    H1 4952   5.868   2.635   6.166
 1669TIP3    H2 4953   5.889   2.659   6.313
 1670TIP3   OH2 4954   3.764   5.658   4.604
 1670TIP3    H1 4955   3.800   5.693   4.685
 1670TIP3    H2 4956   3.742   5.735   4.552
 1671TIP3   OH2 4957   7.485   5.240   1.830
 1671TIP3    H1 4958   7.397   5.225   1.795
 1671TIP3    H2 4959   7.544   5.210   1.760
 1672TIP3   OH2 4960   1.729   4.779   2.072
 1672TIP3    H1 4961   1.688   4.746   1.992
 1672TIP3    H2 4962   1.818   4.802   2.046
 1673TIP3   OH2 4963   0.873   2.055   1.686
 1673TIP3    H1 4964   0.892   1.963   1.708
 1673TIP3    H2 4965   0.939   2.078   1.621
 1674TIP3   OH2 4966   0.371   2.305   3.731
 1674TIP3    H1 4967   0.381   2.399   3.715
 1674TIP3    H2 4968   0.448   2.281   3.781
 1675TIP3   OH2 4969   7.784   7.231   4.354
 1675TIP3    H1 4970   7.760   7.140   4.336
 1675TIP3    H2 4971   7.870   7.242   4.313
 1676TIP3   OH2 4972   6.439   2.172   5.151
 1676TIP3    H1 4973   6.490   2.092   5.157
 1676TIP3    H2 4974   6.475   2.229   5.219
 1677TIP3   OH2 4975   4.746   3.570   0.870
 1677TIP3    H1 4976   4.680   3.544   0.805
 1677TIP3    H2 4977   4.695   3.612   0.939
 1678TIP3   OH2 4978   3.540   0.356   5.315
 1678TIP3    H1 4979   3.466   0.403   5.353
 1678TIP3    H2 4980   3.529   0.365   5.221
 1679TIP3   OH2 4981   3.395   1.861   3.016
 1679TIP3    H1 4982   3.431   1.772   3.014
 1679TIP3    H2 4983   3.346   1.869   2.934
 1680TIP3   OH2 4984   5.895   7.764   2.160
 1680TIP3    H1 4985   5.943   7.749   2.079
 1680TIP3    H2 4986   5.810   7.722   2.146
 1681TIP3   OH2 4987   6.843   6.169   4.289
 1681TIP3    H1 4988   6.803   6.105   4.347
 1681TIP3    H2 4989   6.897   6.224   4.346
 1682TIP3   OH2 4990   7.386   1.945   0.805
 1682TIP3    H1 4991   7.387   1.943   0.709
 1682TIP3    H2 4992   7.296   1.969   0.828
 1683TIP3   OH2 4993   7.191   6.471   2.811
 1683TIP3    H1 4994   7.244   6.393   2.796
 1683TIP3    H2 4995   7.106   6.449   2.773
 1684TIP3   OH2 4996   7.529   4.147   3.184
 1684TIP3    H1 4997   7.451   4.199   3.164
 1684TIP3    H2 4998   7.499   4.056   3.180
 1685TIP3   OH2 4999   1.898   0.715   2.358
 1685TIP3    H1 5000   1.823   0.733   2.414
 1685TIP3    H2 5001   1.974   0.730   2.414
 1686TIP3   OH2 5002   6.499   4.659   6.158
 1686TIP3    H1 5003   6.446   4.600   6.212
 1686TIP3    H2 5004   6.452   4.665   6.075
 1687TIP3   OH2 5005   3.710   6.390   4.942
 1687TIP3    H1 5006   3.802   6.365   4.938
 1687TIP3    H2 5007   3.707   6.461   5.007
 1688TIP3   OH2 5008   2.477   4.348   1.278
 1688TIP3    H1 5009   2.539   4.407   1.320
 1688TIP3    H2 5010   2.521   4.264   1.275
 1689TIP3   OH2 5011   8.076   7.467   6.816
 1689TIP3    H1 5012   8.036   7.408   6.879
 1689TIP3    H2 5013   8.065   7.424   6.732
 1690TIP3   OH2 5014   5.106   7.491   2.780
 1690TIP3    H1 5015   5.115   7.475   2.874
 1690TIP3    H2 5016   5.023   7.537   2.772
 1691TIP3   OH2 5017   6.644   2.645   1.159
 1691TIP3    H1 5018   6.652   2.680   1.248
 1691TIP3    H2 5019   6.682   2.712   1.103
 1692TIP3   OH2 5020   6.993   6.545   2.248
 1692TIP3    H1 5021   7.032   6.512   2.329
 1692TIP3    H2 5022   6.917   6.488   2.234
 1693TIP3   OH2 5023   6.137   1.339   2.319
 1693TIP3    H1 5024   6.093   1.421   2.295
 1693TIP3    H2 5025   6.082   1.270   2.281
 1694TIP3   OH2 5026   6.367   3.512   3.234
 1694TIP3    H1 5027   6.382   3.549   3.321
 1694TIP3    H2 5028   6.288   3.459   3.244
 1695TIP3   OH2 5029   7.177   6.231   2.306
 1695TIP3    H1 5030   7.175   6.256   2.398
 1695TIP3    H2 5031   7.197   6.312   2.259
 1696TIP3   OH2 5032   3.105   4.410   1.439
 1696TIP3    H1 5033   3.134   4.352   1.510
 1696TIP3    H2 5034   3.147   4.375   1.361
 1697TIP3   OH2 5035   2.305   1.941   1.677
 1697TIP3    H1 5036   2.361   1.901   1.744
 1697TIP3    H2 5037   2.286   1.870   1.616
 1698TIP3   OH2 5038   0.399   2.874   4.004
 1698TIP3    H1 5039   0.398   2.785   3.968
 1698TIP3    H2 5040   0.419   2.930   3.929
 1699TIP3   OH2 5041   3.159   6.372   4.158
 1699TIP3    H1 5042   3.072   6.375   4.118
 1699TIP3    H2 5043   3.156   6.296   4.216
 1700TIP3   OH2 5044   6.750   0.179   2.008
 1700TIP3    H1 5045   6.840   0.210   2.011
 1700TIP3    H2 5046   6.714   0.218   1.927
 1701TIP3   OH2 5047   8.025   1.010   3.021
 1701TIP3    H1 5048   8.044   0.942   2.956
 1701TIP3    H2 5049   8.100   1.069   3.017
 1702TIP3   OH2 5050   5.318   7.208   5.292
 1702TIP3    H1 5051   5.360   7.172   5.214
 1702TIP3    H2 5052   5.229   7.172   5.290
 1703TIP3   OH2 5053   0.805   6.856   0.038
 1703TIP3    H1 5054   0.852   6.924   0.087
 1703TIP3    H2 5055   0.841   6.861  -0.050
 1704TIP3   OH2 5056   7.564   5.659   4.549
 1704TIP3    H1 5057   7.587   5.667   4.642
 1704TIP3    H2 5058   7.649   5.659   4.504
 1705TIP3   OH2 5059   1.271   0.701   0.526
 1705TIP3    H1 5060   1.273   0.795   0.511
 1705TIP3    H2 5061   1.196   0.670   0.476
 1706TIP3   OH2 5062   2.939   6.594   4.545
 1706TIP3    H1 5063   2.897   6.646   4.476
 1706TIP3    H2 5064   2.912   6.637   4.627
 1707TIP3   OH2 5065   4.223   1.806   3.375
 1707TIP3    H1 5066   4.175   1.749   3.435
 1707TIP3    H2 5067   4.154   1.858   3.332
 1708TIP3   OH2 5068   3.736   2.315   1.016
 1708TIP3    H1 5069   3.733   2.319   1.111
 1708TIP3    H2 5070   3.697   2.397   0.986
 1709TIP3   OH2 5071   2.081   4.214   0.570
 1709TIP3    H1 5072   2.076   4.257   0.655
 1709TIP3    H2 5073   2.067   4.121   0.589
 1710TIP3   OH2 5074   5.709   7.695   6.765
 1710TIP3    H1 5075   5.743   7.748   6.837
 1710TIP3    H2 5076   5.721   7.605   6.792
 1711TIP3   OH2 5077   0.669   1.609   5.309
 1711TIP3    H1 5078   0.714   1.528   5.284
 1711TIP3    H2 5079   0.694   1.623   5.400
 1712TIP3   OH2 5080   1.671   3.573   3.652
 1712TIP3    H1 5081   1.620   3.598   3.575
 1712TIP3    H2 5082   1.648   3.638   3.718
 1713TIP3   OH2 5083   1.563   7.856   1.618
 1713TIP3    H1 5084   1.488   7.802   1.641
 1713TIP3    H2 5085   1.571   7.845   1.523
 1714TIP3   OH2 5086   6.690   0.613   6.540
 1714TIP3    H1 5087   6.771   0.638   6.585
 1714TIP3    H2 5088   6.692   0.663   6.458
 1715TIP3   OH2 5089   0.814   4.094   1.441
 1715TIP3    H1 5090   0.766   4.053   1.369
 1715TIP3    H2 5091   0.798   4.038   1.516
 1716TIP3   OH2 5092   7.308   2.825   3.192
 1716TIP3    H1 5093   7.290   2.902   3.138
 1716TIP3    H2 5094   7.353   2.764   3.133
 1717TIP3   OH2 5095   1.663   5.563   1.415
 1717TIP3    H1 5096   1.717   5.488   1.442
 1717TIP3    H2 5097   1.685   5.577   1.323
 1718TIP3   OH2 5098   1.781   5.309   1.380
 1718TIP3    H1 5099   1.812   5.223   1.352
 1718TIP3    H2 5100   1.847   5.370   1.347
 1719TIP3   OH2 5101   4.183   4.303   5.349
 1719TIP3    H1 5102   4.246   4.300   5.278
 1719TIP3    H2 5103   4.203   4.226   5.402
 1720TIP3   OH2 5104   1.120   3.641   4.792
 1720TIP3    H1 5105   1.075   3.557   4.791
 1720TIP3    H2 5106   1.186   3.633   4.861
 1721TIP3   OH2 5107   6.480   3.766   0.185
 1721TIP3    H1 5108   6.413   3.812   0.134
 1721TIP3    H2 5109   6.459   3.787   0.276
 1722TIP3   OH2 5110   0.815   5.215   5.448
 1722TIP3    H1 5111   0.741   5.167   5.486
 1722TIP3    H2 5112   0.869   5.239   5.523
 1723TIP3   OH2 5113   2.032   2.901   4.438
 1723TIP3    H1 5114   1.982   2.952   4.501
 1723TIP3    H2 5115   1.974   2.828   4.415
 1724TIP3   OH2 5116   7.210   7.686   3.178
 1724TIP3    H1 5117   7.258   7.761   3.215
 1724TIP3    H2 5118   7.157   7.724   3.108
 1725TIP3   OH2 5119   1.516   4.619   2.911
 1725TIP3    H1 5120   1.451   4.674   2.866
 1725TIP3    H2 5121   1.516   4.651   3.001
 1726TIP3   OH2 5122   1.076   4.869   3.554
 1726TIP3    H1 5123   1.073   4.805   3.625
 1726TIP3    H2 5124   1.093   4.817   3.476
 1727TIP3   OH2 5125   5.427   3.060   2.961
 1727TIP3    H1 5126   5.433   3.002   2.886
 1727TIP3    H2 5127   5.342   3.103   2.951
 1728TIP3   OH2 5128   1.501   4.654   1.283
 1728TIP3    H1 5129   1.551   4.610   1.352
 1728TIP3    H2 5130   1.447   4.586   1.244
 1729TIP3   OH2 5131   2.075   0.063   0.126
 1729TIP3    H1 5132   2.063  -0.020   0.080
 1729TIP3    H2 5133   2.014   0.058   0.200
 1730TIP3   OH2 5134   2.188   6.773   4.567
 1730TIP3    H1 5135   2.237   6.744   4.644
 1730TIP3    H2 5136   2.165   6.864   4.587
 1731TIP3   OH2 5137   5.952   5.471   4.740
 1731TIP3    H1 5138   5.982   5.384   4.767
 1731TIP3    H2 5139   5.898   5.501   4.813
 1732TIP3   OH2 5140   0.597   3.481   2.259
 1732TIP3    H1 5141   0.577   3.410   2.320
 1732TIP3    H2 5142   0.687   3.464   2.232
 1733TIP3   OH2 5143   2.177   4.808   2.505
 1733TIP3    H1 5144   2.124   4.761   2.441
 1733TIP3    H2 5145   2.128   4.802   2.586
 1734TIP3   OH2 5146   3.453   3.802   4.800
 1734TIP3    H1 5147   3.497   3.842   4.874
 1734TIP3    H2 5148   3.523   3.784   4.737
 1735TIP3   OH2 5149   7.692   3.062   4.625
 1735TIP3    H1 5150   7.698   3.140   4.571
 1735TIP3    H2 5151   7.641   3.089   4.701
 1736TIP3   OH2 5152   4.576   3.544   6.473
 1736TIP3    H1 5153   4.504   3.606   6.461
 1736TIP3    H2 5154   4.549   3.466   6.425
 1737TIP3   OH2 5155   5.432   3.507   4.676
 1737TIP3    H1 5156   5.406   3.596   4.698
 1737TIP3    H2 5157   5.378   3.483   4.601
 1738TIP3   OH2 5158   0.553   2.988   6.065
 1738TIP3    H1 5159   0.634   2.955   6.028
 1738TIP3    H2 5160   0.540   2.936   6.144
 1739TIP3   OH2 5161   5.043   7.241   5.269
 1739TIP3    H1 5162   4.984   7.247   5.194
 1739TIP3    H2 5163   4.997   7.287   5.339
 1740TIP3   OH2 5164   2.434   4.044   2.771
 1740TIP3    H1 5165   2.493   4.023   2.843
 1740TIP3    H2 5166   2.382   4.118   2.803
 1741TIP3   OH2 5167   8.264   4.978   2.005
 1741TIP3    H1 5168   8.303   4.962   1.919
 1741TIP3    H2 5169   8.297   5.064   2.031
 1742TIP3   OH2 5170   1.078   1.967   3.132
 1742TIP3    H1 5171   1.005   2.026   3.151
 1742TIP3    H2 5172   1.133   1.971   3.210
 1743TIP3   OH2 5173   5.594   6.500   5.089
 1743TIP3    H1 5174   5.514   6.479   5.136
 1743TIP3    H2 5175   5.640   6.563   5.145
 1744TIP3   OH2 5176   7.188   4.438   1.214
 1744TIP3    H1 5177   7.212   4.452   1.122
 1744TIP3    H2 5178   7.271   4.435   1.261
 1745TIP3   OH2 5179   2.881   0.828   5.311
 1745TIP3    H1 5180   2.904   0.875   5.391
 1745TIP3    H2 5181   2.826   0.889   5.262
 1746TIP3   OH2 5182   0.871   0.473   6.612
 1746TIP3    H1 5183   0.942   0.409   6.620
 1746TIP3    H2 5184   0.803   0.428   6.561
 1747TIP3   OH2 5185   3.384   1.967   2.470
 1747TIP3    H1 5186   3.438   1.976   2.392
 1747TIP3    H2 5187   3.318   2.036   2.462
 1748TIP3   OH2 5188   2.398   7.258   4.022
 1748TIP3    H1 5189   2.408   7.185   4.083
 1748TIP3    H2 5190   2.484   7.268   3.982
 1749TIP3   OH2 5191   4.010   1.197   3.760
 1749TIP3    H1 5192   3.969   1.213   3.845
 1749TIP3    H2 5193   4.068   1.123   3.776
 1750TIP3   OH2 5194   2.710   5.620   6.110
 1750TIP3    H1 5195   2.706   5.525   6.108
 1750TIP3    H2 5196   2.626   5.648   6.072
 1751TIP3   OH2 5197   5.766   2.572   2.739
 1751TIP3    H1 5198   5.701   2.587   2.670
 1751TIP3    H2 5199   5.721   2.597   2.820
 1752TIP3   OH2 5200   2.176   1.222   1.176
 1752TIP3    H1 5201   2.099   1.177   1.210
 1752TIP3    H2 5202   2.156   1.315   1.186
 1753TIP3   OH2 5203   7.483   7.643   2.717
 1753TIP3    H1 5204   7.509   7.726   2.676
 1753TIP3    H2 5205   7.530   7.576   2.666
 1754TIP3   OH2 5206   7.073   7.008   0.882
 1754TIP3    H1 5207   6.998   7.059   0.849
 1754TIP3    H2 5208   7.142   7.072   0.893
 1755TIP3   OH2 5209   3.178   1.432   6.181
 1755TIP3    H1 5210   3.271   1.447   6.201
 1755TIP3    H2 5211   3.131   1.492   6.239
 1756TIP3   OH2 5212   5.017   3.835   3.145
 1756TIP3    H1 5213   5.047   3.847   3.235
 1756TIP3    H2 5214   5.097   3.812   3.096
 1757TIP3   OH2 5215   4.616   7.133   5.363
 1757TIP3    H1 5216   4.685   7.196   5.384
 1757TIP3    H2 5217   4.651   7.082   5.291
 1758TIP3   OH2 5218   2.687   7.599   6.673
 1758TIP3    H1 5219   2.676   7.589   6.767
 1758TIP3    H2 5220   2.710   7.691   6.661
 1759TIP3   OH2 5221   3.880   0.758   6.009
 1759TIP3    H1 5222   3.945   0.747   5.940
 1759TIP3    H2 5223   3.822   0.828   5.976
 1760TIP3   OH2 5224   7.700   7.088   3.705
 1760TIP3    H1 5225   7.689   7.110   3.798
 1760TIP3    H2 5226   7.794   7.100   3.689
 1761TIP3   OH2 5227   3.354   3.378   0.859
 1761TIP3    H1 5228   3.353   3.297   0.809
 1761TIP3    H2 5229   3.427   3.368   0.920
 1762TIP3   OH2 5230   6.177   7.116   5.079
 1762TIP3    H1 5231   6.237   7.182   5.044
 1762TIP3    H2 5232   6.099   7.166   5.103
 1763TIP3   OH2 5233   2.684   7.593   4.073
 1763TIP3    H1 5234   2.730   7.511   4.056
 1763TIP3    H2 5235   2.600   7.584   4.027
 1764TIP3   OH2 5236   7.102   2.829   0.294
 1764TIP3    H1 5237   7.186   2.861   0.260
 1764TIP3    H2 5238   7.055   2.797   0.217
 1765TIP3   OH2 5239   0.426   4.338   4.106
 1765TIP3    H1 5240   0.501   4.278   4.110
 1765TIP3    H2 5241   0.448   4.408   4.168
 1766TIP3   OH2 5242   6.018   2.189   5.409
 1766TIP3    H1 5243   5.955   2.128   5.449
 1766TIP3    H2 5244   5.977   2.213   5.326
 1767TIP3   OH2 5245   6.932   5.432   3.285
 1767TIP3    H1 5246   6.992   5.369   3.243
 1767TIP3    H2 5247   6.868   5.452   3.217
 1768TIP3   OH2 5248   1.612   7.296   1.665
 1768TIP3    H1 5249   1.604   7.292   1.760
 1768TIP3    H2 5250   1.704   7.318   1.650
 1769TIP3   OH2 5251   5.048   3.905   0.240
 1769TIP3    H1 5252   5.014   3.865   0.160
 1769TIP3    H2 5253   5.083   3.832   0.291
 1770TIP3   OH2 5254   7.794   3.725   0.252
 1770TIP3    H1 5255   7.804   3.812   0.290
 1770TIP3    H2 5256   7.702   3.702   0.268
 1771TIP3   OH2 5257   6.830   3.765   2.104
 1771TIP3    H1 5258   6.886   3.800   2.173
 1771TIP3    H2 5259   6.871   3.682   2.080
 1772TIP3   OH2 5260   2.099   4.567   1.696
 1772TIP3    H1 5261   2.134   4.530   1.615
 1772TIP3    H2 5262   2.169   4.625   1.727
 1773TIP3   OH2 5263   7.935   4.640   6.092
 1773TIP3    H1 5264   7.869   4.707   6.074
 1773TIP3    H2 5265   8.017   4.680   6.065
 1774TIP3   OH2 5266   0.429   6.704   0.410
 1774TIP3    H1 5267   0.391   6.639   0.469
 1774TIP3    H2 5268   0.358   6.729   0.352
 1775TIP3   OH2 5269   8.141   6.967   2.354
 1775TIP3    H1 5270   8.076   6.988   2.287
 1775TIP3    H2 5271   8.132   6.872   2.366
 1776TIP3   OH2 5272   6.492   5.386   0.638
 1776TIP3    H1 5273   6.587   5.375   0.646
 1776TIP3    H2 5274   6.474   5.373   0.545
 1777TIP3   OH2 5275   4.561   1.955   1.263
 1777TIP3    H1 5276   4.593   1.998   1.343
 1777TIP3    H2 5277   4.619   1.986   1.194
 1778TIP3   OH2 5278   6.992   1.995   0.389
 1778TIP3    H1 5279   6.940   1.917   0.373
 1778TIP3    H2 5280   6.943   2.066   0.347
 1779TIP3   OH2 5281   5.962   5.210   3.639
 1779TIP3    H1 5282   6.031   5.193   3.703
 1779TIP3    H2 5283   5.904   5.135   3.645
 1780TIP3   OH2 5284   0.024   7.657   4.736
 1780TIP3    H1 5285   0.082   7.646   4.660
 1780TIP3    H2 5286  -0.058   7.688   4.698
 1781TIP3   OH2 5287   3.184   4.205   1.625
 1781TIP3    H1 5288   3.249   4.273   1.641
 1781TIP3    H2 5289   3.145   4.188   1.711
 1782TIP3   OH2 5290   3.340   6.002   1.359
 1782TIP3    H1 5291   3.357   6.093   1.335
 1782TIP3    H2 5292   3.381   5.991   1.445
 1783TIP3   OH2 5293   4.014   5.512   4.627
 1783TIP3    H1 5294   3.976   5.599   4.614
 1783TIP3    H2 5295   3.944   5.461   4.667
 1784TIP3   OH2 5296   3.553   4.721   2.987
 1784TIP3    H1 5297   3.642   4.695   3.010
 1784TIP3    H2 5298   3.499   4.688   3.059
 1785TIP3   OH2 5299   7.671   6.931   5.619
 1785TIP3    H1 5300   7.685   6.843   5.585
 1785TIP3    H2 5301   7.582   6.929   5.655
 1786TIP3   OH2 5302   0.311   2.488   1.108
 1786TIP3    H1 5303   0.274   2.529   1.186
 1786TIP3    H2 5304   0.364   2.556   1.067
 1787TIP3   OH2 5305   6.509   4.091   4.017
 1787TIP3    H1 5306   6.505   4.002   3.982
 1787TIP3    H2 5307   6.495   4.079   4.111
 1788TIP3   OH2 5308   7.113   5.393   4.439
 1788TIP3    H1 5309   7.105   5.298   4.425
 1788TIP3    H2 5310   7.202   5.405   4.472
 1789TIP3   OH2 5311   6.538   3.098   3.550
 1789TIP3    H1 5312   6.491   3.142   3.621
 1789TIP3    H2 5313   6.622   3.143   3.544
 1790TIP3   OH2 5314   6.010   2.981   2.041
 1790TIP3    H1 5315   5.950   2.931   1.986
 1790TIP3    H2 5316   6.079   3.010   1.981
 1791TIP3   OH2 5317   4.552   6.090   2.923
 1791TIP3    H1 5318   4.532   6.010   2.972
 1791TIP3    H2 5319   4.575   6.154   2.991
 1792TIP3   OH2 5320   3.890   4.408   6.459
 1792TIP3    H1 5321   3.804   4.409   6.500
 1792TIP3    H2 5322   3.947   4.365   6.524
 1793TIP3   OH2 5323   6.621   4.591   6.662
 1793TIP3    H1 5324   6.561   4.666   6.656
 1793TIP3    H2 5325   6.565   4.514   6.654
 1794TIP3   OH2 5326   7.902   5.850   1.648
 1794TIP3    H1 5327   7.837   5.911   1.685
 1794TIP3    H2 5328   7.985   5.897   1.655
 1795TIP3   OH2 5329   7.749   4.581   1.316
 1795TIP3    H1 5330   7.670   4.535   1.344
 1795TIP3    H2 5331   7.816   4.551   1.377
 1796TIP3   OH2 5332   6.487   6.087   4.961
 1796TIP3    H1 5333   6.440   6.031   5.023
 1796TIP3    H2 5334   6.559   6.032   4.929
 1797TIP3   OH2 5335   3.525   0.573   1.566
 1797TIP3    H1 5336   3.485   0.660   1.562
 1797TIP3    H2 5337   3.616   0.589   1.540
 1798TIP3   OH2 5338   2.531   2.254   2.119
 1798TIP3    H1 5339   2.600   2.276   2.055
 1798TIP3    H2 5340   2.454   2.234   2.065
 1799TIP3   OH2 5341   3.331   7.418   4.057
 1799TIP3    H1 5342   3.409   7.367   4.078
 1799TIP3    H2 5343   3.317   7.404   3.963
 1800TIP3   OH2 5344   2.688   6.896   3.130
 1800TIP3    H1 5345   2.699   6.809   3.092
 1800TIP3    H2 5346   2.747   6.897   3.205
 1801TIP3   OH2 5347   7.772   5.111   0.209
 1801TIP3    H1 5348   7.677   5.119   0.213
 1801TIP3    H2 5349   7.802   5.195   0.173
 1802TIP3   OH2 5350   1.664   6.523   1.131
 1802TIP3    H1 5351   1.707   6.605   1.106
 1802TIP3    H2 5352   1.665   6.470   1.051
 1803TIP3   OH2 5353   3.326   0.432   6.542
 1803TIP3    H1 5354   3.336   0.398   6.453
 1803TIP3    H2 5355   3.320   0.354   6.597
 1804TIP3   OH2 5356   0.304   1.107   6.323
 1804TIP3    H1 5357   0.259   1.162   6.387
 1804TIP3    H2 5358   0.290   1.018   6.355
 1805TIP3   OH2 5359   4.437   0.536   2.941
 1805TIP3    H1 5360   4.448   0.507   3.032
 1805TIP3    H2 5361   4.442   0.631   2.945
 1806TIP3   OH2 5362   7.229   1.818   4.875
 1806TIP3    H1 5363   7.280   1.737   4.886
 1806TIP3    H2 5364   7.152   1.791   4.825
 1807TIP3   OH2 5365   5.677   3.488   5.646
 1807TIP3    H1 5366   5.705   3.466   5.735
 1807TIP3    H2 5367   5.756   3.523   5.605
 1808TIP3   OH2 5368   7.579   4.797   5.196
 1808TIP3    H1 5369   7.588   4.870   5.134
 1808TIP3    H2 5370   7.631   4.727   5.158
 1809TIP3   OH2 5371   7.635   1.267   4.250
 1809TIP3    H1 5372   7.718   1.277   4.295
 1809TIP3    H2 5373   7.651   1.198   4.185
 1810TIP3   OH2 5374   4.228   7.804   1.207
 1810TIP3    H1 5375   4.267   7.766   1.286
 1810TIP3    H2 5376   4.232   7.733   1.143
 1811TIP3   OH2 5377   2.931   3.411   5.476
 1811TIP3    H1 5378   2.974   3.354   5.540
 1811TIP3    H2 5379   2.915   3.355   5.400
 1812TIP3   OH2 5380   2.963   1.163   4.309
 1812TIP3    H1 5381   2.908   1.208   4.244
 1812TIP3    H2 5382   3.036   1.222   4.323
 1813TIP3   OH2 5383   0.569   0.853   5.485
 1813TIP3    H1 5384   0.511   0.889   5.553
 1813TIP3    H2 5385   0.509   0.813   5.422
 1814TIP3   OH2 5386   4.824   3.883   5.300
 1814TIP3    H1 5387   4.895   3.928   5.346
 1814TIP3    H2 5388   4.841   3.790   5.314
 1815TIP3   OH2 5389   5.591   6.414   6.282
 1815TIP3    H1 5390   5.667   6.395   6.227
 1815TIP3    H2 5391   5.516   6.381   6.232
 1816TIP3   OH2 5392   0.571   4.197   1.860
 1816TIP3    H1 5393   0.566   4.232   1.771
 1816TIP3    H2 5394   0.492   4.144   1.869
 1817TIP3   OH2 5395   7.644   6.636   3.019
 1817TIP3    H1 5396   7.718   6.581   3.045
 1817TIP3    H2 5397   7.679   6.691   2.949
 1818TIP3   OH2 5398   7.147   6.907   5.364
 1818TIP3    H1 5399   7.165   6.996   5.396
 1818TIP3    H2 5400   7.231   6.863   5.368
 1819TIP3   OH2 5401   7.899   6.266   3.991
 1819TIP3    H1 5402   7.805   6.271   3.974
 1819TIP3    H2 5403   7.914   6.330   4.060
 1820TIP3   OH2 5404   0.522   4.908   3.041
 1820TIP3    H1 5405   0.569   4.970   2.986
 1820TIP3    H2 5406   0.430   4.933   3.033
 1821TIP3   OH2 5407   8.178   4.059   4.486
 1821TIP3    H1 5408   8.225   4.008   4.419
 1821TIP3    H2 5409   8.130   4.125   4.436
 1822TIP3   OH2 5410   0.519   0.348   6.240
 1822TIP3    H1 5411   0.434   0.376   6.206
 1822TIP3    H2 5412   0.582   0.385   6.179
 1823TIP3   OH2 5413   2.617   6.795   5.304
 1823TIP3    H1 5414   2.699   6.754   5.278
 1823TIP3    H2 5415   2.590   6.748   5.383
 1824TIP3   OH2 5416   6.752   5.458   1.630
 1824TIP3    H1 5417   6.701   5.477   1.708
 1824TIP3    H2 5418   6.728   5.527   1.568
 1825TIP3   OH2 5419   7.812   7.678   4.708
 1825TIP3    H1 5420   7.874   7.611   4.736
 1825TIP3    H2 5421   7.822   7.749   4.772
 1826TIP3   OH2 5422   2.348   0.834   0.473
 1826TIP3    H1 5423   2.347   0.794   0.560
 1826TIP3    H2 5424   2.345   0.928   0.491
 1827TIP3   OH2 5425   1.858   2.004   0.659
 1827TIP3    H1 5426   1.911   2.056   0.599
 1827TIP3    H2 5427   1.789   1.967   0.604
 1828TIP3   OH2 5428   6.115   5.854   3.426
 1828TIP3    H1 5429   6.132   5.827   3.516
 1828TIP3    H2 5430   6.045   5.919   3.433
 1829TIP3   OH2 5431   5.180   4.977   2.151
 1829TIP3    H1 5432   5.129   4.899   2.128
 1829TIP3    H2 5433   5.182   5.029   2.071
 1830TIP3   OH2 5434   0.606   1.317   5.380
 1830TIP3    H1 5435   0.566   1.332   5.466
 1830TIP3    H2 5436   0.588   1.226   5.360
 1831TIP3   OH2 5437   0.848   0.080   4.518
 1831TIP3    H1 5438   0.833   0.175   4.523
 1831TIP3    H2 5439   0.942   0.072   4.500
 1832TIP3   OH2 5440   3.782   7.323   0.804
 1832TIP3    H1 5441   3.735   7.374   0.738
 1832TIP3    H2 5442   3.722   7.320   0.879
 1833TIP3   OH2 5443   8.019   2.620   1.880
 1833TIP3    H1 5444   7.974   2.617   1.964
 1833TIP3    H2 5445   7.950   2.608   1.815
 1834TIP3   OH2 5446   1.453   1.718   3.626
 1834TIP3    H1 5447   1.361   1.730   3.647
 1834TIP3    H2 5448   1.455   1.691   3.535
 1835TIP3   OH2 5449   7.868   2.412   0.329
 1835TIP3    H1 5450   7.888   2.359   0.407
 1835TIP3    H2 5451   7.927   2.379   0.262
 1836TIP3   OH2 5452   7.243   4.875   2.737
 1836TIP3    H1 5453   7.219   4.782   2.736
 1836TIP3    H2 5454   7.161   4.921   2.750
 1837TIP3   OH2 5455   7.760   6.516   5.764
 1837TIP3    H1 5456   7.721   6.430   5.747
 1837TIP3    H2 5457   7.836   6.497   5.819
 1838TIP3   OH2 5458   5.006   4.507   4.391
 1838TIP3    H1 5459   5.047   4.469   4.312
 1838TIP3    H2 5460   5.065   4.480   4.462
 1839TIP3   OH2 5461   5.445   6.611   6.653
 1839TIP3    H1 5462   5.414   6.534   6.605
 1839TIP3    H2 5463   5.391   6.613   6.732
 1840TIP3   OH2 5464   3.038   6.335   2.327
 1840TIP3    H1 5465   3.052   6.428   2.311
 1840TIP3    H2 5466   3.001   6.331   2.415
 1841TIP3   OH2 5467   0.415   3.538   1.045
 1841TIP3    H1 5468   0.323   3.517   1.059
 1841TIP3    H2 5469   0.461   3.496   1.118
 1842TIP3   OH2 5470   0.042   4.028   4.120
 1842TIP3    H1 5471   0.007   4.002   4.205
 1842TIP3    H2 5472   0.085   4.112   4.136
 1843TIP3   OH2 5473   5.440   3.457   3.003
 1843TIP3    H1 5474   5.493   3.464   3.082
 1843TIP3    H2 5475   5.395   3.541   2.996
 1844TIP3   OH2 5476   6.216   4.102   3.262
 1844TIP3    H1 5477   6.273   4.162   3.215
 1844TIP3    H2 5478   6.242   4.111   3.354
 1845TIP3   OH2 5479   2.439   0.698   2.041
 1845TIP3    H1 5480   2.518   0.681   1.991
 1845TIP3    H2 5481   2.467   0.691   2.133
 1846TIP3   OH2 5482   8.262   3.854   4.344
 1846TIP3    H1 5483   8.294   3.777   4.298
 1846TIP3    H2 5484   8.167   3.852   4.332
 1847TIP3   OH2 5485   4.295   3.604   3.121
 1847TIP3    H1 5486   4.273   3.534   3.183
 1847TIP3    H2 5487   4.366   3.652   3.163
 1848TIP3   OH2 5488   4.417   3.240   5.190
 1848TIP3    H1 5489   4.368   3.311   5.148
 1848TIP3    H2 5490   4.379   3.160   5.155
 1849TIP3   OH2 5491   4.875   0.721   5.626
 1849TIP3    H1 5492   4.927   0.644   5.600
 1849TIP3    H2 5493   4.897   0.787   5.560
 1850TIP3   OH2 5494   7.171   1.603   4.254
 1850TIP3    H1 5495   7.208   1.665   4.191
 1850TIP3    H2 5496   7.137   1.658   4.324
 1851TIP3   OH2 5497   0.612   4.821   3.524
 1851TIP3    H1 5498   0.642   4.850   3.611
 1851TIP3    H2 5499   0.527   4.863   3.514
 1852TIP3   OH2 5500   4.362   5.900   1.431
 1852TIP3    H1 5501   4.445   5.855   1.445
 1852TIP3    H2 5502   4.387   5.988   1.401
 1853TIP3   OH2 5503   6.667   5.868   2.148
 1853TIP3    H1 5504   6.703   5.786   2.115
 1853TIP3    H2 5505   6.573   5.862   2.131
 1854TIP3   OH2 5506   0.382   4.318   2.381
 1854TIP3    H1 5507   0.340   4.395   2.419
 1854TIP3    H2 5508   0.410   4.346   2.294
 1855TIP3   OH2 5509   5.804   5.570   5.267
 1855TIP3    H1 5510   5.794   5.655   5.309
 1855TIP3    H2 5511   5.802   5.507   5.340
 1856TIP3   OH2 5512   8.100   4.657   2.021
 1856TIP3    H1 5513   8.022   4.655   2.077
 1856TIP3    H2 5514   8.159   4.719   2.065
 1857TIP3   OH2 5515   2.000   1.768   0.659
 1857TIP3    H1 5516   2.059   1.750   0.732
 1857TIP3    H2 5517   1.958   1.851   0.683
 1858TIP3   OH2 5518   1.759   0.001  -0.022
 1858TIP3    H1 5519   1.714   0.004   0.063
 1858TIP3    H2 5520   1.835  -0.055  -0.007
 1859TIP3   OH2 5521   2.463   1.675   5.192
 1859TIP3    H1 5522   2.535   1.626   5.233
 1859TIP3    H2 5523   2.384   1.645   5.237
 1860TIP3   OH2 5524   5.046   7.030   6.701
 1860TIP3    H1 5525   5.064   7.049   6.609
 1860TIP3    H2 5526   5.085   7.104   6.748
 1861TIP3   OH2 5527   4.025   3.149   6.195
 1861TIP3    H1 5528   3.985   3.233   6.217
 1861TIP3    H2 5529   3.993   3.088   6.262
 1862TIP3   OH2 5530   1.698   6.121   4.792
 1862TIP3    H1 5531   1.743   6.202   4.768
 1862TIP3    H2 5532   1.769   6.060   4.813
 1863TIP3   OH2 5533   7.756   5.397   1.722
 1863TIP3    H1 5534   7.727   5.324   1.669
 1863TIP3    H2 5535   7.817   5.359   1.785
 1864TIP3   OH2 5536   6.301   6.081   3.459
 1864TIP3    H1 5537   6.271   6.082   3.550
 1864TIP3    H2 5538   6.286   5.991   3.431
 1865TIP3   OH2 5539   1.683   6.540   1.604
 1865TIP3    H1 5540   1.747   6.517   1.538
 1865TIP3    H2 5541   1.619   6.595   1.558
 1866TIP3   OH2 5542   2.722   4.994   0.987
 1866TIP3    H1 5543   2.633   5.029   0.986
 1866TIP3    H2 5544   2.768   5.043   0.919
 1867TIP3   OH2 5545   5.928   0.487   3.868
 1867TIP3    H1 5546   5.836   0.465   3.855
 1867TIP3    H2 5547   5.960   0.510   3.781
 1868TIP3   OH2 5548   0.257   5.648   3.307
 1868TIP3    H1 5549   0.240   5.565   3.353
 1868TIP3    H2 5550   0.183   5.659   3.248
 1869TIP3   OH2 5551   6.722   3.205   6.045
 1869TIP3    H1 5552   6.736   3.123   6.092
 1869TIP3    H2 5553   6.809   3.244   6.037
 1870TIP3   OH2 5554   7.756   1.671   3.824
 1870TIP3    H1 5555   7.840   1.703   3.790
 1870TIP3    H2 5556   7.769   1.577   3.835
 1871TIP3   OH2 5557   5.952   5.802   0.192
 1871TIP3    H1 5558   5.892   5.728   0.183
 1871TIP3    H2 5559   6.033   5.772   0.151
 1872TIP3   OH2 5560   7.950   6.360   1.747
 1872TIP3    H1 5561   7.880   6.362   1.812
 1872TIP3    H2 5562   8.029   6.382   1.796
 1873TIP3   OH2 5563   5.442   1.035   6.499
 1873TIP3    H1 5564   5.461   1.108   6.441
 1873TIP3    H2 5565   5.378   0.982   6.452
 1874TIP3   OH2 5566   5.045   1.883   0.185
 1874TIP3    H1 5567   4.974   1.844   0.134
 1874TIP3    H2 5568   5.124   1.859   0.136
 1875TIP3   OH2 5569   3.144   0.806   4.765
 1875TIP3    H1 5570   3.146   0.851   4.849
 1875TIP3    H2 5571   3.076   0.851   4.715
 1876TIP3   OH2 5572   7.845   3.485   6.686
 1876TIP3    H1 5573   7.931   3.524   6.670
 1876TIP3    H2 5574   7.783   3.556   6.670
 1877TIP3   OH2 5575   1.576   0.876   2.131
 1877TIP3    H1 5576   1.543   0.819   2.200
 1877TIP3    H2 5577   1.565   0.826   2.051
 1878TIP3   OH2 5578   4.579   7.838   1.163
 1878TIP3    H1 5579   4.580   7.882   1.079
 1878TIP3    H2 5580   4.529   7.757   1.148
 1879TIP3   OH2 5581   5.544   4.875   5.281
 1879TIP3    H1 5582   5.605   4.944   5.309
 1879TIP3    H2 5583   5.539   4.884   5.186
 1880TIP3   OH2 5584   4.355   7.445   6.357
 1880TIP3    H1 5585   4.338   7.393   6.278
 1880TIP3    H2 5586   4.394   7.384   6.419
 1881TIP3   OH2 5587   4.486   5.700   0.850
 1881TIP3    H1 5588   4.429   5.680   0.776
 1881TIP3    H2 5589   4.575   5.696   0.814
 1882TIP3   OH2 5590   3.112   0.549   5.844
 1882TIP3    H1 5591   3.046   0.485   5.818
 1882TIP3    H2 5592   3.155   0.574   5.763
 1883TIP3   OH2 5593   4.854   0.922   1.258
 1883TIP3    H1 5594   4.776   0.902   1.207
 1883TIP3    H2 5595   4.821   0.931   1.348
 1884TIP3   OH2 5596   5.767   0.210   3.479
 1884TIP3    H1 5597   5.860   0.195   3.460
 1884TIP3    H2 5598   5.738   0.131   3.525
 1885TIP3   OH2 5599   5.979   3.396   0.850
 1885TIP3    H1 5600   6.033   3.355   0.918
 1885TIP3    H2 5601   5.892   3.403   0.890
 1886TIP3   OH2 5602   6.063   0.758   4.755
 1886TIP3    H1 5603   6.108   0.701   4.817
 1886TIP3    H2 5604   6.132   0.790   4.697
 1887TIP3   OH2 5605   1.219   2.859   3.890
 1887TIP3    H1 5606   1.274   2.935   3.912
 1887TIP3    H2 5607   1.190   2.825   3.975
 1888TIP3   OH2 5608   7.030   0.674   3.200
 1888TIP3    H1 5609   7.030   0.763   3.234
 1888TIP3    H2 5610   7.044   0.618   3.277
 1889TIP3   OH2 5611   4.202   6.791   5.066
 1889TIP3    H1 5612   4.269   6.790   4.998
 1889TIP3    H2 5613   4.125   6.752   5.025
 1890TIP3   OH2 5614   3.004   5.116   6.358
 1890TIP3    H1 5615   2.947   5.139   6.431
 1890TIP3    H2 5616   3.018   5.198   6.311
 1891TIP3   OH2 5617   3.516   5.225   2.716
 1891TIP3    H1 5618   3.569   5.146   2.723
 1891TIP3    H2 5619   3.466   5.228   2.797
 1892TIP3   OH2 5620   3.730   0.867   6.342
 1892TIP3    H1 5621   3.773   0.872   6.427
 1892TIP3    H2 5622   3.680   0.785   6.345
 1893TIP3   OH2 5623   3.203   2.462   1.019
 1893TIP3    H1 5624   3.226   2.549   1.053
 1893TIP3    H2 5625   3.198   2.407   1.097
 1894TIP3   OH2 5626   7.252   1.739   0.623
 1894TIP3    H1 5627   7.178   1.696   0.665
 1894TIP3    H2 5628   7.238   1.725   0.529
 1895TIP3   OH2 5629   8.305   1.927   4.706
 1895TIP3    H1 5630   8.284   1.983   4.781
 1895TIP3    H2 5631   8.259   1.966   4.633
 1896TIP3   OH2 5632   2.187   1.592   0.218
 1896TIP3    H1 5633   2.141   1.580   0.301
 1896TIP3    H2 5634   2.253   1.523   0.217
 1897TIP3   OH2 5635   3.707   7.513   0.592
 1897TIP3    H1 5636   3.755   7.540   0.514
 1897TIP3    H2 5637   3.718   7.586   0.653
 1898TIP3   OH2 5638   3.935   4.832   2.189
 1898TIP3    H1 5639   3.952   4.743   2.219
 1898TIP3    H2 5640   3.841   4.844   2.200
 1899TIP3   OH2 5641   8.264   4.427   2.009
 1899TIP3    H1 5642   8.244   4.418   2.102
 1899TIP3    H2 5643   8.184   4.461   1.969
 1900TIP3   OH2 5644   7.981   3.010   1.489
 1900TIP3    H1 5645   7.947   2.920   1.494
 1900TIP3    H2 5646   8.074   3.001   1.512
 1901TIP3   OH2 5647   2.158   5.261   6.004
 1901TIP3    H1 5648   2.237   5.294   5.963
 1901TIP3    H2 5649   2.182   5.247   6.095
 1902TIP3   OH2 5650   7.935   2.087   5.832
 1902TIP3    H1 5651   7.925   2.134   5.749
 1902TIP3    H2 5652   8.006   2.134   5.877
 1903TIP3   OH2 5653   5.819   1.489   6.695
 1903TIP3    H1 5654   5.858   1.409   6.659
 1903TIP3    H2 5655   5.726   1.471   6.699
 1904TIP3   OH2 5656   7.745   5.772   5.308
 1904TIP3    H1 5657   7.664   5.723   5.296
 1904TIP3    H2 5658   7.814   5.706   5.302
 1905TIP3   OH2 5659   7.969   3.039   0.897
 1905TIP3    H1 5660   8.063   3.055   0.898
 1905TIP3    H2 5661   7.930   3.122   0.868
 1906TIP3   OH2 5662   3.907   6.718   4.723
 1906TIP3    H1 5663   3.970   6.650   4.699
 1906TIP3    H2 5664   3.958   6.781   4.774
 1907TIP3   OH2 5665   4.475   2.672   4.895
 1907TIP3    H1 5666   4.394   2.715   4.869
 1907TIP3    H2 5667   4.544   2.719   4.848
 1908TIP3   OH2 5668   1.163   2.862   4.798
 1908TIP3    H1 5669   1.084   2.823   4.837
 1908TIP3    H2 5670   1.224   2.789   4.788
 1909TIP3   OH2 5671   4.163   6.042   5.145
 1909TIP3    H1 5672   4.132   5.961   5.186
 1909TIP3    H2 5673   4.251   6.055   5.182
 1910TIP3   OH2 5674   3.045   0.658   5.551
 1910TIP3    H1 5675   2.984   0.602   5.601
 1910TIP3    H2 5676   3.007   0.662   5.463
 1911TIP3   OH2 5677   3.982   0.302   3.701
 1911TIP3    H1 5678   4.067   0.326   3.740
 1911TIP3    H2 5679   3.995   0.314   3.607
 1912TIP3   OH2 5680   3.143   4.390   6.037
 1912TIP3    H1 5681   3.174   4.386   6.128
 1912TIP3    H2 5682   3.177   4.473   6.004
 1913TIP3   OH2 5683   2.721   7.516   3.579
 1913TIP3    H1 5684   2.654   7.450   3.565
 1913TIP3    H2 5685   2.801   7.466   3.597
 1914TIP3   OH2 5686   5.222   0.860   3.584
 1914TIP3    H1 5687   5.141   0.907   3.603
 1914TIP3    H2 5688   5.275   0.922   3.534
 1915TIP3   OH2 5689   7.556   5.534   0.638
 1915TIP3    H1 5690   7.600   5.454   0.666
 1915TIP3    H2 5691   7.586   5.549   0.549
 1916TIP3   OH2 5692   7.416   5.669   2.017
 1916TIP3    H1 5693   7.483   5.732   1.991
 1916TIP3    H2 5694   7.335   5.703   1.978
 1917TIP3   OH2 5695   1.345   3.888   5.219
 1917TIP3    H1 5696   1.294   3.850   5.291
 1917TIP3    H2 5697   1.290   3.958   5.184
 1918TIP3   OH2 5698   6.193   4.414   6.744
 1918TIP3    H1 5699   6.163   4.364   6.819
 1918TIP3    H2 5700   6.140   4.382   6.671
 1919TIP3   OH2 5701   5.728   4.570   5.486
 1919TIP3    H1 5702   5.709   4.574   5.580
 1919TIP3    H2 5703   5.817   4.602   5.478
 1920TIP3   OH2 5704   5.225   0.248   0.692
 1920TIP3    H1 5705   5.137   0.222   0.666
 1920TIP3    H2 5706   5.280   0.225   0.617
 1921TIP3   OH2 5707   2.713   5.346   6.158
 1921TIP3    H1 5708   2.728   5.315   6.069
 1921TIP3    H2 5709   2.688   5.268   6.207
 1922TIP3   OH2 5710   5.378   2.583   0.249
 1922TIP3    H1 5711   5.296   2.535   0.242
 1922TIP3    H2 5712   5.415   2.580   0.161
 1923TIP3   OH2 5713   4.232   2.782   4.594
 1923TIP3    H1 5714   4.261   2.870   4.570
 1923TIP3    H2 5715   4.308   2.726   4.578
 1924TIP3   OH2 5716   5.795   7.243   5.603
 1924TIP3    H1 5717   5.862   7.184   5.571
 1924TIP3    H2 5718   5.803   7.321   5.547
 1925TIP3   OH2 5719   2.700   3.240   0.982
 1925TIP3    H1 5720   2.762   3.199   0.922
 1925TIP3    H2 5721   2.703   3.333   0.959
 1926TIP3   OH2 5722   0.677   1.042   5.335
 1926TIP3    H1 5723   0.621   0.997   5.399
 1926TIP3    H2 5724   0.658   1.000   5.252
 1927TIP3   OH2 5725   1.249   0.071   0.874
 1927TIP3    H1 5726   1.259   0.164   0.852
 1927TIP3    H2 5727   1.166   0.046   0.833
 1928TIP3   OH2 5728   4.877   7.784   5.144
 1928TIP3    H1 5729   4.869   7.696   5.107
 1928TIP3    H2 5730   4.834   7.778   5.230
 1929TIP3   OH2 5731   6.002   3.672   0.202
 1929TIP3    H1 5732   6.066   3.743   0.206
 1929TIP3    H2 5733   6.054   3.592   0.198
 1930TIP3   OH2 5734   7.391   1.223   5.646
 1930TIP3    H1 5735   7.306   1.184   5.627
 1930TIP3    H2 5736   7.398   1.297   5.586
 1931TIP3   OH2 5737   3.427   0.164   5.886
 1931TIP3    H1 5738   3.410   0.079   5.926
 1931TIP3    H2 5739   3.521   0.177   5.897
 1932TIP3   OH2 5740   2.812   6.277   2.152
 1932TIP3    H1 5741   2.901   6.280   2.189
 1932TIP3    H2 5742   2.823   6.228   2.070
 1933TIP3   OH2 5743   6.451   1.972   0.204
 1933TIP3    H1 5744   6.545   1.963   0.219
 1933TIP3    H2 5745   6.426   2.047   0.258
 1934TIP3   OH2 5746   5.335   4.560   2.844
 1934TIP3    H1 5747   5.273   4.625   2.878
 1934TIP3    H2 5748   5.400   4.550   2.914
 1935TIP3   OH2 5749   3.471   6.776   0.225
 1935TIP3    H1 5750   3.425   6.765   0.142
 1935TIP3    H2 5751   3.560   6.747   0.207
 1936TIP3   OH2 5752   1.587   2.300   2.031
 1936TIP3    H1 5753   1.627   2.217   2.057
 1936TIP3    H2 5754   1.560   2.287   1.940
 1937TIP3   OH2 5755   7.887   3.621   0.611
 1937TIP3    H1 5756   7.970   3.661   0.584
 1937TIP3    H2 5757   7.831   3.629   0.533
 1938TIP3   OH2 5758   7.409   3.272   2.741
 1938TIP3    H1 5759   7.393   3.217   2.818
 1938TIP3    H2 5760   7.321   3.288   2.705
 1939TIP3   OH2 5761   5.188   2.989   5.819
 1939TIP3    H1 5762   5.235   2.926   5.874
 1939TIP3    H2 5763   5.137   3.041   5.881
 1940TIP3   OH2 5764   8.254   4.215   6.470
 1940TIP3    H1 5765   8.275   4.294   6.421
 1940TIP3    H2 5766   8.333   4.196   6.520
 1941TIP3   OH2 5767   5.996   5.950   6.092
 1941TIP3    H1 5768   5.922   5.970   6.034
 1941TIP3    H2 5769   6.065   5.921   6.033
 1942TIP3   OH2 5770   1.967   7.227   1.368
 1942TIP3    H1 5771   1.966   7.252   1.460
 1942TIP3    H2 5772   2.060   7.221   1.346
 1943TIP3   OH2 5773   2.573   2.582   5.202
 1943TIP3    H1 5774   2.581   2.572   5.297
 1943TIP3    H2 5775   2.483   2.613   5.189
 1944TIP3   OH2 5776   3.132   0.276   2.904
 1944TIP3    H1 5777   3.143   0.369   2.887
 1944TIP3    H2 5778   3.066   0.247   2.841
 1945TIP3   OH2 5779   3.498   2.634   5.030
 1945TIP3    H1 5780   3.425   2.604   4.975
 1945TIP3    H2 5781   3.547   2.695   4.973
 1946TIP3   OH2 5782   4.289   3.964   4.188
 1946TIP3    H1 5783   4.305   3.889   4.246
 1946TIP3    H2 5784   4.255   3.926   4.108
 1947TIP3   OH2 5785   2.640   5.528   1.192
 1947TIP3    H1 5786   2.631   5.440   1.155
 1947TIP3    H2 5787   2.729   5.555   1.167
 1948TIP3   OH2 5788   4.599   2.383   3.241
 1948TIP3    H1 5789   4.648   2.455   3.281
 1948TIP3    H2 5790   4.642   2.304   3.275
 1949TIP3   OH2 5791   5.536   2.303   0.872
 1949TIP3    H1 5792   5.510   2.338   0.787
 1949TIP3    H2 5793   5.470   2.235   0.890
 1950TIP3   OH2 5794   4.090   3.608   5.385
 1950TIP3    H1 5795   4.080   3.557   5.466
 1950TIP3    H2 5796   4.114   3.696   5.415
 1951TIP3   OH2 5797   2.457   2.361   0.124
 1951TIP3    H1 5798   2.453   2.269   0.150
 1951TIP3    H2 5799   2.544   2.390   0.149
 1952TIP3   OH2 5800   1.509   6.793   4.491
 1952TIP3    H1 5801   1.596   6.754   4.500
 1952TIP3    H2 5802   1.507   6.826   4.401
 1953TIP3   OH2 5803   0.656   4.125   0.309
 1953TIP3    H1 5804   0.564   4.137   0.333
 1953TIP3    H2 5805   0.701   4.110   0.392
 1954TIP3   OH2 5806   3.580   7.238   6.006
 1954TIP3    H1 5807   3.526   7.165   5.976
 1954TIP3    H2 5808   3.649   7.198   6.059
 1955TIP3   OH2 5809   2.806   2.357   5.297
 1955TIP3    H1 5810   2.818   2.307   5.378
 1955TIP3    H2 5811   2.740   2.308   5.248
 1956TIP3   OH2 5812   5.946   3.112   1.009
 1956TIP3    H1 5813   5.952   3.188   1.067
 1956TIP3    H2 5814   5.890   3.051   1.056
 1957TIP3   OH2 5815   5.790   2.778   5.132
 1957TIP3    H1 5816   5.799   2.812   5.043
 1957TIP3    H2 5817   5.880   2.774   5.165
 1958TIP3   OH2 5818   0.395   2.487   1.759
 1958TIP3    H1 5819   0.359   2.425   1.695
 1958TIP3    H2 5820   0.381   2.445   1.844
 1959TIP3   OH2 5821   5.121   2.458   2.366
 1959TIP3    H1 5822   5.101   2.368   2.392
 1959TIP3    H2 5823   5.214   2.455   2.341
 1960TIP3   OH2 5824   5.882   4.061   0.183
 1960TIP3    H1 5825   5.832   4.059   0.101
 1960TIP3    H2 5826   5.863   4.147   0.221
 1961TIP3   OH2 5827   5.856   2.377   1.634
 1961TIP3    H1 5828   5.766   2.404   1.617
 1961TIP3    H2 5829   5.868   2.299   1.581
 1962TIP3   OH2 5830   1.368   7.646   5.825
 1962TIP3    H1 5831   1.298   7.711   5.832
 1962TIP3    H2 5832   1.331   7.568   5.869
 1963TIP3   OH2 5833   7.882   4.469   0.906
 1963TIP3    H1 5834   7.912   4.495   0.993
 1963TIP3    H2 5835   7.838   4.547   0.871
 1964TIP3   OH2 5836   1.976   2.359   6.389
 1964TIP3    H1 5837   2.016   2.369   6.303
 1964TIP3    H2 5838   1.984   2.445   6.430
 1965TIP3   OH2 5839   3.264   4.102   6.295
 1965TIP3    H1 5840   3.337   4.040   6.304
 1965TIP3    H2 5841   3.210   4.065   6.225
 1966TIP3   OH2 5842   5.571   4.558   0.239
 1966TIP3    H1 5843   5.610   4.607   0.311
 1966TIP3    H2 5844   5.504   4.617   0.204
 1967TIP3   OH2 5845   2.573   4.632   5.262
 1967TIP3    H1 5846   2.559   4.711   5.210
 1967TIP3    H2 5847   2.580   4.562   5.198
 1968TIP3   OH2 5848   0.365   3.530   3.967
 1968TIP3    H1 5849   0.446   3.502   3.926
 1968TIP3    H2 5850   0.391   3.566   4.051
 1969TIP3   OH2 5851   0.706   4.678   2.700
 1969TIP3    H1 5852   0.710   4.663   2.794
 1969TIP3    H2 5853   0.698   4.591   2.662
 1970TIP3   OH2 5854   3.917   6.284   1.555
 1970TIP3    H1 5855   3.851   6.352   1.570
 1970TIP3    H2 5856   3.878   6.205   1.592
 1971TIP3   OH2 5857   3.167   3.316   6.095
 1971TIP3    H1 5858   3.151   3.265   6.016
 1971TIP3    H2 5859   3.098   3.290   6.156
 1972TIP3   OH2 5860   5.484   4.304   0.225
 1972TIP3    H1 5861   5.451   4.389   0.253
 1972TIP3    H2 5862   5.423   4.277   0.156
 1973TIP3   OH2 5863   4.272   6.193   2.036
 1973TIP3    H1 5864   4.225   6.110   2.033
 1973TIP3    H2 5865   4.350   6.178   1.983
 1974TIP3   OH2 5866   7.815   7.758   6.366
 1974TIP3    H1 5867   7.750   7.742   6.435
 1974TIP3    H2 5868   7.770   7.813   6.302
 1975TIP3   OH2 5869   0.400   4.878   6.359
 1975TIP3    H1 5870   0.459   4.950   6.339
 1975TIP3    H2 5871   0.314   4.918   6.368
 1976TIP3   OH2 5872   6.136   3.310   4.474
 1976TIP3    H1 5873   6.146   3.308   4.379
 1976TIP3    H2 5874   6.049   3.345   4.489
 1977TIP3   OH2 5875   4.206   3.455   1.788
 1977TIP3    H1 5876   4.200   3.369   1.746
 1977TIP3    H2 5877   4.198   3.437   1.881
 1978TIP3   OH2 5878   3.211   5.102   6.582
 1978TIP3    H1 5879   3.216   5.062   6.668
 1978TIP3    H2 5880   3.117   5.117   6.568
 1979TIP3   OH2 5881   5.346   1.762   6.004
 1979TIP3    H1 5882   5.362   1.669   5.994
 1979TIP3    H2 5883   5.382   1.785   6.090
 1980TIP3   OH2 5884   1.762   4.402   5.512
 1980TIP3    H1 5885   1.767   4.312   5.482
 1980TIP3    H2 5886   1.843   4.417   5.560
 1981TIP3   OH2 5887   2.119   0.784   6.424
 1981TIP3    H1 5888   2.198   0.732   6.413
 1981TIP3    H2 5889   2.129   0.825   6.510
 1982TIP3   OH2 5890   2.464   6.733   4.710
 1982TIP3    H1 5891   2.498   6.682   4.783
 1982TIP3    H2 5892   2.495   6.688   4.632
 1983TIP3   OH2 5893   1.390   5.334   0.516
 1983TIP3    H1 5894   1.301   5.315   0.485
 1983TIP3    H2 5895   1.447   5.291   0.453
 1984TIP3   OH2 5896   6.354   1.352   5.838
 1984TIP3    H1 5897   6.281   1.336   5.778
 1984TIP3    H2 5898   6.366   1.269   5.884
 1985TIP3   OH2 5899   3.970   2.373   3.560
 1985TIP3    H1 5900   3.933   2.346   3.643
 1985TIP3    H2 5901   3.980   2.468   3.567
 1986TIP3   OH2 5902   3.918   6.147   5.412
 1986TIP3    H1 5903   3.880   6.179   5.330
 1986TIP3    H2 5904   3.878   6.061   5.425
 1987TIP3   OH2 5905   5.680   0.304   3.789
 1987TIP3    H1 5906   5.596   0.262   3.773
 1987TIP3    H2 5907   5.732   0.286   3.710
 1988TIP3   OH2 5908   2.823   0.568   6.153
 1988TIP3    H1 5909   2.730   0.566   6.177
 1988TIP3    H2 5910   2.856   0.482   6.176
 1989TIP3   OH2 5911   0.397   5.368   0.197
 1989TIP3    H1 5912   0.488   5.376   0.225
 1989TIP3    H2 5913   0.402   5.364   0.102
 1990TIP3   OH2 5914   4.462   2.990   4.733
 1990TIP3    H1 5915   4.539   2.990   4.790
 1990TIP3    H2 5916   4.460   3.078   4.696
 1991TIP3   OH2 5917   7.584   1.350   6.315
 1991TIP3    H1 5918   7.659   1.335   6.372
 1991TIP3    H2 5919   7.622   1.384   6.234
 1992TIP3   OH2 5920   2.498   6.389   3.573
 1992TIP3    H1 5921   2.571   6.451   3.568
 1992TIP3    H2 5922   2.480   6.381   3.666
 1993TIP3   OH2 5923   8.106   4.206   1.495
 1993TIP3    H1 5924   8.063   4.289   1.516
 1993TIP3    H2 5925   8.122   4.210   1.401
 1994TIP3   OH2 5926   1.298   6.125   0.210
 1994TIP3    H1 5927   1.381   6.171   0.214
 1994TIP3    H2 5928   1.236   6.189   0.176
 1995TIP3   OH2 5929   3.766   4.434   2.478
 1995TIP3    H1 5930   3.708   4.462   2.549
 1995TIP3    H2 5931   3.727   4.471   2.399
 1996TIP3   OH2 5932   5.196   6.495   3.032
 1996TIP3    H1 5933   5.287   6.523   3.022
 1996TIP3    H2 5934   5.173   6.521   3.122
 1997TIP3   OH2 5935   1.997   6.584   1.301
 1997TIP3    H1 5936   2.027   6.670   1.330
 1997TIP3    H2 5937   2.026   6.525   1.371
 1998TIP3   OH2 5938   6.182   0.505   6.470
 1998TIP3    H1 5939   6.210   0.482   6.558
 1998TIP3    H2 5940   6.115   0.572   6.482
 1999TIP3   OH2 5941   6.142   3.304   3.224
 1999TIP3    H1 5942   6.203   3.250   3.174
 1999TIP3    H2 5943   6.064   3.308   3.169
 2000TIP3   OH2 5944   2.026   0.650   2.126
 2000TIP3    H1 5945   2.104   0.681   2.171
 2000TIP3    H2 5946   1.954   0.675   2.184
 2001TIP3   OH2 5947   5.372   7.313   2.965
 2001TIP3    H1 5948   5.427   7.388   2.942
 2001TIP3    H2 5949   5.415   7.275   3.042
 2002TIP3   OH2 5950   3.155   5.530   0.669
 2002TIP3    H1 5951   3.211   5.454   0.654
 2002TIP3    H2 5952   3.086   5.522   0.604
 2003TIP3   OH2 5953   3.776   6.405   3.827
 2003TIP3    H1 5954   3.729   6.429   3.907
 2003TIP3    H2 5955   3.712   6.416   3.757
 2004TIP3   OH2 5956   6.626   4.104   1.289
 2004TIP3    H1 5957   6.570   4.088   1.214
 2004TIP3    H2 5958   6.715   4.104   1.253
 2005TIP3   OH2 5959   2.764   2.817   3.067
 2005TIP3    H1 5960   2.726   2.901   3.091
 2005TIP3    H2 5961   2.791   2.829   2.976
 2006TIP3   OH2 5962   3.301   3.559   1.932
 2006TIP3    H1 5963   3.223   3.506   1.951
 2006TIP3    H2 5964   3.366   3.495   1.902
 2007TIP3   OH2 5965   7.522   4.755   4.280
 2007TIP3    H1 5966   7.451   4.806   4.318
 2007TIP3    H2 5967   7.491   4.732   4.192
 2008TIP3   OH2 5968   7.328   3.042   6.650
 2008TIP3    H1 5969   7.325   2.958   6.695
 2008TIP3    H2 5970   7.412   3.080   6.676
 2009TIP3   OH2 5971   5.568   2.517   1.079
 2009TIP3    H1 5972   5.565   2.433   1.034
 2009TIP3    H2 5973   5.660   2.543   1.074
 2010TIP3   OH2 5974   3.161   0.101   6.539
 2010TIP3    H1 5975   3.222   0.046   6.490
 2010TIP3    H2 5976   3.100   0.039   6.580
 2011TIP3   OH2 5977   4.848   7.399   0.639
 2011TIP3    H1 5978   4.823   7.307   0.634
 2011TIP3    H2 5979   4.921   7.401   0.700
 2012TIP3   OH2 5980   5.918   3.521   5.114
 2012TIP3    H1 5981   5.945   3.576   5.187
 2012TIP3    H2 5982   5.918   3.432   5.149
 2013TIP3   OH2 5983   6.598   4.736   5.549
 2013TIP3    H1 5984   6.599   4.705   5.458
 2013TIP3    H2 5985   6.523   4.692   5.589
 2014TIP3   OH2 5986   3.783   1.077   4.738
 2014TIP3    H1 5987   3.789   0.989   4.701
 2014TIP3    H2 5988   3.723   1.124   4.680
 2015TIP3   OH2 5989   3.028   5.090   0.006
 2015TIP3    H1 5990   3.093   5.113   0.073
 2015TIP3    H2 5991   2.950   5.140   0.031
 2016TIP3   OH2 5992   3.078   5.048   1.180
 2016TIP3    H1 5993   3.164   5.039   1.139
 2016TIP3    H2 5994   3.070   5.142   1.198
 2017TIP3   OH2 5995   1.891   1.562   0.955
 2017TIP3    H1 5996   1.869   1.509   1.031
 2017TIP3    H2 5997   1.951   1.507   0.904
 2018TIP3   OH2 5998   5.674   5.458   1.606
 2018TIP3    H1 5999   5.726   5.378   1.613
 2018TIP3    H2 6000   5.592   5.430   1.565
 2019TIP3   OH2 6001   3.067   5.441   2.177
 2019TIP3    H1 6002   3.016   5.446   2.096
 2019TIP3    H2 6003   3.013   5.387   2.236
 2020TIP3   OH2 6004   1.670   4.382   0.578
 2020TIP3    H1 6005   1.685   4.303   0.631
 2020TIP3    H2 6006   1.734   4.445   0.610
 2021TIP3   OH2 6007   1.876   6.723   2.662
 2021TIP3    H1 6008   1.871   6.760   2.750
 2021TIP3    H2 6009   1.966   6.742   2.634
 2022TIP3   OH2 6010   2.637   0.549   4.293
 2022TIP3    H1 6011   2.623   0.538   4.387
 2022TIP3    H2 6012   2.731   0.564   4.285
 2023TIP3   OH2 6013   2.503   5.853   1.907
 2023TIP3    H1 6014   2.448   5.774   1.901
 2023TIP3    H2 6015   2.442   5.924   1.921
 2024TIP3   OH2 6016   6.454   1.252   2.706
 2024TIP3    H1 6017   6.360   1.266   2.723
 2024TIP3    H2 6018   6.456   1.187   2.636
 2025TIP3   OH2 6019   6.884   1.802   1.182
 2025TIP3    H1 6020   6.973   1.838   1.189
 2025TIP3    H2 6021   6.844   1.852   1.112
 2026TIP3   OH2 6022   1.671   5.076   5.942
 2026TIP3    H1 6023   1.716   5.019   5.880
 2026TIP3    H2 6024   1.741   5.125   5.986
 2027TIP3   OH2 6025   5.042   0.795   4.253
 2027TIP3    H1 6026   5.049   0.804   4.158
 2027TIP3    H2 6027   5.109   0.853   4.288
 2028TIP3   OH2 6028   4.793   5.041   6.185
 2028TIP3    H1 6029   4.798   5.091   6.104
 2028TIP3    H2 6030   4.871   4.985   6.184
 2029TIP3   OH2 6031   1.367   6.314   1.238
 2029TIP3    H1 6032   1.424   6.250   1.194
 2029TIP3    H2 6033   1.427   6.365   1.293
 2030TIP3   OH2 6034   7.077   0.057   2.726
 2030TIP3    H1 6035   7.038   0.065   2.814
 2030TIP3    H2 6036   7.002   0.064   2.667
 2031TIP3   OH2 6037   7.018   1.449   4.628
 2031TIP3    H1 6038   6.994   1.447   4.535
 2031TIP3    H2 6039   7.029   1.357   4.651
 2032TIP3   OH2 6040   5.229   7.721   2.127
 2032TIP3    H1 6041   5.233   7.795   2.187
 2032TIP3    H2 6042   5.283   7.653   2.168
 2033TIP3   OH2 6043   0.885   2.302   5.570
 2033TIP3    H1 6044   0.969   2.328   5.608
 2033TIP3    H2 6045   0.855   2.380   5.524
 2034TIP3   OH2 6046   0.802   5.553   1.077
 2034TIP3    H1 6047   0.877   5.501   1.048
 2034TIP3    H2 6048   0.839   5.618   1.136
 2035TIP3   OH2 6049   7.897   3.640   2.677
 2035TIP3    H1 6050   7.852   3.722   2.694
 2035TIP3    H2 6051   7.837   3.573   2.711
 2036TIP3   OH2 6052   6.000   3.237   5.718
 2036TIP3    H1 6053   6.093   3.229   5.742
 2036TIP3    H2 6054   5.953   3.198   5.792
 2037TIP3   OH2 6055   4.420   6.061   2.677
 2037TIP3    H1 6056   4.483   6.060   2.750
 2037TIP3    H2 6057   4.441   5.983   2.626
 2038TIP3   OH2 6058   1.597   2.342   3.168
 2038TIP3    H1 6059   1.544   2.420   3.185
 2038TIP3    H2 6060   1.687   2.374   3.167
 2039TIP3   OH2 6061   3.138   7.599   3.496
 2039TIP3    H1 6062   3.149   7.511   3.461
 2039TIP3    H2 6063   3.053   7.629   3.462
 2040TIP3   OH2 6064   4.839   4.528   3.373
 2040TIP3    H1 6065   4.890   4.605   3.398
 2040TIP3    H2 6066   4.812   4.545   3.283
 2041TIP3   OH2 6067   7.289   2.400   0.719
 2041TIP3    H1 6068   7.278   2.466   0.787
 2041TIP3    H2 6069   7.199   2.371   0.699
 2042TIP3   OH2 6070   5.151   2.416   0.229
 2042TIP3    H1 6071   5.167   2.328   0.194
 2042TIP3    H2 6072   5.059   2.433   0.209
 2043TIP3   OH2 6073   2.242   1.809   4.395
 2043TIP3    H1 6074   2.305   1.755   4.348
 2043TIP3    H2 6075   2.236   1.770   4.482
 2044TIP3   OH2 6076   4.913   1.666   1.316
 2044TIP3    H1 6077   4.858   1.594   1.347
 2044TIP3    H2 6078   4.953   1.702   1.395
 2045TIP3   OH2 6079   0.796   3.424   0.065
 2045TIP3    H1 6080   0.758   3.452  -0.019
 2045TIP3    H2 6081   0.887   3.402   0.044
 2046TIP3   OH2 6082   6.434   7.684   2.487
 2046TIP3    H1 6083   6.460   7.627   2.559
 2046TIP3    H2 6084   6.439   7.628   2.409
 2047TIP3   OH2 6085   0.142   6.019   5.294
 2047TIP3    H1 6086   0.234   6.032   5.272
 2047TIP3    H2 6087   0.114   5.945   5.240
 2048TIP3   OH2 6088   2.736   6.301   6.398
 2048TIP3    H1 6089   2.647   6.338   6.399
 2048TIP3    H2 6090   2.763   6.301   6.490
 2049TIP3   OH2 6091   3.137   1.222   4.775
 2049TIP3    H1 6092   3.200   1.284   4.738
 2049TIP3    H2 6093   3.066   1.217   4.711
 2050TIP3   OH2 6094   2.192   5.009   6.399
 2050TIP3    H1 6095   2.255   4.978   6.464
 2050TIP3    H2 6096   2.161   4.930   6.355
 2051TIP3   OH2 6097   6.250   1.458   4.733
 2051TIP3    H1 6098   6.323   1.419   4.782
 2051TIP3    H2 6099   6.287   1.477   4.647
 2052TIP3   OH2 6100   5.507   4.190   5.073
 2052TIP3    H1 6101   5.582   4.232   5.032
 2052TIP3    H2 6102   5.529   4.188   5.166
 2053TIP3   OH2 6103   2.981   0.791   5.939
 2053TIP3    H1 6104   2.997   0.697   5.932
 2053TIP3    H2 6105   2.894   0.804   5.901
 2054TIP3   OH2 6106   5.427   5.853   4.348
 2054TIP3    H1 6107   5.465   5.939   4.365
 2054TIP3    H2 6108   5.384   5.829   4.430
 2055TIP3   OH2 6109   6.212   2.228   2.581
 2055TIP3    H1 6110   6.243   2.205   2.493
 2055TIP3    H2 6111   6.247   2.159   2.637
 2056TIP3   OH2 6112   8.240   0.836   0.380
 2056TIP3    H1 6113   8.298   0.760   0.376
 2056TIP3    H2 6114   8.263   0.887   0.302
 2057TIP3   OH2 6115   4.534   5.757   5.084
 2057TIP3    H1 6116   4.577   5.823   5.138
 2057TIP3    H2 6117   4.529   5.798   4.997
 2058TIP3   OH2 6118   6.497   5.617   0.930
 2058TIP3    H1 6119   6.568   5.562   0.964
 2058TIP3    H2 6120   6.472   5.577   0.847
 2059TIP3   OH2 6121   7.284   5.648   4.572
 2059TIP3    H1 6122   7.270   5.558   4.603
 2059TIP3    H2 6123   7.378   5.661   4.576
 2060TIP3   OH2 6124   5.272   6.556   3.737
 2060TIP3    H1 6125   5.365   6.579   3.737
 2060TIP3    H2 6126   5.251   6.541   3.829
 2061TIP3   OH2 6127   7.968   2.327   4.346
 2061TIP3    H1 6128   7.915   2.276   4.286
 2061TIP3    H2 6129   7.984   2.410   4.301
 2062TIP3   OH2 6130   7.335   0.780   2.378
 2062TIP3    H1 6131   7.426   0.759   2.358
 2062TIP3    H2 6132   7.338   0.872   2.405
 2063TIP3   OH2 6133   8.052   1.846   2.930
 2063TIP3    H1 6134   7.998   1.853   3.009
 2063TIP3    H2 6135   7.998   1.797   2.869
 2064TIP3   OH2 6136   3.927   5.467   1.790
 2064TIP3    H1 6137   3.987   5.393   1.797
 2064TIP3    H2 6138   3.944   5.518   1.869
 2065TIP3   OH2 6139   3.971   1.341   1.591
 2065TIP3    H1 6140   4.001   1.363   1.679
 2065TIP3    H2 6141   4.050   1.320   1.542
 2066TIP3   OH2 6142   4.733   2.744   5.291
 2066TIP3    H1 6143   4.772   2.799   5.359
 2066TIP3    H2 6144   4.687   2.805   5.233
 2067TIP3   OH2 6145   3.599   0.608   6.418
 2067TIP3    H1 6146   3.550   0.565   6.489
 2067TIP3    H2 6147   3.683   0.561   6.415
 2068TIP3   OH2 6148   3.838   6.528   3.204
 2068TIP3    H1 6149   3.902   6.504   3.271
 2068TIP3    H2 6150   3.869   6.612   3.170
 2069TIP3   OH2 6151   1.937   4.135   5.709
 2069TIP3    H1 6152   1.894   4.162   5.789
 2069TIP3    H2 6153   2.021   4.098   5.737
 2070TIP3   OH2 6154   1.291   0.761   6.777
 2070TIP3    H1 6155   1.237   0.701   6.726
 2070TIP3    H2 6156   1.256   0.848   6.757
 2071TIP3   OH2 6157   1.252   3.744   0.454
 2071TIP3    H1 6158   1.197   3.776   0.526
 2071TIP3    H2 6159   1.281   3.658   0.483
 2072TIP3   OH2 6160   2.728   0.316   3.199
 2072TIP3    H1 6161   2.701   0.391   3.145
 2072TIP3    H2 6162   2.824   0.320   3.198
 2073TIP3   OH2 6163   0.129   7.788   0.082
 2073TIP3    H1 6164   0.165   7.747   0.161
 2073TIP3    H2 6165   0.072   7.857   0.115
 2074TIP3   OH2 6166   2.527   4.720   4.240
 2074TIP3    H1 6167   2.437   4.745   4.261
 2074TIP3    H2 6168   2.519   4.641   4.188
 2075TIP3   OH2 6169   7.222   5.569   3.613
 2075TIP3    H1 6170   7.260   5.576   3.525
 2075TIP3    H2 6171   7.131   5.547   3.599
 2076TIP3   OH2 6172   3.420   2.773   0.921
 2076TIP3    H1 6173   3.388   2.820   0.843
 2076TIP3    H2 6174   3.344   2.767   0.978
 2077TIP3   OH2 6175   4.752   6.438   5.370
 2077TIP3    H1 6176   4.819   6.370   5.378
 2077TIP3    H2 6177   4.672   6.391   5.348
 2078TIP3   OH2 6178   4.126   3.971   5.717
 2078TIP3    H1 6179   4.219   3.983   5.698
 2078TIP3    H2 6180   4.116   3.878   5.736
 2079TIP3   OH2 6181   4.522   6.235   1.913
 2079TIP3    H1 6182   4.474   6.315   1.890
 2079TIP3    H2 6183   4.558   6.203   1.831
 2080TIP3   OH2 6184   5.541   4.599   4.368
 2080TIP3    H1 6185   5.634   4.619   4.355
 2080TIP3    H2 6186   5.531   4.509   4.336
 2081TIP3   OH2 6187   6.077   2.588   4.572
 2081TIP3    H1 6188   6.113   2.588   4.661
 2081TIP3    H2 6189   6.015   2.516   4.572
 2082TIP3   OH2 6190   7.863   2.300   0.915
 2082TIP3    H1 6191   7.856   2.258   1.001
 2082TIP3    H2 6192   7.824   2.386   0.928
 2083TIP3   OH2 6193   1.423   2.740   4.811
 2083TIP3    H1 6194   1.443   2.819   4.861
 2083TIP3    H2 6195   1.371   2.686   4.870
 2084TIP3   OH2 6196   4.472   4.309   2.298
 2084TIP3    H1 6197   4.533   4.379   2.319
 2084TIP3    H2 6198   4.508   4.232   2.341
 2085TIP3   OH2 6199   2.136   3.204   3.898
 2085TIP3    H1 6200   2.186   3.193   3.979
 2085TIP3    H2 6201   2.070   3.269   3.919
 2086TIP3   OH2 6202   3.500   2.464   1.201
 2086TIP3    H1 6203   3.421   2.436   1.247
 2086TIP3    H2 6204   3.572   2.427   1.252
 2087TIP3   OH2 6205   0.996   7.483   4.843
 2087TIP3    H1 6206   0.960   7.526   4.765
 2087TIP3    H2 6207   0.920   7.472   4.901
 2088TIP3   OH2 6208   7.029   4.869   4.560
 2088TIP3    H1 6209   6.955   4.859   4.501
 2088TIP3    H2 6210   7.079   4.788   4.550
 2089TIP3   OH2 6211   4.658   3.896   2.698
 2089TIP3    H1 6212   4.683   3.957   2.768
 2089TIP3    H2 6213   4.735   3.891   2.642
 2090TIP3   OH2 6214   1.912   5.161   6.108
 2090TIP3    H1 6215   1.984   5.204   6.061
 2090TIP3    H2 6216   1.955   5.108   6.175
 2091TIP3   OH2 6217   4.380   4.817   3.266
 2091TIP3    H1 6218   4.316   4.753   3.295
 2091TIP3    H2 6219   4.436   4.831   3.343
 2092TIP3   OH2 6220   3.670   6.452   2.329
 2092TIP3    H1 6221   3.666   6.503   2.410
 2092TIP3    H2 6222   3.647   6.514   2.260
 2093TIP3   OH2 6223   0.667   0.537   4.533
 2093TIP3    H1 6224   0.675   0.632   4.529
 2093TIP3    H2 6225   0.592   0.521   4.590
 2094TIP3   OH2 6226   2.113   4.488   4.726
 2094TIP3    H1 6227   2.091   4.462   4.637
 2094TIP3    H2 6228   2.063   4.428   4.782
 2095TIP3   OH2 6229   2.073   2.514   3.989
 2095TIP3    H1 6230   1.997   2.472   3.946
 2095TIP3    H2 6231   2.149   2.470   3.951
 2096TIP3   OH2 6232   3.478   0.898   5.995
 2096TIP3    H1 6233   3.464   0.849   6.076
 2096TIP3    H2 6234   3.392   0.897   5.951
 2097TIP3   OH2 6235   2.735   1.488   0.917
 2097TIP3    H1 6236   2.672   1.442   0.861
 2097TIP3    H2 6237   2.820   1.471   0.876
 2098TIP3   OH2 6238   7.437   4.632   4.566
 2098TIP3    H1 6239   7.516   4.687   4.568
 2098TIP3    H2 6240   7.463   4.551   4.608
 2099TIP3   OH2 6241   1.095   4.383   3.656
 2099TIP3    H1 6242   1.155   4.400   3.729
 2099TIP3    H2 6243   1.098   4.288   3.644
 2100TIP3   OH2 6244   5.144   1.715   0.457
 2100TIP3    H1 6245   5.196   1.659   0.515
 2100TIP3    H2 6246   5.095   1.655   0.402
 2101TIP3   OH2 6247   4.235   6.479   4.991
 2101TIP3    H1 6248   4.269   6.543   5.054
 2101TIP3    H2 6249   4.185   6.530   4.929
 2102TIP3   OH2 6250   1.272   0.314   1.174
 2102TIP3    H1 6251   1.230   0.381   1.120
 2102TIP3    H2 6252   1.363   0.314   1.144
 2103TIP3   OH2 6253   8.289   2.071   0.905
 2103TIP3    H1 6254   8.198   2.046   0.925
 2103TIP3    H2 6255   8.297   2.160   0.941
 2104TIP3   OH2 6256   7.034   0.523   2.950
 2104TIP3    H1 6257   7.019   0.547   3.041
 2104TIP3    H2 6258   7.125   0.494   2.947
 2105TIP3   OH2 6259   3.259   1.682   1.055
 2105TIP3    H1 6260   3.227   1.637   1.133
 2105TIP3    H2 6261   3.331   1.737   1.086
 2106TIP3   OH2 6262   2.803   5.734   5.676
 2106TIP3    H1 6263   2.774   5.725   5.585
 2106TIP3    H2 6264   2.737   5.688   5.727
 2107TIP3   OH2 6265   1.820   1.982   2.707
 2107TIP3    H1 6266   1.729   1.987   2.736
 2107TIP3    H2 6267   1.835   2.064   2.661
 2108TIP3   OH2 6268   8.226   3.758   1.478
 2108TIP3    H1 6269   8.150   3.729   1.428
 2108TIP3    H2 6270   8.270   3.677   1.503
 2109TIP3   OH2 6271   2.956   3.759   1.883
 2109TIP3    H1 6272   2.999   3.828   1.934
 2109TIP3    H2 6273   2.963   3.681   1.938
 2110TIP3   OH2 6274   2.827   4.139   4.490
 2110TIP3    H1 6275   2.848   4.199   4.562
 2110TIP3    H2 6276   2.789   4.062   4.533
 2111TIP3   OH2 6277   4.927   4.703   4.777
 2111TIP3    H1 6278   4.896   4.783   4.820
 2111TIP3    H2 6279   4.998   4.733   4.719
 2112TIP3   OH2 6280   4.192   4.760   5.775
 2112TIP3    H1 6281   4.136   4.837   5.766
 2112TIP3    H2 6282   4.269   4.781   5.721
 2113TIP3   OH2 6283   5.142   0.277   0.222
 2113TIP3    H1 6284   5.094   0.282   0.139
 2113TIP3    H2 6285   5.102   0.346   0.276
 2114TIP3   OH2 6286   8.060   5.793   5.395
 2114TIP3    H1 6287   8.041   5.715   5.345
 2114TIP3    H2 6288   8.039   5.866   5.337
 2115TIP3   OH2 6289   4.387   3.720   6.564
 2115TIP3    H1 6290   4.419   3.789   6.622
 2115TIP3    H2 6291   4.325   3.670   6.617
 2116TIP3   OH2 6292   7.449   5.858   3.608
 2116TIP3    H1 6293   7.425   5.924   3.673
 2116TIP3    H2 6294   7.440   5.903   3.524
 2117TIP3   OH2 6295   2.057   3.702   2.457
 2117TIP3    H1 6296   2.102   3.633   2.507
 2117TIP3    H2 6297   2.067   3.780   2.512
 2118TIP3   OH2 6298   6.934   0.340   1.846
 2118TIP3    H1 6299   6.895   0.426   1.856
 2118TIP3    H2 6300   6.873   0.292   1.790
 2119TIP3   OH2 6301   2.471   3.825   2.474
 2119TIP3    H1 6302   2.518   3.803   2.554
 2119TIP3    H2 6303   2.448   3.741   2.435
 2120TIP3   OH2 6304   3.755   5.899   1.142
 2120TIP3    H1 6305   3.710   5.831   1.193
 2120TIP3    H2 6306   3.756   5.975   1.200
 2121TIP3   OH2 6307   6.048   6.663   4.255
 2121TIP3    H1 6308   5.967   6.617   4.279
 2121TIP3    H2 6309   6.094   6.675   4.338
 2122TIP3   OH2 6310   4.724   1.135   5.684
 2122TIP3    H1 6311   4.655   1.071   5.703
 2122TIP3    H2 6312   4.784   1.129   5.758
 2123TIP3   OH2 6313   6.486   4.250   5.433
 2123TIP3    H1 6314   6.574   4.214   5.444
 2123TIP3    H2 6315   6.457   4.218   5.348
 2124TIP3   OH2 6316   8.107   4.984   6.176
 2124TIP3    H1 6317   8.108   5.077   6.152
 2124TIP3    H2 6318   8.105   4.984   6.272
 2125TIP3   OH2 6319   5.530   6.886   0.593
 2125TIP3    H1 6320   5.577   6.858   0.671
 2125TIP3    H2 6321   5.451   6.929   0.627
 2126TIP3   OH2 6322   6.103   6.580   2.654
 2126TIP3    H1 6323   6.114   6.675   2.649
 2126TIP3    H2 6324   6.156   6.546   2.583
 2127TIP3   OH2 6325   7.322   4.725   3.774
 2127TIP3    H1 6326   7.351   4.634   3.775
 2127TIP3    H2 6327   7.377   4.767   3.708
 2128TIP3   OH2 6328   4.206   2.539   5.704
 2128TIP3    H1 6329   4.154   2.527   5.784
 2128TIP3    H2 6330   4.194   2.632   5.682
 2129TIP3   OH2 6331   7.576   6.578   5.973
 2129TIP3    H1 6332   7.528   6.651   5.933
 2129TIP3    H2 6333   7.608   6.528   5.898
 2130TIP3   OH2 6334   6.879   6.171   1.972
 2130TIP3    H1 6335   6.849   6.121   2.047
 2130TIP3    H2 6336   6.844   6.259   1.985
 2131TIP3   OH2 6337   4.506   4.149   3.728
 2131TIP3    H1 6338   4.502   4.133   3.823
 2131TIP3    H2 6339   4.415   4.142   3.699
 2132TIP3   OH2 6340   5.294   4.807   4.321
 2132TIP3    H1 6341   5.250   4.891   4.328
 2132TIP3    H2 6342   5.373   4.816   4.374
 2133TIP3   OH2 6343   4.591   5.073   1.694
 2133TIP3    H1 6344   4.499   5.097   1.694
 2133TIP3    H2 6345   4.607   5.034   1.780
 2134TIP3   OH2 6346   3.424   5.011   4.154
 2134TIP3    H1 6347   3.350   4.963   4.193
 2134TIP3    H2 6348   3.499   4.953   4.167
 2135TIP3   OH2 6349   7.148   4.409   2.522
 2135TIP3    H1 6350   7.174   4.427   2.432
 2135TIP3    H2 6351   7.166   4.316   2.534
 2136TIP3   OH2 6352   7.009   3.508   1.746
 2136TIP3    H1 6353   6.934   3.448   1.749
 2136TIP3    H2 6354   7.008   3.542   1.657
 2137TIP3   OH2 6355   4.592   4.170   0.891
 2137TIP3    H1 6356   4.638   4.092   0.920
 2137TIP3    H2 6357   4.517   4.178   0.950
 2138TIP3   OH2 6358   0.772   0.972   3.908
 2138TIP3    H1 6359   0.825   0.892   3.904
 2138TIP3    H2 6360   0.833   1.039   3.938
 2139TIP3   OH2 6361   2.445   4.711   4.641
 2139TIP3    H1 6362   2.444   4.679   4.551
 2139TIP3    H2 6363   2.536   4.702   4.669
 2140TIP3   OH2 6364   1.617   2.551   6.369
 2140TIP3    H1 6365   1.686   2.511   6.422
 2140TIP3    H2 6366   1.590   2.483   6.308
 2141TIP3   OH2 6367   1.811   6.764   1.164
 2141TIP3    H1 6368   1.874   6.807   1.105
 2141TIP3    H2 6369   1.863   6.696   1.207
 2142TIP3   OH2 6370   6.210   4.266   4.648
 2142TIP3    H1 6371   6.172   4.235   4.566
 2142TIP3    H2 6372   6.215   4.361   4.637
 2143TIP3   OH2 6373   1.460   3.681   5.628
 2143TIP3    H1 6374   1.479   3.597   5.669
 2143TIP3    H2 6375   1.429   3.659   5.541
 2144TIP3   OH2 6376   7.919   0.887   3.911
 2144TIP3    H1 6377   7.935   0.795   3.890
 2144TIP3    H2 6378   7.962   0.935   3.840
 2145TIP3   OH2 6379   2.131   4.205   4.593
 2145TIP3    H1 6380   2.137   4.160   4.677
 2145TIP3    H2 6381   2.039   4.228   4.584
 2146TIP3   OH2 6382   7.643   7.313   5.297
 2146TIP3    H1 6383   7.609   7.400   5.276
 2146TIP3    H2 6384   7.633   7.263   5.217
 2147TIP3   OH2 6385   1.649   0.371   0.578
 2147TIP3    H1 6386   1.594   0.298   0.605
 2147TIP3    H2 6387   1.681   0.409   0.660
 2148TIP3   OH2 6388   3.902   3.869   5.202
 2148TIP3    H1 6389   3.915   3.905   5.289
 2148TIP3    H2 6390   3.881   3.777   5.218
 2149TIP3   OH2 6391   1.516   1.558   3.402
 2149TIP3    H1 6392   1.599   1.605   3.409
 2149TIP3    H2 6393   1.515   1.525   3.312
 2150TIP3   OH2 6394   1.065   2.703   6.571
 2150TIP3    H1 6395   1.035   2.617   6.601
 2150TIP3    H2 6396   1.138   2.685   6.512
 2151TIP3   OH2 6397   7.809   4.340   2.711
 2151TIP3    H1 6398   7.897   4.372   2.730
 2151TIP3    H2 6399   7.776   4.308   2.794
 2152TIP3   OH2 6400   5.510   6.237   2.544
 2152TIP3    H1 6401   5.494   6.144   2.559
 2152TIP3    H2 6402   5.553   6.267   2.624
 2153TIP3   OH2 6403   6.568   1.438   1.760
 2153TIP3    H1 6404   6.636   1.496   1.794
 2153TIP3    H2 6405   6.488   1.490   1.764
 2154TIP3   OH2 6406   1.151   4.016   6.526
 2154TIP3    H1 6407   1.086   3.980   6.587
 2154TIP3    H2 6408   1.234   3.979   6.555
 2155TIP3   OH2 6409   5.100   5.613   1.339
 2155TIP3    H1 6410   5.125   5.705   1.332
 2155TIP3    H2 6411   5.151   5.570   1.270
 2156TIP3   OH2 6412   7.042   2.473   0.369
 2156TIP3    H1 6413   7.039   2.494   0.275
 2156TIP3    H2 6414   7.135   2.480   0.392
 2157TIP3   OH2 6415   2.781   1.780   4.232
 2157TIP3    H1 6416   2.710   1.828   4.188
 2157TIP3    H2 6417   2.753   1.689   4.229
 2158TIP3   OH2 6418   2.155   0.856   1.775
 2158TIP3    H1 6419   2.179   0.770   1.810
 2158TIP3    H2 6420   2.180   0.852   1.683
 2159TIP3   OH2 6421   6.732   4.900   4.536
 2159TIP3    H1 6422   6.759   4.969   4.597
 2159TIP3    H2 6423   6.681   4.839   4.590
 2160TIP3   OH2 6424   0.559   0.123   4.282
 2160TIP3    H1 6425   0.618   0.198   4.269
 2160TIP3    H2 6426   0.475   0.153   4.248
 2161TIP3   OH2 6427   5.647   2.186   0.251
 2161TIP3    H1 6428   5.654   2.241   0.329
 2161TIP3    H2 6429   5.728   2.136   0.249
 2162TIP3   OH2 6430   5.143   1.753   3.078
 2162TIP3    H1 6431   5.092   1.773   3.157
 2162TIP3    H2 6432   5.175   1.664   3.091
 2163TIP3   OH2 6433   7.849   4.764   5.352
 2163TIP3    H1 6434   7.773   4.717   5.386
 2163TIP3    H2 6435   7.813   4.839   5.306
 2164TIP3   OH2 6436   2.385   2.481   2.803
 2164TIP3    H1 6437   2.359   2.509   2.715
 2164TIP3    H2 6438   2.449   2.547   2.831
 2165TIP3   OH2 6439   7.299   0.401   0.335
 2165TIP3    H1 6440   7.349   0.337   0.383
 2165TIP3    H2 6441   7.335   0.399   0.246
 2166TIP3   OH2 6442   3.783   4.691   4.895
 2166TIP3    H1 6443   3.791   4.659   4.805
 2166TIP3    H2 6444   3.694   4.666   4.921
 2167TIP3   OH2 6445   0.119   0.023   4.637
 2167TIP3    H1 6446   0.213   0.038   4.632
 2167TIP3    H2 6447   0.092   0.066   4.718
 2168TIP3   OH2 6448   1.194   3.924  -0.023
 2168TIP3    H1 6449   1.141   3.921  -0.102
 2168TIP3    H2 6450   1.154   3.860   0.036
 2169TIP3   OH2 6451   1.067   4.294   0.661
 2169TIP3    H1 6452   1.062   4.331   0.573
 2169TIP3    H2 6453   1.037   4.365   0.718
 2170TIP3   OH2 6454   4.941   7.444   1.957
 2170TIP3    H1 6455   4.864   7.398   1.923
 2170TIP3    H2 6456   4.953   7.518   1.897
 2171TIP3   OH2 6457   2.900   1.652   5.485
 2171TIP3    H1 6458   2.807   1.630   5.482
 2171TIP3    H2 6459   2.939   1.603   5.413
 2172TIP3   OH2 6460   5.232   7.088   0.867
 2172TIP3    H1 6461   5.246   6.994   0.865
 2172TIP3    H2 6462   5.172   7.102   0.941
 2173TIP3   OH2 6463   6.556   0.174   5.254
 2173TIP3    H1 6464   6.555   0.255   5.204
 2173TIP3    H2 6465   6.593   0.109   5.194
 2174TIP3   OH2 6466   1.589   0.023   5.849
 2174TIP3    H1 6467   1.674   0.051   5.817
 2174TIP3    H2 6468   1.600   0.018   5.944
 2175TIP3   OH2 6469   4.483   4.862   5.950
 2175TIP3    H1 6470   4.475   4.767   5.957
 2175TIP3    H2 6471   4.486   4.893   6.040
 2176TIP3   OH2 6472   6.235   7.160   6.124
 2176TIP3    H1 6473   6.140   7.166   6.118
 2176TIP3    H2 6474   6.266   7.248   6.102
 2177TIP3   OH2 6475   3.801   4.063   4.832
 2177TIP3    H1 6476   3.847   3.981   4.814
 2177TIP3    H2 6477   3.740   4.073   4.760
 2178TIP3   OH2 6478   1.937   7.815   3.160
 2178TIP3    H1 6479   2.021   7.769   3.155
 2178TIP3    H2 6480   1.875   7.754   3.120
 2179TIP3   OH2 6481   5.225   1.414   4.035
 2179TIP3    H1 6482   5.131   1.430   4.043
 2179TIP3    H2 6483   5.264   1.502   4.029
 2180TIP3   OH2 6484   7.394   2.066   4.228
 2180TIP3    H1 6485   7.389   2.077   4.323
 2180TIP3    H2 6486   7.321   2.118   4.194
 2181TIP3   OH2 6487   2.751   1.780   2.715
 2181TIP3    H1 6488   2.744   1.810   2.625
 2181TIP3    H2 6489   2.675   1.819   2.759
 2182TIP3   OH2 6490   7.398   5.357   1.521
 2182TIP3    H1 6491   7.326   5.357   1.456
 2182TIP3    H2 6492   7.473   5.393   1.473
 2183TIP3   OH2 6493   0.876   0.356   4.547
 2183TIP3    H1 6494   0.818   0.429   4.527
 2183TIP3    H2 6495   0.900   0.368   4.639
 2184TIP3   OH2 6496   1.960   5.511   1.316
 2184TIP3    H1 6497   1.992   5.533   1.229
 2184TIP3    H2 6498   2.037   5.476   1.361
 2185TIP3   OH2 6499   4.493   4.813   3.536
 2185TIP3    H1 6500   4.422   4.765   3.579
 2185TIP3    H2 6501   4.573   4.774   3.571
 2186TIP3   OH2 6502   8.016   3.221   1.240
 2186TIP3    H1 6503   7.927   3.223   1.203
 2186TIP3    H2 6504   8.020   3.138   1.288
 2187TIP3   OH2 6505   2.298   1.640   4.637
 2187TIP3    H1 6506   2.358   1.700   4.681
 2187TIP3    H2 6507   2.260   1.588   4.708
 2188TIP3   OH2 6508   7.728   7.167   3.967
 2188TIP3    H1 6509   7.766   7.183   4.053
 2188TIP3    H2 6510   7.643   7.211   3.969
 2189TIP3   OH2 6511   2.909   6.738   5.582
 2189TIP3    H1 6512   2.836   6.799   5.568
 2189TIP3    H2 6513   2.988   6.790   5.570
 2190TIP3   OH2 6514   8.196   5.783   6.473
 2190TIP3    H1 6515   8.183   5.807   6.565
 2190TIP3    H2 6516   8.284   5.747   6.470
 2191TIP3   OH2 6517   4.353   2.025   1.656
 2191TIP3    H1 6518   4.381   1.949   1.605
 2191TIP3    H2 6519   4.433   2.075   1.670
 2192TIP3   OH2 6520   6.218   7.291   6.732
 2192TIP3    H1 6521   6.183   7.278   6.820
 2192TIP3    H2 6522   6.156   7.352   6.691
 2193TIP3   OH2 6523   6.176   7.828   5.072
 2193TIP3    H1 6524   6.233   7.812   5.147
 2193TIP3    H2 6525   6.165   7.741   5.032
 2194TIP3   OH2 6526   4.190   5.347   5.967
 2194TIP3    H1 6527   4.171   5.387   6.051
 2194TIP3    H2 6528   4.174   5.253   5.980
 2195TIP3   OH2 6529   0.443   0.452   4.322
 2195TIP3    H1 6530   0.506   0.486   4.385
 2195TIP3    H2 6531   0.495   0.425   4.247
 2196TIP3   OH2 6532   4.359   1.676   2.584
 2196TIP3    H1 6533   4.340   1.755   2.635
 2196TIP3    H2 6534   4.283   1.619   2.600
 2197TIP3   OH2 6535   1.028   5.097   2.019
 2197TIP3    H1 6536   0.964   5.028   2.035
 2197TIP3    H2 6537   1.050   5.089   1.926
 2198TIP3   OH2 6538   6.811   5.244   5.135
 2198TIP3    H1 6539   6.825   5.279   5.047
 2198TIP3    H2 6540   6.846   5.155   5.132
 2199TIP3   OH2 6541   7.275   7.352   5.758
 2199TIP3    H1 6542   7.364   7.360   5.723
 2199TIP3    H2 6543   7.282   7.282   5.823
 2200TIP3   OH2 6544   1.821   4.737   4.452
 2200TIP3    H1 6545   1.767   4.659   4.462
 2200TIP3    H2 6546   1.760   4.806   4.426
 2201TIP3   OH2 6547   0.453   1.574   6.134
 2201TIP3    H1 6548   0.471   1.500   6.191
 2201TIP3    H2 6549   0.474   1.651   6.187
 2202TIP3   OH2 6550   5.128   3.006   5.535
 2202TIP3    H1 6551   5.147   3.017   5.628
 2202TIP3    H2 6552   5.208   3.035   5.491
 2203TIP3   OH2 6553   4.512   3.285   1.449
 2203TIP3    H1 6554   4.576   3.326   1.508
 2203TIP3    H2 6555   4.476   3.212   1.499
 2204TIP3   OH2 6556   1.014   1.328   5.283
 2204TIP3    H1 6557   1.033   1.358   5.194
 2204TIP3    H2 6558   0.990   1.236   5.273
 2205TIP3   OH2 6559   3.662   4.545   0.831
 2205TIP3    H1 6560   3.738   4.580   0.877
 2205TIP3    H2 6561   3.697   4.507   0.751
 2206TIP3   OH2 6562   6.156   0.551   1.447
 2206TIP3    H1 6563   6.187   0.606   1.375
 2206TIP3    H2 6564   6.076   0.511   1.413
 2207TIP3   OH2 6565   0.024   0.540   0.886
 2207TIP3    H1 6566   0.067   0.575   0.808
 2207TIP3    H2 6567  -0.025   0.464   0.855
 2208TIP3   OH2 6568   2.954   5.271   4.919
 2208TIP3    H1 6569   2.890   5.296   4.853
 2208TIP3    H2 6570   2.941   5.177   4.932
 2209TIP3   OH2 6571   2.804   0.600   5.032
 2209TIP3    H1 6572   2.812   0.606   5.127
 2209TIP3    H2 6573   2.882   0.645   4.998
 2210TIP3   OH2 6574   7.821   5.820   5.872
 2210TIP3    H1 6575   7.912   5.804   5.844
 2210TIP3    H2 6576   7.775   5.842   5.791
 2211TIP3   OH2 6577   6.285   6.920   2.849
 2211TIP3    H1 6578   6.366   6.914   2.799
 2211TIP3    H2 6579   6.219   6.883   2.791
 2212TIP3   OH2 6580   2.928   0.874   4.627
 2212TIP3    H1 6581   2.949   0.871   4.534
 2212TIP3    H2 6582   2.834   0.857   4.632
 2213TIP3   OH2 6583   1.610   3.037   2.061
 2213TIP3    H1 6584   1.574   3.020   2.148
 2213TIP3    H2 6585   1.681   3.099   2.077
 2214TIP3   OH2 6586   7.441   4.200   2.277
 2214TIP3    H1 6587   7.522   4.181   2.325
 2214TIP3    H2 6588   7.469   4.211   2.187
 2215TIP3   OH2 6589   2.351   5.526   5.265
 2215TIP3    H1 6590   2.381   5.523   5.174
 2215TIP3    H2 6591   2.400   5.456   5.308
 2216TIP3   OH2 6592   4.950   5.210   3.489
 2216TIP3    H1 6593   5.046   5.204   3.482
 2216TIP3    H2 6594   4.931   5.303   3.479
 2217TIP3   OH2 6595   7.537   0.688   4.105
 2217TIP3    H1 6596   7.530   0.744   4.027
 2217TIP3    H2 6597   7.446   0.667   4.127
 2218TIP3   OH2 6598   7.251   1.059   3.831
 2218TIP3    H1 6599   7.174   1.006   3.853
 2218TIP3    H2 6600   7.264   1.115   3.908
 2219TIP3   OH2 6601  -0.025   0.315   0.031
 2219TIP3    H1 6602  -0.015   0.222   0.051
 2219TIP3    H2 6603   0.065   0.347   0.020
 2220TIP3   OH2 6604   7.970   7.448   2.603
 2220TIP3    H1 6605   7.912   7.512   2.561
 2220TIP3    H2 6606   8.037   7.429   2.537
 2221TIP3   OH2 6607   2.998   0.609   2.166
 2221TIP3    H1 6608   2.988   0.515   2.178
 2221TIP3    H2 6609   3.073   0.632   2.221
 2222TIP3   OH2 6610   2.522   2.354   0.751
 2222TIP3    H1 6611   2.440   2.403   0.745
 2222TIP3    H2 6612   2.543   2.331   0.661
 2223TIP3   OH2 6613   2.360   1.508   6.549
 2223TIP3    H1 6614   2.267   1.518   6.526
 2223TIP3    H2 6615   2.365   1.539   6.640
 2224TIP3   OH2 6616   4.355   7.315   0.345
 2224TIP3    H1 6617   4.333   7.387   0.286
 2224TIP3    H2 6618   4.393   7.248   0.288
 2225TIP3   OH2 6619   2.327   4.775   6.312
 2225TIP3    H1 6620   2.403   4.718   6.324
 2225TIP3    H2 6621   2.253   4.715   6.304
 2226TIP3   OH2 6622   6.418   1.549   4.529
 2226TIP3    H1 6623   6.496   1.522   4.481
 2226TIP3    H2 6624   6.351   1.560   4.462
 2227TIP3   OH2 6625   5.835   6.660   3.809
 2227TIP3    H1 6626   5.877   6.672   3.894
 2227TIP3    H2 6627   5.893   6.705   3.747
 2228TIP3   OH2 6628   5.906   7.501   1.461
 2228TIP3    H1 6629   5.910   7.443   1.385
 2228TIP3    H2 6630   5.905   7.589   1.423
 2229TIP3   OH2 6631   0.398   1.282   5.555
 2229TIP3    H1 6632   0.407   1.263   5.648
 2229TIP3    H2 6633   0.353   1.206   5.519
 2230TIP3   OH2 6634   4.848   1.010   1.547
 2230TIP3    H1 6635   4.765   1.050   1.570
 2230TIP3    H2 6636   4.879   0.970   1.629
 2231TIP3   OH2 6637   0.242   7.714   4.536
 2231TIP3    H1 6638   0.333   7.699   4.561
 2231TIP3    H2 6639   0.223   7.646   4.471
 2232TIP3   OH2 6640   0.263   6.886   5.212
 2232TIP3    H1 6641   0.352   6.921   5.202
 2232TIP3    H2 6642   0.206   6.955   5.179
 2233TIP3   OH2 6643   7.586   6.977   6.400
 2233TIP3    H1 6644   7.568   6.951   6.309
 2233TIP3    H2 6645   7.517   7.040   6.422
 2234TIP3   OH2 6646   8.273   7.068   6.660
 2234TIP3    H1 6647   8.229   7.067   6.745
 2234TIP3    H2 6648   8.203   7.055   6.597
 2235TIP3   OH2 6649   2.118   5.655   3.415
 2235TIP3    H1 6650   2.023   5.669   3.409
 2235TIP3    H2 6651   2.156   5.727   3.363
 2236TIP3   OH2 6652   6.280   1.727   4.346
 2236TIP3    H1 6653   6.313   1.813   4.321
 2236TIP3    H2 6654   6.191   1.744   4.377
 2237TIP3   OH2 6655   7.217   5.984   2.223
 2237TIP3    H1 6656   7.191   6.074   2.245
 2237TIP3    H2 6657   7.180   5.932   2.294
 2238TIP3   OH2 6658   0.842   2.361   6.139
 2238TIP3    H1 6659   0.897   2.376   6.061
 2238TIP3    H2 6660   0.904   2.330   6.205
 2239TIP3   OH2 6661   0.790   0.813   4.212
 2239TIP3    H1 6662   0.743   0.869   4.150
 2239TIP3    H2 6663   0.738   0.818   4.293
 2240TIP3   OH2 6664   1.055   7.053   2.664
 2240TIP3    H1 6665   1.064   7.005   2.582
 2240TIP3    H2 6666   1.043   7.144   2.637
 2241TIP3   OH2 6667   7.468   6.506   0.843
 2241TIP3    H1 6668   7.421   6.535   0.921
 2241TIP3    H2 6669   7.399   6.478   0.783
 2242TIP3   OH2 6670   0.556   6.737   4.958
 2242TIP3    H1 6671   0.522   6.816   4.916
 2242TIP3    H2 6672   0.545   6.753   5.052
 2243TIP3   OH2 6673   0.649   5.131   6.587
 2243TIP3    H1 6674   0.587   5.176   6.644
 2243TIP3    H2 6675   0.715   5.197   6.565
 2244TIP3   OH2 6676   7.930   6.706   1.899
 2244TIP3    H1 6677   8.001   6.765   1.925
 2244TIP3    H2 6678   7.924   6.642   1.970
 2245TIP3   OH2 6679   6.839   2.114   4.980
 2245TIP3    H1 6680   6.894   2.192   4.991
 2245TIP3    H2 6681   6.895   2.052   4.934
 2246TIP3   OH2 6682   7.970   0.703   2.904
 2246TIP3    H1 6683   7.978   0.646   2.980
 2246TIP3    H2 6684   7.875   0.717   2.894
 2247TIP3   OH2 6685   2.530   6.197   1.508
 2247TIP3    H1 6686   2.547   6.165   1.597
 2247TIP3    H2 6687   2.514   6.118   1.457
 2248TIP3   OH2 6688   7.146   2.621   2.246
 2248TIP3    H1 6689   7.185   2.619   2.333
 2248TIP3    H2 6690   7.063   2.573   2.255
 2249TIP3   OH2 6691   3.870   4.825   3.535
 2249TIP3    H1 6692   3.818   4.885   3.481
 2249TIP3    H2 6693   3.812   4.803   3.608
 2250TIP3   OH2 6694   6.257   6.305   6.351
 2250TIP3    H1 6695   6.190   6.335   6.412
 2250TIP3    H2 6696   6.209   6.276   6.274
 2251TIP3   OH2 6697   1.182   1.174   1.272
 2251TIP3    H1 6698   1.097   1.199   1.236
 2251TIP3    H2 6699   1.172   1.186   1.367
 2252TIP3   OH2 6700   7.450   1.661   1.318
 2252TIP3    H1 6701   7.447   1.680   1.224
 2252TIP3    H2 6702   7.361   1.635   1.340
 2253TIP3   OH2 6703   0.821   5.985   2.716
 2253TIP3    H1 6704   0.777   5.987   2.631
 2253TIP3    H2 6705   0.768   6.041   2.773
 2254TIP3   OH2 6706   7.692   0.810   1.096
 2254TIP3    H1 6707   7.603   0.794   1.128
 2254TIP3    H2 6708   7.687   0.792   1.002
 2255TIP3   OH2 6709   5.187   0.407   5.987
 2255TIP3    H1 6710   5.145   0.322   6.000
 2255TIP3    H2 6711   5.161   0.434   5.899
 2256TIP3   OH2 6712   0.371   0.357   0.940
 2256TIP3    H1 6713   0.438   0.366   1.007
 2256TIP3    H2 6714   0.291   0.389   0.981
 2257TIP3   OH2 6715   7.565   1.057   0.141
 2257TIP3    H1 6716   7.481   1.026   0.109
 2257TIP3    H2 6717   7.615   0.978   0.159
 2258TIP3   OH2 6718   3.880   0.155   2.967
 2258TIP3    H1 6719   3.812   0.153   3.035
 2258TIP3    H2 6720   3.916   0.243   2.972
 2259TIP3   OH2 6721   2.687   0.496   2.415
 2259TIP3    H1 6722   2.760   0.460   2.364
 2259TIP3    H2 6723   2.718   0.495   2.505
 2260TIP3   OH2 6724   4.619   6.844   1.009
 2260TIP3    H1 6725   4.624   6.786   1.086
 2260TIP3    H2 6726   4.613   6.932   1.046
 2261TIP3   OH2 6727   1.420   4.351   4.802
 2261TIP3    H1 6728   1.478   4.335   4.727
 2261TIP3    H2 6729   1.480   4.353   4.877
 2262TIP3   OH2 6730   2.941   7.578   5.626
 2262TIP3    H1 6731   2.848   7.592   5.610
 2262TIP3    H2 6732   2.983   7.656   5.589
 2263TIP3   OH2 6733   0.837   7.310   4.164
 2263TIP3    H1 6734   0.779   7.385   4.149
 2263TIP3    H2 6735   0.805   7.270   4.245
 2264TIP3   OH2 6736   5.730   3.524   0.231
 2264TIP3    H1 6737   5.824   3.506   0.226
 2264TIP3    H2 6738   5.723   3.597   0.292
 2265TIP3   OH2 6739   0.518   6.571   4.141
 2265TIP3    H1 6740   0.449   6.594   4.078
 2265TIP3    H2 6741   0.597   6.563   4.088
 2266TIP3   OH2 6742   1.334   3.792   4.640
 2266TIP3    H1 6743   1.402   3.724   4.632
 2266TIP3    H2 6744   1.268   3.754   4.697
 2267TIP3   OH2 6745   3.837   7.049   4.844
 2267TIP3    H1 6746   3.922   7.011   4.822
 2267TIP3    H2 6747   3.790   6.979   4.888
 2268TIP3   OH2 6748   4.897   0.267   0.928
 2268TIP3    H1 6749   4.982   0.304   0.952
 2268TIP3    H2 6750   4.895   0.270   0.832
 2269TIP3   OH2 6751   7.223   1.458   1.117
 2269TIP3    H1 6752   7.170   1.533   1.093
 2269TIP3    H2 6753   7.181   1.422   1.195
 2270TIP3   OH2 6754   2.377   4.542   3.005
 2270TIP3    H1 6755   2.419   4.523   2.921
 2270TIP3    H2 6756   2.409   4.629   3.029
 2271TIP3   OH2 6757   6.030   4.217   4.398
 2271TIP3    H1 6758   6.020   4.126   4.370
 2271TIP3    H2 6759   5.955   4.233   4.455
 2272TIP3   OH2 6760   0.071   7.295   0.102
 2272TIP3    H1 6761   0.095   7.287   0.194
 2272TIP3    H2 6762  -0.023   7.312   0.102
 2273TIP3   OH2 6763   2.517   6.071   6.562
 2273TIP3    H1 6764   2.584   6.043   6.624
 2273TIP3    H2 6765   2.503   5.994   6.507
 2274TIP3   OH2 6766   6.280   2.070   5.944
 2274TIP3    H1 6767   6.368   2.036   5.959
 2274TIP3    H2 6768   6.237   2.065   6.029
 2275TIP3   OH2 6769   4.787   3.323   1.329
 2275TIP3    H1 6770   4.717   3.258   1.319
 2275TIP3    H2 6771   4.867   3.274   1.310
 2276TIP3   OH2 6772   2.830   5.913   5.027
 2276TIP3    H1 6773   2.891   5.845   4.999
 2276TIP3    H2 6774   2.882   5.994   5.027
 2277TIP3   OH2 6775   2.830   7.239   2.187
 2277TIP3    H1 6776   2.767   7.171   2.211
 2277TIP3    H2 6777   2.856   7.279   2.270
 2278TIP3   OH2 6778   3.878   5.821   2.792
 2278TIP3    H1 6779   3.858   5.904   2.750
 2278TIP3    H2 6780   3.933   5.844   2.867
 2279TIP3   OH2 6781   2.832   4.811   1.984
 2279TIP3    H1 6782   2.904   4.773   2.035
 2279TIP3    H2 6783   2.843   4.906   1.995
 2280TIP3   OH2 6784   5.773   3.143   0.228
 2280TIP3    H1 6785   5.695   3.176   0.273
 2280TIP3    H2 6786   5.846   3.181   0.276
 2281TIP3   OH2 6787   4.139   5.424   6.226
 2281TIP3    H1 6788   4.136   5.498   6.286
 2281TIP3    H2 6789   4.048   5.395   6.219
 2282TIP3   OH2 6790   4.415   6.708   2.381
 2282TIP3    H1 6791   4.355   6.682   2.451
 2282TIP3    H2 6792   4.396   6.801   2.367
 2283TIP3   OH2 6793   0.549   5.856   4.388
 2283TIP3    H1 6794   0.535   5.887   4.298
 2283TIP3    H2 6795   0.520   5.765   4.387
 2284TIP3   OH2 6796   6.330   7.616   1.867
 2284TIP3    H1 6797   6.377   7.627   1.950
 2284TIP3    H2 6798   6.377   7.672   1.805
 2285TIP3   OH2 6799   2.539   5.514   1.454
 2285TIP3    H1 6800   2.563   5.568   1.528
 2285TIP3    H2 6801   2.608   5.528   1.389
 2286TIP3   OH2 6802   4.546   7.647   5.068
 2286TIP3    H1 6803   4.452   7.654   5.052
 2286TIP3    H2 6804   4.564   7.714   5.135
 2287TIP3   OH2 6805   8.062   1.031   1.884
 2287TIP3    H1 6806   8.029   1.084   1.957
 2287TIP3    H2 6807   7.983   0.993   1.845
 2288TIP3   OH2 6808   6.076   0.119   5.490
 2288TIP3    H1 6809   6.041   0.189   5.434
 2288TIP3    H2 6810   6.167   0.109   5.462
 2289TIP3   OH2 6811   4.364   6.351   4.437
 2289TIP3    H1 6812   4.406   6.426   4.479
 2289TIP3    H2 6813   4.277   6.382   4.412
 2290TIP3   OH2 6814   3.704   3.489   5.532
 2290TIP3    H1 6815   3.637   3.557   5.540
 2290TIP3    H2 6816   3.774   3.519   5.590
 2291TIP3   OH2 6817   6.821   6.469   3.863
 2291TIP3    H1 6818   6.868   6.405   3.916
 2291TIP3    H2 6819   6.885   6.539   3.848
 2292TIP3   OH2 6820   6.132   2.329   3.531
 2292TIP3    H1 6821   6.222   2.361   3.521
 2292TIP3    H2 6822   6.141   2.247   3.579
 2293TIP3   OH2 6823   1.011   4.328   2.211
 2293TIP3    H1 6824   0.972   4.248   2.245
 2293TIP3    H2 6825   0.993   4.394   2.278
 2294TIP3   OH2 6826   3.997   3.373   3.773
 2294TIP3    H1 6827   3.981   3.460   3.736
 2294TIP3    H2 6828   4.049   3.328   3.706
 2295TIP3   OH2 6829   6.255   4.126   1.148
 2295TIP3    H1 6830   6.335   4.180   1.147
 2295TIP3    H2 6831   6.280   4.046   1.102
 2296TIP3   OH2 6832   1.773   0.144   2.768
 2296TIP3    H1 6833   1.839   0.143   2.698
 2296TIP3    H2 6834   1.731   0.058   2.762
 2297TIP3   OH2 6835   3.706   2.943   6.102
 2297TIP3    H1 6836   3.718   2.941   6.197
 2297TIP3    H2 6837   3.685   2.853   6.078
 2298TIP3   OH2 6838   4.025   0.640   0.140
 2298TIP3    H1 6839   3.949   0.653   0.197
 2298TIP3    H2 6840   3.989   0.639   0.052
 2299TIP3   OH2 6841   2.590   5.573   3.682
 2299TIP3    H1 6842   2.629   5.647   3.635
 2299TIP3    H2 6843   2.664   5.532   3.728
 2300TIP3   OH2 6844   7.777   4.346   1.586
 2300TIP3    H1 6845   7.836   4.417   1.563
 2300TIP3    H2 6846   7.756   4.303   1.503
 2301TIP3   OH2 6847   2.549   3.473   2.877
 2301TIP3    H1 6848   2.518   3.539   2.815
 2301TIP3    H2 6849   2.619   3.517   2.926
 2302TIP3   OH2 6850   0.390   0.543   5.163
 2302TIP3    H1 6851   0.312   0.548   5.108
 2302TIP3    H2 6852   0.455   0.500   5.107
 2303TIP3   OH2 6853   5.963   7.068   2.756
 2303TIP3    H1 6854   5.897   7.055   2.688
 2303TIP3    H2 6855   5.918   7.117   2.825
 2304TIP3   OH2 6856   1.444   5.479   2.700
 2304TIP3    H1 6857   1.362   5.482   2.750
 2304TIP3    H2 6858   1.419   5.439   2.616
 2305TIP3   OH2 6859   2.477   6.190   5.818
 2305TIP3    H1 6860   2.493   6.097   5.802
 2305TIP3    H2 6861   2.438   6.221   5.736
 2306TIP3   OH2 6862   7.617   5.275   4.984
 2306TIP3    H1 6863   7.660   5.273   4.898
 2306TIP3    H2 6864   7.655   5.351   5.028
 2307TIP3   OH2 6865   5.127   2.835   0.116
 2307TIP3    H1 6866   5.137   2.925   0.147
 2307TIP3    H2 6867   5.203   2.821   0.059
 2308TIP3   OH2 6868   4.311   5.079   1.743
 2308TIP3    H1 6869   4.300   5.018   1.671
 2308TIP3    H2 6870   4.320   5.024   1.820
 2309TIP3   OH2 6871   3.789   4.658   3.136
 2309TIP3    H1 6872   3.786   4.604   3.215
 2309TIP3    H2 6873   3.861   4.621   3.085
 2310TIP3   OH2 6874   2.288   1.961   3.564
 2310TIP3    H1 6875   2.303   1.892   3.500
 2310TIP3    H2 6876   2.234   2.025   3.518
 2311TIP3   OH2 6877   0.467   7.043   4.873
 2311TIP3    H1 6878   0.380   7.063   4.908
 2311TIP3    H2 6879   0.525   7.047   4.949
 2312TIP3   OH2 6880   5.983   4.845   3.481
 2312TIP3    H1 6881   5.922   4.913   3.451
 2312TIP3    H2 6882   6.001   4.793   3.403
 2313TIP3   OH2 6883   5.208   6.633   1.724
 2313TIP3    H1 6884   5.259   6.579   1.664
 2313TIP3    H2 6885   5.256   6.627   1.807
 2314TIP3   OH2 6886   6.052   5.879   4.815
 2314TIP3    H1 6887   6.025   5.787   4.827
 2314TIP3    H2 6888   6.120   5.875   4.749
 2315TIP3   OH2 6889   4.900   7.596   0.196
 2315TIP3    H1 6890   4.917   7.629   0.108
 2315TIP3    H2 6891   4.827   7.651   0.228
 2316TIP3   OH2 6892   3.099   0.820   3.740
 2316TIP3    H1 6893   3.058   0.880   3.802
 2316TIP3    H2 6894   3.066   0.848   3.655
 2317TIP3   OH2 6895   5.285   5.962   6.552
 2317TIP3    H1 6896   5.241   5.909   6.618
 2317TIP3    H2 6897   5.376   5.931   6.554
 2318TIP3   OH2 6898   0.305   4.331   6.334
 2318TIP3    H1 6899   0.364   4.289   6.397
 2318TIP3    H2 6900   0.331   4.423   6.336
 2319TIP3   OH2 6901   2.943   5.730   2.102
 2319TIP3    H1 6902   2.902   5.811   2.133
 2319TIP3    H2 6903   2.881   5.661   2.127
 2320TIP3   OH2 6904   0.435   6.496   5.267
 2320TIP3    H1 6905   0.450   6.450   5.185
 2320TIP3    H2 6906   0.512   6.476   5.320
 2321TIP3   OH2 6907   1.774   4.015   6.504
 2321TIP3    H1 6908   1.822   3.999   6.586
 2321TIP3    H2 6909   1.760   4.110   6.503
 2322TIP3   OH2 6910   7.947   2.993   4.759
 2322TIP3    H1 6911   7.896   2.966   4.835
 2322TIP3    H2 6912   7.882   3.018   4.694
 2323TIP3   OH2 6913   7.836   0.531   3.454
 2323TIP3    H1 6914   7.772   0.488   3.510
 2323TIP3    H2 6915   7.784   0.582   3.392
 2324TIP3   OH2 6916   7.005   6.514   6.014
 2324TIP3    H1 6917   7.086   6.508   5.963
 2324TIP3    H2 6918   6.978   6.606   6.005
 2325TIP3   OH2 6919   0.231   6.708   0.206
 2325TIP3    H1 6920   0.139   6.722   0.185
 2325TIP3    H2 6921   0.279   6.754   0.137
 2326TIP3   OH2 6922   7.997   4.945   4.463
 2326TIP3    H1 6923   8.063   4.897   4.412
 2326TIP3    H2 6924   7.913   4.908   4.435
 2327TIP3   OH2 6925   5.065   2.381   6.255
 2327TIP3    H1 6926   5.100   2.339   6.334
 2327TIP3    H2 6927   4.977   2.410   6.280
 2328TIP3   OH2 6928   2.397   3.041   6.176
 2328TIP3    H1 6929   2.438   2.964   6.215
 2328TIP3    H2 6930   2.303   3.028   6.190
 2329TIP3   OH2 6931   1.173   7.136   5.728
 2329TIP3    H1 6932   1.145   7.185   5.806
 2329TIP3    H2 6933   1.200   7.051   5.762
 2330TIP3   OH2 6934   5.540   1.946   1.520
 2330TIP3    H1 6935   5.459   1.909   1.485
 2330TIP3    H2 6936   5.606   1.926   1.454
 2331TIP3   OH2 6937   7.201   0.348   3.688
 2331TIP3    H1 6938   7.158   0.286   3.747
 2331TIP3    H2 6939   7.226   0.421   3.744
 2332TIP3   OH2 6940   7.939   1.868   4.725
 2332TIP3    H1 6941   8.008   1.807   4.751
 2332TIP3    H2 6942   7.902   1.831   4.645
 2333TIP3   OH2 6943   7.521   4.762   3.589
 2333TIP3    H1 6944   7.546   4.677   3.551
 2333TIP3    H2 6945   7.600   4.792   3.634
 2334TIP3   OH2 6946   1.448   1.998   2.546
 2334TIP3    H1 6947   1.457   2.016   2.640
 2334TIP3    H2 6948   1.535   2.013   2.510
 2335TIP3   OH2 6949   1.282   3.920   4.415
 2335TIP3    H1 6950   1.258   4.007   4.447
 2335TIP3    H2 6951   1.271   3.862   4.491
 2336TIP3   OH2 6952   1.459   1.816   1.809
 2336TIP3    H1 6953   1.470   1.829   1.714
 2336TIP3    H2 6954   1.453   1.721   1.820
 2337TIP3   OH2 6955   0.878   7.184   5.590
 2337TIP3    H1 6956   0.914   7.250   5.531
 2337TIP3    H2 6957   0.955   7.145   5.633
 2338TIP3   OH2 6958   7.155   1.983   3.371
 2338TIP3    H1 6959   7.227   2.046   3.375
 2338TIP3    H2 6960   7.085   2.023   3.423
 2339TIP3   OH2 6961   2.600   0.936   0.216
 2339TIP3    H1 6962   2.568   0.928   0.306
 2339TIP3    H2 6963   2.523   0.921   0.161
 2340TIP3   OH2 6964   0.138   1.771   6.356
 2340TIP3    H1 6965   0.087   1.722   6.421
 2340TIP3    H2 6966   0.109   1.736   6.272
 2341TIP3   OH2 6967   3.651   1.316   3.802
 2341TIP3    H1 6968   3.633   1.315   3.896
 2341TIP3    H2 6969   3.726   1.375   3.792
 2342TIP3   OH2 6970   3.917   5.268   1.035
 2342TIP3    H1 6971   3.833   5.229   1.009
 2342TIP3    H2 6972   3.893   5.335   1.099
 2343TIP3   OH2 6973   0.843   7.838   6.493
 2343TIP3    H1 6974   0.921   7.786   6.474
 2343TIP3    H2 6975   0.796   7.788   6.559
 2344TIP3   OH2 6976   8.235   6.125   3.764
 2344TIP3    H1 6977   8.256   6.201   3.819
 2344TIP3    H2 6978   8.316   6.074   3.763
 2345TIP3   OH2 6979   0.131   6.523   6.434
 2345TIP3    H1 6980   0.157   6.608   6.470
 2345TIP3    H2 6981   0.142   6.462   6.507
 2346TIP3   OH2 6982   5.699   2.679   3.617
 2346TIP3    H1 6983   5.729   2.755   3.666
 2346TIP3    H2 6984   5.605   2.691   3.608
 2347TIP3   OH2 6985   1.504   1.265   5.487
 2347TIP3    H1 6986   1.527   1.321   5.561
 2347TIP3    H2 6987   1.502   1.176   5.524
 2348TIP3   OH2 6988   4.313   1.581   5.320
 2348TIP3    H1 6989   4.282   1.564   5.231
 2348TIP3    H2 6990   4.274   1.511   5.372
 2349TIP3   OH2 6991   4.668   4.594   5.542
 2349TIP3    H1 6992   4.716   4.633   5.469
 2349TIP3    H2 6993   4.702   4.640   5.619
 2350TIP3   OH2 6994   4.371   7.400   1.245
 2350TIP3    H1 6995   4.435   7.362   1.185
 2350TIP3    H2 6996   4.298   7.339   1.244
 2351TIP3   OH2 6997   1.469   0.107   2.480
 2351TIP3    H1 6998   1.430   0.115   2.567
 2351TIP3    H2 6999   1.530   0.034   2.488
 2352TIP3   OH2 7000   0.936   3.123   5.066
 2352TIP3    H1 7001   0.962   3.033   5.048
 2352TIP3    H2 7002   0.840   3.120   5.072
 2353TIP3   OH2 7003   3.128   1.766   6.575
 2353TIP3    H1 7004   3.126   1.686   6.628
 2353TIP3    H2 7005   3.207   1.757   6.521
 2354TIP3   OH2 7006   6.700   7.628   2.899
 2354TIP3    H1 7007   6.756   7.611   2.824
 2354TIP3    H2 7008   6.758   7.615   2.975
 2355TIP3   OH2 7009   6.660   4.248   6.154
 2355TIP3    H1 7010   6.662   4.217   6.244
 2355TIP3    H2 7011   6.578   4.215   6.119
 2356TIP3   OH2 7012   1.458   6.677   6.159
 2356TIP3    H1 7013   1.367   6.647   6.161
 2356TIP3    H2 7014   1.509   6.603   6.189
 2357TIP3   OH2 7015   4.580   0.520   0.673
 2357TIP3    H1 7016   4.580   0.581   0.746
 2357TIP3    H2 7017   4.506   0.546   0.619
 2358TIP3   OH2 7018   2.319   7.049   4.222
 2358TIP3    H1 7019   2.341   7.096   4.302
 2358TIP3    H2 7020   2.318   6.957   4.247
 2359TIP3   OH2 7021   0.926   4.923   2.962
 2359TIP3    H1 7022   0.950   4.850   3.020
 2359TIP3    H2 7023   0.998   4.986   2.972
 2360TIP3   OH2 7024   6.448   2.458   5.609
 2360TIP3    H1 7025   6.354   2.469   5.619
 2360TIP3    H2 7026   6.468   2.377   5.657
 2361TIP3   OH2 7027   0.981   0.789   2.704
 2361TIP3    H1 7028   1.025   0.869   2.736
 2361TIP3    H2 7029   0.964   0.806   2.612
 2362TIP3   OH2 7030   2.393   0.078   2.289
 2362TIP3    H1 7031   2.455   0.031   2.234
 2362TIP3    H2 7032   2.396   0.168   2.257
 2363TIP3   OH2 7033   0.844   7.705   1.298
 2363TIP3    H1 7034   0.792   7.752   1.362
 2363TIP3    H2 7035   0.929   7.691   1.341
 2364TIP3   OH2 7036   2.641   4.091   2.384
 2364TIP3    H1 7037   2.700   4.036   2.331
 2364TIP3    H2 7038   2.571   4.031   2.409
 2365TIP3   OH2 7039   6.010   0.535   2.563
 2365TIP3    H1 7040   6.016   0.630   2.561
 2365TIP3    H2 7041   6.016   0.509   2.471
 2366TIP3   OH2 7042   2.335   3.069   4.896
 2366TIP3    H1 7043   2.242   3.053   4.878
 2366TIP3    H2 7044   2.381   3.027   4.824
 2367TIP3   OH2 7045   0.916   5.522   6.121
 2367TIP3    H1 7046   0.842   5.524   6.182
 2367TIP3    H2 7047   0.944   5.431   6.119
 2368TIP3   OH2 7048   7.644   5.997   1.001
 2368TIP3    H1 7049   7.682   6.035   0.922
 2368TIP3    H2 7050   7.679   6.051   1.072
 2369TIP3   OH2 7051   2.392   0.110   4.407
 2369TIP3    H1 7052   2.447   0.183   4.436
 2369TIP3    H2 7053   2.311   0.120   4.457
 2370TIP3   OH2 7054   6.310   2.260   2.100
 2370TIP3    H1 7055   6.258   2.307   2.034
 2370TIP3    H2 7056   6.331   2.326   2.166
 2371TIP3   OH2 7057   4.833   0.746   2.132
 2371TIP3    H1 7058   4.746   0.766   2.099
 2371TIP3    H2 7059   4.820   0.678   2.197
 2372TIP3   OH2 7060   4.513   3.555   0.705
 2372TIP3    H1 7061   4.469   3.499   0.769
 2372TIP3    H2 7062   4.444   3.612   0.672
 2373TIP3   OH2 7063   0.199   3.407   2.303
 2373TIP3    H1 7064   0.220   3.484   2.251
 2373TIP3    H2 7065   0.137   3.438   2.368
 2374TIP3   OH2 7066   8.127   2.697   5.698
 2374TIP3    H1 7067   8.054   2.683   5.638
 2374TIP3    H2 7068   8.203   2.661   5.653
 2375TIP3   OH2 7069   4.694   2.131   4.394
 2375TIP3    H1 7070   4.612   2.167   4.360
 2375TIP3    H2 7071   4.734   2.204   4.442
 2376TIP3   OH2 7072   2.393   3.047   3.499
 2376TIP3    H1 7073   2.448   3.125   3.490
 2376TIP3    H2 7074   2.312   3.080   3.537
 2377TIP3   OH2 7075   4.268   5.313   3.437
 2377TIP3    H1 7076   4.283   5.295   3.345
 2377TIP3    H2 7077   4.172   5.313   3.447
 2378TIP3   OH2 7078   3.377   5.531   3.677
 2378TIP3    H1 7079   3.409   5.452   3.633
 2378TIP3    H2 7080   3.456   5.584   3.691
 2379TIP3   OH2 7081   0.657   4.649   1.018
 2379TIP3    H1 7082   0.711   4.724   0.994
 2379TIP3    H2 7083   0.718   4.575   1.020
 2380TIP3   OH2 7084   4.329   2.887   6.245
 2380TIP3    H1 7085   4.279   2.872   6.165
 2380TIP3    H2 7086   4.270   2.938   6.301
 2381TIP3   OH2 7087   1.580   3.387   1.376
 2381TIP3    H1 7088   1.579   3.458   1.312
 2381TIP3    H2 7089   1.550   3.426   1.457
 2382TIP3   OH2 7090   3.420   2.345   3.675
 2382TIP3    H1 7091   3.439   2.266   3.726
 2382TIP3    H2 7092   3.400   2.412   3.740
 2383TIP3   OH2 7093   5.640   4.577   0.914
 2383TIP3    H1 7094   5.638   4.549   1.005
 2383TIP3    H2 7095   5.599   4.505   0.866
 2384TIP3   OH2 7096   0.260   1.416   6.491
 2384TIP3    H1 7097   0.298   1.457   6.568
 2384TIP3    H2 7098   0.332   1.408   6.428
 2385TIP3   OH2 7099   6.560   2.464   4.082
 2385TIP3    H1 7100   6.548   2.464   3.987
 2385TIP3    H2 7101   6.486   2.413   4.115
 2386TIP3   OH2 7102   4.849   4.467   1.897
 2386TIP3    H1 7103   4.940   4.485   1.873
 2386TIP3    H2 7104   4.807   4.553   1.900
 2387TIP3   OH2 7105   2.203   6.835   2.102
 2387TIP3    H1 7106   2.139   6.764   2.111
 2387TIP3    H2 7107   2.150   6.914   2.095
 2388TIP3   OH2 7108   7.949   1.779   0.794
 2388TIP3    H1 7109   7.922   1.842   0.861
 2388TIP3    H2 7110   7.980   1.703   0.843
 2389TIP3   OH2 7111   5.972   5.163   5.572
 2389TIP3    H1 7112   6.044   5.220   5.546
 2389TIP3    H2 7113   5.910   5.168   5.500
 2390TIP3   OH2 7114   3.185   2.745   3.956
 2390TIP3    H1 7115   3.182   2.784   3.869
 2390TIP3    H2 7116   3.239   2.666   3.945
 2391TIP3   OH2 7117   3.864   3.891   6.059
 2391TIP3    H1 7118   3.878   3.980   6.025
 2391TIP3    H2 7119   3.809   3.849   5.992
 2392TIP3   OH2 7120   6.965   3.107   4.821
 2392TIP3    H1 7121   6.881   3.151   4.809
 2392TIP3    H2 7122   6.957   3.027   4.770
 2393TIP3   OH2 7123   1.225   4.085   5.448
 2393TIP3    H1 7124   1.254   3.994   5.458
 2393TIP3    H2 7125   1.143   4.090   5.496
 2394TIP3   OH2 7126   4.449   2.426   5.666
 2394TIP3    H1 7127   4.508   2.489   5.623
 2394TIP3    H2 7128   4.362   2.463   5.653
 2395TIP3   OH2 7129   5.904   0.365   5.406
 2395TIP3    H1 7130   5.856   0.312   5.470
 2395TIP3    H2 7131   5.953   0.429   5.458
 2396TIP3   OH2 7132   1.481   5.264   5.559
 2396TIP3    H1 7133   1.407   5.223   5.513
 2396TIP3    H2 7134   1.546   5.279   5.490
 2397TIP3   OH2 7135   5.785   3.991   5.327
 2397TIP3    H1 7136   5.739   4.056   5.380
 2397TIP3    H2 7137   5.855   4.039   5.284
 2398TIP3   OH2 7138   6.241   0.627   4.446
 2398TIP3    H1 7139   6.149   0.603   4.446
 2398TIP3    H2 7140   6.245   0.707   4.500
 2399TIP3   OH2 7141   4.907   2.889   5.730
 2399TIP3    H1 7142   4.845   2.829   5.690
 2399TIP3    H2 7143   4.894   2.972   5.683
 2400TIP3   OH2 7144   0.253   6.011   3.972
 2400TIP3    H1 7145   0.323   5.948   3.990
 2400TIP3    H2 7146   0.180   5.981   4.025
 2401TIP3   OH2 7147   6.432   0.721   4.820
 2401TIP3    H1 7148   6.354   0.675   4.849
 2401TIP3    H2 7149   6.467   0.669   4.748
 2402TIP3   OH2 7150   5.465   6.804   2.936
 2402TIP3    H1 7151   5.452   6.775   2.846
 2402TIP3    H2 7152   5.537   6.867   2.931
 2403TIP3   OH2 7153   3.664   7.730   2.069
 2403TIP3    H1 7154   3.705   7.741   1.983
 2403TIP3    H2 7155   3.719   7.665   2.114
 2404TIP3   OH2 7156   6.574   5.229   4.663
 2404TIP3    H1 7157   6.571   5.234   4.567
 2404TIP3    H2 7158   6.641   5.163   4.681
 2405TIP3   OH2 7159   4.327   1.391   1.653
 2405TIP3    H1 7160   4.274   1.366   1.578
 2405TIP3    H2 7161   4.413   1.352   1.635
 2406TIP3   OH2 7162   1.121   5.482   5.744
 2406TIP3    H1 7163   1.074   5.550   5.793
 2406TIP3    H2 7164   1.056   5.413   5.730
 2407TIP3   OH2 7165   1.490   2.196   1.801
 2407TIP3    H1 7166   1.401   2.162   1.798
 2407TIP3    H2 7167   1.546   2.119   1.788
 2408TIP3   OH2 7168   3.755   0.412   3.256
 2408TIP3    H1 7169   3.835   0.436   3.210
 2408TIP3    H2 7170   3.730   0.327   3.218
 2409TIP3   OH2 7171   0.898   5.075   5.900
 2409TIP3    H1 7172   0.872   4.994   5.856
 2409TIP3    H2 7173   0.983   5.054   5.940
 2410TIP3   OH2 7174   5.316   0.330   4.963
 2410TIP3    H1 7175   5.291   0.315   5.054
 2410TIP3    H2 7176   5.400   0.375   4.968
 2411TIP3   OH2 7177   3.018   5.890   1.370
 2411TIP3    H1 7178   3.074   5.927   1.439
 2411TIP3    H2 7179   2.936   5.940   1.377
 2412TIP3   OH2 7180   2.997   0.820   2.817
 2412TIP3    H1 7181   3.053   0.898   2.822
 2412TIP3    H2 7182   2.957   0.825   2.730
 2413TIP3   OH2 7183   7.355   5.350   4.595
 2413TIP3    H1 7184   7.393   5.342   4.508
 2413TIP3    H2 7185   7.370   5.265   4.636
 2414TIP3   OH2 7186   6.761   1.430   2.594
 2414TIP3    H1 7187   6.831   1.488   2.622
 2414TIP3    H2 7188   6.790   1.343   2.619
 2415TIP3   OH2 7189   4.346   0.990   1.860
 2415TIP3    H1 7190   4.280   0.994   1.790
 2415TIP3    H2 7191   4.318   0.916   1.914
 2416TIP3   OH2 7192   0.648   1.258   0.883
 2416TIP3    H1 7193   0.577   1.319   0.907
 2416TIP3    H2 7194   0.687   1.296   0.805
 2417TIP3   OH2 7195   2.433   5.287   0.242
 2417TIP3    H1 7196   2.400   5.346   0.174
 2417TIP3    H2 7197   2.367   5.291   0.311
 2418TIP3   OH2 7198   1.527   0.944  -0.012
 2418TIP3    H1 7199   1.459   0.964  -0.076
 2418TIP3    H2 7200   1.548   0.852  -0.027
 2419TIP3   OH2 7201   4.498   7.272   6.515
 2419TIP3    H1 7202   4.593   7.262   6.504
 2419TIP3    H2 7203   4.471   7.194   6.563
 2420TIP3   OH2 7204   4.006   3.136   2.128
 2420TIP3    H1 7205   3.963   3.063   2.172
 2420TIP3    H2 7206   4.085   3.097   2.090
 2421TIP3   OH2 7207   2.941   4.254   5.368
 2421TIP3    H1 7208   2.894   4.174   5.345
 2421TIP3    H2 7209   3.022   4.223   5.409
 2422TIP3   OH2 7210   1.796   6.550   2.451
 2422TIP3    H1 7211   1.803   6.623   2.512
 2422TIP3    H2 7212   1.789   6.473   2.507
 2423TIP3   OH2 7213   1.761   7.777   5.552
 2423TIP3    H1 7214   1.687   7.743   5.603
 2423TIP3    H2 7215   1.808   7.699   5.523
 2424TIP3   OH2 7216   8.221   0.308   0.359
 2424TIP3    H1 7217   8.225   0.239   0.293
 2424TIP3    H2 7218   8.312   0.321   0.386
 2425TIP3   OH2 7219   5.170   3.044   6.146
 2425TIP3    H1 7220   5.113   3.097   6.090
 2425TIP3    H2 7221   5.249   3.097   6.158
 2426TIP3   OH2 7222   6.897   4.944   3.471
 2426TIP3    H1 7223   6.872   4.915   3.559
 2426TIP3    H2 7224   6.924   5.035   3.482
 2427TIP3   OH2 7225   6.878   5.356   0.007
 2427TIP3    H1 7226   6.950   5.294   0.015
 2427TIP3    H2 7227   6.901   5.427   0.066
 2428TIP3   OH2 7228   4.813   6.776   0.500
 2428TIP3    H1 7229   4.844   6.703   0.554
 2428TIP3    H2 7230   4.717   6.768   0.502
 2429TIP3   OH2 7231   1.520   0.392   0.109
 2429TIP3    H1 7232   1.580   0.431   0.172
 2429TIP3    H2 7233   1.576   0.372   0.033
 2430TIP3   OH2 7234   4.384   3.440   5.470
 2430TIP3    H1 7235   4.350   3.396   5.548
 2430TIP3    H2 7236   4.325   3.415   5.399
 2431TIP3   OH2 7237   0.697   0.369   4.266
 2431TIP3    H1 7238   0.694   0.426   4.189
 2431TIP3    H2 7239   0.719   0.427   4.339
 2432TIP3   OH2 7240   4.081   6.303   6.292
 2432TIP3    H1 7241   4.156   6.345   6.252
 2432TIP3    H2 7242   4.093   6.209   6.274
 2433TIP3   OH2 7243   5.635   2.465   1.477
 2433TIP3    H1 7244   5.573   2.399   1.447
 2433TIP3    H2 7245   5.681   2.492   1.397
 2434TIP3   OH2 7246   7.711   5.430   2.624
 2434TIP3    H1 7247   7.615   5.427   2.624
 2434TIP3    H2 7248   7.732   5.523   2.634
 2435TIP3   OH2 7249   3.086   4.730   1.301
 2435TIP3    H1 7250   3.123   4.674   1.233
 2435TIP3    H2 7251   3.138   4.711   1.379
 2436TIP3   OH2 7252   6.645   2.659   4.269
 2436TIP3    H1 7253   6.643   2.585   4.209
 2436TIP3    H2 7254   6.561   2.654   4.315
 2437TIP3   OH2 7255   0.428   0.127   4.969
 2437TIP3    H1 7256   0.505   0.088   5.011
 2437TIP3    H2 7257   0.403   0.198   5.027
 2438TIP3   OH2 7258   6.571   5.831   2.567
 2438TIP3    H1 7259   6.527   5.751   2.598
 2438TIP3    H2 7260   6.501   5.881   2.524
 2439TIP3   OH2 7261   7.891   3.540   6.174
 2439TIP3    H1 7262   7.899   3.447   6.150
 2439TIP3    H2 7263   7.884   3.539   6.270
 2440TIP3   OH2 7264   6.858   2.278   6.334
 2440TIP3    H1 7265   6.919   2.255   6.263
 2440TIP3    H2 7266   6.811   2.196   6.351
 2441TIP3   OH2 7267   3.537   1.064   3.023
 2441TIP3    H1 7268   3.605   1.093   3.084
 2441TIP3    H2 7269   3.467   1.128   3.032
 2442TIP3   OH2 7270   0.494   0.640   1.973
 2442TIP3    H1 7271   0.485   0.661   2.066
 2442TIP3    H2 7272   0.583   0.666   1.951
 2443TIP3   OH2 7273   2.277   2.629   4.271
 2443TIP3    H1 7274   2.212   2.649   4.204
 2443TIP3    H2 7275   2.326   2.555   4.236
 2444TIP3   OH2 7276   4.241   4.020   6.707
 2444TIP3    H1 7277   4.315   3.990   6.654
 2444TIP3    H2 7278   4.273   4.016   6.797
 2445TIP3   OH2 7279   0.819   6.131   2.464
 2445TIP3    H1 7280   0.871   6.171   2.394
 2445TIP3    H2 7281   0.728   6.143   2.435
 2446TIP3   OH2 7282   4.164   0.963   1.663
 2446TIP3    H1 7283   4.088   1.008   1.699
 2446TIP3    H2 7284   4.172   0.998   1.574
 2447TIP3   OH2 7285   7.738   3.800   6.155
 2447TIP3    H1 7286   7.792   3.733   6.198
 2447TIP3    H2 7287   7.717   3.862   6.225
 2448TIP3   OH2 7288   7.665   7.223   6.579
 2448TIP3    H1 7289   7.742   7.248   6.527
 2448TIP3    H2 7290   7.685   7.135   6.610
 2449TIP3   OH2 7291   3.394   7.436   1.568
 2449TIP3    H1 7292   3.321   7.385   1.533
 2449TIP3    H2 7293   3.353   7.512   1.609
 2450TIP3   OH2 7294   7.330   5.127   6.231
 2450TIP3    H1 7295   7.281   5.062   6.181
 2450TIP3    H2 7296   7.421   5.099   6.223
 2451TIP3   OH2 7297   5.917   3.341   3.079
 2451TIP3    H1 7298   5.839   3.288   3.065
 2451TIP3    H2 7299   5.893   3.429   3.051
 2452TIP3   OH2 7300   2.044   5.237   5.197
 2452TIP3    H1 7301   1.969   5.191   5.161
 2452TIP3    H2 7302   2.083   5.175   5.259
 2453TIP3   OH2 7303   4.257   2.100   6.747
 2453TIP3    H1 7304   4.276   2.146   6.665
 2453TIP3    H2 7305   4.192   2.034   6.723
 2454TIP3   OH2 7306   1.455   2.641   4.270
 2454TIP3    H1 7307   1.526   2.641   4.206
 2454TIP3    H2 7308   1.494   2.606   4.350
 2455TIP3   OH2 7309   1.971   1.095   1.486
 2455TIP3    H1 7310   1.961   1.006   1.519
 2455TIP3    H2 7311   2.066   1.111   1.492
 2456TIP3   OH2 7312   4.809   4.647   5.931
 2456TIP3    H1 7313   4.883   4.608   5.885
 2456TIP3    H2 7314   4.770   4.708   5.868
 2457TIP3   OH2 7315   4.067   1.972   3.227
 2457TIP3    H1 7316   4.082   1.990   3.134
 2457TIP3    H2 7317   4.012   2.044   3.257
 2458TIP3   OH2 7318   5.327   5.982   2.990
 2458TIP3    H1 7319   5.387   5.949   3.058
 2458TIP3    H2 7320   5.354   6.073   2.977
 2459TIP3   OH2 7321   8.276   5.324   2.777
 2459TIP3    H1 7322   8.187   5.358   2.782
 2459TIP3    H2 7323   8.320   5.378   2.712
 2460TIP3   OH2 7324   0.838   5.002   0.655
 2460TIP3    H1 7325   0.914   4.944   0.663
 2460TIP3    H2 7326   0.796   4.998   0.741
 2461TIP3   OH2 7327   3.811   3.356   2.684
 2461TIP3    H1 7328   3.836   3.306   2.761
 2461TIP3    H2 7329   3.860   3.317   2.612
 2462TIP3   OH2 7330   4.480   4.565   3.943
 2462TIP3    H1 7331   4.531   4.546   4.021
 2462TIP3    H2 7332   4.520   4.511   3.875
 2463TIP3   OH2 7333   4.417   2.218   1.234
 2463TIP3    H1 7334   4.502   2.193   1.269
 2463TIP3    H2 7335   4.424   2.203   1.139
 2464TIP3   OH2 7336   4.968   7.092   5.558
 2464TIP3    H1 7337   4.947   7.077   5.651
 2464TIP3    H2 7338   4.914   7.027   5.512
 2465TIP3   OH2 7339   7.048   6.890   1.870
 2465TIP3    H1 7340   6.999   6.869   1.791
 2465TIP3    H2 7341   6.998   6.848   1.941
 2466TIP3   OH2 7342   2.778   7.267   5.462
 2466TIP3    H1 7343   2.867   7.271   5.495
 2466TIP3    H2 7344   2.770   7.180   5.424
 2467TIP3   OH2 7345   5.029   3.952   6.138
 2467TIP3    H1 7346   5.123   3.965   6.128
 2467TIP3    H2 7347   5.017   3.933   6.232
 2468TIP3   OH2 7348   7.837   7.274   2.155
 2468TIP3    H1 7349   7.896   7.325   2.210
 2468TIP3    H2 7350   7.763   7.333   2.140
 2469TIP3   OH2 7351   5.559   3.479   0.558
 2469TIP3    H1 7352   5.613   3.549   0.596
 2469TIP3    H2 7353   5.474   3.519   0.543
 2470TIP3   OH2 7354   1.883   3.012   4.632
 2470TIP3    H1 7355   1.792   3.008   4.601
 2470TIP3    H2 7356   1.894   2.930   4.681
 2471TIP3   OH2 7357   3.641   1.312   4.647
 2471TIP3    H1 7358   3.600   1.316   4.734
 2471TIP3    H2 7359   3.586   1.367   4.592
 2472TIP3   OH2 7360   3.687   7.141   6.704
 2472TIP3    H1 7361   3.622   7.085   6.746
 2472TIP3    H2 7362   3.646   7.171   6.623
 2473TIP3   OH2 7363   1.196   0.405   1.814
 2473TIP3    H1 7364   1.258   0.333   1.803
 2473TIP3    H2 7365   1.110   0.367   1.794
 2474TIP3   OH2 7366   4.672   2.885   3.728
 2474TIP3    H1 7367   4.586   2.844   3.734
 2474TIP3    H2 7368   4.654   2.972   3.691
 2475TIP3   OH2 7369   6.128   4.706   0.533
 2475TIP3    H1 7370   6.172   4.737   0.454
 2475TIP3    H2 7371   6.120   4.784   0.588
 2476TIP3   OH2 7372   2.736   6.287   3.717
 2476TIP3    H1 7373   2.737   6.285   3.813
 2476TIP3    H2 7374   2.651   6.252   3.693
 2477TIP3   OH2 7375   0.519   3.784   1.920
 2477TIP3    H1 7376   0.498   3.691   1.912
 2477TIP3    H2 7377   0.500   3.805   2.012
 2478TIP3   OH2 7378   2.397   4.652   1.280
 2478TIP3    H1 7379   2.324   4.594   1.300
 2478TIP3    H2 7380   2.469   4.621   1.335
 2479TIP3   OH2 7381   4.729   7.179   4.395
 2479TIP3    H1 7382   4.758   7.263   4.361
 2479TIP3    H2 7383   4.779   7.114   4.346
 2480TIP3   OH2 7384   0.506   1.203   3.858
 2480TIP3    H1 7385   0.440   1.270   3.873
 2480TIP3    H2 7386   0.459   1.133   3.812
 2481TIP3   OH2 7387   2.464   3.233   3.024
 2481TIP3    H1 7388   2.382   3.190   3.000
 2481TIP3    H2 7389   2.478   3.298   2.956
 2482TIP3   OH2 7390   0.854   5.732   1.577
 2482TIP3    H1 7391   0.920   5.697   1.638
 2482TIP3    H2 7392   0.887   5.709   1.490
 2483TIP3   OH2 7393   4.985   1.769   1.946
 2483TIP3    H1 7394   5.028   1.691   1.980
 2483TIP3    H2 7395   4.903   1.736   1.907
 2484TIP3   OH2 7396   3.006   1.291   6.402
 2484TIP3    H1 7397   3.101   1.302   6.395
 2484TIP3    H2 7398   2.970   1.375   6.376
 2485TIP3   OH2 7399   7.026   0.789   0.622
 2485TIP3    H1 7400   7.045   0.709   0.670
 2485TIP3    H2 7401   7.042   0.860   0.685
 2486TIP3   OH2 7402   0.211   6.993   6.453
 2486TIP3    H1 7403   0.175   6.904   6.451
 2486TIP3    H2 7404   0.207   7.019   6.545
 2487TIP3   OH2 7405   5.501   2.251   2.368
 2487TIP3    H1 7406   5.480   2.298   2.287
 2487TIP3    H2 7407   5.417   2.246   2.415
 2488TIP3   OH2 7408   0.449   6.257   4.529
 2488TIP3    H1 7409   0.489   6.303   4.456
 2488TIP3    H2 7410   0.521   6.241   4.590
 2489TIP3   OH2 7411   4.470   2.284   5.909
 2489TIP3    H1 7412   4.435   2.321   5.828
 2489TIP3    H2 7413   4.559   2.257   5.886
 2490TIP3   OH2 7414   4.731   6.258   2.275
 2490TIP3    H1 7415   4.759   6.209   2.352
 2490TIP3    H2 7416   4.696   6.192   2.216
 2491TIP3   OH2 7417   8.186   0.273   5.619
 2491TIP3    H1 7418   8.141   0.334   5.562
 2491TIP3    H2 7419   8.248   0.327   5.668
 2492TIP3   OH2 7420   8.149   2.501   0.584
 2492TIP3    H1 7421   8.105   2.473   0.664
 2492TIP3    H2 7422   8.221   2.439   0.574
 2493TIP3   OH2 7423   1.841   4.010   3.970
 2493TIP3    H1 7424   1.883   3.954   3.905
 2493TIP3    H2 7425   1.913   4.051   4.017
 2494TIP3   OH2 7426   4.132   1.468   5.500
 2494TIP3    H1 7427   4.142   1.510   5.585
 2494TIP3    H2 7428   4.043   1.490   5.473
 2495TIP3   OH2 7429   3.879   6.796   3.346
 2495TIP3    H1 7430   3.903   6.796   3.253
 2495TIP3    H2 7431   3.961   6.814   3.392
 2496TIP3   OH2 7432   2.835   3.909   1.670
 2496TIP3    H1 7433   2.908   3.879   1.724
 2496TIP3    H2 7434   2.874   3.975   1.612
 2497TIP3   OH2 7435   6.860   6.368   1.144
 2497TIP3    H1 7436   6.949   6.384   1.111
 2497TIP3    H2 7437   6.861   6.277   1.174
 2498TIP3   OH2 7438   7.179   6.657   5.053
 2498TIP3    H1 7439   7.174   6.752   5.039
 2498TIP3    H2 7440   7.163   6.620   4.967
 2499TIP3   OH2 7441   1.781   0.871   5.924
 2499TIP3    H1 7442   1.698   0.916   5.907
 2499TIP3    H2 7443   1.796   0.819   5.844
 2500TIP3   OH2 7444   4.262   6.146   2.981
 2500TIP3    H1 7445   4.278   6.237   3.007
 2500TIP3    H2 7446   4.348   6.111   2.959
 2501TIP3   OH2 7447   7.268   6.465   5.934
 2501TIP3    H1 7448   7.289   6.447   5.842
 2501TIP3    H2 7449   7.319   6.400   5.983
 2502TIP3   OH2 7450   4.391   0.853   5.405
 2502TIP3    H1 7451   4.363   0.805   5.327
 2502TIP3    H2 7452   4.421   0.938   5.371
 2503TIP3   OH2 7453   7.902   3.000   3.824
 2503TIP3    H1 7454   7.980   3.025   3.774
 2503TIP3    H2 7455   7.829   3.017   3.765
 2504TIP3   OH2 7456   0.768   6.238   6.314
 2504TIP3    H1 7457   0.708   6.291   6.261
 2504TIP3    H2 7458   0.713   6.169   6.351
 2505TIP3   OH2 7459  -0.027   5.772   5.155
 2505TIP3    H1 7460  -0.008   5.745   5.065
 2505TIP3    H2 7461   0.024   5.711   5.209
 2506TIP3   OH2 7462   1.790   3.818   6.290
 2506TIP3    H1 7463   1.701   3.840   6.264
 2506TIP3    H2 7464   1.807   3.871   6.368
 2507TIP3   OH2 7465   3.253   2.465   3.362
 2507TIP3    H1 7466   3.297   2.536   3.408
 2507TIP3    H2 7467   3.171   2.452   3.410
 2508TIP3   OH2 7468   0.654   6.422   0.373
 2508TIP3    H1 7469   0.697   6.412   0.288
 2508TIP3    H2 7470   0.564   6.447   0.352
 2509TIP3   OH2 7471   2.560   2.031   4.894
 2509TIP3    H1 7472   2.604   2.108   4.858
 2509TIP3    H2 7473   2.599   2.019   4.981
 2510TIP3   OH2 7474   2.540   6.498   6.436
 2510TIP3    H1 7475   2.479   6.562   6.473
 2510TIP3    H2 7476   2.534   6.511   6.341
 2511TIP3   OH2 7477   3.151   3.163   6.795
 2511TIP3    H1 7478   3.061   3.163   6.828
 2511TIP3    H2 7479   3.148   3.219   6.717
 2512TIP3   OH2 7480   4.745   5.561   0.453
 2512TIP3    H1 7481   4.820   5.620   0.441
 2512TIP3    H2 7482   4.780   5.474   0.435
 2513TIP3   OH2 7483   7.476   3.507   3.032
 2513TIP3    H1 7484   7.443   3.542   3.115
 2513TIP3    H2 7485   7.397   3.477   2.986
 2514TIP3   OH2 7486   6.220   3.253   4.204
 2514TIP3    H1 7487   6.281   3.179   4.204
 2514TIP3    H2 7488   6.253   3.312   4.137
 2515TIP3   OH2 7489   5.974   2.941   4.038
 2515TIP3    H1 7490   5.993   3.021   4.086
 2515TIP3    H2 7491   5.978   2.872   4.104
 2516TIP3   OH2 7492   1.040   6.246   0.042
 2516TIP3    H1 7493   1.040   6.296   0.123
 2516TIP3    H2 7494   1.072   6.307  -0.024
 2517TIP3   OH2 7495   2.593   6.405   2.254
 2517TIP3    H1 7496   2.532   6.339   2.223
 2517TIP3    H2 7497   2.680   6.369   2.233
 2518TIP3   OH2 7498   2.815   5.536   0.193
 2518TIP3    H1 7499   2.908   5.521   0.178
 2518TIP3    H2 7500   2.783   5.574   0.111
 2519TIP3   OH2 7501   7.813   4.601   4.906
 2519TIP3    H1 7502   7.773   4.572   4.989
 2519TIP3    H2 7503   7.897   4.556   4.903
 2520TIP3   OH2 7504   5.431   4.759   2.192
 2520TIP3    H1 7505   5.428   4.785   2.284
 2520TIP3    H2 7506   5.367   4.815   2.148
 2521TIP3   OH2 7507   0.865   7.819   6.070
 2521TIP3    H1 7508   0.937   7.803   6.132
 2521TIP3    H2 7509   0.900   7.791   5.986
 2522TIP3   OH2 7510   4.188   7.579   3.256
 2522TIP3    H1 7511   4.259   7.558   3.195
 2522TIP3    H2 7512   4.115   7.604   3.200
 2523TIP3   OH2 7513   8.117   6.740   6.725
 2523TIP3    H1 7514   8.203   6.719   6.762
 2523TIP3    H2 7515   8.129   6.728   6.631
 2524TIP3   OH2 7516   7.077   7.761   6.444
 2524TIP3    H1 7517   7.074   7.733   6.353
 2524TIP3    H2 7518   7.004   7.714   6.486
 2525TIP3   OH2 7519   3.931   6.628   1.618
 2525TIP3    H1 7520   4.026   6.626   1.628
 2525TIP3    H2 7521   3.897   6.600   1.703
 2526TIP3   OH2 7522   3.803   4.142   2.145
 2526TIP3    H1 7523   3.855   4.093   2.208
 2526TIP3    H2 7524   3.715   4.143   2.183
 2527TIP3   OH2 7525   7.708   1.944   2.705
 2527TIP3    H1 7526   7.787   1.997   2.703
 2527TIP3    H2 7527   7.722   1.882   2.777
 2528TIP3   OH2 7528   3.706   6.324   3.070
 2528TIP3    H1 7529   3.771   6.302   3.003
 2528TIP3    H2 7530   3.743   6.401   3.114
 2529TIP3   OH2 7531   4.501   0.762   0.413
 2529TIP3    H1 7532   4.472   0.676   0.381
 2529TIP3    H2 7533   4.507   0.816   0.334
 2530TIP3   OH2 7534   1.185   7.315   1.940
 2530TIP3    H1 7535   1.178   7.303   1.845
 2530TIP3    H2 7536   1.195   7.409   1.952
 2531TIP3   OH2 7537   8.196   4.764   6.014
 2531TIP3    H1 7538   8.201   4.798   5.924
 2531TIP3    H2 7539   8.202   4.842   6.069
 2532TIP3   OH2 7540   4.430   7.636   0.644
 2532TIP3    H1 7541   4.396   7.707   0.699
 2532TIP3    H2 7542   4.354   7.583   0.623
 2533TIP3   OH2 7543   5.374   4.683   0.567
 2533TIP3    H1 7544   5.319   4.697   0.643
 2533TIP3    H2 7545   5.345   4.600   0.530
 2534TIP3   OH2 7546   7.185   2.430   5.920
 2534TIP3    H1 7547   7.098   2.415   5.958
 2534TIP3    H2 7548   7.246   2.388   5.981
 2535TIP3   OH2 7549   7.987   4.548   1.158
 2535TIP3    H1 7550   7.906   4.551   1.209
 2535TIP3    H2 7551   8.043   4.614   1.199
 2536TIP3   OH2 7552   2.302   2.685   5.604
 2536TIP3    H1 7553   2.281   2.697   5.697
 2536TIP3    H2 7554   2.222   2.710   5.558
 2537TIP3   OH2 7555   6.699   4.332   2.726
 2537TIP3    H1 7556   6.764   4.311   2.660
 2537TIP3    H2 7557   6.707   4.262   2.791
 2538TIP3   OH2 7558   0.881   4.579   2.942
 2538TIP3    H1 7559   0.889   4.500   2.995
 2538TIP3    H2 7560   0.840   4.643   3.001
 2539TIP3   OH2 7561   1.931   5.902   0.045
 2539TIP3    H1 7562   1.959   5.835  -0.017
 2539TIP3    H2 7563   2.005   5.962   0.050
 2540TIP3   OH2 7564   5.606   3.697   1.827
 2540TIP3    H1 7565   5.685   3.642   1.822
 2540TIP3    H2 7566   5.607   3.748   1.746
 2541TIP3   OH2 7567   2.528   6.971   1.943
 2541TIP3    H1 7568   2.489   7.057   1.930
 2541TIP3    H2 7569   2.453   6.912   1.952
 2542TIP3   OH2 7570   7.882   0.077   3.798
 2542TIP3    H1 7571   7.819   0.048   3.863
 2542TIP3    H2 7572   7.856   0.031   3.718
 2543TIP3   OH2 7573   4.778   0.519   2.554
 2543TIP3    H1 7574   4.746   0.488   2.639
 2543TIP3    H2 7575   4.777   0.442   2.498
 2544TIP3   OH2 7576   1.720   6.908   3.609
 2544TIP3    H1 7577   1.716   6.845   3.538
 2544TIP3    H2 7578   1.629   6.933   3.625
 2545TIP3   OH2 7579   2.182   7.531   2.327
 2545TIP3    H1 7580   2.193   7.598   2.260
 2545TIP3    H2 7581   2.207   7.574   2.409
 2546TIP3   OH2 7582   6.430   0.735   0.216
 2546TIP3    H1 7583   6.367   0.669   0.246
 2546TIP3    H2 7584   6.387   0.775   0.140
 2547TIP3   OH2 7585   4.706   3.301   0.966
 2547TIP3    H1 7586   4.773   3.368   0.979
 2547TIP3    H2 7587   4.623   3.350   0.968
 2548TIP3   OH2 7588   2.095   2.490   0.576
 2548TIP3    H1 7589   2.023   2.442   0.617
 2548TIP3    H2 7590   2.067   2.502   0.485
 2549TIP3   OH2 7591   3.924   5.085   2.345
 2549TIP3    H1 7592   3.904   4.995   2.321
 2549TIP3    H2 7593   4.017   5.084   2.368
 2550TIP3   OH2 7594   7.704   1.031   4.757
 2550TIP3    H1 7595   7.712   0.968   4.828
 2550TIP3    H2 7596   7.679   0.979   4.681
 2551TIP3   OH2 7597   4.806   5.343   3.907
 2551TIP3    H1 7598   4.751   5.283   3.857
 2551TIP3    H2 7599   4.880   5.363   3.849
 2552TIP3   OH2 7600   3.331   7.363   2.080
 2552TIP3    H1 7601   3.249   7.410   2.070
 2552TIP3    H2 7602   3.367   7.394   2.163
 2553TIP3   OH2 7603   6.389   1.747   4.774
 2553TIP3    H1 7604   6.397   1.664   4.728
 2553TIP3    H2 7605   6.457   1.744   4.842
 2554TIP3   OH2 7606   0.290   7.696   3.327
 2554TIP3    H1 7607   0.272   7.739   3.410
 2554TIP3    H2 7608   0.327   7.611   3.352
 2555TIP3   OH2 7609   2.140   7.627   4.665
 2555TIP3    H1 7610   2.176   7.661   4.584
 2555TIP3    H2 7611   2.216   7.614   4.722
 2556TIP3   OH2 7612   0.396   4.623   0.333
 2556TIP3    H1 7613   0.453   4.552   0.362
 2556TIP3    H2 7614   0.384   4.677   0.411
 2557TIP3   OH2 7615   3.414   1.731   1.995
 2557TIP3    H1 7616   3.402   1.646   2.039
 2557TIP3    H2 7617   3.509   1.738   1.982
 2558TIP3   OH2 7618   8.106   2.234   5.644
 2558TIP3    H1 7619   8.085   2.161   5.586
 2558TIP3    H2 7620   8.201   2.235   5.649
 2559TIP3   OH2 7621   7.014   1.997   4.102
 2559TIP3    H1 7622   6.992   1.913   4.143
 2559TIP3    H2 7623   7.079   1.976   4.036
 2560TIP3   OH2 7624   7.589   3.896   5.926
 2560TIP3    H1 7625   7.642   3.852   5.993
 2560TIP3    H2 7626   7.518   3.937   5.975
 2561TIP3   OH2 7627   3.691   4.900   4.617
 2561TIP3    H1 7628   3.768   4.901   4.559
 2561TIP3    H2 7629   3.669   4.807   4.625
 2562TIP3   OH2 7630   8.195   4.086   5.518
 2562TIP3    H1 7631   8.221   4.125   5.435
 2562TIP3    H2 7632   8.252   4.010   5.528
 2563TIP3   OH2 7633   0.470   2.655   5.106
 2563TIP3    H1 7634   0.432   2.633   5.191
 2563TIP3    H2 7635   0.394   2.667   5.049
 2564TIP3   OH2 7636   5.351   4.962   6.268
 2564TIP3    H1 7637   5.277   4.904   6.288
 2564TIP3    H2 7638   5.334   5.041   6.319
 2565TIP3   OH2 7639   4.044   4.234   0.106
 2565TIP3    H1 7640   4.129   4.189   0.111
 2565TIP3    H2 7641   3.983   4.166   0.076
 2566TIP3   OH2 7642   2.021   2.131   1.373
 2566TIP3    H1 7643   2.090   2.092   1.319
 2566TIP3    H2 7644   2.062   2.144   1.459
 2567TIP3   OH2 7645   6.671   6.385   1.990
 2567TIP3    H1 7646   6.732   6.438   2.042
 2567TIP3    H2 7647   6.584   6.417   2.015
 2568TIP3   OH2 7648   4.279   3.070   2.030
 2568TIP3    H1 7649   4.359   3.089   2.078
 2568TIP3    H2 7650   4.302   3.083   1.938
 2569TIP3   OH2 7651   6.509   3.047   1.211
 2569TIP3    H1 7652   6.535   3.138   1.225
 2569TIP3    H2 7653   6.433   3.052   1.153
 2570TIP3   OH2 7654   6.474   0.917   5.656
 2570TIP3    H1 7655   6.507   0.870   5.733
 2570TIP3    H2 7656   6.429   0.850   5.605
 2571TIP3   OH2 7657   7.831   5.126   4.141
 2571TIP3    H1 7658   7.865   5.114   4.052
 2571TIP3    H2 7659   7.759   5.188   4.131
 2572TIP3   OH2 7660   0.198   4.288   5.824
 2572TIP3    H1 7661   0.246   4.334   5.756
 2572TIP3    H2 7662   0.166   4.209   5.782
 2573TIP3   OH2 7663   1.458   4.576   0.909
 2573TIP3    H1 7664   1.539   4.562   0.860
 2573TIP3    H2 7665   1.464   4.666   0.940
 2574TIP3   OH2 7666   3.625   2.933   6.673
 2574TIP3    H1 7667   3.629   3.020   6.713
 2574TIP3    H2 7668   3.591   2.949   6.585
 2575TIP3   OH2 7669   1.550   6.758   4.870
 2575TIP3    H1 7670   1.488   6.748   4.942
 2575TIP3    H2 7671   1.559   6.670   4.834
 2576TIP3   OH2 7672   1.310   5.415   1.270
 2576TIP3    H1 7673   1.396   5.394   1.305
 2576TIP3    H2 7674   1.278   5.333   1.233
 2577TIP3   OH2 7675   1.832   4.407   3.351
 2577TIP3    H1 7676   1.741   4.414   3.381
 2577TIP3    H2 7677   1.860   4.498   3.339
 2578TIP3   OH2 7678   4.985   4.014   3.696
 2578TIP3    H1 7679   5.061   4.064   3.728
 2578TIP3    H2 7680   4.925   4.081   3.662
 2579TIP3   OH2 7681   7.917   2.177   0.496
 2579TIP3    H1 7682   7.970   2.191   0.574
 2579TIP3    H2 7683   7.978   2.138   0.433
 2580TIP3   OH2 7684   2.478   3.115   0.509
 2580TIP3    H1 7685   2.514   3.204   0.508
 2580TIP3    H2 7686   2.408   3.118   0.574
 2581TIP3   OH2 7687   4.742   3.346   3.868
 2581TIP3    H1 7688   4.803   3.384   3.931
 2581TIP3    H2 7689   4.752   3.251   3.880
 2582TIP3   OH2 7690   0.835   6.853   2.158
 2582TIP3    H1 7691   0.784   6.795   2.102
 2582TIP3    H2 7692   0.909   6.881   2.103
 2583TIP3   OH2 7693   0.141   7.794   6.670
 2583TIP3    H1 7694   0.130   7.876   6.717
 2583TIP3    H2 7695   0.100   7.728   6.725
 2584TIP3   OH2 7696   3.792   3.513   4.003
 2584TIP3    H1 7697   3.764   3.596   3.965
 2584TIP3    H2 7698   3.870   3.535   4.054
 2585TIP3   OH2 7699   2.861   5.386   0.864
 2585TIP3    H1 7700   2.873   5.302   0.908
 2585TIP3    H2 7701   2.887   5.370   0.774
 2586TIP3   OH2 7702   3.908   1.576   0.935
 2586TIP3    H1 7703   3.990   1.535   0.909
 2586TIP3    H2 7704   3.932   1.635   1.007
 2587TIP3   OH2 7705   6.989   2.567   1.150
 2587TIP3    H1 7706   6.949   2.559   1.237
 2587TIP3    H2 7707   7.051   2.494   1.145
 2588TIP3   OH2 7708   1.027   2.393   5.301
 2588TIP3    H1 7709   0.959   2.437   5.350
 2588TIP3    H2 7710   0.988   2.310   5.274
 2589TIP3   OH2 7711   4.584   3.410   0.049
 2589TIP3    H1 7712   4.517   3.342   0.047
 2589TIP3    H2 7713   4.571   3.454   0.133
 2590TIP3   OH2 7714   2.048   6.947   3.324
 2590TIP3    H1 7715   2.127   6.959   3.377
 2590TIP3    H2 7716   2.049   6.854   3.301
 2591TIP3   OH2 7717   2.885   3.973   1.159
 2591TIP3    H1 7718   2.837   4.055   1.168
 2591TIP3    H2 7719   2.876   3.930   1.244
 2592TIP3   OH2 7720   3.438   4.981   2.367
 2592TIP3    H1 7721   3.501   4.992   2.437
 2592TIP3    H2 7722   3.441   5.064   2.318
 2593TIP3   OH2 7723   3.349   2.656   3.592
 2593TIP3    H1 7724   3.394   2.734   3.626
 2593TIP3    H2 7725   3.350   2.594   3.665
 2594TIP3   OH2 7726   8.035   2.483   1.548
 2594TIP3    H1 7727   8.096   2.462   1.618
 2594TIP3    H2 7728   8.074   2.446   1.469
 2595TIP3   OH2 7729   0.595   6.382   6.094
 2595TIP3    H1 7730   0.614   6.470   6.061
 2595TIP3    H2 7731   0.501   6.382   6.109
 2596TIP3   OH2 7732   5.570   2.532   6.550
 2596TIP3    H1 7733   5.627   2.535   6.627
 2596TIP3    H2 7734   5.607   2.462   6.496
 2597TIP3   OH2 7735   5.545   6.821   1.175
 2597TIP3    H1 7736   5.514   6.733   1.151
 2597TIP3    H2 7737   5.533   6.826   1.269
 2598TIP3   OH2 7738   8.057   4.198   3.390
 2598TIP3    H1 7739   7.977   4.157   3.422
 2598TIP3    H2 7740   8.127   4.141   3.422
 2599TIP3   OH2 7741   5.310   6.933   4.307
 2599TIP3    H1 7742   5.390   6.939   4.360
 2599TIP3    H2 7743   5.240   6.962   4.366
 2600TIP3   OH2 7744   6.438   6.805   5.612
 2600TIP3    H1 7745   6.530   6.828   5.602
 2600TIP3    H2 7746   6.431   6.715   5.579
 2601TIP3   OH2 7747   3.821   0.744   5.700
 2601TIP3    H1 7748   3.908   0.745   5.740
 2601TIP3    H2 7749   3.829   0.804   5.625
 2602TIP3   OH2 7750   5.849   2.904   3.723
 2602TIP3    H1 7751   5.886   2.879   3.807
 2602TIP3    H2 7752   5.800   2.985   3.741
 2603TIP3   OH2 7753   4.329   5.625   4.030
 2603TIP3    H1 7754   4.317   5.530   4.019
 2603TIP3    H2 7755   4.329   5.638   4.125
 2604TIP3   OH2 7756   6.503   1.548   2.568
 2604TIP3    H1 7757   6.444   1.478   2.542
 2604TIP3    H2 7758   6.589   1.506   2.576
 2605TIP3   OH2 7759   7.131   5.972   5.044
 2605TIP3    H1 7760   7.125   5.894   4.988
 2605TIP3    H2 7761   7.040   5.998   5.059
 2606TIP3   OH2 7762   2.151   6.649   4.863
 2606TIP3    H1 7763   2.062   6.629   4.891
 2606TIP3    H2 7764   2.160   6.743   4.879
 2607TIP3   OH2 7765   8.169   3.333   2.389
 2607TIP3    H1 7766   8.196   3.267   2.454
 2607TIP3    H2 7767   8.153   3.412   2.441
 2608TIP3   OH2 7768   4.521   1.163   6.445
 2608TIP3    H1 7769   4.607   1.121   6.441
 2608TIP3    H2 7770   4.461   1.100   6.404
 2609TIP3   OH2 7771   2.758   2.888   6.734
 2609TIP3    H1 7772   2.723   2.888   6.645
 2609TIP3    H2 7773   2.811   2.968   6.739
 2610TIP3   OH2 7774   2.275   2.407   5.816
 2610TIP3    H1 7775   2.229   2.338   5.864
 2610TIP3    H2 7776   2.205   2.458   5.775
 2611TIP3   OH2 7777   7.814   4.138   6.100
 2611TIP3    H1 7778   7.762   4.203   6.147
 2611TIP3    H2 7779   7.794   4.055   6.144
 2612TIP3   OH2 7780   2.409   1.235   3.459
 2612TIP3    H1 7781   2.332   1.226   3.516
 2612TIP3    H2 7782   2.432   1.328   3.464
 2613TIP3   OH2 7783   1.731   7.599   3.345
 2613TIP3    H1 7784   1.675   7.521   3.336
 2613TIP3    H2 7785   1.814   7.573   3.306
 2614TIP3   OH2 7786   4.947   1.709   4.309
 2614TIP3    H1 7787   5.041   1.701   4.327
 2614TIP3    H2 7788   4.935   1.662   4.226
 2615TIP3   OH2 7789   4.555   0.071   4.805
 2615TIP3    H1 7790   4.626   0.076   4.741
 2615TIP3    H2 7791   4.485   0.125   4.767
 2616TIP3   OH2 7792   8.094   0.689   0.590
 2616TIP3    H1 7793   8.122   0.755   0.527
 2616TIP3    H2 7794   8.141   0.711   0.670
 2617TIP3   OH2 7795   3.070   4.080   2.279
 2617TIP3    H1 7796   3.085   4.025   2.355
 2617TIP3    H2 7797   3.086   4.023   2.204
 2618TIP3   OH2 7798   7.026   0.646   0.884
 2618TIP3    H1 7799   7.081   0.712   0.925
 2618TIP3    H2 7800   7.014   0.579   0.951
 2619TIP3   OH2 7801   7.266   6.717   1.166
 2619TIP3    H1 7802   7.300   6.805   1.184
 2619TIP3    H2 7803   7.184   6.733   1.119
 2620TIP3   OH2 7804   7.741   6.525   0.170
 2620TIP3    H1 7805   7.790   6.462   0.117
 2620TIP3    H2 7806   7.800   6.546   0.243
 2621TIP3   OH2 7807   7.766   5.249   4.771
 2621TIP3    H1 7808   7.760   5.170   4.716
 2621TIP3    H2 7809   7.774   5.321   4.708
 2622TIP3   OH2 7810   1.587   4.891   0.097
 2622TIP3    H1 7811   1.659   4.945   0.129
 2622TIP3    H2 7812   1.629   4.810   0.066
 2623TIP3   OH2 7813   7.324   3.177   4.541
 2623TIP3    H1 7814   7.309   3.272   4.540
 2623TIP3    H2 7815   7.249   3.142   4.589
 2624TIP3   OH2 7816   5.144   0.710   1.399
 2624TIP3    H1 7817   5.221   0.682   1.449
 2624TIP3    H2 7818   5.070   0.695   1.458
 2625TIP3   OH2 7819   2.291   5.536   4.082
 2625TIP3    H1 7820   2.384   5.529   4.106
 2625TIP3    H2 7821   2.265   5.623   4.110
 2626TIP3   OH2 7822   8.124   3.491   2.612
 2626TIP3    H1 7823   8.054   3.551   2.638
 2626TIP3    H2 7824   8.204   3.532   2.644
 2627TIP3   OH2 7825   3.398   7.756   0.673
 2627TIP3    H1 7826   3.455   7.682   0.695
 2627TIP3    H2 7827   3.310   7.723   0.686
 2628TIP3   OH2 7828   6.797   3.305   2.952
 2628TIP3    H1 7829   6.889   3.281   2.962
 2628TIP3    H2 7830   6.799   3.394   2.916
 2629TIP3   OH2 7831   4.498   7.518   1.874
 2629TIP3    H1 7832   4.527   7.601   1.911
 2629TIP3    H2 7833   4.473   7.465   1.950
 2630TIP3   OH2 7834   4.113   5.067   5.739
 2630TIP3    H1 7835   4.060   5.041   5.663
 2630TIP3    H2 7836   4.049   5.083   5.808
 2631TIP3   OH2 7837   1.475   4.242   1.286
 2631TIP3    H1 7838   1.439   4.312   1.340
 2631TIP3    H2 7839   1.437   4.257   1.199
 2632TIP3   OH2 7840   1.833   6.715   0.016
 2632TIP3    H1 7841   1.771   6.724   0.088
 2632TIP3    H2 7842   1.823   6.624  -0.013
 2633TIP3   OH2 7843   6.093   6.398   4.592
 2633TIP3    H1 7844   6.035   6.444   4.531
 2633TIP3    H2 7845   6.105   6.459   4.665
 2634TIP3   OH2 7846   5.509   3.962   4.389
 2634TIP3    H1 7847   5.445   3.891   4.387
 2634TIP3    H2 7848   5.558   3.951   4.307
 2635TIP3   OH2 7849   3.564   6.591   2.555
 2635TIP3    H1 7850   3.626   6.541   2.608
 2635TIP3    H2 7851   3.522   6.650   2.618
 2636TIP3   OH2 7852   6.286   6.127   5.551
 2636TIP3    H1 7853   6.235   6.192   5.599
 2636TIP3    H2 7854   6.343   6.179   5.494
 2637TIP3   OH2 7855   2.936   1.432   1.582
 2637TIP3    H1 7856   2.878   1.368   1.541
 2637TIP3    H2 7857   3.024   1.407   1.554
 2638TIP3   OH2 7858   4.665   0.050   4.343
 2638TIP3    H1 7859   4.728   0.017   4.280
 2638TIP3    H2 7860   4.683   0.143   4.350
 2639TIP3   OH2 7861   3.464   3.318   6.712
 2639TIP3    H1 7862   3.390   3.376   6.696
 2639TIP3    H2 7863   3.444   3.239   6.661
 2640TIP3   OH2 7864   2.322   7.512   1.297
 2640TIP3    H1 7865   2.367   7.492   1.379
 2640TIP3    H2 7866   2.277   7.594   1.313
 2641TIP3   OH2 7867   6.411   1.961   4.260
 2641TIP3    H1 7868   6.444   2.041   4.302
 2641TIP3    H2 7869   6.478   1.938   4.197
 2642TIP3   OH2 7870   6.900   4.689   1.407
 2642TIP3    H1 7871   6.866   4.660   1.323
 2642TIP3    H2 7872   6.975   4.744   1.386
 2643TIP3   OH2 7873   2.306   6.031   1.979
 2643TIP3    H1 7874   2.251   5.983   2.041
 2643TIP3    H2 7875   2.245   6.069   1.917
 2644TIP3   OH2 7876   1.731   7.294   5.412
 2644TIP3    H1 7877   1.778   7.241   5.347
 2644TIP3    H2 7878   1.734   7.243   5.492
 2645TIP3   OH2 7879   3.406   3.364   4.058
 2645TIP3    H1 7880   3.495   3.391   4.080
 2645TIP3    H2 7881   3.366   3.343   4.143
 2646TIP3   OH2 7882   2.717   4.514   3.164
 2646TIP3    H1 7883   2.805   4.514   3.200
 2646TIP3    H2 7884   2.726   4.473   3.078
 2647TIP3   OH2 7885   1.838   7.208   3.965
 2647TIP3    H1 7886   1.820   7.171   4.051
 2647TIP3    H2 7887   1.807   7.299   3.971
 2648TIP3   OH2 7888   0.606   5.060   6.082
 2648TIP3    H1 7889   0.570   5.074   6.169
 2648TIP3    H2 7890   0.692   5.022   6.097
 2649TIP3   OH2 7891   0.601   7.157   6.205
 2649TIP3    H1 7892   0.620   7.244   6.239
 2649TIP3    H2 7893   0.641   7.156   6.118
 2650TIP3   OH2 7894   3.802   6.698   4.116
 2650TIP3    H1 7895   3.764   6.770   4.067
 2650TIP3    H2 7896   3.743   6.625   4.101
 2651TIP3   OH2 7897   2.459   1.620   1.852
 2651TIP3    H1 7898   2.446   1.712   1.875
 2651TIP3    H2 7899   2.376   1.592   1.814
 2652TIP3   OH2 7900   4.597   0.100   6.605
 2652TIP3    H1 7901   4.682   0.079   6.644
 2652TIP3    H2 7902   4.544   0.130   6.679
 2653TIP3   OH2 7903   1.984   5.210   6.425
 2653TIP3    H1 7904   2.041   5.275   6.466
 2653TIP3    H2 7905   2.043   5.136   6.406
 2654TIP3   OH2 7906   4.052   2.320   6.136
 2654TIP3    H1 7907   4.109   2.383   6.179
 2654TIP3    H2 7908   4.112   2.260   6.090
 2655TIP3   OH2 7909   7.630   1.848   3.625
 2655TIP3    H1 7910   7.650   1.761   3.661
 2655TIP3    H2 7911   7.535   1.852   3.623
 2656TIP3   OH2 7912   7.443   7.511   5.205
 2656TIP3    H1 7913   7.353   7.530   5.178
 2656TIP3    H2 7914   7.475   7.594   5.240
 2657TIP3   OH2 7915   3.414   6.456   1.942
 2657TIP3    H1 7916   3.462   6.510   2.006
 2657TIP3    H2 7917   3.326   6.448   1.979
 2658TIP3   OH2 7918   0.677   6.928   4.345
 2658TIP3    H1 7919   0.631   6.859   4.393
 2658TIP3    H2 7920   0.727   6.881   4.278
 2659TIP3   OH2 7921   5.426   7.305   0.125
 2659TIP3    H1 7922   5.380   7.221   0.118
 2659TIP3    H2 7923   5.424   7.326   0.218
 2660TIP3   OH2 7924   7.970   7.029   2.158
 2660TIP3    H1 7925   7.968   7.121   2.133
 2660TIP3    H2 7926   7.882   7.011   2.193
 2661TIP3   OH2 7927   2.697   3.410   6.533
 2661TIP3    H1 7928   2.604   3.409   6.553
 2661TIP3    H2 7929   2.712   3.332   6.480
 2662TIP3   OH2 7930   3.922   3.001   4.665
 2662TIP3    H1 7931   3.909   2.907   4.658
 2662TIP3    H2 7932   4.003   3.018   4.615
 2663TIP3   OH2 7933   1.114   3.748   2.544
 2663TIP3    H1 7934   1.169   3.712   2.614
 2663TIP3    H2 7935   1.073   3.826   2.584
 2664TIP3   OH2 7936   0.029   0.799   5.108
 2664TIP3    H1 7937   0.005   0.780   5.018
 2664TIP3    H2 7938  -0.052   0.789   5.158
 2665TIP3   OH2 7939   4.620   1.953   6.528
 2665TIP3    H1 7940   4.676   1.881   6.501
 2665TIP3    H2 7941   4.680   2.021   6.557
 2666TIP3   OH2 7942   4.268   2.776   2.101
 2666TIP3    H1 7943   4.330   2.724   2.049
 2666TIP3    H2 7944   4.271   2.863   2.062
 2667TIP3   OH2 7945   3.338   0.216   6.708
 2667TIP3    H1 7946   3.301   0.263   6.783
 2667TIP3    H2 7947   3.263   0.174   6.666
 2668TIP3   OH2 7948   4.285   2.716   4.047
 2668TIP3    H1 7949   4.281   2.631   4.091
 2668TIP3    H2 7950   4.204   2.760   4.072
 2669TIP3   OH2 7951   5.795   1.676   4.068
 2669TIP3    H1 7952   5.733   1.646   4.002
 2669TIP3    H2 7953   5.832   1.757   4.031
 2670TIP3   OH2 7954   0.521   0.722   1.539
 2670TIP3    H1 7955   0.510   0.670   1.460
 2670TIP3    H2 7956   0.520   0.813   1.509
 2671TIP3   OH2 7957   1.350   6.875   1.647
 2671TIP3    H1 7958   1.291   6.800   1.632
 2671TIP3    H2 7959   1.361   6.915   1.561
 2672TIP3   OH2 7960   6.793   1.596   2.205
 2672TIP3    H1 7961   6.707   1.556   2.193
 2672TIP3    H2 7962   6.779   1.690   2.188
 2673TIP3   OH2 7963   7.857   1.755   4.496
 2673TIP3    H1 7964   7.783   1.697   4.512
 2673TIP3    H2 7965   7.924   1.699   4.456
 2674TIP3   OH2 7966   0.593   7.412   1.562
 2674TIP3    H1 7967   0.546   7.328   1.566
 2674TIP3    H2 7968   0.533   7.470   1.515
 2675TIP3   OH2 7969   4.517   1.680   4.054
 2675TIP3    H1 7970   4.564   1.762   4.044
 2675TIP3    H2 7971   4.547   1.645   4.137
 2676TIP3   OH2 7972   5.017   7.460   1.114
 2676TIP3    H1 7973   4.937   7.466   1.063
 2676TIP3    H2 7974   5.072   7.532   1.083
 2677TIP3   OH2 7975   4.381   5.379   1.621
 2677TIP3    H1 7976   4.335   5.354   1.701
 2677TIP3    H2 7977   4.347   5.319   1.555
 2678TIP3   OH2 7978   4.497   3.086   0.746
 2678TIP3    H1 7979   4.541   3.057   0.826
 2678TIP3    H2 7980   4.476   3.005   0.700
 2679TIP3   OH2 7981   8.037   7.433   1.242
 2679TIP3    H1 7982   7.971   7.499   1.222
 2679TIP3    H2 7983   8.094   7.433   1.166
 2680TIP3   OH2 7984   0.088   4.289   0.788
 2680TIP3    H1 7985   0.094   4.289   0.884
 2680TIP3    H2 7986   0.061   4.377   0.766
 2681TIP3   OH2 7987   5.147   5.527   0.022
 2681TIP3    H1 7988   5.107   5.464   0.081
 2681TIP3    H2 7989   5.142   5.610   0.069
 2682TIP3   OH2 7990   0.552   1.133   6.672
 2682TIP3    H1 7991   0.466   1.156   6.709
 2682TIP3    H2 7992   0.564   1.041   6.695
 2683TIP3   OH2 7993   6.605   4.918   5.083
 2683TIP3    H1 7994   6.661   4.883   5.152
 2683TIP3    H2 7995   6.522   4.937   5.128
 2684TIP3   OH2 7996   7.539   4.908   3.335
 2684TIP3    H1 7997   7.557   4.895   3.428
 2684TIP3    H2 7998   7.612   4.866   3.290
 2685TIP3   OH2 7999   5.987   3.951   4.641
 2685TIP3    H1 8000   5.908   4.004   4.632
 2685TIP3    H2 8001   5.980   3.909   4.726
 2686TIP3   OH2 8002   2.487   6.863   1.415
 2686TIP3    H1 8003   2.442   6.844   1.498
 2686TIP3    H2 8004   2.426   6.833   1.347
 2687TIP3   OH2 8005   1.381   4.152   4.029
 2687TIP3    H1 8006   1.356   4.227   4.083
 2687TIP3    H2 8007   1.457   4.115   4.074
 2688TIP3   OH2 8008   1.130   6.360   3.589
 2688TIP3    H1 8009   1.223   6.338   3.597
 2688TIP3    H2 8010   1.119   6.385   3.497
 2689TIP3   OH2 8011   2.048   4.136   4.081
 2689TIP3    H1 8012   2.097   4.178   4.010
 2689TIP3    H2 8013   2.115   4.099   4.138
 2690TIP3   OH2 8014   7.163   0.590   0.460
 2690TIP3    H1 8015   7.224   0.532   0.414
 2690TIP3    H2 8016   7.089   0.533   0.484
 2691TIP3   OH2 8017   6.021   1.485   4.154
 2691TIP3    H1 8018   5.944   1.533   4.124
 2691TIP3    H2 8019   6.087   1.553   4.169
 2692TIP3   OH2 8020   2.049   7.383   5.139
 2692TIP3    H1 8021   2.050   7.345   5.051
 2692TIP3    H2 8022   2.062   7.309   5.198
 2693TIP3   OH2 8023   0.141   7.478   5.075
 2693TIP3    H1 8024   0.138   7.427   5.156
 2693TIP3    H2 8025   0.049   7.488   5.050
 2694TIP3   OH2 8026   2.025   2.535   1.849
 2694TIP3    H1 8027   1.974   2.478   1.907
 2694TIP3    H2 8028   1.961   2.567   1.785
 2695TIP3   OH2 8029   6.088   0.621   5.906
 2695TIP3    H1 8030   6.097   0.695   5.846
 2695TIP3    H2 8031   6.176   0.585   5.914
 2696TIP3   OH2 8032   5.192   2.644   4.653
 2696TIP3    H1 8033   5.122   2.647   4.719
 2696TIP3    H2 8034   5.184   2.726   4.605
 2697TIP3   OH2 8035   3.772   6.875   1.822
 2697TIP3    H1 8036   3.805   6.823   1.895
 2697TIP3    H2 8037   3.701   6.821   1.785
 2698TIP3   OH2 8038   2.602   0.030   6.633
 2698TIP3    H1 8039   2.508   0.043   6.648
 2698TIP3    H2 8040   2.643   0.068   6.711
 2699TIP3   OH2 8041   1.439   4.239   5.433
 2699TIP3    H1 8042   1.356   4.192   5.438
 2699TIP3    H2 8043   1.498   4.181   5.385
 2700TIP3   OH2 8044   5.975   7.101   5.998
 2700TIP3    H1 8045   5.944   7.164   5.934
 2700TIP3    H2 8046   5.899   7.084   6.054
 2701TIP3   OH2 8047   3.399   3.100   6.552
 2701TIP3    H1 8048   3.405   3.124   6.460
 2701TIP3    H2 8049   3.305   3.088   6.567
 2702TIP3   OH2 8050   3.071   5.445   0.176
 2702TIP3    H1 8051   3.108   5.439   0.087
 2702TIP3    H2 8052   3.135   5.401   0.232
 2703TIP3   OH2 8053   1.884   2.793   2.138
 2703TIP3    H1 8054   1.967   2.747   2.128
 2703TIP3    H2 8055   1.843   2.753   2.214
 2704TIP3   OH2 8056   0.138   7.384   4.167
 2704TIP3    H1 8057   0.122   7.291   4.184
 2704TIP3    H2 8058   0.230   7.387   4.139
 2705TIP3   OH2 8059   7.872   6.115   5.557
 2705TIP3    H1 8060   7.876   6.135   5.464
 2705TIP3    H2 8061   7.805   6.174   5.592
 2706TIP3   OH2 8062   7.786   3.662   4.030
 2706TIP3    H1 8063   7.815   3.625   3.947
 2706TIP3    H2 8064   7.715   3.605   4.058
 2707TIP3   OH2 8065   0.716   6.158   0.489
 2707TIP3    H1 8066   0.642   6.116   0.445
 2707TIP3    H2 8067   0.727   6.241   0.443
 2708TIP3   OH2 8068   5.370   0.114   4.602
 2708TIP3    H1 8069   5.323   0.150   4.527
 2708TIP3    H2 8070   5.443   0.065   4.564
 2709TIP3   OH2 8071   7.584   4.285   3.544
 2709TIP3    H1 8072   7.646   4.225   3.503
 2709TIP3    H2 8073   7.500   4.241   3.539
 2710TIP3   OH2 8074   6.637   2.466   3.406
 2710TIP3    H1 8075   6.642   2.530   3.478
 2710TIP3    H2 8076   6.690   2.505   3.336
 2711TIP3   OH2 8077   0.978   7.325   2.794
 2711TIP3    H1 8078   1.067   7.359   2.787
 2711TIP3    H2 8079   0.977   7.281   2.879
 2712TIP3   OH2 8080   4.244   2.809   5.306
 2712TIP3    H1 8081   4.208   2.772   5.387
 2712TIP3    H2 8082   4.275   2.732   5.257
 2713TIP3   OH2 8083   6.314   4.623   2.333
 2713TIP3    H1 8084   6.354   4.538   2.319
 2713TIP3    H2 8085   6.385   4.679   2.364
 2714TIP3   OH2 8086   1.254   4.055   2.851
 2714TIP3    H1 8087   1.317   4.118   2.886
 2714TIP3    H2 8088   1.197   4.033   2.925
 2715TIP3   OH2 8089   4.627   7.545   5.497
 2715TIP3    H1 8090   4.582   7.563   5.579
 2715TIP3    H2 8091   4.562   7.497   5.444
 2716TIP3   OH2 8092   1.474   6.113   2.596
 2716TIP3    H1 8093   1.413   6.040   2.581
 2716TIP3    H2 8094   1.506   6.135   2.508
 2717TIP3   OH2 8095   1.582   6.545   0.320
 2717TIP3    H1 8096   1.520   6.581   0.257
 2717TIP3    H2 8097   1.596   6.455   0.291
 2718TIP3   OH2 8098   8.217   0.459   2.032
 2718TIP3    H1 8099   8.288   0.403   2.064
 2718TIP3    H2 8100   8.202   0.430   1.942
 2719TIP3   OH2 8101   3.017   3.416   3.123
 2719TIP3    H1 8102   3.063   3.470   3.187
 2719TIP3    H2 8103   3.035   3.326   3.150
 2720TIP3   OH2 8104   0.310   6.532   4.484
 2720TIP3    H1 8105   0.363   6.460   4.449
 2720TIP3    H2 8106   0.314   6.521   4.579
 2721TIP3   OH2 8107   1.204   6.903   4.342
 2721TIP3    H1 8108   1.214   6.808   4.341
 2721TIP3    H2 8109   1.178   6.924   4.431
 2722TIP3   OH2 8110   1.489   1.658   1.588
 2722TIP3    H1 8111   1.482   1.578   1.641
 2722TIP3    H2 8112   1.404   1.664   1.544
 2723TIP3   OH2 8113   7.014   4.174   0.907
 2723TIP3    H1 8114   7.051   4.117   0.840
 2723TIP3    H2 8115   7.057   4.147   0.988
 2724TIP3   OH2 8116   6.986   3.732   0.164
 2724TIP3    H1 8117   7.035   3.652   0.185
 2724TIP3    H2 8118   6.897   3.713   0.191
 2725TIP3   OH2 8119   1.240   7.492   3.690
 2725TIP3    H1 8120   1.307   7.558   3.707
 2725TIP3    H2 8121   1.180   7.499   3.764
 2726TIP3   OH2 8122   3.357   4.408   1.705
 2726TIP3    H1 8123   3.435   4.383   1.656
 2726TIP3    H2 8124   3.381   4.398   1.797
 2727TIP3   OH2 8125   1.709   4.850   5.465
 2727TIP3    H1 8126   1.687   4.884   5.552
 2727TIP3    H2 8127   1.803   4.863   5.457
 2728TIP3   OH2 8128   1.763   4.160   0.995
 2728TIP3    H1 8129   1.806   4.227   1.048
 2728TIP3    H2 8130   1.737   4.093   1.058
 2729TIP3   OH2 8131   3.859   2.687   6.049
 2729TIP3    H1 8132   3.860   2.631   5.971
 2729TIP3    H2 8133   3.929   2.750   6.034
 2730TIP3   OH2 8134   6.086   4.182   1.784
 2730TIP3    H1 8135   6.109   4.100   1.828
 2730TIP3    H2 8136   5.991   4.177   1.771
 2731TIP3   OH2 8137   1.363   4.322   0.514
 2731TIP3    H1 8138   1.438   4.269   0.485
 2731TIP3    H2 8139   1.395   4.368   0.592
 2732TIP3   OH2 8140   3.917   2.339   5.734
 2732TIP3    H1 8141   3.889   2.361   5.645
 2732TIP3    H2 8142   3.971   2.412   5.761
 2733TIP3   OH2 8143   2.390   7.238   4.430
 2733TIP3    H1 8144   2.402   7.318   4.378
 2733TIP3    H2 8145   2.316   7.258   4.487
 2734TIP3   OH2 8146   5.570   0.794   1.375
 2734TIP3    H1 8147   5.637   0.860   1.358
 2734TIP3    H2 8148   5.515   0.832   1.444
 2735TIP3   OH2 8149   4.483   1.042   1.337
 2735TIP3    H1 8150   4.388   1.029   1.333
 2735TIP3    H2 8151   4.505   1.027   1.428
 2736TIP3   OH2 8152   2.923   5.684   4.857
 2736TIP3    H1 8153   2.849   5.624   4.849
 2736TIP3    H2 8154   2.926   5.730   4.773
 2737TIP3   OH2 8155   3.301   5.114   6.321
 2737TIP3    H1 8156   3.267   5.203   6.315
 2737TIP3    H2 8157   3.266   5.081   6.404
 2738TIP3   OH2 8158   5.290   2.359   4.623
 2738TIP3    H1 8159   5.279   2.350   4.528
 2738TIP3    H2 8160   5.300   2.453   4.637
 2739TIP3   OH2 8161   2.448   6.101   4.677
 2739TIP3    H1 8162   2.365   6.083   4.721
 2739TIP3    H2 8163   2.462   6.026   4.619
 2740TIP3   OH2 8164   1.332   0.699   4.889
 2740TIP3    H1 8165   1.275   0.628   4.860
 2740TIP3    H2 8166   1.381   0.724   4.811
 2741TIP3   OH2 8167   0.981   6.470   6.055
 2741TIP3    H1 8168   0.926   6.488   5.979
 2741TIP3    H2 8169   0.930   6.409   6.108
 2742TIP3   OH2 8170   2.259   1.004   6.007
 2742TIP3    H1 8171   2.166   0.993   6.027
 2742TIP3    H2 8172   2.295   1.045   6.085
 2743TIP3   OH2 8173   0.190   4.280   4.493
 2743TIP3    H1 8174   0.281   4.287   4.521
 2743TIP3    H2 8175   0.143   4.342   4.549
 2744TIP3   OH2 8176   2.941   2.499   2.979
 2744TIP3    H1 8177   2.866   2.440   2.982
 2744TIP3    H2 8178   2.945   2.538   3.067
 2745TIP3   OH2 8179   4.515   0.409   4.037
 2745TIP3    H1 8180   4.448   0.469   4.006
 2745TIP3    H2 8181   4.472   0.356   4.104
 2746TIP3   OH2 8182   5.561   7.688   3.344
 2746TIP3    H1 8183   5.575   7.649   3.430
 2746TIP3    H2 8184   5.481   7.739   3.353
 2747TIP3   OH2 8185   1.254   6.189   6.367
 2747TIP3    H1 8186   1.170   6.170   6.409
 2747TIP3    H2 8187   1.240   6.271   6.321
 2748TIP3   OH2 8188   1.451   1.365   0.463
 2748TIP3    H1 8189   1.516   1.435   0.463
 2748TIP3    H2 8190   1.465   1.320   0.546
 2749TIP3   OH2 8191   1.728   5.706   2.156
 2749TIP3    H1 8192   1.733   5.611   2.160
 2749TIP3    H2 8193   1.778   5.729   2.077
 2750TIP3   OH2 8194   0.337   4.043   5.319
 2750TIP3    H1 8195   0.409   4.060   5.258
 2750TIP3    H2 8196   0.362   3.962   5.363
 2751TIP3   OH2 8197   0.138   0.769   1.055
 2751TIP3    H1 8198   0.096   0.704   1.111
 2751TIP3    H2 8199   0.088   0.850   1.069
 2752TIP3   OH2 8200   4.957   0.174   0.663
 2752TIP3    H1 8201   4.933   0.086   0.636
 2752TIP3    H2 8202   4.894   0.231   0.618
 2753TIP3   OH2 8203   1.908   2.194   3.322
 2753TIP3    H1 8204   1.921   2.238   3.239
 2753TIP3    H2 8205   1.885   2.104   3.299
 2754TIP3   OH2 8206   0.721   4.732   0.703
 2754TIP3    H1 8207   0.666   4.667   0.659
 2754TIP3    H2 8208   0.703   4.814   0.658
 2755TIP3   OH2 8209   5.328   6.708   5.535
 2755TIP3    H1 8210   5.250   6.713   5.591
 2755TIP3    H2 8211   5.401   6.703   5.596
 2756TIP3   OH2 8212   0.503   4.531   3.191
 2756TIP3    H1 8213   0.557   4.456   3.215
 2756TIP3    H2 8214   0.453   4.551   3.270
 2757TIP3   OH2 8215   1.548   7.451   1.312
 2757TIP3    H1 8216   1.547   7.375   1.255
 2757TIP3    H2 8217   1.489   7.428   1.384
 2758TIP3   OH2 8218   6.435   3.824   0.873
 2758TIP3    H1 8219   6.500   3.762   0.837
 2758TIP3    H2 8220   6.351   3.789   0.845
 2759TIP3   OH2 8221   2.198   4.144   5.914
 2759TIP3    H1 8222   2.288   4.132   5.944
 2759TIP3    H2 8223   2.175   4.059   5.876
 2760TIP3   OH2 8224   5.280   5.290   2.871
 2760TIP3    H1 8225   5.366   5.251   2.888
 2760TIP3    H2 8226   5.300   5.372   2.826
 2761TIP3   OH2 8227   3.426   5.177   3.187
 2761TIP3    H1 8228   3.513   5.201   3.155
 2761TIP3    H2 8229   3.366   5.207   3.119
 2762TIP3   OH2 8230   2.520   4.410   6.160
 2762TIP3    H1 8231   2.483   4.445   6.241
 2762TIP3    H2 8232   2.467   4.449   6.090
 2763TIP3   OH2 8233   5.555   2.749   1.340
 2763TIP3    H1 8234   5.527   2.690   1.410
 2763TIP3    H2 8235   5.582   2.829   1.385
 2764TIP3   OH2 8236   1.430   5.090   2.778
 2764TIP3    H1 8237   1.365   5.098   2.709
 2764TIP3    H2 8238   1.403   5.154   2.844
 2765TIP3   OH2 8239   7.975   2.448   5.553
 2765TIP3    H1 8240   8.023   2.387   5.610
 2765TIP3    H2 8241   7.961   2.399   5.472
 2766TIP3   OH2 8242   3.248   0.533   0.687
 2766TIP3    H1 8243   3.272   0.594   0.756
 2766TIP3    H2 8244   3.260   0.447   0.725
 2767TIP3   OH2 8245   4.954   2.577   1.261
 2767TIP3    H1 8246   4.866   2.543   1.281
 2767TIP3    H2 8247   4.977   2.538   1.177
 2768TIP3   OH2 8248   1.598   0.812   4.395
 2768TIP3    H1 8249   1.614   0.895   4.438
 2768TIP3    H2 8250   1.588   0.749   4.466
 2769TIP3   OH2 8251   1.375   7.677   4.115
 2769TIP3    H1 8252   1.465   7.677   4.081
 2769TIP3    H2 8253   1.385   7.688   4.210
 2770TIP3   OH2 8254   4.534   6.709   0.474
 2770TIP3    H1 8255   4.523   6.749   0.560
 2770TIP3    H2 8256   4.544   6.616   0.491
 2771TIP3   OH2 8257   3.874   0.192   6.796
 2771TIP3    H1 8258   3.939   0.223   6.734
 2771TIP3    H2 8259   3.883   0.096   6.794
 2772TIP3   OH2 8260   0.715   7.604   5.416
 2772TIP3    H1 8261   0.631   7.572   5.383
 2772TIP3    H2 8262   0.772   7.607   5.338
 2773TIP3   OH2 8263   6.160   4.841   4.627
 2773TIP3    H1 8264   6.137   4.881   4.711
 2773TIP3    H2 8265   6.224   4.901   4.588
 2774TIP3   OH2 8266   0.761   6.558   5.209
 2774TIP3    H1 8267   0.822   6.489   5.182
 2774TIP3    H2 8268   0.814   6.614   5.266
 2775TIP3   OH2 8269   5.138   6.429   1.500
 2775TIP3    H1 8270   5.130   6.398   1.590
 2775TIP3    H2 8271   5.218   6.480   1.500
 2776TIP3   OH2 8272   0.087   1.692   0.942
 2776TIP3    H1 8273   0.047   1.641   1.014
 2776TIP3    H2 8274   0.147   1.631   0.900
 2777TIP3   OH2 8275   3.604   5.432   6.297
 2777TIP3    H1 8276   3.599   5.401   6.388
 2777TIP3    H2 8277   3.521   5.402   6.258
 2778TIP3   OH2 8278   2.153   7.069   5.895
 2778TIP3    H1 8279   2.107   7.081   5.978
 2778TIP3    H2 8280   2.212   7.144   5.890
 2779TIP3   OH2 8281   1.066   6.124   2.660
 2779TIP3    H1 8282   1.010   6.144   2.585
 2779TIP3    H2 8283   1.016   6.061   2.712
 2780TIP3   OH2 8284   1.218   0.801   3.594
 2780TIP3    H1 8285   1.177   0.751   3.523
 2780TIP3    H2 8286   1.268   0.736   3.643
 2781TIP3   OH2 8287   3.594   2.466   5.240
 2781TIP3    H1 8288   3.554   2.513   5.167
 2781TIP3    H2 8289   3.640   2.533   5.290
 2782TIP3   OH2 8290   3.243   2.485   4.966
 2782TIP3    H1 8291   3.209   2.422   5.029
 2782TIP3    H2 8292   3.231   2.443   4.881
 2783TIP3   OH2 8293   1.934   7.205   0.725
 2783TIP3    H1 8294   2.009   7.161   0.686
 2783TIP3    H2 8295   1.970   7.253   0.799
 2784TIP3   OH2 8296   6.940   4.805   6.738
 2784TIP3    H1 8297   6.914   4.747   6.665
 2784TIP3    H2 8298   6.938   4.748   6.815
 2785TIP3   OH2 8299   2.971   7.738   2.315
 2785TIP3    H1 8300   2.947   7.696   2.398
 2785TIP3    H2 8301   3.055   7.699   2.291
 2786TIP3   OH2 8302   5.573   0.313   6.200
 2786TIP3    H1 8303   5.545   0.267   6.279
 2786TIP3    H2 8304   5.660   0.278   6.180
 2787TIP3   OH2 8305   7.101   4.660   3.513
 2787TIP3    H1 8306   7.117   4.742   3.561
 2787TIP3    H2 8307   7.154   4.668   3.434
 2788TIP3   OH2 8308   0.395   2.095   4.755
 2788TIP3    H1 8309   0.336   2.076   4.682
 2788TIP3    H2 8310   0.421   2.008   4.787
 2789TIP3   OH2 8311   2.639   4.829   6.264
 2789TIP3    H1 8312   2.647   4.755   6.204
 2789TIP3    H2 8313   2.729   4.847   6.292
 2790TIP3   OH2 8314   4.970   7.635   0.467
 2790TIP3    H1 8315   4.974   7.635   0.371
 2790TIP3    H2 8316   5.001   7.547   0.492
 2791TIP3   OH2 8317   3.824   2.531   4.872
 2791TIP3    H1 8318   3.744   2.583   4.873
 2791TIP3    H2 8319   3.824   2.488   4.786
 2792TIP3   OH2 8320   0.526   1.950   2.689
 2792TIP3    H1 8321   0.505   2.043   2.687
 2792TIP3    H2 8322   0.577   1.939   2.770
 2793TIP3   OH2 8323   5.708   1.226   5.406
 2793TIP3    H1 8324   5.768   1.162   5.368
 2793TIP3    H2 8325   5.711   1.301   5.346
 2794TIP3   OH2 8326   6.970   0.778   2.856
 2794TIP3    H1 8327   6.964   0.683   2.870
 2794TIP3    H2 8328   7.028   0.809   2.926
 2795TIP3   OH2 8329   5.416   5.148   1.774
 2795TIP3    H1 8330   5.335   5.128   1.821
 2795TIP3    H2 8331   5.418   5.244   1.770
 2796TIP3   OH2 8332   7.731   3.700   6.589
 2796TIP3    H1 8333   7.684   3.778   6.618
 2796TIP3    H2 8334   7.795   3.732   6.525
 2797TIP3   OH2 8335   1.850   4.811   3.325
 2797TIP3    H1 8336   1.844   4.894   3.277
 2797TIP3    H2 8337   1.938   4.779   3.307
 2798TIP3   OH2 8338   4.306   7.111   1.513
 2798TIP3    H1 8339   4.325   7.173   1.583
 2798TIP3    H2 8340   4.262   7.163   1.446
 2799TIP3   OH2 8341   5.514   3.364   0.313
 2799TIP3    H1 8342   5.593   3.407   0.279
 2799TIP3    H2 8343   5.517   3.379   0.407
 2800TIP3   OH2 8344   7.278   6.510   3.786
 2800TIP3    H1 8345   7.301   6.464   3.705
 2800TIP3    H2 8346   7.356   6.561   3.808
 2801TIP3   OH2 8347   4.586   4.175   0.434
 2801TIP3    H1 8348   4.636   4.203   0.357
 2801TIP3    H2 8349   4.632   4.215   0.508
 2802TIP3   OH2 8350   2.584   3.423   2.476
 2802TIP3    H1 8351   2.644   3.488   2.441
 2802TIP3    H2 8352   2.627   3.392   2.556
 2803TIP3   OH2 8353   6.495   7.353   3.448
 2803TIP3    H1 8354   6.586   7.337   3.473
 2803TIP3    H2 8355   6.488   7.448   3.442
 2804TIP3   OH2 8356   5.392   2.895   4.927
 2804TIP3    H1 8357   5.455   2.874   4.858
 2804TIP3    H2 8358   5.329   2.953   4.885
 2805TIP3   OH2 8359   6.557   0.373   6.493
 2805TIP3    H1 8360   6.597   0.452   6.529
 2805TIP3    H2 8361   6.464   0.396   6.483
 2806TIP3   OH2 8362   8.100   3.052   4.320
 2806TIP3    H1 8363   8.057   3.028   4.238
 2806TIP3    H2 8364   8.136   3.139   4.304
 2807TIP3   OH2 8365   1.610   3.387   5.029
 2807TIP3    H1 8366   1.688   3.427   5.065
 2807TIP3    H2 8367   1.562   3.354   5.105
 2808TIP3   OH2 8368   7.784   2.819   5.933
 2808TIP3    H1 8369   7.724   2.745   5.944
 2808TIP3    H2 8370   7.726   2.895   5.922
 2809TIP3   OH2 8371   5.571   6.120   2.043
 2809TIP3    H1 8372   5.554   6.124   1.949
 2809TIP3    H2 8373   5.531   6.199   2.079
 2810TIP3   OH2 8374   8.009   6.703   0.013
 2810TIP3    H1 8375   8.018   6.644   0.088
 2810TIP3    H2 8376   7.915   6.703  -0.006
 2811TIP3   OH2 8377   4.536   1.611   2.895
 2811TIP3    H1 8378   4.616   1.613   2.947
 2811TIP3    H2 8379   4.472   1.658   2.948
 2812TIP3   OH2 8380   0.158   3.129   2.990
 2812TIP3    H1 8381   0.226   3.078   2.945
 2812TIP3    H2 8382   0.165   3.102   3.081
 2813TIP3   OH2 8383   2.571   7.637   4.495
 2813TIP3    H1 8384   2.534   7.712   4.450
 2813TIP3    H2 8385   2.575   7.663   4.587
 2814TIP3   OH2 8386   4.752   0.696   3.473
 2814TIP3    H1 8387   4.732   0.718   3.382
 2814TIP3    H2 8388   4.848   0.700   3.479
 2815TIP3   OH2 8389   0.450   7.773   5.570
 2815TIP3    H1 8390   0.391   7.705   5.602
 2815TIP3    H2 8391   0.436   7.774   5.475
 2816TIP3   OH2 8392   0.619   7.495   4.171
 2816TIP3    H1 8393   0.540   7.549   4.170
 2816TIP3    H2 8394   0.610   7.441   4.249
 2817TIP3   OH2 8395   7.144   3.015   0.056
 2817TIP3    H1 8396   7.108   3.098   0.088
 2817TIP3    H2 8397   7.067   2.963   0.034
 2818TIP3   OH2 8398   3.779   3.363   1.544
 2818TIP3    H1 8399   3.804   3.430   1.608
 2818TIP3    H2 8400   3.719   3.306   1.592
 2819TIP3   OH2 8401   6.791   5.904   2.441
 2819TIP3    H1 8402   6.719   5.899   2.504
 2819TIP3    H2 8403   6.748   5.916   2.356
 2820TIP3   OH2 8404   7.490   0.706   0.862
 2820TIP3    H1 8405   7.427   0.678   0.796
 2820TIP3    H2 8406   7.490   0.801   0.856
 2821TIP3   OH2 8407   0.697   1.766   0.709
 2821TIP3    H1 8408   0.763   1.813   0.760
 2821TIP3    H2 8409   0.614   1.796   0.745
 2822TIP3   OH2 8410   0.330   1.402   0.238
 2822TIP3    H1 8411   0.388   1.332   0.210
 2822TIP3    H2 8412   0.385   1.461   0.289
 2823TIP3   OH2 8413   5.699   1.838   6.655
 2823TIP3    H1 8414   5.777   1.853   6.709
 2823TIP3    H2 8415   5.639   1.793   6.714
 2824TIP3   OH2 8416   3.967   5.642   2.019
 2824TIP3    H1 8417   4.041   5.622   2.076
 2824TIP3    H2 8418   3.918   5.710   2.065
 2825TIP3   OH2 8419   7.733   6.022   5.201
 2825TIP3    H1 8420   7.785   6.089   5.245
 2825TIP3    H2 8421   7.764   5.939   5.237
 2826TIP3   OH2 8422   6.052   6.490   0.174
 2826TIP3    H1 8423   6.094   6.404   0.173
 2826TIP3    H2 8424   6.069   6.526   0.087
 2827TIP3   OH2 8425   0.787   7.217   5.247
 2827TIP3    H1 8426   0.787   7.143   5.308
 2827TIP3    H2 8427   0.879   7.242   5.240
 2828TIP3   OH2 8428   6.388   6.410   5.530
 2828TIP3    H1 8429   6.396   6.447   5.442
 2828TIP3    H2 8430   6.478   6.388   5.555
 2829TIP3   OH2 8431   3.877   2.931   4.980
 2829TIP3    H1 8432   3.916   2.965   4.900
 2829TIP3    H2 8433   3.823   3.003   5.012
 2830TIP3   OH2 8434   1.936   1.916   4.555
 2830TIP3    H1 8435   1.888   1.996   4.532
 2830TIP3    H2 8436   1.871   1.846   4.549
 2831TIP3   OH2 8437   4.909   2.491   4.717
 2831TIP3    H1 8438   4.915   2.447   4.632
 2831TIP3    H2 8439   4.951   2.430   4.778
 2832TIP3   OH2 8440   4.241   2.790   6.510
 2832TIP3    H1 8441   4.322   2.839   6.523
 2832TIP3    H2 8442   4.229   2.742   6.592
 2833TIP3   OH2 8443   4.373   1.772   1.545
 2833TIP3    H1 8444   4.422   1.743   1.468
 2833TIP3    H2 8445   4.287   1.731   1.536
 2834TIP3   OH2 8446   7.520   7.524   6.510
 2834TIP3    H1 8447   7.593   7.463   6.506
 2834TIP3    H2 8448   7.444   7.473   6.483
 2835TIP3   OH2 8449   1.348   2.628   6.665
 2835TIP3    H1 8450   1.396   2.562   6.713
 2835TIP3    H2 8451   1.318   2.690   6.732
 2836TIP3   OH2 8452   4.300   1.242   6.781
 2836TIP3    H1 8453   4.299   1.194   6.865
 2836TIP3    H2 8454   4.279   1.175   6.716
 2837TIP3   OH2 8455   1.785   1.843   2.439
 2837TIP3    H1 8456   1.812   1.899   2.511
 2837TIP3    H2 8457   1.864   1.796   2.413
 2838TIP3   OH2 8458   2.936   4.821   1.720
 2838TIP3    H1 8459   2.911   4.813   1.813
 2838TIP3    H2 8460   3.031   4.829   1.721
 2839TIP3   OH2 8461   7.004   6.816   2.165
 2839TIP3    H1 8462   7.065   6.865   2.220
 2839TIP3    H2 8463   7.000   6.729   2.205
 2840TIP3   OH2 8464   7.016   1.794   4.726
 2840TIP3    H1 8465   6.967   1.741   4.662
 2840TIP3    H2 8466   7.037   1.874   4.678
 2841TIP3   OH2 8467   3.135   1.061   4.989
 2841TIP3    H1 8468   3.137   1.106   4.905
 2841TIP3    H2 8469   3.226   1.037   5.006
 2842TIP3   OH2 8470   1.775   5.098   4.622
 2842TIP3    H1 8471   1.838   5.090   4.693
 2842TIP3    H2 8472   1.694   5.062   4.657
 2843TIP3   OH2 8473   2.236   4.925   2.040
 2843TIP3    H1 8474   2.305   4.865   2.066
 2843TIP3    H2 8475   2.207   4.965   2.123
 2844TIP3   OH2 8476   3.769   5.641   5.883
 2844TIP3    H1 8477   3.791   5.548   5.876
 2844TIP3    H2 8478   3.834   5.676   5.944
 2845TIP3   OH2 8479   0.569   5.920   6.643
 2845TIP3    H1 8480   0.573   5.980   6.568
 2845TIP3    H2 8481   0.644   5.862   6.630
 2846TIP3   OH2 8482   4.065   6.889   2.710
 2846TIP3    H1 8483   4.049   6.801   2.743
 2846TIP3    H2 8484   4.027   6.890   2.623
 2847TIP3   OH2 8485   6.300   5.565   4.502
 2847TIP3    H1 8486   6.267   5.477   4.519
 2847TIP3    H2 8487   6.393   5.560   4.526
 2848TIP3   OH2 8488   4.559   2.077   2.090
 2848TIP3    H1 8489   4.500   2.152   2.083
 2848TIP3    H2 8490   4.597   2.068   2.003
 2849TIP3   OH2 8491   3.989   1.154   6.550
 2849TIP3    H1 8492   3.953   1.243   6.560
 2849TIP3    H2 8493   4.083   1.167   6.538
 2850TIP3   OH2 8494   1.121   5.030   0.018
 2850TIP3    H1 8495   1.210   4.998   0.004
 2850TIP3    H2 8496   1.067   4.951   0.021
 2851TIP3   OH2 8497   5.288   4.017   5.043
 2851TIP3    H1 8498   5.372   4.063   5.049
 2851TIP3    H2 8499   5.298   3.940   5.098
 2852TIP3   OH2 8500   6.274   2.415   5.175
 2852TIP3    H1 8501   6.304   2.324   5.172
 2852TIP3    H2 8502   6.183   2.408   5.205
 2853TIP3   OH2 8503   3.914   4.600   3.397
 2853TIP3    H1 8504   3.894   4.680   3.446
 2853TIP3    H2 8505   3.877   4.530   3.450
 2854TIP3   OH2 8506   6.262   2.679   3.145
 2854TIP3    H1 8507   6.177   2.660   3.184
 2854TIP3    H2 8508   6.307   2.594   3.142
 2855TIP3   OH2 8509   6.576   6.935   1.176
 2855TIP3    H1 8510   6.637   6.868   1.208
 2855TIP3    H2 8511   6.603   6.952   1.086
 2856TIP3   OH2 8512   3.077   0.282   0.419
 2856TIP3    H1 8513   3.059   0.255   0.509
 2856TIP3    H2 8514   3.006   0.342   0.398
 2857TIP3   OH2 8515   1.396   3.455   2.156
 2857TIP3    H1 8516   1.330   3.494   2.099
 2857TIP3    H2 8517   1.471   3.439   2.099
 2858TIP3   OH2 8518   1.805   0.487   6.133
 2858TIP3    H1 8519   1.830   0.575   6.162
 2858TIP3    H2 8520   1.743   0.457   6.199
 2859TIP3   OH2 8521   2.174   2.944   4.217
 2859TIP3    H1 8522   2.152   2.878   4.151
 2859TIP3    H2 8523   2.109   2.932   4.286
 2860TIP3   OH2 8524   4.848   2.301   4.533
 2860TIP3    H1 8525   4.768   2.335   4.572
 2860TIP3    H2 8526   4.890   2.252   4.604
 2861TIP3   OH2 8527   1.405   0.830   4.623
 2861TIP3    H1 8528   1.429   0.913   4.582
 2861TIP3    H2 8529   1.310   0.827   4.619
 2862TIP3   OH2 8530   7.835   4.457   0.323
 2862TIP3    H1 8531   7.776   4.515   0.372
 2862TIP3    H2 8532   7.863   4.510   0.248
 2863TIP3   OH2 8533   1.195   6.597   6.702
 2863TIP3    H1 8534   1.144   6.517   6.712
 2863TIP3    H2 8535   1.145   6.663   6.749
 2864TIP3   OH2 8536   2.342   3.422   5.085
 2864TIP3    H1 8537   2.376   3.497   5.133
 2864TIP3    H2 8538   2.385   3.426   4.999
 2865TIP3   OH2 8539   7.152   1.761   2.256
 2865TIP3    H1 8540   7.094   1.797   2.189
 2865TIP3    H2 8541   7.128   1.808   2.336
 2866TIP3   OH2 8542   5.782   5.326   0.471
 2866TIP3    H1 8543   5.697   5.362   0.445
 2866TIP3    H2 8544   5.764   5.274   0.549
 2867TIP3   OH2 8545   4.320   5.034   3.581
 2867TIP3    H1 8546   4.363   4.949   3.576
 2867TIP3    H2 8547   4.363   5.078   3.655
 2868TIP3   OH2 8548   8.125   5.776   2.979
 2868TIP3    H1 8549   8.122   5.766   2.884
 2868TIP3    H2 8550   8.122   5.871   2.993
 2869TIP3   OH2 8551   5.440   6.577   1.217
 2869TIP3    H1 8552   5.491   6.498   1.201
 2869TIP3    H2 8553   5.453   6.596   1.310
 2870TIP3   OH2 8554   2.539   2.270   3.820
 2870TIP3    H1 8555   2.454   2.228   3.836
 2870TIP3    H2 8556   2.592   2.247   3.896
 2871TIP3   OH2 8557   2.972   4.703   0.971
 2871TIP3    H1 8558   2.986   4.795   0.996
 2871TIP3    H2 8559   3.041   4.684   0.908
 2872TIP3   OH2 8560   1.063   1.300   0.701
 2872TIP3    H1 8561   1.056   1.258   0.787
 2872TIP3    H2 8562   1.067   1.227   0.640
 2873TIP3   OH2 8563   6.895   7.415   0.295
 2873TIP3    H1 8564   6.804   7.401   0.322
 2873TIP3    H2 8565   6.888   7.439   0.202
 2874TIP3   OH2 8566   1.438   6.556   5.396
 2874TIP3    H1 8567   1.502   6.521   5.459
 2874TIP3    H2 8568   1.364   6.582   5.451
 2875TIP3   OH2 8569   5.496   5.786   2.471
 2875TIP3    H1 8570   5.513   5.721   2.402
 2875TIP3    H2 8571   5.423   5.839   2.437
 2876TIP3   OH2 8572   7.635   5.287   0.755
 2876TIP3    H1 8573   7.564   5.224   0.745
 2876TIP3    H2 8574   7.715   5.235   0.744
 2877TIP3   OH2 8575   4.363   3.235   4.477
 2877TIP3    H1 8576   4.449   3.250   4.516
 2877TIP3    H2 8577   4.317   3.319   4.486
 2878TIP3   OH2 8578   0.805   0.711   5.210
 2878TIP3    H1 8579   0.863   0.759   5.151
 2878TIP3    H2 8580   0.719   0.750   5.197
 2879TIP3   OH2 8581   1.136   4.188   1.367
 2879TIP3    H1 8582   1.122   4.146   1.281
 2879TIP3    H2 8583   1.051   4.181   1.410
 2880TIP3   OH2 8584   1.412   1.003   3.539
 2880TIP3    H1 8585   1.383   1.094   3.536
 2880TIP3    H2 8586   1.335   0.954   3.566
 2881TIP3   OH2 8587   6.484   2.452   1.674
 2881TIP3    H1 8588   6.526   2.416   1.753
 2881TIP3    H2 8589   6.507   2.390   1.605
 2882TIP3   OH2 8590   1.055   5.427   2.976
 2882TIP3    H1 8591   1.110   5.445   2.899
 2882TIP3    H2 8592   1.103   5.467   3.049
 2883TIP3   OH2 8593   5.898   1.677   3.123
 2883TIP3    H1 8594   5.931   1.678   3.213
 2883TIP3    H2 8595   5.811   1.638   3.130
 2884TIP3   OH2 8596   3.417   3.773   2.437
 2884TIP3    H1 8597   3.421   3.739   2.348
 2884TIP3    H2 8598   3.503   3.812   2.452
 2885TIP3   OH2 8599   1.372   2.541   5.512
 2885TIP3    H1 8600   1.365   2.636   5.501
 2885TIP3    H2 8601   1.300   2.518   5.571
 2886TIP3   OH2 8602   1.974   4.156   3.324
 2886TIP3    H1 8603   2.069   4.161   3.311
 2886TIP3    H2 8604   1.951   4.239   3.365
 2887TIP3   OH2 8605   7.975   1.485   0.771
 2887TIP3    H1 8606   7.978   1.525   0.857
 2887TIP3    H2 8607   7.896   1.521   0.730
 2888TIP3   OH2 8608   0.583   0.843   3.217
 2888TIP3    H1 8609   0.677   0.852   3.199
 2888TIP3    H2 8610   0.540   0.876   3.138
 2889TIP3   OH2 8611   1.887   1.939   2.169
 2889TIP3    H1 8612   1.866   1.984   2.251
 2889TIP3    H2 8613   1.832   1.982   2.104
 2890TIP3   OH2 8614   0.052   4.246   1.082
 2890TIP3    H1 8615   0.056   4.207   1.170
 2890TIP3    H2 8616  -0.021   4.201   1.039
 2891TIP3   OH2 8617   6.823   6.499   0.788
 2891TIP3    H1 8618   6.801   6.574   0.843
 2891TIP3    H2 8619   6.917   6.488   0.797
 2892TIP3   OH2 8620   4.293   1.873   1.144
 2892TIP3    H1 8621   4.346   1.881   1.223
 2892TIP3    H2 8622   4.311   1.953   1.095
 2893TIP3   OH2 8623   1.902   3.432   3.371
 2893TIP3    H1 8624   1.971   3.446   3.307
 2893TIP3    H2 8625   1.821   3.453   3.324
 2894TIP3   OH2 8626   3.663   4.625   0.337
 2894TIP3    H1 8627   3.646   4.661   0.424
 2894TIP3    H2 8628   3.718   4.549   0.353
 2895TIP3   OH2 8629   5.103   2.570   0.701
 2895TIP3    H1 8630   5.151   2.652   0.685
 2895TIP3    H2 8631   5.050   2.557   0.622
 2896TIP3   OH2 8632   2.301   0.396   5.017
 2896TIP3    H1 8633   2.264   0.442   4.942
 2896TIP3    H2 8634   2.336   0.465   5.073
 2897TIP3   OH2 8635   1.009   0.057   5.089
 2897TIP3    H1 8636   1.069   0.131   5.089
 2897TIP3    H2 8637   1.016   0.020   5.001
 2898TIP3   OH2 8638   5.173   1.538   1.042
 2898TIP3    H1 8639   5.093   1.589   1.051
 2898TIP3    H2 8640   5.145   1.447   1.051
 2899TIP3   OH2 8641   2.194   0.386   1.339
 2899TIP3    H1 8642   2.113   0.366   1.386
 2899TIP3    H2 8643   2.256   0.410   1.407
 2900TIP3   OH2 8644   4.167   7.143   5.374
 2900TIP3    H1 8645   4.163   7.064   5.427
 2900TIP3    H2 8646   4.144   7.114   5.286
 2901TIP3   OH2 8647   0.767   4.136   6.519
 2901TIP3    H1 8648   0.818   4.166   6.444
 2901TIP3    H2 8649   0.802   4.184   6.594
 2902TIP3   OH2 8650   2.986   6.752   1.977
 2902TIP3    H1 8651   2.962   6.770   2.068
 2902TIP3    H2 8652   2.914   6.788   1.926
 2903TIP3   OH2 8653   1.832   1.499   0.161
 2903TIP3    H1 8654   1.914   1.450   0.161
 2903TIP3    H2 8655   1.766   1.437   0.130
 2904TIP3   OH2 8656   3.715   2.037   2.949
 2904TIP3    H1 8657   3.741   2.005   2.862
 2904TIP3    H2 8658   3.621   2.051   2.941
 2905TIP3   OH2 8659   0.587   3.477   3.746
 2905TIP3    H1 8660   0.570   3.562   3.704
 2905TIP3    H2 8661   0.572   3.413   3.676
 2906TIP3   OH2 8662   4.742   5.678   0.777
 2906TIP3    H1 8663   4.793   5.742   0.727
 2906TIP3    H2 8664   4.794   5.663   0.856
 2907TIP3   OH2 8665   7.905   5.172   2.740
 2907TIP3    H1 8666   7.903   5.192   2.834
 2907TIP3    H2 8667   7.924   5.256   2.698
 2908TIP3   OH2 8668   4.661   5.000   2.376
 2908TIP3    H1 8669   4.648   4.929   2.439
 2908TIP3    H2 8670   4.573   5.036   2.364
 2909TIP3   OH2 8671   2.563   1.909   6.056
 2909TIP3    H1 8672   2.618   1.921   6.134
 2909TIP3    H2 8673   2.510   1.989   6.052
 2910TIP3   OH2 8674   3.559   4.360   5.794
 2910TIP3    H1 8675   3.626   4.351   5.726
 2910TIP3    H2 8676   3.578   4.444   5.835
 2911TIP3   OH2 8677   6.528   4.164   2.347
 2911TIP3    H1 8678   6.457   4.157   2.283
 2911TIP3    H2 8679   6.605   4.129   2.301
 2912TIP3   OH2 8680   1.597   6.791   5.949
 2912TIP3    H1 8681   1.617   6.714   5.896
 2912TIP3    H2 8682   1.562   6.756   6.031
 2913TIP3   OH2 8683   1.735   6.132   2.702
 2913TIP3    H1 8684   1.714   6.141   2.794
 2913TIP3    H2 8685   1.650   6.127   2.658
 2914TIP3   OH2 8686   2.502   0.687   2.348
 2914TIP3    H1 8687   2.559   0.615   2.375
 2914TIP3    H2 8688   2.520   0.756   2.412
 2915TIP3   OH2 8689   8.287   3.233   1.551
 2915TIP3    H1 8690   8.278   3.142   1.525
 2915TIP3    H2 8691   8.242   3.282   1.482
 2916TIP3   OH2 8692   7.754   6.253   1.133
 2916TIP3    H1 8693   7.846   6.261   1.161
 2916TIP3    H2 8694   7.741   6.328   1.075
 2917TIP3   OH2 8695   6.404   4.578   5.087
 2917TIP3    H1 8696   6.455   4.641   5.036
 2917TIP3    H2 8697   6.346   4.537   5.023
 2918TIP3   OH2 8698   1.788   4.315   6.076
 2918TIP3    H1 8699   1.837   4.371   6.016
 2918TIP3    H2 8700   1.775   4.233   6.028
 2919TIP3   OH2 8701   1.458   1.015   6.244
 2919TIP3    H1 8702   1.374   0.968   6.245
 2919TIP3    H2 8703   1.500   0.985   6.164
 2920TIP3   OH2 8704   7.457   2.363   1.687
 2920TIP3    H1 8705   7.401   2.387   1.613
 2920TIP3    H2 8706   7.449   2.435   1.749
 2921TIP3   OH2 8707   2.413   3.283   4.422
 2921TIP3    H1 8708   2.333   3.231   4.431
 2921TIP3    H2 8709   2.449   3.286   4.511
 2922TIP3   OH2 8710   2.652   7.049   0.792
 2922TIP3    H1 8711   2.576   6.991   0.788
 2922TIP3    H2 8712   2.616   7.135   0.814
 2923TIP3   OH2 8713   2.175   4.819   0.492
 2923TIP3    H1 8714   2.125   4.745   0.528
 2923TIP3    H2 8715   2.261   4.813   0.535
 2924TIP3   OH2 8716   5.959   1.047   0.520
 2924TIP3    H1 8717   5.972   1.106   0.595
 2924TIP3    H2 8718   5.873   1.008   0.535
 2925TIP3   OH2 8719   3.869   5.438   6.222
 2925TIP3    H1 8720   3.777   5.441   6.246
 2925TIP3    H2 8721   3.883   5.516   6.168
 2926TIP3   OH2 8722   2.386   0.083   3.827
 2926TIP3    H1 8723   2.394   0.062   3.920
 2926TIP3    H2 8724   2.450   0.027   3.784
 2927TIP3   OH2 8725   3.369   7.575   3.754
 2927TIP3    H1 8726   3.378   7.481   3.737
 2927TIP3    H2 8727   3.279   7.596   3.728
 2928TIP3   OH2 8728   3.262   6.621   4.164
 2928TIP3    H1 8729   3.325   6.638   4.234
 2928TIP3    H2 8730   3.244   6.528   4.170
 2929TIP3   OH2 8731   1.564   1.876   3.292
 2929TIP3    H1 8732   1.645   1.827   3.277
 2929TIP3    H2 8733   1.564   1.895   3.386
 2930TIP3   OH2 8734   4.841   2.146   0.852
 2930TIP3    H1 8735   4.778   2.219   0.854
 2930TIP3    H2 8736   4.890   2.159   0.771
 2931TIP3   OH2 8737   7.782   3.466   1.412
 2931TIP3    H1 8738   7.764   3.381   1.453
 2931TIP3    H2 8739   7.778   3.529   1.484
 2932TIP3   OH2 8740   7.454   1.594   1.740
 2932TIP3    H1 8741   7.474   1.555   1.655
 2932TIP3    H2 8742   7.534   1.643   1.763
 2933TIP3   OH2 8743   0.196   3.762   1.285
 2933TIP3    H1 8744   0.171   3.680   1.243
 2933TIP3    H2 8745   0.114   3.811   1.293
 2934TIP3   OH2 8746   6.180   3.462   2.429
 2934TIP3    H1 8747   6.232   3.523   2.481
 2934TIP3    H2 8748   6.227   3.379   2.435
 2935TIP3   OH2 8749   5.395   3.501   0.870
 2935TIP3    H1 8750   5.315   3.473   0.913
 2935TIP3    H2 8751   5.430   3.421   0.829
 2936TIP3   OH2 8752   8.172   0.576   4.464
 2936TIP3    H1 8753   8.102   0.617   4.515
 2936TIP3    H2 8754   8.171   0.624   4.381
 2937TIP3   OH2 8755   0.120   7.138   5.180
 2937TIP3    H1 8756   0.053   7.163   5.116
 2937TIP3    H2 8757   0.071   7.097   5.250
 2938TIP3   OH2 8758   0.719   3.620   3.419
 2938TIP3    H1 8759   0.667   3.548   3.384
 2938TIP3    H2 8760   0.657   3.669   3.474
 2939TIP3   OH2 8761   0.857   3.093   6.206
 2939TIP3    H1 8762   0.791   3.034   6.242
 2939TIP3    H2 8763   0.846   3.086   6.111
 2940TIP3   OH2 8764   1.293   2.073   6.684
 2940TIP3    H1 8765   1.299   2.140   6.753
 2940TIP3    H2 8766   1.320   1.992   6.727
 2941TIP3   OH2 8767   0.891   4.059   2.162
 2941TIP3    H1 8768   0.963   4.029   2.217
 2941TIP3    H2 8769   0.852   3.979   2.127
 2942TIP3   OH2 8770   6.133   5.175   1.782
 2942TIP3    H1 8771   6.182   5.095   1.766
 2942TIP3    H2 8772   6.186   5.224   1.845
 2943TIP3   OH2 8773   3.969   5.537   0.227
 2943TIP3    H1 8774   4.031   5.483   0.276
 2943TIP3    H2 8775   3.920   5.585   0.293
 2944TIP3   OH2 8776   1.747   5.233   5.388
 2944TIP3    H1 8777   1.809   5.300   5.360
 2944TIP3    H2 8778   1.764   5.158   5.331
 2945TIP3   OH2 8779   7.002   6.596   6.691
 2945TIP3    H1 8780   6.960   6.527   6.640
 2945TIP3    H2 8781   6.997   6.566   6.781
 2946TIP3   OH2 8782   3.288   1.962   5.040
 2946TIP3    H1 8783   3.268   2.013   5.118
 2946TIP3    H2 8784   3.206   1.959   4.990
 2947TIP3   OH2 8785   0.279   3.540   4.300
 2947TIP3    H1 8786   0.369   3.557   4.327
 2947TIP3    H2 8787   0.247   3.624   4.267
 2948TIP3   OH2 8788   4.359   2.663   2.567
 2948TIP3    H1 8789   4.352   2.690   2.658
 2948TIP3    H2 8790   4.340   2.743   2.517
 2949TIP3   OH2 8791   4.189   5.801   2.197
 2949TIP3    H1 8792   4.170   5.856   2.121
 2949TIP3    H2 8793   4.214   5.716   2.159
 2950TIP3   OH2 8794   2.978   5.004   4.059
 2950TIP3    H1 8795   2.896   4.956   4.073
 2950TIP3    H2 8796   3.033   4.979   4.134
 2951TIP3   OH2 8797   4.832   5.241   0.210
 2951TIP3    H1 8798   4.740   5.264   0.193
 2951TIP3    H2 8799   4.828   5.177   0.281
 2952TIP3   OH2 8800   3.474   7.398   5.351
 2952TIP3    H1 8801   3.455   7.414   5.444
 2952TIP3    H2 8802   3.391   7.368   5.314
 2953TIP3   OH2 8803   2.770   6.724   4.390
 2953TIP3    H1 8804   2.704   6.785   4.423
 2953TIP3    H2 8805   2.726   6.679   4.318
 2954TIP3   OH2 8806   2.758   1.455   4.414
 2954TIP3    H1 8807   2.674   1.418   4.388
 2954TIP3    H2 8808   2.735   1.536   4.460
 2955TIP3   OH2 8809   5.662   1.759   0.541
 2955TIP3    H1 8810   5.677   1.788   0.451
 2955TIP3    H2 8811   5.750   1.750   0.578
 2956TIP3   OH2 8812   8.111   1.636   3.422
 2956TIP3    H1 8813   8.163   1.699   3.372
 2956TIP3    H2 8814   8.053   1.595   3.357
 2957TIP3   OH2 8815   0.200   3.778   0.130
 2957TIP3    H1 8816   0.173   3.870   0.119
 2957TIP3    H2 8817   0.283   3.783   0.177
 2958TIP3   OH2 8818   0.110   3.127   0.648
 2958TIP3    H1 8819   0.109   3.200   0.710
 2958TIP3    H2 8820   0.201   3.097   0.648
 2959TIP3   OH2 8821   2.355   7.538   4.799
 2959TIP3    H1 8822   2.432   7.589   4.774
 2959TIP3    H2 8823   2.373   7.510   4.889
 2960TIP3   OH2 8824   5.098   5.288   0.517
 2960TIP3    H1 8825   5.010   5.318   0.497
 2960TIP3    H2 8826   5.101   5.282   0.613
 2961TIP3   OH2 8827   1.803   5.522   2.920
 2961TIP3    H1 8828   1.859   5.461   2.968
 2961TIP3    H2 8829   1.741   5.466   2.874
 2962TIP3   OH2 8830   6.982   2.336   1.502
 2962TIP3    H1 8831   7.010   2.286   1.425
 2962TIP3    H2 8832   7.013   2.425   1.485
 2963TIP3   OH2 8833   6.786   3.464   3.319
 2963TIP3    H1 8834   6.854   3.526   3.341
 2963TIP3    H2 8835   6.705   3.515   3.320
 2964TIP3   OH2 8836   4.356   5.992   3.711
 2964TIP3    H1 8837   4.300   6.053   3.663
 2964TIP3    H2 8838   4.298   5.955   3.778
 2965TIP3   OH2 8839   0.422   5.383   5.038
 2965TIP3    H1 8840   0.352   5.324   5.012
 2965TIP3    H2 8841   0.415   5.457   4.977
 2966TIP3   OH2 8842   1.849   2.598   6.130
 2966TIP3    H1 8843   1.755   2.615   6.124
 2966TIP3    H2 8844   1.862   2.519   6.078
 2967TIP3   OH2 8845   0.680   7.381   2.785
 2967TIP3    H1 8846   0.774   7.399   2.787
 2967TIP3    H2 8847   0.673   7.288   2.805
 2968TIP3   OH2 8848   3.340   3.246   0.453
 2968TIP3    H1 8849   3.313   3.209   0.537
 2968TIP3    H2 8850   3.349   3.170   0.396
 2969TIP3   OH2 8851   8.040   1.268   0.926
 2969TIP3    H1 8852   8.045   1.213   0.848
 2969TIP3    H2 8853   8.028   1.357   0.891
 2970TIP3   OH2 8854   2.065   0.876   0.439
 2970TIP3    H1 8855   2.142   0.851   0.491
 2970TIP3    H2 8856   2.076   0.970   0.425
 2971TIP3   OH2 8857   1.626   7.559   2.271
 2971TIP3    H1 8858   1.576   7.630   2.313
 2971TIP3    H2 8859   1.602   7.566   2.178
 2972TIP3   OH2 8860   7.337   3.976   3.081
 2972TIP3    H1 8861   7.281   3.940   3.149
 2972TIP3    H2 8862   7.396   3.905   3.058
 2973TIP3   OH2 8863   6.960   4.031   1.930
 2973TIP3    H1 8864   7.047   4.032   1.970
 2973TIP3    H2 8865   6.976   4.003   1.840
 2974TIP3   OH2 8866   6.660   1.635   1.503
 2974TIP3    H1 8867   6.738   1.596   1.542
 2974TIP3    H2 8868   6.598   1.642   1.575
 2975TIP3   OH2 8869   0.007   7.111   2.166
 2975TIP3    H1 8870  -0.001   7.078   2.255
 2975TIP3    H2 8871   0.037   7.036   2.115
 2976TIP3   OH2 8872   4.749   5.213   5.970
 2976TIP3    H1 8873   4.793   5.296   5.989
 2976TIP3    H2 8874   4.657   5.237   5.955
 2977TIP3   OH2 8875   7.672   7.388   4.984
 2977TIP3    H1 8876   7.609   7.356   4.919
 2977TIP3    H2 8877   7.657   7.483   4.987
 2978TIP3   OH2 8878   1.303   0.164   3.546
 2978TIP3    H1 8879   1.301   0.087   3.602
 2978TIP3    H2 8880   1.350   0.136   3.468
 2979TIP3   OH2 8881   5.561   6.057   0.902
 2979TIP3    H1 8882   5.532   6.045   0.993
 2979TIP3    H2 8883   5.653   6.081   0.910
 2980TIP3   OH2 8884   7.785   4.025   4.186
 2980TIP3    H1 8885   7.762   4.114   4.159
 2980TIP3    H2 8886   7.879   4.018   4.170
 2981TIP3   OH2 8887   7.912   3.260   6.145
 2981TIP3    H1 8888   7.924   3.192   6.078
 2981TIP3    H2 8889   7.990   3.253   6.200
 2982TIP3   OH2 8890   4.639   0.288   1.374
 2982TIP3    H1 8891   4.657   0.264   1.282
 2982TIP3    H2 8892   4.555   0.333   1.371
 2983TIP3   OH2 8893   5.560   4.407   4.698
 2983TIP3    H1 8894   5.644   4.388   4.741
 2983TIP3    H2 8895   5.525   4.321   4.674
 2984TIP3   OH2 8896   7.597   7.125   5.948
 2984TIP3    H1 8897   7.646   7.181   5.888
 2984TIP3    H2 8898   7.516   7.173   5.965
 2985TIP3   OH2 8899   7.941   2.415   4.042
 2985TIP3    H1 8900   7.992   2.485   4.082
 2985TIP3    H2 8901   7.874   2.460   3.991
 2986TIP3   OH2 8902   7.931   5.551   5.291
 2986TIP3    H1 8903   7.951   5.514   5.205
 2986TIP3    H2 8904   7.883   5.482   5.336
 2987TIP3   OH2 8905   3.746   4.035   4.422
 2987TIP3    H1 8906   3.826   4.075   4.456
 2987TIP3    H2 8907   3.691   4.109   4.396
 2988TIP3   OH2 8908   0.346   6.731   5.949
 2988TIP3    H1 8909   0.323   6.671   6.021
 2988TIP3    H2 8910   0.328   6.818   5.984
 2989TIP3   OH2 8911   5.149   5.427   1.530
 2989TIP3    H1 8912   5.070   5.402   1.577
 2989TIP3    H2 8913   5.122   5.501   1.475
 2990TIP3   OH2 8914   4.978   1.713   1.066
 2990TIP3    H1 8915   4.940   1.792   1.027
 2990TIP3    H2 8916   4.933   1.705   1.150
 2991TIP3   OH2 8917   0.204   0.562   4.984
 2991TIP3    H1 8918   0.109   0.553   4.995
 2991TIP3    H2 8919   0.221   0.532   4.895
 2992TIP3   OH2 8920   0.677   3.291   2.472
 2992TIP3    H1 8921   0.720   3.210   2.447
 2992TIP3    H2 8922   0.584   3.268   2.476
 2993TIP3   OH2 8923   5.395   1.070   0.980
 2993TIP3    H1 8924   5.367   1.010   0.911
 2993TIP3    H2 8925   5.358   1.035   1.060
 2994TIP3   OH2 8926   1.557   0.177   0.733
 2994TIP3    H1 8927   1.614   0.189   0.809
 2994TIP3    H2 8928   1.478   0.227   0.754
 2995TIP3   OH2 8929   0.486   2.336   2.977
 2995TIP3    H1 8930   0.425   2.339   3.051
 2995TIP3    H2 8931   0.484   2.425   2.941
 2996TIP3   OH2 8932   5.748   5.575   3.796
 2996TIP3    H1 8933   5.724   5.483   3.793
 2996TIP3    H2 8934   5.665   5.621   3.810
 2997TIP3   OH2 8935   3.867   1.029   5.881
 2997TIP3    H1 8936   3.851   1.082   5.804
 2997TIP3    H2 8937   3.841   1.084   5.955
 2998TIP3   OH2 8938   8.095   2.221   3.547
 2998TIP3    H1 8939   8.167   2.179   3.593
 2998TIP3    H2 8940   8.086   2.307   3.589
 2999TIP3   OH2 8941   8.248   7.035   3.823
 2999TIP3    H1 8942   8.321   6.995   3.870
 2999TIP3    H2 8943   8.271   7.025   3.730
 3000TIP3   OH2 8944   1.321   2.671   1.492
 3000TIP3    H1 8945   1.296   2.652   1.401
 3000TIP3    H2 8946   1.239   2.700   1.534
 3001TIP3   OH2 8947   2.320   5.550   3.813
 3001TIP3    H1 8948   2.305   5.542   3.907
 3001TIP3    H2 8949   2.411   5.522   3.801
 3002TIP3   OH2 8950   7.959   2.690   5.460
 3002TIP3    H1 8951   7.953   2.599   5.490
 3002TIP3    H2 8952   7.868   2.717   5.448
 3003TIP3   OH2 8953   6.390   7.077   2.561
 3003TIP3    H1 8954   6.324   7.130   2.605
 3003TIP3    H2 8955   6.450   7.050   2.631
 3004TIP3   OH2 8956   2.918   4.571   6.660
 3004TIP3    H1 8957   2.954   4.498   6.711
 3004TIP3    H2 8958   2.863   4.528   6.594
 3005TIP3   OH2 8959   3.829   0.679   0.642
 3005TIP3    H1 8960   3.747   0.654   0.684
 3005TIP3    H2 8961   3.808   0.760   0.594
 3006TIP3   OH2 8962   5.222   6.627   4.212
 3006TIP3    H1 8963   5.312   6.604   4.238
 3006TIP3    H2 8964   5.221   6.723   4.215
 3007TIP3   OH2 8965   5.471   7.343   2.060
 3007TIP3    H1 8966   5.416   7.345   2.138
 3007TIP3    H2 8967   5.501   7.252   2.054
 3008TIP3   OH2 8968   2.273   2.425   1.950
 3008TIP3    H1 8969   2.280   2.409   2.044
 3008TIP3    H2 8970   2.201   2.487   1.942
 3009TIP3   OH2 8971   4.640   5.693   6.047
 3009TIP3    H1 8972   4.587   5.719   5.972
 3009TIP3    H2 8973   4.596   5.616   6.083
 3010TIP3   OH2 8974   7.023   2.131   4.404
 3010TIP3    H1 8975   6.929   2.128   4.423
 3010TIP3    H2 8976   7.037   2.058   4.343
 3011TIP3   OH2 8977   1.142   2.250   4.849
 3011TIP3    H1 8978   1.118   2.331   4.803
 3011TIP3    H2 8979   1.230   2.230   4.819
 3012TIP3   OH2 8980   6.246   5.784   4.030
 3012TIP3    H1 8981   6.208   5.718   4.089
 3012TIP3    H2 8982   6.235   5.867   4.077
 3013TIP3   OH2 8983   2.003   3.713   1.919
 3013TIP3    H1 8984   2.006   3.623   1.884
 3013TIP3    H2 8985   1.914   3.723   1.951
 3014TIP3   OH2 8986   1.004   0.294   3.061
 3014TIP3    H1 8987   0.993   0.215   3.113
 3014TIP3    H2 8988   0.920   0.340   3.068
 3015TIP3   OH2 8989   4.855   2.615   2.590
 3015TIP3    H1 8990   4.811   2.640   2.670
 3015TIP3    H2 8991   4.873   2.522   2.600
 3016TIP3   OH2 8992   0.112   5.030   0.575
 3016TIP3    H1 8993   0.152   5.102   0.527
 3016TIP3    H2 8994   0.035   5.068   0.617
 3017TIP3   OH2 8995   1.939   4.719   5.107
 3017TIP3    H1 8996   1.913   4.762   5.025
 3017TIP3    H2 8997   1.998   4.649   5.079
 3018TIP3   OH2 8998   6.063   3.955   1.927
 3018TIP3    H1 8999   6.036   3.981   2.015
 3018TIP3    H2 9000   5.982   3.930   1.883
 3019TIP3   OH2 9001   4.009   1.708   5.036
 3019TIP3    H1 9002   4.071   1.752   5.095
 3019TIP3    H2 9003   4.062   1.678   4.962
 3020TIP3   OH2 9004   2.098   3.315   2.322
 3020TIP3    H1 9005   2.190   3.291   2.321
 3020TIP3    H2 9006   2.095   3.403   2.284
 3021TIP3   OH2 9007   6.601   5.926   2.905
 3021TIP3    H1 9008   6.509   5.943   2.928
 3021TIP3    H2 9009   6.600   5.837   2.869
 3022TIP3   OH2 9010   6.513   6.692   2.452
 3022TIP3    H1 9011   6.591   6.636   2.461
 3022TIP3    H2 9012   6.532   6.748   2.377
 3023TIP3   OH2 9013   5.237   6.424   0.218
 3023TIP3    H1 9014   5.216   6.492   0.153
 3023TIP3    H2 9015   5.288   6.469   0.285
 3024TIP3   OH2 9016   7.912   7.756   3.530
 3024TIP3    H1 9017   7.988   7.701   3.548
 3024TIP3    H2 9018   7.837   7.707   3.565
 3025TIP3   OH2 9019   4.019   3.377   6.610
 3025TIP3    H1 9020   3.924   3.391   6.606
 3025TIP3    H2 9021   4.056   3.462   6.588
 3026TIP3   OH2 9022   6.875   2.620   1.776
 3026TIP3    H1 9023   6.858   2.583   1.690
 3026TIP3    H2 9024   6.947   2.568   1.811
 3027TIP3   OH2 9025   1.274   1.147   1.016
 3027TIP3    H1 9026   1.348   1.205   0.998
 3027TIP3    H2 9027   1.275   1.136   1.111
 3028TIP3   OH2 9028   3.619   5.187   6.742
 3028TIP3    H1 9029   3.684   5.257   6.749
 3028TIP3    H2 9030   3.611   5.171   6.648
 3029TIP3   OH2 9031   6.132   2.965   6.591
 3029TIP3    H1 9032   6.222   2.975   6.562
 3029TIP3    H2 9033   6.100   3.055   6.602
 3030TIP3   OH2 9034   3.251   3.903   1.985
 3030TIP3    H1 9035   3.214   3.986   1.955
 3030TIP3    H2 9036   3.267   3.853   1.905
 3031TIP3   OH2 9037   5.088   2.178   2.386
 3031TIP3    H1 9038   5.045   2.093   2.375
 3031TIP3    H2 9039   5.164   2.159   2.441
 3032TIP3   OH2 9040   0.463   4.254   4.588
 3032TIP3    H1 9041   0.556   4.233   4.575
 3032TIP3    H2 9042   0.455   4.268   4.682
 3033TIP3   OH2 9043   4.924   4.186   5.784
 3033TIP3    H1 9044   4.945   4.237   5.706
 3033TIP3    H2 9045   5.009   4.163   5.821
 3034TIP3   OH2 9046   5.047   0.064   5.416
 3034TIP3    H1 9047   4.996   0.000   5.466
 3034TIP3    H2 9048   5.022   0.049   5.325
 3035TIP3   OH2 9049   5.192   1.611   4.958
 3035TIP3    H1 9050   5.228   1.526   4.982
 3035TIP3    H2 9051   5.168   1.602   4.866
 3036TIP3   OH2 9052   4.801   0.974   3.262
 3036TIP3    H1 9053   4.814   1.066   3.239
 3036TIP3    H2 9054   4.760   0.936   3.184
 3037TIP3   OH2 9055   7.939   1.747   0.474
 3037TIP3    H1 9056   8.025   1.751   0.514
 3037TIP3    H2 9057   7.880   1.786   0.538
 3038TIP3   OH2 9058   1.318   2.184   0.403
 3038TIP3    H1 9059   1.366   2.123   0.348
 3038TIP3    H2 9060   1.334   2.154   0.492
 3039TIP3   OH2 9061   2.407   1.045   2.758
 3039TIP3    H1 9062   2.450   0.979   2.703
 3039TIP3    H2 9063   2.343   1.086   2.700
 3040TIP3   OH2 9064   7.536   2.188   4.714
 3040TIP3    H1 9065   7.559   2.143   4.796
 3040TIP3    H2 9066   7.616   2.185   4.662
 3041TIP3   OH2 9067   4.433   4.975   1.176
 3041TIP3    H1 9068   4.380   4.925   1.114
 3041TIP3    H2 9069   4.398   5.064   1.171
 3042TIP3   OH2 9070   1.932   3.864   3.079
 3042TIP3    H1 9071   1.915   3.862   3.173
 3042TIP3    H2 9072   2.000   3.799   3.065
 3043TIP3   OH2 9073   5.451   4.177   2.545
 3043TIP3    H1 9074   5.407   4.199   2.463
 3043TIP3    H2 9075   5.466   4.083   2.539
 3044TIP3   OH2 9076   0.426   1.006   0.424
 3044TIP3    H1 9077   0.493   0.981   0.488
 3044TIP3    H2 9078   0.347   1.019   0.476
 3045TIP3   OH2 9079   1.524   6.127   1.140
 3045TIP3    H1 9080   1.494   6.041   1.172
 3045TIP3    H2 9081   1.540   6.113   1.047
 3046TIP3   OH2 9082   7.989   4.694   1.708
 3046TIP3    H1 9083   8.008   4.678   1.800
 3046TIP3    H2 9084   7.909   4.745   1.708
 3047TIP3   OH2 9085   6.147   2.060   2.948
 3047TIP3    H1 9086   6.123   2.153   2.944
 3047TIP3    H2 9087   6.066   2.016   2.975
 3048TIP3   OH2 9088   0.443   4.065   4.279
 3048TIP3    H1 9089   0.401   4.118   4.210
 3048TIP3    H2 9090   0.529   4.104   4.290
 3049TIP3   OH2 9091   4.038   1.352   4.926
 3049TIP3    H1 9092   3.974   1.281   4.920
 3049TIP3    H2 9093   3.998   1.425   4.879
 3050TIP3   OH2 9094   1.965   6.419   6.470
 3050TIP3    H1 9095   1.941   6.372   6.549
 3050TIP3    H2 9096   2.054   6.389   6.451
 3051TIP3   OH2 9097   2.023   4.824   3.848
 3051TIP3    H1 9098   1.982   4.861   3.926
 3051TIP3    H2 9099   2.031   4.731   3.868
 3052TIP3   OH2 9100   4.531   2.672   3.145
 3052TIP3    H1 9101   4.448   2.637   3.114
 3052TIP3    H2 9102   4.595   2.646   3.079
 3053TIP3   OH2 9103   3.256   2.167   6.539
 3053TIP3    H1 9104   3.275   2.249   6.494
 3053TIP3    H2 9105   3.342   2.124   6.547
 3054TIP3   OH2 9106   6.527   5.379   6.236
 3054TIP3    H1 9107   6.454   5.434   6.207
 3054TIP3    H2 9108   6.509   5.364   6.329
 3055TIP3   OH2 9109   2.946   1.461   4.965
 3055TIP3    H1 9110   2.960   1.368   4.944
 3055TIP3    H2 9111   2.901   1.460   5.050
 3056TIP3   OH2 9112   7.542   4.531   6.051
 3056TIP3    H1 9113   7.449   4.552   6.047
 3056TIP3    H2 9114   7.586   4.615   6.041
 3057TIP3   OH2 9115   5.721   4.775   3.090
 3057TIP3    H1 9116   5.660   4.702   3.104
 3057TIP3    H2 9117   5.798   4.753   3.142
 3058TIP3   OH2 9118   7.219   5.728   3.320
 3058TIP3    H1 9119   7.169   5.784   3.380
 3058TIP3    H2 9120   7.251   5.788   3.252
 3059TIP3   OH2 9121   3.949   3.488   5.962
 3059TIP3    H1 9122   3.958   3.394   5.973
 3059TIP3    H2 9123   3.905   3.499   5.878
 3060TIP3   OH2 9124   3.404   4.452   6.392
 3060TIP3    H1 9125   3.494   4.456   6.424
 3060TIP3    H2 9126   3.411   4.416   6.304
 3061TIP3   OH2 9127   1.293   2.581   6.404
 3061TIP3    H1 9128   1.317   2.592   6.496
 3061TIP3    H2 9129   1.376   2.584   6.356
 3062TIP3   OH2 9130   4.639   6.909   5.972
 3062TIP3    H1 9131   4.566   6.847   5.970
 3062TIP3    H2 9132   4.707   6.864   6.022
 3063TIP3   OH2 9133   7.387   3.128   5.109
 3063TIP3    H1 9134   7.378   3.219   5.137
 3063TIP3    H2 9135   7.297   3.094   5.108
 3064TIP3   OH2 9136   5.575   4.175   2.006
 3064TIP3    H1 9137   5.657   4.202   1.966
 3064TIP3    H2 9138   5.591   4.085   2.036
 3065TIP3   OH2 9139   3.947   4.570   6.045
 3065TIP3    H1 9140   3.910   4.496   6.092
 3065TIP3    H2 9141   3.907   4.647   6.086
 3066TIP3   OH2 9142   7.465   1.314   3.871
 3066TIP3    H1 9143   7.429   1.365   3.798
 3066TIP3    H2 9144   7.389   1.295   3.927
 3067TIP3   OH2 9145   4.032   3.076   0.757
 3067TIP3    H1 9146   4.090   3.059   0.830
 3067TIP3    H2 9147   3.983   3.155   0.782
 3068TIP3   OH2 9148   2.379   0.278   0.153
 3068TIP3    H1 9149   2.455   0.307   0.204
 3068TIP3    H2 9150   2.315   0.347   0.163
 3069TIP3   OH2 9151   6.356   0.993   1.842
 3069TIP3    H1 9152   6.298   1.069   1.840
 3069TIP3    H2 9153   6.296   0.918   1.840
 3070TIP3   OH2 9154   3.942   1.163   5.638
 3070TIP3    H1 9155   3.998   1.088   5.618
 3070TIP3    H2 9156   3.874   1.161   5.571
 3071TIP3   OH2 9157   0.837   1.413   2.917
 3071TIP3    H1 9158   0.881   1.378   2.839
 3071TIP3    H2 9159   0.776   1.478   2.883
 3072TIP3   OH2 9160   3.875   3.690   2.905
 3072TIP3    H1 9161   3.933   3.701   2.980
 3072TIP3    H2 9162   3.811   3.625   2.933
 3073TIP3   OH2 9163   0.293   1.989   1.349
 3073TIP3    H1 9164   0.382   1.961   1.330
 3073TIP3    H2 9165   0.240   1.951   1.279
 3074TIP3   OH2 9166   3.865   3.255   5.861
 3074TIP3    H1 9167   3.787   3.311   5.857
 3074TIP3    H2 9168   3.888   3.238   5.770
 3075TIP3   OH2 9169   2.426   5.479   6.442
 3075TIP3    H1 9170   2.483   5.524   6.504
 3075TIP3    H2 9171   2.466   5.393   6.431
 3076TIP3   OH2 9172   5.193   1.260   0.082
 3076TIP3    H1 9173   5.155   1.347   0.064
 3076TIP3    H2 9174   5.283   1.278   0.107
 3077TIP3   OH2 9175   7.405   1.310   1.688
 3077TIP3    H1 9176   7.453   1.313   1.605
 3077TIP3    H2 9177   7.315   1.291   1.663
 3078TIP3   OH2 9178   3.989   3.975   4.527
 3078TIP3    H1 9179   3.961   3.931   4.447
 3078TIP3    H2 9180   4.063   4.029   4.499
 3079TIP3   OH2 9181   5.733   6.836   2.629
 3079TIP3    H1 9182   5.678   6.866   2.557
 3079TIP3    H2 9183   5.694   6.752   2.656
 3080TIP3   OH2 9184   0.861   3.264   5.846
 3080TIP3    H1 9185   0.860   3.327   5.773
 3080TIP3    H2 9186   0.953   3.263   5.874
 3081TIP3   OH2 9187   3.293   2.699   0.016
 3081TIP3    H1 9188   3.322   2.630   0.076
 3081TIP3    H2 9189   3.361   2.703  -0.051
 3082TIP3   OH2 9190   5.998   6.422   3.651
 3082TIP3    H1 9191   6.075   6.378   3.689
 3082TIP3    H2 9192   5.950   6.455   3.726
 3083TIP3   OH2 9193   3.380   7.695   3.120
 3083TIP3    H1 9194   3.358   7.787   3.105
 3083TIP3    H2 9195   3.410   7.663   3.035
 3084TIP3   OH2 9196   0.355   7.379   0.036
 3084TIP3    H1 9197   0.293   7.327   0.086
 3084TIP3    H2 9198   0.409   7.424   0.102
 3085TIP3   OH2 9199   7.021   1.456   3.290
 3085TIP3    H1 9200   6.939   1.477   3.246
 3085TIP3    H2 9201   7.003   1.373   3.335
 3086TIP3   OH2 9202   0.046   3.514   6.668
 3086TIP3    H1 9203   0.044   3.599   6.624
 3086TIP3    H2 9204  -0.046   3.493   6.683
 3087TIP3   OH2 9205   3.520   6.984   4.955
 3087TIP3    H1 9206   3.574   6.918   4.998
 3087TIP3    H2 9207   3.554   7.068   4.987
 3088TIP3   OH2 9208   7.700   3.160   1.196
 3088TIP3    H1 9209   7.629   3.217   1.166
 3088TIP3    H2 9210   7.716   3.187   1.286
 3089TIP3   OH2 9211   3.213  -0.009   0.325
 3089TIP3    H1 9212   3.274  -0.083   0.319
 3089TIP3    H2 9213   3.260   0.056   0.377
 3090TIP3   OH2 9214   1.910   3.594   5.460
 3090TIP3    H1 9215   1.971   3.540   5.409
 3090TIP3    H2 9216   1.824   3.559   5.439
 3091TIP3   OH2 9217   1.916   5.980   4.856
 3091TIP3    H1 9218   1.994   5.953   4.905
 3091TIP3    H2 9219   1.887   5.901   4.811
 3092TIP3   OH2 9220   2.324   2.106   3.945
 3092TIP3    H1 9221   2.261   2.164   3.902
 3092TIP3    H2 9222   2.329   2.138   4.035
 3093TIP3   OH2 9223   5.839   1.151   1.791
 3093TIP3    H1 9224   5.875   1.236   1.766
 3093TIP3    H2 9225   5.844   1.098   1.712
 3094TIP3   OH2 9226   2.707   7.227   2.763
 3094TIP3    H1 9227   2.693   7.142   2.722
 3094TIP3    H2 9228   2.741   7.206   2.850
 3095TIP3   OH2 9229   4.291   0.453   3.583
 3095TIP3    H1 9230   4.381   0.461   3.554
 3095TIP3    H2 9231   4.294   0.390   3.655
 3096TIP3   OH2 9232   7.363   7.435   2.093
 3096TIP3    H1 9233   7.345   7.468   2.181
 3096TIP3    H2 9234   7.303   7.483   2.036
 3097TIP3   OH2 9235   0.790   3.020   4.840
 3097TIP3    H1 9236   0.862   3.059   4.791
 3097TIP3    H2 9237   0.728   3.091   4.853
 3098TIP3   OH2 9238   2.013   6.686   3.220
 3098TIP3    H1 9239   2.067   6.648   3.289
 3098TIP3    H2 9240   2.076   6.710   3.151
 3099TIP3   OH2 9241   7.008   1.996   5.640
 3099TIP3    H1 9242   7.012   1.903   5.662
 3099TIP3    H2 9243   6.929   2.005   5.587
 3100TIP3   OH2 9244   2.825   7.141   3.709
 3100TIP3    H1 9245   2.852   7.053   3.683
 3100TIP3    H2 9246   2.783   7.177   3.631
 3101TIP3   OH2 9247   5.395   2.472   2.236
 3101TIP3    H1 9248   5.403   2.443   2.145
 3101TIP3    H2 9249   5.405   2.567   2.232
 3102TIP3   OH2 9250   7.915   5.545   3.534
 3102TIP3    H1 9251   7.884   5.455   3.524
 3102TIP3    H2 9252   8.006   5.543   3.503
 3103TIP3   OH2 9253   6.064   5.236   2.188
 3103TIP3    H1 9254   6.027   5.255   2.275
 3103TIP3    H2 9255   6.033   5.307   2.132
 3104TIP3   OH2 9256   6.154   3.768   3.905
 3104TIP3    H1 9257   6.233   3.768   3.959
 3104TIP3    H2 9258   6.112   3.684   3.925
 3105TIP3   OH2 9259   0.688   4.735   6.341
 3105TIP3    H1 9260   0.692   4.640   6.343
 3105TIP3    H2 9261   0.595   4.756   6.345
 3106TIP3   OH2 9262   7.949   0.663   1.346
 3106TIP3    H1 9263   7.896   0.584   1.343
 3106TIP3    H2 9264   7.920   0.715   1.271
 3107TIP3   OH2 9265   7.461   1.231   1.366
 3107TIP3    H1 9266   7.393   1.168   1.391
 3107TIP3    H2 9267   7.453   1.238   1.271
 3108TIP3   OH2 9268   4.982   0.443   6.245
 3108TIP3    H1 9269   4.942   0.421   6.329
 3108TIP3    H2 9270   5.036   0.367   6.224
 3109TIP3   OH2 9271   6.952   6.843   2.489
 3109TIP3    H1 9272   6.961   6.781   2.561
 3109TIP3    H2 9273   7.037   6.839   2.444
 3110TIP3   OH2 9274   4.509   7.351   2.497
 3110TIP3    H1 9275   4.551   7.383   2.416
 3110TIP3    H2 9276   4.581   7.344   2.560
 3111TIP3   OH2 9277   4.593   1.109   4.351
 3111TIP3    H1 9278   4.533   1.069   4.288
 3111TIP3    H2 9279   4.570   1.202   4.350
 3112TIP3   OH2 9280   5.754   2.597   0.496
 3112TIP3    H1 9281   5.755   2.650   0.576
 3112TIP3    H2 9282   5.705   2.649   0.433
 3113TIP3   OH2 9283   3.695   5.226   3.053
 3113TIP3    H1 9284   3.726   5.136   3.059
 3113TIP3    H2 9285   3.752   5.268   2.989
 3114TIP3   OH2 9286   3.824   0.542   5.522
 3114TIP3    H1 9287   3.817   0.620   5.576
 3114TIP3    H2 9288   3.774   0.475   5.569
 3115TIP3   OH2 9289   0.313   4.367   0.625
 3115TIP3    H1 9290   0.387   4.409   0.669
 3115TIP3    H2 9291   0.260   4.332   0.697
 3116TIP3   OH2 9292   0.386   7.388   2.998
 3116TIP3    H1 9293   0.306   7.439   2.989
 3116TIP3    H2 9294   0.455   7.445   2.962
 3117TIP3   OH2 9295   1.634   1.752   6.379
 3117TIP3    H1 9296   1.633   1.815   6.308
 3117TIP3    H2 9297   1.576   1.788   6.445
 3118TIP3   OH2 9298   5.866   3.721   5.311
 3118TIP3    H1 9299   5.858   3.813   5.335
 3118TIP3    H2 9300   5.929   3.685   5.373
 3119TIP3   OH2 9301   5.190   6.301   3.646
 3119TIP3    H1 9302   5.209   6.257   3.729
 3119TIP3    H2 9303   5.189   6.394   3.668
 3120TIP3   OH2 9304   4.442   3.452   2.181
 3120TIP3    H1 9305   4.456   3.367   2.140
 3120TIP3    H2 9306   4.421   3.431   2.272
 3121TIP3   OH2 9307   5.577   3.578   3.512
 3121TIP3    H1 9308   5.661   3.535   3.499
 3121TIP3    H2 9309   5.547   3.600   3.424
 3122TIP3   OH2 9310   0.075   4.106   2.477
 3122TIP3    H1 9311   0.078   4.182   2.535
 3122TIP3    H2 9312   0.102   4.139   2.392
 3123TIP3   OH2 9313   7.670   3.068   6.314
 3123TIP3    H1 9314   7.697   3.145   6.263
 3123TIP3    H2 9315   7.658   3.102   6.403
 3124TIP3   OH2 9316   8.104   4.142   6.690
 3124TIP3    H1 9317   8.130   4.159   6.599
 3124TIP3    H2 9318   8.187   4.144   6.739
 3125TIP3   OH2 9319   3.019   5.964   2.899
 3125TIP3    H1 9320   2.942   5.987   2.847
 3125TIP3    H2 9321   2.995   5.884   2.944
 3126TIP3   OH2 9322   6.656   4.146   6.459
 3126TIP3    H1 9323   6.578   4.201   6.459
 3126TIP3    H2 9324   6.650   4.095   6.540
 3127TIP3   OH2 9325   6.346   6.520   3.977
 3127TIP3    H1 9326   6.336   6.571   4.058
 3127TIP3    H2 9327   6.429   6.552   3.939
 3128TIP3   OH2 9328   5.515   7.349   4.634
 3128TIP3    H1 9329   5.542   7.439   4.616
 3128TIP3    H2 9330   5.419   7.355   4.643
 3129TIP3   OH2 9331   6.748   5.438   3.769
 3129TIP3    H1 9332   6.771   5.481   3.852
 3129TIP3    H2 9333   6.700   5.360   3.795
 3130TIP3   OH2 9334   7.169   4.611   2.726
 3130TIP3    H1 9335   7.139   4.551   2.657
 3130TIP3    H2 9336   7.133   4.573   2.807
 3131TIP3   OH2 9337   0.475   6.747   1.474
 3131TIP3    H1 9338   0.397   6.786   1.434
 3131TIP3    H2 9339   0.472   6.775   1.565
 3132TIP3   OH2 9340   6.893   4.045   5.684
 3132TIP3    H1 9341   6.814   4.069   5.733
 3132TIP3    H2 9342   6.949   4.123   5.689
 3133TIP3   OH2 9343   1.106   3.951   0.288
 3133TIP3    H1 9344   1.159   3.920   0.362
 3133TIP3    H2 9345   1.058   3.874   0.259
 3134TIP3   OH2 9346   3.117   6.733   2.635
 3134TIP3    H1 9347   3.114   6.782   2.553
 3134TIP3    H2 9348   3.032   6.689   2.640
 3135TIP3   OH2 9349   2.271   6.823   5.235
 3135TIP3    H1 9350   2.333   6.751   5.232
 3135TIP3    H2 9351   2.185   6.781   5.243
 3136TIP3   OH2 9352   5.771   0.875   2.265
 3136TIP3    H1 9353   5.799   0.892   2.175
 3136TIP3    H2 9354   5.714   0.798   2.259
 3137TIP3   OH2 9355   3.076   4.511   4.896
 3137TIP3    H1 9356   3.064   4.416   4.889
 3137TIP3    H2 9357   3.143   4.521   4.965
 3138TIP3   OH2 9358   4.041   0.771   2.225
 3138TIP3    H1 9359   3.971   0.801   2.167
 3138TIP3    H2 9360   4.000   0.704   2.281
 3139TIP3   OH2 9361   7.673   3.220   2.906
 3139TIP3    H1 9362   7.705   3.215   2.816
 3139TIP3    H2 9363   7.650   3.129   2.927
 3140TIP3   OH2 9364   3.409   1.460   2.094
 3140TIP3    H1 9365   3.435   1.370   2.113
 3140TIP3    H2 9366   3.315   1.455   2.079
 3141TIP3   OH2 9367   0.325   5.687   3.608
 3141TIP3    H1 9368   0.414   5.714   3.630
 3141TIP3    H2 9369   0.288   5.761   3.560
 3142TIP3   OH2 9370   5.866   0.077   4.896
 3142TIP3    H1 9371   5.935   0.131   4.934
 3142TIP3    H2 9372   5.911   0.023   4.831
 3143TIP3   OH2 9373   7.193   7.135   1.906
 3143TIP3    H1 9374   7.175   7.177   1.990
 3143TIP3    H2 9375   7.132   7.062   1.902
 3144TIP3   OH2 9376   4.763   1.450   0.717
 3144TIP3    H1 9377   4.785   1.365   0.678
 3144TIP3    H2 9378   4.780   1.439   0.810
 3145TIP3   OH2 9379   5.359   3.110   2.234
 3145TIP3    H1 9380   5.269   3.139   2.251
 3145TIP3    H2 9381   5.378   3.141   2.146
 3146TIP3   OH2 9382   2.275   0.451   0.581
 3146TIP3    H1 9383   2.368   0.459   0.605
 3146TIP3    H2 9384   2.269   0.367   0.536
 3147TIP3   OH2 9385   1.984   3.748   3.794
 3147TIP3    H1 9386   1.958   3.724   3.883
 3147TIP3    H2 9387   1.958   3.673   3.741
 3148TIP3   OH2 9388   6.457   3.658   1.166
 3148TIP3    H1 9389   6.545   3.637   1.135
 3148TIP3    H2 9390   6.417   3.707   1.094
 3149TIP3   OH2 9391   0.052   5.363   0.235
 3149TIP3    H1 9392  -0.025   5.413   0.261
 3149TIP3    H2 9393   0.030   5.328   0.148
 3150TIP3   OH2 9394   4.538   6.456   1.516
 3150TIP3    H1 9395   4.606   6.509   1.474
 3150TIP3    H2 9396   4.541   6.372   1.469
 3151TIP3   OH2 9397   6.135   5.851   1.719
 3151TIP3    H1 9398   6.186   5.930   1.734
 3151TIP3    H2 9399   6.162   5.821   1.632
 3152TIP3   OH2 9400   2.887   5.018   5.175
 3152TIP3    H1 9401   2.945   5.037   5.102
 3152TIP3    H2 9402   2.801   5.050   5.147
 3153TIP3   OH2 9403   6.108   6.214   5.947
 3153TIP3    H1 9404   6.083   6.276   5.879
 3153TIP3    H2 9405   6.039   6.222   6.013
 3154TIP3   OH2 9406   4.355   1.962   3.043
 3154TIP3    H1 9407   4.360   1.957   3.139
 3154TIP3    H2 9408   4.432   2.013   3.018
 3155TIP3   OH2 9409   5.676   1.814   0.273
 3155TIP3    H1 9410   5.625   1.838   0.196
 3155TIP3    H2 9411   5.756   1.774   0.239
 3156TIP3   OH2 9412   1.236   1.144   5.827
 3156TIP3    H1 9413   1.323   1.103   5.822
 3156TIP3    H2 9414   1.178   1.074   5.857
 3157TIP3   OH2 9415   7.917   3.082   2.403
 3157TIP3    H1 9416   7.898   3.070   2.310
 3157TIP3    H2 9417   7.896   3.174   2.420
 3158TIP3   OH2 9418   1.797   0.733   4.901
 3158TIP3    H1 9419   1.741   0.713   4.976
 3158TIP3    H2 9420   1.807   0.828   4.904
 3159TIP3   OH2 9421   2.728   6.222   3.421
 3159TIP3    H1 9422   2.761   6.211   3.510
 3159TIP3    H2 9423   2.633   6.220   3.431
 3160TIP3   OH2 9424   5.432   7.199   6.591
 3160TIP3    H1 9425   5.386   7.120   6.566
 3160TIP3    H2 9426   5.477   7.227   6.512
 3161TIP3   OH2 9427   3.574   6.740   6.370
 3161TIP3    H1 9428   3.521   6.803   6.419
 3161TIP3    H2 9429   3.567   6.659   6.421
 3162TIP3   OH2 9430   1.686   1.894   1.486
 3162TIP3    H1 9431   1.720   1.953   1.419
 3162TIP3    H2 9432   1.613   1.848   1.443
 3163TIP3   OH2 9433   7.779   6.441   3.517
 3163TIP3    H1 9434   7.818   6.489   3.590
 3163TIP3    H2 9435   7.831   6.361   3.510
 3164TIP3   OH2 9436   2.825   6.168   0.727
 3164TIP3    H1 9437   2.898   6.116   0.692
 3164TIP3    H2 9438   2.808   6.234   0.661
 3165TIP3   OH2 9439   4.097   1.443   3.691
 3165TIP3    H1 9440   4.193   1.447   3.691
 3165TIP3    H2 9441   4.078   1.350   3.705
 3166TIP3   OH2 9442   5.165   4.424   2.385
 3166TIP3    H1 9443   5.206   4.419   2.471
 3166TIP3    H2 9444   5.148   4.517   2.371
 3167TIP3   OH2 9445   4.458   0.638   5.980
 3167TIP3    H1 9446   4.382   0.602   5.934
 3167TIP3    H2 9447   4.533   0.610   5.928
 3168TIP3   OH2 9448   2.212   5.951   2.916
 3168TIP3    H1 9449   2.125   5.946   2.877
 3168TIP3    H2 9450   2.262   6.007   2.856
 3169TIP3   OH2 9451   6.022   4.535   4.151
 3169TIP3    H1 9452   6.102   4.492   4.182
 3169TIP3    H2 9453   6.013   4.506   4.061
 3170TIP3   OH2 9454   3.746   1.925   0.583
 3170TIP3    H1 9455   3.684   1.998   0.582
 3170TIP3    H2 9456   3.713   1.867   0.652
 3171TIP3   OH2 9457   1.687   2.768   3.246
 3171TIP3    H1 9458   1.747   2.745   3.175
 3171TIP3    H2 9459   1.732   2.741   3.325
 3172TIP3   OH2 9460   7.541   5.564   5.756
 3172TIP3    H1 9461   7.476   5.541   5.690
 3172TIP3    H2 9462   7.626   5.556   5.711
 3173TIP3   OH2 9463   1.231   0.637   0.804
 3173TIP3    H1 9464   1.242   0.642   0.709
 3173TIP3    H2 9465   1.221   0.728   0.832
 3174TIP3   OH2 9466   2.048   5.620   6.291
 3174TIP3    H1 9467   2.048   5.682   6.364
 3174TIP3    H2 9468   2.012   5.669   6.217
 3175TIP3   OH2 9469   0.080   2.275   5.663
 3175TIP3    H1 9470   0.123   2.247   5.583
 3175TIP3    H2 9471   0.125   2.228   5.733
 3176TIP3   OH2 9472   0.717   1.838   3.381
 3176TIP3    H1 9473   0.630   1.807   3.404
 3176TIP3    H2 9474   0.704   1.885   3.298
 3177TIP3   OH2 9475   0.238   2.622   5.617
 3177TIP3    H1 9476   0.153   2.578   5.610
 3177TIP3    H2 9477   0.277   2.584   5.696
 3178TIP3   OH2 9478   4.352   4.983   0.712
 3178TIP3    H1 9479   4.308   5.067   0.725
 3178TIP3    H2 9480   4.338   4.936   0.795
 3179TIP3   OH2 9481   6.722   0.462   3.266
 3179TIP3    H1 9482   6.782   0.432   3.198
 3179TIP3    H2 9483   6.641   0.415   3.249
 3180TIP3   OH2 9484   7.879   4.362   3.037
 3180TIP3    H1 9485   7.819   4.325   3.102
 3180TIP3    H2 9486   7.837   4.443   3.009
 3181TIP3   OH2 9487   2.863   7.204   4.611
 3181TIP3    H1 9488   2.787   7.253   4.643
 3181TIP3    H2 9489   2.932   7.269   4.602
 3182TIP3   OH2 9490   7.582   6.457   6.263
 3182TIP3    H1 9491   7.569   6.470   6.169
 3182TIP3    H2 9492   7.655   6.515   6.285
 3183TIP3   OH2 9493   0.130   1.908   4.250
 3183TIP3    H1 9494   0.158   1.843   4.186
 3183TIP3    H2 9495   0.056   1.953   4.208
 3184TIP3   OH2 9496   2.588   3.928   2.952
 3184TIP3    H1 9497   2.625   4.003   2.998
 3184TIP3    H2 9498   2.601   3.854   3.012
 3185TIP3   OH2 9499   7.668   3.510   6.392
 3185TIP3    H1 9500   7.640   3.555   6.472
 3185TIP3    H2 9501   7.642   3.419   6.406
 3186TIP3   OH2 9502   1.029   6.312   0.359
 3186TIP3    H1 9503   1.012   6.381   0.424
 3186TIP3    H2 9504   1.005   6.231   0.403
 3187TIP3   OH2 9505   2.005   5.255   1.122
 3187TIP3    H1 9506   1.960   5.296   1.048
 3187TIP3    H2 9507   2.073   5.317   1.147
 3188TIP3   OH2 9508   3.698   0.429   1.296
 3188TIP3    H1 9509   3.732   0.459   1.212
 3188TIP3    H2 9510   3.775   0.424   1.352
 3189TIP3   OH2 9511   2.546   2.662   3.424
 3189TIP3    H1 9512   2.640   2.647   3.432
 3189TIP3    H2 9513   2.519   2.608   3.350
 3190TIP3   OH2 9514   6.226   4.471   2.944
 3190TIP3    H1 9515   6.270   4.546   2.903
 3190TIP3    H2 9516   6.133   4.490   2.937
 3191TIP3   OH2 9517   5.461   2.821   2.853
 3191TIP3    H1 9518   5.380   2.798   2.898
 3191TIP3    H2 9519   5.529   2.808   2.920
 3192TIP3   OH2 9520   8.139   2.542   3.431
 3192TIP3    H1 9521   8.178   2.618   3.387
 3192TIP3    H2 9522   8.211   2.505   3.482
 3193TIP3   OH2 9523   3.862   3.615   0.091
 3193TIP3    H1 9524   3.856   3.596  -0.002
 3193TIP3    H2 9525   3.902   3.537   0.129
 3194TIP3   OH2 9526   2.979   3.065   4.611
 3194TIP3    H1 9527   3.035   3.030   4.680
 3194TIP3    H2 9528   2.895   3.082   4.653
 3195TIP3   OH2 9529   0.994   3.606   6.345
 3195TIP3    H1 9530   0.984   3.697   6.314
 3195TIP3    H2 9531   0.938   3.600   6.421
 3196TIP3   OH2 9532   7.005   4.829   1.835
 3196TIP3    H1 9533   6.933   4.838   1.772
 3196TIP3    H2 9534   7.038   4.919   1.846
 3197TIP3   OH2 9535   5.524   3.923   2.469
 3197TIP3    H1 9536   5.617   3.907   2.453
 3197TIP3    H2 9537   5.480   3.888   2.391
 3198TIP3   OH2 9538   0.430   6.006   1.512
 3198TIP3    H1 9539   0.505   5.988   1.568
 3198TIP3    H2 9540   0.461   6.072   1.450
 3199TIP3   OH2 9541   6.569   1.351   6.144
 3199TIP3    H1 9542   6.603   1.348   6.234
 3199TIP3    H2 9543   6.612   1.277   6.100
 3200TIP3   OH2 9544   1.415   4.816   3.371
 3200TIP3    H1 9545   1.367   4.869   3.436
 3200TIP3    H2 9546   1.502   4.806   3.409
 3201TIP3   OH2 9547   1.172   7.495   4.128
 3201TIP3    H1 9548   1.190   7.434   4.200
 3201TIP3    H2 9549   1.223   7.573   4.151
 3202TIP3   OH2 9550   2.564   7.286   3.548
 3202TIP3    H1 9551   2.487   7.273   3.603
 3202TIP3    H2 9552   2.551   7.227   3.473
 3203TIP3   OH2 9553   6.871   1.522   1.679
 3203TIP3    H1 9554   6.894   1.504   1.770
 3203TIP3    H2 9555   6.890   1.440   1.633
 3204TIP3   OH2 9556   1.026   6.763   1.036
 3204TIP3    H1 9557   0.991   6.830   1.095
 3204TIP3    H2 9558   0.960   6.756   0.967
 3205TIP3   OH2 9559   6.827   2.274   3.808
 3205TIP3    H1 9560   6.811   2.363   3.778
 3205TIP3    H2 9561   6.746   2.227   3.789
 3206TIP3   OH2 9562   0.946   4.948   0.365
 3206TIP3    H1 9563   0.943   4.975   0.457
 3206TIP3    H2 9564   0.956   4.853   0.368
 3207TIP3   OH2 9565   5.176   7.385   0.578
 3207TIP3    H1 9566   5.128   7.377   0.660
 3207TIP3    H2 9567   5.130   7.328   0.517
 3208TIP3   OH2 9568   2.706   1.592   3.006
 3208TIP3    H1 9569   2.699   1.574   2.912
 3208TIP3    H2 9570   2.660   1.520   3.048
 3209TIP3   OH2 9571   0.269   5.306   3.879
 3209TIP3    H1 9572   0.243   5.355   3.801
 3209TIP3    H2 9573   0.219   5.224   3.874
 3210TIP3   OH2 9574   3.143   6.342   6.120
 3210TIP3    H1 9575   3.050   6.354   6.142
 3210TIP3    H2 9576   3.155   6.392   6.039
 3211TIP3   OH2 9577   8.223   7.046   5.379
 3211TIP3    H1 9578   8.199   7.058   5.471
 3211TIP3    H2 9579   8.141   7.019   5.337
 3212TIP3   OH2 9580   5.071   0.077   3.266
 3212TIP3    H1 9581   5.131   0.122   3.207
 3212TIP3    H2 9582   5.118  -0.003   3.293
 3213TIP3   OH2 9583   6.686   1.384   1.299
 3213TIP3    H1 9584   6.714   1.475   1.311
 3213TIP3    H2 9585   6.592   1.390   1.281
 3214TIP3   OH2 9586   3.178   5.328   3.789
 3214TIP3    H1 9587   3.266   5.324   3.752
 3214TIP3    H2 9588   3.124   5.278   3.727
 3215TIP3   OH2 9589   1.962   3.446   6.471
 3215TIP3    H1 9590   2.053   3.466   6.495
 3215TIP3    H2 9591   1.951   3.354   6.494
 3216TIP3   OH2 9592   3.179   3.832   4.798
 3216TIP3    H1 9593   3.274   3.826   4.794
 3216TIP3    H2 9594   3.156   3.807   4.887
 3217TIP3   OH2 9595   4.543   4.541   1.016
 3217TIP3    H1 9596   4.474   4.607   1.010
 3217TIP3    H2 9597   4.617   4.587   1.053
 3218TIP3   OH2 9598   1.390   3.523   0.573
 3218TIP3    H1 9599   1.410   3.430   0.588
 3218TIP3    H2 9600   1.431   3.568   0.646
 3219TIP3   OH2 9601   3.099   7.288   4.214
 3219TIP3    H1 9602   3.173   7.329   4.260
 3219TIP3    H2 9603   3.136   7.261   4.130
 3220TIP3   OH2 9604   4.020   6.943   4.017
 3220TIP3    H1 9605   3.963   6.891   4.073
 3220TIP3    H2 9606   4.009   7.033   4.049
 3221TIP3   OH2 9607   1.623   0.704   3.061
 3221TIP3    H1 9608   1.662   0.786   3.092
 3221TIP3    H2 9609   1.594   0.723   2.972
 3222TIP3   OH2 9610   8.097   6.600   4.278
 3222TIP3    H1 9611   8.187   6.630   4.286
 3222TIP3    H2 9612   8.066   6.593   4.369
 3223TIP3   OH2 9613   0.189   2.836   6.598
 3223TIP3    H1 9614   0.147   2.838   6.512
 3223TIP3    H2 9615   0.280   2.860   6.581
 3224TIP3   OH2 9616   2.347   3.144   2.738
 3224TIP3    H1 9617   2.304   3.136   2.823
 3224TIP3    H2 9618   2.275   3.146   2.675
 3225TIP3   OH2 9619   5.479   4.565   3.321
 3225TIP3    H1 9620   5.424   4.576   3.399
 3225TIP3    H2 9621   5.568   4.570   3.354
 3226TIP3   OH2 9622   2.950   6.436   3.691
 3226TIP3    H1 9623   3.011   6.386   3.747
 3226TIP3    H2 9624   2.868   6.387   3.696
 3227TIP3   OH2 9625   7.783   0.932   2.547
 3227TIP3    H1 9626   7.688   0.942   2.539
 3227TIP3    H2 9627   7.803   0.967   2.634
 3228TIP3   OH2 9628   0.408   4.493   1.392
 3228TIP3    H1 9629   0.435   4.488   1.300
 3228TIP3    H2 9630   0.321   4.455   1.393
 3229TIP3   OH2 9631   7.474   0.863   6.181
 3229TIP3    H1 9632   7.534   0.857   6.256
 3229TIP3    H2 9633   7.502   0.941   6.134
 3230TIP3   OH2 9634   7.231   1.187   2.321
 3230TIP3    H1 9635   7.217   1.278   2.296
 3230TIP3    H2 9636   7.261   1.191   2.412
 3231TIP3   OH2 9637   1.092   5.685   6.759
 3231TIP3    H1 9638   1.104   5.779   6.766
 3231TIP3    H2 9639   1.117   5.664   6.669
 3232TIP3   OH2 9640   3.025   0.607   0.257
 3232TIP3    H1 9641   3.050   0.699   0.261
 3232TIP3    H2 9642   2.992   0.595   0.168
 3233TIP3   OH2 9643   3.371   1.367   6.566
 3233TIP3    H1 9644   3.453   1.318   6.574
 3233TIP3    H2 9645   3.319   1.340   6.642
 3234TIP3   OH2 9646   7.207   2.065   0.533
 3234TIP3    H1 9647   7.229   2.136   0.472
 3234TIP3    H2 9648   7.126   2.027   0.498
 3235TIP3   OH2 9649   1.921   3.208   3.567
 3235TIP3    H1 9650   1.831   3.185   3.593
 3235TIP3    H2 9651   1.910   3.272   3.498
 3236TIP3   OH2 9652   1.202   2.310   2.849
 3236TIP3    H1 9653   1.165   2.397   2.868
 3236TIP3    H2 9654   1.217   2.311   2.755
 3237TIP3   OH2 9655   1.368   6.932   1.378
 3237TIP3    H1 9656   1.462   6.910   1.375
 3237TIP3    H2 9657   1.339   6.927   1.288
 3238TIP3   OH2 9658   5.250   7.267   4.489
 3238TIP3    H1 9659   5.258   7.257   4.583
 3238TIP3    H2 9660   5.189   7.198   4.462
 3239TIP3   OH2 9661   7.162   3.827   1.396
 3239TIP3    H1 9662   7.241   3.869   1.429
 3239TIP3    H2 9663   7.168   3.837   1.301
 3240TIP3   OH2 9664   4.868   4.522   5.219
 3240TIP3    H1 9665   4.832   4.463   5.285
 3240TIP3    H2 9666   4.962   4.503   5.219
 3241TIP3   OH2 9667   4.469   6.741   6.443
 3241TIP3    H1 9668   4.437   6.831   6.453
 3241TIP3    H2 9669   4.488   6.732   6.350
 3242TIP3   OH2 9670   3.004   3.461   2.600
 3242TIP3    H1 9671   2.939   3.469   2.670
 3242TIP3    H2 9672   3.069   3.401   2.636
 3243TIP3   OH2 9673   1.566   3.906   6.105
 3243TIP3    H1 9674   1.477   3.901   6.139
 3243TIP3    H2 9675   1.575   3.995   6.072
 3244TIP3   OH2 9676   3.722   0.579   3.015
 3244TIP3    H1 9677   3.660   0.650   2.996
 3244TIP3    H2 9678   3.761   0.603   3.099
 3245TIP3   OH2 9679   2.396   5.287   5.400
 3245TIP3    H1 9680   2.409   5.231   5.477
 3245TIP3    H2 9681   2.359   5.229   5.334
 3246TIP3   OH2 9682   7.347   7.556   3.603
 3246TIP3    H1 9683   7.272   7.498   3.618
 3246TIP3    H2 9684   7.389   7.563   3.688
 3247TIP3   OH2 9685   7.084   0.815   1.749
 3247TIP3    H1 9686   7.142   0.802   1.823
 3247TIP3    H2 9687   7.054   0.906   1.758
 3248TIP3   OH2 9688   0.895   7.003   2.900
 3248TIP3    H1 9689   0.911   6.913   2.926
 3248TIP3    H2 9690   0.953   7.018   2.825
 3249TIP3   OH2 9691   7.107   0.860   4.566
 3249TIP3    H1 9692   7.087   0.887   4.656
 3249TIP3    H2 9693   7.170   0.789   4.576
 3250TIP3   OH2 9694   6.213   0.830   4.117
 3250TIP3    H1 9695   6.202   0.860   4.026
 3250TIP3    H2 9696   6.164   0.747   4.120
 3251TIP3   OH2 9697   6.041   6.786   1.929
 3251TIP3    H1 9698   6.024   6.831   2.012
 3251TIP3    H2 9699   6.016   6.849   1.862
 3252TIP3   OH2 9700   4.937   1.192   1.334
 3252TIP3    H1 9701   4.927   1.119   1.394
 3252TIP3    H2 9702   4.909   1.157   1.249
 3253TIP3   OH2 9703   6.010   5.163   4.985
 3253TIP3    H1 9704   5.924   5.186   5.021
 3253TIP3    H2 9705   6.071   5.219   5.032
 3254TIP3   OH2 9706   3.795   3.542   3.516
 3254TIP3    H1 9707   3.852   3.592   3.575
 3254TIP3    H2 9708   3.721   3.599   3.499
 3255TIP3   OH2 9709   6.565   0.815   5.036
 3255TIP3    H1 9710   6.516   0.788   4.958
 3255TIP3    H2 9711   6.654   0.785   5.019
 3256TIP3   OH2 9712   5.680   7.768   0.554
 3256TIP3    H1 9713   5.737   7.775   0.478
 3256TIP3    H2 9714   5.592   7.759   0.517
 3257TIP3   OH2 9715   1.432   7.158   6.228
 3257TIP3    H1 9716   1.508   7.103   6.210
 3257TIP3    H2 9717   1.455   7.205   6.308
 3258TIP3   OH2 9718   5.284   4.344   6.533
 3258TIP3    H1 9719   5.236   4.413   6.487
 3258TIP3    H2 9720   5.375   4.373   6.531
 3259TIP3   OH2 9721   7.551   1.036   3.776
 3259TIP3    H1 9722   7.622   1.078   3.726
 3259TIP3    H2 9723   7.491   1.108   3.797
 3260TIP3   OH2 9724   1.993   2.377   2.360
 3260TIP3    H1 9725   2.030   2.394   2.447
 3260TIP3    H2 9726   1.961   2.462   2.330
 3261TIP3   OH2 9727   4.547   4.698   0.611
 3261TIP3    H1 9728   4.594   4.738   0.684
 3261TIP3    H2 9729   4.591   4.733   0.533
 3262TIP3   OH2 9730   3.039   3.848   5.630
 3262TIP3    H1 9731   2.948   3.862   5.658
 3262TIP3    H2 9732   3.036   3.769   5.576
 3263TIP3   OH2 9733   6.703   2.034   2.046
 3263TIP3    H1 9734   6.629   2.058   1.990
 3263TIP3    H2 9735   6.772   2.007   1.985
 3264TIP3   OH2 9736   3.908   2.918   1.823
 3264TIP3    H1 9737   3.969   2.854   1.862
 3264TIP3    H2 9738   3.955   2.953   1.748
 3265TIP3   OH2 9739   6.741   3.406   3.800
 3265TIP3    H1 9740   6.705   3.399   3.888
 3265TIP3    H2 9741   6.785   3.491   3.798
 3266TIP3   OH2 9742   0.579   5.794   1.997
 3266TIP3    H1 9743   0.523   5.776   2.073
 3266TIP3    H2 9744   0.556   5.726   1.934
 3267TIP3   OH2 9745   8.274   7.510   5.598
 3267TIP3    H1 9746   8.185   7.545   5.589
 3267TIP3    H2 9747   8.273   7.464   5.681
 3268TIP3   OH2 9748   6.056   2.735   5.980
 3268TIP3    H1 9749   5.990   2.668   6.001
 3268TIP3    H2 9750   6.120   2.688   5.927
 3269TIP3   OH2 9751   5.449   5.137   1.162
 3269TIP3    H1 9752   5.472   5.051   1.196
 3269TIP3    H2 9753   5.417   5.185   1.239
 3270TIP3   OH2 9754   3.779   5.871   3.596
 3270TIP3    H1 9755   3.785   5.828   3.510
 3270TIP3    H2 9756   3.869   5.874   3.628
 3271TIP3   OH2 9757   0.328   6.172   3.293
 3271TIP3    H1 9758   0.320   6.078   3.310
 3271TIP3    H2 9759   0.321   6.213   3.379
 3272TIP3   OH2 9760   1.342   3.631   6.011
 3272TIP3    H1 9761   1.368   3.556   6.064
 3272TIP3    H2 9762   1.424   3.665   5.975
 3273TIP3   OH2 9763   4.753   3.313   6.002
 3273TIP3    H1 9764   4.700   3.338   5.926
 3273TIP3    H2 9765   4.755   3.391   6.057
 3274TIP3   OH2 9766   0.057   0.681   5.476
 3274TIP3    H1 9767   0.138   0.632   5.465
 3274TIP3    H2 9768  -0.009   0.615   5.500
 3275TIP3   OH2 9769   1.539   3.655   0.745
 3275TIP3    H1 9770   1.587   3.722   0.696
 3275TIP3    H2 9771   1.500   3.702   0.819
 3276TIP3   OH2 9772   3.649   3.496   5.275
 3276TIP3    H1 9773   3.663   3.467   5.365
 3276TIP3    H2 9774   3.555   3.512   5.269
 3277TIP3   OH2 9775   5.318   3.684   1.234
 3277TIP3    H1 9776   5.376   3.640   1.296
 3277TIP3    H2 9777   5.241   3.709   1.285
 3278TIP3   OH2 9778   3.184   7.168   6.749
 3278TIP3    H1 9779   3.153   7.259   6.758
 3278TIP3    H2 9780   3.165   7.129   6.835
 3279TIP3   OH2 9781   3.859   4.177   2.564
 3279TIP3    H1 9782   3.902   4.110   2.510
 3279TIP3    H2 9783   3.852   4.254   2.508
 3280TIP3   OH2 9784   1.832   7.084   4.213
 3280TIP3    H1 9785   1.838   6.988   4.213
 3280TIP3    H2 9786   1.914   7.112   4.255
 3281TIP3   OH2 9787   3.732   3.324   4.542
 3281TIP3    H1 9788   3.678   3.308   4.465
 3281TIP3    H2 9789   3.702   3.258   4.606
 3282TIP3   OH2 9790   1.461   7.588   0.868
 3282TIP3    H1 9791   1.501   7.668   0.902
 3282TIP3    H2 9792   1.536   7.534   0.843
 3283TIP3   OH2 9793   2.444   3.635   3.696
 3283TIP3    H1 9794   2.373   3.663   3.754
 3283TIP3    H2 9795   2.522   3.674   3.735
 3284TIP3   OH2 9796   8.244   0.426   2.369
 3284TIP3    H1 9797   8.289   0.506   2.397
 3284TIP3    H2 9798   8.177   0.412   2.435
 3285TIP3   OH2 9799   2.172   7.062   1.764
 3285TIP3    H1 9800   2.150   7.103   1.848
 3285TIP3    H2 9801   2.119   6.983   1.762
 3286TIP3   OH2 9802   2.543   6.068   6.097
 3286TIP3    H1 9803   2.488   6.111   6.161
 3286TIP3    H2 9804   2.514   6.102   6.013
 3287TIP3   OH2 9805   3.257   3.838   1.687
 3287TIP3    H1 9806   3.314   3.782   1.635
 3287TIP3    H2 9807   3.223   3.902   1.625
 3288TIP3   OH2 9808   5.539   3.670   5.881
 3288TIP3    H1 9809   5.499   3.609   5.943
 3288TIP3    H2 9810   5.630   3.677   5.909
 3289TIP3   OH2 9811   7.654   2.371   4.261
 3289TIP3    H1 9812   7.694   2.369   4.174
 3289TIP3    H2 9813   7.561   2.385   4.244
 3290TIP3   OH2 9814   1.754   6.414   1.380
 3290TIP3    H1 9815   1.706   6.454   1.307
 3290TIP3    H2 9816   1.835   6.382   1.341
 3291TIP3   OH2 9817   1.083   1.745   4.318
 3291TIP3    H1 9818   1.168   1.707   4.339
 3291TIP3    H2 9819   1.086   1.760   4.223
 3292TIP3   OH2 9820   4.700   2.719   1.822
 3292TIP3    H1 9821   4.686   2.756   1.735
 3292TIP3    H2 9822   4.617   2.678   1.845
 3293TIP3   OH2 9823   4.938   4.749   1.645
 3293TIP3    H1 9824   5.001   4.697   1.695
 3293TIP3    H2 9825   4.911   4.692   1.573
 3294TIP3   OH2 9826   7.591   1.026   3.197
 3294TIP3    H1 9827   7.512   1.042   3.249
 3294TIP3    H2 9828   7.595   0.931   3.188
 3295TIP3   OH2 9829   5.545   0.163   3.311
 3295TIP3    H1 9830   5.615   0.209   3.357
 3295TIP3    H2 9831   5.464   0.194   3.352
 3296TIP3   OH2 9832   5.380   6.290   5.143
 3296TIP3    H1 9833   5.473   6.267   5.138
 3296TIP3    H2 9834   5.338   6.212   5.181
 3297TIP3   OH2 9835   2.057   4.582   0.595
 3297TIP3    H1 9836   2.074   4.512   0.658
 3297TIP3    H2 9837   1.973   4.619   0.623
 3298TIP3   OH2 9838   3.862   0.858   5.187
 3298TIP3    H1 9839   3.828   0.931   5.238
 3298TIP3    H2 9840   3.955   0.879   5.176
 3299TIP3   OH2 9841   7.957   3.967   2.243
 3299TIP3    H1 9842   7.867   3.958   2.210
 3299TIP3    H2 9843   7.994   3.879   2.238
 3300TIP3   OH2 9844   8.224   0.973   1.504
 3300TIP3    H1 9845   8.196   0.881   1.495
 3300TIP3    H2 9846   8.144   1.019   1.531
 3301TIP3   OH2 9847   2.109   6.751   1.477
 3301TIP3    H1 9848   2.177   6.760   1.544
 3301TIP3    H2 9849   2.029   6.732   1.527
 3302TIP3   OH2 9850   3.474   7.407   0.411
 3302TIP3    H1 9851   3.548   7.418   0.471
 3302TIP3    H2 9852   3.493   7.465   0.337
 3303TIP3   OH2 9853   2.460   5.842   6.410
 3303TIP3    H1 9854   2.411   5.811   6.334
 3303TIP3    H2 9855   2.537   5.785   6.414
 3304TIP3   OH2 9856   5.330   2.338   4.024
 3304TIP3    H1 9857   5.257   2.293   4.067
 3304TIP3    H2 9858   5.408   2.306   4.069
 3305TIP3   OH2 9859   4.665   5.791   5.442
 3305TIP3    H1 9860   4.584   5.837   5.463
 3305TIP3    H2 9861   4.708   5.847   5.376
 3306TIP3   OH2 9862   5.403   2.955   1.547
 3306TIP3    H1 9863   5.345   2.984   1.477
 3306TIP3    H2 9864   5.376   2.865   1.566
 3307TIP3   OH2 9865   3.780   3.731   1.639
 3307TIP3    H1 9866   3.696   3.693   1.612
 3307TIP3    H2 9867   3.816   3.668   1.701
 3308TIP3   OH2 9868  -0.002   1.797   3.322
 3308TIP3    H1 9869   0.047   1.723   3.285
 3308TIP3    H2 9870   0.048   1.874   3.295
 3309TIP3   OH2 9871   4.328   3.150   3.319
 3309TIP3    H1 9872   4.324   3.094   3.397
 3309TIP3    H2 9873   4.293   3.095   3.248
 3310TIP3   OH2 9874   6.953   1.412   6.247
 3310TIP3    H1 9875   6.949   1.379   6.337
 3310TIP3    H2 9876   7.047   1.418   6.228
 3311TIP3   OH2 9877   1.070   3.351   4.995
 3311TIP3    H1 9878   0.997   3.305   5.036
 3311TIP3    H2 9879   1.146   3.295   5.010
 3312TIP3   OH2 9880   7.642   0.224   6.107
 3312TIP3    H1 9881   7.570   0.181   6.152
 3312TIP3    H2 9882   7.717   0.165   6.120
 3313TIP3   OH2 9883   3.346   2.940   6.236
 3313TIP3    H1 9884   3.357   2.927   6.142
 3313TIP3    H2 9885   3.369   3.031   6.251
 3314TIP3   OH2 9886   7.602   2.973   0.005
 3314TIP3    H1 9887   7.667   2.902   0.005
 3314TIP3    H2 9888   7.636   3.035  -0.059
 3315TIP3   OH2 9889   4.332   0.883   2.575
 3315TIP3    H1 9890   4.413   0.833   2.578
 3315TIP3    H2 9891   4.268   0.822   2.539
 3316TIP3   OH2 9892   0.097   3.644   1.833
 3316TIP3    H1 9893   0.130   3.731   1.812
 3316TIP3    H2 9894   0.080   3.603   1.748
 3317TIP3   OH2 9895   1.234   2.911   5.142
 3317TIP3    H1 9896   1.163   2.857   5.106
 3317TIP3    H2 9897   1.267   2.861   5.216
 3318TIP3   OH2 9898   6.190   7.551   3.614
 3318TIP3    H1 9899   6.210   7.587   3.701
 3318TIP3    H2 9900   6.225   7.616   3.553
 3319TIP3   OH2 9901   5.996   0.299   5.782
 3319TIP3    H1 9902   6.011   0.336   5.869
 3319TIP3    H2 9903   6.083   0.288   5.745
 3320TIP3   OH2 9904   1.053   0.309   5.914
 3320TIP3    H1 9905   1.141   0.324   5.880
 3320TIP3    H2 9906   0.995   0.321   5.838
 3321TIP3   OH2 9907   0.410   0.426   0.373
 3321TIP3    H1 9908   0.456   0.450   0.454
 3321TIP3    H2 9909   0.457   0.472   0.304
 3322TIP3   OH2 9910   3.551   7.509   1.254
 3322TIP3    H1 9911   3.528   7.515   1.347
 3322TIP3    H2 9912   3.480   7.554   1.208
 3323TIP3   OH2 9913   5.805   3.194   3.441
 3323TIP3    H1 9914   5.801   3.174   3.534
 3323TIP3    H2 9915   5.895   3.221   3.425
 3324TIP3   OH2 9916   1.667   5.361   1.750
 3324TIP3    H1 9917   1.604   5.406   1.806
 3324TIP3    H2 9918   1.733   5.428   1.730
 3325TIP3   OH2 9919   8.051   2.165   6.289
 3325TIP3    H1 9920   8.095   2.231   6.342
 3325TIP3    H2 9921   8.050   2.201   6.200
 3326TIP3   OH2 9922   3.893   2.191   1.535
 3326TIP3    H1 9923   3.969   2.163   1.484
 3326TIP3    H2 9924   3.858   2.110   1.573
 3327TIP3   OH2 9925   7.858   4.268   3.872
 3327TIP3    H1 9926   7.942   4.257   3.828
 3327TIP3    H2 9927   7.820   4.180   3.873
 3328TIP3   OH2 9928   3.493   5.751   0.778
 3328TIP3    H1 9929   3.524   5.836   0.809
 3328TIP3    H2 9930   3.474   5.702   0.858
 3329TIP3   OH2 9931   3.359   1.942   0.521
 3329TIP3    H1 9932   3.297   1.872   0.540
 3329TIP3    H2 9933   3.427   1.900   0.469
 3330TIP3   OH2 9934   8.276   3.424   4.092
 3330TIP3    H1 9935   8.316   3.475   4.021
 3330TIP3    H2 9936   8.248   3.490   4.156
 3331TIP3   OH2 9937   4.010   3.686   3.128
 3331TIP3    H1 9938   3.991   3.731   3.210
 3331TIP3    H2 9939   4.106   3.683   3.124
 3332TIP3   OH2 9940   0.200   0.481   4.190
 3332TIP3    H1 9941   0.284   0.487   4.235
 3332TIP3    H2 9942   0.159   0.567   4.203
 3333TIP3   OH2 9943   1.969   3.819   0.229
 3333TIP3    H1 9944   2.033   3.871   0.277
 3333TIP3    H2 9945   1.975   3.851   0.139
 3334TIP3   OH2 9946   4.726   6.602   4.579
 3334TIP3    H1 9947   4.797   6.663   4.597
 3334TIP3    H2 9948   4.724   6.595   4.484
 3335TIP3   OH2 9949   7.830   2.953   6.677
 3335TIP3    H1 9950   7.884   2.874   6.685
 3335TIP3    H2 9951   7.892   3.026   6.678
 3336TIP3   OH2 9952   8.207   1.985   6.171
 3336TIP3    H1 9953   8.142   1.935   6.122
 3336TIP3    H2 9954   8.156   2.047   6.224
 3337TIP3   OH2 9955   5.200   1.426   5.433
 3337TIP3    H1 9956   5.232   1.348   5.388
 3337TIP3    H2 9957   5.107   1.408   5.451
 3338TIP3   OH2 9958   4.886   0.748   0.885
 3338TIP3    H1 9959   4.923   0.714   0.966
 3338TIP3    H2 9960   4.938   0.826   0.866
 3339TIP3   OH2 9961   5.974   1.534   5.896
 3339TIP3    H1 9962   5.967   1.501   5.807
 3339TIP3    H2 9963   6.037   1.476   5.939
 3340TIP3   OH2 9964   5.251   2.292   1.183
 3340TIP3    H1 9965   5.218   2.238   1.254
 3340TIP3    H2 9966   5.281   2.230   1.116
 3341TIP3   OH2 9967   2.902   2.234   5.546
 3341TIP3    H1 9968   2.839   2.201   5.611
 3341TIP3    H2 9969   2.987   2.203   5.577
 3342TIP3   OH2 9970   4.841   5.550   5.171
 3342TIP3    H1 9971   4.799   5.479   5.220
 3342TIP3    H2 9972   4.857   5.618   5.237
 3343TIP3   OH2 9973   3.090   3.622   2.391
 3343TIP3    H1 9974   3.183   3.606   2.407
 3343TIP3    H2 9975   3.045   3.558   2.445
 3344TIP3   OH2 9976   8.003   6.711   2.360
 3344TIP3    H1 9977   8.024   6.622   2.388
 3344TIP3    H2 9978   7.915   6.727   2.395
 3345TIP3   OH2 9979   6.873   2.915   0.426
 3345TIP3    H1 9980   6.943   2.880   0.371
 3345TIP3    H2 9981   6.853   3.001   0.388
 3346TIP3   OH2 9982   6.378   4.704   6.581
 3346TIP3    H1 9983   6.284   4.712   6.598
 3346TIP3    H2 9984   6.408   4.794   6.567
 3347TIP3   OH2 9985   4.579   1.365   0.086
 3347TIP3    H1 9986   4.497   1.413   0.098
 3347TIP3    H2 9987   4.607   1.387  -0.002
 3348TIP3   OH2 9988   4.450   2.448   3.756
 3348TIP3    H1 9989   4.514   2.512   3.787
 3348TIP3    H2 9990   4.373   2.501   3.735
 3349TIP3   OH2 9991   2.170   3.151   6.343
 3349TIP3    H1 9992   2.196   3.134   6.434
 3349TIP3    H2 9993   2.104   3.085   6.324
 3350TIP3   OH2 9994   4.500   6.432   1.094
 3350TIP3    H1 9995   4.477   6.500   1.157
 3350TIP3    H2 9996   4.427   6.369   1.100
 3351TIP3   OH2 9997   2.805   5.232   1.123
 3351TIP3    H1 9998   2.841   5.150   1.090
 3351TIP3    H2 9999   2.879   5.276   1.166
 3352TIP3   OH210000   6.344   1.754   2.098
 3352TIP3    H110001   6.382   1.831   2.055
 3352TIP3    H210002   6.254   1.750   2.065
 3353TIP3   OH210003   7.775   5.900   4.309
 3353TIP3    H110004   7.743   5.874   4.223
 3353TIP3    H210005   7.832   5.975   4.292
 3354TIP3   OH210006   0.309   4.530   6.674
 3354TIP3    H110007   0.215   4.528   6.691
 3354TIP3    H210008   0.326   4.619   6.643
 3355TIP3   OH210009   0.111   6.011   4.887
 3355TIP3    H110010   0.197   5.969   4.890
 3355TIP3    H210011   0.049   5.942   4.909
 3356TIP3   OH210012   0.973   2.415   6.617
 3356TIP3    H110013   0.990   2.372   6.701
 3356TIP3    H210014   0.877   2.418   6.611
 3357TIP3   OH210015   4.496   3.659   1.486
 3357TIP3    H110016   4.510   3.599   1.560
 3357TIP3    H210017   4.404   3.685   1.494
 3358TIP3   OH210018   7.020   5.373   1.670
 3358TIP3    H110019   7.067   5.450   1.638
 3358TIP3    H210020   6.935   5.378   1.626
 3359TIP3   OH210021  -0.025   1.482   1.360
 3359TIP3    H110022   0.009   1.401   1.397
 3359TIP3    H210023   0.048   1.545   1.367
 3360TIP3   OH210024   6.209   5.034   1.458
 3360TIP3    H110025   6.247   4.997   1.378
 3360TIP3    H210026   6.169   4.960   1.502
 3361TIP3   OH210027   7.553   7.359   1.245
 3361TIP3    H110028   7.588   7.292   1.186
 3361TIP3    H210029   7.532   7.312   1.325
 3362TIP3   OH210030   6.759   3.739   4.387
 3362TIP3    H110031   6.759   3.685   4.467
 3362TIP3    H210032   6.843   3.784   4.389
 3363TIP3   OH210033   3.603   3.360   0.493
 3363TIP3    H110034   3.534   3.311   0.448
 3363TIP3    H210035   3.684   3.329   0.452
 3364TIP3   OH210036   8.064   6.810   5.195
 3364TIP3    H110037   8.020   6.807   5.280
 3364TIP3    H210038   7.993   6.809   5.131
 3365TIP3   OH210039   4.427   3.776   0.431
 3365TIP3    H110040   4.436   3.824   0.513
 3365TIP3    H210041   4.435   3.842   0.363
 3366TIP3   OH210042   3.587   7.754   6.387
 3366TIP3    H110043   3.671   7.779   6.348
 3366TIP3    H210044   3.585   7.799   6.472
 3367TIP3   OH210045   8.316   7.174   1.629
 3367TIP3    H110046   8.302   7.256   1.581
 3367TIP3    H210047   8.227   7.141   1.645
 3368TIP3   OH210048   7.136   0.582   2.479
 3368TIP3    H110049   7.150   0.607   2.570
 3368TIP3    H210050   7.213   0.616   2.433
 3369TIP3   OH210051   6.437   5.094   2.707
 3369TIP3    H110052   6.450   5.178   2.750
 3369TIP3    H210053   6.509   5.039   2.739
 3370TIP3   OH210054   3.069   5.664   5.603
 3370TIP3    H110055   2.986   5.701   5.635
 3370TIP3    H210056   3.134   5.733   5.619
 3371TIP3   OH210057   3.715   1.714   3.317
 3371TIP3    H110058   3.639   1.667   3.283
 3371TIP3    H210059   3.788   1.686   3.262
 3372TIP3   OH210060   2.828   4.265   5.687
 3372TIP3    H110061   2.903   4.324   5.675
 3372TIP3    H210062   2.774   4.279   5.609
 3373TIP3   OH210063   4.755   4.648   1.156
 3373TIP3    H110064   4.783   4.557   1.157
 3373TIP3    H210065   4.836   4.698   1.145
 3374TIP3   OH210066   7.497   6.359   4.548
 3374TIP3    H110067   7.470   6.325   4.633
 3374TIP3    H210068   7.456   6.300   4.484
 3375TIP3   OH210069   0.159   3.205   3.949
 3375TIP3    H110070   0.209   3.265   4.004
 3375TIP3    H210071   0.079   3.188   3.998
 3376TIP3   OH210072   3.627   3.008   0.837
 3376TIP3    H110073   3.548   2.990   0.889
 3376TIP3    H210074   3.691   3.039   0.901
 3377TIP3   OH210075   3.677   0.324   2.772
 3377TIP3    H110076   3.644   0.253   2.718
 3377TIP3    H210077   3.599   0.369   2.803
 3378TIP3   OH210078   2.088   3.240   5.587
 3378TIP3    H110079   2.153   3.172   5.600
 3378TIP3    H210080   2.108   3.305   5.655
 3379TIP3   OH210081   2.062   0.977   6.662
 3379TIP3    H110082   2.118   1.051   6.687
 3379TIP3    H210083   1.980   0.992   6.710
 3380TIP3   OH210084   3.618   7.072   0.205
 3380TIP3    H110085   3.623   7.024   0.288
 3380TIP3    H210086   3.532   7.114   0.207
 3381TIP3   OH210087   1.654   4.779   3.513
 3381TIP3    H110088   1.733   4.772   3.459
 3381TIP3    H210089   1.661   4.706   3.575
 3382TIP3   OH210090   2.468   7.438   4.265
 3382TIP3    H110091   2.447   7.407   4.177
 3382TIP3    H210092   2.451   7.532   4.262
 3383TIP3   OH210093   0.130   4.362   0.446
 3383TIP3    H110094   0.110   4.455   0.443
 3383TIP3    H210095   0.211   4.356   0.497
 3384TIP3   OH210096   2.507   7.691   3.303
 3384TIP3    H110097   2.573   7.699   3.235
 3384TIP3    H210098   2.550   7.726   3.382
 3385TIP3   OH210099   8.098   0.861   5.764
 3385TIP3    H110100   8.181   0.910   5.757
 3385TIP3    H210101   8.125   0.773   5.789
 3386TIP3   OH210102   6.124   1.522   0.158
 3386TIP3    H110103   6.123   1.506   0.253
 3386TIP3    H210104   6.214   1.548   0.139
 3387TIP3   OH210105   7.481   5.085   2.361
 3387TIP3    H110106   7.412   5.115   2.301
 3387TIP3    H210107   7.434   5.054   2.438
 3388TIP3   OH210108   4.741   4.014   4.771
 3388TIP3    H110109   4.792   4.078   4.819
 3388TIP3    H210110   4.692   3.967   4.838
 3389TIP3   OH210111   0.641   3.245   4.891
 3389TIP3    H110112   0.570   3.245   4.827
 3389TIP3    H210113   0.684   3.330   4.879
 3390TIP3   OH210114   0.651   5.462   1.526
 3390TIP3    H110115   0.729   5.458   1.470
 3390TIP3    H210116   0.616   5.373   1.524
 3391TIP3   OH210117   3.550   4.593   5.283
 3391TIP3    H110118   3.568   4.499   5.272
 3391TIP3    H210119   3.525   4.622   5.195
 3392TIP3   OH210120   1.201   7.775   3.346
 3392TIP3    H110121   1.108   7.787   3.327
 3392TIP3    H210122   1.214   7.814   3.432
 3393TIP3   OH210123   2.909   2.497   4.770
 3393TIP3    H110124   2.845   2.563   4.745
 3393TIP3    H210125   2.967   2.541   4.833
 3394TIP3   OH210126   5.114   7.231   2.003
 3394TIP3    H110127   5.061   7.308   1.981
 3394TIP3    H210128   5.084   7.163   1.942
 3395TIP3   OH210129   7.562   4.093   5.726
 3395TIP3    H110130   7.531   4.162   5.786
 3395TIP3    H210131   7.580   4.018   5.783
 3396TIP3   OH210132   7.403   7.574   6.210
 3396TIP3    H110133   7.358   7.589   6.293
 3396TIP3    H210134   7.449   7.491   6.222
 3397TIP3   OH210135   0.927   6.981   1.168
 3397TIP3    H110136   0.892   7.043   1.232
 3397TIP3    H210137   0.930   7.030   1.086
 3398TIP3   OH210138   6.468   1.907   5.711
 3398TIP3    H110139   6.407   1.929   5.641
 3398TIP3    H210140   6.424   1.837   5.760
 3399TIP3   OH210141   3.438   6.593   4.801
 3399TIP3    H110142   3.370   6.586   4.734
 3399TIP3    H210143   3.435   6.509   4.847
 3400TIP3   OH210144   6.369   6.104   3.850
 3400TIP3    H110145   6.456   6.114   3.813
 3400TIP3    H210146   6.327   6.189   3.836
 3401TIP3   OH210147   0.210   0.441   5.768
 3401TIP3    H110148   0.251   0.424   5.684
 3401TIP3    H210149   0.283   0.466   5.826
 3402TIP3   OH210150   3.418   0.362   4.264
 3402TIP3    H110151   3.426   0.445   4.217
 3402TIP3    H210152   3.396   0.387   4.353
 3403TIP3   OH210153   0.816   2.663   6.083
 3403TIP3    H110154   0.869   2.656   6.162
 3403TIP3    H210155   0.854   2.597   6.024
 3404TIP3   OH210156   6.685   1.219   0.420
 3404TIP3    H110157   6.773   1.210   0.385
 3404TIP3    H210158   6.647   1.131   0.413
 3405TIP3   OH210159   5.261   5.246   2.307
 3405TIP3    H110160   5.225   5.215   2.390
 3405TIP3    H210161   5.268   5.168   2.253
 3406TIP3   OH210162   2.541   2.360   0.456
 3406TIP3    H110163   2.577   2.449   0.457
 3406TIP3    H210164   2.598   2.311   0.397
 3407TIP3   OH210165   3.302   4.909   4.950
 3407TIP3    H110166   3.377   4.849   4.955
 3407TIP3    H210167   3.235   4.868   5.004
 3408TIP3   OH210168   4.128   5.213   1.200
 3408TIP3    H110169   4.124   5.128   1.157
 3408TIP3    H210170   4.064   5.267   1.152
 3409TIP3   OH210171   8.036   4.235   2.117
 3409TIP3    H110172   7.991   4.296   2.175
 3409TIP3    H210173   8.014   4.148   2.152
 3410TIP3   OH210174   2.336   2.209   4.571
 3410TIP3    H110175   2.355   2.129   4.521
 3410TIP3    H210176   2.378   2.279   4.522
 3411TIP3   OH210177   0.603   1.498   0.078
 3411TIP3    H110178   0.595   1.459   0.165
 3411TIP3    H210179   0.696   1.491   0.058
 3412TIP3   OH210180   7.881   2.608   0.626
 3412TIP3    H110181   7.941   2.598   0.552
 3412TIP3    H210182   7.937   2.613   0.703
 3413TIP3   OH210183   0.302   1.264   1.368
 3413TIP3    H110184   0.258   1.194   1.321
 3413TIP3    H210185   0.243   1.286   1.440
 3414TIP3   OH210186   7.011   6.633   3.030
 3414TIP3    H110187   7.081   6.692   3.059
 3414TIP3    H210188   7.057   6.566   2.978
 3415TIP3   OH210189   5.131   4.502   2.047
 3415TIP3    H110190   5.192   4.476   2.116
 3415TIP3    H210191   5.172   4.578   2.006
 3416TIP3   OH210192   7.092   7.028   3.960
 3416TIP3    H110193   7.059   6.984   4.038
 3416TIP3    H210194   7.182   6.995   3.951
 3417TIP3   OH210195   3.844   4.139   6.820
 3417TIP3    H110196   3.910   4.206   6.838
 3417TIP3    H210197   3.761   4.180   6.845
 3418TIP3   OH210198   1.412   1.441   4.003
 3418TIP3    H110199   1.455   1.487   3.931
 3418TIP3    H210200   1.463   1.361   4.014
 3419TIP3   OH210201   2.816   3.576   2.362
 3419TIP3    H110202   2.906   3.603   2.343
 3419TIP3    H210203   2.780   3.647   2.416
 3420TIP3   OH210204   5.228   4.568   0.935
 3420TIP3    H110205   5.205   4.624   0.860
 3420TIP3    H210206   5.291   4.506   0.900
 3421TIP3   OH210207   6.682   0.745   1.351
 3421TIP3    H110208   6.674   0.655   1.382
 3421TIP3    H210209   6.737   0.788   1.417
 3422TIP3   OH210210   6.205   2.003   4.092
 3422TIP3    H110211   6.267   1.989   4.164
 3422TIP3    H210212   6.151   2.076   4.120
 3423TIP3   OH210213   4.834   2.840   4.100
 3423TIP3    H110214   4.857   2.798   4.017
 3423TIP3    H210215   4.890   2.917   4.104
 3424TIP3   OH210216   7.490   6.303   0.289
 3424TIP3    H110217   7.430   6.242   0.244
 3424TIP3    H210218   7.504   6.374   0.227
 3425TIP3   OH210219   8.260   3.166   1.848
 3425TIP3    H110220   8.272   3.187   1.755
 3425TIP3    H210221   8.196   3.095   1.849
 3426TIP3   OH210222   3.880   6.743   2.079
 3426TIP3    H110223   3.934   6.723   2.156
 3426TIP3    H210224   3.839   6.826   2.099
 3427TIP3   OH210225   5.813   0.155   4.525
 3427TIP3    H110226   5.723   0.123   4.521
 3427TIP3    H210227   5.864   0.089   4.480
 3428TIP3   OH210228   3.674   7.288   2.145
 3428TIP3    H110229   3.705   7.270   2.056
 3428TIP3    H210230   3.657   7.382   2.147
 3429TIP3   OH210231   4.904   0.455   4.266
 3429TIP3    H110232   4.953   0.377   4.290
 3429TIP3    H210233   4.873   0.491   4.350
 3430TIP3   OH210234   4.323   3.525   3.883
 3430TIP3    H110235   4.376   3.604   3.890
 3430TIP3    H210236   4.378   3.456   3.920
 3431TIP3   OH210237   4.712   2.317   2.208
 3431TIP3    H110238   4.724   2.311   2.114
 3431TIP3    H210239   4.741   2.232   2.242
 3432TIP3   OH210240   4.576   4.191   5.741
 3432TIP3    H110241   4.623   4.211   5.822
 3432TIP3    H210242   4.555   4.277   5.704
 3433TIP3   OH210243   5.740   6.554   2.649
 3433TIP3    H110244   5.793   6.567   2.727
 3433TIP3    H210245   5.789   6.490   2.597
 3434TIP3   OH210246   7.254   5.143   3.296
 3434TIP3    H110247   7.176   5.169   3.247
 3434TIP3    H210248   7.302   5.086   3.236
 3435TIP3   OH210249   5.742   3.760   4.138
 3435TIP3    H110250   5.838   3.766   4.147
 3435TIP3    H210251   5.717   3.695   4.204
 3436TIP3   OH210252   7.988   7.224   5.881
 3436TIP3    H110253   7.981   7.299   5.940
 3436TIP3    H210254   7.992   7.148   5.940
 3437TIP3   OH210255   3.186   4.572   3.400
 3437TIP3    H110256   3.245   4.620   3.342
 3437TIP3    H210257   3.230   4.574   3.485
 3438TIP3   OH210258   0.312   5.149   4.596
 3438TIP3    H110259   0.227   5.112   4.573
 3438TIP3    H210260   0.314   5.234   4.553
 3439TIP3   OH210261   4.014   6.613   6.679
 3439TIP3    H110262   4.089   6.649   6.631
 3439TIP3    H210263   3.980   6.687   6.729
 3440TIP3   OH210264   7.675   4.345   4.491
 3440TIP3    H110265   7.653   4.354   4.583
 3440TIP3    H210266   7.657   4.253   4.471
 3441TIP3   OH210267   4.716   6.002   1.519
 3441TIP3    H110268   4.673   5.919   1.497
 3441TIP3    H210269   4.801   5.976   1.554
 3442TIP3   OH210270   5.778   4.877   5.878
 3442TIP3    H110271   5.705   4.939   5.888
 3442TIP3    H210272   5.851   4.931   5.850
 3443TIP3   OH210273   5.087   5.297   6.147
 3443TIP3    H110274   5.056   5.279   6.236
 3443TIP3    H210275   5.094   5.392   6.143
 3444TIP3   OH210276   3.416   6.260   1.289
 3444TIP3    H110277   3.485   6.327   1.295
 3444TIP3    H210278   3.361   6.289   1.217
 3445TIP3   OH210279   7.373   5.696   3.894
 3445TIP3    H110280   7.360   5.723   3.804
 3445TIP3    H210281   7.327   5.762   3.946
 3446TIP3   OH210282   0.068   6.819   6.088
 3446TIP3    H110283   0.070   6.909   6.120
 3446TIP3    H210284  -0.001   6.777   6.140
 3447TIP3   OH210285   3.343   4.197   0.989
 3447TIP3    H110286   3.255   4.159   0.989
 3447TIP3    H210287   3.399   4.128   1.026
 3448TIP3   OH210288   6.106   5.330   0.083
 3448TIP3    H110289   6.140   5.400   0.027
 3448TIP3    H210290   6.066   5.376   0.157
 3449TIP3   OH210291   0.128   0.295   0.706
 3449TIP3    H110292   0.152   0.388   0.704
 3449TIP3    H210293   0.175   0.260   0.781
 3450TIP3   OH210294   3.472   3.354   2.332
 3450TIP3    H110295   3.565   3.343   2.310
 3450TIP3    H210296   3.445   3.268   2.364
 3451TIP3   OH210297   4.126   1.019   5.148
 3451TIP3    H110298   4.135   1.073   5.226
 3451TIP3    H210299   4.184   1.060   5.083
 3452TIP3   OH210300   5.810   1.370   0.901
 3452TIP3    H110301   5.808   1.351   0.994
 3452TIP3    H210302   5.841   1.290   0.860
 3453TIP3   OH210303   8.062   0.362   6.559
 3453TIP3    H110304   8.140   0.308   6.570
 3453TIP3    H210305   8.065   0.390   6.467
 3454TIP3   OH210306   5.275   5.484   4.971
 3454TIP3    H110307   5.201   5.504   4.914
 3454TIP3    H210308   5.235   5.464   5.056
 3455TIP3   OH210309   5.341   6.878   1.782
 3455TIP3    H110310   5.383   6.927   1.711
 3455TIP3    H210311   5.285   6.814   1.739
 3456TIP3   OH210312   1.563   3.924   3.169
 3456TIP3    H110313   1.495   3.988   3.150
 3456TIP3    H210314   1.621   3.969   3.231
 3457TIP3   OH210315   8.141   7.185   3.246
 3457TIP3    H110316   8.157   7.103   3.199
 3457TIP3    H210317   8.106   7.157   3.330
 3458TIP3   OH210318   4.222   5.100   2.791
 3458TIP3    H110319   4.181   5.177   2.830
 3458TIP3    H210320   4.311   5.100   2.826
 3459TIP3   OH210321   5.345   4.797   5.494
 3459TIP3    H110322   5.429   4.794   5.447
 3459TIP3    H210323   5.297   4.868   5.451
 3460TIP3   OH210324   2.770   5.426   5.083
 3460TIP3    H110325   2.713   5.482   5.136
 3460TIP3    H210326   2.737   5.337   5.099
 3461TIP3   OH210327   0.661   6.156   0.901
 3461TIP3    H110328   0.720   6.084   0.878
 3461TIP3    H210329   0.597   6.117   0.960
 3462TIP3   OH210330   6.833   5.861   5.200
 3462TIP3    H110331   6.890   5.804   5.148
 3462TIP3    H210332   6.795   5.922   5.137
 3463TIP3   OH210333   1.452   4.921   0.436
 3463TIP3    H110334   1.460   4.828   0.456
 3463TIP3    H210335   1.358   4.935   0.422
 3464TIP3   OH210336   5.994   7.197   0.414
 3464TIP3    H110337   6.042   7.115   0.420
 3464TIP3    H210338   6.059   7.262   0.388
 3465TIP3   OH210339   7.932   6.423   5.980
 3465TIP3    H110340   7.990   6.437   6.055
 3465TIP3    H210341   7.991   6.396   5.910
 3466TIP3   OH210342   2.728   4.373   2.905
 3466TIP3    H110343   2.698   4.344   2.819
 3466TIP3    H210344   2.819   4.399   2.891
 3467TIP3   OH210345   7.226   1.487   0.122
 3467TIP3    H110346   7.186   1.544   0.056
 3467TIP3    H210347   7.307   1.455   0.080
 3468TIP3   OH210348   3.327   5.853   4.142
 3468TIP3    H110349   3.375   5.788   4.194
 3468TIP3    H210350   3.327   5.816   4.053
 3469TIP3   OH210351   8.309   0.666   1.288
 3469TIP3    H110352   8.400   0.647   1.312
 3469TIP3    H210353   8.261   0.662   1.370
 3470TIP3   OH210354   4.734   7.777   5.375
 3470TIP3    H110355   4.727   7.694   5.421
 3470TIP3    H210356   4.716   7.843   5.442
 3471TIP3   OH210357   3.215   5.826   6.001
 3471TIP3    H110358   3.278   5.892   6.030
 3471TIP3    H210359   3.133   5.873   5.993
 3472TIP3   OH210360   2.052   7.552   1.442
 3472TIP3    H110361   2.035   7.644   1.458
 3472TIP3    H210362   1.985   7.525   1.379
 3473TIP3   OH210363   4.975   1.088   0.198
 3473TIP3    H110364   5.018   1.069   0.282
 3473TIP3    H210365   5.039   1.139   0.149
 3474TIP3   OH210366   5.363   1.195   6.120
 3474TIP3    H110367   5.391   1.231   6.204
 3474TIP3    H210368   5.380   1.101   6.127
 3475TIP3   OH210369   4.450   0.498   3.244
 3475TIP3    H110370   4.374   0.555   3.256
 3475TIP3    H210371   4.429   0.420   3.296
 3476TIP3   OH210372   7.445   0.034   5.921
 3476TIP3    H110373   7.474  -0.056   5.904
 3476TIP3    H210374   7.520   0.076   5.963
 3477TIP3   OH210375   3.875   2.129   2.559
 3477TIP3    H110376   3.847   2.055   2.614
 3477TIP3    H210377   3.796   2.181   2.548
 3478TIP3   OH210378   0.681   3.839   5.302
 3478TIP3    H110379   0.634   3.822   5.221
 3478TIP3    H210380   0.734   3.916   5.283
 3479TIP3   OH210381   0.956   4.581   1.122
 3479TIP3    H110382   0.991   4.666   1.098
 3479TIP3    H210383   0.967   4.575   1.217
 3480TIP3   OH210384   4.778   6.387   6.670
 3480TIP3    H110385   4.799   6.476   6.696
 3480TIP3    H210386   4.728   6.397   6.589
 3481TIP3   OH210387  -0.060   2.411   1.363
 3481TIP3    H110388  -0.042   2.337   1.421
 3481TIP3    H210389   0.020   2.421   1.311
 3482TIP3   OH210390   0.335   4.773   1.274
 3482TIP3    H110391   0.350   4.685   1.241
 3482TIP3    H210392   0.385   4.776   1.356
 3483TIP3   OH210393   8.293   5.589   0.987
 3483TIP3    H110394   8.212   5.629   1.018
 3483TIP3    H210395   8.323   5.536   1.061
 3484TIP3   OH210396   4.930   6.015   0.220
 3484TIP3    H110397   5.008   5.978   0.177
 3484TIP3    H210398   4.935   6.108   0.200
 3485TIP3   OH210399   7.483   1.740   4.627
 3485TIP3    H110400   7.523   1.754   4.542
 3485TIP3    H210401   7.416   1.673   4.612
 3486TIP3   OH210402   6.974   2.005   2.914
 3486TIP3    H110403   6.910   2.007   2.985
 3486TIP3    H210404   6.931   1.957   2.844
 3487TIP3   OH210405   2.991   2.067   6.337
 3487TIP3    H110406   2.988   2.094   6.245
 3487TIP3    H210407   3.080   2.032   6.349
 3488TIP3   OH210408   2.757   5.353   5.852
 3488TIP3    H110409   2.696   5.424   5.832
 3488TIP3    H210410   2.844   5.393   5.843
 3489TIP3   OH210411   3.258   5.282   5.132
 3489TIP3    H110412   3.273   5.353   5.194
 3489TIP3    H210413   3.250   5.326   5.047
 3490TIP3   OH210414   0.310   5.580   1.794
 3490TIP3    H110415   0.217   5.568   1.814
 3490TIP3    H210416   0.315   5.667   1.755
 3491TIP3   OH210417   6.756   3.807   5.576
 3491TIP3    H110418   6.840   3.847   5.600
 3491TIP3    H210419   6.759   3.800   5.481
 3492TIP3   OH210420   3.677   6.226   6.031
 3492TIP3    H110421   3.626   6.205   6.110
 3492TIP3    H210422   3.622   6.286   5.982
 3493TIP3   OH210423   2.887   5.389   6.430
 3493TIP3    H110424   2.959   5.453   6.427
 3493TIP3    H210425   2.852   5.389   6.341
 3494TIP3   OH210426   5.394   7.465   5.799
 3494TIP3    H110427   5.356   7.549   5.824
 3494TIP3    H210428   5.471   7.488   5.746
 3495TIP3   OH210429   7.432   5.463   4.050
 3495TIP3    H110430   7.405   5.483   4.140
 3495TIP3    H210431   7.402   5.538   3.999
 3496TIP3   OH210432   1.640   0.699   0.517
 3496TIP3    H110433   1.641   0.730   0.607
 3496TIP3    H210434   1.649   0.604   0.524
 3497TIP3   OH210435   7.296   3.128   3.162
 3497TIP3    H110436   7.209   3.166   3.177
 3497TIP3    H210437   7.354   3.181   3.216
 3498TIP3   OH210438   0.456   0.133   5.759
 3498TIP3    H110439   0.420   0.044   5.751
 3498TIP3    H210440   0.530   0.123   5.819
 3499TIP3   OH210441   4.623   2.466   1.557
 3499TIP3    H110442   4.667   2.423   1.483
 3499TIP3    H210443   4.610   2.556   1.527
 3500TIP3   OH210444   1.755   5.961   0.801
 3500TIP3    H110445   1.781   5.968   0.709
 3500TIP3    H210446   1.737   5.868   0.813
 3501TIP3   OH210447   4.723   2.159   3.338
 3501TIP3    H110448   4.698   2.105   3.413
 3501TIP3    H210449   4.780   2.102   3.285
 3502TIP3   OH210450   8.256   1.192   0.496
 3502TIP3    H110451   8.173   1.234   0.518
 3502TIP3    H210452   8.249   1.170   0.403
 3503TIP3   OH210453   4.786   1.235   3.204
 3503TIP3    H110454   4.813   1.295   3.134
 3503TIP3    H210455   4.707   1.275   3.241
 3504TIP3   OH210456   1.647   1.326   6.742
 3504TIP3    H110457   1.716   1.343   6.677
 3504TIP3    H210458   1.566   1.348   6.697
 3505TIP3   OH210459   5.174   5.644   3.075
 3505TIP3    H110460   5.246   5.692   3.116
 3505TIP3    H210461   5.164   5.565   3.128
 3506TIP3   OH210462   6.637   4.890   0.224
 3506TIP3    H110463   6.716   4.838   0.204
 3506TIP3    H210464   6.565   4.828   0.215
 3507TIP3   OH210465   5.468   0.132   5.901
 3507TIP3    H110466   5.444   0.131   5.994
 3507TIP3    H210467   5.564   0.133   5.901
 3508TIP3   OH210468   4.002   1.166   4.293
 3508TIP3    H110469   3.998   1.255   4.327
 3508TIP3    H210470   4.004   1.110   4.371
 3509TIP3   OH210471   3.068   7.758   5.478
 3509TIP3    H110472   3.071   7.789   5.388
 3509TIP3    H210473   3.117   7.824   5.528
 3510TIP3   OH210474   4.354   2.072   0.221
 3510TIP3    H110475   4.289   2.003   0.231
 3510TIP3    H210476   4.350   2.121   0.303
 3511TIP3   OH210477   7.053   6.754   0.996
 3511TIP3    H110478   7.009   6.787   1.074
 3511TIP3    H210479   7.046   6.825   0.932
 3512TIP3   OH210480   0.560   5.885   5.137
 3512TIP3    H110481   0.592   5.795   5.131
 3512TIP3    H210482   0.557   5.916   5.047
 3513TIP3   OH210483   1.138   0.820   4.610
 3513TIP3    H110484   1.055   0.803   4.655
 3513TIP3    H210485   1.112   0.842   4.521
 3514TIP3   OH210486   2.750   0.071   3.308
 3514TIP3    H110487   2.663   0.041   3.282
 3514TIP3    H210488   2.745   0.166   3.304
 3515TIP3   OH210489   2.742   1.797   0.538
 3515TIP3    H110490   2.736   1.855   0.462
 3515TIP3    H210491   2.821   1.825   0.584
 3516TIP3   OH210492   3.171   4.541   0.793
 3516TIP3    H110493   3.139   4.492   0.717
 3516TIP3    H210494   3.263   4.515   0.801
 3517TIP3   OH210495   2.315   4.987   1.359
 3517TIP3    H110496   2.300   5.009   1.266
 3517TIP3    H210497   2.314   5.072   1.403
 3518TIP3   OH210498   5.761   1.383   3.298
 3518TIP3    H110499   5.714   1.452   3.251
 3518TIP3    H210500   5.813   1.340   3.231
 3519TIP3   OH210501   0.720   2.103   6.624
 3519TIP3    H110502   0.683   2.035   6.567
 3519TIP3    H210503   0.813   2.080   6.632
 3520TIP3   OH210504   3.741   7.649   3.708
 3520TIP3    H110505   3.769   7.741   3.711
 3520TIP3    H210506   3.773   7.618   3.624
 3521TIP3   OH210507   5.832   0.620   2.841
 3521TIP3    H110508   5.755   0.571   2.870
 3521TIP3    H210509   5.840   0.600   2.747
 3522TIP3   OH210510   1.372   1.977   5.871
 3522TIP3    H110511   1.355   2.006   5.961
 3522TIP3    H210512   1.313   1.903   5.858
 3523TIP3   OH210513   4.455   0.099   5.851
 3523TIP3    H110514   4.544   0.071   5.831
 3523TIP3    H210515   4.412   0.020   5.884
 3524TIP3   OH210516   4.566   3.993   4.143
 3524TIP3    H110517   4.594   3.924   4.203
 3524TIP3    H210518   4.472   3.983   4.136
 3525TIP3   OH210519   1.965   5.915   6.685
 3525TIP3    H110520   1.874   5.893   6.709
 3525TIP3    H210521   2.012   5.913   6.768
 3526TIP3   OH210522   0.977   7.766   2.654
 3526TIP3    H110523   0.922   7.762   2.732
 3526TIP3    H210524   0.941   7.837   2.602
 3527TIP3   OH210525   4.048   0.892   3.981
 3527TIP3    H110526   3.996   0.816   3.955
 3527TIP3    H210527   4.005   0.925   4.060
 3528TIP3   OH210528   2.662   1.497   2.479
 3528TIP3    H110529   2.619   1.581   2.462
 3528TIP3    H210530   2.602   1.450   2.536
 3529TIP3   OH210531   5.071   7.089   4.900
 3529TIP3    H110532   5.006   7.143   4.945
 3529TIP3    H210533   5.139   7.072   4.966
 3530TIP3   OH210534   3.566   6.083   5.730
 3530TIP3    H110535   3.516   6.154   5.769
 3530TIP3    H210536   3.656   6.115   5.728
 3531TIP3   OH210537   4.754   4.431   4.472
 3531TIP3    H110538   4.847   4.450   4.457
 3531TIP3    H210539   4.725   4.501   4.531
 3532TIP3   OH210540   3.861   1.395   0.095
 3532TIP3    H110541   3.869   1.300   0.098
 3532TIP3    H210542   3.770   1.413   0.117
 3533TIP3   OH210543   5.834   6.278   0.387
 3533TIP3    H110544   5.869   6.365   0.403
 3533TIP3    H210545   5.877   6.248   0.307
 3534TIP3   OH210546   4.107   1.290   0.384
 3534TIP3    H110547   4.140   1.377   0.362
 3534TIP3    H210548   4.023   1.306   0.426
 3535TIP3   OH210549   6.187   4.322   5.184
 3535TIP3    H110550   6.250   4.255   5.211
 3535TIP3    H210551   6.209   4.340   5.092
 3536TIP3   OH210552   3.623   3.552   3.026
 3536TIP3    H110553   3.627   3.620   3.094
 3536TIP3    H210554   3.592   3.474   3.071
 3537TIP3   OH210555   1.656   2.660   2.016
 3537TIP3    H110556   1.728   2.684   2.074
 3537TIP3    H210557   1.698   2.646   1.931
 3538TIP3   OH210558   3.745   6.851   5.058
 3538TIP3    H110559   3.804   6.879   5.128
 3538TIP3    H210560   3.731   6.758   5.075
 3539TIP3   OH210561   5.367   5.538   2.744
 3539TIP3    H110562   5.460   5.527   2.724
 3539TIP3    H210563   5.355   5.632   2.751
 3540TIP3   OH210564   4.994   5.635   3.667
 3540TIP3    H110565   4.968   5.657   3.577
 3540TIP3    H210566   5.069   5.691   3.685
 3541TIP3   OH210567   2.058   6.201   5.327
 3541TIP3    H110568   2.132   6.145   5.305
 3541TIP3    H210569   2.005   6.203   5.247
 3542TIP3   OH210570   0.709   4.592   1.324
 3542TIP3    H110571   0.696   4.583   1.230
 3542TIP3    H210572   0.771   4.523   1.347
 3543TIP3   OH210573   4.611   0.927   5.806
 3543TIP3    H110574   4.622   0.832   5.808
 3543TIP3    H210575   4.553   0.946   5.881
 3544TIP3   OH210576   0.265   4.730   3.255
 3544TIP3    H110577   0.208   4.676   3.200
 3544TIP3    H210578   0.327   4.770   3.194
 3545TIP3   OH210579   0.857   2.902   4.485
 3545TIP3    H110580   0.861   2.963   4.411
 3545TIP3    H210581   0.833   2.957   4.559
 3546TIP3   OH210582   4.482   7.602   1.037
 3546TIP3    H110583   4.391   7.573   1.041
 3546TIP3    H210584   4.532   7.521   1.032
 3547TIP3   OH210585   3.755   4.249   1.653
 3547TIP3    H110586   3.771   4.300   1.733
 3547TIP3    H210587   3.842   4.224   1.623
 3548TIP3   OH210588   1.925   0.096   3.058
 3548TIP3    H110589   2.009   0.142   3.055
 3548TIP3    H210590   1.884   0.115   2.973
 3549TIP3   OH210591   4.971   5.535   4.517
 3549TIP3    H110592   5.016   5.570   4.440
 3549TIP3    H210593   4.889   5.499   4.482
 3550TIP3   OH210594   0.336   1.039   1.155
 3550TIP3    H110595   0.266   1.080   1.104
 3550TIP3    H210596   0.402   1.017   1.090
 3551TIP3   OH210597   5.104   5.177   4.542
 3551TIP3    H110598   5.107   5.257   4.594
 3551TIP3    H210599   5.051   5.199   4.466
 3552TIP3   OH210600   3.982   0.947   0.694
 3552TIP3    H110601   4.039   0.873   0.712
 3552TIP3    H210602   3.903   0.908   0.656
 3553TIP3   OH210603   5.404   5.428   1.754
 3553TIP3    H110604   5.311   5.427   1.778
 3553TIP3    H210605   5.443   5.491   1.815
 3554TIP3   OH210606   6.203   6.997   6.358
 3554TIP3    H110607   6.131   6.949   6.317
 3554TIP3    H210608   6.218   7.072   6.301
 3555TIP3   OH210609   7.646   5.062   6.250
 3555TIP3    H110610   7.734   5.101   6.247
 3555TIP3    H210611   7.610   5.090   6.334
 3556TIP3   OH210612   8.094   0.676   3.815
 3556TIP3    H110613   8.000   0.668   3.802
 3556TIP3    H210614   8.116   0.603   3.874
 3557TIP3   OH210615   1.649   6.063   4.430
 3557TIP3    H110616   1.714   5.996   4.410
 3557TIP3    H210617   1.696   6.146   4.419
 3558TIP3   OH210618   1.019   7.435   3.875
 3558TIP3    H110619   1.057   7.357   3.915
 3558TIP3    H210620   0.952   7.463   3.937
 3559TIP3   OH210621   6.027   6.517   4.854
 3559TIP3    H110622   5.990   6.429   4.849
 3559TIP3    H210623   6.049   6.529   4.946
 3560TIP3   OH210624   7.097   7.753   4.197
 3560TIP3    H110625   7.101   7.700   4.277
 3560TIP3    H210626   7.134   7.837   4.221
 3561TIP3   OH210627   6.697   0.711   0.818
 3561TIP3    H110628   6.708   0.759   0.901
 3561TIP3    H210629   6.787   0.694   0.789
 3562TIP3   OH210630   5.529   1.517   0.030
 3562TIP3    H110631   5.455   1.547  -0.023
 3562TIP3    H210632   5.594   1.588   0.023
 3563TIP3   OH210633   3.072   4.999   3.800
 3563TIP3    H110634   3.034   4.985   3.886
 3563TIP3    H210635   3.167   4.992   3.813
 3564TIP3   OH210636   5.309   5.507   0.556
 3564TIP3    H110637   5.286   5.418   0.583
 3564TIP3    H210638   5.285   5.562   0.631
 3565TIP3   OH210639   3.142   6.122   3.917
 3565TIP3    H110640   3.170   6.132   4.008
 3565TIP3    H210641   3.106   6.034   3.913
 3566TIP3   OH210642   0.777   3.712   1.813
 3566TIP3    H110643   0.833   3.761   1.753
 3566TIP3    H210644   0.701   3.769   1.827
 3567TIP3   OH210645   1.225   0.334   5.200
 3567TIP3    H110646   1.136   0.369   5.198
 3567TIP3    H210647   1.273   0.394   5.257
 3568TIP3   OH210648   7.694   7.229   1.583
 3568TIP3    H110649   7.721   7.163   1.519
 3568TIP3    H210650   7.667   7.179   1.660
 3569TIP3   OH210651   2.387   6.348   4.344
 3569TIP3    H110652   2.413   6.291   4.272
 3569TIP3    H210653   2.319   6.299   4.390
 3570TIP3   OH210654   1.009   1.944   4.086
 3570TIP3    H110655   1.072   1.918   4.019
 3570TIP3    H210656   0.943   1.875   4.086
 3571TIP3   OH210657   0.422   6.445   3.493
 3571TIP3    H110658   0.461   6.488   3.570
 3571TIP3    H210659   0.404   6.356   3.523
 3572TIP3   OH210660   0.316   6.870   1.049
 3572TIP3    H110661   0.289   6.788   1.090
 3572TIP3    H210662   0.370   6.913   1.116
 3573TIP3   OH210663   5.106   0.291   5.519
 3573TIP3    H110664   5.197   0.265   5.533
 3573TIP3    H210665   5.072   0.226   5.457
 3574TIP3   OH210666   2.224   3.111   2.972
 3574TIP3    H110667   2.216   3.070   3.058
 3574TIP3    H210668   2.138   3.149   2.955
 3575TIP3   OH210669   4.034   5.769   5.170
 3575TIP3    H110670   4.106   5.715   5.138
 3575TIP3    H210671   4.036   5.759   5.265
 3576TIP3   OH210672   1.819   3.151   5.692
 3576TIP3    H110673   1.830   3.181   5.782
 3576TIP3    H210674   1.904   3.167   5.651
 3577TIP3   OH210675   0.333   4.125   4.940
 3577TIP3    H110676   0.380   4.106   5.022
 3577TIP3    H210677   0.368   4.062   4.877
 3578TIP3   OH210678   2.928   7.746   2.867
 3578TIP3    H110679   2.865   7.745   2.795
 3578TIP3    H210680   2.892   7.808   2.929
 3579TIP3   OH210681   7.183   5.050   5.611
 3579TIP3    H110682   7.142   4.969   5.580
 3579TIP3    H210683   7.276   5.038   5.593
 3580TIP3   OH210684   3.294   7.564   1.246
 3580TIP3    H110685   3.294   7.587   1.339
 3580TIP3    H210686   3.224   7.617   1.209
 3581TIP3   OH210687   5.197   5.039   2.764
 3581TIP3    H110688   5.255   4.965   2.781
 3581TIP3    H210689   5.228   5.108   2.823
 3582TIP3   OH210690   7.634   2.638   3.622
 3582TIP3    H110691   7.588   2.679   3.549
 3582TIP3    H210692   7.698   2.580   3.581
 3583TIP3   OH210693   8.274   1.303   1.831
 3583TIP3    H110694   8.354   1.253   1.816
 3583TIP3    H210695   8.203   1.247   1.799
 3584TIP3   OH210696   2.856   6.115   5.701
 3584TIP3    H110697   2.811   6.057   5.763
 3584TIP3    H210698   2.798   6.190   5.692
 3585TIP3   OH210699   2.618   4.184   5.280
 3585TIP3    H110700   2.617   4.247   5.208
 3585TIP3    H210701   2.632   4.237   5.358
 3586TIP3   OH210702   1.527   0.156   3.077
 3586TIP3    H110703   1.554   0.090   3.013
 3586TIP3    H210704   1.593   0.225   3.070
 3587TIP3   OH210705   1.255   6.117   4.779
 3587TIP3    H110706   1.326   6.165   4.736
 3587TIP3    H210707   1.251   6.153   4.867
 3588TIP3   OH210708   4.159   3.066   4.525
 3588TIP3    H110709   4.239   3.103   4.488
 3588TIP3    H210710   4.088   3.118   4.487
 3589TIP3   OH210711   7.185   7.533   1.528
 3589TIP3    H110712   7.278   7.534   1.508
 3589TIP3    H210713   7.170   7.448   1.570
 3590TIP3   OH210714   4.298   1.132   4.619
 3590TIP3    H110715   4.331   1.123   4.709
 3590TIP3    H210716   4.204   1.115   4.626
 3591TIP3   OH210717   5.397   6.532   1.556
 3591TIP3    H110718   5.455   6.578   1.616
 3591TIP3    H210719   5.451   6.463   1.518
 3592TIP3   OH210720   5.263   2.428   3.458
 3592TIP3    H110721   5.337   2.370   3.477
 3592TIP3    H210722   5.186   2.375   3.477
 3593TIP3   OH210723   0.304   3.193   5.109
 3593TIP3    H110724   0.215   3.217   5.086
 3593TIP3    H210725   0.347   3.179   5.025
 3594TIP3   OH210726   6.536   6.746   3.236
 3594TIP3    H110727   6.487   6.780   3.311
 3594TIP3    H210728   6.483   6.671   3.205
 3595TIP3   OH210729   1.860   6.862   2.930
 3595TIP3    H110730   1.949   6.829   2.943
 3595TIP3    H210731   1.809   6.822   3.000
 3596TIP3   OH210732   0.169   3.574   0.387
 3596TIP3    H110733   0.101   3.589   0.321
 3596TIP3    H210734   0.170   3.654   0.440
 3597TIP3   OH210735   7.267   4.462   1.627
 3597TIP3    H110736   7.329   4.390   1.640
 3597TIP3    H210737   7.286   4.495   1.539
 3598TIP3   OH210738   3.923   4.218   5.065
 3598TIP3    H110739   3.946   4.127   5.051
 3598TIP3    H210740   3.951   4.263   4.986
 3599TIP3   OH210741   7.062   5.830   2.386
 3599TIP3    H110742   6.972   5.859   2.400
 3599TIP3    H210743   7.053   5.743   2.347
 3600TIP3   OH210744   6.860   2.595   5.532
 3600TIP3    H110745   6.813   2.552   5.603
 3600TIP3    H210746   6.937   2.539   5.517
 3601TIP3   OH210747   5.814   7.042   0.685
 3601TIP3    H110748   5.877   7.087   0.629
 3601TIP3    H210749   5.730   7.081   0.663
 3602TIP3   OH210750   5.593   6.178   6.445
 3602TIP3    H110751   5.618   6.244   6.380
 3602TIP3    H210752   5.620   6.095   6.406
 3603TIP3   OH210753   4.851   0.654   5.014
 3603TIP3    H110754   4.841   0.672   4.921
 3603TIP3    H210755   4.882   0.737   5.051
 3604TIP3   OH210756   3.110   7.748   3.159
 3604TIP3    H110757   3.146   7.827   3.118
 3604TIP3    H210758   3.184   7.687   3.163
 3605TIP3   OH210759   5.458   6.699   4.613
 3605TIP3    H110760   5.525   6.754   4.654
 3605TIP3    H210761   5.378   6.719   4.662
 3606TIP3   OH210762   6.288   5.866   6.602
 3606TIP3    H110763   6.249   5.844   6.518
 3606TIP3    H210764   6.246   5.949   6.627
 3607TIP3   OH210765   0.567   2.250   3.923
 3607TIP3    H110766   0.607   2.171   3.887
 3607TIP3    H210767   0.546   2.228   4.014
 3608TIP3   OH210768   0.820   1.416   0.437
 3608TIP3    H110769   0.815   1.321   0.429
 3608TIP3    H210770   0.905   1.440   0.401
 3609TIP3   OH210771   0.788   5.261   1.282
 3609TIP3    H110772   0.792   5.238   1.189
 3609TIP3    H210773   0.833   5.346   1.288
 3610TIP3   OH210774   7.160   7.263   0.680
 3610TIP3    H110775   7.191   7.281   0.592
 3610TIP3    H210776   7.072   7.300   0.682
 3611TIP3   OH210777   7.821   3.365   0.552
 3611TIP3    H110778   7.894   3.335   0.498
 3611TIP3    H210779   7.842   3.455   0.575
 3612TIP3   OH210780   4.983   5.155   5.356
 3612TIP3    H110781   4.953   5.122   5.271
 3612TIP3    H210782   4.935   5.236   5.369
 3613TIP3   OH210783   1.280   6.507   4.118
 3613TIP3    H110784   1.370   6.523   4.088
 3613TIP3    H210785   1.270   6.412   4.109
 3614TIP3   OH210786   2.172   0.478   1.077
 3614TIP3    H110787   2.234   0.439   1.015
 3614TIP3    H210788   2.193   0.435   1.161
 3615TIP3   OH210789   6.674   1.860   2.244
 3615TIP3    H110790   6.667   1.909   2.162
 3615TIP3    H210791   6.635   1.917   2.310
 3616TIP3   OH210792   1.875   6.204   5.526
 3616TIP3    H110793   1.938   6.206   5.455
 3616TIP3    H210794   1.866   6.111   5.547
 3617TIP3   OH210795   0.953   4.561   0.739
 3617TIP3    H110796   0.882   4.623   0.725
 3617TIP3    H210797   1.032   4.608   0.710
 3618TIP3   OH210798   4.353   3.507   4.232
 3618TIP3    H110799   4.310   3.591   4.219
 3618TIP3    H210800   4.333   3.484   4.323
 3619TIP3   OH210801   7.338   3.460   5.866
 3619TIP3    H110802   7.326   3.381   5.920
 3619TIP3    H210803   7.305   3.435   5.780
 3620TIP3   OH210804   3.946   3.996   1.138
 3620TIP3    H110805   3.880   3.931   1.116
 3620TIP3    H210806   3.985   3.964   1.220
 3621TIP3   OH210807   3.596   4.529   3.493
 3621TIP3    H110808   3.593   4.489   3.406
 3621TIP3    H210809   3.591   4.455   3.553
 3622TIP3   OH210810   3.687   0.482  -0.028
 3622TIP3    H110811   3.716   0.471   0.063
 3622TIP3    H210812   3.596   0.512  -0.020
 3623TIP3   OH210813   3.454   4.277   0.225
 3623TIP3    H110814   3.370   4.324   0.222
 3623TIP3    H210815   3.512   4.329   0.169
 3624TIP3   OH210816   2.540   2.630   4.384
 3624TIP3    H110817   2.583   2.704   4.429
 3624TIP3    H210818   2.448   2.655   4.380
 3625TIP3   OH210819   1.159   4.982   2.538
 3625TIP3    H110820   1.202   4.908   2.495
 3625TIP3    H210821   1.069   4.953   2.549
 3626TIP3   OH210822   0.796   5.342   6.484
 3626TIP3    H110823   0.883   5.382   6.478
 3626TIP3    H210824   0.755   5.364   6.400
 3627TIP3   OH210825   4.389   6.771   2.928
 3627TIP3    H110826   4.312   6.730   2.887
 3627TIP3    H210827   4.461   6.749   2.869
 3628TIP3   OH210828   5.530   3.010   1.781
 3628TIP3    H110829   5.468   2.979   1.715
 3628TIP3    H210830   5.614   3.013   1.736
 3629TIP3   OH210831   2.031   5.808   6.072
 3629TIP3    H110832   1.987   5.726   6.051
 3629TIP3    H210833   1.961   5.873   6.077
 3630TIP3   OH210834   7.502   5.431   5.993
 3630TIP3    H110835   7.578   5.389   6.032
 3630TIP3    H210836   7.536   5.479   5.918
 3631TIP3   OH210837   5.957   4.151   5.179
 3631TIP3    H110838   5.954   4.166   5.084
 3631TIP3    H210839   6.017   4.218   5.212
 3632TIP3   OH210840   4.946   5.708   0.359
 3632TIP3    H110841   4.992   5.790   0.375
 3632TIP3    H210842   5.014   5.648   0.330
 3633TIP3   OH210843   3.245   3.172   3.149
 3633TIP3    H110844   3.339   3.178   3.166
 3633TIP3    H210845   3.236   3.094   3.094
 3634TIP3   OH210846   4.630   7.652   1.558
 3634TIP3    H110847   4.606   7.561   1.573
 3634TIP3    H210848   4.715   7.646   1.514
 3635TIP3   OH210849   1.433   6.385   5.811
 3635TIP3    H110850   1.432   6.350   5.722
 3635TIP3    H210851   1.341   6.387   5.837
 3636TIP3   OH210852   1.378   0.991   4.170
 3636TIP3    H110853   1.379   0.975   4.075
 3636TIP3    H210854   1.316   0.927   4.205
 3637TIP3   OH210855   2.126   5.649   0.257
 3637TIP3    H110856   2.068   5.657   0.181
 3637TIP3    H210857   2.085   5.581   0.311
 3638TIP3   OH210858   5.957   1.121   3.905
 3638TIP3    H110859   5.974   1.087   3.993
 3638TIP3    H210860   6.002   1.206   3.903
 3639TIP3   OH210861   7.497   3.058   4.865
 3639TIP3    H110862   7.415   3.048   4.817
 3639TIP3    H210863   7.470   3.076   4.955
 3640TIP3   OH210864   7.167   3.997   5.091
 3640TIP3    H110865   7.123   4.004   5.175
 3640TIP3    H210866   7.204   3.909   5.090
 3641TIP3   OH210867   5.328   6.937   6.599
 3641TIP3    H110868   5.327   6.896   6.686
 3641TIP3    H210869   5.313   6.864   6.538
 3642TIP3   OH210870   4.370   0.412   0.493
 3642TIP3    H110871   4.409   0.341   0.544
 3642TIP3    H210872   4.277   0.388   0.488
 3643TIP3   OH210873   0.961   6.646   4.531
 3643TIP3    H110874   1.042   6.652   4.481
 3643TIP3    H210875   0.915   6.728   4.512
 3644TIP3   OH210876   1.658   3.465   3.233
 3644TIP3    H110877   1.598   3.538   3.221
 3644TIP3    H210878   1.601   3.388   3.233
 3645TIP3   OH210879   6.658   6.171   3.439
 3645TIP3    H110880   6.662   6.106   3.509
 3645TIP3    H210881   6.748   6.176   3.405
 3646TIP3   OH210882   6.830   7.052   4.976
 3646TIP3    H110883   6.892   7.038   5.048
 3646TIP3    H210884   6.744   7.038   5.015
 3647TIP3   OH210885   6.900   5.099   2.463
 3647TIP3    H110886   6.825   5.060   2.509
 3647TIP3    H210887   6.910   5.185   2.504
 3648TIP3   OH210888   1.472   0.400   4.236
 3648TIP3    H110889   1.514   0.486   4.240
 3648TIP3    H210890   1.393   0.413   4.183
 3649TIP3   OH210891   0.320   2.772   5.971
 3649TIP3    H110892   0.253   2.704   5.963
 3649TIP3    H210893   0.273   2.853   5.952
 3650TIP3   OH210894   3.339   1.030   1.024
 3650TIP3    H110895   3.273   1.099   1.030
 3650TIP3    H210896   3.423   1.076   1.027
 3651TIP3   OH210897   1.734   7.071   0.571
 3651TIP3    H110898   1.801   7.003   0.561
 3651TIP3    H210899   1.779   7.143   0.615
 3652TIP3   OH210900   5.919   6.688   6.544
 3652TIP3    H110901   5.842   6.668   6.490
 3652TIP3    H210902   5.894   6.660   6.632
 3653TIP3   OH210903   0.128   4.126   1.947
 3653TIP3    H110904   0.058   4.173   1.902
 3653TIP3    H210905   0.126   4.159   2.037
 3654TIP3   OH210906   2.090   2.098   0.520
 3654TIP3    H110907   2.133   2.026   0.474
 3654TIP3    H210908   2.155   2.168   0.522
 3655TIP3   OH210909   7.816   3.706   1.577
 3655TIP3    H110910   7.863   3.660   1.647
 3655TIP3    H210911   7.866   3.787   1.565
 3656TIP3   OH210912   6.752   0.415   0.822
 3656TIP3    H110913   6.765   0.460   0.905
 3656TIP3    H210914   6.749   0.322   0.846
 3657TIP3   OH210915   1.603   1.259   4.136
 3657TIP3    H110916   1.644   1.217   4.211
 3657TIP3    H210917   1.584   1.188   4.076
 3658TIP3   OH210918   0.447   2.844   0.930
 3658TIP3    H110919   0.396   2.835   1.010
 3658TIP3    H210920   0.535   2.815   0.954
 3659TIP3   OH210921   1.272   6.429   0.251
 3659TIP3    H110922   1.336   6.379   0.301
 3659TIP3    H210923   1.188   6.406   0.290
 3660TIP3   OH210924   0.822   5.381   2.620
 3660TIP3    H110925   0.865   5.308   2.664
 3660TIP3    H210926   0.888   5.413   2.558
 3661TIP3   OH210927   7.867   2.080   4.906
 3661TIP3    H110928   7.913   2.027   4.841
 3661TIP3    H210929   7.795   2.024   4.935
 3662TIP3   OH210930   4.880   0.075   2.192
 3662TIP3    H110931   4.795   0.064   2.150
 3662TIP3    H210932   4.912   0.160   2.159
 3663TIP3   OH210933   2.253   4.177   3.320
 3663TIP3    H110934   2.317   4.108   3.307
 3663TIP3    H210935   2.304   4.258   3.319
 3664TIP3   OH210936   3.406   4.751   3.548
 3664TIP3    H110937   3.484   4.723   3.499
 3664TIP3    H210938   3.411   4.701   3.630
 3665TIP3   OH210939   6.258   0.422   5.363
 3665TIP3    H110940   6.288   0.466   5.283
 3665TIP3    H210941   6.299   0.336   5.360
 3666TIP3   OH210942   5.858   6.246   5.224
 3666TIP3    H110943   5.766   6.223   5.216
 3666TIP3    H210944   5.895   6.182   5.284
 3667TIP3   OH210945   4.170   3.452   6.313
 3667TIP3    H110946   4.163   3.542   6.281
 3667TIP3    H210947   4.081   3.417   6.303
 3668TIP3   OH210948   7.492   5.555   1.720
 3668TIP3    H110949   7.566   5.513   1.764
 3668TIP3    H210950   7.455   5.486   1.664
 3669TIP3   OH210951   5.550   7.017   4.438
 3669TIP3    H110952   5.586   7.084   4.381
 3669TIP3    H210953   5.513   7.065   4.512
 3670TIP3   OH210954   6.239   0.350   2.875
 3670TIP3    H110955   6.237   0.270   2.822
 3670TIP3    H210956   6.308   0.403   2.836
 3671TIP3   OH210957   2.754   6.047   6.251
 3671TIP3    H110958   2.663   6.041   6.222
 3671TIP3    H210959   2.754   6.120   6.313
 3672TIP3   OH210960   2.422   0.075   2.559
 3672TIP3    H110961   2.391   0.015   2.492
 3672TIP3    H210962   2.400   0.162   2.525
 3673TIP3   OH210963   4.284   5.636   5.090
 3673TIP3    H110964   4.285   5.610   4.998
 3673TIP3    H210965   4.373   5.666   5.109
 3674TIP3   OH210966   4.291   7.502   4.872
 3674TIP3    H110967   4.296   7.520   4.778
 3674TIP3    H210968   4.279   7.588   4.912
 3675TIP3   OH210969   3.283   1.345   5.123
 3675TIP3    H110970   3.202   1.300   5.146
 3675TIP3    H210971   3.255   1.413   5.061
 3676TIP3   OH210972   7.411   0.415   0.058
 3676TIP3    H110973   7.506   0.403   0.066
 3676TIP3    H210974   7.378   0.330   0.032
 3677TIP3   OH210975   3.085   5.094   2.338
 3677TIP3    H110976   3.122   5.080   2.251
 3677TIP3    H210977   3.074   5.005   2.373
 3678TIP3   OH210978   4.517   4.682   1.317
 3678TIP3    H110979   4.453   4.740   1.276
 3678TIP3    H210980   4.594   4.686   1.260
 3679TIP3   OH210981   4.008   7.104   1.104
 3679TIP3    H110982   3.943   7.068   1.164
 3679TIP3    H210983   4.039   7.028   1.054
 3680TIP3   OH210984   8.252   2.301   4.427
 3680TIP3    H110985   8.171   2.298   4.376
 3680TIP3    H210986   8.264   2.211   4.458
 3681TIP3   OH210987   4.034   3.617   4.069
 3681TIP3    H110988   4.118   3.593   4.029
 3681TIP3    H210989   4.013   3.703   4.032
 3682TIP3   OH210990   6.176   4.023   5.797
 3682TIP3    H110991   6.100   4.028   5.739
 3682TIP3    H210992   6.249   4.053   5.744
 3683TIP3   OH210993   7.360   5.941   0.415
 3683TIP3    H110994   7.339   5.947   0.322
 3683TIP3    H210995   7.336   6.026   0.451
 3684TIP3   OH210996   7.659   2.134   5.264
 3684TIP3    H110997   7.621   2.077   5.198
 3684TIP3    H210998   7.749   2.149   5.233
 3685TIP3   OH210999   1.716   0.746   2.553
 3685TIP3    H111000   1.666   0.798   2.616
 3685TIP3    H211001   1.748   0.672   2.605
 3686TIP3   OH211002   7.150   1.600   3.493
 3686TIP3    H111003   7.069   1.590   3.544
 3686TIP3    H211004   7.128   1.566   3.407
 3687TIP3   OH211005   3.246   5.710   1.550
 3687TIP3    H111006   3.215   5.801   1.548
 3687TIP3    H211007   3.341   5.718   1.562
 3688TIP3   OH211008   3.948   6.310   1.981
 3688TIP3    H111009   3.993   6.324   2.064
 3688TIP3    H211010   3.877   6.249   2.002
 3689TIP3   OH211011   5.062   6.431   4.335
 3689TIP3    H111012   5.081   6.459   4.425
 3689TIP3    H211013   5.123   6.481   4.281
 3690TIP3   OH211014   5.756   5.564   2.189
 3690TIP3    H111015   5.796   5.495   2.137
 3690TIP3    H211016   5.801   5.644   2.162
 3691TIP3   OH211017   3.762   1.200   1.172
 3691TIP3    H111018   3.768   1.287   1.212
 3691TIP3    H211019   3.850   1.184   1.137
 3692TIP3   OH211020   2.704   3.283   0.075
 3692TIP3    H111021   2.683   3.286  -0.019
 3692TIP3    H211022   2.738   3.194   0.089
 3693TIP3   OH211023   6.336   7.718   5.268
 3693TIP3    H111024   6.430   7.731   5.255
 3693TIP3    H211025   6.330   7.677   5.354
 3694TIP3   OH211026   0.234   0.788   3.624
 3694TIP3    H111027   0.250   0.696   3.644
 3694TIP3    H211028   0.314   0.817   3.580
 3695TIP3   OH211029   3.641   2.439   5.570
 3695TIP3    H111030   3.568   2.468   5.516
 3695TIP3    H211031   3.638   2.495   5.648
 3696TIP3   OH211032   5.178   1.265   5.154
 3696TIP3    H111033   5.244   1.333   5.165
 3696TIP3    H211034   5.096   1.313   5.138
 3697TIP3   OH211035   1.173   6.429   1.398
 3697TIP3    H111036   1.256   6.397   1.362
 3697TIP3    H211037   1.133   6.478   1.327
 3698TIP3   OH211038   1.547   7.135   2.447
 3698TIP3    H111039   1.604   7.100   2.379
 3698TIP3    H211040   1.513   7.058   2.491
 3699TIP3   OH211041   7.052   3.204   3.278
 3699TIP3    H111042   7.054   3.148   3.355
 3699TIP3    H211043   6.961   3.200   3.247
 3700TIP3   OH211044   0.399   0.539   3.565
 3700TIP3    H111045   0.432   0.525   3.654
 3700TIP3    H211046   0.311   0.502   3.565
 3701TIP3   OH211047   6.026   5.036   5.808
 3701TIP3    H111048   5.971   5.072   5.738
 3701TIP3    H211049   6.108   5.012   5.765
 3702TIP3   OH211050   6.057   7.297   0.913
 3702TIP3    H111051   6.036   7.233   0.981
 3702TIP3    H211052   5.973   7.315   0.870
 3703TIP3   OH211053   0.132   0.774   5.762
 3703TIP3    H111054   0.108   0.682   5.772
 3703TIP3    H211055   0.076   0.805   5.691
 3704TIP3   OH211056   8.000   7.642   4.155
 3704TIP3    H111057   7.995   7.738   4.152
 3704TIP3    H211058   7.948   7.618   4.232
 3705TIP3   OH211059   4.643   4.430   3.760
 3705TIP3    H111060   4.614   4.340   3.746
 3705TIP3    H211061   4.737   4.422   3.776
 3706TIP3   OH211062   1.547   5.720   2.375
 3706TIP3    H111063   1.632   5.717   2.418
 3706TIP3    H211064   1.567   5.724   2.281
 3707TIP3   OH211065   7.570   3.967   4.742
 3707TIP3    H111066   7.642   3.926   4.694
 3707TIP3    H211067   7.505   3.898   4.752
 3708TIP3   OH211068   0.058   0.590   6.523
 3708TIP3    H111069   0.073   0.595   6.617
 3708TIP3    H211070   0.108   0.514   6.494
 3709TIP3   OH211071   7.033   7.162   0.253
 3709TIP3    H111072   6.961   7.225   0.261
 3709TIP3    H211073   7.000   7.096   0.193
 3710TIP3   OH211074   7.463   6.215   1.876
 3710TIP3    H111075   7.392   6.154   1.894
 3710TIP3    H211076   7.449   6.242   1.785
 3711TIP3   OH211077   1.102   1.653   3.038
 3711TIP3    H111078   1.038   1.608   2.984
 3711TIP3    H211079   1.146   1.583   3.087
 3712TIP3   OH211080   3.721   2.654   1.413
 3712TIP3    H111081   3.800   2.681   1.461
 3712TIP3    H211082   3.674   2.597   1.474
 3713TIP3   OH211083   3.822   1.750   6.070
 3713TIP3    H111084   3.826   1.655   6.060
 3713TIP3    H211085   3.880   1.784   6.002
 3714TIP3   OH211086   7.202   0.064   4.186
 3714TIP3    H111087   7.117   0.101   4.164
 3714TIP3    H211088   7.185   0.008   4.262
 3715TIP3   OH211089   0.539   0.450   2.676
 3715TIP3    H111090   0.620   0.467   2.628
 3715TIP3    H211091   0.505   0.536   2.697
 3716TIP3   OH211092   3.185   3.952   5.839
 3716TIP3    H111093   3.131   3.919   5.767
 3716TIP3    H211094   3.169   4.046   5.839
 3717TIP3   OH211095   2.091   0.276   2.487
 3717TIP3    H111096   2.158   0.337   2.456
 3717TIP3    H211097   2.089   0.288   2.582
 3718TIP3   OH211098   5.503   0.955   6.132
 3718TIP3    H111099   5.441   0.907   6.188
 3718TIP3    H211100   5.588   0.940   6.173
 3719TIP3   OH211101   5.000   3.933   5.034
 3719TIP3    H111102   4.952   3.938   5.117
 3719TIP3    H211103   5.059   4.009   5.037
 3720TIP3   OH211104   7.685   3.774   1.925
 3720TIP3    H111105   7.663   3.854   1.878
 3720TIP3    H211106   7.751   3.800   1.989
 3721TIP3   OH211107   5.820   2.324   0.893
 3721TIP3    H111108   5.853   2.291   0.810
 3721TIP3    H211109   5.726   2.334   0.879
 3722TIP3   OH211110   5.581   2.909   0.757
 3722TIP3    H111111   5.512   2.932   0.819
 3722TIP3    H211112   5.564   2.965   0.681
 3723TIP3   OH211113   1.293   5.305   0.077
 3723TIP3    H111114   1.228   5.287   0.145
 3723TIP3    H211115   1.349   5.228   0.075
 3724TIP3   OH211116   6.532   6.560   6.107
 3724TIP3    H111117   6.599   6.507   6.064
 3724TIP3    H211118   6.523   6.521   6.195
 3725TIP3   OH211119   6.816   3.912   2.767
 3725TIP3    H111120   6.873   3.914   2.844
 3725TIP3    H211121   6.823   4.000   2.730
 3726TIP3   OH211122   7.621   6.329   3.879
 3726TIP3    H111123   7.559   6.319   3.807
 3726TIP3    H211124   7.675   6.404   3.853
 3727TIP3   OH211125   5.394   5.460   6.009
 3727TIP3    H111126   5.486   5.432   6.012
 3727TIP3    H211127   5.361   5.447   6.098
 3728TIP3   OH211128   5.408   7.085   1.579
 3728TIP3    H111129   5.439   7.127   1.659
 3728TIP3    H211130   5.426   7.149   1.510
 3729TIP3   OH211131   0.207   1.429   5.822
 3729TIP3    H111132   0.173   1.342   5.803
 3729TIP3    H211133   0.140   1.488   5.788
 3730TIP3   OH211134   2.037   0.186   6.391
 3730TIP3    H111135   1.989   0.269   6.387
 3730TIP3    H211136   2.052   0.163   6.299
 3731TIP3   OH211137   6.037   0.106   2.006
 3731TIP3    H111138   6.092   0.169   1.959
 3731TIP3    H211139   6.006   0.046   1.939
 3732TIP3   OH211140   6.495   3.316   5.869
 3732TIP3    H111141   6.494   3.408   5.896
 3732TIP3    H211142   6.557   3.274   5.929
 3733TIP3   OH211143   7.709   1.158   0.583
 3733TIP3    H111144   7.782   1.096   0.579
 3733TIP3    H211145   7.712   1.204   0.499
 3734TIP3   OH211146   7.885   3.609   4.969
 3734TIP3    H111147   7.958   3.548   4.975
 3734TIP3    H211148   7.921   3.686   4.926
 3735TIP3   OH211149   0.405   1.561   1.502
 3735TIP3    H111150   0.419   1.629   1.568
 3735TIP3    H211151   0.322   1.520   1.527
 3736TIP3   OH211152   6.788   0.832   4.575
 3736TIP3    H111153   6.712   0.822   4.518
 3736TIP3    H211154   6.756   0.879   4.652
 3737TIP3   OH211155   5.779   1.717   5.261
 3737TIP3    H111156   5.741   1.754   5.340
 3737TIP3    H211157   5.854   1.667   5.291
 3738TIP3   OH211158   2.358   0.664   6.578
 3738TIP3    H111159   2.307   0.630   6.651
 3738TIP3    H211160   2.434   0.606   6.573
 3739TIP3   OH211161   4.602   4.080   6.527
 3739TIP3    H111162   4.569   4.012   6.585
 3739TIP3    H211163   4.618   4.155   6.585
 3740TIP3   OH211164   8.102   7.698   2.665
 3740TIP3    H111165   8.036   7.629   2.667
 3740TIP3    H211166   8.052   7.779   2.652
 3741TIP3   OH211167   8.160   7.737   3.011
 3741TIP3    H111168   8.130   7.703   3.095
 3741TIP3    H211169   8.255   7.748   3.022
 3742TIP3   OH211170   3.868   6.001   6.062
 3742TIP3    H111171   3.959   5.994   6.032
 3742TIP3    H211172   3.835   6.081   6.020
 3743TIP3   OH211173   7.908   3.904   0.419
 3743TIP3    H111174   7.911   3.909   0.514
 3743TIP3    H211175   8.000   3.913   0.392
 3744TIP3   OH211176   4.284   6.250   1.052
 3744TIP3    H111177   4.229   6.310   1.002
 3744TIP3    H211178   4.224   6.188   1.091
 3745TIP3   OH211179   0.655   7.370   2.471
 3745TIP3    H111180   0.672   7.279   2.495
 3745TIP3    H211181   0.715   7.421   2.525
 3746TIP3   OH211182   7.966   3.391   4.409
 3746TIP3    H111183   7.992   3.401   4.500
 3746TIP3    H211184   8.044   3.356   4.366
 3747TIP3   OH211185   3.600   0.688   5.868
 3747TIP3    H111186   3.556   0.763   5.908
 3747TIP3    H211187   3.687   0.721   5.844
 3748TIP3   OH211188   1.977   7.565   6.494
 3748TIP3    H111189   1.968   7.538   6.586
 3748TIP3    H211190   1.969   7.483   6.445
 3749TIP3   OH211191   1.092   4.737   2.813
 3749TIP3    H111192   1.060   4.691   2.890
 3749TIP3    H211193   1.013   4.776   2.774
 3750TIP3   OH211194   0.596   5.546   5.549
 3750TIP3    H111195   0.531   5.478   5.534
 3750TIP3    H211196   0.622   5.535   5.641
 3751TIP3   OH211197   5.400   2.441   5.861
 3751TIP3    H111198   5.324   2.491   5.832
 3751TIP3    H211199   5.472   2.473   5.807
 3752TIP3   OH211200   2.556   3.696   5.438
 3752TIP3    H111201   2.573   3.779   5.393
 3752TIP3    H211202   2.466   3.673   5.413
 3753TIP3   OH211203   8.142   1.361   6.648
 3753TIP3    H111204   8.189   1.414   6.584
 3753TIP3    H211205   8.193   1.370   6.729
 3754TIP3   OH211206   0.723   2.108   5.791
 3754TIP3    H111207   0.689   2.180   5.844
 3754TIP3    H211208   0.768   2.150   5.718
 3755TIP3   OH211209   8.326   3.720   6.484
 3755TIP3    H111210   8.397   3.741   6.424
 3755TIP3    H211211   8.247   3.752   6.441
 3756TIP3   OH211212   8.254   5.847   3.850
 3756TIP3    H111213   8.309   5.854   3.772
 3756TIP3    H211214   8.228   5.755   3.853
 3757TIP3   OH211215   6.927   0.376   6.105
 3757TIP3    H111216   6.844   0.349   6.143
 3757TIP3    H211217   6.911   0.377   6.011
 3758TIP3   OH211218   2.694   5.283   1.604
 3758TIP3    H111219   2.728   5.370   1.629
 3758TIP3    H211220   2.638   5.301   1.529
 3759TIP3   OH211221   3.852   1.507   3.830
 3759TIP3    H111222   3.939   1.503   3.790
 3759TIP3    H211223   3.869   1.502   3.924
 3760TIP3   OH211224   4.240   1.199   4.134
 3760TIP3    H111225   4.264   1.106   4.139
 3760TIP3    H211226   4.166   1.209   4.193
 3761TIP3   OH211227   1.624   1.231   2.363
 3761TIP3    H111228   1.590   1.276   2.441
 3761TIP3    H211229   1.556   1.168   2.340
 3762TIP3   OH211230   3.170   7.694   4.666
 3762TIP3    H111231   3.198   7.715   4.577
 3762TIP3    H211232   3.245   7.651   4.706
 3763TIP3   OH211233   0.118   3.824   2.922
 3763TIP3    H111234   0.199   3.875   2.921
 3763TIP3    H211235   0.084   3.832   2.833
 3764TIP3   OH211236   7.606   1.727   4.035
 3764TIP3    H111237   7.668   1.717   3.962
 3764TIP3    H211238   7.658   1.707   4.113
 3765TIP3   OH211239   4.181   3.379   2.056
 3765TIP3    H111240   4.119   3.315   2.091
 3765TIP3    H211241   4.230   3.408   2.133
 3766TIP3   OH211242   7.994   6.774   0.770
 3766TIP3    H111243   7.950   6.732   0.844
 3766TIP3    H211244   7.929   6.835   0.736
 3767TIP3   OH211245   5.769   5.799   1.206
 3767TIP3    H111246   5.748   5.712   1.174
 3767TIP3    H211247   5.732   5.802   1.294
 3768TIP3   OH211248   4.232   7.329   5.082
 3768TIP3    H111249   4.228   7.371   4.996
 3768TIP3    H211250   4.160   7.266   5.082
 3769TIP3   OH211251   5.995   0.886   4.991
 3769TIP3    H111252   6.047   0.962   5.017
 3769TIP3    H211253   5.998   0.887   4.895
 3770TIP3   OH211254   0.579   3.596   5.875
 3770TIP3    H111255   0.655   3.543   5.851
 3770TIP3    H211256   0.559   3.570   5.965
 3771TIP3   OH211257   0.809   3.026   1.914
 3771TIP3    H111258   0.797   3.100   1.973
 3771TIP3    H211259   0.867   3.059   1.845
 3772TIP3   OH211260   5.704   0.285   4.769
 3772TIP3    H111261   5.770   0.239   4.821
 3772TIP3    H211262   5.717   0.253   4.679
 3773TIP3   OH211263   8.242   1.670   6.684
 3773TIP3    H111264   8.274   1.613   6.614
 3773TIP3    H211265   8.252   1.758   6.650
 3774TIP3   OH211266   7.659   0.170   1.816
 3774TIP3    H111267   7.636   0.173   1.723
 3774TIP3    H211268   7.584   0.211   1.860
 3775TIP3   OH211269   6.781   7.642   6.520
 3775TIP3    H111270   6.769   7.555   6.483
 3775TIP3    H211271   6.781   7.628   6.615
 3776TIP3   OH211272   3.345   2.349   6.293
 3776TIP3    H111273   3.360   2.443   6.302
 3776TIP3    H211274   3.428   2.309   6.319
 3777TIP3   OH211275   0.538   4.429   2.880
 3777TIP3    H111276   0.623   4.385   2.872
 3777TIP3    H211277   0.486   4.392   2.808
 3778TIP3   OH211278   3.482   7.626   0.221
 3778TIP3    H111279   3.535   7.604   0.144
 3778TIP3    H211280   3.514   7.712   0.247
 3779TIP3   OH211281   7.306   4.216   0.376
 3779TIP3    H111282   7.369   4.274   0.333
 3779TIP3    H211283   7.320   4.130   0.335
 3780TIP3   OH211284   5.859   3.041   6.332
 3780TIP3    H111285   5.912   2.979   6.282
 3780TIP3    H211286   5.775   2.997   6.342
 3781TIP3   OH211287   2.747   0.708   3.646
 3781TIP3    H111288   2.808   0.717   3.573
 3781TIP3    H211289   2.665   0.677   3.606
 3782TIP3   OH211290   3.081   5.105   5.560
 3782TIP3    H111291   3.054   5.194   5.538
 3782TIP3    H211292   3.168   5.096   5.522
 3783TIP3   OH211293   5.402   4.101   6.392
 3783TIP3    H111294   5.387   4.007   6.395
 3783TIP3    H211295   5.386   4.131   6.482
 3784TIP3   OH211296   1.453   5.181   3.421
 3784TIP3    H111297   1.496   5.266   3.421
 3784TIP3    H211298   1.495   5.133   3.493
 3785TIP3   OH211299   5.781   3.456   6.545
 3785TIP3    H111300   5.815   3.478   6.631
 3785TIP3    H211301   5.727   3.531   6.520
 3786TIP3   OH211302   5.422   2.688   3.540
 3786TIP3    H111303   5.361   2.731   3.601
 3786TIP3    H211304   5.397   2.595   3.544
 3787TIP3   OH211305   1.745   1.521   2.065
 3787TIP3    H111306   1.737   1.484   1.977
 3787TIP3    H211307   1.747   1.446   2.124
 3788TIP3   OH211308   4.143   2.142   1.370
 3788TIP3    H111309   4.110   2.224   1.332
 3788TIP3    H211310   4.234   2.138   1.339
 3789TIP3   OH211311   3.832   6.840   6.705
 3789TIP3    H111312   3.851   6.802   6.619
 3789TIP3    H211313   3.827   6.934   6.689
 3790TIP3   OH211314   3.252   6.951   3.513
 3790TIP3    H111315   3.199   6.966   3.592
 3790TIP3    H211316   3.258   6.856   3.507
 3791TIP3   OH211317   2.597   5.779   1.032
 3791TIP3    H111318   2.577   5.685   1.036
 3791TIP3    H211319   2.653   5.788   0.956
 3792TIP3   OH211320   5.919   6.029   0.771
 3792TIP3    H111321   5.887   6.042   0.860
 3792TIP3    H211322   5.850   5.981   0.727
 3793TIP3   OH211323   0.471   6.386   5.701
 3793TIP3    H111324   0.450   6.328   5.629
 3793TIP3    H211325   0.525   6.333   5.760
 3794TIP3   OH211326   5.153   5.648   2.175
 3794TIP3    H111327   5.091   5.577   2.161
 3794TIP3    H211328   5.165   5.651   2.270
 3795TIP3   OH211329   6.828   5.627   6.787
 3795TIP3    H111330   6.833   5.581   6.703
 3795TIP3    H211331   6.861   5.715   6.769
 3796TIP3   OH211332   4.794   4.266   2.630
 3796TIP3    H111333   4.819   4.357   2.616
 3796TIP3    H211334   4.789   4.228   2.542
 3797TIP3   OH211335   8.063   0.547   0.345
 3797TIP3    H111336   8.083   0.597   0.425
 3797TIP3    H211337   8.105   0.462   0.360
 3798TIP3   OH211338   0.966   4.726   2.321
 3798TIP3    H111339   0.932   4.814   2.307
 3798TIP3    H211340   1.059   4.738   2.340
 3799TIP3   OH211341   7.911   3.857   6.375
 3799TIP3    H111342   8.004   3.868   6.394
 3799TIP3    H211343   7.873   3.943   6.391
 3800TIP3   OH211344   7.614   4.012   3.699
 3800TIP3    H111345   7.532   3.974   3.669
 3800TIP3    H211346   7.631   3.969   3.783
 3801TIP3   OH211347   2.731   7.853   4.141
 3801TIP3    H111348   2.729   7.763   4.109
 3801TIP3    H211349   2.823   7.878   4.138
 3802TIP3   OH211350   4.121   7.507   4.501
 3802TIP3    H111351   4.087   7.524   4.413
 3802TIP3    H211352   4.145   7.593   4.535
 3803TIP3   OH211353   0.814   4.586   3.903
 3803TIP3    H111354   0.888   4.609   3.960
 3803TIP3    H211355   0.809   4.491   3.907
 3804TIP3   OH211356   1.813   4.681   1.635
 3804TIP3    H111357   1.815   4.762   1.687
 3804TIP3    H211358   1.891   4.634   1.662
 3805TIP3   OH211359   0.360   7.339   2.392
 3805TIP3    H111360   0.453   7.351   2.374
 3805TIP3    H211361   0.318   7.347   2.307
 3806TIP3   OH211362   0.109   4.208   2.232
 3806TIP3    H111363   0.177   4.270   2.258
 3806TIP3    H211364   0.027   4.257   2.244
 3807TIP3   OH211365   4.016   7.073   2.056
 3807TIP3    H111366   4.014   7.070   1.961
 3807TIP3    H211367   4.071   7.149   2.077
 3808TIP3   OH211368   1.860   7.714   0.909
 3808TIP3    H111369   1.919   7.705   0.834
 3808TIP3    H211370   1.823   7.627   0.920
 3809TIP3   OH211371   1.163   6.301   5.897
 3809TIP3    H111372   1.148   6.211   5.867
 3809TIP3    H211373   1.081   6.325   5.941
 3810TIP3   OH211374   3.020   5.516   0.447
 3810TIP3    H111375   3.014   5.518   0.352
 3810TIP3    H211376   2.929   5.515   0.477
 3811TIP3   OH211377   3.252   0.846   5.609
 3811TIP3    H111378   3.305   0.767   5.620
 3811TIP3    H211379   3.172   0.815   5.567
 3812TIP3   OH211380   4.970   0.463   6.695
 3812TIP3    H111381   4.921   0.408   6.633
 3812TIP3    H211382   4.999   0.402   6.763
 3813TIP3   OH211383   3.098   2.840   4.812
 3813TIP3    H111384   3.079   2.784   4.887
 3813TIP3    H211385   3.183   2.810   4.781
 3814TIP3   OH211386   0.299   1.221   2.497
 3814TIP3    H111387   0.282   1.129   2.517
 3814TIP3    H211388   0.386   1.238   2.533
 3815TIP3   OH211389   4.423   3.975   3.082
 3815TIP3    H111390   4.517   3.977   3.098
 3815TIP3    H211391   4.390   3.910   3.144
 3816TIP3   OH211392   4.259   2.509   4.223
 3816TIP3    H111393   4.266   2.567   4.299
 3816TIP3    H211394   4.188   2.449   4.246
 3817TIP3   OH211395   7.908   5.997   3.481
 3817TIP3    H111396   7.853   6.027   3.408
 3817TIP3    H211397   7.891   6.059   3.551
 3818TIP3   OH211398   6.398   4.226   6.105
 3818TIP3    H111399   6.418   4.270   6.022
 3818TIP3    H211400   6.331   4.160   6.082
 3819TIP3   OH211401   3.770   1.093   0.094
 3819TIP3    H111402   3.862   1.115   0.102
 3819TIP3    H211403   3.748   1.110   0.003
 3820TIP3   OH211404   0.766   2.669   1.608
 3820TIP3    H111405   0.818   2.700   1.682
 3820TIP3    H211406   0.675   2.679   1.636
 3821TIP3   OH211407   2.948   2.196   1.572
 3821TIP3    H111408   2.959   2.115   1.622
 3821TIP3    H211409   2.982   2.175   1.485
 3822TIP3   OH211410   4.816   0.494   1.268
 3822TIP3    H111411   4.776   0.427   1.214
 3822TIP3    H211412   4.872   0.544   1.208
 3823TIP3   OH211413   2.390   2.969   0.305
 3823TIP3    H111414   2.374   2.899   0.368
 3823TIP3    H211415   2.421   3.042   0.358
 3824TIP3   OH211416   2.497   6.098   3.725
 3824TIP3    H111417   2.530   6.034   3.788
 3824TIP3    H211418   2.458   6.045   3.656
 3825TIP3   OH211419   5.820   1.826   4.560
 3825TIP3    H111420   5.914   1.823   4.543
 3825TIP3    H211421   5.781   1.787   4.482
 3826TIP3   OH211422   2.898   3.776   0.978
 3826TIP3    H111423   2.818   3.775   0.925
 3826TIP3    H211424   2.895   3.861   1.022
 3827TIP3   OH211425   1.291   0.226   0.388
 3827TIP3    H111426   1.342   0.147   0.404
 3827TIP3    H211427   1.354   0.297   0.395
 3828TIP3   OH211428   4.774   1.134   6.317
 3828TIP3    H111429   4.835   1.085   6.262
 3828TIP3    H211430   4.793   1.226   6.298
 3829TIP3   OH211431   4.835   2.369   1.409
 3829TIP3    H111432   4.860   2.325   1.490
 3829TIP3    H211433   4.862   2.308   1.340
 3830TIP3   OH211434   1.335   6.051   2.853
 3830TIP3    H111435   1.338   5.965   2.811
 3830TIP3    H211436   1.422   6.088   2.839
 3831TIP3   OH211437   7.066   2.717   6.376
 3831TIP3    H111438   7.137   2.767   6.416
 3831TIP3    H211439   7.075   2.629   6.412
 3832TIP3   OH211440   6.481   6.135   3.220
 3832TIP3    H111441   6.423   6.211   3.223
 3832TIP3    H211442   6.525   6.135   3.305
 3833TIP3   OH211443   7.108   0.507   5.899
 3833TIP3    H111444   7.128   0.528   5.990
 3833TIP3    H211445   7.013   0.515   5.893
 3834TIP3   OH211446   6.438   5.836   0.204
 3834TIP3    H111447   6.491   5.756   0.193
 3834TIP3    H211448   6.404   5.829   0.293
 3835TIP3   OH211449   2.170   2.390   6.689
 3835TIP3    H111450   2.111   2.465   6.680
 3835TIP3    H211451   2.119   2.316   6.656
 3836TIP3   OH211452   5.121   2.748   4.918
 3836TIP3    H111453   5.206   2.732   4.958
 3836TIP3    H211454   5.127   2.838   4.884
 3837TIP3   OH211455   6.897   3.002   5.453
 3837TIP3    H111456   6.881   2.958   5.370
 3837TIP3    H211457   6.967   2.951   5.495
 3838TIP3   OH211458   0.540   3.118   5.584
 3838TIP3    H111459   0.621   3.077   5.615
 3838TIP3    H211460   0.519   3.072   5.503
 3839TIP3   OH211461   5.818   0.859   6.502
 3839TIP3    H111462   5.864   0.911   6.568
 3839TIP3    H211463   5.767   0.795   6.552
 3840TIP3   OH211464   3.464   0.071   2.738
 3840TIP3    H111465   3.506   0.031   2.814
 3840TIP3    H211466   3.372   0.079   2.763
 3841TIP3   OH211467   7.421   6.959   1.108
 3841TIP3    H111468   7.358   6.985   1.176
 3841TIP3    H211469   7.401   7.014   1.033
 3842TIP3   OH211470   0.906   2.767   1.816
 3842TIP3    H111471   0.850   2.836   1.852
 3842TIP3    H211472   0.930   2.714   1.892
 3843TIP3   OH211473   7.740   3.691   0.830
 3843TIP3    H111474   7.688   3.613   0.811
 3843TIP3    H211475   7.796   3.702   0.753
 3844TIP3   OH211476   4.444   5.682   4.327
 3844TIP3    H111477   4.539   5.675   4.321
 3844TIP3    H211478   4.428   5.752   4.391
 3845TIP3   OH211479   6.165   4.701   6.133
 3845TIP3    H111480   6.116   4.642   6.075
 3845TIP3    H211481   6.226   4.745   6.074
 3846TIP3   OH211482   2.743   2.791   0.976
 3846TIP3    H111483   2.768   2.701   0.957
 3846TIP3    H211484   2.784   2.810   1.061
 3847TIP3   OH211485   3.209   3.995   5.047
 3847TIP3    H111486   3.127   4.029   5.082
 3847TIP3    H211487   3.230   4.053   4.974
 3848TIP3   OH211488   3.838   5.683   6.545
 3848TIP3    H111489   3.835   5.753   6.480
 3848TIP3    H211490   3.748   5.677   6.578
 3849TIP3   OH211491   4.348   6.747   3.213
 3849TIP3    H111492   4.366   6.655   3.236
 3849TIP3    H211493   4.344   6.747   3.118
 3850TIP3   OH211494   6.188   3.284   3.701
 3850TIP3    H111495   6.282   3.271   3.712
 3850TIP3    H211496   6.148   3.200   3.724
 3851TIP3   OH211497   0.293   5.487   1.321
 3851TIP3    H111498   0.347   5.557   1.358
 3851TIP3    H211499   0.353   5.437   1.266
 3852TIP3   OH211500   4.041   5.794   2.451
 3852TIP3    H111501   4.070   5.830   2.367
 3852TIP3    H211502   3.945   5.796   2.445
 3853TIP3   OH211503   3.759   0.894   2.109
 3853TIP3    H111504   3.694   0.833   2.145
 3853TIP3    H211505   3.781   0.951   2.182
 3854TIP3   OH211506   0.567   0.332   3.162
 3854TIP3    H111507   0.659   0.338   3.136
 3854TIP3    H211508   0.551   0.411   3.213
 3855TIP3   OH211509   3.665   1.175   1.754
 3855TIP3    H111510   3.646   1.236   1.682
 3855TIP3    H211511   3.632   1.219   1.832
 3856TIP3   OH211512   2.605   4.665   0.504
 3856TIP3    H111513   2.563   4.624   0.428
 3856TIP3    H211514   2.699   4.654   0.488
 3857TIP3   OH211515   2.404   7.096   1.652
 3857TIP3    H111516   2.449   7.121   1.733
 3857TIP3    H211517   2.314   7.076   1.679
 3858TIP3   OH211518   4.267   6.418   0.061
 3858TIP3    H111519   4.307   6.449   0.142
 3858TIP3    H211520   4.340   6.379   0.012
 3859TIP3   OH211521   6.978   3.771   6.002
 3859TIP3    H111522   6.891   3.768   5.962
 3859TIP3    H211523   7.028   3.830   5.945
 3860TIP3   OH211524   0.192   0.434   4.758
 3860TIP3    H111525   0.112   0.438   4.705
 3860TIP3    H211526   0.218   0.342   4.755
 3861TIP3   OH211527   1.984   5.996   4.210
 3861TIP3    H111528   1.948   5.951   4.286
 3861TIP3    H211529   1.908   6.028   4.162
 3862TIP3   OH211530   7.463   1.428   0.486
 3862TIP3    H111531   7.545   1.397   0.447
 3862TIP3    H211532   7.443   1.508   0.437
 3863TIP3   OH211533   7.258   7.002   2.562
 3863TIP3    H111534   7.296   7.086   2.588
 3863TIP3    H211535   7.203   6.977   2.636
 3864TIP3   OH211536   6.978   5.144   3.180
 3864TIP3    H111537   6.994   5.052   3.161
 3864TIP3    H211538   6.886   5.148   3.205
 3865TIP3   OH211539   0.603   5.030   3.745
 3865TIP3    H111540   0.599   5.066   3.833
 3865TIP3    H211541   0.626   5.105   3.689
 3866TIP3   OH211542   6.418   6.405   3.019
 3866TIP3    H111543   6.504   6.402   3.062
 3866TIP3    H211544   6.413   6.321   2.972
 3867TIP3   OH211545   2.433   4.020   1.286
 3867TIP3    H111546   2.339   4.000   1.276
 3867TIP3    H211547   2.470   3.939   1.322
 3868TIP3   OH211548   5.553   6.987   5.287
 3868TIP3    H111549   5.631   6.946   5.250
 3868TIP3    H211550   5.567   7.081   5.274
 3869TIP3   OH211551   7.092   0.195   3.888
 3869TIP3    H111552   7.085   0.101   3.874
 3869TIP3    H211553   7.039   0.212   3.966
 3870TIP3   OH211554   4.405   7.097   4.040
 3870TIP3    H111555   4.421   7.168   3.978
 3870TIP3    H211556   4.372   7.025   3.985
 3871TIP3   OH211557   1.398   2.886   3.399
 3871TIP3    H111558   1.404   2.837   3.317
 3871TIP3    H211559   1.323   2.945   3.387
 3872TIP3   OH211560   5.663   3.197   2.990
 3872TIP3    H111561   5.581   3.151   2.972
 3872TIP3    H211562   5.648   3.242   3.073
 3873TIP3   OH211563   0.459   7.617   1.426
 3873TIP3    H111564   0.381   7.586   1.379
 3873TIP3    H211565   0.505   7.672   1.363
 3874TIP3   OH211566   7.721   4.782   1.731
 3874TIP3    H111567   7.757   4.712   1.786
 3874TIP3    H211568   7.627   4.768   1.732
 3875TIP3   OH211569   3.933   7.242   2.902
 3875TIP3    H111570   4.028   7.227   2.897
 3875TIP3    H211571   3.898   7.197   2.826
 3876TIP3   OH211572   1.668   1.896   5.742
 3876TIP3    H111573   1.593   1.924   5.795
 3876TIP3    H211574   1.677   1.802   5.761
 3877TIP3   OH211575   4.551   0.734   4.188
 3877TIP3    H111576   4.512   0.647   4.190
 3877TIP3    H211577   4.475   0.793   4.180
 3878TIP3   OH211578   5.627   2.131   1.136
 3878TIP3    H111579   5.581   2.213   1.119
 3878TIP3    H211580   5.664   2.105   1.052
 3879TIP3   OH211581   2.630   2.487   1.380
 3879TIP3    H111582   2.696   2.547   1.346
 3879TIP3    H211583   2.550   2.510   1.333
 3880TIP3   OH211584   5.360   3.899   0.752
 3880TIP3    H111585   5.449   3.926   0.777
 3880TIP3    H211586   5.318   3.875   0.835
 3881TIP3   OH211587   3.001   3.669   2.849
 3881TIP3    H111588   3.085   3.664   2.805
 3881TIP3    H211589   2.963   3.752   2.820
 3882TIP3   OH211590   3.206   4.703   6.617
 3882TIP3    H111591   3.262   4.759   6.671
 3882TIP3    H211592   3.132   4.682   6.674
 3883TIP3   OH211593   4.130   7.758   5.922
 3883TIP3    H111594   4.175   7.673   5.927
 3883TIP3    H211595   4.200   7.823   5.932
 3884TIP3   OH211596   0.469   5.499   3.894
 3884TIP3    H111597   0.395   5.439   3.890
 3884TIP3    H211598   0.441   5.569   3.952
 3885TIP3   OH211599   5.688   1.306   0.436
 3885TIP3    H111600   5.685   1.210   0.436
 3885TIP3    H211601   5.747   1.328   0.364
 3886TIP3   OH211602   3.282   6.528   0.143
 3886TIP3    H111603   3.241   6.552   0.060
 3886TIP3    H211604   3.211   6.531   0.207
 3887TIP3   OH211605   3.747   2.594   3.097
 3887TIP3    H111606   3.695   2.606   3.176
 3887TIP3    H211607   3.825   2.648   3.111
 3888TIP3   OH211608   1.502   5.543   6.733
 3888TIP3    H111609   1.514   5.481   6.661
 3888TIP3    H211610   1.482   5.626   6.690
 3889TIP3   OH211611   7.542   3.607   4.174
 3889TIP3    H111612   7.473   3.569   4.120
 3889TIP3    H211613   7.590   3.532   4.210
 3890TIP3   OH211614   4.995   2.854   6.750
 3890TIP3    H111615   4.954   2.767   6.753
 3890TIP3    H211616   4.927   2.911   6.716
 3891TIP3   OH211617   2.129   0.128   5.660
 3891TIP3    H111618   2.153   0.213   5.697
 3891TIP3    H211619   2.083   0.149   5.579
 3892TIP3   OH211620   5.067   6.230   1.323
 3892TIP3    H111621   5.068   6.320   1.354
 3892TIP3    H211622   5.149   6.220   1.275
 3893TIP3   OH211623   5.680   0.404   0.567
 3893TIP3    H111624   5.690   0.316   0.531
 3893TIP3    H211625   5.592   0.431   0.539
 3894TIP3   OH211626   2.615   2.677   5.981
 3894TIP3    H111627   2.585   2.766   6.000
 3894TIP3    H211628   2.635   2.679   5.887
 3895TIP3   OH211629   3.237   1.047   0.126
 3895TIP3    H111630   3.269   1.122   0.076
 3895TIP3    H211631   3.155   1.023   0.084
 3896TIP3   OH211632   4.356   3.594   1.230
 3896TIP3    H111633   4.273   3.628   1.262
 3896TIP3    H211634   4.418   3.612   1.301
 3897TIP3   OH211635   7.252   5.391   5.923
 3897TIP3    H111636   7.175   5.429   5.964
 3897TIP3    H211637   7.322   5.404   5.986
 3898TIP3   OH211638   6.790   5.152   1.815
 3898TIP3    H111639   6.773   5.097   1.892
 3898TIP3    H211640   6.704   5.187   1.792
 3899TIP3   OH211641   5.697   2.923   6.712
 3899TIP3    H111642   5.699   3.018   6.707
 3899TIP3    H211643   5.625   2.897   6.655
 3900TIP3   OH211644   1.058   2.136   5.831
 3900TIP3    H111645   1.009   2.092   5.901
 3900TIP3    H211646   1.019   2.103   5.750
 3901TIP3   OH211647   5.931   0.616   3.625
 3901TIP3    H111648   5.937   0.707   3.596
 3901TIP3    H211649   5.901   0.568   3.547
 3902TIP3   OH211650   1.976   0.242   5.445
 3902TIP3    H111651   2.027   0.210   5.370
 3902TIP3    H211652   1.886   0.216   5.425
 3903TIP3   OH211653   4.151   2.306   0.885
 3903TIP3    H111654   4.074   2.248   0.888
 3903TIP3    H211655   4.114   2.394   0.882
 3904TIP3   OH211656   2.845   7.656   3.837
 3904TIP3    H111657   2.867   7.572   3.796
 3904TIP3    H211658   2.790   7.633   3.912
 3905TIP3   OH211659   2.156   5.120   3.282
 3905TIP3    H111660   2.174   5.191   3.343
 3905TIP3    H211661   2.061   5.109   3.285
 3906TIP3   OH211662   0.571   6.865   0.193
 3906TIP3    H111663   0.506   6.807   0.154
 3906TIP3    H211664   0.647   6.858   0.135
 3907TIP3   OH211665   5.912   7.159   5.279
 3907TIP3    H111666   5.836   7.154   5.222
 3907TIP3    H211667   5.887   7.107   5.356
 3908TIP3   OH211668   7.781   6.958   1.581
 3908TIP3    H111669   7.757   6.922   1.666
 3908TIP3    H211670   7.711   6.929   1.522
 3909TIP3   OH211671   0.107   0.746   4.155
 3909TIP3    H111672   0.126   0.795   4.075
 3909TIP3    H211673   0.117   0.810   4.225
 3910TIP3   OH211674   2.177   6.156   3.278
 3910TIP3    H111675   2.212   6.230   3.227
 3910TIP3    H211676   2.083   6.158   3.260
 3911TIP3   OH211677   7.172   2.688   4.285
 3911TIP3    H111678   7.124   2.614   4.323
 3911TIP3    H211679   7.244   2.648   4.237
 3912TIP3   OH211680   2.507   5.184   2.729
 3912TIP3    H111681   2.557   5.261   2.756
 3912TIP3    H211682   2.465   5.154   2.809
 3913TIP3   OH211683   2.603   4.752   2.229
 3913TIP3    H111684   2.526   4.700   2.203
 3913TIP3    H211685   2.678   4.702   2.195
 3914TIP3   OH211686   8.172   6.850   4.585
 3914TIP3    H111687   8.128   6.766   4.570
 3914TIP3    H211688   8.258   6.826   4.619
 3915TIP3   OH211689   4.714   0.698   1.738
 3915TIP3    H111690   4.630   0.676   1.778
 3915TIP3    H211691   4.707   0.663   1.649
 3916TIP3   OH211692   7.656   2.042   0.135
 3916TIP3    H111693   7.682   1.993   0.212
 3916TIP3    H211694   7.650   2.133   0.165
 3917TIP3   OH211695   1.910   2.150   0.283
 3917TIP3    H111696   1.957   2.141   0.366
 3917TIP3    H211697   1.979   2.166   0.219
 3918TIP3   OH211698   3.216   2.174   2.435
 3918TIP3    H111699   3.236   2.220   2.516
 3918TIP3    H211700   3.186   2.243   2.375
 3919TIP3   OH211701   7.023   4.952   2.116
 3919TIP3    H111702   7.022   4.986   2.026
 3919TIP3    H211703   6.941   4.982   2.155
 3920TIP3   OH211704   2.918   2.766   6.174
 3920TIP3    H111705   2.875   2.788   6.256
 3920TIP3    H211706   2.903   2.672   6.164
 3921TIP3   OH211707   1.309   1.007   0.616
 3921TIP3    H111708   1.378   1.058   0.660
 3921TIP3    H211709   1.315   1.034   0.524
 3922TIP3   OH211710   7.294   5.015   4.993
 3922TIP3    H111711   7.369   4.957   4.982
 3922TIP3    H211712   7.233   4.988   4.925
 3923TIP3   OH211713   4.874   3.598   5.981
 3923TIP3    H111714   4.877   3.692   5.968
 3923TIP3    H211715   4.917   3.561   5.904
 3924TIP3   OH211716   4.940   0.171   2.690
 3924TIP3    H111717   4.975   0.246   2.738
 3924TIP3    H211718   5.012   0.108   2.686
 3925TIP3   OH211719   5.957   3.834   2.979
 3925TIP3    H111720   6.029   3.776   2.955
 3925TIP3    H211721   5.907   3.846   2.898
 3926TIP3   OH211722   0.317   3.042   1.423
 3926TIP3    H111723   0.281   3.105   1.361
 3926TIP3    H211724   0.351   3.094   1.495
 3927TIP3   OH211725   1.687   2.364   0.865
 3927TIP3    H111726   1.749   2.391   0.932
 3927TIP3    H211727   1.634   2.296   0.907
 3928TIP3   OH211728   2.084   5.452   0.717
 3928TIP3    H111729   2.065   5.483   0.628
 3928TIP3    H211730   2.003   5.411   0.746
 3929TIP3   OH211731   7.381   0.464   2.287
 3929TIP3    H111732   7.326   0.448   2.211
 3929TIP3    H211733   7.405   0.556   2.282
 3930TIP3   OH211734   2.905   2.689   0.031
 3930TIP3    H111735   2.825   2.686  -0.022
 3930TIP3    H211736   2.876   2.724   0.116
 3931TIP3   OH211737   1.919   2.330   3.048
 3931TIP3    H111738   1.866   2.361   2.975
 3931TIP3    H211739   1.970   2.407   3.074
 3932TIP3   OH211740   2.955   2.141   2.825
 3932TIP3    H111741   2.950   2.154   2.730
 3932TIP3    H211742   3.037   2.182   2.851
 3933TIP3   OH211743   0.320   2.129   6.220
 3933TIP3    H111744   0.250   2.181   6.258
 3933TIP3    H211745   0.329   2.054   6.278
 3934TIP3   OH211746   3.241   3.201   4.544
 3934TIP3    H111747   3.150   3.187   4.571
 3934TIP3    H211748   3.262   3.125   4.489
 3935TIP3   OH211749   2.179   0.116   1.112
 3935TIP3    H111750   2.150   0.089   1.025
 3935TIP3    H211751   2.249   0.179   1.095
 3936TIP3   OH211752   5.439   3.486   6.588
 3936TIP3    H111753   5.391   3.438   6.655
 3936TIP3    H211754   5.435   3.577   6.617
 3937TIP3   OH211755   0.231   5.301   0.834
 3937TIP3    H111756   0.175   5.245   0.887
 3937TIP3    H211757   0.291   5.240   0.790
 3938TIP3   OH211758   1.696   7.162   1.423
 3938TIP3    H111759   1.786   7.131   1.411
 3938TIP3    H211760   1.686   7.167   1.518
 3939TIP3   OH211761   4.056   0.758   5.809
 3939TIP3    H111762   4.110   0.832   5.781
 3939TIP3    H211763   4.116   0.683   5.807
 3940TIP3   OH211764   1.764   2.933  -0.022
 3940TIP3    H111765   1.834   2.977   0.027
 3940TIP3    H211766   1.710   2.892   0.045
 3941TIP3   OH211767   6.618   1.779   1.930
 3941TIP3    H111768   6.563   1.853   1.958
 3941TIP3    H211769   6.694   1.820   1.889
 3942TIP3   OH211770   0.451   5.976   5.907
 3942TIP3    H111771   0.370   6.018   5.878
 3942TIP3    H211772   0.430   5.883   5.912
 3943TIP3   OH211773   2.098   0.731   5.846
 3943TIP3    H111774   2.021   0.746   5.791
 3943TIP3    H211775   2.171   0.727   5.785
 3944TIP3   OH211776   8.239   6.056   0.073
 3944TIP3    H111777   8.282   6.012   0.146
 3944TIP3    H211778   8.162   6.003   0.055
 3945TIP3   OH211779   7.327   1.666   6.631
 3945TIP3    H111780   7.253   1.713   6.670
 3945TIP3    H211781   7.351   1.600   6.695
 3946TIP3   OH211782   3.472   7.652   0.958
 3946TIP3    H111783   3.398   7.710   0.942
 3946TIP3    H211784   3.443   7.567   0.926
 3947TIP3   OH211785   5.657   1.097   1.057
 3947TIP3    H111786   5.715   1.044   1.001
 3947TIP3    H211787   5.570   1.085   1.019
 3948TIP3   OH211788   1.537   1.258   1.008
 3948TIP3    H111789   1.628   1.228   1.014
 3948TIP3    H211790   1.537   1.316   0.932
 3949TIP3   OH211791   6.708   1.650   4.829
 3949TIP3    H111792   6.730   1.723   4.887
 3949TIP3    H211793   6.682   1.580   4.888
 3950TIP3   OH211794   1.663   0.608   0.765
 3950TIP3    H111795   1.755   0.612   0.794
 3950TIP3    H211796   1.613   0.631   0.843
 3951TIP3   OH211797   7.159   5.967   4.693
 3951TIP3    H111798   7.106   5.892   4.665
 3951TIP3    H211799   7.228   5.928   4.748
 3952TIP3   OH211800   0.771   5.347   2.922
 3952TIP3    H111801   0.752   5.439   2.906
 3952TIP3    H211802   0.867   5.344   2.928
 3953TIP3   OH211803   2.687   0.914   5.105
 3953TIP3    H111804   2.751   0.861   5.056
 3953TIP3    H211805   2.603   0.892   5.065
 3954TIP3   OH211806   2.813   7.046   0.543
 3954TIP3    H111807   2.766   7.042   0.626
 3954TIP3    H211808   2.816   6.955   0.513
 3955TIP3   OH211809   6.698   4.250   3.350
 3955TIP3    H111810   6.624   4.269   3.408
 3955TIP3    H211811   6.685   4.159   3.323
 3956TIP3   OH211812   0.187   1.012   5.092
 3956TIP3    H111813   0.132   0.948   5.136
 3956TIP3    H211814   0.131   1.049   5.024
 3957TIP3   OH211815   0.150   7.268   2.546
 3957TIP3    H111816   0.237   7.281   2.510
 3957TIP3    H211817   0.134   7.174   2.537
 3958TIP3   OH211818   3.593   5.895   5.927
 3958TIP3    H111819   3.673   5.849   5.902
 3958TIP3    H211820   3.572   5.951   5.852
 3959TIP3   OH211821   7.709   5.386   4.458
 3959TIP3    H111822   7.742   5.468   4.422
 3959TIP3    H211823   7.781   5.324   4.445
 3960TIP3   OH211824   4.937   2.714   3.892
 3960TIP3    H111825   4.939   2.723   3.797
 3960TIP3    H211826   4.994   2.639   3.911
 3961TIP3   OH211827   7.396   0.119   0.912
 3961TIP3    H111828   7.409   0.209   0.941
 3961TIP3    H211829   7.472   0.101   0.857
 3962TIP3   OH211830   4.562   4.235   4.022
 3962TIP3    H111831   4.628   4.288   4.066
 3962TIP3    H211832   4.572   4.148   4.060
 3963TIP3   OH211833   7.340   0.931   0.019
 3963TIP3    H111834   7.246   0.939   0.001
 3963TIP3    H211835   7.347   0.855   0.077
 3964TIP3   OH211836   7.676   6.836   1.835
 3964TIP3    H111837   7.606   6.824   1.898
 3964TIP3    H211838   7.745   6.775   1.862
 3965TIP3   OH211839   2.099   0.447   6.271
 3965TIP3    H111840   2.018   0.495   6.253
 3965TIP3    H211841   2.168   0.504   6.236
 3966TIP3   OH211842   4.459   4.186   3.328
 3966TIP3    H111843   4.490   4.176   3.238
 3966TIP3    H211844   4.513   4.256   3.365
 3967TIP3   OH211845   7.216   5.763   2.942
 3967TIP3    H111846   7.199   5.822   3.016
 3967TIP3    H211847   7.250   5.821   2.873
 3968TIP3   OH211848   3.568   4.140   2.588
 3968TIP3    H111849   3.655   4.181   2.588
 3968TIP3    H211850   3.585   4.048   2.568
 3969TIP3   OH211851   4.156   3.772   5.026
 3969TIP3    H111852   4.091   3.759   4.957
 3969TIP3    H211853   4.126   3.716   5.098
 3970TIP3   OH211854   7.520   6.630   3.812
 3970TIP3    H111855   7.542   6.718   3.784
 3970TIP3    H211856   7.604   6.589   3.833
 3971TIP3   OH211857   1.110   6.578   1.834
 3971TIP3    H111858   1.133   6.626   1.755
 3971TIP3    H211859   1.088   6.490   1.803
 3972TIP3   OH211860   2.198   2.424   0.240
 3972TIP3    H111861   2.179   2.494   0.177
 3972TIP3    H211862   2.291   2.406   0.229
 3973TIP3   OH211863   1.159   7.153   3.679
 3973TIP3    H111864   1.171   7.085   3.745
 3973TIP3    H211865   1.179   7.234   3.725
 3974TIP3   OH211866   3.861   1.455   2.477
 3974TIP3    H111867   3.909   1.390   2.426
 3974TIP3    H211868   3.808   1.404   2.538
 3975TIP3   OH211869   0.652   3.090   2.971
 3975TIP3    H111870   0.591   3.111   2.900
 3975TIP3    H211871   0.602   3.033   3.029
 3976TIP3   OH211872   0.957   4.893   3.902
 3976TIP3    H111873   0.974   4.904   3.995
 3976TIP3    H211874   1.014   4.820   3.876
 3977TIP3   OH211875   3.617   5.785   4.004
 3977TIP3    H111876   3.610   5.726   3.929
 3977TIP3    H211877   3.675   5.740   4.065
 3978TIP3   OH211878   5.143   2.313   0.792
 3978TIP3    H111879   5.143   2.402   0.754
 3978TIP3    H211880   5.104   2.259   0.723
 3979TIP3   OH211881   7.796   0.166   5.089
 3979TIP3    H111882   7.757   0.231   5.147
 3979TIP3    H211883   7.743   0.088   5.102
 3980TIP3   OH211884   6.983   3.342   5.198
 3980TIP3    H111885   7.011   3.307   5.283
 3980TIP3    H211886   7.003   3.435   5.203
 3981TIP3   OH211887   0.820   4.511   5.643
 3981TIP3    H111888   0.884   4.518   5.713
 3981TIP3    H211889   0.802   4.601   5.617
 3982TIP3   OH211890   3.860   1.817   3.059
 3982TIP3    H111891   3.780   1.832   3.007
 3982TIP3    H211892   3.919   1.888   3.034
 3983TIP3   OH211893   4.506   6.686   6.179
 3983TIP3    H111894   4.488   6.723   6.092
 3983TIP3    H211895   4.537   6.597   6.161
 3984TIP3   OH211896   2.422   3.176   5.126
 3984TIP3    H111897   2.410   3.271   5.129
 3984TIP3    H211898   2.412   3.153   5.033
 3985TIP3   OH211899   4.038   5.760   5.444
 3985TIP3    H111900   4.042   5.820   5.519
 3985TIP3    H211901   4.046   5.673   5.483
 3986TIP3   OH211902   6.609   5.190   6.054
 3986TIP3    H111903   6.573   5.244   6.124
 3986TIP3    H211904   6.703   5.210   6.053
 3987TIP3   OH211905   5.424   5.724   1.086
 3987TIP3    H111906   5.490   5.666   1.124
 3987TIP3    H211907   5.348   5.668   1.071
 3988TIP3   OH211908   2.396   4.803   4.882
 3988TIP3    H111909   2.379   4.772   4.793
 3988TIP3    H211910   2.359   4.891   4.884
 3989TIP3   OH211911   4.038   1.501   2.150
 3989TIP3    H111912   4.113   1.447   2.124
 3989TIP3    H211913   4.075   1.564   2.212
 3990TIP3   OH211914   4.582   7.731   2.013
 3990TIP3    H111915   4.628   7.813   2.029
 3990TIP3    H211916   4.529   7.717   2.091
 3991TIP3   OH211917   6.661   1.611   0.223
 3991TIP3    H111918   6.725   1.547   0.190
 3991TIP3    H211919   6.666   1.684   0.162
 3992TIP3   OH211920   5.640   7.704   2.239
 3992TIP3    H111921   5.632   7.720   2.333
 3992TIP3    H211922   5.573   7.639   2.220
 3993TIP3   OH211923   6.318   2.308   6.282
 3993TIP3    H111924   6.362   2.370   6.339
 3993TIP3    H211925   6.384   2.285   6.216
 3994TIP3   OH211926   0.982   3.164   4.308
 3994TIP3    H111927   0.895   3.188   4.277
 3994TIP3    H211928   1.006   3.235   4.368
 3995TIP3   OH211929   3.051   2.095   0.678
 3995TIP3    H111930   2.993   2.155   0.724
 3995TIP3    H211931   3.118   2.072   0.742
 3996TIP3   OH211932   6.348   1.978   1.323
 3996TIP3    H111933   6.399   1.903   1.292
 3996TIP3    H211934   6.370   2.049   1.262
 3997TIP3   OH211935   6.840   1.844   3.600
 3997TIP3    H111936   6.910   1.886   3.650
 3997TIP3    H211937   6.864   1.751   3.597
 3998TIP3   OH211938   0.068   2.766   1.190
 3998TIP3    H111939   0.163   2.782   1.189
 3998TIP3    H211940   0.050   2.735   1.279
 3999TIP3   OH211941   0.873   6.249   3.712
 3999TIP3    H111942   0.962   6.280   3.693
 3999TIP3    H211943   0.885   6.178   3.774
 4000TIP3   OH211944   7.857   7.730   1.682
 4000TIP3    H111945   7.908   7.792   1.630
 4000TIP3    H211946   7.885   7.644   1.652
 4001TIP3   OH211947   2.826   6.944   6.309
 4001TIP3    H111948   2.759   7.011   6.315
 4001TIP3    H211949   2.783   6.864   6.337
 4002TIP3   OH211950   3.438   7.519   3.326
 4002TIP3    H111951   3.470   7.454   3.263
 4002TIP3    H211952   3.411   7.594   3.272
 4003TIP3   OH211953   3.643   3.977   1.622
 4003TIP3    H111954   3.676   4.060   1.657
 4003TIP3    H211955   3.708   3.912   1.649
 4004TIP3   OH211956   8.057   4.277   4.347
 4004TIP3    H111957   8.067   4.348   4.410
 4004TIP3    H211958   7.998   4.312   4.281
 4005TIP3   OH211959   1.928   3.425   2.002
 4005TIP3    H111960   2.008   3.442   1.953
 4005TIP3    H211961   1.931   3.485   2.076
 4006TIP3   OH211962   4.159   4.843   2.757
 4006TIP3    H111963   4.153   4.936   2.777
 4006TIP3    H211964   4.149   4.838   2.662
 4007TIP3   OH211965   1.367   6.930   2.282
 4007TIP3    H111966   1.339   6.848   2.243
 4007TIP3    H211967   1.460   6.918   2.302
 4008TIP3   OH211968   5.057   7.411   6.409
 4008TIP3    H111969   5.135   7.410   6.465
 4008TIP3    H211970   5.056   7.326   6.367
 4009TIP3   OH211971   7.715   7.211   2.960
 4009TIP3    H111972   7.700   7.267   2.884
 4009TIP3    H211973   7.771   7.262   3.018
 4010TIP3   OH211974   3.923   3.017   6.760
 4010TIP3    H111975   3.828   3.016   6.763
 4010TIP3    H211976   3.945   2.944   6.702
 4011TIP3   OH211977   6.143   5.663   0.790
 4011TIP3    H111978   6.059   5.642   0.750
 4011TIP3    H211979   6.165   5.585   0.841
 4012TIP3   OH211980   3.570   2.364   1.501
 4012TIP3    H111981   3.491   2.415   1.516
 4012TIP3    H211982   3.589   2.323   1.585
 4013TIP3   OH211983   8.202   5.869   0.757
 4013TIP3    H111984   8.123   5.844   0.709
 4013TIP3    H211985   8.270   5.810   0.724
 4014TIP3   OH211986   6.835   4.143   5.408
 4014TIP3    H111987   6.835   4.077   5.338
 4014TIP3    H211988   6.866   4.095   5.485
 4015TIP3   OH211989   7.426   7.056   5.196
 4015TIP3    H111990   7.458   7.034   5.283
 4015TIP3    H211991   7.502   7.044   5.139
 4016TIP3   OH211992   6.498   3.556   5.453
 4016TIP3    H111993   6.490   3.481   5.512
 4016TIP3    H211994   6.537   3.519   5.373
 4017TIP3   OH211995   8.154   6.496   2.637
 4017TIP3    H111996   8.071   6.542   2.624
 4017TIP3    H211997   8.144   6.454   2.722
 4018TIP3   OH211998   6.728   5.991   4.466
 4018TIP3    H111999   6.648   6.033   4.499
 4018TIP3    H212000   6.700   5.902   4.446
 4019TIP3   OH212001   3.166   7.685   6.640
 4019TIP3    H112002   3.090   7.671   6.583
 4019TIP3    H212003   3.162   7.778   6.663
 4020TIP3   OH212004   5.076   4.515   1.724
 4020TIP3    H112005   5.085   4.422   1.703
 4020TIP3    H212006   5.164   4.550   1.716
 4021TIP3   OH212007   8.132   0.561   2.712
 4021TIP3    H112008   8.060   0.557   2.649
 4021TIP3    H212009   8.092   0.596   2.792
 4022TIP3   OH212010   1.050   0.541   5.047
 4022TIP3    H112011   1.104   0.616   5.071
 4022TIP3    H212012   1.008   0.515   5.129
 4023TIP3   OH212013   7.879   7.089   2.485
 4023TIP3    H112014   7.838   7.150   2.547
 4023TIP3    H212015   7.898   7.143   2.409
 4024TIP3   OH212016   4.018   1.328   3.157
 4024TIP3    H112017   4.062   1.320   3.072
 4024TIP3    H212018   3.960   1.404   3.146
 4025TIP3   OH212019   6.696   7.226   1.178
 4025TIP3    H112020   6.628   7.268   1.232
 4025TIP3    H212021   6.667   7.239   1.088
 4026TIP3   OH212022   7.293   7.201   0.923
 4026TIP3    H112023   7.380   7.242   0.921
 4026TIP3    H212024   7.256   7.218   0.837
 4027TIP3   OH212025   2.892   4.643   5.829
 4027TIP3    H112026   2.936   4.727   5.813
 4027TIP3    H212027   2.839   4.659   5.907
 4028TIP3   OH212028   2.511   7.037   2.978
 4028TIP3    H112029   2.440   6.973   2.983
 4028TIP3    H212030   2.583   6.997   3.026
 4029TIP3   OH212031   1.260   3.374   6.344
 4029TIP3    H112032   1.168   3.352   6.332
 4029TIP3    H212033   1.259   3.450   6.402
 4030TIP3   OH212034   7.079   2.374   3.798
 4030TIP3    H112035   6.999   2.329   3.771
 4030TIP3    H212036   7.122   2.397   3.716
 4031TIP3   OH212037   8.157   1.815   4.311
 4031TIP3    H112038   8.115   1.812   4.225
 4031TIP3    H212039   8.249   1.793   4.293
 4032TIP3   OH212040   0.161   3.754   4.992
 4032TIP3    H112041   0.246   3.781   4.956
 4032TIP3    H212042   0.127   3.691   4.928
 4033TIP3   OH212043   1.108   7.196   5.308
 4033TIP3    H112044   1.133   7.115   5.353
 4033TIP3    H212045   1.150   7.189   5.222
 4034TIP3   OH212046   5.867   1.593   5.592
 4034TIP3    H112047   5.939   1.633   5.543
 4034TIP3    H212048   5.802   1.662   5.600
 4035TIP3   OH212049   8.239   1.194   2.210
 4035TIP3    H112050   8.323   1.233   2.234
 4035TIP3    H212051   8.204   1.159   2.292
 4036TIP3   OH212052   1.133   3.098   2.282
 4036TIP3    H112053   1.093   3.134   2.202
 4036TIP3    H212054   1.156   3.176   2.333
 4037TIP3   OH212055   2.378   4.955   3.823
 4037TIP3    H112056   2.428   5.032   3.849
 4037TIP3    H212057   2.342   4.921   3.904
 4038TIP3   OH212058   7.827   6.983   6.649
 4038TIP3    H112059   7.736   6.969   6.673
 4038TIP3    H212060   7.873   6.993   6.733
 4039TIP3   OH212061   6.756   6.152   3.047
 4039TIP3    H112062   6.783   6.080   3.104
 4039TIP3    H212063   6.677   6.119   3.004
 4040TIP3   OH212064   0.807   0.580   0.270
 4040TIP3    H112065   0.859   0.639   0.215
 4040TIP3    H212066   0.849   0.494   0.258
 4041TIP3   OH212067   5.433   7.331   1.181
 4041TIP3    H112068   5.503   7.320   1.246
 4041TIP3    H212069   5.352   7.315   1.230
 4042TIP3   OH212070   5.140   6.155   2.576
 4042TIP3    H112071   5.220   6.126   2.532
 4042TIP3    H212072   5.170   6.199   2.655
 4043TIP3   OH212073   6.118   3.857   3.299
 4043TIP3    H112074   6.123   3.946   3.262
 4043TIP3    H212075   6.025   3.838   3.302
 4044TIP3   OH212076   2.266   4.735   4.306
 4044TIP3    H112077   2.236   4.661   4.360
 4044TIP3    H212078   2.203   4.805   4.324
 4045TIP3   OH212079   3.045   4.022   2.992
 4045TIP3    H112080   3.080   4.011   3.080
 4045TIP3    H212081   3.120   4.008   2.934
 4046TIP3   OH212082   7.341   6.850   0.555
 4046TIP3    H112083   7.345   6.755   0.563
 4046TIP3    H212084   7.430   6.876   0.531
 4047TIP3   OH212085   0.269   4.350   5.188
 4047TIP3    H112086   0.350   4.396   5.164
 4047TIP3    H212087   0.200   4.397   5.141
 4048TIP3   OH212088   3.615   0.131   2.128
 4048TIP3    H112089   3.555   0.084   2.071
 4048TIP3    H212090   3.567   0.143   2.210
 4049TIP3   OH212091   3.376   6.817   4.383
 4049TIP3    H112092   3.441   6.778   4.441
 4049TIP3    H212093   3.324   6.874   4.440
 4050TIP3   OH212094   3.168   4.634   5.326
 4050TIP3    H112095   3.203   4.563   5.272
 4050TIP3    H212096   3.078   4.608   5.345
 4051TIP3   OH212097   5.661   3.910   2.074
 4051TIP3    H112098   5.722   3.839   2.054
 4051TIP3    H212099   5.608   3.876   2.146
 4052TIP3   OH212100   0.843   4.232   3.416
 4052TIP3    H112101   0.895   4.295   3.367
 4052TIP3    H212102   0.877   4.239   3.506
 4053TIP3   OH212103   5.004   3.577   0.811
 4053TIP3    H112104   4.909   3.563   0.820
 4053TIP3    H212105   5.012   3.643   0.742
 4054TIP3   OH212106   0.063   0.188   2.459
 4054TIP3    H112107   0.010   0.234   2.394
 4054TIP3    H212108   0.074   0.251   2.530
 4055TIP3   OH212109   5.066   5.299   0.807
 4055TIP3    H112110   4.979   5.339   0.806
 4055TIP3    H212111   5.118   5.356   0.864
 4056TIP3   OH212112   3.495   6.635   5.316
 4056TIP3    H112113   3.562   6.659   5.379
 4056TIP3    H212114   3.475   6.717   5.271
 4057TIP3   OH212115   6.074   3.090   0.249
 4057TIP3    H112116   6.107   3.099   0.339
 4057TIP3    H212117   6.019   3.011   0.253
 4058TIP3   OH212118   4.534   5.548   4.651
 4058TIP3    H112119   4.572   5.472   4.695
 4058TIP3    H212120   4.455   5.515   4.609
 4059TIP3   OH212121   3.053   0.706   3.179
 4059TIP3    H112122   3.122   0.772   3.174
 4059TIP3    H212123   2.972   0.753   3.160
 4060TIP3   OH212124   2.457   1.723   4.244
 4060TIP3    H112125   2.499   1.788   4.187
 4060TIP3    H212126   2.506   1.642   4.229
 4061TIP3   OH212127   5.434   5.838   0.832
 4061TIP3    H112128   5.419   5.817   0.925
 4061TIP3    H212129   5.480   5.921   0.833
 4062TIP3   OH212130   1.382   1.779   5.535
 4062TIP3    H112131   1.391   1.869   5.566
 4062TIP3    H212132   1.311   1.783   5.471
 4063TIP3   OH212133   3.607   5.953   0.916
 4063TIP3    H112134   3.646   5.936   1.002
 4063TIP3    H212135   3.681   5.978   0.861
 4064TIP3   OH212136   3.370   3.018   5.493
 4064TIP3    H112137   3.297   3.061   5.449
 4064TIP3    H212138   3.427   3.089   5.521
 4065TIP3   OH212139   4.290   2.304   2.894
 4065TIP3    H112140   4.204   2.269   2.875
 4065TIP3    H212141   4.274   2.380   2.950
 4066TIP3   OH212142   1.698   0.476   4.513
 4066TIP3    H112143   1.775   0.522   4.545
 4066TIP3    H212144   1.729   0.424   4.440
 4067TIP3   OH212145   7.895   1.287   4.330
 4067TIP3    H112146   7.982   1.322   4.310
 4067TIP3    H212147   7.910   1.221   4.397
 4068TIP3   OH212148   4.192   2.965   4.812
 4068TIP3    H112149   4.276   2.950   4.769
 4068TIP3    H212150   4.153   3.039   4.766
 4069TIP3   OH212151   4.153   4.275   2.722
 4069TIP3    H112152   4.060   4.252   2.716
 4069TIP3    H212153   4.177   4.258   2.813
 4070TIP3   OH212154   5.361   2.100   4.699
 4070TIP3    H112155   5.438   2.156   4.712
 4070TIP3    H212156   5.291   2.160   4.677
 4071TIP3   OH212157   7.753   0.810   0.669
 4071TIP3    H112158   7.745   0.761   0.751
 4071TIP3    H212159   7.846   0.807   0.649
 4072TIP3   OH212160   8.320   6.870   4.243
 4072TIP3    H112161   8.317   6.791   4.296
 4072TIP3    H212162   8.233   6.908   4.252
 4073TIP3   OH212163   6.382   2.899   3.938
 4073TIP3    H112164   6.458   2.887   3.881
 4073TIP3    H212165   6.351   2.810   3.955
 4074TIP3   OH212166   6.190   6.815   3.475
 4074TIP3    H112167   6.163   6.729   3.442
 4074TIP3    H212168   6.285   6.810   3.479
 4075TIP3   OH212169   6.448   2.191   5.753
 4075TIP3    H112170   6.379   2.180   5.819
 4075TIP3    H212171   6.513   2.124   5.775
 4076TIP3   OH212172   3.478   6.709   2.788
 4076TIP3    H112173   3.405   6.770   2.779
 4076TIP3    H212174   3.445   6.641   2.846
 4077TIP3   OH212175   1.632   5.891   4.681
 4077TIP3    H112176   1.655   5.936   4.600
 4077TIP3    H212177   1.614   5.961   4.744
 4078TIP3   OH212178   2.673   2.023   5.548
 4078TIP3    H112179   2.701   2.099   5.599
 4078TIP3    H212180   2.671   1.952   5.612
 4079TIP3   OH212181   6.086   1.957   1.414
 4079TIP3    H112182   6.055   1.892   1.351
 4079TIP3    H212183   6.179   1.968   1.393
 4080TIP3   OH212184   0.718   6.609   5.974
 4080TIP3    H112185   0.788   6.649   6.025
 4080TIP3    H212186   0.638   6.651   6.006
 4081TIP3   OH212187   3.042   5.289   6.091
 4081TIP3    H112188   3.129   5.330   6.091
 4081TIP3    H212189   2.982   5.361   6.070
 4082TIP3   OH212190   1.335   6.293   0.547
 4082TIP3    H112191   1.263   6.296   0.610
 4082TIP3    H212192   1.372   6.382   0.549
 4083TIP3   OH212193   7.003   1.186   4.666
 4083TIP3    H112194   7.093   1.181   4.698
 4083TIP3    H212195   7.005   1.142   4.581
 4084TIP3   OH212196   3.174   4.589   4.587
 4084TIP3    H112197   3.177   4.495   4.604
 4084TIP3    H212198   3.110   4.623   4.651
 4085TIP3   OH212199   0.709   7.815   1.888
 4085TIP3    H112200   0.729   7.736   1.838
 4085TIP3    H212201   0.619   7.804   1.917
 4086TIP3   OH212202   1.087   3.456   4.185
 4086TIP3    H112203   1.072   3.368   4.149
 4086TIP3    H212204   1.001   3.497   4.183
 4087TIP3   OH212205   6.782   0.758   1.073
 4087TIP3    H112206   6.723   0.685   1.090
 4087TIP3    H212207   6.856   0.743   1.132
 4088TIP3   OH212208   2.808   3.547   2.990
 4088TIP3    H112209   2.867   3.596   2.932
 4088TIP3    H212210   2.867   3.496   3.046
 4089TIP3   OH212211   2.459   2.945   6.648
 4089TIP3    H112212   2.536   2.917   6.598
 4089TIP3    H212213   2.385   2.903   6.603
 4090TIP3   OH212214   4.154   3.077   5.403
 4090TIP3    H112215   4.095   3.132   5.351
 4090TIP3    H212216   4.156   2.993   5.357
 4091TIP3   OH212217   8.097   5.178   1.201
 4091TIP3    H112218   8.131   5.258   1.241
 4091TIP3    H212219   8.010   5.203   1.169
 4092TIP3   OH212220   6.907   2.275   3.208
 4092TIP3    H112221   6.867   2.196   3.170
 4092TIP3    H212222   6.887   2.269   3.301
 4093TIP3   OH212223   7.847   6.206   4.405
 4093TIP3    H112224   7.915   6.262   4.369
 4093TIP3    H212225   7.776   6.210   4.341
 4094TIP3   OH212226   1.109   7.196   4.021
 4094TIP3    H112227   1.049   7.178   4.093
 4094TIP3    H212228   1.194   7.210   4.063
 4095TIP3   OH212229   2.663   2.503   4.959
 4095TIP3    H112230   2.641   2.593   4.937
 4095TIP3    H212231   2.637   2.494   5.051
 4096TIP3   OH212232   1.995   7.258   1.641
 4096TIP3    H112233   2.071   7.200   1.645
 4096TIP3    H212234   1.969   7.268   1.733
 4097TIP3   OH212235   5.600   4.693   1.770
 4097TIP3    H112236   5.646   4.652   1.697
 4097TIP3    H212237   5.622   4.638   1.846
 4098TIP3   OH212238   5.536   3.226   1.495
 4098TIP3    H112239   5.459   3.182   1.459
 4098TIP3    H212240   5.510   3.249   1.585
 4099TIP3   OH212241   6.491   5.067   6.271
 4099TIP3    H112242   6.481   4.976   6.298
 4099TIP3    H212243   6.563   5.066   6.208
 4100TIP3   OH212244   4.283   7.446   3.891
 4100TIP3    H112245   4.250   7.384   3.826
 4100TIP3    H212246   4.247   7.416   3.974
 4101TIP3   OH212247   6.229   3.948   0.727
 4101TIP3    H112248   6.319   3.944   0.760
 4101TIP3    H212249   6.197   3.858   0.735
 4102TIP3   OH212250   0.368   5.890   0.529
 4102TIP3    H112251   0.427   5.840   0.473
 4102TIP3    H212252   0.323   5.950   0.469
 4103TIP3   OH212253   2.321   1.665   0.780
 4103TIP3    H112254   2.374   1.720   0.723
 4103TIP3    H212255   2.321   1.579   0.737
 4104TIP3   OH212256   6.519   4.451   4.709
 4104TIP3    H112257   6.592   4.422   4.763
 4104TIP3    H212258   6.546   4.536   4.675
 4105TIP3   OH212259   2.825   2.179   6.025
 4105TIP3    H112260   2.812   2.260   6.074
 4105TIP3    H212261   2.778   2.113   6.076
 4106TIP3   OH212262   7.099   5.625   4.263
 4106TIP3    H112263   7.069   5.563   4.330
 4106TIP3    H212264   7.089   5.577   4.181
 4107TIP3   OH212265   1.750   2.976   4.171
 4107TIP3    H112266   1.740   3.021   4.087
 4107TIP3    H212267   1.792   3.041   4.228
 4108TIP3   OH212268   2.554   6.990   4.701
 4108TIP3    H112269   2.483   6.928   4.719
 4108TIP3    H212270   2.531   7.068   4.751
 4109TIP3   OH212271   6.553   4.176   0.692
 4109TIP3    H112272   6.613   4.112   0.731
 4109TIP3    H212273   6.475   4.171   0.747
 4110TIP3   OH212274   5.670   0.640   6.025
 4110TIP3    H112275   5.613   0.569   5.997
 4110TIP3    H212276   5.714   0.669   5.944
 4111TIP3   OH212277   3.885   5.392   6.705
 4111TIP3    H112278   3.931   5.313   6.677
 4111TIP3    H212279   3.899   5.454   6.634
 4112TIP3   OH212280   7.564   2.477   2.028
 4112TIP3    H112281   7.510   2.423   2.085
 4112TIP3    H212282   7.583   2.555   2.081
 4113TIP3   OH212283   3.009   5.044   4.577
 4113TIP3    H112284   3.020   4.953   4.550
 4113TIP3    H212285   3.089   5.087   4.550
 4114TIP3   OH212286   6.984   3.044   6.416
 4114TIP3    H112287   6.935   3.125   6.407
 4114TIP3    H212288   6.916   2.976   6.423
 4115TIP3   OH212289   5.922   1.621   1.634
 4115TIP3    H112290   5.928   1.540   1.685
 4115TIP3    H212291   6.001   1.622   1.581
 4116TIP3   OH212292   0.167   0.282   3.430
 4116TIP3    H112293   0.153   0.208   3.371
 4116TIP3    H212294   0.261   0.281   3.449
 4117TIP3   OH212295   2.058   5.347   5.533
 4117TIP3    H112296   2.108   5.266   5.534
 4117TIP3    H212297   2.019   5.352   5.621
 4118TIP3   OH212298   2.124   3.159   0.242
 4118TIP3    H112299   2.119   3.094   0.172
 4118TIP3    H212300   2.204   3.208   0.224
 4119TIP3   OH212301   3.613   4.926   5.119
 4119TIP3    H112302   3.601   4.837   5.088
 4119TIP3    H212303   3.535   4.944   5.172
 4120TIP3   OH212304   6.326   2.940   4.955
 4120TIP3    H112305   6.341   2.902   5.041
 4120TIP3    H212306   6.387   3.014   4.951
 4121TIP3   OH212307   3.967   4.637   0.561
 4121TIP3    H112308   3.977   4.669   0.471
 4121TIP3    H212309   4.016   4.700   0.614
 4122TIP3   OH212310   3.768   6.124   3.404
 4122TIP3    H112311   3.772   6.096   3.495
 4122TIP3    H212312   3.684   6.090   3.372
 4123TIP3   OH212313   1.010   3.655   5.917
 4123TIP3    H112314   0.924   3.648   5.876
 4123TIP3    H212315   1.019   3.575   5.969
 4124TIP3   OH212316   3.639   1.822   2.454
 4124TIP3    H112317   3.680   1.903   2.423
 4124TIP3    H212318   3.553   1.849   2.485
 4125TIP3   OH212319   6.280   5.154   5.515
 4125TIP3    H112320   6.230   5.132   5.436
 4125TIP3    H212321   6.261   5.084   5.577
 4126TIP3   OH212322   8.278   6.160   2.222
 4126TIP3    H112323   8.319   6.087   2.176
 4126TIP3    H212324   8.251   6.123   2.306
 4127TIP3   OH212325   7.662   3.899   3.942
 4127TIP3    H112326   7.704   3.820   3.974
 4127TIP3    H212327   7.619   3.937   4.019
 4128TIP3   OH212328   2.742   6.166   0.983
 4128TIP3    H112329   2.738   6.071   0.994
 4128TIP3    H212330   2.783   6.179   0.898
 4129TIP3   OH212331   3.837   1.490   5.765
 4129TIP3    H112332   3.909   1.433   5.736
 4129TIP3    H212333   3.862   1.577   5.735
 4130TIP3   OH212334   6.717   7.313   2.417
 4130TIP3    H112335   6.652   7.253   2.380
 4130TIP3    H212336   6.730   7.379   2.349
 4131TIP3   OH212337   1.206   1.337   1.569
 4131TIP3    H112338   1.265   1.271   1.605
 4131TIP3    H212339   1.259   1.384   1.505
 4132TIP3   OH212340   5.869   7.387   0.141
 4132TIP3    H112341   5.821   7.429   0.070
 4132TIP3    H212342   5.859   7.293   0.125
 4133TIP3   OH212343   4.916   4.768   3.134
 4133TIP3    H112344   4.956   4.795   3.217
 4133TIP3    H212345   4.857   4.839   3.112
 4134TIP3   OH212346   7.207   0.224   0.554
 4134TIP3    H112347   7.303   0.222   0.545
 4134TIP3    H212348   7.191   0.290   0.622
 4135TIP3   OH212349   3.590   0.436   3.485
 4135TIP3    H112350   3.653   0.395   3.426
 4135TIP3    H212351   3.547   0.504   3.432
 4136TIP3   OH212352   2.708   3.716   2.617
 4136TIP3    H112353   2.688   3.661   2.692
 4136TIP3    H212354   2.766   3.783   2.651
 4137TIP3   OH212355   1.949   2.011   1.788
 4137TIP3    H112356   1.872   1.961   1.759
 4137TIP3    H212357   1.985   1.959   1.859
 4138TIP3   OH212358   6.406   3.158   0.157
 4138TIP3    H112359   6.425   3.133   0.067
 4138TIP3    H212360   6.330   3.104   0.181
 4139TIP3   OH212361   1.783   1.995   4.012
 4139TIP3    H112362   1.725   2.055   3.965
 4139TIP3    H212363   1.871   2.017   3.982
 4140TIP3   OH212364   4.976   5.287   2.233
 4140TIP3    H112365   5.071   5.277   2.227
 4140TIP3    H212366   4.962   5.345   2.308
 4141TIP3   OH212367   0.325   2.382   4.848
 4141TIP3    H112368   0.393   2.319   4.824
 4141TIP3    H212369   0.337   2.454   4.786
 4142TIP3   OH212370   0.691   1.458   4.279
 4142TIP3    H112371   0.760   1.479   4.217
 4142TIP3    H212372   0.720   1.498   4.362
 4143TIP3   OH212373   3.016   4.238   4.946
 4143TIP3    H112374   2.954   4.167   4.958
 4143TIP3    H212375   3.097   4.195   4.920
 4144TIP3   OH212376   4.319   0.462   5.561
 4144TIP3    H112377   4.355   0.374   5.547
 4144TIP3    H212378   4.233   0.447   5.600
 4145TIP3   OH212379   2.629   0.259   4.448
 4145TIP3    H112380   2.711   0.291   4.484
 4145TIP3    H212381   2.625   0.297   4.360
 4146TIP3   OH212382   3.332   2.837   2.221
 4146TIP3    H112383   3.333   2.932   2.214
 4146TIP3    H212384   3.304   2.806   2.135
 4147TIP3   OH212385   4.887   5.540   5.854
 4147TIP3    H112386   4.977   5.511   5.841
 4147TIP3    H212387   4.882   5.623   5.807
 4148TIP3   OH212388   4.181   7.277   3.326
 4148TIP3    H112389   4.108   7.254   3.384
 4148TIP3    H212390   4.146   7.344   3.268
 4149TIP3   OH212391   3.449   2.509   2.477
 4149TIP3    H112392   3.416   2.455   2.549
 4149TIP3    H212393   3.376   2.566   2.454
 4150TIP3   OH212394   7.788   3.173   2.660
 4150TIP3    H112395   7.789   3.222   2.578
 4150TIP3    H212396   7.867   3.201   2.707
 4151TIP3   OH212397   7.597   4.486   4.285
 4151TIP3    H112398   7.571   4.572   4.317
 4151TIP3    H212399   7.600   4.431   4.363
 4152TIP3   OH212400   4.063   0.531   1.366
 4152TIP3    H112401   4.039   0.607   1.417
 4152TIP3    H212402   4.142   0.558   1.318
 4153TIP3   OH212403   0.641   5.511   5.821
 4153TIP3    H112404   0.564   5.557   5.853
 4153TIP3    H212405   0.662   5.448   5.891
 4154TIP3   OH212406   7.448   1.148   5.008
 4154TIP3    H112407   7.397   1.185   5.081
 4154TIP3    H212408   7.439   1.053   5.019
 4155TIP3   OH212409   0.505   2.584   2.888
 4155TIP3    H112410   0.584   2.636   2.904
 4155TIP3    H212411   0.512   2.557   2.797
 4156TIP3   OH212412   5.336   2.858   6.350
 4156TIP3    H112413   5.358   2.858   6.443
 4156TIP3    H212414   5.244   2.886   6.347
 4157TIP3   OH212415   0.897   4.052   2.953
 4157TIP3    H112416   0.914   4.146   2.957
 4157TIP3    H212417   0.963   4.012   3.009
 4158TIP3   OH212418   2.898   3.319   6.780
 4158TIP3    H112419   2.894   3.310   6.685
 4158TIP3    H212420   2.810   3.346   6.806
 4159TIP3   OH212421   3.296   6.688   3.466
 4159TIP3    H112422   3.284   6.601   3.504
 4159TIP3    H212423   3.380   6.684   3.421
 4160TIP3   OH212424   6.540   1.032   0.909
 4160TIP3    H112425   6.548   0.999   0.999
 4160TIP3    H212426   6.447   1.024   0.889
 4161TIP3   OH212427   7.440   2.611   1.830
 4161TIP3    H112428   7.504   2.564   1.883
 4161TIP3    H212429   7.382   2.653   1.894
 4162TIP3   OH212430   0.491   7.036   6.447
 4162TIP3    H112431   0.396   7.040   6.440
 4162TIP3    H212432   0.523   7.099   6.382
 4163TIP3   OH212433   0.385   5.696   4.046
 4163TIP3    H112434   0.312   5.695   4.108
 4163TIP3    H212435   0.446   5.760   4.082
 4164TIP3   OH212436   7.397   0.693   1.121
 4164TIP3    H112437   7.329   0.738   1.069
 4164TIP3    H212438   7.449   0.646   1.056
 4165TIP3   OH212439   1.375   2.682   3.695
 4165TIP3    H112440   1.294   2.727   3.670
 4165TIP3    H212441   1.417   2.742   3.757
 4166TIP3   OH212442   6.209   1.576   1.556
 4166TIP3    H112443   6.198   1.598   1.464
 4166TIP3    H212444   6.282   1.630   1.585
 4167TIP3   OH212445   3.527   6.189   1.865
 4167TIP3    H112446   3.481   6.255   1.918
 4167TIP3    H212447   3.605   6.167   1.916
 4168TIP3   OH212448   0.432   5.260   3.471
 4168TIP3    H112449   0.488   5.327   3.511
 4168TIP3    H212450   0.493   5.203   3.425
 4169TIP3   OH212451   5.244   4.400   5.723
 4169TIP3    H112452   5.250   4.441   5.637
 4169TIP3    H212453   5.318   4.435   5.772
 4170TIP3   OH212454   3.036   6.291   1.781
 4170TIP3    H112455   3.086   6.339   1.847
 4170TIP3    H212456   2.956   6.264   1.827
 4171TIP3   OH212457   6.099   4.369   6.340
 4171TIP3    H112458   6.178   4.423   6.337
 4171TIP3    H212459   6.027   4.432   6.349
 4172TIP3   OH212460   3.949   0.473   0.797
 4172TIP3    H112461   3.895   0.529   0.741
 4172TIP3    H212462   3.920   0.384   0.777
 4173TIP3   OH212463   1.319   6.813   4.681
 4173TIP3    H112464   1.349   6.727   4.709
 4173TIP3    H212465   1.374   6.834   4.605
 4174TIP3   OH212466   5.637   3.034   6.049
 4174TIP3    H112467   5.638   3.002   6.139
 4174TIP3    H212468   5.586   2.968   6.001
 4175TIP3   OH212469   0.461   5.278   6.749
 4175TIP3    H112470   0.498   5.348   6.804
 4175TIP3    H212471   0.394   5.322   6.696
 4176TIP3   OH212472   0.826   1.768   4.043
 4176TIP3    H112473   0.734   1.759   4.067
 4176TIP3    H212474   0.865   1.683   4.064
 4177TIP3   OH212475   6.140   2.032   5.704
 4177TIP3    H112476   6.201   2.064   5.638
 4177TIP3    H212477   6.172   2.070   5.786
 4178TIP3   OH212478   2.672   5.902   2.716
 4178TIP3    H112479   2.690   5.968   2.783
 4178TIP3    H212480   2.623   5.948   2.648
 4179TIP3   OH212481   6.790   3.897   3.896
 4179TIP3    H112482   6.868   3.857   3.933
 4179TIP3    H212483   6.718   3.845   3.929
 4180TIP3   OH212484   4.804   6.307   3.679
 4180TIP3    H112485   4.718   6.305   3.721
 4180TIP3    H212486   4.843   6.390   3.708
 4181TIP3   OH212487   3.629   4.810   1.151
 4181TIP3    H112488   3.604   4.881   1.211
 4181TIP3    H212489   3.569   4.738   1.173
 4182TIP3   OH212490   4.230   4.562   5.454
 4182TIP3    H112491   4.302   4.548   5.516
 4182TIP3    H212492   4.216   4.476   5.414
 4183TIP3   OH212493   1.341   5.261   2.979
 4183TIP3    H112494   1.313   5.347   3.012
 4183TIP3    H212495   1.395   5.225   3.050
 4184TIP3   OH212496   0.858   2.893   1.122
 4184TIP3    H112497   0.896   2.809   1.150
 4184TIP3    H212498   0.835   2.879   1.030
 4185TIP3   OH212499   0.102   1.310   3.294
 4185TIP3    H112500   0.027   1.267   3.252
 4185TIP3    H212501   0.078   1.314   3.387
 4186TIP3   OH212502   7.218   5.427   0.983
 4186TIP3    H112503   7.243   5.437   1.075
 4186TIP3    H212504   7.243   5.337   0.962
 4187TIP3   OH212505   0.120   2.307   2.881
 4187TIP3    H112506   0.124   2.344   2.793
 4187TIP3    H212507   0.073   2.224   2.871
 4188TIP3   OH212508   4.099   5.604   6.457
 4188TIP3    H112509   4.025   5.629   6.512
 4188TIP3    H212510   4.118   5.682   6.405
 4189TIP3   OH212511   7.052   6.298   3.636
 4189TIP3    H112512   7.004   6.332   3.712
 4189TIP3    H212513   6.986   6.250   3.586
 4190TIP3   OH212514   6.336   6.713   5.105
 4190TIP3    H112515   6.379   6.780   5.159
 4190TIP3    H212516   6.299   6.761   5.031
 4191TIP3   OH212517   3.644   3.022   2.628
 4191TIP3    H112518   3.591   2.947   2.601
 4191TIP3    H212519   3.721   2.984   2.670
 4192TIP3   OH212520   3.036   6.108   3.127
 4192TIP3    H112521   2.956   6.062   3.153
 4192TIP3    H212522   3.056   6.074   3.040
 4193TIP3   OH212523   7.450   2.991   1.971
 4193TIP3    H112524   7.529   2.973   1.920
 4193TIP3    H212525   7.378   2.983   1.908
 4194TIP3   OH212526   3.155   6.554   0.927
 4194TIP3    H112527   3.195   6.641   0.926
 4194TIP3    H212528   3.063   6.571   0.943
 4195TIP3   OH212529   1.789   6.335   0.657
 4195TIP3    H112530   1.811   6.412   0.605
 4195TIP3    H212531   1.732   6.284   0.600
 4196TIP3   OH212532   5.139   2.734   2.428
 4196TIP3    H112533   5.110   2.645   2.410
 4196TIP3    H212534   5.168   2.732   2.519
 4197TIP3   OH212535   6.413   4.322   4.458
 4197TIP3    H112536   6.488   4.381   4.451
 4197TIP3    H212537   6.407   4.302   4.551
 4198TIP3   OH212538   2.880   0.101   3.815
 4198TIP3    H112539   2.889   0.197   3.816
 4198TIP3    H212540   2.790   0.085   3.842
 4199TIP3   OH212541   7.374   1.155   3.313
 4199TIP3    H112542   7.291   1.199   3.331
 4199TIP3    H212543   7.400   1.117   3.397
 4200TIP3   OH212544   4.342   1.688   0.358
 4200TIP3    H112545   4.355   1.605   0.406
 4200TIP3    H212546   4.426   1.704   0.315
 4201TIP3   OH212547   2.148   0.942   0.876
 4201TIP3    H112548   2.197   1.024   0.866
 4201TIP3    H212549   2.213   0.881   0.910
 4202TIP3   OH212550   3.800   4.750   2.597
 4202TIP3    H112551   3.795   4.671   2.652
 4202TIP3    H212552   3.827   4.717   2.512
 4203TIP3   OH212553   2.291   2.207   5.360
 4203TIP3    H112554   2.271   2.239   5.272
 4203TIP3    H212555   2.207   2.210   5.406
 4204TIP3   OH212556   3.561   1.932   1.371
 4204TIP3    H112557   3.616   1.996   1.328
 4204TIP3    H212558   3.610   1.907   1.449
 4205TIP3   OH212559   3.068   5.177   3.597
 4205TIP3    H112560   3.050   5.108   3.661
 4205TIP3    H212561   3.130   5.138   3.536
 4206TIP3   OH212562   0.256   3.960   6.191
 4206TIP3    H112563   0.263   4.045   6.149
 4206TIP3    H212564   0.173   3.925   6.159
 4207TIP3   OH212565   7.308   7.300   1.696
 4207TIP3    H112566   7.384   7.344   1.736
 4207TIP3    H212567   7.284   7.232   1.759
 4208TIP3   OH212568   5.715   7.538   5.900
 4208TIP3    H112569   5.696   7.559   5.809
 4208TIP3    H212570   5.786   7.474   5.895
 4209TIP3   OH212571   3.157   2.266   1.936
 4209TIP3    H112572   3.165   2.195   1.873
 4209TIP3    H212573   3.128   2.342   1.884
 4210TIP3   OH212574   3.688   4.384   2.906
 4210TIP3    H112575   3.741   4.311   2.871
 4210TIP3    H212576   3.604   4.344   2.928
 4211TIP3   OH212577   3.683   5.631   3.136
 4211TIP3    H112578   3.628   5.671   3.069
 4211TIP3    H212579   3.752   5.696   3.152
 4212TIP3   OH212580   2.188   3.761   3.292
 4212TIP3    H112581   2.250   3.718   3.351
 4212TIP3    H212582   2.237   3.837   3.258
 4213TIP3   OH212583   3.702   1.987   0.079
 4213TIP3    H112584   3.622   2.002   0.029
 4213TIP3    H212585   3.768   1.966   0.013
 4214TIP3   OH212586   3.583   2.949   5.123
 4214TIP3    H112587   3.568   2.968   5.031
 4214TIP3    H212588   3.566   3.032   5.168
 4215TIP3   OH212589   6.994   6.709   6.322
 4215TIP3    H112590   6.922   6.746   6.270
 4215TIP3    H212591   7.069   6.708   6.262
 4216TIP3   OH212592   0.471   5.071   4.790
 4216TIP3    H112593   0.420   5.116   4.722
 4216TIP3    H212594   0.420   4.992   4.809
 4217TIP3   OH212595   6.100   7.695   0.061
 4217TIP3    H112596   6.181   7.663   0.100
 4217TIP3    H212597   6.031   7.657   0.115
 4218TIP3   OH212598   6.500   7.031   1.579
 4218TIP3    H112599   6.463   6.945   1.598
 4218TIP3    H212600   6.578   7.012   1.527
 4219TIP3   OH212601   2.667   2.250   4.802
 4219TIP3    H112602   2.684   2.340   4.830
 4219TIP3    H212603   2.705   2.244   4.714
 4220TIP3   OH212604   7.057   5.469   5.687
 4220TIP3    H112605   7.041   5.544   5.630
 4220TIP3    H212606   7.135   5.493   5.737
 4221TIP3   OH212607   3.038   2.885   2.392
 4221TIP3    H112608   3.027   2.831   2.314
 4221TIP3    H212609   3.085   2.962   2.361
 4222TIP3   OH212610   5.481   7.028   5.573
 4222TIP3    H112611   5.462   7.037   5.479
 4222TIP3    H212612   5.572   6.999   5.576
 4223TIP3   OH212613   2.253   3.021   0.962
 4223TIP3    H112614   2.298   3.082   1.020
 4223TIP3    H212615   2.310   2.944   0.958
 4224TIP3   OH212616   0.123   6.204   6.318
 4224TIP3    H112617   0.086   6.157   6.244
 4224TIP3    H212618   0.190   6.261   6.279
 4225TIP3   OH212619   8.012   7.295   1.579
 4225TIP3    H112620   8.021   7.363   1.646
 4225TIP3    H212621   7.919   7.297   1.555
 4226TIP3   OH212622   5.255   4.425   4.824
 4226TIP3    H112623   5.302   4.407   4.906
 4226TIP3    H212624   5.317   4.475   4.771
 4227TIP3   OH212625   2.620   0.203   1.787
 4227TIP3    H112626   2.645   0.176   1.876
 4227TIP3    H212627   2.658   0.290   1.777
 4228TIP3   OH212628   6.794   3.970   5.189
 4228TIP3    H112629   6.842   3.899   5.233
 4228TIP3    H212630   6.773   3.934   5.103
 4229TIP3   OH212631   1.426   7.346   2.270
 4229TIP3    H112632   1.490   7.412   2.241
 4229TIP3    H212633   1.479   7.280   2.315
 4230TIP3   OH212634   3.173   4.971   4.270
 4230TIP3    H112635   3.202   5.040   4.330
 4230TIP3    H212636   3.134   4.905   4.326
 4231TIP3   OH212637   7.638   1.965   5.048
 4231TIP3    H112638   7.668   1.875   5.065
 4231TIP3    H212639   7.571   1.956   4.981
 4232TIP3   OH212640   0.205   3.286   1.313
 4232TIP3    H112641   0.236   3.225   1.247
 4232TIP3    H212642   0.168   3.359   1.264
 4233TIP3   OH212643   0.665   5.316   6.014
 4233TIP3    H112644   0.655   5.375   6.089
 4233TIP3    H212645   0.651   5.228   6.050
 4234TIP3   OH212646   0.028   5.373   6.435
 4234TIP3    H112647  -0.041   5.437   6.414
 4234TIP3    H212648   0.048   5.331   6.352
 4235TIP3   OH212649   0.099   0.300   2.164
 4235TIP3    H112650   0.055   0.342   2.238
 4235TIP3    H212651   0.191   0.324   2.174
 4236TIP3   OH212652   1.681   3.305   3.720
 4236TIP3    H112653   1.662   3.396   3.697
 4236TIP3    H212654   1.621   3.253   3.667
 4237TIP3   OH212655   5.805   3.730   5.958
 4237TIP3    H112656   5.830   3.728   6.050
 4237TIP3    H212657   5.886   3.747   5.911
 4238TIP3   OH212658   5.066   7.108   6.410
 4238TIP3    H112659   5.139   7.142   6.358
 4238TIP3    H212660   5.039   7.029   6.363
 4239TIP3   OH212661   2.154   1.487   3.578
 4239TIP3    H112662   2.098   1.451   3.508
 4239TIP3    H212663   2.137   1.581   3.576
 4240TIP3   OH212664   6.974   2.758   3.736
 4240TIP3    H112665   6.941   2.734   3.649
 4240TIP3    H212666   6.950   2.850   3.746
 4241TIP3   OH212667   1.037   5.454   2.481
 4241TIP3    H112668   1.124   5.422   2.507
 4241TIP3    H212669   1.053   5.501   2.398
 4242TIP3   OH212670   5.911   4.924   1.842
 4242TIP3    H112671   5.944   5.011   1.864
 4242TIP3    H212672   5.815   4.931   1.849
 4243TIP3   OH212673   4.671   7.591   6.335
 4243TIP3    H112674   4.713   7.651   6.398
 4243TIP3    H212675   4.582   7.625   6.326
 4244TIP3   OH212676   3.900   6.872   5.323
 4244TIP3    H112677   3.892   6.886   5.417
 4244TIP3    H212678   3.993   6.878   5.305
 4245TIP3   OH212679   3.566   1.845   0.371
 4245TIP3    H112680   3.576   1.777   0.305
 4245TIP3    H212681   3.655   1.867   0.397
 4246TIP3   OH212682   1.310   2.034   6.139
 4246TIP3    H112683   1.313   1.975   6.214
 4246TIP3    H212684   1.341   2.118   6.174
 4247TIP3   OH212685   0.121   6.886   2.018
 4247TIP3    H112686   0.142   6.848   1.933
 4247TIP3    H212687   0.187   6.851   2.078
 4248TIP3   OH212688   8.244   5.967   0.363
 4248TIP3    H112689   8.267   6.027   0.434
 4248TIP3    H212690   8.316   5.905   0.361
 4249TIP3   OH212691   4.012   0.961   6.226
 4249TIP3    H112692   4.086   0.907   6.254
 4249TIP3    H212693   3.965   0.906   6.163
 4250TIP3   OH212694   2.255   4.051   3.563
 4250TIP3    H112695   2.265   4.091   3.477
 4250TIP3    H212696   2.344   4.021   3.586
 4251TIP3   OH212697   4.958   3.620   1.244
 4251TIP3    H112698   4.866   3.596   1.246
 4251TIP3    H212699   4.969   3.682   1.316
 4252TIP3   OH212700   7.775   3.853   1.055
 4252TIP3    H112701   7.765   3.938   1.013
 4252TIP3    H212702   7.753   3.789   0.987
 4253TIP3   OH212703   5.183   4.286   1.610
 4253TIP3    H112704   5.249   4.243   1.664
 4253TIP3    H212705   5.197   4.251   1.522
 4254TIP3   OH212706   7.899   1.907   5.552
 4254TIP3    H112707   7.818   1.873   5.515
 4254TIP3    H212708   7.871   1.971   5.616
 4255TIP3   OH212709   3.723   2.281   1.294
 4255TIP3    H112710   3.764   2.194   1.297
 4255TIP3    H212711   3.668   2.283   1.373
 4256TIP3   OH212712   7.888   0.096   5.369
 4256TIP3    H112713   7.975   0.136   5.373
 4256TIP3    H212714   7.884   0.056   5.282
 4257TIP3   OH212715   3.603   5.310   4.854
 4257TIP3    H112716   3.661   5.234   4.844
 4257TIP3    H212717   3.521   5.272   4.885
 4258TIP3   OH212718   3.753   0.091   0.126
 4258TIP3    H112719   3.710   0.015   0.087
 4258TIP3    H212720   3.717   0.096   0.215
 4259TIP3   OH212721   2.902   7.684   4.836
 4259TIP3    H112722   2.923   7.619   4.902
 4259TIP3    H212723   2.987   7.710   4.800
 4260TIP3   OH212724   4.473   7.059   0.221
 4260TIP3    H112725   4.541   7.060   0.154
 4260TIP3    H212726   4.403   7.005   0.184
 4261TIP3   OH212727   6.933   0.111   4.110
 4261TIP3    H112728   6.886   0.187   4.145
 4261TIP3    H212729   6.864   0.050   4.084
 4262TIP3   OH212730   7.298   4.825   2.274
 4262TIP3    H112731   7.360   4.770   2.322
 4262TIP3    H212732   7.347   4.905   2.254
 4263TIP3   OH212733   0.372   1.151   5.793
 4263TIP3    H112734   0.461   1.148   5.828
 4263TIP3    H212735   0.316   1.163   5.870
 4264TIP3   OH212736   5.195   1.257   1.292
 4264TIP3    H112737   5.225   1.169   1.317
 4264TIP3    H212738   5.114   1.269   1.341
 4265TIP3   OH212739   5.024   1.718   0.769
 4265TIP3    H112740   5.000   1.698   0.860
 4265TIP3    H212741   4.943   1.748   0.729
 4266TIP3   OH212742   6.982   0.192   0.915
 4266TIP3    H112743   6.895   0.153   0.908
 4266TIP3    H212744   7.040   0.133   0.868
 4267TIP3   OH212745   1.177   0.100   1.933
 4267TIP3    H112746   1.257   0.074   1.887
 4267TIP3    H212747   1.206   0.169   1.993
 4268TIP3   OH212748   3.680   2.465   4.096
 4268TIP3    H112749   3.591   2.495   4.078
 4268TIP3    H212750   3.729   2.484   4.017
 4269TIP3   OH212751   1.278   5.745   5.248
 4269TIP3    H112752   1.370   5.717   5.253
 4269TIP3    H212753   1.230   5.665   5.226
 4270TIP3   OH212754   0.378   2.178   6.528
 4270TIP3    H112755   0.289   2.148   6.547
 4270TIP3    H212756   0.429   2.152   6.606
 4271TIP3   OH212757   2.332   0.462   3.083
 4271TIP3    H112758   2.295   0.551   3.084
 4271TIP3    H212759   2.427   0.476   3.089
 4272TIP3   OH212760   3.100   3.561   0.625
 4272TIP3    H112761   3.158   3.491   0.655
 4272TIP3    H212762   3.099   3.624   0.697
 4273TIP3   OH212763   7.115   5.104   4.462
 4273TIP3    H112764   7.086   5.015   4.482
 4273TIP3    H212765   7.208   5.105   4.484
 4274TIP3   OH212766   2.791   5.074   2.747
 4274TIP3    H112767   2.805   5.162   2.782
 4274TIP3    H212768   2.707   5.046   2.785
 4275TIP3   OH212769   3.929   3.078   3.285
 4275TIP3    H112770   3.978   3.008   3.327
 4275TIP3    H212771   3.890   3.127   3.357
 4276TIP3   OH212772   2.506   5.184   0.590
 4276TIP3    H112773   2.549   5.117   0.536
 4276TIP3    H212774   2.436   5.218   0.535
 4277TIP3   OH212775   8.019   7.326   6.547
 4277TIP3    H112776   8.025   7.351   6.455
 4277TIP3    H212777   8.034   7.232   6.548
 4278TIP3   OH212778   7.123   0.199   4.686
 4278TIP3    H112779   7.095   0.134   4.621
 4278TIP3    H212780   7.105   0.158   4.770
 4279TIP3   OH212781   2.682   5.700   3.959
 4279TIP3    H112782   2.697   5.621   3.908
 4279TIP3    H212783   2.613   5.747   3.911
 4280TIP3   OH212784   0.958   4.471   3.260
 4280TIP3    H112785   0.894   4.543   3.262
 4280TIP3    H212786   1.031   4.503   3.312
 4281TIP3   OH212787   4.689   2.098   1.463
 4281TIP3    H112788   4.728   2.045   1.532
 4281TIP3    H212789   4.749   2.171   1.452
 4282TIP3   OH212790   7.003   6.601   4.610
 4282TIP3    H112791   7.057   6.679   4.614
 4282TIP3    H212792   6.913   6.633   4.616
 4283TIP3   OH212793   5.156   1.988   3.968
 4283TIP3    H112794   5.224   2.011   4.032
 4283TIP3    H212795   5.094   1.934   4.018
 4284TIP3   OH212796   8.054   1.280   2.023
 4284TIP3    H112797   8.080   1.235   2.103
 4284TIP3    H212798   8.136   1.300   1.978
 4285TIP3   OH212799   3.409   2.556   5.485
 4285TIP3    H112800   3.337   2.498   5.510
 4285TIP3    H212801   3.384   2.589   5.398
 4286TIP3   OH212802   5.489   1.251   4.772
 4286TIP3    H112803   5.430   1.326   4.774
 4286TIP3    H212804   5.443   1.185   4.721
 4287TIP3   OH212805   0.834   1.076   1.077
 4287TIP3    H112806   0.822   1.164   1.112
 4287TIP3    H212807   0.747   1.051   1.045
 4288TIP3   OH212808   0.431   4.626   4.420
 4288TIP3    H112809   0.479   4.677   4.485
 4288TIP3    H212810   0.498   4.575   4.375
 4289TIP3   OH212811   2.090   2.871   0.388
 4289TIP3    H112812   2.119   2.943   0.444
 4289TIP3    H212813   2.093   2.906   0.299
 4290TIP3   OH212814   4.081   4.820   6.609
 4290TIP3    H112815   4.045   4.821   6.520
 4290TIP3    H212816   4.045   4.740   6.648
 4291TIP3   OH212817   3.607   4.623   0.025
 4291TIP3    H112818   3.668   4.575   0.082
 4291TIP3    H212819   3.603   4.570  -0.055
 4292TIP3   OH212820   5.838   7.446   5.370
 4292TIP3    H112821   5.782   7.524   5.374
 4292TIP3    H212822   5.905   7.469   5.305
 4293TIP3   OH212823   8.073   0.350   3.689
 4293TIP3    H112824   8.068   0.396   3.773
 4293TIP3    H212825   7.984   0.352   3.655
 4294TIP3   OH212826   6.391   6.970   4.210
 4294TIP3    H112827   6.396   7.065   4.218
 4294TIP3    H212828   6.477   6.939   4.240
 4295TIP3   OH212829   7.785   3.466   4.210
 4295TIP3    H112830   7.794   3.407   4.135
 4295TIP3    H212831   7.863   3.450   4.263
 4296TIP3   OH212832   0.855   1.158   2.749
 4296TIP3    H112833   0.944   1.130   2.773
 4296TIP3    H212834   0.800   1.126   2.821
 4297TIP3   OH212835   4.284   4.161   2.510
 4297TIP3    H112836   4.244   4.193   2.590
 4297TIP3    H212837   4.214   4.113   2.465
 4298TIP3   OH212838   6.529   7.730   3.246
 4298TIP3    H112839   6.471   7.668   3.290
 4298TIP3    H212840   6.617   7.702   3.270
 4299TIP3   OH212841   7.117   1.860   5.147
 4299TIP3    H112842   7.131   1.920   5.073
 4299TIP3    H212843   7.188   1.797   5.141
 4300TIP3   OH212844   5.195   7.648   3.934
 4300TIP3    H112845   5.132   7.713   3.966
 4300TIP3    H212846   5.169   7.633   3.843
 4301TIP3   OH212847   4.902   2.773   3.247
 4301TIP3    H112848   4.836   2.790   3.180
 4301TIP3    H212849   4.864   2.706   3.303
 4302TIP3   OH212850   3.060   4.690   2.112
 4302TIP3    H112851   3.044   4.622   2.047
 4302TIP3    H212852   3.041   4.648   2.196
 4303TIP3   OH212853   6.810   3.861   6.592
 4303TIP3    H112854   6.795   3.951   6.621
 4303TIP3    H212855   6.722   3.824   6.584
 4304TIP3   OH212856   7.093   4.626  -0.046
 4304TIP3    H112857   7.143   4.609   0.034
 4304TIP3    H212858   7.148   4.687  -0.095
 4305TIP3   OH212859   3.429   4.487   4.103
 4305TIP3    H112860   3.465   4.399   4.094
 4305TIP3    H212861   3.394   4.490   4.192
 4306TIP3   OH212862   2.825   6.152   0.042
 4306TIP3    H112863   2.780   6.214   0.099
 4306TIP3    H212864   2.909   6.136   0.086
 4307TIP3   OH212865   1.978   5.577   2.687
 4307TIP3    H112866   1.961   5.592   2.780
 4307TIP3    H212867   2.009   5.487   2.682
 4308TIP3   OH212868   4.496   6.535   0.818
 4308TIP3    H112869   4.497   6.527   0.913
 4308TIP3    H212870   4.571   6.484   0.789
 4309TIP3   OH212871   5.511   5.586   4.840
 4309TIP3    H112872   5.435   5.542   4.878
 4309TIP3    H212873   5.527   5.539   4.757
 4310TIP3   OH212874   2.168   3.421   5.769
 4310TIP3    H112875   2.142   3.479   5.840
 4310TIP3    H212876   2.257   3.394   5.790
 4311TIP3   OH212877   4.512   1.570   5.687
 4311TIP3    H112878   4.451   1.528   5.626
 4311TIP3    H212879   4.547   1.497   5.739
 4312TIP3   OH212880   6.321   4.029   4.930
 4312TIP3    H112881   6.288   4.102   4.877
 4312TIP3    H212882   6.362   3.970   4.866
 4313TIP3   OH212883   1.448   6.621   6.568
 4313TIP3    H112884   1.357   6.628   6.599
 4313TIP3    H212885   1.449   6.541   6.517
 4314TIP3   OH212886   1.849   3.270   4.706
 4314TIP3    H112887   1.873   3.179   4.686
 4314TIP3    H212888   1.909   3.322   4.652
 4315TIP3   OH212889   4.951   3.151   4.321
 4315TIP3    H112890   5.004   3.082   4.283
 4315TIP3    H212891   5.014   3.209   4.364
 4316TIP3   OH212892   5.869   6.000   3.929
 4316TIP3    H112893   5.947   6.049   3.901
 4316TIP3    H212894   5.812   6.001   3.852
 4317TIP3   OH212895   6.448   0.552   4.592
 4317TIP3    H112896   6.409   0.470   4.624
 4317TIP3    H212897   6.386   0.584   4.527
 4318TIP3   OH212898   1.390   7.348   3.961
 4318TIP3    H112899   1.419   7.410   3.895
 4318TIP3    H212900   1.305   7.383   3.990
 4319TIP3   OH212901   8.051   0.704   3.538
 4319TIP3    H112902   7.983   0.642   3.512
 4319TIP3    H212903   8.068   0.685   3.630
 4320TIP3   OH212904   4.080   5.480   3.160
 4320TIP3    H112905   3.989   5.450   3.167
 4320TIP3    H212906   4.079   5.567   3.200
 4321TIP3   OH212907   1.274   1.039   6.673
 4321TIP3    H112908   1.369   1.047   6.681
 4321TIP3    H212909   1.246   1.119   6.627
 4322TIP3   OH212910   2.286   0.595   4.036
 4322TIP3    H112911   2.231   0.660   3.991
 4322TIP3    H212912   2.365   0.590   3.983
 4323TIP3   OH212913   4.739   4.924   1.358
 4323TIP3    H112914   4.763   4.912   1.266
 4323TIP3    H212915   4.648   4.897   1.363
 4324TIP3   OH212916   6.526   4.340   0.105
 4324TIP3    H112917   6.447   4.350   0.052
 4324TIP3    H212918   6.586   4.290   0.050
 4325TIP3   OH212919   0.618   0.957   6.151
 4325TIP3    H112920   0.550   0.953   6.219
 4325TIP3    H212921   0.641   1.049   6.145
 4326TIP3   OH212922   0.579   4.245   6.207
 4326TIP3    H112923   0.515   4.303   6.247
 4326TIP3    H212924   0.570   4.260   6.113
 4327TIP3   OH212925   1.697   5.439   0.231
 4327TIP3    H112926   1.750   5.516   0.253
 4327TIP3    H212927   1.610   5.475   0.212
 4328TIP3   OH212928   3.585   5.517   6.725
 4328TIP3    H112929   3.535   5.458   6.668
 4328TIP3    H212930   3.673   5.481   6.725
 4329TIP3   OH212931   2.997   4.993   4.891
 4329TIP3    H112932   2.970   4.996   4.800
 4329TIP3    H212933   3.084   4.955   4.890
 4330TIP3   OH212934   4.269   6.346   3.713
 4330TIP3    H112935   4.188   6.397   3.716
 4330TIP3    H212936   4.241   6.258   3.689
 4331TIP3   OH212937   7.203   4.800   0.815
 4331TIP3    H112938   7.257   4.846   0.752
 4331TIP3    H212939   7.150   4.740   0.762
 4332TIP3   OH212940   7.567   1.861   4.413
 4332TIP3    H112941   7.505   1.922   4.452
 4332TIP3    H212942   7.591   1.901   4.329
 4333TIP3   OH212943   3.421   4.127   5.837
 4333TIP3    H112944   3.329   4.153   5.846
 4333TIP3    H212945   3.470   4.208   5.850
 4334TIP3   OH212946   4.422   0.333   5.980
 4334TIP3    H112947   4.422   0.247   5.937
 4334TIP3    H212948   4.514   0.362   5.975
 4335TIP3   OH212949   1.552   3.217   1.072
 4335TIP3    H112950   1.594   3.297   1.039
 4335TIP3    H212951   1.625   3.163   1.103
 4336TIP3   OH212952   0.980   3.179   3.212
 4336TIP3    H112953   1.029   3.203   3.291
 4336TIP3    H212954   0.974   3.261   3.162
 4337TIP3   OH212955   7.679   4.980   1.044
 4337TIP3    H112956   7.660   4.912   1.109
 4337TIP3    H212957   7.596   4.993   0.998
 4338TIP3   OH212958   8.192   5.749   2.712
 4338TIP3    H112959   8.168   5.831   2.668
 4338TIP3    H212960   8.286   5.756   2.727
 4339TIP3   OH212961   3.867   2.613   2.821
 4339TIP3    H112962   3.796   2.620   2.885
 4339TIP3    H212963   3.827   2.572   2.745
 4340TIP3   OH212964   0.722   2.899   0.218
 4340TIP3    H112965   0.695   2.878   0.129
 4340TIP3    H212966   0.658   2.856   0.274
 4341TIP3   OH212967   4.487   3.303   4.760
 4341TIP3    H112968   4.442   3.339   4.836
 4341TIP3    H212969   4.507   3.379   4.705
 4342TIP3   OH212970   4.721   0.252   3.425
 4342TIP3    H112971   4.790   0.254   3.359
 4342TIP3    H212972   4.750   0.186   3.488
 4343TIP3   OH212973   1.079   5.982   2.924
 4343TIP3    H112974   1.171   5.993   2.898
 4343TIP3    H212975   1.058   6.062   2.973
 4344TIP3   OH212976   5.164   1.411   4.541
 4344TIP3    H112977   5.145   1.364   4.460
 4344TIP3    H212978   5.155   1.344   4.610
 4345TIP3   OH212979   7.461   4.514   2.773
 4345TIP3    H112980   7.494   4.593   2.815
 4345TIP3    H212981   7.371   4.536   2.750
 4346TIP3   OH212982   7.333   5.957   2.594
 4346TIP3    H112983   7.286   5.968   2.677
 4346TIP3    H212984   7.312   5.867   2.566
 4347TIP3   OH212985   1.568   1.047   6.714
 4347TIP3    H112986   1.641   0.992   6.745
 4347TIP3    H212987   1.603   1.136   6.715
 4348TIP3   OH212988   6.526   6.274   1.209
 4348TIP3    H112989   6.556   6.273   1.299
 4348TIP3    H212990   6.453   6.336   1.208
 4349TIP3   OH212991   3.477   3.909   6.232
 4349TIP3    H112992   3.544   3.977   6.238
 4349TIP3    H212993   3.464   3.896   6.138
 4350TIP3   OH212994   2.645   6.960   2.687
 4350TIP3    H112995   2.656   6.889   2.751
 4350TIP3    H212996   2.550   6.974   2.684
 4351TIP3   OH212997   4.371   1.161   5.329
 4351TIP3    H112998   4.421   1.205   5.397
 4351TIP3    H212999   4.282   1.195   5.338
 4352TIP3   OH213000   2.665   1.650   2.108
 4352TIP3    H113001   2.676   1.720   2.043
 4352TIP3    H213002   2.669   1.569   2.057
 4353TIP3   OH213003   7.363   6.430   5.141
 4353TIP3    H113004   7.305   6.503   5.117
 4353TIP3    H213005   7.330   6.356   5.091
 4354TIP3   OH213006   6.968   4.898   6.229
 4354TIP3    H113007   6.962   4.948   6.310
 4354TIP3    H213008   6.886   4.849   6.224
 4355TIP3   OH213009   2.172   4.502   2.305
 4355TIP3    H113010   2.251   4.535   2.348
 4355TIP3    H213011   2.112   4.576   2.305
 4356TIP3   OH213012   0.856   7.769   2.900
 4356TIP3    H113013   0.915   7.838   2.930
 4356TIP3    H213014   0.901   7.687   2.922
 4357TIP3   OH213015   2.738   6.756   1.066
 4357TIP3    H113016   2.649   6.766   1.033
 4357TIP3    H213017   2.764   6.845   1.090
 4358TIP3   OH213018   2.889   6.057   2.540
 4358TIP3    H113019   2.899   6.152   2.538
 4358TIP3    H213020   2.798   6.043   2.565
 4359TIP3   OH213021   5.135   6.641   0.060
 4359TIP3    H113022   5.043   6.637   0.085
 4359TIP3    H213023   5.152   6.735   0.048
 4360TIP3   OH213024   6.574   4.837   1.232
 4360TIP3    H113025   6.579   4.928   1.259
 4360TIP3    H213026   6.523   4.837   1.151
 4361TIP3   OH213027   4.036   0.309   6.575
 4361TIP3    H113028   3.992   0.234   6.537
 4361TIP3    H213029   4.127   0.301   6.546
 4362TIP3   OH213030   0.666   7.078   4.122
 4362TIP3    H113031   0.757   7.109   4.117
 4362TIP3    H213032   0.657   7.042   4.210
 4363TIP3   OH213033   3.344   4.392   1.970
 4363TIP3    H113034   3.266   4.371   2.020
 4363TIP3    H213035   3.389   4.308   1.960
 4364TIP3   OH213036   6.937   6.523   1.982
 4364TIP3    H113037   6.961   6.576   2.059
 4364TIP3    H213038   7.016   6.473   1.963
 4365TIP3   OH213039   1.693   7.600   0.595
 4365TIP3    H113040   1.662   7.553   0.672
 4365TIP3    H213041   1.633   7.673   0.585
 4366TIP3   OH213042   3.440   6.884   2.014
 4366TIP3    H113043   3.435   6.923   2.101
 4366TIP3    H213044   3.353   6.897   1.977
 4367TIP3   OH213045   6.964   5.723   1.638
 4367TIP3    H113046   6.986   5.804   1.592
 4367TIP3    H213047   6.982   5.654   1.574
 4368TIP3   OH213048   3.181   2.155   3.134
 4368TIP3    H113049   3.145   2.066   3.137
 4368TIP3    H213050   3.121   2.207   3.187
 4369TIP3   OH213051   2.381   1.341   5.519
 4369TIP3    H113052   2.466   1.299   5.505
 4369TIP3    H213053   2.329   1.274   5.565
 4370TIP3   OH213054   6.795   7.606   3.657
 4370TIP3    H113055   6.813   7.692   3.694
 4370TIP3    H213056   6.879   7.577   3.621
 4371TIP3   OH213057   7.542   2.519   5.564
 4371TIP3    H113058   7.560   2.559   5.649
 4371TIP3    H213059   7.497   2.437   5.585
 4372TIP3   OH213060   4.800   0.582   5.315
 4372TIP3    H113061   4.728   0.570   5.377
 4372TIP3    H213062   4.874   0.609   5.369
 4373TIP3   OH213063   0.308   5.646   4.670
 4373TIP3    H113064   0.380   5.680   4.724
 4373TIP3    H213065   0.343   5.566   4.631
 4374TIP3   OH213066   3.299   1.609   2.435
 4374TIP3    H113067   3.359   1.577   2.368
 4374TIP3    H213068   3.279   1.533   2.489
 4375TIP3   OH213069   5.907   1.687   0.700
 4375TIP3    H113070   5.936   1.604   0.663
 4375TIP3    H213071   5.882   1.666   0.790
 4376TIP3   OH213072   1.660   3.505   5.420
 4376TIP3    H113073   1.609   3.569   5.370
 4376TIP3    H213074   1.658   3.426   5.366
 4377TIP3   OH213075   6.649   4.546   2.390
 4377TIP3    H113076   6.578   4.506   2.440
 4377TIP3    H213077   6.711   4.577   2.456
 4378TIP3   OH213078   1.628   5.720   1.756
 4378TIP3    H113079   1.635   5.796   1.699
 4378TIP3    H213080   1.693   5.659   1.721
 4379TIP3   OH213081   5.528   6.292   1.811
 4379TIP3    H113082   5.613   6.280   1.769
 4379TIP3    H213083   5.541   6.366   1.871
 4380TIP3   OH213084   5.900   5.742   1.731
 4380TIP3    H113085   5.878   5.815   1.673
 4380TIP3    H213086   5.993   5.754   1.751
 4381TIP3   OH213087   8.233   6.274   2.475
 4381TIP3    H113088   8.153   6.298   2.522
 4381TIP3    H213089   8.262   6.355   2.434
 4382TIP3   OH213090   0.260   1.356   2.839
 4382TIP3    H113091   0.263   1.266   2.807
 4382TIP3    H213092   0.302   1.408   2.771
 4383TIP3   OH213093   1.395   6.359   3.238
 4383TIP3    H113094   1.381   6.434   3.297
 4383TIP3    H213095   1.340   6.378   3.162
 4384TIP3   OH213096   7.502   1.902   5.972
 4384TIP3    H113097   7.440   1.925   5.902
 4384TIP3    H213098   7.505   1.806   5.971
 4385TIP3   OH213099   1.106   5.659   0.188
 4385TIP3    H113100   1.049   5.718   0.236
 4385TIP3    H213101   1.162   5.716   0.135
 4386TIP3   OH213102   7.098   3.493   0.251
 4386TIP3    H113103   7.056   3.487   0.336
 4386TIP3    H213104   7.192   3.481   0.269
 4387TIP3   OH213105   5.816   6.364   2.150
 4387TIP3    H113106   5.796   6.311   2.227
 4387TIP3    H213107   5.888   6.421   2.178
 4388TIP3   OH213108   5.166   2.246   4.249
 4388TIP3    H113109   5.162   2.168   4.305
 4388TIP3    H213110   5.232   2.301   4.290
 4389TIP3   OH213111   4.250   1.198   4.957
 4389TIP3    H113112   4.182   1.265   4.951
 4389TIP3    H213113   4.323   1.241   5.002
 4390TIP3   OH213114   6.567   3.777   3.962
 4390TIP3    H113115   6.557   3.682   3.956
 4390TIP3    H213116   6.545   3.798   4.053
 4391TIP3   OH213117   5.792   2.741   4.463
 4391TIP3    H113118   5.812   2.764   4.553
 4391TIP3    H213119   5.736   2.812   4.431
 4392TIP3   OH213120   5.146   2.079   1.389
 4392TIP3    H113121   5.154   2.111   1.479
 4392TIP3    H213122   5.192   1.996   1.388
 4393TIP3   OH213123   5.342   1.860   2.654
 4393TIP3    H113124   5.430   1.827   2.675
 4393TIP3    H213125   5.313   1.904   2.734
 4394TIP3   OH213126   8.036   2.633   2.234
 4394TIP3    H113127   8.103   2.620   2.302
 4394TIP3    H213128   7.968   2.570   2.255
 4395TIP3   OH213129   6.480   0.327   0.806
 4395TIP3    H113130   6.397   0.290   0.837
 4395TIP3    H213131   6.490   0.407   0.857
 4396TIP3   OH213132   6.418   7.338   4.586
 4396TIP3    H113133   6.340   7.283   4.580
 4396TIP3    H213134   6.487   7.278   4.616
 4397TIP3   OH213135   0.758   6.252   5.667
 4397TIP3    H113136   0.708   6.219   5.741
 4397TIP3    H213137   0.838   6.201   5.666
 4398TIP3   OH213138   5.912   7.004   4.531
 4398TIP3    H113139   5.846   6.940   4.508
 4398TIP3    H213140   5.865   7.070   4.582
 4399TIP3   OH213141   1.036   4.112   3.899
 4399TIP3    H113142   1.062   4.108   3.807
 4399TIP3    H213143   1.118   4.125   3.946
 4400TIP3   OH213144   3.757   1.007   0.943
 4400TIP3    H113145   3.714   1.072   0.998
 4400TIP3    H213146   3.842   0.993   0.984
 4401TIP3   OH213147   2.104   3.885   5.758
 4401TIP3    H113148   2.015   3.854   5.775
 4401TIP3    H213149   2.120   3.864   5.666
 4402TIP3   OH213150   5.511   6.089   4.050
 4402TIP3    H113151   5.523   6.160   3.987
 4402TIP3    H213152   5.422   6.101   4.083
 4403TIP3   OH213153   0.875   2.832   2.223
 4403TIP3    H113154   0.814   2.789   2.284
 4403TIP3    H213155   0.831   2.914   2.199
 4404TIP3   OH213156   4.713   6.223   3.098
 4404TIP3    H113157   4.709   6.289   3.167
 4404TIP3    H213158   4.742   6.144   3.144
 4405TIP3   OH213159   5.367   2.081   0.609
 4405TIP3    H113160   5.392   2.173   0.612
 4405TIP3    H213161   5.340   2.066   0.518
 4406TIP3   OH213162   2.801   7.404   3.214
 4406TIP3    H113163   2.827   7.379   3.302
 4406TIP3    H213164   2.722   7.352   3.196
 4407TIP3   OH213165   3.661   1.564   4.973
 4407TIP3    H113166   3.584   1.616   4.996
 4407TIP3    H213167   3.701   1.612   4.901
 4408TIP3   OH213168   4.942   4.722   6.459
 4408TIP3    H113169   4.865   4.676   6.427
 4408TIP3    H213170   4.965   4.676   6.540
 4409TIP3   OH213171   6.993   6.881   1.605
 4409TIP3    H113172   6.941   6.852   1.531
 4409TIP3    H213173   7.056   6.942   1.567
 4410TIP3   OH213174   1.918   2.236   4.785
 4410TIP3    H113175   1.939   2.143   4.781
 4410TIP3    H213176   1.971   2.275   4.715
 4411TIP3   OH213177   4.277   3.510   5.208
 4411TIP3    H113178   4.348   3.554   5.255
 4411TIP3    H213179   4.197   3.544   5.249
 4412TIP3   OH213180   0.622   0.334   6.486
 4412TIP3    H113181   0.539   0.370   6.515
 4412TIP3    H213182   0.614   0.329   6.390
 4413TIP3   OH213183   7.324   6.387   5.679
 4413TIP3    H113184   7.316   6.292   5.674
 4413TIP3    H213185   7.378   6.411   5.604
 4414TIP3   OH213186   0.450   4.140   0.489
 4414TIP3    H113187   0.417   4.222   0.523
 4414TIP3    H213188   0.475   4.090   0.566
 4415TIP3   OH213189   4.661   4.796   1.691
 4415TIP3    H113190   4.738   4.776   1.637
 4415TIP3    H213191   4.603   4.844   1.632
 4416TIP3   OH213192   1.893   4.630   3.660
 4416TIP3    H113193   1.877   4.710   3.709
 4416TIP3    H213194   1.976   4.597   3.693
 4417TIP3   OH213195   3.569   0.132   4.248
 4417TIP3    H113196   3.642   0.192   4.263
 4417TIP3    H213197   3.491   0.187   4.253
 4418TIP3   OH213198   8.072   5.253   0.157
 4418TIP3    H113199   8.097   5.211   0.074
 4418TIP3    H213200   7.978   5.270   0.148
 4419TIP3   OH213201   4.023   1.026   4.549
 4419TIP3    H113202   3.968   0.950   4.566
 4419TIP3    H213203   3.975   1.100   4.586
 4420TIP3   OH213204   6.357   3.445   4.543
 4420TIP3    H113205   6.387   3.399   4.622
 4420TIP3    H213206   6.281   3.394   4.514
 4421TIP3   OH213207   3.268   3.949   2.842
 4421TIP3    H113208   3.246   3.863   2.806
 4421TIP3    H213209   3.362   3.945   2.858
 4422TIP3   OH213210   4.471   2.966   4.329
 4422TIP3    H113211   4.537   3.019   4.284
 4422TIP3    H213212   4.475   2.997   4.420
 4423TIP3   OH213213   0.542   5.121   6.342
 4423TIP3    H113214   0.589   5.119   6.425
 4423TIP3    H213215   0.474   5.187   6.355
 4424TIP3   OH213216   0.926   0.344   3.648
 4424TIP3    H113217   0.953   0.435   3.660
 4424TIP3    H213218   0.834   0.343   3.672
 4425TIP3   OH213219   0.944   0.781   2.165
 4425TIP3    H113220   1.000   0.732   2.104
 4425TIP3    H213221   0.880   0.825   2.108
 4426TIP3   OH213222   6.172   3.637   4.547
 4426TIP3    H113223   6.143   3.653   4.636
 4426TIP3    H213224   6.249   3.581   4.556
 4427TIP3   OH213225   0.931   7.512   0.700
 4427TIP3    H113226   0.932   7.427   0.656
 4427TIP3    H213227   0.993   7.502   0.772
 4428TIP3   OH213228   7.325   6.565   2.371
 4428TIP3    H113229   7.241   6.566   2.417
 4428TIP3    H213230   7.303   6.591   2.281
 4429TIP3   OH213231   2.140   6.412   0.825
 4429TIP3    H113232   2.115   6.475   0.757
 4429TIP3    H213233   2.168   6.466   0.899
 4430TIP3   OH213234   2.431   0.311   1.599
 4430TIP3    H113235   2.457   0.232   1.552
 4430TIP3    H213236   2.464   0.299   1.688
 4431TIP3   OH213237   0.788   2.199   1.385
 4431TIP3    H113238   0.874   2.201   1.427
 4431TIP3    H213239   0.803   2.150   1.304
 4432TIP3   OH213240   2.354   5.227   4.624
 4432TIP3    H113241   2.432   5.279   4.606
 4432TIP3    H213242   2.316   5.267   4.702
 4433TIP3   OH213243   2.439   4.803   5.873
 4433TIP3    H113244   2.344   4.799   5.887
 4433TIP3    H213245   2.467   4.879   5.925
 4434TIP3   OH213246   4.503   2.260   5.262
 4434TIP3    H113247   4.409   2.264   5.242
 4434TIP3    H213248   4.523   2.346   5.298
 4435TIP3   OH213249   2.421   6.597   0.459
 4435TIP3    H113250   2.445   6.552   0.539
 4435TIP3    H213251   2.419   6.529   0.392
 4436TIP3   OH213252   1.464   6.363   6.439
 4436TIP3    H113253   1.497   6.377   6.350
 4436TIP3    H213254   1.385   6.311   6.428
 4437TIP3   OH213255   5.789   0.148   4.009
 4437TIP3    H113256   5.811   0.080   3.945
 4437TIP3    H213257   5.739   0.212   3.959
 4438TIP3   OH213258   6.117   5.633   5.008
 4438TIP3    H113259   6.149   5.648   5.097
 4438TIP3    H213260   6.041   5.576   5.019
 4439TIP3   OH213261   3.534   7.649   2.867
 4439TIP3    H113262   3.608   7.704   2.841
 4439TIP3    H213263   3.569   7.560   2.868
 4440TIP3   OH213264   0.546   6.748   6.426
 4440TIP3    H113265   0.511   6.695   6.498
 4440TIP3    H213266   0.506   6.834   6.438
 4441TIP3   OH213267   6.085   2.708   3.869
 4441TIP3    H113268   6.106   2.698   3.962
 4441TIP3    H213269   5.990   2.697   3.864
 4442TIP3   OH213270   1.645   6.268   3.208
 4442TIP3    H113271   1.690   6.343   3.169
 4442TIP3    H213272   1.552   6.290   3.202
 4443TIP3   OH213273   5.025   1.699   3.868
 4443TIP3    H113274   4.998   1.780   3.913
 4443TIP3    H213275   5.117   1.715   3.845
 4444TIP3   OH213276   4.235   0.307   3.039
 4444TIP3    H113277   4.206   0.224   3.078
 4444TIP3    H213278   4.330   0.307   3.050
 4445TIP3   OH213279   4.385   5.087   5.807
 4445TIP3    H113280   4.298   5.054   5.784
 4445TIP3    H213281   4.420   5.022   5.868
 4446TIP3   OH213282   7.793   6.606   6.355
 4446TIP3    H113283   7.823   6.590   6.445
 4446TIP3    H213284   7.817   6.697   6.338
 4447TIP3   OH213285   4.326   5.230   0.850
 4447TIP3    H113286   4.378   5.207   0.927
 4447TIP3    H213287   4.292   5.317   0.870
 4448TIP3   OH213288   4.175   6.596   5.779
 4448TIP3    H113289   4.242   6.622   5.716
 4448TIP3    H213290   4.105   6.559   5.725
 4449TIP3   OH213291   2.697   5.642   1.932
 4449TIP3    H113292   2.635   5.715   1.942
 4449TIP3    H213293   2.700   5.627   1.837
 4450TIP3   OH213294   4.511   0.984   1.615
 4450TIP3    H113295   4.448   0.974   1.687
 4450TIP3    H213296   4.563   1.061   1.639
 4451TIP3   OH213297   7.170   4.360   4.648
 4451TIP3    H113298   7.235   4.290   4.648
 4451TIP3    H213299   7.089   4.317   4.674
 4452TIP3   OH213300   1.803   3.760   2.359
 4452TIP3    H113301   1.884   3.739   2.405
 4452TIP3    H213302   1.796   3.855   2.365
 4453TIP3   OH213303   4.684   0.449   2.817
 4453TIP3    H113304   4.601   0.489   2.841
 4453TIP3    H213305   4.672   0.356   2.833
 4454TIP3   OH213306   6.916   7.228   3.864
 4454TIP3    H113307   6.923   7.143   3.907
 4454TIP3    H213308   6.976   7.285   3.912
 4455TIP3   OH213309   6.213   7.725   4.664
 4455TIP3    H113310   6.270   7.693   4.734
 4455TIP3    H213311   6.273   7.764   4.600
 4456TIP3   OH213312   5.333   7.104   2.102
 4456TIP3    H113313   5.307   7.107   2.194
 4456TIP3    H213314   5.268   7.157   2.057
 4457TIP3   OH213315   3.832   2.270   6.663
 4457TIP3    H113316   3.777   2.230   6.730
 4457TIP3    H213317   3.769   2.309   6.602
 4458TIP3   OH213318   5.368   3.366   4.181
 4458TIP3    H113319   5.277   3.354   4.206
 4458TIP3    H213320   5.367   3.438   4.118
 4459TIP3   OH213321   6.637   5.963   5.418
 4459TIP3    H113322   6.610   6.051   5.392
 4459TIP3    H213323   6.572   5.935   5.482
 4460TIP3   OH213324   7.455   0.418   6.009
 4460TIP3    H113325   7.381   0.406   6.070
 4460TIP3    H213326   7.507   0.338   6.019
 4461TIP3   OH213327   6.070   2.802   1.011
 4461TIP3    H113328   6.033   2.767   1.091
 4461TIP3    H213329   6.008   2.868   0.982
 4462TIP3   OH213330   0.918   2.307   5.008
 4462TIP3    H113331   0.997   2.267   4.970
 4462TIP3    H213332   0.904   2.258   5.089
 4463TIP3   OH213333   3.223   0.827   2.482
 4463TIP3    H113334   3.130   0.823   2.506
 4463TIP3    H213335   3.233   0.759   2.415
 4464TIP3   OH213336   7.872   4.027   1.579
 4464TIP3    H113337   7.923   4.108   1.580
 4464TIP3    H213338   7.857   4.009   1.486
 4465TIP3   OH213339   5.673   1.467   3.820
 4465TIP3    H113340   5.678   1.563   3.815
 4465TIP3    H213341   5.732   1.437   3.751
 4466TIP3   OH213342   5.061   5.996   4.147
 4466TIP3    H113343   4.996   5.955   4.204
 4466TIP3    H213344   5.012   6.015   4.067
 4467TIP3   OH213345   8.086   7.475   4.481
 4467TIP3    H113346   8.133   7.550   4.517
 4467TIP3    H213347   8.007   7.513   4.442
 4468TIP3   OH213348   4.302   1.942   0.581
 4468TIP3    H113349   4.345   1.878   0.525
 4468TIP3    H213350   4.220   1.963   0.536
 4469TIP3   OH213351   5.863   3.828   1.768
 4469TIP3    H113352   5.881   3.743   1.807
 4469TIP3    H213353   5.884   3.817   1.675
 4470TIP3   OH213354   7.087   7.697   3.926
 4470TIP3    H113355   7.090   7.768   3.863
 4470TIP3    H213356   7.081   7.740   4.011
 4471TIP3   OH213357   2.561   7.691   1.929
 4471TIP3    H113358   2.638   7.662   1.880
 4471TIP3    H213359   2.523   7.760   1.875
 4472TIP3   OH213360   4.329   2.726   0.928
 4472TIP3    H113361   4.371   2.699   1.009
 4472TIP3    H213362   4.244   2.681   0.929
 4473TIP3   OH213363   7.318   0.563   0.688
 4473TIP3    H113364   7.271   0.566   0.604
 4473TIP3    H213365   7.289   0.482   0.729
 4474TIP3   OH213366   6.192   2.967   2.252
 4474TIP3    H113367   6.258   3.019   2.204
 4474TIP3    H213368   6.118   2.961   2.192
 4475TIP3   OH213369   1.376   7.170   2.040
 4475TIP3    H113370   1.297   7.212   2.006
 4475TIP3    H213371   1.373   7.188   2.134
 4476TIP3   OH213372   1.495   3.976   6.453
 4476TIP3    H113373   1.505   3.887   6.420
 4476TIP3    H213374   1.577   3.994   6.499
 4477TIP3   OH213375   7.160   6.260   5.467
 4477TIP3    H113376   7.237   6.313   5.449
 4477TIP3    H213377   7.191   6.187   5.520
 4478TIP3   OH213378   0.441   3.161   3.954
 4478TIP3    H113379   0.363   3.206   3.922
 4478TIP3    H213380   0.419   3.135   4.044
 4479TIP3   OH213381   1.034   5.912   6.327
 4479TIP3    H113382   0.946   5.885   6.356
 4479TIP3    H213383   1.032   5.900   6.232
 4480TIP3   OH213384   6.466   1.561   2.233
 4480TIP3    H113385   6.444   1.646   2.195
 4480TIP3    H213386   6.469   1.502   2.158
 4481TIP3   OH213387   0.264   5.124   1.713
 4481TIP3    H113388   0.276   5.215   1.686
 4481TIP3    H213389   0.342   5.079   1.681
 4482TIP3   OH213390   6.129   7.621   3.079
 4482TIP3    H113391   6.075   7.662   3.146
 4482TIP3    H213392   6.076   7.548   3.047
 4483TIP3   OH213393   7.080   7.276   4.486
 4483TIP3    H113394   7.168   7.296   4.516
 4483TIP3    H213395   7.058   7.193   4.529
 4484TIP3   OH213396   4.149   0.413   1.769
 4484TIP3    H113397   4.055   0.397   1.765
 4484TIP3    H213398   4.179   0.365   1.846
 4485TIP3   OH213399   5.296   6.973   2.648
 4485TIP3    H113400   5.263   7.059   2.673
 4485TIP3    H213401   5.264   6.914   2.717
 4486TIP3   OH213402   8.091   5.881   2.263
 4486TIP3    H113403   8.050   5.852   2.181
 4486TIP3    H213404   8.026   5.938   2.303
 4487TIP3   OH213405   0.155   7.747   5.924
 4487TIP3    H113406   0.102   7.820   5.956
 4487TIP3    H213407   0.233   7.746   5.980
 4488TIP3   OH213408   6.715   6.377   6.008
 4488TIP3    H113409   6.664   6.304   6.042
 4488TIP3    H213410   6.805   6.344   6.004
 4489TIP3   OH213411   1.809   1.409   1.162
 4489TIP3    H113412   1.754   1.448   1.230
 4489TIP3    H213413   1.835   1.325   1.197
 4490TIP3   OH213414   4.605   0.861   3.093
 4490TIP3    H113415   4.630   0.779   3.135
 4490TIP3    H213416   4.509   0.859   3.093
 4491TIP3   OH213417   6.410   7.519   0.576
 4491TIP3    H113418   6.357   7.439   0.570
 4491TIP3    H213419   6.433   7.539   0.486
 4492TIP3   OH213420   7.272   6.677   2.035
 4492TIP3    H113421   7.244   6.766   2.014
 4492TIP3    H213422   7.357   6.667   1.991
 4493TIP3   OH213423   5.399   1.170   0.553
 4493TIP3    H113424   5.413   1.250   0.503
 4493TIP3    H213425   5.349   1.198   0.630
 4494TIP3   OH213426   4.482   6.004   2.347
 4494TIP3    H113427   4.547   5.937   2.369
 4494TIP3    H213428   4.512   6.040   2.264
 4495TIP3   OH213429   0.423   2.389   6.722
 4495TIP3    H113430   0.369   2.345   6.656
 4495TIP3    H213431   0.360   2.421   6.787
 4496TIP3   OH213432   2.010   2.746   4.091
 4496TIP3    H113433   2.031   2.661   4.052
 4496TIP3    H213434   1.979   2.799   4.017
 4497TIP3   OH213435   5.405   3.887   2.002
 4497TIP3    H113436   5.497   3.915   1.995
 4497TIP3    H213437   5.378   3.870   1.912
 4498TIP3   OH213438   3.657   3.870   2.575
 4498TIP3    H113439   3.632   3.857   2.667
 4498TIP3    H213440   3.751   3.851   2.573
 4499TIP3   OH213441   1.533   3.842   4.356
 4499TIP3    H113442   1.438   3.856   4.356
 4499TIP3    H213443   1.567   3.906   4.419
 4500TIP3   OH213444   5.234   5.793   3.643
 4500TIP3    H113445   5.327   5.809   3.655
 4500TIP3    H213446   5.191   5.867   3.687
 4501TIP3   OH213447   5.797   1.416   2.056
 4501TIP3    H113448   5.728   1.472   2.019
 4501TIP3    H213449   5.788   1.426   2.150
 4502TIP3   OH213450   3.896   5.455   1.237
 4502TIP3    H113451   3.848   5.427   1.315
 4502TIP3    H213452   3.885   5.550   1.236
 4503TIP3   OH213453   1.149   5.273   5.090
 4503TIP3    H113454   1.242   5.294   5.094
 4503TIP3    H213455   1.112   5.312   5.168
 4504TIP3   OH213456   1.022   2.569   5.026
 4504TIP3    H113457   1.030   2.550   4.932
 4504TIP3    H213458   0.989   2.488   5.064
 4505TIP3   OH213459   3.012   5.941   6.515
 4505TIP3    H113460   3.037   5.918   6.605
 4505TIP3    H213461   3.096   5.955   6.470
 4506TIP3   OH213462   5.593   0.124   4.998
 4506TIP3    H113463   5.658   0.072   4.949
 4506TIP3    H213464   5.513   0.117   4.946
 4507TIP3   OH213465   4.933   0.722   4.731
 4507TIP3    H113466   4.905   0.811   4.708
 4507TIP3    H213467   4.999   0.700   4.665
 4508TIP3   OH213468   0.195   0.021   5.827
 4508TIP3    H113469   0.148   0.097   5.862
 4508TIP3    H213470   0.236  -0.019   5.904
 4509TIP3   OH213471   0.943   0.799   1.048
 4509TIP3    H113472   0.922   0.890   1.068
 4509TIP3    H213473   1.028   0.803   1.004
 4510TIP3   OH213474   3.348   0.773   3.651
 4510TIP3    H113475   3.386   0.721   3.721
 4510TIP3    H213476   3.256   0.783   3.676
 4511TIP3   OH213477   5.065   4.997   5.755
 4511TIP3    H113478   5.063   5.087   5.724
 4511TIP3    H213479   5.071   5.004   5.850
 4512TIP3   OH213480   4.509   6.029   6.106
 4512TIP3    H113481   4.563   6.066   6.176
 4512TIP3    H213482   4.477   6.105   6.058
 4513TIP3   OH213483   0.341   0.912   5.672
 4513TIP3    H113484   0.273   0.853   5.703
 4513TIP3    H213485   0.343   0.983   5.736
 4514TIP3   OH213486   7.129   6.560   4.020
 4514TIP3    H113487   7.047   6.608   4.009
 4514TIP3    H213488   7.174   6.570   3.937
 4515TIP3   OH213489   3.360   4.254   5.145
 4515TIP3    H113490   3.450   4.242   5.113
 4515TIP3    H213491   3.322   4.166   5.140
 4516TIP3   OH213492   8.283   3.932   6.089
 4516TIP3    H113493   8.242   4.018   6.080
 4516TIP3    H213494   8.271   3.890   6.004
 4517TIP3   OH213495   4.199   0.343   0.846
 4517TIP3    H113496   4.155   0.268   0.806
 4517TIP3    H213497   4.164   0.419   0.800
 4518TIP3   OH213498   1.457   5.541   0.147
 4518TIP3    H113499   1.390   5.564   0.212
 4518TIP3    H213500   1.421   5.465   0.102
 4519TIP3   OH213501   4.633   5.097   4.816
 4519TIP3    H113502   4.657   5.081   4.725
 4519TIP3    H213503   4.537   5.102   4.815
 4520TIP3   OH213504   6.737   2.896   2.803
 4520TIP3    H113505   6.720   2.962   2.735
 4520TIP3    H213506   6.695   2.817   2.770
 4521TIP3   OH213507   0.477   3.401   5.565
 4521TIP3    H113508   0.496   3.308   5.574
 4521TIP3    H213509   0.451   3.411   5.473
 4522TIP3   OH213510   3.010   5.033   2.982
 4522TIP3    H113511   3.041   4.986   2.904
 4522TIP3    H213512   2.916   5.044   2.967
 4523TIP3   OH213513   3.580   6.050   3.840
 4523TIP3    H113514   3.584   5.957   3.861
 4523TIP3    H213515   3.495   6.061   3.796
 4524TIP3   OH213516   5.126   5.995   0.923
 4524TIP3    H113517   5.199   6.006   0.862
 4524TIP3    H213518   5.096   6.083   0.942
 4525TIP3   OH213519   0.291   4.780   4.209
 4525TIP3    H113520   0.358   4.846   4.229
 4525TIP3    H213521   0.325   4.700   4.247
 4526TIP3   OH213522   5.107   0.110   3.607
 4526TIP3    H113523   5.112   0.157   3.523
 4526TIP3    H213524   5.197   0.083   3.624
 4527TIP3   OH213525   3.776   0.900   5.466
 4527TIP3    H113526   3.742   0.989   5.476
 4527TIP3    H213527   3.699   0.845   5.455
 4528TIP3   OH213528   0.971   4.481   5.284
 4528TIP3    H113529   1.022   4.491   5.364
 4528TIP3    H213530   0.922   4.563   5.277
 4529TIP3   OH213531   2.550   3.949   3.548
 4529TIP3    H113532   2.605   4.025   3.565
 4529TIP3    H213533   2.571   3.888   3.619
 4530TIP3   OH213534   6.348   1.554   5.558
 4530TIP3    H113535   6.299   1.474   5.576
 4530TIP3    H213536   6.284   1.624   5.569
 4531TIP3   OH213537   3.778   4.985   0.449
 4531TIP3    H113538   3.774   5.033   0.366
 4531TIP3    H213539   3.844   5.032   0.500
 4532TIP3   OH213540   2.754   2.248   1.351
 4532TIP3    H113541   2.717   2.334   1.373
 4532TIP3    H213542   2.840   2.248   1.394
 4533TIP3   OH213543   6.311   3.378   0.322
 4533TIP3    H113544   6.254   3.433   0.268
 4533TIP3    H213545   6.320   3.296   0.274
 4534TIP3   OH213546   5.187   3.333   2.228
 4534TIP3    H113547   5.121   3.342   2.297
 4534TIP3    H213548   5.145   3.366   2.149
 4535TIP3   OH213549   2.687   7.285   5.073
 4535TIP3    H113550   2.707   7.202   5.116
 4535TIP3    H213551   2.721   7.352   5.132
 4536TIP3   OH213552   2.742   1.971   5.098
 4536TIP3    H113553   2.798   2.047   5.083
 4536TIP3    H213554   2.763   1.942   5.187
 4537TIP3   OH213555   3.837   2.036   1.261
 4537TIP3    H113556   3.862   2.001   1.176
 4537TIP3    H213557   3.891   1.987   1.323
 4538TIP3   OH213558   7.703   6.001   1.820
 4538TIP3    H113559   7.619   6.019   1.862
 4538TIP3    H213560   7.748   6.086   1.820
 4539TIP3   OH213561   6.057   5.378   4.059
 4539TIP3    H113562   6.122   5.429   4.010
 4539TIP3    H213563   6.073   5.288   4.033
 4540TIP3   OH213564   2.575   4.901   5.188
 4540TIP3    H113565   2.532   4.985   5.178
 4540TIP3    H213566   2.621   4.887   5.105
 4541TIP3   OH213567   0.952   2.829   5.125
 4541TIP3    H113568   0.904   2.836   5.207
 4541TIP3    H213569   0.958   2.735   5.108
 4542TIP3   OH213570   5.625   3.359   5.242
 4542TIP3    H113571   5.615   3.327   5.153
 4542TIP3    H213572   5.720   3.364   5.256
 4543TIP3   OH213573   7.542   2.334   3.975
 4543TIP3    H113574   7.451   2.362   3.973
 4543TIP3    H213575   7.588   2.398   3.921
 4544TIP3   OH213576   7.264   7.109   0.471
 4544TIP3    H113577   7.316   7.028   0.470
 4544TIP3    H213578   7.173   7.079   0.474
 4545TIP3   OH213579   1.670   2.487   4.976
 4545TIP3    H113580   1.636   2.574   4.997
 4545TIP3    H213581   1.761   2.489   5.006
 4546TIP3   OH213582   7.225   1.162   4.827
 4546TIP3    H113583   7.268   1.080   4.801
 4546TIP3    H213584   7.294   1.211   4.872
 4547TIP3   OH213585   5.215   6.939   2.911
 4547TIP3    H113586   5.170   6.900   2.986
 4547TIP3    H213587   5.306   6.913   2.922
 4548TIP3   OH213588   0.869   3.522   6.573
 4548TIP3    H113589   0.939   3.459   6.592
 4548TIP3    H213590   0.815   3.478   6.508
 4549TIP3   OH213591   7.401   6.213   1.599
 4549TIP3    H113592   7.345   6.265   1.541
 4549TIP3    H213593   7.374   6.123   1.584
 4550TIP3   OH213594   0.457   2.051   3.298
 4550TIP3    H113595   0.480   2.127   3.352
 4550TIP3    H213596   0.531   2.040   3.239
 4551TIP3   OH213597   7.842   5.851   4.710
 4551TIP3    H113598   7.930   5.849   4.747
 4551TIP3    H213599   7.794   5.910   4.767
 4552TIP3   OH213600   2.928   2.965   5.047
 4552TIP3    H113601   2.862   2.909   5.088
 4552TIP3    H213602   3.009   2.914   5.050
 4553TIP3   OH213603   4.435   0.785   3.760
 4553TIP3    H113604   4.465   0.835   3.684
 4553TIP3    H213605   4.509   0.786   3.820
 4554TIP3   OH213606   2.329   1.039   0.662
 4554TIP3    H113607   2.264   1.109   0.660
 4554TIP3    H213608   2.345   1.024   0.756
 4555TIP3   OH213609   6.477   2.959   6.566
 4555TIP3    H113610   6.450   2.891   6.505
 4555TIP3    H213611   6.540   3.012   6.517
 4556TIP3   OH213612   1.052   6.712   2.288
 4556TIP3    H113613   1.099   6.721   2.206
 4556TIP3    H213614   0.961   6.694   2.263
 4557TIP3   OH213615   3.336   5.457   6.112
 4557TIP3    H113616   3.342   5.442   6.018
 4557TIP3    H213617   3.402   5.524   6.131
 4558TIP3   OH213618   2.795   3.568   3.858
 4558TIP3    H113619   2.874   3.521   3.831
 4558TIP3    H213620   2.792   3.557   3.953
 4559TIP3   OH213621   7.274   5.915   5.885
 4559TIP3    H113622   7.309   5.941   5.970
 4559TIP3    H213623   7.203   5.855   5.906
 4560TIP3   OH213624   5.664   2.058   2.975
 4560TIP3    H113625   5.721   2.088   3.045
 4560TIP3    H213626   5.584   2.110   2.985
 4561TIP3   OH213627   3.785   5.157   1.359
 4561TIP3    H113628   3.691   5.146   1.373
 4561TIP3    H213629   3.793   5.179   1.267
 4562TIP3   OH213630   1.753   4.127   1.962
 4562TIP3    H113631   1.755   4.160   2.052
 4562TIP3    H213632   1.838   4.084   1.950
 4563TIP3   OH213633   6.575   7.059   3.652
 4563TIP3    H113634   6.559   7.087   3.742
 4563TIP3    H213635   6.604   7.139   3.608
 4564TIP3   OH213636   4.055   3.206   3.018
 4564TIP3    H113637   4.135   3.155   3.008
 4564TIP3    H213638   4.012   3.169   3.096
 4565TIP3   OH213639   4.747   4.352   5.417
 4565TIP3    H113640   4.826   4.311   5.452
 4565TIP3    H213641   4.727   4.423   5.478
 4566TIP3   OH213642   0.895   6.408   2.605
 4566TIP3    H113643   0.861   6.321   2.584
 4566TIP3    H213644   0.963   6.424   2.539
 4567TIP3   OH213645   2.228   7.066   4.664
 4567TIP3    H113646   2.234   7.160   4.677
 4567TIP3    H213647   2.274   7.027   4.738
 4568TIP3   OH213648   2.607   4.375   2.471
 4568TIP3    H113649   2.699   4.402   2.473
 4568TIP3    H213650   2.606   4.297   2.415
 4569TIP3   OH213651   4.730   5.285   5.692
 4569TIP3    H113652   4.779   5.367   5.690
 4569TIP3    H213653   4.730   5.260   5.785
 4570TIP3   OH213654   4.708   1.007   0.145
 4570TIP3    H113655   4.782   1.065   0.165
 4570TIP3    H213656   4.680   1.035   0.057
 4571TIP3   OH213657   3.632   3.037   0.415
 4571TIP3    H113658   3.643   2.979   0.490
 4571TIP3    H213659   3.708   3.095   0.418
 4572TIP3   OH213660   2.883   4.465   0.450
 4572TIP3    H113661   2.886   4.456   0.545
 4572TIP3    H213662   2.964   4.510   0.427
 4573TIP3   OH213663   3.942   3.439   4.929
 4573TIP3    H113664   3.886   3.478   4.863
 4573TIP3    H213665   3.960   3.510   4.991
 4574TIP3   OH213666   4.701   4.462   2.334
 4574TIP3    H113667   4.750   4.507   2.403
 4574TIP3    H213668   4.769   4.433   2.272
 4575TIP3   OH213669   5.982   2.013   2.254
 4575TIP3    H113670   5.989   2.020   2.159
 4575TIP3    H213671   5.888   2.022   2.272
 4576TIP3   OH213672   3.173   4.137   4.469
 4576TIP3    H113673   3.099   4.195   4.489
 4576TIP3    H213674   3.250   4.187   4.498
 4577TIP3   OH213675   2.719   0.274   4.117
 4577TIP3    H113676   2.792   0.259   4.178
 4577TIP3    H213677   2.737   0.360   4.080
 4578TIP3   OH213678   2.577   0.381   0.333
 4578TIP3    H113679   2.588   0.473   0.357
 4578TIP3    H213680   2.663   0.342   0.350
 4579TIP3   OH213681   6.119   1.082   0.286
 4579TIP3    H113682   6.080   1.097   0.371
 4579TIP3    H213683   6.173   1.003   0.298
 4580TIP3   OH213684   3.109   3.118   5.892
 4580TIP3    H113685   3.182   3.066   5.925
 4580TIP3    H213686   3.047   3.053   5.859
 4581TIP3   OH213687   8.084   1.064   3.781
 4581TIP3    H113688   8.036   1.135   3.824
 4581TIP3    H213689   8.085   1.087   3.689
 4582TIP3   OH213690   0.696   0.678   2.298
 4582TIP3    H113691   0.707   0.585   2.318
 4582TIP3    H213692   0.765   0.698   2.235
 4583TIP3   OH213693   0.911   5.840   0.350
 4583TIP3    H113694   0.906   5.784   0.428
 4583TIP3    H213695   0.949   5.921   0.382
 4584TIP3   OH213696   0.886   2.347   0.904
 4584TIP3    H113697   0.791   2.332   0.896
 4584TIP3    H213698   0.923   2.310   0.823
 4585TIP3   OH213699   8.029   5.605   1.093
 4585TIP3    H113700   7.969   5.587   1.166
 4585TIP3    H213701   7.994   5.684   1.052
 4586TIP3   OH213702   7.886   4.039   0.047
 4586TIP3    H113703   7.921   3.955   0.019
 4586TIP3    H213704   7.950   4.072   0.111
 4587TIP3   OH213705   4.858   7.284   2.194
 4587TIP3    H113706   4.900   7.289   2.108
 4587TIP3    H213707   4.929   7.302   2.256
 4588TIP3   OH213708   0.881   3.503   3.776
 4588TIP3    H113709   0.786   3.502   3.778
 4588TIP3    H213710   0.905   3.596   3.783
 4589TIP3   OH213711   6.679   5.416   2.801
 4589TIP3    H113712   6.711   5.498   2.764
 4589TIP3    H213713   6.584   5.425   2.800
 4590TIP3   OH213714   5.806   3.164   2.130
 4590TIP3    H113715   5.826   3.232   2.195
 4590TIP3    H213716   5.890   3.122   2.112
 4591TIP3   OH213717   4.237   4.523   2.634
 4591TIP3    H113718   4.327   4.492   2.622
 4591TIP3    H213719   4.188   4.446   2.662
 4592TIP3   OH213720   0.369   5.767   1.111
 4592TIP3    H113721   0.398   5.677   1.103
 4592TIP3    H213722   0.373   5.802   1.021
 4593TIP3   OH213723   7.958   5.117   4.990
 4593TIP3    H113724   7.990   5.079   5.071
 4593TIP3    H213725   7.917   5.044   4.943
 4594TIP3   OH213726   1.952   4.400   2.597
 4594TIP3    H113727   1.870   4.441   2.626
 4594TIP3    H213728   1.929   4.354   2.517
 4595TIP3   OH213729   1.867   7.207   5.743
 4595TIP3    H113730   1.929   7.227   5.672
 4595TIP3    H213731   1.918   7.220   5.823
 4596TIP3   OH213732   2.055   4.699   1.271
 4596TIP3    H113733   2.083   4.615   1.309
 4596TIP3    H213734   2.054   4.759   1.345
 4597TIP3   OH213735   6.893   4.354   4.315
 4597TIP3    H113736   6.946   4.309   4.381
 4597TIP3    H213737   6.907   4.303   4.235
 4598TIP3   OH213738   1.491   7.531   2.009
 4598TIP3    H113739   1.561   7.475   1.977
 4598TIP3    H213740   1.438   7.550   1.931
 4599TIP3   OH213741   2.639   4.534   4.468
 4599TIP3    H113742   2.697   4.552   4.393
 4599TIP3    H213743   2.597   4.451   4.446
 4600TIP3   OH213744   0.619   1.361   1.509
 4600TIP3    H113745   0.681   1.425   1.474
 4600TIP3    H213746   0.535   1.408   1.510
 4601TIP3   OH213747   2.874   0.844   2.206
 4601TIP3    H113748   2.944   0.867   2.266
 4601TIP3    H213749   2.906   0.766   2.160
 4602TIP3   OH213750   5.451   1.364   1.725
 4602TIP3    H113751   5.442   1.371   1.820
 4602TIP3    H213752   5.499   1.283   1.711
 4603TIP3   OH213753   2.793   1.582   1.178
 4603TIP3    H113754   2.751   1.550   1.099
 4603TIP3    H213755   2.872   1.626   1.147
 4604TIP3   OH213756   7.273   1.623   0.366
 4604TIP3    H113757   7.311   1.684   0.304
 4604TIP3    H213758   7.249   1.547   0.313
 4605TIP3   OH213759   5.476   4.991   0.109
 4605TIP3    H113760   5.449   5.064   0.053
 4605TIP3    H213761   5.550   5.025   0.159
 4606TIP3   OH213762   6.608   4.673   0.825
 4606TIP3    H113763   6.665   4.750   0.817
 4606TIP3    H213764   6.587   4.649   0.735
 4607TIP3   OH213765   2.662   7.377   1.990
 4607TIP3    H113766   2.700   7.320   2.056
 4607TIP3    H213767   2.727   7.446   1.977
 4608TIP3   OH213768   5.889   3.565   1.832
 4608TIP3    H113769   5.980   3.574   1.859
 4608TIP3    H213770   5.857   3.488   1.879
 4609TIP3   OH213771   1.467   3.766   0.154
 4609TIP3    H113772   1.507   3.732   0.233
 4609TIP3    H213773   1.415   3.694   0.120
 4610TIP3   OH213774   3.487   3.246   2.040
 4610TIP3    H113775   3.520   3.214   1.955
 4610TIP3    H213776   3.545   3.319   2.062
 4611TIP3   OH213777   4.971   6.081   3.877
 4611TIP3    H113778   4.918   6.039   3.809
 4611TIP3    H213779   4.913   6.150   3.912
 4612TIP3   OH213780   1.559   0.580   3.440
 4612TIP3    H113781   1.581   0.507   3.383
 4612TIP3    H213782   1.466   0.568   3.460
 4613TIP3   OH213783   7.884   5.999   2.063
 4613TIP3    H113784   7.829   6.048   2.124
 4613TIP3    H213785   7.963   6.053   2.055
 4614TIP3   OH213786   1.056   5.036   1.756
 4614TIP3    H113787   1.081   5.081   1.675
 4614TIP3    H213788   1.011   4.957   1.727
 4615TIP3   OH213789   5.064   6.898   5.174
 4615TIP3    H113790   5.091   6.843   5.100
 4615TIP3    H213791   5.146   6.922   5.216
 4616TIP3   OH213792   3.946   3.567   0.375
 4616TIP3    H113793   3.917   3.505   0.442
 4616TIP3    H213794   4.016   3.521   0.329
 4617TIP3   OH213795   0.404   1.617   5.870
 4617TIP3    H113796   0.353   1.537   5.861
 4617TIP3    H213797   0.426   1.622   5.963
 4618TIP3   OH213798   5.133   3.375   0.319
 4618TIP3    H113799   5.124   3.337   0.407
 4618TIP3    H213800   5.067   3.444   0.317
 4619TIP3   OH213801   1.352   1.812   3.103
 4619TIP3    H113802   1.414   1.780   3.038
 4619TIP3    H213803   1.406   1.839   3.178
 4620TIP3   OH213804   4.841   3.506   0.014
 4620TIP3    H113805   4.874   3.462  -0.064
 4620TIP3    H213806   4.751   3.474   0.023
 4621TIP3   OH213807   6.250   0.875   4.550
 4621TIP3    H113808   6.325   0.909   4.502
 4621TIP3    H213809   6.189   0.948   4.555
 4622TIP3   OH213810   0.025   6.659   1.174
 4622TIP3    H113811   0.117   6.637   1.162
 4622TIP3    H213812   0.021   6.754   1.165
 4623TIP3   OH213813   2.231   2.129   2.986
 4623TIP3    H113814   2.321   2.110   3.011
 4623TIP3    H213815   2.225   2.225   2.988
 4624TIP3   OH213816   4.033   0.020   6.279
 4624TIP3    H113817   4.102  -0.040   6.311
 4624TIP3    H213818   4.025   0.086   6.348
 4625TIP3   OH213819   7.469  -0.017   3.596
 4625TIP3    H113820   7.422   0.023   3.669
 4625TIP3    H213821   7.413  -0.089   3.567
 4626TIP3   OH213822   2.770   5.521   2.315
 4626TIP3    H113823   2.832   5.585   2.350
 4626TIP3    H213824   2.822   5.443   2.299
 4627TIP3   OH213825   1.958   7.091   4.644
 4627TIP3    H113826   2.054   7.088   4.642
 4627TIP3    H213827   1.934   7.118   4.556
 4628TIP3   OH213828   3.378   0.595   5.712
 4628TIP3    H113829   3.426   0.523   5.670
 4628TIP3    H213830   3.440   0.632   5.774
 4629TIP3   OH213831   3.253   5.319   0.339
 4629TIP3    H113832   3.233   5.233   0.302
 4629TIP3    H213833   3.232   5.311   0.432
 4630TIP3   OH213834   0.177   6.202   5.628
 4630TIP3    H113835   0.219   6.165   5.549
 4630TIP3    H213836   0.194   6.296   5.621
 4631TIP3   OH213837   6.303   0.199   5.928
 4631TIP3    H113838   6.257   0.153   5.998
 4631TIP3    H213839   6.311   0.135   5.858
 4632TIP3   OH213840   4.117   4.236   3.877
 4632TIP3    H113841   4.193   4.264   3.929
 4632TIP3    H213842   4.152   4.221   3.789
 4633TIP3   OH213843   0.004   3.465   0.696
 4633TIP3    H113844   0.021   3.548   0.739
 4633TIP3    H213845   0.072   3.406   0.729
 4634TIP3   OH213846   3.669   3.838   4.598
 4634TIP3    H113847   3.689   3.912   4.541
 4634TIP3    H213848   3.687   3.761   4.544
 4635TIP3   OH213849   3.394   3.412   5.528
 4635TIP3    H113850   3.450   3.346   5.487
 4635TIP3    H213851   3.455   3.479   5.560
 4636TIP3   OH213852   1.881   1.266   2.276
 4636TIP3    H113853   1.804   1.260   2.332
 4636TIP3    H213854   1.888   1.179   2.236
 4637TIP3   OH213855   0.384   1.787   2.909
 4637TIP3    H113856   0.384   1.880   2.931
 4637TIP3    H213857   0.361   1.743   2.990
 4638TIP3   OH213858   7.340   4.133   4.561
 4638TIP3    H113859   7.396   4.077   4.616
 4638TIP3    H213860   7.383   4.133   4.476
 4639TIP3   OH213861   0.915   4.329   1.630
 4639TIP3    H113862   0.903   4.246   1.676
 4639TIP3    H213863   0.892   4.310   1.539
 4640TIP3   OH213864   1.922   6.403   5.727
 4640TIP3    H113865   1.921   6.324   5.672
 4640TIP3    H213866   1.841   6.398   5.778
 4641TIP3   OH213867   0.002   2.545   5.569
 4641TIP3    H113868   0.029   2.462   5.608
 4641TIP3    H213869   0.000   2.527   5.475
 4642TIP3   OH213870   7.265   5.513   3.059
 4642TIP3    H113871   7.197   5.446   3.057
 4642TIP3    H213872   7.229   5.585   3.007
 4643TIP3   OH213873   6.501   0.237   6.763
 4643TIP3    H113874   6.523   0.244   6.856
 4643TIP3    H213875   6.459   0.151   6.755
 4644TIP3   OH213876   1.544   0.714   6.451
 4644TIP3    H113877   1.468   0.678   6.404
 4644TIP3    H213878   1.538   0.808   6.436
 4645TIP3   OH213879   4.946   7.069   1.820
 4645TIP3    H113880   4.958   6.992   1.876
 4645TIP3    H213881   5.011   7.058   1.751
 4646TIP3   OH213882   4.900   2.526   0.253
 4646TIP3    H113883   4.940   2.611   0.272
 4646TIP3    H213884   4.821   2.548   0.202
 4647TIP3   OH213885   3.884   0.402   1.503
 4647TIP3    H113886   3.882   0.451   1.585
 4647TIP3    H213887   3.961   0.435   1.457
 4648TIP3   OH213888   7.540   5.923   5.984
 4648TIP3    H113889   7.630   5.895   5.997
 4648TIP3    H213890   7.535   5.948   5.892
 4649TIP3   OH213891   6.585   0.081   1.424
 4649TIP3    H113892   6.533   0.157   1.449
 4649TIP3    H213893   6.599   0.091   1.330
 4650TIP3   OH213894   8.258   4.674   1.679
 4650TIP3    H113895   8.164   4.685   1.691
 4650TIP3    H213896   8.266   4.637   1.591
 4651TIP3   OH213897   1.479   1.917   1.080
 4651TIP3    H113898   1.527   1.858   1.138
 4651TIP3    H213899   1.548   1.964   1.032
 4652TIP3   OH213900   1.071   6.275   2.891
 4652TIP3    H113901   1.078   6.222   2.971
 4652TIP3    H213902   1.073   6.211   2.820
 4653TIP3   OH213903   6.298   5.397   5.850
 4653TIP3    H113904   6.236   5.394   5.777
 4653TIP3    H213905   6.315   5.305   5.870
 4654TIP3   OH213906   7.373   1.439   2.007
 4654TIP3    H113907   7.349   1.346   2.006
 4654TIP3    H213908   7.421   1.452   1.926
 4655TIP3   OH213909   3.661   1.054   6.131
 4655TIP3    H113910   3.689   0.990   6.197
 4655TIP3    H213911   3.600   1.006   6.075
 4656TIP3   OH213912   1.590   2.889   3.832
 4656TIP3    H113913   1.567   2.967   3.883
 4656TIP3    H213914   1.644   2.923   3.761
 4657TIP3   OH213915   3.892   2.659   5.545
 4657TIP3    H113916   3.824   2.704   5.595
 4657TIP3    H213917   3.896   2.705   5.462
 4658TIP3   OH213918   4.908   7.554   6.699
 4658TIP3    H113919   4.931   7.473   6.654
 4658TIP3    H213920   4.813   7.553   6.705
 4659TIP3   OH213921   4.503   5.633   3.807
 4659TIP3    H113922   4.467   5.552   3.770
 4659TIP3    H213923   4.443   5.656   3.878
 4660TIP3   OH213924   7.863   4.683   5.772
 4660TIP3    H113925   7.888   4.763   5.819
 4660TIP3    H213926   7.775   4.702   5.738
 4661TIP3   OH213927   5.625   1.439   4.631
 4661TIP3    H113928   5.565   1.381   4.677
 4661TIP3    H213929   5.636   1.514   4.690
 4662TIP3   OH213930   5.356   7.482   2.644
 4662TIP3    H113931   5.279   7.452   2.692
 4662TIP3    H213932   5.338   7.574   2.625
 4663TIP3   OH213933   2.858   3.276   1.346
 4663TIP3    H113934   2.775   3.298   1.387
 4663TIP3    H213935   2.883   3.355   1.298
 4664TIP3   OH213936   0.935   2.207   4.207
 4664TIP3    H113937   0.955   2.143   4.139
 4664TIP3    H213938   0.860   2.169   4.254
 4665TIP3   OH213939   6.576   5.825   4.275
 4665TIP3    H113940   6.590   5.839   4.181
 4665TIP3    H213941   6.521   5.747   4.281
 4666TIP3   OH213942   4.802   4.816   5.695
 4666TIP3    H113943   4.891   4.848   5.711
 4666TIP3    H213944   4.750   4.895   5.682
 4667TIP3   OH213945   2.728   2.824   0.630
 4667TIP3    H113946   2.659   2.805   0.694
 4667TIP3    H213947   2.808   2.794   0.673
 4668TIP3   OH213948   8.152   0.707   1.510
 4668TIP3    H113949   8.074   0.693   1.456
 4668TIP3    H213950   8.171   0.620   1.547
 4669TIP3   OH213951   6.278   5.240   5.114
 4669TIP3    H113952   6.274   5.296   5.037
 4669TIP3    H213953   6.364   5.260   5.152
 4670TIP3   OH213954   3.438   2.234   1.996
 4670TIP3    H113955   3.437   2.280   2.080
 4670TIP3    H213956   3.346   2.228   1.971
 4671TIP3   OH213957   6.470   3.742   5.651
 4671TIP3    H113958   6.539   3.805   5.629
 4671TIP3    H213959   6.469   3.681   5.578
 4672TIP3   OH213960   6.699   2.438   4.996
 4672TIP3    H113961   6.793   2.455   4.991
 4672TIP3    H213962   6.692   2.343   5.000
 4673TIP3   OH213963   1.824   5.390   0.972
 4673TIP3    H113964   1.845   5.342   0.892
 4673TIP3    H213965   1.743   5.350   1.003
 4674TIP3   OH213966   3.810   7.636   1.169
 4674TIP3    H113967   3.893   7.597   1.199
 4674TIP3    H213968   3.743   7.573   1.196
 4675TIP3   OH213969   2.564   6.084   1.741
 4675TIP3    H113970   2.568   5.989   1.748
 4675TIP3    H213971   2.538   6.113   1.829
 4676TIP3   OH213972   1.929   0.397   2.023
 4676TIP3    H113973   1.890   0.355   2.100
 4676TIP3    H213974   1.966   0.479   2.058
 4677TIP3   OH213975   4.611   3.233   2.759
 4677TIP3    H113976   4.607   3.162   2.695
 4677TIP3    H213977   4.538   3.291   2.736
 4678TIP3   OH213978   6.869   1.795   5.041
 4678TIP3    H113979   6.835   1.759   5.122
 4678TIP3    H213980   6.955   1.830   5.064
 4679TIP3   OH213981   3.004   3.353   3.790
 4679TIP3    H113982   3.032   3.328   3.702
 4679TIP3    H213983   3.080   3.396   3.828
 4680TIP3   OH213984   6.345   0.513   5.878
 4680TIP3    H113985   6.329   0.420   5.889
 4680TIP3    H213986   6.381   0.521   5.790
 4681TIP3   OH213987   2.615   6.631   2.039
 4681TIP3    H113988   2.546   6.683   1.998
 4681TIP3    H213989   2.685   6.628   1.974
 4682TIP3   OH213990   2.232   3.458   2.856
 4682TIP3    H113991   2.196   3.547   2.855
 4682TIP3    H213992   2.310   3.463   2.911
 4683TIP3   OH213993   0.260   0.267   3.775
 4683TIP3    H113994   0.286   0.301   3.690
 4683TIP3    H213995   0.201   0.195   3.756
 4684TIP3   OH213996   1.945   0.947   5.193
 4684TIP3    H113997   1.865   0.903   5.220
 4684TIP3    H213998   1.952   1.023   5.251
 4685TIP3   OH213999   2.553   5.821   0.486
 4685TIP3    H114000   2.500   5.764   0.430
 4685TIP3    H214001   2.501   5.900   0.497
 4686TIP3   OH214002   4.018   0.529   5.314
 4686TIP3    H114003   3.950   0.538   5.381
 4686TIP3    H214004   3.996   0.596   5.249
 4687TIP3   OH214005   8.064   5.644   5.806
 4687TIP3    H114006   8.111   5.680   5.881
 4687TIP3    H214007   8.112   5.677   5.730
 4688TIP3   OH214008   6.623   6.065   1.047
 4688TIP3    H114009   6.675   6.117   0.985
 4688TIP3    H214010   6.601   6.126   1.117
 4689TIP3   OH214011   1.419   2.478   2.503
 4689TIP3    H114012   1.358   2.405   2.502
 4689TIP3    H214013   1.427   2.503   2.410
 4690TIP3   OH214014   3.032   7.142   5.150
 4690TIP3    H114015   3.010   7.126   5.058
 4690TIP3    H214016   3.004   7.063   5.196
 4691TIP3   OH214017   3.222   1.467   2.833
 4691TIP3    H114018   3.174   1.406   2.890
 4691TIP3    H214019   3.260   1.530   2.894
 4692TIP3   OH214020   3.110   6.149   5.814
 4692TIP3    H114021   3.107   6.094   5.892
 4692TIP3    H214022   3.020   6.154   5.784
 4693TIP3   OH214023   8.169   7.470   4.959
 4693TIP3    H114024   8.088   7.470   4.907
 4693TIP3    H214025   8.158   7.542   5.020
 4694TIP3   OH214026   5.736   3.421   0.982
 4694TIP3    H114027   5.730   3.328   0.960
 4694TIP3    H214028   5.696   3.428   1.069
 4695TIP3   OH214029   3.519   2.326   3.404
 4695TIP3    H114030   3.464   2.343   3.480
 4695TIP3    H214031   3.552   2.237   3.418
 4696TIP3   OH214032   7.666   2.571   3.179
 4696TIP3    H114033   7.615   2.622   3.241
 4696TIP3    H214034   7.687   2.490   3.225
 4697TIP3   OH214035   5.800   3.867   2.462
 4697TIP3    H114036   5.880   3.918   2.452
 4697TIP3    H214037   5.830   3.776   2.462
 4698TIP3   OH214038   2.357   3.307   2.361
 4698TIP3    H114039   2.432   3.367   2.364
 4698TIP3    H214040   2.388   3.229   2.407
 4699TIP3   OH214041   0.835   0.114   3.903
 4699TIP3    H114042   0.783   0.192   3.883
 4699TIP3    H214043   0.815   0.095   3.994
 4700TIP3   OH214044   7.835   7.798   5.425
 4700TIP3    H114045   7.889   7.875   5.440
 4700TIP3    H214046   7.811   7.767   5.512
 4701TIP3   OH214047   3.505   4.013   5.245
 4701TIP3    H114048   3.548   4.028   5.329
 4701TIP3    H214049   3.445   3.940   5.262
 4702TIP3   OH214050   0.743   6.424   0.933
 4702TIP3    H114051   0.733   6.469   0.849
 4702TIP3    H214052   0.740   6.331   0.910
 4703TIP3   OH214053   2.329   3.393   3.834
 4703TIP3    H114054   2.240   3.364   3.812
 4703TIP3    H214055   2.348   3.462   3.770
 4704TIP3   OH214056   4.996   3.597   3.511
 4704TIP3    H114057   5.019   3.505   3.505
 4704TIP3    H214058   5.078   3.643   3.494
 4705TIP3   OH214059   3.035   1.876   5.849
 4705TIP3    H114060   2.949   1.881   5.890
 4705TIP3    H214061   3.077   1.959   5.872
 4706TIP3   OH214062   6.368   3.647   0.567
 4706TIP3    H114063   6.273   3.646   0.575
 4706TIP3    H214064   6.387   3.725   0.515
 4707TIP3   OH214065   1.831   0.901   3.385
 4707TIP3    H114066   1.866   0.832   3.442
 4707TIP3    H214067   1.742   0.915   3.417
 4708TIP3   OH214068   7.832   4.725   4.298
 4708TIP3    H114069   7.866   4.767   4.219
 4708TIP3    H214070   7.745   4.762   4.309
 4709TIP3   OH214071   0.065   1.110   0.877
 4709TIP3    H114072   0.066   1.195   0.921
 4709TIP3    H214073   0.001   1.059   0.927
 4710TIP3   OH214074   5.830   4.832   6.426
 4710TIP3    H114075   5.819   4.857   6.518
 4710TIP3    H214076   5.743   4.839   6.389
 4711TIP3   OH214077   4.300   2.447   1.115
 4711TIP3    H114078   4.227   2.445   1.054
 4711TIP3    H214079   4.310   2.356   1.144
 4712TIP3   OH214080   2.383   6.601   2.218
 4712TIP3    H114081   2.316   6.568   2.158
 4712TIP3    H214082   2.334   6.654   2.281
 4713TIP3   OH214083   5.800   6.022   1.024
 4713TIP3    H114084   5.854   6.088   1.067
 4713TIP3    H214085   5.799   5.949   1.085
 4714TIP3   OH214086   1.175   1.773   5.141
 4714TIP3    H114087   1.270   1.777   5.143
 4714TIP3    H214088   1.150   1.750   5.231
 4715TIP3   OH214089   2.067   0.082   4.696
 4715TIP3    H114090   2.032   0.079   4.786
 4715TIP3    H214091   2.112  -0.002   4.686
 4716TIP3   OH214092   4.264   3.239   2.330
 4716TIP3    H114093   4.317   3.160   2.336
 4716TIP3    H214094   4.175   3.207   2.318
 4717TIP3   OH214095   3.320   5.422   5.375
 4717TIP3    H114096   3.274   5.404   5.458
 4717TIP3    H214097   3.366   5.504   5.390
 4718TIP3   OH214098   0.658   3.502   5.248
 4718TIP3    H114099   0.569   3.468   5.238
 4718TIP3    H214100   0.650   3.574   5.311
 4719TIP3   OH214101   0.918   2.147   5.241
 4719TIP3    H114102   0.863   2.083   5.287
 4719TIP3    H214103   0.996   2.098   5.216
 4720TIP3   OH214104   5.219   3.263   2.947
 4720TIP3    H114105   5.150   3.306   2.998
 4720TIP3    H214106   5.294   3.322   2.955
 4721TIP3   OH214107   1.903   7.095   3.492
 4721TIP3    H114108   1.841   7.043   3.543
 4721TIP3    H214109   1.959   7.030   3.449
 4722TIP3   OH214110   2.235   3.760   6.707
 4722TIP3    H114111   2.331   3.759   6.711
 4722TIP3    H214112   2.214   3.712   6.627
 4723TIP3   OH214113   3.384   3.043   0.049
 4723TIP3    H114114   3.399   2.988  -0.028
 4723TIP3    H214115   3.470   3.081   0.068
 4724TIP3   OH214116   2.554   4.269   4.457
 4724TIP3    H114117   2.488   4.281   4.525
 4724TIP3    H214118   2.602   4.191   4.484
 4725TIP3   OH214119   8.161   4.746   4.354
 4725TIP3    H114120   8.122   4.679   4.297
 4725TIP3    H214121   8.194   4.698   4.429
 4726TIP3   OH214122   1.342   6.931   2.991
 4726TIP3    H114123   1.425   6.907   2.951
 4726TIP3    H214124   1.276   6.891   2.935
 4727TIP3   OH214125   6.266   1.084   1.443
 4727TIP3    H114126   6.215   1.098   1.364
 4727TIP3    H214127   6.244   1.159   1.499
 4728TIP3   OH214128   7.880   7.232   5.082
 4728TIP3    H114129   7.819   7.301   5.054
 4728TIP3    H214130   7.961   7.251   5.034
 4729TIP3   OH214131   0.049   6.323   1.275
 4729TIP3    H114132   0.108   6.251   1.297
 4729TIP3    H214133  -0.010   6.287   1.209
 4730TIP3   OH214134   2.033   1.442   5.526
 4730TIP3    H114135   2.092   1.375   5.560
 4730TIP3    H214136   2.013   1.497   5.602
 4731TIP3   OH214137   1.259   2.791   0.660
 4731TIP3    H114138   1.324   2.747   0.715
 4731TIP3    H214139   1.310   2.825   0.586
 4732TIP3   OH214140   4.423   0.169   1.890
 4732TIP3    H114141   4.390   0.232   1.955
 4732TIP3    H214142   4.346   0.119   1.864
 4733TIP3   OH214143   6.517   1.611   6.708
 4733TIP3    H114144   6.518   1.665   6.787
 4733TIP3    H214145   6.593   1.640   6.658
 4734TIP3   OH214146   3.378   6.398   4.512
 4734TIP3    H114147   3.315   6.457   4.553
 4734TIP3    H214148   3.452   6.454   4.488
 4735TIP3   OH214149   4.238   5.626   2.502
 4735TIP3    H114150   4.215   5.584   2.584
 4735TIP3    H214151   4.160   5.676   2.477
 4736TIP3   OH214152   5.476   7.346   2.424
 4736TIP3    H114153   5.425   7.384   2.496
 4736TIP3    H214154   5.476   7.252   2.442
 4737TIP3   OH214155   1.856   0.391   6.426
 4737TIP3    H114156   1.816   0.474   6.453
 4737TIP3    H214157   1.788   0.326   6.440
 4738TIP3   OH214158   7.562   4.107   0.201
 4738TIP3    H114159   7.540   4.200   0.193
 4738TIP3    H214160   7.655   4.107   0.227
 4739TIP3   OH214161   3.902   7.287   2.314
 4739TIP3    H114162   3.949   7.342   2.250
 4739TIP3    H214163   3.826   7.255   2.266
 4740TIP3   OH214164   8.233   6.492   1.921
 4740TIP3    H114165   8.239   6.402   1.890
 4740TIP3    H214166   8.295   6.541   1.866
 4741TIP3   OH214167   7.231   3.751   4.128
 4741TIP3    H114168   7.291   3.823   4.113
 4741TIP3    H214169   7.259   3.683   4.066
 4742TIP3   OH214170   0.377   7.648   6.723
 4742TIP3    H114171   0.377   7.590   6.799
 4742TIP3    H214172   0.304   7.708   6.737
 4743TIP3   OH214173   6.713   0.846   2.774
 4743TIP3    H114174   6.796   0.833   2.820
 4743TIP3    H214175   6.702   0.766   2.722
 4744TIP3   OH214176   0.606   5.067   3.362
 4744TIP3    H114177   0.618   5.123   3.286
 4744TIP3    H214178   0.690   5.024   3.374
 4745TIP3   OH214179   7.782   7.472   1.619
 4745TIP3    H114180   7.755   7.521   1.542
 4745TIP3    H214181   7.740   7.386   1.608
 4746TIP3   OH214182   7.751   2.587   4.491
 4746TIP3    H114183   7.828   2.579   4.547
 4746TIP3    H214184   7.720   2.497   4.479
 4747TIP3   OH214185   0.642   5.948   1.659
 4747TIP3    H114186   0.714   5.888   1.673
 4747TIP3    H214187   0.650   6.013   1.729
 4748TIP3   OH214188   7.825   0.031   6.122
 4748TIP3    H114189   7.821   0.011   6.028
 4748TIP3    H214190   7.822  -0.055   6.165
 4749TIP3   OH214191   1.854   3.610   1.353
 4749TIP3    H114192   1.865   3.523   1.314
 4749TIP3    H214193   1.821   3.664   1.281
 4750TIP3   OH214194   2.198   1.564   6.058
 4750TIP3    H114195   2.136   1.626   6.097
 4750TIP3    H214196   2.283   1.606   6.067
 4751TIP3   OH214197   4.803   7.224   3.824
 4751TIP3    H114198   4.765   7.278   3.894
 4751TIP3    H214199   4.787   7.134   3.852
 4752TIP3   OH214200   0.031   5.665   3.155
 4752TIP3    H114201   0.055   5.579   3.121
 4752TIP3    H214202  -0.049   5.689   3.108
 4753TIP3   OH214203   3.970   6.945   0.635
 4753TIP3    H114204   4.065   6.952   0.646
 4753TIP3    H214205   3.950   6.853   0.650
 4754TIP3   OH214206   6.027   6.808   0.024
 4754TIP3    H114207   5.966   6.878  -0.002
 4754TIP3    H214208   5.982   6.763   0.095
 4755TIP3   OH214209   2.788   2.205   4.266
 4755TIP3    H114210   2.790   2.167   4.354
 4755TIP3    H214211   2.880   2.207   4.239
 4756TIP3   OH214212   5.504   6.141   4.651
 4756TIP3    H114213   5.413   6.113   4.646
 4756TIP3    H214214   5.539   6.095   4.728
 4757TIP3   OH214215   1.919   2.740   6.330
 4757TIP3    H114216   1.920   2.681   6.405
 4757TIP3    H214217   1.890   2.686   6.257
 4758TIP3   OH214218   4.110   6.583   3.354
 4758TIP3    H114219   4.149   6.661   3.394
 4758TIP3    H214220   4.073   6.534   3.427
 4759TIP3   OH214221   1.072   3.288   2.041
 4759TIP3    H114222   1.105   3.372   2.073
 4759TIP3    H214223   1.140   3.258   1.981
 4760TIP3   OH214224   6.667   4.433   4.464
 4760TIP3    H114225   6.709   4.362   4.513
 4760TIP3    H214226   6.710   4.432   4.378
 4761TIP3   OH214227   2.586   7.357   4.580
 4761TIP3    H114228   2.579   7.448   4.550
 4761TIP3    H214229   2.513   7.312   4.538
 4762TIP3   OH214230   6.218   4.278   0.543
 4762TIP3    H114231   6.211   4.334   0.466
 4762TIP3    H214232   6.294   4.311   0.591
 4763TIP3   OH214233   3.435   0.749   0.125
 4763TIP3    H114234   3.446   0.662   0.085
 4763TIP3    H214235   3.397   0.802   0.055
 4764TIP3   OH214236   5.704   3.437   4.013
 4764TIP3    H114237   5.759   3.361   4.032
 4764TIP3    H214238   5.657   3.454   4.094
 4765TIP3   OH214239   6.792   6.274   5.554
 4765TIP3    H114240   6.865   6.311   5.606
 4765TIP3    H214241   6.771   6.192   5.598
 4766TIP3   OH214242   0.942   4.469   2.437
 4766TIP3    H114243   0.942   4.552   2.389
 4766TIP3    H214244   0.915   4.492   2.526
 4767TIP3   OH214245   7.800   3.119   5.576
 4767TIP3    H114246   7.769   3.185   5.638
 4767TIP3    H214247   7.722   3.091   5.529
 4768TIP3   OH214248   7.407   0.437   5.309
 4768TIP3    H114249   7.499   0.443   5.335
 4768TIP3    H214250   7.366   0.514   5.349
 4769TIP3   OH214251   0.333   7.068   4.455
 4769TIP3    H114252   0.404   7.079   4.518
 4769TIP3    H214253   0.334   6.975   4.432
 4770TIP3   OH214254   2.403   3.410   3.240
 4770TIP3    H114255   2.429   3.335   3.185
 4770TIP3    H214256   2.334   3.375   3.296
 4771TIP3   OH214257   5.395   7.329   0.402
 4771TIP3    H114258   5.370   7.255   0.458
 4771TIP3    H214259   5.374   7.406   0.454
 4772TIP3   OH214260   4.403   6.570   2.136
 4772TIP3    H114261   4.386   6.479   2.158
 4772TIP3    H214262   4.403   6.616   2.220
 4773TIP3   OH214263   4.167   4.011   5.332
 4773TIP3    H114264   4.229   3.995   5.261
 4773TIP3    H214265   4.214   3.986   5.412
 4774TIP3   OH214266   6.823   2.331   5.428
 4774TIP3    H114267   6.810   2.253   5.375
 4774TIP3    H214268   6.876   2.389   5.373
 4775TIP3   OH214269   2.429   6.750   2.525
 4775TIP3    H114270   2.505   6.782   2.476
 4775TIP3    H214271   2.408   6.821   2.586
 4776TIP3   OH214272   3.521   5.632   5.996
 4776TIP3    H114273   3.594   5.594   5.947
 4776TIP3    H214274   3.536   5.726   5.992
 4777TIP3   OH214275   3.611   5.429   1.988
 4777TIP3    H114276   3.644   5.410   1.900
 4777TIP3    H214277   3.520   5.400   1.987
 4778TIP3   OH214278   4.946   6.849   5.425
 4778TIP3    H114279   4.987   6.885   5.347
 4778TIP3    H214280   4.875   6.794   5.391
 4779TIP3   OH214281   1.568   5.337   1.034
 4779TIP3    H114282   1.519   5.266   1.076
 4779TIP3    H214283   1.532   5.342   0.945
 4780TIP3   OH214284   5.608   7.386   6.318
 4780TIP3    H114285   5.690   7.413   6.276
 4780TIP3    H214286   5.550   7.365   6.245
 4781TIP3   OH214287   2.271   6.028   5.297
 4781TIP3    H114288   2.317   5.962   5.350
 4781TIP3    H214289   2.317   6.027   5.213
 4782TIP3   OH214290   2.842   7.683   0.572
 4782TIP3    H114291   2.790   7.685   0.492
 4782TIP3    H214292   2.831   7.594   0.606
 4783TIP3   OH214293   1.076   3.402   4.450
 4783TIP3    H114294   1.097   3.469   4.385
 4783TIP3    H214295   1.160   3.378   4.488
 4784TIP3   OH214296   1.858   4.378   0.131
 4784TIP3    H114297   1.771   4.350   0.160
 4784TIP3    H214298   1.899   4.299   0.096
 4785TIP3   OH214299   0.313   2.593   4.597
 4785TIP3    H114300   0.231   2.567   4.556
 4785TIP3    H214301   0.289   2.668   4.652
 4786TIP3   OH214302   7.566   0.674   5.990
 4786TIP3    H114303   7.575   0.726   6.070
 4786TIP3    H214304   7.515   0.597   6.017
 4787TIP3   OH214305   2.000   1.563   1.793
 4787TIP3    H114306   2.031   1.518   1.715
 4787TIP3    H214307   1.935   1.626   1.760
 4788TIP3   OH214308   7.784   5.010   5.597
 4788TIP3    H114309   7.724   4.954   5.547
 4788TIP3    H214310   7.869   4.968   5.585
 4789TIP3   OH214311   5.707   3.392   1.964
 4789TIP3    H114312   5.727   3.307   2.003
 4789TIP3    H214313   5.618   3.410   1.991
 4790TIP3   OH214314   7.024   7.433   3.994
 4790TIP3    H114315   6.959   7.430   4.064
 4790TIP3    H214316   7.040   7.526   3.980
 4791TIP3   OH214317   5.451   1.816   6.252
 4791TIP3    H114318   5.525   1.781   6.301
 4791TIP3    H214319   5.470   1.909   6.243
 4792TIP3   OH214320   3.959   3.208   3.979
 4792TIP3    H114321   4.025   3.254   4.030
 4792TIP3    H214322   3.948   3.261   3.900
 4793TIP3   OH214323   4.591   5.042   2.696
 4793TIP3    H114324   4.671   5.001   2.663
 4793TIP3    H214325   4.520   4.988   2.660
 4794TIP3   OH214326   1.549   3.702   6.441
 4794TIP3    H114327   1.463   3.698   6.400
 4794TIP3    H214328   1.599   3.633   6.397
 4795TIP3   OH214329   3.489   7.736   1.409
 4795TIP3    H114330   3.501   7.761   1.317
 4795TIP3    H214331   3.511   7.815   1.458
 4796TIP3   OH214332   3.813   4.942   5.554
 4796TIP3    H114333   3.780   4.853   5.560
 4796TIP3    H214334   3.770   4.988   5.626
 4797TIP3   OH214335   6.812   6.330   2.277
 4797TIP3    H114336   6.756   6.260   2.245
 4797TIP3    H214337   6.860   6.292   2.350
 4798TIP3   OH214338   4.451   2.252   4.333
 4798TIP3    H114339   4.425   2.248   4.241
 4798TIP3    H214340   4.488   2.340   4.344
 4799TIP3   OH214341   5.091   5.217   1.152
 4799TIP3    H114342   5.122   5.152   1.087
 4799TIP3    H214343   5.101   5.301   1.108
 4800TIP3   OH214344   1.036   7.640   1.011
 4800TIP3    H114345   1.095   7.595   0.951
 4800TIP3    H214346   1.092   7.699   1.061
 4801TIP3   OH214347   4.376   5.984   0.842
 4801TIP3    H114348   4.421   6.028   0.914
 4801TIP3    H214349   4.354   5.898   0.877
 4802TIP3   OH214350   5.294   7.144   6.253
 4802TIP3    H114351   5.310   7.218   6.195
 4802TIP3    H214352   5.379   7.102   6.264
 4803TIP3   OH214353   1.583   6.027   0.054
 4803TIP3    H114354   1.672   6.056   0.035
 4803TIP3    H214355   1.527   6.096   0.017
 4804TIP3   OH214356   5.094   6.219   4.745
 4804TIP3    H114357   5.165   6.270   4.784
 4804TIP3    H214358   5.037   6.196   4.819
 4805TIP3   OH214359   5.322   7.055   5.028
 4805TIP3    H114360   5.411   7.082   5.005
 4805TIP3    H214361   5.326   6.960   5.037
 4806TIP3   OH214362   0.066   3.311   3.728
 4806TIP3    H114363   0.106   3.276   3.808
 4806TIP3    H214364   0.107   3.397   3.716
 4807TIP3   OH214365   2.693   0.253   6.341
 4807TIP3    H114366   2.741   0.288   6.415
 4807TIP3    H214367   2.673   0.162   6.365
 4808TIP3   OH214368   5.988   4.724   3.794
 4808TIP3    H114369   6.014   4.743   3.704
 4808TIP3    H214370   5.896   4.699   3.787
 4809TIP3   OH214371   5.256   5.693   5.807
 4809TIP3    H114372   5.237   5.787   5.800
 4809TIP3    H214373   5.315   5.686   5.881
 4810TIP3   OH214374   0.973   6.123   0.561
 4810TIP3    H114375   0.880   6.120   0.539
 4810TIP3    H214376   0.989   6.214   0.587
 4811TIP3   OH214377   4.389   2.238   0.447
 4811TIP3    H114378   4.390   2.194   0.532
 4811TIP3    H214379   4.326   2.309   0.458
 4812TIP3   OH214380   4.617   7.613   4.791
 4812TIP3    H114381   4.536   7.616   4.740
 4812TIP3    H214382   4.591   7.638   4.880
 4813TIP3   OH214383   7.937   5.789   0.621
 4813TIP3    H114384   7.938   5.694   0.608
 4813TIP3    H214385   7.853   5.817   0.583
 4814TIP3   OH214386   0.050   2.786   3.323
 4814TIP3    H114387  -0.002   2.764   3.246
 4814TIP3    H214388   0.024   2.875   3.346
 4815TIP3   OH214389   0.266   0.798   6.233
 4815TIP3    H114390   0.274   0.828   6.142
 4815TIP3    H214391   0.277   0.703   6.228
 4816TIP3   OH214392   7.438   7.197   1.449
 4816TIP3    H114393   7.425   7.154   1.533
 4816TIP3    H214394   7.357   7.182   1.401
 4817TIP3   OH214395   1.498   1.380   3.175
 4817TIP3    H114396   1.553   1.302   3.174
 4817TIP3    H214397   1.505   1.416   3.087
 4818TIP3   OH214398   3.263   6.433   5.504
 4818TIP3    H114399   3.325   6.487   5.553
 4818TIP3    H214400   3.177   6.473   5.523
 4819TIP3   OH214401   6.801   0.198   1.197
 4819TIP3    H114402   6.725   0.165   1.148
 4819TIP3    H214403   6.868   0.130   1.187
 4820TIP3   OH214404   6.363   4.252   3.753
 4820TIP3    H114405   6.304   4.193   3.799
 4820TIP3    H214406   6.328   4.340   3.769
 4821TIP3   OH214407   6.059   5.157   6.703
 4821TIP3    H114408   6.011   5.200   6.632
 4821TIP3    H214409   6.113   5.092   6.659
 4822TIP3   OH214410   1.464   7.245   6.476
 4822TIP3    H114411   1.501   7.290   6.552
 4822TIP3    H214412   1.389   7.197   6.511
 4823TIP3   OH214413   6.101   1.338   5.192
 4823TIP3    H114414   6.089   1.285   5.113
 4823TIP3    H214415   6.167   1.290   5.243
 4824TIP3   OH214416   4.112   4.992   1.037
 4824TIP3    H114417   4.025   4.954   1.042
 4824TIP3    H214418   4.166   4.923   0.998
 4825TIP3   OH214419   1.895   2.337   1.250
 4825TIP3    H114420   1.959   2.274   1.285
 4825TIP3    H214421   1.910   2.416   1.301
 4826TIP3   OH214422   8.313   0.187   2.977
 4826TIP3    H114423   8.228   0.160   3.010
 4826TIP3    H214424   8.314   0.282   2.989
 4827TIP3   OH214425   3.483   5.382   2.310
 4827TIP3    H114426   3.428   5.404   2.386
 4827TIP3    H214427   3.573   5.398   2.341
 4828TIP3   OH214428   4.375   1.262   5.572
 4828TIP3    H114429   4.299   1.317   5.554
 4828TIP3    H214430   4.367   1.240   5.665
 4829TIP3   OH214431  -0.021   2.519   1.027
 4829TIP3    H114432  -0.001   2.600   1.072
 4829TIP3    H214433   0.020   2.528   0.941
 4830TIP3   OH214434   4.556   0.619   5.504
 4830TIP3    H114435   4.474   0.577   5.478
 4830TIP3    H214436   4.544   0.711   5.481
 4831TIP3   OH214437   3.551   4.329   3.767
 4831TIP3    H114438   3.612   4.283   3.708
 4831TIP3    H214439   3.489   4.261   3.793
 4832TIP3   OH214440   5.554   4.587   2.477
 4832TIP3    H114441   5.532   4.504   2.520
 4832TIP3    H214442   5.639   4.571   2.435
 4833TIP3   OH214443   2.639   2.324   3.315
 4833TIP3    H114444   2.656   2.367   3.399
 4833TIP3    H214445   2.544   2.324   3.308
 4834TIP3   OH214446   0.478   6.522   2.306
 4834TIP3    H114447   0.427   6.475   2.372
 4834TIP3    H214448   0.471   6.614   2.332
 4835TIP3   OH214449   3.436   6.741   0.996
 4835TIP3    H114450   3.400   6.761   0.910
 4835TIP3    H214451   3.531   6.735   0.982
 4836TIP3   OH214452   0.595   3.026   3.784
 4836TIP3    H114453   0.538   3.070   3.846
 4836TIP3    H214454   0.684   3.042   3.816
 4837TIP3   OH214455   5.576   4.038   5.993
 4837TIP3    H114456   5.647   4.086   6.035
 4837TIP3    H214457   5.558   3.964   6.051
 4838TIP3   OH214458   4.861   0.183   5.710
 4838TIP3    H114459   4.926   0.138   5.656
 4838TIP3    H214460   4.904   0.264   5.736
 4839TIP3   OH214461   1.264   6.301   2.347
 4839TIP3    H114462   1.257   6.302   2.443
 4839TIP3    H214463   1.307   6.383   2.326
 4840TIP3   OH214464   0.810   4.854   4.534
 4840TIP3    H114465   0.757   4.925   4.498
 4840TIP3    H214466   0.865   4.896   4.600
 4841TIP3   OH214467   8.142   3.243   6.722
 4841TIP3    H114468   8.218   3.185   6.722
 4841TIP3    H214469   8.128   3.265   6.814
 4842TIP3   OH214470   5.726   1.995   1.729
 4842TIP3    H114471   5.656   1.985   1.664
 4842TIP3    H214472   5.805   2.010   1.677
 4843TIP3   OH214473   7.703   6.695   1.030
 4843TIP3    H114474   7.763   6.631   1.069
 4843TIP3    H214475   7.624   6.688   1.083
 4844TIP3   OH214476   5.303   0.845   0.116
 4844TIP3    H114477   5.303   0.800   0.031
 4844TIP3    H214478   5.322   0.936   0.095
 4845TIP3   OH214479   6.801   0.835   3.961
 4845TIP3    H114480   6.762   0.762   4.010
 4845TIP3    H214481   6.825   0.796   3.876
 4846TIP3   OH214482   8.222   1.928   1.954
 4846TIP3    H114483   8.277   1.990   2.003
 4846TIP3    H214484   8.216   1.852   2.011
 4847TIP3   OH214485   4.169   3.845   2.557
 4847TIP3    H114486   4.087   3.804   2.584
 4847TIP3    H214487   4.211   3.872   2.639
 4848TIP3   OH214488   8.212   5.375   0.527
 4848TIP3    H114489   8.224   5.408   0.616
 4848TIP3    H214490   8.262   5.436   0.473
 4849TIP3   OH214491   3.169   3.443   5.684
 4849TIP3    H114492   3.117   3.365   5.664
 4849TIP3    H214493   3.243   3.439   5.624
 4850TIP3   OH214494   5.944   0.453   1.305
 4850TIP3    H114495   5.895   0.394   1.248
 4850TIP3    H214496   5.879   0.516   1.336
 4851TIP3   OH214497   2.258   5.293   0.437
 4851TIP3    H114498   2.231   5.227   0.501
 4851TIP3    H214499   2.189   5.290   0.370
 4852TIP3   OH214500   0.442   0.093   6.461
 4852TIP3    H114501   0.461   0.017   6.406
 4852TIP3    H214502   0.527   0.135   6.473
 4853TIP3   OH214503   0.984   2.040   6.336
 4853TIP3    H114504   0.905   2.061   6.286
 4853TIP3    H214505   1.045   2.110   6.316
 4854TIP3   OH214506   4.910   0.638   3.910
 4854TIP3    H114507   4.954   0.617   3.828
 4854TIP3    H214508   4.885   0.553   3.947
 4855TIP3   OH214509   4.021   5.120   6.027
 4855TIP3    H114510   3.966   5.052   5.988
 4855TIP3    H214511   3.999   5.119   6.120
 4856TIP3   OH214512   7.753   4.269   3.264
 4856TIP3    H114513   7.778   4.220   3.342
 4856TIP3    H214514   7.670   4.230   3.236
 4857TIP3   OH214515   1.769   2.688   5.760
 4857TIP3    H114516   1.789   2.734   5.841
 4857TIP3    H214517   1.728   2.606   5.789
 4858TIP3   OH214518   2.346   4.163   3.824
 4858TIP3    H114519   2.354   4.178   3.918
 4858TIP3    H214520   2.375   4.072   3.812
 4859TIP3   OH214521   4.192   0.628   0.850
 4859TIP3    H114522   4.205   0.671   0.766
 4859TIP3    H214523   4.100   0.600   0.848
 4860TIP3   OH214524   1.527   3.369   2.966
 4860TIP3    H114525   1.570   3.455   2.957
 4860TIP3    H214526   1.554   3.320   2.889
 4861TIP3   OH214527   1.327   3.234   4.839
 4861TIP3    H114528   1.324   3.241   4.934
 4861TIP3    H214529   1.418   3.211   4.820
 4862TIP3   OH214530   6.259   2.143   6.513
 4862TIP3    H114531   6.347   2.173   6.493
 4862TIP3    H214532   6.210   2.224   6.533
 4863TIP3   OH214533   5.411   5.328   4.662
 4863TIP3    H114534   5.386   5.379   4.585
 4863TIP3    H214535   5.473   5.263   4.628
 4864TIP3   OH214536   3.703   3.296   3.795
 4864TIP3    H114537   3.727   3.388   3.810
 4864TIP3    H214538   3.784   3.254   3.768
 4865TIP3   OH214539   4.319   1.975   5.790
 4865TIP3    H114540   4.318   2.060   5.746
 4865TIP3    H214541   4.384   1.923   5.742
 4866TIP3   OH214542   6.940   6.443   3.314
 4866TIP3    H114543   7.029   6.457   3.281
 4866TIP3    H214544   6.891   6.519   3.283
 4867TIP3   OH214545   4.326   3.420   6.091
 4867TIP3    H114546   4.288   3.414   6.179
 4867TIP3    H214547   4.407   3.370   6.096
 4868TIP3   OH214548   0.987   6.966   1.683
 4868TIP3    H114549   1.017   7.056   1.696
 4868TIP3    H214550   1.013   6.945   1.593
 4869TIP3   OH214551   3.878   1.559   5.456
 4869TIP3    H114552   3.930   1.629   5.416
 4869TIP3    H214553   3.832   1.517   5.383
 4870TIP3   OH214554   6.086   1.012   3.564
 4870TIP3    H114555   6.028   0.963   3.505
 4870TIP3    H214556   6.161   0.955   3.576
 4871TIP3   OH214557   5.907   0.886   4.425
 4871TIP3    H114558   5.860   0.895   4.508
 4871TIP3    H214559   5.999   0.894   4.449
 4872TIP3   OH214560   3.642   5.410   0.796
 4872TIP3    H114561   3.647   5.426   0.702
 4872TIP3    H214562   3.703   5.474   0.834
 4873TIP3   OH214563   3.500   3.194   1.442
 4873TIP3    H114564   3.531   3.104   1.439
 4873TIP3    H214565   3.527   3.227   1.528
 4874TIP3   OH214566   6.081   4.241   5.551
 4874TIP3    H114567   6.036   4.205   5.475
 4874TIP3    H214568   6.011   4.273   5.607
 4875TIP3   OH214569   5.307   3.826   3.828
 4875TIP3    H114570   5.338   3.915   3.846
 4875TIP3    H214571   5.379   3.785   3.779
 4876TIP3   OH214572   7.364   5.943   5.426
 4876TIP3    H114573   7.327   5.870   5.376
 4876TIP3    H214574   7.403   5.901   5.503
 4877TIP3   OH214575   8.141   2.792   4.088
 4877TIP3    H114576   8.229   2.777   4.053
 4877TIP3    H214577   8.139   2.886   4.106
 4878TIP3   OH214578   1.615   6.589   5.760
 4878TIP3    H114579   1.671   6.572   5.684
 4878TIP3    H214580   1.551   6.518   5.759
 4879TIP3   OH214581   6.628   7.161   2.064
 4879TIP3    H114582   6.602   7.212   1.988
 4879TIP3    H214583   6.563   7.184   2.131
 4880TIP3   OH214584   2.883   3.388   6.037
 4880TIP3    H114585   2.903   3.398   5.944
 4880TIP3    H214586   2.820   3.316   6.041
 4881TIP3   OH214587   1.082   7.315   2.517
 4881TIP3    H114588   1.175   7.315   2.539
 4881TIP3    H214589   1.078   7.275   2.430
 4882TIP3   OH214590   0.476   1.682   0.937
 4882TIP3    H114591   0.432   1.604   0.904
 4882TIP3    H214592   0.469   1.746   0.866
 4883TIP3   OH214593   1.179   4.399   2.000
 4883TIP3    H114594   1.270   4.382   2.027
 4883TIP3    H214595   1.129   4.393   2.082
 4884TIP3   OH214596   0.227   1.215   1.775
 4884TIP3    H114597   0.268   1.190   1.858
 4884TIP3    H214598   0.261   1.152   1.711
 4885TIP3   OH214599   7.529   3.917   0.873
 4885TIP3    H114600   7.440   3.892   0.849
 4885TIP3    H214601   7.584   3.850   0.832
 4886TIP3   OH214602   1.394   5.914   6.366
 4886TIP3    H114603   1.407   5.907   6.271
 4886TIP3    H214604   1.346   5.996   6.377
 4887TIP3   OH214605   6.690   2.491   2.535
 4887TIP3    H114606   6.634   2.488   2.612
 4887TIP3    H214607   6.643   2.441   2.468
 4888TIP3   OH214608   5.059   2.725   1.634
 4888TIP3    H114609   5.038   2.681   1.716
 4888TIP3    H214610   5.045   2.818   1.652
 4889TIP3   OH214611   6.785   0.877   6.717
 4889TIP3    H114612   6.859   0.815   6.717
 4889TIP3    H214613   6.789   0.918   6.630
 4890TIP3   OH214614   5.211   4.149   2.761
 4890TIP3    H114615   5.208   4.240   2.731
 4890TIP3    H214616   5.169   4.100   2.690
 4891TIP3   OH214617   1.959   3.499   6.214
 4891TIP3    H114618   1.952   3.479   6.307
 4891TIP3    H214619   1.872   3.477   6.178
 4892TIP3   OH214620   4.414   7.089   0.985
 4892TIP3    H114621   4.388   6.998   0.970
 4892TIP3    H214622   4.495   7.100   0.935
 4893TIP3   OH214623   2.146   1.913   2.283
 4893TIP3    H114624   2.111   1.848   2.344
 4893TIP3    H214625   2.069   1.944   2.235
 4894TIP3   OH214626  -0.040   3.813   6.741
 4894TIP3    H114627  -0.026   3.824   6.647
 4894TIP3    H214628   0.047   3.820   6.779
 4895TIP3   OH214629   7.956   1.329   6.013
 4895TIP3    H114630   8.032   1.272   6.005
 4895TIP3    H214631   7.951   1.374   5.928
 4896TIP3   OH214632   2.035   5.824   4.634
 4896TIP3    H114633   2.123   5.793   4.655
 4896TIP3    H214634   1.977   5.774   4.691
 4897TIP3   OH214635   5.592   0.662   3.224
 4897TIP3    H114636   5.646   0.740   3.234
 4897TIP3    H214637   5.620   0.604   3.294
 4898TIP3   OH214638   0.514   3.974   6.645
 4898TIP3    H114639   0.563   3.929   6.577
 4898TIP3    H214640   0.580   4.021   6.696
 4899TIP3   OH214641   0.231   5.784   5.903
 4899TIP3    H114642   0.145   5.826   5.897
 4899TIP3    H214643   0.238   5.760   5.996
 4900TIP3   OH214644   1.545   1.114   2.853
 4900TIP3    H114645   1.564   1.206   2.870
 4900TIP3    H214646   1.498   1.085   2.931
 4901TIP3   OH214647   5.271   3.964   4.180
 4901TIP3    H114648   5.234   4.007   4.257
 4901TIP3    H214649   5.363   3.989   4.181
 4902TIP3   OH214650   5.512   5.805   6.650
 4902TIP3    H114651   5.506   5.871   6.719
 4902TIP3    H214652   5.603   5.809   6.621
 4903TIP3   OH214653   6.533   2.433   3.796
 4903TIP3    H114654   6.585   2.513   3.786
 4903TIP3    H214655   6.444   2.461   3.777
 4904TIP3   OH214656   3.158   2.554   6.185
 4904TIP3    H114657   3.139   2.645   6.162
 4904TIP3    H214658   3.227   2.527   6.125
 4905TIP3   OH214659   6.320   5.845   3.757
 4905TIP3    H114660   6.315   5.938   3.778
 4905TIP3    H214661   6.292   5.800   3.836
 4906TIP3   OH214662   3.581   1.542   5.462
 4906TIP3    H114663   3.629   1.624   5.463
 4906TIP3    H214664   3.569   1.520   5.554
 4907TIP3   OH214665   0.537   6.222   1.403
 4907TIP3    H114666   0.559   6.185   1.318
 4907TIP3    H214667   0.531   6.316   1.387
 4908TIP3   OH214668   4.439   1.915   2.278
 4908TIP3    H114669   4.480   1.953   2.201
 4908TIP3    H214670   4.410   1.829   2.250
 4909TIP3   OH214671   5.708   5.275   4.921
 4909TIP3    H114672   5.673   5.267   5.010
 4909TIP3    H214673   5.689   5.191   4.880
 4910TIP3   OH214674   3.294   3.025   0.958
 4910TIP3    H114675   3.351   3.022   1.035
 4910TIP3    H214676   3.207   3.045   0.994
 4911TIP3   OH214677   1.575   4.950   6.678
 4911TIP3    H114678   1.621   5.001   6.744
 4911TIP3    H214679   1.625   4.964   6.597
 4912TIP3   OH214680   4.701   2.120   5.137
 4912TIP3    H114681   4.642   2.178   5.185
 4912TIP3    H214682   4.721   2.169   5.057
 4913TIP3   OH214683   7.597   1.692   5.697
 4913TIP3    H114684   7.634   1.768   5.741
 4913TIP3    H214685   7.667   1.662   5.639
 4914TIP3   OH214686   1.769   6.947   0.844
 4914TIP3    H114687   1.795   7.027   0.798
 4914TIP3    H214688   1.846   6.922   0.895
 4915TIP3   OH214689   5.455   6.311   3.886
 4915TIP3    H114690   5.364   6.332   3.905
 4915TIP3    H214691   5.491   6.391   3.847
 4916TIP3   OH214692   4.426   5.482   1.382
 4916TIP3    H114693   4.416   5.415   1.450
 4916TIP3    H214694   4.349   5.538   1.394
 4917TIP3   OH214695   2.498   5.458   4.623
 4917TIP3    H114696   2.427   5.515   4.653
 4917TIP3    H214697   2.552   5.445   4.701
 4918TIP3   OH214698   4.077   4.589   2.838
 4918TIP3    H114699   4.067   4.681   2.862
 4918TIP3    H214700   4.148   4.588   2.773
 4919TIP3   OH214701   6.829   0.185   5.583
 4919TIP3    H114702   6.899   0.220   5.639
 4919TIP3    H214703   6.812   0.097   5.618
 4920TIP3   OH214704   1.727   7.069   5.561
 4920TIP3    H114705   1.655   7.007   5.574
 4920TIP3    H214706   1.745   7.102   5.649
 4921TIP3   OH214707   5.266   3.135   3.413
 4921TIP3    H114708   5.239   3.060   3.361
 4921TIP3    H214709   5.209   3.132   3.490
 4922TIP3   OH214710   0.068   4.940   4.324
 4922TIP3    H114711   0.144   4.894   4.288
 4922TIP3    H214712  -0.007   4.887   4.299
 4923TIP3   OH214713   5.120   4.640   0.169
 4923TIP3    H114714   5.074   4.594   0.100
 4923TIP3    H214715   5.201   4.671   0.128
 4924TIP3   OH214716   1.292   6.410   4.507
 4924TIP3    H114717   1.325   6.405   4.417
 4924TIP3    H214718   1.354   6.358   4.558
 4925TIP3   OH214719   3.681   2.626   3.607
 4925TIP3    H114720   3.646   2.540   3.632
 4925TIP3    H214721   3.709   2.665   3.690
 4926TIP3   OH214722   3.148   5.092   0.251
 4926TIP3    H114723   3.209   5.024   0.277
 4926TIP3    H214724   3.074   5.083   0.312
 4927TIP3   OH214725   7.097   7.520   5.937
 4927TIP3    H114726   7.156   7.472   5.880
 4927TIP3    H214727   7.039   7.568   5.877
 4928TIP3   OH214728   1.801   7.107   2.034
 4928TIP3    H114729   1.840   7.024   2.007
 4928TIP3    H214730   1.778   7.095   2.126
 4929TIP3   OH214731   5.090   0.275   5.176
 4929TIP3    H114732   5.078   0.180   5.166
 4929TIP3    H214733   5.147   0.284   5.252
 4930TIP3   OH214734   2.432   3.908   1.655
 4930TIP3    H114735   2.466   3.899   1.566
 4930TIP3    H214736   2.356   3.849   1.657
 4931TIP3   OH214737   4.247   7.420   0.118
 4931TIP3    H114738   4.293   7.482   0.062
 4931TIP3    H214739   4.254   7.336   0.072
 4932TIP3   OH214740   8.076   3.457   0.427
 4932TIP3    H114741   8.140   3.474   0.496
 4932TIP3    H214742   8.124   3.408   0.361
 4933TIP3   OH214743   6.528   2.349   5.347
 4933TIP3    H114744   6.620   2.326   5.359
 4933TIP3    H214745   6.512   2.421   5.408
 4934TIP3   OH214746   0.853   1.415   6.063
 4934TIP3    H114747   0.839   1.492   6.009
 4934TIP3    H214748   0.948   1.405   6.067
 4935TIP3   OH214749   2.590   1.875   1.369
 4935TIP3    H114750   2.549   1.825   1.298
 4935TIP3    H214751   2.549   1.961   1.365
 4936TIP3   OH214752   2.115   5.767   0.598
 4936TIP3    H114753   2.209   5.780   0.611
 4936TIP3    H214754   2.074   5.846   0.632
 4937TIP3   OH214755   0.084   4.452   3.858
 4937TIP3    H114756   0.095   4.526   3.917
 4937TIP3    H214757  -0.010   4.438   3.854
 4938TIP3   OH214758   6.370   2.905   6.124
 4938TIP3    H114759   6.326   2.835   6.076
 4938TIP3    H214760   6.463   2.881   6.122
 4939TIP3   OH214761   4.129   4.054   4.956
 4939TIP3    H114762   4.198   4.113   4.985
 4939TIP3    H214763   4.152   3.969   4.995
 4940TIP3   OH214764   0.681   0.452   5.266
 4940TIP3    H114765   0.656   0.434   5.175
 4940TIP3    H214766   0.678   0.548   5.273
 4941TIP3   OH214767   3.702   3.762   0.390
 4941TIP3    H114768   3.777   3.705   0.410
 4941TIP3    H214769   3.741   3.840   0.351
 4942TIP3   OH214770   1.905   3.017   6.317
 4942TIP3    H114771   1.910   2.925   6.344
 4942TIP3    H214772   1.813   3.039   6.325
 4943TIP3   OH214773   7.537   6.967   2.539
 4943TIP3    H114774   7.585   6.913   2.601
 4943TIP3    H214775   7.445   6.949   2.557
 4944TIP3   OH214776   6.888   6.258   0.557
 4944TIP3    H114777   6.861   6.303   0.637
 4944TIP3    H214778   6.818   6.195   0.541
 4945TIP3   OH214779   6.901   4.237   6.307
 4945TIP3    H114780   6.885   4.156   6.259
 4945TIP3    H214781   6.849   4.227   6.388
 4946TIP3   OH214782   7.286   1.551   4.612
 4946TIP3    H114783   7.207   1.501   4.631
 4946TIP3    H214784   7.355   1.486   4.602
 4947TIP3   OH214785   6.713   3.250   5.103
 4947TIP3    H114786   6.749   3.250   5.014
 4947TIP3    H214787   6.790   3.258   5.160
 4948TIP3   OH214788   4.351   6.834   0.912
 4948TIP3    H114789   4.332   6.841   0.818
 4948TIP3    H214790   4.447   6.827   0.916
 4949TIP3   OH214791   3.931   5.707   6.080
 4949TIP3    H114792   3.891   5.765   6.145
 4949TIP3    H214793   4.026   5.722   6.089
 4950TIP3   OH214794   1.529   6.893   4.230
 4950TIP3    H114795   1.614   6.861   4.201
 4950TIP3    H214796   1.521   6.980   4.191
 4951TIP3   OH214797   5.444   2.160   1.701
 4951TIP3    H114798   5.477   2.107   1.630
 4951TIP3    H214799   5.492   2.130   1.778
 4952TIP3   OH214800   4.113   4.638   1.613
 4952TIP3    H114801   4.060   4.704   1.568
 4952TIP3    H214802   4.050   4.587   1.664
 4953TIP3   OH214803   4.775   7.298   6.473
 4953TIP3    H114804   4.839   7.229   6.455
 4953TIP3    H214805   4.826   7.379   6.473
 4954TIP3   OH214806   0.874   2.200   3.210
 4954TIP3    H114807   0.871   2.231   3.300
 4954TIP3    H214808   0.898   2.277   3.159
 4955TIP3   OH214809   3.831   1.316   2.212
 4955TIP3    H114810   3.761   1.327   2.148
 4955TIP3    H214811   3.894   1.386   2.192
 4956TIP3   OH214812   4.039   1.929   0.558
 4956TIP3    H114813   4.036   1.911   0.652
 4956TIP3    H214814   3.962   1.884   0.523
 4957TIP3   OH214815   5.117   5.394   1.810
 4957TIP3    H114816   5.070   5.449   1.873
 4957TIP3    H214817   5.049   5.365   1.749
 4958TIP3   OH214818   5.289   0.953   1.204
 4958TIP3    H114819   5.289   0.863   1.171
 4958TIP3    H214820   5.294   0.944   1.299
 4959TIP3   OH214821   7.947   0.674   6.607
 4959TIP3    H114822   8.013   0.646   6.543
 4959TIP3    H214823   7.872   0.617   6.590
 4960TIP3   OH214824   6.756   5.657   5.782
 4960TIP3    H114825   6.773   5.564   5.766
 4960TIP3    H214826   6.666   5.660   5.813
 4961TIP3   OH214827   5.041   2.443   1.046
 4961TIP3    H114828   5.039   2.385   0.970
 4961TIP3    H214829   5.120   2.417   1.094
 4962TIP3   OH214830   4.163   3.712   5.765
 4962TIP3    H114831   4.258   3.703   5.758
 4962TIP3    H214832   4.143   3.695   5.857
 4963TIP3   OH214833   7.839   3.981   5.153
 4963TIP3    H114834   7.801   4.051   5.205
 4963TIP3    H214835   7.930   4.005   5.141
 4964TIP3   OH214836   2.155   7.090   0.623
 4964TIP3    H114837   2.233   7.136   0.592
 4964TIP3    H214838   2.123   7.043   0.546
 4965TIP3   OH214839   5.974   3.248   3.977
 4965TIP3    H114840   6.040   3.201   3.926
 4965TIP3    H214841   6.023   3.314   4.026
 4966TIP3   OH214842   5.021   2.196   2.702
 4966TIP3    H114843   4.979   2.143   2.635
 4966TIP3    H214844   5.017   2.142   2.782
 4967TIP3   OH214845   2.577   7.717   3.683
 4967TIP3    H114846   2.633   7.645   3.656
 4967TIP3    H214847   2.488   7.687   3.664
 4968TIP3   OH214848   2.000   3.067   2.259
 4968TIP3    H114849   1.931   3.067   2.193
 4968TIP3    H214850   2.016   3.159   2.277
 4969TIP3   OH214851   2.254   0.351   3.312
 4969TIP3    H114852   2.335   0.312   3.345
 4969TIP3    H214853   2.277   0.385   3.226
 4970TIP3   OH214854   1.790   0.395   1.340
 4970TIP3    H114855   1.796   0.354   1.426
 4970TIP3    H214856   1.860   0.353   1.289
 4971TIP3   OH214857   7.078   5.134   5.904
 4971TIP3    H114858   7.109   5.224   5.917
 4971TIP3    H214859   7.156   5.085   5.880
 4972TIP3   OH214860   2.770   6.596   3.078
 4972TIP3    H114861   2.854   6.595   3.124
 4972TIP3    H214862   2.704   6.598   3.148
 4973TIP3   OH214863   7.135   4.918   6.613
 4973TIP3    H114864   7.116   4.874   6.531
 4973TIP3    H214865   7.054   4.910   6.664
 4974TIP3   OH214866   4.468   6.533   4.637
 4974TIP3    H114867   4.551   6.557   4.595
 4974TIP3    H214868   4.459   6.595   4.709
 4975TIP3   OH214869   2.610   5.196   6.692
 4975TIP3    H114870   2.606   5.138   6.616
 4975TIP3    H214871   2.561   5.274   6.665
 4976TIP3   OH214872   4.721   2.600   3.358
 4976TIP3    H114873   4.650   2.656   3.326
 4976TIP3    H214874   4.704   2.590   3.451
 4977TIP3   OH214875   2.411   6.168   6.307
 4977TIP3    H114876   2.462   6.140   6.383
 4977TIP3    H214877   2.345   6.099   6.295
 4978TIP3   OH214878   6.535   3.926   2.812
 4978TIP3    H114879   6.627   3.926   2.787
 4978TIP3    H214880   6.507   4.017   2.804
 4979TIP3   OH214881   6.985   6.134   0.257
 4979TIP3    H114882   6.930   6.176   0.323
 4979TIP3    H214883   6.965   6.180   0.176
 4980TIP3   OH214884   1.565   3.710   6.726
 4980TIP3    H114885   1.607   3.685   6.643
 4980TIP3    H214886   1.478   3.741   6.700
 4981TIP3   OH214887   5.094   5.685   6.395
 4981TIP3    H114888   5.172   5.738   6.379
 4981TIP3    H214889   5.028   5.748   6.424
 4982TIP3   OH214890   7.973   2.981   0.528
 4982TIP3    H114891   8.015   2.897   0.509
 4982TIP3    H214892   7.939   2.971   0.617
 4983TIP3   OH214893   7.839   5.288   5.544
 4983TIP3    H114894   7.771   5.316   5.483
 4983TIP3    H214895   7.808   5.204   5.577
 4984TIP3   OH214896   1.008   6.639   0.197
 4984TIP3    H114897   1.058   6.719   0.215
 4984TIP3    H214898   1.041   6.607   0.114
 4985TIP3   OH214899   0.225   5.759   4.268
 4985TIP3    H114900   0.137   5.722   4.257
 4985TIP3    H214901   0.212   5.833   4.327
 4986TIP3   OH214902   0.066   6.654   4.383
 4986TIP3    H114903   0.068   6.716   4.455
 4986TIP3    H214904   0.140   6.596   4.398
 4987TIP3   OH214905   6.444   1.117   6.302
 4987TIP3    H114906   6.415   1.167   6.378
 4987TIP3    H214907   6.509   1.174   6.260
 4988TIP3   OH214908   8.054   2.390   0.131
 4988TIP3    H114909   8.129   2.351   0.086
 4988TIP3    H214910   7.978   2.359   0.081
 4989TIP3   OH214911   0.785   4.012   0.520
 4989TIP3    H114912   0.762   3.932   0.567
 4989TIP3    H214913   0.842   3.983   0.449
 4990TIP3   OH214914   0.845   4.080   5.709
 4990TIP3    H114915   0.752   4.066   5.732
 4990TIP3    H214916   0.843   4.136   5.632
 4991TIP3   OH214917   0.113   7.284   4.509
 4991TIP3    H114918   0.187   7.224   4.497
 4991TIP3    H214919   0.105   7.295   4.604
 4992TIP3   OH214920   5.323   6.228   3.233
 4992TIP3    H114921   5.367   6.250   3.316
 4992TIP3    H214922   5.386   6.254   3.166
 4993TIP3   OH214923   5.509   2.747   5.903
 4993TIP3    H114924   5.551   2.707   5.979
 4993TIP3    H214925   5.427   2.784   5.938
 4994TIP3   OH214926   1.473   1.533   5.961
 4994TIP3    H114927   1.481   1.623   5.992
 4994TIP3    H214928   1.494   1.479   6.037
 4995TIP3   OH214929   0.933   1.893   5.006
 4995TIP3    H114930   0.881   1.852   5.075
 4995TIP3    H214931   1.018   1.911   5.047
 4996TIP3   OH214932   5.113   1.249   3.842
 4996TIP3    H114933   5.174   1.286   3.906
 4996TIP3    H214934   5.083   1.324   3.791
 4997TIP3   OH214935   0.408   7.522   4.708
 4997TIP3    H114936   0.461   7.593   4.744
 4997TIP3    H214937   0.382   7.470   4.784
 4998TIP3   OH214938   3.730   2.709   0.975
 4998TIP3    H114939   3.710   2.639   0.913
 4998TIP3    H214940   3.644   2.748   0.996
 4999TIP3   OH214941   4.576   5.356   3.163
 4999TIP3    H114942   4.561   5.283   3.222
 4999TIP3    H214943   4.520   5.426   3.196
 5000TIP3   OH214944   5.101   0.882   6.068
 5000TIP3    H114945   5.066   0.797   6.094
 5000TIP3    H214946   5.109   0.877   5.973
 5001TIP3   OH214947   7.490   0.955   0.622
 5001TIP3    H114948   7.504   1.049   0.638
 5001TIP3    H214949   7.576   0.915   0.635
 5002TIP3   OH214950   8.114   0.623   1.082
 5002TIP3    H114951   8.122   0.608   1.176
 5002TIP3    H214952   8.196   0.589   1.046
 5003TIP3   OH214953   7.928   0.726   2.480
 5003TIP3    H114954   7.868   0.789   2.522
 5003TIP3    H214955   7.985   0.781   2.427
 5004TIP3   OH214956   2.553   4.597   4.941
 5004TIP3    H114957   2.465   4.634   4.932
 5004TIP3    H214958   2.612   4.672   4.931
 5005TIP3   OH214959   4.744   3.346   6.583
 5005TIP3    H114960   4.688   3.423   6.568
 5005TIP3    H214961   4.806   3.346   6.511
 5006TIP3   OH214962   2.498   0.570   1.718
 5006TIP3    H114963   2.448   0.529   1.647
 5006TIP3    H214964   2.454   0.653   1.733
 5007TIP3   OH214965   1.659   4.541   6.148
 5007TIP3    H114966   1.636   4.543   6.241
 5007TIP3    H214967   1.707   4.459   6.138
 5008TIP3   OH214968   5.343   0.827   6.291
 5008TIP3    H114969   5.373   0.780   6.369
 5008TIP3    H214970   5.304   0.759   6.235
 5009TIP3   OH214971   3.488   4.221   2.340
 5009TIP3    H114972   3.432   4.294   2.368
 5009TIP3    H214973   3.519   4.182   2.422
 5010TIP3   OH214974   2.332   4.932   6.622
 5010TIP3    H114975   2.316   4.837   6.621
 5010TIP3    H214976   2.416   4.943   6.579
 5011TIP3   OH214977   5.136   2.705   5.688
 5011TIP3    H114978   5.194   2.681   5.617
 5011TIP3    H214979   5.129   2.800   5.683
 5012TIP3   OH214980   5.914   0.678   1.016
 5012TIP3    H114981   5.825   0.686   1.049
 5012TIP3    H214982   5.954   0.763   1.034
 5013TIP3   OH214983   4.247   2.464   2.239
 5013TIP3    H114984   4.342   2.461   2.243
 5013TIP3    H214985   4.226   2.443   2.148
 5014TIP3   OH214986   2.094   6.090   3.967
 5014TIP3    H114987   2.071   6.131   4.050
 5014TIP3    H214988   2.103   6.163   3.906
 5015TIP3   OH214989   3.194   6.197   5.177
 5015TIP3    H114990   3.275   6.148   5.192
 5015TIP3    H214991   3.211   6.283   5.216
 5016TIP3   OH214992   1.681   0.904   5.316
 5016TIP3    H114993   1.591   0.928   5.296
 5016TIP3    H214994   1.702   0.952   5.396
 5017TIP3   OH214995   5.185   6.892   1.384
 5017TIP3    H114996   5.171   6.799   1.366
 5017TIP3    H214997   5.279   6.900   1.399
 5018TIP3   OH214998   8.051   3.236   5.168
 5018TIP3    H114999   8.016   3.159   5.214
 5018TIP3    H215000   8.079   3.295   5.238
 5019TIP3   OH215001   7.194   1.495   1.620
 5019TIP3    H115002   7.277   1.517   1.662
 5019TIP3    H215003   7.135   1.475   1.693
 5020TIP3   OH215004   7.185   2.672   5.828
 5020TIP3    H115005   7.253   2.717   5.878
 5020TIP3    H215006   7.185   2.583   5.863
 5021TIP3   OH215007   7.277   3.857   0.855
 5021TIP3    H115008   7.218   3.924   0.823
 5021TIP3    H215009   7.231   3.774   0.841
 5022TIP3   OH215010   6.777   1.587   6.142
 5022TIP3    H115011   6.693   1.542   6.138
 5022TIP3    H215012   6.837   1.521   6.176
 5023TIP3   OH215013   2.767   2.795   5.169
 5023TIP3    H115014   2.681   2.762   5.142
 5023TIP3    H215015   2.790   2.743   5.246
 5024TIP3   OH215016   6.382   2.430   3.166
 5024TIP3    H115017   6.399   2.337   3.149
 5024TIP3    H215018   6.435   2.450   3.243
 5025TIP3   OH215019   2.751   1.338   2.266
 5025TIP3    H115020   2.682   1.272   2.257
 5025TIP3    H215021   2.729   1.386   2.346
 5026TIP3   OH215022   7.025   3.011   3.465
 5026TIP3    H115023   7.112   3.018   3.504
 5026TIP3    H215024   7.023   2.923   3.427
 5027TIP3   OH215025   1.693   4.072   3.364
 5027TIP3    H115026   1.716   4.087   3.455
 5027TIP3    H215027   1.758   4.120   3.314
 5028TIP3   OH215028   3.185   6.483   6.342
 5028TIP3    H115029   3.136   6.419   6.393
 5028TIP3    H215030   3.211   6.436   6.263
 5029TIP3   OH215031   1.240   5.535   0.627
 5029TIP3    H115032   1.151   5.508   0.604
 5029TIP3    H215033   1.296   5.480   0.573
 5030TIP3   OH215034   7.198   7.433   5.468
 5030TIP3    H115035   7.198   7.396   5.557
 5030TIP3    H215036   7.106   7.431   5.441
 5031TIP3   OH215037   4.262   3.194   3.805
 5031TIP3    H115038   4.188   3.170   3.861
 5031TIP3    H215039   4.317   3.249   3.861
 5032TIP3   OH215040   6.120   1.717   5.569
 5032TIP3    H115041   6.102   1.788   5.508
 5032TIP3    H215042   6.138   1.762   5.652
 5033TIP3   OH215043   3.036   6.574   3.167
 5033TIP3    H115044   3.078   6.554   3.250
 5033TIP3    H215045   3.060   6.501   3.110
 5034TIP3   OH215046   7.837   7.210   3.433
 5034TIP3    H115047   7.862   7.248   3.517
 5034TIP3    H215048   7.798   7.283   3.385
 5035TIP3   OH215049   8.252   6.229   3.494
 5035TIP3    H115050   8.217   6.185   3.571
 5035TIP3    H215051   8.296   6.307   3.529
 5036TIP3   OH215052   0.601   1.990   4.107
 5036TIP3    H115053   0.511   1.993   4.076
 5036TIP3    H215054   0.597   1.937   4.186
 5037TIP3   OH215055   4.532   4.843   3.030
 5037TIP3    H115056   4.473   4.820   2.958
 5037TIP3    H215057   4.483   4.820   3.109
 5038TIP3   OH215058   0.230   5.536   6.241
 5038TIP3    H115059   0.268   5.458   6.282
 5038TIP3    H215060   0.305   5.585   6.208
 5039TIP3   OH215061   2.059   4.257   1.687
 5039TIP3    H115062   2.059   4.199   1.611
 5039TIP3    H215063   2.151   4.278   1.702
 5040TIP3   OH215064   1.168   4.657   6.053
 5040TIP3    H115065   1.190   4.725   5.990
 5040TIP3    H215066   1.216   4.580   6.023
 5041TIP3   OH215067   8.002   0.885   4.181
 5041TIP3    H115068   7.975   0.890   4.090
 5041TIP3    H215069   8.031   0.795   4.193
 5042TIP3   OH215070   5.012   1.757   5.193
 5042TIP3    H115071   5.058   1.697   5.134
 5042TIP3    H215072   5.062   1.838   5.188
 5043TIP3   OH215073   5.008   7.016   0.478
 5043TIP3    H115074   4.988   7.029   0.385
 5043TIP3    H215075   4.983   6.926   0.496
 5044TIP3   OH215076   0.738   2.534   5.740
 5044TIP3    H115077   0.798   2.524   5.813
 5044TIP3    H215078   0.651   2.535   5.780
 5045TIP3   OH215079   5.452   6.545   4.357
 5045TIP3    H115080   5.431   6.550   4.450
 5045TIP3    H215081   5.457   6.452   4.338
 5046TIP3   OH215082   2.394   0.877   0.063
 5046TIP3    H115083   2.359   0.966   0.053
 5046TIP3    H215084   2.321   0.827   0.100
 5047TIP3   OH215085   6.602   1.774   6.288
 5047TIP3    H115086   6.666   1.747   6.222
 5047TIP3    H215087   6.628   1.726   6.367
 5048TIP3   OH215088   1.777   4.152   3.617
 5048TIP3    H115089   1.870   4.133   3.627
 5048TIP3    H215090   1.767   4.243   3.646
 5049TIP3   OH215091   5.244   2.748   5.292
 5049TIP3    H115092   5.264   2.655   5.306
 5049TIP3    H215093   5.154   2.749   5.260
 5050TIP3   OH215094   3.660   5.307   5.441
 5050TIP3    H115095   3.691   5.383   5.490
 5050TIP3    H215096   3.585   5.275   5.490
 5051TIP3   OH215097   4.827   4.906   2.612
 5051TIP3    H115098   4.849   4.955   2.533
 5051TIP3    H215099   4.911   4.882   2.650
 5052TIP3   OH215100   7.308   4.522   6.309
 5052TIP3    H115101   7.241   4.485   6.367
 5052TIP3    H215102   7.387   4.525   6.363
 5053TIP3   OH215103   2.167   4.075   6.295
 5053TIP3    H115104   2.086   4.119   6.268
 5053TIP3    H215105   2.236   4.120   6.245
 5054TIP3   OH215106   3.110   7.168   0.713
 5054TIP3    H115107   3.050   7.098   0.689
 5054TIP3    H215108   3.174   7.171   0.642
 5055TIP3   OH215109   6.416   3.626   2.521
 5055TIP3    H115110   6.415   3.624   2.617
 5055TIP3    H215111   6.497   3.673   2.499
 5056TIP3   OH215112   7.146   1.714   2.853
 5056TIP3    H115113   7.110   1.730   2.940
 5056TIP3    H215114   7.232   1.677   2.869
 5057TIP3   OH215115   4.587   4.901   0.059
 5057TIP3    H115116   4.599   4.980   0.112
 5057TIP3    H215117   4.573   4.831   0.122
 5058TIP3   OH215118   5.749   2.434   4.221
 5058TIP3    H115119   5.744   2.408   4.129
 5058TIP3    H215120   5.820   2.382   4.258
 5059TIP3   OH215121   6.146   2.682   0.210
 5059TIP3    H115122   6.106   2.690   0.123
 5059TIP3    H215123   6.129   2.591   0.235
 5060TIP3   OH215124   7.196   1.794   4.464
 5060TIP3    H115125   7.264   1.856   4.487
 5060TIP3    H215126   7.205   1.724   4.528
 5061TIP3   OH215127   2.154   0.810   0.176
 5061TIP3    H115128   2.129   0.805   0.268
 5061TIP3    H215129   2.087   0.758   0.131
 5062TIP3   OH215130   4.370   6.443   5.478
 5062TIP3    H115131   4.436   6.401   5.422
 5062TIP3    H215132   4.290   6.392   5.462
 5063TIP3   OH215133   6.267   7.158   1.597
 5063TIP3    H115134   6.350   7.113   1.610
 5063TIP3    H215135   6.289   7.251   1.596
 5064TIP3   OH215136   1.244   1.712   5.766
 5064TIP3    H115137   1.258   1.618   5.783
 5064TIP3    H215138   1.289   1.728   5.683
 5065TIP3   OH215139   0.792   3.027   6.577
 5065TIP3    H115140   0.788   2.941   6.620
 5065TIP3    H215141   0.731   3.081   6.628
 5066TIP3   OH215142   7.469   5.594   3.433
 5066TIP3    H115143   7.461   5.499   3.435
 5066TIP3    H215144   7.434   5.620   3.348
 5067TIP3   OH215145   3.026   2.498   6.442
 5067TIP3    H115146   3.091   2.488   6.373
 5067TIP3    H215147   3.011   2.592   6.448
 5068TIP3   OH215148   0.329   0.212   4.710
 5068TIP3    H115149   0.363   0.174   4.791
 5068TIP3    H215150   0.406   0.248   4.666
 5069TIP3   OH215151   8.070   0.589   5.940
 5069TIP3    H115152   7.981   0.565   5.966
 5069TIP3    H215153   8.112   0.616   6.021
 5070TIP3   OH215154   6.786   5.595   2.405
 5070TIP3    H115155   6.803   5.689   2.405
 5070TIP3    H215156   6.789   5.570   2.312
 5071TIP3   OH215157   7.148   2.143   5.032
 5071TIP3    H115158   7.222   2.106   4.984
 5071TIP3    H215159   7.168   2.236   5.038
 5072TIP3   OH215160   6.019   4.530   0.366
 5072TIP3    H115161   6.057   4.443   0.352
 5072TIP3    H215162   6.079   4.574   0.426
 5073TIP3   OH215163   2.988   3.359   0.430
 5073TIP3    H115164   2.898   3.370   0.399
 5073TIP3    H215165   3.014   3.446   0.459
 5074TIP3   OH215166   1.685   1.154   3.174
 5074TIP3    H115167   1.741   1.211   3.122
 5074TIP3    H215168   1.693   1.188   3.263
 5075TIP3   OH215169   3.599   4.381   4.932
 5075TIP3    H115170   3.614   4.343   5.018
 5075TIP3    H215171   3.553   4.464   4.949
 5076TIP3   OH215172   6.130   3.936   0.226
 5076TIP3    H115173   6.171   3.976   0.303
 5076TIP3    H215174   6.050   3.988   0.212
 5077TIP3   OH215175   3.789   0.888   0.464
 5077TIP3    H115176   3.729   0.942   0.516
 5077TIP3    H215177   3.742   0.873   0.382
 5078TIP3   OH215178   3.095   0.773   4.101
 5078TIP3    H115179   3.144   0.841   4.149
 5078TIP3    H215180   3.030   0.821   4.051
 5079TIP3   OH215181   2.706   0.376   2.695
 5079TIP3    H115182   2.759   0.400   2.771
 5079TIP3    H215183   2.639   0.317   2.731
 5080TIP3   OH215184   1.473   5.124   5.119
 5080TIP3    H115185   1.484   5.071   5.198
 5080TIP3    H215186   1.447   5.061   5.052
 5081TIP3   OH215187   6.276   7.391   5.965
 5081TIP3    H115188   6.286   7.485   5.978
 5081TIP3    H215189   6.189   7.381   5.925
 5082TIP3   OH215190   3.483   7.329   6.244
 5082TIP3    H115191   3.409   7.387   6.228
 5082TIP3    H215192   3.507   7.296   6.158
 5083TIP3   OH215193   5.242   5.224   4.900
 5083TIP3    H115194   5.334   5.235   4.874
 5083TIP3    H215195   5.196   5.296   4.857
 5084TIP3   OH215196   5.454   4.050   3.868
 5084TIP3    H115197   5.544   4.058   3.835
 5084TIP3    H215198   5.456   4.094   3.953
 5085TIP3   OH215199   8.279   6.949   1.190
 5085TIP3    H115200   8.257   6.928   1.280
 5085TIP3    H215201   8.208   7.006   1.160
 5086TIP3   OH215202   2.879   2.808   0.299
 5086TIP3    H115203   2.966   2.802   0.337
 5086TIP3    H215204   2.848   2.895   0.322
 5087TIP3   OH215205   7.611   6.059   6.227
 5087TIP3    H115206   7.560   6.013   6.161
 5087TIP3    H215207   7.702   6.033   6.210
 5088TIP3   OH215208   4.399   1.377   2.893
 5088TIP3    H115209   4.403   1.381   2.989
 5088TIP3    H215210   4.443   1.457   2.864
 5089TIP3   OH215211   5.214   6.559   1.007
 5089TIP3    H115212   5.205   6.466   0.988
 5089TIP3    H215213   5.298   6.583   0.967
 5090TIP3   OH215214   8.090   7.266   0.034
 5090TIP3    H115215   8.093   7.170   0.033
 5090TIP3    H215216   8.000   7.287   0.056
 5091TIP3   OH215217   5.350   0.677   1.138
 5091TIP3    H115218   5.369   0.625   1.216
 5091TIP3    H215219   5.360   0.615   1.065
 5092TIP3   OH215220   4.295   2.528   0.684
 5092TIP3    H115221   4.269   2.612   0.721
 5092TIP3    H215222   4.390   2.525   0.694
 5093TIP3   OH215223   0.398   3.777   0.569
 5093TIP3    H115224   0.446   3.826   0.636
 5093TIP3    H215225   0.414   3.685   0.590
 5094TIP3   OH215226   0.880   3.753   1.389
 5094TIP3    H115227   0.786   3.744   1.373
 5094TIP3    H215228   0.921   3.688   1.331
 5095TIP3   OH215229   4.924   0.837   0.390
 5095TIP3    H115230   4.864   0.912   0.393
 5095TIP3    H215231   4.886   0.774   0.451
 5096TIP3   OH215232   8.097   7.762   2.099
 5096TIP3    H115233   8.173   7.719   2.061
 5096TIP3    H215234   8.027   7.748   2.035
 5097TIP3   OH215235   3.431   7.011   6.712
 5097TIP3    H115236   3.450   6.999   6.619
 5097TIP3    H215237   3.373   7.087   6.715
 5098TIP3   OH215238   5.022   6.819   6.329
 5098TIP3    H115239   4.950   6.778   6.282
 5098TIP3    H215240   5.021   6.778   6.416
 5099TIP3   OH215241   7.931   2.693   3.751
 5099TIP3    H115242   7.895   2.764   3.699
 5099TIP3    H215243   8.025   2.712   3.757
 5100TIP3   OH215244   3.948   7.313   6.710
 5100TIP3    H115245   3.932   7.252   6.639
 5100TIP3    H215246   3.925   7.264   6.789
 5101TIP3   OH215247   2.572   5.597   4.196
 5101TIP3    H115248   2.584   5.502   4.201
 5101TIP3    H215249   2.615   5.623   4.114
 5102TIP3   OH215250   2.620   3.626   4.127
 5102TIP3    H115251   2.542   3.581   4.160
 5102TIP3    H215252   2.676   3.555   4.094
 5103TIP3   OH215253   5.000   2.214   5.387
 5103TIP3    H115254   4.964   2.301   5.403
 5103TIP3    H215255   4.927   2.154   5.404
 5104TIP3   OH215256   5.900   6.251   4.956
 5104TIP3    H115257   5.823   6.209   4.918
 5104TIP3    H215258   5.877   6.265   5.047
 5105TIP3   OH215259   5.310   6.839   0.296
 5105TIP3    H115260   5.331   6.749   0.269
 5105TIP3    H215261   5.240   6.829   0.360
 5106TIP3   OH215262   3.002   4.070   1.485
 5106TIP3    H115263   3.075   4.117   1.526
 5106TIP3    H215264   3.043   4.014   1.420
 5107TIP3   OH215265   0.054   4.088   1.347
 5107TIP3    H115266  -0.018   4.029   1.324
 5107TIP3    H215267   0.074   4.067   1.438
 5108TIP3   OH215268   3.050   5.233   1.535
 5108TIP3    H115269   3.051   5.263   1.444
 5108TIP3    H215270   3.025   5.310   1.585
 5109TIP3   OH215271   4.336   3.779   5.267
 5109TIP3    H115272   4.420   3.733   5.270
 5109TIP3    H215273   4.320   3.792   5.174
 5110TIP3   OH215274   6.603   3.365   2.588
 5110TIP3    H115275   6.580   3.361   2.495
 5110TIP3    H215276   6.521   3.390   2.632
 5111TIP3   OH215277   1.704   6.899   2.503
 5111TIP3    H115278   1.637   6.860   2.559
 5111TIP3    H215279   1.786   6.861   2.533
 5112TIP3   OH215280   7.201   0.717   6.097
 5112TIP3    H115281   7.265   0.765   6.044
 5112TIP3    H215282   7.254   0.666   6.158
 5113TIP3   OH215283   7.947   3.123   3.092
 5113TIP3    H115284   8.000   3.070   3.032
 5113TIP3    H215285   8.012   3.168   3.147
 5114TIP3   OH215286   1.373   0.694   1.152
 5114TIP3    H115287   1.277   0.693   1.152
 5114TIP3    H215288   1.396   0.732   1.236
 5115TIP3   OH215289   7.904   1.856   3.145
 5115TIP3    H115290   7.835   1.800   3.181
 5115TIP3    H215291   7.939   1.902   3.221
 5116TIP3   OH215292   3.187   1.351   4.269
 5116TIP3    H115293   3.274   1.390   4.283
 5116TIP3    H215294   3.202   1.281   4.205
 5117TIP3   OH215295   1.030   1.105   0.889
 5117TIP3    H115296   1.089   1.148   0.951
 5117TIP3    H215297   0.946   1.101   0.935
 5118TIP3   OH215298   7.602   4.573   0.825
 5118TIP3    H115299   7.564   4.614   0.903
 5118TIP3    H215300   7.575   4.481   0.830
 5119TIP3   OH215301   1.777   3.717   4.370
 5119TIP3    H115302   1.750   3.630   4.402
 5119TIP3    H215303   1.695   3.766   4.363
 5120TIP3   OH215304   1.172   0.329   6.214
 5120TIP3    H115305   1.176   0.282   6.131
 5120TIP3    H215306   1.080   0.356   6.221
 5121TIP3   OH215307   4.208   7.184   2.923
 5121TIP3    H115308   4.280   7.229   2.967
 5121TIP3    H215309   4.242   7.167   2.835
 5122TIP3   OH215310   5.506   6.203   3.010
 5122TIP3    H115311   5.521   6.249   2.928
 5122TIP3    H215312   5.592   6.168   3.033
 5123TIP3   OH215313   6.199   0.232   5.147
 5123TIP3    H115314   6.272   0.260   5.093
 5123TIP3    H215315   6.126   0.289   5.123
 5124TIP3   OH215316   6.278   1.258   3.005
 5124TIP3    H115317   6.337   1.333   2.997
 5124TIP3    H215318   6.219   1.266   2.931
 5125TIP3   OH215319   3.901   2.852   0.472
 5125TIP3    H115320   3.828   2.858   0.533
 5125TIP3    H215321   3.861   2.830   0.388
 5126TIP3   OH215322   3.975   0.241   2.605
 5126TIP3    H115323   4.049   0.225   2.664
 5126TIP3    H215324   3.912   0.290   2.658
 5127TIP3   OH215325   3.544   0.669   0.396
 5127TIP3    H115326   3.551   0.729   0.322
 5127TIP3    H215327   3.453   0.638   0.393
 5128TIP3   OH215328   7.303   7.492   4.812
 5128TIP3    H115329   7.233   7.486   4.877
 5128TIP3    H215330   7.309   7.405   4.774
 5129TIP3   OH215331   4.243   2.085   3.536
 5129TIP3    H115332   4.175   2.123   3.593
 5129TIP3    H215333   4.200   2.011   3.494
 5130TIP3   OH215334   0.758   5.456   5.328
 5130TIP3    H115335   0.727   5.512   5.399
 5130TIP3    H215336   0.796   5.380   5.373
 5131TIP3   OH215337   5.137   1.047   4.546
 5131TIP3    H115338   5.232   1.052   4.532
 5131TIP3    H215339   5.102   1.027   4.459
 5132TIP3   OH215340   0.231   6.146   5.879
 5132TIP3    H115341   0.249   6.232   5.918
 5132TIP3    H215342   0.165   6.164   5.812
 5133TIP3   OH215343   6.412   5.157   5.869
 5133TIP3    H115344   6.445   5.105   5.796
 5133TIP3    H215345   6.487   5.165   5.928
 5134TIP3   OH215346   3.240   6.291   1.594
 5134TIP3    H115347   3.193   6.298   1.511
 5134TIP3    H215348   3.172   6.282   1.660
 5135TIP3   OH215349   5.091   3.006   3.715
 5135TIP3    H115350   5.036   3.079   3.685
 5135TIP3    H215351   5.059   2.930   3.666
 5136TIP3   OH215352   5.895   1.895   0.026
 5136TIP3    H115353   5.966   1.929  -0.029
 5136TIP3    H215354   5.884   1.961   0.094
 5137TIP3   OH215355   5.905   5.391   3.099
 5137TIP3    H115356   5.899   5.306   3.055
 5137TIP3    H215357   5.814   5.414   3.117
 5138TIP3   OH215358   5.279   3.649   3.265
 5138TIP3    H115359   5.245   3.560   3.278
 5138TIP3    H215360   5.266   3.665   3.171
 5139TIP3   OH215361   6.590   2.165   3.750
 5139TIP3    H115362   6.518   2.116   3.712
 5139TIP3    H215363   6.555   2.253   3.765
 5140TIP3   OH215364   3.294   6.167   5.502
 5140TIP3    H115365   3.312   6.260   5.516
 5140TIP3    H215366   3.209   6.153   5.546
 5141TIP3   OH215367   5.502   2.596   5.657
 5141TIP3    H115368   5.487   2.637   5.742
 5141TIP3    H215369   5.571   2.649   5.616
 5142TIP3   OH215370   7.265   6.113   5.659
 5142TIP3    H115371   7.335   6.068   5.705
 5142TIP3    H215372   7.186   6.063   5.679
 5143TIP3   OH215373   0.584   5.006   4.449
 5143TIP3    H115374   0.502   5.055   4.442
 5143TIP3    H215375   0.604   4.980   4.359
 5144TIP3   OH215376   2.611   6.572   1.498
 5144TIP3    H115377   2.615   6.505   1.429
 5144TIP3    H215378   2.702   6.589   1.520
 5145TIP3   OH215379   0.380   4.298   0.037
 5145TIP3    H115380   0.406   4.390   0.025
 5145TIP3    H215381   0.329   4.278  -0.041
 5146TIP3   OH215382   8.131   2.738   6.424
 5146TIP3    H115383   8.100   2.804   6.361
 5146TIP3    H215384   8.200   2.691   6.377
 5147TIP3   OH215385   1.411   2.503   4.641
 5147TIP3    H115386   1.419   2.449   4.720
 5147TIP3    H215387   1.409   2.593   4.673
 5148TIP3   OH215388   0.379   2.414   1.467
 5148TIP3    H115389   0.427   2.462   1.535
 5148TIP3    H215390   0.447   2.370   1.416
 5149TIP3   OH215391   2.575   7.490   0.023
 5149TIP3    H115392   2.625   7.570   0.006
 5149TIP3    H215393   2.617   7.451   0.099
 5150TIP3   OH215394   7.605   7.697   2.268
 5150TIP3    H115395   7.643   7.756   2.203
 5150TIP3    H215396   7.610   7.610   2.227
 5151TIP3   OH215397   8.046   2.887   2.108
 5151TIP3    H115398   8.052   2.799   2.145
 5151TIP3    H215399   7.957   2.915   2.126
 5152TIP3   OH215400   5.547   2.306   3.571
 5152TIP3    H115401   5.519   2.222   3.536
 5152TIP3    H215402   5.485   2.323   3.643
 5153TIP3   OH215403   1.835   6.094   3.698
 5153TIP3    H115404   1.796   6.065   3.615
 5153TIP3    H215405   1.761   6.128   3.749
 5154TIP3   OH215406   3.197   3.472   3.927
 5154TIP3    H115407   3.138   3.442   3.996
 5154TIP3    H215408   3.277   3.421   3.940
 5155TIP3   OH215409   5.598   1.831   2.715
 5155TIP3    H115410   5.627   1.889   2.645
 5155TIP3    H215411   5.662   1.844   2.785
 5156TIP3   OH215412   4.435   5.248   2.915
 5156TIP3    H115413   4.392   5.259   3.000
 5156TIP3    H215414   4.528   5.258   2.933
 5157TIP3   OH215415   0.943   0.445   6.120
 5157TIP3    H115416   0.949   0.391   6.041
 5157TIP3    H215417   0.852   0.475   6.122
 5158TIP3   OH215418   2.672   7.151   6.336
 5158TIP3    H115419   2.661   7.119   6.426
 5158TIP3    H215420   2.684   7.246   6.347
 5159TIP3   OH215421   1.646   4.516   1.482
 5159TIP3    H115422   1.713   4.585   1.484
 5159TIP3    H215423   1.636   4.491   1.574
 5160TIP3   OH215424   0.370   1.036   3.709
 5160TIP3    H115425   0.303   0.968   3.715
 5160TIP3    H215426   0.339   1.095   3.641
 5161TIP3   OH215427   1.487   5.595   1.165
 5161TIP3    H115428   1.542   5.532   1.118
 5161TIP3    H215429   1.404   5.549   1.178
 5162TIP3   OH215430   4.474   7.740   6.705
 5162TIP3    H115431   4.510   7.652   6.697
 5162TIP3    H215432   4.550   7.797   6.710
 5163TIP3   OH215433   1.427   4.651   0.529
 5163TIP3    H115434   1.508   4.627   0.574
 5163TIP3    H215435   1.445   4.635   0.436
 5164TIP3   OH215436   6.236   1.137   6.147
 5164TIP3    H115437   6.255   1.110   6.057
 5164TIP3    H215438   6.317   1.119   6.195
 5165TIP3   OH215439   1.219   1.351   6.636
 5165TIP3    H115440   1.251   1.329   6.548
 5165TIP3    H215441   1.295   1.390   6.680
 5166TIP3   OH215442   5.871   2.146   5.057
 5166TIP3    H115443   5.883   2.109   4.970
 5166TIP3    H215444   5.800   2.095   5.096
 5167TIP3   OH215445   7.999   1.337   3.821
 5167TIP3    H115446   8.006   1.382   3.737
 5167TIP3    H215447   7.918   1.371   3.859
 5168TIP3   OH215448   0.827   4.875   6.162
 5168TIP3    H115449   0.801   4.818   6.235
 5168TIP3    H215450   0.907   4.835   6.128
 5169TIP3   OH215451   7.297   4.138   2.551
 5169TIP3    H115452   7.275   4.055   2.595
 5169TIP3    H215453   7.304   4.115   2.458
 5170TIP3   OH215454   2.028   1.994   4.879
 5170TIP3    H115455   2.120   2.003   4.853
 5170TIP3    H215456   1.999   1.914   4.835
 5171TIP3   OH215457   1.480   5.691   5.851
 5171TIP3    H115458   1.477   5.618   5.914
 5171TIP3    H215459   1.503   5.767   5.904
 5172TIP3   OH215460   4.352   5.702   3.493
 5172TIP3    H115461   4.373   5.644   3.567
 5172TIP3    H215462   4.366   5.790   3.528
 5173TIP3   OH215463   5.018   4.547   5.804
 5173TIP3    H115464   5.094   4.492   5.824
 5173TIP3    H215465   5.048   4.602   5.731
 5174TIP3   OH215466   1.744   2.336   1.536
 5174TIP3    H115467   1.794   2.415   1.516
 5174TIP3    H215468   1.678   2.330   1.467
 5175TIP3   OH215469   7.730   7.520   3.695
 5175TIP3    H115470   7.639   7.521   3.726
 5175TIP3    H215471   7.783   7.512   3.774
 5176TIP3   OH215472   4.205   4.757   1.269
 5176TIP3    H115473   4.207   4.760   1.174
 5176TIP3    H215474   4.186   4.666   1.291
 5177TIP3   OH215475   0.749   0.178   4.874
 5177TIP3    H115476   0.698   0.151   4.950
 5177TIP3    H215477   0.806   0.103   4.856
 5178TIP3   OH215478   0.587   1.975   5.427
 5178TIP3    H115479   0.542   1.895   5.458
 5178TIP3    H215480   0.677   1.964   5.456
 5179TIP3   OH215481   1.870   2.708   3.038
 5179TIP3    H115482   1.812   2.758   2.981
 5179TIP3    H215483   1.943   2.683   2.980
 5180TIP3   OH215484   7.470   5.907   2.254
 5180TIP3    H115485   7.387   5.948   2.232
 5180TIP3    H215486   7.462   5.817   2.224
 5181TIP3   OH215487   7.859   3.356   2.472
 5181TIP3    H115488   7.827   3.400   2.393
 5181TIP3    H215489   7.945   3.394   2.488
 5182TIP3   OH215490   1.914   1.650   6.683
 5182TIP3    H115491   1.968   1.644   6.604
 5182TIP3    H215492   1.922   1.564   6.724
 5183TIP3   OH215493   6.961   7.496  -0.004
 5183TIP3    H115494   6.964   7.561   0.066
 5183TIP3    H215495   6.886   7.521  -0.057
 5184TIP3   OH215496   1.914   0.039   0.346
 5184TIP3    H115497   1.845  -0.005   0.297
 5184TIP3    H215498   1.878   0.049   0.434
 5185TIP3   OH215499   3.242   1.496   1.797
 5185TIP3    H115500   3.198   1.463   1.875
 5185TIP3    H215501   3.223   1.590   1.796
 5186TIP3   OH215502   3.183   4.296   1.215
 5186TIP3    H115503   3.251   4.235   1.188
 5186TIP3    H215504   3.136   4.317   1.134
 5187TIP3   OH215505   3.110   7.523   1.523
 5187TIP3    H115506   3.149   7.608   1.545
 5187TIP3    H215507   3.022   7.528   1.562
 5188TIP3   OH215508   7.705   5.387   5.330
 5188TIP3    H115509   7.650   5.315   5.301
 5188TIP3    H215510   7.651   5.466   5.320
 5189TIP3   OH215511   6.609   0.967   1.174
 5189TIP3    H115512   6.632   1.034   1.238
 5189TIP3    H215513   6.645   0.886   1.210
 5190TIP3   OH215514   8.143   2.058   1.424
 5190TIP3    H115515   8.191   2.020   1.351
 5190TIP3    H215516   8.206   2.116   1.466
 5191TIP3   OH215517   3.042   6.103   1.202
 5191TIP3    H115518   2.952   6.134   1.197
 5191TIP3    H215519   3.037   6.021   1.251
 5192TIP3   OH215520   6.073   1.268   3.641
 5192TIP3    H115521   5.983   1.299   3.642
 5192TIP3    H215522   6.067   1.175   3.621
 5193TIP3   OH215523   4.236   3.482   4.509
 5193TIP3    H115524   4.164   3.423   4.530
 5193TIP3    H215525   4.195   3.557   4.468
 5194TIP3   OH215526   1.513   3.423   6.278
 5194TIP3    H115527   1.417   3.431   6.282
 5194TIP3    H215528   1.540   3.422   6.370
 5195TIP3   OH215529   5.927   3.819   1.482
 5195TIP3    H115530   5.862   3.862   1.426
 5195TIP3    H215531   6.009   3.865   1.463
 5196TIP3   OH215532   3.859   2.372   2.373
 5196TIP3    H115533   3.952   2.357   2.391
 5196TIP3    H215534   3.830   2.293   2.329
 5197TIP3   OH215535   0.141   1.893   4.980
 5197TIP3    H115536   0.106   1.897   4.891
 5197TIP3    H215537   0.165   1.983   5.001
 5198TIP3   OH215538   2.030   1.578   4.544
 5198TIP3    H115539   2.120   1.565   4.512
 5198TIP3    H215540   1.983   1.614   4.469
 5199TIP3   OH215541   3.919   5.376   5.879
 5199TIP3    H115542   4.014   5.383   5.885
 5199TIP3    H215543   3.898   5.290   5.916
 5200TIP3   OH215544   3.481   6.089   6.539
 5200TIP3    H115545   3.397   6.118   6.577
 5200TIP3    H215546   3.478   5.994   6.546
 5201TIP3   OH215547   5.940   7.049   4.198
 5201TIP3    H115548   5.981   7.124   4.154
 5201TIP3    H215549   5.914   7.083   4.284
 5202TIP3   OH215550   5.971   1.713   2.781
 5202TIP3    H115551   5.975   1.748   2.870
 5202TIP3    H215552   6.030   1.769   2.731
 5203TIP3   OH215553   1.788   0.107   3.285
 5203TIP3    H115554   1.826   0.166   3.350
 5203TIP3    H215555   1.840   0.122   3.206
 5204TIP3   OH215556   1.292   2.511   3.874
 5204TIP3    H115557   1.260   2.564   3.946
 5204TIP3    H215558   1.308   2.573   3.803
 5205TIP3   OH215559   5.401   1.242   2.475
 5205TIP3    H115560   5.445   1.298   2.411
 5205TIP3    H215561   5.458   1.165   2.481
 5206TIP3   OH215562   7.473   6.212   3.575
 5206TIP3    H115563   7.451   6.156   3.501
 5206TIP3    H215564   7.410   6.284   3.571
 5207TIP3   OH215565   0.213   1.547   5.492
 5207TIP3    H115566   0.273   1.478   5.520
 5207TIP3    H215567   0.214   1.610   5.565
 5208TIP3   OH215568   8.154   0.876   2.363
 5208TIP3    H115569   8.238   0.833   2.348
 5208TIP3    H215570   8.176   0.958   2.406
 5209TIP3   OH215571   5.335   6.035   2.380
 5209TIP3    H115572   5.305   6.117   2.343
 5209TIP3    H215573   5.299   5.967   2.323
 5210TIP3   OH215574   5.885   5.759   5.855
 5210TIP3    H115575   5.877   5.851   5.883
 5210TIP3    H215576   5.814   5.748   5.791
 5211TIP3   OH215577   6.061   7.065   3.537
 5211TIP3    H115578   6.124   7.130   3.567
 5211TIP3    H215579   6.113   6.996   3.497
 5212TIP3   OH215580   5.745   7.781   5.555
 5212TIP3    H115581   5.728   7.789   5.649
 5212TIP3    H215582   5.838   7.801   5.546
 5213TIP3   OH215583   4.522   4.342   2.663
 5213TIP3    H115584   4.614   4.316   2.652
 5213TIP3    H215585   4.472   4.272   2.621
 5214TIP3   OH215586   7.804   1.612   5.545
 5214TIP3    H115587   7.782   1.640   5.456
 5214TIP3    H215588   7.900   1.612   5.547
 5215TIP3   OH215589   4.490   3.511   0.983
 5215TIP3    H115590   4.540   3.593   0.986
 5215TIP3    H215591   4.431   3.516   1.058
 5216TIP3   OH215592   6.729   5.057   0.443
 5216TIP3    H115593   6.761   5.143   0.416
 5216TIP3    H215594   6.724   5.007   0.362
 5217TIP3   OH215595   0.893   5.999   0.811
 5217TIP3    H115596   0.892   5.906   0.788
 5217TIP3    H215597   0.929   6.043   0.734
 5218TIP3   OH215598   7.993   4.875   3.377
 5218TIP3    H115599   8.029   4.853   3.291
 5218TIP3    H215600   8.070   4.890   3.432
 5219TIP3   OH215601   6.622   0.130   2.691
 5219TIP3    H115602   6.555   0.180   2.645
 5219TIP3    H215603   6.654   0.067   2.626
 5220TIP3   OH215604   4.123   3.039   0.477
 5220TIP3    H115605   4.135   3.075   0.564
 5220TIP3    H215606   4.049   2.979   0.486
 5221TIP3   OH215607   6.898   1.849   0.123
 5221TIP3    H115608   6.969   1.913   0.118
 5221TIP3    H215609   6.937   1.768   0.091
 5222TIP3   OH215610   7.239   1.528   2.603
 5222TIP3    H115611   7.326   1.543   2.638
 5222TIP3    H215612   7.253   1.474   2.525
 5223TIP3   OH215613   1.124   5.116   4.863
 5223TIP3    H115614   1.094   5.184   4.924
 5223TIP3    H215615   1.198   5.075   4.907
 5224TIP3   OH215616   0.308   6.756   2.185
 5224TIP3    H115617   0.310   6.662   2.171
 5224TIP3    H215618   0.368   6.771   2.258
 5225TIP3   OH215619   5.884   7.433   3.299
 5225TIP3    H115620   5.854   7.490   3.228
 5225TIP3    H215621   5.877   7.487   3.377
 5226TIP3   OH215622   1.334   1.651   2.641
 5226TIP3    H115623   1.281   1.664   2.562
 5226TIP3    H215624   1.422   1.675   2.614
 5227TIP3   OH215625   4.499   6.132   4.182
 5227TIP3    H115626   4.424   6.175   4.141
 5227TIP3    H215627   4.493   6.041   4.151
 5228TIP3   OH215628   2.844   4.878   1.207
 5228TIP3    H115629   2.766   4.825   1.221
 5228TIP3    H215630   2.824   4.929   1.128
 5229TIP3   OH215631   2.920   7.405   3.715
 5229TIP3    H115632   2.880   7.320   3.735
 5229TIP3    H215633   3.014   7.390   3.723
 5230TIP3   OH215634   2.846   6.119   1.926
 5230TIP3    H115635   2.782   6.076   1.869
 5230TIP3    H215636   2.924   6.063   1.921
 5231TIP3   OH215637   4.880   1.237   1.964
 5231TIP3    H115638   4.880   1.151   1.922
 5231TIP3    H215639   4.966   1.274   1.942
 5232TIP3   OH215640   6.238   0.383   4.637
 5232TIP3    H115641   6.166   0.371   4.575
 5232TIP3    H215642   6.265   0.294   4.660
 5233TIP3   OH215643   5.856   2.566   1.045
 5233TIP3    H115644   5.846   2.634   0.978
 5233TIP3    H215645   5.882   2.488   0.996
 5234TIP3   OH215646   1.411   3.313   5.896
 5234TIP3    H115647   1.480   3.247   5.896
 5234TIP3    H215648   1.430   3.369   5.822
 5235TIP3   OH215649   1.615   1.482   4.636
 5235TIP3    H115650   1.522   1.479   4.655
 5235TIP3    H215651   1.654   1.420   4.698
 5236TIP3   OH215652   5.777   5.273   0.888
 5236TIP3    H115653   5.682   5.274   0.881
 5236TIP3    H215654   5.794   5.261   0.981
 5237TIP3   OH215655   1.728   1.268   6.123
 5237TIP3    H115656   1.731   1.197   6.188
 5237TIP3    H215657   1.731   1.348   6.175
 5238TIP3   OH215658   3.270   2.259   5.143
 5238TIP3    H115659   3.188   2.232   5.185
 5238TIP3    H215660   3.335   2.254   5.213
 5239TIP3   OH215661   8.039   5.388   6.613
 5239TIP3    H115662   7.949   5.356   6.616
 5239TIP3    H215663   8.051   5.417   6.522
 5240TIP3   OH215664   2.881   7.208   3.430
 5240TIP3    H115665   2.945   7.253   3.485
 5240TIP3    H215666   2.931   7.139   3.386
 5241TIP3   OH215667   2.993   4.809   3.586
 5241TIP3    H115668   2.901   4.825   3.564
 5241TIP3    H215669   3.006   4.859   3.667
 5242TIP3   OH215670   0.510   3.969   6.246
 5242TIP3    H115671   0.417   3.948   6.241
 5242TIP3    H215672   0.514   4.064   6.238
 5243TIP3   OH215673   4.082   1.521   0.249
 5243TIP3    H115674   4.073   1.610   0.216
 5243TIP3    H215675   3.993   1.485   0.242
 5244TIP3   OH215676   7.662   2.938   2.636
 5244TIP3    H115677   7.577   2.980   2.629
 5244TIP3    H215678   7.725   3.007   2.615
 5245TIP3   OH215679   4.563   7.374   1.431
 5245TIP3    H115680   4.609   7.438   1.377
 5245TIP3    H215681   4.471   7.402   1.427
 5246TIP3   OH215682   1.809   3.164   3.282
 5246TIP3    H115683   1.829   3.076   3.315
 5246TIP3    H215684   1.891   3.194   3.242
 5247TIP3   OH215685   0.050   4.457   6.033
 5247TIP3    H115686   0.023   4.479   5.944
 5247TIP3    H215687   0.033   4.363   6.041
 5248TIP3   OH215688   1.610   1.134   4.810
 5248TIP3    H115689   1.620   1.087   4.893
 5248TIP3    H215690   1.538   1.195   4.826
 5249TIP3   OH215691   6.638   4.427   0.698
 5249TIP3    H115692   6.620   4.342   0.658
 5249TIP3    H215693   6.642   4.408   0.792
 5250TIP3   OH215694   2.756   0.575   5.878
 5250TIP3    H115695   2.779   0.555   5.969
 5250TIP3    H215696   2.667   0.609   5.883
 5251TIP3   OH215697   5.095   5.066   4.039
 5251TIP3    H115698   5.088   5.161   4.048
 5251TIP3    H215699   5.081   5.032   4.127
 5252TIP3   OH215700   7.703   5.876   2.834
 5252TIP3    H115701   7.662   5.876   2.921
 5252TIP3    H215702   7.644   5.823   2.780
 5253TIP3   OH215703   0.523   1.770   2.456
 5253TIP3    H115704   0.494   1.725   2.535
 5253TIP3    H215705   0.566   1.849   2.487
 5254TIP3   OH215706   4.365   0.140   4.013
 5254TIP3    H115707   4.335   0.211   4.069
 5254TIP3    H215708   4.361   0.061   4.068
 5255TIP3   OH215709   6.794   3.137   3.218
 5255TIP3    H115710   6.752   3.221   3.197
 5255TIP3    H215711   6.802   3.093   3.133
 5256TIP3   OH215712   2.251   3.706   1.601
 5256TIP3    H115713   2.220   3.693   1.511
 5256TIP3    H215714   2.184   3.664   1.656
 5257TIP3   OH215715   6.692   2.388   0.130
 5257TIP3    H115716   6.634   2.409   0.056
 5257TIP3    H215717   6.638   2.399   0.207
 5258TIP3   OH215718   6.027   3.191   2.496
 5258TIP3    H115719   6.121   3.207   2.505
 5258TIP3    H215720   6.007   3.127   2.564
 5259TIP3   OH215721   7.477   2.876   1.141
 5259TIP3    H115722   7.445   2.826   1.067
 5259TIP3    H215723   7.409   2.942   1.158
 5260TIP3   OH215724   5.349   4.722   5.880
 5260TIP3    H115725   5.418   4.788   5.875
 5260TIP3    H215726   5.278   4.757   5.826
 5261TIP3   OH215727   4.799   6.631   1.226
 5261TIP3    H115728   4.756   6.545   1.222
 5261TIP3    H215729   4.808   6.649   1.319
 5262TIP3   OH215730   5.954   6.216   6.507
 5262TIP3    H115731   6.007   6.294   6.488
 5262TIP3    H215732   5.874   6.250   6.546
 5263TIP3   OH215733   2.251   5.364   0.037
 5263TIP3    H115734   2.171   5.342   0.086
 5263TIP3    H215735   2.275   5.284  -0.008
 5264TIP3   OH215736   8.009   7.707   6.103
 5264TIP3    H115737   8.001   7.699   6.198
 5264TIP3    H215738   8.004   7.801   6.086
 5265TIP3   OH215739   4.818   7.315   5.409
 5265TIP3    H115740   4.799   7.402   5.374
 5265TIP3    H215741   4.857   7.330   5.494
 5266TIP3   OH215742   0.200   6.394   0.047
 5266TIP3    H115743   0.138   6.461   0.075
 5266TIP3    H215744   0.179   6.317   0.101
 5267TIP3   OH215745   4.322   7.194   5.822
 5267TIP3    H115746   4.360   7.158   5.741
 5267TIP3    H215747   4.390   7.181   5.888
 5268TIP3   OH215748   7.632   5.524   5.070
 5268TIP3    H115749   7.684   5.572   5.005
 5268TIP3    H215750   7.542   5.530   5.038
 5269TIP3   OH215751   0.977   0.619   0.688
 5269TIP3    H115752   1.037   0.691   0.710
 5269TIP3    H215753   1.022   0.541   0.721
 5270TIP3   OH215754   0.172   1.356   0.601
 5270TIP3    H115755   0.225   1.280   0.626
 5270TIP3    H215756   0.090   1.319   0.569
 5271TIP3   OH215757   6.778   1.411   3.852
 5271TIP3    H115758   6.779   1.499   3.891
 5271TIP3    H215759   6.696   1.372   3.882
 5272TIP3   OH215760   7.674   4.163   2.927
 5272TIP3    H115761   7.747   4.104   2.946
 5272TIP3    H215762   7.608   4.141   2.994
 5273TIP3   OH215763   2.793   0.085   0.760
 5273TIP3    H115764   2.821   0.021   0.696
 5273TIP3    H215765   2.706   0.113   0.730
 5274TIP3   OH215766   6.322   4.966   1.801
 5274TIP3    H115767   6.387   4.965   1.731
 5274TIP3    H215768   6.277   4.882   1.793
 5275TIP3   OH215769   8.097   5.974   4.350
 5275TIP3    H115770   8.073   5.892   4.394
 5275TIP3    H215771   8.137   5.947   4.268
 5276TIP3   OH215772   3.413   6.398   0.706
 5276TIP3    H115773   3.349   6.390   0.776
 5276TIP3    H215774   3.481   6.454   0.743
 5277TIP3   OH215775   4.879   0.680   6.118
 5277TIP3    H115776   4.784   0.694   6.114
 5277TIP3    H215777   4.888   0.589   6.147
 5278TIP3   OH215778   2.756   7.749   2.661
 5278TIP3    H115779   2.718   7.819   2.607
 5278TIP3    H215780   2.705   7.672   2.638
 5279TIP3   OH215781   1.009   6.902   5.859
 5279TIP3    H115782   0.946   6.961   5.899
 5279TIP3    H215783   0.967   6.816   5.862
 5280TIP3   OH215784   6.478   6.588   1.316
 5280TIP3    H115785   6.561   6.563   1.275
 5280TIP3    H215786   6.503   6.648   1.386
 5281TIP3   OH215787   6.101   6.002   0.378
 5281TIP3    H115788   6.038   5.936   0.347
 5281TIP3    H215789   6.186   5.961   0.364
 5282TIP3   OH215790   0.414   4.604   5.803
 5282TIP3    H115791   0.426   4.554   5.884
 5282TIP3    H215792   0.338   4.661   5.821
 5283TIP3   OH215793   1.564   1.998   2.776
 5283TIP3    H115794   1.534   1.910   2.799
 5283TIP3    H215795   1.542   2.051   2.852
 5284TIP3   OH215796   7.964   4.895   4.118
 5284TIP3    H115797   8.050   4.899   4.077
 5284TIP3    H215798   7.945   4.986   4.142
 5285TIP3   OH215799   6.447   7.410   0.088
 5285TIP3    H115800   6.432   7.500   0.058
 5285TIP3    H215801   6.372   7.390   0.143
 5286TIP3   OH215802   1.262   0.050   5.917
 5286TIP3    H115803   1.285   0.040   6.009
 5286TIP3    H215804   1.335   0.097   5.878
 5287TIP3   OH215805   4.377   7.202   1.997
 5287TIP3    H115806   4.452   7.168   2.046
 5287TIP3    H215807   4.371   7.294   2.023
 5288TIP3   OH215808   2.801   6.928   4.821
 5288TIP3    H115809   2.754   6.984   4.759
 5288TIP3    H215810   2.749   6.933   4.901
 5289TIP3   OH215811   7.617   0.480   1.108
 5289TIP3    H115812   7.634   0.458   1.200
 5289TIP3    H215813   7.690   0.442   1.060
 5290TIP3   OH215814   3.303   2.645   2.974
 5290TIP3    H115815   3.231   2.685   2.925
 5290TIP3    H215816   3.277   2.655   3.066
 5291TIP3   OH215817   0.621   2.618   4.816
 5291TIP3    H115818   0.605   2.633   4.723
 5291TIP3    H215819   0.586   2.530   4.832
 5292TIP3   OH215820   0.316   1.204   0.765
 5292TIP3    H115821   0.388   1.160   0.809
 5292TIP3    H215822   0.238   1.157   0.793
 5293TIP3   OH215823   3.232   1.286   0.782
 5293TIP3    H115824   3.180   1.366   0.770
 5293TIP3    H215825   3.221   1.264   0.874
 5294TIP3   OH215826   0.697   5.149   0.498
 5294TIP3    H115827   0.656   5.101   0.426
 5294TIP3    H215828   0.748   5.083   0.545
 5295TIP3   OH215829   2.336   7.290   5.591
 5295TIP3    H115830   2.412   7.343   5.567
 5295TIP3    H215831   2.352   7.206   5.549
 5296TIP3   OH215832   1.257   7.007   5.444
 5296TIP3    H115833   1.321   7.060   5.491
 5296TIP3    H215834   1.307   6.932   5.412
 5297TIP3   OH215835   4.579   6.075   4.613
 5297TIP3    H115836   4.667   6.042   4.633
 5297TIP3    H215837   4.557   6.129   4.689
 5298TIP3   OH215838   2.071   0.041   0.878
 5298TIP3    H115839   1.995  -0.013   0.896
 5298TIP3    H215840   2.045   0.093   0.801
 5299TIP3   OH215841   3.989   3.647   3.664
 5299TIP3    H115842   3.995   3.733   3.624
 5299TIP3    H215843   3.975   3.664   3.757
 5300TIP3   OH215844   3.695   2.559   0.709
 5300TIP3    H115845   3.730   2.483   0.662
 5300TIP3    H215846   3.620   2.524   0.757
 5301TIP3   OH215847   6.028   1.595   5.281
 5301TIP3    H115848   6.070   1.523   5.234
 5301TIP3    H215849   6.077   1.673   5.254
 5302TIP3   OH215850   4.515   2.900   5.633
 5302TIP3    H115851   4.511   2.971   5.569
 5302TIP3    H215852   4.436   2.911   5.686
 5303TIP3   OH215853   5.328   6.190   1.193
 5303TIP3    H115854   5.391   6.262   1.184
 5303TIP3    H215855   5.379   6.111   1.176
 5304TIP3   OH215856   1.939   3.313   1.034
 5304TIP3    H115857   1.931   3.340   1.125
 5304TIP3    H215858   1.863   3.353   0.990
 5305TIP3   OH215859   7.126   6.903   3.612
 5305TIP3    H115860   7.196   6.840   3.631
 5305TIP3    H215861   7.056   6.851   3.573
 5306TIP3   OH215862   4.837   6.214   2.846
 5306TIP3    H115863   4.821   6.298   2.803
 5306TIP3    H215864   4.783   6.218   2.925
 5307TIP3   OH215865   0.094   1.966   5.746
 5307TIP3    H115866   0.091   2.024   5.822
 5307TIP3    H215867   0.187   1.950   5.731
 5308TIP3   OH215868   2.537   1.321   6.452
 5308TIP3    H115869   2.487   1.399   6.477
 5308TIP3    H215870   2.497   1.250   6.502
 5309TIP3   OH215871   4.895   1.503   1.743
 5309TIP3    H115872   4.943   1.547   1.673
 5309TIP3    H215873   4.924   1.412   1.740
 5310TIP3   OH215874   1.982   5.788   5.626
 5310TIP3    H115875   1.911   5.748   5.677
 5310TIP3    H215876   2.011   5.718   5.567
 5311TIP3   OH215877   2.007   1.767   6.198
 5311TIP3    H115878   1.945   1.747   6.128
 5311TIP3    H215879   1.997   1.861   6.212
 5312TIP3   OH215880   0.569   7.343   5.129
 5312TIP3    H115881   0.536   7.400   5.198
 5312TIP3    H215882   0.647   7.303   5.166
 5313TIP3   OH215883   3.427   1.673   2.733
 5313TIP3    H115884   3.343   1.716   2.748
 5313TIP3    H215885   3.411   1.613   2.660
 5314TIP3   OH215886   0.930   7.159   4.449
 5314TIP3    H115887   0.887   7.204   4.522
 5314TIP3    H215888   1.017   7.137   4.482
 5315TIP3   OH215889   2.082   4.218   0.097
 5315TIP3    H115890   2.140   4.199   0.024
 5315TIP3    H215891   2.139   4.215   0.174
 5316TIP3   OH215892   5.284   6.443   6.472
 5316TIP3    H115893   5.306   6.432   6.380
 5316TIP3    H215894   5.251   6.357   6.499
 5317TIP3   OH215895   7.918   4.689   3.050
 5317TIP3    H115896   7.921   4.622   3.118
 5317TIP3    H215897   7.834   4.675   3.005
 5318TIP3   OH215898   5.272   5.718   1.661
 5318TIP3    H115899   5.366   5.704   1.664
 5318TIP3    H215900   5.234   5.631   1.676
 5319TIP3   OH215901   7.046   5.878   0.409
 5319TIP3    H115902   7.106   5.920   0.347
 5319TIP3    H215903   6.960   5.885   0.369
 5320TIP3   OH215904   5.501   3.782   3.318
 5320TIP3    H115905   5.476   3.850   3.379
 5320TIP3    H215906   5.419   3.736   3.297
 5321TIP3   OH215907   5.984   1.883   1.701
 5321TIP3    H115908   5.927   1.809   1.682
 5321TIP3    H215909   6.041   1.890   1.625
 5322TIP3   OH215910   1.214   6.390   6.192
 5322TIP3    H115911   1.141   6.412   6.134
 5322TIP3    H215912   1.266   6.327   6.142
 5323TIP3   OH215913   0.751   2.098   6.179
 5323TIP3    H115914   0.664   2.111   6.217
 5323TIP3    H215915   0.767   2.177   6.128
 5324TIP3   OH215916   2.679   3.783   3.752
 5324TIP3    H115917   2.725   3.715   3.800
 5324TIP3    H215918   2.691   3.862   3.804
 5325TIP3   OH215919   8.048   7.219   4.202
 5325TIP3    H115920   8.075   7.297   4.153
 5325TIP3    H215921   8.130   7.185   4.238
 5326TIP3   OH215922   0.507   1.663   3.371
 5326TIP3    H115923   0.513   1.632   3.462
 5326TIP3    H215924   0.563   1.603   3.322
 5327TIP3   OH215925   5.503   1.549   6.460
 5327TIP3    H115926   5.413   1.582   6.452
 5327TIP3    H215927   5.557   1.626   6.443
 5328TIP3   OH215928   5.379   5.775   6.063
 5328TIP3    H115929   5.368   5.691   6.106
 5328TIP3    H215930   5.336   5.838   6.121
 5329TIP3   OH215931   6.315   6.087   0.991
 5329TIP3    H115932   6.272   6.007   1.023
 5329TIP3    H215933   6.406   6.077   1.021
 5330TIP3   OH215934   6.478   2.592   5.155
 5330TIP3    H115935   6.473   2.671   5.208
 5330TIP3    H215936   6.415   2.532   5.195
 5331TIP3   OH215937   1.403   3.329   3.855
 5331TIP3    H115938   1.368   3.403   3.906
 5331TIP3    H215939   1.371   3.343   3.766
 5332TIP3   OH215940   0.247   1.623   0.580
 5332TIP3    H115941   0.254   1.666   0.494
 5332TIP3    H215942   0.215   1.536   0.560
 5333TIP3   OH215943   6.886   3.943  -0.002
 5333TIP3    H115944   6.938   3.906   0.070
 5333TIP3    H215945   6.851   3.867  -0.048
 5334TIP3   OH215946   8.264   0.824   2.673
 5334TIP3    H115947   8.233   0.753   2.617
 5334TIP3    H215948   8.352   0.844   2.640
 5335TIP3   OH215949   0.302   6.219   0.867
 5335TIP3    H115950   0.381   6.238   0.817
 5335TIP3    H215951   0.334   6.180   0.948
 5336TIP3   OH215952   6.569   5.568   0.077
 5336TIP3    H115953   6.608   5.514   0.146
 5336TIP3    H215954   6.533   5.505   0.015
 5337TIP3   OH215955   3.702   6.488   4.658
 5337TIP3    H115956   3.721   6.572   4.617
 5337TIP3    H215957   3.708   6.504   4.752
 5338TIP3   OH215958   5.984   6.156   4.632
 5338TIP3    H115959   5.938   6.154   4.716
 5338TIP3    H215960   6.017   6.246   4.625
 5339TIP3   OH215961   3.046   6.978   1.103
 5339TIP3    H115962   3.046   7.014   1.192
 5339TIP3    H215963   2.955   6.951   1.088
 5340TIP3   OH215964   6.609   2.892   3.783
 5340TIP3    H115965   6.679   2.935   3.733
 5340TIP3    H215966   6.645   2.885   3.872
 5341TIP3   OH215967   3.433   6.372   5.243
 5341TIP3    H115968   3.434   6.444   5.306
 5341TIP3    H215969   3.495   6.309   5.278
 5342TIP3   OH215970   5.222   5.850   1.396
 5342TIP3    H115971   5.279   5.925   1.413
 5342TIP3    H215972   5.226   5.798   1.476
 5343TIP3   OH215973   6.320   6.658   4.689
 5343TIP3    H115974   6.350   6.749   4.699
 5343TIP3    H215975   6.361   6.612   4.762
 5344TIP3   OH215976   2.066   6.361   3.948
 5344TIP3    H115977   1.981   6.403   3.956
 5344TIP3    H215978   2.107   6.404   3.872
 5345TIP3   OH215979   0.789   1.138   4.893
 5345TIP3    H115980   0.720   1.203   4.908
 5345TIP3    H215981   0.856   1.159   4.958
 5346TIP3   OH215982   8.161   1.923   6.617
 5346TIP3    H115983   8.084   1.971   6.588
 5346TIP3    H215984   8.141   1.897   6.707
 5347TIP3   OH215985   1.022   6.419   4.651
 5347TIP3    H115986   1.014   6.498   4.598
 5347TIP3    H215987   1.112   6.389   4.637
 5348TIP3   OH215988   1.461   4.813   2.195
 5348TIP3    H115989   1.510   4.885   2.234
 5348TIP3    H215990   1.521   4.774   2.132
 5349TIP3   OH215991   7.461   4.800   2.590
 5349TIP3    H115992   7.432   4.732   2.529
 5349TIP3    H215993   7.382   4.827   2.636
 5350TIP3   OH215994   1.398   3.258   0.627
 5350TIP3    H115995   1.464   3.232   0.691
 5350TIP3    H215996   1.322   3.203   0.647
 5351TIP3   OH215997   8.258   4.864   5.689
 5351TIP3    H115998   8.218   4.788   5.647
 5351TIP3    H215999   8.237   4.937   5.630
 5352TIP3   OH216000   5.796   3.059   5.399
 5352TIP3    H116001   5.735   3.022   5.336
 5352TIP3    H216002   5.754   3.139   5.430
 5353TIP3   OH216003   7.992   7.442   6.068
 5353TIP3    H116004   8.033   7.395   6.140
 5353TIP3    H216005   8.030   7.530   6.072
 5354TIP3   OH216006   7.624   4.727   5.633
 5354TIP3    H116007   7.571   4.681   5.568
 5354TIP3    H216008   7.569   4.728   5.712
 5355TIP3   OH216009   3.726   6.951   2.378
 5355TIP3    H116010   3.634   6.967   2.399
 5355TIP3    H216011   3.732   6.963   2.283
 5356TIP3   OH216012   4.798   4.618   0.022
 5356TIP3    H116013   4.787   4.708  -0.008
 5356TIP3    H216014   4.712   4.593   0.055
 5357TIP3   OH216015   3.150   4.732   2.994
 5357TIP3    H116016   3.054   4.740   2.995
 5357TIP3    H216017   3.179   4.807   2.942
 5358TIP3   OH216018   6.836   6.834   6.750
 5358TIP3    H116019   6.843   6.790   6.665
 5358TIP3    H216020   6.903   6.794   6.804
 5359TIP3   OH216021   3.974   0.573   4.576
 5359TIP3    H116022   3.933   0.492   4.546
 5359TIP3    H216023   4.044   0.543   4.635
 5360TIP3   OH216024   6.249   6.099   6.735
 5360TIP3    H116025   6.320   6.149   6.695
 5360TIP3    H216026   6.246   6.130   6.825
 5361TIP3   OH216027   1.363   1.537   4.712
 5361TIP3    H116028   1.363   1.632   4.726
 5361TIP3    H216029   1.274   1.510   4.731
 5362TIP3   OH216030   7.861   1.131   2.318
 5362TIP3    H116031   7.884   1.045   2.284
 5362TIP3    H216032   7.781   1.117   2.368
 5363TIP3   OH216033   0.165   5.177   5.347
 5363TIP3    H116034   0.160   5.208   5.257
 5363TIP3    H216035   0.219   5.098   5.343
 5364TIP3   OH216036   5.819   0.307   1.109
 5364TIP3    H116037   5.727   0.282   1.093
 5364TIP3    H216038   5.847   0.346   1.026
 5365TIP3   OH216039   2.779   2.934   2.519
 5365TIP3    H116040   2.838   2.939   2.444
 5365TIP3    H216041   2.782   2.842   2.545
 5366TIP3   OH216042   2.596   6.015   0.763
 5366TIP3    H116043   2.653   6.089   0.745
 5366TIP3    H216044   2.653   5.938   0.760
 5367TIP3   OH216045   5.519   6.213   5.739
 5367TIP3    H116046   5.470   6.146   5.689
 5367TIP3    H216047   5.587   6.164   5.784
 5368TIP3   OH216048   5.273   4.283   5.360
 5368TIP3    H116049   5.331   4.209   5.346
 5368TIP3    H216050   5.315   4.335   5.428
 5369TIP3   OH216051   4.788   5.270   0.493
 5369TIP3    H116052   4.772   5.320   0.573
 5369TIP3    H216053   4.728   5.196   0.499
 5370TIP3   OH216054   1.487   6.870   5.658
 5370TIP3    H116055   1.547   6.816   5.710
 5370TIP3    H216056   1.420   6.898   5.721
 5371TIP3   OH216057   3.498   4.949   6.456
 5371TIP3    H116058   3.456   5.029   6.425
 5371TIP3    H216059   3.437   4.879   6.433
 5372TIP3   OH216060   7.078   7.610   6.222
 5372TIP3    H116061   7.144   7.596   6.155
 5372TIP3    H216062   6.995   7.609   6.174
 5373TIP3   OH216063   0.810   1.087   0.387
 5373TIP3    H116064   0.817   0.997   0.419
 5373TIP3    H216065   0.892   1.128   0.413
 5374TIP3   OH216066   2.690   1.853   1.632
 5374TIP3    H116067   2.671   1.847   1.538
 5374TIP3    H216068   2.670   1.943   1.655
 5375TIP3   OH216069   1.172   3.989   3.100
 5375TIP3    H116070   1.143   4.031   3.181
 5375TIP3    H216071   1.228   3.917   3.128
 5376TIP3   OH216072   7.622   2.453   5.182
 5376TIP3    H116073   7.590   2.431   5.094
 5376TIP3    H216074   7.570   2.398   5.241
 5377TIP3   OH216075   1.683   3.353   0.282
 5377TIP3    H116076   1.621   3.284   0.305
 5377TIP3    H216077   1.669   3.367   0.188
 5378TIP3   OH216078   4.369   6.992   6.579
 5378TIP3    H116079   4.433   6.940   6.628
 5378TIP3    H216080   4.299   7.010   6.642
 5379TIP3   OH216081   1.827   2.627   5.302
 5379TIP3    H116082   1.881   2.667   5.234
 5379TIP3    H216083   1.849   2.534   5.299
 5380TIP3   OH216084   7.171   3.289   4.783
 5380TIP3    H116085   7.247   3.263   4.835
 5380TIP3    H216086   7.101   3.230   4.810
 5381TIP3   OH216087   3.524   0.772   2.999
 5381TIP3    H116088   3.540   0.864   2.975
 5381TIP3    H216089   3.447   0.775   3.055
 5382TIP3   OH216090   6.218   3.923   4.468
 5382TIP3    H116091   6.138   3.955   4.427
 5382TIP3    H216092   6.189   3.855   4.528
 5383TIP3   OH216093   3.641   5.339   5.146
 5383TIP3    H116094   3.608   5.412   5.199
 5383TIP3    H216095   3.625   5.367   5.055
 5384TIP3   OH216096   7.664   6.025   0.293
 5384TIP3    H116097   7.578   6.036   0.252
 5384TIP3    H216098   7.726   6.051   0.226
 5385TIP3   OH216099   2.735   1.916   0.272
 5385TIP3    H116100   2.708   1.843   0.217
 5385TIP3    H216101   2.770   1.981   0.211
 5386TIP3   OH216102   7.027   1.569   0.663
 5386TIP3    H116103   7.068   1.483   0.657
 5386TIP3    H216104   6.981   1.580   0.580
 5387TIP3   OH216105   2.790   3.231   3.919
 5387TIP3    H116106   2.832   3.148   3.944
 5387TIP3    H216107   2.860   3.280   3.875
 5388TIP3   OH216108   8.238   7.267   5.773
 5388TIP3    H116109   8.293   7.292   5.847
 5388TIP3    H216110   8.152   7.249   5.812
 5389TIP3   OH216111   1.875   7.575   5.387
 5389TIP3    H116112   1.927   7.567   5.466
 5389TIP3    H216113   1.839   7.487   5.373
 5390TIP3   OH216114   0.970   2.345   0.363
 5390TIP3    H116115   0.968   2.299   0.279
 5390TIP3    H216116   0.964   2.438   0.339
 5391TIP3   OH216117   5.981   0.321   3.225
 5391TIP3    H116118   5.984   0.337   3.131
 5391TIP3    H216119   6.015   0.233   3.236
 5392TIP3   OH216120   6.050   0.337   3.519
 5392TIP3    H116121   6.003   0.278   3.578
 5392TIP3    H216122   6.049   0.292   3.434
 5393TIP3   OH216123   2.602   0.376   3.626
 5393TIP3    H116124   2.623   0.372   3.719
 5393TIP3    H216125   2.684   0.355   3.581
 5394TIP3   OH216126   5.201   6.821   0.859
 5394TIP3    H116127   5.213   6.741   0.808
 5394TIP3    H216128   5.121   6.805   0.910
 5395TIP3   OH216129   6.080   4.441   3.305
 5395TIP3    H116130   6.045   4.357   3.336
 5395TIP3    H216131   6.166   4.420   3.271
 5396TIP3   OH216132   6.703   2.978   0.090
 5396TIP3    H116133   6.658   2.987   0.006
 5396TIP3    H216134   6.638   2.936   0.147
 5397TIP3   OH216135   6.220   6.491   1.352
 5397TIP3    H116136   6.299   6.533   1.320
 5397TIP3    H216137   6.188   6.441   1.277
 5398TIP3   OH216138   3.825   1.715   3.575
 5398TIP3    H116139   3.753   1.744   3.631
 5398TIP3    H216140   3.784   1.694   3.491
 5399TIP3   OH216141   2.768   2.318   6.348
 5399TIP3    H116142   2.770   2.382   6.276
 5399TIP3    H216143   2.837   2.347   6.407
 5400TIP3   OH216144   3.184   2.843   1.766
 5400TIP3    H116145   3.118   2.838   1.696
 5400TIP3    H216146   3.208   2.936   1.768
 5401TIP3   OH216147   7.273   5.080   2.537
 5401TIP3    H116148   7.205   5.147   2.547
 5401TIP3    H216149   7.291   5.051   2.626
 5402TIP3   OH216150   6.618   0.083   6.510
 5402TIP3    H116151   6.621   0.075   6.415
 5402TIP3    H216152   6.580   0.169   6.527
 5403TIP3   OH216153   7.004   7.550   3.471
 5403TIP3    H116154   7.072   7.523   3.533
 5403TIP3    H216155   7.032   7.513   3.387
 5404TIP3   OH216156   7.322   3.791   1.705
 5404TIP3    H116157   7.369   3.820   1.627
 5404TIP3    H216158   7.277   3.869   1.737
 5405TIP3   OH216159   0.981   0.230   1.815
 5405TIP3    H116160   1.049   0.172   1.847
 5405TIP3    H216161   0.906   0.212   1.871
 5406TIP3   OH216162   3.705   2.289   4.996
 5406TIP3    H116163   3.642   2.229   5.035
 5406TIP3    H216164   3.652   2.347   4.941
 5407TIP3   OH216165   6.209   4.019   0.467
 5407TIP3    H116166   6.228   4.111   0.484
 5407TIP3    H216167   6.211   3.978   0.553
 5408TIP3   OH216168   5.917   4.016   2.138
 5408TIP3    H116169   5.830   3.976   2.145
 5408TIP3    H216170   5.953   4.011   2.227
 5409TIP3   OH216171   1.460   5.548   1.581
 5409TIP3    H116172   1.517   5.559   1.505
 5409TIP3    H216173   1.480   5.624   1.637
 5410TIP3   OH216174   7.614   6.082   0.736
 5410TIP3    H116175   7.530   6.105   0.776
 5410TIP3    H216176   7.624   6.144   0.663
 5411TIP3   OH216177   5.079   0.922   2.011
 5411TIP3    H116178   5.063   1.014   2.033
 5411TIP3    H216179   5.012   0.874   2.059
 5412TIP3   OH216180   4.988   1.603   2.866
 5412TIP3    H116181   5.042   1.670   2.908
 5412TIP3    H216182   4.899   1.620   2.898
 5413TIP3   OH216183   1.839   2.110   3.649
 5413TIP3    H116184   1.923   2.126   3.607
 5413TIP3    H216185   1.781   2.177   3.613
 5414TIP3   OH216186   2.131   5.610   5.475
 5414TIP3    H116187   2.170   5.610   5.387
 5414TIP3    H216188   2.152   5.523   5.510
 5415TIP3   OH216189   1.495   2.690   2.684
 5415TIP3    H116190   1.461   2.625   2.622
 5415TIP3    H216191   1.497   2.645   2.768
 5416TIP3   OH216192   8.115   5.907   3.330
 5416TIP3    H116193   8.047   5.959   3.372
 5416TIP3    H216194   8.068   5.844   3.276
 5417TIP3   OH216195   2.632   3.465   4.521
 5417TIP3    H116196   2.689   3.422   4.585
 5417TIP3    H216197   2.644   3.415   4.440
 5418TIP3   OH216198   3.623   7.662   5.946
 5418TIP3    H116199   3.664   7.748   5.956
 5418TIP3    H216200   3.687   7.610   5.898
 5419TIP3   OH216201   4.003   4.107   2.335
 5419TIP3    H116202   4.021   4.020   2.300
 5419TIP3    H216203   4.050   4.167   2.276
 5420TIP3   OH216204   2.864   3.433   4.114
 5420TIP3    H116205   2.949   3.392   4.128
 5420TIP3    H216206   2.800   3.368   4.144
 5421TIP3   OH216207   6.544   6.825   4.906
 5421TIP3    H116208   6.510   6.735   4.907
 5421TIP3    H216209   6.529   6.855   4.816
 5422TIP3   OH216210   1.326   6.779   5.111
 5422TIP3    H116211   1.250   6.753   5.163
 5422TIP3    H216212   1.398   6.726   5.144
 5423TIP3   OH216213   0.475   7.525   5.331
 5423TIP3    H116214   0.448   7.613   5.307
 5423TIP3    H216215   0.408   7.494   5.393
 5424TIP3   OH216216   7.205   4.711   0.323
 5424TIP3    H116217   7.136   4.773   0.349
 5424TIP3    H216218   7.158   4.630   0.302
 5425TIP3   OH216219   4.958   4.217   4.571
 5425TIP3    H116220   5.009   4.287   4.612
 5425TIP3    H216221   4.870   4.226   4.608
 5426TIP3   OH216222   2.792   4.920   5.701
 5426TIP3    H116223   2.863   4.959   5.753
 5426TIP3    H216224   2.836   4.877   5.628
 5427TIP3   OH216225   0.212   0.366   4.461
 5427TIP3    H116226   0.245   0.345   4.549
 5427TIP3    H216227   0.284   0.412   4.419
 5428TIP3   OH216228   4.150   6.763   3.644
 5428TIP3    H116229   4.071   6.816   3.656
 5428TIP3    H216230   4.222   6.827   3.646
 5429TIP3   OH216231   3.398   6.792   5.829
 5429TIP3    H116232   3.381   6.886   5.836
 5429TIP3    H216233   3.439   6.769   5.912
 5430TIP3   OH216234   1.399   1.950   1.356
 5430TIP3    H116235   1.382   2.020   1.293
 5430TIP3    H216236   1.470   1.899   1.317
 5431TIP3   OH216237   1.336   5.320   1.626
 5431TIP3    H116238   1.394   5.259   1.671
 5431TIP3    H216239   1.384   5.403   1.627
 5432TIP3   OH216240   7.730   6.244   4.780
 5432TIP3    H116241   7.702   6.203   4.698
 5432TIP3    H216242   7.648   6.267   4.825
 5433TIP3   OH216243   2.038   1.502   4.163
 5433TIP3    H116244   2.028   1.574   4.102
 5433TIP3    H216245   1.984   1.526   4.238
 5434TIP3   OH216246   0.659   3.753   5.595
 5434TIP3    H116247   0.563   3.750   5.594
 5434TIP3    H216248   0.683   3.778   5.506
 5435TIP3   OH216249   4.521   5.333   4.412
 5435TIP3    H116250   4.480   5.325   4.498
 5435TIP3    H216251   4.451   5.310   4.350
 5436TIP3   OH216252   1.939   2.962   1.910
 5436TIP3    H116253   1.861   2.943   1.858
 5436TIP3    H216254   1.918   2.928   1.997
 5437TIP3   OH216255   6.172   1.355   5.609
 5437TIP3    H116256   6.173   1.323   5.519
 5437TIP3    H216257   6.080   1.378   5.625
 5438TIP3   OH216258   1.201   6.724   2.056
 5438TIP3    H116259   1.176   6.659   1.990
 5438TIP3    H216260   1.251   6.790   2.008
 5439TIP3   OH216261   7.748   0.590   4.739
 5439TIP3    H116262   7.755   0.501   4.773
 5439TIP3    H216263   7.671   0.588   4.682
 5440TIP3   OH216264   0.089   4.089   5.053
 5440TIP3    H116265   0.114   4.123   5.140
 5440TIP3    H216266   0.171   4.085   5.005
 5441TIP3   OH216267   4.755   7.748   6.554
 5441TIP3    H116268   4.827   7.730   6.613
 5441TIP3    H216269   4.772   7.836   6.521
 5442TIP3   OH216270   8.247   7.786   4.008
 5442TIP3    H116271   8.324   7.773   4.063
 5442TIP3    H216272   8.175   7.801   4.069
 5443TIP3   OH216273   0.734   0.276   5.761
 5443TIP3    H116274   0.714   0.369   5.771
 5443TIP3    H216275   0.700   0.254   5.674
 5444TIP3   OH216276   6.589   2.361   0.726
 5444TIP3    H116277   6.494   2.359   0.714
 5444TIP3    H216278   6.601   2.401   0.812
 5445TIP3   OH216279   5.759   3.344   1.694
 5445TIP3    H116280   5.745   3.383   1.780
 5445TIP3    H216281   5.757   3.250   1.709
 5446TIP3   OH216282   5.967   3.806   0.724
 5446TIP3    H116283   5.954   3.896   0.694
 5446TIP3    H216284   5.964   3.812   0.820
 5447TIP3   OH216285   4.495   5.307   5.912
 5447TIP3    H116286   4.475   5.379   5.852
 5447TIP3    H216287   4.424   5.244   5.897
 5448TIP3   OH216288   0.151   4.509   5.504
 5448TIP3    H116289   0.116   4.531   5.590
 5448TIP3    H216290   0.223   4.448   5.522
 5449TIP3   OH216291   2.100   1.019   3.327
 5449TIP3    H116292   2.115   1.051   3.416
 5449TIP3    H216293   2.005   1.002   3.325
 5450TIP3   OH216294   5.445   2.797   6.608
 5450TIP3    H116295   5.399   2.798   6.692
 5450TIP3    H216296   5.466   2.705   6.592
 5451TIP3   OH216297   7.586   5.463   1.344
 5451TIP3    H116298   7.679   5.484   1.342
 5451TIP3    H216299   7.542   5.548   1.341
 5452TIP3   OH216300   6.730   4.966   3.884
 5452TIP3    H116301   6.744   4.888   3.937
 5452TIP3    H216302   6.636   4.967   3.866
 5453TIP3   OH216303   0.688   7.433   2.009
 5453TIP3    H116304   0.668   7.502   1.946
 5453TIP3    H216305   0.735   7.367   1.958
 5454TIP3   OH216306   3.081   6.141   0.165
 5454TIP3    H116307   3.049   6.158   0.254
 5454TIP3    H216308   3.165   6.096   0.178
 5455TIP3   OH216309   4.280   0.146   4.415
 5455TIP3    H116310   4.187   0.151   4.438
 5455TIP3    H216311   4.302   0.053   4.425
 5456TIP3   OH216312   1.045   6.573   0.484
 5456TIP3    H116313   1.127   6.622   0.477
 5456TIP3    H216314   1.004   6.584   0.398
 5457TIP3   OH216315   2.186   3.420   1.847
 5457TIP3    H116316   2.246   3.440   1.919
 5457TIP3    H216317   2.167   3.327   1.857
 5458TIP3   OH216318   0.893   6.493   2.890
 5458TIP3    H116319   0.890   6.498   2.794
 5458TIP3    H216320   0.919   6.403   2.908
 5459TIP3   OH216321   4.694   0.609   3.200
 5459TIP3    H116322   4.766   0.546   3.197
 5459TIP3    H216323   4.617   0.556   3.220
 5460TIP3   OH216324   7.049   3.556   6.224
 5460TIP3    H116325   6.997   3.511   6.157
 5460TIP3    H216326   7.053   3.647   6.193
 5461TIP3   OH216327   3.250   1.895   2.794
 5461TIP3    H116328   3.166   1.884   2.840
 5461TIP3    H216329   3.226   1.891   2.702
 5462TIP3   OH216330   5.137   3.119   0.166
 5462TIP3    H116331   5.231   3.131   0.180
 5462TIP3    H216332   5.100   3.205   0.184
 5463TIP3   OH216333   4.451   0.219   3.315
 5463TIP3    H116334   4.460   0.159   3.240
 5463TIP3    H216335   4.540   0.228   3.349
 5464TIP3   OH216336   2.129   5.854   6.462
 5464TIP3    H116337   2.199   5.828   6.523
 5464TIP3    H216338   2.057   5.880   6.519
 5465TIP3   OH216339   6.773   2.898   4.384
 5465TIP3    H116340   6.834   2.931   4.317
 5465TIP3    H216341   6.741   2.816   4.347
 5466TIP3   OH216342   1.581   7.139   5.797
 5466TIP3    H116343   1.659   7.181   5.833
 5466TIP3    H216344   1.587   7.048   5.828
 5467TIP3   OH216345   1.157   5.591   2.264
 5467TIP3    H116346   1.166   5.681   2.295
 5467TIP3    H216347   1.149   5.599   2.169
 5468TIP3   OH216348   2.449   7.775   6.189
 5468TIP3    H116349   2.541   7.794   6.167
 5468TIP3    H216350   2.402   7.855   6.164
 5469TIP3   OH216351   0.554   6.424   4.353
 5469TIP3    H116352   0.643   6.449   4.380
 5469TIP3    H216353   0.533   6.485   4.282
 5470TIP3   OH216354   5.675   2.678   2.980
 5470TIP3    H116355   5.749   2.728   3.015
 5470TIP3    H216356   5.632   2.642   3.058
 5471TIP3   OH216357   2.884   4.290   3.873
 5471TIP3    H116358   2.937   4.308   3.950
 5471TIP3    H216359   2.909   4.358   3.810
 5472TIP3   OH216360   7.525   5.630   2.886
 5472TIP3    H116361   7.544   5.685   2.962
 5472TIP3    H216362   7.446   5.581   2.910
 5473TIP3   OH216363   4.418   6.095   6.697
 5473TIP3    H116364   4.405   6.130   6.609
 5473TIP3    H216365   4.376   6.159   6.754
 5474TIP3   OH216366   1.120   7.293   0.082
 5474TIP3    H116367   1.207   7.263   0.057
 5474TIP3    H216368   1.121   7.296   0.177
 5475TIP3   OH216369   4.682   1.965   0.463
 5475TIP3    H116370   4.777   1.979   0.462
 5475TIP3    H216371   4.663   1.936   0.553
 5476TIP3   OH216372   4.716   6.837   6.499
 5476TIP3    H116373   4.629   6.795   6.504
 5476TIP3    H216374   4.774   6.766   6.471
 5477TIP3   OH216375   2.805   3.851   1.405
 5477TIP3    H116376   2.812   3.868   1.499
 5477TIP3    H216377   2.874   3.788   1.386
 5478TIP3   OH216378   4.735   2.229   6.489
 5478TIP3    H116379   4.814   2.191   6.527
 5478TIP3    H216380   4.697   2.281   6.560
 5479TIP3   OH216381   4.353   4.620   5.061
 5479TIP3    H116382   4.445   4.646   5.066
 5479TIP3    H216383   4.332   4.593   5.151
 5480TIP3   OH216384   1.496   1.118   1.274
 5480TIP3    H116385   1.467   1.032   1.303
 5480TIP3    H216386   1.522   1.106   1.183
 5481TIP3   OH216387   3.361   3.814   3.815
 5481TIP3    H116388   3.287   3.785   3.867
 5481TIP3    H216389   3.362   3.754   3.739
 5482TIP3   OH216390   3.756   4.603   4.614
 5482TIP3    H116391   3.830   4.597   4.553
 5482TIP3    H216392   3.688   4.548   4.576
 5483TIP3   OH216393   3.779   4.946   3.089
 5483TIP3    H116394   3.777   4.855   3.120
 5483TIP3    H216395   3.802   4.939   2.996
 5484TIP3   OH216396   5.419   0.461   4.149
 5484TIP3    H116397   5.394   0.550   4.176
 5484TIP3    H216398   5.515   0.462   4.152
 5485TIP3   OH216399   5.052   4.667   2.384
 5485TIP3    H116400   5.047   4.720   2.304
 5485TIP3    H216401   5.056   4.732   2.455
 5486TIP3   OH216402   4.980   5.104   0.011
 5486TIP3    H116403   4.935   5.168   0.067
 5486TIP3    H216404   5.046   5.065   0.067
 5487TIP3   OH216405   0.607   4.837   5.896
 5487TIP3    H116406   0.585   4.918   5.943
 5487TIP3    H216407   0.575   4.851   5.807
 5488TIP3   OH216408   4.778   7.612   0.909
 5488TIP3    H116409   4.746   7.642   0.824
 5488TIP3    H216410   4.703   7.623   0.968
 5489TIP3   OH216411   1.041   5.391   1.029
 5489TIP3    H116412   1.087   5.347   1.101
 5489TIP3    H216413   0.976   5.327   0.999
 5490TIP3   OH216414   2.848   5.431   1.998
 5490TIP3    H116415   2.781   5.499   1.988
 5490TIP3    H216416   2.805   5.351   1.969
 5491TIP3   OH216417   6.241   7.008   3.860
 5491TIP3    H116418   6.336   7.020   3.851
 5491TIP3    H216419   6.231   6.964   3.945
 5492TIP3   OH216420   4.509   2.431   6.193
 5492TIP3    H116421   4.496   2.337   6.200
 5492TIP3    H216422   4.531   2.446   6.101
 5493TIP3   OH216423   5.565   0.152   5.489
 5493TIP3    H116424   5.641   0.097   5.504
 5493TIP3    H216425   5.599   0.242   5.492
 5494TIP3   OH216426   7.625   2.318   0.238
 5494TIP3    H116427   7.597   2.291   0.325
 5494TIP3    H216428   7.717   2.341   0.248
 5495TIP3   OH216429   7.659   5.330   4.120
 5495TIP3    H116430   7.585   5.375   4.080
 5495TIP3    H216431   7.731   5.392   4.115
 5496TIP3   OH216432   6.731   7.025   6.094
 5496TIP3    H116433   6.729   7.062   6.183
 5496TIP3    H216434   6.641   6.997   6.078
 5497TIP3   OH216435   0.630   2.597   0.793
 5497TIP3    H116436   0.685   2.578   0.717
 5497TIP3    H216437   0.634   2.517   0.846
 5498TIP3   OH216438   4.742   2.171   5.913
 5498TIP3    H116439   4.749   2.104   5.980
 5498TIP3    H216440   4.760   2.125   5.831
 5499TIP3   OH216441   1.786   2.494   4.719
 5499TIP3    H116442   1.727   2.493   4.795
 5499TIP3    H216443   1.850   2.425   4.738
 5500TIP3   OH216444   0.753   6.877   3.577
 5500TIP3    H116445   0.804   6.949   3.539
 5500TIP3    H216446   0.810   6.840   3.644
 5501TIP3   OH216447   6.686   2.935   0.663
 5501TIP3    H116448   6.758   2.923   0.600
 5501TIP3    H216449   6.664   2.847   0.692
 5502TIP3   OH216450   4.801   1.558   4.565
 5502TIP3    H116451   4.891   1.564   4.531
 5502TIP3    H216452   4.746   1.584   4.491
 5503TIP3   OH216453   6.807   1.482   6.597
 5503TIP3    H116454   6.845   1.402   6.562
 5503TIP3    H216455   6.794   1.464   6.690
 5504TIP3   OH216456   4.114   5.324   2.907
 5504TIP3    H116457   4.023   5.304   2.930
 5504TIP3    H216458   4.147   5.373   2.983
 5505TIP3   OH216459   5.612   3.350   4.521
 5505TIP3    H116460   5.553   3.275   4.512
 5505TIP3    H216461   5.565   3.411   4.577
 5506TIP3   OH216462   1.630   3.379   6.526
 5506TIP3    H116463   1.722   3.403   6.537
 5506TIP3    H216464   1.602   3.351   6.613
 5507TIP3   OH216465   6.651   0.278   5.765
 5507TIP3    H116466   6.609   0.360   5.739
 5507TIP3    H216467   6.708   0.255   5.692
 5508TIP3   OH216468   6.970   4.433   5.485
 5508TIP3    H116469   6.882   4.448   5.451
 5508TIP3    H216470   7.012   4.378   5.419
 5509TIP3   OH216471   1.685   4.266   4.715
 5509TIP3    H116472   1.754   4.300   4.658
 5509TIP3    H216473   1.730   4.247   4.798
 5510TIP3   OH216474   5.433   3.135   6.558
 5510TIP3    H116475   5.434   3.158   6.465
 5510TIP3    H216476   5.520   3.160   6.590
 5511TIP3   OH216477   2.878   1.134   6.223
 5511TIP3    H116478   2.953   1.159   6.170
 5511TIP3    H216479   2.897   1.169   6.310
 5512TIP3   OH216480   7.396   0.729   0.186
 5512TIP3    H116481   7.357   0.694   0.266
 5512TIP3    H216482   7.487   0.698   0.188
 5513TIP3   OH216483   3.867   2.544   0.404
 5513TIP3    H116484   3.908   2.567   0.321
 5513TIP3    H216485   3.846   2.451   0.395
 5514TIP3   OH216486   0.012   1.248   5.272
 5514TIP3    H116487   0.084   1.186   5.284
 5514TIP3    H216488  -0.008   1.245   5.179
 5515TIP3   OH216489   6.424   0.440   1.650
 5515TIP3    H116490   6.460   0.528   1.655
 5515TIP3    H216491   6.333   0.450   1.678
 5516TIP3   OH216492   1.279   1.746   1.003
 5516TIP3    H116493   1.355   1.802   1.023
 5516TIP3    H216494   1.317   1.667   0.964
 5517TIP3   OH216495   6.135   2.841   1.758
 5517TIP3    H116496   6.225   2.863   1.735
 5517TIP3    H216497   6.095   2.813   1.676
 5518TIP3   OH216498   8.173   5.957   6.256
 5518TIP3    H116499   8.166   5.906   6.337
 5518TIP3    H216500   8.141   6.044   6.281
 5519TIP3   OH216501   5.728   0.642   4.094
 5519TIP3    H116502   5.733   0.707   4.164
 5519TIP3    H216503   5.711   0.693   4.015
 5520TIP3   OH216504   7.227   6.737   4.278
 5520TIP3    H116505   7.153   6.786   4.244
 5520TIP3    H216506   7.218   6.650   4.239
 5521TIP3   OH216507   4.654   3.161   3.612
 5521TIP3    H116508   4.675   3.245   3.653
 5521TIP3    H216509   4.714   3.155   3.538
 5522TIP3   OH216510   6.253   2.104   2.309
 5522TIP3    H116511   6.295   2.139   2.230
 5522TIP3    H216512   6.160   2.102   2.287
 5523TIP3   OH216513   7.036   0.761   0.184
 5523TIP3    H116514   7.087   0.704   0.127
 5523TIP3    H216515   6.948   0.760   0.145
 5524TIP3   OH216516   0.616   2.765   2.071
 5524TIP3    H116517   0.586   2.821   2.000
 5524TIP3    H216518   0.707   2.792   2.086
 5525TIP3   OH216519   6.671   1.020   5.926
 5525TIP3    H116520   6.753   1.056   5.892
 5525TIP3    H216521   6.686   0.926   5.933
 5526TIP3   OH216522   5.460   5.468   5.309
 5526TIP3    H116523   5.366   5.472   5.329
 5526TIP3    H216524   5.496   5.406   5.373
 5527TIP3   OH216525   0.957   3.902   3.520
 5527TIP3    H116526   0.961   3.807   3.515
 5527TIP3    H216527   0.907   3.928   3.442
 5528TIP3   OH216528   6.295   0.428   6.709
 5528TIP3    H116529   6.357   0.357   6.724
 5528TIP3    H216530   6.317   0.494   6.774
 5529TIP3   OH216531   5.540   5.137   3.587
 5529TIP3    H116532   5.521   5.047   3.562
 5529TIP3    H216533   5.563   5.180   3.504
 5530TIP3   OH216534   5.555   2.126   4.105
 5530TIP3    H116535   5.634   2.141   4.055
 5530TIP3    H216536   5.586   2.105   4.193
 5531TIP3   OH216537   6.091   7.659   6.297
 5531TIP3    H116538   6.081   7.565   6.309
 5531TIP3    H216539   6.041   7.679   6.218
 5532TIP3   OH216540   4.780   5.221   1.237
 5532TIP3    H116541   4.876   5.215   1.231
 5532TIP3    H216542   4.762   5.218   1.331
 5533TIP3   OH216543   7.696   4.993   4.330
 5533TIP3    H116544   7.610   4.973   4.292
 5533TIP3    H216545   7.744   5.035   4.258
 5534TIP3   OH216546   5.763   6.592   4.230
 5534TIP3    H116547   5.801   6.532   4.294
 5534TIP3    H216548   5.702   6.539   4.180
 5535TIP3   OH216549   7.085   0.824   5.137
 5535TIP3    H116550   7.030   0.783   5.204
 5535TIP3    H216551   7.136   0.752   5.101
 5536TIP3   OH216552   3.288   0.908   2.745
 5536TIP3    H116553   3.254   0.875   2.662
 5536TIP3    H216554   3.381   0.885   2.744
 5537TIP3   OH216555   3.422   0.193   0.815
 5537TIP3    H116556   3.359   0.239   0.870
 5537TIP3    H216557   3.501   0.247   0.820
 5538TIP3   OH216558   6.162   7.819   2.244
 5538TIP3    H116559   6.240   7.764   2.245
 5538TIP3    H216560   6.090   7.757   2.233
 5539TIP3   OH216561   1.541   6.166   5.061
 5539TIP3    H116562   1.446   6.169   5.051
 5539TIP3    H216563   1.571   6.115   4.985
 5540TIP3   OH216564   0.847   1.745   4.777
 5540TIP3    H116565   0.893   1.807   4.834
 5540TIP3    H216566   0.841   1.790   4.693
 5541TIP3   OH216567   3.729   7.652   3.138
 5541TIP3    H116568   3.735   7.629   3.045
 5541TIP3    H216569   3.667   7.589   3.174
 5542TIP3   OH216570   8.254   2.328   3.118
 5542TIP3    H116571   8.298   2.325   3.033
 5542TIP3    H216572   8.324   2.313   3.182
 5543TIP3   OH216573   0.118   2.270   6.367
 5543TIP3    H116574   0.116   2.297   6.459
 5543TIP3    H216575   0.076   2.184   6.366
 5544TIP3   OH216576   0.966   2.059   6.694
 5544TIP3    H116577   0.972   2.118   6.769
 5544TIP3    H216578   1.048   2.071   6.646
 5545TIP3   OH216579   1.060   4.615   1.389
 5545TIP3    H116580   1.073   4.572   1.473
 5545TIP3    H216581   1.122   4.688   1.389
 5546TIP3   OH216582   4.825   0.345   5.131
 5546TIP3    H116583   4.917   0.319   5.126
 5546TIP3    H216584   4.779   0.279   5.079
 5547TIP3   OH216585   1.453   5.516   5.307
 5547TIP3    H116586   1.386   5.511   5.375
 5547TIP3    H216587   1.533   5.540   5.353
 5548TIP3   OH216588   6.968   0.925   3.682
 5548TIP3    H116589   6.898   0.870   3.649
 5548TIP3    H216590   6.923   1.001   3.719
 5549TIP3   OH216591   1.875   2.335   5.273
 5549TIP3    H116592   1.906   2.283   5.199
 5549TIP3    H216593   1.827   2.272   5.327
 5550TIP3   OH216594   6.763   3.726   1.772
 5550TIP3    H116595   6.857   3.742   1.764
 5550TIP3    H216596   6.745   3.734   1.865
 5551TIP3   OH216597   2.899   6.862   3.636
 5551TIP3    H116598   2.870   6.792   3.694
 5551TIP3    H216599   2.974   6.901   3.681
 5552TIP3   OH216600   0.669   2.608   4.191
 5552TIP3    H116601   0.593   2.639   4.241
 5552TIP3    H216602   0.702   2.533   4.242
 5553TIP3   OH216603   1.662   5.956   5.528
 5553TIP3    H116604   1.655   6.034   5.473
 5553TIP3    H216605   1.720   5.897   5.479
 5554TIP3   OH216606   7.595   2.802   6.333
 5554TIP3    H116607   7.609   2.896   6.323
 5554TIP3    H216608   7.680   2.763   6.311
 5555TIP3   OH216609   7.003   0.039   2.997
 5555TIP3    H116610   6.931  -0.019   2.973
 5555TIP3    H216611   6.961   0.125   3.005
 5556TIP3   OH216612   0.832   2.973   0.564
 5556TIP3    H116613   0.890   2.912   0.609
 5556TIP3    H216614   0.837   2.948   0.472
 5557TIP3   OH216615   0.693   6.241   6.696
 5557TIP3    H116616   0.704   6.336   6.693
 5557TIP3    H216617   0.631   6.222   6.626
 5558TIP3   OH216618   4.818   2.722   1.028
 5558TIP3    H116619   4.812   2.627   1.030
 5558TIP3    H216620   4.819   2.744   0.935
 5559TIP3   OH216621   5.743   7.329   2.763
 5559TIP3    H116622   5.751   7.278   2.843
 5559TIP3    H216623   5.665   7.383   2.777
 5560TIP3   OH216624   3.163   0.730   5.255
 5560TIP3    H116625   3.070   0.741   5.275
 5560TIP3    H216626   3.168   0.725   5.160
 5561TIP3   OH216627   3.961   5.820   1.811
 5561TIP3    H116628   4.036   5.856   1.857
 5561TIP3    H216629   3.941   5.739   1.858
 5562TIP3   OH216630   7.301   5.964   1.570
 5562TIP3    H116631   7.390   5.929   1.576
 5562TIP3    H216632   7.260   5.938   1.652
 5563TIP3   OH216633   0.555   3.748   3.595
 5563TIP3    H116634   0.512   3.831   3.577
 5563TIP3    H216635   0.579   3.753   3.687
 5564TIP3   OH216636   4.718   6.703   5.339
 5564TIP3    H116637   4.660   6.677   5.268
 5564TIP3    H216638   4.743   6.620   5.381
 5565TIP3   OH216639   2.054   1.579   0.460
 5565TIP3    H116640   2.044   1.637   0.536
 5565TIP3    H216641   1.989   1.610   0.397
 5566TIP3   OH216642   3.033   4.945   5.792
 5566TIP3    H116643   3.068   4.979   5.874
 5566TIP3    H216644   3.077   4.996   5.724
 5567TIP3   OH216645   2.295   3.826   4.714
 5567TIP3    H116646   2.372   3.835   4.657
 5567TIP3    H216647   2.310   3.890   4.784
 5568TIP3   OH216648   2.896   2.750   1.887
 5568TIP3    H116649   2.913   2.842   1.907
 5568TIP3    H216650   2.940   2.734   1.804
 5569TIP3   OH216651   3.494   0.312   5.645
 5569TIP3    H116652   3.443   0.286   5.568
 5569TIP3    H216653   3.458   0.259   5.716
 5570TIP3   OH216654   0.632   4.290   4.914
 5570TIP3    H116655   0.611   4.344   4.990
 5570TIP3    H216656   0.641   4.352   4.842
 5571TIP3   OH216657   4.075   5.861   3.657
 5571TIP3    H116658   4.046   5.769   3.655
 5571TIP3    H216659   4.100   5.876   3.748
 5572TIP3   OH216660   3.575   1.764   3.691
 5572TIP3    H116661   3.505   1.707   3.657
 5572TIP3    H216662   3.558   1.769   3.785
 5573TIP3   OH216663   8.236   1.703   2.108
 5573TIP3    H116664   8.266   1.694   2.199
 5573TIP3    H216665   8.142   1.686   2.112
 5574TIP3   OH216666   7.695   0.696   2.916
 5574TIP3    H116667   7.650   0.780   2.921
 5574TIP3    H216668   7.633   0.638   2.873
 5575TIP3   OH216669   3.931   0.659   4.295
 5575TIP3    H116670   3.856   0.718   4.285
 5575TIP3    H216671   3.926   0.631   4.386
 5576TIP3   OH216672   2.387   0.949   1.290
 5576TIP3    H116673   2.311   0.951   1.231
 5576TIP3    H216674   2.462   0.944   1.231
 5577TIP3   OH216675   7.783   7.773   3.061
 5577TIP3    H116676   7.703   7.753   3.110
 5577TIP3    H216677   7.758   7.764   2.969
 5578TIP3   OH216678   3.843   4.673   1.214
 5578TIP3    H116679   3.805   4.600   1.263
 5578TIP3    H216680   3.769   4.712   1.167
 5579TIP3   OH216681   3.958   0.478   6.002
 5579TIP3    H116682   4.049   0.496   5.981
 5579TIP3    H216683   3.916   0.564   6.007
 5580TIP3   OH216684   4.470   4.459   5.687
 5580TIP3    H116685   4.532   4.493   5.623
 5580TIP3    H216686   4.488   4.509   5.767
 5581TIP3   OH216687   3.358   1.075   0.373
 5581TIP3    H116688   3.320   1.082   0.285
 5581TIP3    H216689   3.453   1.073   0.358
 5582TIP3   OH216690   7.561   6.000   5.691
 5582TIP3    H116691   7.641   5.952   5.672
 5582TIP3    H216692   7.492   5.934   5.688
 5583TIP3   OH216693   4.109   1.428   1.820
 5583TIP3    H116694   4.109   1.380   1.902
 5583TIP3    H216695   4.194   1.410   1.781
 5584TIP3   OH216696   7.646   1.259   0.322
 5584TIP3    H116697   7.705   1.328   0.292
 5584TIP3    H216698   7.642   1.197   0.249
 5585TIP3   OH216699   6.196   2.617   6.205
 5585TIP3    H116700   6.211   2.544   6.145
 5585TIP3    H216701   6.128   2.586   6.264
 5586TIP3   OH216702   4.278   7.024   3.613
 5586TIP3    H116703   4.285   7.008   3.707
 5586TIP3    H216704   4.369   7.031   3.583
 5587TIP3   OH216705   4.788   0.532   4.525
 5587TIP3    H116706   4.721   0.590   4.491
 5587TIP3    H216707   4.812   0.569   4.610
 5588TIP3   OH216708   1.412   4.201   2.007
 5588TIP3    H116709   1.453   4.185   1.922
 5588TIP3    H216710   1.486   4.217   2.066
 5589TIP3   OH216711   8.205   1.476   2.608
 5589TIP3    H116712   8.174   1.398   2.653
 5589TIP3    H216713   8.160   1.475   2.523
 5590TIP3   OH216714   2.117   6.310   3.580
 5590TIP3    H116715   2.129   6.343   3.668
 5590TIP3    H216716   2.047   6.364   3.543
 5591TIP3   OH216717   7.931   4.551   6.387
 5591TIP3    H116718   7.862   4.613   6.364
 5591TIP3    H216719   7.943   4.497   6.309
 5592TIP3   OH216720   8.039   5.545   6.366
 5592TIP3    H116721   7.993   5.526   6.284
 5592TIP3    H216722   8.082   5.630   6.350
 5593TIP3   OH216723   2.270   0.672   3.716
 5593TIP3    H116724   2.176   0.688   3.724
 5593TIP3    H216725   2.309   0.760   3.710
 5594TIP3   OH216726   5.708   2.549   2.154
 5594TIP3    H116727   5.723   2.587   2.241
 5594TIP3    H216728   5.770   2.477   2.148
 5595TIP3   OH216729   2.443   0.651   0.273
 5595TIP3    H116730   2.396   0.712   0.330
 5595TIP3    H216731   2.375   0.610   0.220
 5596TIP3   OH216732   2.193   7.421   4.012
 5596TIP3    H116733   2.253   7.488   3.978
 5596TIP3    H216734   2.251   7.350   4.040
 5597TIP3   OH216735   6.237   6.409   4.308
 5597TIP3    H116736   6.196   6.356   4.240
 5597TIP3    H216737   6.219   6.361   4.389
 5598TIP3   OH216738   4.776   1.050   4.781
 5598TIP3    H116739   4.786   1.143   4.758
 5598TIP3    H216740   4.728   1.013   4.707
 5599TIP3   OH216741   7.284   4.779   5.669
 5599TIP3    H116742   7.218   4.710   5.672
 5599TIP3    H216743   7.349   4.747   5.607
 5600TIP3   OH216744   1.301   7.411   5.939
 5600TIP3    H116745   1.232   7.345   5.933
 5600TIP3    H216746   1.379   7.364   5.968
 5601TIP3   OH216747   0.812   2.690   6.723
 5601TIP3    H116748   0.846   2.641   6.797
 5601TIP3    H216749   0.886   2.740   6.690
 5602TIP3   OH216750   1.928   6.190   3.174
 5602TIP3    H116751   1.888   6.108   3.147
 5602TIP3    H216752   1.858   6.238   3.218
 5603TIP3   OH216753   5.621   6.735   0.379
 5603TIP3    H116754   5.693   6.681   0.411
 5603TIP3    H216755   5.592   6.784   0.456
 5604TIP3   OH216756   0.680   6.594   4.683
 5604TIP3    H116757   0.719   6.547   4.610
 5604TIP3    H216758   0.604   6.639   4.646
 5605TIP3   OH216759   3.987   3.928   6.645
 5605TIP3    H116760   3.917   3.972   6.693
 5605TIP3    H216761   4.067   3.958   6.687
 5606TIP3   OH216762   7.816   5.376   0.141
 5606TIP3    H116763   7.767   5.427   0.206
 5606TIP3    H216764   7.848   5.441   0.079
 5607TIP3   OH216765   2.252   6.912   0.208
 5607TIP3    H116766   2.345   6.897   0.223
 5607TIP3    H216767   2.225   6.842   0.149
 5608TIP3   OH216768   4.850   1.173   5.440
 5608TIP3    H116769   4.873   1.265   5.449
 5608TIP3    H216770   4.802   1.152   5.519
 5609TIP3   OH216771   1.871   1.695   3.629
 5609TIP3    H116772   1.932   1.758   3.667
 5609TIP3    H216773   1.859   1.629   3.698
 5610TIP3   OH216774   7.737   4.311   5.593
 5610TIP3    H116775   7.762   4.351   5.676
 5610TIP3    H216776   7.675   4.242   5.616
 5611TIP3   OH216777   0.613   3.990   3.017
 5611TIP3    H116778   0.701   4.028   3.013
 5611TIP3    H216779   0.558   4.063   3.047
 5612TIP3   OH216780   3.647   7.241   4.908
 5612TIP3    H116781   3.728   7.206   4.872
 5612TIP3    H216782   3.592   7.257   4.832
 5613TIP3   OH216783   0.891   4.727   6.538
 5613TIP3    H116784   0.854   4.773   6.462
 5613TIP3    H216785   0.900   4.794   6.605
 5614TIP3   OH216786   3.425   0.418   1.012
 5614TIP3    H116787   3.330   0.431   1.011
 5614TIP3    H216788   3.455   0.463   1.091
 5615TIP3   OH216789   7.553   2.074   4.001
 5615TIP3    H116790   7.475   2.057   4.053
 5615TIP3    H216791   7.555   2.169   3.991
 5616TIP3   OH216792   7.362   0.578   3.234
 5616TIP3    H116793   7.320   0.624   3.306
 5616TIP3    H216794   7.419   0.514   3.276
 5617TIP3   OH216795   5.696   5.675   0.805
 5617TIP3    H116796   5.755   5.730   0.754
 5617TIP3    H216797   5.610   5.715   0.795
 5618TIP3   OH216798   0.185   6.375   6.678
 5618TIP3    H116799   0.268   6.424   6.680
 5618TIP3    H216800   0.212   6.283   6.673
 5619TIP3   OH216801   7.882   6.181   6.237
 5619TIP3    H116802   7.892   6.088   6.217
 5619TIP3    H216803   7.971   6.213   6.249
 5620TIP3   OH216804   6.260   6.351   3.796
 5620TIP3    H116805   6.288   6.385   3.881
 5620TIP3    H216806   6.305   6.406   3.732
 5621TIP3   OH216807   1.143   1.959   1.482
 5621TIP3    H116808   1.088   1.890   1.520
 5621TIP3    H216809   1.212   1.912   1.436
 5622TIP3   OH216810   4.668   1.605   5.035
 5622TIP3    H116811   4.664   1.641   4.946
 5622TIP3    H216812   4.680   1.682   5.091
 5623TIP3   OH216813   2.368   5.771   0.794
 5623TIP3    H116814   2.462   5.788   0.802
 5623TIP3    H216815   2.358   5.679   0.816
 5624TIP3   OH216816   4.328   2.438   4.711
 5624TIP3    H116817   4.298   2.522   4.745
 5624TIP3    H216818   4.268   2.417   4.640
 5625TIP3   OH216819   3.490   7.114   0.680
 5625TIP3    H116820   3.461   7.113   0.772
 5625TIP3    H216821   3.584   7.096   0.684
 5626TIP3   OH216822   3.840   2.891   2.789
 5626TIP3    H116823   3.847   2.799   2.764
 5626TIP3    H216824   3.816   2.889   2.882
 5627TIP3   OH216825   4.220   4.063   3.329
 5627TIP3    H116826   4.152   4.123   3.299
 5627TIP3    H216827   4.301   4.115   3.324
 5628TIP3   OH216828   2.301   0.495   6.789
 5628TIP3    H116829   2.216   0.455   6.766
 5628TIP3    H216830   2.351   0.423   6.826
 5629TIP3   OH216831   0.307   0.150   2.346
 5629TIP3    H116832   0.212   0.141   2.351
 5629TIP3    H216833   0.335   0.081   2.285
 5630TIP3   OH216834   0.326   7.163   2.840
 5630TIP3    H116835   0.353   7.238   2.894
 5630TIP3    H216836   0.306   7.202   2.754
 5631TIP3   OH216837   1.136   3.323   5.896
 5631TIP3    H116838   1.229   3.311   5.912
 5631TIP3    H216839   1.108   3.386   5.963
 5632TIP3   OH216840   6.526   4.186   4.769
 5632TIP3    H116841   6.542   4.179   4.863
 5632TIP3    H216842   6.503   4.278   4.756
 5633TIP3   OH216843   2.874   6.560   5.892
 5633TIP3    H116844   2.876   6.495   5.962
 5633TIP3    H216845   2.961   6.599   5.892
 5634TIP3   OH216846   5.580   5.151   4.520
 5634TIP3    H116847   5.543   5.169   4.434
 5634TIP3    H216848   5.669   5.121   4.503
 5635TIP3   OH216849   7.291   0.136   0.048
 5635TIP3    H116850   7.218   0.132   0.109
 5635TIP3    H216851   7.335   0.051   0.057
 5636TIP3   OH216852   5.726   4.365   3.085
 5636TIP3    H116853   5.784   4.437   3.058
 5636TIP3    H216854   5.754   4.290   3.032
 5637TIP3   OH216855   1.100   4.011   4.216
 5637TIP3    H116856   1.138   4.093   4.184
 5637TIP3    H216857   1.169   3.972   4.270
 5638TIP3   OH216858   3.627   7.181   5.410
 5638TIP3    H116859   3.719   7.154   5.408
 5638TIP3    H216860   3.624   7.262   5.360
 5639TIP3   OH216861   2.808   6.238   1.598
 5639TIP3    H116862   2.867   6.310   1.621
 5639TIP3    H216863   2.735   6.247   1.660
 5640TIP3   OH216864   5.583   7.463   3.532
 5640TIP3    H116865   5.580   7.427   3.443
 5640TIP3    H216866   5.659   7.420   3.572
 5641TIP3   OH216867   4.474   0.794   6.198
 5641TIP3    H116868   4.522   0.872   6.169
 5641TIP3    H216869   4.492   0.729   6.130
 5642TIP3   OH216870   1.122   0.096   4.532
 5642TIP3    H116871   1.170   0.124   4.610
 5642TIP3    H216872   1.145   0.159   4.465
 5643TIP3   OH216873   3.423   4.457   1.105
 5643TIP3    H116874   3.434   4.363   1.090
 5643TIP3    H216875   3.477   4.475   1.182
 5644TIP3   OH216876   3.537   6.636   2.151
 5644TIP3    H116877   3.527   6.689   2.072
 5644TIP3    H216878   3.502   6.691   2.222
 5645TIP3   OH216879   6.439   0.038   4.377
 5645TIP3    H116880   6.472   0.094   4.306
 5645TIP3    H216881   6.384  -0.026   4.332
 5646TIP3   OH216882   3.229   7.408   2.657
 5646TIP3    H116883   3.240   7.356   2.737
 5646TIP3    H216884   3.135   7.404   2.639
 5647TIP3   OH216885   5.590   1.972   4.363
 5647TIP3    H116886   5.612   1.883   4.333
 5647TIP3    H216887   5.517   1.959   4.423
 5648TIP3   OH216888   2.060   0.869   3.718
 5648TIP3    H116889   1.996   0.837   3.782
 5648TIP3    H216890   2.020   0.949   3.682
 5649TIP3   OH216891   3.730   3.008   6.387
 5649TIP3    H116892   3.717   3.084   6.330
 5649TIP3    H216893   3.825   2.999   6.394
 5650TIP3   OH216894   6.248   1.501   3.695
 5650TIP3    H116895   6.321   1.466   3.643
 5650TIP3    H216896   6.190   1.426   3.709
 5651TIP3   OH216897   5.454   1.614   2.907
 5651TIP3    H116898   5.378   1.561   2.884
 5651TIP3    H216899   5.504   1.621   2.825
 5652TIP3   OH216900   5.886   0.953   2.011
 5652TIP3    H116901   5.944   0.893   1.963
 5652TIP3    H216902   5.850   1.010   1.943
 5653TIP3   OH216903   6.667   1.879   5.966
 5653TIP3    H116904   6.578   1.902   5.992
 5653TIP3    H216905   6.715   1.870   6.048
 5654TIP3   OH216906   3.569   3.986   4.980
 5654TIP3    H116907   3.551   4.010   5.071
 5654TIP3    H216908   3.665   3.978   4.977
 5655TIP3   OH216909   6.995   5.453   6.507
 5655TIP3    H116910   6.928   5.389   6.530
 5655TIP3    H216911   6.978   5.473   6.415
 5656TIP3   OH216912   6.262   4.854   3.377
 5656TIP3    H116913   6.209   4.925   3.413
 5656TIP3    H216914   6.222   4.774   3.411
 5657TIP3   OH216915   2.900   0.855   6.205
 5657TIP3    H116916   2.903   0.950   6.194
 5657TIP3    H216917   2.962   0.821   6.140
 5658TIP3   OH216918   7.192   3.313   3.880
 5658TIP3    H116919   7.252   3.261   3.934
 5658TIP3    H216920   7.177   3.259   3.802
 5659TIP3   OH216921   6.198   1.199   1.194
 5659TIP3    H116922   6.193   1.208   1.099
 5659TIP3    H216923   6.107   1.204   1.224
 5660TIP3   OH216924   0.751   7.521   6.043
 5660TIP3    H116925   0.788   7.573   5.972
 5660TIP3    H216926   0.747   7.581   6.118
 5661TIP3   OH216927   1.308   4.122   2.345
 5661TIP3    H116928   1.264   4.132   2.430
 5661TIP3    H216929   1.372   4.192   2.342
 5662TIP3   OH216930   5.624   7.615   0.823
 5662TIP3    H116931   5.680   7.652   0.754
 5662TIP3    H216932   5.540   7.602   0.780
 5663TIP3   OH216933   5.430   6.575   2.120
 5663TIP3    H116934   5.435   6.667   2.091
 5663TIP3    H216935   5.503   6.532   2.076
 5664TIP3   OH216936   0.674   6.813   5.595
 5664TIP3    H116937   0.606   6.752   5.625
 5664TIP3    H216938   0.651   6.896   5.636
 5665TIP3   OH216939   5.626   0.377   1.541
 5665TIP3    H116940   5.677   0.304   1.506
 5665TIP3    H216941   5.649   0.379   1.634
 5666TIP3   OH216942   7.066   6.825   2.769
 5666TIP3    H116943   7.001   6.756   2.783
 5666TIP3    H216944   7.144   6.779   2.738
 5667TIP3   OH216945   1.277   2.303   0.785
 5667TIP3    H116946   1.185   2.292   0.759
 5667TIP3    H216947   1.327   2.259   0.715
 5668TIP3   OH216948   3.650   1.875   0.866
 5668TIP3    H116949   3.582   1.942   0.863
 5668TIP3    H216950   3.608   1.799   0.907
 5669TIP3   OH216951   0.248   3.588   2.093
 5669TIP3    H116952   0.182   3.655   2.113
 5669TIP3    H216953   0.224   3.557   2.006
 5670TIP3   OH216954   3.540   3.803   0.826
 5670TIP3    H116955   3.634   3.822   0.835
 5670TIP3    H216956   3.533   3.708   0.835
 5671TIP3   OH216957   7.967   6.470   4.783
 5671TIP3    H116958   7.895   6.407   4.783
 5671TIP3    H216959   7.947   6.531   4.854
 5672TIP3   OH216960   7.087   7.107   6.338
 5672TIP3    H116961   7.065   7.042   6.271
 5672TIP3    H216962   7.107   7.055   6.416
 5673TIP3   OH216963   0.190   5.642   2.442
 5673TIP3    H116964   0.268   5.633   2.498
 5673TIP3    H216965   0.150   5.723   2.471
 5674TIP3   OH216966   4.055   7.290   1.692
 5674TIP3    H116967   4.015   7.296   1.605
 5674TIP3    H216968   4.013   7.213   1.732
 5675TIP3   OH216969   3.651   7.245   3.572
 5675TIP3    H116970   3.591   7.184   3.529
 5675TIP3    H216971   3.661   7.317   3.510
 5676TIP3   OH216972   7.491   7.216   1.978
 5676TIP3    H116973   7.407   7.180   1.949
 5676TIP3    H216974   7.469   7.303   2.010
 5677TIP3   OH216975   7.892   0.888   2.181
 5677TIP3    H116976   7.874   0.828   2.108
 5677TIP3    H216977   7.984   0.872   2.204
 5678TIP3   OH216978   6.083   1.607   2.290
 5678TIP3    H116979   6.123   1.694   2.289
 5678TIP3    H216980   6.005   1.616   2.236
 5679TIP3   OH216981   4.801   2.924   1.971
 5679TIP3    H116982   4.894   2.938   1.993
 5679TIP3    H216983   4.799   2.835   1.935
 5680TIP3   OH216984   6.840   4.352   1.849
 5680TIP3    H116985   6.911   4.290   1.834
 5680TIP3    H216986   6.854   4.422   1.786
 5681TIP3   OH216987   2.497   7.278   0.882
 5681TIP3    H116988   2.468   7.292   0.792
 5681TIP3    H216989   2.472   7.358   0.928
 5682TIP3   OH216990   6.768   6.608   1.167
 5682TIP3    H116991   6.805   6.520   1.157
 5682TIP3    H216992   6.763   6.642   1.077
 5683TIP3   OH216993   3.393   3.100   2.413
 5683TIP3    H116994   3.364   3.024   2.463
 5683TIP3    H216995   3.488   3.094   2.413
 5684TIP3   OH216996   7.352   1.824   3.185
 5684TIP3    H116997   7.397   1.906   3.206
 5684TIP3    H216998   7.268   1.851   3.148
 5685TIP3   OH216999   6.412   7.022   1.883
 5685TIP3    H117000   6.466   7.100   1.869
 5685TIP3    H217001   6.325   7.048   1.853
 5686TIP3   OH217002   5.739   3.011   1.191
 5686TIP3    H117003   5.711   2.998   1.281
 5686TIP3    H217004   5.673   3.069   1.153
 5687TIP3   OH217005   0.391   3.740   4.844
 5687TIP3    H117006   0.464   3.677   4.838
 5687TIP3    H217007   0.413   3.807   4.779
 5688TIP3   OH217008   7.303   5.390   0.503
 5688TIP3    H117009   7.380   5.385   0.446
 5688TIP3    H217010   7.313   5.474   0.549
 5689TIP3   OH217011   1.300   4.433   3.321
 5689TIP3    H117012   1.245   4.505   3.352
 5689TIP3    H217013   1.308   4.448   3.227
 5690TIP3   OH217014   6.654   2.570   4.606
 5690TIP3    H117015   6.732   2.517   4.614
 5690TIP3    H217016   6.597   2.523   4.545
 5691TIP3   OH217017   1.834   5.347   0.006
 5691TIP3    H117018   1.795   5.379   0.087
 5691TIP3    H217019   1.913   5.300   0.033
 5692TIP3   OH217020   2.094   5.045   1.601
 5692TIP3    H117021   2.112   4.954   1.621
 5692TIP3    H217022   2.129   5.094   1.676
 5693TIP3   OH217023   4.619   3.830   0.027
 5693TIP3    H117024   4.667   3.872  -0.044
 5693TIP3    H217025   4.552   3.777  -0.017
 5694TIP3   OH217026   3.943   7.390   3.123
 5694TIP3    H117027   3.994   7.456   3.075
 5694TIP3    H217028   3.928   7.320   3.060
 5695TIP3   OH217029   8.108   7.749   4.597
 5695TIP3    H117030   8.103   7.775   4.505
 5695TIP3    H217031   8.092   7.830   4.645
 5696TIP3   OH217032   6.429   5.181   3.412
 5696TIP3    H117033   6.438   5.262   3.463
 5696TIP3    H217034   6.411   5.114   3.477
 5697TIP3   OH217035   0.853   7.340   0.348
 5697TIP3    H117036   0.764   7.308   0.331
 5697TIP3    H217037   0.876   7.300   0.432
 5698TIP3   OH217038   0.017   6.969   3.562
 5698TIP3    H117039   0.063   6.954   3.480
 5698TIP3    H217040  -0.075   6.981   3.537
 5699TIP3   OH217041   0.713   5.761   2.386
 5699TIP3    H117042   0.752   5.737   2.470
 5699TIP3    H217043   0.666   5.682   2.359
 5700TIP3   OH217044   0.342   4.132   1.215
 5700TIP3    H117045   0.340   4.203   1.279
 5700TIP3    H217046   0.284   4.065   1.252
 5701TIP3   OH217047   1.517   2.376   4.426
 5701TIP3    H117048   1.473   2.315   4.367
 5701TIP3    H217049   1.450   2.402   4.489
 5702TIP3   OH217050   4.473   5.571   5.654
 5702TIP3    H117051   4.498   5.512   5.584
 5702TIP3    H217052   4.545   5.634   5.660
 5703TIP3   OH217053   5.958   4.883   1.252
 5703TIP3    H117054   5.950   4.866   1.346
 5703TIP3    H217055   6.037   4.837   1.226
 5704TIP3   OH217056   3.530   4.978   2.881
 5704TIP3    H117057   3.553   4.902   2.934
 5704TIP3    H217058   3.568   5.053   2.927
 5705TIP3   OH217059   4.666   0.128   3.962
 5705TIP3    H117060   4.574   0.114   3.987
 5705TIP3    H217061   4.666   0.213   3.918
 5706TIP3   OH217062   5.171   3.474   5.094
 5706TIP3    H117063   5.233   3.530   5.141
 5706TIP3    H217064   5.143   3.410   5.159
 5707TIP3   OH217065   7.455   6.688   6.456
 5707TIP3    H117066   7.500   6.773   6.456
 5707TIP3    H217067   7.454   6.661   6.365
 5708TIP3   OH217068   1.852   5.937   3.226
 5708TIP3    H117069   1.800   5.871   3.182
 5708TIP3    H217070   1.941   5.901   3.227
 5709TIP3   OH217071   4.965   3.781   1.467
 5709TIP3    H117072   4.893   3.791   1.531
 5709TIP3    H217073   5.029   3.846   1.494
 5710TIP3   OH217074   0.490   2.837   2.729
 5710TIP3    H117075   0.475   2.749   2.694
 5710TIP3    H217076   0.584   2.852   2.717
 5711TIP3   OH217077   4.961   3.346   6.416
 5711TIP3    H117078   4.970   3.366   6.323
 5711TIP3    H217079   5.051   3.333   6.446
 5712TIP3   OH217080   4.452   6.692   5.901
 5712TIP3    H117081   4.454   6.596   5.895
 5712TIP3    H217082   4.383   6.719   5.840
 5713TIP3   OH217083   1.852   2.723   0.405
 5713TIP3    H117084   1.884   2.643   0.363
 5713TIP3    H217085   1.931   2.769   0.432
 5714TIP3   OH217086   1.919   0.723   0.881
 5714TIP3    H117087   1.851   0.781   0.847
 5714TIP3    H217088   1.990   0.781   0.905
 5715TIP3   OH217089   1.210   7.507   6.196
 5715TIP3    H117090   1.293   7.546   6.224
 5715TIP3    H217091   1.236   7.443   6.129
 5716TIP3   OH217092   5.468   5.629   1.951
 5716TIP3    H117093   5.455   5.623   2.046
 5716TIP3    H217094   5.549   5.678   1.941
 5717TIP3   OH217095   1.460   4.848   5.309
 5717TIP3    H117096   1.442   4.754   5.301
 5717TIP3    H217097   1.530   4.853   5.374
 5718TIP3   OH217098   8.195   1.789   2.574
 5718TIP3    H117099   8.115   1.747   2.607
 5718TIP3    H217100   8.204   1.868   2.628
 5719TIP3   OH217101   0.075   7.797   2.805
 5719TIP3    H117102  -0.018   7.789   2.786
 5719TIP3    H217103   0.105   7.869   2.750
 5720TIP3   OH217104   7.878   0.081   0.096
 5720TIP3    H117105   7.866   0.051   0.006
 5720TIP3    H217106   7.796   0.124   0.119
 5721TIP3   OH217107   4.818   6.246   5.891
 5721TIP3    H117108   4.737   6.196   5.886
 5721TIP3    H217109   4.852   6.244   5.801
 5722TIP3   OH217110   5.099   3.814   5.744
 5722TIP3    H117111   5.004   3.827   5.735
 5722TIP3    H217112   5.126   3.882   5.805
 5723TIP3   OH217113   5.011   3.909   6.468
 5723TIP3    H117114   4.927   3.864   6.476
 5723TIP3    H217115   5.070   3.842   6.433
 5724TIP3   OH217116   6.473   4.682   0.242
 5724TIP3    H117117   6.489   4.608   0.300
 5724TIP3    H217118   6.451   4.643   0.157
 5725TIP3   OH217119   4.713   0.202   1.695
 5725TIP3    H117120   4.719   0.202   1.791
 5725TIP3    H217121   4.629   0.245   1.677
 5726TIP3   OH217122   5.747   6.014   3.686
 5726TIP3    H117123   5.731   6.102   3.653
 5726TIP3    H217124   5.659   5.976   3.697
 5727TIP3   OH217125   5.239   6.943   6.060
 5727TIP3    H117126   5.228   6.991   6.142
 5727TIP3    H217127   5.307   6.991   6.013
 5728TIP3   OH217128   5.384   3.497   2.585
 5728TIP3    H117129   5.316   3.449   2.633
 5728TIP3    H217130   5.406   3.440   2.511
 5729TIP3   OH217131   3.821   2.269   3.758
 5729TIP3    H117132   3.798   2.274   3.851
 5729TIP3    H217133   3.779   2.188   3.728
 5730TIP3   OH217134   0.018   5.129   5.571
 5730TIP3    H117135   0.049   5.162   5.486
 5730TIP3    H217136  -0.003   5.208   5.621
 5731TIP3   OH217137   2.238   2.686   4.530
 5731TIP3    H117138   2.145   2.707   4.533
 5731TIP3    H217139   2.256   2.666   4.438
 5732TIP3   OH217140   4.532   1.305   6.060
 5732TIP3    H117141   4.556   1.356   5.983
 5732TIP3    H217142   4.534   1.368   6.132
 5733TIP3   OH217143   4.799   1.297   4.646
 5733TIP3    H117144   4.793   1.382   4.602
 5733TIP3    H217145   4.708   1.274   4.667
 5734TIP3   OH217146   4.316   3.121   4.095
 5734TIP3    H117147   4.296   3.063   4.021
 5734TIP3    H217148   4.383   3.074   4.144
 5735TIP3   OH217149   0.455   0.070   3.253
 5735TIP3    H117150   0.369   0.093   3.220
 5735TIP3    H217151   0.514   0.136   3.217
 5736TIP3   OH217152   2.848   2.729   2.820
 5736TIP3    H117153   2.815   2.708   2.732
 5736TIP3    H217154   2.854   2.644   2.863
 5737TIP3   OH217155   1.613   0.454   2.467
 5737TIP3    H117156   1.520   0.458   2.488
 5737TIP3    H217157   1.656   0.439   2.551
 5738TIP3   OH217158   8.198   3.127   4.818
 5738TIP3    H117159   8.205   3.077   4.899
 5738TIP3    H217160   8.126   3.086   4.770
 5739TIP3   OH217161   4.855   7.608   1.362
 5739TIP3    H117162   4.924   7.671   1.382
 5739TIP3    H217163   4.894   7.550   1.297
 5740TIP3   OH217164   0.832   4.351   1.351
 5740TIP3    H117165   0.823   4.259   1.375
 5740TIP3    H217166   0.834   4.350   1.255
 5741TIP3   OH217167   5.042   6.859   2.004
 5741TIP3    H117168   5.138   6.859   2.007
 5741TIP3    H217169   5.018   6.768   2.021
 5742TIP3   OH217170   5.679   4.444   3.897
 5742TIP3    H117171   5.723   4.402   3.971
 5742TIP3    H217172   5.594   4.472   3.932
 5743TIP3   OH217173   6.874   2.739   6.169
 5743TIP3    H117174   6.957   2.723   6.214
 5743TIP3    H217175   6.876   2.681   6.093
 5744TIP3   OH217176   7.983   1.336   5.503
 5744TIP3    H117177   8.059   1.393   5.512
 5744TIP3    H217178   7.985   1.306   5.413
 5745TIP3   OH217179   2.805   5.933   1.701
 5745TIP3    H117180   2.815   5.991   1.626
 5745TIP3    H217181   2.879   5.872   1.694
 5746TIP3   OH217182   6.053   5.231   4.716
 5746TIP3    H117183   6.143   5.249   4.688
 5746TIP3    H217184   6.063   5.172   4.791
 5747TIP3   OH217185   3.093   0.390   1.373
 5747TIP3    H117186   3.165   0.356   1.426
 5747TIP3    H217187   3.054   0.459   1.426
 5748TIP3   OH217188   4.251   2.513   6.142
 5748TIP3    H117189   4.337   2.477   6.164
 5748TIP3    H217190   4.270   2.597   6.101
 5749TIP3   OH217191   7.451   1.989   0.407
 5749TIP3    H117192   7.505   2.059   0.445
 5749TIP3    H217193   7.369   1.992   0.457
 5750TIP3   OH217194   6.842   0.484   2.198
 5750TIP3    H117195   6.855   0.549   2.267
 5750TIP3    H217196   6.769   0.518   2.146
 5751TIP3   OH217197   4.579   2.619   3.914
 5751TIP3    H117198   4.655   2.578   3.954
 5751TIP3    H217199   4.560   2.694   3.970
 5752TIP3   OH217200   6.296   4.875   5.073
 5752TIP3    H117201   6.225   4.925   5.032
 5752TIP3    H217202   6.263   4.785   5.076
 5753TIP3   OH217203   2.491   6.814   0.309
 5753TIP3    H117204   2.488   6.724   0.343
 5753TIP3    H217205   2.493   6.869   0.387
 5754TIP3   OH217206   1.482   1.416   1.744
 5754TIP3    H117207   1.559   1.384   1.792
 5754TIP3    H217208   1.458   1.343   1.688
 5755TIP3   OH217209   0.748   7.654   1.630
 5755TIP3    H117210   0.689   7.597   1.581
 5755TIP3    H217211   0.719   7.743   1.609
 5756TIP3   OH217212   7.899   6.715   1.368
 5756TIP3    H117213   7.856   6.801   1.376
 5756TIP3    H217214   7.919   6.690   1.458
 5757TIP3   OH217215   8.109   7.088   0.684
 5757TIP3    H117216   8.181   7.025   0.688
 5757TIP3    H217217   8.091   7.110   0.776
 5758TIP3   OH217218   6.297   5.102   2.235
 5758TIP3    H117219   6.280   5.076   2.326
 5758TIP3    H217220   6.225   5.161   2.213
 5759TIP3   OH217221   7.710   1.119   5.184
 5759TIP3    H117222   7.730   1.115   5.277
 5759TIP3    H217223   7.626   1.165   5.180
 5760TIP3   OH217224   4.935   6.639   6.494
 5760TIP3    H117225   4.901   6.615   6.580
 5760TIP3    H217226   4.920   6.561   6.440
 5761TIP3   OH217227   8.348   4.495   6.720
 5761TIP3    H117228   8.346   4.400   6.714
 5761TIP3    H217229   8.258   4.520   6.738
 5762TIP3   OH217230   2.218   2.918   0.105
 5762TIP3    H117231   2.290   2.917   0.168
 5762TIP3    H217232   2.256   2.959   0.027
 5763TIP3   OH217233   2.819   1.077   5.892
 5763TIP3    H117234   2.885   1.067   5.960
 5763TIP3    H217235   2.735   1.074   5.939
 5764TIP3   OH217236   8.192   1.066   4.255
 5764TIP3    H117237   8.204   1.068   4.160
 5764TIP3    H217238   8.108   1.023   4.268
 5765TIP3   OH217239   6.886   3.863   0.944
 5765TIP3    H117240   6.950   3.791   0.940
 5765TIP3    H217241   6.909   3.911   1.023
 5766TIP3   OH217242   6.250   3.338   5.474
 5766TIP3    H117243   6.183   3.403   5.453
 5766TIP3    H217244   6.246   3.276   5.401
 5767TIP3   OH217245   7.013   0.478   1.110
 5767TIP3    H117246   6.922   0.468   1.138
 5767TIP3    H217247   7.056   0.398   1.141
 5768TIP3   OH217248   7.029   3.167   5.854
 5768TIP3    H117249   7.007   3.077   5.876
 5768TIP3    H217250   6.964   3.191   5.788
 5769TIP3   OH217251   1.255   4.759   6.377
 5769TIP3    H117252   1.214   4.673   6.366
 5769TIP3    H217253   1.318   4.747   6.448
 5770TIP3   OH217254   6.981   7.695   6.810
 5770TIP3    H117255   6.985   7.788   6.787
 5770TIP3    H217256   7.063   7.658   6.777
 5771TIP3   OH217257   8.109   0.149   5.837
 5771TIP3    H117258   8.140   0.202   5.763
 5771TIP3    H217259   8.015   0.168   5.842
 5772TIP3   OH217260   5.246   3.364   5.895
 5772TIP3    H117261   5.329   3.317   5.887
 5772TIP3    H217262   5.270   3.456   5.887
 5773TIP3   OH217263   2.384   0.829   2.593
 5773TIP3    H117264   2.390   0.739   2.625
 5773TIP3    H217265   2.297   0.835   2.554
 5774TIP3   OH217266   6.144   2.380   5.618
 5774TIP3    H117267   6.114   2.456   5.568
 5774TIP3    H217268   6.119   2.305   5.564
 5775TIP3   OH217269   5.379   4.278   2.291
 5775TIP3    H117270   5.349   4.202   2.241
 5775TIP3    H217271   5.306   4.340   2.285
 5776TIP3   OH217272   2.637   7.047   3.897
 5776TIP3    H117273   2.726   7.076   3.876
 5776TIP3    H217274   2.646   6.999   3.980
 5777TIP3   OH217275   0.700   4.644   0.294
 5777TIP3    H117276   0.606   4.652   0.279
 5777TIP3    H217277   0.708   4.573   0.359
 5778TIP3   OH217278   7.483   5.204   5.799
 5778TIP3    H117279   7.444   5.288   5.821
 5778TIP3    H217280   7.427   5.139   5.842
 5779TIP3   OH217281   0.090   3.408   6.390
 5779TIP3    H117282   0.178   3.390   6.422
 5779TIP3    H217283   0.059   3.480   6.444
 5780TIP3   OH217284   1.300   1.445   1.321
 5780TIP3    H117285   1.226   1.498   1.292
 5780TIP3    H217286   1.309   1.377   1.255
 5781TIP3   OH217287   2.543   7.370   2.262
 5781TIP3    H117288   2.602   7.433   2.221
 5781TIP3    H217289   2.597   7.323   2.326
 5782TIP3   OH217290   7.975   1.444   3.580
 5782TIP3    H117291   7.993   1.537   3.563
 5782TIP3    H217292   7.880   1.438   3.578
 5783TIP3   OH217293   1.553   1.926   4.354
 5783TIP3    H117294   1.599   1.991   4.407
 5783TIP3    H217295   1.497   1.880   4.418
 5784TIP3   OH217296   5.027   5.251   5.658
 5784TIP3    H117297   5.033   5.296   5.574
 5784TIP3    H217298   5.061   5.315   5.721
 5785TIP3   OH217299   5.581   0.721   3.540
 5785TIP3    H117300   5.508   0.733   3.601
 5785TIP3    H217301   5.656   0.701   3.596
 5786TIP3   OH217302   1.726   7.703   6.473
 5786TIP3    H117303   1.736   7.785   6.520
 5786TIP3    H217304   1.815   7.674   6.454
 5787TIP3   OH217305   4.766   7.245   1.889
 5787TIP3    H117306   4.689   7.244   1.832
 5787TIP3    H217307   4.833   7.198   1.839
 5788TIP3   OH217308   5.572   2.866   4.706
 5788TIP3    H117309   5.545   2.775   4.694
 5788TIP3    H217310   5.664   2.862   4.730
 5789TIP3   OH217311   1.270   0.304   6.487
 5789TIP3    H117312   1.352   0.350   6.475
 5789TIP3    H217313   1.224   0.313   6.404
 5790TIP3   OH217314   7.358   6.074   3.788
 5790TIP3    H117315   7.329   6.144   3.846
 5790TIP3    H217316   7.412   6.118   3.723
 5791TIP3   OH217317   1.719   2.869   5.220
 5791TIP3    H117318   1.625   2.884   5.228
 5791TIP3    H217319   1.734   2.788   5.270
 5792TIP3   OH217320   2.991   4.041   5.171
 5792TIP3    H117321   3.047   4.071   5.243
 5792TIP3    H217322   2.929   3.982   5.212
 5793TIP3   OH217323   6.921   7.483   2.813
 5793TIP3    H117324   7.011   7.458   2.832
 5793TIP3    H217325   6.886   7.411   2.760
 5794TIP3   OH217326   7.245   2.091   2.115
 5794TIP3    H117327   7.337   2.084   2.142
 5794TIP3    H217328   7.244   2.161   2.049
 5795TIP3   OH217329   7.997   5.964   6.645
 5795TIP3    H117330   7.958   5.990   6.729
 5795TIP3    H217331   8.034   6.044   6.610
 5796TIP3   OH217332   4.307   0.327   2.124
 5796TIP3    H117333   4.381   0.375   2.161
 5796TIP3    H217334   4.240   0.331   2.192
 5797TIP3   OH217335   3.730   7.594   6.681
 5797TIP3    H117336   3.824   7.602   6.669
 5797TIP3    H217337   3.704   7.521   6.624
 5798TIP3   OH217338   7.514   5.715   1.386
 5798TIP3    H117339   7.420   5.733   1.393
 5798TIP3    H217340   7.549   5.741   1.471
 5799TIP3   OH217341   2.000   4.705   2.341
 5799TIP3    H117342   2.003   4.761   2.263
 5799TIP3    H217343   1.909   4.675   2.345
 5800TIP3   OH217344   6.520   5.222   4.378
 5800TIP3    H117345   6.447   5.279   4.355
 5800TIP3    H217346   6.579   5.226   4.302
 5801TIP3   OH217347   1.283   6.990   3.469
 5801TIP3    H117348   1.245   7.055   3.528
 5801TIP3    H217349   1.215   6.974   3.404
 5802TIP3   OH217350   5.209   5.432   2.553
 5802TIP3    H117351   5.179   5.341   2.552
 5802TIP3    H217352   5.246   5.445   2.640
 5803TIP3   OH217353   7.705   3.305   4.500
 5803TIP3    H117354   7.667   3.390   4.523
 5803TIP3    H217355   7.786   3.327   4.454
 5804TIP3   OH217356   3.086   5.618   6.419
 5804TIP3    H117357   3.012   5.677   6.409
 5804TIP3    H217358   3.161   5.668   6.387
 5805TIP3   OH217359   7.817   0.644   3.779
 5805TIP3    H117360   7.785   0.555   3.790
 5805TIP3    H217361   7.747   0.688   3.731
 5806TIP3   OH217362   2.170   3.138   1.924
 5806TIP3    H117363   2.085   3.096   1.934
 5806TIP3    H217364   2.222   3.104   1.997
 5807TIP3   OH217365   6.021   0.065   0.925
 5807TIP3    H117366   6.023   0.060   0.829
 5807TIP3    H217367   5.944   0.118   0.944
 5808TIP3   OH217368   5.497   1.280   6.352
 5808TIP3    H117369   5.493   1.350   6.418
 5808TIP3    H217370   5.590   1.271   6.332
 5809TIP3   OH217371   6.862   3.026   2.994
 5809TIP3    H117372   6.797   2.963   2.963
 5809TIP3    H217373   6.911   3.050   2.916
 5810TIP3   OH217374   5.052   0.224   4.035
 5810TIP3    H117375   4.990   0.241   3.964
 5810TIP3    H217376   5.117   0.165   3.996
 5811TIP3   OH217377   2.500   2.316   6.259
 5811TIP3    H117378   2.452   2.389   6.298
 5811TIP3    H217379   2.580   2.309   6.310
 5812TIP3   OH217380   6.473   1.644   3.250
 5812TIP3    H117381   6.465   1.565   3.197
 5812TIP3    H217382   6.384   1.677   3.257
 5813TIP3   OH217383   2.179   1.862   5.695
 5813TIP3    H117384   2.144   1.866   5.784
 5813TIP3    H217385   2.157   1.774   5.665
 5814TIP3   OH217386   0.384   3.806   5.420
 5814TIP3    H117387   0.341   3.753   5.353
 5814TIP3    H217388   0.364   3.763   5.502
 5815TIP3   OH217389   3.154   6.678   5.940
 5815TIP3    H117390   3.174   6.590   5.907
 5815TIP3    H217391   3.216   6.735   5.894
 5816TIP3   OH217392   0.993   5.794   6.069
 5816TIP3    H117393   0.933   5.783   5.995
 5816TIP3    H217394   0.986   5.711   6.118
 5817TIP3   OH217395   7.327   3.222   6.216
 5817TIP3    H117396   7.297   3.277   6.289
 5817TIP3    H217397   7.422   3.218   6.227
 5818TIP3   OH217398   5.169   0.999   1.763
 5818TIP3    H117399   5.130   0.940   1.827
 5818TIP3    H217400   5.170   1.084   1.806
 5819TIP3   OH217401   6.425   6.400   0.531
 5819TIP3    H117402   6.501   6.452   0.507
 5819TIP3    H217403   6.432   6.389   0.626
 5820TIP3   OH217404   0.668   7.495   4.864
 5820TIP3    H117405   0.659   7.436   4.939
 5820TIP3    H217406   0.625   7.576   4.893
 5821TIP3   OH217407   6.061   5.552   6.768
 5821TIP3    H117408   6.094   5.478   6.819
 5821TIP3    H217409   6.126   5.621   6.781
 5822TIP3   OH217410   6.918   4.308   6.633
 5822TIP3    H117411   6.952   4.302   6.722
 5822TIP3    H217412   6.836   4.259   6.635
 5823TIP3   OH217413   5.715   5.032   0.313
 5823TIP3    H117414   5.639   4.985   0.349
 5823TIP3    H217415   5.786   5.013   0.375
 5824TIP3   OH217416   2.283   0.355   5.499
 5824TIP3    H117417   2.230   0.380   5.423
 5824TIP3    H217418   2.226   0.370   5.574
 5825TIP3   OH217419   6.667   4.128   5.855
 5825TIP3    H117420   6.594   4.188   5.839
 5825TIP3    H217421   6.633   4.064   5.917
 5826TIP3   OH217422   3.570   5.734   3.725
 5826TIP3    H117423   3.503   5.776   3.671
 5826TIP3    H217424   3.645   5.793   3.721
 5827TIP3   OH217425   6.104   6.444   1.982
 5827TIP3    H117426   6.054   6.446   1.901
 5827TIP3    H217427   6.177   6.505   1.967
 5828TIP3   OH217428   0.271   4.716   0.785
 5828TIP3    H117429   0.238   4.797   0.825
 5828TIP3    H217430   0.285   4.738   0.693
 5829TIP3   OH217431   6.733   6.552   0.512
 5829TIP3    H117432   6.740   6.550   0.607
 5829TIP3    H217433   6.789   6.480   0.482
 5830TIP3   OH217434   2.295   1.701   2.162
 5830TIP3    H117435   2.262   1.776   2.212
 5830TIP3    H217436   2.218   1.665   2.118
 5831TIP3   OH217437   0.997   1.605   0.303
 5831TIP3    H117438   0.918   1.655   0.322
 5831TIP3    H217439   1.069   1.664   0.325
 5832TIP3   OH217440   1.230   0.416   0.155
 5832TIP3    H117441   1.323   0.399   0.172
 5832TIP3    H217442   1.198   0.457   0.235
 5833TIP3   OH217443   2.641   3.815   0.909
 5833TIP3    H117444   2.591   3.764   0.973
 5833TIP3    H217445   2.619   3.906   0.929
 5834TIP3   OH217446   2.034   3.279   2.906
 5834TIP3    H117447   2.109   3.337   2.919
 5834TIP3    H217448   1.958   3.334   2.921
 5835TIP3   OH217449   1.125   1.414   6.035
 5835TIP3    H117450   1.141   1.474   6.107
 5835TIP3    H217451   1.204   1.359   6.031
 5836TIP3   OH217452   2.857   6.347   6.117
 5836TIP3    H117453   2.786   6.316   6.061
 5836TIP3    H217454   2.821   6.346   6.206
 5837TIP3   OH217455   0.485   7.062   0.366
 5837TIP3    H117456   0.534   7.031   0.290
 5837TIP3    H217457   0.495   6.993   0.431
 5838TIP3   OH217458   5.089   2.755   0.941
 5838TIP3    H117459   5.055   2.690   1.002
 5838TIP3    H217460   5.111   2.705   0.862
 5839TIP3   OH217461   0.461   0.707   2.654
 5839TIP3    H117462   0.537   0.756   2.687
 5839TIP3    H217463   0.402   0.775   2.620
 5840TIP3   OH217464   7.551   7.075   5.421
 5840TIP3    H117465   7.607   7.149   5.396
 5840TIP3    H217466   7.592   7.040   5.500
 5841TIP3   OH217467   2.415   3.958   3.302
 5841TIP3    H117468   2.440   3.957   3.395
 5841TIP3    H217469   2.498   3.969   3.255
 5842TIP3   OH217470   7.187   6.495   4.752
 5842TIP3    H117471   7.121   6.538   4.697
 5842TIP3    H217472   7.143   6.418   4.787
 5843TIP3   OH217473   7.631   5.456   6.716
 5843TIP3    H117474   7.599   5.438   6.804
 5843TIP3    H217475   7.618   5.551   6.705
 5844TIP3   OH217476   7.263   3.367   5.599
 5844TIP3    H117477   7.315   3.290   5.622
 5844TIP3    H217478   7.172   3.336   5.602
 5845TIP3   OH217479   8.058   5.605   2.221
 5845TIP3    H117480   7.967   5.620   2.244
 5845TIP3    H217481   8.106   5.679   2.259
 5846TIP3   OH217482   3.152   5.327   3.175
 5846TIP3    H117483   3.158   5.421   3.195
 5846TIP3    H217484   3.095   5.292   3.244
 5847TIP3   OH217485   0.125   5.445   2.989
 5847TIP3    H117486   0.178   5.374   3.024
 5847TIP3    H217487   0.078   5.406   2.916
 5848TIP3   OH217488   7.588   5.737   6.677
 5848TIP3    H117489   7.661   5.750   6.616
 5848TIP3    H217490   7.595   5.809   6.739
 5849TIP3   OH217491   6.332   0.615   5.163
 5849TIP3    H117492   6.419   0.577   5.145
 5849TIP3    H217493   6.350   0.706   5.183
 5850TIP3   OH217494   1.109   4.600   3.450
 5850TIP3    H117495   1.017   4.619   3.463
 5850TIP3    H217496   1.135   4.551   3.528
 5851TIP3   OH217497   6.540   6.250   1.788
 5851TIP3    H117498   6.594   6.297   1.852
 5851TIP3    H217499   6.599   6.184   1.751
 5852TIP3   OH217500   0.258   5.351   4.437
 5852TIP3    H117501   0.248   5.301   4.356
 5852TIP3    H217502   0.172   5.389   4.453
 5853TIP3   OH217503   6.072   6.783   3.765
 5853TIP3    H117504   6.105   6.778   3.854
 5853TIP3    H217505   6.133   6.841   3.719
 5854TIP3   OH217506   7.050   7.562   4.407
 5854TIP3    H117507   6.959   7.587   4.427
 5854TIP3    H217508   7.054   7.469   4.431
 5855TIP3   OH217509   0.036   5.222   1.791
 5855TIP3    H117510   0.052   5.214   1.885
 5855TIP3    H217511   0.112   5.182   1.750
 5856TIP3   OH217512   0.910   3.900   4.021
 5856TIP3    H117513   0.929   3.878   4.112
 5856TIP3    H217514   0.930   3.993   4.014
 5857TIP3   OH217515   2.462   7.589   3.905
 5857TIP3    H117516   2.526   7.622   3.842
 5857TIP3    H217517   2.381   7.635   3.884
 5858TIP3   OH217518   4.657   4.328   3.455
 5858TIP3    H117519   4.591   4.392   3.427
 5858TIP3    H217520   4.738   4.358   3.415
 5859TIP3   OH217521   5.513   7.081   5.921
 5859TIP3    H117522   5.524   7.023   5.996
 5859TIP3    H217523   5.510   7.022   5.845
 5860TIP3   OH217524   6.541   3.826   4.228
 5860TIP3    H117525   6.602   3.789   4.292
 5860TIP3    H217526   6.506   3.905   4.270
 5861TIP3   OH217527   3.714   6.701   1.114
 5861TIP3    H117528   3.672   6.786   1.114
 5861TIP3    H217529   3.741   6.688   1.205
 5862TIP3   OH217530   0.163   0.084   3.231
 5862TIP3    H117531   0.112   0.010   3.266
 5862TIP3    H217532   0.126   0.100   3.144
 5863TIP3   OH217533   1.358   5.786   1.840
 5863TIP3    H117534   1.450   5.769   1.822
 5863TIP3    H217535   1.345   5.878   1.813
 5864TIP3   OH217536   4.721   5.524   4.373
 5864TIP3    H117537   4.753   5.509   4.284
 5864TIP3    H217538   4.675   5.444   4.396
 5865TIP3   OH217539   0.459   1.155   0.193
 5865TIP3    H117540   0.492   1.084   0.138
 5865TIP3    H217541   0.442   1.114   0.278
 5866TIP3   OH217542   2.809   1.320   0.678
 5866TIP3    H117543   2.715   1.315   0.663
 5866TIP3    H217544   2.845   1.354   0.596
 5867TIP3   OH217545   7.477   0.979   2.565
 5867TIP3    H117546   7.382   0.968   2.558
 5867TIP3    H217547   7.493   1.070   2.537
 5868TIP3   OH217548   6.710   2.750   4.981
 5868TIP3    H117549   6.770   2.774   5.052
 5868TIP3    H217550   6.695   2.832   4.935
 5869TIP3   OH217551   0.822   6.718   0.823
 5869TIP3    H117552   0.793   6.654   0.758
 5869TIP3    H217553   0.742   6.757   0.857
 5870TIP3   OH217554   6.892   2.529   4.229
 5870TIP3    H117555   6.829   2.601   4.227
 5870TIP3    H217556   6.920   2.520   4.138
 5871TIP3   OH217557   1.233   5.916   1.501
 5871TIP3    H117558   1.217   5.973   1.425
 5871TIP3    H217559   1.217   5.828   1.467
 5872TIP3   OH217560   1.868   6.341   2.254
 5872TIP3    H117561   1.821   6.357   2.172
 5872TIP3    H217562   1.852   6.420   2.306
 5873TIP3   OH217563   2.157   3.740   5.111
 5873TIP3    H117564   2.221   3.793   5.064
 5873TIP3    H217565   2.092   3.716   5.045
 5874TIP3   OH217566   1.089   2.080   0.967
 5874TIP3    H117567   1.079   2.175   0.961
 5874TIP3    H217568   1.167   2.060   0.915
 5875TIP3   OH217569   8.229   7.040   6.190
 5875TIP3    H117570   8.283   7.110   6.154
 5875TIP3    H217571   8.185   7.002   6.113
 5876TIP3   OH217572   3.266   5.232   2.959
 5876TIP3    H117573   3.209   5.158   2.940
 5876TIP3    H217574   3.224   5.277   3.032
 5877TIP3   OH217575   5.850   1.283   5.653
 5877TIP3    H117576   5.825   1.258   5.564
 5877TIP3    H217577   5.786   1.349   5.678
 5878TIP3   OH217578   3.700   7.676   1.745
 5878TIP3    H117579   3.641   7.729   1.691
 5878TIP3    H217580   3.770   7.650   1.685
 5879TIP3   OH217581   7.739   7.367   6.276
 5879TIP3    H117582   7.822   7.405   6.246
 5879TIP3    H217583   7.692   7.346   6.196
 5880TIP3   OH217584   1.794   5.791   1.161
 5880TIP3    H117585   1.878   5.800   1.207
 5880TIP3    H217586   1.735   5.849   1.209
 5881TIP3   OH217587   5.787   7.719   4.329
 5881TIP3    H117588   5.806   7.806   4.293
 5881TIP3    H217589   5.857   7.704   4.392
 5882TIP3   OH217590   0.095   2.433   0.441
 5882TIP3    H117591   0.132   2.506   0.392
 5882TIP3    H217592   0.167   2.371   0.449
 5883TIP3   OH217593   4.741   6.635   4.073
 5883TIP3    H117594   4.740   6.569   4.003
 5883TIP3    H217595   4.664   6.689   4.056
 5884TIP3   OH217596   6.442   3.913   3.331
 5884TIP3    H117597   6.425   3.918   3.237
 5884TIP3    H217598   6.406   3.995   3.366
 5885TIP3   OH217599   7.698   2.545   3.869
 5885TIP3    H117600   7.695   2.597   3.789
 5885TIP3    H217601   7.672   2.605   3.938
 5886TIP3   OH217602   6.159   6.307   0.824
 5886TIP3    H117603   6.195   6.228   0.865
 5886TIP3    H217604   6.142   6.280   0.733
 5887TIP3   OH217605   1.105   3.957   2.311
 5887TIP3    H117606   1.187   4.006   2.318
 5887TIP3    H217607   1.110   3.890   2.379
 5888TIP3   OH217608   0.879   1.745   1.246
 5888TIP3    H117609   0.835   1.718   1.165
 5888TIP3    H217610   0.908   1.834   1.230
 5889TIP3   OH217611   0.815   3.034   3.955
 5889TIP3    H117612   0.872   3.109   3.973
 5889TIP3    H217613   0.809   2.988   4.039
 5890TIP3   OH217614   0.909   3.748   0.968
 5890TIP3    H117615   0.923   3.715   1.056
 5890TIP3    H217616   0.829   3.704   0.938
 5891TIP3   OH217617   6.240   4.504   3.794
 5891TIP3    H117618   6.266   4.594   3.814
 5891TIP3    H217619   6.146   4.502   3.814
 5892TIP3   OH217620   1.616   3.021   1.541
 5892TIP3    H117621   1.676   2.947   1.542
 5892TIP3    H217622   1.591   3.034   1.633
 5893TIP3   OH217623   6.923   1.476   0.932
 5893TIP3    H117624   6.978   1.499   0.857
 5893TIP3    H217625   6.894   1.387   0.914
 5894TIP3   OH217626   4.936   6.570   0.256
 5894TIP3    H117627   4.885   6.490   0.262
 5894TIP3    H217628   4.876   6.634   0.216
 5895TIP3   OH217629   8.241   6.470   0.851
 5895TIP3    H117630   8.163   6.419   0.831
 5895TIP3    H217631   8.209   6.547   0.898
 5896TIP3   OH217632   5.407   5.985   5.627
 5896TIP3    H117633   5.430   5.946   5.712
 5896TIP3    H217634   5.311   5.994   5.630
 5897TIP3   OH217635   8.154   3.397   3.009
 5897TIP3    H117636   8.199   3.370   3.089
 5897TIP3    H217637   8.099   3.470   3.037
 5898TIP3   OH217638   0.390   0.886   3.410
 5898TIP3    H117639   0.459   0.876   3.345
 5898TIP3    H217640   0.405   0.973   3.447
 5899TIP3   OH217641   7.161   2.069   1.712
 5899TIP3    H117642   7.115   2.076   1.629
 5899TIP3    H217643   7.177   1.975   1.723
 5900TIP3   OH217644   6.574   7.017   5.099
 5900TIP3    H117645   6.576   6.942   5.039
 5900TIP3    H217646   6.541   6.982   5.181
 5901TIP3   OH217647   6.406   3.859   4.738
 5901TIP3    H117648   6.454   3.793   4.689
 5901TIP3    H217649   6.372   3.919   4.672
 5902TIP3   OH217650   7.317   2.161   2.418
 5902TIP3    H117651   7.310   2.150   2.513
 5902TIP3    H217652   7.227   2.169   2.387
 5903TIP3   OH217653   7.170   4.214   6.107
 5903TIP3    H117654   7.178   4.307   6.088
 5903TIP3    H217655   7.077   4.195   6.097
 5904TIP3   OH217656   7.205   0.724   2.718
 5904TIP3    H117657   7.245   0.681   2.794
 5904TIP3    H217658   7.128   0.769   2.754
 5905TIP3   OH217659   1.125   1.068   3.364
 5905TIP3    H117660   1.043   1.038   3.403
 5905TIP3    H217661   1.148   1.147   3.413
 5906TIP3   OH217662   5.043   2.032   1.015
 5906TIP3    H117663   4.949   2.040   1.002
 5906TIP3    H217664   5.079   2.023   0.927
 5907TIP3   OH217665   6.037   7.692   4.462
 5907TIP3    H117666   6.093   7.714   4.387
 5907TIP3    H217667   6.084   7.726   4.538
 5908TIP3   OH217668   4.926   0.461   2.972
 5908TIP3    H117669   4.972   0.448   2.889
 5908TIP3    H217670   4.833   0.464   2.948
 5909TIP3   OH217671   7.535   3.003   2.228
 5909TIP3    H117672   7.472   2.948   2.274
 5909TIP3    H217673   7.499   3.012   2.140
 5910TIP3   OH217674   4.171   4.629   4.800
 5910TIP3    H117675   4.129   4.543   4.806
 5910TIP3    H217676   4.241   4.626   4.865
 5911TIP3   OH217677   0.529   4.109   5.123
 5911TIP3    H117678   0.543   4.018   5.096
 5911TIP3    H217679   0.602   4.157   5.083
 5912TIP3   OH217680   6.743   0.456   1.095
 5912TIP3    H117681   6.762   0.364   1.113
 5912TIP3    H217682   6.672   0.478   1.155
 5913TIP3   OH217683   6.054   4.143   2.626
 5913TIP3    H117684   6.016   4.064   2.666
 5913TIP3    H217685   5.978   4.195   2.599
 5914TIP3   OH217686   3.189   0.829   6.649
 5914TIP3    H117687   3.268   0.884   6.653
 5914TIP3    H217688   3.183   0.789   6.735
 5915TIP3   OH217689   4.240   6.637   6.504
 5915TIP3    H117690   4.320   6.669   6.462
 5915TIP3    H217691   4.257   6.545   6.522
 5916TIP3   OH217692   4.097   4.389   4.843
 5916TIP3    H117693   4.009   4.370   4.812
 5916TIP3    H217694   4.154   4.331   4.793
 5917TIP3   OH217695   3.114   1.142   2.088
 5917TIP3    H117696   3.082   1.131   2.178
 5917TIP3    H217697   3.209   1.136   2.096
 5918TIP3   OH217698   2.559   1.666   6.384
 5918TIP3    H117699   2.642   1.704   6.414
 5918TIP3    H217700   2.585   1.587   6.337
 5919TIP3   OH217701   1.313   0.568   5.637
 5919TIP3    H117702   1.258   0.646   5.640
 5919TIP3    H217703   1.302   0.528   5.724
 5920TIP3   OH217704   2.411   2.121   0.277
 5920TIP3    H117705   2.405   2.142   0.370
 5920TIP3    H217706   2.411   2.025   0.275
 5921TIP3   OH217707   5.919   6.838   2.421
 5921TIP3    H117708   5.901   6.819   2.513
 5921TIP3    H217709   5.993   6.781   2.398
 5922TIP3   OH217710   5.002   1.718   1.579
 5922TIP3    H117711   4.958   1.778   1.640
 5922TIP3    H217712   5.082   1.765   1.554
 5923TIP3   OH217713   3.501   6.239   4.021
 5923TIP3    H117714   3.527   6.173   3.956
 5923TIP3    H217715   3.497   6.191   4.104
 5924TIP3   OH217716   7.957   2.943   2.834
 5924TIP3    H117717   7.974   2.905   2.748
 5924TIP3    H217718   7.945   3.037   2.816
 5925TIP3   OH217719   5.354   1.034   3.420
 5925TIP3    H117720   5.374   1.044   3.327
 5925TIP3    H217721   5.322   1.120   3.447
 5926TIP3   OH217722   5.296   6.044   5.268
 5926TIP3    H117723   5.239   5.992   5.325
 5926TIP3    H217724   5.287   6.005   5.182
 5927TIP3   OH217725   4.722   1.876   4.289
 5927TIP3    H117726   4.807   1.836   4.312
 5927TIP3    H217727   4.719   1.957   4.341
 5928TIP3   OH217728   2.446   5.093   0.855
 5928TIP3    H117729   2.364   5.140   0.867
 5928TIP3    H217730   2.478   5.123   0.770
 5929TIP3   OH217731   5.762   2.003   4.771
 5929TIP3    H117732   5.790   1.935   4.711
 5929TIP3    H217733   5.738   2.077   4.715
 5930TIP3   OH217734   6.149   0.545   3.384
 5930TIP3    H117735   6.089   0.486   3.429
 5930TIP3    H217736   6.176   0.497   3.306
 5931TIP3   OH217737   4.652   4.178   4.410
 5931TIP3    H117738   4.709   4.150   4.338
 5931TIP3    H217739   4.682   4.266   4.432
 5932TIP3   OH217740   4.227   3.243   2.725
 5932TIP3    H117741   4.201   3.312   2.786
 5932TIP3    H217742   4.315   3.268   2.696
 5933TIP3   OH217743   7.374   3.704   5.727
 5933TIP3    H117744   7.377   3.629   5.787
 5933TIP3    H217745   7.437   3.766   5.764
 5934TIP3   OH217746   3.346   4.922   3.855
 5934TIP3    H117747   3.407   4.988   3.888
 5934TIP3    H217748   3.342   4.856   3.923
 5935TIP3   OH217749   5.556   3.819   0.456
 5935TIP3    H117750   5.495   3.892   0.445
 5935TIP3    H217751   5.607   3.817   0.376
 5936TIP3   OH217752   8.211   6.323   4.002
 5936TIP3    H117753   8.133   6.274   4.029
 5936TIP3    H217754   8.263   6.330   4.083
 5937TIP3   OH217755   1.719   7.028   6.597
 5937TIP3    H117756   1.678   6.973   6.530
 5937TIP3    H217757   1.683   6.997   6.679
 5938TIP3   OH217758   1.175   5.284   0.820
 5938TIP3    H117759   1.158   5.350   0.887
 5938TIP3    H217760   1.122   5.312   0.745
 5939TIP3   OH217761   5.252   6.046   3.814
 5939TIP3    H117762   5.284   6.032   3.903
 5939TIP3    H217763   5.159   6.065   3.825
 5940TIP3   OH217764   4.861   2.696   4.892
 5940TIP3    H117765   4.950   2.726   4.911
 5940TIP3    H217766   4.873   2.607   4.859
 5941TIP3   OH217767   8.102   5.349   5.601
 5941TIP3    H117768   8.143   5.399   5.530
 5941TIP3    H217769   8.010   5.342   5.575
 5942TIP3   OH217770   4.037   5.600   3.739
 5942TIP3    H117771   3.991   5.591   3.823
 5942TIP3    H217772   4.101   5.528   3.739
 5943TIP3   OH217773   2.906   1.249   4.609
 5943TIP3    H117774   2.910   1.171   4.553
 5943TIP3    H217775   2.869   1.317   4.553
 5944TIP3   OH217776   4.457   4.857   3.971
 5944TIP3    H117777   4.462   4.858   4.067
 5944TIP3    H217778   4.451   4.765   3.948
 5945TIP3   OH217779   1.001   6.353   2.342
 5945TIP3    H117780   0.944   6.350   2.265
 5945TIP3    H217781   1.090   6.355   2.307
 5946TIP3   OH217782   4.594   7.360   1.023
 5946TIP3    H117783   4.665   7.316   1.071
 5946TIP3    H217784   4.587   7.311   0.941
 5947TIP3   OH217785   4.472   2.662   4.496
 5947TIP3    H117786   4.540   2.694   4.554
 5947TIP3    H217787   4.517   2.603   4.436
 5948TIP3   OH217788   5.754   7.388   0.929
 5948TIP3    H117789   5.715   7.469   0.898
 5948TIP3    H217790   5.729   7.322   0.864
 5949TIP3   OH217791   6.135   0.145   2.728
 5949TIP3    H117792   6.064   0.208   2.715
 5949TIP3    H217793   6.153   0.110   2.640
 5950TIP3   OH217794   7.533   0.347   1.445
 5950TIP3    H117795   7.442   0.361   1.418
 5950TIP3    H217796   7.527   0.290   1.522
 5951TIP3   OH217797   2.372   7.328   6.653
 5951TIP3    H117798   2.404   7.343   6.742
 5951TIP3    H217799   2.355   7.416   6.618
 5952TIP3   OH217800   1.672   5.807   6.035
 5952TIP3    H117801   1.708   5.851   6.112
 5952TIP3    H217802   1.747   5.760   5.998
 5953TIP3   OH217803   4.813   2.469   4.021
 5953TIP3    H117804   4.863   2.527   4.078
 5953TIP3    H217805   4.872   2.396   4.004
 5954TIP3   OH217806   5.209   4.546   3.897
 5954TIP3    H117807   5.191   4.640   3.888
 5954TIP3    H217808   5.245   4.521   3.812
 5955TIP3   OH217809   4.911   5.814   1.711
 5955TIP3    H117810   4.945   5.745   1.768
 5955TIP3    H217811   4.820   5.827   1.740
 5956TIP3   OH217812   7.374   2.522   0.413
 5956TIP3    H117813   7.364   2.572   0.332
 5956TIP3    H217814   7.456   2.553   0.451
 5957TIP3   OH217815   4.179   1.983   4.255
 5957TIP3    H117816   4.253   2.001   4.314
 5957TIP3    H217817   4.217   1.931   4.184
 5958TIP3   OH217818   6.210   4.371   4.284
 5958TIP3    H117819   6.147   4.307   4.317
 5958TIP3    H217820   6.293   4.345   4.325
 5959TIP3   OH217821   0.117   2.339   3.336
 5959TIP3    H117822   0.120   2.433   3.319
 5959TIP3    H217823   0.092   2.332   3.428
 5960TIP3   OH217824   2.956   3.980   3.638
 5960TIP3    H117825   2.958   4.040   3.564
 5960TIP3    H217826   2.870   3.938   3.632
 5961TIP3   OH217827   2.831   4.589   4.029
 5961TIP3    H117828   2.774   4.518   4.002
 5961TIP3    H217829   2.855   4.633   3.947
 5962TIP3   OH217830   6.265   1.051   0.851
 5962TIP3    H117831   6.171   1.047   0.838
 5962TIP3    H217832   6.282   1.143   0.872
 5963TIP3   OH217833   7.478   2.128   3.453
 5963TIP3    H117834   7.565   2.166   3.466
 5963TIP3    H217835   7.447   2.168   3.371
 5964TIP3   OH217836   0.588   2.290   5.921
 5964TIP3    H117837   0.493   2.295   5.910
 5964TIP3    H217838   0.605   2.342   5.999
 5965TIP3   OH217839   0.098   4.739   2.373
 5965TIP3    H117840   0.013   4.703   2.350
 5965TIP3    H217841   0.086   4.778   2.460
 5966TIP3   OH217842   7.741   2.243   4.534
 5966TIP3    H117843   7.685   2.268   4.460
 5966TIP3    H217844   7.770   2.154   4.513
 5967TIP3   OH217845   6.070   3.821   6.434
 5967TIP3    H117846   6.145   3.764   6.450
 5967TIP3    H217847   6.049   3.858   6.520
 5968TIP3   OH217848   4.754   2.492   0.513
 5968TIP3    H117849   4.805   2.412   0.509
 5968TIP3    H217850   4.679   2.476   0.456
 5969TIP3   OH217851   4.096   7.521   3.518
 5969TIP3    H117852   4.005   7.552   3.524
 5969TIP3    H217853   4.124   7.545   3.430
 5970TIP3   OH217854   0.627   3.128   0.853
 5970TIP3    H117855   0.683   3.051   0.865
 5970TIP3    H217856   0.594   3.121   0.763
 5971TIP3   OH217857   6.331   0.117   3.930
 5971TIP3    H117858   6.276   0.080   3.999
 5971TIP3    H217859   6.319   0.059   3.855
 5972TIP3   OH217860   5.833   4.850   1.552
 5972TIP3    H117861   5.873   4.764   1.544
 5972TIP3    H217862   5.844   4.874   1.644
 5973TIP3   OH217863   5.079   3.370   6.166
 5973TIP3    H117864   5.056   3.359   6.074
 5973TIP3    H217865   5.170   3.343   6.172
 5974TIP3   OH217866   0.742   5.445   1.946
 5974TIP3    H117867   0.710   5.520   1.897
 5974TIP3    H217868   0.718   5.369   1.893
 5975TIP3   OH217869   7.040   3.939   4.108
 5975TIP3    H117870   6.989   3.963   4.186
 5975TIP3    H217871   7.093   3.865   4.135
 5976TIP3   OH217872   3.024   7.770   1.924
 5976TIP3    H117873   3.087   7.699   1.910
 5976TIP3    H217874   3.074   7.850   1.904
 5977TIP3   OH217875   5.061   7.149   3.765
 5977TIP3    H117876   4.971   7.152   3.795
 5977TIP3    H217877   5.081   7.056   3.757
 5978TIP3   OH217878   7.464   0.815   3.874
 5978TIP3    H117879   7.503   0.902   3.876
 5978TIP3    H217880   7.503   0.773   3.797
 5979TIP3   OH217881   3.160   4.313   2.134
 5979TIP3    H117882   3.123   4.241   2.186
 5979TIP3    H217883   3.194   4.374   2.198
 5980TIP3   OH217884   5.256   5.432   3.412
 5980TIP3    H117885   5.297   5.409   3.328
 5980TIP3    H217886   5.261   5.528   3.415
 5981TIP3   OH217887   1.711   7.747   2.748
 5981TIP3    H117888   1.628   7.757   2.701
 5981TIP3    H217889   1.763   7.689   2.691
 5982TIP3   OH217890   4.247   6.858   6.140
 5982TIP3    H117891   4.218   6.799   6.210
 5982TIP3    H217892   4.222   6.813   6.060
 5983TIP3   OH217893   0.392   3.576   1.352
 5983TIP3    H117894   0.350   3.659   1.333
 5983TIP3    H217895   0.348   3.513   1.295
 5984TIP3   OH217896   4.581   3.034   3.976
 5984TIP3    H117897   4.644   3.000   3.912
 5984TIP3    H217898   4.635   3.073   4.044
 5985TIP3   OH217899   1.709   2.124   5.398
 5985TIP3    H117900   1.681   2.081   5.478
 5985TIP3    H217901   1.709   2.054   5.332
 5986TIP3   OH217902   0.738   0.501   0.764
 5986TIP3    H117903   0.753   0.481   0.856
 5986TIP3    H217904   0.818   0.545   0.736
 5987TIP3   OH217905   5.642   6.476   1.989
 5987TIP3    H117906   5.705   6.526   1.938
 5987TIP3    H217907   5.695   6.424   2.049
 5988TIP3   OH217908   5.724   2.353   6.426
 5988TIP3    H117909   5.691   2.266   6.402
 5988TIP3    H217910   5.803   2.365   6.373
 5989TIP3   OH217911   3.681   3.707   5.016
 5989TIP3    H117912   3.744   3.666   5.075
 5989TIP3    H217913   3.669   3.795   5.052
 5990TIP3   OH217914   3.610   2.889   3.352
 5990TIP3    H117915   3.624   2.800   3.322
 5990TIP3    H217916   3.515   2.897   3.359
 5991TIP3   OH217917   4.265   6.890   3.911
 5991TIP3    H117918   4.259   6.795   3.907
 5991TIP3    H217919   4.183   6.917   3.952
 5992TIP3   OH217920   4.691   6.890   4.599
 5992TIP3    H117921   4.695   6.889   4.695
 5992TIP3    H217922   4.692   6.983   4.576
 5993TIP3   OH217923   3.388   4.295   4.554
 5993TIP3    H117924   3.439   4.258   4.626
 5993TIP3    H217925   3.452   4.345   4.503
 5994TIP3   OH217926   0.588   3.810   0.765
 5994TIP3    H117927   0.647   3.735   0.760
 5994TIP3    H217928   0.577   3.825   0.859
 5995TIP3   OH217929   3.099   0.354   4.085
 5995TIP3    H117930   3.053   0.381   4.006
 5995TIP3    H217931   3.036   0.371   4.156
 5996TIP3   OH217932   7.270   3.800   0.554
 5996TIP3    H117933   7.269   3.853   0.474
 5996TIP3    H217934   7.357   3.814   0.591
 5997TIP3   OH217935   4.410   5.060   2.318
 5997TIP3    H117936   4.330   5.034   2.273
 5997TIP3    H217937   4.403   5.155   2.327
 5998TIP3   OH217938   3.728   7.175   1.885
 5998TIP3    H117939   3.665   7.124   1.833
 5998TIP3    H217940   3.741   7.255   1.834
 5999TIP3   OH217941   6.921   5.252   0.514
 5999TIP3    H117942   6.970   5.316   0.463
 5999TIP3    H217943   6.988   5.199   0.557
 6000TIP3   OH217944   7.212   6.655   6.174
 6000TIP3    H117945   7.290   6.671   6.120
 6000TIP3    H217946   7.188   6.565   6.155
 6001TIP3   OH217947   5.715   4.321   4.913
 6001TIP3    H117948   5.789   4.266   4.886
 6001TIP3    H217949   5.755   4.391   4.964
 6002TIP3   OH217950   6.015   2.278   1.839
 6002TIP3    H117951   6.055   2.343   1.896
 6002TIP3    H217952   5.964   2.329   1.776
 6003TIP3   OH217953   4.015   5.083   1.524
 6003TIP3    H117954   3.954   5.126   1.464
 6003TIP3    H217955   3.997   4.989   1.514
 6004TIP3   OH217956   7.175   3.358   2.196
 6004TIP3    H117957   7.152   3.272   2.232
 6004TIP3    H217958   7.193   3.342   2.104
 6005TIP3   OH217959   6.680   3.378   0.938
 6005TIP3    H117960   6.590   3.346   0.947
 6005TIP3    H217961   6.725   3.309   0.890
 6006TIP3   OH217962   1.975   1.729   4.790
 6006TIP3    H117963   2.024   1.647   4.796
 6006TIP3    H217964   1.947   1.734   4.699
 6007TIP3   OH217965   1.742   7.552   1.520
 6007TIP3    H117966   1.676   7.538   1.452
 6007TIP3    H217967   1.823   7.570   1.471
 6008TIP3   OH217968   4.233   1.475   3.409
 6008TIP3    H117969   4.206   1.384   3.415
 6008TIP3    H217970   4.163   1.524   3.452
 6009TIP3   OH217971   1.085   4.828   5.789
 6009TIP3    H117972   1.009   4.775   5.813
 6009TIP3    H217973   1.107   4.874   5.870
 6010TIP3   OH217974   4.567   6.178   5.536
 6010TIP3    H117975   4.505   6.203   5.605
 6010TIP3    H217976   4.522   6.109   5.487
 6011TIP3   OH217977   8.289   6.456   0.576
 6011TIP3    H117978   8.283   6.463   0.671
 6011TIP3    H217979   8.219   6.513   0.544
 6012TIP3   OH217980   7.863   0.779   1.940
 6012TIP3    H117981   7.952   0.748   1.922
 6012TIP3    H217982   7.850   0.852   1.879
 6013TIP3   OH217983   4.272   7.401   2.623
 6013TIP3    H117984   4.304   7.472   2.679
 6013TIP3    H217985   4.352   7.359   2.591
 6014TIP3   OH217986   2.090   2.265   2.145
 6014TIP3    H117987   2.026   2.297   2.081
 6014TIP3    H217988   2.047   2.275   2.229
 6015TIP3   OH217989   3.053   1.514   0.938
 6015TIP3    H117990   3.141   1.548   0.925
 6015TIP3    H217991   3.060   1.458   1.015
 6016TIP3   OH217992   5.433   4.066   5.349
 6016TIP3    H117993   5.407   4.040   5.437
 6016TIP3    H217994   5.454   3.983   5.305
 6017TIP3   OH217995   8.050   6.370   3.356
 6017TIP3    H117996   8.098   6.304   3.404
 6017TIP3    H217997   8.037   6.442   3.418
 6018TIP3   OH217998   3.885   6.028   0.734
 6018TIP3    H117999   3.929   6.048   0.816
 6018TIP3    H218000   3.919   6.093   0.672
 6019TIP3   OH218001   1.953   5.987   2.813
 6019TIP3    H118002   1.890   6.033   2.757
 6019TIP3    H218003   1.899   5.940   2.877
 6020TIP3   OH218004   0.130   2.759   4.076
 6020TIP3    H118005   0.164   2.775   4.164
 6020TIP3    H218006   0.199   2.790   4.018
 6021TIP3   OH218007   2.704   7.681   5.502
 6021TIP3    H118008   2.739   7.707   5.416
 6021TIP3    H218009   2.641   7.751   5.523
 6022TIP3   OH218010   2.627   0.520   3.055
 6022TIP3    H118011   2.648   0.503   2.963
 6022TIP3    H218012   2.613   0.615   3.059
 6023TIP3   OH218013   6.352   5.609   2.326
 6023TIP3    H118014   6.257   5.596   2.329
 6023TIP3    H218015   6.377   5.587   2.237
 6024TIP3   OH218016   4.994   7.565   4.986
 6024TIP3    H118017   4.944   7.503   4.934
 6024TIP3    H218018   5.053   7.511   5.039
 6025TIP3   OH218019   0.987   3.247   6.400
 6025TIP3    H118020   0.970   3.190   6.325
 6025TIP3    H218021   0.918   3.225   6.463
 6026TIP3   OH218022   4.752   4.785   5.370
 6026TIP3    H118023   4.832   4.832   5.348
 6026TIP3    H218024   4.700   4.849   5.419
 6027TIP3   OH218025   5.855   7.161   3.304
 6027TIP3    H118026   5.872   7.254   3.293
 6027TIP3    H218027   5.892   7.140   3.390
 6028TIP3   OH218028   4.888   2.056   6.628
 6028TIP3    H118029   4.915   2.087   6.715
 6028TIP3    H218030   4.945   1.982   6.610
 6029TIP3   OH218031   1.483   4.123   0.923
 6029TIP3    H118032   1.576   4.141   0.917
 6029TIP3    H218033   1.444   4.176   0.853
 6030TIP3   OH218034   3.926   0.420   2.867
 6030TIP3    H118035   3.844   0.382   2.836
 6030TIP3    H218036   3.900   0.475   2.941
 6031TIP3   OH218037   2.672   6.689   0.145
 6031TIP3    H118038   2.636   6.682   0.056
 6031TIP3    H218039   2.605   6.736   0.194
 6032TIP3   OH218040   6.850   6.934   3.774
 6032TIP3    H118041   6.774   6.967   3.726
 6032TIP3    H218042   6.920   6.996   3.755
 6033TIP3   OH218043   5.066   5.955   3.163
 6033TIP3    H118044   5.053   6.047   3.141
 6033TIP3    H218045   5.150   5.932   3.123
 6034TIP3   OH218046   5.353   1.718   1.759
 6034TIP3    H118047   5.438   1.702   1.717
 6034TIP3    H218048   5.297   1.648   1.728
 6035TIP3   OH218049   4.675   3.537   4.879
 6035TIP3    H118050   4.602   3.503   4.930
 6035TIP3    H218051   4.689   3.626   4.913
 6036TIP3   OH218052   6.785   2.765   6.458
 6036TIP3    H118053   6.872   2.738   6.426
 6036TIP3    H218054   6.723   2.718   6.401
 6037TIP3   OH218055   3.063   7.525   4.057
 6037TIP3    H118056   3.154   7.502   4.076
 6037TIP3    H218057   3.011   7.468   4.113
 6038TIP3   OH218058   7.916   1.113   4.551
 6038TIP3    H118059   7.854   1.069   4.609
 6038TIP3    H218060   7.983   1.048   4.533
 6039TIP3   OH218061   0.045   4.592   3.161
 6039TIP3    H118062   0.063   4.633   3.076
 6039TIP3    H218063  -0.005   4.514   3.140
 6040TIP3   OH218064   5.492   7.671   1.844
 6040TIP3    H118065   5.410   7.714   1.822
 6040TIP3    H218066   5.536   7.731   1.905
 6041TIP3   OH218067   5.161   5.136   1.907
 6041TIP3    H118068   5.121   5.107   1.824
 6041TIP3    H218069   5.122   5.222   1.923
 6042TIP3   OH218070   7.733   2.368   0.652
 6042TIP3    H118071   7.772   2.444   0.609
 6042TIP3    H218072   7.746   2.384   0.745
 6043TIP3   OH218073   4.460   4.472   4.550
 6043TIP3    H118074   4.474   4.562   4.520
 6043TIP3    H218075   4.546   4.444   4.583
 6044TIP3   OH218076   1.826   2.925   6.631
 6044TIP3    H118077   1.747   2.887   6.591
 6044TIP3    H218078   1.885   2.851   6.642
 6045TIP3   OH218079   2.412   3.937   4.444
 6045TIP3    H118080   2.484   3.891   4.400
 6045TIP3    H218081   2.456   4.001   4.500
 6046TIP3   OH218082   1.821   5.293   0.719
 6046TIP3    H118083   1.791   5.294   0.629
 6046TIP3    H218084   1.842   5.201   0.737
 6047TIP3   OH218085   5.970   1.848   3.533
 6047TIP3    H118086   5.938   1.903   3.461
 6047TIP3    H218087   5.961   1.903   3.611
 6048TIP3   OH218088   3.080   1.920   3.257
 6048TIP3    H118089   3.066   1.885   3.345
 6048TIP3    H218090   3.132   1.853   3.213
 6049TIP3   OH218091   0.095   7.725   5.331
 6049TIP3    H118092   0.183   7.690   5.344
 6049TIP3    H218093   0.073   7.768   5.413
 6050TIP3   OH218094   1.565   3.891   1.935
 6050TIP3    H118095   1.627   3.959   1.963
 6050TIP3    H218096   1.494   3.896   1.999
 6051TIP3   OH218097   6.256   1.300   1.593
 6051TIP3    H118098   6.351   1.301   1.595
 6051TIP3    H218099   6.230   1.392   1.599
 6052TIP3   OH218100   2.894   1.874   4.499
 6052TIP3    H118101   2.880   1.857   4.406
 6052TIP3    H218102   2.962   1.941   4.500
 6053TIP3   OH218103   0.259   3.893   3.285
 6053TIP3    H118104   0.189   3.853   3.233
 6053TIP3    H218105   0.213   3.949   3.348
 6054TIP3   OH218106   0.358   3.215   6.136
 6054TIP3    H118107   0.291   3.276   6.106
 6054TIP3    H218108   0.384   3.249   6.222
 6055TIP3   OH218109   2.892   1.712   1.766
 6055TIP3    H118110   2.891   1.621   1.735
 6055TIP3    H218111   2.802   1.743   1.751
 6056TIP3   OH218112   4.487   4.990   4.404
 6056TIP3    H118113   4.575   5.012   4.436
 6056TIP3    H218114   4.477   4.897   4.425
 6057TIP3   OH218115   7.728   7.485   3.425
 6057TIP3    H118116   7.666   7.552   3.396
 6057TIP3    H218117   7.728   7.491   3.520
 6058TIP3   OH218118   5.177   5.588   0.310
 6058TIP3    H118119   5.266   5.624   0.314
 6058TIP3    H218120   5.189   5.493   0.312
 6059TIP3   OH218121   8.136   6.364   0.365
 6059TIP3    H118122   8.195   6.374   0.440
 6059TIP3    H218123   8.054   6.335   0.404
 6060TIP3   OH218124   3.567   7.464   2.558
 6060TIP3    H118125   3.646   7.410   2.560
 6060TIP3    H218126   3.555   7.493   2.648
 6061TIP3   OH218127   3.983   4.253   1.195
 6061TIP3    H118128   4.069   4.230   1.229
 6061TIP3    H218129   3.944   4.169   1.170
 6062TIP3   OH218130   4.877   3.634   6.270
 6062TIP3    H118131   4.888   3.605   6.180
 6062TIP3    H218132   4.841   3.558   6.315
 6063TIP3   OH218133   1.687   6.379   5.160
 6063TIP3    H118134   1.773   6.354   5.194
 6063TIP3    H218135   1.650   6.297   5.126
 6064TIP3   OH218136   0.153   0.849   6.478
 6064TIP3    H118137   0.113   0.764   6.499
 6064TIP3    H218138   0.197   0.834   6.394
 6065TIP3   OH218139   0.836   4.566   0.080
 6065TIP3    H118140   0.876   4.638   0.031
 6065TIP3    H218141   0.800   4.608   0.159
 6066TIP3   OH218142   5.099   2.170   0.085
 6066TIP3    H118143   5.029   2.114   0.117
 6066TIP3    H218144   5.055   2.247   0.049
 6067TIP3   OH218145   8.069   4.465   3.335
 6067TIP3    H118146   8.056   4.373   3.357
 6067TIP3    H218147   8.105   4.465   3.247
 6068TIP3   OH218148   6.507   5.447   3.485
 6068TIP3    H118149   6.413   5.460   3.478
 6068TIP3    H218150   6.537   5.520   3.539
 6069TIP3   OH218151   7.044   2.845   5.605
 6069TIP3    H118152   7.012   2.756   5.591
 6069TIP3    H218153   7.106   2.837   5.677
 6070TIP3   OH218154   6.913   0.934   0.402
 6070TIP3    H118155   6.855   0.929   0.326
 6070TIP3    H218156   6.908   1.026   0.429
 6071TIP3   OH218157   3.777   5.735   2.463
 6071TIP3    H118158   3.703   5.718   2.521
 6071TIP3    H218159   3.739   5.729   2.375
 6072TIP3   OH218160   6.828   1.830   2.728
 6072TIP3    H118161   6.894   1.761   2.731
 6072TIP3    H218162   6.769   1.803   2.658
 6073TIP3   OH218163   4.376   0.052   0.366
 6073TIP3    H118164   4.289   0.083   0.343
 6073TIP3    H218165   4.371   0.033   0.460
 6074TIP3   OH218166   3.086  -0.025   2.960
 6074TIP3    H118167   3.001  -0.070   2.963
 6074TIP3    H218168   3.103  -0.013   2.866
 6075TIP3   OH218169   1.342   6.091   5.337
 6075TIP3    H118170   1.335   6.107   5.243
 6075TIP3    H218171   1.273   6.027   5.356
 6076TIP3   OH218172   4.629   0.605   0.975
 6076TIP3    H118173   4.545   0.640   1.005
 6076TIP3    H218174   4.686   0.681   0.967
 6077TIP3   OH218175   7.660   6.497   5.079
 6077TIP3    H118176   7.654   6.518   4.986
 6077TIP3    H218177   7.575   6.460   5.101
 6078TIP3   OH218178   2.267   0.687   0.715
 6078TIP3    H118179   2.264   0.600   0.677
 6078TIP3    H218180   2.177   0.703   0.745
 6079TIP3   OH218181   2.004   7.513   4.179
 6079TIP3    H118182   2.024   7.607   4.184
 6079TIP3    H218183   2.075   7.475   4.128
 6080TIP3   OH218184   2.255   5.534   5.868
 6080TIP3    H118185   2.307   5.454   5.870
 6080TIP3    H218186   2.164   5.504   5.875
 6081TIP3   OH218187   7.205   4.250   5.025
 6081TIP3    H118188   7.192   4.166   5.070
 6081TIP3    H218189   7.132   4.255   4.963
 6082TIP3   OH218190   1.729   1.739   4.566
 6082TIP3    H118191   1.678   1.790   4.630
 6082TIP3    H218192   1.690   1.651   4.571
 6083TIP3   OH218193   3.124   1.416   2.043
 6083TIP3    H118194   3.129   1.326   2.075
 6083TIP3    H218195   3.031   1.436   2.043
 6084TIP3   OH218196   3.138   7.660   0.675
 6084TIP3    H118197   3.152   7.572   0.711
 6084TIP3    H218198   3.166   7.653   0.584
 6085TIP3   OH218199   7.096   7.013   2.984
 6085TIP3    H118200   7.038   6.980   3.052
 6085TIP3    H218201   7.088   6.949   2.913
 6086TIP3   OH218202   1.192   6.059   2.232
 6086TIP3    H118203   1.202   6.149   2.264
 6086TIP3    H218204   1.117   6.064   2.172
 6087TIP3   OH218205   7.045   2.408   6.746
 6087TIP3    H118206   7.002   2.492   6.759
 6087TIP3    H218207   7.049   2.398   6.651
 6088TIP3   OH218208   2.229   3.479   1.382
 6088TIP3    H118209   2.269   3.421   1.446
 6088TIP3    H218210   2.172   3.422   1.330
 6089TIP3   OH218211   1.859   5.864   4.434
 6089TIP3    H118212   1.843   5.770   4.425
 6089TIP3    H218213   1.929   5.869   4.499
 6090TIP3   OH218214   6.158   6.677   0.366
 6090TIP3    H118215   6.246   6.713   0.377
 6090TIP3    H218216   6.169   6.604   0.306
 6091TIP3   OH218217   3.916   0.753   4.931
 6091TIP3    H118218   3.889   0.806   5.007
 6091TIP3    H218219   4.002   0.787   4.908
 6092TIP3   OH218220   2.384   2.033   4.359
 6092TIP3    H118221   2.475   2.009   4.340
 6092TIP3    H218222   2.341   1.950   4.380
 6093TIP3   OH218223   4.299   4.818   0.274
 6093TIP3    H118224   4.357   4.801   0.348
 6093TIP3    H218225   4.278   4.911   0.280
 6094TIP3   OH218226   4.103   1.833   5.966
 6094TIP3    H118227   4.132   1.804   6.053
 6094TIP3    H218228   4.176   1.811   5.908
 6095TIP3   OH218229   7.367   2.837   2.410
 6095TIP3    H118230   7.316   2.774   2.461
 6095TIP3    H218231   7.399   2.900   2.474
 6096TIP3   OH218232   5.895   2.514   6.023
 6096TIP3    H118233   5.868   2.533   5.933
 6096TIP3    H218234   5.975   2.463   6.015
 6097TIP3   OH218235   4.026   7.720   1.511
 6097TIP3    H118236   3.955   7.773   1.475
 6097TIP3    H218237   4.080   7.698   1.436
 6098TIP3   OH218238   1.914   5.999   1.533
 6098TIP3    H118239   1.955   6.011   1.448
 6098TIP3    H218240   1.921   6.083   1.577
 6099TIP3   OH218241   6.759   2.052   3.098
 6099TIP3    H118242   6.784   1.985   3.162
 6099TIP3    H218243   6.703   2.006   3.036
 6100TIP3   OH218244   3.425   0.655   3.358
 6100TIP3    H118245   3.371   0.646   3.437
 6100TIP3    H218246   3.376   0.607   3.291
 6101TIP3   OH218247   0.745   6.311   1.579
 6101TIP3    H118248   0.754   6.253   1.655
 6101TIP3    H218249   0.684   6.265   1.521
 6102TIP3   OH218250   5.829   7.052   3.648
 6102TIP3    H118251   5.812   7.046   3.742
 6102TIP3    H218252   5.923   7.069   3.642
 6103TIP3   OH218253   3.754   7.068   0.731
 6103TIP3    H118254   3.837   7.045   0.688
 6103TIP3    H218255   3.771   7.154   0.770
 6104TIP3   OH218256   5.105   0.709   4.515
 6104TIP3    H118257   5.069   0.736   4.430
 6104TIP3    H218258   5.189   0.754   4.520
 6105TIP3   OH218259   4.967   3.745   1.783
 6105TIP3    H118260   4.975   3.836   1.813
 6105TIP3    H218261   4.901   3.707   1.841
 6106TIP3   OH218262   5.857   0.127   2.512
 6106TIP3    H118263   5.941   0.082   2.505
 6106TIP3    H218264   5.792   0.057   2.522
 6107TIP3   OH218265   3.480   7.816   3.683
 6107TIP3    H118266   3.547   7.779   3.627
 6107TIP3    H218267   3.439   7.740   3.725
 6108TIP3   OH218268   2.498   0.626   1.154
 6108TIP3    H118269   2.571   0.688   1.159
 6108TIP3    H218270   2.536   0.548   1.114
 6109TIP3   OH218271   7.042   4.474   0.876
 6109TIP3    H118272   6.992   4.393   0.882
 6109TIP3    H218273   7.117   4.460   0.933
 6110TIP3   OH218274   0.516   7.217   4.645
 6110TIP3    H118275   0.466   7.298   4.659
 6110TIP3    H218276   0.520   7.176   4.731
 6111TIP3   OH218277   1.440   5.367   0.779
 6111TIP3    H118278   1.355   5.329   0.800
 6111TIP3    H218279   1.445   5.364   0.683
 6112TIP3   OH218280   6.230   3.253   6.740
 6112TIP3    H118281   6.244   3.188   6.808
 6112TIP3    H218282   6.157   3.219   6.688
 6113TIP3   OH218283   1.120   5.312   6.161
 6113TIP3    H118284   1.176   5.330   6.085
 6113TIP3    H218285   1.168   5.246   6.211
 6114TIP3   OH218286   4.645   5.528   4.946
 6114TIP3    H118287   4.703   5.507   5.019
 6114TIP3    H218288   4.606   5.612   4.970
 6115TIP3   OH218289   0.614   0.787   4.442
 6115TIP3    H118290   0.626   0.844   4.518
 6115TIP3    H218291   0.520   0.770   4.440
 6116TIP3   OH218292   4.250   5.345   4.012
 6116TIP3    H118293   4.161   5.332   4.047
 6116TIP3    H218294   4.244   5.318   3.921
 6117TIP3   OH218295   0.104   2.995   5.899
 6117TIP3    H118296   0.036   3.009   5.833
 6117TIP3    H218297   0.057   2.994   5.982
 6118TIP3   OH218298   3.999   4.200   3.554
 6118TIP3    H118299   3.925   4.248   3.591
 6118TIP3    H218300   4.012   4.239   3.467
 6119TIP3   OH218301   5.378   4.116   1.739
 6119TIP3    H118302   5.368   4.025   1.710
 6119TIP3    H218303   5.320   4.123   1.815
 6120TIP3   OH218304   0.989   5.376   2.028
 6120TIP3    H118305   0.904   5.380   1.984
 6120TIP3    H218306   1.011   5.283   2.030
 6121TIP3   OH218307   7.479   1.746   5.453
 6121TIP3    H118308   7.524   1.830   5.465
 6121TIP3    H218309   7.479   1.706   5.540
 6122TIP3   OH218310   1.617   2.966   2.343
 6122TIP3    H118311   1.631   2.872   2.333
 6122TIP3    H218312   1.550   2.973   2.410
 6123TIP3   OH218313   7.657   2.994   3.686
 6123TIP3    H118314   7.700   2.916   3.652
 6123TIP3    H218315   7.651   3.053   3.611
 6124TIP3   OH218316   6.569   7.166   4.743
 6124TIP3    H118317   6.649   7.117   4.724
 6124TIP3    H218318   6.594   7.227   4.811
 6125TIP3   OH218319   5.493   5.526   3.651
 6125TIP3    H118320   5.420   5.493   3.599
 6125TIP3    H218321   5.478   5.490   3.739
 6126TIP3   OH218322   2.192   4.761   4.641
 6126TIP3    H118323   2.280   4.728   4.658
 6126TIP3    H218324   2.205   4.850   4.609
 6127TIP3   OH218325   4.000   4.904   4.177
 6127TIP3    H118326   4.015   4.993   4.210
 6127TIP3    H218327   4.080   4.883   4.128
 6128TIP3   OH218328   5.906   6.075   3.335
 6128TIP3    H118329   5.972   6.141   3.315
 6128TIP3    H218330   5.865   6.107   3.416
 6129TIP3   OH218331   8.000   4.507   1.474
 6129TIP3    H118332   8.093   4.505   1.453
 6129TIP3    H218333   7.994   4.558   1.555
 6130TIP3   OH218334   5.692   5.514   6.263
 6130TIP3    H118335   5.707   5.452   6.335
 6130TIP3    H218336   5.740   5.592   6.287
 6131TIP3   OH218337   5.718   0.880   4.247
 6131TIP3    H118338   5.742   0.919   4.163
 6131TIP3    H218339   5.792   0.899   4.305
 6132TIP3   OH218340   4.957   7.812   4.252
 6132TIP3    H118341   4.883   7.759   4.281
 6132TIP3    H218342   4.925   7.857   4.174
 6133TIP3   OH218343   8.136   5.365   1.387
 6133TIP3    H118344   8.122   5.322   1.472
 6133TIP3    H218345   8.131   5.458   1.407
 6134TIP3   OH218346   4.661   2.441   0.097
 6134TIP3    H118347   4.644   2.507   0.030
 6134TIP3    H218348   4.672   2.359   0.048
 6135TIP3   OH218349   1.608   0.453   3.918
 6135TIP3    H118350   1.671   0.510   3.961
 6135TIP3    H218351   1.614   0.476   3.825
 6136TIP3   OH218352   0.096   5.377   2.553
 6136TIP3    H118353   0.050   5.426   2.485
 6136TIP3    H218354   0.188   5.400   2.542
 6137TIP3   OH218355   6.264   2.648   0.878
 6137TIP3    H118356   6.198   2.713   0.905
 6137TIP3    H218357   6.303   2.619   0.960
 6138TIP3   OH218358   1.511   4.629   3.200
 6138TIP3    H118359   1.540   4.549   3.243
 6138TIP3    H218360   1.461   4.676   3.266
 6139TIP3   OH218361   4.559   2.872   3.377
 6139TIP3    H118362   4.630   2.923   3.339
 6139TIP3    H218363   4.507   2.935   3.427
 6140TIP3   OH218364   1.472   3.666   3.177
 6140TIP3    H118365   1.379   3.676   3.157
 6140TIP3    H218366   1.507   3.755   3.174
 6141TIP3   OH218367   4.990   3.763   1.008
 6141TIP3    H118368   5.000   3.709   1.087
 6141TIP3    H218369   4.973   3.700   0.938
 6142TIP3   OH218370   3.879   3.587   4.707
 6142TIP3    H118371   3.932   3.663   4.730
 6142TIP3    H218372   3.835   3.611   4.626
 6143TIP3   OH218373   4.471   4.448   0.434
 6143TIP3    H118374   4.431   4.401   0.361
 6143TIP3    H218375   4.563   4.455   0.410
 6144TIP3   OH218376   6.564   5.125   0.975
 6144TIP3    H118377   6.601   5.064   1.038
 6144TIP3    H218378   6.592   5.091   0.890
 6145TIP3   OH218379   5.629   0.722   1.058
 6145TIP3    H118380   5.553   0.751   1.109
 6145TIP3    H218381   5.653   0.799   1.006
 6146TIP3   OH218382   7.886   3.488   0.177
 6146TIP3    H118383   7.979   3.472   0.195
 6146TIP3    H218384   7.870   3.575   0.213
 6147TIP3   OH218385   1.926   2.788   4.784
 6147TIP3    H118386   1.851   2.754   4.832
 6147TIP3    H218387   1.933   2.732   4.706
 6148TIP3   OH218388   7.641   5.062   6.540
 6148TIP3    H118389   7.557   5.037   6.578
 6148TIP3    H218390   7.705   5.005   6.583
 6149TIP3   OH218391   5.710   1.034   1.309
 6149TIP3    H118392   5.790   1.087   1.308
 6149TIP3    H218393   5.676   1.040   1.219
 6150TIP3   OH218394   8.002   4.385   6.149
 6150TIP3    H118395   7.912   4.354   6.150
 6150TIP3    H218396   7.995   4.476   6.119
 6151TIP3   OH218397   4.250   7.574   1.415
 6151TIP3    H118398   4.289   7.521   1.345
 6151TIP3    H218399   4.278   7.531   1.496
 6152TIP3   OH218400   6.518   4.964   1.610
 6152TIP3    H118401   6.612   4.961   1.631
 6152TIP3    H218402   6.493   4.873   1.596
 6153TIP3   OH218403   3.126   5.407   4.054
 6153TIP3    H118404   3.123   5.410   3.958
 6153TIP3    H218405   3.191   5.340   4.073
 6154TIP3   OH218406   0.840   7.093   6.041
 6154TIP3    H118407   0.782   7.017   6.047
 6154TIP3    H218408   0.795   7.153   5.981
 6155TIP3   OH218409   7.520   4.184   5.336
 6155TIP3    H118410   7.496   4.123   5.266
 6155TIP3    H218411   7.577   4.133   5.394
 6156TIP3   OH218412   5.791   7.158   1.535
 6156TIP3    H118413   5.846   7.212   1.592
 6156TIP3    H218414   5.852   7.116   1.475
 6157TIP3   OH218415   1.546   6.134   0.853
 6157TIP3    H118416   1.473   6.086   0.815
 6157TIP3    H218417   1.624   6.086   0.824
 6158TIP3   OH218418   3.599   4.955   2.589
 6158TIP3    H118419   3.561   4.955   2.677
 6158TIP3    H218420   3.644   4.871   2.582
 6159TIP3   OH218421   3.048   1.410   3.039
 6159TIP3    H118422   2.990   1.482   3.015
 6159TIP3    H218423   2.991   1.333   3.041
 6160TIP3   OH218424   0.541   1.845   6.158
 6160TIP3    H118425   0.514   1.884   6.075
 6160TIP3    H218426   0.497   1.899   6.225
 6161TIP3   OH218427   0.812   3.118   2.341
 6161TIP3    H118428   0.898   3.082   2.360
 6161TIP3    H218429   0.827   3.180   2.270
 6162TIP3   OH218430   1.131   0.675   3.385
 6162TIP3    H118431   1.095   0.747   3.333
 6162TIP3    H218432   1.168   0.615   3.321
 6163TIP3   OH218433   0.786   2.876   2.709
 6163TIP3    H118434   0.811   2.947   2.650
 6163TIP3    H218435   0.753   2.808   2.651
 6164TIP3   OH218436   3.600   3.759   6.803
 6164TIP3    H118437   3.623   3.772   6.711
 6164TIP3    H218438   3.614   3.844   6.844
 6165TIP3   OH218439   0.113   3.736   0.889
 6165TIP3    H118440   0.120   3.829   0.911
 6165TIP3    H218441   0.129   3.690   0.971
 6166TIP3   OH218442   4.198   7.258   0.957
 6166TIP3    H118443   4.280   7.216   0.984
 6166TIP3    H218444   4.130   7.206   1.000
 6167TIP3   OH218445   7.668   4.012   5.484
 6167TIP3    H118446   7.630   4.034   5.570
 6167TIP3    H218447   7.763   4.018   5.497
 6168TIP3   OH218448   0.319   0.185   5.211
 6168TIP3    H118449   0.272   0.238   5.276
 6168TIP3    H218450   0.390   0.144   5.260
 6169TIP3   OH218451   4.580   7.227   1.685
 6169TIP3    H118452   4.592   7.275   1.604
 6169TIP3    H218453   4.489   7.241   1.709
 6170TIP3   OH218454   0.126   0.594   0.354
 6170TIP3    H118455   0.175   0.606   0.273
 6170TIP3    H218456   0.180   0.536   0.407
 6171TIP3   OH218457   0.921   7.109   3.554
 6171TIP3    H118458   0.991   7.155   3.600
 6171TIP3    H218459   0.961   7.081   3.471
 6172TIP3   OH218460   2.638   5.326   3.466
 6172TIP3    H118461   2.637   5.321   3.370
 6172TIP3    H218462   2.547   5.347   3.489
 6173TIP3   OH218463   7.446   5.301   3.456
 6173TIP3    H118464   7.362   5.285   3.414
 6173TIP3    H218465   7.464   5.221   3.505
 6174TIP3   OH218466   5.054   0.261   2.049
 6174TIP3    H118467   5.043   0.355   2.067
 6174TIP3    H218468   5.146   0.244   2.067
 6175TIP3   OH218469   0.062   5.023   4.591
 6175TIP3    H118470   0.078   4.978   4.508
 6175TIP3    H218471  -0.033   5.022   4.601
 6176TIP3   OH218472   0.402   7.760   2.683
 6176TIP3    H118473   0.462   7.733   2.614
 6176TIP3    H218474   0.342   7.686   2.692
 6177TIP3   OH218475   2.963   3.303   2.862
 6177TIP3    H118476   2.956   3.386   2.909
 6177TIP3    H218477   3.055   3.300   2.834
 6178TIP3   OH218478   1.029   6.841   1.437
 6178TIP3    H118479   1.049   6.893   1.359
 6178TIP3    H218480   0.935   6.822   1.430
 6179TIP3   OH218481   3.247   0.516   3.147
 6179TIP3    H118482   3.171   0.571   3.168
 6179TIP3    H218483   3.242   0.503   3.052
 6180TIP3   OH218484   7.547   6.103   1.309
 6180TIP3    H118485   7.612   6.169   1.286
 6180TIP3    H218486   7.470   6.125   1.256
 6181TIP3   OH218487   4.317   6.601   0.275
 6181TIP3    H118488   4.376   6.642   0.212
 6181TIP3    H218489   4.345   6.637   0.360
 6182TIP3   OH218490   1.513   5.292   5.834
 6182TIP3    H118491   1.500   5.272   5.742
 6182TIP3    H218492   1.566   5.220   5.868
 6183TIP3   OH218493   4.539   1.242   3.529
 6183TIP3    H118494   4.617   1.236   3.584
 6183TIP3    H218495   4.568   1.292   3.453
 6184TIP3   OH218496   7.015   4.175   0.278
 6184TIP3    H118497   7.029   4.270   0.270
 6184TIP3    H218498   6.987   4.147   0.191
 6185TIP3   OH218499   4.468   4.330   6.700
 6185TIP3    H118500   4.563   4.326   6.715
 6185TIP3    H218501   4.459   4.339   6.605
 6186TIP3   OH218502   8.278   3.682   4.757
 6186TIP3    H118503   8.186   3.706   4.760
 6186TIP3    H218504   8.314   3.736   4.687
 6187TIP3   OH218505   5.944   4.927   0.161
 6187TIP3    H118506   5.861   4.956   0.199
 6187TIP3    H218507   6.002   4.917   0.237
 6188TIP3   OH218508   5.039   5.387   3.734
 6188TIP3    H118509   5.027   5.477   3.701
 6188TIP3    H218510   5.132   5.369   3.719
 6189TIP3   OH218511   2.986   2.491   0.633
 6189TIP3    H118512   2.974   2.435   0.557
 6189TIP3    H218513   2.917   2.464   0.694
 6190TIP3   OH218514   7.826   7.294  -0.005
 6190TIP3    H118515   7.761   7.230   0.023
 6190TIP3    H218516   7.779   7.377  -0.005
 6191TIP3   OH218517   7.522   0.031   2.703
 6191TIP3    H118518   7.492   0.014   2.792
 6191TIP3    H218519   7.584   0.104   2.712
 6192TIP3   OH218520   0.822   6.391   4.465
 6192TIP3    H118521   0.889   6.326   4.486
 6192TIP3    H218522   0.865   6.475   4.482
 6193TIP3   OH218523   4.188   0.186   3.392
 6193TIP3    H118524   4.278   0.215   3.408
 6193TIP3    H218525   4.134   0.261   3.418
 6194TIP3   OH218526   4.992   6.042   2.312
 6194TIP3    H118527   4.920   6.102   2.331
 6194TIP3    H218528   5.056   6.095   2.265
 6195TIP3   OH218529   6.490   3.276   5.594
 6195TIP3    H118530   6.408   3.307   5.555
 6195TIP3    H218531   6.480   3.293   5.688
 6196TIP3   OH218532   6.859   2.712   3.494
 6196TIP3    H118533   6.880   2.711   3.400
 6196TIP3    H218534   6.786   2.774   3.502
 6197TIP3   OH218535   8.203   7.528   1.658
 6197TIP3    H118536   8.220   7.622   1.648
 6197TIP3    H218537   8.203   7.494   1.568
 6198TIP3   OH218538   4.703   6.691   2.295
 6198TIP3    H118539   4.612   6.690   2.324
 6198TIP3    H218540   4.743   6.763   2.344
 6199TIP3   OH218541   2.041   1.096   5.818
 6199TIP3    H118542   2.124   1.074   5.862
 6199TIP3    H218543   1.974   1.076   5.883
 6200TIP3   OH218544   5.756   4.633   3.470
 6200TIP3    H118545   5.761   4.610   3.562
 6200TIP3    H218546   5.848   4.643   3.443
 6201TIP3   OH218547   2.778   1.823   5.933
 6201TIP3    H118548   2.781   1.763   6.008
 6201TIP3    H218549   2.706   1.883   5.952
 6202TIP3   OH218550   6.654   3.319   1.242
 6202TIP3    H118551   6.721   3.386   1.229
 6202TIP3    H218552   6.625   3.332   1.333
 6203TIP3   OH218553   2.528   2.827   0.072
 6203TIP3    H118554   2.499   2.780   0.150
 6203TIP3    H218555   2.459   2.810   0.007
 6204TIP3   OH218556   8.302   1.468   0.163
 6204TIP3    H118557   8.246   1.394   0.186
 6204TIP3    H218558   8.389   1.441   0.193
 6205TIP3   OH218559   7.992   6.236   2.596
 6205TIP3    H118560   7.922   6.174   2.619
 6205TIP3    H218561   8.040   6.249   2.677
 6206TIP3   OH218562   2.584   6.682   2.844
 6206TIP3    H118563   2.642   6.661   2.772
 6206TIP3    H218564   2.642   6.693   2.920
 6207TIP3   OH218565   0.512   3.809   1.050
 6207TIP3    H118566   0.531   3.715   1.042
 6207TIP3    H218567   0.416   3.814   1.047
 6208TIP3   OH218568   3.492   7.525   1.886
 6208TIP3    H118569   3.578   7.497   1.855
 6208TIP3    H218570   3.470   7.462   1.955
 6209TIP3   OH218571   0.787   2.899   5.943
 6209TIP3    H118572   0.796   2.815   5.988
 6209TIP3    H218573   0.811   2.880   5.852
 6210TIP3   OH218574   2.228   7.720   4.412
 6210TIP3    H118575   2.273   7.744   4.331
 6210TIP3    H218576   2.246   7.792   4.472
 6211TIP3   OH218577   5.675   7.444   1.891
 6211TIP3    H118578   5.633   7.434   1.976
 6211TIP3    H218579   5.631   7.519   1.851
 6212TIP3   OH218580   3.935   1.650   1.934
 6212TIP3    H118581   3.945   1.574   1.876
 6212TIP3    H218582   3.979   1.624   2.015
 6213TIP3   OH218583   2.029   0.536   1.655
 6213TIP3    H118584   2.032   0.444   1.682
 6213TIP3    H218585   2.104   0.576   1.698
 6214TIP3   OH218586   1.651   0.403   2.774
 6214TIP3    H118587   1.555   0.401   2.775
 6214TIP3    H218588   1.677   0.312   2.787
 6215TIP3   OH218589   1.408   4.606   4.626
 6215TIP3    H118590   1.482   4.622   4.685
 6215TIP3    H218591   1.335   4.651   4.667
 6216TIP3   OH218592   1.876   0.186   3.782
 6216TIP3    H118593   1.812   0.162   3.715
 6216TIP3    H218594   1.954   0.136   3.760
 6217TIP3   OH218595   2.342   7.431   1.044
 6217TIP3    H118596   2.273   7.496   1.032
 6217TIP3    H218597   2.357   7.428   1.138
 6218TIP3   OH218598   7.698   0.079   1.544
 6218TIP3    H118599   7.785   0.118   1.554
 6218TIP3    H218600   7.675   0.094   1.452
 6219TIP3   OH218601   1.747   5.915   0.510
 6219TIP3    H118602   1.822   5.949   0.462
 6219TIP3    H218603   1.679   5.902   0.444
 6220TIP3   OH218604   4.747   7.409   2.629
 6220TIP3    H118605   4.820   7.349   2.613
 6220TIP3    H218606   4.788   7.492   2.653
 6221TIP3   OH218607   2.191   2.452   3.446
 6221TIP3    H118608   2.236   2.387   3.392
 6221TIP3    H218609   2.162   2.519   3.383
 6222TIP3   OH218610   4.017   2.626   3.592
 6222TIP3    H118611   4.094   2.637   3.647
 6222TIP3    H218612   4.021   2.699   3.530
 6223TIP3   OH218613   7.068   3.603   5.200
 6223TIP3    H118614   7.157   3.594   5.234
 6223TIP3    H218615   7.078   3.651   5.118
 6224TIP3   OH218616   0.033   4.638   0.441
 6224TIP3    H118617  -0.010   4.715   0.479
 6224TIP3    H218618   0.019   4.648   0.347
 6225TIP3   OH218619   4.880   1.567   6.151
 6225TIP3    H118620   4.862   1.520   6.070
 6225TIP3    H218621   4.885   1.659   6.125
 6226TIP3   OH218622   0.789   2.390   2.896
 6226TIP3    H118623   0.719   2.385   2.961
 6226TIP3    H218624   0.828   2.476   2.909
 6227TIP3   OH218625   4.949   3.125   2.785
 6227TIP3    H118626   4.899   3.100   2.862
 6227TIP3    H218627   4.938   3.052   2.724
 6228TIP3   OH218628   7.322   4.931   1.937
 6228TIP3    H118629   7.315   4.904   1.845
 6228TIP3    H218630   7.365   4.857   1.981
 6229TIP3   OH218631   7.205   6.929   5.043
 6229TIP3    H118632   7.175   7.012   5.006
 6229TIP3    H218633   7.220   6.948   5.136
 6230TIP3   OH218634   2.864   5.749   6.332
 6230TIP3    H118635   2.863   5.830   6.280
 6230TIP3    H218636   2.827   5.683   6.273
 6231TIP3   OH218637   5.749   0.460   2.386
 6231TIP3    H118638   5.718   0.373   2.361
 6231TIP3    H218639   5.744   0.511   2.305
 6232TIP3   OH218640   5.765   7.629   3.105
 6232TIP3    H118641   5.814   7.672   3.034
 6232TIP3    H218642   5.768   7.692   3.176
 6233TIP3   OH218643   5.361   0.394   1.758
 6233TIP3    H118644   5.279   0.362   1.720
 6233TIP3    H218645   5.425   0.327   1.737
 6234TIP3   OH218646   1.326   4.168   0.193
 6234TIP3    H118647   1.274   4.091   0.168
 6234TIP3    H218648   1.393   4.133   0.252
 6235TIP3   OH218649   3.887   3.645   1.321
 6235TIP3    H118650   3.980   3.658   1.335
 6235TIP3    H218651   3.877   3.551   1.305
 6236TIP3   OH218652   0.175   3.769   4.160
 6236TIP3    H118653   0.193   3.854   4.201
 6236TIP3    H218654   0.140   3.792   4.074
 6237TIP3   OH218655   3.947   1.050   1.805
 6237TIP3    H118656   3.866   1.096   1.780
 6237TIP3    H218657   3.956   1.068   1.898
 6238TIP3   OH218658   1.901   3.859   4.678
 6238TIP3    H118659   1.966   3.927   4.697
 6238TIP3    H218660   1.880   3.871   4.586
 6239TIP3   OH218661   3.322   4.933   3.251
 6239TIP3    H118662   3.352   5.014   3.210
 6239TIP3    H218663   3.335   4.948   3.345
 6240TIP3   OH218664   5.055   1.357   4.798
 6240TIP3    H118665   5.073   1.283   4.856
 6240TIP3    H218666   4.978   1.330   4.748
 6241TIP3   OH218667   8.013   1.564   2.368
 6241TIP3    H118668   7.967   1.621   2.307
 6241TIP3    H218669   8.102   1.560   2.334
 6242TIP3   OH218670   7.406   1.673   2.164
 6242TIP3    H118671   7.325   1.723   2.173
 6242TIP3    H218672   7.388   1.610   2.093
 6243TIP3   OH218673   3.678   2.165   5.512
 6243TIP3    H118674   3.691   2.250   5.555
 6243TIP3    H218675   3.747   2.160   5.446
 6244TIP3   OH218676   1.530   2.948   3.094
 6244TIP3    H118677   1.507   2.991   3.177
 6244TIP3    H218678   1.605   2.893   3.116
 6245TIP3   OH218679   0.434   1.214   2.006
 6245TIP3    H118680   0.385   1.216   2.088
 6245TIP3    H218681   0.512   1.267   2.023
 6246TIP3   OH218682   2.996   1.672   1.420
 6246TIP3    H118683   2.962   1.758   1.394
 6246TIP3    H218684   2.920   1.625   1.454
 6247TIP3   OH218685   4.051   1.167   0.150
 6247TIP3    H118686   4.070   1.220   0.228
 6247TIP3    H218687   4.043   1.077   0.184
 6248TIP3   OH218688   4.398   4.155   1.901
 6248TIP3    H118689   4.306   4.135   1.884
 6248TIP3    H218690   4.441   4.069   1.902
 6249TIP3   OH218691   6.371   3.596   5.870
 6249TIP3    H118692   6.306   3.665   5.884
 6249TIP3    H218693   6.419   3.623   5.792
 6250TIP3   OH218694   2.757   7.010   1.148
 6250TIP3    H118695   2.781   7.096   1.115
 6250TIP3    H218696   2.662   7.007   1.143
 6251TIP3   OH218697   1.374   0.538   6.267
 6251TIP3    H118698   1.429   0.582   6.203
 6251TIP3    H218699   1.286   0.541   6.230
 6252TIP3   OH218700   1.291   7.200   1.405
 6252TIP3    H118701   1.328   7.111   1.408
 6252TIP3    H218702   1.232   7.198   1.329
 6253TIP3   OH218703   3.520   2.378   4.804
 6253TIP3    H118704   3.424   2.375   4.806
 6253TIP3    H218705   3.540   2.469   4.785
 6254TIP3   OH218706   7.484   1.038   0.940
 6254TIP3    H118707   7.427   1.082   1.004
 6254TIP3    H218708   7.571   1.075   0.957
 6255TIP3   OH218709   6.000   1.304   6.176
 6255TIP3    H118710   5.948   1.283   6.099
 6255TIP3    H218711   6.084   1.262   6.161
 6256TIP3   OH218712   4.934   3.729   3.736
 6256TIP3    H118713   4.955   3.821   3.721
 6256TIP3    H218714   4.956   3.686   3.653
 6257TIP3   OH218715   4.173   0.487   4.726
 6257TIP3    H118716   4.241   0.434   4.684
 6257TIP3    H218717   4.206   0.576   4.723
 6258TIP3   OH218718   3.793   3.697   6.261
 6258TIP3    H118719   3.796   3.778   6.211
 6258TIP3    H218720   3.728   3.643   6.216
 6259TIP3   OH218721   5.904   1.666   0.166
 6259TIP3    H118722   5.990   1.625   0.156
 6259TIP3    H218723   5.906   1.740   0.105
 6260TIP3   OH218724   6.033   4.631   5.491
 6260TIP3    H118725   6.051   4.596   5.578
 6260TIP3    H218726   6.119   4.639   5.450
 6261TIP3   OH218727   3.059   2.670   5.010
 6261TIP3    H118728   3.012   2.626   5.080
 6261TIP3    H218729   3.132   2.612   4.989
 6262TIP3   OH218730   1.032   5.422   6.440
 6262TIP3    H118731   1.068   5.395   6.355
 6262TIP3    H218732   1.062   5.513   6.450
 6263TIP3   OH218733   8.323   6.772   2.633
 6263TIP3    H118734   8.340   6.728   2.549
 6263TIP3    H218735   8.238   6.739   2.661
 6264TIP3   OH218736   5.300   7.677   5.241
 6264TIP3    H118737   5.265   7.601   5.195
 6264TIP3    H218738   5.297   7.653   5.333
 6265TIP3   OH218739   8.118   0.998   3.517
 6265TIP3    H118740   8.063   0.988   3.439
 6265TIP3    H218741   8.127   0.909   3.552
 6266TIP3   OH218742   5.292   5.874   2.174
 6266TIP3    H118743   5.381   5.851   2.147
 6266TIP3    H218744   5.249   5.790   2.188
 6267TIP3   OH218745   7.867   6.759   6.050
 6267TIP3    H118746   7.842   6.667   6.058
 6267TIP3    H218747   7.847   6.781   5.959
 6268TIP3   OH218748   4.084   1.922   3.885
 6268TIP3    H118749   4.035   1.844   3.861
 6268TIP3    H218750   4.169   1.889   3.914
 6269TIP3   OH218751   7.942   7.637   1.915
 6269TIP3    H118752   7.932   7.545   1.891
 6269TIP3    H218753   7.900   7.685   1.843
 6270TIP3   OH218754   4.729  -0.026   5.864
 6270TIP3    H118755   4.783  -0.105   5.853
 6270TIP3    H218756   4.773   0.040   5.811
 6271TIP3   OH218757   8.091   1.665   5.517
 6271TIP3    H118758   8.085   1.751   5.474
 6271TIP3    H218759   8.146   1.613   5.458
 6272TIP3   OH218760   5.284   0.906   2.699
 6272TIP3    H118761   5.312   0.900   2.608
 6272TIP3    H218762   5.361   0.938   2.746
 6273TIP3   OH218763   6.766   1.041   6.484
 6273TIP3    H118764   6.795   1.128   6.513
 6273TIP3    H218765   6.737   1.055   6.393
 6274TIP3   OH218766   2.042   3.369   4.535
 6274TIP3    H118767   2.071   3.458   4.555
 6274TIP3    H218768   2.062   3.358   4.442
 6275TIP3   OH218769   4.775   0.786   4.328
 6275TIP3    H118770   4.715   0.774   4.254
 6275TIP3    H218771   4.861   0.795   4.286
 6276TIP3   OH218772   6.860   0.861   5.367
 6276TIP3    H118773   6.822   0.897   5.447
 6276TIP3    H218774   6.797   0.793   5.340
 6277TIP3   OH218775   7.632   1.525   0.993
 6277TIP3    H118776   7.719   1.511   0.956
 6277TIP3    H218777   7.576   1.462   0.948
 6278TIP3   OH218778   6.820   3.712   4.127
 6278TIP3    H118779   6.754   3.662   4.078
 6278TIP3    H218780   6.774   3.739   4.207
 6279TIP3   OH218781   6.755   7.338   4.579
 6279TIP3    H118782   6.744   7.429   4.607
 6279TIP3    H218783   6.783   7.293   4.658
 6280TIP3   OH218784   4.007   0.465   3.167
 6280TIP3    H118785   4.088   0.425   3.137
 6280TIP3    H218786   4.030   0.555   3.187
 6281TIP3   OH218787   2.861   3.563   6.232
 6281TIP3    H118788   2.873   3.490   6.171
 6281TIP3    H218789   2.774   3.548   6.269
 6282TIP3   OH218790   0.269   7.550   1.221
 6282TIP3    H118791   0.310   7.607   1.156
 6282TIP3    H218792   0.220   7.486   1.170
 6283TIP3   OH218793   7.283   1.417   3.700
 6283TIP3    H118794   7.253   1.484   3.638
 6283TIP3    H218795   7.205   1.390   3.747
 6284TIP3   OH218796   3.536   2.761   2.624
 6284TIP3    H118797   3.558   2.685   2.569
 6284TIP3    H218798   3.528   2.725   2.712
 6285TIP3   OH218799   6.571   5.342   3.195
 6285TIP3    H118800   6.551   5.363   3.286
 6285TIP3    H218801   6.573   5.426   3.150
 6286TIP3   OH218802   2.051   2.400   1.616
 6286TIP3    H118803   2.078   2.437   1.700
 6286TIP3    H218804   2.079   2.309   1.620
 6287TIP3   OH218805   7.659   3.790   5.098
 6287TIP3    H118806   7.722   3.857   5.125
 6287TIP3    H218807   7.711   3.726   5.049
 6288TIP3   OH218808   1.279   0.638   1.699
 6288TIP3    H118809   1.359   0.615   1.651
 6288TIP3    H218810   1.257   0.559   1.748
 6289TIP3   OH218811   4.324   0.211   4.892
 6289TIP3    H118812   4.250   0.180   4.840
 6289TIP3    H218813   4.315   0.166   4.976
 6290TIP3   OH218814   3.585   4.518   1.316
 6290TIP3    H118815   3.562   4.572   1.391
 6290TIP3    H218816   3.667   4.476   1.340
 6291TIP3   OH218817   3.456   3.920   5.598
 6291TIP3    H118818   3.520   3.971   5.550
 6291TIP3    H218819   3.445   3.967   5.681
 6292TIP3   OH218820   1.411   3.514   2.432
 6292TIP3    H118821   1.386   3.493   2.343
 6292TIP3    H218822   1.459   3.596   2.425
 6293TIP3   OH218823   6.004   2.957   2.899
 6293TIP3    H118824   6.082   2.902   2.885
 6293TIP3    H218825   5.957   2.914   2.971
 6294TIP3   OH218826   3.285   7.092   6.181
 6294TIP3    H118827   3.233   7.020   6.143
 6294TIP3    H218828   3.281   7.161   6.115
 6295TIP3   OH218829   3.209   0.447   2.522
 6295TIP3    H118830   3.259   0.481   2.597
 6295TIP3    H218831   3.237   0.356   2.515
 6296TIP3   OH218832   5.364   4.648   1.950
 6296TIP3    H118833   5.387   4.558   1.926
 6296TIP3    H218834   5.439   4.679   2.003
 6297TIP3   OH218835   1.184   3.342   2.407
 6297TIP3    H118836   1.273   3.377   2.414
 6297TIP3    H218837   1.163   3.312   2.496
 6298TIP3   OH218838   7.802   1.932   3.427
 6298TIP3    H118839   7.740   1.884   3.374
 6298TIP3    H218840   7.750   1.964   3.502
 6299TIP3   OH218841   0.569   4.255   3.713
 6299TIP3    H118842   0.628   4.326   3.691
 6299TIP3    H218843   0.495   4.298   3.757
 6300TIP3   OH218844   2.000   5.730   3.114
 6300TIP3    H118845   1.980   5.640   3.140
 6300TIP3    H218846   1.935   5.749   3.046
 6301TIP3   OH218847   0.937   4.208   2.563
 6301TIP3    H118848   0.941   4.293   2.518
 6301TIP3    H218849   0.844   4.184   2.559
 6302TIP3   OH218850   3.774   1.906   5.128
 6302TIP3    H118851   3.741   1.817   5.112
 6302TIP3    H218852   3.698   1.962   5.112
 6303TIP3   OH218853   4.947   2.124   4.712
 6303TIP3    H118854   4.961   2.078   4.794
 6303TIP3    H218855   4.887   2.068   4.662
 6304TIP3   OH218856   4.162   2.292   3.350
 6304TIP3    H118857   4.099   2.286   3.422
 6304TIP3    H218858   4.196   2.203   3.341
 6305TIP3   OH218859   2.748   7.819   1.710
 6305TIP3    H118860   2.783   7.732   1.693
 6305TIP3    H218861   2.720   7.852   1.625
 6306TIP3   OH218862   1.272   0.719   2.563
 6306TIP3    H118863   1.188   0.753   2.533
 6306TIP3    H218864   1.334   0.742   2.494
 6307TIP3   OH218865   3.342   1.541   0.293
 6307TIP3    H118866   3.341   1.503   0.380
 6307TIP3    H218867   3.266   1.600   0.292
 6308TIP3   OH218868   8.292   7.561   0.245
 6308TIP3    H118869   8.259   7.639   0.290
 6308TIP3    H218870   8.223   7.539   0.183
 6309TIP3   OH218871   6.408   4.744   3.171
 6309TIP3    H118872   6.375   4.783   3.252
 6309TIP3    H218873   6.482   4.690   3.199
 6310TIP3   OH218874   0.120   7.738   4.211
 6310TIP3    H118875   0.083   7.670   4.267
 6310TIP3    H218876   0.215   7.723   4.215
 6311TIP3   OH218877   7.725   4.931   2.206
 6311TIP3    H118878   7.711   4.864   2.272
 6311TIP3    H218879   7.678   5.008   2.238
 6312TIP3   OH218880   5.238   1.421   2.860
 6312TIP3    H118881   5.172   1.483   2.828
 6312TIP3    H218882   5.258   1.366   2.784
 6313TIP3   OH218883   1.838   2.610   4.299
 6313TIP3    H118884   1.796   2.533   4.260
 6313TIP3    H218885   1.854   2.668   4.225
 6314TIP3   OH218886   0.388   6.423   0.280
 6314TIP3    H118887   0.347   6.459   0.359
 6314TIP3    H218888   0.345   6.469   0.207
 6315TIP3   OH218889   1.023   7.442   3.294
 6315TIP3    H118890   1.058   7.429   3.382
 6315TIP3    H218891   0.997   7.534   3.292
 6316TIP3   OH218892   0.646   5.225   5.177
 6316TIP3    H118893   0.673   5.281   5.251
 6316TIP3    H218894   0.569   5.269   5.141
 6317TIP3   OH218895   2.773   4.534   2.094
 6317TIP3    H118896   2.734   4.447   2.100
 6317TIP3    H218897   2.848   4.523   2.035
 6318TIP3   OH218898   1.842   1.147   0.916
 6318TIP3    H118899   1.911   1.196   0.870
 6318TIP3    H218900   1.880   1.127   1.002
 6319TIP3   OH218901   5.982   2.263   5.930
 6319TIP3    H118902   5.945   2.177   5.953
 6319TIP3    H218903   5.938   2.286   5.848
 6320TIP3   OH218904   6.805   6.073   4.997
 6320TIP3    H118905   6.774   5.996   4.948
 6320TIP3    H218906   6.757   6.146   4.958
 6321TIP3   OH218907   5.547   1.505   6.718
 6321TIP3    H118908   5.532   1.596   6.745
 6321TIP3    H218909   5.539   1.508   6.622
 6322TIP3   OH218910   4.544   0.447   0.299
 6322TIP3    H118911   4.474   0.454   0.364
 6322TIP3    H218912   4.528   0.363   0.256
 6323TIP3   OH218913   6.739   5.317   4.226
 6323TIP3    H118914   6.813   5.332   4.285
 6323TIP3    H218915   6.780   5.295   4.142
 6324TIP3   OH218916   8.143   6.863   2.014
 6324TIP3    H118917   8.099   6.933   2.063
 6324TIP3    H218918   8.236   6.881   2.024
 6325TIP3   OH218919   2.111   4.397   0.792
 6325TIP3    H118920   2.032   4.376   0.843
 6325TIP3    H218921   2.183   4.387   0.854
 6326TIP3   OH218922   3.364   0.918   0.770
 6326TIP3    H118923   3.313   0.837   0.772
 6326TIP3    H218924   3.352   0.956   0.857
 6327TIP3   OH218925   5.756   7.319   3.699
 6327TIP3    H118926   5.786   7.239   3.656
 6327TIP3    H218927   5.833   7.376   3.700
 6328TIP3   OH218928   1.966   6.660   2.031
 6328TIP3    H118929   1.916   6.691   2.107
 6328TIP3    H218930   1.900   6.624   1.972
 6329TIP3   OH218931   8.175   1.856   0.283
 6329TIP3    H118932   8.102   1.819   0.235
 6329TIP3    H218933   8.196   1.791   0.350
 6330TIP3   OH218934   6.932   7.270   6.607
 6330TIP3    H118935   7.005   7.294   6.550
 6330TIP3    H218936   6.857   7.262   6.547
 6331TIP3   OH218937   6.574   5.108   2.457
 6331TIP3    H118938   6.531   5.162   2.390
 6331TIP3    H218939   6.507   5.095   2.524
 6332TIP3   OH218940   0.859   2.384   1.760
 6332TIP3    H118941   0.875   2.306   1.708
 6332TIP3    H218942   0.788   2.430   1.714
 6333TIP3   OH218943   0.101   5.806   1.162
 6333TIP3    H118944   0.082   5.770   1.076
 6333TIP3    H218945   0.195   5.794   1.173
 6334TIP3   OH218946   6.504   6.894   6.702
 6334TIP3    H118947   6.445   6.824   6.674
 6334TIP3    H218948   6.458   6.975   6.681
 6335TIP3   OH218949   3.560   6.203   6.288
 6335TIP3    H118950   3.644   6.245   6.307
 6335TIP3    H218951   3.514   6.202   6.372
 6336TIP3   OH218952   6.473   7.755   5.795
 6336TIP3    H118953   6.480   7.819   5.866
 6336TIP3    H218954   6.524   7.679   5.826
 6337TIP3   OH218955   5.987   7.470   2.881
 6337TIP3    H118956   5.982   7.482   2.786
 6337TIP3    H218957   5.919   7.405   2.900
 6338TIP3   OH218958   6.957   1.527   1.191
 6338TIP3    H118959   6.928   1.511   1.101
 6338TIP3    H218960   6.933   1.617   1.208
 6339TIP3   OH218961   4.433   7.286   6.808
 6339TIP3    H118962   4.390   7.342   6.742
 6339TIP3    H218963   4.524   7.281   6.778
 6340TIP3   OH218964   4.237   7.379   6.618
 6340TIP3    H118965   4.242   7.415   6.530
 6340TIP3    H218966   4.149   7.403   6.649
 6341TIP3   OH218967   5.663   5.367   6.014
 6341TIP3    H118968   5.706   5.384   6.097
 6341TIP3    H218969   5.647   5.272   6.014
 6342TIP3   OH218970   2.923   0.338   2.181
 6342TIP3    H118971   2.890   0.299   2.101
 6342TIP3    H218972   2.923   0.267   2.245
 6343TIP3   OH218973   5.559   5.833   3.364
 6343TIP3    H118974   5.651   5.820   3.343
 6343TIP3    H218975   5.552   5.810   3.457
 6344TIP3   OH218976   0.732   1.468   5.800
 6344TIP3    H118977   0.666   1.508   5.743
 6344TIP3    H218978   0.766   1.541   5.852
 6345TIP3   OH218979   3.772   2.498   2.588
 6345TIP3    H118980   3.702   2.435   2.606
 6345TIP3    H218981   3.812   2.467   2.506
 6346TIP3   OH218982   1.618   2.327   6.234
 6346TIP3    H118983   1.675   2.314   6.159
 6346TIP3    H218984   1.648   2.264   6.299
 6347TIP3   OH218985   2.541   3.916   0.607
 6347TIP3    H118986   2.557   3.997   0.559
 6347TIP3    H218987   2.561   3.938   0.698
 6348TIP3   OH218988   0.623   0.899   2.727
 6348TIP3    H118989   0.688   0.894   2.656
 6348TIP3    H218990   0.659   0.964   2.787
 6349TIP3   OH218991   7.225   1.063   1.468
 6349TIP3    H118992   7.274   0.982   1.482
 6349TIP3    H218993   7.212   1.098   1.556
 6350TIP3   OH218994   2.099   6.835   2.559
 6350TIP3    H118995   2.050   6.910   2.526
 6350TIP3    H218996   2.179   6.873   2.597
 6351TIP3   OH218997   5.159   4.059   0.651
 6351TIP3    H118998   5.125   4.117   0.720
 6351TIP3    H218999   5.227   4.007   0.694
 6352TIP3   OH219000   2.181   2.426   6.216
 6352TIP3    H119001   2.244   2.444   6.287
 6352TIP3    H219002   2.158   2.513   6.183
 6353TIP3   OH219003   5.797   0.257   5.622
 6353TIP3    H119004   5.876   0.280   5.671
 6353TIP3    H219005   5.725   0.288   5.676
 6354TIP3   OH219006   5.522   7.585   1.461
 6354TIP3    H119007   5.440   7.606   1.416
 6354TIP3    H219008   5.549   7.668   1.500
 6355TIP3   OH219009   1.306   5.107   6.530
 6355TIP3    H119010   1.272   5.122   6.441
 6355TIP3    H219011   1.341   5.018   6.527
 6356TIP3   OH219012   6.683   3.921   3.558
 6356TIP3    H119013   6.707   3.943   3.468
 6356TIP3    H219014   6.708   3.999   3.609
 6357TIP3   OH219015   2.620   1.012   2.930
 6357TIP3    H119016   2.669   1.089   2.901
 6357TIP3    H219017   2.533   1.022   2.890
 6358TIP3   OH219018   1.044   1.382   6.382
 6358TIP3    H119019   1.031   1.288   6.366
 6358TIP3    H219020   1.041   1.391   6.477
 6359TIP3   OH219021   3.015   7.257   5.620
 6359TIP3    H119022   3.038   7.350   5.612
 6359TIP3    H219023   3.098   7.211   5.607
 6360TIP3   OH219024   7.804   4.509   3.393
 6360TIP3    H119025   7.898   4.511   3.374
 6360TIP3    H219026   7.773   4.427   3.354
 6361TIP3   OH219027   7.098   4.344   0.502
 6361TIP3    H119028   7.167   4.296   0.457
 6361TIP3    H219029   7.024   4.284   0.505
 6362TIP3   OH219030   0.554   7.513   4.454
 6362TIP3    H119031   0.566   7.505   4.548
 6362TIP3    H219032   0.517   7.601   4.442
 6363TIP3   OH219033   7.201   7.159   4.865
 6363TIP3    H119034   7.197   7.206   4.948
 6363TIP3    H219035   7.294   7.141   4.852
 6364TIP3   OH219036   0.278   7.132   3.746
 6364TIP3    H119037   0.240   7.219   3.754
 6364TIP3    H219038   0.362   7.138   3.791
 6365TIP3   OH219039   8.084   1.162   1.174
 6365TIP3    H119040   7.992   1.136   1.178
 6365TIP3    H219041   8.099   1.185   1.083
 6366TIP3   OH219042   6.533   3.259   4.018
 6366TIP3    H119043   6.625   3.247   4.041
 6366TIP3    H219044   6.485   3.205   4.081
 6367TIP3   OH219045   0.556   0.241   2.300
 6367TIP3    H119046   0.468   0.224   2.333
 6367TIP3    H219047   0.594   0.155   2.287
 6368TIP3   OH219048   8.214   1.112   6.365
 6368TIP3    H119049   8.160   1.115   6.444
 6368TIP3    H219050   8.304   1.118   6.397
 6369TIP3   OH219051   2.920   3.461   4.693
 6369TIP3    H119052   2.899   3.379   4.737
 6369TIP3    H219053   2.934   3.524   4.763
 6370TIP3   OH219054   0.519   4.795   4.599
 6370TIP3    H119055   0.562   4.869   4.557
 6370TIP3    H219056   0.428   4.821   4.609
 6371TIP3   OH219057   8.095   1.041   0.738
 6371TIP3    H119058   8.157   0.968   0.746
 6371TIP3    H219059   8.146   1.112   0.699
 6372TIP3   OH219060   5.012   1.993   4.953
 6372TIP3    H119061   5.097   1.949   4.945
 6372TIP3    H219062   5.001   2.006   5.047
 6373TIP3   OH219063   8.123   2.110   3.056
 6373TIP3    H119064   8.149   2.201   3.066
 6373TIP3    H219065   8.068   2.092   3.132
 6374TIP3   OH219066   3.561   3.767   4.254
 6374TIP3    H119067   3.623   3.813   4.310
 6374TIP3    H219068   3.475   3.791   4.289
 6375TIP3   OH219069   0.602   6.030   1.166
 6375TIP3    H119070   0.613   5.971   1.241
 6375TIP3    H219071   0.691   6.056   1.143
 6376TIP3   OH219072   0.333   4.550   1.122
 6376TIP3    H119073   0.347   4.579   1.032
 6376TIP3    H219074   0.239   4.559   1.136
 6377TIP3   OH219075   7.409   1.371   5.416
 6377TIP3    H119076   7.349   1.445   5.412
 6377TIP3    H219077   7.398   1.327   5.332
 6378TIP3   OH219078   1.990   2.855   5.800
 6378TIP3    H119079   1.967   2.827   5.711
 6378TIP3    H219080   1.914   2.906   5.829
 6379TIP3   OH219081   4.897   5.661   1.032
 6379TIP3    H119082   4.942   5.699   1.107
 6379TIP3    H219083   4.964   5.610   0.987
 6380TIP3   OH219084   1.216   6.762   2.758
 6380TIP3    H119085   1.126   6.776   2.788
 6380TIP3    H219086   1.207   6.739   2.665
 6381TIP3   OH219087   2.979   6.291   4.581
 6381TIP3    H119088   2.971   6.386   4.572
 6381TIP3    H219089   2.890   6.262   4.601
 6382TIP3   OH219090   5.058   2.581   5.900
 6382TIP3    H119091   5.098   2.599   5.815
 6382TIP3    H219092   4.970   2.548   5.879
 6383TIP3   OH219093   0.957   5.538   1.750
 6383TIP3    H119094   1.019   5.484   1.701
 6383TIP3    H219095   0.887   5.478   1.774
 6384TIP3   OH219096   1.911   5.890   2.305
 6384TIP3    H119097   1.835   5.833   2.289
 6384TIP3    H219098   1.872   5.973   2.335
 6385TIP3   OH219099   1.383   6.552   0.030
 6385TIP3    H119100   1.340   6.504   0.100
 6385TIP3    H219101   1.311   6.592  -0.019
 6386TIP3   OH219102   5.870   2.849   3.110
 6386TIP3    H119103   5.942   2.794   3.140
 6386TIP3    H219104   5.828   2.880   3.190
 6387TIP3   OH219105   1.620   4.547   4.444
 6387TIP3    H119106   1.539   4.539   4.494
 6387TIP3    H219107   1.592   4.554   4.353
 6388TIP3   OH219108   1.778   6.795   5.063
 6388TIP3    H119109   1.694   6.777   5.020
 6388TIP3    H219110   1.808   6.876   5.022
 6389TIP3   OH219111   2.965   5.923   0.660
 6389TIP3    H119112   2.929   5.864   0.594
 6389TIP3    H219113   2.997   5.864   0.729
 6390TIP3   OH219114   1.929   3.569   3.595
 6390TIP3    H119115   1.928   3.517   3.515
 6390TIP3    H219116   1.837   3.577   3.619
 6391TIP3   OH219117   2.250   0.751   1.091
 6391TIP3    H119118   2.341   0.726   1.106
 6391TIP3    H219119   2.200   0.670   1.098
 6392TIP3   OH219120   1.310   0.057   6.198
 6392TIP3    H119121   1.342  -0.033   6.188
 6392TIP3    H219122   1.242   0.051   6.264
 6393TIP3   OH219123   7.869   1.469   4.129
 6393TIP3    H119124   7.828   1.536   4.183
 6393TIP3    H219125   7.922   1.418   4.190
 6394TIP3   OH219126   3.230   4.652   5.621
 6394TIP3    H119127   3.309   4.613   5.582
 6394TIP3    H219128   3.184   4.692   5.547
 6395TIP3   OH219129   4.587   5.197   0.747
 6395TIP3    H119130   4.663   5.233   0.793
 6395TIP3    H219131   4.512   5.221   0.801
 6396TIP3   OH219132   5.483   5.299   0.938
 6396TIP3    H119133   5.411   5.362   0.945
 6396TIP3    H219134   5.467   5.236   1.008
 6397TIP3   OH219135   2.019   1.912   5.930
 6397TIP3    H119136   1.934   1.884   5.963
 6397TIP3    H219137   2.066   1.944   6.008
 6398TIP3   OH219138   1.915   4.496   5.909
 6398TIP3    H119139   2.001   4.462   5.932
 6398TIP3    H219140   1.924   4.525   5.818
 6399TIP3   OH219141   1.062   5.811   3.969
 6399TIP3    H119142   0.967   5.822   3.967
 6399TIP3    H219143   1.092   5.849   3.886
 6400TIP3   OH219144   2.165   3.482   4.033
 6400TIP3    H119145   2.085   3.493   3.981
 6400TIP3    H219146   2.234   3.472   3.968
 6401TIP3   OH219147   8.199   6.768   3.327
 6401TIP3    H119148   8.293   6.779   3.342
 6401TIP3    H219149   8.185   6.673   3.332
 6402TIP3   OH219150   3.262   3.184   3.776
 6402TIP3    H119151   3.176   3.224   3.763
 6402TIP3    H219152   3.324   3.254   3.760
 6403TIP3   OH219153   0.989   6.743   2.916
 6403TIP3    H119154   1.047   6.717   2.987
 6403TIP3    H219155   0.936   6.665   2.897
 6404TIP3   OH219156   6.546   5.324   2.283
 6404TIP3    H119157   6.626   5.301   2.236
 6404TIP3    H219158   6.494   5.372   2.219
 6405TIP3   OH219159   2.198   3.635   6.457
 6405TIP3    H119160   2.265   3.567   6.446
 6405TIP3    H219161   2.224   3.704   6.396
 6406TIP3   OH219162   0.700   5.483   3.340
 6406TIP3    H119163   0.705   5.424   3.416
 6406TIP3    H219164   0.632   5.546   3.364
 6407TIP3   OH219165   5.814   5.984   2.012
 6407TIP3    H119166   5.876   6.050   1.981
 6407TIP3    H219167   5.746   6.034   2.058
 6408TIP3   OH219168   2.536   1.249   5.849
 6408TIP3    H119169   2.448   1.283   5.863
 6408TIP3    H219170   2.548   1.183   5.916
 6409TIP3   OH219171   5.504   7.081   4.733
 6409TIP3    H119172   5.511   7.115   4.822
 6409TIP3    H219173   5.521   6.987   4.742
 6410TIP3   OH219174   4.840   5.939   3.003
 6410TIP3    H119175   4.921   5.984   3.031
 6410TIP3    H219176   4.870   5.855   2.968
 6411TIP3   OH219177   1.804   0.050   1.322
 6411TIP3    H119178   1.789   0.043   1.417
 6411TIP3    H219179   1.832  -0.037   1.296
 6412TIP3   OH219180   2.288   3.988   2.229
 6412TIP3    H119181   2.210   3.932   2.223
 6412TIP3    H219182   2.301   4.001   2.323
 6413TIP3   OH219183   5.925   0.451   0.614
 6413TIP3    H119184   5.830   0.448   0.606
 6413TIP3    H219185   5.952   0.525   0.561
 6414TIP3   OH219186   5.415   3.816   5.228
 6414TIP3    H119187   5.344   3.756   5.249
 6414TIP3    H219188   5.495   3.771   5.257
 6415TIP3   OH219189   7.477   5.042   0.748
 6415TIP3    H119190   7.544   4.978   0.773
 6415TIP3    H219191   7.439   5.006   0.667
 6416TIP3   OH219192   1.948   6.224   1.696
 6416TIP3    H119193   1.861   6.205   1.732
 6416TIP3    H219194   2.004   6.230   1.773
 6417TIP3   OH219195   0.547   2.694   1.328
 6417TIP3    H119196   0.623   2.661   1.280
 6417TIP3    H219197   0.551   2.652   1.414
 6418TIP3   OH219198   2.375   4.461   3.620
 6418TIP3    H119199   2.327   4.451   3.702
 6418TIP3    H219200   2.354   4.550   3.591
 6419TIP3   OH219201   6.776   5.778   0.023
 6419TIP3    H119202   6.724   5.698   0.023
 6419TIP3    H219203   6.746   5.827  -0.053
 6420TIP3   OH219204   4.620   2.307   0.852
 6420TIP3    H119205   4.605   2.395   0.819
 6420TIP3    H219206   4.545   2.256   0.821
 6421TIP3   OH219207   4.804   2.760   5.965
 6421TIP3    H119208   4.853   2.817   5.907
 6421TIP3    H219209   4.867   2.734   6.033
 6422TIP3   OH219210   2.199   6.415   5.477
 6422TIP3    H119211   2.124   6.364   5.447
 6422TIP3    H219212   2.255   6.352   5.522
 6423TIP3   OH219213   7.902   5.612   3.800
 6423TIP3    H119214   7.951   5.694   3.807
 6423TIP3    H219215   7.913   5.584   3.709
 6424TIP3   OH219216   3.301   5.650   6.742
 6424TIP3    H119217   3.325   5.564   6.776
 6424TIP3    H219218   3.218   5.635   6.695
 6425TIP3   OH219219   2.180   5.881   2.162
 6425TIP3    H119220   2.101   5.857   2.212
 6425TIP3    H219221   2.226   5.798   2.149
 6426TIP3   OH219222   0.504   1.896   0.208
 6426TIP3    H119223   0.577   1.878   0.267
 6426TIP3    H219224   0.521   1.840   0.131
 6427TIP3   OH219225   7.142   6.944   6.072
 6427TIP3    H119226   7.116   7.012   6.010
 6427TIP3    H219227   7.079   6.873   6.059
 6428TIP3   OH219228   3.808   5.296   2.817
 6428TIP3    H119229   3.785   5.389   2.817
 6428TIP3    H219230   3.784   5.264   2.730
 6429TIP3   OH219231   6.218   3.683   0.858
 6429TIP3    H119232   6.139   3.672   0.912
 6429TIP3    H219233   6.234   3.596   0.821
 6430TIP3   OH219234   7.899   0.250   1.874
 6430TIP3    H119235   7.813   0.212   1.857
 6430TIP3    H219236   7.883   0.319   1.938
 6431TIP3   OH219237   3.451   0.250   3.654
 6431TIP3    H119238   3.363   0.239   3.616
 6431TIP3    H219239   3.497   0.305   3.591
 6432TIP3   OH219240   7.230   4.353   3.396
 6432TIP3    H119241   7.230   4.340   3.301
 6432TIP3    H219242   7.139   4.375   3.417
 6433TIP3   OH219243   4.787   0.957   1.881
 6433TIP3    H119244   4.723   0.963   1.953
 6433TIP3    H219245   4.767   0.873   1.839
 6434TIP3   OH219246   2.003   1.059   0.208
 6434TIP3    H119247   2.082   1.011   0.182
 6434TIP3    H219248   1.936   1.030   0.147
 6435TIP3   OH219249   0.629   2.174   5.146
 6435TIP3    H119250   0.715   2.164   5.185
 6435TIP3    H219251   0.573   2.203   5.218
 6436TIP3   OH219252   4.885   2.004   2.547
 6436TIP3    H119253   4.833   2.016   2.467
 6436TIP3    H219254   4.857   1.920   2.582
 6437TIP3   OH219255   1.335   3.309   4.523
 6437TIP3    H119256   1.421   3.290   4.485
 6437TIP3    H219257   1.317   3.233   4.578
 6438TIP3   OH219258   5.266   3.629   5.864
 6438TIP3    H119259   5.340   3.690   5.872
 6438TIP3    H219260   5.198   3.681   5.820
 6439TIP3   OH219261   4.894   2.916   5.428
 6439TIP3    H119262   4.841   2.964   5.492
 6439TIP3    H219263   4.982   2.954   5.438
 6440TIP3   OH219264   6.918   2.665   5.894
 6440TIP3    H119265   7.002   2.655   5.849
 6440TIP3    H219266   6.856   2.617   5.840
 6441TIP3   OH219267   2.425   0.546   3.515
 6441TIP3    H119268   2.482   0.492   3.571
 6441TIP3    H219269   2.369   0.593   3.577
 6442TIP3   OH219270   7.097   2.680   3.031
 6442TIP3    H119271   7.067   2.731   2.956
 6442TIP3    H219272   7.190   2.668   3.016
 6443TIP3   OH219273   4.895   5.651   4.742
 6443TIP3    H119274   4.810   5.613   4.764
 6443TIP3    H219275   4.913   5.620   4.653
 6444TIP3   OH219276   7.393   6.230   0.855
 6444TIP3    H119277   7.372   6.289   0.783
 6444TIP3    H219278   7.433   6.286   0.921
 6445TIP3   OH219279   5.825   5.544   6.661
 6445TIP3    H119280   5.916   5.553   6.688
 6445TIP3    H219281   5.776   5.530   6.742
 6446TIP3   OH219282   6.374   5.874   2.394
 6446TIP3    H119283   6.285   5.861   2.427
 6446TIP3    H219284   6.386   5.804   2.330
 6447TIP3   OH219285   1.076   1.237   5.618
 6447TIP3    H119286   1.140   1.211   5.684
 6447TIP3    H219287   0.992   1.207   5.653
 6448TIP3   OH219288   7.742   6.089   3.275
 6448TIP3    H119289   7.648   6.079   3.290
 6448TIP3    H219290   7.757   6.183   3.277
 6449TIP3   OH219291   6.162   7.585   1.281
 6449TIP3    H119292   6.210   7.503   1.270
 6449TIP3    H219293   6.104   7.589   1.205
 6450TIP3   OH219294   2.662   0.519   4.819
 6450TIP3    H119295   2.717   0.549   4.892
 6450TIP3    H219296   2.616   0.443   4.853
 6451TIP3   OH219297   5.194   0.387   0.940
 6451TIP3    H119298   5.231   0.469   0.908
 6451TIP3    H219299   5.200   0.327   0.866
 6452TIP3   OH219300   5.594   0.661   2.216
 6452TIP3    H119301   5.530   0.597   2.249
 6452TIP3    H219302   5.585   0.657   2.121
 6453TIP3   OH219303   1.524   0.699   2.343
 6453TIP3    H119304   1.577   0.656   2.411
 6453TIP3    H219305   1.516   0.790   2.373
 6454TIP3   OH219306   5.956   3.261   5.208
 6454TIP3    H119307   5.916   3.270   5.294
 6454TIP3    H219308   5.996   3.174   5.210
 6455TIP3   OH219309   3.003   2.685   5.509
 6455TIP3    H119310   3.051   2.610   5.475
 6455TIP3    H219311   2.920   2.685   5.461
 6456TIP3   OH219312   8.171   3.316   0.170
 6456TIP3    H119313   8.174   3.230   0.213
 6456TIP3    H219314   8.253   3.320   0.120
 6457TIP3   OH219315   6.272   3.356   5.148
 6457TIP3    H119316   6.318   3.436   5.122
 6457TIP3    H219317   6.192   3.356   5.095
 6458TIP3   OH219318   4.449   1.488   4.856
 6458TIP3    H119319   4.530   1.497   4.906
 6458TIP3    H219320   4.413   1.577   4.851
 6459TIP3   OH219321   3.891   6.845   6.413
 6459TIP3    H119322   3.829   6.888   6.354
 6459TIP3    H219323   3.937   6.782   6.357
 6460TIP3   OH219324   0.041   2.118   5.962
 6460TIP3    H119325   0.114   2.172   5.991
 6460TIP3    H219326   0.010   2.073   6.040
 6461TIP3   OH219327   5.789   2.426   5.353
 6461TIP3    H119328   5.720   2.472   5.305
 6461TIP3    H219329   5.744   2.355   5.398
 6462TIP3   OH219330   8.226   7.371   2.178
 6462TIP3    H119331   8.255   7.421   2.101
 6462TIP3    H219332   8.236   7.280   2.153
 6463TIP3   OH219333   1.165   1.118   2.485
 6463TIP3    H119334   1.244   1.064   2.493
 6463TIP3    H219335   1.189   1.202   2.525
 6464TIP3   OH219336   6.318   4.065   1.950
 6464TIP3    H119337   6.232   4.033   1.925
 6464TIP3    H219338   6.373   4.049   1.873
 6465TIP3   OH219339   6.246   1.744   5.806
 6465TIP3    H119340   6.258   1.661   5.852
 6465TIP3    H219341   6.170   1.784   5.849
 6466TIP3   OH219342   4.606   6.104   0.351
 6466TIP3    H119343   4.584   6.085   0.442
 6466TIP3    H219344   4.651   6.025   0.320
 6467TIP3   OH219345   2.686   5.658   5.454
 6467TIP3    H119346   2.687   5.713   5.376
 6467TIP3    H219347   2.683   5.569   5.420
 6468TIP3   OH219348   5.088   5.573   6.099
 6468TIP3    H119349   5.040   5.627   6.036
 6468TIP3    H219350   5.092   5.626   6.178
 6469TIP3   OH219351   6.437   5.481   2.094
 6469TIP3    H119352   6.363   5.453   2.040
 6469TIP3    H219353   6.499   5.519   2.031
 6470TIP3   OH219354   2.748   2.666   5.712
 6470TIP3    H119355   2.813   2.623   5.657
 6470TIP3    H219356   2.684   2.703   5.651
 6471TIP3   OH219357   2.113   1.391   3.276
 6471TIP3    H119358   2.127   1.484   3.295
 6471TIP3    H219359   2.020   1.384   3.254
 6472TIP3   OH219360   1.587   1.031   5.613
 6472TIP3    H119361   1.556   1.012   5.702
 6472TIP3    H219362   1.682   1.036   5.622
 6473TIP3   OH219363   7.064   5.352   3.012
 6473TIP3    H119364   6.973   5.378   3.020
 6473TIP3    H219365   7.060   5.258   2.992
 6474TIP3   OH219366   4.254   4.222   4.682
 6474TIP3    H119367   4.267   4.128   4.694
 6474TIP3    H219368   4.338   4.261   4.706
 6475TIP3   OH219369   2.461   5.071   2.470
 6475TIP3    H119370   2.449   4.976   2.467
 6475TIP3    H219371   2.487   5.089   2.560
 6476TIP3   OH219372   4.884   4.418   1.161
 6476TIP3    H119373   4.976   4.403   1.141
 6476TIP3    H219374   4.867   4.360   1.235
 6477TIP3   OH219375   0.562   4.979   0.332
 6477TIP3    H119376   0.641   4.975   0.279
 6477TIP3    H219377   0.492   4.949   0.274
 6478TIP3   OH219378   7.177   5.945   3.150
 6478TIP3    H119379   7.254   5.983   3.192
 6478TIP3    H219380   7.107   5.956   3.214
 6479TIP3   OH219381   0.669   2.388   0.370
 6479TIP3    H119382   0.737   2.339   0.322
 6479TIP3    H219383   0.602   2.407   0.304
 6480TIP3   OH219384   3.673   1.371   1.999
 6480TIP3    H119385   3.582   1.398   2.011
 6480TIP3    H219386   3.716   1.447   1.960
 6481TIP3   OH219387   6.302   5.470   6.147
 6481TIP3    H119388   6.258   5.434   6.069
 6481TIP3    H219389   6.230   5.490   6.208
 6482TIP3   OH219390   2.228   7.167   2.886
 6482TIP3    H119391   2.232   7.165   2.982
 6482TIP3    H219392   2.135   7.175   2.866
 6483TIP3   OH219393   1.298   3.235   0.907
 6483TIP3    H119394   1.364   3.195   0.963
 6483TIP3    H219395   1.243   3.162   0.878
 6484TIP3   OH219396   1.739   2.620   3.497
 6484TIP3    H119397   1.814   2.601   3.554
 6484TIP3    H219398   1.672   2.556   3.524
 6485TIP3   OH219399   5.771   4.549   2.683
 6485TIP3    H119400   5.840   4.484   2.687
 6485TIP3    H219401   5.695   4.506   2.724
 6486TIP3   OH219402   2.828   2.003   6.551
 6486TIP3    H119403   2.875   2.018   6.633
 6486TIP3    H219404   2.887   2.035   6.483
 6487TIP3   OH219405   7.480   6.758   4.977
 6487TIP3    H119406   7.417   6.829   4.976
 6487TIP3    H219407   7.529   6.771   5.058
 6488TIP3   OH219408   3.279   3.751   6.372
 6488TIP3    H119409   3.226   3.821   6.333
 6488TIP3    H219410   3.368   3.769   6.341
 6489TIP3   OH219411   6.273   6.992   0.694
 6489TIP3    H119412   6.223   6.915   0.667
 6489TIP3    H219413   6.334   7.009   0.622
 6490TIP3   OH219414   4.650   5.046   5.568
 6490TIP3    H119415   4.717   5.113   5.585
 6490TIP3    H219416   4.568   5.088   5.593
 6491TIP3   OH219417   3.450   5.095   6.093
 6491TIP3    H119418   3.419   5.164   6.034
 6491TIP3    H219419   3.390   5.100   6.168
 6492TIP3   OH219420   4.239   5.463   0.916
 6492TIP3    H119421   4.302   5.507   0.973
 6492TIP3    H219422   4.226   5.524   0.843
 6493TIP3   OH219423   0.488   2.259  -0.059
 6493TIP3    H119424   0.408   2.245  -0.008
 6493TIP3    H219425   0.555   2.277   0.006
 6494TIP3   OH219426   8.205   5.583   3.447
 6494TIP3    H119427   8.220   5.638   3.523
 6494TIP3    H219428   8.249   5.629   3.375
 6495TIP3   OH219429   2.995   1.889   2.874
 6495TIP3    H119430   2.984   1.981   2.852
 6495TIP3    H219431   2.919   1.845   2.836
 6496TIP3   OH219432   4.300   5.222   0.252
 6496TIP3    H119433   4.315   5.270   0.171
 6496TIP3    H219434   4.205   5.207   0.254
 6497TIP3   OH219435   5.285   7.694   5.858
 6497TIP3    H119436   5.203   7.723   5.899
 6497TIP3    H219437   5.332   7.775   5.839
 6498TIP3   OH219438   3.336   3.445   4.609
 6498TIP3    H119439   3.321   3.351   4.603
 6498TIP3    H219440   3.419   3.454   4.655
 6499TIP3   OH219441   7.300   4.477   4.167
 6499TIP3    H119442   7.362   4.467   4.239
 6499TIP3    H219443   7.326   4.558   4.124
 6500TIP3   OH219444   6.658   6.989   4.299
 6500TIP3    H119445   6.686   7.080   4.285
 6500TIP3    H219446   6.713   6.938   4.240
 6501TIP3   OH219447   3.209   5.376   4.863
 6501TIP3    H119448   3.266   5.299   4.865
 6501TIP3    H219449   3.121   5.340   4.867
 6502TIP3   OH219450   2.038   0.693   4.473
 6502TIP3    H119451   2.118   0.680   4.524
 6502TIP3    H219452   1.975   0.729   4.535
 6503TIP3   OH219453   1.067   6.361   6.643
 6503TIP3    H119454   0.998   6.376   6.579
 6503TIP3    H219455   1.115   6.285   6.609
 6504TIP3   OH219456   3.881   3.852   3.873
 6504TIP3    H119457   3.786   3.857   3.874
 6504TIP3    H219458   3.905   3.871   3.782
 6505TIP3   OH219459   3.923   4.142   0.532
 6505TIP3    H119460   3.873   4.222   0.553
 6505TIP3    H219461   3.996   4.143   0.593
 6506TIP3   OH219462   1.256   0.028   3.788
 6506TIP3    H119463   1.340   0.058   3.822
 6506TIP3    H219464   1.191   0.073   3.842
 6507TIP3   OH219465   2.565   4.953   6.512
 6507TIP3    H119466   2.572   4.917   6.423
 6507TIP3    H219467   2.634   4.908   6.561
 6508TIP3   OH219468   3.124   6.221   3.666
 6508TIP3    H119469   3.072   6.153   3.622
 6508TIP3    H219470   3.149   6.182   3.749
 6509TIP3   OH219471   7.279   5.166   0.907
 6509TIP3    H119472   7.330   5.147   0.986
 6509TIP3    H219473   7.340   5.148   0.835
 6510TIP3   OH219474   4.259   2.043   5.333
 6510TIP3    H119475   4.234   2.094   5.410
 6510TIP3    H219476   4.233   2.099   5.259
 6511TIP3   OH219477   2.388   7.799   2.630
 6511TIP3    H119478   2.468   7.759   2.597
 6511TIP3    H219479   2.320   7.734   2.612
 6512TIP3   OH219480   5.476   4.835   2.447
 6512TIP3    H119481   5.515   4.748   2.438
 6512TIP3    H219482   5.521   4.873   2.523
 6513TIP3   OH219483   3.511   6.027   3.332
 6513TIP3    H119484   3.501   6.029   3.237
 6513TIP3    H219485   3.438   6.080   3.365
 6514TIP3   OH219486   2.839   0.848   3.037
 6514TIP3    H119487   2.768   0.906   3.008
 6514TIP3    H219488   2.894   0.838   2.960
 6515TIP3   OH219489   1.132   2.692   2.570
 6515TIP3    H119490   1.187   2.707   2.493
 6515TIP3    H219491   1.145   2.770   2.625
 6516TIP3   OH219492   5.016   0.022   1.883
 6516TIP3    H119493   5.027   0.099   1.939
 6516TIP3    H219494   5.030  -0.052   1.942
 6517TIP3   OH219495   0.913   0.668   4.710
 6517TIP3    H119496   0.820   0.687   4.701
 6517TIP3    H219497   0.917   0.573   4.721
 6518TIP3   OH219498   3.581   1.671   2.983
 6518TIP3    H119499   3.613   1.584   3.008
 6518TIP3    H219500   3.553   1.660   2.892
 6519TIP3   OH219501   6.778   5.773   1.859
 6519TIP3    H119502   6.827   5.759   1.940
 6519TIP3    H219503   6.814   5.708   1.798
 6520TIP3   OH219504   1.047   1.297   4.668
 6520TIP3    H119505   1.074   1.335   4.584
 6520TIP3    H219506   0.993   1.365   4.708
 6521TIP3   OH219507   7.253   2.718   2.015
 6521TIP3    H119508   7.193   2.743   1.945
 6521TIP3    H219509   7.198   2.671   2.078
 6522TIP3   OH219510   6.053   7.703   1.903
 6522TIP3    H119511   6.148   7.692   1.893
 6522TIP3    H219512   6.015   7.629   1.856
 6523TIP3   OH219513   5.630   6.240   6.719
 6523TIP3    H119514   5.602   6.216   6.630
 6523TIP3    H219515   5.709   6.292   6.705
 6524TIP3   OH219516   7.071   2.529   0.114
 6524TIP3    H119517   6.994   2.553   0.062
 6524TIP3    H219518   7.146   2.554   0.060
 6525TIP3   OH219519   6.076   4.016   4.053
 6525TIP3    H119520   6.027   3.961   4.115
 6525TIP3    H219521   6.140   3.956   4.014
 6526TIP3   OH219522   7.369   1.038   6.562
 6526TIP3    H119523   7.370   0.957   6.512
 6526TIP3    H219524   7.431   1.023   6.634
 6527TIP3   OH219525   7.462   3.270   3.331
 6527TIP3    H119526   7.390   3.308   3.382
 6527TIP3    H219527   7.532   3.334   3.335
 6528TIP3   OH219528   6.404   5.858   4.587
 6528TIP3    H119529   6.439   5.947   4.580
 6528TIP3    H219530   6.369   5.852   4.676
 6529TIP3   OH219531   5.115   3.031   1.650
 6529TIP3    H119532   5.116   3.076   1.734
 6529TIP3    H219533   5.207   3.006   1.635
 6530TIP3   OH219534   7.475   4.270   5.903
 6530TIP3    H119535   7.547   4.303   5.957
 6530TIP3    H219536   7.415   4.344   5.895
 6531TIP3   OH219537   4.828   3.058   0.008
 6531TIP3    H119538   4.842   3.070   0.102
 6531TIP3    H219539   4.733   3.063  -0.002
 6532TIP3   OH219540   2.739   1.021   1.440
 6532TIP3    H119541   2.783   0.989   1.519
 6532TIP3    H219542   2.647   0.999   1.454
 6533TIP3   OH219543   6.435   4.322   6.375
 6533TIP3    H119544   6.416   4.416   6.365
 6533TIP3    H219545   6.451   4.291   6.286
 6534TIP3   OH219546   7.159   2.765   1.756
 6534TIP3    H119547   7.159   2.670   1.766
 6534TIP3    H219548   7.202   2.780   1.671
 6535TIP3   OH219549   1.767   1.907   2.974
 6535TIP3    H119550   1.790   1.898   2.881
 6535TIP3    H219551   1.732   1.821   2.998
 6536TIP3   OH219552   4.901   2.111   5.687
 6536TIP3    H119553   4.971   2.141   5.629
 6536TIP3    H219554   4.874   2.026   5.652
 6537TIP3   OH219555   3.013   3.032   1.999
 6537TIP3    H119556   2.996   3.101   1.935
 6537TIP3    H219557   3.092   3.061   2.046
 6538TIP3   OH219558   0.181   2.179   5.431
 6538TIP3    H119559   0.175   2.087   5.407
 6538TIP3    H219560   0.267   2.207   5.399
 6539TIP3   OH219561   1.158   4.243   4.483
 6539TIP3    H119562   1.145   4.272   4.392
 6539TIP3    H219563   1.090   4.289   4.532
 6540TIP3   OH219564   0.449   5.688   6.117
 6540TIP3    H119565   0.427   5.688   6.024
 6540TIP3    H219566   0.525   5.631   6.124
 6541TIP3   OH219567   2.714   1.344   6.682
 6541TIP3    H119568   2.666   1.368   6.603
 6541TIP3    H219569   2.739   1.428   6.721
 6542TIP3   OH219570   7.761   1.102   1.476
 6542TIP3    H119571   7.700   1.031   1.496
 6542TIP3    H219572   7.781   1.090   1.383
 6543TIP3   OH219573   3.821   6.404   6.326
 6543TIP3    H119574   3.909   6.400   6.290
 6543TIP3    H219575   3.833   6.430   6.417
 6544TIP3   OH219576   6.319   5.388   4.264
 6544TIP3    H119577   6.290   5.337   4.189
 6544TIP3    H219578   6.274   5.472   4.255
 6545TIP3   OH219579   1.091   6.280   5.402
 6545TIP3    H119580   1.156   6.300   5.470
 6545TIP3    H219581   1.040   6.208   5.438
 6546TIP3   OH219582   7.504   7.461   3.836
 6546TIP3    H119583   7.470   7.498   3.918
 6546TIP3    H219584   7.508   7.367   3.852
 6547TIP3   OH219585   3.259   0.740   6.406
 6547TIP3    H119586   3.183   0.703   6.361
 6547TIP3    H219587   3.231   0.747   6.498
 6548TIP3   OH219588   4.175   0.986   5.595
 6548TIP3    H119589   4.250   1.035   5.628
 6548TIP3    H219590   4.213   0.921   5.536
 6549TIP3   OH219591   0.394   2.246   1.028
 6549TIP3    H119592   0.327   2.301   1.070
 6549TIP3    H219593   0.349   2.204   0.955
 6550TIP3   OH219594   1.512   5.133   3.161
 6550TIP3    H119595   1.493   5.151   3.253
 6550TIP3    H219596   1.571   5.057   3.163
 6551TIP3   OH219597   3.393   1.694   5.021
 6551TIP3    H119598   3.336   1.641   4.966
 6551TIP3    H219599   3.358   1.783   5.013
 6552TIP3   OH219600   6.559   2.949   0.401
 6552TIP3    H119601   6.473   2.950   0.444
 6552TIP3    H219602   6.620   2.973   0.470
 6553TIP3   OH219603   1.440   1.715   0.259
 6553TIP3    H119604   1.486   1.699   0.177
 6553TIP3    H219605   1.494   1.672   0.326
 6554TIP3   OH219606   2.935   2.751   6.460
 6554TIP3    H119607   2.909   2.772   6.550
 6554TIP3    H219608   3.020   2.793   6.448
 6555TIP3   OH219609   1.202   5.818   3.137
 6555TIP3    H119610   1.157   5.783   3.214
 6555TIP3    H219611   1.132   5.856   3.084
 6556TIP3   OH219612   1.491   2.956   4.952
 6556TIP3    H119613   1.417   2.993   5.000
 6556TIP3    H219614   1.532   3.032   4.910
 6557TIP3   OH219615   1.307   3.802   6.664
 6557TIP3    H119616   1.339   3.887   6.693
 6557TIP3    H219617   1.250   3.772   6.735
 6558TIP3   OH219618   4.889   2.468   5.381
 6558TIP3    H119619   4.920   2.558   5.372
 6558TIP3    H219620   4.798   2.476   5.408
 6559TIP3   OH219621   6.563   5.646   4.574
 6559TIP3    H119622   6.644   5.697   4.577
 6559TIP3    H219623   6.493   5.711   4.579
 6560TIP3   OH219624   6.293   1.315   0.923
 6560TIP3    H119625   6.382   1.347   0.907
 6560TIP3    H219626   6.255   1.378   0.984
 6561TIP3   OH219627   6.624   1.913   2.915
 6561TIP3    H119628   6.669   1.834   2.943
 6561TIP3    H219629   6.558   1.883   2.851
 6562TIP3   OH219630   3.756   7.298   3.296
 6562TIP3    H119631   3.725   7.210   3.276
 6562TIP3    H219632   3.808   7.323   3.220
 6563TIP3   OH219633   7.928   0.956   3.313
 6563TIP3    H119634   7.840   0.929   3.287
 6563TIP3    H219635   7.956   1.015   3.242
 6564TIP3   OH219636   5.353   0.430   3.653
 6564TIP3    H119637   5.267   0.436   3.694
 6564TIP3    H219638   5.415   0.422   3.726
 6565TIP3   OH219639   3.864   0.759   3.220
 6565TIP3    H119640   3.772   0.776   3.240
 6565TIP3    H219641   3.912   0.808   3.286
 6566TIP3   OH219642   6.983   5.516   5.276
 6566TIP3    H119643   6.917   5.465   5.322
 6566TIP3    H219644   6.932   5.574   5.218
 6567TIP3   OH219645   2.193   3.500   3.606
 6567TIP3    H119646   2.224   3.571   3.550
 6567TIP3    H219647   2.097   3.505   3.600
 6568TIP3   OH219648   6.070   0.877   2.234
 6568TIP3    H119649   5.991   0.900   2.186
 6568TIP3    H219650   6.131   0.949   2.215
 6569TIP3   OH219651   1.765   6.490   3.119
 6569TIP3    H119652   1.820   6.478   3.042
 6569TIP3    H219653   1.815   6.548   3.176
 6570TIP3   OH219654   4.506   1.828   0.892
 6570TIP3    H119655   4.442   1.816   0.822
 6570TIP3    H219656   4.530   1.739   0.918
 6571TIP3   OH219657   6.460   0.879   2.140
 6571TIP3    H119658   6.548   0.868   2.104
 6571TIP3    H219659   6.464   0.835   2.225
 6572TIP3   OH219660   4.789   2.127   1.926
 6572TIP3    H119661   4.858   2.087   1.979
 6572TIP3    H219662   4.829   2.206   1.890
 6573TIP3   OH219663   8.101   6.958   1.689
 6573TIP3    H119664   8.103   6.935   1.781
 6573TIP3    H219665   8.007   6.959   1.667
 6574TIP3   OH219666   0.320   2.163   5.963
 6574TIP3    H119667   0.352   2.087   5.914
 6574TIP3    H219668   0.310   2.131   6.053
 6575TIP3   OH219669   8.130   6.665   5.453
 6575TIP3    H119670   8.067   6.604   5.415
 6575TIP3    H219671   8.212   6.615   5.460
 6576TIP3   OH219672   1.111   2.004   4.360
 6576TIP3    H119673   1.102   2.014   4.265
 6576TIP3    H219674   1.087   1.913   4.377
 6577TIP3   OH219675   4.696   6.413   0.692
 6577TIP3    H119676   4.737   6.383   0.773
 6577TIP3    H219677   4.769   6.434   0.634
 6578TIP3   OH219678   2.972   5.108   0.902
 6578TIP3    H119679   3.036   5.043   0.930
 6578TIP3    H219680   2.984   5.115   0.807
 6579TIP3   OH219681   5.039   7.600   5.610
 6579TIP3    H119682   5.000   7.520   5.646
 6579TIP3    H219683   5.128   7.575   5.585
 6580TIP3   OH219684   4.054   1.768   1.090
 6580TIP3    H119685   4.017   1.837   1.035
 6580TIP3    H219686   4.135   1.805   1.124
 6581TIP3   OH219687   0.419   6.645   0.798
 6581TIP3    H119688   0.430   6.727   0.846
 6581TIP3    H219689   0.360   6.593   0.852
 6582TIP3   OH219690   5.967   2.461   0.228
 6582TIP3    H119691   5.924   2.490   0.308
 6582TIP3    H219692   5.956   2.534   0.167
 6583TIP3   OH219693   0.558   2.338   6.323
 6583TIP3    H119694   0.605   2.368   6.401
 6583TIP3    H219695   0.489   2.281   6.357
 6584TIP3   OH219696   0.736   7.444   5.644
 6584TIP3    H119697   0.821   7.401   5.635
 6584TIP3    H219698   0.729   7.499   5.566
 6585TIP3   OH219699   4.834   3.922   5.704
 6585TIP3    H119700   4.863   4.013   5.714
 6585TIP3    H219701   4.796   3.899   5.788
 6586TIP3   OH219702   4.512   2.289   2.769
 6586TIP3    H119703   4.431   2.296   2.820
 6586TIP3    H219704   4.533   2.196   2.770
 6587TIP3   OH219705   6.606   5.408   1.067
 6587TIP3    H119706   6.574   5.326   1.027
 6587TIP3    H219707   6.675   5.380   1.127
 6588TIP3   OH219708   2.955   3.514   0.080
 6588TIP3    H119709   2.941   3.436   0.135
 6588TIP3    H219710   2.898   3.500   0.004
 6589TIP3   OH219711   2.627   3.162   5.326
 6589TIP3    H119712   2.635   3.257   5.319
 6589TIP3    H219713   2.559   3.139   5.263
 6590TIP3   OH219714   1.938   4.101   5.155
 6590TIP3    H119715   2.030   4.126   5.143
 6590TIP3    H219716   1.915   4.136   5.241
 6591TIP3   OH219717   2.467   6.528   6.148
 6591TIP3    H119718   2.383   6.483   6.159
 6591TIP3    H219719   2.442   6.620   6.135
 6592TIP3   OH219720   0.253   7.511   1.958
 6592TIP3    H119721   0.342   7.510   1.924
 6592TIP3    H219722   0.230   7.604   1.960
 6593TIP3   OH219723   4.048   3.826   4.741
 6593TIP3    H119724   4.018   3.848   4.652
 6593TIP3    H219725   4.082   3.908   4.775
 6594TIP3   OH219726   7.199   7.785   2.004
 6594TIP3    H119727   7.276   7.843   1.999
 6594TIP3    H219728   7.209   7.741   2.089
 6595TIP3   OH219729   1.142   7.748   2.168
 6595TIP3    H119730   1.067   7.771   2.222
 6595TIP3    H219731   1.172   7.664   2.202
 6596TIP3   OH219732   7.147   1.931   1.092
 6596TIP3    H119733   7.156   2.015   1.047
 6596TIP3    H219734   7.191   1.944   1.176
 6597TIP3   OH219735   4.827   0.107   6.719
 6597TIP3    H119736   4.912   0.074   6.746
 6597TIP3    H219737   4.817   0.190   6.765
 6598TIP3   OH219738   7.069   0.296   3.197
 6598TIP3    H119739   7.113   0.315   3.115
 6598TIP3    H219740   7.139   0.279   3.259
 6599TIP3   OH219741   2.305   4.034   6.571
 6599TIP3    H119742   2.379   3.973   6.569
 6599TIP3    H219743   2.285   4.050   6.479
 6600TIP3   OH219744   1.323   3.252   1.345
 6600TIP3    H119745   1.403   3.296   1.375
 6600TIP3    H219746   1.332   3.162   1.374
 6601TIP3   OH219747   5.359   4.858   3.690
 6601TIP3    H119748   5.296   4.861   3.762
 6601TIP3    H219749   5.440   4.891   3.729
 6602TIP3   OH219750   7.723   6.276   6.447
 6602TIP3    H119751   7.776   6.248   6.373
 6602TIP3    H219752   7.674   6.352   6.414
 6603TIP3   OH219753   0.759   0.695   1.910
 6603TIP3    H119754   0.838   0.660   1.951
 6603TIP3    H219755   0.773   0.789   1.908
 6604TIP3   OH219756   6.706   3.153   4.384
 6604TIP3    H119757   6.793   3.182   4.411
 6604TIP3    H219758   6.705   3.059   4.406
 6605TIP3   OH219759   4.618   0.832   1.158
 6605TIP3    H119760   4.585   0.794   1.240
 6605TIP3    H219761   4.540   0.867   1.115
 6606TIP3   OH219762   1.259   6.424   3.030
 6606TIP3    H119763   1.314   6.470   2.968
 6606TIP3    H219764   1.195   6.378   2.976
 6607TIP3   OH219765   8.313   2.502   4.069
 6607TIP3    H119766   8.303   2.509   4.164
 6607TIP3    H219767   8.372   2.574   4.046
 6608TIP3   OH219768   3.278   0.164   2.547
 6608TIP3    H119769   3.203   0.125   2.592
 6608TIP3    H219770   3.352   0.149   2.605
 6609TIP3   OH219771   6.004   5.651   3.690
 6609TIP3    H119772   5.928   5.604   3.723
 6609TIP3    H219773   5.993   5.740   3.724
 6610TIP3   OH219774   3.748   1.848   1.540
 6610TIP3    H119775   3.840   1.853   1.514
 6610TIP3    H219776   3.735   1.758   1.567
 6611TIP3   OH219777   7.605   1.678   0.198
 6611TIP3    H119778   7.615   1.675   0.103
 6611TIP3    H219779   7.528   1.733   0.212
 6612TIP3   OH219780   7.605   3.820   2.556
 6612TIP3    H119781   7.675   3.850   2.614
 6612TIP3    H219782   7.584   3.732   2.588
 6613TIP3   OH219783   1.833   7.381   6.184
 6613TIP3    H119784   1.875   7.362   6.100
 6613TIP3    H219785   1.885   7.333   6.248
 6614TIP3   OH219786   2.666   7.609   3.007
 6614TIP3    H119787   2.713   7.690   3.024
 6614TIP3    H219788   2.725   7.540   3.038
 6615TIP3   OH219789   5.792   5.584   0.138
 6615TIP3    H119790   5.799   5.536   0.055
 6615TIP3    H219791   5.814   5.519   0.205
 6616TIP3   OH219792   7.340   1.282   5.982
 6616TIP3    H119793   7.409   1.337   5.946
 6616TIP3    H219794   7.383   1.229   6.049
 6617TIP3   OH219795   3.634   2.572   0.091
 6617TIP3    H119796   3.585   2.511   0.146
 6617TIP3    H219797   3.674   2.634   0.152
 6618TIP3   OH219798   6.439   2.763   5.556
 6618TIP3    H119799   6.492   2.836   5.589
 6618TIP3    H219800   6.483   2.685   5.591
 6619TIP3   OH219801   1.643   4.111   4.146
 6619TIP3    H119802   1.647   4.197   4.104
 6619TIP3    H219803   1.700   4.056   4.093
 6620TIP3   OH219804   3.947   5.709   1.118
 6620TIP3    H119805   3.901   5.791   1.132
 6620TIP3    H219806   4.026   5.715   1.171
 6621TIP3   OH219807   1.474   3.154   6.140
 6621TIP3    H119808   1.422   3.228   6.109
 6621TIP3    H219809   1.410   3.083   6.151
 6622TIP3   OH219810   1.096   6.959   3.886
 6622TIP3    H119811   1.160   6.920   3.946
 6622TIP3    H219812   1.071   7.041   3.927
 6623TIP3   OH219813   1.599   7.843   0.863
 6623TIP3    H119814   1.566   7.831   0.952
 6623TIP3    H219815   1.694   7.853   0.874
 6624TIP3   OH219816   8.086   2.098   1.766
 6624TIP3    H119817   8.170   2.133   1.734
 6624TIP3    H219818   8.111   2.033   1.832
 6625TIP3   OH219819   3.032   7.240   6.323
 6625TIP3    H119820   3.124   7.220   6.306
 6625TIP3    H219821   2.984   7.199   6.251
 6626TIP3   OH219822   3.693   2.018   1.741
 6626TIP3    H119823   3.750   1.973   1.802
 6626TIP3    H219824   3.700   1.968   1.660
 6627TIP3   OH219825   5.491   6.855   1.451
 6627TIP3    H119826   5.579   6.848   1.489
 6627TIP3    H219827   5.472   6.948   1.452
 6628TIP3   OH219828   6.987   2.845   2.108
 6628TIP3    H119829   7.065   2.875   2.062
 6628TIP3    H219830   7.018   2.822   2.196
 6629TIP3   OH219831   4.174   4.845   4.624
 6629TIP3    H119832   4.153   4.762   4.667
 6629TIP3    H219833   4.131   4.912   4.677
 6630TIP3   OH219834   0.717   2.878   6.341
 6630TIP3    H119835   0.661   2.808   6.374
 6630TIP3    H219836   0.761   2.913   6.418
 6631TIP3   OH219837   7.046   5.016   0.246
 6631TIP3    H119838   7.028   4.924   0.262
 6631TIP3    H219839   7.082   5.048   0.329
 6632TIP3   OH219840   2.734   0.455   1.785
 6632TIP3    H119841   2.647   0.494   1.774
 6632TIP3    H219842   2.785   0.524   1.827
 6633TIP3   OH219843   1.899   2.346   0.701
 6633TIP3    H119844   1.821   2.363   0.753
 6633TIP3    H219845   1.947   2.279   0.749
 6634TIP3   OH219846   2.547   0.828   1.529
 6634TIP3    H119847   2.455   0.855   1.519
 6634TIP3    H219848   2.551   0.743   1.483
 6635TIP3   OH219849   7.272   7.121   3.724
 6635TIP3    H119850   7.352   7.100   3.675
 6635TIP3    H219851   7.213   7.048   3.706
 6636TIP3   OH219852   3.327   0.423   6.011
 6636TIP3    H119853   3.305   0.370   5.935
 6636TIP3    H219854   3.256   0.486   6.019
 6637TIP3   OH219855   1.525   5.298   1.421
 6637TIP3    H119856   1.619   5.299   1.401
 6637TIP3    H219857   1.515   5.360   1.493
 6638TIP3   OH219858   5.907   1.034   0.102
 6638TIP3    H119859   5.991   1.074   0.121
 6638TIP3    H219860   5.862   1.098   0.046
 6639TIP3   OH219861   3.068   3.817   2.193
 6639TIP3    H119862   3.145   3.834   2.139
 6639TIP3    H219863   3.081   3.729   2.227
 6640TIP3   OH219864   0.721   7.502   0.882
 6640TIP3    H119865   0.795   7.502   0.821
 6640TIP3    H219866   0.740   7.574   0.942
 6641TIP3   OH219867   0.290   2.121   5.010
 6641TIP3    H119868   0.316   2.138   4.920
 6641TIP3    H219869   0.344   2.047   5.037
 6642TIP3   OH219870   4.478   0.297   0.878
 6642TIP3    H119871   4.533   0.363   0.920
 6642TIP3    H219872   4.391   0.336   0.876
 6643TIP3   OH219873   7.417   7.660   0.929
 6643TIP3    H119874   7.463   7.576   0.931
 6643TIP3    H219875   7.356   7.657   1.002
 6644TIP3   OH219876   3.649   1.323   6.272
 6644TIP3    H119877   3.628   1.252   6.210
 6644TIP3    H219878   3.565   1.363   6.292
 6645TIP3   OH219879   0.900   3.323   1.095
 6645TIP3    H119880   0.946   3.397   1.055
 6645TIP3    H219881   0.939   3.315   1.182
 6646TIP3   OH219882   4.364   5.299   4.648
 6646TIP3    H119883   4.366   5.277   4.742
 6646TIP3    H219884   4.292   5.246   4.613
 6647TIP3   OH219885   4.755   1.611   3.892
 6647TIP3    H119886   4.845   1.643   3.888
 6647TIP3    H219887   4.752   1.556   3.971
 6648TIP3   OH219888   0.776   2.053   3.909
 6648TIP3    H119889   0.733   2.015   3.985
 6648TIP3    H219890   0.868   2.062   3.935
 6649TIP3   OH219891   0.906   3.142   5.565
 6649TIP3    H119892   0.866   3.220   5.526
 6649TIP3    H219893   0.951   3.099   5.492
 6650TIP3   OH219894   0.309   6.201   4.750
 6650TIP3    H119895   0.296   6.107   4.734
 6650TIP3    H219896   0.335   6.236   4.665
 6651TIP3   OH219897   1.921   7.357   1.914
 6651TIP3    H119898   1.840   7.400   1.885
 6651TIP3    H219899   1.899   7.322   2.000
 6652TIP3   OH219900   6.281   0.044   0.428
 6652TIP3    H119901   6.211   0.017   0.488
 6652TIP3    H219902   6.278   0.139   0.428
 6653TIP3   OH219903   8.016   3.283   1.660
 6653TIP3    H119904   7.947   3.217   1.654
 6653TIP3    H219905   8.064   3.276   1.578
 6654TIP3   OH219906   6.900   7.723   4.885
 6654TIP3    H119907   6.836   7.678   4.830
 6654TIP3    H219908   6.944   7.784   4.826
 6655TIP3   OH219909   4.788   5.406   0.764
 6655TIP3    H119910   4.771   5.417   0.857
 6655TIP3    H219911   4.763   5.489   0.725
 6656TIP3   OH219912   2.085   5.328   3.983
 6656TIP3    H119913   2.076   5.370   3.898
 6656TIP3    H219914   2.178   5.310   3.991
 6657TIP3   OH219915   2.347   5.514   2.347
 6657TIP3    H119916   2.422   5.526   2.406
 6657TIP3    H219917   2.334   5.419   2.344
 6658TIP3   OH219918   7.855   5.635   0.093
 6658TIP3    H119919   7.934   5.623   0.146
 6658TIP3    H219920   7.868   5.719   0.050
 6659TIP3   OH219921   3.103   2.135   5.330
 6659TIP3    H119922   3.011   2.152   5.350
 6659TIP3    H219923   3.118   2.045   5.359
 6660TIP3   OH219924   2.957   7.705   0.104
 6660TIP3    H119925   2.957   7.617   0.141
 6660TIP3    H219926   3.041   7.742   0.130
 6661TIP3   OH219927   4.469   2.772   2.860
 6661TIP3    H119928   4.394   2.723   2.893
 6661TIP3    H219929   4.432   2.837   2.801
 6662TIP3   OH219930   3.282   4.496   3.638
 6662TIP3    H119931   3.274   4.497   3.733
 6662TIP3    H219932   3.295   4.404   3.615
 6663TIP3   OH219933   5.698   6.951   6.425
 6663TIP3    H119934   5.704   6.869   6.475
 6663TIP3    H219935   5.693   7.019   6.492
 6664TIP3   OH219936   0.013   2.241   1.583
 6664TIP3    H119937   0.107   2.229   1.579
 6664TIP3    H219938   0.001   2.330   1.617
 6665TIP3   OH219939   6.582   6.306   3.839
 6665TIP3    H119940   6.662   6.359   3.841
 6665TIP3    H219941   6.575   6.271   3.928
 6666TIP3   OH219942   0.991   4.296   6.594
 6666TIP3    H119943   1.017   4.385   6.570
 6666TIP3    H219944   1.060   4.240   6.557
 6667TIP3   OH219945   0.637   0.949   3.637
 6667TIP3    H119946   0.687   0.965   3.716
 6667TIP3    H219947   0.549   0.981   3.657
 6668TIP3   OH219948   2.532   6.615   5.056
 6668TIP3    H119949   2.498   6.597   5.144
 6668TIP3    H219950   2.487   6.553   4.999
 6669TIP3   OH219951   2.712   6.379   0.176
 6669TIP3    H119952   2.768   6.397   0.252
 6669TIP3    H219953   2.662   6.460   0.164
 6670TIP3   OH219954   1.546   6.630   5.160
 6670TIP3    H119955   1.589   6.549   5.133
 6670TIP3    H219956   1.508   6.610   5.245
 6671TIP3   OH219957   6.703   0.819   2.010
 6671TIP3    H119958   6.681   0.737   1.965
 6671TIP3    H219959   6.799   0.822   2.008
 6672TIP3   OH219960   0.350   1.706   3.692
 6672TIP3    H119961   0.263   1.699   3.652
 6672TIP3    H219962   0.374   1.797   3.679
 6673TIP3   OH219963   5.767   4.038   6.430
 6673TIP3    H119964   5.735   4.062   6.517
 6673TIP3    H219965   5.767   3.942   6.431
 6674TIP3   OH219966   2.668   7.623   2.168
 6674TIP3    H119967   2.670   7.657   2.079
 6674TIP3    H219968   2.757   7.633   2.201
 6675TIP3   OH219969   2.053   7.310   5.554
 6675TIP3    H119970   2.142   7.325   5.587
 6675TIP3    H219971   2.066   7.276   5.465
 6676TIP3   OH219972   7.677   2.232   6.758
 6676TIP3    H119973   7.618   2.298   6.722
 6676TIP3    H219974   7.764   2.257   6.726
 6677TIP3   OH219975   7.018   5.858   6.381
 6677TIP3    H119976   7.110   5.834   6.367
 6677TIP3    H219977   7.010   5.944   6.341
 6678TIP3   OH219978   0.568   0.687   4.929
 6678TIP3    H119979   0.486   0.729   4.902
 6678TIP3    H219980   0.636   0.735   4.882
 6679TIP3   OH219981   6.980   3.177   1.688
 6679TIP3    H119982   6.928   3.113   1.640
 6679TIP3    H219983   6.916   3.231   1.733
 6680TIP3   OH219984   4.437   3.116   5.447
 6680TIP3    H119985   4.463   3.132   5.356
 6680TIP3    H219986   4.348   3.081   5.440
 6681TIP3   OH219987   5.070   4.005   4.745
 6681TIP3    H119988   5.018   3.975   4.820
 6681TIP3    H219989   5.012   4.065   4.699
 6682TIP3   OH219990   5.447   1.569   4.199
 6682TIP3    H119991   5.525   1.527   4.234
 6682TIP3    H219992   5.481   1.636   4.139
 6683TIP3   OH219993   8.037   0.711   3.263
 6683TIP3    H119994   8.005   0.799   3.244
 6683TIP3    H219995   8.063   0.715   3.355
 6684TIP3   OH219996   3.802   5.638   4.140
 6684TIP3    H119997   3.784   5.615   4.231
 6684TIP3    H219998   3.786   5.557   4.091
 6685TIP3   OH219999   2.466   3.509   1.755
 6685TIP3    H120000   2.514   3.517   1.838
 6685TIP3    H220001   2.407   3.583   1.753
 6686TIP3   OH220002   4.440   0.658   4.794
 6686TIP3    H120003   4.468   0.745   4.821
 6686TIP3    H220004   4.354   0.672   4.754
 6687TIP3   OH220005   4.209   7.629   2.066
 6687TIP3    H120006   4.276   7.561   2.078
 6687TIP3    H220007   4.179   7.616   1.976
 6688TIP3   OH220008   4.439   1.649   1.797
 6688TIP3    H120009   4.395   1.568   1.772
 6688TIP3    H220010   4.477   1.681   1.715
 6689TIP3   OH220011   6.331   2.331   4.201
 6689TIP3    H120012   6.390   2.302   4.271
 6689TIP3    H220013   6.257   2.271   4.206
 6690TIP3   OH220014   3.434   0.170   2.321
 6690TIP3    H120015   3.373   0.171   2.395
 6690TIP3    H220016   3.397   0.106   2.260
 6691TIP3   OH220017   7.540   0.511   2.775
 6691TIP3    H120018   7.507   0.460   2.849
 6691TIP3    H220019   7.493   0.477   2.699
 6692TIP3   OH220020   5.130   0.014   1.396
 6692TIP3    H120021   5.099   0.030   1.485
 6692TIP3    H220022   5.068   0.061   1.339
 6693TIP3   OH220023   6.067   6.589   3.965
 6693TIP3    H120024   6.149   6.570   3.920
 6693TIP3    H220025   6.091   6.648   4.036
 6694TIP3   OH220026   5.998   5.980   6.674
 6694TIP3    H120027   6.084   6.019   6.685
 6694TIP3    H220028   5.955   6.034   6.607
 6695TIP3   OH220029   0.970   1.056   5.310
 6695TIP3    H120030   0.992   0.970   5.348
 6695TIP3    H220031   0.880   1.071   5.337
 6696TIP3   OH220032   3.573   6.212   5.439
 6696TIP3    H120033   3.485   6.184   5.463
 6696TIP3    H220034   3.627   6.135   5.451
 6697TIP3   OH220035   6.700   6.035   1.790
 6697TIP3    H120036   6.721   5.944   1.769
 6697TIP3    H220037   6.769   6.061   1.851
 6698TIP3   OH220038   7.563   5.595   0.039
 6698TIP3    H120039   7.656   5.604   0.059
 6698TIP3    H220040   7.561   5.554  -0.048
 6699TIP3   OH220041   4.641   7.813   0.334
 6699TIP3    H120042   4.554   7.806   0.373
 6699TIP3    H220043   4.629   7.784   0.244
 6700TIP3   OH220044   8.248   4.790   0.791
 6700TIP3    H120045   8.204   4.705   0.799
 6700TIP3    H220046   8.191   4.851   0.838
 6701TIP3   OH220047   0.416   4.647   3.843
 6701TIP3    H120048   0.399   4.556   3.866
 6701TIP3    H220049   0.368   4.661   3.761
 6702TIP3   OH220050   2.721   0.386   1.400
 6702TIP3    H120051   2.777   0.446   1.449
 6702TIP3    H220052   2.756   0.299   1.420
 6703TIP3   OH220053   1.128   1.632   1.214
 6703TIP3    H120054   1.042   1.673   1.222
 6703TIP3    H220055   1.178   1.689   1.156
 6704TIP3   OH220056   1.231   4.652   0.721
 6704TIP3    H120057   1.281   4.653   0.803
 6704TIP3    H220058   1.297   4.645   0.652
 6705TIP3   OH220059   6.197   6.872   4.943
 6705TIP3    H120060   6.154   6.869   4.858
 6705TIP3    H220061   6.197   6.964   4.967
 6706TIP3   OH220062   7.729   4.515   2.515
 6706TIP3    H120063   7.633   4.515   2.520
 6706TIP3    H220064   7.756   4.464   2.591
 6707TIP3   OH220065   3.512   1.424   1.683
 6707TIP3    H120066   3.436   1.461   1.727
 6707TIP3    H220067   3.492   1.431   1.590
 6708TIP3   OH220068   6.137   7.313   5.297
 6708TIP3    H120069   6.121   7.365   5.218
 6708TIP3    H220070   6.061   7.255   5.304
 6709TIP3   OH220071   5.826   6.339   0.690
 6709TIP3    H120072   5.811   6.384   0.607
 6709TIP3    H220073   5.912   6.297   0.679
 6710TIP3   OH220074   0.180   5.830   0.286
 6710TIP3    H120075   0.232   5.897   0.242
 6710TIP3    H220076   0.232   5.751   0.282
 6711TIP3   OH220077   3.747   0.926   2.565
 6711TIP3    H120078   3.717   0.976   2.489
 6711TIP3    H220079   3.837   0.955   2.579
 6712TIP3   OH220080   4.163   1.483   0.870
 6712TIP3    H120081   4.199   1.558   0.823
 6712TIP3    H220082   4.239   1.426   0.886
 6713TIP3   OH220083   5.912   0.061   0.425
 6713TIP3    H120084   5.922   0.095   0.336
 6713TIP3    H220085   5.956  -0.024   0.424
 6714TIP3   OH220086   6.940   1.043   4.430
 6714TIP3    H120087   6.919   0.966   4.483
 6714TIP3    H220088   6.983   1.007   4.352
 6715TIP3   OH220089   2.786   4.808   6.607
 6715TIP3    H120090   2.856   4.749   6.634
 6715TIP3    H220091   2.824   4.861   6.537
 6716TIP3   OH220092   6.164   1.297   3.244
 6716TIP3    H120093   6.213   1.316   3.164
 6716TIP3    H220094   6.092   1.241   3.216
 6717TIP3   OH220095   6.375   0.461   4.033
 6717TIP3    H120096   6.342   0.454   3.944
 6717TIP3    H220097   6.300   0.439   4.088
 6718TIP3   OH220098   8.261   1.305   3.856
 6718TIP3    H120099   8.165   1.310   3.852
 6718TIP3    H220100   8.285   1.245   3.786
 6719TIP3   OH220101   5.800   6.190   2.774
 6719TIP3    H120102   5.827   6.101   2.796
 6719TIP3    H220103   5.879   6.231   2.739
 6720TIP3   OH220104   0.900   3.724   4.645
 6720TIP3    H120105   0.979   3.686   4.684
 6720TIP3    H220106   0.877   3.665   4.573
 6721TIP3   OH220107   1.052   1.482   4.987
 6721TIP3    H120108   1.100   1.565   4.979
 6721TIP3    H220109   1.043   1.451   4.898
 6722TIP3   OH220110   3.735   5.986   4.113
 6722TIP3    H120111   3.663   6.047   4.128
 6722TIP3    H220112   3.696   5.912   4.068
 6723TIP3   OH220113   4.096   5.919   2.923
 6723TIP3    H120114   4.114   5.945   2.833
 6723TIP3    H220115   4.139   5.986   2.977
 6724TIP3   OH220116   4.932   6.148   6.661
 6724TIP3    H120117   4.898   6.101   6.738
 6724TIP3    H220118   4.880   6.228   6.657
 6725TIP3   OH220119   1.493   6.606   2.490
 6725TIP3    H120120   1.401   6.619   2.511
 6725TIP3    H220121   1.493   6.576   2.399
 6726TIP3   OH220122   4.648   0.456   6.265
 6726TIP3    H120123   4.653   0.469   6.170
 6726TIP3    H220124   4.665   0.362   6.277
 6727TIP3   OH220125   7.473   1.945   4.847
 6727TIP3    H120126   7.500   1.887   4.775
 6727TIP3    H220127   7.394   1.904   4.882
 6728TIP3   OH220128   8.279   0.612   6.136
 6728TIP3    H120129   8.363   0.570   6.153
 6728TIP3    H220130   8.293   0.704   6.161
 6729TIP3   OH220131   7.882   7.389   1.849
 6729TIP3    H120132   7.863   7.297   1.862
 6729TIP3    H220133   7.832   7.414   1.771
 6730TIP3   OH220134   3.969   3.666   0.656
 6730TIP3    H120135   3.937   3.580   0.685
 6730TIP3    H220136   3.971   3.659   0.560
 6731TIP3   OH220137   7.070   5.911   1.072
 6731TIP3    H120138   7.056   5.906   0.978
 6731TIP3    H220139   7.165   5.906   1.083
 6732TIP3   OH220140   6.338   3.238   6.429
 6732TIP3    H120141   6.396   3.239   6.352
 6732TIP3    H220142   6.390   3.280   6.498
 6733TIP3   OH220143   1.951   2.097   0.897
 6733TIP3    H120144   1.928   2.051   0.816
 6733TIP3    H220145   1.967   2.028   0.960
 6734TIP3   OH220146   6.583   0.044   5.929
 6734TIP3    H120147   6.598   0.131   5.893
 6734TIP3    H220148   6.663  -0.005   5.909
 6735TIP3   OH220149   1.116   2.482   5.621
 6735TIP3    H120150   1.091   2.553   5.680
 6735TIP3    H220151   1.072   2.503   5.539
 6736TIP3   OH220152   5.956   2.181   1.099
 6736TIP3    H120153   5.911   2.122   1.159
 6736TIP3    H220154   5.887   2.216   1.043
 6737TIP3   OH220155   1.252   4.391   2.734
 6737TIP3    H120156   1.259   4.315   2.676
 6737TIP3    H220157   1.163   4.424   2.720
 6738TIP3   OH220158   0.136   7.173   6.071
 6738TIP3    H120159   0.136   7.125   5.988
 6738TIP3    H220160   0.146   7.265   6.045
 6739TIP3   OH220161   2.446   2.542   3.211
 6739TIP3    H120162   2.473   2.586   3.131
 6739TIP3    H220163   2.372   2.487   3.185
 6740TIP3   OH220164   3.033   2.141   4.475
 6740TIP3    H120165   3.099   2.130   4.544
 6740TIP3    H220166   3.079   2.189   4.406
 6741TIP3   OH220167   0.909   3.404   2.372
 6741TIP3    H120168   0.992   3.363   2.398
 6741TIP3    H220169   0.842   3.343   2.400
 6742TIP3   OH220170   3.907   1.181   4.018
 6742TIP3    H120171   3.846   1.107   4.016
 6742TIP3    H220172   3.944   1.178   4.107
 6743TIP3   OH220173   1.926   5.060   0.841
 6743TIP3    H120174   1.930   4.964   0.842
 6743TIP3    H220175   2.011   5.087   0.876
 6744TIP3   OH220176   6.840   7.036   0.523
 6744TIP3    H120177   6.932   7.010   0.512
 6744TIP3    H220178   6.790   6.968   0.479
 6745TIP3   OH220179   2.078   3.576   5.971
 6745TIP3    H120180   2.043   3.664   5.984
 6745TIP3    H220181   2.049   3.527   6.048
 6746TIP3   OH220182   4.096   5.461   1.521
 6746TIP3    H120183   4.123   5.375   1.490
 6746TIP3    H220184   4.082   5.449   1.615
 6747TIP3   OH220185   7.009   5.975   5.742
 6747TIP3    H120186   6.917   5.954   5.725
 6747TIP3    H220187   7.030   5.928   5.823
 6748TIP3   OH220188   0.000   3.653   5.969
 6748TIP3    H120189   0.087   3.689   5.981
 6748TIP3    H220190  -0.019   3.608   6.052
 6749TIP3   OH220191   3.605   2.348   2.923
 6749TIP3    H120192   3.680   2.319   2.974
 6749TIP3    H220193   3.530   2.306   2.965
 6750TIP3   OH220194   4.778   2.453   3.603
 6750TIP3    H120195   4.802   2.385   3.540
 6750TIP3    H220196   4.756   2.404   3.683
 6751TIP3   OH220197   5.065   4.888   1.383
 6751TIP3    H120198   4.989   4.866   1.437
 6751TIP3    H220199   5.031   4.889   1.294
 6752TIP3   OH220200   3.564   1.405   0.148
 6752TIP3    H120201   3.592   1.337   0.210
 6752TIP3    H220202   3.476   1.429   0.178
 6753TIP3   OH220203   5.287   6.918   5.338
 6753TIP3    H120204   5.379   6.928   5.314
 6753TIP3    H220205   5.288   6.851   5.407
 6754TIP3   OH220206   6.724   4.111   6.743
 6754TIP3    H120207   6.659   4.086   6.808
 6754TIP3    H220208   6.805   4.120   6.792
 6755TIP3   OH220209   7.000   1.923   2.109
 6755TIP3    H120210   6.946   1.921   2.188
 6755TIP3    H220211   7.043   2.008   2.111
 6756TIP3   OH220212   5.700   1.221   2.653
 6756TIP3    H120213   5.654   1.197   2.573
 6756TIP3    H220214   5.791   1.234   2.626
 6757TIP3   OH220215   3.921   4.564   1.802
 6757TIP3    H120216   3.946   4.483   1.846
 6757TIP3    H220217   3.858   4.605   1.861
 6758TIP3   OH220218   3.808   0.337   4.500
 6758TIP3    H120219   3.887   0.284   4.493
 6758TIP3    H220220   3.757   0.313   4.423
 6759TIP3   OH220221   3.188   7.525   1.870
 6759TIP3    H120222   3.168   7.464   1.799
 6759TIP3    H220223   3.281   7.543   1.860
 6760TIP3   OH220224   5.634   3.352   3.215
 6760TIP3    H120225   5.693   3.377   3.286
 6760TIP3    H220226   5.563   3.305   3.258
 6761TIP3   OH220227   4.387   4.165   5.475
 6761TIP3    H120228   4.407   4.077   5.509
 6761TIP3    H220229   4.472   4.203   5.454
 6762TIP3   OH220230   4.933   2.577   6.653
 6762TIP3    H120231   4.898   2.495   6.686
 6762TIP3    H220232   5.010   2.551   6.602
 6763TIP3   OH220233   8.253   5.792   1.677
 6763TIP3    H120234   8.292   5.740   1.608
 6763TIP3    H220235   8.194   5.732   1.723
 6764TIP3   OH220236   1.408   7.038   5.078
 6764TIP3    H120237   1.368   6.952   5.096
 6764TIP3    H220238   1.447   7.064   5.161
 6765TIP3   OH220239   7.558   3.354   0.127
 6765TIP3    H120240   7.541   3.309   0.044
 6765TIP3    H220241   7.646   3.391   0.117
 6766TIP3   OH220242   5.619   6.038   5.439
 6766TIP3    H120243   5.557   6.040   5.512
 6766TIP3    H220244   5.697   6.083   5.473
 6767TIP3   OH220245   0.112   6.146   2.953
 6767TIP3    H120246   0.149   6.219   3.002
 6767TIP3    H220247   0.060   6.098   3.018
 6768TIP3   OH220248   3.054   4.811   2.411
 6768TIP3    H120249   3.128   4.800   2.352
 6768TIP3    H220250   3.006   4.728   2.406
 6769TIP3   OH220251   2.955   3.817   6.347
 6769TIP3    H120252   2.930   3.746   6.287
 6769TIP3    H220253   2.953   3.896   6.293
 6770TIP3   OH220254   1.677   2.363   2.881
 6770TIP3    H120255   1.606   2.425   2.869
 6770TIP3    H220256   1.651   2.309   2.955
 6771TIP3   OH220257   6.706   7.350   5.629
 6771TIP3    H120258   6.716   7.381   5.719
 6771TIP3    H220259   6.743   7.262   5.630
 6772TIP3   OH220260   4.109   1.626   1.548
 6772TIP3    H120261   4.068   1.597   1.467
 6772TIP3    H220262   4.090   1.556   1.611
 6773TIP3   OH220263   4.796   2.136   3.051
 6773TIP3    H120264   4.870   2.087   3.085
 6773TIP3    H220265   4.769   2.192   3.124
 6774TIP3   OH220266   2.747   5.435   3.090
 6774TIP3    H120267   2.685   5.502   3.118
 6774TIP3    H220268   2.825   5.450   3.145
 6775TIP3   OH220269   4.039   5.423   2.409
 6775TIP3    H120270   4.018   5.471   2.489
 6775TIP3    H220271   4.053   5.333   2.437
 6776TIP3   OH220272   3.959   2.492   0.156
 6776TIP3    H120273   4.002   2.414   0.122
 6776TIP3    H220274   3.901   2.520   0.085
 6777TIP3   OH220275   2.449   6.724   3.954
 6777TIP3    H120276   2.395   6.803   3.964
 6777TIP3    H220277   2.406   6.674   3.885
 6778TIP3   OH220278   5.648   7.058   2.194
 6778TIP3    H120279   5.602   6.984   2.233
 6778TIP3    H220280   5.620   7.134   2.246
 6779TIP3   OH220281   1.724   6.002   5.782
 6779TIP3    H120282   1.699   5.982   5.692
 6779TIP3    H220283   1.772   5.924   5.811
 6780TIP3   OH220284   1.135   0.935   3.819
 6780TIP3    H120285   1.077   0.872   3.862
 6780TIP3    H220286   1.126   0.915   3.726
 6781TIP3   OH220287   4.046   6.753   3.128
 6781TIP3    H120288   4.077   6.838   3.096
 6781TIP3    H220289   4.117   6.723   3.186
 6782TIP3   OH220290   6.048   6.166   0.596
 6782TIP3    H120291   6.064   6.121   0.512
 6782TIP3    H220292   5.982   6.112   0.639
 6783TIP3   OH220293   5.029   0.460   3.688
 6783TIP3    H120294   4.973   0.394   3.730
 6783TIP3    H220295   5.043   0.427   3.600
 6784TIP3   OH220296   6.032   5.240   1.525
 6784TIP3    H120297   6.060   5.252   1.616
 6784TIP3    H220298   6.092   5.174   1.490
 6785TIP3   OH220299   7.119   4.105   3.919
 6785TIP3    H120300   7.214   4.097   3.914
 6785TIP3    H220301   7.091   4.027   3.967
 6786TIP3   OH220302   0.950   0.632   3.630
 6786TIP3    H120303   0.866   0.666   3.599
 6786TIP3    H220304   1.009   0.643   3.556
 6787TIP3   OH220305   6.750   0.975   5.607
 6787TIP3    H120306   6.659   0.947   5.618
 6787TIP3    H220307   6.792   0.950   5.689
 6788TIP3   OH220308   3.548   0.722   5.445
 6788TIP3    H120309   3.471   0.684   5.404
 6788TIP3    H220310   3.596   0.648   5.482
 6789TIP3   OH220311   2.259   6.270   1.091
 6789TIP3    H120312   2.292   6.344   1.040
 6789TIP3    H220313   2.250   6.199   1.028
 6790TIP3   OH220314   8.034   3.489   2.209
 6790TIP3    H120315   8.003   3.422   2.148
 6790TIP3    H220316   8.088   3.441   2.271
 6791TIP3   OH220317   4.718   7.043   6.327
 6791TIP3    H120318   4.751   6.960   6.362
 6791TIP3    H220319   4.627   7.026   6.304
 6792TIP3   OH220320   3.708   5.361   1.650
 6792TIP3    H120321   3.784   5.402   1.691
 6792TIP3    H220322   3.728   5.267   1.652
 6793TIP3   OH220323   2.101   3.528   3.198
 6793TIP3    H120324   2.183   3.478   3.200
 6793TIP3    H220325   2.127   3.617   3.223
 6794TIP3   OH220326   3.838   2.240   3.067
 6794TIP3    H120327   3.858   2.228   3.160
 6794TIP3    H220328   3.811   2.153   3.037
 6795TIP3   OH220329   2.446   3.956   0.101
 6795TIP3    H120330   2.499   3.955   0.021
 6795TIP3    H220331   2.472   4.037   0.146
 6796TIP3   OH220332   8.150   3.978   2.878
 6796TIP3    H120333   8.173   3.933   2.797
 6796TIP3    H220334   8.055   3.964   2.887
 6797TIP3   OH220335   4.149   5.057   6.378
 6797TIP3    H120336   4.167   4.963   6.373
 6797TIP3    H220337   4.056   5.064   6.359
 6798TIP3   OH220338   2.051   0.331   3.489
 6798TIP3    H120339   2.125   0.334   3.428
 6798TIP3    H220340   2.090   0.354   3.574
 6799TIP3   OH220341   8.277   3.605   0.182
 6799TIP3    H120342   8.370   3.618   0.166
 6799TIP3    H220343   8.261   3.513   0.157
 6800TIP3   OH220344   0.758   3.527   2.013
 6800TIP3    H120345   0.803   3.574   2.083
 6800TIP3    H220346   0.760   3.587   1.939
 6801TIP3   OH220347   5.875   7.229   2.991
 6801TIP3    H120348   5.944   7.173   3.027
 6801TIP3    H220349   5.803   7.223   3.054
 6802TIP3   OH220350   2.602   5.559   5.811
 6802TIP3    H120351   2.567   5.568   5.723
 6802TIP3    H220352   2.532   5.591   5.869
 6803TIP3   OH220353   5.595   2.663   6.153
 6803TIP3    H120354   5.581   2.571   6.177
 6803TIP3    H220355   5.678   2.685   6.195
 6804TIP3   OH220356   5.990   7.572   5.183
 6804TIP3    H120357   6.030   7.528   5.108
 6804TIP3    H220358   5.934   7.639   5.144
 6805TIP3   OH220359   5.113   0.893   0.622
 6805TIP3    H120360   5.084   0.894   0.531
 6805TIP3    H220361   5.062   0.962   0.664
 6806TIP3   OH220362   2.050   1.310   6.211
 6806TIP3    H120363   2.083   1.222   6.231
 6806TIP3    H220364   2.097   1.368   6.271
 6807TIP3   OH220365   0.530   6.206   4.031
 6807TIP3    H120366   0.588   6.257   3.975
 6807TIP3    H220367   0.443   6.244   4.016
 6808TIP3   OH220368   4.553   4.922   6.783
 6808TIP3    H120369   4.458   4.917   6.771
 6808TIP3    H220370   4.587   4.848   6.732
 6809TIP3   OH220371   3.105   7.263   1.713
 6809TIP3    H120372   3.096   7.191   1.651
 6809TIP3    H220373   3.048   7.239   1.786
 6810TIP3   OH220374   3.945   2.765   4.537
 6810TIP3    H120375   4.031   2.745   4.573
 6810TIP3    H220376   3.947   2.728   4.448
 6811TIP3   OH220377   6.533   2.596   6.164
 6811TIP3    H120378   6.562   2.679   6.203
 6811TIP3    H220379   6.443   2.584   6.196
 6812TIP3   OH220380   7.407   0.442   3.868
 6812TIP3    H120381   7.376   0.464   3.956
 6812TIP3    H220382   7.413   0.526   3.823
 6813TIP3   OH220383   2.981   0.550   1.592
 6813TIP3    H120384   3.000   0.643   1.584
 6813TIP3    H220385   2.959   0.538   1.685
 6814TIP3   OH220386   0.174   7.117   4.237
 6814TIP3    H120387   0.100   7.072   4.277
 6814TIP3    H220388   0.243   7.113   4.304
 6815TIP3   OH220389   1.817   0.891   3.120
 6815TIP3    H120390   1.772   0.975   3.114
 6815TIP3    H220391   1.841   0.883   3.212
 6816TIP3   OH220392   2.764   5.522   1.701
 6816TIP3    H120393   2.811   5.529   1.784
 6816TIP3    H220394   2.817   5.571   1.639
 6817TIP3   OH220395   2.734   4.872   4.084
 6817TIP3    H120396   2.681   4.792   4.091
 6817TIP3    H220397   2.686   4.937   4.135
 6818TIP3   OH220398   6.529   2.679   3.586
 6818TIP3    H120399   6.568   2.753   3.634
 6818TIP3    H220400   6.438   2.679   3.613
 6819TIP3   OH220401   5.007   3.726   2.896
 6819TIP3    H120402   4.999   3.804   2.952
 6819TIP3    H220403   4.916   3.704   2.873
 6820TIP3   OH220404   6.977   4.943   2.726
 6820TIP3    H120405   6.922   5.020   2.711
 6820TIP3    H220406   6.918   4.881   2.769
 6821TIP3   OH220407   6.101   0.479   0.268
 6821TIP3    H120408   6.074   0.554   0.215
 6821TIP3    H220409   6.019   0.440   0.298
 6822TIP3   OH220410   4.750   4.130   3.638
 6822TIP3    H120411   4.662   4.143   3.672
 6822TIP3    H220412   4.754   4.186   3.560
 6823TIP3   OH220413   2.001   3.936   0.841
 6823TIP3    H120414   2.052   3.861   0.872
 6823TIP3    H220415   2.004   3.929   0.746
 6824TIP3   OH220416   7.561   6.537   1.467
 6824TIP3    H120417   7.622   6.469   1.440
 6824TIP3    H220418   7.611   6.618   1.463
 6825TIP3   OH220419   1.488   4.174   1.740
 6825TIP3    H120420   1.435   4.170   1.660
 6825TIP3    H220421   1.552   4.103   1.729
 6826TIP3   OH220422   0.232   1.900   1.813
 6826TIP3    H120423   0.239   1.991   1.782
 6826TIP3    H220424   0.233   1.907   1.909
 6827TIP3   OH220425   6.129   6.176   2.403
 6827TIP3    H120426   6.221   6.162   2.424
 6827TIP3    H220427   6.129   6.254   2.347
 6828TIP3   OH220428   5.937   4.877   5.397
 6828TIP3    H120429   6.009   4.937   5.383
 6828TIP3    H220430   5.975   4.803   5.444
 6829TIP3   OH220431   0.693   1.303   1.209
 6829TIP3    H120432   0.656   1.264   1.288
 6829TIP3    H220433   0.618   1.338   1.162
 6830TIP3   OH220434   0.548   7.601   2.903
 6830TIP3    H120435   0.609   7.539   2.862
 6830TIP3    H220436   0.508   7.647   2.829
 6831TIP3   OH220437   3.810   4.175   3.869
 6831TIP3    H120438   3.819   4.131   3.954
 6831TIP3    H220439   3.897   4.170   3.830
 6832TIP3   OH220440   6.518   7.589   3.964
 6832TIP3    H120441   6.424   7.572   3.952
 6832TIP3    H220442   6.560   7.535   3.898
 6833TIP3   OH220443   3.131   3.674   0.869
 6833TIP3    H120444   3.164   3.599   0.918
 6833TIP3    H220445   3.059   3.708   0.922
 6834TIP3   OH220446   3.711   0.119   5.086
 6834TIP3    H120447   3.771   0.096   5.015
 6834TIP3    H220448   3.762   0.104   5.166
 6835TIP3   OH220449   5.775   2.251   4.002
 6835TIP3    H120450   5.868   2.272   3.997
 6835TIP3    H220451   5.733   2.311   3.941
 6836TIP3   OH220452   6.517   3.283   6.650
 6836TIP3    H120453   6.432   3.265   6.689
 6836TIP3    H220454   6.559   3.345   6.709
 6837TIP3   OH220455   4.097   5.248   1.754
 6837TIP3    H120456   4.165   5.188   1.787
 6837TIP3    H220457   4.071   5.211   1.670
 6838TIP3   OH220458   5.834   5.345   4.202
 6838TIP3    H120459   5.920   5.352   4.161
 6838TIP3    H220460   5.853   5.322   4.293
 6839TIP3   OH220461   0.930   1.228   3.111
 6839TIP3    H120462   1.025   1.233   3.098
 6839TIP3    H220463   0.894   1.284   3.042
 6840TIP3   OH220464   5.268   0.690   2.166
 6840TIP3    H120465   5.317   0.766   2.136
 6840TIP3    H220466   5.206   0.725   2.230
 6841TIP3   OH220467   2.068   4.258   3.798
 6841TIP3    H120468   2.160   4.237   3.809
 6841TIP3    H220469   2.032   4.184   3.749
 6842TIP3   OH220470   2.880   1.113   3.401
 6842TIP3    H120471   2.804   1.096   3.346
 6842TIP3    H220472   2.855   1.081   3.487
 6843TIP3   OH220473   3.272   4.940   2.845
 6843TIP3    H120474   3.246   5.008   2.782
 6843TIP3    H220475   3.354   4.971   2.882
 6844TIP3   OH220476   6.693   1.724   2.510
 6844TIP3    H120477   6.670   1.758   2.424
 6844TIP3    H220478   6.635   1.650   2.524
 6845TIP3   OH220479   3.411   7.232   1.355
 6845TIP3    H120480   3.489   7.180   1.372
 6845TIP3    H220481   3.444   7.312   1.313
 6846TIP3   OH220482   7.419   0.103   6.772
 6846TIP3    H120483   7.463   0.162   6.834
 6846TIP3    H220484   7.470   0.111   6.692
 6847TIP3   OH220485   1.764   6.741   3.843
 6847TIP3    H120486   1.710   6.667   3.817
 6847TIP3    H220487   1.770   6.795   3.765
 6848TIP3   OH220488   8.198   5.156   0.759
 6848TIP3    H120489   8.104   5.139   0.752
 6848TIP3    H220490   8.214   5.228   0.698
 6849TIP3   OH220491   6.287   0.124   0.035
 6849TIP3    H120492   6.346   0.119   0.110
 6849TIP3    H220493   6.272   0.218   0.023
 6850TIP3   OH220494   7.614   7.042   4.558
 6850TIP3    H120495   7.578   7.065   4.644
 6850TIP3    H220496   7.538   7.048   4.499
 6851TIP3   OH220497   6.746   4.649   2.162
 6851TIP3    H120498   6.729   4.592   2.237
 6851TIP3    H220499   6.689   4.724   2.176
 6852TIP3   OH220500   1.420   0.459   0.423
 6852TIP3    H120501   1.478   0.471   0.499
 6852TIP3    H220502   1.391   0.547   0.401
 6853TIP3   OH220503   0.732   5.387   3.887
 6853TIP3    H120504   0.725   5.298   3.921
 6853TIP3    H220505   0.641   5.414   3.871
 6854TIP3   OH220506   7.439   6.579   4.777
 6854TIP3    H120507   7.345   6.565   4.771
 6854TIP3    H220508   7.451   6.632   4.856
 6855TIP3   OH220509   6.291   6.589   6.638
 6855TIP3    H120510   6.330   6.550   6.716
 6855TIP3    H220511   6.362   6.590   6.574
 6856TIP3   OH220512   4.883   0.308   4.853
 6856TIP3    H120513   4.841   0.223   4.843
 6856TIP3    H220514   4.811   0.371   4.850
 6857TIP3   OH220515   3.459   7.114   3.429
 6857TIP3    H120516   3.405   7.040   3.457
 6857TIP3    H220517   3.509   7.081   3.355
 6858TIP3   OH220518   5.018   7.781   5.869
 6858TIP3    H120519   4.960   7.716   5.829
 6858TIP3    H220520   5.021   7.852   5.805
 6859TIP3   OH220521   1.223   1.159   3.122
 6859TIP3    H120522   1.309   1.128   3.094
 6859TIP3    H220523   1.204   1.108   3.201
 6860TIP3   OH220524   0.194   2.270   4.589
 6860TIP3    H120525   0.099   2.263   4.598
 6860TIP3    H220526   0.226   2.276   4.679
 6861TIP3   OH220527   3.498   7.312   6.571
 6861TIP3    H120528   3.450   7.270   6.500
 6861TIP3    H220529   3.465   7.402   6.572
 6862TIP3   OH220530   2.601   5.970   1.275
 6862TIP3    H120531   2.534   6.020   1.229
 6862TIP3    H220532   2.622   5.898   1.216
 6863TIP3   OH220533   6.229   3.373   5.981
 6863TIP3    H120534   6.248   3.454   5.934
 6863TIP3    H220535   6.245   3.303   5.918
 6864TIP3   OH220536   7.316   2.218   3.649
 6864TIP3    H120537   7.281   2.155   3.712
 6864TIP3    H220538   7.376   2.167   3.595
 6865TIP3   OH220539   7.720   2.144   1.806
 6865TIP3    H120540   7.636   2.103   1.830
 6865TIP3    H220541   7.754   2.179   1.888
 6866TIP3   OH220542   5.697   5.098   6.691
 6866TIP3    H120543   5.618   5.152   6.698
 6866TIP3    H220544   5.752   5.146   6.628
 6867TIP3   OH220545   4.178   5.344   3.721
 6867TIP3    H120546   4.102   5.304   3.678
 6867TIP3    H220547   4.248   5.339   3.655
 6868TIP3   OH220548   0.889   0.977   3.467
 6868TIP3    H120549   0.802   1.010   3.491
 6868TIP3    H220550   0.873   0.886   3.441
 6869TIP3   OH220551   5.582   1.204   2.172
 6869TIP3    H120552   5.604   1.151   2.248
 6869TIP3    H220553   5.600   1.294   2.199
 6870TIP3   OH220554   6.638   2.413   2.952
 6870TIP3    H120555   6.599   2.361   3.022
 6870TIP3    H220556   6.627   2.360   2.873
 6871TIP3   OH220557   6.116   2.347   2.986
 6871TIP3    H120558   6.034   2.396   2.997
 6871TIP3    H220559   6.171   2.378   3.058
 6872TIP3   OH220560   7.019   2.776   4.915
 6872TIP3    H120561   6.962   2.709   4.954
 6872TIP3    H220562   6.963   2.820   4.850
 6873TIP3   OH220563   2.006   7.557   3.679
 6873TIP3    H120564   1.969   7.478   3.639
 6873TIP3    H220565   2.009   7.621   3.607
 6874TIP3   OH220566   7.344   6.231   2.726
 6874TIP3    H120567   7.432   6.268   2.721
 6874TIP3    H220568   7.357   6.137   2.731
 6875TIP3   OH220569   7.198   7.700   5.534
 6875TIP3    H120570   7.226   7.627   5.479
 6875TIP3    H220571   7.113   7.672   5.569
 6876TIP3   OH220572   1.295   4.900   4.350
 6876TIP3    H120573   1.282   4.842   4.426
 6876TIP3    H220574   1.364   4.960   4.377
 6877TIP3   OH220575   4.892   4.310   2.944
 6877TIP3    H120576   4.868   4.340   2.856
 6877TIP3    H220577   4.868   4.383   3.002
 6878TIP3   OH220578   6.319   2.036   2.738
 6878TIP3    H120579   6.352   1.947   2.731
 6878TIP3    H220580   6.277   2.040   2.824
 6879TIP3   OH220581   0.536   0.122   3.763
 6879TIP3    H120582   0.494   0.043   3.795
 6879TIP3    H220583   0.464   0.182   3.743
 6880TIP3   OH220584   5.907   3.677   6.241
 6880TIP3    H120585   5.950   3.591   6.239
 6880TIP3    H220586   5.932   3.715   6.325
 6881TIP3   OH220587   6.142   6.751   3.033
 6881TIP3    H120588   6.212   6.773   2.972
 6881TIP3    H220589   6.186   6.702   3.103
 6882TIP3   OH220590   2.981   0.641   6.391
 6882TIP3    H120591   2.968   0.598   6.306
 6882TIP3    H220592   2.939   0.726   6.382
 6883TIP3   OH220593   6.428   4.332   1.119
 6883TIP3    H120594   6.510   4.346   1.071
 6883TIP3    H220595   6.446   4.364   1.207
 6884TIP3   OH220596   3.708   1.295   2.657
 6884TIP3    H120597   3.730   1.219   2.710
 6884TIP3    H220598   3.689   1.365   2.720
 6885TIP3   OH220599   3.791   3.314   2.190
 6885TIP3    H120600   3.785   3.259   2.269
 6885TIP3    H220601   3.844   3.262   2.129
 6886TIP3   OH220602   0.768   2.323   2.025
 6886TIP3    H120603   0.799   2.359   1.942
 6886TIP3    H220604   0.720   2.394   2.067
 6887TIP3   OH220605   2.468   3.086   1.384
 6887TIP3    H120606   2.454   3.109   1.293
 6887TIP3    H220607   2.463   3.169   1.431
 6888TIP3   OH220608   3.197   4.482   3.911
 6888TIP3    H120609   3.134   4.457   3.979
 6888TIP3    H220610   3.280   4.493   3.958
 6889TIP3   OH220611   0.592   7.265   0.741
 6889TIP3    H120612   0.656   7.320   0.787
 6889TIP3    H220613   0.559   7.206   0.808
 6890TIP3   OH220614   6.354   1.939   0.976
 6890TIP3    H120615   6.414   1.938   0.901
 6890TIP3    H220616   6.393   2.002   1.037
 6891TIP3   OH220617   1.968   2.040   6.187
 6891TIP3    H120618   1.921   2.107   6.138
 6891TIP3    H220619   1.973   2.074   6.276
 6892TIP3   OH220620   2.344   3.688   5.875
 6892TIP3    H120621   2.250   3.682   5.892
 6892TIP3    H220622   2.355   3.648   5.789
 6893TIP3   OH220623   6.003   0.772   1.818
 6893TIP3    H120624   6.026   0.681   1.838
 6893TIP3    H220625   6.075   0.803   1.762
 6894TIP3   OH220626   7.400   2.333   2.210
 6894TIP3    H120627   7.339   2.407   2.209
 6894TIP3    H220628   7.357   2.268   2.265
 6895TIP3   OH220629   1.181   5.635   4.480
 6895TIP3    H120630   1.087   5.619   4.493
 6895TIP3    H220631   1.185   5.696   4.407
 6896TIP3   OH220632   6.065   5.424   5.691
 6896TIP3    H120633   6.058   5.519   5.688
 6896TIP3    H220634   5.986   5.396   5.737
 6897TIP3   OH220635   7.837   1.444   0.103
 6897TIP3    H120636   7.879   1.385   0.166
 6897TIP3    H220637   7.792   1.386   0.042
 6898TIP3   OH220638   4.255   3.572   4.793
 6898TIP3    H120639   4.236   3.664   4.775
 6898TIP3    H220640   4.211   3.524   4.724
 6899TIP3   OH220641   1.478   4.371   0.075
 6899TIP3    H120642   1.537   4.359   0.148
 6899TIP3    H220643   1.404   4.313   0.093
 6900TIP3   OH220644   7.883   2.139   2.449
 6900TIP3    H120645   7.909   2.051   2.422
 6900TIP3    H220646   7.788   2.141   2.435
 6901TIP3   OH220647   0.340   4.376   3.845
 6901TIP3    H120648   0.245   4.389   3.848
 6901TIP3    H220649   0.365   4.361   3.936
 6902TIP3   OH220650   2.451   0.959   4.823
 6902TIP3    H120651   2.488   0.891   4.879
 6902TIP3    H220652   2.452   1.038   4.877
 6903TIP3   OH220653   5.352   2.436   5.274
 6903TIP3    H120654   5.441   2.454   5.241
 6903TIP3    H220655   5.317   2.370   5.214
 6904TIP3   OH220656   1.605   2.789   6.577
 6904TIP3    H120657   1.618   2.743   6.494
 6904TIP3    H220658   1.545   2.860   6.557
 6905TIP3   OH220659   3.246   5.980   0.321
 6905TIP3    H120660   3.331   5.976   0.277
 6905TIP3    H220661   3.232   5.891   0.354
 6906TIP3   OH220662   3.756   5.797   5.679
 6906TIP3    H120663   3.729   5.747   5.756
 6906TIP3    H220664   3.851   5.810   5.690
 6907TIP3   OH220665   3.660   0.340   4.753
 6907TIP3    H120666   3.700   0.400   4.815
 6907TIP3    H220667   3.727   0.324   4.687
 6908TIP3   OH220668   6.096   5.109   3.944
 6908TIP3    H120669   6.126   5.155   3.865
 6908TIP3    H220670   6.080   5.020   3.915
 6909TIP3   OH220671   0.067   4.335   0.180
 6909TIP3    H120672   0.142   4.383   0.145
 6909TIP3    H220673   0.078   4.340   0.275
 6910TIP3   OH220674   4.502   0.898   6.535
 6910TIP3    H120675   4.547   0.977   6.566
 6910TIP3    H220676   4.573   0.835   6.521
 6911TIP3   OH220677   6.492   4.039   1.024
 6911TIP3    H120678   6.495   3.964   0.965
 6911TIP3    H220679   6.583   4.069   1.030
 6912TIP3   OH220680   3.963   7.174   3.495
 6912TIP3    H120681   3.898   7.236   3.526
 6912TIP3    H220682   3.946   7.094   3.545
 6913TIP3   OH220683   0.558   1.617   5.633
 6913TIP3    H120684   0.524   1.672   5.562
 6913TIP3    H220685   0.486   1.612   5.696
 6914TIP3   OH220686   5.299   5.163   6.453
 6914TIP3    H120687   5.245   5.241   6.464
 6914TIP3    H220688   5.338   5.149   6.540
 6915TIP3   OH220689   0.901   3.429   4.804
 6915TIP3    H120690   0.941   3.432   4.890
 6915TIP3    H220691   0.935   3.348   4.765
 6916TIP3   OH220692   3.469   5.903   2.101
 6916TIP3    H120693   3.374   5.906   2.090
 6916TIP3    H220694   3.489   5.974   2.161
 6917TIP3   OH220695   0.858   0.857   4.963
 6917TIP3    H120696   0.899   0.942   4.948
 6917TIP3    H220697   0.903   0.797   4.903
 6918TIP3   OH220698   5.209   0.331   2.475
 6918TIP3    H120699   5.157   0.257   2.446
 6918TIP3    H220700   5.180   0.346   2.565
 6919TIP3   OH220701   5.057   6.763   5.908
 6919TIP3    H120702   5.115   6.829   5.946
 6919TIP3    H220703   5.058   6.781   5.814
 6920TIP3   OH220704   1.201   4.164   6.275
 6920TIP3    H120705   1.295   4.183   6.270
 6920TIP3    H220706   1.193   4.105   6.350
 6921TIP3   OH220707   3.987   5.412   3.457
 6921TIP3    H120708   3.952   5.477   3.518
 6921TIP3    H220709   3.927   5.415   3.382
 6922TIP3   OH220710   2.105   0.086   6.139
 6922TIP3    H120711   2.039   0.027   6.103
 6922TIP3    H220712   2.099   0.165   6.084
 6923TIP3   OH220713   2.606   3.717   3.114
 6923TIP3    H120714   2.676   3.656   3.091
 6923TIP3    H220715   2.560   3.674   3.186
 6924TIP3   OH220716   1.057   1.947   4.698
 6924TIP3    H120717   1.065   2.022   4.757
 6924TIP3    H220718   1.057   1.986   4.611
 6925TIP3   OH220719   1.608   1.564   1.013
 6925TIP3    H120720   1.656   1.490   1.050
 6925TIP3    H220721   1.664   1.596   0.942
 6926TIP3   OH220722   8.193   3.999   3.527
 6926TIP3    H120723   8.258   3.990   3.457
 6926TIP3    H220724   8.197   3.915   3.573
 6927TIP3   OH220725   6.515   6.133   6.672
 6927TIP3    H120726   6.553   6.168   6.592
 6927TIP3    H220727   6.588   6.133   6.735
 6928TIP3   OH220728   2.725   3.397   5.021
 6928TIP3    H120729   2.652   3.378   4.962
 6928TIP3    H220730   2.763   3.477   4.987
 6929TIP3   OH220731   3.859   4.185   2.834
 6929TIP3    H120732   3.859   4.174   2.739
 6929TIP3    H220733   3.925   4.123   2.865
 6930TIP3   OH220734   6.107   6.885   2.614
 6930TIP3    H120735   6.053   6.951   2.656
 6930TIP3    H220736   6.184   6.933   2.583
 6931TIP3   OH220737   8.118   5.763   6.045
 6931TIP3    H120738   8.173   5.701   6.091
 6931TIP3    H220739   8.103   5.834   6.107
 6932TIP3   OH220740   0.776   2.548   1.317
 6932TIP3    H120741   0.831   2.560   1.395
 6932TIP3    H220742   0.732   2.465   1.333
 6933TIP3   OH220743   5.073   1.637   4.709
 6933TIP3    H120744   5.051   1.557   4.660
 6933TIP3    H220745   5.000   1.650   4.768
 6934TIP3   OH220746   8.247   4.011   1.598
 6934TIP3    H120747   8.206   4.086   1.554
 6934TIP3    H220748   8.218   3.935   1.548
 6935TIP3   OH220749   3.511   5.250   1.212
 6935TIP3    H120750   3.474   5.321   1.264
 6935TIP3    H220751   3.449   5.238   1.140
 6936TIP3   OH220752   1.356   3.082   3.932
 6936TIP3    H120753   1.295   3.119   3.995
 6936TIP3    H220754   1.392   3.158   3.886
 6937TIP3   OH220755   2.341   4.281   5.596
 6937TIP3    H120756   2.410   4.282   5.663
 6937TIP3    H220757   2.316   4.189   5.589
 6938TIP3   OH220758   4.526   4.213   4.815
 6938TIP3    H120759   4.515   4.119   4.809
 6938TIP3    H220760   4.606   4.232   4.766
 6939TIP3   OH220761   7.345   2.193   6.673
 6939TIP3    H120762   7.395   2.271   6.650
 6939TIP3    H220763   7.410   2.131   6.705
 6940TIP3   OH220764   0.830   7.329   6.265
 6940TIP3    H120765   0.886   7.372   6.201
 6940TIP3    H220766   0.773   7.399   6.298
 6941TIP3   OH220767   2.422   4.096   4.729
 6941TIP3    H120768   2.409   4.191   4.727
 6941TIP3    H220769   2.389   4.070   4.815
 6942TIP3   OH220770   3.180   1.653   5.960
 6942TIP3    H120771   3.138   1.577   6.001
 6942TIP3    H220772   3.108   1.712   5.940
 6943TIP3   OH220773   2.310   6.739   5.616
 6943TIP3    H120774   2.239   6.797   5.644
 6943TIP3    H220775   2.274   6.651   5.624
 6944TIP3   OH220776   7.217   2.210   4.050
 6944TIP3    H120777   7.247   2.268   3.980
 6944TIP3    H220778   7.124   2.228   4.058
 6945TIP3   OH220779   0.906   4.942   5.399
 6945TIP3    H120780   0.928   4.932   5.306
 6945TIP3    H220781   0.888   5.036   5.409
 6946TIP3   OH220782   5.752   4.999   3.304
 6946TIP3    H120783   5.696   4.922   3.312
 6946TIP3    H220784   5.697   5.072   3.333
 6947TIP3   OH220785   2.449   6.162   2.168
 6947TIP3    H120786   2.395   6.118   2.102
 6947TIP3    H220787   2.397   6.157   2.248
 6948TIP3   OH220788   6.751   2.228   3.524
 6948TIP3    H120789   6.701   2.186   3.593
 6948TIP3    H220790   6.691   2.292   3.486
 6949TIP3   OH220791   3.163   0.085   1.935
 6949TIP3    H120792   3.183   0.173   1.966
 6949TIP3    H220793   3.150   0.095   1.841
 6950TIP3   OH220794   0.201   7.441   6.586
 6950TIP3    H120795   0.146   7.486   6.650
 6950TIP3    H220796   0.141   7.412   6.518
 6951TIP3   OH220797   7.162   7.371   2.548
 6951TIP3    H120798   7.097   7.344   2.482
 6951TIP3    H220799   7.146   7.314   2.623
 6952TIP3   OH220800   7.167   3.301   2.628
 6952TIP3    H120801   7.168   3.393   2.601
 6952TIP3    H220802   7.191   3.253   2.548
 6953TIP3   OH220803   0.704   5.334   2.190
 6953TIP3    H120804   0.717   5.397   2.120
 6953TIP3    H220805   0.787   5.287   2.197
 6954TIP3   OH220806   1.303   6.579   3.359
 6954TIP3    H120807   1.358   6.636   3.305
 6954TIP3    H220808   1.264   6.638   3.424
 6955TIP3   OH220809   7.292   4.451   5.862
 6955TIP3    H120810   7.256   4.474   5.776
 6955TIP3    H220811   7.251   4.513   5.922
 6956TIP3   OH220812   5.968   3.096   1.446
 6956TIP3    H120813   6.047   3.061   1.405
 6956TIP3    H220814   5.997   3.177   1.488
 6957TIP3   OH220815   6.301   2.988   0.520
 6957TIP3    H120816   6.214   2.953   0.504
 6957TIP3    H220817   6.310   2.989   0.615
 6958TIP3   OH220818   1.080   0.987   2.856
 6958TIP3    H120819   1.062   0.978   2.950
 6958TIP3    H220820   1.163   0.941   2.843
 6959TIP3   OH220821   2.949   2.299   6.653
 6959TIP3    H120822   2.977   2.356   6.581
 6959TIP3    H220823   2.986   2.213   6.631
 6960TIP3   OH220824   7.179   3.578   2.576
 6960TIP3    H120825   7.273   3.595   2.587
 6960TIP3    H220826   7.137   3.659   2.607
 6961TIP3   OH220827   0.944   6.793   3.757
 6961TIP3    H120828   0.986   6.708   3.746
 6961TIP3    H220829   1.010   6.847   3.798
 6962TIP3   OH220830   5.333   0.128   5.627
 6962TIP3    H120831   5.402   0.154   5.566
 6962TIP3    H220832   5.377   0.121   5.712
 6963TIP3   OH220833   5.096   2.190   2.994
 6963TIP3    H120834   5.179   2.222   3.028
 6963TIP3    H220835   5.041   2.268   2.986
 6964TIP3   OH220836   0.988   6.307   1.935
 6964TIP3    H120837   0.910   6.326   1.987
 6964TIP3    H220838   1.009   6.216   1.957
 6965TIP3   OH220839   4.468   0.232   5.526
 6965TIP3    H120840   4.462   0.138   5.543
 6965TIP3    H220841   4.561   0.248   5.511
 6966TIP3   OH220842   4.182   4.495   4.518
 6966TIP3    H120843   4.273   4.512   4.495
 6966TIP3    H220844   4.178   4.401   4.536
 6967TIP3   OH220845   0.367   4.630   2.973
 6967TIP3    H120846   0.407   4.638   3.059
 6967TIP3    H220847   0.408   4.552   2.935
 6968TIP3   OH220848   5.484   4.678   5.019
 6968TIP3    H120849   5.449   4.589   5.024
 6968TIP3    H220850   5.407   4.734   5.023
 6969TIP3   OH220851   0.667   3.446   1.444
 6969TIP3    H120852   0.618   3.438   1.362
 6969TIP3    H220853   0.675   3.541   1.458
 6970TIP3   OH220854   7.237   5.874   4.030
 6970TIP3    H120855   7.174   5.889   4.100
 6970TIP3    H220856   7.313   5.927   4.055
 6971TIP3   OH220857   7.520   6.888   3.756
 6971TIP3    H120858   7.518   6.892   3.852
 6971TIP3    H220859   7.595   6.941   3.732
 6972TIP3   OH220860   1.574   5.113   0.750
 6972TIP3    H120861   1.607   5.083   0.665
 6972TIP3    H220862   1.608   5.202   0.758
 6973TIP3   OH220863   1.885   1.838   1.240
 6973TIP3    H120864   1.937   1.841   1.160
 6973TIP3    H220865   1.877   1.930   1.267
 6974TIP3   OH220866   7.119   3.746   2.798
 6974TIP3    H120867   7.186   3.794   2.749
 6974TIP3    H220868   7.085   3.809   2.861
 6975TIP3   OH220869   0.682   1.058   2.947
 6975TIP3    H120870   0.734   1.005   3.008
 6975TIP3    H220871   0.612   1.094   3.001
 6976TIP3   OH220872   7.989   7.489   2.250
 6976TIP3    H120873   7.986   7.542   2.170
 6976TIP3    H220874   8.073   7.443   2.245
 6977TIP3   OH220875   5.632   7.263   5.279
 6977TIP3    H120876   5.578   7.334   5.245
 6977TIP3    H220877   5.704   7.307   5.325
 6978TIP3   OH220878   4.260   6.563   0.702
 6978TIP3    H120879   4.345   6.552   0.746
 6978TIP3    H220880   4.281   6.611   0.622
 6979TIP3   OH220881   6.433   0.312   2.045
 6979TIP3    H120882   6.405   0.400   2.071
 6979TIP3    H220883   6.473   0.275   2.124
 6980TIP3   OH220884   3.686   3.153   2.372
 6980TIP3    H120885   3.652   3.092   2.306
 6980TIP3    H220886   3.699   3.098   2.450
 6981TIP3   OH220887   5.373   1.186   5.346
 6981TIP3    H120888   5.431   1.235   5.288
 6981TIP3    H220889   5.427   1.167   5.423
 6982TIP3   OH220890   5.886   0.313   2.128
 6982TIP3    H120891   5.796   0.296   2.153
 6982TIP3    H220892   5.911   0.238   2.074
 6983TIP3   OH220893   1.788   3.141   0.545
 6983TIP3    H120894   1.749   3.191   0.617
 6983TIP3    H220895   1.720   3.079   0.520
 6984TIP3   OH220896   6.685   4.089   4.509
 6984TIP3    H120897   6.610   4.083   4.449
 6984TIP3    H220898   6.647   4.094   4.596
 6985TIP3   OH220899   4.926   0.896   5.064
 6985TIP3    H120900   4.963   0.956   4.999
 6985TIP3    H220901   4.879   0.952   5.125
 6986TIP3   OH220902   7.021   0.561   6.366
 6986TIP3    H120903   6.965   0.613   6.309
 6986TIP3    H220904   7.009   0.471   6.336
 6987TIP3   OH220905   0.500   0.101   0.979
 6987TIP3    H120906   0.451   0.043   1.037
 6987TIP3    H220907   0.494   0.187   1.021
 6988TIP3   OH220908   4.601   1.586   1.014
 6988TIP3    H120909   4.693   1.560   1.023
 6988TIP3    H220910   4.559   1.509   0.975
 6989TIP3   OH220911   0.490   3.562   4.517
 6989TIP3    H120912   0.489   3.645   4.468
 6989TIP3    H220913   0.434   3.579   4.593
 6990TIP3   OH220914   7.033   3.146   2.263
 6990TIP3    H120915   7.088   3.069   2.276
 6990TIP3    H220916   6.960   3.135   2.324
 6991TIP3   OH220917   4.014   5.317   4.143
 6991TIP3    H120918   3.982   5.400   4.175
 6991TIP3    H220919   4.036   5.267   4.221
 6992TIP3   OH220920   6.007   0.825   0.732
 6992TIP3    H120921   5.951   0.773   0.789
 6992TIP3    H220922   6.007   0.777   0.649
 6993TIP3   OH220923   2.836   1.422   3.940
 6993TIP3    H120924   2.792   1.496   3.897
 6993TIP3    H220925   2.902   1.464   3.996
 6994TIP3   OH220926   4.020   5.774   4.507
 6994TIP3    H120927   4.070   5.819   4.439
 6994TIP3    H220928   3.935   5.756   4.467
 6995TIP3   OH220929   2.981   4.545   3.724
 6995TIP3    H120930   3.070   4.539   3.759
 6995TIP3    H220931   2.981   4.628   3.675
 6996TIP3   OH220932   5.582   7.087   5.004
 6996TIP3    H120933   5.638   7.164   4.990
 6996TIP3    H220934   5.639   7.024   5.047
 6997TIP3   OH220935   8.038   4.378   4.654
 6997TIP3    H120936   7.984   4.409   4.582
 6997TIP3    H220937   7.976   4.365   4.726
 6998TIP3   OH220938   2.528   2.717   2.988
 6998TIP3    H120939   2.619   2.736   3.011
 6998TIP3    H220940   2.496   2.798   2.947
 6999TIP3   OH220941   3.218   4.645   5.932
 6999TIP3    H120942   3.296   4.699   5.947
 6999TIP3    H220943   3.218   4.629   5.837
 7000TIP3   OH220944   6.966   0.234   4.434
 7000TIP3    H120945   6.977   0.314   4.485
 7000TIP3    H220946   6.924   0.264   4.353
 7001TIP3   OH220947   3.104   3.763   3.901
 7001TIP3    H120948   3.093   3.749   3.807
 7001TIP3    H220949   3.135   3.678   3.934
 7002TIP3   OH220950   2.016   2.445   5.519
 7002TIP3    H120951   2.021   2.539   5.505
 7002TIP3    H220952   2.013   2.407   5.430
 7003TIP3   OH220953   2.325   5.056   1.101
 7003TIP3    H120954   2.254   5.107   1.062
 7003TIP3    H220955   2.400   5.071   1.043
 7004TIP3   OH220956   4.252   7.003   0.655
 7004TIP3    H120957   4.237   7.035   0.566
 7004TIP3    H220958   4.342   7.027   0.674
 7005TIP3   OH220959   7.202   7.183   2.217
 7005TIP3    H120960   7.277   7.124   2.225
 7005TIP3    H220961   7.154   7.171   2.299
 7006TIP3   OH220962   3.580   3.055   5.827
 7006TIP3    H120963   3.486   3.046   5.846
 7006TIP3    H220964   3.623   3.033   5.910
 7007TIP3   OH220965   3.047   1.508   3.400
 7007TIP3    H120966   3.091   1.581   3.444
 7007TIP3    H220967   2.954   1.522   3.418
 7008TIP3   OH220968   0.947   1.381   6.705
 7008TIP3    H120969   0.963   1.466   6.747
 7008TIP3    H220970   1.034   1.341   6.701
 7009TIP3   OH220971   1.102   6.608   3.142
 7009TIP3    H120972   1.154   6.532   3.118
 7009TIP3    H220973   1.030   6.573   3.194
 7010TIP3   OH220974   0.319   5.211   2.812
 7010TIP3    H120975   0.392   5.268   2.785
 7010TIP3    H220976   0.281   5.182   2.729
 7011TIP3   OH220977   3.018   7.437   4.634
 7011TIP3    H120978   3.033   7.461   4.725
 7011TIP3    H220979   2.956   7.502   4.601
 7012TIP3   OH220980   1.867   3.079   2.807
 7012TIP3    H120981   1.944   3.132   2.829
 7012TIP3    H220982   1.794   3.141   2.812
 7013TIP3   OH220983   6.891   6.804   5.977
 7013TIP3    H120984   6.840   6.879   6.005
 7013TIP3    H220985   6.848   6.774   5.896
 7014TIP3   OH220986   2.020   1.910   6.773
 7014TIP3    H120987   2.106   1.876   6.748
 7014TIP3    H220988   1.958   1.842   6.746
 7015TIP3   OH220989   8.242   7.098   4.378
 7015TIP3    H120990   8.213   7.039   4.447
 7015TIP3    H220991   8.292   7.166   4.423
 7016TIP3   OH220992   3.826   7.621   4.112
 7016TIP3    H120993   3.764   7.596   4.044
 7016TIP3    H220994   3.832   7.717   4.105
 7017TIP3   OH220995   5.322   7.669   1.168
 7017TIP3    H120996   5.397   7.719   1.135
 7017TIP3    H220997   5.326   7.586   1.120
 7018TIP3   OH220998   8.066   1.633   1.754
 7018TIP3    H120999   8.024   1.608   1.836
 7018TIP3    H221000   8.001   1.614   1.686
 7019TIP3   OH221001   6.788   4.729   3.984
 7019TIP3    H121002   6.749   4.642   3.979
 7019TIP3    H221003   6.876   4.718   3.948
 7020TIP3   OH221004   0.284   3.206   1.645
 7020TIP3    H121005   0.204   3.226   1.596
 7020TIP3    H221006   0.325   3.291   1.660
 7021TIP3   OH221007   5.392   2.536   4.978
 7021TIP3    H121008   5.322   2.533   5.043
 7021TIP3    H221009   5.471   2.513   5.027
 7022TIP3   OH221010   0.786   6.846   1.844
 7022TIP3    H121011   0.850   6.853   1.774
 7022TIP3    H221012   0.810   6.765   1.891
 7023TIP3   OH221013   6.663   3.614   0.542
 7023TIP3    H121014   6.691   3.595   0.453
 7023TIP3    H221015   6.569   3.600   0.541
 7024TIP3   OH221016   6.750   0.756   6.312
 7024TIP3    H121017   6.812   0.830   6.314
 7024TIP3    H221018   6.696   0.773   6.235
 7025TIP3   OH221019   0.714   5.174   4.762
 7025TIP3    H121020   0.622   5.146   4.756
 7025TIP3    H221021   0.764   5.097   4.733
 7026TIP3   OH221022   2.606   3.424   2.168
 7026TIP3    H121023   2.644   3.451   2.085
 7026TIP3    H221024   2.680   3.416   2.227
 7027TIP3   OH221025   7.253   6.403   2.101
 7027TIP3    H121026   7.256   6.492   2.067
 7027TIP3    H221027   7.206   6.353   2.035
 7028TIP3   OH221028   2.332   2.543   1.372
 7028TIP3    H121029   2.373   2.517   1.455
 7028TIP3    H221030   2.333   2.639   1.374
 7029TIP3   OH221031   3.765   6.919   5.967
 7029TIP3    H121032   3.851   6.880   5.984
 7029TIP3    H221033   3.706   6.844   5.958
 7030TIP3   OH221034   6.526   6.760   0.684
 7030TIP3    H121035   6.619   6.749   0.663
 7030TIP3    H221036   6.519   6.850   0.716
 7031TIP3   OH221037   4.289   3.917   1.100
 7031TIP3    H121038   4.287   3.996   1.045
 7031TIP3    H221039   4.382   3.898   1.110
 7032TIP3   OH221040   7.286   7.148   5.443
 7032TIP3    H121041   7.375   7.116   5.431
 7032TIP3    H221042   7.285   7.232   5.396
 7033TIP3   OH221043   1.017   5.040   5.135
 7033TIP3    H121044   1.041   5.133   5.134
 7033TIP3    H221045   0.943   5.034   5.075
 7034TIP3   OH221046   1.848   3.598   5.760
 7034TIP3    H121047   1.860   3.587   5.666
 7034TIP3    H221048   1.901   3.528   5.799
 7035TIP3   OH221049   4.138   3.320   4.143
 7035TIP3    H121050   4.206   3.386   4.156
 7035TIP3    H221051   4.182   3.237   4.161
 7036TIP3   OH221052   2.618   1.881   4.042
 7036TIP3    H121053   2.523   1.890   4.032
 7036TIP3    H221054   2.655   1.935   3.971
 7037TIP3   OH221055   6.217   3.018   1.082
 7037TIP3    H121056   6.146   3.079   1.063
 7037TIP3    H221057   6.199   2.942   1.026
 7038TIP3   OH221058   4.806   2.363   2.670
 7038TIP3    H121059   4.875   2.298   2.682
 7038TIP3    H221060   4.725   2.317   2.691
 7039TIP3   OH221061   3.282   7.827   4.428
 7039TIP3    H121062   3.254   7.882   4.355
 7039TIP3    H221063   3.326   7.753   4.387
 7040TIP3   OH221064   2.174   2.949   2.459
 7040TIP3    H121065   2.100   2.974   2.404
 7040TIP3    H221066   2.208   3.032   2.493
 7041TIP3   OH221067   6.707   1.901   3.347
 7041TIP3    H121068   6.652   1.823   3.351
 7041TIP3    H221069   6.744   1.909   3.435
 7042TIP3   OH221070   6.368   1.855   1.582
 7042TIP3    H121071   6.418   1.936   1.571
 7042TIP3    H221072   6.309   1.852   1.507
 7043TIP3   OH221073   0.097   7.696   1.423
 7043TIP3    H121074   0.070   7.663   1.509
 7043TIP3    H221075   0.131   7.619   1.378
 7044TIP3   OH221076   7.326   0.622   1.359
 7044TIP3    H121077   7.306   0.529   1.346
 7044TIP3    H221078   7.353   0.653   1.272
 7045TIP3   OH221079   6.154   2.599   1.360
 7045TIP3    H121080   6.083   2.651   1.396
 7045TIP3    H221081   6.118   2.510   1.354
 7046TIP3   OH221082   2.044   0.518   4.236
 7046TIP3    H121083   1.974   0.456   4.253
 7046TIP3    H221084   2.027   0.591   4.296
 7047TIP3   OH221085   6.442   0.031   0.646
 7047TIP3    H121086   6.385   0.096   0.686
 7047TIP3    H221087   6.382  -0.033   0.608
 7048TIP3   OH221088   1.644   3.154   3.959
 7048TIP3    H121089   1.628   3.200   3.877
 7048TIP3    H221090   1.568   3.175   4.014
 7049TIP3   OH221091   4.371   6.984   2.310
 7049TIP3    H121092   4.280   7.013   2.319
 7049TIP3    H221093   4.420   7.064   2.289
 7050TIP3   OH221094   7.071   5.746   3.834
 7050TIP3    H121095   7.130   5.683   3.792
 7050TIP3    H221096   7.108   5.758   3.922
 7051TIP3   OH221097   6.144   4.962   3.716
 7051TIP3    H121098   6.232   4.989   3.742
 7051TIP3    H221099   6.144   4.970   3.620
 7052TIP3   OH221100   4.889   3.168   3.200
 7052TIP3    H121101   4.799   3.158   3.233
 7052TIP3    H221102   4.880   3.227   3.125
 7053TIP3   OH221103   4.687   1.052   2.919
 7053TIP3    H121104   4.666   0.985   2.983
 7053TIP3    H221105   4.605   1.069   2.873
 7054TIP3   OH221106   3.070   3.711   3.576
 7054TIP3    H121107   3.039   3.787   3.624
 7054TIP3    H221108   2.992   3.677   3.531
 7055TIP3   OH221109   0.469   5.295   5.526
 7055TIP3    H121110   0.470   5.260   5.615
 7055TIP3    H221111   0.381   5.331   5.515
 7056TIP3   OH221112   1.895   0.114   4.948
 7056TIP3    H121113   1.841   0.039   4.973
 7056TIP3    H221114   1.841   0.190   4.970
 7057TIP3   OH221115   2.109   5.469   1.632
 7057TIP3    H121116   2.090   5.401   1.567
 7057TIP3    H221117   2.173   5.526   1.590
 7058TIP3   OH221118   1.538   7.477   4.792
 7058TIP3    H121119   1.446   7.482   4.768
 7058TIP3    H221120   1.538   7.468   4.887
 7059TIP3   OH221121   6.540   5.296   1.798
 7059TIP3    H121122   6.533   5.375   1.851
 7059TIP3    H221123   6.494   5.228   1.848
 7060TIP3   OH221124   3.307   5.757   2.479
 7060TIP3    H121125   3.233   5.814   2.458
 7060TIP3    H221126   3.309   5.693   2.407
 7061TIP3   OH221127   3.768   7.701   0.925
 7061TIP3    H121128   3.773   7.656   1.009
 7061TIP3    H221129   3.675   7.725   0.916
 7062TIP3   OH221130   3.636   5.350   5.885
 7062TIP3    H121131   3.731   5.359   5.886
 7062TIP3    H221132   3.612   5.337   5.977
 7063TIP3   OH221133   0.047   0.577   3.745
 7063TIP3    H121134   0.000   0.506   3.789
 7063TIP3    H221135  -0.010   0.653   3.753
 7064TIP3   OH221136   2.798   5.330   4.408
 7064TIP3    H121137   2.869   5.361   4.352
 7064TIP3    H221138   2.744   5.407   4.423
 7065TIP3   OH221139   1.732   4.115   1.299
 7065TIP3    H121140   1.757   4.145   1.386
 7065TIP3    H221141   1.649   4.160   1.280
 7066TIP3   OH221142   3.106   0.162   6.040
 7066TIP3    H121143   3.035   0.149   6.103
 7066TIP3    H221144   3.185   0.138   6.089
 7067TIP3   OH221145   5.057   5.866   1.156
 7067TIP3    H121146   5.125   5.889   1.220
 7067TIP3    H221147   5.086   5.906   1.074
 7068TIP3   OH221148   8.073   2.106   0.278
 7068TIP3    H121149   8.120   2.026   0.300
 7068TIP3    H221150   8.141   2.169   0.256
 7069TIP3   OH221151   0.885   7.612   2.261
 7069TIP3    H121152   0.908   7.561   2.339
 7069TIP3    H221153   0.813   7.668   2.290
 7070TIP3   OH221154   0.870   5.067   3.449
 7070TIP3    H121155   0.910   5.149   3.421
 7070TIP3    H221156   0.932   5.030   3.512
 7071TIP3   OH221157   7.270   3.260   1.936
 7071TIP3    H121158   7.271   3.166   1.918
 7071TIP3    H221159   7.362   3.286   1.930
 7072TIP3   OH221160   7.545   5.840   1.635
 7072TIP3    H121161   7.532   5.754   1.673
 7072TIP3    H221162   7.604   5.884   1.696
 7073TIP3   OH221163   0.866   6.642   5.438
 7073TIP3    H121164   0.804   6.701   5.480
 7073TIP3    H221165   0.952   6.669   5.470
 7074TIP3   OH221166   8.033   7.156   0.446
 7074TIP3    H121167   7.943   7.187   0.437
 7074TIP3    H221168   8.040   7.129   0.538
 7075TIP3   OH221169   8.105   3.616   1.093
 7075TIP3    H121170   8.095   3.684   1.026
 7075TIP3    H221171   8.195   3.586   1.083
 7076TIP3   OH221172   1.930   6.020   0.318
 7076TIP3    H121173   2.007   6.064   0.283
 7076TIP3    H221174   1.894   5.971   0.243
 7077TIP3   OH221175   2.924   4.541   1.600
 7077TIP3    H121176   2.975   4.483   1.543
 7077TIP3    H221177   2.984   4.610   1.626
 7078TIP3   OH221178   3.243   6.829   1.816
 7078TIP3    H121179   3.224   6.827   1.722
 7078TIP3    H221180   3.159   6.812   1.859
 7079TIP3   OH221181   0.219   2.245   1.250
 7079TIP3    H121182   0.250   2.156   1.267
 7079TIP3    H221183   0.283   2.301   1.294
 7080TIP3   OH221184   1.156   7.123   0.524
 7080TIP3    H121185   1.221   7.112   0.455
 7080TIP3    H221186   1.207   7.128   0.605
 7081TIP3   OH221187   1.057   0.877   6.635
 7081TIP3    H121188   1.130   0.935   6.613
 7081TIP3    H221189   1.026   0.909   6.720
 7082TIP3   OH221190   1.222   1.426   3.156
 7082TIP3    H121191   1.317   1.419   3.167
 7082TIP3    H221192   1.198   1.345   3.110
 7083TIP3   OH221193   2.798   4.026   4.238
 7083TIP3    H121194   2.816   4.085   4.312
 7083TIP3    H221195   2.884   4.004   4.204
 7084TIP3   OH221196   0.275   0.926   5.968
 7084TIP3    H121197   0.238   1.010   5.994
 7084TIP3    H221198   0.201   0.877   5.933
 7085TIP3   OH221199   0.804   4.521   2.136
 7085TIP3    H121200   0.836   4.436   2.105
 7085TIP3    H221201   0.884   4.572   2.152
 7086TIP3   OH221202   2.863   4.554   5.090
 7086TIP3    H121203   2.882   4.553   5.184
 7086TIP3    H221204   2.947   4.535   5.048
 7087TIP3   OH221205   7.090   0.767   5.457
 7087TIP3    H121206   7.006   0.810   5.443
 7087TIP3    H221207   7.069   0.674   5.466
 7088TIP3   OH221208   7.753   4.550   1.888
 7088TIP3    H121209   7.752   4.543   1.983
 7088TIP3    H221210   7.803   4.473   1.859
 7089TIP3   OH221211   5.769   2.278   5.682
 7089TIP3    H121212   5.748   2.252   5.592
 7089TIP3    H221213   5.749   2.200   5.734
 7090TIP3   OH221214   5.148   4.887   3.519
 7090TIP3    H121215   5.113   4.950   3.582
 7090TIP3    H221216   5.224   4.849   3.562
 7091TIP3   OH221217   5.901   6.551   5.306
 7091TIP3    H121218   5.865   6.465   5.283
 7091TIP3    H221219   5.944   6.581   5.226
 7092TIP3   OH221220   5.007   6.735   1.037
 7092TIP3    H121221   4.944   6.685   1.089
 7092TIP3    H221222   5.089   6.685   1.044
 7093TIP3   OH221223   1.572   3.078   5.814
 7093TIP3    H121224   1.600   3.030   5.892
 7093TIP3    H221225   1.654   3.111   5.776
 7094TIP3   OH221226   0.397   1.961   3.558
 7094TIP3    H121227   0.417   2.003   3.475
 7094TIP3    H221228   0.483   1.948   3.599
 7095TIP3   OH221229   2.401   4.163   6.137
 7095TIP3    H121230   2.468   4.099   6.114
 7095TIP3    H221231   2.445   4.248   6.128
 7096TIP3   OH221232   6.388   7.824   1.227
 7096TIP3    H121233   6.437   7.797   1.305
 7096TIP3    H221234   6.312   7.765   1.225
 7097TIP3   OH221235   1.282   3.231   2.944
 7097TIP3    H121236   1.365   3.278   2.954
 7097TIP3    H221237   1.221   3.279   3.000
 7098TIP3   OH221238   1.052   2.491   4.750
 7098TIP3    H121239   0.971   2.446   4.725
 7098TIP3    H221240   1.047   2.575   4.706
 7099TIP3   OH221241   2.697   2.659   4.669
 7099TIP3    H121242   2.618   2.639   4.720
 7099TIP3    H221243   2.720   2.748   4.696
 7100TIP3   OH221244   8.094   3.812   2.496
 7100TIP3    H121245   8.094   3.799   2.401
 7100TIP3    H221246   8.009   3.850   2.515
 7101TIP3   OH221247   7.941   4.965   1.771
 7101TIP3    H121248   7.851   4.945   1.745
 7101TIP3    H221249   7.936   4.991   1.862
 7102TIP3   OH221250   6.443   3.244   6.184
 7102TIP3    H121251   6.397   3.297   6.119
 7102TIP3    H221252   6.453   3.158   6.142
 7103TIP3   OH221253   6.231   1.909   4.608
 7103TIP3    H121254   6.260   1.841   4.667
 7103TIP3    H221255   6.307   1.928   4.553
 7104TIP3   OH221256   1.159   4.196   4.772
 7104TIP3    H121257   1.248   4.231   4.780
 7104TIP3    H221258   1.136   4.211   4.680
 7105TIP3   OH221259   2.436   0.191   3.430
 7105TIP3    H121260   2.389   0.137   3.494
 7105TIP3    H221261   2.500   0.239   3.482
 7106TIP3   OH221262   2.863   1.652   2.290
 7106TIP3    H121263   2.805   1.677   2.362
 7106TIP3    H221264   2.805   1.637   2.216
 7107TIP3   OH221265   3.089   3.643   5.316
 7107TIP3    H121266   3.029   3.620   5.386
 7107TIP3    H221267   3.105   3.560   5.271
 7108TIP3   OH221268   7.644   0.721   3.225
 7108TIP3    H121269   7.585   0.650   3.250
 7108TIP3    H221270   7.666   0.702   3.134
 7109TIP3   OH221271   1.750   2.594   1.757
 7109TIP3    H121272   1.678   2.534   1.776
 7109TIP3    H221273   1.729   2.630   1.671
 7110TIP3   OH221274   4.874   1.727   5.453
 7110TIP3    H121275   4.786   1.751   5.423
 7110TIP3    H221276   4.930   1.741   5.377
 7111TIP3   OH221277   0.565   1.725   4.194
 7111TIP3    H121278   0.518   1.690   4.270
 7111TIP3    H221279   0.515   1.693   4.118
 7112TIP3   OH221280   5.876   6.884   3.233
 7112TIP3    H121281   5.881   6.979   3.221
 7112TIP3    H221282   5.888   6.871   3.327
 7113TIP3   OH221283   0.169  -0.001   3.675
 7113TIP3    H121284   0.169  -0.019   3.769
 7113TIP3    H221285   0.076   0.011   3.654
 7114TIP3   OH221286   0.571   4.898   2.082
 7114TIP3    H121287   0.590   4.807   2.057
 7114TIP3    H221288   0.604   4.950   2.009
 7115TIP3   OH221289   7.501   1.361   4.607
 7115TIP3    H121290   7.516   1.308   4.686
 7115TIP3    H221291   7.583   1.407   4.593
 7116TIP3   OH221292   7.019   2.822   2.746
 7116TIP3    H121293   6.927   2.800   2.736
 7116TIP3    H221294   7.037   2.883   2.674
 7117TIP3   OH221295   2.392   6.800   2.991
 7117TIP3    H121296   2.429   6.774   3.075
 7117TIP3    H221297   2.453   6.765   2.926
 7118TIP3   OH221298   2.176   6.739   0.418
 7118TIP3    H121299   2.175   6.799   0.343
 7118TIP3    H221300   2.267   6.711   0.425
 7119TIP3   OH221301   5.256   7.499  -0.004
 7119TIP3    H121302   5.171   7.487   0.038
 7119TIP3    H221303   5.308   7.425   0.025
 7120TIP3   OH221304   5.883   6.777   4.906
 7120TIP3    H121305   5.918   6.833   4.837
 7120TIP3    H221306   5.949   6.709   4.917
 7121TIP3   OH221307   6.497   4.913   5.756
 7121TIP3    H121308   6.560   4.922   5.828
 7121TIP3    H221309   6.551   4.911   5.677
 7122TIP3   OH221310   4.806   4.197   0.224
 7122TIP3    H121311   4.823   4.103   0.225
 7122TIP3    H221312   4.794   4.218   0.131
 7123TIP3   OH221313   6.390   4.652   5.896
 7123TIP3    H121314   6.404   4.651   5.801
 7123TIP3    H221315   6.356   4.740   5.914
 7124TIP3   OH221316   5.537   1.547   5.832
 7124TIP3    H121317   5.471   1.518   5.894
 7124TIP3    H221318   5.620   1.533   5.877
 7125TIP3   OH221319   2.137   6.617   2.337
 7125TIP3    H121320   2.133   6.534   2.384
 7125TIP3    H221321   2.122   6.683   2.404
 7126TIP3   OH221322   4.912   3.990   2.106
 7126TIP3    H121323   4.825   3.958   2.129
 7126TIP3    H221324   4.895   4.067   2.052
 7127TIP3   OH221325   4.165   3.265   3.553
 7127TIP3    H121326   4.215   3.341   3.524
 7127TIP3    H221327   4.206   3.240   3.636
 7128TIP3   OH221328   2.086   5.608   2.045
 7128TIP3    H121329   2.076   5.586   2.138
 7128TIP3    H221330   2.033   5.542   1.999
 7129TIP3   OH221331   0.995   2.652   2.062
 7129TIP3    H121332   1.075   2.629   2.111
 7129TIP3    H221333   0.949   2.713   2.120
 7130TIP3   OH221334   1.091   2.920   4.205
 7130TIP3    H121335   1.030   2.989   4.227
 7130TIP3    H221336   1.037   2.849   4.171
 7131TIP3   OH221337   1.235   7.776   2.753
 7131TIP3    H121338   1.191   7.833   2.816
 7131TIP3    H221339   1.164   7.726   2.713
 7132TIP3   OH221340   6.494   3.906   6.008
 7132TIP3    H121341   6.400   3.919   5.991
 7132TIP3    H221342   6.498   3.870   6.097
 7133TIP3   OH221343   3.676   4.951   3.950
 7133TIP3    H121344   3.676   4.951   4.046
 7133TIP3    H221345   3.713   5.035   3.926
 7134TIP3   OH221346   4.098   2.441   4.570
 7134TIP3    H121347   4.048   2.479   4.498
 7134TIP3    H221348   4.039   2.446   4.645
 7135TIP3   OH221349   7.316   2.459   1.457
 7135TIP3    H121350   7.355   2.543   1.433
 7135TIP3    H221351   7.253   2.441   1.387
 7136TIP3   OH221352   3.897   3.393   1.208
 7136TIP3    H121353   3.973   3.360   1.256
 7136TIP3    H221354   3.934   3.430   1.128
 7137TIP3   OH221355   2.283   3.091   1.663
 7137TIP3    H121356   2.365   3.044   1.672
 7137TIP3    H221357   2.246   3.094   1.751
 7138TIP3   OH221358   7.024   2.066   5.928
 7138TIP3    H121359   7.013   1.973   5.946
 7138TIP3    H221360   6.979   2.080   5.845
 7139TIP3   OH221361   5.355   0.957   0.729
 7139TIP3    H121362   5.384   0.985   0.642
 7139TIP3    H221363   5.284   0.895   0.712
 7140TIP3   OH221364   2.759   6.766   0.510
 7140TIP3    H121365   2.741   6.739   0.600
 7140TIP3    H221366   2.674   6.795   0.476
 7141TIP3   OH221367   5.652   2.605   1.726
 7141TIP3    H121368   5.563   2.586   1.754
 7141TIP3    H221369   5.656   2.573   1.636
 7142TIP3   OH221370   1.464   1.230   5.209
 7142TIP3    H121371   1.423   1.143   5.211
 7142TIP3    H221372   1.488   1.247   5.300
 7143TIP3   OH221373   7.633   0.818   5.230
 7143TIP3    H121374   7.601   0.876   5.299
 7143TIP3    H221375   7.687   0.754   5.275
 7144TIP3   OH221376   4.896   1.904   4.008
 7144TIP3    H121377   4.814   1.887   3.961
 7144TIP3    H221378   4.871   1.966   4.077
 7145TIP3   OH221379   2.887   2.567   0.973
 7145TIP3    H121380   2.971   2.524   0.953
 7145TIP3    H221381   2.885   2.574   1.068
 7146TIP3   OH221382   2.287   3.171   4.139
 7146TIP3    H121383   2.257   3.250   4.184
 7146TIP3    H221384   2.237   3.100   4.179
 7147TIP3   OH221385   7.142   4.340   6.424
 7147TIP3    H121386   7.103   4.312   6.507
 7147TIP3    H221387   7.091   4.294   6.357
 7148TIP3   OH221388   0.780   6.046   5.267
 7148TIP3    H121389   0.793   6.009   5.355
 7148TIP3    H221390   0.723   5.983   5.223
 7149TIP3   OH221391   1.466   7.778   6.050
 7149TIP3    H121392   1.459   7.711   5.982
 7149TIP3    H221393   1.376   7.797   6.075
 7150TIP3   OH221394   3.671   2.003   3.343
 7150TIP3    H121395   3.611   2.029   3.274
 7150TIP3    H221396   3.673   1.907   3.338
 7151TIP3   OH221397   0.723   4.551   6.714
 7151TIP3    H121398   0.635   4.587   6.708
 7151TIP3    H221399   0.767   4.579   6.633
 7152TIP3   OH221400   7.690   0.451   6.351
 7152TIP3    H121401   7.729   0.454   6.438
 7152TIP3    H221402   7.757   0.412   6.296
 7153TIP3   OH221403   6.932   7.281   4.816
 7153TIP3    H121404   6.954   7.189   4.831
 7153TIP3    H221405   7.004   7.330   4.855
 7154TIP3   OH221406   0.712   2.123   0.722
 7154TIP3    H121407   0.778   2.113   0.654
 7154TIP3    H221408   0.669   2.207   0.702
 7155TIP3   OH221409  -0.019   2.221   0.074
 7155TIP3    H121410   0.069   2.259   0.074
 7155TIP3    H221411  -0.012   2.144   0.017
 7156TIP3   OH221412   0.636   7.603   3.191
 7156TIP3    H121413   0.672   7.514   3.186
 7156TIP3    H221414   0.575   7.608   3.117
 7157TIP3   OH221415   1.320   0.043   5.115
 7157TIP3    H121416   1.326  -0.019   5.042
 7157TIP3    H221417   1.329   0.129   5.075
 7158TIP3   OH221418   6.462   5.611   5.037
 7158TIP3    H121419   6.404   5.657   5.098
 7158TIP3    H221420   6.528   5.570   5.093
 7159TIP3   OH221421   5.655   4.134   0.019
 7159TIP3    H121422   5.688   4.190  -0.052
 7159TIP3    H221423   5.593   4.190   0.066
 7160TIP3   OH221424   6.600   5.675   0.378
 7160TIP3    H121425   6.685   5.646   0.412
 7160TIP3    H221426   6.536   5.623   0.426
 7161TIP3   OH221427   5.668   1.677   4.751
 7161TIP3    H121428   5.579   1.713   4.738
 7161TIP3    H221429   5.722   1.728   4.690
 7162TIP3   OH221430   6.454   6.123   4.291
 7162TIP3    H121431   6.366   6.087   4.282
 7162TIP3    H221432   6.511   6.054   4.256
 7163TIP3   OH221433   7.738   4.438   6.776
 7163TIP3    H121434   7.762   4.346   6.767
 7163TIP3    H221435   7.680   4.440   6.853
 7164TIP3   OH221436   8.093   5.946   4.765
 7164TIP3    H121437   8.081   6.013   4.697
 7164TIP3    H221438   8.064   5.988   4.846
 7165TIP3   OH221439   3.031   2.984   1.060
 7165TIP3    H121440   2.992   3.010   0.977
 7165TIP3    H221441   2.966   3.008   1.126
 7166TIP3   OH221442   4.868   4.525   2.563
 7166TIP3    H121443   4.950   4.538   2.516
 7166TIP3    H221444   4.876   4.581   2.640
 7167TIP3   OH221445   4.116   1.678   2.977
 7167TIP3    H121446   4.042   1.734   2.999
 7167TIP3    H221447   4.193   1.728   3.006
 7168TIP3   OH221448   5.215   4.132   1.370
 7168TIP3    H121449   5.305   4.164   1.358
 7168TIP3    H221450   5.182   4.122   1.280
 7169TIP3   OH221451  -0.015   5.829   3.547
 7169TIP3    H121452  -0.054   5.881   3.477
 7169TIP3    H221453   0.048   5.887   3.588
 7170TIP3   OH221454   6.995   4.708   5.380
 7170TIP3    H121455   7.018   4.617   5.400
 7170TIP3    H221456   6.964   4.743   5.463
 7171TIP3   OH221457   1.564   5.219   0.290
 7171TIP3    H121458   1.577   5.137   0.242
 7171TIP3    H221459   1.639   5.273   0.266
 7172TIP3   OH221460   5.958   6.724   1.099
 7172TIP3    H121461   6.025   6.662   1.073
 7172TIP3    H221462   5.982   6.805   1.054
 7173TIP3   OH221463   4.084   3.425   5.602
 7173TIP3    H121464   4.154   3.439   5.666
 7173TIP3    H221465   4.055   3.335   5.618
 7174TIP3   OH221466   5.750   5.701   4.897
 7174TIP3    H121467   5.686   5.638   4.865
 7174TIP3    H221468   5.824   5.648   4.926
 7175TIP3   OH221469   7.030   7.709   1.791
 7175TIP3    H121470   7.059   7.737   1.877
 7175TIP3    H221471   6.975   7.632   1.808
 7176TIP3   OH221472   1.420   5.595   6.125
 7176TIP3    H121473   1.385   5.508   6.145
 7176TIP3    H221474   1.487   5.609   6.192
 7177TIP3   OH221475   3.090   1.240   3.307
 7177TIP3    H121476   3.104   1.330   3.336
 7177TIP3    H221477   3.023   1.205   3.366
 7178TIP3   OH221478   3.910   2.526   6.566
 7178TIP3    H121479   3.905   2.441   6.610
 7178TIP3    H221480   3.985   2.518   6.508
 7179TIP3   OH221481   7.892   3.898   1.297
 7179TIP3    H121482   7.841   3.884   1.218
 7179TIP3    H221483   7.912   3.810   1.329
 7180TIP3   OH221484   6.627   1.083   1.945
 7180TIP3    H121485   6.657   1.002   1.987
 7180TIP3    H221486   6.541   1.060   1.909
 7181TIP3   OH221487   0.206   4.972   0.855
 7181TIP3    H121488   0.200   4.988   0.761
 7181TIP3    H221489   0.123   5.004   0.890
 7182TIP3   OH221490   1.931   0.064   2.571
 7182TIP3    H121491   1.855   0.056   2.514
 7182TIP3    H221492   1.991   0.122   2.523
 7183TIP3   OH221493   3.724   6.603   5.150
 7183TIP3    H121494   3.653   6.598   5.214
 7183TIP3    H221495   3.801   6.571   5.197
 7184TIP3   OH221496   1.860   3.609   0.356
 7184TIP3    H121497   1.924   3.677   0.334
 7184TIP3    H221498   1.881   3.538   0.296
 7185TIP3   OH221499   5.701   0.657   2.562
 7185TIP3    H121500   5.650   0.628   2.638
 7185TIP3    H221501   5.722   0.575   2.516
 7186TIP3   OH221502   3.803   0.747   3.859
 7186TIP3    H121503   3.739   0.813   3.883
 7186TIP3    H221504   3.780   0.722   3.769
 7187TIP3   OH221505   6.191   1.768   0.848
 7187TIP3    H121506   6.251   1.756   0.774
 7187TIP3    H221507   6.233   1.835   0.902
 7188TIP3   OH221508   7.142   2.054   0.829
 7188TIP3    H121509   7.048   2.066   0.814
 7188TIP3    H221510   7.183   2.092   0.751
 7189TIP3   OH221511   7.925   4.816   0.787
 7189TIP3    H121512   7.939   4.793   0.879
 7189TIP3    H221513   7.975   4.751   0.738
 7190TIP3   OH221514   2.659   2.443   2.440
 7190TIP3    H121515   2.723   2.447   2.369
 7190TIP3    H221516   2.632   2.351   2.442
 7191TIP3   OH221517   4.233   3.080   0.221
 7191TIP3    H121518   4.255   2.990   0.196
 7191TIP3    H221519   4.202   3.073   0.311
 7192TIP3   OH221520   6.812   5.650   4.344
 7192TIP3    H121521   6.725   5.686   4.328
 7192TIP3    H221522   6.864   5.677   4.268
 7193TIP3   OH221523   1.948   3.331   0.363
 7193TIP3    H121524   1.970   3.243   0.332
 7193TIP3    H221525   1.859   3.323   0.397
 7194TIP3   OH221526   2.104   5.847   2.520
 7194TIP3    H121527   2.075   5.763   2.555
 7194TIP3    H221528   2.040   5.868   2.452
 7195TIP3   OH221529   3.202   2.100   1.716
 7195TIP3    H121530   3.272   2.042   1.747
 7195TIP3    H221531   3.179   2.065   1.630
 7196TIP3   OH221532   1.760   5.161   2.666
 7196TIP3    H121533   1.744   5.202   2.581
 7196TIP3    H221534   1.698   5.088   2.670
 7197TIP3   OH221535   1.428   1.345   4.933
 7197TIP3    H121536   1.431   1.439   4.916
 7197TIP3    H221537   1.462   1.335   5.022
 7198TIP3   OH221538   4.803   5.939   0.679
 7198TIP3    H121539   4.863   5.944   0.604
 7198TIP3    H221540   4.727   5.991   0.652
 7199TIP3   OH221541   7.207   4.420   5.252
 7199TIP3    H121542   7.266   4.488   5.220
 7199TIP3    H221543   7.178   4.374   5.173
 7200TIP3   OH221544   5.889   0.441   0.886
 7200TIP3    H121545   5.912   0.524   0.929
 7200TIP3    H221546   5.888   0.463   0.793
 7201TIP3   OH221547   5.995   6.031   1.372
 7201TIP3    H121548   6.084   5.996   1.367
 7201TIP3    H221549   5.982   6.076   1.288
 7202TIP3   OH221550   3.409   7.161   0.946
 7202TIP3    H121551   3.343   7.207   0.996
 7202TIP3    H221552   3.492   7.188   0.984
 7203TIP3   OH221553   4.885   0.244   3.792
 7203TIP3    H121554   4.798   0.284   3.801
 7203TIP3    H221555   4.873   0.171   3.732
 7204TIP3   OH221556   5.009   0.461   0.384
 7204TIP3    H121557   4.982   0.466   0.476
 7204TIP3    H221558   5.037   0.550   0.363
 7205TIP3   OH221559   7.551   4.782   5.896
 7205TIP3    H121560   7.605   4.809   5.971
 7205TIP3    H221561   7.500   4.860   5.874
 7206TIP3   OH221562   0.824   3.364   5.410
 7206TIP3    H121563   0.868   3.449   5.408
 7206TIP3    H221564   0.759   3.369   5.339
 7207TIP3   OH221565   5.628   5.906   5.088
 7207TIP3    H121566   5.570   5.830   5.088
 7207TIP3    H221567   5.716   5.867   5.085
 7208TIP3   OH221568   3.733   5.567   1.433
 7208TIP3    H121569   3.784   5.630   1.484
 7208TIP3    H221570   3.731   5.489   1.488
 7209TIP3   OH221571   3.665   4.093   5.472
 7209TIP3    H121572   3.755   4.077   5.442
 7209TIP3    H221573   3.669   4.176   5.518
 7210TIP3   OH221574   6.344   4.176   2.584
 7210TIP3    H121575   6.272   4.114   2.574
 7210TIP3    H221576   6.396   4.165   2.504
 7211TIP3   OH221577   6.001   2.335   4.530
 7211TIP3    H121578   6.025   2.304   4.442
 7211TIP3    H221579   5.918   2.291   4.548
 7212TIP3   OH221580   6.531   7.577   4.486
 7212TIP3    H121581   6.496   7.603   4.401
 7212TIP3    H221582   6.471   7.511   4.518
 7213TIP3   OH221583   7.870   4.521   4.488
 7213TIP3    H121584   7.858   4.577   4.411
 7213TIP3    H221585   7.815   4.445   4.471
 7214TIP3   OH221586   1.504   5.530   1.933
 7214TIP3    H121587   1.430   5.550   1.990
 7214TIP3    H221588   1.522   5.613   1.888
 7215TIP3   OH221589   0.293   5.372   1.617
 7215TIP3    H121590   0.303   5.404   1.528
 7215TIP3    H221591   0.278   5.451   1.669
 7216TIP3   OH221592   0.308   0.533   3.067
 7216TIP3    H121593   0.228   0.510   3.116
 7216TIP3    H221594   0.282   0.525   2.975
 7217TIP3   OH221595   8.170   3.495   5.768
 7217TIP3    H121596   8.088   3.540   5.745
 7217TIP3    H221597   8.208   3.550   5.837
 7218TIP3   OH221598   2.306   1.482   4.187
 7218TIP3    H121599   2.318   1.576   4.196
 7218TIP3    H221600   2.211   1.470   4.183
 7219TIP3   OH221601   7.801   1.840   5.869
 7219TIP3    H121602   7.868   1.909   5.865
 7219TIP3    H221603   7.732   1.878   5.924
 7220TIP3   OH221604   1.337   1.254   4.266
 7220TIP3    H121605   1.369   1.166   4.285
 7220TIP3    H221606   1.395   1.286   4.197
 7221TIP3   OH221607   0.562   6.476   3.255
 7221TIP3    H121608   0.501   6.470   3.329
 7221TIP3    H221609   0.538   6.558   3.211
 7222TIP3   OH221610   7.368   1.834   0.166
 7222TIP3    H121611   7.415   1.907   0.205
 7222TIP3    H221612   7.279   1.867   0.152
 7223TIP3   OH221613   2.714   7.824   6.161
 7223TIP3    H121614   2.772   7.752   6.137
 7223TIP3    H221615   2.744   7.851   6.248
 7224TIP3   OH221616   1.308   2.297   5.273
 7224TIP3    H121617   1.373   2.347   5.321
 7224TIP3    H221618   1.225   2.339   5.295
 7225TIP3   OH221619   6.766   1.698   5.779
 7225TIP3    H121620   6.753   1.770   5.841
 7225TIP3    H221621   6.677   1.666   5.761
 7226TIP3   OH221622   3.394   4.865   5.262
 7226TIP3    H121623   3.312   4.867   5.212
 7226TIP3    H221624   3.401   4.775   5.293
 7227TIP3   OH221625   7.892   2.769   3.241
 7227TIP3    H121626   7.816   2.731   3.198
 7227TIP3    H221627   7.915   2.705   3.309
 7228TIP3   OH221628   3.474   2.071   6.002
 7228TIP3    H121629   3.530   2.130   5.952
 7228TIP3    H221630   3.457   1.998   5.942
 7229TIP3   OH221631   0.851   6.187   1.146
 7229TIP3    H121632   0.807   6.255   1.096
 7229TIP3    H221633   0.891   6.233   1.220
 7230TIP3   OH221634   2.067   2.319   2.747
 7230TIP3    H121635   2.122   2.367   2.685
 7230TIP3    H221636   2.104   2.230   2.748
 7231TIP3   OH221637   7.868   0.601   0.902
 7231TIP3    H121638   7.930   0.622   0.971
 7231TIP3    H221639   7.787   0.579   0.948
 7232TIP3   OH221640   1.064   0.826   5.432
 7232TIP3    H121641   1.120   0.851   5.506
 7232TIP3    H221642   1.017   0.748   5.463
 7233TIP3   OH221643   2.419   5.515   0.538
 7233TIP3    H121644   2.358   5.446   0.511
 7233TIP3    H221645   2.409   5.582   0.471
 7234TIP3   OH221646   6.303   7.100   5.360
 7234TIP3    H121647   6.229   7.156   5.338
 7234TIP3    H221648   6.367   7.159   5.399
 7235TIP3   OH221649   1.648   5.922   3.905
 7235TIP3    H121650   1.633   6.016   3.902
 7235TIP3    H221651   1.743   5.913   3.903
 7236TIP3   OH221652   0.026   2.485   3.635
 7236TIP3    H121653   0.064   2.432   3.706
 7236TIP3    H221654   0.063   2.573   3.649
 7237TIP3   OH221655   3.747   4.357   3.200
 7237TIP3    H121656   3.799   4.375   3.122
 7237TIP3    H221657   3.669   4.412   3.190
 7238TIP3   OH221658   1.642   5.623   4.615
 7238TIP3    H121659   1.721   5.595   4.570
 7238TIP3    H221660   1.659   5.715   4.638
 7239TIP3   OH221661   1.138   3.406   3.126
 7239TIP3    H121662   1.048   3.437   3.114
 7239TIP3    H221663   1.187   3.484   3.154
 7240TIP3   OH221664   1.267   4.778   4.117
 7240TIP3    H121665   1.351   4.732   4.123
 7240TIP3    H221666   1.257   4.820   4.202
 7241TIP3   OH221667   3.813   1.123   2.816
 7241TIP3    H121668   3.813   1.088   2.905
 7241TIP3    H221669   3.900   1.102   2.783
 7242TIP3   OH221670   4.238   2.970   3.144
 7242TIP3    H121671   4.180   2.932   3.078
 7242TIP3    H221672   4.283   2.896   3.183
 7243TIP3   OH221673   2.725   6.387   5.728
 7243TIP3    H121674   2.675   6.350   5.801
 7243TIP3    H221675   2.786   6.448   5.770
 7244TIP3   OH221676   5.458   1.819   2.146
 7244TIP3    H121677   5.522   1.832   2.076
 7244TIP3    H221678   5.510   1.823   2.226
 7245TIP3   OH221679   6.363   6.494   5.276
 7245TIP3    H121680   6.354   6.573   5.223
 7245TIP3    H221681   6.282   6.445   5.260
 7246TIP3   OH221682   4.044   6.165   3.864
 7246TIP3    H121683   4.036   6.260   3.861
 7246TIP3    H221684   4.030   6.137   3.773
 7247TIP3   OH221685   6.581   7.659   6.187
 7247TIP3    H121686   6.590   7.719   6.262
 7247TIP3    H221687   6.531   7.709   6.122
 7248TIP3   OH221688   7.765   4.785   3.269
 7248TIP3    H121689   7.834   4.832   3.317
 7248TIP3    H221690   7.769   4.696   3.303
 7249TIP3   OH221691   3.280   3.905   0.350
 7249TIP3    H121692   3.216   3.839   0.376
 7249TIP3    H221693   3.356   3.888   0.405
 7250TIP3   OH221694   6.985   3.639   1.486
 7250TIP3    H121695   7.051   3.700   1.454
 7250TIP3    H221696   6.953   3.595   1.407
 7251TIP3   OH221697   5.153   2.206   6.480
 7251TIP3    H121698   5.171   2.153   6.402
 7251TIP3    H221699   5.171   2.147   6.553
 7252TIP3   OH221700   3.250   1.015   3.345
 7252TIP3    H121701   3.327   1.004   3.401
 7252TIP3    H221702   3.241   1.109   3.333
 7253TIP3   OH221703   2.681   0.872   2.424
 7253TIP3    H121704   2.743   0.839   2.359
 7253TIP3    H221705   2.629   0.937   2.376
 7254TIP3   OH221706   5.942   6.963   1.760
 7254TIP3    H121707   5.962   7.035   1.701
 7254TIP3    H221708   5.868   6.994   1.812
 7255TIP3   OH221709   5.991   3.385   1.507
 7255TIP3    H121710   5.950   3.414   1.426
 7255TIP3    H221711   5.923   3.391   1.573
 7256TIP3   OH221712   4.189   2.640   4.839
 7256TIP3    H121713   4.131   2.663   4.911
 7256TIP3    H221714   4.173   2.707   4.773
 7257TIP3   OH221715   5.104   2.681   0.369
 7257TIP3    H121716   5.112   2.738   0.293
 7257TIP3    H221717   5.089   2.594   0.333
 7258TIP3   OH221718   4.615   7.188   0.830
 7258TIP3    H121719   4.693   7.170   0.778
 7258TIP3    H221720   4.549   7.213   0.765
 7259TIP3   OH221721   4.871   3.681   2.291
 7259TIP3    H121722   4.804   3.627   2.248
 7259TIP3    H221723   4.935   3.618   2.324
 7260TIP3   OH221724   6.398   4.043   4.295
 7260TIP3    H121725   6.334   3.999   4.351
 7260TIP3    H221726   6.372   4.135   4.297
 7261TIP3   OH221727   7.306   7.005   3.331
 7261TIP3    H121728   7.377   6.945   3.308
 7261TIP3    H221729   7.328   7.033   3.420
 7262TIP3   OH221730   5.672   7.397   6.580
 7262TIP3    H121731   5.627   7.405   6.496
 7262TIP3    H221732   5.682   7.303   6.594
 7263TIP3   OH221733   7.617   3.281   6.110
 7263TIP3    H121734   7.581   3.369   6.102
 7263TIP3    H221735   7.712   3.293   6.107
 7264TIP3   OH221736   8.025   5.774   1.954
 7264TIP3    H121737   7.964   5.843   1.930
 7264TIP3    H221738   7.974   5.714   2.009
 7265TIP3   OH221739   2.136   1.042   6.358
 7265TIP3    H121740   2.224   1.004   6.364
 7265TIP3    H221741   2.077   0.967   6.365
 7266TIP3   OH221742   7.748   4.479   2.165
 7266TIP3    H121743   7.790   4.442   2.242
 7266TIP3    H221744   7.711   4.562   2.195
 7267TIP3   OH221745   3.193   4.473   3.046
 7267TIP3    H121746   3.189   4.564   3.018
 7267TIP3    H221747   3.178   4.476   3.141
 7268TIP3   OH221748   0.702   4.980   0.893
 7268TIP3    H121749   0.625   4.924   0.895
 7268TIP3    H221750   0.753   4.955   0.970
 7269TIP3   OH221751   4.987   4.992   2.358
 7269TIP3    H121752   4.906   5.008   2.309
 7269TIP3    H221753   5.056   5.012   2.295
 7270TIP3   OH221754   4.391   1.844   6.424
 7270TIP3    H121755   4.464   1.885   6.471
 7270TIP3    H221756   4.356   1.780   6.485
 7271TIP3   OH221757   5.972   4.409   0.779
 7271TIP3    H121758   6.037   4.426   0.711
 7271TIP3    H221759   5.993   4.320   0.810
 7272TIP3   OH221760   1.904   2.185   5.053
 7272TIP3    H121761   1.928   2.111   4.998
 7272TIP3    H221762   1.934   2.262   5.004
 7273TIP3   OH221763   1.292   6.447   5.187
 7273TIP3    H121764   1.220   6.504   5.216
 7273TIP3    H221765   1.359   6.458   5.254
 7274TIP3   OH221766   0.240   5.886   1.725
 7274TIP3    H121767   0.149   5.901   1.699
 7274TIP3    H221768   0.292   5.917   1.650
 7275TIP3   OH221769   1.675   1.275   0.095
 7275TIP3    H121770   1.615   1.228   0.153
 7275TIP3    H221771   1.717   1.206   0.044
 7276TIP3   OH221772   2.296   6.351   3.131
 7276TIP3    H121773   2.263   6.382   3.046
 7276TIP3    H221774   2.387   6.381   3.134
 7277TIP3   OH221775   8.160   2.733   3.110
 7277TIP3    H121776   8.067   2.724   3.130
 7277TIP3    H221777   8.165   2.812   3.055
 7278TIP3   OH221778   7.063   1.369   4.362
 7278TIP3    H121779   7.119   1.443   4.338
 7278TIP3    H221780   7.116   1.292   4.344
 7279TIP3   OH221781   2.448   6.406   0.276
 7279TIP3    H121782   2.365   6.360   0.266
 7279TIP3    H221783   2.515   6.338   0.269
 7280TIP3   OH221784   6.808   3.544   2.591
 7280TIP3    H121785   6.885   3.494   2.617
 7280TIP3    H221786   6.735   3.485   2.608
 7281TIP3   OH221787   3.834   2.892   3.085
 7281TIP3    H121788   3.895   2.825   3.117
 7281TIP3    H221789   3.847   2.966   3.145
 7282TIP3   OH221790   4.562   3.526   3.412
 7282TIP3    H121791   4.606   3.507   3.494
 7282TIP3    H221792   4.471   3.502   3.427
 7283TIP3   OH221793   6.053   0.686   3.006
 7283TIP3    H121794   6.102   0.730   2.937
 7283TIP3    H221795   5.973   0.654   2.963
 7284TIP3   OH221796   0.642   1.935   1.763
 7284TIP3    H121797   0.708   1.994   1.728
 7284TIP3    H221798   0.629   1.964   1.853
 7285TIP3   OH221799   1.763   0.683   0.281
 7285TIP3    H121800   1.829   0.746   0.312
 7285TIP3    H221801   1.709   0.664   0.357
 7286TIP3   OH221802   2.159   3.106   3.609
 7286TIP3    H121803   2.071   3.133   3.582
 7286TIP3    H221804   2.167   3.137   3.699
 7287TIP3   OH221805   5.164   5.941   5.743
 7287TIP3    H121806   5.127   5.993   5.814
 7287TIP3    H221807   5.105   5.958   5.669
 7288TIP3   OH221808   3.766   5.175   2.566
 7288TIP3    H121809   3.701   5.107   2.549
 7288TIP3    H221810   3.824   5.172   2.489
 7289TIP3   OH221811   0.705   5.833   6.253
 7289TIP3    H121812   0.685   5.739   6.257
 7289TIP3    H221813   0.726   5.857   6.343
 7290TIP3   OH221814   2.623   5.189   5.148
 7290TIP3    H121815   2.531   5.175   5.173
 7290TIP3    H221816   2.663   5.228   5.225
 7291TIP3   OH221817   0.193   5.394   3.363
 7291TIP3    H121818   0.120   5.335   3.342
 7291TIP3    H221819   0.270   5.348   3.330
 7292TIP3   OH221820   7.726   4.799   2.746
 7292TIP3    H121821   7.636   4.767   2.751
 7292TIP3    H221822   7.741   4.844   2.829
 7293TIP3   OH221823   3.996   0.174   1.595
 7293TIP3    H121824   4.069   0.148   1.539
 7293TIP3    H221825   3.950   0.241   1.545
 7294TIP3   OH221826   0.741   5.640   2.893
 7294TIP3    H121827   0.730   5.711   2.957
 7294TIP3    H221828   0.834   5.644   2.870
 7295TIP3   OH221829   6.702   1.904   5.591
 7295TIP3    H121830   6.625   1.910   5.648
 7295TIP3    H221831   6.732   1.813   5.600
 7296TIP3   OH221832   6.920   6.653  -0.013
 7296TIP3    H121833   6.834   6.644  -0.054
 7296TIP3    H221834   6.906   6.623   0.077
 7297TIP3   OH221835   0.273   3.561   4.692
 7297TIP3    H121836   0.304   3.622   4.760
 7297TIP3    H221837   0.196   3.605   4.654
 7298TIP3   OH221838   6.670   5.815   6.654
 7298TIP3    H121839   6.712   5.768   6.582
 7298TIP3    H221840   6.673   5.907   6.628
 7299TIP3   OH221841   0.048   6.430   3.664
 7299TIP3    H121842   0.114   6.499   3.664
 7299TIP3    H221843  -0.021   6.462   3.722
 7300TIP3   OH221844   3.444   2.723   6.700
 7300TIP3    H121845   3.517   2.784   6.709
 7300TIP3    H221846   3.366   2.777   6.711
 7301TIP3   OH221847   0.583   7.559   2.242
 7301TIP3    H121848   0.643   7.517   2.180
 7301TIP3    H221849   0.600   7.514   2.325
 7302TIP3   OH221850   3.237   5.714   2.878
 7302TIP3    H121851   3.172   5.691   2.811
 7302TIP3    H221852   3.187   5.755   2.948
 7303TIP3   OH221853   2.531   0.735   4.951
 7303TIP3    H121854   2.583   0.677   4.896
 7303TIP3    H221855   2.464   0.678   4.990
 7304TIP3   OH221856   6.018   1.635   6.527
 7304TIP3    H121857   5.963   1.603   6.599
 7304TIP3    H221858   6.108   1.627   6.560
 7305TIP3   OH221859   7.717   3.485   1.919
 7305TIP3    H121860   7.652   3.460   1.984
 7305TIP3    H221861   7.694   3.574   1.894
 7306TIP3   OH221862   2.476   2.063   0.602
 7306TIP3    H121863   2.400   2.112   0.634
 7306TIP3    H221864   2.445   1.973   0.597
 7307TIP3   OH221865   4.817   3.280   5.404
 7307TIP3    H121866   4.912   3.287   5.398
 7307TIP3    H221867   4.786   3.282   5.313
 7308TIP3   OH221868   7.535   1.851   1.528
 7308TIP3    H121869   7.524   1.766   1.486
 7308TIP3    H221870   7.628   1.856   1.550
 7309TIP3   OH221871   6.826   2.631   0.453
 7309TIP3    H121872   6.890   2.564   0.427
 7309TIP3    H221873   6.876   2.712   0.457
 7310TIP3   OH221874   5.644   7.528   3.843
 7310TIP3    H121875   5.646   7.501   3.751
 7310TIP3    H221876   5.736   7.544   3.865
 7311TIP3   OH221877   5.706   2.391   3.778
 7311TIP3    H121878   5.665   2.396   3.691
 7311TIP3    H221879   5.745   2.478   3.791
 7312TIP3   OH221880   5.901   5.002   4.130
 7312TIP3    H121881   5.913   5.047   4.214
 7312TIP3    H221882   5.978   5.027   4.078
 7313TIP3   OH221883   0.405   5.909   6.301
 7313TIP3    H121884   0.449   5.876   6.223
 7313TIP3    H221885   0.433   5.849   6.371
 7314TIP3   OH221886   2.869   5.899   4.397
 7314TIP3    H121887   2.871   5.840   4.321
 7314TIP3    H221888   2.930   5.860   4.459
 7315TIP3   OH221889   1.079   4.648   4.778
 7315TIP3    H121890   1.102   4.597   4.855
 7315TIP3    H221891   1.001   4.697   4.805
 7316TIP3   OH221892   1.080   5.552   5.099
 7316TIP3    H121893   1.047   5.622   5.042
 7316TIP3    H221894   1.029   5.475   5.073
 7317TIP3   OH221895   4.065   6.885   4.456
 7317TIP3    H121896   4.066   6.978   4.434
 7317TIP3    H221897   4.157   6.864   4.474
 7318TIP3   OH221898   5.910   7.298   4.016
 7318TIP3    H121899   5.975   7.286   3.946
 7318TIP3    H221900   5.826   7.287   3.971
 7319TIP3   OH221901   6.992   6.889   4.179
 7319TIP3    H121902   6.906   6.848   4.176
 7319TIP3    H221903   6.981   6.966   4.234
 7320TIP3   OH221904   2.345   5.767   5.582
 7320TIP3    H121905   2.263   5.718   5.576
 7320TIP3    H221906   2.388   5.752   5.497
 7321TIP3   OH221907   1.776   7.486   5.093
 7321TIP3    H121908   1.803   7.560   5.039
 7321TIP3    H221909   1.857   7.440   5.113
 7322TIP3   OH221910   2.060   6.564   5.212
 7322TIP3    H121911   1.998   6.565   5.285
 7322TIP3    H221912   2.134   6.513   5.244
 7323TIP3   OH221913   0.824   5.777   5.366
 7323TIP3    H121914   0.756   5.775   5.434
 7323TIP3    H221915   0.893   5.719   5.399
 7324TIP3   OH221916   7.986   7.407   0.553
 7324TIP3    H121917   8.049   7.422   0.623
 7324TIP3    H221918   8.028   7.342   0.497
 7325TIP3   OH221919   0.703   4.705   3.093
 7325TIP3    H121920   0.628   4.646   3.092
 7325TIP3    H221921   0.666   4.791   3.076
 7326TIP3   OH221922   5.658   2.392   4.641
 7326TIP3    H121923   5.582   2.440   4.609
 7326TIP3    H221924   5.697   2.354   4.562
 7327TIP3   OH221925   5.955   2.836   6.757
 7327TIP3    H121926   5.866   2.857   6.729
 7327TIP3    H221927   6.011   2.885   6.698
 7328TIP3   OH221928   4.943   1.449   4.131
 7328TIP3    H121929   4.947   1.409   4.217
 7328TIP3    H221930   4.864   1.413   4.091
 7329TIP3   OH221931   2.336   5.817   1.620
 7329TIP3    H121932   2.327   5.751   1.689
 7329TIP3    H221933   2.428   5.811   1.594
 7330TIP3   OH221934   4.250   2.167   6.038
 7330TIP3    H121935   4.300   2.208   5.967
 7330TIP3    H221936   4.309   2.100   6.073
 7331TIP3   OH221937   4.919   7.150   0.878
 7331TIP3    H121938   4.970   7.129   0.957
 7331TIP3    H221939   4.882   7.066   0.851
 7332TIP3   OH221940   7.910   1.496   4.721
 7332TIP3    H121941   8.000   1.527   4.716
 7332TIP3    H221942   7.917   1.401   4.714
 7333TIP3   OH221943   7.269   5.986   6.142
 7333TIP3    H121944   7.176   6.008   6.133
 7333TIP3    H221945   7.294   6.023   6.227
 7334TIP3   OH221946   6.982   3.207   2.004
 7334TIP3    H121947   7.062   3.201   1.952
 7334TIP3    H221948   7.007   3.175   2.091
 7335TIP3   OH221949   5.708   0.488   5.263
 7335TIP3    H121950   5.778   0.433   5.300
 7335TIP3    H221951   5.712   0.471   5.169
 7336TIP3   OH221952   5.920   2.517   3.489
 7336TIP3    H121953   5.996   2.474   3.529
 7336TIP3    H221954   5.885   2.573   3.558
 7337TIP3   OH221955   0.938   0.599   5.484
 7337TIP3    H121956   0.946   0.520   5.539
 7337TIP3    H221957   0.935   0.565   5.395
 7338TIP3   OH221958   4.298   4.156   0.953
 7338TIP3    H121959   4.265   4.238   0.987
 7338TIP3    H221960   4.312   4.172   0.860
 7339TIP3   OH221961   4.342   2.490   3.280
 7339TIP3    H121962   4.415   2.428   3.288
 7339TIP3    H221963   4.265   2.441   3.308
 7340TIP3   OH221964   7.358   2.008   4.529
 7340TIP3    H121965   7.402   2.027   4.612
 7340TIP3    H221966   7.269   2.041   4.541
 7341TIP3   OH221967   6.518   0.853   6.174
 7341TIP3    H121968   6.439   0.800   6.165
 7341TIP3    H221969   6.487   0.942   6.188
 7342TIP3   OH221970   0.509   7.382   3.717
 7342TIP3    H121971   0.555   7.321   3.774
 7342TIP3    H221972   0.575   7.411   3.654
 7343TIP3   OH221973   6.172   4.451   1.095
 7343TIP3    H121974   6.133   4.370   1.128
 7343TIP3    H221975   6.267   4.436   1.103
 7344TIP3   OH221976   2.869   1.335   1.992
 7344TIP3    H121977   2.836   1.351   2.080
 7344TIP3    H221978   2.795   1.356   1.934
 7345TIP3   OH221979   8.087   1.407   1.576
 7345TIP3    H121980   8.076   1.465   1.500
 7345TIP3    H221981   8.068   1.462   1.652
 7346TIP3   OH221982   2.372   7.548   3.592
 7346TIP3    H121983   2.310   7.481   3.563
 7346TIP3    H221984   2.350   7.563   3.684
 7347TIP3   OH221985   1.156   1.720   4.843
 7347TIP3    H121986   1.201   1.765   4.915
 7347TIP3    H221987   1.106   1.789   4.799
 7348TIP3   OH221988   2.320   5.650   1.827
 7348TIP3    H121989   2.361   5.567   1.803
 7348TIP3    H221990   2.236   5.625   1.865
 7349TIP3   OH221991   0.141   3.548   2.687
 7349TIP3    H121992   0.230   3.566   2.719
 7349TIP3    H221993   0.118   3.465   2.728
 7350TIP3   OH221994   0.933   0.695   6.447
 7350TIP3    H121995   0.990   0.744   6.507
 7350TIP3    H221996   0.908   0.617   6.496
 7351TIP3   OH221997   3.467   0.963   3.491
 7351TIP3    H121998   3.445   0.892   3.551
 7351TIP3    H221999   3.525   1.020   3.541
 7352TIP3   OH222000   5.543   6.570   3.736
 7352TIP3    H122001   5.552   6.633   3.665
 7352TIP3    H222002   5.617   6.587   3.793
 7353TIP3   OH222003   6.603   0.561   3.900
 7353TIP3    H122004   6.554   0.623   3.845
 7353TIP3    H222005   6.537   0.525   3.960
 7354TIP3   OH222006   1.958   0.649   0.066
 7354TIP3    H122007   1.918   0.631  -0.019
 7354TIP3    H222008   1.886   0.639   0.129
 7355TIP3   OH222009   0.431   5.612   3.053
 7355TIP3    H122010   0.503   5.670   3.077
 7355TIP3    H222011   0.374   5.611   3.130
 7356TIP3   OH222012   1.546   1.495   3.776
 7356TIP3    H122013   1.507   1.557   3.714
 7356TIP3    H222014   1.627   1.537   3.805
 7357TIP3   OH222015   4.311   5.983   4.825
 7357TIP3    H122016   4.327   6.012   4.735
 7357TIP3    H222017   4.217   5.966   4.829
 7358TIP3   OH222018   3.882   6.962   1.297
 7358TIP3    H122019   3.847   6.873   1.301
 7358TIP3    H222020   3.924   6.975   1.383
 7359TIP3   OH222021   6.062   3.677   4.290
 7359TIP3    H122022   6.013   3.595   4.285
 7359TIP3    H222023   6.114   3.669   4.370
 7360TIP3   OH222024   6.333   4.110   3.493
 7360TIP3    H122025   6.305   4.087   3.582
 7360TIP3    H222026   6.395   4.181   3.505
 7361TIP3   OH222027   6.983   2.773   3.266
 7361TIP3    H122028   6.959   2.838   3.199
 7361TIP3    H222029   7.076   2.757   3.251
 7362TIP3   OH222030   4.194   6.390   2.207
 7362TIP3    H122031   4.186   6.335   2.285
 7362TIP3    H222032   4.248   6.339   2.147
 7363TIP3   OH222033   3.868   3.643   5.750
 7363TIP3    H122034   3.954   3.672   5.721
 7363TIP3    H222035   3.832   3.718   5.797
 7364TIP3   OH222036   5.504   2.733   2.146
 7364TIP3    H122037   5.550   2.814   2.167
 7364TIP3    H222038   5.573   2.666   2.143
 7365TIP3   OH222039   0.191   2.553   1.354
 7365TIP3    H122040   0.204   2.644   1.379
 7365TIP3    H222041   0.258   2.505   1.403
 7366TIP3   OH222042   6.816   7.360   3.195
 7366TIP3    H122043   6.884   7.294   3.203
 7366TIP3    H222044   6.757   7.324   3.128
 7367TIP3   OH222045   5.909   4.975   4.685
 7367TIP3    H122046   5.933   4.958   4.777
 7367TIP3    H222047   5.838   5.039   4.691
 7368TIP3   OH222048   8.299   0.062   5.403
 7368TIP3    H122049   8.374   0.008   5.428
 7368TIP3    H222050   8.256   0.083   5.485
 7369TIP3   OH222051   6.165   4.337   1.556
 7369TIP3    H122052   6.092   4.326   1.496
 7369TIP3    H222053   6.143   4.280   1.630
 7370TIP3   OH222054   5.593   1.977   0.069
 7370TIP3    H122055   5.545   2.009  -0.007
 7370TIP3    H222056   5.629   2.055   0.110
 7371TIP3   OH222057   6.386   2.772   4.722
 7371TIP3    H122058   6.423   2.693   4.763
 7371TIP3    H222059   6.422   2.845   4.773
 7372TIP3   OH222060   2.439   3.388   1.241
 7372TIP3    H122061   2.376   3.427   1.301
 7372TIP3    H222062   2.522   3.432   1.261
 7373TIP3   OH222063   6.670   2.093   6.701
 7373TIP3    H122064   6.641   2.175   6.741
 7373TIP3    H222065   6.647   2.103   6.608
 7374TIP3   OH222066   0.918   1.471   5.564
 7374TIP3    H122067   0.840   1.432   5.604
 7374TIP3    H222068   0.902   1.565   5.564
 7375TIP3   OH222069   6.087   0.046   6.453
 7375TIP3    H122070   6.099   0.051   6.548
 7375TIP3    H222071   6.154  -0.016   6.424
 7376TIP3   OH222072   1.191   7.691   5.572
 7376TIP3    H122073   1.175   7.703   5.665
 7376TIP3    H222074   1.279   7.728   5.557
 7377TIP3   OH222075   2.867   4.420   0.711
 7377TIP3    H122076   2.911   4.338   0.687
 7377TIP3    H222077   2.779   4.392   0.736
 7378TIP3   OH222078   6.255   0.189   1.859
 7378TIP3    H122079   6.228   0.280   1.842
 7378TIP3    H222080   6.331   0.198   1.916
 7379TIP3   OH222081   3.036   3.926   6.592
 7379TIP3    H122082   3.049   4.018   6.568
 7379TIP3    H222083   3.029   3.880   6.508
 7380TIP3   OH222084   5.364   5.500   4.443
 7380TIP3    H122085   5.453   5.533   4.447
 7380TIP3    H222086   5.309   5.575   4.465
 7381TIP3   OH222087   4.903   7.579   2.205
 7381TIP3    H122088   4.923   7.648   2.142
 7381TIP3    H222089   4.911   7.498   2.154
 7382TIP3   OH222090   1.575   7.411   6.291
 7382TIP3    H122091   1.557   7.355   6.366
 7382TIP3    H222092   1.668   7.399   6.274
 7383TIP3   OH222093   0.225   1.984   0.563
 7383TIP3    H122094   0.244   1.940   0.480
 7383TIP3    H222095   0.182   1.917   0.616
 7384TIP3   OH222096   4.960   4.222   6.161
 7384TIP3    H122097   5.055   4.210   6.157
 7384TIP3    H222098   4.927   4.137   6.191
 7385TIP3   OH222099   1.806   3.220   2.117
 7385TIP3    H122100   1.743   3.270   2.170
 7385TIP3    H222101   1.849   3.286   2.063
 7386TIP3   OH222102   0.680   0.354   3.973
 7386TIP3    H122103   0.596   0.347   4.019
 7386TIP3    H222104   0.669   0.428   3.914
 7387TIP3   OH222105   0.516   6.329   2.009
 7387TIP3    H122106   0.494   6.238   2.027
 7387TIP3    H222107   0.432   6.374   2.001
 7388TIP3   OH222108   5.466   0.601   6.583
 7388TIP3    H122109   5.510   0.601   6.498
 7388TIP3    H222110   5.506   0.673   6.631
 7389TIP3   OH222111   0.148   4.714   6.169
 7389TIP3    H122112   0.215   4.653   6.199
 7389TIP3    H222113   0.080   4.658   6.132
 7390TIP3   OH222114   2.822   2.877   4.788
 7390TIP3    H122115   2.785   2.893   4.875
 7390TIP3    H222116   2.917   2.874   4.804
 7391TIP3   OH222117   0.921   3.148   1.685
 7391TIP3    H122118   1.009   3.168   1.654
 7391TIP3    H222119   0.870   3.131   1.606
 7392TIP3   OH222120   6.334   7.370   1.183
 7392TIP3    H122121   6.274   7.297   1.174
 7392TIP3    H222122   6.393   7.344   1.254
 7393TIP3   OH222123   1.448   5.253   3.841
 7393TIP3    H122124   1.471   5.161   3.848
 7393TIP3    H222125   1.360   5.260   3.876
 7394TIP3   OH222126   0.612   3.077   5.123
 7394TIP3    H122127   0.622   3.169   5.097
 7394TIP3    H222128   0.603   3.030   5.041
 7395TIP3   OH222129   6.496   2.421   1.367
 7395TIP3    H122130   6.442   2.453   1.295
 7395TIP3    H222131   6.447   2.347   1.403
 7396TIP3   OH222132   1.250   4.764   2.382
 7396TIP3    H122133   1.284   4.676   2.398
 7396TIP3    H222134   1.310   4.801   2.317
 7397TIP3   OH222135   3.469   2.107   3.809
 7397TIP3    H122136   3.518   2.038   3.765
 7397TIP3    H222137   3.520   2.127   3.887
 7398TIP3   OH222138   7.475   3.769   4.516
 7398TIP3    H122139   7.517   3.726   4.441
 7398TIP3    H222140   7.525   3.849   4.529
 7399TIP3   OH222141   5.030   0.555   2.070
 7399TIP3    H122142   4.960   0.617   2.092
 7399TIP3    H222143   5.107   0.589   2.114
 7400TIP3   OH222144   7.243   3.388   3.010
 7400TIP3    H122145   7.161   3.428   2.979
 7400TIP3    H222146   7.216   3.331   3.082
 7401TIP3   OH222147   7.489   0.895   5.799
 7401TIP3    H122148   7.467   0.891   5.892
 7401TIP3    H222149   7.463   0.984   5.773
 7402TIP3   OH222150   5.097   2.052   4.421
 7402TIP3    H122151   5.050   2.016   4.496
 7402TIP3    H222152   5.029   2.075   4.358
 7403TIP3   OH222153   0.640   2.361   1.561
 7403TIP3    H122154   0.700   2.300   1.518
 7403TIP3    H222155   0.602   2.311   1.633
 7404TIP3   OH222156   6.582  -0.014   6.232
 7404TIP3    H122157   6.674  -0.034   6.220
 7404TIP3    H222158   6.551   0.011   6.145
 7405TIP3   OH222159   5.002   2.773   5.180
 7405TIP3    H122160   4.975   2.761   5.089
 7405TIP3    H222161   4.921   2.764   5.231
 7406TIP3   OH222162   0.402   4.658   1.708
 7406TIP3    H122163   0.367   4.569   1.714
 7406TIP3    H222164   0.359   4.706   1.779
 7407TIP3   OH222165   0.657   6.576   2.583
 7407TIP3    H122166   0.701   6.650   2.542
 7407TIP3    H222167   0.714   6.502   2.568
 7408TIP3   OH222168   4.245   4.299   5.771
 7408TIP3    H122169   4.223   4.379   5.819
 7408TIP3    H222170   4.331   4.318   5.733
 7409TIP3   OH222171   2.804   3.074   5.558
 7409TIP3    H122172   2.716   3.049   5.586
 7409TIP3    H222173   2.798   3.080   5.462
 7410TIP3   OH222174   7.391   1.288   2.551
 7410TIP3    H122175   7.435   1.283   2.466
 7410TIP3    H222176   7.453   1.334   2.608
 7411TIP3   OH222177   1.721   2.789   4.955
 7411TIP3    H122178   1.734   2.799   5.049
 7411TIP3    H222179   1.640   2.836   4.937
 7412TIP3   OH222180   6.140   3.031   3.813
 7412TIP3    H122181   6.083   2.967   3.856
 7412TIP3    H222182   6.206   2.978   3.768
 7413TIP3   OH222183   2.212   1.223   2.603
 7413TIP3    H122184   2.122   1.195   2.619
 7413TIP3    H222185   2.213   1.247   2.510
 7414TIP3   OH222186   7.801   1.051   2.830
 7414TIP3    H122187   7.740   1.078   2.898
 7414TIP3    H222188   7.888   1.070   2.866
 7415TIP3   OH222189   0.126  -0.041   2.843
 7415TIP3    H122190   0.096   0.031   2.897
 7415TIP3    H222191   0.221  -0.042   2.854
 7416TIP3   OH222192   1.497   5.100   1.174
 7416TIP3    H122193   1.529   5.017   1.139
 7416TIP3    H222194   1.499   5.088   1.269
 7417TIP3   OH222195   1.628   2.095   4.847
 7417TIP3    H122196   1.653   2.129   4.761
 7417TIP3    H222197   1.686   2.141   4.908
 7418TIP3   OH222198   8.089   1.550   5.106
 7418TIP3    H122199   8.084   1.463   5.146
 7418TIP3    H222200   8.131   1.535   5.021
 7419TIP3   OH222201   1.208   3.169   3.387
 7419TIP3    H122202   1.241   3.243   3.336
 7419TIP3    H222203   1.191   3.204   3.474
 7420TIP3   OH222204   0.666   1.529   2.444
 7420TIP3    H122205   0.635   1.611   2.408
 7420TIP3    H222206   0.761   1.539   2.448
 7421TIP3   OH222207   1.716   7.626   1.786
 7421TIP3    H122208   1.716   7.580   1.702
 7421TIP3    H222209   1.728   7.718   1.763
 7422TIP3   OH222210   6.583   4.902   2.859
 7422TIP3    H122211   6.673   4.878   2.838
 7422TIP3    H222212   6.539   4.819   2.877
 7423TIP3   OH222213   3.440   1.468   0.534
 7423TIP3    H122214   3.465   1.383   0.570
 7423TIP3    H222215   3.522   1.513   0.517
 7424TIP3   OH222216   5.191   6.493   6.737
 7424TIP3    H122217   5.194   6.470   6.644
 7424TIP3    H222218   5.209   6.411   6.783
 7425TIP3   OH222219   7.358   2.120   2.699
 7425TIP3    H122220   7.323   2.137   2.787
 7425TIP3    H222221   7.353   2.025   2.690
 7426TIP3   OH222222   0.203   5.151   5.010
 7426TIP3    H122223   0.288   5.111   5.028
 7426TIP3    H222224   0.154   5.083   4.964
 7427TIP3   OH222225   2.794   5.095   2.036
 7427TIP3    H122226   2.764   5.079   2.126
 7427TIP3    H222227   2.874   5.146   2.046
 7428TIP3   OH222228   2.055   2.672   3.298
 7428TIP3    H122229   1.996   2.704   3.229
 7428TIP3    H222230   2.029   2.722   3.376
 7429TIP3   OH222231   2.127   3.398   5.353
 7429TIP3    H122232   2.097   3.333   5.416
 7429TIP3    H222233   2.157   3.347   5.277
 7430TIP3   OH222234   5.580   1.140   1.874
 7430TIP3    H122235   5.598   1.157   1.967
 7430TIP3    H222236   5.662   1.161   1.830
 7431TIP3   OH222237   0.367   0.284   2.918
 7431TIP3    H122238   0.419   0.318   2.991
 7431TIP3    H222239   0.296   0.348   2.906
 7432TIP3   OH222240   0.020   1.500   6.472
 7432TIP3    H122241  -0.018   1.487   6.385
 7432TIP3    H222242   0.111   1.473   6.463
 7433TIP3   OH222243   6.135   1.750   3.975
 7433TIP3    H122244   6.141   1.831   4.025
 7433TIP3    H222245   6.060   1.762   3.918
 7434TIP3   OH222246   1.364   6.511   4.938
 7434TIP3    H122247   1.356   6.529   5.032
 7434TIP3    H222248   1.283   6.464   4.916
 7435TIP3   OH222249   2.462   5.926   5.785
 7435TIP3    H122250   2.431   5.884   5.865
 7435TIP3    H222251   2.419   5.878   5.714
 7436TIP3   OH222252   4.041   5.147   0.795
 7436TIP3    H122253   4.126   5.149   0.840
 7436TIP3    H222254   3.981   5.193   0.854
 7437TIP3   OH222255   4.318   5.127   6.172
 7437TIP3    H122256   4.248   5.091   6.227
 7437TIP3    H222257   4.320   5.220   6.193
 7438TIP3   OH222258   2.729   1.692   4.946
 7438TIP3    H122259   2.676   1.747   5.003
 7438TIP3    H222260   2.799   1.660   5.003
 7439TIP3   OH222261   1.335   7.654   1.635
 7439TIP3    H122262   1.345   7.565   1.601
 7439TIP3    H222263   1.289   7.642   1.719
 7440TIP3   OH222264   4.427   7.018   6.278
 7440TIP3    H122265   4.372   7.043   6.353
 7440TIP3    H222266   4.372   6.960   6.226
 7441TIP3   OH222267   3.251   4.960   3.556
 7441TIP3    H122268   3.169   4.924   3.591
 7441TIP3    H222269   3.316   4.893   3.572
 7442TIP3   OH222270   1.765   1.696   3.400
 7442TIP3    H122271   1.829   1.713   3.330
 7442TIP3    H222272   1.815   1.709   3.481
 7443TIP3   OH222273   0.789   5.807   4.008
 7443TIP3    H122274   0.750   5.723   4.029
 7443TIP3    H222275   0.826   5.838   4.091
 7444TIP3   OH222276   3.043   4.795   4.441
 7444TIP3    H122277   2.976   4.742   4.399
 7444TIP3    H222278   3.091   4.735   4.497
 7445TIP3   OH222279   3.280   7.688   2.597
 7445TIP3    H122280   3.279   7.702   2.692
 7445TIP3    H222281   3.307   7.597   2.587
 7446TIP3   OH222282   7.054   1.774   3.149
 7446TIP3    H122283   7.059   1.829   3.226
 7446TIP3    H222284   6.968   1.733   3.154
 7447TIP3   OH222285   0.237   4.398   3.308
 7447TIP3    H122286   0.191   4.385   3.391
 7447TIP3    H222287   0.184   4.461   3.260
 7448TIP3   OH222288   6.656   7.624   1.865
 7448TIP3    H122289   6.735   7.673   1.889
 7448TIP3    H222290   6.677   7.533   1.885
 7449TIP3   OH222291   2.783   7.090   0.257
 7449TIP3    H122292   2.825   7.029   0.197
 7449TIP3    H222293   2.802   7.055   0.345
 7450TIP3   OH222294   2.097   7.662   5.238
 7450TIP3    H122295   2.023   7.668   5.298
 7450TIP3    H222296   2.108   7.568   5.223
 7451TIP3   OH222297   7.077   1.383   5.578
 7451TIP3    H122298   7.104   1.469   5.546
 7451TIP3    H222299   7.000   1.400   5.632
 7452TIP3   OH222300   0.056   2.834   1.757
 7452TIP3    H122301   0.116   2.889   1.807
 7452TIP3    H222302   0.039   2.759   1.813
 7453TIP3   OH222303   1.011   6.946   5.561
 7453TIP3    H122304   1.032   6.938   5.654
 7453TIP3    H222305   1.094   6.974   5.521
 7454TIP3   OH222306   6.225   2.826   2.497
 7454TIP3    H122307   6.210   2.737   2.466
 7454TIP3    H222308   6.188   2.882   2.428
 7455TIP3   OH222309   6.869   1.369   1.923
 7455TIP3    H122310   6.849   1.279   1.897
 7455TIP3    H222311   6.794   1.395   1.977
 7456TIP3   OH222312   0.670   0.306   5.487
 7456TIP3    H122313   0.659   0.359   5.408
 7456TIP3    H222314   0.745   0.249   5.467
 7457TIP3   OH222315   7.075   3.609   5.715
 7457TIP3    H122316   7.157   3.632   5.671
 7457TIP3    H222317   7.068   3.671   5.788
 7458TIP3   OH222318   2.655   2.119   1.606
 7458TIP3    H122319   2.706   2.182   1.555
 7458TIP3    H222320   2.564   2.137   1.581
 7459TIP3   OH222321   7.422   4.993   3.097
 7459TIP3    H122322   7.492   5.056   3.081
 7459TIP3    H222323   7.455   4.937   3.167
 7460TIP3   OH222324   4.576   0.499   2.274
 7460TIP3    H122325   4.557   0.456   2.357
 7460TIP3    H222326   4.607   0.586   2.298
 7461TIP3   OH222327   1.391   2.771   1.069
 7461TIP3    H122328   1.387   2.707   0.997
 7461TIP3    H222329   1.309   2.820   1.063
 7462TIP3   OH222330   0.514   1.547   0.374
 7462TIP3    H122331   0.475   1.599   0.444
 7462TIP3    H222332   0.607   1.541   0.397
 7463TIP3   OH222333   4.841   1.042   2.655
 7463TIP3    H122334   4.851   1.137   2.658
 7463TIP3    H222335   4.786   1.021   2.731
 7464TIP3   OH222336   5.979   2.065   6.562
 7464TIP3    H122337   5.921   2.129   6.603
 7464TIP3    H222338   6.063   2.077   6.607
 7465TIP3   OH222339   2.270   1.710   2.556
 7465TIP3    H122340   2.338   1.768   2.521
 7465TIP3    H222341   2.309   1.673   2.635
 7466TIP3   OH222342   3.586   6.522   4.333
 7466TIP3    H122343   3.640   6.588   4.377
 7466TIP3    H222344   3.634   6.440   4.346
 7467TIP3   OH222345   1.235   0.338   3.305
 7467TIP3    H122346   1.141   0.340   3.288
 7467TIP3    H222347   1.241   0.305   3.395
 7468TIP3   OH222348   7.555   0.370   1.966
 7468TIP3    H122349   7.610   0.442   1.995
 7468TIP3    H222350   7.522   0.398   1.880
 7469TIP3   OH222351   5.424   2.233   0.115
 7469TIP3    H122352   5.358   2.222   0.183
 7469TIP3    H222353   5.508   2.224   0.161
 7470TIP3   OH222354   3.573   5.706   1.263
 7470TIP3    H122355   3.529   5.758   1.330
 7470TIP3    H222356   3.616   5.636   1.312
 7471TIP3   OH222357   1.143   6.138   4.060
 7471TIP3    H122358   1.221   6.192   4.047
 7471TIP3    H222359   1.148   6.110   4.151
 7472TIP3   OH222360   7.472   7.133   3.535
 7472TIP3    H122361   7.460   7.217   3.489
 7472TIP3    H222362   7.561   7.138   3.569
 7473TIP3   OH222363   5.289   7.809   0.273
 7473TIP3    H122364   5.211   7.824   0.220
 7473TIP3    H222365   5.346   7.755   0.218
 7474TIP3   OH222366   2.568   2.225   5.194
 7474TIP3    H122367   2.516   2.197   5.119
 7474TIP3    H222368   2.518   2.194   5.270
 7475TIP3   OH222369   4.522   4.584   2.505
 7475TIP3    H122370   4.581   4.561   2.433
 7475TIP3    H222371   4.533   4.513   2.569
 7476TIP3   OH222372   0.556   6.541   3.734
 7476TIP3    H122373   0.563   6.634   3.755
 7476TIP3    H222374   0.605   6.496   3.803
 7477TIP3   OH222375   4.870   1.638   5.704
 7477TIP3    H122376   4.850   1.719   5.752
 7477TIP3    H222377   4.883   1.667   5.614
 7478TIP3   OH222378   7.274   2.837   6.483
 7478TIP3    H122379   7.364   2.863   6.463
 7478TIP3    H222380   7.242   2.906   6.541
 7479TIP3   OH222381   7.358   3.103   5.680
 7479TIP3    H122382   7.342   3.138   5.768
 7479TIP3    H222383   7.428   3.039   5.692
 7480TIP3   OH222384   1.828   5.207   4.002
 7480TIP3    H122385   1.795   5.264   4.071
 7480TIP3    H222386   1.914   5.242   3.980
 7481TIP3   OH222387   7.381   3.618   6.534
 7481TIP3    H122388   7.380   3.615   6.629
 7481TIP3    H222389   7.344   3.704   6.513
 7482TIP3   OH222390   3.000   4.715   4.764
 7482TIP3    H122391   2.908   4.705   4.739
 7482TIP3    H222392   3.020   4.638   4.817
 7483TIP3   OH222393   4.374   3.745   4.391
 7483TIP3    H122394   4.414   3.786   4.468
 7483TIP3    H222395   4.448   3.706   4.344
 7484TIP3   OH222396   3.209   6.736   0.592
 7484TIP3    H122397   3.207   6.641   0.602
 7484TIP3    H222398   3.203   6.770   0.682
 7485TIP3   OH222399   6.240   4.927   5.687
 7485TIP3    H122400   6.331   4.930   5.715
 7485TIP3    H222401   6.234   4.848   5.633
 7486TIP3   OH222402   3.974   0.048   5.816
 7486TIP3    H122403   3.906   0.097   5.861
 7486TIP3    H222404   4.040   0.114   5.793
 7487TIP3   OH222405   8.224   5.989   2.578
 7487TIP3    H122406   8.242   6.081   2.559
 7487TIP3    H222407   8.307   5.944   2.561
 7488TIP3   OH222408   6.169   0.855   1.615
 7488TIP3    H122409   6.240   0.899   1.568
 7488TIP3    H222410   6.100   0.842   1.550
 7489TIP3   OH222411   1.289   7.471   5.363
 7489TIP3    H122412   1.256   7.506   5.446
 7489TIP3    H222413   1.239   7.519   5.296
 7490TIP3   OH222414   1.690   5.743   6.419
 7490TIP3    H122415   1.630   5.687   6.370
 7490TIP3    H222416   1.726   5.687   6.487
 7491TIP3   OH222417   7.123   5.694   5.501
 7491TIP3    H122418   7.143   5.689   5.407
 7491TIP3    H222419   7.188   5.755   5.536
 7492TIP3   OH222420   4.621   5.733   2.688
 7492TIP3    H122421   4.558   5.775   2.629
 7492TIP3    H222422   4.567   5.692   2.756
 7493TIP3   OH222423   0.595   2.483   3.281
 7493TIP3    H122424   0.553   2.415   3.227
 7493TIP3    H222425   0.528   2.550   3.291
 7494TIP3   OH222426   4.062   7.112   5.962
 7494TIP3    H122427   4.140   7.140   5.914
 7494TIP3    H222428   3.998   7.182   5.947
 7495TIP3   OH222429   7.321   3.175   2.400
 7495TIP3    H122430   7.302   3.108   2.333
 7495TIP3    H222431   7.383   3.234   2.358
 7496TIP3   OH222432   4.340   3.005   5.110
 7496TIP3    H122433   4.310   2.977   5.024
 7496TIP3    H222434   4.289   2.953   5.172
 7497TIP3   OH222435   4.699   3.545   2.149
 7497TIP3    H122436   4.704   3.584   2.062
 7497TIP3    H222437   4.606   3.528   2.163
 7498TIP3   OH222438   2.246   4.744   1.070
 7498TIP3    H122439   2.302   4.760   1.147
 7498TIP3    H222440   2.165   4.710   1.107
 7499TIP3   OH222441   8.229   5.696   0.052
 7499TIP3    H122442   8.166   5.763   0.024
 7499TIP3    H222443   8.197   5.668   0.138
 7500TIP3   OH222444   4.160   1.888   4.644
 7500TIP3    H122445   4.108   1.828   4.590
 7500TIP3    H222446   4.095   1.938   4.693
 7501TIP3   OH222447   0.292   6.646   3.140
 7501TIP3    H122448   0.259   6.653   3.050
 7501TIP3    H222449   0.381   6.681   3.135
 7502TIP3   OH222450   7.041   6.210   4.747
 7502TIP3    H122451   7.104   6.142   4.724
 7502TIP3    H222452   6.988   6.171   4.817
 7503TIP3   OH222453   3.748   4.619   2.041
 7503TIP3    H122454   3.730   4.708   2.012
 7503TIP3    H222455   3.679   4.600   2.105
 7504TIP3   OH222456   4.504   5.403   2.121
 7504TIP3    H122457   4.505   5.493   2.153
 7504TIP3    H222458   4.553   5.353   2.186
 7505TIP3   OH222459   1.093   0.508   2.288
 7505TIP3    H122460   1.082   0.505   2.383
 7505TIP3    H222461   1.004   0.500   2.254
 7506TIP3   OH222462   5.622   0.960   4.586
 7506TIP3    H122463   5.676   1.037   4.605
 7506TIP3    H222464   5.676   0.886   4.612
 7507TIP3   OH222465   5.468   6.028   0.523
 7507TIP3    H122466   5.432   6.111   0.492
 7507TIP3    H222467   5.393   5.980   0.556
 7508TIP3   OH222468   1.658   3.763   3.853
 7508TIP3    H122469   1.672   3.857   3.862
 7508TIP3    H222470   1.624   3.735   3.938
 7509TIP3   OH222471   0.760   4.758   5.543
 7509TIP3    H122472   0.818   4.811   5.488
 7509TIP3    H222473   0.683   4.813   5.557
 7510TIP3   OH222474   2.936   7.238   1.909
 7510TIP3    H122475   2.884   7.186   1.971
 7510TIP3    H222476   2.927   7.328   1.939
 7511TIP3   OH222477   7.488   6.488   1.900
 7511TIP3    H122478   7.463   6.517   1.812
 7511TIP3    H222479   7.519   6.399   1.887
 7512TIP3   OH222480   0.254   1.515   4.138
 7512TIP3    H122481   0.214   1.564   4.210
 7512TIP3    H222482   0.243   1.572   4.062
 7513TIP3   OH222483   6.578   1.519   0.613
 7513TIP3    H122484   6.567   1.431   0.578
 7513TIP3    H222485   6.605   1.507   0.703
 7514TIP3   OH222486   0.599   1.501   2.756
 7514TIP3    H122487   0.604   1.437   2.685
 7514TIP3    H222488   0.542   1.570   2.721
 7515TIP3   OH222489   4.583   7.618   3.419
 7515TIP3    H122490   4.558   7.533   3.455
 7515TIP3    H222491   4.515   7.678   3.449
 7516TIP3   OH222492   8.223   0.091   2.726
 7516TIP3    H122493   8.253   0.179   2.750
 7516TIP3    H222494   8.296   0.033   2.748
 7517TIP3   OH222495   6.943   3.379   6.020
 7517TIP3    H122496   7.014   3.332   5.975
 7517TIP3    H222497   6.894   3.420   5.949
 7518TIP3   OH222498   0.229   5.008   5.763
 7518TIP3    H122499   0.160   5.048   5.710
 7518TIP3    H222500   0.191   4.924   5.791
 7519TIP3   OH222501   3.361   3.172   5.173
 7519TIP3    H122502   3.317   3.145   5.093
 7519TIP3    H222503   3.295   3.158   5.242
 7520TIP3   OH222504   0.045   5.290   5.813
 7520TIP3    H122505   0.034   5.384   5.798
 7520TIP3    H222506   0.126   5.283   5.863
 7521TIP3   OH222507   7.112   1.308   0.691
 7521TIP3    H122508   7.186   1.314   0.751
 7521TIP3    H222509   7.040   1.275   0.745
 7522TIP3   OH222510   2.003   4.772   2.029
 7522TIP3    H122511   2.073   4.838   2.030
 7522TIP3    H222512   2.048   4.690   2.010
 7523TIP3   OH222513   4.282   4.051   0.078
 7523TIP3    H122514   4.332   4.010   0.149
 7523TIP3    H222515   4.342   4.113   0.038
 7524TIP3   OH222516   7.956   4.786   2.603
 7524TIP3    H122517   7.931   4.862   2.552
 7524TIP3    H222518   7.885   4.774   2.666
 7525TIP3   OH222519   4.020   2.403   1.296
 7525TIP3    H122520   4.008   2.490   1.257
 7525TIP3    H222521   3.930   2.372   1.310
 7526TIP3   OH222522   1.786   6.484   1.890
 7526TIP3    H122523   1.744   6.422   1.949
 7526TIP3    H222524   1.722   6.496   1.820
 7527TIP3   OH222525   0.138   1.873   2.291
 7527TIP3    H122526   0.089   1.791   2.292
 7527TIP3    H222527   0.159   1.890   2.383
 7528TIP3   OH222528   7.156   3.909   0.300
 7528TIP3    H122529   7.113   3.990   0.327
 7528TIP3    H222530   7.084   3.855   0.265
 7529TIP3   OH222531   2.241   2.209   4.190
 7529TIP3    H122532   2.153   2.234   4.218
 7529TIP3    H222533   2.273   2.152   4.260
 7530TIP3   OH222534   7.775   5.544   3.202
 7530TIP3    H122535   7.793   5.521   3.111
 7530TIP3    H222536   7.679   5.552   3.206
 7531TIP3   OH222537   0.143   4.804   1.851
 7531TIP3    H122538   0.068   4.795   1.791
 7531TIP3    H222539   0.160   4.715   1.881
 7532TIP3   OH222540   7.277   6.814   1.709
 7532TIP3    H122541   7.322   6.730   1.714
 7532TIP3    H222542   7.204   6.807   1.770
 7533TIP3   OH222543   5.563   7.501   2.832
 7533TIP3    H122544   5.593   7.585   2.868
 7533TIP3    H222545   5.483   7.522   2.785
 7534TIP3   OH222546   6.101   5.707   5.663
 7534TIP3    H122547   6.090   5.790   5.616
 7534TIP3    H222548   6.051   5.718   5.744
 7535TIP3   OH222549   0.491   0.095   5.415
 7535TIP3    H122550   0.526   0.027   5.473
 7535TIP3    H222551   0.530   0.176   5.448
 7536TIP3   OH222552   0.449   4.777   6.648
 7536TIP3    H122553   0.452   4.835   6.572
 7536TIP3    H222554   0.417   4.833   6.719
 7537TIP3   OH222555   6.919   2.920   5.951
 7537TIP3    H122556   6.924   2.830   5.921
 7537TIP3    H222557   6.977   2.924   6.027
 7538TIP3   OH222558   4.777   3.598   3.238
 7538TIP3    H122559   4.861   3.580   3.281
 7538TIP3    H222560   4.714   3.544   3.286
 7539TIP3   OH222561   1.115   0.974   1.581
 7539TIP3    H122562   1.026   1.000   1.557
 7539TIP3    H222563   1.144   0.917   1.510
 7540TIP3   OH222564   7.295   0.830   1.928
 7540TIP3    H122565   7.254   0.881   1.998
 7540TIP3    H222566   7.382   0.869   1.918
 7541TIP3   OH222567   2.149   2.018   2.568
 7541TIP3    H122568   2.211   1.982   2.505
 7541TIP3    H222569   2.081   2.058   2.514
 7542TIP3   OH222570   4.161   6.746   1.753
 7542TIP3    H122571   4.227   6.676   1.757
 7542TIP3    H222572   4.134   6.759   1.843
 7543TIP3   OH222573   1.240   2.662   4.083
 7543TIP3    H122574   1.157   2.665   4.132
 7543TIP3    H222575   1.307   2.656   4.151
 7544TIP3   OH222576   3.663   2.610   2.303
 7544TIP3    H122577   3.614   2.592   2.383
 7544TIP3    H222578   3.737   2.550   2.306
 7545TIP3   OH222579   7.002   4.352   1.405
 7545TIP3    H122580   7.074   4.399   1.365
 7545TIP3    H222581   7.043   4.275   1.446
 7546TIP3   OH222582   4.426   3.825   6.309
 7546TIP3    H122583   4.350   3.793   6.358
 7546TIP3    H222584   4.485   3.859   6.375
 7547TIP3   OH222585   0.155   7.232   0.638
 7547TIP3    H122586   0.197   7.167   0.694
 7547TIP3    H222587   0.091   7.182   0.587
 7548TIP3   OH222588   1.792   2.244   1.797
 7548TIP3    H122589   1.777   2.290   1.714
 7548TIP3    H222590   1.803   2.152   1.772
 7549TIP3   OH222591   5.898   3.337   5.481
 7549TIP3    H122592   5.963   3.405   5.460
 7549TIP3    H222593   5.932   3.297   5.561
 7550TIP3   OH222594   7.576   2.596   5.819
 7550TIP3    H122595   7.526   2.642   5.885
 7550TIP3    H222596   7.602   2.514   5.861
 7551TIP3   OH222597   4.789   7.308   0.266
 7551TIP3    H122598   4.798   7.400   0.244
 7551TIP3    H222599   4.784   7.306   0.361
 7552TIP3   OH222600   0.332   2.061   4.124
 7552TIP3    H122601   0.266   2.021   4.180
 7552TIP3    H222602   0.283   2.094   4.049
 7553TIP3   OH222603   1.524   5.000   3.615
 7553TIP3    H122604   1.561   5.016   3.701
 7553TIP3    H222605   1.575   4.927   3.580
 7554TIP3   OH222606   4.115   1.306   2.896
 7554TIP3    H122607   4.046   1.364   2.862
 7554TIP3    H222608   4.196   1.340   2.858
 7555TIP3   OH222609   2.647   6.965   6.020
 7555TIP3    H122610   2.620   7.034   6.081
 7555TIP3    H222611   2.564   6.931   5.986
 7556TIP3   OH222612   8.089   0.252   4.950
 7556TIP3    H122613   7.997   0.238   4.931
 7556TIP3    H222614   8.104   0.205   5.032
 7557TIP3   OH222615   7.755   6.317   1.951
 7557TIP3    H122616   7.731   6.239   2.000
 7557TIP3    H222617   7.767   6.385   2.017
 7558TIP3   OH222618   2.576   6.346   4.585
 7558TIP3    H122619   2.525   6.280   4.537
 7558TIP3    H222620   2.564   6.426   4.535
 7559TIP3   OH222621   1.142   1.453   3.602
 7559TIP3    H122622   1.100   1.469   3.518
 7559TIP3    H222623   1.168   1.540   3.633
 7560TIP3   OH222624   2.517   2.546   5.496
 7560TIP3    H122625   2.432   2.588   5.489
 7560TIP3    H222626   2.498   2.460   5.533
 7561TIP3   OH222627   7.443   4.146   6.296
 7561TIP3    H122628   7.370   4.184   6.345
 7561TIP3    H222629   7.401   4.103   6.221
 7562TIP3   OH222630   1.548   5.087   2.207
 7562TIP3    H122631   1.467   5.048   2.174
 7562TIP3    H222632   1.603   5.098   2.129
 7563TIP3   OH222633   3.005   7.337   5.972
 7563TIP3    H122634   2.954   7.418   5.968
 7563TIP3    H222635   2.947   7.275   6.016
 7564TIP3   OH222636   2.299   5.513   1.310
 7564TIP3    H122637   2.384   5.518   1.353
 7564TIP3    H222638   2.266   5.603   1.311
 7565TIP3   OH222639   6.717   6.850   5.500
 7565TIP3    H122640   6.716   6.795   5.422
 7565TIP3    H222641   6.774   6.804   5.562
 7566TIP3   OH222642   3.217   2.370   2.929
 7566TIP3    H122643   3.282   2.329   2.986
 7566TIP3    H222644   3.231   2.464   2.941
 7567TIP3   OH222645   1.425   5.907   3.266
 7567TIP3    H122646   1.399   5.976   3.327
 7567TIP3    H222647   1.342   5.876   3.230
 7568TIP3   OH222648   4.709   4.654   3.596
 7568TIP3    H122649   4.698   4.583   3.660
 7568TIP3    H222650   4.754   4.613   3.522
 7569TIP3   OH222651   3.944   2.527   4.323
 7569TIP3    H122652   3.874   2.466   4.341
 7569TIP3    H222653   3.937   2.545   4.229
 7570TIP3   OH222654   2.401   5.303   5.850
 7570TIP3    H122655   2.379   5.242   5.779
 7570TIP3    H222656   2.479   5.263   5.891
 7571TIP3   OH222657   6.457   5.549   2.573
 7571TIP3    H122658   6.442   5.590   2.488
 7571TIP3    H222659   6.465   5.456   2.554
 7572TIP3   OH222660   2.757   0.541   4.004
 7572TIP3    H122661   2.794   0.590   4.078
 7572TIP3    H222662   2.691   0.600   3.967
 7573TIP3   OH222663   1.993   5.288   2.300
 7573TIP3    H122664   1.974   5.254   2.213
 7573TIP3    H222665   1.959   5.220   2.359
 7574TIP3   OH222666   5.127   5.422   5.193
 7574TIP3    H122667   5.071   5.402   5.268
 7574TIP3    H222668   5.072   5.473   5.134
 7575TIP3   OH222669   1.539   7.376   6.721
 7575TIP3    H122670   1.514   7.320   6.794
 7575TIP3    H222671   1.629   7.403   6.742
 7576TIP3   OH222672   1.212   2.903   2.740
 7576TIP3    H122673   1.216   2.895   2.835
 7576TIP3    H222674   1.302   2.885   2.710
 7577TIP3   OH222675   0.867   1.061   1.548
 7577TIP3    H122676   0.895   1.151   1.564
 7577TIP3    H222677   0.774   1.061   1.570
 7578TIP3   OH222678   2.710   4.086   0.391
 7578TIP3    H122679   2.664   4.126   0.317
 7578TIP3    H222680   2.744   4.004   0.356
 7579TIP3   OH222681   3.927   0.553   2.386
 7579TIP3    H122682   3.965   0.576   2.471
 7579TIP3    H222683   3.833   0.557   2.400
 7580TIP3   OH222684   8.291   7.664   0.596
 7580TIP3    H122685   8.230   7.648   0.524
 7580TIP3    H222686   8.367   7.704   0.555
 7581TIP3   OH222687   4.695   3.591   1.285
 7581TIP3    H122688   4.643   3.614   1.362
 7581TIP3    H222689   4.723   3.501   1.302
 7582TIP3   OH222690   7.083   5.748   5.934
 7582TIP3    H122691   7.007   5.788   5.976
 7582TIP3    H222692   7.080   5.656   5.963
 7583TIP3   OH222693   2.370   7.815   5.833
 7583TIP3    H122694   2.403   7.872   5.763
 7583TIP3    H222695   2.409   7.730   5.815
 7584TIP3   OH222696   7.700   4.773   3.907
 7584TIP3    H122697   7.778   4.808   3.951
 7584TIP3    H222698   7.713   4.678   3.909
 7585TIP3   OH222699   4.558   2.516   4.243
 7585TIP3    H122700   4.542   2.609   4.227
 7585TIP3    H222701   4.509   2.471   4.174
 7586TIP3   OH222702   0.600   3.666   4.136
 7586TIP3    H122703   0.690   3.637   4.152
 7586TIP3    H222704   0.607   3.724   4.061
 7587TIP3   OH222705   2.232   5.074   0.607
 7587TIP3    H122706   2.225   5.059   0.701
 7587TIP3    H222707   2.200   4.993   0.567
 7588TIP3   OH222708   1.583   3.450   5.705
 7588TIP3    H122709   1.605   3.439   5.613
 7588TIP3    H222710   1.664   3.478   5.746
 7589TIP3   OH222711   2.511   6.871   6.727
 7589TIP3    H122712   2.439   6.819   6.762
 7589TIP3    H222713   2.525   6.837   6.639
 7590TIP3   OH222714   6.301   2.552   3.747
 7590TIP3    H122715   6.271   2.473   3.792
 7590TIP3    H222716   6.238   2.619   3.772
 7591TIP3   OH222717   7.663   5.141   1.613
 7591TIP3    H122718   7.728   5.131   1.544
 7591TIP3    H222719   7.587   5.092   1.581
 7592TIP3   OH222720   2.850   4.483   0.035
 7592TIP3    H122721   2.909   4.556   0.058
 7592TIP3    H222722   2.890   4.407   0.075
 7593TIP3   OH222723   0.847   7.313   1.560
 7593TIP3    H122724   0.757   7.342   1.577
 7593TIP3    H222725   0.900   7.392   1.575
 7594TIP3   OH222726   2.217   6.518   3.749
 7594TIP3    H122727   2.265   6.502   3.831
 7594TIP3    H222728   2.283   6.549   3.688
 7595TIP3   OH222729   3.153   2.675   3.215
 7595TIP3    H122730   3.064   2.649   3.237
 7595TIP3    H222731   3.208   2.606   3.253
 7596TIP3   OH222732   5.304   1.982   3.218
 7596TIP3    H122733   5.305   1.933   3.136
 7596TIP3    H222734   5.262   1.922   3.281
 7597TIP3   OH222735   4.848   7.387   3.244
 7597TIP3    H122736   4.878   7.478   3.240
 7597TIP3    H222737   4.805   7.373   3.160
 7598TIP3   OH222738   2.930   3.137   3.211
 7598TIP3    H122739   2.835   3.127   3.203
 7598TIP3    H222740   2.966   3.089   3.137
 7599TIP3   OH222741   2.975   0.116   4.682
 7599TIP3    H122742   2.991   0.034   4.635
 7599TIP3    H222743   3.062   0.145   4.711
 7600TIP3   OH222744   0.306   1.114   4.134
 7600TIP3    H122745   0.362   1.069   4.070
 7600TIP3    H222746   0.262   1.182   4.083
 7601TIP3   OH222747   2.000   3.936   2.188
 7601TIP3    H122748   1.975   3.844   2.176
 7601TIP3    H222749   1.990   3.975   2.101
 7602TIP3   OH222750   6.050   3.973   2.374
 7602TIP3    H122751   6.113   3.924   2.428
 7602TIP3    H222752   6.067   4.065   2.394
 7603TIP3   OH222753   0.191   2.783   4.332
 7603TIP3    H122754   0.156   2.703   4.373
 7603TIP3    H222755   0.146   2.854   4.378
 7604TIP3   OH222756   2.452   0.590   2.717
 7604TIP3    H122757   2.499   0.631   2.790
 7604TIP3    H222758   2.444   0.498   2.743
 7605TIP3   OH222759   5.241   6.801   3.516
 7605TIP3    H122760   5.309   6.811   3.582
 7605TIP3    H222761   5.253   6.713   3.481
 7606TIP3   OH222762   2.690   7.282   2.460
 7606TIP3    H122763   2.739   7.215   2.508
 7606TIP3    H222764   2.685   7.356   2.520
 7607TIP3   OH222765   5.032   6.576   2.002
 7607TIP3    H122766   5.040   6.490   2.043
 7607TIP3    H222767   4.973   6.563   1.929
 7608TIP3   OH222768   0.212   2.380   5.088
 7608TIP3    H122769   0.271   2.391   5.013
 7608TIP3    H222770   0.213   2.286   5.106
 7609TIP3   OH222771   0.418   5.589   4.366
 7609TIP3    H122772   0.365   5.648   4.313
 7609TIP3    H222773   0.370   5.507   4.368
 7610TIP3   OH222774   5.187   4.148   3.807
 7610TIP3    H122775   5.276   4.157   3.841
 7610TIP3    H222776   5.132   4.146   3.885
 7611TIP3   OH222777   5.743   6.225   1.657
 7611TIP3    H122778   5.830   6.255   1.686
 7611TIP3    H222779   5.761   6.144   1.609
 7612TIP3   OH222780   2.344   0.164   5.141
 7612TIP3    H122781   2.399   0.198   5.212
 7612TIP3    H222782   2.325   0.241   5.087
 7613TIP3   OH222783   1.521   1.103   1.955
 7613TIP3    H122784   1.526   1.033   2.021
 7613TIP3    H222785   1.612   1.133   1.946
 7614TIP3   OH222786   3.088   7.673   5.867
 7614TIP3    H122787   3.164   7.704   5.816
 7614TIP3    H222788   3.030   7.635   5.802
 7615TIP3   OH222789   8.081   2.583   4.277
 7615TIP3    H122790   8.120   2.594   4.363
 7615TIP3    H222791   8.090   2.668   4.235
 7616TIP3   OH222792   6.679   7.757   2.271
 7616TIP3    H122793   6.719   7.843   2.280
 7616TIP3    H222794   6.636   7.742   2.355
 7617TIP3   OH222795   5.008   5.349   6.623
 7617TIP3    H122796   4.928   5.400   6.622
 7617TIP3    H222797   5.010   5.305   6.538
 7618TIP3   OH222798   0.191   4.567   1.965
 7618TIP3    H122799   0.108   4.520   1.956
 7618TIP3    H222800   0.248   4.506   2.012
 7619TIP3   OH222801   5.232   6.415   5.549
 7619TIP3    H122802   5.241   6.423   5.454
 7619TIP3    H222803   5.314   6.450   5.583
 7620TIP3   OH222804   3.866   1.971   0.977
 7620TIP3    H122805   3.781   1.942   0.943
 7620TIP3    H222806   3.884   2.052   0.930
 7621TIP3   OH222807   7.531   0.408   4.715
 7621TIP3    H122808   7.527   0.339   4.649
 7621TIP3    H222809   7.468   0.473   4.686
 7622TIP3   OH222810   2.999   5.785   5.351
 7622TIP3    H122811   3.075   5.773   5.294
 7622TIP3    H222812   3.019   5.735   5.430
 7623TIP3   OH222813   5.931   5.339   4.469
 7623TIP3    H122814   5.975   5.254   4.468
 7623TIP3    H222815   5.965   5.383   4.547
 7624TIP3   OH222816   8.226   5.721   4.541
 7624TIP3    H122817   8.247   5.741   4.449
 7624TIP3    H222818   8.139   5.758   4.554
 7625TIP3   OH222819   1.718   0.554   6.612
 7625TIP3    H122820   1.644   0.593   6.566
 7625TIP3    H222821   1.721   0.600   6.696
 7626TIP3   OH222822   4.887   1.848   3.536
 7626TIP3    H122823   4.922   1.766   3.501
 7626TIP3    H222824   4.793   1.844   3.516
 7627TIP3   OH222825   6.165   5.876   1.086
 7627TIP3    H122826   6.161   5.843   1.176
 7627TIP3    H222827   6.142   5.800   1.032
 7628TIP3   OH222828   2.433   1.443   2.211
 7628TIP3    H122829   2.379   1.521   2.200
 7628TIP3    H222830   2.485   1.460   2.289
 7629TIP3   OH222831   7.764   6.670   3.312
 7629TIP3    H122832   7.764   6.760   3.346
 7629TIP3    H222833   7.748   6.615   3.389
 7630TIP3   OH222834   4.357   6.686   5.601
 7630TIP3    H122835   4.423   6.750   5.574
 7630TIP3    H222836   4.384   6.604   5.558
 7631TIP3   OH222837   3.130   0.558   4.997
 7631TIP3    H122838   3.135   0.463   5.015
 7631TIP3    H222839   3.189   0.572   4.924
 7632TIP3   OH222840   6.096   7.071   3.087
 7632TIP3    H122841   6.135   7.010   3.149
 7632TIP3    H222842   6.123   7.039   3.001
 7633TIP3   OH222843   3.624   6.440   1.421
 7633TIP3    H122844   3.713   6.454   1.389
 7633TIP3    H222845   3.635   6.395   1.505
 7634TIP3   OH222846   5.632   1.047   2.423
 7634TIP3    H122847   5.560   0.985   2.414
 7634TIP3    H222848   5.709   0.999   2.392
 7635TIP3   OH222849   2.512   2.378   1.824
 7635TIP3    H122850   2.568   2.454   1.841
 7635TIP3    H222851   2.429   2.399   1.867
 7636TIP3   OH222852   7.024   5.490   4.022
 7636TIP3    H122853   6.954   5.542   3.983
 7636TIP3    H222854   7.043   5.422   3.957
 7637TIP3   OH222855   5.178   7.613   3.660
 7637TIP3    H122856   5.222   7.529   3.644
 7637TIP3    H222857   5.221   7.674   3.601
 7638TIP3   OH222858   5.042   0.543   5.451
 7638TIP3    H122859   5.051   0.448   5.461
 7638TIP3    H222860   5.102   0.566   5.380
 7639TIP3   OH222861   4.835   4.147   4.175
 7639TIP3    H122862   4.761   4.092   4.151
 7639TIP3    H222863   4.811   4.235   4.145
 7640TIP3   OH222864   3.240   4.397   6.588
 7640TIP3    H122865   3.235   4.490   6.610
 7640TIP3    H222866   3.294   4.394   6.509
 7641TIP3   OH222867   2.219   7.667   3.815
 7641TIP3    H122868   2.192   7.747   3.770
 7641TIP3    H222869   2.137   7.622   3.836
 7642TIP3   OH222870   6.633   2.646   2.813
 7642TIP3    H122871   6.643   2.561   2.856
 7642TIP3    H222872   6.539   2.663   2.816
 7643TIP3   OH222873   8.140   2.792   4.740
 7643TIP3    H122874   8.109   2.738   4.813
 7643TIP3    H222875   8.062   2.835   4.706
 7644TIP3   OH222876   7.493   3.545   2.612
 7644TIP3    H122877   7.508   3.453   2.631
 7644TIP3    H222878   7.477   3.548   2.517
 7645TIP3   OH222879   0.365   4.901   3.783
 7645TIP3    H122880   0.387   4.814   3.815
 7645TIP3    H222881   0.446   4.932   3.742
 7646TIP3   OH222882   4.008   1.891   1.458
 7646TIP3    H122883   4.063   1.958   1.418
 7646TIP3    H222884   4.068   1.819   1.476
 7647TIP3   OH222885   6.262   5.519   1.102
 7647TIP3    H122886   6.326   5.485   1.040
 7647TIP3    H222887   6.304   5.596   1.140
 7648TIP3   OH222888   5.880   1.457   1.370
 7648TIP3    H122889   5.899   1.549   1.349
 7648TIP3    H222890   5.819   1.429   1.302
 7649TIP3   OH222891   2.922   5.780   3.358
 7649TIP3    H122892   2.878   5.792   3.274
 7649TIP3    H222893   3.009   5.817   3.345
 7650TIP3   OH222894   5.743   1.013   2.915
 7650TIP3    H122895   5.810   1.074   2.882
 7650TIP3    H222896   5.785   0.969   2.988
 7651TIP3   OH222897   4.176   1.515   5.769
 7651TIP3    H122898   4.197   1.581   5.834
 7651TIP3    H222899   4.169   1.433   5.819
 7652TIP3   OH222900   4.400   0.124   6.181
 7652TIP3    H122901   4.332   0.071   6.140
 7652TIP3    H222902   4.397   0.208   6.135
 7653TIP3   OH222903   6.741   7.711   1.637
 7653TIP3    H122904   6.703   7.673   1.716
 7653TIP3    H222905   6.776   7.637   1.589
 7654TIP3   OH222906   3.177   1.577   0.617
 7654TIP3    H122907   3.268   1.549   0.606
 7654TIP3    H222908   3.126   1.501   0.589
 7655TIP3   OH222909   0.905   6.073   3.909
 7655TIP3    H122910   0.878   5.987   3.941
 7655TIP3    H222911   0.965   6.105   3.976
 7656TIP3   OH222912   2.043   7.579   6.773
 7656TIP3    H122913   2.046   7.499   6.826
 7656TIP3    H222914   2.014   7.647   6.834
 7657TIP3   OH222915   4.573   6.857   5.530
 7657TIP3    H122916   4.639   6.818   5.472
 7657TIP3    H222917   4.624   6.904   5.596
 7658TIP3   OH222918   8.107   6.159   4.998
 7658TIP3    H122919   8.110   6.229   5.064
 7658TIP3    H222920   8.176   6.182   4.936
 7659TIP3   OH222921   2.348   2.823   1.366
 7659TIP3    H122922   2.347   2.816   1.271
 7659TIP3    H222923   2.429   2.868   1.387
 7660TIP3   OH222924   7.513   7.407   5.635
 7660TIP3    H122925   7.601   7.369   5.639
 7660TIP3    H222926   7.498   7.422   5.542
 7661TIP3   OH222927   7.250   1.235   4.050
 7661TIP3    H122928   7.311   1.282   4.106
 7661TIP3    H222929   7.189   1.193   4.112
 7662TIP3   OH222930   5.384   7.597   2.307
 7662TIP3    H122931   5.411   7.514   2.346
 7662TIP3    H222932   5.392   7.660   2.379
 7663TIP3   OH222933   4.471   5.329   2.658
 7663TIP3    H122934   4.424   5.356   2.737
 7663TIP3    H222935   4.518   5.249   2.685
 7664TIP3   OH222936   8.077   2.549   4.584
 7664TIP3    H122937   8.034   2.568   4.667
 7664TIP3    H222938   8.060   2.456   4.569
 7665TIP3   OH222939   1.593   6.404   0.859
 7665TIP3    H122940   1.667   6.392   0.800
 7665TIP3    H222941   1.562   6.316   0.879
 7666TIP3   OH222942   7.332   3.851   2.616
 7666TIP3    H122943   7.427   3.850   2.603
 7666TIP3    H222944   7.296   3.839   2.528
 7667TIP3   OH222945   7.431   3.225   3.614
 7667TIP3    H122946   7.471   3.171   3.682
 7667TIP3    H222947   7.387   3.162   3.556
 7668TIP3   OH222948  -0.069   7.716   0.946
 7668TIP3    H122949  -0.035   7.768   0.873
 7668TIP3    H222950  -0.016   7.743   1.021
 7669TIP3   OH222951   7.020   7.316   6.089
 7669TIP3    H122952   7.048   7.394   6.040
 7669TIP3    H222953   7.022   7.245   6.025
 7670TIP3   OH222954   3.246   0.421   3.516
 7670TIP3    H122955   3.206   0.365   3.582
 7670TIP3    H222956   3.179   0.485   3.495
 7671TIP3   OH222957   0.735   5.573   4.120
 7671TIP3    H122958   0.664   5.509   4.121
 7671TIP3    H222959   0.794   5.544   4.190
 7672TIP3   OH222960   7.796   7.256   0.336
 7672TIP3    H122961   7.786   7.203   0.257
 7672TIP3    H222962   7.712   7.301   0.346
 7673TIP3   OH222963   5.256   5.663   5.528
 7673TIP3    H122964   5.257   5.687   5.621
 7673TIP3    H222965   5.313   5.726   5.486
 7674TIP3   OH222966   5.690   5.584   3.223
 7674TIP3    H122967   5.711   5.546   3.308
 7674TIP3    H222968   5.741   5.665   3.219
 7675TIP3   OH222969   3.182   5.373   2.744
 7675TIP3    H122970   3.110   5.435   2.753
 7675TIP3    H222971   3.197   5.339   2.832
 7676TIP3   OH222972   6.531   0.890   6.474
 7676TIP3    H122973   6.587   0.857   6.403
 7676TIP3    H222974   6.572   0.973   6.500
 7677TIP3   OH222975   1.533   2.450   1.725
 7677TIP3    H122976   1.571   2.409   1.647
 7677TIP3    H222977   1.496   2.377   1.775
 7678TIP3   OH222978   0.095   7.350   4.792
 7678TIP3    H122979   0.175   7.337   4.844
 7678TIP3    H222980   0.069   7.440   4.812
 7679TIP3   OH222981   1.605   5.732  -0.014
 7679TIP3    H122982   1.590   5.821   0.018
 7679TIP3    H222983   1.554   5.677   0.046
 7680TIP3   OH222984   4.311   2.754   3.289
 7680TIP3    H122985   4.396   2.791   3.311
 7680TIP3    H222986   4.325   2.659   3.286
 7681TIP3   OH222987   0.375   3.712   5.681
 7681TIP3    H122988   0.415   3.636   5.722
 7681TIP3    H222989   0.292   3.724   5.727
 7682TIP3   OH222990   4.654   1.433   1.845
 7682TIP3    H122991   4.748   1.448   1.840
 7682TIP3    H222992   4.615   1.520   1.841
 7683TIP3   OH222993   6.772   2.027   6.367
 7683TIP3    H122994   6.717   1.950   6.368
 7683TIP3    H222995   6.857   1.996   6.400
 7684TIP3   OH222996   0.722   5.738   0.837
 7684TIP3    H122997   0.630   5.732   0.864
 7684TIP3    H222998   0.767   5.672   0.889
 7685TIP3   OH222999   0.721   6.684   0.412
 7685TIP3    H123000   0.633   6.723   0.408
 7685TIP3    H223001   0.706   6.590   0.404
 7686TIP3   OH223002   2.831   6.651   3.794
 7686TIP3    H123003   2.845   6.681   3.883
 7686TIP3    H223004   2.892   6.578   3.784
 7687TIP3   OH223005   0.514   1.895   1.127
 7687TIP3    H123006   0.483   1.844   1.052
 7687TIP3    H223007   0.525   1.829   1.197
 7688TIP3   OH223008   7.631   6.255   5.719
 7688TIP3    H123009   7.628   6.274   5.813
 7688TIP3    H223010   7.606   6.163   5.712
 7689TIP3   OH223011   1.400   7.842   4.703
 7689TIP3    H123012   1.376   7.751   4.685
 7689TIP3    H223013   1.318   7.884   4.729
 7690TIP3   OH223014   7.987   5.148   3.012
 7690TIP3    H123015   8.039   5.069   2.995
 7690TIP3    H223016   8.001   5.166   3.105
 7691TIP3   OH223017   7.778   4.189   0.359
 7691TIP3    H123018   7.802   4.276   0.326
 7691TIP3    H223019   7.862   4.144   0.370
 7692TIP3   OH223020   7.877   6.798   3.615
 7692TIP3    H123021   7.895   6.871   3.675
 7692TIP3    H223022   7.836   6.840   3.539
 7693TIP3   OH223023   1.498   2.648   0.665
 7693TIP3    H123024   1.506   2.596   0.585
 7693TIP3    H223025   1.584   2.640   0.707
 7694TIP3   OH223026   1.798   5.670   2.486
 7694TIP3    H123027   1.839   5.664   2.400
 7694TIP3    H223028   1.864   5.637   2.547
 7695TIP3   OH223029   3.286   4.243   5.539
 7695TIP3    H123030   3.320   4.329   5.515
 7695TIP3    H223031   3.309   4.232   5.631
 7696TIP3   OH223032   6.741   3.610   0.226
 7696TIP3    H123033   6.739   3.519   0.196
 7696TIP3    H223034   6.655   3.645   0.205
 7697TIP3   OH223035   5.112   4.811   0.469
 7697TIP3    H123036   5.077   4.823   0.556
 7697TIP3    H223037   5.201   4.778   0.483
 7698TIP3   OH223038   5.416   4.275   3.009
 7698TIP3    H123039   5.478   4.280   3.081
 7698TIP3    H223040   5.339   4.323   3.040
 7699TIP3   OH223041   0.884   3.209   2.804
 7699TIP3    H123042   0.818   3.158   2.851
 7699TIP3    H223043   0.844   3.294   2.791
 7700TIP3   OH223044   2.796   0.086   4.877
 7700TIP3    H123045   2.790  -0.001   4.837
 7700TIP3    H223046   2.863   0.132   4.825
 7701TIP3   OH223047   7.553   1.434   5.804
 7701TIP3    H123048   7.489   1.383   5.753
 7701TIP3    H223049   7.554   1.520   5.762
 7702TIP3   OH223050   0.708   3.312   6.515
 7702TIP3    H123051   0.617   3.288   6.496
 7702TIP3    H223052   0.707   3.342   6.606
 7703TIP3   OH223053   6.058   7.389   6.311
 7703TIP3    H123054   5.975   7.373   6.266
 7703TIP3    H223055   6.040   7.364   6.402
 7704TIP3   OH223056   6.268   0.919   6.496
 7704TIP3    H123057   6.356   0.891   6.472
 7704TIP3    H223058   6.210   0.856   6.451
 7705TIP3   OH223059   2.644   5.392   5.359
 7705TIP3    H123060   2.554   5.360   5.362
 7705TIP3    H223061   2.690   5.340   5.425
 7706TIP3   OH223062   3.877   0.773   1.769
 7706TIP3    H123063   3.956   0.740   1.727
 7706TIP3    H223064   3.891   0.867   1.778
 7707TIP3   OH223065   5.348   4.748   1.691
 7707TIP3    H123066   5.305   4.739   1.777
 7707TIP3    H223067   5.441   4.741   1.711
 7708TIP3   OH223068   1.739   0.633   4.101
 7708TIP3    H123069   1.644   0.632   4.117
 7708TIP3    H223070   1.766   0.723   4.122
 7709TIP3   OH223071   7.722   0.524   1.360
 7709TIP3    H123072   7.662   0.594   1.386
 7709TIP3    H223073   7.680   0.444   1.392
 7710TIP3   OH223074   7.170   4.223   4.188
 7710TIP3    H123075   7.197   4.313   4.169
 7710TIP3    H223076   7.098   4.206   4.128
 7711TIP3   OH223077   6.940   1.751   4.112
 7711TIP3    H123078   6.906   1.738   4.023
 7711TIP3    H223079   6.940   1.664   4.151
 7712TIP3   OH223080   0.636   1.872   5.908
 7712TIP3    H123081   0.673   1.841   5.990
 7712TIP3    H223082   0.686   1.951   5.887
 7713TIP3   OH223083   0.547   1.213   2.612
 7713TIP3    H123084   0.604   1.149   2.570
 7713TIP3    H223085   0.528   1.176   2.698
 7714TIP3   OH223086   1.974   4.131   2.989
 7714TIP3    H123087   2.059   4.152   2.950
 7714TIP3    H223088   1.986   4.043   3.026
 7715TIP3   OH223089   3.299   3.012   4.355
 7715TIP3    H123090   3.260   2.941   4.304
 7715TIP3    H223091   3.346   2.967   4.425
 7716TIP3   OH223092   1.916   4.835   4.707
 7716TIP3    H123093   1.883   4.847   4.618
 7716TIP3    H223094   2.010   4.826   4.697
 7717TIP3   OH223095   5.486   0.485   3.430
 7717TIP3    H123096   5.435   0.452   3.504
 7717TIP3    H223097   5.457   0.576   3.419
 7718TIP3   OH223098   2.291   4.343   6.720
 7718TIP3    H123099   2.381   4.313   6.707
 7718TIP3    H223100   2.240   4.263   6.735
 7719TIP3   OH223101   7.046   4.087   3.268
 7719TIP3    H123102   7.064   4.173   3.306
 7719TIP3    H223103   7.110   4.029   3.311
 7720TIP3   OH223104   7.610   2.922   2.979
 7720TIP3    H123105   7.662   2.946   3.056
 7720TIP3    H223106   7.661   2.854   2.935
 7721TIP3   OH223107   4.035   2.509   5.932
 7721TIP3    H123108   3.967   2.443   5.947
 7721TIP3    H223109   4.082   2.515   6.015
 7722TIP3   OH223110   5.487   4.955   2.887
 7722TIP3    H123111   5.571   4.990   2.913
 7722TIP3    H223112   5.507   4.891   2.819
 7723TIP3   OH223113   7.640   1.686   5.115
 7723TIP3    H123114   7.654   1.631   5.038
 7723TIP3    H223115   7.634   1.624   5.188
 7724TIP3   OH223116   2.172   3.728   0.960
 7724TIP3    H123117   2.232   3.701   0.890
 7724TIP3    H223118   2.226   3.782   1.017
 7725TIP3   OH223119   1.031   7.707   6.279
 7725TIP3    H123120   1.094   7.767   6.317
 7725TIP3    H223121   1.083   7.647   6.226
 7726TIP3   OH223122   7.771   2.548   1.001
 7726TIP3    H123123   7.778   2.634   0.960
 7726TIP3    H223124   7.822   2.556   1.081
 7727TIP3   OH223125   7.471   5.916   4.740
 7727TIP3    H123126   7.512   6.001   4.721
 7727TIP3    H223127   7.425   5.930   4.823
 7728TIP3   OH223128   2.529   2.865   1.948
 7728TIP3    H123129   2.463   2.899   2.009
 7728TIP3    H223130   2.603   2.841   2.005
 7729TIP3   OH223131   5.334   5.221   5.754
 7729TIP3    H123132   5.340   5.233   5.849
 7729TIP3    H223133   5.252   5.263   5.729
 7730TIP3   OH223134   0.870   5.210   6.184
 7730TIP3    H123135   0.843   5.176   6.099
 7730TIP3    H223136   0.962   5.232   6.173
 7731TIP3   OH223137   0.190   5.975   3.710
 7731TIP3    H123138   0.184   6.037   3.783
 7731TIP3    H223139   0.281   5.948   3.708
 7732TIP3   OH223140   3.089   3.999   3.254
 7732TIP3    H123141   3.130   4.079   3.289
 7732TIP3    H223142   3.008   3.990   3.303
 7733TIP3   OH223143   4.724   7.120   0.087
 7733TIP3    H123144   4.774   7.043   0.116
 7733TIP3    H223145   4.737   7.185   0.156
 7734TIP3   OH223146   7.692   3.195   0.831
 7734TIP3    H123147   7.770   3.243   0.806
 7734TIP3    H223148   7.724   3.126   0.889
 7735TIP3   OH223149   1.459   0.273   6.265
 7735TIP3    H123150   1.406   0.196   6.246
 7735TIP3    H223151   1.400   0.347   6.250
 7736TIP3   OH223152   4.377   5.812   5.459
 7736TIP3    H123153   4.378   5.721   5.431
 7736TIP3    H223154   4.376   5.808   5.555
 7737TIP3   OH223155   7.602   1.068   6.033
 7737TIP3    H123156   7.617   1.123   5.956
 7737TIP3    H223157   7.689   1.038   6.058
 7738TIP3   OH223158   7.968   6.457   2.398
 7738TIP3    H123159   8.001   6.400   2.467
 7738TIP3    H223160   7.878   6.430   2.384
 7739TIP3   OH223161   2.623   0.540   6.507
 7739TIP3    H123162   2.627   0.635   6.495
 7739TIP3    H223163   2.713   0.511   6.491
 7740TIP3   OH223164   4.128   5.254   2.084
 7740TIP3    H123165   4.034   5.240   2.071
 7740TIP3    H223166   4.159   5.173   2.124
 7741TIP3   OH223167   4.414   7.812   3.182
 7741TIP3    H123168   4.349   7.841   3.118
 7741TIP3    H223169   4.403   7.717   3.186
 7742TIP3   OH223170   0.595   0.760   0.261
 7742TIP3    H123171   0.630   0.680   0.303
 7742TIP3    H223172   0.583   0.821   0.334
 7743TIP3   OH223173   5.685   5.282   3.790
 7743TIP3    H123174   5.639   5.218   3.736
 7743TIP3    H223175   5.774   5.283   3.756
 7744TIP3   OH223176   5.722   4.751   2.140
 7744TIP3    H123177   5.629   4.732   2.127
 7744TIP3    H223178   5.752   4.685   2.202
 7745TIP3   OH223179   5.093   3.640   4.161
 7745TIP3    H123180   5.174   3.654   4.113
 7745TIP3    H223181   5.041   3.720   4.146
 7746TIP3   OH223182   7.833   5.915   6.159
 7746TIP3    H123183   7.855   5.891   6.069
 7746TIP3    H223184   7.850   5.836   6.209
 7747TIP3   OH223185   1.637   1.236   3.720
 7747TIP3    H123186   1.595   1.180   3.786
 7747TIP3    H223187   1.595   1.321   3.731
 7748TIP3   OH223188   1.637   7.577   0.239
 7748TIP3    H123189   1.679   7.494   0.259
 7748TIP3    H223190   1.613   7.614   0.324
 7749TIP3   OH223191   2.943   1.710   3.085
 7749TIP3    H123192   2.982   1.787   3.042
 7749TIP3    H223193   2.862   1.695   3.036
 7750TIP3   OH223194   1.391   0.958   5.193
 7750TIP3    H123195   1.322   0.946   5.127
 7750TIP3    H223196   1.356   0.918   5.272
 7751TIP3   OH223197   1.184   1.577   1.724
 7751TIP3    H123198   1.176   1.498   1.670
 7751TIP3    H223199   1.210   1.545   1.810
 7752TIP3   OH223200   0.241   6.874   1.738
 7752TIP3    H123201   0.336   6.866   1.752
 7752TIP3    H223202   0.229   6.964   1.708
 7753TIP3   OH223203   3.233   7.662   2.332
 7753TIP3    H123204   3.238   7.712   2.414
 7753TIP3    H223205   3.284   7.714   2.270
 7754TIP3   OH223206   2.734   3.939   5.729
 7754TIP3    H123207   2.742   4.003   5.657
 7754TIP3    H223208   2.742   3.992   5.808
 7755TIP3   OH223209   3.297   2.030   1.434
 7755TIP3    H123210   3.283   1.940   1.462
 7755TIP3    H223211   3.386   2.030   1.398
 7756TIP3   OH223212  -0.002   4.878   5.385
 7756TIP3    H123213   0.085   4.911   5.407
 7756TIP3    H223214   0.014   4.812   5.317
 7757TIP3   OH223215   5.553   1.945   4.961
 7757TIP3    H123216   5.460   1.956   4.942
 7757TIP3    H223217   5.598   1.975   4.882
 7758TIP3   OH223218   8.087   4.621   0.041
 7758TIP3    H123219   8.001   4.659   0.024
 7758TIP3    H223220   8.069   4.546   0.098
 7759TIP3   OH223221   3.154   7.115   1.318
 7759TIP3    H123222   3.170   7.026   1.351
 7759TIP3    H223223   3.227   7.166   1.351
 7760TIP3   OH223224   0.600   4.950   1.272
 7760TIP3    H123225   0.582   4.995   1.189
 7760TIP3    H223226   0.527   4.889   1.283
 7761TIP3   OH223227   1.615   3.272   5.284
 7761TIP3    H123228   1.553   3.213   5.327
 7761TIP3    H223229   1.693   3.218   5.268
 7762TIP3   OH223230   6.828   1.863   4.408
 7762TIP3    H123231   6.807   1.846   4.316
 7762TIP3    H223232   6.800   1.784   4.454
 7763TIP3   OH223233   3.553   1.338   5.244
 7763TIP3    H123234   3.569   1.408   5.307
 7763TIP3    H223235   3.459   1.345   5.225
 7764TIP3   OH223236   8.232   1.269   5.720
 7764TIP3    H123237   8.157   1.232   5.767
 7764TIP3    H223238   8.201   1.278   5.630
 7765TIP3   OH223239   1.333   7.262   2.592
 7765TIP3    H123240   1.391   7.251   2.516
 7765TIP3    H223241   1.330   7.175   2.632
 7766TIP3   OH223242   7.995   2.429   3.710
 7766TIP3    H123243   8.005   2.524   3.706
 7766TIP3    H223244   7.905   2.415   3.740
 7767TIP3   OH223245   0.794   7.600   4.649
 7767TIP3    H123246   0.733   7.666   4.618
 7767TIP3    H223247   0.749   7.559   4.723
 7768TIP3   OH223248   2.822   7.337   4.040
 7768TIP3    H123249   2.801   7.280   4.115
 7768TIP3    H223250   2.896   7.295   3.998
 7769TIP3   OH223251   0.024   0.361   2.704
 7769TIP3    H123252   0.098   0.379   2.763
 7769TIP3    H223253  -0.041   0.427   2.725
 7770TIP3   OH223254   8.033   0.879   4.948
 7770TIP3    H123255   8.090   0.804   4.929
 7770TIP3    H223256   7.948   0.852   4.913
 7771TIP3   OH223257   6.672   4.022   1.847
 7771TIP3    H123258   6.764   4.032   1.871
 7771TIP3    H223259   6.672   4.025   1.752
 7772TIP3   OH223260   2.900   7.049   2.522
 7772TIP3    H123261   2.855   6.971   2.555
 7772TIP3    H223262   2.980   7.015   2.482
 7773TIP3   OH223263   5.131   2.274   5.612
 7773TIP3    H123264   5.121   2.245   5.521
 7773TIP3    H223265   5.155   2.367   5.605
 7774TIP3   OH223266   3.239   0.026   0.667
 7774TIP3    H123267   3.265  -0.058   0.704
 7774TIP3    H223268   3.282   0.092   0.722
 7775TIP3   OH223269   5.916   5.866   5.114
 7775TIP3    H123270   5.982   5.858   5.183
 7775TIP3    H223271   5.965   5.892   5.037
 7776TIP3   OH223272   7.452   3.436   2.074
 7776TIP3    H123273   7.435   3.496   2.002
 7776TIP3    H223274   7.367   3.423   2.116
 7777TIP3   OH223275   3.580   7.882   5.687
 7777TIP3    H123276   3.581   7.916   5.597
 7777TIP3    H223277   3.666   7.843   5.699
 7778TIP3   OH223278   4.702   5.489   2.491
 7778TIP3    H123279   4.613   5.486   2.526
 7778TIP3    H223280   4.703   5.423   2.422
 7779TIP3   OH223281   5.875   4.245   2.448
 7779TIP3    H123282   5.785   4.247   2.415
 7779TIP3    H223283   5.923   4.305   2.390
 7780TIP3   OH223284   2.690   4.036   3.284
 7780TIP3    H123285   2.733   3.950   3.287
 7780TIP3    H223286   2.709   4.069   3.196
 7781TIP3   OH223287   6.312   0.687   6.180
 7781TIP3    H123288   6.325   0.593   6.174
 7781TIP3    H223289   6.229   0.697   6.228
 7782TIP3   OH223290   8.112   5.252   1.645
 7782TIP3    H123291   8.052   5.256   1.720
 7782TIP3    H223292   8.199   5.242   1.685
 7783TIP3   OH223293   4.557   3.936   4.952
 7783TIP3    H123294   4.494   3.981   5.007
 7783TIP3    H223295   4.599   3.872   5.010
 7784TIP3   OH223296   7.215   0.032   5.290
 7784TIP3    H123297   7.159  -0.013   5.354
 7784TIP3    H223298   7.290   0.062   5.341
 7785TIP3   OH223299   4.287   1.734   2.139
 7785TIP3    H123300   4.221   1.804   2.133
 7785TIP3    H223301   4.301   1.707   2.048
 7786TIP3   OH223302   1.849   3.756   1.632
 7786TIP3    H123303   1.768   3.713   1.662
 7786TIP3    H223304   1.917   3.690   1.644
 7787TIP3   OH223305   5.478   3.875   6.181
 7787TIP3    H123306   5.425   3.802   6.148
 7787TIP3    H223307   5.477   3.863   6.276
 7788TIP3   OH223308   4.166   1.468   2.578
 7788TIP3    H123309   4.140   1.376   2.576
 7788TIP3    H223310   4.092   1.515   2.540
 7789TIP3   OH223311   2.743   0.688   0.677
 7789TIP3    H123312   2.833   0.693   0.645
 7789TIP3    H223313   2.749   0.635   0.757
 7790TIP3   OH223314   1.648   2.882   0.446
 7790TIP3    H123315   1.728   2.835   0.426
 7790TIP3    H223316   1.629   2.861   0.538
 7791TIP3   OH223317   3.613   2.715   3.934
 7791TIP3    H123318   3.687   2.656   3.923
 7791TIP3    H223319   3.542   2.658   3.965
 7792TIP3   OH223320   0.382   1.239   5.185
 7792TIP3    H123321   0.333   1.169   5.142
 7792TIP3    H223322   0.365   1.227   5.279
 7793TIP3   OH223323   1.045   2.692   5.791
 7793TIP3    H123324   1.108   2.747   5.838
 7793TIP3    H223325   0.977   2.753   5.762
 7794TIP3   OH223326   3.384   6.696   2.382
 7794TIP3    H123327   3.466   6.669   2.424
 7794TIP3    H223328   3.377   6.790   2.399
 7795TIP3   OH223329   6.574   2.570   0.515
 7795TIP3    H123330   6.658   2.611   0.494
 7795TIP3    H223331   6.597   2.493   0.567
 7796TIP3   OH223332   7.007   2.613   1.446
 7796TIP3    H123333   7.094   2.646   1.468
 7796TIP3    H223334   6.955   2.692   1.430
 7797TIP3   OH223335   5.752   6.069   3.097
 7797TIP3    H123336   5.774   6.002   3.032
 7797TIP3    H223337   5.804   6.046   3.173
 7798TIP3   OH223338   4.142   4.068   2.035
 7798TIP3    H123339   4.104   3.989   2.070
 7798TIP3    H223340   4.157   4.124   2.111
 7799TIP3   OH223341   7.467   0.852   2.867
 7799TIP3    H123342   7.468   0.835   2.773
 7799TIP3    H223343   7.391   0.803   2.899
 7800TIP3   OH223344   0.831   7.081   0.185
 7800TIP3    H123345   0.850   7.026   0.261
 7800TIP3    H223346   0.856   7.170   0.213
 7801TIP3   OH223347   7.444   1.847   2.614
 7801TIP3    H123348   7.470   1.774   2.558
 7801TIP3    H223349   7.523   1.872   2.660
 7802TIP3   OH223350   3.443   3.970   0.072
 7802TIP3    H123351   3.407   3.990   0.159
 7802TIP3    H223352   3.492   4.048   0.048
 7803TIP3   OH223353   4.584   7.099   2.126
 7803TIP3    H123354   4.614   7.017   2.164
 7803TIP3    H223355   4.664   7.144   2.099
 7804TIP3   OH223356   4.711   2.888   6.771
 7804TIP3    H123357   4.658   2.965   6.751
 7804TIP3    H223358   4.710   2.838   6.689
 7805TIP3   OH223359   6.740   5.206   3.526
 7805TIP3    H123360   6.831   5.212   3.498
 7805TIP3    H223361   6.689   5.241   3.453
 7806TIP3   OH223362   5.829   7.650   3.480
 7806TIP3    H123363   5.771   7.709   3.530
 7806TIP3    H223364   5.916   7.665   3.517
 7807TIP3   OH223365   1.329   2.048   5.494
 7807TIP3    H123366   1.341   2.097   5.575
 7807TIP3    H223367   1.373   2.101   5.427
 7808TIP3   OH223368   3.207   7.272   3.752
 7808TIP3    H123369   3.270   7.208   3.785
 7808TIP3    H223370   3.240   7.296   3.665
 7809TIP3   OH223371   5.633   6.795   0.856
 7809TIP3    H123372   5.684   6.849   0.916
 7809TIP3    H223373   5.697   6.765   0.791
 7810TIP3   OH223374   0.181   4.292   3.561
 7810TIP3    H123375   0.166   4.373   3.609
 7810TIP3    H223376   0.186   4.224   3.629
 7811TIP3   OH223377   8.250   5.713   4.270
 7811TIP3    H123378   8.203   5.755   4.198
 7811TIP3    H223379   8.214   5.624   4.273
 7812TIP3   OH223380   4.567   2.953   3.101
 7812TIP3    H123381   4.539   2.866   3.129
 7812TIP3    H223382   4.535   2.960   3.011
 7813TIP3   OH223383   2.863   4.344   4.300
 7813TIP3    H123384   2.879   4.285   4.375
 7813TIP3    H223385   2.778   4.317   4.266
 7814TIP3   OH223386   3.342   4.436   0.545
 7814TIP3    H123387   3.345   4.345   0.515
 7814TIP3    H223388   3.389   4.435   0.628
 7815TIP3   OH223389   5.668   7.544   0.322
 7815TIP3    H123390   5.677   7.507   0.409
 7815TIP3    H223391   5.692   7.473   0.263
 7816TIP3   OH223392   5.470   0.828   2.470
 7816TIP3    H123393   5.544   0.768   2.486
 7816TIP3    H223394   5.393   0.774   2.482
 7817TIP3   OH223395   5.959   1.276   2.549
 7817TIP3    H123396   6.016   1.351   2.529
 7817TIP3    H223397   6.013   1.199   2.531
 7818TIP3   OH223398   1.741   1.217   1.523
 7818TIP3    H123399   1.713   1.167   1.600
 7818TIP3    H223400   1.817   1.169   1.491
 7819TIP3   OH223401   3.139   3.139   0.116
 7819TIP3    H123402   3.225   3.104   0.092
 7819TIP3    H223403   3.076   3.080   0.074
 7820TIP3   OH223404   8.042   4.097   4.066
 7820TIP3    H123405   8.061   4.177   4.115
 7820TIP3    H223406   8.050   4.122   3.974
 7821TIP3   OH223407   0.874   1.788   3.771
 7821TIP3    H123408   0.925   1.868   3.783
 7821TIP3    H223409   0.850   1.760   3.859
 7822TIP3   OH223410   5.588   3.673   0.966
 7822TIP3    H123411   5.511   3.617   0.957
 7822TIP3    H223412   5.658   3.623   0.923
 7823TIP3   OH223413   1.908   3.175   1.636
 7823TIP3    H123414   1.985   3.129   1.605
 7823TIP3    H223415   1.841   3.107   1.644
 7824TIP3   OH223416   6.495   1.025   2.516
 7824TIP3    H123417   6.545   1.070   2.448
 7824TIP3    H223418   6.518   0.933   2.507
 7825TIP3   OH223419   6.747   6.166   5.249
 7825TIP3    H123420   6.779   6.165   5.159
 7825TIP3    H223421   6.808   6.224   5.295
 7826TIP3   OH223422   1.686   3.972   1.678
 7826TIP3    H123423   1.746   3.913   1.634
 7826TIP3    H223424   1.661   3.925   1.758
 7827TIP3   OH223425   5.699   5.743   1.923
 7827TIP3    H123426   5.752   5.815   1.957
 7827TIP3    H223427   5.758   5.696   1.864
 7828TIP3   OH223428   6.736   6.993   1.415
 7828TIP3    H123429   6.778   7.073   1.448
 7828TIP3    H223430   6.689   7.022   1.337
 7829TIP3   OH223431   6.646   3.424   6.269
 7829TIP3    H123432   6.662   3.504   6.219
 7829TIP3    H223433   6.571   3.383   6.226
 7830TIP3   OH223434   0.350   5.757   5.639
 7830TIP3    H123435   0.433   5.710   5.637
 7830TIP3    H223436   0.316   5.742   5.727
 7831TIP3   OH223437   3.864   2.740   6.727
 7831TIP3    H123438   3.870   2.670   6.662
 7831TIP3    H223439   3.797   2.799   6.692
 7832TIP3   OH223440   3.234   5.409   5.647
 7832TIP3    H123441   3.274   5.494   5.667
 7832TIP3    H223442   3.156   5.406   5.702
 7833TIP3   OH223443   5.670   6.140   4.925
 7833TIP3    H123444   5.684   6.046   4.911
 7833TIP3    H223445   5.629   6.146   5.011
 7834TIP3   OH223446   7.135   3.562   4.907
 7834TIP3    H123447   7.228   3.578   4.898
 7834TIP3    H223448   7.128   3.467   4.920
 7835TIP3   OH223449   4.608   5.772   1.384
 7835TIP3    H123450   4.571   5.741   1.302
 7835TIP3    H223451   4.696   5.735   1.386
 7836TIP3   OH223452   3.436   5.174   3.665
 7836TIP3    H123453   3.373   5.194   3.596
 7836TIP3    H223454   3.426   5.081   3.681
 7837TIP3   OH223455   3.181   4.132   4.188
 7837TIP3    H123456   3.111   4.074   4.157
 7837TIP3    H223457   3.187   4.116   4.282
 7838TIP3   OH223458   4.701   7.016   5.737
 7838TIP3    H123459   4.790   7.036   5.764
 7838TIP3    H223460   4.660   6.978   5.815
 7839TIP3   OH223461   7.141   5.303   5.007
 7839TIP3    H123462   7.052   5.308   5.043
 7839TIP3    H223463   7.143   5.221   4.958
 7840TIP3   OH223464   0.258   5.413   6.608
 7840TIP3    H123465   0.174   5.407   6.561
 7840TIP3    H223466   0.241   5.477   6.678
 7841TIP3   OH223467   5.423   7.383   4.930
 7841TIP3    H123468   5.492   7.443   4.901
 7841TIP3    H223469   5.399   7.334   4.851
 7842TIP3   OH223470   2.214   4.799   1.523
 7842TIP3    H123471   2.285   4.736   1.532
 7842TIP3    H223472   2.249   4.866   1.463
 7843TIP3   OH223473   6.524   2.874   1.872
 7843TIP3    H123474   6.603   2.888   1.924
 7843TIP3    H223475   6.556   2.834   1.791
 7844TIP3   OH223476   6.658   5.959   6.229
 7844TIP3    H123477   6.570   5.974   6.264
 7844TIP3    H223478   6.696   5.894   6.288
 7845TIP3   OH223479   6.996   1.061   3.158
 7845TIP3    H123480   6.912   1.018   3.174
 7845TIP3    H223481   7.007   1.121   3.232
 7846TIP3   OH223482   4.165   7.776   5.383
 7846TIP3    H123483   4.095   7.772   5.449
 7846TIP3    H223484   4.162   7.691   5.340
 7847TIP3   OH223485   2.049   2.295   4.565
 7847TIP3    H123486   2.127   2.241   4.577
 7847TIP3    H223487   2.076   2.364   4.504
 7848TIP3   OH223488   8.081   3.147   6.456
 7848TIP3    H123489   8.146   3.188   6.398
 7848TIP3    H223490   8.096   3.187   6.541
 7849TIP3   OH223491   3.121   2.712   2.780
 7849TIP3    H123492   3.035   2.753   2.789
 7849TIP3    H223493   3.103   2.627   2.741
 7850TIP3   OH223494   4.908   7.634   2.664
 7850TIP3    H123495   4.958   7.639   2.583
 7850TIP3    H223496   4.853   7.712   2.664
 7851TIP3   OH223497   0.328   6.490   1.623
 7851TIP3    H123498   0.372   6.488   1.538
 7851TIP3    H223499   0.399   6.481   1.687
 7852TIP3   OH223500   6.889   1.232   6.051
 7852TIP3    H123501   6.947   1.232   5.975
 7852TIP3    H223502   6.927   1.298   6.110
 7853TIP3   OH223503   6.867   0.615   1.779
 7853TIP3    H123504   6.847   0.577   1.694
 7853TIP3    H223505   6.936   0.679   1.761
 7854TIP3   OH223506   6.389   1.362   2.423
 7854TIP3    H123507   6.434   1.415   2.357
 7854TIP3    H223508   6.299   1.355   2.391
 7855TIP3   OH223509   8.022   0.454   5.472
 7855TIP3    H123510   8.015   0.451   5.377
 7855TIP3    H223511   7.932   0.465   5.502
 7856TIP3   OH223512   1.748   2.471   4.004
 7856TIP3    H123513   1.734   2.562   4.030
 7856TIP3    H223514   1.659   2.437   3.989
 7857TIP3   OH223515   5.143   2.145   1.690
 7857TIP3    H123516   5.086   2.213   1.727
 7857TIP3    H223517   5.185   2.105   1.766
 7858TIP3   OH223518   3.495   6.404   6.543
 7858TIP3    H123519   3.446   6.446   6.472
 7858TIP3    H223520   3.435   6.409   6.618
 7859TIP3   OH223521   5.083   3.312   5.289
 7859TIP3    H123522   5.172   3.312   5.324
 7859TIP3    H223523   5.081   3.239   5.227
 7860TIP3   OH223524   0.456   2.280   3.458
 7860TIP3    H123525   0.471   2.372   3.435
 7860TIP3    H223526   0.418   2.284   3.546
 7861TIP3   OH223527   4.173   7.676   6.635
 7861TIP3    H123528   4.109   7.642   6.697
 7861TIP3    H223529   4.131   7.665   6.549
 7862TIP3   OH223530   6.669   3.244   0.515
 7862TIP3    H123531   6.676   3.237   0.610
 7862TIP3    H223532   6.588   3.292   0.500
 7863TIP3   OH223533   7.741   3.826   4.577
 7863TIP3    H123534   7.822   3.868   4.607
 7863TIP3    H223535   7.754   3.733   4.597
 7864TIP3   OH223536   1.680   0.430   3.131
 7864TIP3    H123537   1.646   0.520   3.125
 7864TIP3    H223538   1.773   0.440   3.151
 7865TIP3   OH223539   6.455   7.173   2.300
 7865TIP3    H123540   6.387   7.239   2.298
 7865TIP3    H223541   6.445   7.130   2.385
 7866TIP3   OH223542   1.117   3.228   2.632
 7866TIP3    H123543   1.159   3.176   2.701
 7866TIP3    H223544   1.023   3.224   2.653
 7867TIP3   OH223545   7.821   4.418   5.842
 7867TIP3    H123546   7.835   4.511   5.826
 7867TIP3    H223547   7.795   4.412   5.934
 7868TIP3   OH223548   4.223   1.610   0.625
 7868TIP3    H123549   4.216   1.643   0.535
 7868TIP3    H223550   4.316   1.593   0.637
 7869TIP3   OH223551   4.781   3.938   0.618
 7869TIP3    H123552   4.862   3.893   0.593
 7869TIP3    H223553   4.715   3.869   0.620
 7870TIP3   OH223554   6.919   6.699   5.660
 7870TIP3    H123555   6.867   6.621   5.642
 7870TIP3    H223556   7.003   6.683   5.617
 7871TIP3   OH223557   7.976   3.684   3.736
 7871TIP3    H123558   7.970   3.602   3.687
 7871TIP3    H223559   8.060   3.723   3.710
 7872TIP3   OH223560   0.499   7.609   0.787
 7872TIP3    H123561   0.448   7.560   0.722
 7872TIP3    H223562   0.583   7.563   0.792
 7873TIP3   OH223563   6.008   6.179   6.232
 7873TIP3    H123564   6.015   6.085   6.212
 7873TIP3    H223565   5.995   6.182   6.327
 7874TIP3   OH223566   6.203   6.379   5.033
 7874TIP3    H123567   6.267   6.368   4.962
 7874TIP3    H223568   6.152   6.298   5.032
 7875TIP3   OH223569   2.338   3.682   0.729
 7875TIP3    H123570   2.342   3.587   0.733
 7875TIP3    H223571   2.430   3.710   0.734
 7876TIP3   OH223572   2.648   0.157   5.783
 7876TIP3    H123573   2.682   0.243   5.806
 7876TIP3    H223574   2.612   0.123   5.865
 7877TIP3   OH223575   2.744   1.115   4.824
 7877TIP3    H123576   2.676   1.181   4.834
 7877TIP3    H223577   2.793   1.143   4.746
 7878TIP3   OH223578   0.478   2.213   2.677
 7878TIP3    H123579   0.549   2.269   2.644
 7878TIP3    H223580   0.432   2.268   2.740
 7879TIP3   OH223581   5.212   6.329   2.799
 7879TIP3    H123582   5.175   6.404   2.846
 7879TIP3    H223583   5.303   6.324   2.828
 7880TIP3   OH223584   1.615   6.996   4.673
 7880TIP3    H123585   1.608   6.901   4.681
 7880TIP3    H223586   1.627   7.027   4.763
 7881TIP3   OH223587   5.359   5.291   4.286
 7881TIP3    H123588   5.337   5.374   4.329
 7881TIP3    H223589   5.440   5.310   4.239
 7882TIP3   OH223590   4.104   5.358   0.407
 7882TIP3    H123591   4.187   5.333   0.447
 7882TIP3    H223592   4.038   5.337   0.473
 7883TIP3   OH223593   1.605   1.261   5.874
 7883TIP3    H123594   1.630   1.281   5.964
 7883TIP3    H223595   1.585   1.167   5.874
 7884TIP3   OH223596   1.620   2.990   4.507
 7884TIP3    H123597   1.558   2.975   4.435
 7884TIP3    H223598   1.623   2.906   4.554
 7885TIP3   OH223599   0.408   3.683   2.317
 7885TIP3    H123600   0.469   3.615   2.289
 7885TIP3    H223601   0.333   3.674   2.257
 7886TIP3   OH223602   2.833   7.582   1.877
 7886TIP3    H123603   2.900   7.645   1.902
 7886TIP3    H223604   2.852   7.559   1.786
 7887TIP3   OH223605   0.059   0.983   4.590
 7887TIP3    H123606  -0.030   0.969   4.558
 7887TIP3    H223607   0.114   0.932   4.531
 7888TIP3   OH223608   7.413   0.287   5.087
 7888TIP3    H123609   7.435   0.313   5.177
 7888TIP3    H223610   7.319   0.304   5.080
 7889TIP3   OH223611   8.003   3.640   1.356
 7889TIP3    H123612   7.940   3.570   1.374
 7889TIP3    H223613   8.038   3.619   1.270
 7890TIP3   OH223614   5.845   4.280   2.020
 7890TIP3    H123615   5.864   4.192   2.053
 7890TIP3    H223616   5.931   4.314   1.992
 7891TIP3   OH223617   1.384   3.367   0.181
 7891TIP3    H123618   1.439   3.356   0.104
 7891TIP3    H223619   1.403   3.290   0.235
 7892TIP3   OH223620   2.397   7.599   2.912
 7892TIP3    H123621   2.402   7.524   2.854
 7892TIP3    H223622   2.487   7.614   2.941
 7893TIP3   OH223623   2.053   3.785   1.373
 7893TIP3    H123624   1.962   3.783   1.405
 7893TIP3    H223625   2.066   3.698   1.335
 7894TIP3   OH223626   5.472   7.323   5.575
 7894TIP3    H123627   5.385   7.294   5.601
 7894TIP3    H223628   5.511   7.246   5.533
 7895TIP3   OH223629   3.399   3.541   4.989
 7895TIP3    H123630   3.442   3.613   4.943
 7895TIP3    H223631   3.416   3.557   5.082
 7896TIP3   OH223632   0.759   1.511   3.192
 7896TIP3    H123633   0.768   1.446   3.122
 7896TIP3    H223634   0.736   1.592   3.146
 7897TIP3   OH223635   1.307   7.021   0.721
 7897TIP3    H123636   1.364   7.004   0.796
 7897TIP3    H223637   1.254   6.941   0.713
 7898TIP3   OH223638   8.267   7.350   5.360
 7898TIP3    H123639   8.224   7.265   5.347
 7898TIP3    H223640   8.255   7.368   5.453
 7899TIP3   OH223641   2.391   2.428   4.137
 7899TIP3    H123642   2.471   2.382   4.115
 7899TIP3    H223643   2.326   2.359   4.150
 7900TIP3   OH223644   0.407   6.081   2.512
 7900TIP3    H123645   0.405   5.992   2.476
 7900TIP3    H223646   0.342   6.079   2.583
 7901TIP3   OH223647   7.991   7.797   3.227
 7901TIP3    H123648   7.906   7.792   3.183
 7901TIP3    H223649   7.970   7.823   3.317
 7902TIP3   OH223650   5.788   1.661   0.955
 7902TIP3    H123651   5.704   1.705   0.941
 7902TIP3    H223652   5.764   1.568   0.966
 7903TIP3   OH223653   3.009   5.460   5.825
 7903TIP3    H123654   3.021   5.524   5.754
 7903TIP3    H223655   3.013   5.512   5.905
 7904TIP3   OH223656   5.650   6.580   2.381
 7904TIP3    H123657   5.636   6.595   2.474
 7904TIP3    H223658   5.674   6.488   2.374
 7905TIP3   OH223659   6.160   3.830   1.201
 7905TIP3    H123660   6.136   3.911   1.246
 7905TIP3    H223661   6.209   3.780   1.266
 7906TIP3   OH223662   2.610   0.887   5.530
 7906TIP3    H123663   2.690   0.931   5.559
 7906TIP3    H223664   2.624   0.795   5.552
 7907TIP3   OH223665   6.083   5.846   2.742
 7907TIP3    H123666   6.070   5.858   2.648
 7907TIP3    H223667   6.178   5.849   2.754
 7908TIP3   OH223668   5.242   0.224   3.101
 7908TIP3    H123669   5.306   0.288   3.129
 7908TIP3    H223670   5.265   0.204   3.010
 7909TIP3   OH223671   4.973   5.124   2.919
 7909TIP3    H123672   4.962   5.214   2.891
 7909TIP3    H223673   5.052   5.094   2.874
 7910TIP3   OH223674   6.269   0.088   1.189
 7910TIP3    H123675   6.239   0.050   1.106
 7910TIP3    H223676   6.216   0.167   1.199
 7911TIP3   OH223677   7.172   6.639   5.570
 7911TIP3    H123678   7.248   6.691   5.595
 7911TIP3    H223679   7.185   6.620   5.477
 7912TIP3   OH223680   8.149   0.653   4.839
 7912TIP3    H123681   8.236   0.693   4.831
 7912TIP3    H223682   8.162   0.562   4.813
 7913TIP3   OH223683   4.524   4.958   6.240
 7913TIP3    H123684   4.613   4.973   6.209
 7913TIP3    H223685   4.473   5.030   6.202
 7914TIP3   OH223686   4.616   6.972   3.259
 7914TIP3    H123687   4.550   7.012   3.202
 7914TIP3    H223688   4.579   6.887   3.282
 7915TIP3   OH223689   0.472   2.215   5.364
 7915TIP3    H123690   0.527   2.269   5.420
 7915TIP3    H223691   0.491   2.125   5.390
 7916TIP3   OH223692   4.299   4.342   4.099
 7916TIP3    H123693   4.315   4.341   4.193
 7916TIP3    H223694   4.384   4.322   4.060
 7917TIP3   OH223695   6.940   1.166   6.761
 7917TIP3    H123696   6.975   1.173   6.673
 7917TIP3    H223697   6.998   1.103   6.805
 7918TIP3   OH223698   2.434   2.211   2.758
 7918TIP3    H123699   2.413   2.301   2.784
 7918TIP3    H223700   2.359   2.160   2.788
 7919TIP3   OH223701   3.205   0.943   4.299
 7919TIP3    H123702   3.300   0.942   4.303
 7919TIP3    H223703   3.182   1.032   4.272
 7920TIP3   OH223704   1.764   0.314   1.610
 7920TIP3    H123705   1.828   0.281   1.673
 7920TIP3    H223706   1.697   0.246   1.606
 7921TIP3   OH223707   2.662   7.020   2.194
 7921TIP3    H123708   2.587   6.987   2.243
 7921TIP3    H223709   2.635   7.014   2.102
 7922TIP3   OH223710   5.696   2.998   1.461
 7922TIP3    H123711   5.785   3.033   1.469
 7922TIP3    H223712   5.641   3.063   1.505
 7923TIP3   OH223713   5.142   1.109   3.066
 7923TIP3    H123714   5.064   1.121   3.120
 7923TIP3    H223715   5.110   1.074   2.984
 7924TIP3   OH223716   1.300   6.990   6.529
 7924TIP3    H123717   1.237   6.955   6.466
 7924TIP3    H223718   1.273   6.952   6.613
 7925TIP3   OH223719   7.248   7.713   2.251
 7925TIP3    H123720   7.255   7.638   2.311
 7925TIP3    H223721   7.258   7.790   2.307
 7926TIP3   OH223722   5.549   4.727   2.738
 7926TIP3    H123723   5.530   4.666   2.809
 7926TIP3    H223724   5.598   4.675   2.674
 7927TIP3   OH223725   3.090   3.290   3.542
 7927TIP3    H123726   3.141   3.360   3.501
 7927TIP3    H223727   3.132   3.209   3.514
 7928TIP3   OH223728   5.375   5.394   3.857
 7928TIP3    H123729   5.318   5.327   3.894
 7928TIP3    H223730   5.453   5.392   3.914
 7929TIP3   OH223731   2.144   7.427   4.403
 7929TIP3    H123732   2.072   7.449   4.344
 7929TIP3    H223733   2.205   7.500   4.396
 7930TIP3   OH223734   3.323   2.842   3.358
 7930TIP3    H123735   3.251   2.816   3.300
 7930TIP3    H223736   3.328   2.772   3.423
 7931TIP3   OH223737   3.871   3.177   0.400
 7931TIP3    H123738   3.874   3.173   0.305
 7931TIP3    H223739   3.962   3.164   0.428
 7932TIP3   OH223740   2.010   1.803   0.956
 7932TIP3    H123741   2.098   1.804   0.995
 7932TIP3    H223742   1.978   1.714   0.973
 7933TIP3   OH223743   7.091   6.520   2.493
 7933TIP3    H123744   7.010   6.540   2.540
 7933TIP3    H223745   7.122   6.439   2.533
 7934TIP3   OH223746   7.302   6.385   0.613
 7934TIP3    H123747   7.355   6.453   0.572
 7934TIP3    H223748   7.264   6.337   0.539
 7935TIP3   OH223749   1.355   5.630   4.916
 7935TIP3    H123750   1.315   5.604   4.833
 7935TIP3    H223751   1.363   5.548   4.965
 7936TIP3   OH223752   7.437   7.761   1.545
 7936TIP3    H123753   7.454   7.671   1.519
 7936TIP3    H223754   7.471   7.768   1.634
 7937TIP3   OH223755   5.892   2.206   0.652
 7937TIP3    H123756   5.964   2.204   0.589
 7937TIP3    H223757   5.896   2.121   0.696
 7938TIP3   OH223758   5.057   5.685   4.964
 7938TIP3    H123759   4.989   5.664   5.028
 7938TIP3    H223760   5.016   5.669   4.879
 7939TIP3   OH223761   3.725   6.136   2.039
 7939TIP3    H123762   3.669   6.150   2.116
 7939TIP3    H223763   3.764   6.050   2.053
 7940TIP3   OH223764   7.896   6.161   0.406
 7940TIP3    H123765   7.965   6.108   0.445
 7940TIP3    H223766   7.830   6.098   0.376
 7941TIP3   OH223767   4.893   7.274   5.020
 7941TIP3    H123768   4.884   7.299   4.928
 7941TIP3    H223769   4.825   7.323   5.065
 7942TIP3   OH223770   0.901   1.997   1.180
 7942TIP3    H123771   0.830   2.026   1.122
 7942TIP3    H223772   0.981   2.011   1.130
 7943TIP3   OH223773   6.451   5.090   2.007
 7943TIP3    H123774   6.394   5.096   2.084
 7943TIP3    H223775   6.411   5.024   1.952
 7944TIP3   OH223776   3.171   4.701   4.189
 7944TIP3    H123777   3.160   4.795   4.182
 7944TIP3    H223778   3.093   4.670   4.235
 7945TIP3   OH223779   2.463   1.122   6.602
 7945TIP3    H123780   2.370   1.143   6.601
 7945TIP3    H223781   2.479   1.085   6.689
 7946TIP3   OH223782   3.918   7.751   5.130
 7946TIP3    H123783   4.014   7.747   5.123
 7946TIP3    H223784   3.898   7.710   5.214
 7947TIP3   OH223785   3.959   1.964   2.315
 7947TIP3    H123786   4.031   1.957   2.377
 7947TIP3    H223787   4.001   1.971   2.230
 7948TIP3   OH223788   7.390   1.589   4.915
 7948TIP3    H123789   7.485   1.586   4.902
 7948TIP3    H223790   7.354   1.545   4.837
 7949TIP3   OH223791   3.387   0.497   4.493
 7949TIP3    H123792   3.351   0.484   4.581
 7949TIP3    H223793   3.446   0.573   4.503
 7950TIP3   OH223794   2.796   3.369   1.924
 7950TIP3    H123795   2.834   3.393   1.839
 7950TIP3    H223796   2.751   3.286   1.907
 7951TIP3   OH223797   6.165   5.303   2.966
 7951TIP3    H123798   6.124   5.217   2.975
 7951TIP3    H223799   6.108   5.351   2.907
 7952TIP3   OH223800   4.161   2.384   0.517
 7952TIP3    H123801   4.066   2.392   0.532
 7952TIP3    H223802   4.200   2.437   0.586
 7953TIP3   OH223803   0.352   6.350   2.473
 7953TIP3    H123804   0.275   6.386   2.518
 7953TIP3    H223805   0.381   6.278   2.529
 7954TIP3   OH223806   7.510   7.391   0.931
 7954TIP3    H123807   7.568   7.347   0.993
 7954TIP3    H223808   7.549   7.374   0.845
 7955TIP3   OH223809   4.578   0.198   2.882
 7955TIP3    H123810   4.573   0.168   2.973
 7955TIP3    H223811   4.496   0.169   2.843
 7956TIP3   OH223812   2.822   2.510   3.718
 7956TIP3    H123813   2.763   2.455   3.667
 7956TIP3    H223814   2.804   2.486   3.809
 7957TIP3   OH223815   2.502   2.257   6.610
 7957TIP3    H123816   2.595   2.278   6.616
 7957TIP3    H223817   2.476   2.235   6.700
 7958TIP3   OH223818   2.228   6.382   6.398
 7958TIP3    H123819   2.200   6.415   6.312
 7958TIP3    H223820   2.315   6.345   6.382
 7959TIP3   OH223821   6.562   1.830   3.743
 7959TIP3    H123822   6.642   1.874   3.715
 7959TIP3    H223823   6.493   1.896   3.730
 7960TIP3   OH223824   2.397   4.643   2.095
 7960TIP3    H123825   2.367   4.572   2.153
 7960TIP3    H223826   2.320   4.662   2.040
 7961TIP3   OH223827   2.741   4.808   4.976
 7961TIP3    H123828   2.821   4.777   5.018
 7961TIP3    H223829   2.765   4.825   4.886
 7962TIP3   OH223830   5.772   4.160   2.918
 7962TIP3    H123831   5.704   4.092   2.928
 7962TIP3    H223832   5.839   4.118   2.864
 7963TIP3   OH223833   1.029   2.295   0.670
 7963TIP3    H123834   1.044   2.387   0.652
 7963TIP3    H223835   1.064   2.249   0.593
 7964TIP3   OH223836   2.329   0.986   5.135
 7964TIP3    H123837   2.384   1.039   5.078
 7964TIP3    H223838   2.291   1.049   5.197
 7965TIP3   OH223839   5.185   4.169   5.879
 7965TIP3    H123840   5.224   4.176   5.966
 7965TIP3    H223841   5.213   4.248   5.833
 7966TIP3   OH223842   7.310   3.469   1.681
 7966TIP3    H123843   7.332   3.555   1.716
 7966TIP3    H223844   7.233   3.441   1.731
 7967TIP3   OH223845   0.608   2.362   4.957
 7967TIP3    H123846   0.619   2.310   5.037
 7967TIP3    H223847   0.679   2.333   4.900
 7968TIP3   OH223848   3.008   2.877   3.524
 7968TIP3    H123849   3.027   2.965   3.491
 7968TIP3    H223850   3.083   2.855   3.579
 7969TIP3   OH223851   6.306   5.320   4.661
 7969TIP3    H123852   6.324   5.336   4.754
 7969TIP3    H223853   6.376   5.260   4.633
 7970TIP3   OH223854   6.570   2.102   4.767
 7970TIP3    H123855   6.590   2.070   4.855
 7970TIP3    H223856   6.538   2.025   4.720
 7971TIP3   OH223857   6.540   2.726   1.614
 7971TIP3    H123858   6.509   2.654   1.668
 7971TIP3    H223859   6.605   2.686   1.556
 7972TIP3   OH223860   2.451   1.444   0.604
 7972TIP3    H123861   2.411   1.430   0.518
 7972TIP3    H223862   2.544   1.459   0.585
 7973TIP3   OH223863   1.638   7.253   2.899
 7973TIP3    H123864   1.701   7.248   2.971
 7973TIP3    H223865   1.566   7.305   2.934
 7974TIP3   OH223866   2.789   5.204   4.650
 7974TIP3    H123867   2.808   5.267   4.580
 7974TIP3    H223868   2.850   5.132   4.634
 7975TIP3   OH223869   6.109   5.181   1.078
 7975TIP3    H123870   6.037   5.182   1.141
 7975TIP3    H223871   6.181   5.138   1.125
 7976TIP3   OH223872   7.422   0.556   1.790
 7976TIP3    H123873   7.380   0.630   1.834
 7976TIP3    H223874   7.365   0.536   1.716
 7977TIP3   OH223875   7.019   4.845   2.405
 7977TIP3    H123876   6.999   4.937   2.421
 7977TIP3    H223877   7.030   4.807   2.492
 7978TIP3   OH223878   5.147   1.251   3.473
 7978TIP3    H123879   5.129   1.158   3.486
 7978TIP3    H223880   5.112   1.294   3.552
 7979TIP3   OH223881   5.394   0.722   3.755
 7979TIP3    H123882   5.341   0.662   3.807
 7979TIP3    H223883   5.330   0.771   3.704
 7980TIP3   OH223884   6.612   3.323   1.550
 7980TIP3    H123885   6.669   3.292   1.621
 7980TIP3    H223886   6.613   3.418   1.559
 7981TIP3   OH223887   5.926   3.441   4.195
 7981TIP3    H123888   5.915   3.351   4.224
 7981TIP3    H223889   5.849   3.487   4.229
 7982TIP3   OH223890   7.920   2.091   1.569
 7982TIP3    H123891   7.990   2.075   1.506
 7982TIP3    H223892   7.965   2.101   1.653
 7983TIP3   OH223893   6.866   3.872   0.516
 7983TIP3    H123894   6.890   3.785   0.546
 7983TIP3    H223895   6.784   3.859   0.468
 7984TIP3   OH223896   5.728   6.861   4.163
 7984TIP3    H123897   5.803   6.919   4.177
 7984TIP3    H223898   5.763   6.773   4.179
 7985TIP3   OH223899   2.356   6.737   1.619
 7985TIP3    H123900   2.426   6.671   1.625
 7985TIP3    H223901   2.356   6.779   1.706
 7986TIP3   OH223902   7.547   1.989   1.025
 7986TIP3    H123903   7.490   1.956   0.954
 7986TIP3    H223904   7.525   1.934   1.100
 7987TIP3   OH223905   5.523   1.887   0.754
 7987TIP3    H123906   5.476   1.962   0.717
 7987TIP3    H223907   5.562   1.844   0.679
 7988TIP3   OH223908   1.000   0.773   5.829
 7988TIP3    H123909   0.961   0.703   5.881
 7988TIP3    H223910   0.941   0.783   5.754
 7989TIP3   OH223911  -0.016   5.570   6.113
 7989TIP3    H123912   0.074   5.555   6.142
 7989TIP3    H223913  -0.039   5.490   6.066
 7990TIP3   OH223914   6.586   4.834   0.562
 7990TIP3    H123915   6.491   4.823   0.567
 7990TIP3    H223916   6.600   4.894   0.489
 7991TIP3   OH223917   0.247   4.642   3.610
 7991TIP3    H123918   0.226   4.735   3.621
 7991TIP3    H223919   0.167   4.604   3.573
 7992TIP3   OH223920   5.965   7.562   4.723
 7992TIP3    H123921   6.024   7.619   4.673
 7992TIP3    H223922   5.983   7.474   4.689
 7993TIP3   OH223923   4.490   2.302   2.506
 7993TIP3    H123924   4.500   2.393   2.481
 7993TIP3    H223925   4.490   2.303   2.602
 7994TIP3   OH223926   3.089   6.110   4.815
 7994TIP3    H123927   3.048   6.158   4.742
 7994TIP3    H223928   3.139   6.040   4.773
 7995TIP3   OH223929   7.271   2.391   5.073
 7995TIP3    H123930   7.301   2.432   5.154
 7995TIP3    H223931   7.265   2.463   5.010
 7996TIP3   OH223932   4.919   3.440   2.500
 7996TIP3    H123933   4.871   3.490   2.565
 7996TIP3    H223934   4.995   3.406   2.548
 7997TIP3   OH223935   2.043   1.940   4.258
 7997TIP3    H123936   2.077   1.877   4.321
 7997TIP3    H223937   1.982   1.994   4.308
 7998TIP3   OH223938   4.172   0.213   2.780
 7998TIP3    H123939   4.228   0.247   2.850
 7998TIP3    H223940   4.116   0.148   2.822
 7999TIP3   OH223941   6.181   2.266   0.962
 7999TIP3    H123942   6.090   2.283   0.989
 7999TIP3    H223943   6.173   2.208   0.887
 8000TIP3   OH223944   4.065   6.851   5.807
 8000TIP3    H123945   4.087   6.761   5.830
 8000TIP3    H223946   4.071   6.900   5.889
 8001TIP3   OH223947   1.753   0.131   2.381
 8001TIP3    H123948   1.789   0.204   2.331
 8001TIP3    H223949   1.678   0.169   2.428
 8002TIP3   OH223950   4.542   0.691   4.540
 8002TIP3    H123951   4.586   0.772   4.565
 8002TIP3    H223952   4.511   0.654   4.622
 8003TIP3   OH223953   7.693   6.276   6.019
 8003TIP3    H123954   7.779   6.316   6.005
 8003TIP3    H223955   7.701   6.232   6.103
 8004TIP3   OH223956   7.628   3.882   3.341
 8004TIP3    H123957   7.647   3.794   3.372
 8004TIP3    H223958   7.532   3.889   3.344
 8005TIP3   OH223959   1.308   1.054   0.320
 8005TIP3    H123960   1.372   0.985   0.332
 8005TIP3    H223961   1.352   1.118   0.263
 8006TIP3   OH223962   1.645   1.014   5.043
 8006TIP3    H123963   1.711   1.047   5.105
 8006TIP3    H223964   1.571   0.990   5.099
 8007TIP3   OH223965   1.568   7.184   4.139
 8007TIP3    H123966   1.495   7.233   4.101
 8007TIP3    H223967   1.595   7.124   4.070
 8008TIP3   OH223968   1.301   6.717   3.805
 8008TIP3    H123969   1.368   6.773   3.767
 8008TIP3    H223970   1.283   6.755   3.891
 8009TIP3   OH223971   2.694   7.629   1.414
 8009TIP3    H123972   2.758   7.613   1.344
 8009TIP3    H223973   2.681   7.723   1.415
 8010TIP3   OH223974   7.641   1.513   5.353
 8010TIP3    H123975   7.713   1.468   5.398
 8010TIP3    H223976   7.567   1.454   5.360
 8011TIP3   OH223977   4.904   5.874   6.522
 8011TIP3    H123978   4.917   5.952   6.576
 8011TIP3    H223979   4.895   5.803   6.585
 8012TIP3   OH223980   2.360   6.448   1.834
 8012TIP3    H123981   2.419   6.378   1.863
 8012TIP3    H223982   2.287   6.444   1.896
 8013TIP3   OH223983   6.431   1.902   6.690
 8013TIP3    H123984   6.399   1.890   6.601
 8013TIP3    H223985   6.519   1.937   6.679
 8014TIP3   OH223986   5.887   4.615   6.634
 8014TIP3    H123987   5.826   4.689   6.635
 8014TIP3    H223988   5.844   4.547   6.686
 8015TIP3   OH223989   7.319   4.712   3.324
 8015TIP3    H123990   7.360   4.794   3.353
 8015TIP3    H223991   7.387   4.646   3.336
 8016TIP3   OH223992   3.591   2.902   2.944
 8016TIP3    H123993   3.638   2.919   3.025
 8016TIP3    H223994   3.595   2.806   2.934
 8017TIP3   OH223995   5.853   5.253   0.149
 8017TIP3    H123996   5.910   5.270   0.224
 8017TIP3    H223997   5.802   5.176   0.175
 8018TIP3   OH223998   1.976   0.424   3.179
 8018TIP3    H123999   1.995   0.484   3.251
 8018TIP3    H224000   2.031   0.347   3.196
 8019TIP3   OH224001   1.993   4.339   4.920
 8019TIP3    H124002   2.055   4.395   4.967
 8019TIP3    H224003   1.907   4.365   4.953
 8020TIP3   OH224004   4.105   2.261   4.188
 8020TIP3    H124005   4.092   2.261   4.094
 8020TIP3    H224006   4.118   2.169   4.211
 8021TIP3   OH224007   3.285   1.406   4.634
 8021TIP3    H124008   3.229   1.483   4.629
 8021TIP3    H224009   3.334   1.406   4.552
 8022TIP3   OH224010   5.369   0.831   4.531
 8022TIP3    H124011   5.440   0.894   4.523
 8022TIP3    H224012   5.383   0.788   4.616
 8023TIP3   OH224013   6.851   4.892   4.291
 8023TIP3    H124014   6.872   4.801   4.269
 8023TIP3    H224015   6.794   4.886   4.368
 8024TIP3   OH224016   5.537   4.886   1.219
 8024TIP3    H124017   5.460   4.829   1.213
 8024TIP3    H224018   5.608   4.832   1.186
 8025TIP3   OH224019   3.069   1.283   5.316
 8025TIP3    H124020   3.115   1.365   5.333
 8025TIP3    H224021   3.131   1.214   5.341
 8026TIP3   OH224022   1.571   4.354   2.909
 8026TIP3    H124023   1.544   4.445   2.922
 8026TIP3    H224024   1.647   4.343   2.965
 8027TIP3   OH224025   1.853   5.334   3.551
 8027TIP3    H124026   1.859   5.246   3.587
 8027TIP3    H224027   1.786   5.377   3.604
 8028TIP3   OH224028   1.421   3.107   0.028
 8028TIP3    H124029   1.345   3.123   0.084
 8028TIP3    H224030   1.491   3.083   0.088
 8029TIP3   OH224031   8.112   0.170   1.341
 8029TIP3    H124032   8.120   0.155   1.247
 8029TIP3    H224033   8.196   0.209   1.366
 8030TIP3   OH224034   7.284   0.748   3.436
 8030TIP3    H124035   7.340   0.820   3.466
 8030TIP3    H224036   7.212   0.745   3.500
 8031TIP3   OH224037   0.430   1.744   5.424
 8031TIP3    H124038   0.350   1.766   5.376
 8031TIP3    H224039   0.481   1.692   5.363
 8032TIP3   OH224040   8.113   2.555   2.798
 8032TIP3    H124041   8.111   2.538   2.892
 8032TIP3    H224042   8.071   2.478   2.759
 8033TIP3   OH224043   4.464   6.454   0.513
 8033TIP3    H124044   4.506   6.430   0.595
 8033TIP3    H224045   4.477   6.378   0.456
 8034TIP3   OH224046   5.178   0.630   6.203
 8034TIP3    H124047   5.100   0.590   6.243
 8034TIP3    H224048   5.176   0.600   6.112
 8035TIP3   OH224049   7.467   0.228   0.477
 8035TIP3    H124050   7.495   0.159   0.418
 8035TIP3    H224051   7.548   0.259   0.518
 8036TIP3   OH224052   7.312   6.194   0.129
 8036TIP3    H124053   7.225   6.231   0.109
 8036TIP3    H224054   7.300   6.099   0.123
 8037TIP3   OH224055   2.480   3.302   6.189
 8037TIP3    H124056   2.405   3.359   6.202
 8037TIP3    H224057   2.445   3.213   6.199
 8038TIP3   OH224058   2.886   5.265   0.602
 8038TIP3    H124059   2.917   5.292   0.515
 8038TIP3    H224060   2.860   5.173   0.591
 8039TIP3   OH224061   6.980   2.858   4.202
 8039TIP3    H124062   7.037   2.935   4.210
 8039TIP3    H224063   7.039   2.784   4.217
 8040TIP3   OH224064   7.646   2.915   1.488
 8040TIP3    H124065   7.694   2.897   1.407
 8040TIP3    H224066   7.627   2.829   1.525
 8041TIP3   OH224067   5.908   0.690   3.258
 8041TIP3    H124068   5.881   0.603   3.286
 8041TIP3    H224069   5.983   0.675   3.201
 8042TIP3   OH224070   2.178   1.652   3.309
 8042TIP3    H124071   2.238   1.719   3.278
 8042TIP3    H224072   2.092   1.680   3.277
 8043TIP3   OH224073   4.014   0.981   0.341
 8043TIP3    H124074   3.943   0.934   0.384
 8043TIP3    H224075   4.087   0.919   0.339
 8044TIP3   OH224076   1.749   2.806   1.321
 8044TIP3    H124077   1.691   2.767   1.255
 8044TIP3    H224078   1.818   2.848   1.269
 8045TIP3   OH224079   1.461   2.028   0.222
 8045TIP3    H124080   1.477   2.117   0.188
 8045TIP3    H224081   1.548   1.990   0.231
 8046TIP3   OH224082   4.797   0.404   4.029
 8046TIP3    H124083   4.831   0.410   4.119
 8046TIP3    H224084   4.702   0.415   4.039
 8047TIP3   OH224085   3.989   6.134   4.252
 8047TIP3    H124086   4.045   6.056   4.262
 8047TIP3    H224087   3.913   6.102   4.204
 8048TIP3   OH224088   4.621   6.967   1.617
 8048TIP3    H124089   4.589   7.048   1.657
 8048TIP3    H224090   4.704   6.992   1.577
 8049TIP3   OH224091   4.306   3.120   0.953
 8049TIP3    H124092   4.344   3.148   0.870
 8049TIP3    H224093   4.314   3.197   1.010
 8050TIP3   OH224094   7.725   2.899   4.914
 8050TIP3    H124095   7.736   2.929   5.004
 8050TIP3    H224096   7.644   2.941   4.885
 8051TIP3   OH224097   6.229   2.130   0.726
 8051TIP3    H124098   6.174   2.061   0.688
 8051TIP3    H224099   6.315   2.090   0.734
 8052TIP3   OH224100   0.482   2.885   2.415
 8052TIP3    H124101   0.441   2.894   2.501
 8052TIP3    H224102   0.569   2.851   2.434
 8053TIP3   OH224103   4.161   7.473   6.052
 8053TIP3    H124104   4.210   7.398   6.087
 8053TIP3    H224105   4.116   7.438   5.975
 8054TIP3   OH224106   6.060   6.310   5.684
 8054TIP3    H124107   6.012   6.233   5.656
 8054TIP3    H224108   5.993   6.375   5.702
 8055TIP3   OH224109   7.083   5.946   2.742
 8055TIP3    H124110   7.060   5.853   2.744
 8055TIP3    H224111   7.000   5.991   2.756
 8056TIP3   OH224112   5.058   3.498   1.712
 8056TIP3    H124113   5.028   3.589   1.706
 8056TIP3    H224114   4.980   3.449   1.736
 8057TIP3   OH224115   6.040   5.203   0.820
 8057TIP3    H124116   6.068   5.193   0.911
 8057TIP3    H224117   5.947   5.227   0.826
 8058TIP3   OH224118   5.048   1.231   1.002
 8058TIP3    H124119   5.095   1.227   1.085
 8058TIP3    H224120   5.116   1.244   0.936
 8059TIP3   OH224121   1.183   0.486   4.772
 8059TIP3    H124122   1.134   0.481   4.854
 8059TIP3    H224123   1.119   0.517   4.707
 8060TIP3   OH224124   5.927   1.252   4.357
 8060TIP3    H124125   5.835   1.277   4.364
 8060TIP3    H224126   5.962   1.309   4.288
 8061TIP3   OH224127   4.703   3.804   4.282
 8061TIP3    H124128   4.746   3.746   4.344
 8061TIP3    H224129   4.749   3.789   4.199
 8062TIP3   OH224130   4.710   3.117   6.372
 8062TIP3    H124131   4.735   3.056   6.303
 8062TIP3    H224132   4.784   3.119   6.432
 8063TIP3   OH224133   4.909   1.426   5.464
 8063TIP3    H124134   4.824   1.428   5.421
 8063TIP3    H224135   4.912   1.507   5.516
 8064TIP3   OH224136   7.120   6.515   0.860
 8064TIP3    H124137   7.122   6.601   0.902
 8064TIP3    H224138   7.170   6.458   0.919
 8065TIP3   OH224139   0.445   7.675   6.080
 8065TIP3    H124140   0.401   7.631   6.152
 8065TIP3    H224141   0.469   7.605   6.020
 8066TIP3   OH224142   7.231   2.970   1.288
 8066TIP3    H124143   7.213   3.047   1.235
 8066TIP3    H224144   7.146   2.928   1.300
 8067TIP3   OH224145   1.476   2.519   2.169
 8067TIP3    H124146   1.514   2.590   2.118
 8067TIP3    H224147   1.498   2.440   2.121
 8068TIP3   OH224148   6.524   1.915   4.570
 8068TIP3    H124149   6.557   1.898   4.482
 8068TIP3    H224150   6.493   1.830   4.601
 8069TIP3   OH224151   4.100   0.337   2.340
 8069TIP3    H124152   4.032   0.405   2.342
 8069TIP3    H224153   4.082   0.283   2.417
 8070TIP3   OH224154   1.295   3.721   2.063
 8070TIP3    H124155   1.343   3.794   2.102
 8070TIP3    H224156   1.250   3.680   2.136
 8071TIP3   OH224157   2.635   5.529   0.897
 8071TIP3    H124158   2.565   5.467   0.877
 8071TIP3    H224159   2.715   5.482   0.876
 8072TIP3   OH224160   0.430   0.697   2.242
 8072TIP3    H124161   0.379   0.715   2.321
 8072TIP3    H224162   0.519   0.723   2.264
 8073TIP3   OH224163   2.400   4.576   1.627
 8073TIP3    H124164   2.436   4.492   1.598
 8073TIP3    H224165   2.475   4.636   1.625
 8074TIP3   OH224166   0.241   1.285   3.948
 8074TIP3    H124167   0.260   1.370   3.987
 8074TIP3    H224168   0.145   1.283   3.941
 8075TIP3   OH224169   7.306   4.207   0.707
 8075TIP3    H124170   7.228   4.186   0.656
 8075TIP3    H224171   7.379   4.191   0.647
 8076TIP3   OH224172   2.861   7.344   0.472
 8076TIP3    H124173   2.868   7.250   0.491
 8076TIP3    H224174   2.869   7.387   0.557
 8077TIP3   OH224175   5.992   5.524   6.016
 8077TIP3    H124176   5.941   5.587   5.965
 8077TIP3    H224177   5.990   5.558   6.105
 8078TIP3   OH224178   6.498   7.193   3.872
 8078TIP3    H124179   6.554   7.266   3.843
 8078TIP3    H224180   6.494   7.203   3.967
 8079TIP3   OH224181   4.115   6.151   6.672
 8079TIP3    H124182   4.124   6.059   6.647
 8079TIP3    H224183   4.024   6.173   6.653
 8080TIP3   OH224184   3.205   2.520   1.761
 8080TIP3    H124185   3.229   2.558   1.846
 8080TIP3    H224186   3.266   2.559   1.699
 8081TIP3   OH224187   2.993   4.315   6.756
 8081TIP3    H124188   3.068   4.324   6.698
 8081TIP3    H224189   3.007   4.233   6.802
 8082TIP3   OH224190   1.145   2.864   1.273
 8082TIP3    H124191   1.193   2.913   1.339
 8082TIP3    H224192   1.056   2.857   1.308
 8083TIP3   OH224193   4.678   0.545   1.513
 8083TIP3    H124194   4.721   0.542   1.428
 8083TIP3    H224195   4.642   0.457   1.526
 8084TIP3   OH224196   3.224   5.885   4.968
 8084TIP3    H124197   3.309   5.926   4.950
 8084TIP3    H224198   3.162   5.957   4.971
 8085TIP3   OH224199   3.817   7.646   4.648
 8085TIP3    H124200   3.837   7.693   4.729
 8085TIP3    H224201   3.864   7.694   4.580
 8086TIP3   OH224202   3.106   0.544   2.871
 8086TIP3    H124203   3.020   0.584   2.854
 8086TIP3    H224204   3.168   0.616   2.862
 8087TIP3   OH224205   0.690   7.269   4.381
 8087TIP3    H124206   0.633   7.294   4.454
 8087TIP3    H224207   0.731   7.187   4.409
 8088TIP3   OH224208   6.178   3.809   5.025
 8088TIP3    H124209   6.203   3.762   5.105
 8088TIP3    H224210   6.236   3.884   5.022
 8089TIP3   OH224211   1.187   6.672   1.559
 8089TIP3    H124212   1.182   6.588   1.513
 8089TIP3    H224213   1.118   6.725   1.519
 8090TIP3   OH224214   3.537   6.660   3.299
 8090TIP3    H124215   3.579   6.575   3.305
 8090TIP3    H224216   3.590   6.717   3.354
 8091TIP3   OH224217   4.980   2.177   0.612
 8091TIP3    H124218   4.948   2.226   0.536
 8091TIP3    H224219   5.007   2.092   0.576
 8092TIP3   OH224220   2.185   2.731   6.208
 8092TIP3    H124221   2.174   2.807   6.152
 8092TIP3    H224222   2.103   2.725   6.258
 8093TIP3   OH224223   5.684   0.121   0.541
 8093TIP3    H124224   5.643   0.036   0.557
 8093TIP3    H224225   5.776   0.101   0.527
 8094TIP3   OH224226   1.103   2.792   3.648
 8094TIP3    H124227   1.065   2.714   3.689
 8094TIP3    H224228   1.129   2.847   3.722
 8095TIP3   OH224229   6.148   3.567   2.815
 8095TIP3    H124230   6.236   3.543   2.784
 8095TIP3    H224231   6.156   3.569   2.910
 8096TIP3   OH224232   5.990   2.611   1.609
 8096TIP3    H124233   5.951   2.610   1.696
 8096TIP3    H224234   5.964   2.527   1.570
 8097TIP3   OH224235   2.217   6.439   0.037
 8097TIP3    H124236   2.156   6.456   0.109
 8097TIP3    H224237   2.176   6.478  -0.039
 8098TIP3   OH224238   6.667   7.393   5.184
 8098TIP3    H124239   6.622   7.475   5.202
 8098TIP3    H224240   6.652   7.340   5.262
 8099TIP3   OH224241   4.970   2.315   1.822
 8099TIP3    H124242   4.919   2.384   1.779
 8099TIP3    H224243   5.040   2.362   1.867
 8100TIP3   OH224244   6.374   6.616   0.887
 8100TIP3    H124245   6.441   6.629   0.820
 8100TIP3    H224246   6.410   6.547   0.943
 8101TIP3   OH224247   7.175   3.849   6.174
 8101TIP3    H124248   7.137   3.818   6.256
 8101TIP3    H224249   7.103   3.844   6.111
 8102TIP3   OH224250   4.742   4.416   4.134
 8102TIP3    H124251   4.768   4.485   4.073
 8102TIP3    H224252   4.727   4.461   4.217
 8103TIP3   OH224253   6.241  -0.033   6.140
 8103TIP3    H124254   6.272  -0.105   6.085
 8103TIP3    H224255   6.296  -0.038   6.218
 8104TIP3   OH224256   6.473   5.372   3.973
 8104TIP3    H124257   6.506   5.322   3.898
 8104TIP3    H224258   6.547   5.376   4.033
 8105TIP3   OH224259   3.111   3.919   2.490
 8105TIP3    H124260   3.057   3.869   2.551
 8105TIP3    H224261   3.159   3.852   2.441
 8106TIP3   OH224262   2.089   5.666   5.189
 8106TIP3    H124263   2.090   5.735   5.124
 8106TIP3    H224264   2.179   5.631   5.188
 8107TIP3   OH224265   2.479   0.318   3.936
 8107TIP3    H124266   2.538   0.283   4.002
 8107TIP3    H224267   2.453   0.243   3.883
 8108TIP3   OH224268   7.647   7.035   5.053
 8108TIP3    H124269   7.720   7.096   5.056
 8108TIP3    H224270   7.596   7.063   4.977
 8109TIP3   OH224271   2.357   5.854   0.036
 8109TIP3    H124272   2.370   5.901  -0.047
 8109TIP3    H224273   2.384   5.764   0.016
 8110TIP3   OH224274   6.644   1.774   0.567
 8110TIP3    H124275   6.626   1.681   0.579
 8110TIP3    H224276   6.720   1.791   0.623
 8111TIP3   OH224277   2.775   4.831   0.244
 8111TIP3    H124278   2.700   4.843   0.186
 8111TIP3    H224279   2.847   4.805   0.187
 8112TIP3   OH224280   0.159   5.529   5.710
 8112TIP3    H124281   0.080   5.565   5.669
 8112TIP3    H224282   0.204   5.485   5.638
 8113TIP3   OH224283   6.426   6.068   0.606
 8113TIP3    H124284   6.390   5.980   0.616
 8113TIP3    H224285   6.420   6.106   0.694
 8114TIP3   OH224286   0.823   0.066   6.505
 8114TIP3    H124287   0.879   0.138   6.533
 8114TIP3    H224288   0.829   0.066   6.409
 8115TIP3   OH224289   1.900   7.663   4.928
 8115TIP3    H124290   1.989   7.685   4.901
 8115TIP3    H224291   1.846   7.734   4.894
 8116TIP3   OH224292   2.999   6.558  -0.002
 8116TIP3    H124293   2.972   6.643  -0.038
 8116TIP3    H224294   2.947   6.549   0.078
 8117TIP3   OH224295   4.736   1.401   3.694
 8117TIP3    H124296   4.813   1.429   3.645
 8117TIP3    H224297   4.712   1.477   3.747
 8118TIP3   OH224298   0.357   0.606   1.719
 8118TIP3    H124299   0.417   0.652   1.661
 8118TIP3    H224300   0.392   0.620   1.807
 8119TIP3   OH224301   1.235   4.829   4.617
 8119TIP3    H124302   1.212   4.785   4.699
 8119TIP3    H224303   1.158   4.883   4.598
 8120TIP3   OH224304   1.480   5.869   1.212
 8120TIP3    H124305   1.515   5.783   1.189
 8120TIP3    H224306   1.385   5.858   1.212
 8121TIP3   OH224307   7.568   4.468   6.496
 8121TIP3    H124308   7.641   4.413   6.528
 8121TIP3    H224309   7.500   4.458   6.562
 8122TIP3   OH224310   7.002   4.551   4.030
 8122TIP3    H124311   7.048   4.609   3.969
 8122TIP3    H224312   7.067   4.532   4.098
 8123TIP3   OH224313   2.207   5.599   4.387
 8123TIP3    H124314   2.160   5.570   4.466
 8123TIP3    H224315   2.255   5.521   4.359
 8124TIP3   OH224316   5.482   1.246   5.105
 8124TIP3    H124317   5.454   1.337   5.097
 8124TIP3    H224318   5.536   1.230   5.028
 8125TIP3   OH224319   7.995   2.934   5.625
 8125TIP3    H124320   7.922   2.994   5.612
 8125TIP3    H224321   7.962   2.850   5.594
 8126TIP3   OH224322   6.164   0.051   4.833
 8126TIP3    H124323   6.199   0.100   4.908
 8126TIP3    H224324   6.217   0.081   4.758
 8127TIP3   OH224325   4.920   2.563   2.191
 8127TIP3    H124326   4.862   2.494   2.226
 8127TIP3    H224327   4.978   2.584   2.264
 8128TIP3   OH224328   4.471   5.596   0.500
 8128TIP3    H124329   4.455   5.502   0.489
 8128TIP3    H224330   4.562   5.602   0.529
 8129TIP3   OH224331   8.139   4.857   0.523
 8129TIP3    H124332   8.156   4.925   0.459
 8129TIP3    H224333   8.181   4.888   0.603
 8130TIP3   OH224334   7.604   2.119   2.436
 8130TIP3    H124335   7.514   2.134   2.406
 8130TIP3    H224336   7.594   2.063   2.513
 8131TIP3   OH224337   6.413   0.896   3.565
 8131TIP3    H124338   6.362   0.833   3.513
 8131TIP3    H224339   6.440   0.963   3.501
 8132TIP3   OH224340   8.074   4.629   5.562
 8132TIP3    H124341   8.019   4.638   5.484
 8132TIP3    H224342   8.012   4.613   5.633
 8133TIP3   OH224343   1.416   5.948   0.685
 8133TIP3    H124344   1.445   5.867   0.727
 8133TIP3    H224345   1.341   5.923   0.632
 8134TIP3   OH224346   2.574   0.694   3.857
 8134TIP3    H124347   2.492   0.712   3.810
 8134TIP3    H224348   2.640   0.743   3.809
 8135TIP3   OH224349   7.986   6.961   3.821
 8135TIP3    H124350   7.986   6.903   3.898
 8135TIP3    H224351   8.077   6.990   3.813
 8136TIP3   OH224352   5.254   7.426   6.576
 8136TIP3    H124353   5.231   7.460   6.662
 8136TIP3    H224354   5.287   7.338   6.593
 8137TIP3   OH224355   2.225   3.044   5.789
 8137TIP3    H124356   2.183   3.089   5.862
 8137TIP3    H224357   2.199   2.952   5.799
 8138TIP3   OH224358   5.573   2.233   2.032
 8138TIP3    H124359   5.669   2.241   2.028
 8138TIP3    H224360   5.558   2.138   2.036
 8139TIP3   OH224361   1.390   0.855   3.848
 8139TIP3    H124362   1.295   0.867   3.836
 8139TIP3    H224363   1.404   0.762   3.832
 8140TIP3   OH224364   1.742   6.040   1.288
 8140TIP3    H124365   1.675   6.074   1.228
 8140TIP3    H224366   1.816   6.099   1.278
 8141TIP3   OH224367   3.005   5.768   4.609
 8141TIP3    H124368   3.043   5.686   4.578
 8141TIP3    H224369   3.077   5.830   4.608
 8142TIP3   OH224370   3.918   4.040   5.439
 8142TIP3    H124371   3.931   4.116   5.497
 8142TIP3    H224372   3.998   4.036   5.386
 8143TIP3   OH224373   4.970   0.727   2.590
 8143TIP3    H124374   4.903   0.660   2.604
 8143TIP3    H224375   4.972   0.777   2.671
 8144TIP3   OH224376   1.575   2.426   0.479
 8144TIP3    H124377   1.627   2.345   0.478
 8144TIP3    H224378   1.484   2.395   0.470
 8145TIP3   OH224379   3.923   3.695   2.625
 8145TIP3    H124380   3.917   3.606   2.590
 8145TIP3    H224381   3.885   3.689   2.713
 8146TIP3   OH224382   7.956   5.756   4.993
 8146TIP3    H124383   8.014   5.775   5.067
 8146TIP3    H224384   7.907   5.837   4.980
 8147TIP3   OH224385   7.198   1.328   6.586
 8147TIP3    H124386   7.270   1.267   6.570
 8147TIP3    H224387   7.230   1.385   6.656
 8148TIP3   OH224388   3.256   4.477   2.348
 8148TIP3    H124389   3.288   4.470   2.437
 8148TIP3    H224390   3.285   4.563   2.319
 8149TIP3   OH224391   0.886   4.723   5.152
 8149TIP3    H124392   0.876   4.734   5.057
 8149TIP3    H224393   0.806   4.681   5.181
 8150TIP3   OH224394   1.338   4.622   5.195
 8150TIP3    H124395   1.275   4.690   5.168
 8150TIP3    H224396   1.284   4.555   5.237
 8151TIP3   OH224397   2.028   1.490   2.274
 8151TIP3    H124398   1.986   1.404   2.271
 8151TIP3    H224399   2.070   1.499   2.188
 8152TIP3   OH224400   2.992   6.964   4.566
 8152TIP3    H124401   2.963   7.055   4.560
 8152TIP3    H224402   2.938   6.927   4.635
 8153TIP3   OH224403   1.139   7.251   3.123
 8153TIP3    H124404   1.111   7.323   3.179
 8153TIP3    H224405   1.095   7.174   3.159
 8154TIP3   OH224406   8.033   7.585   0.143
 8154TIP3    H124407   7.988   7.667   0.127
 8154TIP3    H224408   7.993   7.551   0.223
 8155TIP3   OH224409   7.012   4.194   3.663
 8155TIP3    H124410   7.063   4.217   3.741
 8155TIP3    H224411   6.924   4.178   3.695
 8156TIP3   OH224412   6.013   0.222   1.486
 8156TIP3    H124413   5.951   0.150   1.495
 8156TIP3    H224414   5.987   0.267   1.406
 8157TIP3   OH224415   8.169   0.227   0.629
 8157TIP3    H124416   8.260   0.237   0.657
 8157TIP3    H224417   8.172   0.236   0.534
 8158TIP3   OH224418   6.010   4.702   2.084
 8158TIP3    H124419   5.918   4.714   2.064
 8158TIP3    H224420   6.035   4.782   2.130
 8159TIP3   OH224421   2.692   0.633   5.597
 8159TIP3    H124422   2.631   0.562   5.617
 8159TIP3    H224423   2.743   0.643   5.677
 8160TIP3   OH224424   1.024   0.911   4.363
 8160TIP3    H124425   0.952   0.870   4.314
 8160TIP3    H224426   1.010   1.005   4.351
 8161TIP3   OH224427   6.396   7.228   4.176
 8161TIP3    H124428   6.329   7.285   4.137
 8161TIP3    H224429   6.470   7.286   4.192
 8162TIP3   OH224430   4.571   0.597   5.099
 8162TIP3    H124431   4.486   0.585   5.141
 8162TIP3    H224432   4.565   0.681   5.054
 8163TIP3   OH224433   1.203   0.271   1.447
 8163TIP3    H124434   1.257   0.273   1.368
 8163TIP3    H224435   1.120   0.233   1.418
 8164TIP3   OH224436   6.759   5.134   2.821
 8164TIP3    H124437   6.703   5.101   2.891
 8164TIP3    H224438   6.754   5.229   2.829
 8165TIP3   OH224439   4.440   7.399   5.323
 8165TIP3    H124440   4.383   7.439   5.257
 8165TIP3    H224441   4.392   7.323   5.354
 8166TIP3   OH224442   2.283   6.567   2.674
 8166TIP3    H124443   2.343   6.597   2.606
 8166TIP3    H224444   2.248   6.648   2.712
 8167TIP3   OH224445   6.518   6.788   1.941
 8167TIP3    H124446   6.446   6.726   1.930
 8167TIP3    H224447   6.483   6.871   1.907
 8168TIP3   OH224448   5.820   5.893   2.868
 8168TIP3    H124449   5.894   5.876   2.809
 8168TIP3    H224450   5.789   5.806   2.894
 8169TIP3   OH224451   6.340   0.716   2.567
 8169TIP3    H124452   6.377   0.665   2.495
 8169TIP3    H224453   6.253   0.740   2.536
 8170TIP3   OH224454   5.391   4.962   5.707
 8170TIP3    H124455   5.348   5.043   5.680
 8170TIP3    H224456   5.377   4.901   5.634
 8171TIP3   OH224457   5.230   1.931   2.245
 8171TIP3    H124458   5.233   2.011   2.193
 8171TIP3    H224459   5.304   1.879   2.213
 8172TIP3   OH224460   5.751   4.078   1.779
 8172TIP3    H124461   5.732   4.071   1.685
 8172TIP3    H224462   5.747   3.987   1.810
 8173TIP3   OH224463   5.288   0.667   3.325
 8173TIP3    H124464   5.344   0.723   3.272
 8173TIP3    H224465   5.279   0.713   3.408
 8174TIP3   OH224466   2.288   1.014   3.025
 8174TIP3    H124467   2.307   1.036   2.933
 8174TIP3    H224468   2.292   1.099   3.070
 8175TIP3   OH224469   2.243   2.388   3.025
 8175TIP3    H124470   2.150   2.410   3.020
 8175TIP3    H224471   2.284   2.438   2.954
 8176TIP3   OH224472   2.980   3.034   4.274
 8176TIP3    H124473   3.068   2.996   4.264
 8176TIP3    H224474   2.937   3.017   4.191
 8177TIP3   OH224475   4.436   7.516   3.125
 8177TIP3    H124476   4.462   7.435   3.082
 8177TIP3    H224477   4.500   7.580   3.098
 8178TIP3   OH224478   2.858   0.835   0.178
 8178TIP3    H124479   2.905   0.864   0.256
 8178TIP3    H224480   2.769   0.871   0.190
 8179TIP3   OH224481   3.291   0.557   0.384
 8179TIP3    H124482   3.276   0.535   0.476
 8179TIP3    H224483   3.204   0.565   0.347
 8180TIP3   OH224484   7.980   7.578   2.888
 8180TIP3    H124485   8.057   7.633   2.906
 8180TIP3    H224486   7.974   7.520   2.963
 8181TIP3   OH224487   1.794   0.358   5.103
 8181TIP3    H124488   1.845   0.425   5.058
 8181TIP3    H224489   1.795   0.385   5.195
 8182TIP3   OH224490   4.859   7.578   3.464
 8182TIP3    H124491   4.767   7.600   3.448
 8182TIP3    H224492   4.904   7.605   3.384
 8183TIP3   OH224493   2.740   1.527   5.194
 8183TIP3    H124494   2.728   1.527   5.289
 8183TIP3    H224495   2.698   1.446   5.165
 8184TIP3   OH224496   7.616   6.281   0.531
 8184TIP3    H124497   7.705   6.276   0.497
 8184TIP3    H224498   7.563   6.302   0.454
 8185TIP3   OH224499   7.488   2.999   4.388
 8185TIP3    H124500   7.446   3.057   4.451
 8185TIP3    H224501   7.547   2.945   4.440
 8186TIP3   OH224502   0.843   3.616   4.241
 8186TIP3    H124503   0.890   3.693   4.272
 8186TIP3    H224504   0.820   3.568   4.321
 8187TIP3   OH224505   0.510   0.094   6.153
 8187TIP3    H124506   0.415   0.086   6.154
 8187TIP3    H224507   0.526   0.184   6.183
 8188TIP3   OH224508   4.397   0.926   0.645
 8188TIP3    H124509   4.335   0.975   0.591
 8188TIP3    H224510   4.433   0.861   0.586
 8189TIP3   OH224511   5.456   0.947   5.484
 8189TIP3    H124512   5.464   0.851   5.486
 8189TIP3    H224513   5.465   0.970   5.391
 8190TIP3   OH224514   7.996   5.131   3.633
 8190TIP3    H124515   8.012   5.058   3.573
 8190TIP3    H224516   8.080   5.176   3.640
 8191TIP3   OH224517   1.664   7.185   4.484
 8191TIP3    H124518   1.717   7.235   4.546
 8191TIP3    H224519   1.646   7.103   4.529
 8192TIP3   OH224520   2.757   5.189   3.685
 8192TIP3    H124521   2.849   5.216   3.686
 8192TIP3    H224522   2.713   5.259   3.638
 8193TIP3   OH224523   5.282   1.599   2.111
 8193TIP3    H124524   5.199   1.611   2.156
 8193TIP3    H224525   5.332   1.678   2.130
 8194TIP3   OH224526   0.050   1.635   5.749
 8194TIP3    H124527  -0.043   1.645   5.728
 8194TIP3    H224528   0.075   1.721   5.783
 8195TIP3   OH224529   3.187   1.302   1.593
 8195TIP3    H124530   3.202   1.384   1.640
 8195TIP3    H224531   3.142   1.246   1.656
 8196TIP3   OH224532   4.658   0.409   2.024
 8196TIP3    H124533   4.637   0.454   2.106
 8196TIP3    H224534   4.698   0.327   2.052
 8197TIP3   OH224535   4.870   4.178   1.906
 8197TIP3    H124536   4.843   4.270   1.907
 8197TIP3    H224537   4.963   4.180   1.884
 8198TIP3   OH224538   6.704   7.266   2.972
 8198TIP3    H124539   6.735   7.302   2.888
 8198TIP3    H224540   6.609   7.277   2.970
 8199TIP3   OH224541   0.099   1.586   4.364
 8199TIP3    H124542   0.051   1.525   4.419
 8199TIP3    H224543   0.142   1.646   4.425
 8200TIP3   OH224544   0.431   2.572   3.620
 8200TIP3    H124545   0.356   2.622   3.588
 8200TIP3    H224546   0.498   2.638   3.639
 8201TIP3   OH224547   3.825   1.898   6.299
 8201TIP3    H124548   3.895   1.961   6.318
 8201TIP3    H224549   3.857   1.850   6.222
 8202TIP3   OH224550   0.367   1.893   5.796
 8202TIP3    H124551   0.363   1.798   5.788
 8202TIP3    H224552   0.455   1.910   5.830
 8203TIP3   OH224553   3.636   1.073   3.677
 8203TIP3    H124554   3.655   1.166   3.689
 8203TIP3    H224555   3.642   1.036   3.765
 8204TIP3   OH224556   1.107   5.687   0.848
 8204TIP3    H124557   1.081   5.621   0.912
 8204TIP3    H224558   1.179   5.647   0.799
 8205TIP3   OH224559   1.777   5.120   5.027
 8205TIP3    H124560   1.685   5.107   5.001
 8205TIP3    H224561   1.785   5.075   5.111
 8206TIP3   OH224562   6.839   5.944   3.185
 8206TIP3    H124563   6.895   5.870   3.208
 8206TIP3    H224564   6.751   5.914   3.203
 8207TIP3   OH224565   1.893   5.492   5.316
 8207TIP3    H124566   1.965   5.494   5.379
 8207TIP3    H224567   1.929   5.529   5.236
 8208TIP3   OH224568   0.144   6.476   2.595
 8208TIP3    H124569   0.057   6.449   2.624
 8208TIP3    H224570   0.128   6.537   2.523
 8209TIP3   OH224571   0.032   2.556   4.473
 8209TIP3    H124572   0.020   2.462   4.462
 8209TIP3    H224573  -0.036   2.581   4.535
 8210TIP3   OH224574   3.764   7.424   1.794
 8210TIP3    H124575   3.859   7.434   1.794
 8210TIP3    H224576   3.731   7.505   1.756
 8211TIP3   OH224577   4.456   3.837   2.102
 8211TIP3    H124578   4.465   3.749   2.067
 8211TIP3    H224579   4.390   3.829   2.171
 8212TIP3   OH224580   6.432   6.962   6.108
 8212TIP3    H124581   6.345   6.924   6.101
 8212TIP3    H224582   6.420   7.054   6.086
 8213TIP3   OH224583   0.073   7.371   1.166
 8213TIP3    H124584   0.007   7.419   1.118
 8213TIP3    H224585   0.080   7.287   1.120
 8214TIP3   OH224586   6.108   2.329   6.645
 8214TIP3    H124587   6.093   2.421   6.665
 8214TIP3    H224588   6.171   2.300   6.711
 8215TIP3   OH224589   1.223   2.590   1.224
 8215TIP3    H124590   1.150   2.542   1.186
 8215TIP3    H224591   1.198   2.682   1.217
 8216TIP3   OH224592   5.501   5.892   5.853
 8216TIP3    H124593   5.565   5.957   5.883
 8216TIP3    H224594   5.446   5.876   5.929
 8217TIP3   OH224595   3.726   3.261   4.252
 8217TIP3    H124596   3.706   3.198   4.183
 8217TIP3    H224597   3.680   3.340   4.227
 8218TIP3   OH224598   5.463   2.337   6.106
 8218TIP3    H124599   5.410   2.386   6.168
 8218TIP3    H224600   5.428   2.361   6.020
 8219TIP3   OH224601   3.097   7.690   1.063
 8219TIP3    H124602   3.027   7.686   0.998
 8219TIP3    H224603   3.150   7.765   1.037
 8220TIP3   OH224604   3.413   0.353   3.939
 8220TIP3    H124605   3.393   0.426   3.881
 8220TIP3    H224606   3.355   0.366   4.014
 8221TIP3   OH224607   0.853   4.280   5.508
 8221TIP3    H124608   0.886   4.353   5.560
 8221TIP3    H224609   0.777   4.316   5.462
 8222TIP3   OH224610   3.501   6.397   5.863
 8222TIP3    H124611   3.526   6.418   5.773
 8222TIP3    H224612   3.406   6.405   5.863
 8223TIP3   OH224613   3.499   6.061   4.221
 8223TIP3    H124614   3.503   6.099   4.309
 8223TIP3    H224615   3.446   5.982   4.232
 8224TIP3   OH224616   6.940   5.188   0.802
 8224TIP3    H124617   6.988   5.117   0.845
 8224TIP3    H224618   6.933   5.257   0.868
 8225TIP3   OH224619   7.449   5.551   4.823
 8225TIP3    H124620   7.541   5.576   4.812
 8225TIP3    H224621   7.435   5.482   4.758
 8226TIP3   OH224622   6.290   6.877   1.094
 8226TIP3    H124623   6.370   6.876   1.147
 8226TIP3    H224624   6.322   6.875   1.004
 8227TIP3   OH224625   5.924   0.142   0.163
 8227TIP3    H124626   5.980   0.076   0.123
 8227TIP3    H224627   5.913   0.208   0.095
 8228TIP3   OH224628   1.748   7.174   2.669
 8228TIP3    H124629   1.706   7.220   2.742
 8228TIP3    H224630   1.692   7.192   2.594
 8229TIP3   OH224631   6.340   1.817   6.407
 8229TIP3    H124632   6.433   1.833   6.388
 8229TIP3    H224633   6.299   1.807   6.321
 8230TIP3   OH224634   4.709   0.692   6.533
 8230TIP3    H124635   4.687   0.666   6.443
 8230TIP3    H224636   4.805   0.693   6.535
 8231TIP3   OH224637   1.152   6.914   2.457
 8231TIP3    H124638   1.120   6.824   2.446
 8231TIP3    H224639   1.229   6.919   2.400
 8232TIP3   OH224640   3.951   6.771   6.057
 8232TIP3    H124641   4.000   6.772   6.140
 8232TIP3    H224642   3.884   6.703   6.069
 8233TIP3   OH224643   0.341   6.168   4.250
 8233TIP3    H124644   0.377   6.203   4.332
 8233TIP3    H224645   0.416   6.165   4.191
 8234TIP3   OH224646   7.804   6.438   0.729
 8234TIP3    H124647   7.764   6.494   0.794
 8234TIP3    H224648   7.732   6.387   0.693
 8235TIP3   OH224649   0.955   1.509   2.439
 8235TIP3    H124650   1.026   1.564   2.406
 8235TIP3    H224651   0.991   1.467   2.517
 8236TIP3   OH224652   3.717   1.389   0.888
 8236TIP3    H124653   3.756   1.348   0.811
 8236TIP3    H224654   3.783   1.453   0.916
 8237TIP3   OH224655   6.702   5.815   0.679
 8237TIP3    H124656   6.720   5.865   0.599
 8237TIP3    H224657   6.624   5.765   0.658
 8238TIP3   OH224658   6.714   2.187   2.677
 8238TIP3    H124659   6.700   2.114   2.738
 8238TIP3    H224660   6.808   2.186   2.660
 8239TIP3   OH224661   5.661   6.646   6.463
 8239TIP3    H124662   5.583   6.649   6.519
 8239TIP3    H224663   5.643   6.578   6.399
 8240TIP3   OH224664   7.374   1.542   2.913
 8240TIP3    H124665   7.320   1.504   2.981
 8240TIP3    H224666   7.461   1.549   2.953
 8241TIP3   OH224667   1.099   0.464   0.421
 8241TIP3    H124668   1.167   0.398   0.433
 8241TIP3    H224669   1.060   0.475   0.507
 8242TIP3   OH224670   6.375   2.299   4.803
 8242TIP3    H124671   6.308   2.249   4.848
 8242TIP3    H224672   6.446   2.236   4.787
 8243TIP3   OH224673   5.766   0.702   1.687
 8243TIP3    H124674   5.846   0.736   1.725
 8243TIP3    H224675   5.696   0.752   1.729
 8244TIP3   OH224676   2.204   7.367   1.918
 8244TIP3    H124677   2.229   7.420   1.842
 8244TIP3    H224678   2.108   7.366   1.915
 8245TIP3   OH224679   1.708   3.877   0.364
 8245TIP3    H124680   1.691   3.785   0.385
 8245TIP3    H224681   1.789   3.875   0.313
 8246TIP3   OH224682   3.977   6.859   2.451
 8246TIP3    H124683   3.892   6.894   2.425
 8246TIP3    H224684   3.983   6.775   2.406
 8247TIP3   OH224685   1.450   7.482   3.003
 8247TIP3    H124686   1.426   7.533   3.081
 8247TIP3    H224687   1.416   7.394   3.021
 8248TIP3   OH224688   8.194   5.202   4.258
 8248TIP3    H124689   8.177   5.206   4.352
 8248TIP3    H224690   8.247   5.124   4.246
 8249TIP3   OH224691   4.391   7.486   3.608
 8249TIP3    H124692   4.358   7.401   3.638
 8249TIP3    H224693   4.317   7.526   3.562
 8250TIP3   OH224694   5.099   4.580   6.649
 8250TIP3    H124695   5.135   4.613   6.732
 8250TIP3    H224696   5.036   4.513   6.675
 8251TIP3   OH224697   5.717   0.967   5.736
 8251TIP3    H124698   5.764   0.897   5.690
 8251TIP3    H224699   5.625   0.939   5.735
 8252TIP3   OH224700   6.992   7.185   2.415
 8252TIP3    H124701   6.971   7.148   2.501
 8252TIP3    H224702   6.909   7.184   2.367
 8253TIP3   OH224703   7.066   2.432   6.460
 8253TIP3    H124704   7.003   2.375   6.414
 8253TIP3    H224705   7.150   2.389   6.447
 8254TIP3   OH224706   2.616   3.895   4.075
 8254TIP3    H124707   2.684   3.935   4.130
 8254TIP3    H224708   2.626   3.801   4.088
 8255TIP3   OH224709   6.742   6.349   4.892
 8255TIP3    H124710   6.739   6.443   4.910
 8255TIP3    H224711   6.702   6.340   4.805
 8256TIP3   OH224712   0.656   5.839   1.355
 8256TIP3    H124713   0.658   5.878   1.443
 8256TIP3    H224714   0.582   5.779   1.357
 8257TIP3   OH224715   3.682   0.664   5.104
 8257TIP3    H124716   3.660   0.640   5.195
 8257TIP3    H224717   3.743   0.737   5.113
 8258TIP3   OH224718   2.269   5.846   4.015
 8258TIP3    H124719   2.212   5.916   3.986
 8258TIP3    H224720   2.316   5.883   4.090
 8259TIP3   OH224721   2.948   6.686   1.304
 8259TIP3    H124722   3.021   6.673   1.243
 8259TIP3    H224723   2.870   6.678   1.249
 8260TIP3   OH224724   0.435   2.615   4.327
 8260TIP3    H124725   0.359   2.669   4.305
 8260TIP3    H224726   0.411   2.573   4.410
 8261TIP3   OH224727   3.341   4.203   2.708
 8261TIP3    H124728   3.425   4.176   2.670
 8261TIP3    H224729   3.318   4.132   2.768
 8262TIP3   OH224730   2.833   1.035   5.610
 8262TIP3    H124731   2.827   1.037   5.706
 8262TIP3    H224732   2.845   1.126   5.585
 8263TIP3   OH224733   0.052   2.864   0.536
 8263TIP3    H124734   0.069   2.958   0.548
 8263TIP3    H224735   0.058   2.827   0.624
 8264TIP3   OH224736   7.400   0.266   4.202
 8264TIP3    H124737   7.344   0.189   4.198
 8264TIP3    H224738   7.400   0.291   4.295
 8265TIP3   OH224739   2.589   4.161   1.675
 8265TIP3    H124740   2.669   4.196   1.715
 8265TIP3    H224741   2.542   4.120   1.748
 8266TIP3   OH224742   2.231   5.013   4.523
 8266TIP3    H124743   2.273   5.082   4.573
 8266TIP3    H224744   2.225   5.047   4.434
 8267TIP3   OH224745   4.922   5.006   0.419
 8267TIP3    H124746   4.938   5.095   0.448
 8267TIP3    H224747   5.000   4.957   0.444
 8268TIP3   OH224748   6.927   7.684   0.220
 8268TIP3    H124749   6.923   7.636   0.303
 8268TIP3    H224750   6.857   7.749   0.226
 8269TIP3   OH224751   7.027   1.542   5.902
 8269TIP3    H124752   7.043   1.455   5.867
 8269TIP3    H224753   6.932   1.546   5.913
 8270TIP3   OH224754   1.417   5.818   4.537
 8270TIP3    H124755   1.460   5.772   4.465
 8270TIP3    H224756   1.487   5.835   4.600
 8271TIP3   OH224757   3.892   3.256   3.489
 8271TIP3    H124758   3.976   3.250   3.533
 8271TIP3    H224759   3.860   3.343   3.509
 8272TIP3   OH224760   1.295   3.196   5.116
 8272TIP3    H124761   1.295   3.218   5.209
 8272TIP3    H224762   1.270   3.103   5.114
 8273TIP3   OH224763   1.785   1.809   5.060
 8273TIP3    H124764   1.825   1.723   5.063
 8273TIP3    H224765   1.854   1.867   5.029
 8274TIP3   OH224766   4.259   6.114   4.583
 8274TIP3    H124767   4.295   6.195   4.545
 8274TIP3    H224768   4.300   6.044   4.533
 8275TIP3   OH224769   7.297   1.339   0.885
 8275TIP3    H124770   7.282   1.393   0.962
 8275TIP3    H224771   7.391   1.343   0.870
 8276TIP3   OH224772   6.001   1.882   6.361
 8276TIP3    H124773   6.006   1.798   6.407
 8276TIP3    H224774   6.022   1.947   6.429
 8277TIP3   OH224775   4.488   6.898   1.349
 8277TIP3    H124776   4.553   6.933   1.411
 8277TIP3    H224777   4.411   6.954   1.362
 8278TIP3   OH224778   2.073   5.061   5.421
 8278TIP3    H124779   2.154   5.010   5.426
 8278TIP3    H224780   2.029   5.044   5.505
 8279TIP3   OH224781   4.425   5.339   0.477
 8279TIP3    H124782   4.468   5.263   0.518
 8279TIP3    H224783   4.392   5.306   0.394
 8280TIP3   OH224784   8.296   5.446   4.473
 8280TIP3    H124785   8.207   5.412   4.469
 8280TIP3    H224786   8.285   5.541   4.467
 8281TIP3   OH224787   7.438   2.240   0.894
 8281TIP3    H124788   7.474   2.153   0.879
 8281TIP3    H224789   7.408   2.268   0.808
 8282TIP3   OH224790   4.807   4.197   5.193
 8282TIP3    H124791   4.897   4.170   5.207
 8282TIP3    H224792   4.780   4.236   5.276
 8283TIP3   OH224793   5.933   6.666   5.858
 8283TIP3    H124794   5.863   6.679   5.795
 8283TIP3    H224795   6.013   6.692   5.812
 8284TIP3   OH224796   2.570   5.037   4.725
 8284TIP3    H124797   2.641   5.102   4.734
 8284TIP3    H224798   2.510   5.077   4.662
 8285TIP3   OH224799   8.209   6.084   0.614
 8285TIP3    H124800   8.303   6.098   0.625
 8285TIP3    H224801   8.188   6.014   0.676
 8286TIP3   OH224802   8.295   1.178   1.321
 8286TIP3    H124803   8.206   1.178   1.286
 8286TIP3    H224804   8.290   1.123   1.399
 8287TIP3   OH224805   8.336   3.247   5.131
 8287TIP3    H124806   8.330   3.303   5.208
 8287TIP3    H224807   8.247   3.214   5.119
 8288TIP3   OH224808   3.447   0.722   6.197
 8288TIP3    H124809   3.509   0.664   6.240
 8288TIP3    H224810   3.369   0.720   6.253
 8289TIP3   OH224811   3.638   1.842   5.514
 8289TIP3    H124812   3.580   1.918   5.521
 8289TIP3    H224813   3.721   1.879   5.485
 8290TIP3   OH224814   2.596   6.406   2.542
 8290TIP3    H124815   2.599   6.413   2.446
 8290TIP3    H224816   2.667   6.462   2.573
 8291TIP3   OH224817   4.229   4.256   1.430
 8291TIP3    H124818   4.146   4.209   1.423
 8291TIP3    H224819   4.287   4.197   1.478
 8292TIP3   OH224820   1.750   7.637   2.986
 8292TIP3    H124821   1.759   7.674   2.899
 8292TIP3    H224822   1.688   7.565   2.975
 8293TIP3   OH224823   2.202   5.169   1.832
 8293TIP3    H124824   2.167   5.114   1.903
 8293TIP3    H224825   2.293   5.141   1.823
 8294TIP3   OH224826   6.194   7.018   5.845
 8294TIP3    H124827   6.193   6.926   5.872
 8294TIP3    H224828   6.117   7.056   5.889
 8295TIP3   OH224829   7.288   4.138   3.582
 8295TIP3    H124830   7.253   4.192   3.511
 8295TIP3    H224831   7.266   4.049   3.557
 8296TIP3   OH224832   7.799   3.883   2.749
 8296TIP3    H124833   7.805   3.887   2.845
 8296TIP3    H224834   7.852   3.957   2.719
 8297TIP3   OH224835   4.063   4.980   5.163
 8297TIP3    H124836   4.088   4.925   5.238
 8297TIP3    H224837   4.048   4.917   5.092
 8298TIP3   OH224838   1.519   4.172   5.776
 8298TIP3    H124839   1.520   4.249   5.719
 8298TIP3    H224840   1.455   4.113   5.736
 8299TIP3   OH224841   7.985   3.715   5.959
 8299TIP3    H124842   8.048   3.676   6.020
 8299TIP3    H224843   7.900   3.705   6.003
 8300TIP3   OH224844   7.933   6.287   0.140
 8300TIP3    H124845   8.024   6.278   0.112
 8300TIP3    H224846   7.932   6.257   0.231
 8301TIP3   OH224847   3.072   1.227   6.051
 8301TIP3    H124848   3.130   1.226   5.974
 8301TIP3    H224849   3.102   1.301   6.103
 8302TIP3   OH224850   1.409   1.276   0.198
 8302TIP3    H124851   1.421   1.294   0.291
 8302TIP3    H224852   1.355   1.348   0.166
 8303TIP3   OH224853   0.049   6.085   6.077
 8303TIP3    H124854  -0.004   6.021   6.125
 8303TIP3    H224855   0.064   6.045   5.991
 8304TIP3   OH224856   5.853   0.321   2.969
 8304TIP3    H124857   5.780   0.373   3.003
 8304TIP3    H224858   5.862   0.349   2.878
 8305TIP3   OH224859   2.531   5.231   6.393
 8305TIP3    H124860   2.517   5.146   6.435
 8305TIP3    H224861   2.548   5.210   6.301
 8306TIP3   OH224862   2.679   3.508   1.561
 8306TIP3    H124863   2.605   3.512   1.621
 8306TIP3    H224864   2.756   3.518   1.617
 8307TIP3   OH224865   6.923   1.802   6.067
 8307TIP3    H124866   6.874   1.720   6.067
 8307TIP3    H224867   7.015   1.775   6.072
 8308TIP3   OH224868   6.248   0.835   0.424
 8308TIP3    H124869   6.257   0.888   0.503
 8308TIP3    H224870   6.330   0.848   0.377
 8309TIP3   OH224871   7.130   0.560   3.897
 8309TIP3    H124872   7.038   0.540   3.880
 8309TIP3    H224873   7.159   0.490   3.956
 8310TIP3   OH224874   7.468   0.519   4.963
 8310TIP3    H124875   7.457   0.496   4.871
 8310TIP3    H224876   7.476   0.435   5.008
 8311TIP3   OH224877   6.674   6.114   2.147
 8311TIP3    H124878   6.659   6.020   2.154
 8311TIP3    H224879   6.591   6.149   2.114
 8312TIP3   OH224880   0.533   0.280   1.640
 8312TIP3    H124881   0.576   0.333   1.707
 8312TIP3    H224882   0.527   0.338   1.564
 8313TIP3   OH224883   6.118   6.959   0.419
 8313TIP3    H124884   6.124   6.990   0.329
 8313TIP3    H224885   6.124   6.863   0.413
 8314TIP3   OH224886   7.290   3.573   3.934
 8314TIP3    H124887   7.268   3.481   3.916
 8314TIP3    H224888   7.304   3.612   3.848
 8315TIP3   OH224889   5.668   4.141   5.546
 8315TIP3    H124890   5.645   4.058   5.586
 8315TIP3    H224891   5.647   4.207   5.612
 8316TIP3   OH224892   5.516   4.557   3.050
 8316TIP3    H124893   5.490   4.570   3.141
 8316TIP3    H224894   5.593   4.500   3.054
 8317TIP3   OH224895   3.810   0.479   1.045
 8317TIP3    H124896   3.876   0.432   0.994
 8317TIP3    H224897   3.794   0.560   0.996
 8318TIP3   OH224898   1.950   2.138   5.758
 8318TIP3    H124899   1.903   2.196   5.818
 8318TIP3    H224900   1.982   2.067   5.814
 8319TIP3   OH224901   0.736   7.636   6.308
 8319TIP3    H124902   0.672   7.680   6.363
 8319TIP3    H224903   0.812   7.694   6.307
 8320TIP3   OH224904   0.560   6.756   5.244
 8320TIP3    H124905   0.485   6.700   5.266
 8320TIP3    H224906   0.637   6.704   5.266
 8321TIP3   OH224907   5.257   7.676   4.655
 8321TIP3    H124908   5.234   7.724   4.736
 8321TIP3    H224909   5.312   7.738   4.606
 8322TIP3   OH224910   2.534   3.904   5.197
 8322TIP3    H124911   2.474   3.920   5.124
 8322TIP3    H224912   2.547   3.990   5.237
 8323TIP3   OH224913   5.309   2.157   5.772
 8323TIP3    H124914   5.312   2.235   5.826
 8323TIP3    H224915   5.222   2.160   5.731
 8324TIP3   OH224916   8.196   1.269   5.012
 8324TIP3    H124917   8.258   1.212   4.966
 8324TIP3    H224918   8.117   1.216   5.019
 8325TIP3   OH224919   3.775   0.335   4.229
 8325TIP3    H124920   3.762   0.421   4.189
 8325TIP3    H224921   3.861   0.307   4.196
 8326TIP3   OH224922   7.646   6.071   4.579
 8326TIP3    H124923   7.613   5.981   4.571
 8326TIP3    H224924   7.720   6.074   4.518
 8327TIP3   OH224925   0.154   4.244   4.212
 8327TIP3    H124926   0.199   4.325   4.186
 8327TIP3    H224927   0.144   4.251   4.306
 8328TIP3   OH224928   2.541   7.212   0.574
 8328TIP3    H124929   2.603   7.276   0.540
 8328TIP3    H224930   2.455   7.246   0.548
 8329TIP3   OH224931   5.679   3.593   1.524
 8329TIP3    H124932   5.760   3.609   1.474
 8329TIP3    H224933   5.701   3.521   1.582
 8330TIP3   OH224934   1.379   2.553   5.939
 8330TIP3    H124935   1.316   2.482   5.953
 8330TIP3    H224936   1.455   2.511   5.900
 8331TIP3   OH224937   6.267   5.734   1.490
 8331TIP3    H124938   6.290   5.823   1.464
 8331TIP3    H224939   6.194   5.710   1.433
 8332TIP3   OH224940   0.427   1.761   1.674
 8332TIP3    H124941   0.353   1.785   1.731
 8332TIP3    H224942   0.500   1.812   1.708
 8333TIP3   OH224943   6.219   5.455   3.533
 8333TIP3    H124944   6.171   5.526   3.574
 8333TIP3    H224945   6.171   5.436   3.452
 8334TIP3   OH224946   7.751   0.340   4.464
 8334TIP3    H124947   7.727   0.261   4.513
 8334TIP3    H224948   7.847   0.342   4.467
 8335TIP3   OH224949   5.611   5.386   3.002
 8335TIP3    H124950   5.647   5.473   3.018
 8335TIP3    H224951   5.636   5.365   2.912
 8336TIP3   OH224952   8.049   2.036   0.993
 8336TIP3    H124953   8.043   2.013   1.086
 8336TIP3    H224954   7.966   2.005   0.955
 8337TIP3   OH224955   4.604   4.224   6.220
 8337TIP3    H124956   4.673   4.173   6.263
 8337TIP3    H224957   4.620   4.213   6.127
 8338TIP3   OH224958   7.861   0.253   5.802
 8338TIP3    H124959   7.818   0.203   5.733
 8338TIP3    H224960   7.808   0.331   5.813
 8339TIP3   OH224961   6.738   1.728   6.540
 8339TIP3    H124962   6.807   1.794   6.545
 8339TIP3    H224963   6.778   1.649   6.578
 8340TIP3   OH224964   0.512   6.293   0.709
 8340TIP3    H124965   0.574   6.235   0.753
 8340TIP3    H224966   0.558   6.323   0.630
 8341TIP3   OH224967   6.386   2.489   6.460
 8341TIP3    H124968   6.474   2.521   6.479
 8341TIP3    H224969   6.330   2.537   6.521
 8342TIP3   OH224970   7.085   5.897   4.260
 8342TIP3    H124971   7.091   5.802   4.270
 8342TIP3    H224972   7.050   5.928   4.343
 8343TIP3   OH224973   1.104   0.212   0.611
 8343TIP3    H124974   1.173   0.198   0.546
 8343TIP3    H224975   1.079   0.123   0.639
 8344TIP3   OH224976   5.728   1.904   3.274
 8344TIP3    H124977   5.770   1.984   3.242
 8344TIP3    H224978   5.668   1.879   3.204
 8345TIP3   OH224979   0.299   6.468   0.535
 8345TIP3    H124980   0.343   6.417   0.603
 8345TIP3    H224981   0.206   6.454   0.551
 8346TIP3   OH224982   4.687   5.683   3.563
 8346TIP3    H124983   4.631   5.627   3.617
 8346TIP3    H224984   4.732   5.623   3.504
 8347TIP3   OH224985   5.613   5.106   5.951
 8347TIP3    H124986   5.522   5.093   5.925
 8347TIP3    H224987   5.615   5.082   6.044
 8348TIP3   OH224988   4.246   1.020   6.611
 8348TIP3    H124989   4.200   0.995   6.531
 8348TIP3    H224990   4.328   0.971   6.608
 8349TIP3   OH224991   1.848   2.861   3.631
 8349TIP3    H124992   1.769   2.916   3.625
 8349TIP3    H224993   1.816   2.772   3.618
 8350TIP3   OH224994   7.001   3.918   1.671
 8350TIP3    H124995   7.073   3.981   1.663
 8350TIP3    H224996   7.039   3.835   1.642
 8351TIP3   OH224997   0.418   3.982   1.750
 8351TIP3    H124998   0.448   3.917   1.814
 8351TIP3    H224999   0.323   3.977   1.753
 8352TIP3   OH225000   5.633   4.988   1.819
 8352TIP3    H125001   5.594   4.901   1.816
 8352TIP3    H225002   5.566   5.046   1.782
 8353TIP3   OH225003   2.028   7.175   4.388
 8353TIP3    H125004   2.067   7.257   4.417
 8353TIP3    H225005   2.101   7.124   4.354
 8354TIP3   OH225006   6.254   5.883   0.712
 8354TIP3    H125007   6.198   5.953   0.748
 8354TIP3    H225008   6.213   5.802   0.742
 8355TIP3   OH225009   3.057   6.882   6.135
 8355TIP3    H125010   3.087   6.794   6.111
 8355TIP3    H225011   3.028   6.874   6.225
 8356TIP3   OH225012   3.554   1.191   1.000
 8356TIP3    H125013   3.609   1.200   1.078
 8356TIP3    H225014   3.578   1.266   0.945
 8357TIP3   OH225015   5.227   5.004   1.037
 8357TIP3    H125016   5.304   5.059   1.054
 8357TIP3    H225017   5.257   4.915   1.056
 8358TIP3   OH225018   3.030   6.646   0.356
 8358TIP3    H125019   3.101   6.612   0.409
 8358TIP3    H225020   2.968   6.683   0.419
 8359TIP3   OH225021   7.950   1.613   1.031
 8359TIP3    H125022   7.917   1.688   1.081
 8359TIP3    H225023   7.984   1.553   1.098
 8360TIP3   OH225024   0.632   2.953   1.367
 8360TIP3    H125025   0.594   2.869   1.390
 8360TIP3    H225026   0.661   2.942   1.276
 8361TIP3   OH225027   5.637   5.614   2.659
 8361TIP3    H125028   5.600   5.690   2.615
 8361TIP3    H225029   5.678   5.563   2.590
 8362TIP3   OH225030   0.626   4.303   5.345
 8362TIP3    H125031   0.675   4.296   5.263
 8362TIP3    H225032   0.556   4.238   5.336
 8363TIP3   OH225033   5.044   2.289   3.487
 8363TIP3    H125034   5.018   2.261   3.399
 8363TIP3    H225035   5.039   2.210   3.540
 8364TIP3   OH225036   6.941   4.113   2.570
 8364TIP3    H125037   6.991   4.080   2.495
 8364TIP3    H225038   6.894   4.189   2.535
 8365TIP3   OH225039   4.082   1.237   3.420
 8365TIP3    H125040   4.042   1.263   3.337
 8365TIP3    H225041   4.013   1.191   3.467
 8366TIP3   OH225042   1.320   4.134   3.339
 8366TIP3    H125043   1.277   4.216   3.365
 8366TIP3    H225044   1.393   4.161   3.284
 8367TIP3   OH225045   6.468   5.319   0.006
 8367TIP3    H125046   6.537   5.280  -0.048
 8367TIP3    H225047   6.471   5.270   0.089
 8368TIP3   OH225048   0.356   6.092   1.101
 8368TIP3    H125049   0.433   6.055   1.145
 8368TIP3    H225050   0.282   6.060   1.154
 8369TIP3   OH225051   0.413   5.779   0.817
 8369TIP3    H125052   0.347   5.709   0.809
 8369TIP3    H225053   0.420   5.816   0.729
 8370TIP3   OH225054   3.050   2.123   1.317
 8370TIP3    H125055   3.003   2.041   1.303
 8370TIP3    H225056   3.139   2.096   1.338
 8371TIP3   OH225057   2.282   3.634   5.607
 8371TIP3    H125058   2.210   3.577   5.634
 8371TIP3    H225059   2.286   3.623   5.512
 8372TIP3   OH225060   2.426   3.548   4.348
 8372TIP3    H125061   2.500   3.562   4.406
 8372TIP3    H225062   2.386   3.467   4.379
 8373TIP3   OH225063   5.947   4.158   4.880
 8373TIP3    H125064   5.970   4.142   4.789
 8373TIP3    H225065   5.945   4.071   4.920
 8374TIP3   OH225066   2.604   7.482   0.489
 8374TIP3    H125067   2.545   7.505   0.417
 8374TIP3    H225068   2.680   7.444   0.445
 8375TIP3   OH225069   6.705   5.957   5.766
 8375TIP3    H125070   6.644   6.016   5.810
 8375TIP3    H225071   6.651   5.907   5.705
 8376TIP3   OH225072   2.177   5.405   6.575
 8376TIP3    H125073   2.253   5.463   6.562
 8376TIP3    H225074   2.213   5.328   6.618
 8377TIP3   OH225075   3.820   4.436   0.140
 8377TIP3    H125076   3.915   4.434   0.128
 8377TIP3    H225077   3.808   4.418   0.233
 8378TIP3   OH225078   3.342   1.234   3.054
 8378TIP3    H125079   3.340   1.330   3.060
 8378TIP3    H225080   3.250   1.209   3.054
 8379TIP3   OH225081   4.925   2.087   4.219
 8379TIP3    H125082   4.834   2.103   4.246
 8379TIP3    H225083   4.957   2.173   4.192
 8380TIP3   OH225084   2.171   5.040   5.847
 8380TIP3    H125085   2.173   4.969   5.910
 8380TIP3    H225086   2.137   5.115   5.896
 8381TIP3   OH225087   3.567   1.803   5.962
 8381TIP3    H125088   3.623   1.755   6.023
 8381TIP3    H225089   3.628   1.840   5.897
 8382TIP3   OH225090   6.908   6.830   4.821
 8382TIP3    H125091   6.850   6.872   4.757
 8382TIP3    H225092   6.911   6.891   4.894
 8383TIP3   OH225093   5.306   1.708   5.430
 8383TIP3    H125094   5.354   1.713   5.512
 8383TIP3    H225095   5.246   1.634   5.441
 8384TIP3   OH225096   4.597   0.931   2.072
 8384TIP3    H125097   4.575   0.943   2.165
 8384TIP3    H225098   4.524   0.881   2.037
 8385TIP3   OH225099   2.341   0.903   3.388
 8385TIP3    H125100   2.286   0.963   3.338
 8385TIP3    H225101   2.288   0.824   3.399
 8386TIP3   OH225102   0.074   7.261   6.407
 8386TIP3    H125103   0.130   7.230   6.336
 8386TIP3    H225104   0.057   7.183   6.460
 8387TIP3   OH225105   5.681   2.330   0.491
 8387TIP3    H125106   5.755   2.273   0.511
 8387TIP3    H225107   5.711   2.418   0.511
 8388TIP3   OH225108   3.219   2.745   1.101
 8388TIP3    H125109   3.161   2.809   1.061
 8388TIP3    H225110   3.281   2.798   1.152
 8389TIP3   OH225111   6.663   4.441   0.988
 8389TIP3    H125112   6.730   4.450   1.056
 8389TIP3    H225113   6.649   4.530   0.956
 8390TIP3   OH225114   7.807   6.397   3.181
 8390TIP3    H125115   7.787   6.489   3.197
 8390TIP3    H225116   7.888   6.381   3.231
 8391TIP3   OH225117   6.684   0.635   0.231
 8391TIP3    H125118   6.660   0.550   0.193
 8391TIP3    H225119   6.600   0.676   0.253
 8392TIP3   OH225120   1.405   5.409   4.365
 8392TIP3    H125121   1.327   5.465   4.360
 8392TIP3    H225122   1.416   5.393   4.459
 8393TIP3   OH225123   3.830   0.009   1.732
 8393TIP3    H125124   3.832   0.025   1.826
 8393TIP3    H225125   3.904   0.059   1.697
 8394TIP3   OH225126   3.674   0.172   3.157
 8394TIP3    H125127   3.654   0.126   3.238
 8394TIP3    H225128   3.595   0.162   3.104
 8395TIP3   OH225129   5.553   5.690   4.168
 8395TIP3    H125130   5.647   5.694   4.188
 8395TIP3    H225131   5.511   5.735   4.241
 8396TIP3   OH225132   6.634   6.429   3.186
 8396TIP3    H125133   6.630   6.437   3.281
 8396TIP3    H225134   6.727   6.417   3.166
 8397TIP3   OH225135   1.800   5.395   4.205
 8397TIP3    H125136   1.881   5.441   4.185
 8397TIP3    H225137   1.731   5.452   4.173
 8398TIP3   OH225138   3.951   1.632   0.625
 8398TIP3    H125139   3.947   1.656   0.718
 8398TIP3    H225140   4.041   1.603   0.613
 8399TIP3   OH225141   3.459   3.367   3.671
 8399TIP3    H125142   3.531   3.343   3.730
 8399TIP3    H225143   3.468   3.307   3.597
 8400TIP3   OH225144   3.522   5.604   5.218
 8400TIP3    H125145   3.588   5.674   5.223
 8400TIP3    H225146   3.439   5.651   5.209
 8401TIP3   OH225147   1.560   1.518   0.069
 8401TIP3    H125148   1.530   1.485  -0.017
 8401TIP3    H225149   1.609   1.445   0.107
 8402TIP3   OH225150   7.655   5.008   4.601
 8402TIP3    H125151   7.712   4.938   4.632
 8402TIP3    H225152   7.680   5.020   4.510
 8403TIP3   OH225153   1.130   5.012   5.545
 8403TIP3    H125154   1.070   4.974   5.481
 8403TIP3    H225155   1.124   4.955   5.621
 8404TIP3   OH225156   4.723   2.701   2.835
 8404TIP3    H125157   4.634   2.733   2.844
 8404TIP3    H225158   4.715   2.606   2.838
 8405TIP3   OH225159   1.050   2.521   3.683
 8405TIP3    H125160   0.976   2.460   3.686
 8405TIP3    H225161   1.111   2.489   3.750
 8406TIP3   OH225162   4.986   7.824   3.559
 8406TIP3    H125163   4.955   7.770   3.486
 8406TIP3    H225164   4.910   7.833   3.616
 8407TIP3   OH225165   3.848   1.916   2.725
 8407TIP3    H125166   3.931   1.919   2.676
 8407TIP3    H225167   3.831   1.822   2.736
 8408TIP3   OH225168   1.743   3.895   5.148
 8408TIP3    H125169   1.821   3.947   5.164
 8408TIP3    H225170   1.737   3.888   5.053
 8409TIP3   OH225171   1.672   2.024   2.031
 8409TIP3    H125172   1.648   1.935   2.057
 8409TIP3    H225173   1.688   2.017   1.937
 8410TIP3   OH225174   7.222   3.025   1.827
 8410TIP3    H125175   7.170   3.075   1.764
 8410TIP3    H225176   7.209   2.934   1.801
 8411TIP3   OH225177   1.624   2.001   6.158
 8411TIP3    H125178   1.682   2.050   6.100
 8411TIP3    H225179   1.636   2.041   6.244
 8412TIP3   OH225180   2.341   0.046   4.880
 8412TIP3    H125181   2.407   0.097   4.833
 8412TIP3    H225182   2.349   0.076   4.971
 8413TIP3   OH225183   6.718   2.154   5.933
 8413TIP3    H125184   6.758   2.187   5.853
 8413TIP3    H225185   6.742   2.061   5.935
 8414TIP3   OH225186   5.957   5.082   2.587
 8414TIP3    H125187   5.940   4.994   2.620
 8414TIP3    H225188   5.901   5.089   2.509
 8415TIP3   OH225189   3.414   5.366   4.346
 8415TIP3    H125190   3.391   5.450   4.307
 8415TIP3    H225191   3.459   5.389   4.428
 8416TIP3   OH225192   7.406   3.609   3.283
 8416TIP3    H125193   7.360   3.689   3.308
 8416TIP3    H225194   7.350   3.538   3.315
 8417TIP3   OH225195   1.816   1.286   2.676
 8417TIP3    H125196   1.874   1.362   2.673
 8417TIP3    H225197   1.745   1.313   2.734
 8418TIP3   OH225198   4.654   0.171   5.038
 8418TIP3    H125199   4.612   0.121   4.968
 8418TIP3    H225200   4.653   0.111   5.113
 8419TIP3   OH225201   4.662   1.668   4.781
 8419TIP3    H125202   4.630   1.738   4.725
 8419TIP3    H225203   4.728   1.623   4.728
 8420TIP3   OH225204   2.707   1.626   3.798
 8420TIP3    H125205   2.617   1.611   3.767
 8420TIP3    H225206   2.712   1.721   3.811
 8421TIP3   OH225207   4.933   5.637   6.707
 8421TIP3    H125208   4.966   5.597   6.787
 8421TIP3    H225209   4.869   5.573   6.673
 8422TIP3   OH225210   4.689   5.856   0.281
 8422TIP3    H125211   4.757   5.892   0.225
 8422TIP3    H225212   4.699   5.761   0.273
 8423TIP3   OH225213   7.121   0.208   1.141
 8423TIP3    H125214   7.076   0.210   1.057
 8423TIP3    H225215   7.092   0.127   1.182
 8424TIP3   OH225216   6.333   5.049   1.182
 8424TIP3    H125217   6.402   5.104   1.218
 8424TIP3    H225218   6.378   4.992   1.120
 8425TIP3   OH225219   4.368   6.045   5.332
 8425TIP3    H125220   4.454   6.041   5.289
 8425TIP3    H225221   4.351   5.955   5.360
 8426TIP3   OH225222   1.594   5.887   0.285
 8426TIP3    H125223   1.577   5.933   0.203
 8426TIP3    H225224   1.508   5.856   0.313
 8427TIP3   OH225225   1.839   5.684   3.408
 8427TIP3    H125226   1.807   5.727   3.328
 8427TIP3    H225227   1.800   5.597   3.407
 8428TIP3   OH225228   1.944   1.753   2.751
 8428TIP3    H125229   1.899   1.829   2.713
 8428TIP3    H225230   2.031   1.785   2.774
 8429TIP3   OH225231   1.765   4.803   5.795
 8429TIP3    H125232   1.789   4.793   5.887
 8429TIP3    H225233   1.817   4.737   5.749
 8430TIP3   OH225234   3.916   0.127   1.974
 8430TIP3    H125235   3.927   0.053   2.034
 8430TIP3    H225236   3.919   0.204   2.030
 8431TIP3   OH225237   5.879   5.474   5.025
 8431TIP3    H125238   5.850   5.506   5.110
 8431TIP3    H225239   5.823   5.398   5.007
 8432TIP3   OH225240   5.582   7.758   6.267
 8432TIP3    H125241   5.526   7.682   6.284
 8432TIP3    H225242   5.603   7.792   6.354
 8433TIP3   OH225243   1.966   5.563   0.512
 8433TIP3    H125244   2.002   5.641   0.553
 8433TIP3    H225245   1.882   5.591   0.475
 8434TIP3   OH225246   3.967   6.358   4.871
 8434TIP3    H125247   3.973   6.308   4.789
 8434TIP3    H225248   4.055   6.352   4.908
 8435TIP3   OH225249   3.704   3.012   3.630
 8435TIP3    H125250   3.703   2.991   3.537
 8435TIP3    H225251   3.660   3.097   3.636
 8436TIP3   OH225252   3.003   1.190   2.620
 8436TIP3    H125253   2.985   1.277   2.586
 8436TIP3    H225254   2.917   1.151   2.633
 8437TIP3   OH225255   0.592   3.942   5.799
 8437TIP3    H125256   0.506   3.935   5.841
 8437TIP3    H225257   0.608   3.856   5.763
 8438TIP3   OH225258   1.820   5.693   0.214
 8438TIP3    H125259   1.744   5.751   0.218
 8438TIP3    H225260   1.889   5.745   0.174
 8439TIP3   OH225261   5.555   5.083   3.964
 8439TIP3    H125262   5.585   5.158   3.913
 8439TIP3    H225263   5.463   5.074   3.942
 8440TIP3   OH225264   4.931   6.552   3.775
 8440TIP3    H125265   4.933   6.646   3.755
 8440TIP3    H225266   5.022   6.529   3.792
 8441TIP3   OH225267   6.513   4.512   0.443
 8441TIP3    H125268   6.555   4.427   0.453
 8441TIP3    H225269   6.496   4.542   0.532
 8442TIP3   OH225270   2.553   2.377   4.458
 8442TIP3    H125271   2.526   2.456   4.410
 8442TIP3    H225272   2.643   2.396   4.486
 8443TIP3   OH225273   3.961   4.061   6.262
 8443TIP3    H125274   3.966   4.021   6.348
 8443TIP3    H225275   3.974   3.989   6.201
 8444TIP3   OH225276   3.186   0.127   4.322
 8444TIP3    H125277   3.233   0.205   4.293
 8444TIP3    H225278   3.093   0.150   4.310
 8445TIP3   OH225279   4.296   4.345   0.225
 8445TIP3    H125280   4.216   4.356   0.173
 8445TIP3    H225281   4.282   4.263   0.273
 8446TIP3   OH225282   5.290   1.827   1.426
 8446TIP3    H125283   5.266   1.735   1.426
 8446TIP3    H225284   5.299   1.850   1.333
 8447TIP3   OH225285   4.776   4.527   3.096
 8447TIP3    H125286   4.821   4.611   3.085
 8447TIP3    H225287   4.686   4.544   3.067
 8448TIP3   OH225288   3.902   5.178   5.034
 8448TIP3    H125289   3.844   5.106   5.006
 8448TIP3    H225290   3.953   5.140   5.106
 8449TIP3   OH225291   8.168   1.264   3.533
 8449TIP3    H125292   8.096   1.327   3.527
 8449TIP3    H225293   8.127   1.179   3.514
 8450TIP3   OH225294   5.307   7.111   0.605
 8450TIP3    H125295   5.236   7.055   0.577
 8450TIP3    H225296   5.286   7.135   0.695
 8451TIP3   OH225297   5.961   5.341   2.772
 8451TIP3    H125298   6.010   5.262   2.747
 8451TIP3    H225299   5.871   5.322   2.747
 8452TIP3   OH225300   7.142   2.729   5.303
 8452TIP3    H125301   7.210   2.751   5.239
 8452TIP3    H225302   7.147   2.799   5.369
 8453TIP3   OH225303   6.808   4.618   2.588
 8453TIP3    H125304   6.813   4.714   2.584
 8453TIP3    H225305   6.799   4.599   2.681
 8454TIP3   OH225306   3.960   2.753   1.574
 8454TIP3    H125307   4.010   2.835   1.578
 8454TIP3    H225308   3.937   2.735   1.665
 8455TIP3   OH225309   2.528   2.738   0.809
 8455TIP3    H125310   2.439   2.708   0.825
 8455TIP3    H225311   2.556   2.775   0.892
 8456TIP3   OH225312   6.417   6.396   2.093
 8456TIP3    H125313   6.403   6.413   2.186
 8456TIP3    H225314   6.396   6.303   2.083
 8457TIP3   OH225315   2.098   7.781   4.122
 8457TIP3    H125316   2.024   7.809   4.069
 8457TIP3    H225317   2.157   7.857   4.122
 8458TIP3   OH225318   3.764   6.629   5.459
 8458TIP3    H125319   3.822   6.584   5.520
 8458TIP3    H225320   3.823   6.677   5.400
 8459TIP3   OH225321   0.697   7.054   6.625
 8459TIP3    H125322   0.765   7.073   6.559
 8459TIP3    H225323   0.615   7.065   6.578
 8460TIP3   OH225324   8.304   2.933   4.484
 8460TIP3    H125325   8.261   2.911   4.566
 8460TIP3    H225326   8.237   2.979   4.433
 8461TIP3   OH225327   0.857   4.904   2.606
 8461TIP3    H125328   0.806   4.924   2.527
 8461TIP3    H225329   0.818   4.823   2.640
 8462TIP3   OH225330   7.585   4.988   5.001
 8462TIP3    H125331   7.580   4.980   4.906
 8462TIP3    H225332   7.589   5.082   5.018
 8463TIP3   OH225333   2.597   5.686   3.050
 8463TIP3    H125334   2.589   5.644   3.135
 8463TIP3    H225335   2.530   5.755   3.051
 8464TIP3   OH225336   6.456   3.871   1.750
 8464TIP3    H125337   6.425   3.782   1.734
 8464TIP3    H225338   6.545   3.861   1.782
 8465TIP3   OH225339   2.898   0.086   6.210
 8465TIP3    H125340   2.902   0.013   6.272
 8465TIP3    H225341   2.884   0.163   6.265
 8466TIP3   OH225342   2.905   1.297   5.565
 8466TIP3    H125343   2.965   1.314   5.638
 8466TIP3    H225344   2.949   1.337   5.490
 8467TIP3   OH225345   2.813   2.260   2.126
 8467TIP3    H125346   2.786   2.190   2.066
 8467TIP3    H225347   2.903   2.238   2.149
 8468TIP3   OH225348   1.163   3.174   4.120
 8468TIP3    H125349   1.123   3.135   4.197
 8468TIP3    H225350   1.089   3.199   4.065
 8469TIP3   OH225351   4.259   6.211   4.043
 8469TIP3    H125352   4.213   6.181   4.122
 8469TIP3    H225353   4.195   6.202   3.973
 8470TIP3   OH225354   2.151   1.615   3.893
 8470TIP3    H125355   2.214   1.687   3.886
 8470TIP3    H225356   2.067   1.655   3.870
 8471TIP3   OH225357   4.818   6.784   3.344
 8471TIP3    H125358   4.798   6.701   3.301
 8471TIP3    H225359   4.793   6.769   3.436
 8472TIP3   OH225360   5.314   2.387   3.174
 8472TIP3    H125361   5.318   2.436   3.256
 8472TIP3    H225362   5.288   2.451   3.109
 8473TIP3   OH225363   7.558   3.776   1.213
 8473TIP3    H125364   7.597   3.688   1.207
 8473TIP3    H225365   7.619   3.831   1.164
 8474TIP3   OH225366   4.498   3.302   6.349
 8474TIP3    H125367   4.576   3.246   6.354
 8474TIP3    H225368   4.450   3.284   6.430
 8475TIP3   OH225369   5.019   1.614   3.315
 8475TIP3    H125370   4.997   1.550   3.247
 8475TIP3    H225371   5.071   1.564   3.378
 8476TIP3   OH225372   2.352   6.476   1.283
 8476TIP3    H125373   2.377   6.461   1.374
 8476TIP3    H225374   2.317   6.393   1.253
 8477TIP3   OH225375   0.912   6.470   6.439
 8477TIP3    H125376   0.841   6.512   6.486
 8477TIP3    H225377   0.878   6.383   6.416
 8478TIP3   OH225378   3.930   1.944   4.835
 8478TIP3    H125379   3.931   1.887   4.912
 8478TIP3    H225380   3.931   2.033   4.871
 8479TIP3   OH225381   4.178   1.088   2.283
 8479TIP3    H125382   4.187   0.994   2.268
 8479TIP3    H225383   4.266   1.123   2.268
 8480TIP3   OH225384   7.049   0.909   4.868
 8480TIP3    H125385   7.128   0.856   4.879
 8480TIP3    H225386   7.076   0.998   4.892
 8481TIP3   OH225387   4.529   0.896   4.896
 8481TIP3    H125388   4.602   0.954   4.880
 8481TIP3    H225389   4.494   0.922   4.981
 8482TIP3   OH225390   2.900   5.254   4.088
 8482TIP3    H125391   2.939   5.175   4.051
 8482TIP3    H225392   2.964   5.322   4.072
 8483TIP3   OH225393   7.367   2.989   3.477
 8483TIP3    H125394   7.330   2.909   3.515
 8483TIP3    H225395   7.364   2.975   3.383
 8484TIP3   OH225396   3.770   2.023   4.580
 8484TIP3    H125397   3.796   2.027   4.672
 8484TIP3    H225398   3.847   2.051   4.531
 8485TIP3   OH225399   3.563   4.766   1.466
 8485TIP3    H125400   3.582   4.827   1.395
 8485TIP3    H225401   3.583   4.815   1.546
 8486TIP3   OH225402   5.336   1.906   4.460
 8486TIP3    H125403   5.297   1.831   4.416
 8486TIP3    H225404   5.264   1.967   4.473
 8487TIP3   OH225405   7.333   5.970   1.955
 8487TIP3    H125406   7.288   5.969   2.039
 8487TIP3    H225407   7.263   5.954   1.891
 8488TIP3   OH225408   1.124   2.560   0.625
 8488TIP3    H125409   1.161   2.598   0.705
 8488TIP3    H225410   1.163   2.611   0.554
 8489TIP3   OH225411   0.649   2.000   4.932
 8489TIP3    H125412   0.731   1.955   4.953
 8489TIP3    H225413   0.634   2.058   5.006
 8490TIP3   OH225414   0.083   3.676   5.654
 8490TIP3    H125415   0.093   3.581   5.646
 8490TIP3    H225416   0.046   3.689   5.741
 8491TIP3   OH225417   6.378   7.283   2.890
 8491TIP3    H125418   6.318   7.231   2.836
 8491TIP3    H225419   6.359   7.256   2.980
 8492TIP3   OH225420   3.349   5.391   1.412
 8492TIP3    H125421   3.325   5.480   1.437
 8492TIP3    H225422   3.279   5.364   1.352
 8493TIP3   OH225423   2.093   5.268   1.451
 8493TIP3    H125424   2.180   5.250   1.417
 8493TIP3    H225425   2.061   5.184   1.484
 8494TIP3   OH225426   2.753   4.696   5.471
 8494TIP3    H125427   2.689   4.670   5.405
 8494TIP3    H225428   2.804   4.765   5.430
 8495TIP3   OH225429   6.641   0.526   1.990
 8495TIP3    H125430   6.612   0.444   1.949
 8495TIP3    H225431   6.573   0.546   2.054
 8496TIP3   OH225432   2.318   7.619   2.013
 8496TIP3    H125433   2.403   7.637   1.972
 8496TIP3    H225434   2.308   7.524   2.006
 8497TIP3   OH225435   7.201   4.082   1.657
 8497TIP3    H125436   7.260   4.110   1.587
 8497TIP3    H225437   7.214   4.145   1.727
 8498TIP3   OH225438   1.990   2.548   1.369
 8498TIP3    H125439   2.021   2.639   1.372
 8498TIP3    H225440   2.004   2.516   1.458
 8499TIP3   OH225441   2.478   2.655   0.301
 8499TIP3    H125442   2.402   2.648   0.358
 8499TIP3    H225443   2.553   2.661   0.360
 8500TIP3   OH225444   3.915   3.504   1.768
 8500TIP3    H125445   3.908   3.538   1.857
 8500TIP3    H225446   3.937   3.411   1.780
 8501TIP3   OH225447   4.736   6.189   4.013
 8501TIP3    H125448   4.674   6.210   4.083
 8501TIP3    H225449   4.699   6.114   3.968
 8502TIP3   OH225450   5.811   5.942   1.544
 8502TIP3    H125451   5.738   5.898   1.502
 8502TIP3    H225452   5.861   5.980   1.472
 8503TIP3   OH225453   6.167   5.627   4.255
 8503TIP3    H125454   6.073   5.614   4.261
 8503TIP3    H225455   6.193   5.659   4.342
 8504TIP3   OH225456   0.380   2.930   2.985
 8504TIP3    H125457   0.414   2.893   2.903
 8504TIP3    H225458   0.455   2.928   3.045
 8505TIP3   OH225459   5.517   4.513   6.514
 8505TIP3    H125460   5.566   4.457   6.454
 8505TIP3    H225461   5.509   4.597   6.469
 8506TIP3   OH225462   3.232   2.682   1.431
 8506TIP3    H125463   3.151   2.640   1.460
 8506TIP3    H225464   3.214   2.776   1.437
 8507TIP3   OH225465   5.595   2.646   3.246
 8507TIP3    H125466   5.627   2.643   3.336
 8507TIP3    H225467   5.533   2.719   3.244
 8508TIP3   OH225468   2.200   1.992   3.284
 8508TIP3    H125469   2.225   1.923   3.222
 8508TIP3    H225470   2.108   2.009   3.265
 8509TIP3   OH225471   0.662   7.714   3.745
 8509TIP3    H125472   0.646   7.660   3.668
 8509TIP3    H225473   0.605   7.790   3.733
 8510TIP3   OH225474   1.551   0.282   1.813
 8510TIP3    H125475   1.561   0.235   1.895
 8510TIP3    H225476   1.470   0.247   1.775
 8511TIP3   OH225477   2.055   5.438   5.026
 8511TIP3    H125478   2.042   5.527   5.060
 8511TIP3    H225479   2.066   5.384   5.104
 8512TIP3   OH225480   3.916   4.247   4.576
 8512TIP3    H125481   3.894   4.315   4.640
 8512TIP3    H225482   3.931   4.168   4.628
 8513TIP3   OH225483   1.935   3.393   3.833
 8513TIP3    H125484   1.917   3.399   3.739
 8513TIP3    H225485   1.860   3.345   3.868
 8514TIP3   OH225486   3.782   3.190   5.021
 8514TIP3    H125487   3.842   3.256   4.988
 8514TIP3    H225488   3.695   3.227   5.004
 8515TIP3   OH225489   2.286   5.550   2.958
 8515TIP3    H125490   2.201   5.576   2.922
 8515TIP3    H225491   2.344   5.551   2.882
 8516TIP3   OH225492   1.560   7.376   6.028
 8516TIP3    H125493   1.559   7.372   6.124
 8516TIP3    H225494   1.639   7.426   6.007
 8517TIP3   OH225495   4.811   2.476   6.345
 8517TIP3    H125496   4.750   2.465   6.272
 8517TIP3    H225497   4.778   2.416   6.412
 8518TIP3   OH225498   5.106   0.099   6.454
 8518TIP3    H125499   5.138   0.039   6.387
 8518TIP3    H225500   5.178   0.107   6.516
 8519TIP3   OH225501   5.491   6.949   6.244
 8519TIP3    H125502   5.449   6.865   6.258
 8519TIP3    H225503   5.569   6.947   6.300
 8520TIP3   OH225504   2.879   1.918   1.260
 8520TIP3    H125505   2.895   1.859   1.187
 8520TIP3    H225506   2.787   1.942   1.252
 8521TIP3   OH225507   1.130   0.813   1.365
 8521TIP3    H125508   1.051   0.819   1.311
 8521TIP3    H225509   1.156   0.721   1.359
 8522TIP3   OH225510   1.112   4.901   0.734
 8522TIP3    H125511   1.189   4.957   0.731
 8522TIP3    H225512   1.146   4.812   0.732
 8523TIP3   OH225513   6.399   2.896   0.819
 8523TIP3    H125514   6.492   2.886   0.839
 8523TIP3    H225515   6.371   2.809   0.790
 8524TIP3   OH225516   6.466   3.560   5.033
 8524TIP3    H125517   6.536   3.530   4.975
 8524TIP3    H225518   6.476   3.655   5.036
 8525TIP3   OH225519   3.937   2.351   2.072
 8525TIP3    H125520   3.952   2.437   2.111
 8525TIP3    H225521   3.852   2.358   2.030
 8526TIP3   OH225522   1.152   2.309   2.571
 8526TIP3    H125523   1.120   2.371   2.505
 8526TIP3    H225524   1.155   2.225   2.525
 8527TIP3   OH225525   0.592   0.021   1.631
 8527TIP3    H125526   0.583   0.112   1.660
 8527TIP3    H225527   0.634  -0.024   1.705
 8528TIP3   OH225528   0.168   2.103   3.524
 8528TIP3    H125529   0.121   2.077   3.603
 8528TIP3    H225530   0.258   2.071   3.538
 8529TIP3   OH225531   0.119   6.735   4.660
 8529TIP3    H125532   0.150   6.793   4.729
 8529TIP3    H225533   0.146   6.647   4.687
 8530TIP3   OH225534   1.939   4.896   6.264
 8530TIP3    H125535   1.941   4.825   6.200
 8530TIP3    H225536   1.893   4.859   6.339
 8531TIP3   OH225537   3.359   4.620   0.324
 8531TIP3    H125538   3.369   4.543   0.379
 8531TIP3    H225539   3.448   4.644   0.299
 8532TIP3   OH225540   7.064   3.859   4.634
 8532TIP3    H125541   7.013   3.939   4.622
 8532TIP3    H225542   7.090   3.833   4.546
 8533TIP3   OH225543   5.500   5.979   1.183
 8533TIP3    H125544   5.573   5.972   1.244
 8533TIP3    H225545   5.491   5.892   1.145
 8534TIP3   OH225546   2.511   3.288   3.514
 8534TIP3    H125547   2.606   3.282   3.502
 8534TIP3    H225548   2.491   3.381   3.503
 8535TIP3   OH225549   2.937   2.210   2.562
 8535TIP3    H125550   2.842   2.195   2.562
 8535TIP3    H225551   2.972   2.142   2.504
 8536TIP3   OH225552   0.319   2.947   1.755
 8536TIP3    H125553   0.317   3.028   1.705
 8536TIP3    H225554   0.403   2.948   1.800
 8537TIP3   OH225555   5.801   3.228   4.289
 8537TIP3    H125556   5.741   3.173   4.239
 8537TIP3    H225557   5.751   3.251   4.368
 8538TIP3   OH225558   3.364   1.200   5.867
 8538TIP3    H125559   3.458   1.200   5.881
 8538TIP3    H225560   3.334   1.119   5.908
 8539TIP3   OH225561   3.344   1.829   5.826
 8539TIP3    H125562   3.280   1.773   5.869
 8539TIP3    H225563   3.428   1.804   5.865
 8540TIP3   OH225564   5.270   5.205   3.587
 8540TIP3    H125565   5.275   5.277   3.525
 8540TIP3    H225566   5.362   5.178   3.600
 8541TIP3   OH225567   2.747   3.007   2.774
 8541TIP3    H125568   2.825   3.027   2.826
 8541TIP3    H225569   2.780   3.004   2.684
 8542TIP3   OH225570   4.546   1.288   1.172
 8542TIP3    H125571   4.506   1.288   1.085
 8542TIP3    H225572   4.501   1.217   1.219
 8543TIP3   OH225573   4.213   4.853   6.082
 8543TIP3    H125574   4.218   4.817   5.994
 8543TIP3    H225575   4.226   4.947   6.071
 8544TIP3   OH225576   6.497   0.407   0.514
 8544TIP3    H125577   6.407   0.428   0.491
 8544TIP3    H225578   6.490   0.367   0.601
 8545TIP3   OH225579   6.773   7.249   1.519
 8545TIP3    H125580   6.801   7.341   1.518
 8545TIP3    H225581   6.786   7.221   1.610
 8546TIP3   OH225582   0.894   6.630   1.996
 8546TIP3    H125583   0.861   6.560   2.052
 8546TIP3    H225584   0.978   6.598   1.964
 8547TIP3   OH225585   5.848   3.765   3.276
 8547TIP3    H125586   5.805   3.839   3.319
 8547TIP3    H225587   5.858   3.793   3.185
 8548TIP3   OH225588   5.302   1.243   5.709
 8548TIP3    H125589   5.394   1.218   5.706
 8548TIP3    H225590   5.283   1.278   5.622
 8549TIP3   OH225591   5.224   2.415   2.755
 8549TIP3    H125592   5.144   2.366   2.734
 8549TIP3    H225593   5.291   2.348   2.765
 8550TIP3   OH225594   1.784   4.467   1.864
 8550TIP3    H125595   1.699   4.487   1.824
 8550TIP3    H225596   1.816   4.391   1.815
 8551TIP3   OH225597   5.643   5.739   0.321
 8551TIP3    H125598   5.701   5.725   0.246
 8551TIP3    H225599   5.661   5.829   0.349
 8552TIP3   OH225600   5.795   2.132   4.504
 8552TIP3    H125601   5.734   2.090   4.443
 8552TIP3    H225602   5.880   2.093   4.483
 8553TIP3   OH225603   0.254   6.436   5.881
 8553TIP3    H125604   0.325   6.422   5.818
 8553TIP3    H225605   0.191   6.491   5.834
 8554TIP3   OH225606   4.244   3.414   3.306
 8554TIP3    H125607   4.287   3.329   3.311
 8554TIP3    H225608   4.151   3.393   3.302
 8555TIP3   OH225609   6.942   1.209   3.391
 8555TIP3    H125610   6.853   1.210   3.426
 8555TIP3    H225611   6.998   1.198   3.468
 8556TIP3   OH225612   3.545   3.280   4.939
 8556TIP3    H125613   3.555   3.341   4.866
 8556TIP3    H225614   3.460   3.304   4.977
 8557TIP3   OH225615   3.383   5.540   3.125
 8557TIP3    H125616   3.374   5.598   3.049
 8557TIP3    H225617   3.464   5.567   3.167
 8558TIP3   OH225618   2.798   3.020   6.214
 8558TIP3    H125619   2.892   3.018   6.195
 8558TIP3    H225620   2.756   3.004   6.129
 8559TIP3   OH225621   3.612   1.683   6.301
 8559TIP3    H125622   3.638   1.774   6.289
 8559TIP3    H225623   3.695   1.636   6.313
 8560TIP3   OH225624   1.256   5.489   4.078
 8560TIP3    H125625   1.277   5.429   4.150
 8560TIP3    H225626   1.166   5.467   4.055
 8561TIP3   OH225627   7.708   3.559   5.365
 8561TIP3    H125628   7.676   3.489   5.423
 8561TIP3    H225629   7.655   3.635   5.389
 8562TIP3   OH225630   5.210   2.788   2.965
 8562TIP3    H125631   5.170   2.705   2.992
 8562TIP3    H225632   5.174   2.852   3.026
 8563TIP3   OH225633   7.907   5.508   2.018
 8563TIP3    H125634   7.837   5.477   2.075
 8563TIP3    H225635   7.982   5.519   2.077
 8564TIP3   OH225636   0.220   3.207   2.624
 8564TIP3    H125637   0.141   3.178   2.578
 8564TIP3    H225638   0.188   3.246   2.705
 8565TIP3   OH225639   6.753   7.027   2.357
 8565TIP3    H125640   6.664   6.992   2.365
 8565TIP3    H225641   6.807   6.966   2.407
 8566TIP3   OH225642   2.682   5.794   3.517
 8566TIP3    H125643   2.775   5.803   3.496
 8566TIP3    H225644   2.636   5.835   3.443
 8567TIP3   OH225645   7.868   2.397   5.299
 8567TIP3    H125646   7.781   2.421   5.268
 8567TIP3    H225647   7.891   2.320   5.247
 8568TIP3   OH225648   2.457   3.598   4.841
 8568TIP3    H125649   2.499   3.638   4.765
 8568TIP3    H225650   2.373   3.643   4.850
 8569TIP3   OH225651   1.951   3.277   1.320
 8569TIP3    H125652   2.006   3.225   1.378
 8569TIP3    H225653   1.866   3.234   1.323
 8570TIP3   OH225654   6.906   7.286   0.874
 8570TIP3    H125655   6.957   7.349   0.925
 8570TIP3    H225656   6.884   7.333   0.793
 8571TIP3   OH225657   2.880   4.696   0.623
 8571TIP3    H125658   2.866   4.612   0.668
 8571TIP3    H225659   2.950   4.678   0.560
 8572TIP3   OH225660   3.264   7.041   4.576
 8572TIP3    H125661   3.317   6.974   4.620
 8572TIP3    H225662   3.178   7.000   4.567
 8573TIP3   OH225663   1.783   5.200   6.588
 8573TIP3    H125664   1.838   5.229   6.515
 8573TIP3    H225665   1.813   5.252   6.663
 8574TIP3   OH225666   6.087   2.994   5.982
 8574TIP3    H125667   6.109   3.026   6.070
 8574TIP3    H225668   6.063   2.902   5.996
 8575TIP3   OH225669   0.759   0.486   1.448
 8575TIP3    H125670   0.681   0.452   1.403
 8575TIP3    H225671   0.732   0.495   1.539
 8576TIP3   OH225672   6.829   1.159   1.764
 8576TIP3    H125673   6.747   1.117   1.789
 8576TIP3    H225674   6.818   1.183   1.672
 8577TIP3   OH225675   1.628   4.904   3.109
 8577TIP3    H125676   1.628   4.808   3.109
 8577TIP3    H225677   1.721   4.927   3.105
 8578TIP3   OH225678   7.672   4.728   6.404
 8578TIP3    H125679   7.648   4.650   6.454
 8578TIP3    H225680   7.704   4.790   6.470
 8579TIP3   OH225681   6.180   3.629   1.444
 8579TIP3    H125682   6.242   3.687   1.489
 8579TIP3    H225683   6.148   3.570   1.513
 8580TIP3   OH225684   6.422   4.110   0.229
 8580TIP3    H125685   6.416   4.049   0.156
 8580TIP3    H225686   6.468   4.186   0.194
 8581TIP3   OH225687   2.841   6.804   3.341
 8581TIP3    H125688   2.813   6.798   3.432
 8581TIP3    H225689   2.914   6.866   3.342
 8582TIP3   OH225690   2.030   4.941   0.308
 8582TIP3    H125691   2.054   5.033   0.305
 8582TIP3    H225692   2.085   4.903   0.377
 8583TIP3   OH225693   0.752   3.954   6.144
 8583TIP3    H125694   0.669   3.961   6.191
 8583TIP3    H225695   0.742   4.011   6.068
 8584TIP3   OH225696   0.270   2.085   0.816
 8584TIP3    H125697   0.187   2.117   0.850
 8584TIP3    H225698   0.249   2.050   0.730
 8585TIP3   OH225699   5.528   4.309   4.391
 8585TIP3    H125700   5.516   4.214   4.396
 8585TIP3    H225701   5.535   4.337   4.482
 8586TIP3   OH225702   1.534   3.730   2.323
 8586TIP3    H125703   1.611   3.748   2.378
 8586TIP3    H225704   1.553   3.776   2.241
 8587TIP3   OH225705   3.411   7.630   4.963
 8587TIP3    H125706   3.476   7.649   5.031
 8587TIP3    H225707   3.414   7.706   4.906
 8588TIP3   OH225708   0.454   3.956   4.694
 8588TIP3    H125709   0.397   4.006   4.636
 8588TIP3    H225710   0.540   3.960   4.652
 8589TIP3   OH225711   6.277   1.593   6.557
 8589TIP3    H125712   6.302   1.677   6.518
 8589TIP3    H225713   6.332   1.585   6.635
 8590TIP3   OH225714   1.814   5.317   0.449
 8590TIP3    H125715   1.769   5.341   0.369
 8590TIP3    H225716   1.902   5.353   0.438
 8591TIP3   OH225717   8.222   4.976   3.538
 8591TIP3    H125718   8.230   5.068   3.563
 8591TIP3    H225719   8.284   4.929   3.593
 8592TIP3   OH225720   0.552   2.190   1.770
 8592TIP3    H125721   0.576   2.099   1.753
 8592TIP3    H225722   0.547   2.196   1.865
 8593TIP3   OH225723   2.771   4.129   3.031
 8593TIP3    H125724   2.760   4.216   2.992
 8593TIP3    H225725   2.865   4.113   3.030
 8594TIP3   OH225726   6.899   7.077   2.053
 8594TIP3    H125727   6.932   6.999   2.097
 8594TIP3    H225728   6.810   7.088   2.087
 8595TIP3   OH225729   3.998   4.114   4.094
 8595TIP3    H125730   4.035   4.142   4.011
 8595TIP3    H225731   4.074   4.090   4.147
 8596TIP3   OH225732   2.662   0.661   0.052
 8596TIP3    H125733   2.739   0.643   0.106
 8596TIP3    H225734   2.595   0.687   0.115
 8597TIP3   OH225735   2.948   0.953   0.408
 8597TIP3    H125736   2.876   0.956   0.471
 8597TIP3    H225737   3.014   1.013   0.444
 8598TIP3   OH225738   2.117   3.570   2.201
 8598TIP3    H125739   2.115   3.634   2.272
 8598TIP3    H225740   2.200   3.586   2.156
 8599TIP3   OH225741   8.023   0.241   2.589
 8599TIP3    H125742   7.989   0.330   2.577
 8599TIP3    H225743   8.069   0.244   2.673
 8600TIP3   OH225744   5.410   0.392   0.190
 8600TIP3    H125745   5.336   0.338   0.220
 8600TIP3    H225746   5.487   0.337   0.204
 8601TIP3   OH225747   2.424   4.617   0.919
 8601TIP3    H125748   2.350   4.663   0.958
 8601TIP3    H225749   2.501   4.652   0.964
 8602TIP3   OH225750   3.145   0.296   0.928
 8602TIP3    H125751   3.115   0.366   0.986
 8602TIP3    H225752   3.145   0.217   0.983
 8603TIP3   OH225753   7.109   1.756   5.730
 8603TIP3    H125754   7.066   1.694   5.790
 8603TIP3    H225755   7.157   1.700   5.669
 8604TIP3   OH225756   3.312   3.523   3.007
 8604TIP3    H125757   3.392   3.557   2.967
 8604TIP3    H225758   3.337   3.438   3.043
 8605TIP3   OH225759   2.630   1.577   5.443
 8605TIP3    H125760   2.558   1.630   5.478
 8605TIP3    H225761   2.613   1.489   5.475
 8606TIP3   OH225762   2.493   1.329   2.635
 8606TIP3    H125763   2.407   1.287   2.633
 8606TIP3    H225764   2.503   1.358   2.725
 8607TIP3   OH225765   1.829   0.664   5.271
 8607TIP3    H125766   1.770   0.727   5.313
 8607TIP3    H225767   1.771   0.596   5.237
 8608TIP3   OH225768   6.252   7.279   0.553
 8608TIP3    H125769   6.184   7.255   0.616
 8608TIP3    H225770   6.317   7.209   0.561
 8609TIP3   OH225771   6.053   3.949   6.677
 8609TIP3    H125772   6.094   4.031   6.647
 8609TIP3    H225773   5.988   3.977   6.741
 8610TIP3   OH225774   2.133   2.133   1.615
 8610TIP3    H125775   2.178   2.050   1.629
 8610TIP3    H225776   2.060   2.132   1.677
 8611TIP3   OH225777   3.429   7.826   2.208
 8611TIP3    H125778   3.513   7.787   2.181
 8611TIP3    H225779   3.397   7.870   2.129
 8612TIP3   OH225780   8.254   4.324   4.991
 8612TIP3    H125781   8.272   4.307   4.899
 8612TIP3    H225782   8.288   4.248   5.038
 8613TIP3   OH225783   3.884   7.022   1.634
 8613TIP3    H125784   3.930   6.942   1.609
 8613TIP3    H225785   3.822   6.995   1.701
 8614TIP3   OH225786   6.813   1.160   3.714
 8614TIP3    H125787   6.774   1.126   3.634
 8614TIP3    H225788   6.764   1.240   3.733
 8615TIP3   OH225789   1.668   2.713   5.502
 8615TIP3    H125790   1.714   2.649   5.447
 8615TIP3    H225791   1.695   2.691   5.591
 8616TIP3   OH225792   3.258   2.888   2.569
 8616TIP3    H125793   3.196   2.848   2.508
 8616TIP3    H225794   3.282   2.817   2.628
 8617TIP3   OH225795   3.770   2.396   6.028
 8617TIP3    H125796   3.834   2.425   6.092
 8617TIP3    H225797   3.772   2.300   6.033
 8618TIP3   OH225798   0.979   6.246   1.415
 8618TIP3    H125799   0.897   6.269   1.458
 8618TIP3    H225800   1.031   6.326   1.418
 8619TIP3   OH225801   0.810   0.474   3.030
 8619TIP3    H125802   0.804   0.452   2.937
 8619TIP3    H225803   0.817   0.570   3.031
 8620TIP3   OH225804   2.301   7.289   0.510
 8620TIP3    H125805   2.256   7.272   0.427
 8620TIP3    H225806   2.243   7.348   0.557
 8621TIP3   OH225807   2.142   3.101   5.188
 8621TIP3    H125808   2.225   3.103   5.140
 8621TIP3    H225809   2.077   3.131   5.124
 8622TIP3   OH225810   1.374   7.638   4.375
 8622TIP3    H125811   1.444   7.644   4.440
 8622TIP3    H225812   1.293   7.652   4.424
 8623TIP3   OH225813   1.435   5.966   6.091
 8623TIP3    H125814   1.375   5.901   6.053
 8623TIP3    H225815   1.522   5.935   6.067
 8624TIP3   OH225816   6.649   3.603   1.543
 8624TIP3    H125817   6.678   3.645   1.624
 8624TIP3    H225818   6.624   3.676   1.486
 8625TIP3   OH225819   1.923   1.738   4.052
 8625TIP3    H125820   1.943   1.826   4.018
 8625TIP3    H225821   1.869   1.754   4.129
 8626TIP3   OH225822   4.692   2.724   4.670
 8626TIP3    H125823   4.758   2.676   4.719
 8626TIP3    H225824   4.694   2.812   4.707
 8627TIP3   OH225825   5.285   3.478   4.467
 8627TIP3    H125826   5.221   3.418   4.430
 8627TIP3    H225827   5.335   3.510   4.392
 8628TIP3   OH225828   1.983   2.547   3.603
 8628TIP3    H125829   1.985   2.474   3.665
 8628TIP3    H225830   2.050   2.526   3.538
 8629TIP3   OH225831   1.959   2.570   5.023
 8629TIP3    H125832   2.001   2.507   5.082
 8629TIP3    H225833   2.030   2.628   4.995
 8630TIP3   OH225834   7.285   6.119   4.452
 8630TIP3    H125835   7.225   6.139   4.524
 8630TIP3    H225836   7.317   6.031   4.471
 8631TIP3   OH225837   7.931   2.563   6.442
 8631TIP3    H125838   8.014   2.529   6.410
 8631TIP3    H225839   7.953   2.649   6.478
 8632TIP3   OH225840   2.149   0.193   2.766
 8632TIP3    H125841   2.137   0.100   2.749
 8632TIP3    H225842   2.144   0.201   2.861
 8633TIP3   OH225843   2.488   5.541   3.258
 8633TIP3    H125844   2.420   5.491   3.214
 8633TIP3    H225845   2.481   5.516   3.350
 8634TIP3   OH225846   2.556   4.315   6.578
 8634TIP3    H125847   2.637   4.357   6.605
 8634TIP3    H225848   2.548   4.238   6.635
 8635TIP3   OH225849   6.470   5.804   3.517
 8635TIP3    H125850   6.560   5.810   3.547
 8635TIP3    H225851   6.419   5.784   3.595
 8636TIP3   OH225852   6.444   3.325   2.053
 8636TIP3    H125853   6.348   3.329   2.055
 8636TIP3    H225854   6.464   3.284   1.969
 8637TIP3   OH225855   7.827   4.676   0.042
 8637TIP3    H125856   7.784   4.617  -0.020
 8637TIP3    H225857   7.758   4.701   0.104
 8638TIP3   OH225858   3.827   4.423   1.389
 8638TIP3    H125859   3.871   4.409   1.473
 8638TIP3    H225860   3.862   4.353   1.333
 8639TIP3   OH225861   3.494   2.053   2.710
 8639TIP3    H125862   3.444   2.029   2.632
 8639TIP3    H225863   3.448   2.011   2.782
 8640TIP3   OH225864   2.777   5.538   6.704
 8640TIP3    H125865   2.755   5.464   6.760
 8640TIP3    H225866   2.873   5.535   6.698
 8641TIP3   OH225867   0.514   5.529   1.086
 8641TIP3    H125868   0.607   5.544   1.102
 8641TIP3    H225869   0.497   5.441   1.117
 8642TIP3   OH225870   0.899   2.736   4.814
 8642TIP3    H125871   0.849   2.818   4.812
 8642TIP3    H225872   0.832   2.667   4.811
 8643TIP3   OH225873   5.395   6.848   2.041
 8643TIP3    H125874   5.389   6.938   2.073
 8643TIP3    H225875   5.398   6.857   1.946
 8644TIP3   OH225876   3.488   6.158   4.475
 8644TIP3    H125877   3.446   6.241   4.452
 8644TIP3    H225878   3.507   6.166   4.569
 8645TIP3   OH225879   1.981   3.990   1.901
 8645TIP3    H125880   2.041   4.026   1.836
 8645TIP3    H225881   1.967   3.899   1.874
 8646TIP3   OH225882   3.963   4.565   6.742
 8646TIP3    H125883   4.026   4.499   6.713
 8646TIP3    H225884   3.877   4.527   6.723
 8647TIP3   OH225885   6.627   0.903   3.096
 8647TIP3    H125886   6.532   0.894   3.105
 8647TIP3    H225887   6.639   0.952   3.014
 8648TIP3   OH225888   5.973   6.453   6.068
 8648TIP3    H125889   5.924   6.522   6.023
 8648TIP3    H225890   6.061   6.491   6.080
 8649TIP3   OH225891   7.554   3.356   5.515
 8649TIP3    H125892   7.463   3.378   5.536
 8649TIP3    H225893   7.550   3.320   5.426
 8650TIP3   OH225894   0.755   1.559   3.594
 8650TIP3    H125895   0.792   1.626   3.650
 8650TIP3    H225896   0.808   1.562   3.514
 8651TIP3   OH225897   6.860   2.249   0.786
 8651TIP3    H125898   6.771   2.283   0.776
 8651TIP3    H225899   6.913   2.305   0.729
 8652TIP3   OH225900   1.800   6.264   4.338
 8652TIP3    H125901   1.767   6.343   4.293
 8652TIP3    H225902   1.892   6.283   4.354
 8653TIP3   OH225903   7.280   4.293   5.472
 8653TIP3    H125904   7.251   4.323   5.386
 8653TIP3    H225905   7.374   4.276   5.462
 8654TIP3   OH225906   5.877   4.506   6.382
 8654TIP3    H125907   5.901   4.550   6.463
 8654TIP3    H225908   5.813   4.440   6.408
 8655TIP3   OH225909   7.113   5.472   4.799
 8655TIP3    H125910   7.062   5.413   4.744
 8655TIP3    H225911   7.161   5.415   4.858
 8656TIP3   OH225912   7.099   2.305   4.615
 8656TIP3    H125913   7.109   2.262   4.530
 8656TIP3    H225914   7.188   2.330   4.640
 8657TIP3   OH225915   8.083   2.278   6.051
 8657TIP3    H125916   8.077   2.368   6.018
 8657TIP3    H225917   8.169   2.248   6.022
 8658TIP3   OH225918   0.076   4.801   1.363
 8658TIP3    H125919   0.171   4.796   1.349
 8658TIP3    H225920   0.063   4.886   1.405
 8659TIP3   OH225921   0.154   6.939   3.307
 8659TIP3    H125922   0.222   6.872   3.309
 8659TIP3    H225923   0.179   6.996   3.234
 8660TIP3   OH225924   4.438   3.562   2.894
 8660TIP3    H125925   4.510   3.623   2.908
 8660TIP3    H225926   4.383   3.571   2.972
 8661TIP3   OH225927   0.218   4.929   2.657
 8661TIP3    H125928   0.269   4.980   2.594
 8661TIP3    H225929   0.264   4.845   2.662
 8662TIP3   OH225930   1.621   3.448   1.987
 8662TIP3    H125931   1.597   3.456   1.894
 8662TIP3    H225932   1.716   3.460   1.987
 8663TIP3   OH225933   2.953   7.010   4.264
 8663TIP3    H125934   2.989   7.099   4.267
 8663TIP3    H225935   2.966   6.975   4.352
 8664TIP3   OH225936   5.650   5.274   5.187
 8664TIP3    H125937   5.643   5.195   5.240
 8664TIP3    H225938   5.576   5.328   5.214
 8665TIP3   OH225939   6.754   6.696   3.012
 8665TIP3    H125940   6.847   6.680   3.028
 8665TIP3    H225941   6.711   6.674   3.095
 8666TIP3   OH225942   4.162   6.728   1.268
 8666TIP3    H125943   4.135   6.782   1.342
 8666TIP3    H225944   4.116   6.765   1.193
 8667TIP3   OH225945   1.094   6.433   4.919
 8667TIP3    H125946   1.019   6.427   4.978
 8667TIP3    H225947   1.055   6.452   4.834
 8668TIP3   OH225948   5.936   4.423   4.598
 8668TIP3    H125949   5.934   4.486   4.670
 8668TIP3    H225950   6.016   4.444   4.550
 8669TIP3   OH225951   6.448   3.019   5.704
 8669TIP3    H125952   6.451   3.057   5.616
 8669TIP3    H225953   6.537   2.987   5.719
 8670TIP3   OH225954   3.397   2.359   3.140
 8670TIP3    H125955   3.470   2.349   3.201
 8670TIP3    H225956   3.319   2.340   3.193
 8671TIP3   OH225957   2.687   4.964   3.035
 8671TIP3    H125958   2.605   4.917   3.028
 8671TIP3    H225959   2.664   5.046   3.080
 8672TIP3   OH225960   1.669   0.969   4.162
 8672TIP3    H125961   1.716   1.012   4.233
 8672TIP3    H225962   1.579   0.961   4.194
 8673TIP3   OH225963   3.968   3.155   5.636
 8673TIP3    H125964   4.019   3.132   5.559
 8673TIP3    H225965   3.922   3.075   5.660
 8674TIP3   OH225966   2.139   6.064   4.705
 8674TIP3    H125967   2.097   5.979   4.691
 8674TIP3    H225968   2.095   6.123   4.643
 8675TIP3   OH225969   6.439   1.009   5.218
 8675TIP3    H125970   6.509   1.051   5.268
 8675TIP3    H225971   6.485   0.966   5.145
 8676TIP3   OH225972   7.404   0.096   5.634
 8676TIP3    H125973   7.419   0.058   5.721
 8676TIP3    H225974   7.315   0.071   5.612
 8677TIP3   OH225975   1.164   6.681   5.315
 8677TIP3    H125976   1.074   6.713   5.307
 8677TIP3    H225977   1.183   6.685   5.408
 8678TIP3   OH225978   5.184   2.478   6.556
 8678TIP3    H125979   5.207   2.385   6.558
 8678TIP3    H225980   5.248   2.520   6.613
 8679TIP3   OH225981   3.330   2.267   2.678
 8679TIP3    H125982   3.407   2.218   2.705
 8679TIP3    H225983   3.294   2.303   2.760
 8680TIP3   OH225984   7.251   3.321   4.278
 8680TIP3    H125985   7.266   3.256   4.209
 8680TIP3    H225986   7.339   3.340   4.312
 8681TIP3   OH225987   7.076   5.943   3.445
 8681TIP3    H125988   7.061   6.027   3.488
 8681TIP3    H225989   6.998   5.891   3.467
 8682TIP3   OH225990   0.431   2.763   6.242
 8682TIP3    H125991   0.376   2.777   6.166
 8682TIP3    H225992   0.414   2.672   6.268
 8683TIP3   OH225993   2.454   3.200   2.075
 8683TIP3    H125994   2.476   3.262   2.144
 8683TIP3    H225995   2.396   3.137   2.117
 8684TIP3   OH225996   4.359   4.047   6.138
 8684TIP3    H125997   4.390   4.108   6.205
 8684TIP3    H225998   4.378   3.960   6.173
 8685TIP3   OH225999   6.800   5.256   6.353
 8685TIP3    H126000   6.746   5.305   6.290
 8685TIP3    H226001   6.753   5.265   6.436
 8686TIP3   OH226002   8.005   3.866   6.862
 8686TIP3    H126003   8.084   3.841   6.813
 8686TIP3    H226004   7.970   3.941   6.814
 8687TIP3   OH226005   5.289   6.219   1.697
 8687TIP3    H126006   5.377   6.250   1.719
 8687TIP3    H226007   5.262   6.166   1.772
 8688TIP3   OH226008   3.412   3.635   1.549
 8688TIP3    H126009   3.460   3.658   1.469
 8688TIP3    H226010   3.476   3.589   1.603
 8689TIP3   OH226011   7.723   6.695   5.552
 8689TIP3    H126012   7.691   6.637   5.483
 8689TIP3    H226013   7.755   6.635   5.620
 8690TIP3   OH226014   6.465   7.495   2.136
 8690TIP3    H126015   6.451   7.473   2.228
 8690TIP3    H226016   6.397   7.447   2.089
 8691TIP3   OH226017   5.656   7.547   4.878
 8691TIP3    H126018   5.601   7.617   4.844
 8691TIP3    H226019   5.721   7.591   4.933
 8692TIP3   OH226020   5.474   3.744   2.208
 8692TIP3    H126021   5.441   3.768   2.122
 8692TIP3    H226022   5.432   3.659   2.227
 8693TIP3   OH226023   4.743   2.774   0.188
 8693TIP3    H126024   4.700   2.830   0.254
 8693TIP3    H226025   4.796   2.835   0.137
 8694TIP3   OH226026   0.420   0.219   3.507
 8694TIP3    H126027   0.503   0.217   3.555
 8694TIP3    H226028   0.431   0.154   3.438
 8695TIP3   OH226029   2.721   3.005   0.137
 8695TIP3    H126030   2.699   2.983   0.228
 8695TIP3    H226031   2.654   2.960   0.085
 8696TIP3   OH226032   5.762   5.396   5.496
 8696TIP3    H126033   5.679   5.353   5.517
 8696TIP3    H226034   5.798   5.422   5.581
 8697TIP3   OH226035   4.287   2.481   1.417
 8697TIP3    H126036   4.378   2.509   1.423
 8697TIP3    H226037   4.259   2.506   1.329
 8698TIP3   OH226038   7.081   6.617   5.305
 8698TIP3    H126039   7.064   6.707   5.333
 8698TIP3    H226040   7.119   6.625   5.218
 8699TIP3   OH226041   2.975   2.772   0.682
 8699TIP3    H126042   3.056   2.785   0.633
 8699TIP3    H226043   2.980   2.681   0.712
 8700TIP3   OH226044   7.878   4.932   6.647
 8700TIP3    H126045   7.834   4.852   6.676
 8700TIP3    H226046   7.905   4.975   6.727
 8701TIP3   OH226047   1.492   3.281   6.741
 8701TIP3    H126048   1.429   3.259   6.672
 8701TIP3    H226049   1.495   3.202   6.795
 8702TIP3   OH226050   0.766   6.223   0.053
 8702TIP3    H126051   0.780   6.310   0.092
 8702TIP3    H226052   0.853   6.196   0.023
 8703TIP3   OH226053   6.864   5.461   4.930
 8703TIP3    H126054   6.787   5.466   4.873
 8703TIP3    H226055   6.938   5.453   4.869
 8704TIP3   OH226056   3.089   5.012   6.047
 8704TIP3    H126057   3.068   4.941   6.108
 8704TIP3    H226058   3.047   5.089   6.085
 8705TIP3   OH226059   6.360   0.926   1.254
 8705TIP3    H126060   6.443   0.943   1.210
 8705TIP3    H226061   6.353   0.994   1.321
 8706TIP3   OH226062   5.911   7.607   0.742
 8706TIP3    H126063   5.863   7.539   0.695
 8706TIP3    H226064   5.984   7.629   0.685
 8707TIP3   OH226065   1.767   3.165   2.469
 8707TIP3    H126066   1.724   3.105   2.408
 8707TIP3    H226067   1.747   3.252   2.434
 8708TIP3   OH226068   4.996   5.966   0.481
 8708TIP3    H126069   4.953   5.986   0.397
 8708TIP3    H226070   5.086   5.946   0.458
 8709TIP3   OH226071   7.548   7.490   1.828
 8709TIP3    H126072   7.462   7.521   1.857
 8709TIP3    H226073   7.555   7.518   1.737
 8710TIP3   OH226074   5.445   2.631   0.739
 8710TIP3    H126075   5.508   2.622   0.810
 8710TIP3    H226076   5.405   2.716   0.752
 8711TIP3   OH226077   6.990   4.474   2.884
 8711TIP3    H126078   6.962   4.390   2.849
 8711TIP3    H226079   6.973   4.469   2.978
 8712TIP3   OH226080   5.247   2.759   3.856
 8712TIP3    H126081   5.202   2.820   3.797
 8712TIP3    H226082   5.179   2.699   3.886
 8713TIP3   OH226083   3.953   6.327   3.467
 8713TIP3    H126084   4.004   6.249   3.446
 8713TIP3    H226085   3.884   6.295   3.526
 8714TIP3   OH226086   7.966   1.779   3.617
 8714TIP3    H126087   7.931   1.837   3.549
 8714TIP3    H226088   8.032   1.727   3.572
 8715TIP3   OH226089   2.917   3.770   4.683
 8715TIP3    H126090   3.006   3.787   4.715
 8715TIP3    H226091   2.929   3.739   4.593
 8716TIP3   OH226092   3.904   4.447   3.648
 8716TIP3    H126093   3.933   4.482   3.732
 8716TIP3    H226094   3.808   4.447   3.654
 8717TIP3   OH226095   6.071   4.134   0.868
 8717TIP3    H126096   6.161   4.154   0.844
 8717TIP3    H226097   6.047   4.061   0.811
 8718TIP3   OH226098   2.020   0.854   1.183
 8718TIP3    H126099   2.103   0.807   1.171
 8718TIP3    H226100   1.978   0.810   1.257
 8719TIP3   OH226101   4.785   7.131   0.604
 8719TIP3    H126102   4.861   7.074   0.591
 8719TIP3    H226103   4.723   7.104   0.537
 8720TIP3   OH226104   3.372   1.303   5.633
 8720TIP3    H126105   3.368   1.264   5.720
 8720TIP3    H226106   3.409   1.390   5.647
 8721TIP3   OH226107   0.311   0.560   3.845
 8721TIP3    H126108   0.314   0.470   3.878
 8721TIP3    H226109   0.221   0.570   3.814
 8722TIP3   OH226110   3.433   6.112   1.620
 8722TIP3    H126111   3.487   6.138   1.695
 8722TIP3    H226112   3.380   6.189   1.601
 8723TIP3   OH226113   8.257   1.947   5.507
 8723TIP3    H126114   8.300   1.949   5.592
 8723TIP3    H226115   8.329   1.940   5.444
 8724TIP3   OH226116   2.828   7.543   4.453
 8724TIP3    H126117   2.861   7.470   4.400
 8724TIP3    H226118   2.745   7.567   4.412
 8725TIP3   OH226119   1.054   2.223   4.512
 8725TIP3    H126120   1.056   2.170   4.433
 8725TIP3    H226121   1.119   2.292   4.496
 8726TIP3   OH226122   3.797   7.624   5.634
 8726TIP3    H126123   3.822   7.564   5.703
 8726TIP3    H226124   3.721   7.583   5.592
 8727TIP3   OH226125   7.279   2.777   1.502
 8727TIP3    H126126   7.361   2.731   1.517
 8727TIP3    H226127   7.301   2.845   1.438
 8728TIP3   OH226128   7.385   4.936   5.364
 8728TIP3    H126129   7.455   4.927   5.300
 8728TIP3    H226130   7.417   5.005   5.424
 8729TIP3   OH226131   2.689   2.165   1.862
 8729TIP3    H126132   2.713   2.133   1.775
 8729TIP3    H226133   2.619   2.228   1.846
 8730TIP3   OH226134   3.468   7.045   6.381
 8730TIP3    H126135   3.407   7.083   6.318
 8730TIP3    H226136   3.551   7.037   6.333
 8731TIP3   OH226137   3.246   7.412   6.065
 8731TIP3    H126138   3.157   7.381   6.048
 8731TIP3    H226139   3.276   7.443   5.980
 8732TIP3   OH226140   6.468   4.615   3.540
 8732TIP3    H126141   6.378   4.642   3.522
 8732TIP3    H226142   6.518   4.697   3.542
 8733TIP3   OH226143   0.688   4.300   6.825
 8733TIP3    H126144   0.659   4.333   6.910
 8733TIP3    H226145   0.719   4.378   6.778
 8734TIP3   OH226146   5.388   6.782   5.844
 8734TIP3    H126147   5.371   6.791   5.938
 8734TIP3    H226148   5.347   6.859   5.805
 8735TIP3   OH226149   7.437   4.726   1.737
 8735TIP3    H126150   7.391   4.732   1.653
 8735TIP3    H226151   7.473   4.637   1.738
 8736TIP3   OH226152   0.104   3.773   2.191
 8736TIP3    H126153   0.061   3.753   2.274
 8736TIP3    H226154   0.159   3.849   2.210
 8737TIP3   OH226155   0.234   0.055   6.106
 8737TIP3    H126156   0.200   0.143   6.092
 8737TIP3    H226157   0.167   0.013   6.161
 8738TIP3   OH226158   6.247   4.566   0.094
 8738TIP3    H126159   6.196   4.647   0.099
 8738TIP3    H226160   6.319   4.587   0.035
 8739TIP3   OH226161   6.280   0.167   1.543
 8739TIP3    H126162   6.192   0.195   1.520
 8739TIP3    H226163   6.309   0.231   1.609
 8740TIP3   OH226164   0.484   0.434   1.423
 8740TIP3    H126165   0.426   0.511   1.423
 8740TIP3    H226166   0.443   0.373   1.362
 8741TIP3   OH226167   6.337   4.266   0.863
 8741TIP3    H126168   6.344   4.361   0.872
 8741TIP3    H226169   6.364   4.232   0.948
 8742TIP3   OH226170   4.811   2.842   4.375
 8742TIP3    H126171   4.817   2.839   4.280
 8742TIP3    H226172   4.817   2.750   4.402
 8743TIP3   OH226173   4.638   7.695   4.072
 8743TIP3    H126174   4.616   7.648   3.992
 8743TIP3    H226175   4.586   7.775   4.069
 8744TIP3   OH226176   7.814   0.540   4.078
 8744TIP3    H126177   7.905   0.538   4.049
 8744TIP3    H226178   7.764   0.514   4.000
 8745TIP3   OH226179   2.623   2.288   4.078
 8745TIP3    H126180   2.666   2.258   4.158
 8745TIP3    H226181   2.691   2.332   4.028
 8746TIP3   OH226182   2.352   6.815   4.349
 8746TIP3    H126183   2.434   6.847   4.386
 8746TIP3    H226184   2.303   6.782   4.424
 8747TIP3   OH226185   6.938   3.963   1.187
 8747TIP3    H126186   7.001   4.021   1.232
 8747TIP3    H226187   6.879   3.934   1.257
 8748TIP3   OH226188   1.049   2.109   0.206
 8748TIP3    H126189   1.057   2.085   0.298
 8748TIP3    H226190   1.121   2.065   0.163
 8749TIP3   OH226191   7.352   1.808   4.147
 8749TIP3    H126192   7.422   1.777   4.090
 8749TIP3    H226193   7.371   1.901   4.161
 8750TIP3   OH226194   3.585   3.457   4.740
 8750TIP3    H126195   3.645   3.454   4.665
 8750TIP3    H226196   3.607   3.539   4.785
 8751TIP3   OH226197   5.989   7.495   1.724
 8751TIP3    H126198   5.974   7.406   1.754
 8751TIP3    H226199   5.957   7.496   1.634
 8752TIP3   OH226200   8.183   2.702   1.387
 8752TIP3    H126201   8.089   2.714   1.397
 8752TIP3    H226202   8.194   2.608   1.372
 8753TIP3   OH226203   0.548   7.827   2.156
 8753TIP3    H126204   0.506   7.826   2.070
 8753TIP3    H226205   0.522   7.744   2.196
 8754TIP3   OH226206   5.311   6.425   6.187
 8754TIP3    H126207   5.255   6.357   6.225
 8754TIP3    H226208   5.266   6.452   6.107
 8755TIP3   OH226209   0.906   3.002   3.670
 8755TIP3    H126210   0.975   2.936   3.658
 8755TIP3    H226211   0.907   3.020   3.765
 8756TIP3   OH226212   1.510   4.275   6.601
 8756TIP3    H126213   1.471   4.305   6.683
 8756TIP3    H226214   1.437   4.240   6.551
 8757TIP3   OH226215   3.043   2.704   2.116
 8757TIP3    H126216   2.983   2.721   2.044
 8757TIP3    H226217   3.129   2.693   2.074
 8758TIP3   OH226218   5.819   1.354   3.574
 8758TIP3    H126219   5.763   1.283   3.605
 8758TIP3    H226220   5.801   1.361   3.480
 8759TIP3   OH226221   3.596   4.644   5.865
 8759TIP3    H126222   3.546   4.713   5.908
 8759TIP3    H226223   3.679   4.686   5.842
 8760TIP3   OH226224   7.316   2.461   3.936
 8760TIP3    H126225   7.246   2.456   3.870
 8760TIP3    H226226   7.315   2.553   3.964
 8761TIP3   OH226227   4.577   2.335   4.616
 8761TIP3    H126228   4.597   2.325   4.709
 8761TIP3    H226229   4.513   2.406   4.613
 8762TIP3   OH226230   3.271   3.669   5.783
 8762TIP3    H126231   3.224   3.586   5.776
 8762TIP3    H226232   3.212   3.733   5.746
 8763TIP3   OH226233   5.452   4.431   5.909
 8763TIP3    H126234   5.489   4.517   5.886
 8763TIP3    H226235   5.435   4.436   6.003
 8764TIP3   OH226236   6.921   0.139   0.441
 8764TIP3    H126237   6.899   0.219   0.489
 8764TIP3    H226238   6.853   0.076   0.466
 8765TIP3   OH226239   6.185   1.775   6.158
 8765TIP3    H126240   6.163   1.726   6.079
 8765TIP3    H226241   6.102   1.810   6.189
 8766TIP3   OH226242   7.295   6.687   2.709
 8766TIP3    H126243   7.386   6.710   2.728
 8766TIP3    H226244   7.280   6.607   2.759
 8767TIP3   OH226245   3.389   7.769   4.054
 8767TIP3    H126246   3.307   7.816   4.071
 8767TIP3    H226247   3.402   7.714   4.131
 8768TIP3   OH226248   1.755   7.057   3.249
 8768TIP3    H126249   1.816   7.084   3.318
 8768TIP3    H226250   1.671   7.092   3.277
 8769TIP3   OH226251   4.846   3.914   2.497
 8769TIP3    H126252   4.828   4.003   2.468
 8769TIP3    H226253   4.859   3.864   2.417
 8770TIP3   OH226254   3.911   3.828   3.338
 8770TIP3    H126255   3.837   3.863   3.388
 8770TIP3    H226256   3.986   3.880   3.367
 8771TIP3   OH226257   2.241   0.748   3.110
 8771TIP3    H126258   2.223   0.839   3.086
 8771TIP3    H226259   2.228   0.745   3.205
 8772TIP3   OH226260   6.277   5.995   1.394
 8772TIP3    H126261   6.305   6.086   1.403
 8772TIP3    H226262   6.341   5.955   1.336
 8773TIP3   OH226263   2.859   0.159   1.502
 8773TIP3    H126264   2.796   0.154   1.574
 8773TIP3    H226265   2.869   0.068   1.473
 8774TIP3   OH226266   2.240   7.328   4.671
 8774TIP3    H126267   2.190   7.386   4.614
 8774TIP3    H226268   2.281   7.387   4.735
 8775TIP3   OH226269   0.532   2.960   5.366
 8775TIP3    H126270   0.441   2.944   5.341
 8775TIP3    H226271   0.571   2.999   5.288
 8776TIP3   OH226272   6.108   2.896   4.693
 8776TIP3    H126273   6.165   2.821   4.713
 8776TIP3    H226274   6.094   2.890   4.598
 8777TIP3   OH226275   5.729   1.814   5.491
 8777TIP3    H126276   5.775   1.891   5.524
 8777TIP3    H226277   5.641   1.820   5.529
 8778TIP3   OH226278   0.094   4.320   2.675
 8778TIP3    H126279   0.055   4.271   2.748
 8778TIP3    H226280   0.060   4.409   2.686
 8779TIP3   OH226281   7.209   0.852   0.995
 8779TIP3    H126282   7.186   0.922   1.057
 8779TIP3    H226283   7.195   0.891   0.909
 8780TIP3   OH226284   4.522   1.639   3.725
 8780TIP3    H126285   4.587   1.638   3.795
 8780TIP3    H226286   4.466   1.564   3.743
 8781TIP3   OH226287   5.989   2.314   4.789
 8781TIP3    H126288   6.002   2.321   4.694
 8781TIP3    H226289   6.030   2.393   4.825
 8782TIP3   OH226290   0.504   1.027   0.893
 8782TIP3    H126291   0.553   1.108   0.883
 8782TIP3    H226292   0.562   0.970   0.944
 8783TIP3   OH226293   4.020   2.033   5.092
 8783TIP3    H126294   3.991   2.109   5.143
 8783TIP3    H226295   3.942   1.979   5.083
 8784TIP3   OH226296   4.245   7.337   5.575
 8784TIP3    H126297   4.195   7.312   5.498
 8784TIP3    H226298   4.287   7.256   5.604
 8785TIP3   OH226299   4.380   0.379   4.555
 8785TIP3    H126300   4.340   0.293   4.543
 8785TIP3    H226301   4.474   0.361   4.565
 8786TIP3   OH226302   7.366   0.385   4.453
 8786TIP3    H126303   7.375   0.309   4.511
 8786TIP3    H226304   7.346   0.457   4.512
 8787TIP3   OH226305   5.391   3.836   6.448
 8787TIP3    H126306   5.398   3.846   6.543
 8787TIP3    H226307   5.328   3.765   6.436
 8788TIP3   OH226308   0.868   1.712   6.205
 8788TIP3    H126309   0.790   1.671   6.167
 8788TIP3    H226310   0.860   1.695   6.299
 8789TIP3   OH226311   1.088   6.931   6.370
 8789TIP3    H126312   1.062   6.853   6.321
 8789TIP3    H226313   1.023   6.997   6.346
 8790TIP3   OH226314   7.659   1.515   2.966
 8790TIP3    H126315   7.648   1.499   3.060
 8790TIP3    H226316   7.745   1.478   2.946
 8791TIP3   OH226317   6.115   2.240   0.177
 8791TIP3    H126318   6.051   2.311   0.179
 8791TIP3    H226319   6.163   2.254   0.095
 8792TIP3   OH226320   2.709   2.657   1.605
 8792TIP3    H126321   2.658   2.611   1.539
 8792TIP3    H226322   2.676   2.625   1.689
 8793TIP3   OH226323   4.721   7.563   4.444
 8793TIP3    H126324   4.781   7.496   4.411
 8793TIP3    H226325   4.648   7.514   4.482
 8794TIP3   OH226326   2.577   3.664   0.538
 8794TIP3    H126327   2.557   3.757   0.549
 8794TIP3    H226328   2.661   3.652   0.584
 8795TIP3   OH226329   4.077   3.731   6.268
 8795TIP3    H126330   3.985   3.723   6.242
 8795TIP3    H226331   4.123   3.748   6.187
 8796TIP3   OH226332   7.516   1.109   2.950
 8796TIP3    H126333   7.511   1.026   2.902
 8796TIP3    H226334   7.539   1.084   3.039
 8797TIP3   OH226335   4.906   1.967   3.264
 8797TIP3    H126336   4.843   1.895   3.270
 8797TIP3    H226337   4.975   1.944   3.325
 8798TIP3   OH226338   6.916   3.300   4.539
 8798TIP3    H126339   6.881   3.299   4.628
 8798TIP3    H226340   6.968   3.381   4.535
 8799TIP3   OH226341   4.700   1.359   4.046
 8799TIP3    H126342   4.668   1.293   3.985
 8799TIP3    H226343   4.647   1.347   4.125
 8800TIP3   OH226344   6.777   2.559   3.761
 8800TIP3    H126345   6.789   2.566   3.666
 8800TIP3    H226346   6.820   2.637   3.796
 8801TIP3   OH226347   5.889   7.493   2.220
 8801TIP3    H126348   5.894   7.584   2.249
 8801TIP3    H226349   5.878   7.442   2.301
 8802TIP3   OH226350   0.779   6.405   2.162
 8802TIP3    H126351   0.701   6.399   2.108
 8802TIP3    H226352   0.748   6.435   2.247
 8803TIP3   OH226353   0.538   1.247   4.961
 8803TIP3    H126354   0.541   1.217   5.052
 8803TIP3    H226355   0.451   1.285   4.951
 8804TIP3   OH226356   6.511   0.040   3.504
 8804TIP3    H126357   6.439   0.090   3.466
 8804TIP3    H226358   6.576   0.034   3.435
 8805TIP3   OH226359   2.051   1.866   3.728
 8805TIP3    H126360   2.098   1.938   3.687
 8805TIP3    H226361   2.027   1.899   3.815
 8806TIP3   OH226362   6.256   3.653   6.555
 8806TIP3    H126363   6.192   3.582   6.563
 8806TIP3    H226364   6.338   3.609   6.531
 8807TIP3   OH226365   1.146   3.244   5.623
 8807TIP3    H126366   1.059   3.204   5.618
 8807TIP3    H226367   1.143   3.295   5.704
 8808TIP3   OH226368   6.713   7.401   3.852
 8808TIP3    H126369   6.752   7.480   3.813
 8808TIP3    H226370   6.786   7.341   3.862
 8809TIP3   OH226371   0.985   2.463   5.912
 8809TIP3    H126372   1.063   2.409   5.923
 8809TIP3    H226373   1.017   2.545   5.875
 8810TIP3   OH226374   1.169   5.886   4.669
 8810TIP3    H126375   1.242   5.836   4.632
 8810TIP3    H226376   1.210   5.962   4.710
 8811TIP3   OH226377   4.344   1.192   5.847
 8811TIP3    H126378   4.402   1.209   5.922
 8811TIP3    H226379   4.257   1.216   5.878
 8812TIP3   OH226380   7.058   7.705   0.827
 8812TIP3    H126381   7.018   7.791   0.822
 8812TIP3    H226382   7.056   7.672   0.737
 8813TIP3   OH226383   0.688   0.300   0.583
 8813TIP3    H126384   0.718   0.344   0.663
 8813TIP3    H226385   0.595   0.282   0.599
 8814TIP3   OH226386   5.836   2.499   1.302
 8814TIP3    H126387   5.846   2.516   1.208
 8814TIP3    H226388   5.915   2.449   1.325
 8815TIP3   OH226389   7.372   5.650   4.274
 8815TIP3    H126390   7.277   5.638   4.275
 8815TIP3    H226391   7.399   5.627   4.362
 8816TIP3   OH226392   3.733   6.302   4.439
 8816TIP3    H126393   3.806   6.305   4.500
 8816TIP3    H226394   3.687   6.221   4.460
 8817TIP3   OH226395   7.354   0.102   3.812
 8817TIP3    H126396   7.410   0.133   3.883
 8817TIP3    H226397   7.273   0.152   3.821
 8818TIP3   OH226398   0.915   7.427   3.613
 8818TIP3    H126399   0.873   7.342   3.627
 8818TIP3    H226400   0.956   7.447   3.697
 8819TIP3   OH226401   4.955   6.552   0.618
 8819TIP3    H126402   4.983   6.467   0.584
 8819TIP3    H226403   4.956   6.540   0.713
 8820TIP3   OH226404   6.943   1.208   2.419
 8820TIP3    H126405   6.921   1.211   2.512
 8820TIP3    H226406   7.026   1.256   2.412
 8821TIP3   OH226407   4.067   2.451   3.893
 8821TIP3    H126408   4.057   2.357   3.876
 8821TIP3    H226409   4.134   2.479   3.832
 8822TIP3   OH226410   2.301   5.079   0.021
 8822TIP3    H126411   2.248   5.115   0.092
 8822TIP3    H226412   2.336   4.997   0.056
 8823TIP3   OH226413   6.861   2.532   2.282
 8823TIP3    H126414   6.838   2.500   2.369
 8823TIP3    H226415   6.778   2.564   2.246
 8824TIP3   OH226416   3.090   3.629   6.031
 8824TIP3    H126417   3.028   3.609   5.960
 8824TIP3    H226418   3.055   3.582   6.107
 8825TIP3   OH226419   6.738   2.966   2.045
 8825TIP3    H126420   6.808   2.905   2.067
 8825TIP3    H226421   6.773   3.053   2.063
 8826TIP3   OH226422   2.436   6.935   3.666
 8826TIP3    H126423   2.495   6.911   3.737
 8826TIP3    H226424   2.407   7.024   3.689
 8827TIP3   OH226425   1.586   2.919   0.185
 8827TIP3    H126426   1.603   2.944   0.276
 8827TIP3    H226427   1.584   2.823   0.187
 8828TIP3   OH226428   7.974   6.162   1.567
 8828TIP3    H126429   7.884   6.129   1.564
 8828TIP3    H226430   7.974   6.227   1.637
 8829TIP3   OH226431   3.640   5.296   3.483
 8829TIP3    H126432   3.706   5.342   3.536
 8829TIP3    H226433   3.579   5.260   3.547
 8830TIP3   OH226434   5.831   7.407   0.549
 8830TIP3    H126435   5.764   7.345   0.578
 8830TIP3    H226436   5.868   7.366   0.471
 8831TIP3   OH226437   8.070   2.668   4.970
 8831TIP3    H126438   8.017   2.662   5.050
 8831TIP3    H226439   8.143   2.609   4.985
 8832TIP3   OH226440   0.086   3.103   6.672
 8832TIP3    H126441   0.097   3.008   6.667
 8832TIP3    H226442   0.130   3.137   6.594
 8833TIP3   OH226443   4.267   5.272   3.161
 8833TIP3    H126444   4.199   5.207   3.143
 8833TIP3    H226445   4.223   5.356   3.157
 8834TIP3   OH226446   3.856   5.973   5.055
 8834TIP3    H126447   3.944   5.943   5.077
 8834TIP3    H226448   3.860   5.994   4.961
 8835TIP3   OH226449   6.627   2.978   4.837
 8835TIP3    H126450   6.591   3.003   4.752
 8835TIP3    H226451   6.604   3.051   4.895
 8836TIP3   OH226452   3.834   6.666   1.353
 8836TIP3    H126453   3.896   6.602   1.318
 8836TIP3    H226454   3.860   6.679   1.444
 8837TIP3   OH226455   3.799   6.002   1.392
 8837TIP3    H126456   3.835   5.933   1.447
 8837TIP3    H226457   3.863   6.073   1.398
 8838TIP3   OH226458   4.144   5.984   2.661
 8838TIP3    H126459   4.231   6.005   2.627
 8838TIP3    H226460   4.107   5.925   2.597
 8839TIP3   OH226461   4.694   6.480   4.325
 8839TIP3    H126462   4.723   6.490   4.234
 8839TIP3    H226463   4.695   6.386   4.340
 8840TIP3   OH226464   7.427   5.028   1.452
 8840TIP3    H126465   7.386   4.953   1.496
 8840TIP3    H226466   7.365   5.100   1.463
 8841TIP3   OH226467   7.314   0.691   4.317
 8841TIP3    H126468   7.283   0.781   4.323
 8841TIP3    H226469   7.329   0.664   4.407
 8842TIP3   OH226470   2.386   6.812   6.178
 8842TIP3    H126471   2.383   6.831   6.084
 8842TIP3    H226472   2.410   6.895   6.219
 8843TIP3   OH226473   6.282   6.660   1.837
 8843TIP3    H126474   6.213   6.705   1.886
 8843TIP3    H226475   6.272   6.693   1.747
 8844TIP3   OH226476   6.986   7.149   3.276
 8844TIP3    H126477   6.970   7.068   3.229
 8844TIP3    H226478   6.960   7.130   3.366
 8845TIP3   OH226479   4.924   5.680   3.246
 8845TIP3    H126480   5.000   5.703   3.193
 8845TIP3    H226481   4.917   5.751   3.310
 8846TIP3   OH226482   5.467   4.920   0.437
 8846TIP3    H126483   5.399   4.986   0.448
 8846TIP3    H226484   5.433   4.842   0.480
 8847TIP3   OH226485   0.452   5.030   5.122
 8847TIP3    H126486   0.483   4.990   5.041
 8847TIP3    H226487   0.532   5.064   5.163
 8848TIP3   OH226488   3.355   3.963   3.542
 8848TIP3    H126489   3.278   3.934   3.591
 8848TIP3    H226490   3.357   3.906   3.465
 8849TIP3   OH226491   5.137   5.145   2.524
 8849TIP3    H126492   5.069   5.086   2.493
 8849TIP3    H226493   5.188   5.094   2.586
 8850TIP3   OH226494   1.454   0.855   1.352
 8850TIP3    H126495   1.492   0.827   1.435
 8850TIP3    H226496   1.360   0.857   1.368
 8851TIP3   OH226497   6.774   5.395   0.698
 8851TIP3    H126498   6.807   5.426   0.783
 8851TIP3    H226499   6.831   5.322   0.675
 8852TIP3   OH226500   3.727   0.619   3.626
 8852TIP3    H126501   3.795   0.652   3.567
 8852TIP3    H226502   3.681   0.553   3.574
 8853TIP3   OH226503   0.620   4.764   3.988
 8853TIP3    H126504   0.538   4.737   3.946
 8853TIP3    H226505   0.689   4.732   3.931
 8854TIP3   OH226506   2.289   7.145   6.460
 8854TIP3    H126507   2.220   7.088   6.494
 8854TIP3    H226508   2.323   7.190   6.538
 8855TIP3   OH226509   8.191   3.184   4.005
 8855TIP3    H126510   8.104   3.172   4.043
 8855TIP3    H226511   8.215   3.274   4.026
 8856TIP3   OH226512   7.587   0.851   4.512
 8856TIP3    H126513   7.542   0.935   4.502
 8856TIP3    H226514   7.518   0.789   4.537
 8857TIP3   OH226515   3.379   2.531   4.486
 8857TIP3    H126516   3.423   2.573   4.412
 8857TIP3    H226517   3.398   2.438   4.476
 8858TIP3   OH226518   0.341   1.710   3.151
 8858TIP3    H126519   0.420   1.704   3.205
 8858TIP3    H226520   0.278   1.652   3.194
 8859TIP3   OH226521   5.550   5.326   6.421
 8859TIP3    H126522   5.483   5.374   6.371
 8859TIP3    H226523   5.539   5.355   6.511
 8860TIP3   OH226524   1.193   2.480   4.409
 8860TIP3    H126525   1.118   2.537   4.425
 8860TIP3    H226526   1.254   2.499   4.480
 8861TIP3   OH226527   7.671   0.277   5.314
 8861TIP3    H126528   7.735   0.214   5.346
 8861TIP3    H226529   7.601   0.275   5.379
 8862TIP3   OH226530   7.020   1.406   2.150
 8862TIP3    H126531   6.962   1.469   2.194
 8862TIP3    H226532   6.975   1.386   2.068
 8863TIP3   OH226533   5.761   4.745   1.139
 8863TIP3    H126534   5.801   4.689   1.072
 8863TIP3    H226535   5.833   4.798   1.173
 8864TIP3   OH226536   6.825   0.324   2.615
 8864TIP3    H126537   6.797   0.235   2.598
 8864TIP3    H226538   6.887   0.344   2.545
 8865TIP3   OH226539   7.802   6.299   6.699
 8865TIP3    H126540   7.758   6.273   6.619
 8865TIP3    H226541   7.798   6.395   6.699
 8866TIP3   OH226542   2.407   1.719   6.169
 8866TIP3    H126543   2.429   1.725   6.262
 8866TIP3    H226544   2.456   1.791   6.128
 8867TIP3   OH226545   2.400   6.018   0.966
 8867TIP3    H126546   2.456   5.940   0.963
 8867TIP3    H226547   2.408   6.057   0.879
 8868TIP3   OH226548   1.541   6.405   6.194
 8868TIP3    H126549   1.619   6.364   6.157
 8868TIP3    H226550   1.469   6.372   6.139
 8869TIP3   OH226551   2.298   2.135   1.998
 8869TIP3    H126552   2.227   2.168   2.053
 8869TIP3    H226553   2.289   2.184   1.916
 8870TIP3   OH226554   2.262   7.697   0.735
 8870TIP3    H126555   2.340   7.645   0.718
 8870TIP3    H226556   2.296   7.779   0.773
 8871TIP3   OH226557   2.190   3.896   2.655
 8871TIP3    H126558   2.268   3.951   2.665
 8871TIP3    H226559   2.127   3.953   2.610
 8872TIP3   OH226560   7.663   1.227   1.780
 8872TIP3    H126561   7.574   1.259   1.770
 8872TIP3    H226562   7.695   1.267   1.860
 8873TIP3   OH226563   1.168   0.409   2.850
 8873TIP3    H126564   1.248   0.421   2.901
 8873TIP3    H226565   1.112   0.356   2.906
 8874TIP3   OH226566   7.570   4.305   2.034
 8874TIP3    H126567   7.613   4.291   1.949
 8874TIP3    H226568   7.631   4.361   2.082
 8875TIP3   OH226569   4.328   5.227   4.234
 8875TIP3    H126570   4.248   5.261   4.274
 8875TIP3    H226571   4.324   5.256   4.143
 8876TIP3   OH226572   1.899   3.212   6.599
 8876TIP3    H126573   1.855   3.127   6.600
 8876TIP3    H226574   1.938   3.219   6.686
 8877TIP3   OH226575   5.055   2.993   3.056
 8877TIP3    H126576   4.989   3.025   3.117
 8877TIP3    H226577   5.094   3.072   3.018
 8878TIP3   OH226578   4.428   1.440   3.985
 8878TIP3    H126579   4.335   1.450   4.004
 8878TIP3    H226580   4.465   1.527   4.000
 8879TIP3   OH226581   8.201   6.568   2.198
 8879TIP3    H126582   8.112   6.604   2.202
 8879TIP3    H226583   8.213   6.544   2.106
 8880TIP3   OH226584   6.908   4.514   6.199
 8880TIP3    H126585   6.930   4.425   6.229
 8880TIP3    H226586   6.833   4.501   6.142
 8881TIP3   OH226587   6.081   1.897   2.614
 8881TIP3    H126588   6.148   1.896   2.546
 8881TIP3    H226589   6.090   1.983   2.656
 8882TIP3   OH226590   3.434   7.338   0.016
 8882TIP3    H126591   3.421   7.295   0.101
 8882TIP3    H226592   3.519   7.380   0.023
 8883TIP3   OH226593   3.362   4.678   2.003
 8883TIP3    H126594   3.289   4.708   1.949
 8883TIP3    H226595   3.371   4.585   1.981
 8884TIP3   OH226596   5.332   5.381   0.239
 8884TIP3    H126597   5.335   5.289   0.268
 8884TIP3    H226598   5.415   5.417   0.267
 8885TIP3   OH226599   2.114   6.601   1.040
 8885TIP3    H126600   2.053   6.528   1.034
 8885TIP3    H226601   2.150   6.594   1.129
 8886TIP3   OH226602   6.337   2.103   5.522
 8886TIP3    H126603   6.370   2.142   5.603
 8886TIP3    H226604   6.397   2.135   5.455
 8887TIP3   OH226605   6.942   1.264   6.488
 8887TIP3    H126606   6.980   1.202   6.425
 8887TIP3    H226607   7.016   1.293   6.541
 8888TIP3   OH226608   6.864   2.550   0.836
 8888TIP3    H126609   6.911   2.560   0.919
 8888TIP3    H226610   6.922   2.497   0.781
 8889TIP3   OH226611   6.106   3.645   4.816
 8889TIP3    H126612   6.109   3.565   4.868
 8889TIP3    H226613   6.148   3.711   4.871
 8890TIP3   OH226614   2.959   0.539   2.523
 8890TIP3    H126615   3.049   0.505   2.526
 8890TIP3    H226616   2.913   0.492   2.592
 8891TIP3   OH226617   0.620   7.573   3.499
 8891TIP3    H126618   0.624   7.581   3.404
 8891TIP3    H226619   0.703   7.530   3.523
 8892TIP3   OH226620   5.327   0.190   0.464
 8892TIP3    H126621   5.255   0.176   0.403
 8892TIP3    H226622   5.398   0.135   0.431
 8893TIP3   OH226623   4.874   3.415   4.093
 8893TIP3    H126624   4.917   3.498   4.077
 8893TIP3    H226625   4.788   3.439   4.127
 8894TIP3   OH226626   2.645   3.147   1.869
 8894TIP3    H126627   2.625   3.056   1.890
 8894TIP3    H226628   2.579   3.198   1.917
 8895TIP3   OH226629   6.423   2.177   0.394
 8895TIP3    H126630   6.434   2.255   0.340
 8895TIP3    H226631   6.494   2.182   0.458
 8896TIP3   OH226632   1.720   7.461   0.827
 8896TIP3    H126633   1.811   7.431   0.828
 8896TIP3    H226634   1.671   7.389   0.866
 8897TIP3   OH226635   1.149   2.073   5.154
 8897TIP3    H126636   1.193   2.005   5.103
 8897TIP3    H226637   1.218   2.138   5.172
 8898TIP3   OH226638   6.801   7.161   1.789
 8898TIP3    H126639   6.835   7.139   1.876
 8898TIP3    H226640   6.708   7.137   1.794
 8899TIP3   OH226641   4.097   7.646   6.247
 8899TIP3    H126642   4.101   7.583   6.174
 8899TIP3    H226643   4.176   7.699   6.237
 8900TIP3   OH226644   5.697   1.097   3.621
 8900TIP3    H126645   5.648   1.039   3.678
 8900TIP3    H226646   5.769   1.044   3.588
 8901TIP3   OH226647   6.310   2.689   0.565
 8901TIP3    H126648   6.262   2.615   0.603
 8901TIP3    H226649   6.401   2.660   0.562
 8902TIP3   OH226650   2.684   6.095   4.334
 8902TIP3    H126651   2.740   6.025   4.367
 8902TIP3    H226652   2.615   6.050   4.285
 8903TIP3   OH226653   3.050   4.297   0.980
 8903TIP3    H126654   3.040   4.357   0.906
 8903TIP3    H226655   2.987   4.227   0.961
 8904TIP3   OH226656   1.762   3.826   1.201
 8904TIP3    H126657   1.775   3.826   1.106
 8904TIP3    H226658   1.770   3.917   1.227
 8905TIP3   OH226659   5.277   0.065   3.977
 8905TIP3    H126660   5.333   0.112   4.038
 8905TIP3    H226661   5.334   0.043   3.903
 8906TIP3   OH226662   3.958   6.228   4.584
 8906TIP3    H126663   4.014   6.150   4.581
 8906TIP3    H226664   3.998   6.289   4.523
 8907TIP3   OH226665   1.713   0.277   6.725
 8907TIP3    H126666   1.710   0.364   6.686
 8907TIP3    H226667   1.724   0.217   6.651
 8908TIP3   OH226668   4.152   6.362   0.853
 8908TIP3    H126669   4.167   6.287   0.794
 8908TIP3    H226670   4.177   6.438   0.801
 8909TIP3   OH226671   0.951   6.380   5.156
 8909TIP3    H126672   0.948   6.293   5.117
 8909TIP3    H226673   0.982   6.365   5.246
 8910TIP3   OH226674   7.857   2.596   4.744
 8910TIP3    H126675   7.884   2.668   4.801
 8910TIP3    H226676   7.800   2.543   4.799
 8911TIP3   OH226677   1.434   3.018   2.851
 8911TIP3    H126678   1.398   3.094   2.898
 8911TIP3    H226679   1.455   2.955   2.919
 8912TIP3   OH226680   0.379   4.589   6.286
 8912TIP3    H126681   0.428   4.585   6.204
 8912TIP3    H226682   0.348   4.680   6.290
 8913TIP3   OH226683   5.255   0.465   4.579
 8913TIP3    H126684   5.197   0.403   4.622
 8913TIP3    H226685   5.196   0.534   4.547
 8914TIP3   OH226686   7.845   2.410   5.803
 8914TIP3    H126687   7.910   2.471   5.838
 8914TIP3    H226688   7.858   2.414   5.708
 8915TIP3   OH226689   6.778   1.721   3.075
 8915TIP3    H126690   6.776   1.656   3.004
 8915TIP3    H226691   6.769   1.670   3.155
 8916TIP3   OH226692   0.977   2.975   2.519
 8916TIP3    H126693   1.010   2.924   2.446
 8916TIP3    H226694   1.050   2.979   2.581
 8917TIP3   OH226695   3.559   2.102   0.652
 8917TIP3    H126696   3.479   2.053   0.636
 8917TIP3    H226697   3.530   2.181   0.697
 8918TIP3   OH226698   3.143   6.970   2.420
 8918TIP3    H126699   3.207   7.030   2.458
 8918TIP3    H226700   3.126   7.005   2.332
 8919TIP3   OH226701   7.179   0.585   0.006
 8919TIP3    H126702   7.268   0.551   0.020
 8919TIP3    H226703   7.168   0.580  -0.089
 8920TIP3   OH226704   1.434   5.773   6.596
 8920TIP3    H126705   1.362   5.806   6.650
 8920TIP3    H226706   1.429   5.824   6.516
 8921TIP3   OH226707   0.452   7.478   5.888
 8921TIP3    H126708   0.472   7.385   5.881
 8921TIP3    H226709   0.435   7.506   5.799
 8922TIP3   OH226710   5.083   2.568   3.097
 8922TIP3    H126711   5.014   2.623   3.135
 8922TIP3    H226712   5.036   2.496   3.056
 8923TIP3   OH226713   5.577   6.953   0.200
 8923TIP3    H126714   5.487   6.964   0.168
 8923TIP3    H226715   5.568   6.899   0.279
 8924TIP3   OH226716   3.232   2.392   4.717
 8924TIP3    H126717   3.216   2.299   4.706
 8924TIP3    H226718   3.178   2.434   4.650
 8925TIP3   OH226719   7.358   3.741   2.152
 8925TIP3    H126720   7.273   3.700   2.135
 8925TIP3    H226721   7.401   3.743   2.066
 8926TIP3   OH226722   8.294   3.067   3.218
 8926TIP3    H126723   8.229   3.093   3.283
 8926TIP3    H226724   8.244   3.058   3.137
 8927TIP3   OH226725   6.053   2.666   5.196
 8927TIP3    H126726   6.112   2.684   5.270
 8927TIP3    H226727   6.048   2.570   5.192
 8928TIP3   OH226728   7.296   3.829   1.158
 8928TIP3    H126729   7.306   3.863   1.069
 8928TIP3    H226730   7.384   3.799   1.182
 8929TIP3   OH226731   3.549   6.746   1.497
 8929TIP3    H126732   3.550   6.747   1.593
 8929TIP3    H226733   3.531   6.655   1.474
 8930TIP3   OH226734   0.134   0.296   5.979
 8930TIP3    H126735   0.150   0.335   5.893
 8930TIP3    H226736   0.186   0.348   6.040
 8931TIP3   OH226737   7.931   2.950   6.320
 8931TIP3    H126738   7.971   3.010   6.383
 8931TIP3    H226739   7.842   2.984   6.307
 8932TIP3   OH226740   4.259   1.386   6.133
 8932TIP3    H126741   4.346   1.414   6.163
 8932TIP3    H226742   4.247   1.300   6.174
 8933TIP3   OH226743   4.579   4.318   5.067
 8933TIP3    H126744   4.651   4.264   5.099
 8933TIP3    H226745   4.566   4.290   4.976
 8934TIP3   OH226746   5.277   6.246   0.480
 8934TIP3    H126747   5.279   6.266   0.386
 8934TIP3    H226748   5.184   6.253   0.504
 8935TIP3   OH226749   7.679   4.543   5.120
 8935TIP3    H126750   7.691   4.532   5.215
 8935TIP3    H226751   7.620   4.472   5.095
 8936TIP3   OH226752   5.325   3.829   1.721
 8936TIP3    H126753   5.251   3.857   1.667
 8936TIP3    H226754   5.297   3.746   1.759
 8937TIP3   OH226755   7.953   0.463   2.470
 8937TIP3    H126756   7.874   0.414   2.448
 8937TIP3    H226757   7.927   0.555   2.462
 8938TIP3   OH226758   0.034   6.189   4.433
 8938TIP3    H126759  -0.032   6.235   4.484
 8938TIP3    H226760   0.051   6.109   4.482
 8939TIP3   OH226761   5.561   4.390   3.634
 8939TIP3    H126762   5.608   4.369   3.715
 8939TIP3    H226763   5.611   4.346   3.566
 8940TIP3   OH226764   1.208   4.480   4.947
 8940TIP3    H126765   1.238   4.477   5.038
 8940TIP3    H226766   1.250   4.405   4.905
 8941TIP3   OH226767   1.220   7.454   0.348
 8941TIP3    H126768   1.144   7.502   0.315
 8941TIP3    H226769   1.213   7.461   0.443
 8942TIP3   OH226770   5.779   2.006   0.915
 8942TIP3    H126771   5.716   1.986   0.846
 8942TIP3    H226772   5.860   2.027   0.868
 8943TIP3   OH226773   7.804   1.701   6.157
 8943TIP3    H126774   7.764   1.653   6.085
 8943TIP3    H226775   7.887   1.655   6.173
 8944TIP3   OH226776   6.276   1.521   6.014
 8944TIP3    H126777   6.344   1.517   6.081
 8944TIP3    H226778   6.308   1.462   5.945
 8945TIP3   OH226779   3.344   1.075   5.418
 8945TIP3    H126780   3.384   1.132   5.485
 8945TIP3    H226781   3.320   0.996   5.466
 8946TIP3   OH226782   2.219   0.527   0.122
 8946TIP3    H126783   2.176   0.463   0.177
 8946TIP3    H226784   2.148   0.569   0.074
 8947TIP3   OH226785   3.594   3.490   4.276
 8947TIP3    H126786   3.595   3.579   4.241
 8947TIP3    H226787   3.503   3.474   4.300
 8948TIP3   OH226788   6.807   4.832   1.652
 8948TIP3    H126789   6.803   4.762   1.588
 8948TIP3    H226790   6.735   4.814   1.713
 8949TIP3   OH226791   0.922   5.157   3.814
 8949TIP3    H126792   1.016   5.175   3.814
 8949TIP3    H226793   0.917   5.062   3.807
 8950TIP3   OH226794   6.228   7.100   4.640
 8950TIP3    H126795   6.235   7.037   4.568
 8950TIP3    H226796   6.298   7.076   4.699
 8951TIP3   OH226797   7.210   6.259   3.206
 8951TIP3    H126798   7.247   6.177   3.241
 8951TIP3    H226799   7.276   6.325   3.228
 8952TIP3   OH226800   2.174   1.905   2.824
 8952TIP3    H126801   2.162   1.974   2.889
 8952TIP3    H226802   2.164   1.949   2.740
 8953TIP3   OH226803   2.830   2.551   2.230
 8953TIP3    H126804   2.911   2.594   2.201
 8953TIP3    H226805   2.840   2.460   2.201
 8954TIP3   OH226806   0.412   1.512   2.047
 8954TIP3    H126807   0.423   1.606   2.063
 8954TIP3    H226808   0.319   1.502   2.027
 8955TIP3   OH226809   1.422   2.382   4.897
 8955TIP3    H126810   1.367   2.446   4.942
 8955TIP3    H226811   1.510   2.398   4.930
 8956TIP3   OH226812   6.277   1.226   3.939
 8956TIP3    H126813   6.209   1.288   3.912
 8956TIP3    H226814   6.242   1.140   3.916
 8957TIP3   OH226815   0.324   7.733   1.659
 8957TIP3    H126816   0.353   7.696   1.576
 8957TIP3    H226817   0.344   7.827   1.652
 8958TIP3   OH226818   5.978   0.115   3.678
 8958TIP3    H126819   6.066   0.080   3.690
 8958TIP3    H226820   5.926   0.041   3.648
 8959TIP3   OH226821   2.669   5.534   4.850
 8959TIP3    H126822   2.706   5.495   4.929
 8959TIP3    H226823   2.641   5.621   4.877
 8960TIP3   OH226824   3.945   4.607   4.432
 8960TIP3    H126825   4.035   4.578   4.445
 8960TIP3    H226826   3.922   4.577   4.344
 8961TIP3   OH226827   1.409   1.845   3.860
 8961TIP3    H126828   1.462   1.828   3.937
 8961TIP3    H226829   1.448   1.790   3.792
 8962TIP3   OH226830   1.357   1.781   2.198
 8962TIP3    H126831   1.324   1.767   2.109
 8962TIP3    H226832   1.439   1.732   2.201
 8963TIP3   OH226833   7.778   0.023   6.675
 8963TIP3    H126834   7.829   0.052   6.751
 8963TIP3    H226835   7.823  -0.055   6.644
 8964TIP3   OH226836   7.152   1.983   0.100
 8964TIP3    H126837   7.157   1.991   0.005
 8964TIP3    H226838   7.163   2.073   0.131
 8965TIP3   OH226839   3.764   5.425   2.396
 8965TIP3    H126840   3.816   5.372   2.457
 8965TIP3    H226841   3.819   5.501   2.377
 8966TIP3   OH226842   1.360   6.222   5.589
 8966TIP3    H126843   1.379   6.194   5.499
 8966TIP3    H226844   1.318   6.145   5.629
 8967TIP3   OH226845   5.077   7.652   6.287
 8967TIP3    H126846   5.127   7.702   6.351
 8967TIP3    H226847   5.044   7.576   6.336
 8968TIP3   OH226848   1.792   3.864   5.814
 8968TIP3    H126849   1.816   3.774   5.791
 8968TIP3    H226850   1.724   3.888   5.751
 8969TIP3   OH226851   3.219   4.275   3.344
 8969TIP3    H126852   3.284   4.280   3.414
 8969TIP3    H226853   3.168   4.355   3.353
 8970TIP3   OH226854   4.566   0.471   3.529
 8970TIP3    H126855   4.620   0.549   3.522
 8970TIP3    H226856   4.615   0.403   3.482
 8971TIP3   OH226857   6.479   4.677   4.395
 8971TIP3    H126858   6.536   4.600   4.398
 8971TIP3    H226859   6.480   4.711   4.484
 8972TIP3   OH226860   3.833   3.179   2.882
 8972TIP3    H126861   3.828   3.085   2.863
 8972TIP3    H226862   3.902   3.186   2.947
 8973TIP3   OH226863   0.517   2.922   4.260
 8973TIP3    H126864   0.473   2.895   4.341
 8973TIP3    H226865   0.459   2.891   4.191
 8974TIP3   OH226866   4.774   5.009   3.358
 8974TIP3    H126867   4.766   5.021   3.263
 8974TIP3    H226868   4.825   5.084   3.388
 8975TIP3   OH226869   7.781   6.752   2.831
 8975TIP3    H126870   7.779   6.846   2.813
 8975TIP3    H226871   7.857   6.740   2.888
 8976TIP3   OH226872   6.467   7.155   6.319
 8976TIP3    H126873   6.473   7.128   6.410
 8976TIP3    H226874   6.409   7.091   6.278
 8977TIP3   OH226875   1.413   6.950   2.631
 8977TIP3    H126876   1.454   6.944   2.718
 8977TIP3    H226877   1.326   6.912   2.643
 8978TIP3   OH226878   5.695   4.392   4.197
 8978TIP3    H126879   5.634   4.373   4.268
 8978TIP3    H226880   5.737   4.474   4.223
 8979TIP3   OH226881   1.042   2.828   5.426
 8979TIP3    H126882   0.946   2.821   5.434
 8979TIP3    H226883   1.056   2.913   5.385
 8980TIP3   OH226884   7.244   1.208   2.025
 8980TIP3    H126885   7.282   1.133   2.071
 8980TIP3    H226886   7.166   1.230   2.076
 8981TIP3   OH226887   1.613   3.176   4.864
 8981TIP3    H126888   1.681   3.187   4.797
 8981TIP3    H226889   1.620   3.255   4.919
 8982TIP3   OH226890   7.747   1.409   3.911
 8982TIP3    H126891   7.787   1.396   3.998
 8982TIP3    H226892   7.653   1.402   3.927
 8983TIP3   OH226893   1.323   5.211   4.194
 8983TIP3    H126894   1.366   5.260   4.264
 8983TIP3    H226895   1.391   5.155   4.157
 8984TIP3   OH226896   3.273   1.214   1.350
 8984TIP3    H126897   3.366   1.218   1.328
 8984TIP3    H226898   3.267   1.252   1.437
 8985TIP3   OH226899   0.387   0.000   2.909
 8985TIP3    H126900   0.378   0.096   2.910
 8985TIP3    H226901   0.464  -0.016   2.854
 8986TIP3   OH226902   2.423   4.114   4.075
 8986TIP3    H126903   2.487   4.044   4.062
 8986TIP3    H226904   2.377   4.089   4.155
 8987TIP3   OH226905   0.086   3.130   3.499
 8987TIP3    H126906   0.083   3.190   3.573
 8987TIP3    H226907   0.180   3.116   3.483
 8988TIP3   OH226908   7.888   3.474   1.038
 8988TIP3    H126909   7.813   3.511   1.084
 8988TIP3    H226910   7.960   3.535   1.054
 8989TIP3   OH226911   2.381   0.015   0.201
 8989TIP3    H126912   2.397   0.107   0.183
 8989TIP3    H226913   2.287   0.004   0.187
 8990TIP3   OH226914   6.489   1.395   0.309
 8990TIP3    H126915   6.535   1.325   0.355
 8990TIP3    H226916   6.556   1.462   0.294
 8991TIP3   OH226917   7.734   6.166   3.639
 8991TIP3    H126918   7.657   6.214   3.610
 8991TIP3    H226919   7.706   6.119   3.717
 8992TIP3   OH226920   4.637   5.943   5.882
 8992TIP3    H126921   4.559   5.965   5.832
 8992TIP3    H226922   4.611   5.955   5.974
 8993TIP3   OH226923   5.800   2.091   3.667
 8993TIP3    H126924   5.758   2.177   3.669
 8993TIP3    H226925   5.893   2.111   3.680
 8994TIP3   OH226926   2.062   2.237   3.557
 8994TIP3    H126927   2.103   2.321   3.535
 8994TIP3    H226928   2.015   2.212   3.478
 8995TIP3   OH226929   1.828   6.277   0.214
 8995TIP3    H126930   1.917   6.313   0.211
 8995TIP3    H226931   1.831   6.212   0.284
 8996TIP3   OH226932   2.890   7.786   3.598
 8996TIP3    H126933   2.877   7.724   3.670
 8996TIP3    H226934   2.863   7.738   3.520
 8997TIP3   OH226935   6.519   3.085   2.418
 8997TIP3    H126936   6.486   3.080   2.328
 8997TIP3    H226937   6.441   3.103   2.470
 8998TIP3   OH226938   4.179   5.876   3.915
 8998TIP3    H126939   4.238   5.898   3.987
 8998TIP3    H226940   4.103   5.838   3.959
 8999TIP3   OH226941   2.166   4.554   1.970
 8999TIP3    H126942   2.182   4.476   2.022
 8999TIP3    H226943   2.143   4.520   1.883
 9000TIP3   OH226944   6.409   1.405   1.260
 9000TIP3    H126945   6.397   1.482   1.316
 9000TIP3    H226946   6.351   1.339   1.299
 9001TIP3   OH226947   1.567   5.539   4.149
 9001TIP3    H126948   1.525   5.478   4.210
 9001TIP3    H226949   1.544   5.625   4.182
 9002TIP3   OH226950   4.214   5.022   3.333
 9002TIP3    H126951   4.254   4.951   3.283
 9002TIP3    H226952   4.268   5.029   3.412
 9003TIP3   OH226953   2.334   7.013   4.913
 9003TIP3    H126954   2.412   6.990   4.964
 9003TIP3    H226955   2.263   6.963   4.953
 9004TIP3   OH226956   2.116   4.743   3.324
 9004TIP3    H126957   2.199   4.756   3.368
 9004TIP3    H226958   2.114   4.649   3.304
 9005TIP3   OH226959   6.321   4.438   1.767
 9005TIP3    H126960   6.271   4.425   1.686
 9005TIP3    H226961   6.369   4.356   1.778
 9006TIP3   OH226962   3.807   4.336   0.709
 9006TIP3    H126963   3.851   4.350   0.793
 9006TIP3    H226964   3.737   4.274   0.729
 9007TIP3   OH226965   7.485   5.330   1.128
 9007TIP3    H126966   7.491   5.236   1.146
 9007TIP3    H226967   7.527   5.372   1.203
 9008TIP3   OH226968   3.249   5.544   3.356
 9008TIP3    H126969   3.302   5.604   3.408
 9008TIP3    H226970   3.299   5.531   3.275
 9009TIP3   OH226971   7.167   4.138   1.153
 9009TIP3    H126972   7.167   4.233   1.170
 9009TIP3    H226973   7.248   4.122   1.105
 9010TIP3   OH226974   5.887   2.132   1.498
 9010TIP3    H126975   5.812   2.098   1.448
 9010TIP3    H226976   5.958   2.071   1.478
 9011TIP3   OH226977   3.181   3.097   4.973
 9011TIP3    H126978   3.111   3.045   4.934
 9011TIP3    H226979   3.159   3.188   4.950
 9012TIP3   OH226980   6.336   3.948   1.522
 9012TIP3    H126981   6.348   3.920   1.613
 9012TIP3    H226982   6.406   3.903   1.474
 9013TIP3   OH226983   1.803   6.612   5.335
 9013TIP3    H126984   1.749   6.547   5.379
 9013TIP3    H226985   1.766   6.618   5.247
 9014TIP3   OH226986   4.639   6.676   3.522
 9014TIP3    H126987   4.547   6.662   3.545
 9014TIP3    H226988   4.668   6.594   3.484
 9015TIP3   OH226989   0.997   4.303   3.013
 9015TIP3    H126990   0.967   4.325   3.101
 9015TIP3    H226991   1.092   4.311   3.017
 9016TIP3   OH226992   5.451   1.572   1.139
 9016TIP3    H126993   5.477   1.655   1.100
 9016TIP3    H226994   5.368   1.551   1.096
 9017TIP3   OH226995   5.643   2.201   5.430
 9017TIP3    H126996   5.563   2.166   5.469
 9017TIP3    H226997   5.651   2.154   5.347
 9018TIP3   OH226998   8.153   4.914   2.286
 9018TIP3    H126999   8.198   4.978   2.341
 9018TIP3    H227000   8.167   4.945   2.197
 9019TIP3   OH227001   5.355   3.227   5.316
 9019TIP3    H127002   5.408   3.165   5.265
 9019TIP3    H227003   5.418   3.293   5.346
 9020TIP3   OH227004   3.927   2.218   4.867
 9020TIP3    H127005   4.005   2.266   4.895
 9020TIP3    H227006   3.856   2.254   4.920
 9021TIP3   OH227007   3.158   4.561   1.104
 9021TIP3    H127008   3.243   4.517   1.101
 9021TIP3    H227009   3.101   4.505   1.050
 9022TIP3   OH227010   1.979   6.672   4.431
 9022TIP3    H127011   2.043   6.707   4.493
 9022TIP3    H227012   2.032   6.629   4.364
 9023TIP3   OH227013   0.295   7.320   5.626
 9023TIP3    H127014   0.328   7.249   5.572
 9023TIP3    H227015   0.229   7.279   5.682
 9024TIP3   OH227016   3.071   2.458   2.691
 9024TIP3    H127017   3.120   2.428   2.768
 9024TIP3    H227018   3.015   2.384   2.669
 9025TIP3   OH227019   6.069   6.176   3.834
 9025TIP3    H127020   6.139   6.236   3.810
 9025TIP3    H227021   5.996   6.232   3.860
 9026TIP3   OH227022   2.981   4.504   1.912
 9026TIP3    H127023   2.921   4.446   1.865
 9026TIP3    H227024   3.035   4.544   1.844
 9027TIP3   OH227025   6.464   5.266   2.959
 9027TIP3    H127026   6.368   5.264   2.967
 9027TIP3    H227027   6.494   5.301   3.043
 9028TIP3   OH227028   0.982   3.169   4.735
 9028TIP3    H127029   1.018   3.157   4.646
 9028TIP3    H227030   1.055   3.147   4.793
 9029TIP3   OH227031   6.953   2.496   5.003
 9029TIP3    H127032   7.031   2.474   4.953
 9029TIP3    H227033   6.979   2.485   5.095
 9030TIP3   OH227034   1.572   2.618   1.202
 9030TIP3    H127035   1.518   2.680   1.153
 9030TIP3    H227036   1.512   2.579   1.266
 9031TIP3   OH227037   6.014   4.773   2.846
 9031TIP3    H127038   6.017   4.847   2.906
 9031TIP3    H227039   5.941   4.791   2.788
 9032TIP3   OH227040   7.426   2.046   1.341
 9032TIP3    H127041   7.445   1.962   1.384
 9032TIP3    H227042   7.331   2.052   1.342
 9033TIP3   OH227043   0.249   4.024   4.474
 9033TIP3    H127044   0.198   4.104   4.489
 9033TIP3    H227045   0.308   4.046   4.402
 9034TIP3   OH227046   5.829   2.610   1.924
 9034TIP3    H127047   5.787   2.584   1.842
 9034TIP3    H227048   5.762   2.597   1.991
 9035TIP3   OH227049   2.145   5.007   2.294
 9035TIP3    H127050   2.051   5.020   2.303
 9035TIP3    H227051   2.175   4.985   2.382
 9036TIP3   OH227052   0.838   5.932   4.250
 9036TIP3    H127053   0.816   6.025   4.251
 9036TIP3    H227054   0.879   5.916   4.335
 9037TIP3   OH227055   0.805   4.299   5.149
 9037TIP3    H127056   0.863   4.360   5.195
 9037TIP3    H227057   0.830   4.306   5.057
 9038TIP3   OH227058   0.955   0.239   2.383
 9038TIP3    H127059   1.007   0.278   2.454
 9038TIP3    H227060   1.019   0.194   2.328
 9039TIP3   OH227061   0.831   6.708   4.269
 9039TIP3    H127062   0.800   6.708   4.178
 9039TIP3    H227063   0.915   6.663   4.265
 9040TIP3   OH227064   0.251   1.075   2.806
 9040TIP3    H127065   0.248   1.008   2.737
 9040TIP3    H227066   0.306   1.037   2.874
 9041TIP3   OH227067   2.556   6.119   0.305
 9041TIP3    H127068   2.542   6.040   0.252
 9041TIP3    H227069   2.497   6.108   0.380
 9042TIP3   OH227070   1.656   3.895   0.638
 9042TIP3    H127071   1.571   3.930   0.611
 9042TIP3    H227072   1.701   3.876   0.555
 9043TIP3   OH227073   7.153   1.100   5.597
 9043TIP3    H127074   7.165   1.065   5.509
 9043TIP3    H227075   7.108   1.183   5.584
 9044TIP3   OH227076   6.940   3.788   2.540
 9044TIP3    H127077   6.894   3.814   2.619
 9044TIP3    H227078   6.918   3.695   2.529
 9045TIP3   OH227079   2.736   6.058   2.928
 9045TIP3    H127080   2.721   6.019   3.015
 9045TIP3    H227081   2.722   6.152   2.941
 9046TIP3   OH227082   6.203   2.058   6.223
 9046TIP3    H127083   6.144   2.003   6.274
 9046TIP3    H227084   6.225   2.131   6.281
 9047TIP3   OH227085   6.802   4.692   0.018
 9047TIP3    H127086   6.888   4.697  -0.022
 9047TIP3    H227087   6.803   4.610   0.068
 9048TIP3   OH227088   1.525   6.280   0.252
 9048TIP3    H127089   1.594   6.275   0.186
 9048TIP3    H227090   1.548   6.214   0.317
 9049TIP3   OH227091   7.183   2.051   6.514
 9049TIP3    H127092   7.243   2.081   6.582
 9049TIP3    H227093   7.207   2.101   6.436
 9050TIP3   OH227094   0.689   3.366   6.223
 9050TIP3    H127095   0.657   3.411   6.302
 9050TIP3    H227096   0.761   3.311   6.255
 9051TIP3   OH227097   7.772   1.416   2.371
 9051TIP3    H127098   7.740   1.435   2.283
 9051TIP3    H227099   7.865   1.438   2.367
 9052TIP3   OH227100   5.004   4.268   5.529
 9052TIP3    H127101   5.018   4.176   5.509
 9052TIP3    H227102   5.089   4.301   5.556
 9053TIP3   OH227103   2.078   6.889   4.973
 9053TIP3    H127104   1.995   6.894   4.925
 9053TIP3    H227105   2.054   6.854   5.059
 9054TIP3   OH227106   5.143   1.267   0.609
 9054TIP3    H127107   5.168   1.359   0.600
 9054TIP3    H227108   5.113   1.259   0.700
 9055TIP3   OH227109   3.972   6.920   0.068
 9055TIP3    H127110   3.978   6.825   0.081
 9055TIP3    H227111   3.933   6.930  -0.019
 9056TIP3   OH227112   2.455   1.417   2.984
 9056TIP3    H127113   2.369   1.391   3.019
 9056TIP3    H227114   2.505   1.336   2.980
 9057TIP3   OH227115   0.441   5.681   6.490
 9057TIP3    H127116   0.504   5.619   6.452
 9057TIP3    H227117   0.484   5.714   6.569
 9058TIP3   OH227118   3.388   2.873   0.646
 9058TIP3    H127119   3.325   2.840   0.582
 9058TIP3    H227120   3.470   2.829   0.622
 9059TIP3   OH227121   6.435   4.731   2.588
 9059TIP3    H127122   6.472   4.643   2.586
 9059TIP3    H227123   6.379   4.732   2.666
 9060TIP3   OH227124   1.330   3.684   5.026
 9060TIP3    H127125   1.332   3.766   5.076
 9060TIP3    H227126   1.418   3.678   4.988
 9061TIP3   OH227127   4.464   1.372   0.891
 9061TIP3    H127128   4.491   1.282   0.873
 9061TIP3    H227129   4.493   1.422   0.815
 9062TIP3   OH227130   8.049   1.059   6.584
 9062TIP3    H127131   8.069   1.128   6.647
 9062TIP3    H227132   7.997   0.996   6.633
 9063TIP3   OH227133   6.956   2.263   1.844
 9063TIP3    H127134   6.925   2.317   1.916
 9063TIP3    H227135   7.041   2.231   1.873
 9064TIP3   OH227136   4.487   5.624   2.993
 9064TIP3    H127137   4.441   5.602   3.074
 9064TIP3    H227138   4.580   5.619   3.017
 9065TIP3   OH227139   0.508   1.762   2.139
 9065TIP3    H127140   0.534   1.788   2.227
 9065TIP3    H227141   0.588   1.771   2.087
 9066TIP3   OH227142   0.554   4.387   5.690
 9066TIP3    H127143   0.613   4.429   5.628
 9066TIP3    H227144   0.525   4.458   5.747
 9067TIP3   OH227145   6.899   0.683   2.397
 9067TIP3    H127146   6.903   0.773   2.366
 9067TIP3    H227147   6.990   0.659   2.413
 9068TIP3   OH227148   4.954   5.184   6.376
 9068TIP3    H127149   4.872   5.178   6.326
 9068TIP3    H227150   5.003   5.105   6.351
 9069TIP3   OH227151   7.561   6.984   0.438
 9069TIP3    H127152   7.604   7.056   0.485
 9069TIP3    H227153   7.631   6.942   0.389
 9070TIP3   OH227154   5.450   2.933   2.466
 9070TIP3    H127155   5.450   2.936   2.370
 9070TIP3    H227156   5.358   2.923   2.489
 9071TIP3   OH227157   6.076   0.508   5.160
 9071TIP3    H127158   6.072   0.470   5.248
 9071TIP3    H227159   6.164   0.543   5.153
 9072TIP3   OH227160   0.868   5.500   0.257
 9072TIP3    H127161   0.886   5.407   0.244
 9072TIP3    H227162   0.946   5.544   0.225
 9073TIP3   OH227163   3.649   4.565   2.719
 9073TIP3    H127164   3.583   4.617   2.764
 9073TIP3    H227165   3.684   4.507   2.787
 9074TIP3   OH227166   6.901   1.462   0.179
 9074TIP3    H127167   6.891   1.369   0.200
 9074TIP3    H227168   6.960   1.463   0.104
 9075TIP3   OH227169   1.025   1.123   6.336
 9075TIP3    H127170   1.057   1.061   6.271
 9075TIP3    H227171   1.020   1.073   6.417
 9076TIP3   OH227172   0.624   6.900   6.040
 9076TIP3    H127173   0.594   6.810   6.057
 9076TIP3    H227174   0.546   6.954   6.050
 9077TIP3   OH227175   5.399   6.618   5.275
 9077TIP3    H127176   5.486   6.657   5.280
 9077TIP3    H227177   5.357   6.640   5.358
 9078TIP3   OH227178   4.037   5.128   4.346
 9078TIP3    H127179   3.975   5.182   4.394
 9078TIP3    H227180   4.108   5.112   4.408
 9079TIP3   OH227181   0.055   5.411   1.184
 9079TIP3    H127182  -0.015   5.409   1.250
 9079TIP3    H227183   0.130   5.446   1.231
 9080TIP3   OH227184   6.165   6.714   0.649
 9080TIP3    H127185   6.239   6.669   0.690
 9080TIP3    H227186   6.177   6.699   0.555
 9081TIP3   OH227187   2.709   3.789   6.820
 9081TIP3    H127188   2.713   3.773   6.725
 9081TIP3    H227189   2.719   3.702   6.859
 9082TIP3   OH227190   6.512   3.833   4.986
 9082TIP3    H127191   6.590   3.888   4.981
 9082TIP3    H227192   6.471   3.841   4.900
 9083TIP3   OH227193   6.015   2.620   3.231
 9083TIP3    H127194   5.959   2.579   3.165
 9083TIP3    H227195   5.980   2.590   3.315
 9084TIP3   OH227196   4.513   0.774   1.435
 9084TIP3    H127197   4.563   0.692   1.440
 9084TIP3    H227198   4.528   0.817   1.519
 9085TIP3   OH227199   1.977   0.665   3.536
 9085TIP3    H127200   1.972   0.726   3.610
 9085TIP3    H227201   1.939   0.584   3.569
 9086TIP3   OH227202   4.000   7.287   4.923
 9086TIP3    H127203   3.918   7.335   4.912
 9086TIP3    H227204   4.013   7.241   4.840
 9087TIP3   OH227205   3.556   1.319   4.936
 9087TIP3    H127206   3.582   1.411   4.944
 9087TIP3    H227207   3.482   1.310   4.996
 9088TIP3   OH227208   5.128   7.367   2.311
 9088TIP3    H127209   5.163   7.453   2.336
 9088TIP3    H227210   5.165   7.307   2.377
 9089TIP3   OH227211   6.328   4.556   6.339
 9089TIP3    H127212   6.341   4.588   6.428
 9089TIP3    H227213   6.264   4.616   6.301
 9090TIP3   OH227214   3.231   2.338   1.565
 9090TIP3    H127215   3.241   2.247   1.594
 9090TIP3    H227216   3.220   2.388   1.646
 9091TIP3   OH227217   2.390   3.580   2.071
 9091TIP3    H127218   2.420   3.667   2.043
 9091TIP3    H227219   2.470   3.534   2.096
 9092TIP3   OH227220   3.416   1.443   6.304
 9092TIP3    H127221   3.397   1.431   6.397
 9092TIP3    H227222   3.450   1.533   6.299
 9093TIP3   OH227223   3.839   4.385   4.786
 9093TIP3    H127224   3.773   4.368   4.853
 9093TIP3    H227225   3.813   4.469   4.748
 9094TIP3   OH227226   0.175   1.016   0.543
 9094TIP3    H127227   0.183   0.972   0.628
 9094TIP3    H227228   0.086   1.051   0.542
 9095TIP3   OH227229   1.497   3.450   1.648
 9095TIP3    H127230   1.578   3.403   1.666
 9095TIP3    H227231   1.518   3.542   1.665
 9096TIP3   OH227232   1.523   7.387   5.053
 9096TIP3    H127233   1.602   7.433   5.079
 9096TIP3    H227234   1.503   7.330   5.127
 9097TIP3   OH227235   8.029   5.299   3.381
 9097TIP3    H127236   7.937   5.312   3.357
 9097TIP3    H227237   8.026   5.254   3.465
 9098TIP3   OH227238   5.885   0.615   4.992
 9098TIP3    H127239   5.912   0.705   5.008
 9098TIP3    H227240   5.956   0.561   5.027
 9099TIP3   OH227241   6.268   1.054   2.175
 9099TIP3    H127242   6.271   1.122   2.108
 9099TIP3    H227243   6.354   1.011   2.170
 9100TIP3   OH227244   5.847   5.741   6.300
 9100TIP3    H127245   5.809   5.783   6.222
 9100TIP3    H227246   5.844   5.809   6.367
 9101TIP3   OH227247   3.084   4.708   6.196
 9101TIP3    H127248   3.112   4.690   6.106
 9101TIP3    H227249   3.068   4.622   6.234
 9102TIP3   OH227250   5.293   0.144   2.105
 9102TIP3    H127251   5.266   0.060   2.142
 9102TIP3    H227252   5.377   0.126   2.064
 9103TIP3   OH227253   5.875   3.308   3.747
 9103TIP3    H127254   5.891   3.287   3.839
 9103TIP3    H227255   5.961   3.328   3.711
 9104TIP3   OH227256   6.637   1.353   6.401
 9104TIP3    H127257   6.685   1.382   6.478
 9104TIP3    H227258   6.547   1.342   6.431
 9105TIP3   OH227259   3.614   2.934   2.214
 9105TIP3    H127260   3.625   2.922   2.119
 9105TIP3    H227261   3.552   2.866   2.240
 9106TIP3   OH227262   6.660   1.307   2.117
 9106TIP3    H127263   6.641   1.274   2.205
 9106TIP3    H227264   6.677   1.229   2.065
 9107TIP3   OH227265   1.153   0.039   0.216
 9107TIP3    H127266   1.176   0.099   0.287
 9107TIP3    H227267   1.121   0.097   0.146
 9108TIP3   OH227268   7.434   3.565   2.350
 9108TIP3    H127269   7.386   3.641   2.317
 9108TIP3    H227270   7.465   3.520   2.271
 9109TIP3   OH227271   6.544   2.809   2.447
 9109TIP3    H127272   6.579   2.898   2.448
 9109TIP3    H227273   6.450   2.820   2.465
 9110TIP3   OH227274   0.912   2.611   0.290
 9110TIP3    H127275   0.865   2.692   0.309
 9110TIP3    H227276   0.909   2.603   0.195
 9111TIP3   OH227277   3.568   5.992   0.584
 9111TIP3    H127278   3.602   6.023   0.667
 9111TIP3    H227279   3.478   5.967   0.602
 9112TIP3   OH227280   6.588   2.082   2.441
 9112TIP3    H127281   6.544   2.161   2.410
 9112TIP3    H227282   6.608   2.100   2.533
 9113TIP3   OH227283   8.043   1.759   4.042
 9113TIP3    H127284   7.962   1.709   4.039
 9113TIP3    H227285   8.110   1.693   4.064
 9114TIP3   OH227286   8.010   0.193   6.293
 9114TIP3    H127287   7.957   0.118   6.265
 9114TIP3    H227288   8.079   0.200   6.228
 9115TIP3   OH227289   2.330   5.340   3.163
 9115TIP3    H127290   2.307   5.401   3.093
 9115TIP3    H227291   2.246   5.309   3.197
 9116TIP3   OH227292   4.731   5.464   6.634
 9116TIP3    H127293   4.666   5.498   6.696
 9116TIP3    H227294   4.702   5.376   6.614
 9117TIP3   OH227295   0.503   3.213   0.401
 9117TIP3    H127296   0.429   3.273   0.410
 9117TIP3    H227297   0.576   3.270   0.375
 9118TIP3   OH227298   1.219   2.337   4.194
 9118TIP3    H127299   1.228   2.398   4.267
 9118TIP3    H227300   1.153   2.274   4.223
 9119TIP3   OH227301   7.534   3.664   0.358
 9119TIP3    H127302   7.472   3.591   0.367
 9119TIP3    H227303   7.489   3.727   0.302
 9120TIP3   OH227304   3.348   3.627   3.610
 9120TIP3    H127305   3.370   3.537   3.635
 9120TIP3    H227306   3.254   3.624   3.591
 9121TIP3   OH227307   2.607   5.829   1.523
 9121TIP3    H127308   2.676   5.838   1.589
 9121TIP3    H227309   2.639   5.879   1.447
 9122TIP3   OH227310   3.848   1.521   5.173
 9122TIP3    H127311   3.914   1.586   5.148
 9122TIP3    H227312   3.782   1.526   5.104
 9123TIP3   OH227313   6.119   3.194   2.934
 9123TIP3    H127314   6.052   3.253   2.969
 9123TIP3    H227315   6.073   3.111   2.921
 9124TIP3   OH227316   8.182   4.223   0.418
 9124TIP3    H127317   8.248   4.288   0.441
 9124TIP3    H227318   8.196   4.151   0.480
 9125TIP3   OH227319   2.398   1.955   5.147
 9125TIP3    H127320   2.380   1.892   5.077
 9125TIP3    H227321   2.439   1.903   5.216
 9126TIP3   OH227322   3.249   5.616   4.712
 9126TIP3    H127323   3.217   5.680   4.777
 9126TIP3    H227324   3.217   5.532   4.744
 9127TIP3   OH227325   7.354   0.462   5.762
 9127TIP3    H127326   7.401   0.444   5.844
 9127TIP3    H227327   7.267   0.488   5.790
 9128TIP3   OH227328   1.300   0.123   2.679
 9128TIP3    H127329   1.229   0.132   2.744
 9128TIP3    H227330   1.275   0.046   2.627
 9129TIP3   OH227331   1.263   1.448   5.480
 9129TIP3    H127332   1.289   1.447   5.572
 9129TIP3    H227333   1.344   1.466   5.432
 9130TIP3   OH227334   4.594   5.542   1.636
 9130TIP3    H127335   4.618   5.591   1.557
 9130TIP3    H227336   4.506   5.509   1.617
 9131TIP3   OH227337   3.846   2.734   6.343
 9131TIP3    H127338   3.854   2.645   6.377
 9131TIP3    H227339   3.818   2.722   6.252
 9132TIP3   OH227340   5.375   1.356   1.993
 9132TIP3    H127341   5.336   1.425   2.046
 9132TIP3    H227342   5.451   1.327   2.044
 9133TIP3   OH227343   7.999   4.607   5.176
 9133TIP3    H127344   7.948   4.655   5.242
 9133TIP3    H227345   8.057   4.551   5.227
 9134TIP3   OH227346   6.918   3.648   3.834
 9134TIP3    H127347   6.918   3.633   3.929
 9134TIP3    H227348   6.992   3.707   3.819
 9135TIP3   OH227349   4.197   4.102   4.417
 9135TIP3    H127350   4.233   4.062   4.338
 9135TIP3    H227351   4.244   4.184   4.426
 9136TIP3   OH227352   0.335   7.213   3.217
 9136TIP3    H127353   0.413   7.158   3.216
 9136TIP3    H227354   0.353   7.280   3.150
 9137TIP3   OH227355   6.407   1.347   2.015
 9137TIP3    H127356   6.497   1.330   2.040
 9137TIP3    H227357   6.393   1.295   1.936
 9138TIP3   OH227358   1.729   2.329   3.530
 9138TIP3    H127359   1.726   2.339   3.435
 9138TIP3    H227360   1.645   2.362   3.561
 9139TIP3   OH227361   0.070   3.574   3.491
 9139TIP3    H127362   0.160   3.543   3.504
 9139TIP3    H227363   0.042   3.534   3.409
 9140TIP3   OH227364   2.361   1.591   2.791
 9140TIP3    H127365   2.392   1.545   2.868
 9140TIP3    H227366   2.268   1.568   2.785
 9141TIP3   OH227367   5.411   3.458   2.288
 9141TIP3    H127368   5.462   3.444   2.208
 9141TIP3    H227369   5.331   3.409   2.275
 9142TIP3   OH227370   4.730   3.214   4.833
 9142TIP3    H127371   4.732   3.123   4.804
 9142TIP3    H227372   4.639   3.241   4.820
 9143TIP3   OH227373   5.933   4.448   1.301
 9143TIP3    H127374   5.864   4.473   1.239
 9143TIP3    H227375   5.922   4.353   1.311
 9144TIP3   OH227376   3.438   2.692   4.258
 9144TIP3    H127377   3.407   2.779   4.232
 9144TIP3    H227378   3.438   2.642   4.176
 9145TIP3   OH227379   6.964   5.179   6.686
 9145TIP3    H127380   7.040   5.226   6.719
 9145TIP3    H227381   6.912   5.158   6.763
 9146TIP3   OH227382   5.930   7.104   2.444
 9146TIP3    H127383   5.842   7.113   2.409
 9146TIP3    H227384   5.949   7.010   2.438
 9147TIP3   OH227385   5.310   3.335   1.700
 9147TIP3    H127386   5.221   3.370   1.703
 9147TIP3    H227387   5.342   3.343   1.790
 9148TIP3   OH227388   5.309   5.143   0.417
 9148TIP3    H127389   5.360   5.170   0.493
 9148TIP3    H227390   5.223   5.185   0.429
 9149TIP3   OH227391   0.534   2.991   1.922
 9149TIP3    H127392   0.608   3.041   1.887
 9149TIP3    H227393   0.516   3.030   2.007
 9150TIP3   OH227394   3.272   6.433   3.890
 9150TIP3    H127395   3.227   6.363   3.939
 9150TIP3    H227396   3.360   6.436   3.927
 9151TIP3   OH227397   6.527   4.878   4.197
 9151TIP3    H127398   6.621   4.898   4.189
 9151TIP3    H227399   6.523   4.806   4.260
 9152TIP3   OH227400   6.977   3.425   0.509
 9152TIP3    H127401   7.021   3.352   0.554
 9152TIP3    H227402   6.887   3.396   0.500
 9153TIP3   OH227403   5.091   0.819   5.809
 9153TIP3    H127404   5.025   0.753   5.788
 9153TIP3    H227405   5.110   0.862   5.725
 9154TIP3   OH227406   5.062   0.250   4.313
 9154TIP3    H127407   5.063   0.245   4.218
 9154TIP3    H227408   5.150   0.278   4.337
 9155TIP3   OH227409   6.446   7.519   4.782
 9155TIP3    H127410   6.412   7.445   4.731
 9155TIP3    H227411   6.522   7.483   4.828
 9156TIP3   OH227412   7.150   7.398   3.662
 9156TIP3    H127413   7.201   7.320   3.687
 9156TIP3    H227414   7.070   7.391   3.712
 9157TIP3   OH227415   8.267   5.149   2.408
 9157TIP3    H127416   8.246   5.222   2.350
 9157TIP3    H227417   8.304   5.190   2.486
 9158TIP3   OH227418   2.230   0.708   2.316
 9158TIP3    H127419   2.218   0.790   2.363
 9158TIP3    H227420   2.325   0.696   2.312
 9159TIP3   OH227421   1.608   7.286   1.936
 9159TIP3    H127422   1.668   7.213   1.950
 9159TIP3    H227423   1.532   7.265   1.990
 9160TIP3   OH227424   3.954   0.205   5.492
 9160TIP3    H127425   3.901   0.226   5.568
 9160TIP3    H227426   3.907   0.133   5.449
 9161TIP3   OH227427   4.644   0.419   4.872
 9161TIP3    H127428   4.581   0.491   4.871
 9161TIP3    H227429   4.597   0.346   4.913
 9162TIP3   OH227430   4.852   5.828   5.765
 9162TIP3    H127431   4.892   5.876   5.838
 9162TIP3    H227432   4.757   5.839   5.779
 9163TIP3   OH227433   8.001   4.236   5.147
 9163TIP3    H127434   8.055   4.286   5.085
 9163TIP3    H227435   8.021   4.273   5.232
 9164TIP3   OH227436   7.002   6.769   0.272
 9164TIP3    H127437   7.047   6.687   0.252
 9164TIP3    H227438   7.022   6.826   0.198
 9165TIP3   OH227439   1.106   6.960   4.589
 9165TIP3    H127440   1.111   6.874   4.631
 9165TIP3    H227441   1.164   7.015   4.640
 9166TIP3   OH227442   5.801   6.397   1.327
 9166TIP3    H127443   5.786   6.481   1.282
 9166TIP3    H227444   5.867   6.417   1.393
 9167TIP3   OH227445   0.408   0.786   6.551
 9167TIP3    H127446   0.336   0.839   6.516
 9167TIP3    H227447   0.383   0.696   6.534
 9168TIP3   OH227448   0.209   5.586   0.805
 9168TIP3    H127449   0.130   5.595   0.857
 9168TIP3    H227450   0.214   5.493   0.784
 9169TIP3   OH227451   1.730   5.436   3.334
 9169TIP3    H127452   1.766   5.382   3.404
 9169TIP3    H227453   1.746   5.386   3.254
 9170TIP3   OH227454   2.793   6.485   3.344
 9170TIP3    H127455   2.877   6.521   3.372
 9170TIP3    H227456   2.801   6.391   3.360
 9171TIP3   OH227457   8.048   4.599   0.670
 9171TIP3    H127458   8.024   4.520   0.620
 9171TIP3    H227459   8.078   4.661   0.604
 9172TIP3   OH227460   4.164   7.124   0.416
 9172TIP3    H127461   4.218   7.200   0.396
 9172TIP3    H227462   4.097   7.157   0.476
 9173TIP3   OH227463   7.080   0.092   1.822
 9173TIP3    H127464   7.172   0.071   1.807
 9173TIP3    H227465   7.081   0.164   1.885
 9174TIP3   OH227466   7.713   3.302   3.952
 9174TIP3    H127467   7.662   3.222   3.944
 9174TIP3    H227468   7.686   3.355   3.877
 9175TIP3   OH227469   3.620   7.285   1.596
 9175TIP3    H127470   3.558   7.358   1.602
 9175TIP3    H227471   3.574   7.211   1.635
 9176TIP3   OH227472   0.103   1.513   1.943
 9176TIP3    H127473   0.043   1.574   1.985
 9176TIP3    H227474   0.046   1.446   1.904
 9177TIP3   OH227475   6.538   3.781   6.557
 9177TIP3    H127476   6.535   3.687   6.576
 9177TIP3    H227477   6.470   3.819   6.613
 9178TIP3   OH227478   1.175   1.674   2.373
 9178TIP3    H127479   1.245   1.694   2.311
 9178TIP3    H227480   1.113   1.747   2.365
 9179TIP3   OH227481   4.426   0.475   6.461
 9179TIP3    H127482   4.364   0.543   6.437
 9179TIP3    H227483   4.491   0.477   6.390
 9180TIP3   OH227484   1.700   1.584   0.398
 9180TIP3    H127485   1.739   1.525   0.334
 9180TIP3    H227486   1.745   1.562   0.480
 9181TIP3   OH227487   0.106   7.433   5.964
 9181TIP3    H127488   0.068   7.506   5.915
 9181TIP3    H227489   0.175   7.474   6.018
 9182TIP3   OH227490   7.975   6.623   0.297
 9182TIP3    H127491   8.006   6.689   0.359
 9182TIP3    H227492   8.016   6.542   0.328
 9183TIP3   OH227493   5.591   3.369   3.722
 9183TIP3    H127494   5.587   3.449   3.670
 9183TIP3    H227495   5.685   3.348   3.726
 9184TIP3   OH227496   5.139   1.277   2.487
 9184TIP3    H127497   5.139   1.361   2.532
 9184TIP3    H227498   5.231   1.248   2.491
 9185TIP3   OH227499   3.321   5.247   4.113
 9185TIP3    H127500   3.353   5.289   4.193
 9185TIP3    H227501   3.341   5.154   4.126
 9186TIP3   OH227502   5.436   3.432   5.525
 9186TIP3    H127503   5.431   3.346   5.565
 9186TIP3    H227504   5.528   3.457   5.531
 9187TIP3   OH227505   5.700   4.431   0.029
 9187TIP3    H127506   5.773   4.493   0.021
 9187TIP3    H227507   5.653   4.460   0.107
 9188TIP3   OH227508   7.841   2.016   4.438
 9188TIP3    H127509   7.845   1.923   4.457
 9188TIP3    H227510   7.800   2.022   4.352
 9189TIP3   OH227511   0.877   4.504   4.389
 9189TIP3    H127512   0.944   4.449   4.350
 9189TIP3    H227513   0.923   4.556   4.455
 9190TIP3   OH227514   1.551   3.216   3.199
 9190TIP3    H127515   1.646   3.205   3.204
 9190TIP3    H227516   1.536   3.262   3.116
 9191TIP3   OH227517   3.459   2.431   2.211
 9191TIP3    H127518   3.468   2.526   2.225
 9191TIP3    H227519   3.437   2.396   2.297
 9192TIP3   OH227520   7.871   1.387   5.760
 9192TIP3    H127521   7.912   1.375   5.675
 9192TIP3    H227522   7.782   1.418   5.741
 9193TIP3   OH227523   4.772   7.029   6.719
 9193TIP3    H127524   4.861   7.062   6.713
 9193TIP3    H227525   4.761   6.976   6.640
 9194TIP3   OH227526   2.508   5.778   2.401
 9194TIP3    H127527   2.476   5.813   2.318
 9194TIP3    H227528   2.447   5.814   2.467
 9195TIP3   OH227529   5.860   3.922   5.594
 9195TIP3    H127530   5.807   3.919   5.514
 9195TIP3    H227531   5.797   3.910   5.665
 9196TIP3   OH227532   5.176   1.434   6.320
 9196TIP3    H127533   5.159   1.353   6.367
 9196TIP3    H227534   5.107   1.439   6.254
 9197TIP3   OH227535   8.196   7.455   0.965
 9197TIP3    H127536   8.234   7.429   0.881
 9197TIP3    H227537   8.195   7.551   0.963
 9198TIP3   OH227538   7.673   1.539   4.889
 9198TIP3    H127539   7.757   1.561   4.848
 9198TIP3    H227540   7.660   1.447   4.867
 9199TIP3   OH227541   4.171   5.099   2.514
 9199TIP3    H127542   4.232   5.171   2.500
 9199TIP3    H227543   4.172   5.084   2.608
 9200TIP3   OH227544   5.202   4.996   5.407
 9200TIP3    H127545   5.245   5.019   5.324
 9200TIP3    H227546   5.118   5.041   5.404
 9201TIP3   OH227547   4.476   2.730   1.464
 9201TIP3    H127548   4.550   2.791   1.473
 9201TIP3    H227549   4.485   2.697   1.374
 9202TIP3   OH227550   4.377   1.393   3.707
 9202TIP3    H127551   4.423   1.383   3.790
 9202TIP3    H227552   4.397   1.312   3.659
 9203TIP3   OH227553   6.423   3.361   0.574
 9203TIP3    H127554   6.386   3.437   0.618
 9203TIP3    H227555   6.396   3.371   0.483
 9204TIP3   OH227556   7.919   0.876   6.807
 9204TIP3    H127557   7.868   0.839   6.879
 9204TIP3    H227558   7.919   0.808   6.739
 9205TIP3   OH227559  -0.014   1.573   3.929
 9205TIP3    H127560  -0.008   1.559   3.834
 9205TIP3    H227561  -0.011   1.485   3.967
 9206TIP3   OH227562   1.842   4.806   1.113
 9206TIP3    H127563   1.840   4.897   1.143
 9206TIP3    H227564   1.923   4.770   1.149
 9207TIP3   OH227565   2.111   2.980   6.129
 9207TIP3    H127566   2.028   2.987   6.177
 9207TIP3    H227567   2.140   3.070   6.117
 9208TIP3   OH227568   5.691   1.864   1.948
 9208TIP3    H127569   5.654   1.779   1.926
 9208TIP3    H227570   5.707   1.906   1.864
 9209TIP3   OH227571   6.633   1.552   0.883
 9209TIP3    H127572   6.701   1.560   0.950
 9209TIP3    H227573   6.554   1.583   0.925
 9210TIP3   OH227574   7.561   2.410   4.885
 9210TIP3    H127575   7.509   2.351   4.830
 9210TIP3    H227576   7.555   2.495   4.841
 9211TIP3   OH227577   2.004   1.492   2.634
 9211TIP3    H127578   1.999   1.491   2.538
 9211TIP3    H227579   1.963   1.575   2.659
 9212TIP3   OH227580   2.272   1.785   1.024
 9212TIP3    H127581   2.352   1.753   1.066
 9212TIP3    H227582   2.283   1.760   0.932
 9213TIP3   OH227583   7.611   2.732   0.393
 9213TIP3    H127584   7.584   2.780   0.314
 9213TIP3    H227585   7.702   2.710   0.377
 9214TIP3   OH227586   0.164   0.598   2.404
 9214TIP3    H127587   0.224   0.530   2.436
 9214TIP3    H227588   0.164   0.664   2.473
 9215TIP3   OH227589   1.113   1.455   2.027
 9215TIP3    H127590   1.147   1.372   1.994
 9215TIP3    H227591   1.037   1.431   2.079
 9216TIP3   OH227592   4.299   2.646   1.656
 9216TIP3    H127593   4.343   2.677   1.577
 9216TIP3    H227594   4.258   2.564   1.631
 9217TIP3   OH227595   4.907   7.395   4.322
 9217TIP3    H127596   4.918   7.420   4.230
 9217TIP3    H227597   4.987   7.426   4.365
 9218TIP3   OH227598   2.820   2.966   2.187
 9218TIP3    H127599   2.895   2.968   2.128
 9218TIP3    H227600   2.812   3.055   2.219
 9219TIP3   OH227601   0.622   2.342   0.881
 9219TIP3    H127602   0.581   2.329   0.795
 9219TIP3    H227603   0.551   2.329   0.944
 9220TIP3   OH227604   2.738   7.074   5.270
 9220TIP3    H127605   2.787   6.993   5.255
 9220TIP3    H227606   2.647   7.046   5.279
 9221TIP3   OH227607   6.766   2.649   3.190
 9221TIP3    H127608   6.774   2.634   3.096
 9221TIP3    H227609   6.848   2.692   3.214
 9222TIP3   OH227610   3.082   3.712   1.333
 9222TIP3    H127611   3.113   3.649   1.398
 9222TIP3    H227612   3.162   3.746   1.292
 9223TIP3   OH227613   7.918   6.843   5.408
 9223TIP3    H127614   7.840   6.805   5.449
 9223TIP3    H227615   7.991   6.792   5.443
 9224TIP3   OH227616   2.676   5.183   0.304
 9224TIP3    H127617   2.653   5.097   0.339
 9224TIP3    H227618   2.593   5.221   0.277
 9225TIP3   OH227619   2.465   7.157   3.322
 9225TIP3    H127620   2.383   7.206   3.319
 9225TIP3    H227621   2.496   7.157   3.231
 9226TIP3   OH227622   2.193   6.218   0.251
 9226TIP3    H127623   2.217   6.131   0.282
 9226TIP3    H227624   2.181   6.208   0.157
 9227TIP3   OH227625   1.959   6.955   5.472
 9227TIP3    H127626   2.007   6.924   5.549
 9227TIP3    H227627   1.877   6.990   5.507
 9228TIP3   OH227628   2.638   4.820   0.752
 9228TIP3    H127629   2.657   4.824   0.846
 9228TIP3    H227630   2.699   4.755   0.717
 9229TIP3   OH227631   4.959   0.587   1.567
 9229TIP3    H127632   4.966   0.604   1.661
 9229TIP3    H227633   4.872   0.547   1.556
 9230TIP3   OH227634   6.901   2.207   1.046
 9230TIP3    H127635   6.989   2.241   1.061
 9230TIP3    H227636   6.888   2.214   0.952
 9231TIP3   OH227637   0.442   5.934   4.641
 9231TIP3    H127638   0.350   5.940   4.615
 9231TIP3    H227639   0.490   5.951   4.560
 9232TIP3   OH227640   2.129   2.276   3.813
 9232TIP3    H127641   2.108   2.249   3.723
 9232TIP3    H227642   2.044   2.301   3.850
 9233TIP3   OH227643   3.318   3.007   2.892
 9233TIP3    H127644   3.276   2.935   2.845
 9233TIP3    H227645   3.412   2.990   2.881
 9234TIP3   OH227646   5.723   5.463   3.466
 9234TIP3    H127647   5.817   5.475   3.477
 9234TIP3    H227648   5.685   5.491   3.549
 9235TIP3   OH227649   2.934   1.110   0.802
 9235TIP3    H127650   2.893   1.191   0.771
 9235TIP3    H227651   2.922   1.048   0.731
 9236TIP3   OH227652   4.486   0.525   1.824
 9236TIP3    H127653   4.552   0.482   1.878
 9236TIP3    H227654   4.455   0.457   1.764
 9237TIP3   OH227655   4.807   1.942   2.262
 9237TIP3    H127656   4.722   1.963   2.224
 9237TIP3    H227657   4.816   1.848   2.251
 9238TIP3   OH227658   4.264   0.728   1.306
 9238TIP3    H127659   4.354   0.741   1.338
 9238TIP3    H227660   4.225   0.815   1.308
 9239TIP3   OH227661   3.295   5.256   5.929
 9239TIP3    H127662   3.250   5.174   5.948
 9239TIP3    H227663   3.248   5.293   5.855
 9240TIP3   OH227664   4.759   5.527   4.103
 9240TIP3    H127665   4.720   5.467   4.040
 9240TIP3    H227666   4.811   5.587   4.050
 9241TIP3   OH227667   0.637   1.211   5.852
 9241TIP3    H127668   0.705   1.157   5.811
 9241TIP3    H227669   0.656   1.300   5.824
 9242TIP3   OH227670   5.589   1.583   2.003
 9242TIP3    H127671   5.495   1.566   2.015
 9242TIP3    H227672   5.604   1.569   1.909
 9243TIP3   OH227673   6.041   4.442   2.700
 9243TIP3    H127674   6.087   4.367   2.662
 9243TIP3    H227675   6.081   4.519   2.658
 9244TIP3   OH227676   4.094   0.000   5.205
 9244TIP3    H127677   4.175  -0.010   5.155
 9244TIP3    H227678   4.100   0.087   5.243
 9245TIP3   OH227679   7.341   2.397   2.676
 9245TIP3    H127680   7.360   2.303   2.679
 9245TIP3    H227681   7.291   2.414   2.756
 9246TIP3   OH227682   0.030   6.048   0.929
 9246TIP3    H127683   0.095   6.085   0.871
 9246TIP3    H227684  -0.008   5.975   0.879
 9247TIP3   OH227685   1.473   0.484   1.366
 9247TIP3    H127686   1.517   0.545   1.308
 9247TIP3    H227687   1.380   0.498   1.350
 9248TIP3   OH227688   6.563   0.696   1.683
 9248TIP3    H127689   6.554   0.791   1.681
 9248TIP3    H227690   6.658   0.682   1.687
 9249TIP3   OH227691   7.868   4.725   0.472
 9249TIP3    H127692   7.924   4.786   0.519
 9249TIP3    H227693   7.831   4.776   0.400
 9250TIP3   OH227694   2.346   7.365   0.179
 9250TIP3    H127695   2.262   7.330   0.208
 9250TIP3    H227696   2.343   7.361   0.084
 9251TIP3   OH227697   1.468   0.062   3.314
 9251TIP3    H127698   1.481  -0.033   3.309
 9251TIP3    H227699   1.488   0.094   3.226
 9252TIP3   OH227700   0.464   1.031   1.802
 9252TIP3    H127701   0.495   1.090   1.870
 9252TIP3    H227702   0.528   1.040   1.731
 9253TIP3   OH227703   0.649   4.824   1.791
 9253TIP3    H127704   0.593   4.758   1.751
 9253TIP3    H227705   0.736   4.808   1.754
 9254TIP3   OH227706   2.523   1.499   1.603
 9254TIP3    H127707   2.534   1.575   1.661
 9254TIP3    H227708   2.563   1.527   1.521
 9255TIP3   OH227709   2.773   7.792   5.241
 9255TIP3    H127710   2.747   7.753   5.157
 9255TIP3    H227711   2.860   7.829   5.224
 9256TIP3   OH227712   0.565   7.315   0.442
 9256TIP3    H127713   0.578   7.306   0.536
 9256TIP3    H227714   0.519   7.236   0.416
 9257TIP3   OH227715   4.940   4.428   3.740
 9257TIP3    H127716   4.996   4.437   3.663
 9257TIP3    H227717   4.993   4.462   3.812
 9258TIP3   OH227718   1.563   7.667   4.572
 9258TIP3    H127719   1.590   7.735   4.634
 9258TIP3    H227720   1.582   7.584   4.617
 9259TIP3   OH227721   1.224   2.140   1.776
 9259TIP3    H127722   1.184   2.138   1.689
 9259TIP3    H227723   1.187   2.218   1.818
 9260TIP3   OH227724   7.409   7.362   3.426
 9260TIP3    H127725   7.404   7.386   3.334
 9260TIP3    H227726   7.405   7.446   3.473
 9261TIP3   OH227727   2.444   6.057   0.548
 9261TIP3    H127728   2.488   6.042   0.631
 9261TIP3    H227729   2.352   6.071   0.571
 9262TIP3   OH227730   3.650   3.795   3.161
 9262TIP3    H127731   3.701   3.870   3.130
 9262TIP3    H227732   3.592   3.832   3.227
 9263TIP3   OH227733   1.173   5.451   2.740
 9263TIP3    H127734   1.172   5.360   2.708
 9263TIP3    H227735   1.085   5.483   2.720
 9264TIP3   OH227736   3.164   2.761   5.729
 9264TIP3    H127737   3.100   2.821   5.766
 9264TIP3    H227738   3.114   2.709   5.665
 9265TIP3   OH227739   1.790   5.275   3.122
 9265TIP3    H127740   1.838   5.283   3.039
 9265TIP3    H227741   1.702   5.250   3.096
 9266TIP3   OH227742   7.193   6.241   4.214
 9266TIP3    H127743   7.124   6.175   4.211
 9266TIP3    H227744   7.243   6.220   4.293
 9267TIP3   OH227745   0.635   1.200   4.443
 9267TIP3    H127746   0.721   1.197   4.485
 9267TIP3    H227747   0.578   1.150   4.501
 9268TIP3   OH227748   8.201   3.298   4.323
 9268TIP3    H127749   8.268   3.281   4.389
 9268TIP3    H227750   8.245   3.348   4.255
 9269TIP3   OH227751   6.111   5.067   5.300
 9269TIP3    H127752   6.030   5.116   5.285
 9269TIP3    H227753   6.164   5.085   5.223
 9270TIP3   OH227754   6.326   3.947   0.039
 9270TIP3    H127755   6.308   4.016  -0.025
 9270TIP3    H227756   6.245   3.938   0.089
 9271TIP3   OH227757   5.147   5.398   5.858
 9271TIP3    H127758   5.225   5.414   5.911
 9271TIP3    H227759   5.092   5.342   5.912
 9272TIP3   OH227760   2.398   0.906   6.380
 9272TIP3    H127761   2.480   0.948   6.355
 9272TIP3    H227762   2.423   0.845   6.450
 9273TIP3   OH227763   2.366   2.790   1.084
 9273TIP3    H127764   2.285   2.744   1.106
 9273TIP3    H227765   2.432   2.721   1.079
 9274TIP3   OH227766   5.891   2.991   2.643
 9274TIP3    H127767   5.798   3.009   2.643
 9274TIP3    H227768   5.916   2.987   2.735
 9275TIP3   OH227769   6.712   0.502   3.542
 9275TIP3    H127770   6.757   0.424   3.576
 9275TIP3    H227771   6.719   0.494   3.447
 9276TIP3   OH227772   1.588   5.502   6.326
 9276TIP3    H127773   1.664   5.459   6.287
 9276TIP3    H227774   1.561   5.444   6.397
 9277TIP3   OH227775   6.786   3.916   4.920
 9277TIP3    H127776   6.820   3.978   4.856
 9277TIP3    H227777   6.863   3.870   4.953
 9278TIP3   OH227778   5.027   3.325   4.601
 9278TIP3    H127779   5.038   3.419   4.615
 9278TIP3    H227780   4.938   3.307   4.632
 9279TIP3   OH227781   5.838   2.806   4.771
 9279TIP3    H127782   5.929   2.821   4.797
 9279TIP3    H227783   5.817   2.720   4.807
 9280TIP3   OH227784   1.576   1.572   4.196
 9280TIP3    H127785   1.527   1.502   4.154
 9280TIP3    H227786   1.561   1.649   4.141
 9281TIP3   OH227787   3.363   3.215   6.264
 9281TIP3    H127788   3.406   3.299   6.275
 9281TIP3    H227789   3.273   3.237   6.239
 9282TIP3   OH227790   0.987   5.618   5.493
 9282TIP3    H127791   1.071   5.663   5.482
 9282TIP3    H227792   0.992   5.578   5.580
 9283TIP3   OH227793   7.687   4.819   6.153
 9283TIP3    H127794   7.673   4.911   6.174
 9283TIP3    H227795   7.698   4.777   6.238
 9284TIP3   OH227796   5.181   3.686   6.350
 9284TIP3    H127797   5.243   3.670   6.279
 9284TIP3    H227798   5.100   3.644   6.322
 9285TIP3   OH227799   0.866   6.756   4.910
 9285TIP3    H127800   0.939   6.761   4.848
 9285TIP3    H227801   0.887   6.823   4.976
 9286TIP3   OH227802   2.965   5.678   1.828
 9286TIP3    H127803   3.055   5.647   1.821
 9286TIP3    H227804   2.947   5.677   1.922
 9287TIP3   OH227805   3.154   6.934   3.759
 9287TIP3    H127806   3.225   6.975   3.809
 9287TIP3    H227807   3.160   6.841   3.781
 9288TIP3   OH227808   4.132   2.520   5.215
 9288TIP3    H127809   4.213   2.561   5.183
 9288TIP3    H227810   4.063   2.559   5.162
 9289TIP3   OH227811   2.360   5.686   2.149
 9289TIP3    H127812   2.338   5.629   2.075
 9289TIP3    H227813   2.361   5.628   2.225
 9290TIP3   OH227814   6.141   4.868   3.106
 9290TIP3    H127815   6.137   4.963   3.121
 9290TIP3    H227816   6.219   4.839   3.154
 9291TIP3   OH227817   3.119   3.442   1.016
 9291TIP3    H127818   3.079   3.383   0.953
 9291TIP3    H227819   3.213   3.433   1.000
 9292TIP3   OH227820   4.419   3.447   4.977
 9292TIP3    H127821   4.362   3.507   4.929
 9292TIP3    H227822   4.399   3.462   5.069
 9293TIP3   OH227823   4.797   6.782   2.817
 9293TIP3    H127824   4.831   6.845   2.881
 9293TIP3    H227825   4.811   6.696   2.858
 9294TIP3   OH227826   5.153   0.541   5.201
 9294TIP3    H127827   5.125   0.590   5.124
 9294TIP3    H227828   5.115   0.454   5.190
 9295TIP3   OH227829   4.947   6.217   4.453
 9295TIP3    H127830   4.855   6.230   4.431
 9295TIP3    H227831   4.991   6.294   4.416
 9296TIP3   OH227832   0.793   3.983   3.312
 9296TIP3    H127833   0.699   3.966   3.312
 9296TIP3    H227834   0.801   4.074   3.341
 9297TIP3   OH227835   1.584   2.135   3.924
 9297TIP3    H127836   1.556   2.225   3.942
 9297TIP3    H227837   1.513   2.098   3.871
 9298TIP3   OH227838   4.497   6.662   1.686
 9298TIP3    H127839   4.466   6.605   1.757
 9298TIP3    H227840   4.507   6.603   1.612
 9299TIP3   OH227841   0.831   5.852   6.490
 9299TIP3    H127842   0.800   5.765   6.514
 9299TIP3    H227843   0.847   5.897   6.573
 9300TIP3   OH227844   0.654   3.810   3.884
 9300TIP3    H127845   0.740   3.814   3.926
 9300TIP3    H227846   0.643   3.896   3.844
 9301TIP3   OH227847   5.986   1.953   0.760
 9301TIP3    H127848   6.037   1.895   0.816
 9301TIP3    H227849   5.969   1.902   0.681
 9302TIP3   OH227850   6.553   0.097   1.142
 9302TIP3    H127851   6.562   0.010   1.103
 9302TIP3    H227852   6.462   0.101   1.171
 9303TIP3   OH227853   6.174   3.314   2.061
 9303TIP3    H127854   6.121   3.293   1.985
 9303TIP3    H227855   6.111   3.324   2.133
 9304TIP3   OH227856   2.843   3.940   0.620
 9304TIP3    H127857   2.899   3.990   0.680
 9304TIP3    H227858   2.788   4.007   0.578
 9305TIP3   OH227859   4.340   0.136   2.573
 9305TIP3    H127860   4.284   0.140   2.651
 9305TIP3    H227861   4.291   0.083   2.511
 9306TIP3   OH227862   2.639   1.090   5.342
 9306TIP3    H127863   2.603   1.019   5.394
 9306TIP3    H227864   2.654   1.161   5.404
 9307TIP3   OH227865   7.734   4.731   4.615
 9307TIP3    H127866   7.789   4.673   4.562
 9307TIP3    H227867   7.784   4.744   4.696
 9308TIP3   OH227868   3.099   4.173   6.497
 9308TIP3    H127869   3.160   4.135   6.433
 9308TIP3    H227870   3.152   4.236   6.546
 9309TIP3   OH227871   0.565   6.197   3.184
 9309TIP3    H127872   0.485   6.145   3.190
 9309TIP3    H227873   0.558   6.262   3.254
 9310TIP3   OH227874   1.080   3.987   0.567
 9310TIP3    H127875   1.057   4.067   0.614
 9310TIP3    H227876   1.089   3.921   0.636
 9311TIP3   OH227877   0.659   1.432   3.807
 9311TIP3    H127878   0.642   1.445   3.713
 9311TIP3    H227879   0.626   1.345   3.826
 9312TIP3   OH227880   2.642   7.229   4.811
 9312TIP3    H127881   2.599   7.307   4.776
 9312TIP3    H227882   2.680   7.258   4.894
 9313TIP3   OH227883   7.922   6.013   4.080
 9313TIP3    H127884   8.017   6.002   4.085
 9313TIP3    H227885   7.910   6.103   4.052
 9314TIP3   OH227886   2.588   7.282   3.085
 9314TIP3    H127887   2.596   7.347   3.016
 9314TIP3    H227888   2.562   7.201   3.041
 9315TIP3   OH227889   5.728   5.424   2.464
 9315TIP3    H127890   5.808   5.372   2.449
 9315TIP3    H227891   5.694   5.441   2.376
 9316TIP3   OH227892   6.949   4.475   3.172
 9316TIP3    H127893   6.938   4.405   3.237
 9316TIP3    H227894   6.926   4.555   3.218
 9317TIP3   OH227895   0.819   2.232   0.030
 9317TIP3    H127896   0.899   2.195   0.067
 9317TIP3    H227897   0.811   2.191  -0.056
 9318TIP3   OH227898   4.084   4.431   0.703
 9318TIP3    H127899   4.012   4.482   0.664
 9318TIP3    H227900   4.047   4.397   0.784
 9319TIP3   OH227901   7.074   7.164   5.615
 9319TIP3    H127902   7.007   7.192   5.552
 9319TIP3    H227903   7.157   7.186   5.572
 9320TIP3   OH227904   6.736   6.516   2.479
 9320TIP3    H127905   6.794   6.477   2.414
 9320TIP3    H227906   6.687   6.442   2.515
 9321TIP3   OH227907   1.800   7.141   6.342
 9321TIP3    H127908   1.733   7.105   6.284
 9321TIP3    H227909   1.756   7.152   6.426
 9322TIP3   OH227910   0.196   4.936   3.078
 9322TIP3    H127911   0.243   5.019   3.087
 9322TIP3    H227912   0.122   4.943   3.139
 9323TIP3   OH227913   0.228   1.902   1.092
 9323TIP3    H127914   0.323   1.889   1.094
 9323TIP3    H227915   0.209   1.930   1.003
 9324TIP3   OH227916   0.192   4.140   3.120
 9324TIP3    H127917   0.272   4.193   3.119
 9324TIP3    H227918   0.217   4.060   3.166
 9325TIP3   OH227919   7.791   1.951   0.330
 9325TIP3    H127920   7.848   2.026   0.351
 9325TIP3    H227921   7.772   1.911   0.415
 9326TIP3   OH227922   5.345   0.149   2.829
 9326TIP3    H127923   5.417   0.126   2.887
 9326TIP3    H227924   5.339   0.075   2.768
 9327TIP3   OH227925   2.670   0.612   0.417
 9327TIP3    H127926   2.597   0.653   0.370
 9327TIP3    H227927   2.715   0.686   0.459
 9328TIP3   OH227928   0.769   6.792   3.195
 9328TIP3    H127929   0.749   6.751   3.279
 9328TIP3    H227930   0.827   6.729   3.151
 9329TIP3   OH227931   3.665   1.843   6.561
 9329TIP3    H127932   3.702   1.862   6.475
 9329TIP3    H227933   3.720   1.773   6.596
 9330TIP3   OH227934   1.194   1.946   2.867
 9330TIP3    H127935   1.264   2.011   2.876
 9330TIP3    H227936   1.139   1.979   2.796
 9331TIP3   OH227937   1.615   1.904   5.240
 9331TIP3    H127938   1.567   1.972   5.193
 9331TIP3    H227939   1.670   1.863   5.173
 9332TIP3   OH227940   4.129   0.266   5.283
 9332TIP3    H127941   4.097   0.352   5.256
 9332TIP3    H227942   4.083   0.248   5.365
 9333TIP3   OH227943   7.767   1.288   2.050
 9333TIP3    H127944   7.859   1.264   2.047
 9333TIP3    H227945   7.764   1.380   2.023
 9334TIP3   OH227946   3.143   7.114   2.893
 9334TIP3    H127947   3.059   7.108   2.938
 9334TIP3    H227948   3.120   7.139   2.804
 9335TIP3   OH227949   7.574   6.673   2.680
 9335TIP3    H127950   7.646   6.705   2.734
 9335TIP3    H227951   7.565   6.581   2.704
 9336TIP3   OH227952   2.936   3.842   0.340
 9336TIP3    H127953   2.894   3.757   0.331
 9336TIP3    H227954   2.959   3.847   0.433
 9337TIP3   OH227955   6.318   1.913   0.444
 9337TIP3    H127956   6.350   2.002   0.458
 9337TIP3    H227957   6.326   1.899   0.350
 9338TIP3   OH227958   4.370   7.588   2.817
 9338TIP3    H127959   4.291   7.588   2.872
 9338TIP3    H227960   4.375   7.677   2.782
 9339TIP3   OH227961   0.387   4.905  -0.028
 9339TIP3    H127962   0.476   4.874  -0.011
 9339TIP3    H227963   0.336   4.875   0.047
 9340TIP3   OH227964   0.103   1.088   3.582
 9340TIP3    H127965   0.099   0.992   3.575
 9340TIP3    H227966   0.079   1.119   3.495
 9341TIP3   OH227967   4.911   7.187   2.627
 9341TIP3    H127968   4.980   7.206   2.690
 9341TIP3    H227969   4.929   7.099   2.596
 9342TIP3   OH227970   0.197   3.113   4.477
 9342TIP3    H127971   0.192   3.162   4.559
 9342TIP3    H227972   0.127   3.048   4.483
 9343TIP3   OH227973   5.607   6.099   0.129
 9343TIP3    H127974   5.672   6.088   0.199
 9343TIP3    H227975   5.650   6.155   0.065
 9344TIP3   OH227976   1.408   0.162   5.587
 9344TIP3    H127977   1.420   0.124   5.500
 9344TIP3    H227978   1.496   0.189   5.614
 9345TIP3   OH227979   4.460   6.276   0.220
 9345TIP3    H127980   4.511   6.204   0.257
 9345TIP3    H227981   4.487   6.279   0.128
 9346TIP3   OH227982   4.414   0.065   3.069
 9346TIP3    H127983   4.442  -0.016   3.026
 9346TIP3    H227984   4.320   0.052   3.086
 9347TIP3   OH227985   7.042   5.500   6.053
 9347TIP3    H127986   7.066   5.470   6.141
 9347TIP3    H227987   6.946   5.508   6.056
 9348TIP3   OH227988   3.243   4.406   0.146
 9348TIP3    H127989   3.230   4.388   0.052
 9348TIP3    H227990   3.198   4.490   0.160
 9349TIP3   OH227991   2.347   5.800   3.118
 9349TIP3    H127992   2.324   5.848   3.038
 9349TIP3    H227993   2.331   5.708   3.096
 9350TIP3   OH227994   6.234   1.060   5.019
 9350TIP3    H127995   6.289   1.041   4.943
 9350TIP3    H227996   6.294   1.053   5.094
 9351TIP3   OH227997   5.289   6.361   4.891
 9351TIP3    H127998   5.375   6.388   4.858
 9351TIP3    H227999   5.308   6.329   4.980
 9352TIP3   OH228000   4.355   0.579   4.369
 9352TIP3    H128001   4.340   0.509   4.433
 9352TIP3    H228002   4.428   0.629   4.405
 9353TIP3   OH228003   0.229   7.007   0.758
 9353TIP3    H128004   0.164   6.937   0.743
 9353TIP3    H228005   0.289   6.970   0.823
 9354TIP3   OH228006   4.665   6.220   4.375
 9354TIP3    H128007   4.608   6.205   4.450
 9354TIP3    H228008   4.613   6.191   4.299
 9355TIP3   OH228009   0.186   2.694   3.733
 9355TIP3    H128010   0.263   2.660   3.778
 9355TIP3    H228011   0.187   2.788   3.752
 9356TIP3   OH228012   4.449   6.682   0.053
 9356TIP3    H128013   4.482   6.771   0.041
 9356TIP3    H228014   4.419   6.655  -0.034
 9357TIP3   OH228015   1.205   7.619   5.058
 9357TIP3    H128016   1.252   7.677   5.118
 9357TIP3    H228017   1.199   7.669   4.976
 9358TIP3   OH228018   3.785   4.014   3.051
 9358TIP3    H128019   3.769   4.093   3.000
 9358TIP3    H228020   3.872   3.985   3.024
 9359TIP3   OH228021   8.203   3.792   3.152
 9359TIP3    H128022   8.168   3.705   3.133
 9359TIP3    H228023   8.271   3.805   3.086
 9360TIP3   OH228024   2.532   0.487   0.664
 9360TIP3    H128025   2.575   0.522   0.742
 9360TIP3    H228026   2.580   0.525   0.590
 9361TIP3   OH228027   2.581   5.435   2.119
 9361TIP3    H128028   2.634   5.434   2.198
 9361TIP3    H228029   2.575   5.527   2.094
 9362TIP3   OH228030   5.651   1.885   3.548
 9362TIP3    H128031   5.686   1.966   3.586
 9362TIP3    H228032   5.677   1.889   3.456
 9363TIP3   OH228033   7.113   0.331   5.115
 9363TIP3    H128034   7.081   0.421   5.106
 9363TIP3    H228035   7.107   0.313   5.209
 9364TIP3   OH228036   5.698   4.621   5.782
 9364TIP3    H128037   5.691   4.706   5.826
 9364TIP3    H228038   5.780   4.584   5.814
 9365TIP3   OH228039   4.961   3.779   0.003
 9365TIP3    H128040   4.936   3.687   0.013
 9365TIP3    H228041   4.900   3.813  -0.064
 9366TIP3   OH228042   4.000   4.278   3.300
 9366TIP3    H128043   4.061   4.324   3.243
 9366TIP3    H228044   3.914   4.293   3.261
 9367TIP3   OH228045   6.369   5.389   1.396
 9367TIP3    H128046   6.316   5.323   1.351
 9367TIP3    H228047   6.419   5.340   1.461
 9368TIP3   OH228048   6.265   7.652   6.611
 9368TIP3    H128049   6.304   7.581   6.559
 9368TIP3    H228050   6.287   7.732   6.562
 9369TIP3   OH228051   6.906   4.807   4.893
 9369TIP3    H128052   6.836   4.778   4.834
 9369TIP3    H228053   6.967   4.734   4.896
 9370TIP3   OH228054   5.134   3.325   2.664
 9370TIP3    H128055   5.057   3.293   2.712
 9370TIP3    H228056   5.189   3.248   2.653
 9371TIP3   OH228057   3.163   4.244   5.827
 9371TIP3    H128058   3.122   4.306   5.768
 9371TIP3    H228059   3.143   4.276   5.915
 9372TIP3   OH228060   0.119   3.802   0.544
 9372TIP3    H128061   0.097   3.888   0.507
 9372TIP3    H228062   0.210   3.810   0.571
 9373TIP3   OH228063   3.353   2.925   5.930
 9373TIP3    H128064   3.336   2.926   5.835
 9373TIP3    H228065   3.393   2.840   5.947
 9374TIP3   OH228066   2.482   0.743   2.992
 9374TIP3    H128067   2.404   0.736   3.046
 9374TIP3    H228068   2.502   0.836   2.990
 9375TIP3   OH228069   6.700   4.927   5.917
 9375TIP3    H128070   6.760   4.854   5.899
 9375TIP3    H228071   6.744   4.979   5.984
 9376TIP3   OH228072   6.166   0.860   6.760
 9376TIP3    H128073   6.207   0.920   6.822
 9376TIP3    H228074   6.218   0.868   6.680
 9377TIP3   OH228075   5.559   7.409   3.241
 9377TIP3    H128076   5.577   7.323   3.205
 9377TIP3    H228077   5.623   7.467   3.199
 9378TIP3   OH228078   0.619   3.925   0.134
 9378TIP3    H128079   0.562   3.866   0.183
 9378TIP3    H228080   0.636   3.997   0.193
 9379TIP3   OH228081   3.276   6.447   3.614
 9379TIP3    H128082   3.222   6.370   3.597
 9379TIP3    H228083   3.293   6.444   3.709
 9380TIP3   OH228084   5.731   6.495   0.192
 9380TIP3    H128085   5.711   6.517   0.283
 9380TIP3    H228086   5.823   6.470   0.193
 9381TIP3   OH228087   7.984   0.239   3.374
 9381TIP3    H128088   7.903   0.281   3.403
 9381TIP3    H228089   8.054   0.298   3.403
 9382TIP3   OH228090   2.002   7.479   0.051
 9382TIP3    H128091   2.052   7.471   0.132
 9382TIP3    H228092   1.986   7.573   0.042
 9383TIP3   OH228093   3.304   6.904   2.758
 9383TIP3    H128094   3.267   6.958   2.827
 9383TIP3    H228095   3.228   6.865   2.715
 9384TIP3   OH228096   3.329   5.958   3.677
 9384TIP3    H128097   3.352   5.889   3.614
 9384TIP3    H228098   3.241   5.985   3.652
 9385TIP3   OH228099   1.038   5.170   4.469
 9385TIP3    H128100   1.127   5.189   4.497
 9385TIP3    H228101   1.047   5.109   4.396
 9386TIP3   OH228102   3.627   6.232   4.712
 9386TIP3    H128103   3.672   6.289   4.650
 9386TIP3    H228104   3.632   6.279   4.796
 9387TIP3   OH228105   5.415   2.245   2.804
 9387TIP3    H128106   5.427   2.233   2.898
 9387TIP3    H228107   5.503   2.261   2.770
 9388TIP3   OH228108   6.994   0.521   5.433
 9388TIP3    H128109   7.009   0.428   5.419
 9388TIP3    H228110   6.939   0.548   5.359
 9389TIP3   OH228111   0.989   7.403   5.456
 9389TIP3    H128112   0.963   7.478   5.402
 9389TIP3    H228113   1.039   7.347   5.396
 9390TIP3   OH228114   5.373   0.273   1.213
 9390TIP3    H128115   5.280   0.297   1.204
 9390TIP3    H228116   5.410   0.341   1.269
 9391TIP3   OH228117   1.717   3.406   2.308
 9391TIP3    H128118   1.761   3.472   2.362
 9391TIP3    H228119   1.637   3.449   2.278
 9392TIP3   OH228120   7.956   3.066   4.084
 9392TIP3    H128121   7.954   3.036   3.993
 9392TIP3    H228122   7.865   3.085   4.105
 9393TIP3   OH228123   6.727   5.681   2.761
 9393TIP3    H128124   6.821   5.681   2.781
 9393TIP3    H228125   6.715   5.755   2.701
 9394TIP3   OH228126   2.096   0.850   2.514
 9394TIP3    H128127   2.056   0.934   2.538
 9394TIP3    H228128   2.083   0.795   2.592
 9395TIP3   OH228129   0.730   5.363   0.641
 9395TIP3    H128130   0.714   5.278   0.601
 9395TIP3    H228131   0.676   5.363   0.720
 9396TIP3   OH228132   4.455   5.844   0.098
 9396TIP3    H128133   4.547   5.868   0.096
 9396TIP3    H228134   4.422   5.881   0.179
 9397TIP3   OH228135   0.212   4.099   3.767
 9397TIP3    H128136   0.171   4.162   3.826
 9397TIP3    H228137   0.246   4.031   3.825
 9398TIP3   OH228138   1.511   0.049   0.444
 9398TIP3    H128139   1.604   0.059   0.467
 9398TIP3    H228140   1.487  -0.036   0.479
 9399TIP3   OH228141   5.483   7.290   6.089
 9399TIP3    H128142   5.458   7.377   6.058
 9399TIP3    H228143   5.495   7.239   6.009
 9400TIP3   OH228144   0.716   1.339   1.788
 9400TIP3    H128145   0.796   1.364   1.742
 9400TIP3    H228146   0.656   1.310   1.719
 9401TIP3   OH228147   4.456   4.588   5.953
 9401TIP3    H128148   4.482   4.538   6.030
 9401TIP3    H228149   4.364   4.563   5.939
 9402TIP3   OH228150   7.410   4.404   3.870
 9402TIP3    H128151   7.402   4.312   3.895
 9402TIP3    H228152   7.334   4.421   3.815
 9403TIP3   OH228153   4.743   4.215   5.974
 9403TIP3    H128154   4.805   4.195   5.904
 9403TIP3    H228155   4.797   4.245   6.047
 9404TIP3   OH228156   2.086   4.394   5.383
 9404TIP3    H128157   2.134   4.324   5.339
 9404TIP3    H228158   2.155   4.454   5.414
 9405TIP3   OH228159   1.952   5.861   3.901
 9405TIP3    H128160   2.005   5.897   3.971
 9405TIP3    H228161   1.959   5.766   3.911
 9406TIP3   OH228162   4.113   5.049   3.866
 9406TIP3    H128163   4.205   5.062   3.843
 9406TIP3    H228164   4.066   5.055   3.783
 9407TIP3   OH228165   4.329   4.660   0.067
 9407TIP3    H128166   4.239   4.649   0.037
 9407TIP3    H228167   4.321   4.715   0.145
 9408TIP3   OH228168   0.568   3.851   5.047
 9408TIP3    H128169   0.512   3.788   5.002
 9408TIP3    H228170   0.641   3.865   4.987
 9409TIP3   OH228171   7.366   2.500   4.231
 9409TIP3    H128172   7.382   2.489   4.138
 9409TIP3    H228173   7.304   2.431   4.254
 9410TIP3   OH228174   1.943   1.174   5.376
 9410TIP3    H128175   2.033   1.192   5.402
 9410TIP3    H228176   1.909   1.258   5.346
 9411TIP3   OH228177   7.435   4.418   5.032
 9411TIP3    H128178   7.361   4.360   5.011
 9411TIP3    H228179   7.401   4.506   5.016
 9412TIP3   OH228180   0.100   2.324   1.922
 9412TIP3    H128181   0.051   2.267   1.982
 9412TIP3    H228182   0.191   2.296   1.932
 9413TIP3   OH228183   5.681   1.178   6.060
 9413TIP3    H128184   5.743   1.109   6.084
 9413TIP3    H228185   5.598   1.133   6.045
 9414TIP3   OH228186   1.581   3.632   0.347
 9414TIP3    H128187   1.662   3.580   0.343
 9414TIP3    H228188   1.535   3.598   0.424
 9415TIP3   OH228189   5.267   3.184   1.385
 9415TIP3    H128190   5.231   3.270   1.405
 9415TIP3    H228191   5.212   3.151   1.314
 9416TIP3   OH228192   7.004   3.526   2.934
 9416TIP3    H128193   7.055   3.573   2.868
 9416TIP3    H228194   6.940   3.590   2.965
 9417TIP3   OH228195   3.993   3.376   0.093
 9417TIP3    H128196   3.972   3.289   0.127
 9417TIP3    H228197   4.042   3.359   0.013
 9418TIP3   OH228198   1.122   6.366   0.910
 9418TIP3    H128199   1.175   6.295   0.946
 9418TIP3    H228200   1.033   6.332   0.910
 9419TIP3   OH228201   6.290   5.814   0.438
 9419TIP3    H128202   6.285   5.718   0.445
 9419TIP3    H228203   6.290   5.844   0.528
 9420TIP3   OH228204   6.773   6.700   5.254
 9420TIP3    H128205   6.769   6.623   5.311
 9420TIP3    H228206   6.750   6.666   5.167
 9421TIP3   OH228207   2.239   6.388   2.870
 9421TIP3    H128208   2.317   6.333   2.858
 9421TIP3    H228209   2.255   6.464   2.814
 9422TIP3   OH228210   6.871   3.563   6.485
 9422TIP3    H128211   6.834   3.642   6.526
 9422TIP3    H228212   6.938   3.597   6.425
 9423TIP3   OH228213   7.620   5.740   0.894
 9423TIP3    H128214   7.631   5.824   0.937
 9423TIP3    H228215   7.659   5.677   0.954
 9424TIP3   OH228216   2.984   2.469   1.460
 9424TIP3    H128217   3.055   2.446   1.400
 9424TIP3    H228218   2.980   2.395   1.521
 9425TIP3   OH228219   2.861   0.269   5.492
 9425TIP3    H128220   2.863   0.185   5.538
 9425TIP3    H228221   2.817   0.250   5.409
 9426TIP3   OH228222   0.250   6.864   3.687
 9426TIP3    H128223   0.258   6.954   3.718
 9426TIP3    H228224   0.157   6.854   3.664
 9427TIP3   OH228225   5.430   5.820   5.388
 9427TIP3    H128226   5.466   5.874   5.459
 9427TIP3    H228227   5.418   5.881   5.315
 9428TIP3   OH228228   8.221   0.914   6.130
 9428TIP3    H128229   8.127   0.897   6.135
 9428TIP3    H228230   8.241   0.966   6.208
 9429TIP3   OH228231   0.991   0.091   3.543
 9429TIP3    H128232   1.086   0.090   3.532
 9429TIP3    H228233   0.973   0.175   3.585
 9430TIP3   OH228234   4.553   3.178   2.092
 9430TIP3    H128235   4.593   3.169   2.006
 9430TIP3    H228236   4.593   3.110   2.146
 9431TIP3   OH228237   0.640   2.697   4.545
 9431TIP3    H128238   0.716   2.738   4.503
 9431TIP3    H228239   0.568   2.759   4.529
 9432TIP3   OH228240   1.427   1.814   6.542
 9432TIP3    H128241   1.482   1.784   6.615
 9432TIP3    H228242   1.362   1.870   6.583
 9433TIP3   OH228243   5.120   2.310   5.994
 9433TIP3    H128244   5.122   2.397   5.956
 9433TIP3    H228245   5.102   2.325   6.087
 9434TIP3   OH228246   2.308   7.177   3.653
 9434TIP3    H128247   2.285   7.157   3.563
 9434TIP3    H228248   2.231   7.155   3.704
 9435TIP3   OH228249   1.488   7.565   3.803
 9435TIP3    H128250   1.525   7.618   3.873
 9435TIP3    H228251   1.546   7.579   3.729
 9436TIP3   OH228252   1.876   4.147   5.449
 9436TIP3    H128253   1.913   4.157   5.537
 9436TIP3    H228254   1.869   4.052   5.436
 9437TIP3   OH228255   5.270   1.051   3.940
 9437TIP3    H128256   5.212   0.975   3.952
 9437TIP3    H228257   5.219   1.111   3.886
 9438TIP3   OH228258   1.602   6.148   5.336
 9438TIP3    H128259   1.508   6.161   5.336
 9438TIP3    H228260   1.625   6.138   5.243
 9439TIP3   OH228261   0.333   3.027   4.878
 9439TIP3    H128262   0.417   2.982   4.882
 9439TIP3    H228263   0.273   2.969   4.924
 9440TIP3   OH228264   7.936   4.102   2.664
 9440TIP3    H128265   7.892   4.187   2.662
 9440TIP3    H228266   7.993   4.102   2.587
 9441TIP3   OH228267   7.339   0.831   1.542
 9441TIP3    H128268   7.290   0.784   1.610
 9441TIP3    H228269   7.334   0.774   1.465
 9442TIP3   OH228270   4.080   6.705   6.297
 9442TIP3    H128271   4.114   6.673   6.381
 9442TIP3    H228272   4.127   6.655   6.231
 9443TIP3   OH228273   4.861   5.673   1.460
 9443TIP3    H128274   4.888   5.747   1.515
 9443TIP3    H228275   4.943   5.640   1.424
 9444TIP3   OH228276   6.397   6.034   6.322
 9444TIP3    H128277   6.340   5.957   6.317
 9444TIP3    H228278   6.350   6.096   6.377
 9445TIP3   OH228279   0.135   0.801   3.335
 9445TIP3    H128280   0.131   0.759   3.422
 9445TIP3    H228281   0.226   0.828   3.326
 9446TIP3   OH228282   4.204   4.625   3.394
 9446TIP3    H128283   4.218   4.665   3.480
 9446TIP3    H228284   4.109   4.628   3.381
 9447TIP3   OH228285   0.840   2.368   4.633
 9447TIP3    H128286   0.777   2.303   4.665
 9447TIP3    H228287   0.911   2.315   4.595
 9448TIP3   OH228288   1.594   6.258   2.344
 9448TIP3    H128289   1.620   6.244   2.253
 9448TIP3    H228290   1.607   6.352   2.358
 9449TIP3   OH228291   4.076   0.687   1.599
 9449TIP3    H128292   4.132   0.628   1.650
 9449TIP3    H228293   4.126   0.768   1.592
 9450TIP3   OH228294   4.396   4.870   1.924
 9450TIP3    H128295   4.318   4.824   1.892
 9450TIP3    H228296   4.428   4.814   1.995
 9451TIP3   OH228297   0.203   7.570   0.882
 9451TIP3    H128298   0.270   7.610   0.937
 9451TIP3    H228299   0.241   7.569   0.794
 9452TIP3   OH228300   7.033   3.178   0.640
 9452TIP3    H128301   7.040   3.159   0.547
 9452TIP3    H228302   7.073   3.103   0.683
 9453TIP3   OH228303   4.125   7.573   1.797
 9453TIP3    H128304   4.099   7.592   1.707
 9453TIP3    H228305   4.145   7.479   1.797
 9454TIP3   OH228306   4.163   3.636   6.020
 9454TIP3    H128307   4.226   3.564   6.027
 9454TIP3    H228308   4.078   3.595   6.028
 9455TIP3   OH228309   6.211   0.983   3.842
 9455TIP3    H128310   6.116   0.996   3.837
 9455TIP3    H228311   6.235   0.951   3.755
 9456TIP3   OH228312   0.372   6.344   6.474
 9456TIP3    H128313   0.395   6.424   6.521
 9456TIP3    H228314   0.322   6.374   6.398
 9457TIP3   OH228315   7.577   7.592   2.987
 9457TIP3    H128316   7.629   7.556   2.915
 9457TIP3    H228317   7.509   7.644   2.943
 9458TIP3   OH228318   0.412   0.943   1.410
 9458TIP3    H128319   0.325   0.922   1.445
 9458TIP3    H228320   0.395   0.967   1.318
 9459TIP3   OH228321   0.242   1.455   4.670
 9459TIP3    H128322   0.237   1.549   4.684
 9459TIP3    H228323   0.296   1.445   4.591
 9460TIP3   OH228324   5.616   4.335   5.729
 9460TIP3    H128325   5.572   4.326   5.814
 9460TIP3    H228326   5.586   4.419   5.696
 9461TIP3   OH228327   6.252   2.081   3.637
 9461TIP3    H128328   6.272   1.994   3.603
 9461TIP3    H228329   6.284   2.079   3.727
 9462TIP3   OH228330   4.325   6.123   5.678
 9462TIP3    H128331   4.273   6.130   5.758
 9462TIP3    H228332   4.277   6.175   5.614
 9463TIP3   OH228333   7.689   7.095   0.112
 9463TIP3    H128334   7.691   7.020   0.173
 9463TIP3    H228335   7.687   7.055   0.025
 9464TIP3   OH228336   5.070   1.037   6.745
 9464TIP3    H128337   5.071   0.944   6.764
 9464TIP3    H228338   5.020   1.076   6.817
 9465TIP3   OH228339   3.337   4.547   4.358
 9465TIP3    H128340   3.285   4.549   4.438
 9465TIP3    H228341   3.277   4.578   4.290
 9466TIP3   OH228342   3.925   5.208   0.560
 9466TIP3    H128343   3.866   5.279   0.584
 9466TIP3    H228344   3.973   5.189   0.641
 9467TIP3   OH228345   2.733   5.650   2.782
 9467TIP3    H128346   2.703   5.730   2.739
 9467TIP3    H228347   2.695   5.654   2.870
 9468TIP3   OH228348   0.532   6.829   3.765
 9468TIP3    H128349   0.574   6.894   3.708
 9468TIP3    H228350   0.440   6.852   3.765
 9469TIP3   OH228351   0.446   4.412   2.135
 9469TIP3    H128352   0.462   4.473   2.062
 9469TIP3    H228353   0.526   4.360   2.141
 9470TIP3   OH228354   6.638   5.470   4.777
 9470TIP3    H128355   6.581   5.538   4.740
 9470TIP3    H228356   6.579   5.397   4.796
 9471TIP3   OH228357   3.199   2.809   6.411
 9471TIP3    H128358   3.246   2.727   6.401
 9471TIP3    H228359   3.266   2.877   6.402
 9472TIP3   OH228360   2.373   4.019   5.549
 9472TIP3    H128361   2.304   3.981   5.493
 9472TIP3    H228362   2.453   3.977   5.518
 9473TIP3   OH228363   0.588   2.503   2.206
 9473TIP3    H128364   0.567   2.594   2.184
 9473TIP3    H228365   0.504   2.458   2.205
 9474TIP3   OH228366   4.026   2.231   2.781
 9474TIP3    H128367   4.020   2.240   2.686
 9474TIP3    H228368   3.944   2.270   2.814
 9475TIP3   OH228369   6.040   3.377   0.571
 9475TIP3    H128370   6.036   3.396   0.665
 9475TIP3    H228371   6.114   3.428   0.540
 9476TIP3   OH228372   3.334   0.060   6.188
 9476TIP3    H128373   3.420   0.071   6.148
 9476TIP3    H228374   3.298  -0.018   6.146
 9477TIP3   OH228375   6.837   0.614   4.737
 9477TIP3    H128376   6.812   0.679   4.671
 9477TIP3    H228377   6.896   0.555   4.692
 9478TIP3   OH228378   2.059   1.569   5.761
 9478TIP3    H128379   2.003   1.534   5.831
 9478TIP3    H228380   2.147   1.567   5.798
 9479TIP3   OH228381   6.396   1.664   4.039
 9479TIP3    H128382   6.364   1.697   4.123
 9479TIP3    H228383   6.318   1.660   3.983
 9480TIP3   OH228384   4.449   4.684   2.115
 9480TIP3    H128385   4.366   4.649   2.148
 9480TIP3    H228386   4.507   4.608   2.109
 9481TIP3   OH228387   2.266   3.733   3.885
 9481TIP3    H128388   2.293   3.738   3.977
 9481TIP3    H228389   2.175   3.765   3.886
 9482TIP3   OH228390   0.778   7.565   3.944
 9482TIP3    H128391   0.728   7.594   3.868
 9482TIP3    H228392   0.715   7.569   4.017
 9483TIP3   OH228393   2.260   0.487   2.479
 9483TIP3    H128394   2.302   0.527   2.554
 9483TIP3    H228395   2.231   0.560   2.424
 9484TIP3   OH228396   5.462   1.872   3.940
 9484TIP3    H128397   5.400   1.935   3.979
 9484TIP3    H228398   5.527   1.927   3.896
 9485TIP3   OH228399   5.638   0.653   0.670
 9485TIP3    H128400   5.585   0.576   0.650
 9485TIP3    H228401   5.677   0.677   0.586
 9486TIP3   OH228402   1.843   1.096   5.626
 9486TIP3    H128403   1.871   1.104   5.534
 9486TIP3    H228404   1.924   1.106   5.676
 9487TIP3   OH228405   0.963   2.794   2.908
 9487TIP3    H128406   1.017   2.867   2.937
 9487TIP3    H228407   0.899   2.833   2.848
 9488TIP3   OH228408   6.796   0.311   1.485
 9488TIP3    H128409   6.820   0.252   1.556
 9488TIP3    H228410   6.803   0.257   1.406
 9489TIP3   OH228411   7.584   2.045   5.645
 9489TIP3    H128412   7.488   2.041   5.645
 9489TIP3    H228413   7.605   2.123   5.594
 9490TIP3   OH228414   7.946   4.018   4.672
 9490TIP3    H128415   8.023   4.018   4.614
 9490TIP3    H228416   7.954   4.100   4.721
 9491TIP3   OH228417   6.155   6.790   1.354
 9491TIP3    H128418   6.176   6.826   1.268
 9491TIP3    H228419   6.111   6.707   1.335
 9492TIP3   OH228420   1.375   2.077   2.209
 9492TIP3    H128421   1.349   1.986   2.225
 9492TIP3    H228422   1.380   2.084   2.113
 9493TIP3   OH228423   0.670   2.047   2.005
 9493TIP3    H128424   0.738   1.993   2.046
 9493TIP3    H228425   0.703   2.136   2.011
 9494TIP3   OH228426   1.666   0.795   6.161
 9494TIP3    H128427   1.695   0.821   6.074
 9494TIP3    H228428   1.744   0.761   6.204
 9495TIP3   OH228429   5.555   4.857   3.441
 9495TIP3    H128430   5.603   4.778   3.465
 9495TIP3    H228431   5.490   4.827   3.377
 9496TIP3   OH228432   8.163   2.481   6.254
 9496TIP3    H128433   8.130   2.474   6.165
 9496TIP3    H228434   8.258   2.487   6.243
 9497TIP3   OH228435   4.777   5.375   4.761
 9497TIP3    H128436   4.774   5.285   4.793
 9497TIP3    H228437   4.720   5.424   4.821
 9498TIP3   OH228438   0.955   4.061   4.900
 9498TIP3    H128439   0.904   4.141   4.912
 9498TIP3    H228440   1.040   4.091   4.867
 9499TIP3   OH228441   8.231   0.296   4.453
 9499TIP3    H128442   8.192   0.384   4.445
 9499TIP3    H228443   8.324   0.312   4.467
 9500TIP3   OH228444   2.674   4.209   0.697
 9500TIP3    H128445   2.606   4.266   0.733
 9500TIP3    H228446   2.676   4.229   0.604
 9501TIP3   OH228447   0.237   6.255   3.790
 9501TIP3    H128448   0.280   6.289   3.869
 9501TIP3    H228449   0.192   6.331   3.753
 9502TIP3   OH228450   6.007   2.558   6.408
 9502TIP3    H128451   6.004   2.463   6.391
 9502TIP3    H228452   6.025   2.565   6.501
 9503TIP3   OH228453   4.753   3.109   5.614
 9503TIP3    H128454   4.682   3.156   5.658
 9503TIP3    H228455   4.772   3.164   5.537
 9504TIP3   OH228456   3.786   6.127   0.428
 9504TIP3    H128457   3.700   6.105   0.464
 9504TIP3    H228458   3.797   6.068   0.354
 9505TIP3   OH228459   0.633   3.365   3.371
 9505TIP3    H128460   0.694   3.293   3.387
 9505TIP3    H228461   0.624   3.368   3.276
 9506TIP3   OH228462   5.074   0.860   3.969
 9506TIP3    H128463   5.020   0.786   3.940
 9506TIP3    H228464   5.018   0.937   3.955
 9507TIP3   OH228465   3.237   0.822   1.196
 9507TIP3    H128466   3.275   0.872   1.123
 9507TIP3    H228467   3.270   0.866   1.274
 9508TIP3   OH228468   3.482   7.109   2.176
 9508TIP3    H128469   3.412   7.128   2.113
 9508TIP3    H228470   3.542   7.182   2.167
 9509TIP3   OH228471   2.782   2.503   6.131
 9509TIP3    H128472   2.696   2.537   6.107
 9509TIP3    H228473   2.828   2.495   6.047
 9510TIP3   OH228474   4.018   3.224   2.517
 9510TIP3    H128475   4.057   3.250   2.600
 9510TIP3    H228476   4.043   3.132   2.507
 9511TIP3   OH228477   5.377   7.527   0.704
 9511TIP3    H128478   5.384   7.599   0.642
 9511TIP3    H228479   5.311   7.469   0.667
 9512TIP3   OH228480   4.241   1.838   1.868
 9512TIP3    H128481   4.308   1.781   1.828
 9512TIP3    H228482   4.235   1.912   1.808
 9513TIP3   OH228483   7.208   4.893   6.092
 9513TIP3    H128484   7.248   4.813   6.125
 9513TIP3    H228485   7.127   4.902   6.142
 9514TIP3   OH228486   0.666   3.687   6.301
 9514TIP3    H128487   0.649   3.725   6.387
 9514TIP3    H228488   0.681   3.763   6.244
 9515TIP3   OH228489   1.802   1.622   2.941
 9515TIP3    H128490   1.828   1.655   2.855
 9515TIP3    H228491   1.718   1.579   2.926
 9516TIP3   OH228492   5.919   2.793   1.260
 9516TIP3    H128493   5.867   2.872   1.245
 9516TIP3    H228494   5.873   2.747   1.330
 9517TIP3   OH228495   3.359   2.942   1.233
 9517TIP3    H128496   3.302   2.950   1.309
 9517TIP3    H228497   3.431   2.885   1.263
 9518TIP3   OH228498   6.679   6.773   5.814
 9518TIP3    H128499   6.712   6.698   5.765
 9518TIP3    H228500   6.589   6.749   5.837
 9519TIP3   OH228501   0.066   6.271   4.903
 9519TIP3    H128502   0.100   6.182   4.902
 9519TIP3    H228503   0.068   6.299   4.812
 9520TIP3   OH228504   6.406   7.276   5.041
 9520TIP3    H128505   6.489   7.304   5.002
 9520TIP3    H228506   6.417   7.182   5.057
 9521TIP3   OH228507   7.159   4.568   1.864
 9521TIP3    H128508   7.111   4.651   1.867
 9521TIP3    H228509   7.188   4.561   1.773
 9522TIP3   OH228510   3.609   6.061   2.267
 9522TIP3    H128511   3.636   6.032   2.354
 9522TIP3    H228512   3.537   6.122   2.283
 9523TIP3   OH228513   1.225   4.065   5.095
 9523TIP3    H128514   1.278   4.041   5.019
 9523TIP3    H228515   1.247   4.157   5.111
 9524TIP3   OH228516   2.893   6.851   2.228
 9524TIP3    H128517   2.815   6.905   2.214
 9524TIP3    H228518   2.966   6.913   2.218
 9525TIP3   OH228519   2.042   0.677   3.936
 9525TIP3    H128520   2.018   0.692   4.028
 9525TIP3    H228521   2.004   0.592   3.915
 9526TIP3   OH228522   5.920   3.420   2.683
 9526TIP3    H128523   6.006   3.461   2.691
 9526TIP3    H228524   5.931   3.354   2.615
 9527TIP3   OH228525   1.707   4.024   2.373
 9527TIP3    H128526   1.680   4.103   2.326
 9527TIP3    H228527   1.685   4.042   2.465
 9528TIP3   OH228528   5.336   3.067   6.801
 9528TIP3    H128529   5.257   3.015   6.786
 9528TIP3    H228530   5.381   3.069   6.717
 9529TIP3   OH228531   2.452   0.553   1.414
 9529TIP3    H128532   2.526   0.496   1.433
 9529TIP3    H228533   2.446   0.553   1.319
 9530TIP3   OH228534   0.152   1.176   6.526
 9530TIP3    H128535   0.204   1.147   6.601
 9530TIP3    H228536   0.144   1.271   6.537
 9531TIP3   OH228537   4.192   0.209   0.105
 9531TIP3    H128538   4.194   0.205   0.201
 9531TIP3    H228539   4.238   0.130   0.077
 9532TIP3   OH228540   7.437   0.155   6.249
 9532TIP3    H128541   7.341   0.157   6.241
 9532TIP3    H228542   7.453   0.125   6.339
 9533TIP3   OH228543   7.501   0.136   2.097
 9533TIP3    H128544   7.589   0.110   2.070
 9533TIP3    H228545   7.497   0.230   2.079
 9534TIP3   OH228546   7.257   0.952   2.171
 9534TIP3    H128547   7.268   1.022   2.236
 9534TIP3    H228548   7.275   0.871   2.220
 9535TIP3   OH228549   5.944   1.054   1.568
 9535TIP3    H128550   5.929   0.976   1.513
 9535TIP3    H228551   6.026   1.035   1.613
 9536TIP3   OH228552   4.439   5.888   4.072
 9536TIP3    H128553   4.483   5.931   3.999
 9536TIP3    H228554   4.441   5.795   4.051
 9537TIP3   OH228555   7.708   0.733   5.720
 9537TIP3    H128556   7.649   0.791   5.769
 9537TIP3    H228557   7.745   0.789   5.652
 9538TIP3   OH228558   4.279   3.311   6.529
 9538TIP3    H128559   4.257   3.368   6.455
 9538TIP3    H228560   4.199   3.306   6.580
 9539TIP3   OH228561   6.396   5.042   0.767
 9539TIP3    H128562   6.472   5.063   0.713
 9539TIP3    H228563   6.422   5.064   0.856
 9540TIP3   OH228564   5.106   2.344   4.831
 9540TIP3    H128565   5.052   2.282   4.783
 9540TIP3    H228566   5.184   2.356   4.777
 9541TIP3   OH228567   1.461   7.770   5.481
 9541TIP3    H128568   1.460   7.677   5.463
 9541TIP3    H228569   1.476   7.812   5.396
 9542TIP3   OH228570   3.519   3.658   5.625
 9542TIP3    H128571   3.442   3.673   5.681
 9542TIP3    H228572   3.546   3.746   5.599
 9543TIP3   OH228573   3.675   6.184   1.180
 9543TIP3    H128574   3.599   6.201   1.124
 9543TIP3    H228575   3.638   6.155   1.263
 9544TIP3   OH228576   1.493   2.384   1.381
 9544TIP3    H128577   1.415   2.355   1.429
 9544TIP3    H228578   1.477   2.355   1.291
 9545TIP3   OH228579   3.956   4.866   0.772
 9545TIP3    H128580   3.971   4.811   0.849
 9545TIP3    H228581   3.960   4.955   0.804
 9546TIP3   OH228582   2.177   5.152   6.750
 9546TIP3    H128583   2.231   5.089   6.703
 9546TIP3    H228584   2.121   5.099   6.807
 9547TIP3   OH228585   1.089   6.544   3.776
 9547TIP3    H128586   1.112   6.498   3.695
 9547TIP3    H228587   1.166   6.598   3.796
 9548TIP3   OH228588   5.209   7.184   2.767
 9548TIP3    H128589   5.181   7.119   2.832
 9548TIP3    H228590   5.241   7.258   2.819
 9549TIP3   OH228591   0.516   7.441   6.256
 9549TIP3    H128592   0.576   7.495   6.308
 9549TIP3    H228593   0.430   7.480   6.269
 9550TIP3   OH228594   6.133   1.240   0.639
 9550TIP3    H128595   6.198   1.214   0.573
 9550TIP3    H228596   6.175   1.312   0.686
 9551TIP3   OH228597   1.677   0.609   3.682
 9551TIP3    H128598   1.660   0.702   3.696
 9551TIP3    H228599   1.647   0.592   3.592
 9552TIP3   OH228600   7.910   2.741   1.525
 9552TIP3    H128601   7.824   2.706   1.546
 9552TIP3    H228602   7.972   2.684   1.571
 9553TIP3   OH228603   4.998   4.318   6.541
 9553TIP3    H128604   4.990   4.360   6.456
 9553TIP3    H228605   5.090   4.292   6.546
 9554TIP3   OH228606   4.849   6.412   6.319
 9554TIP3    H128607   4.760   6.379   6.313
 9554TIP3    H228608   4.875   6.427   6.228
 9555TIP3   OH228609   3.112   0.169   1.611
 9555TIP3    H128610   3.024   0.194   1.585
 9555TIP3    H228611   3.149   0.248   1.650
 9556TIP3   OH228612   1.512   5.332   6.549
 9556TIP3    H128613   1.441   5.267   6.548
 9556TIP3    H228614   1.592   5.281   6.559
 9557TIP3   OH228615   4.408   0.748   1.987
 9557TIP3    H128616   4.360   0.698   2.053
 9557TIP3    H228617   4.458   0.683   1.939
 9558TIP3   OH228618   5.390   6.044   1.463
 9558TIP3    H128619   5.391   6.091   1.379
 9558TIP3    H228620   5.377   6.112   1.529
 9559TIP3   OH228621   1.366   2.995   1.423
 9559TIP3    H128622   1.363   2.900   1.426
 9559TIP3    H228623   1.458   3.017   1.437
 9560TIP3   OH228624   5.991   0.831   1.379
 9560TIP3    H128625   5.923   0.766   1.394
 9560TIP3    H228626   6.049   0.792   1.314
 9561TIP3   OH228627   5.972   5.673   3.050
 9561TIP3    H128628   6.059   5.652   3.016
 9561TIP3    H228629   5.917   5.600   3.022
 9562TIP3   OH228630   3.487   1.573   3.272
 9562TIP3    H128631   3.468   1.480   3.288
 9562TIP3    H228632   3.419   1.601   3.210
 9563TIP3   OH228633   6.767   5.610   3.972
 9563TIP3    H128634   6.818   5.690   3.980
 9563TIP3    H228635   6.682   5.632   4.011
 9564TIP3   OH228636   0.583   6.544   1.140
 9564TIP3    H128637   0.614   6.634   1.153
 9564TIP3    H228638   0.645   6.506   1.078
 9565TIP3   OH228639   6.865   0.119   1.670
 9565TIP3    H128640   6.836   0.041   1.622
 9565TIP3    H228641   6.951   0.095   1.705
 9566TIP3   OH228642   2.471   2.282   5.582
 9566TIP3    H128643   2.410   2.251   5.515
 9566TIP3    H228644   2.416   2.313   5.653
 9567TIP3   OH228645   3.872   4.792   6.181
 9567TIP3    H128646   3.939   4.856   6.160
 9567TIP3    H228647   3.792   4.844   6.195
 9568TIP3   OH228648   7.418   2.551   6.386
 9568TIP3    H128649   7.473   2.549   6.308
 9568TIP3    H228650   7.407   2.644   6.405
 9569TIP3   OH228651   0.187   2.652   0.185
 9569TIP3    H128652   0.244   2.689   0.117
 9569TIP3    H228653   0.209   2.701   0.264
 9570TIP3   OH228654   7.700   3.367   3.146
 9570TIP3    H128655   7.611   3.395   3.125
 9570TIP3    H228656   7.720   3.299   3.082
 9571TIP3   OH228657   0.606   6.096   0.224
 9571TIP3    H128658   0.670   6.138   0.166
 9571TIP3    H228659   0.625   6.003   0.216
 9572TIP3   OH228660   5.513   0.764   1.806
 9572TIP3    H128661   5.482   0.827   1.871
 9572TIP3    H228662   5.514   0.681   1.853
 9573TIP3   OH228663   0.093   1.810   0.116
 9573TIP3    H128664   0.013   1.836   0.161
 9573TIP3    H228665   0.063   1.768   0.035
 9574TIP3   OH228666   2.609   4.085   6.424
 9574TIP3    H128667   2.575   4.061   6.337
 9574TIP3    H228668   2.570   4.170   6.443
 9575TIP3   OH228669   5.910   7.739   3.891
 9575TIP3    H128670   5.832   7.793   3.902
 9575TIP3    H228671   5.946   7.731   3.979
 9576TIP3   OH228672   5.756   7.352   2.465
 9576TIP3    H128673   5.662   7.358   2.452
 9576TIP3    H228674   5.767   7.337   2.559
 9577TIP3   OH228675   4.405   5.881   5.719
 9577TIP3    H128676   4.328   5.845   5.764
 9577TIP3    H228677   4.375   5.966   5.686
 9578TIP3   OH228678   5.146   4.434   3.536
 9578TIP3    H128679   5.217   4.497   3.523
 9578TIP3    H228680   5.189   4.349   3.540
 9579TIP3   OH228681   2.525   1.695   2.327
 9579TIP3    H128682   2.600   1.682   2.269
 9579TIP3    H228683   2.449   1.672   2.273
 9580TIP3   OH228684   3.545   5.377   0.328
 9580TIP3    H128685   3.487   5.319   0.279
 9580TIP3    H228686   3.518   5.366   0.419
 9581TIP3   OH228687   4.875   2.388   5.773
 9581TIP3    H128688   4.798   2.344   5.809
 9581TIP3    H228689   4.943   2.321   5.773
 9582TIP3   OH228690   5.038   1.488   3.691
 9582TIP3    H128691   5.093   1.525   3.623
 9582TIP3    H228692   5.029   1.558   3.756
 9583TIP3   OH228693   0.318   7.209   1.293
 9583TIP3    H128694   0.298   7.222   1.200
 9583TIP3    H228695   0.393   7.266   1.310
 9584TIP3   OH228696   2.740   5.506   0.446
 9584TIP3    H128697   2.732   5.505   0.350
 9584TIP3    H228698   2.661   5.463   0.477
 9585TIP3   OH228699   1.942   2.939   3.890
 9585TIP3    H128700   1.900   2.925   3.805
 9585TIP3    H228701   1.990   3.021   3.879
 9586TIP3   OH228702   0.466   0.487   0.715
 9586TIP3    H128703   0.560   0.500   0.730
 9586TIP3    H228704   0.438   0.431   0.788
 9587TIP3   OH228705   3.924   7.377   1.216
 9587TIP3    H128706   3.914   7.323   1.294
 9587TIP3    H228707   3.922   7.315   1.143
 9588TIP3   OH228708   7.990   2.124   3.977
 9588TIP3    H128709   7.946   2.088   3.900
 9588TIP3    H228710   7.967   2.216   3.977
 9589TIP3   OH228711   7.785   4.080   3.455
 9589TIP3    H128712   7.787   4.075   3.551
 9589TIP3    H228713   7.730   4.007   3.428
 9590TIP3   OH228714   5.377   4.443   5.083
 9590TIP3    H128715   5.430   4.367   5.057
 9590TIP3    H228716   5.393   4.453   5.177
 9591TIP3   OH228717   4.725   4.452   0.346
 9591TIP3    H128718   4.737   4.370   0.298
 9591TIP3    H228719   4.804   4.502   0.328
 9592TIP3   OH228720   0.567   3.724   3.070
 9592TIP3    H128721   0.545   3.708   3.162
 9592TIP3    H228722   0.576   3.819   3.063
 9593TIP3   OH228723   3.494   3.450   6.355
 9593TIP3    H128724   3.571   3.507   6.354
 9593TIP3    H228725   3.454   3.465   6.441
 9594TIP3   OH228726   0.567   6.020   4.910
 9594TIP3    H128727   0.634   6.083   4.882
 9594TIP3    H228728   0.526   5.992   4.828
 9595TIP3   OH228729   3.563   7.392   3.094
 9595TIP3    H128730   3.592   7.310   3.134
 9595TIP3    H228731   3.617   7.402   3.016
 9596TIP3   OH228732   0.930   1.940   6.003
 9596TIP3    H128733   0.850   1.984   6.030
 9596TIP3    H228734   0.962   1.897   6.083
 9597TIP3   OH228735   2.902   1.125   5.151
 9597TIP3    H128736   2.956   1.080   5.086
 9597TIP3    H228737   2.961   1.186   5.194
 9598TIP3   OH228738   0.188   0.017   6.496
 9598TIP3    H128739   0.192  -0.021   6.584
 9598TIP3    H228740   0.269   0.067   6.487
 9599TIP3   OH228741   7.805   7.681   0.865
 9599TIP3    H128742   7.788   7.613   0.799
 9599TIP3    H228743   7.751   7.755   0.838
 9600TIP3   OH228744   8.222   2.806   5.306
 9600TIP3    H128745   8.153   2.759   5.353
 9600TIP3    H228746   8.291   2.740   5.292
 9601TIP3   OH228747   2.629   7.570   5.946
 9601TIP3    H128748   2.722   7.582   5.964
 9601TIP3    H228749   2.599   7.656   5.915
 9602TIP3   OH228750   6.793   0.745   0.003
 9602TIP3    H128751   6.738   0.739   0.081
 9602TIP3    H228752   6.735   0.724  -0.070
 9603TIP3   OH228753   6.265   4.095   6.357
 9603TIP3    H128754   6.284   4.096   6.451
 9603TIP3    H228755   6.275   4.186   6.329
 9604TIP3   OH228756   2.052   3.975   1.575
 9604TIP3    H128757   2.086   3.988   1.487
 9604TIP3    H228758   2.005   3.891   1.570
 9605TIP3   OH228759   1.567   6.123   0.479
 9605TIP3    H128760   1.484   6.122   0.527
 9605TIP3    H228761   1.614   6.046   0.511
 9606TIP3   OH228762   6.653   6.757   6.277
 9606TIP3    H128763   6.593   6.832   6.280
 9606TIP3    H228764   6.615   6.698   6.211
 9607TIP3   OH228765   1.300   5.077   5.344
 9607TIP3    H128766   1.247   5.079   5.424
 9607TIP3    H228767   1.321   4.984   5.332
 9608TIP3   OH228768   5.758   0.335   6.582
 9608TIP3    H128769   5.674   0.296   6.558
 9608TIP3    H228770   5.818   0.309   6.512
 9609TIP3   OH228771   2.143   2.689   2.225
 9609TIP3    H128772   2.230   2.719   2.199
 9609TIP3    H228773   2.147   2.681   2.320
 9610TIP3   OH228774   5.247   0.691   3.045
 9610TIP3    H128775   5.209   0.665   3.128
 9610TIP3    H228776   5.313   0.757   3.068
 9611TIP3   OH228777   0.944   7.297   6.539
 9611TIP3    H128778   0.902   7.285   6.453
 9611TIP3    H228779   1.027   7.341   6.518
 9612TIP3   OH228780   5.428   1.245   3.062
 9612TIP3    H128781   5.465   1.233   2.975
 9612TIP3    H228782   5.336   1.263   3.047
 9613TIP3   OH228783   5.550   5.684   1.665
 9613TIP3    H128784   5.598   5.737   1.728
 9613TIP3    H228785   5.606   5.608   1.650
 9614TIP3   OH228786   5.099   1.492   2.638
 9614TIP3    H128787   5.116   1.567   2.582
 9614TIP3    H228788   5.028   1.520   2.696
 9615TIP3   OH228789   2.609   3.575   6.295
 9615TIP3    H128790   2.542   3.533   6.350
 9615TIP3    H228791   2.559   3.631   6.236
 9616TIP3   OH228792   8.181   6.357   6.115
 9616TIP3    H128793   8.259   6.301   6.113
 9616TIP3    H228794   8.179   6.392   6.204
 9617TIP3   OH228795   0.068   3.445   3.236
 9617TIP3    H128796   0.130   3.387   3.280
 9617TIP3    H228797   0.121   3.498   3.177
 9618TIP3   OH228798   5.885   4.247   1.061
 9618TIP3    H128799   5.846   4.302   0.992
 9618TIP3    H228800   5.951   4.195   1.015
 9619TIP3   OH228801   7.552   4.281   0.845
 9619TIP3    H128802   7.632   4.248   0.803
 9619TIP3    H228803   7.486   4.278   0.776
 9620TIP3   OH228804   1.893   6.129   2.424
 9620TIP3    H128805   1.837   6.155   2.496
 9620TIP3    H228806   1.889   6.202   2.362
 9621TIP3   OH228807   1.143   0.536   1.044
 9621TIP3    H128808   1.173   0.567   0.959
 9621TIP3    H228809   1.048   0.530   1.036
 9622TIP3   OH228810   2.255   0.759   1.515
 9622TIP3    H128811   2.189   0.745   1.447
 9622TIP3    H228812   2.325   0.698   1.493
 9623TIP3   OH228813   3.174   6.455   0.562
 9623TIP3    H128814   3.262   6.420   0.573
 9623TIP3    H228815   3.124   6.418   0.635
 9624TIP3   OH228816   7.789   6.849   4.654
 9624TIP3    H128817   7.828   6.920   4.705
 9624TIP3    H228818   7.720   6.891   4.603
 9625TIP3   OH228819   7.414   7.618   1.243
 9625TIP3    H128820   7.427   7.523   1.245
 9625TIP3    H228821   7.499   7.655   1.269
 9626TIP3   OH228822  -0.004   2.240   1.109
 9626TIP3    H128823   0.073   2.244   1.165
 9626TIP3    H228824  -0.009   2.327   1.069
 9627TIP3   OH228825   7.133   5.576   6.726
 9627TIP3    H128826   7.179   5.652   6.692
 9627TIP3    H228827   7.100   5.531   6.648
 9628TIP3   OH228828   5.918   2.874   5.573
 9628TIP3    H128829   5.916   2.951   5.516
 9628TIP3    H228830   5.892   2.908   5.659
 9629TIP3   OH228831   1.934   2.640   4.542
 9629TIP3    H128832   1.885   2.642   4.460
 9629TIP3    H228833   1.871   2.609   4.607
 9630TIP3   OH228834   6.754   3.304   1.826
 9630TIP3    H128835   6.678   3.248   1.841
 9630TIP3    H228836   6.801   3.304   1.909
 9631TIP3   OH228837   0.928   5.863   4.507
 9631TIP3    H128838   0.998   5.863   4.573
 9631TIP3    H228839   0.891   5.775   4.512
 9632TIP3   OH228840   4.452   3.616   1.938
 9632TIP3    H128841   4.433   3.547   2.002
 9632TIP3    H228842   4.366   3.644   1.908
 9633TIP3   OH228843   4.978   2.245   3.935
 9633TIP3    H128844   5.031   2.165   3.933
 9633TIP3    H228845   4.921   2.238   3.858
 9634TIP3   OH228846   0.076   2.549   5.299
 9634TIP3    H128847   0.169   2.569   5.305
 9634TIP3    H228848   0.070   2.487   5.226
 9635TIP3   OH228849   5.932   2.204   2.616
 9635TIP3    H128850   5.870   2.252   2.560
 9635TIP3    H228851   6.018   2.240   2.593
 9636TIP3   OH228852   7.221   1.004   0.696
 9636TIP3    H128853   7.316   0.991   0.694
 9636TIP3    H228854   7.205   1.074   0.633
 9637TIP3   OH228855   6.343   2.909   3.645
 9637TIP3    H128856   6.407   2.894   3.714
 9637TIP3    H228857   6.353   3.002   3.623
 9638TIP3   OH228858   6.181   7.153   1.193
 9638TIP3    H128859   6.086   7.157   1.186
 9638TIP3    H228860   6.204   7.063   1.174
 9639TIP3   OH228861   3.671   1.723   2.012
 9639TIP3    H128862   3.752   1.706   1.964
 9639TIP3    H228863   3.692   1.703   2.104
 9640TIP3   OH228864   0.734   0.480   1.733
 9640TIP3    H128865   0.761   0.568   1.759
 9640TIP3    H228866   0.785   0.422   1.789
 9641TIP3   OH228867   2.817   3.670   0.658
 9641TIP3    H128868   2.817   3.765   0.651
 9641TIP3    H228869   2.908   3.644   0.644
 9642TIP3   OH228870   7.999   1.006   0.417
 9642TIP3    H128871   7.923   0.951   0.398
 9642TIP3    H228872   8.068   0.943   0.440
 9643TIP3   OH228873   6.026   7.001   1.476
 9643TIP3    H128874   6.066   6.918   1.451
 9643TIP3    H228875   6.099   7.058   1.497
 9644TIP3   OH228876   7.937   1.616   1.460
 9644TIP3    H128877   7.995   1.653   1.393
 9644TIP3    H228878   7.874   1.563   1.411
 9645TIP3   OH228879   0.602   6.896   0.895
 9645TIP3    H128880   0.597   6.847   0.977
 9645TIP3    H228881   0.591   6.988   0.922
 9646TIP3   OH228882   3.882   3.594   5.185
 9646TIP3    H128883   3.947   3.580   5.253
 9646TIP3    H228884   3.803   3.552   5.218
 9647TIP3   OH228885   4.375   6.334   2.620
 9647TIP3    H128886   4.458   6.376   2.597
 9647TIP3    H228887   4.400   6.252   2.663
 9648TIP3   OH228888   6.919   7.458   5.497
 9648TIP3    H128889   6.918   7.538   5.550
 9648TIP3    H228890   6.840   7.410   5.524
 9649TIP3   OH228891   5.681   4.601   6.199
 9649TIP3    H128892   5.609   4.646   6.243
 9649TIP3    H228893   5.760   4.645   6.230
 9650TIP3   OH228894   1.840   0.385   2.306
 9650TIP3    H128895   1.769   0.434   2.347
 9650TIP3    H228896   1.920   0.427   2.338
 9651TIP3   OH228897   2.046   6.305   4.589
 9651TIP3    H128898   2.115   6.355   4.632
 9651TIP3    H228899   2.043   6.339   4.500
 9652TIP3   OH228900   3.067   2.044   6.683
 9652TIP3    H128901   3.064   1.949   6.681
 9652TIP3    H228902   3.147   2.067   6.636
 9653TIP3   OH228903   4.002   5.151   3.174
 9653TIP3    H128904   3.939   5.079   3.171
 9653TIP3    H228905   4.057   5.132   3.250
 9654TIP3   OH228906   7.441   3.856   1.462
 9654TIP3    H128907   7.449   3.929   1.401
 9654TIP3    H228908   7.498   3.788   1.426
 9655TIP3   OH228909   3.579   7.827   6.707
 9655TIP3    H128910   3.511   7.834   6.775
 9655TIP3    H228911   3.594   7.733   6.699
 9656TIP3   OH228912   5.492   6.577   0.889
 9656TIP3    H128913   5.434   6.589   0.814
 9656TIP3    H228914   5.551   6.653   0.887
 9657TIP3   OH228915   5.345   5.385   1.321
 9657TIP3    H128916   5.314   5.405   1.233
 9657TIP3    H228917   5.422   5.440   1.332
 9658TIP3   OH228918   6.602   7.052   0.315
 9658TIP3    H128919   6.557   7.039   0.232
 9658TIP3    H228920   6.666   6.981   0.320
 9659TIP3   OH228921   0.646   3.322   3.092
 9659TIP3    H128922   0.713   3.381   3.057
 9659TIP3    H228923   0.661   3.240   3.046
 9660TIP3   OH228924   6.750   1.646   4.561
 9660TIP3    H128925   6.731   1.555   4.539
 9660TIP3    H228926   6.722   1.656   4.651
 9661TIP3   OH228927   1.205   0.687   5.229
 9661TIP3    H128928   1.286   0.660   5.272
 9661TIP3    H228929   1.161   0.741   5.295
 9662TIP3   OH228930   6.690   3.658   0.825
 9662TIP3    H128931   6.677   3.563   0.820
 9662TIP3    H228932   6.702   3.685   0.735
 9663TIP3   OH228933   0.918   6.431   3.261
 9663TIP3    H128934   0.941   6.341   3.285
 9663TIP3    H228935   0.832   6.445   3.301
 9664TIP3   OH228936   6.464   6.908   4.647
 9664TIP3    H128937   6.455   6.863   4.563
 9664TIP3    H228938   6.534   6.972   4.632
 9665TIP3   OH228939   7.256   4.723   5.229
 9665TIP3    H128940   7.179   4.703   5.283
 9665TIP3    H228941   7.281   4.812   5.254
 9666TIP3   OH228942   1.884   0.220   4.055
 9666TIP3    H128943   1.857   0.246   3.967
 9666TIP3    H228944   1.921   0.132   4.044
 9667TIP3   OH228945   0.351   2.579   5.347
 9667TIP3    H128946   0.372   2.492   5.380
 9667TIP3    H228947   0.323   2.628   5.424
 9668TIP3   OH228948   7.906   2.683   1.206
 9668TIP3    H128949   7.850   2.761   1.208
 9668TIP3    H228950   7.990   2.715   1.173
 9669TIP3   OH228951   5.991   5.345   2.420
 9669TIP3    H128952   6.027   5.343   2.508
 9669TIP3    H228953   6.018   5.430   2.384
 9670TIP3   OH228954   5.468   1.299   3.828
 9670TIP3    H128955   5.548   1.346   3.850
 9670TIP3    H228956   5.400   1.343   3.879
 9671TIP3   OH228957   7.423   4.811   4.799
 9671TIP3    H128958   7.389   4.782   4.884
 9671TIP3    H228959   7.437   4.731   4.749
 9672TIP3   OH228960   1.381   0.425   2.662
 9672TIP3    H128961   1.310   0.486   2.641
 9672TIP3    H228962   1.337   0.348   2.698
 9673TIP3   OH228963   6.949   5.427   0.951
 9673TIP3    H128964   7.039   5.434   0.985
 9673TIP3    H228965   6.922   5.518   0.937
 9674TIP3   OH228966   5.545   7.211   1.774
 9674TIP3    H128967   5.623   7.266   1.782
 9674TIP3    H228968   5.472   7.269   1.792
 9675TIP3   OH228969   2.034   6.001   1.286
 9675TIP3    H128970   2.125   5.971   1.275
 9675TIP3    H228971   2.001   6.010   1.197
 9676TIP3   OH228972   2.813   4.882   2.564
 9676TIP3    H128973   2.829   4.944   2.635
 9676TIP3    H228974   2.893   4.884   2.512
 9677TIP3   OH228975   2.862   5.155   1.777
 9677TIP3    H128976   2.804   5.137   1.851
 9677TIP3    H228977   2.805   5.188   1.708
 9678TIP3   OH228978   2.498   4.548   6.409
 9678TIP3    H128979   2.479   4.611   6.479
 9678TIP3    H228980   2.497   4.463   6.452
 9679TIP3   OH228981   3.470   4.004   2.115
 9679TIP3    H128982   3.388   3.958   2.099
 9679TIP3    H228983   3.459   4.045   2.200
 9680TIP3   OH228984   0.401   3.545   0.017
 9680TIP3    H128985   0.449   3.602  -0.044
 9680TIP3    H228986   0.318   3.591   0.032
 9681TIP3   OH228987   8.186   7.589   5.217
 9681TIP3    H128988   8.175   7.515   5.277
 9681TIP3    H228989   8.234   7.654   5.267
 9682TIP3   OH228990   0.634   1.890   6.441
 9682TIP3    H128991   0.697   1.826   6.407
 9682TIP3    H228992   0.551   1.865   6.400
 9683TIP3   OH228993   2.560   6.181   4.924
 9683TIP3    H128994   2.574   6.130   4.845
 9683TIP3    H228995   2.557   6.272   4.894
 9684TIP3   OH228996   4.717   3.630   1.845
 9684TIP3    H128997   4.723   3.535   1.834
 9684TIP3    H228998   4.624   3.647   1.853
 9685TIP3   OH228999   6.469   2.983   3.206
 9685TIP3    H129000   6.495   3.064   3.161
 9685TIP3    H229001   6.551   2.936   3.219
 9686TIP3   OH229002   2.357   4.271   0.258
 9686TIP3    H129003   2.329   4.265   0.167
 9686TIP3    H229004   2.282   4.310   0.304
 9687TIP3   OH229005   6.822   7.574   0.946
 9687TIP3    H129006   6.889   7.614   0.890
 9687TIP3    H229007   6.756   7.642   0.958
 9688TIP3   OH229008   3.650   0.067   3.452
 9688TIP3    H129009   3.586   0.103   3.513
 9688TIP3    H229010   3.728   0.051   3.505
 9689TIP3   OH229011   1.759   3.886   0.940
 9689TIP3    H129012   1.827   3.953   0.934
 9689TIP3    H229013   1.794   3.812   0.890
 9690TIP3   OH229014   5.881   1.977   5.639
 9690TIP3    H129015   5.840   2.001   5.722
 9690TIP3    H229016   5.975   1.989   5.654
 9691TIP3   OH229017   0.061   7.257   3.061
 9691TIP3    H129018   0.126   7.186   3.060
 9691TIP3    H229019   0.104   7.330   3.017
 9692TIP3   OH229020   3.278   2.711   1.987
 9692TIP3    H129021   3.259   2.755   1.904
 9692TIP3    H229022   3.337   2.640   1.963
 9693TIP3   OH229023   6.609   3.404   2.289
 9693TIP3    H129024   6.694   3.422   2.248
 9693TIP3    H229025   6.547   3.404   2.216
 9694TIP3   OH229026   3.562   2.614   2.860
 9694TIP3    H129027   3.475   2.616   2.900
 9694TIP3    H229028   3.597   2.528   2.885
 9695TIP3   OH229029   5.924   2.897   0.115
 9695TIP3    H129030   5.909   2.838   0.042
 9695TIP3    H229031   5.836   2.926   0.140
 9696TIP3   OH229032   2.553   2.832   4.918
 9696TIP3    H129033   2.502   2.893   4.971
 9696TIP3    H229034   2.497   2.816   4.841
 9697TIP3   OH229035   4.469   3.753   3.869
 9697TIP3    H129036   4.549   3.805   3.861
 9697TIP3    H229037   4.405   3.799   3.815
 9698TIP3   OH229038   0.244   7.718   4.949
 9698TIP3    H129039   0.178   7.711   4.879
 9698TIP3    H229040   0.215   7.655   5.015
 9699TIP3   OH229041   1.677   2.220   4.606
 9699TIP3    H129042   1.766   2.254   4.615
 9699TIP3    H229043   1.630   2.289   4.558
 9700TIP3   OH229044   2.221   6.241   4.914
 9700TIP3    H129045   2.230   6.322   4.863
 9700TIP3    H229046   2.190   6.177   4.851
 9701TIP3   OH229047   1.168   6.774   0.725
 9701TIP3    H129048   1.212   6.698   0.688
 9701TIP3    H229049   1.075   6.750   0.726
 9702TIP3   OH229050   4.036   6.483   3.795
 9702TIP3    H129051   4.033   6.573   3.764
 9702TIP3    H229052   3.944   6.455   3.796
 9703TIP3   OH229053   4.880   6.670   4.817
 9703TIP3    H129054   4.819   6.598   4.801
 9703TIP3    H229055   4.826   6.749   4.816
 9704TIP3   OH229056   1.300   4.400   3.868
 9704TIP3    H129057   1.360   4.328   3.886
 9704TIP3    H229058   1.276   4.434   3.954
 9705TIP3   OH229059   0.399   3.574   6.465
 9705TIP3    H129060   0.447   3.601   6.544
 9705TIP3    H229061   0.338   3.646   6.450
 9706TIP3   OH229062   6.964   5.645   2.866
 9706TIP3    H129063   7.042   5.678   2.910
 9706TIP3    H229064   6.919   5.593   2.933
 9707TIP3   OH229065   0.467   1.328   6.272
 9707TIP3    H129066   0.548   1.294   6.236
 9707TIP3    H229067   0.418   1.250   6.299
 9708TIP3   OH229068   5.794   3.975   3.482
 9708TIP3    H129069   5.704   3.944   3.495
 9708TIP3    H229070   5.844   3.934   3.553
 9709TIP3   OH229071   6.872   3.159   1.306
 9709TIP3    H129072   6.788   3.204   1.308
 9709TIP3    H229073   6.929   3.218   1.256
 9710TIP3   OH229074   6.066   0.794   2.491
 9710TIP3    H129075   6.082   0.809   2.398
 9710TIP3    H229076   5.987   0.845   2.511
 9711TIP3   OH229077   5.515   2.548   3.946
 9711TIP3    H129078   5.431   2.531   3.902
 9711TIP3    H229079   5.579   2.504   3.890
 9712TIP3   OH229080   2.304   5.777   6.642
 9712TIP3    H129081   2.358   5.767   6.720
 9712TIP3    H229082   2.364   5.808   6.575
 9713TIP3   OH229083   5.679   1.760   6.403
 9713TIP3    H129084   5.692   1.778   6.496
 9713TIP3    H229085   5.749   1.809   6.359
 9714TIP3   OH229086   5.195   5.966   0.185
 9714TIP3    H129087   5.285   5.935   0.174
 9714TIP3    H229088   5.203   6.062   0.185
 9715TIP3   OH229089   3.127   3.715   3.110
 9715TIP3    H129090   3.056   3.738   3.051
 9715TIP3    H229091   3.179   3.650   3.062
 9716TIP3   OH229092   2.566   0.093   1.232
 9716TIP3    H129093   2.513   0.066   1.157
 9716TIP3    H229094   2.654   0.059   1.213
 9717TIP3   OH229095   2.724   3.665   0.214
 9717TIP3    H129096   2.713   3.713   0.132
 9717TIP3    H229097   2.643   3.681   0.262
 9718TIP3   OH229098   0.408   4.065   0.781
 9718TIP3    H129099   0.457   4.003   0.835
 9718TIP3    H229100   0.401   4.143   0.836
 9719TIP3   OH229101   6.771   2.296   1.653
 9719TIP3    H129102   6.829   2.289   1.729
 9719TIP3    H229103   6.825   2.273   1.578
 9720TIP3   OH229104   4.608   6.129   0.957
 9720TIP3    H129105   4.627   6.210   1.004
 9720TIP3    H229106   4.693   6.101   0.922
 9721TIP3   OH229107   6.556   6.361   4.396
 9721TIP3    H129108   6.477   6.414   4.397
 9721TIP3    H229109   6.529   6.278   4.355
 9722TIP3   OH229110   2.941   5.614   4.378
 9722TIP3    H129111   2.864   5.610   4.433
 9722TIP3    H229112   2.916   5.671   4.305
 9723TIP3   OH229113   0.663   3.582   0.566
 9723TIP3    H129114   0.647   3.522   0.493
 9723TIP3    H229115   0.700   3.526   0.634
 9724TIP3   OH229116   3.157   0.505   1.109
 9724TIP3    H129117   3.086   0.568   1.122
 9724TIP3    H229118   3.160   0.455   1.191
 9725TIP3   OH229119   4.704   1.474   5.290
 9725TIP3    H129120   4.675   1.549   5.342
 9725TIP3    H229121   4.685   1.498   5.200
 9726TIP3   OH229122   5.157   4.956   0.125
 9726TIP3    H129123   5.230   4.998   0.171
 9726TIP3    H229124   5.157   4.866   0.159
 9727TIP3   OH229125   4.978   5.960   5.542
 9727TIP3    H129126   4.929   6.040   5.525
 9727TIP3    H229127   4.933   5.920   5.616
 9728TIP3   OH229128   3.709   5.033   4.864
 9728TIP3    H129129   3.674   4.971   4.928
 9728TIP3    H229130   3.698   4.989   4.780
 9729TIP3   OH229131   0.548   6.704   3.046
 9729TIP3    H129132   0.625   6.749   3.079
 9729TIP3    H229133   0.583   6.637   2.987
 9730TIP3   OH229134   6.082   2.978   4.396
 9730TIP3    H129135   5.999   2.932   4.381
 9730TIP3    H229136   6.076   3.056   4.341
 9731TIP3   OH229137   4.904   7.542   3.807
 9731TIP3    H129138   4.852   7.462   3.792
 9731TIP3    H229139   4.940   7.564   3.721
 9732TIP3   OH229140   4.496   2.004   2.529
 9732TIP3    H129141   4.486   2.095   2.502
 9732TIP3    H229142   4.470   1.954   2.452
 9733TIP3   OH229143   0.139   0.984   4.338
 9733TIP3    H129144   0.192   1.047   4.289
 9733TIP3    H229145   0.049   1.017   4.331
 9734TIP3   OH229146   1.283   4.383   5.979
 9734TIP3    H129147   1.350   4.449   5.964
 9734TIP3    H229148   1.328   4.300   5.967
 9735TIP3   OH229149   0.421   2.897   6.486
 9735TIP3    H129150   0.400   2.887   6.393
 9735TIP3    H229151   0.474   2.820   6.507
 9736TIP3   OH229152   7.738   3.515   2.874
 9736TIP3    H129153   7.656   3.471   2.852
 9736TIP3    H229154   7.787   3.451   2.925
 9737TIP3   OH229155   1.221   7.327   4.421
 9737TIP3    H129156   1.211   7.294   4.510
 9737TIP3    H229157   1.142   7.378   4.405
 9738TIP3   OH229158   8.254   5.068   2.931
 9738TIP3    H129159   8.213   5.147   2.896
 9738TIP3    H229160   8.336   5.060   2.883
 9739TIP3   OH229161   6.154   5.097   3.484
 9739TIP3    H129162   6.074   5.118   3.532
 9739TIP3    H229163   6.194   5.182   3.466
 9740TIP3   OH229164   7.431   7.196   3.939
 9740TIP3    H129165   7.383   7.186   4.022
 9740TIP3    H229166   7.373   7.157   3.873
 9741TIP3   OH229167   2.366   3.835   1.984
 9741TIP3    H129168   2.342   3.905   2.045
 9741TIP3    H229169   2.282   3.796   1.959
 9742TIP3   OH229170   0.669   7.401   6.634
 9742TIP3    H129171   0.740   7.337   6.639
 9742TIP3    H229172   0.589   7.348   6.638
 9743TIP3   OH229173   7.747   2.438   2.912
 9743TIP3    H129174   7.716   2.509   2.968
 9743TIP3    H229175   7.839   2.459   2.894
 9744TIP3   OH229176   1.892   6.079   2.023
 9744TIP3    H129177   1.936   5.993   2.017
 9744TIP3    H229178   1.803   6.058   2.050
 9745TIP3   OH229179   7.317   4.954   5.864
 9745TIP3    H129180   7.295   4.887   5.799
 9745TIP3    H229181   7.276   4.924   5.945
 9746TIP3   OH229182   1.709   3.929   2.921
 9746TIP3    H129183   1.792   3.908   2.963
 9746TIP3    H229184   1.645   3.928   2.991
 9747TIP3   OH229185   0.619   3.255   5.980
 9747TIP3    H129186   0.690   3.259   5.916
 9747TIP3    H229187   0.659   3.284   6.062
 9748TIP3   OH229188   4.270   1.045   3.419
 9748TIP3    H129189   4.223   1.127   3.411
 9748TIP3    H229190   4.267   1.024   3.513
 9749TIP3   OH229191   3.208   4.932   1.781
 9749TIP3    H129192   3.281   4.949   1.721
 9749TIP3    H229193   3.200   5.013   1.832
 9750TIP3   OH229194   4.330   6.821   4.514
 9750TIP3    H129195   4.392   6.781   4.453
 9750TIP3    H229196   4.360   6.794   4.601
 9751TIP3   OH229197   0.123   4.007   5.721
 9751TIP3    H129198   0.041   3.988   5.766
 9751TIP3    H229199   0.123   3.946   5.647
 9752TIP3   OH229200   4.621   1.358   5.814
 9752TIP3    H129201   4.700   1.384   5.861
 9752TIP3    H229202   4.649   1.288   5.756
 9753TIP3   OH229203   7.348   4.014   6.046
 9753TIP3    H129204   7.322   4.104   6.027
 9753TIP3    H229205   7.275   3.978   6.095
 9754TIP3   OH229206   3.038   5.974   3.579
 9754TIP3    H129207   3.012   5.925   3.501
 9754TIP3    H229208   2.977   5.945   3.647
 9755TIP3   OH229209   3.585   0.299   6.402
 9755TIP3    H129210   3.520   0.345   6.349
 9755TIP3    H229211   3.547   0.213   6.417
 9756TIP3   OH229212   3.548   3.495   1.769
 9756TIP3    H129213   3.586   3.408   1.776
 9756TIP3    H229214   3.556   3.532   1.857
 9757TIP3   OH229215   4.472   7.053   4.764
 9757TIP3    H129216   4.400   7.007   4.807
 9757TIP3    H229217   4.504   6.991   4.699
 9758TIP3   OH229218   6.006   3.365   1.128
 9758TIP3    H129219   6.084   3.367   1.184
 9758TIP3    H229220   5.952   3.437   1.161
 9759TIP3   OH229221   6.549   0.281   4.165
 9759TIP3    H129222   6.553   0.323   4.251
 9759TIP3    H229223   6.507   0.347   4.109
 9760TIP3   OH229224   2.145   6.059   3.675
 9760TIP3    H129225   2.151   6.141   3.626
 9760TIP3    H229226   2.234   6.023   3.670
 9761TIP3   OH229227   2.169   0.225   3.036
 9761TIP3    H129228   2.227   0.301   3.035
 9761TIP3    H229229   2.222   0.155   3.074
 9762TIP3   OH229230   0.901   7.526   2.532
 9762TIP3    H129231   0.952   7.445   2.542
 9762TIP3    H229232   0.934   7.583   2.601
 9763TIP3   OH229233   5.538   0.959   2.756
 9763TIP3    H129234   5.612   0.978   2.699
 9763TIP3    H229235   5.573   0.967   2.845
 9764TIP3   OH229236   5.312   1.678   3.835
 9764TIP3    H129237   5.373   1.683   3.761
 9764TIP3    H229238   5.344   1.746   3.895
 9765TIP3   OH229239   7.492   2.679   3.386
 9765TIP3    H129240   7.430   2.607   3.392
 9765TIP3    H229241   7.437   2.757   3.380
 9766TIP3   OH229242   6.467   4.627   1.919
 9766TIP3    H129243   6.473   4.620   2.014
 9766TIP3    H229244   6.411   4.553   1.892
 9767TIP3   OH229245   6.890   0.574   5.180
 9767TIP3    H129246   6.800   0.541   5.178
 9767TIP3    H229247   6.905   0.607   5.091
 9768TIP3   OH229248   1.534   4.564   3.694
 9768TIP3    H129249   1.560   4.652   3.721
 9768TIP3    H229250   1.455   4.546   3.745
 9769TIP3   OH229251   5.155   4.003   2.409
 9769TIP3    H129252   5.165   3.982   2.502
 9769TIP3    H229253   5.066   4.036   2.401
 9770TIP3   OH229254   4.439   3.409   2.663
 9770TIP3    H129255   4.499   3.446   2.598
 9770TIP3    H229256   4.436   3.473   2.734
 9771TIP3   OH229257   6.566   0.927   4.085
 9771TIP3    H129258   6.526   1.012   4.102
 9771TIP3    H229259   6.657   0.947   4.063
 9772TIP3   OH229260   4.908   6.207   5.311
 9772TIP3    H129261   4.979   6.243   5.259
 9772TIP3    H229262   4.908   6.114   5.292
 9773TIP3   OH229263   1.397   7.318   0.698
 9773TIP3    H129264   1.437   7.322   0.785
 9773TIP3    H229265   1.423   7.232   0.664
 9774TIP3   OH229266   2.386   1.864   1.935
 9774TIP3    H129267   2.373   1.957   1.950
 9774TIP3    H229268   2.367   1.823   2.020
 9775TIP3   OH229269   3.119   0.656   4.459
 9775TIP3    H129270   3.166   0.739   4.469
 9775TIP3    H229271   3.188   0.590   4.450
 9776TIP3   OH229272   3.072   5.548   5.086
 9776TIP3    H129273   3.013   5.555   5.011
 9776TIP3    H229274   3.038   5.475   5.137
 9777TIP3   OH229275   0.544   2.446   4.585
 9777TIP3    H129276   0.467   2.501   4.579
 9777TIP3    H229277   0.617   2.502   4.558
 9778TIP3   OH229278   3.464   2.599   1.581
 9778TIP3    H129279   3.527   2.669   1.599
 9778TIP3    H229280   3.399   2.639   1.523
 9779TIP3   OH229281   0.038   6.608   1.469
 9779TIP3    H129282   0.061   6.588   1.560
 9779TIP3    H229283   0.004   6.698   1.472
 9780TIP3   OH229284   5.851   0.422   0.327
 9780TIP3    H129285   5.813   0.372   0.255
 9780TIP3    H229286   5.785   0.488   0.349
 9781TIP3   OH229287   4.925   4.205   4.885
 9781TIP3    H129288   4.963   4.275   4.833
 9781TIP3    H229289   4.917   4.242   4.973
 9782TIP3   OH229290   5.597   0.384   5.014
 9782TIP3    H129291   5.630   0.403   4.926
 9782TIP3    H229292   5.597   0.288   5.019
 9783TIP3   OH229293   2.600   5.819   4.907
 9783TIP3    H129294   2.632   5.806   4.818
 9783TIP3    H229295   2.669   5.870   4.950
 9784TIP3   OH229296   4.204   1.034   0.841
 9784TIP3    H129297   4.109   1.020   0.844
 9784TIP3    H229298   4.218   1.086   0.762
 9785TIP3   OH229299   1.180   5.031   6.284
 9785TIP3    H129300   1.217   4.944   6.268
 9785TIP3    H229301   1.103   5.015   6.339
 9786TIP3   OH229302   3.865   0.929   6.575
 9786TIP3    H129303   3.934   0.907   6.638
 9786TIP3    H229304   3.899   1.007   6.530
 9787TIP3   OH229305   5.957   1.557   6.275
 9787TIP3    H129306   5.967   1.566   6.370
 9787TIP3    H229307   6.017   1.486   6.251
 9788TIP3   OH229308   6.544   5.851   4.006
 9788TIP3    H129309   6.539   5.936   3.962
 9788TIP3    H229310   6.457   5.813   3.995
 9789TIP3   OH229311   5.984   4.703   3.252
 9789TIP3    H129312   6.027   4.742   3.176
 9789TIP3    H229313   6.011   4.611   3.250
 9790TIP3   OH229314   1.402   2.111   2.968
 9790TIP3    H129315   1.346   2.187   2.982
 9790TIP3    H229316   1.423   2.079   3.055
 9791TIP3   OH229317   1.022   4.216   0.251
 9791TIP3    H129318   1.052   4.126   0.266
 9791TIP3    H229319   1.056   4.265   0.325
 9792TIP3   OH229320   1.565   2.401   5.374
 9792TIP3    H129321   1.513   2.463   5.424
 9792TIP3    H229322   1.645   2.389   5.425
 9793TIP3   OH229323   1.230   4.595   0.220
 9793TIP3    H129324   1.320   4.624   0.232
 9793TIP3    H229325   1.229   4.555   0.133
 9794TIP3   OH229326   5.500   4.332   1.623
 9794TIP3    H129327   5.574   4.297   1.573
 9794TIP3    H229328   5.471   4.259   1.677
 9795TIP3   OH229329   6.022   0.331   4.481
 9795TIP3    H129330   5.963   0.405   4.462
 9795TIP3    H229331   5.966   0.269   4.528
 9796TIP3   OH229332   5.780   5.809   0.606
 9796TIP3    H129333   5.835   5.749   0.557
 9796TIP3    H229334   5.775   5.888   0.551
 9797TIP3   OH229335   5.986   6.657   4.540
 9797TIP3    H129336   5.931   6.597   4.590
 9797TIP3    H229337   5.926   6.726   4.510
 9798TIP3   OH229338   1.079   2.763   1.596
 9798TIP3    H129339   1.022   2.762   1.673
 9798TIP3    H229340   1.021   2.788   1.524
 9799TIP3   OH229341   0.942   7.056   3.256
 9799TIP3    H129342   0.874   7.006   3.210
 9799TIP3    H229343   1.022   7.006   3.240
 9800TIP3   OH229344   3.176   5.993   1.620
 9800TIP3    H129345   3.146   6.024   1.706
 9800TIP3    H229346   3.265   6.029   1.612
 9801TIP3   OH229347   4.841   3.995   1.255
 9801TIP3    H129348   4.761   3.956   1.221
 9801TIP3    H229349   4.871   3.934   1.323
 9802TIP3   OH229350   5.895   2.065   0.249
 9802TIP3    H129351   5.971   2.124   0.247
 9802TIP3    H229352   5.920   1.997   0.313
 9803TIP3   OH229353   4.389   5.838   6.757
 9803TIP3    H129354   4.304   5.841   6.713
 9803TIP3    H229355   4.419   5.929   6.759
 9804TIP3   OH229356   4.137   3.297   1.302
 9804TIP3    H129357   4.195   3.300   1.226
 9804TIP3    H229358   4.136   3.205   1.328
 9805TIP3   OH229359   4.412   4.274   4.338
 9805TIP3    H129360   4.498   4.232   4.340
 9805TIP3    H229361   4.416   4.340   4.408
 9806TIP3   OH229362   5.585   2.231   4.842
 9806TIP3    H129363   5.669   2.214   4.886
 9806TIP3    H229364   5.604   2.300   4.779
 9807TIP3   OH229365   5.021   5.326   4.096
 9807TIP3    H129366   5.057   5.414   4.080
 9807TIP3    H229367   4.939   5.325   4.047
 9808TIP3   OH229368   4.702   1.685   2.181
 9808TIP3    H129369   4.759   1.650   2.250
 9808TIP3    H229370   4.616   1.691   2.223
 9809TIP3   OH229371   0.544   6.061   2.139
 9809TIP3    H129372   0.524   5.979   2.093
 9809TIP3    H229373   0.637   6.055   2.158
 9810TIP3   OH229374   2.242   2.778   5.866
 9810TIP3    H129375   2.241   2.704   5.926
 9810TIP3    H229376   2.150   2.796   5.848
 9811TIP3   OH229377   1.123   1.598   6.240
 9811TIP3    H129378   1.099   1.535   6.307
 9811TIP3    H229379   1.042   1.649   6.225
 9812TIP3   OH229380   6.549   2.452   0.973
 9812TIP3    H129381   6.607   2.512   1.022
 9812TIP3    H229382   6.474   2.439   1.031
 9813TIP3   OH229383   6.710   5.051   0.745
 9813TIP3    H129384   6.776   5.118   0.763
 9813TIP3    H229385   6.704   5.049   0.649
 9814TIP3   OH229386   2.992   3.452   4.418
 9814TIP3    H129387   2.972   3.362   4.392
 9814TIP3    H229388   2.947   3.463   4.502
 9815TIP3   OH229389   6.972   6.204   5.890
 9815TIP3    H129390   6.985   6.147   5.814
 9815TIP3    H229391   7.001   6.290   5.861
 9816TIP3   OH229392   3.944   1.664   6.524
 9816TIP3    H129393   4.031   1.688   6.492
 9816TIP3    H229394   3.901   1.624   6.449
 9817TIP3   OH229395   5.309   5.876   5.046
 9817TIP3    H129396   5.337   5.909   4.961
 9817TIP3    H229397   5.363   5.798   5.060
 9818TIP3   OH229398   5.186   4.707   3.006
 9818TIP3    H129399   5.187   4.632   3.066
 9818TIP3    H229400   5.137   4.775   3.054
 9819TIP3   OH229401   0.274   4.942   2.264
 9819TIP3    H129402   0.269   5.015   2.327
 9819TIP3    H229403   0.192   4.894   2.276
 9820TIP3   OH229404   3.094   2.403   3.603
 9820TIP3    H129405   3.161   2.367   3.661
 9820TIP3    H229406   3.065   2.483   3.647
 9821TIP3   OH229407   1.662   3.811   3.483
 9821TIP3    H129408   1.753   3.799   3.457
 9821TIP3    H229409   1.637   3.895   3.443
 9822TIP3   OH229410   1.223   2.315   6.017
 9822TIP3    H129411   1.260   2.283   6.099
 9822TIP3    H229412   1.196   2.236   5.970
 9823TIP3   OH229413   7.954   7.114   5.466
 9823TIP3    H129414   7.917   7.048   5.407
 9823TIP3    H229415   7.992   7.064   5.538
 9824TIP3   OH229416   6.774   2.150   5.236
 9824TIP3    H129417   6.802   2.117   5.151
 9824TIP3    H229418   6.712   2.084   5.268
 9825TIP3   OH229419   5.546   6.658   1.746
 9825TIP3    H129420   5.542   6.733   1.805
 9825TIP3    H229421   5.628   6.614   1.768
 9826TIP3   OH229422   5.821   5.411   5.775
 9826TIP3    H129423   5.728   5.429   5.762
 9826TIP3    H229424   5.833   5.415   5.870
 9827TIP3   OH229425   2.510   4.234   5.811
 9827TIP3    H129426   2.478   4.145   5.823
 9827TIP3    H229427   2.601   4.223   5.782
 9828TIP3   OH229428   1.964   6.914   0.454
 9828TIP3    H129429   1.931   6.901   0.365
 9828TIP3    H229430   2.010   6.833   0.475
 9829TIP3   OH229431   2.647   0.372   1.126
 9829TIP3    H129432   2.676   0.387   1.216
 9829TIP3    H229433   2.705   0.303   1.093
 9830TIP3   OH229434   8.273   3.438   1.970
 9830TIP3    H129435   8.306   3.520   1.933
 9830TIP3    H229436   8.178   3.449   1.972
 9831TIP3   OH229437   6.134   6.546   0.974
 9831TIP3    H129438   6.215   6.585   0.942
 9831TIP3    H229439   6.111   6.481   0.907
 9832TIP3   OH229440   5.292   7.437   0.985
 9832TIP3    H129441   5.342   7.471   0.911
 9832TIP3    H229442   5.355   7.388   1.037
 9833TIP3   OH229443   4.405   1.145   0.357
 9833TIP3    H129444   4.361   1.163   0.274
 9833TIP3    H229445   4.336   1.116   0.416
 9834TIP3   OH229446   7.520   0.968   1.843
 9834TIP3    H129447   7.573   0.894   1.813
 9834TIP3    H229448   7.543   1.040   1.784
 9835TIP3   OH229449   4.299   0.749   2.279
 9835TIP3    H129450   4.215   0.748   2.234
 9835TIP3    H229451   4.285   0.696   2.357
 9836TIP3   OH229452   7.962   7.065   1.414
 9836TIP3    H129453   7.892   7.035   1.472
 9836TIP3    H229454   8.016   7.122   1.470
 9837TIP3   OH229455   0.283   4.920   0.246
 9837TIP3    H129456   0.219   4.974   0.199
 9837TIP3    H229457   0.280   4.951   0.336
 9838TIP3   OH229458   3.385   2.285   5.804
 9838TIP3    H129459   3.302   2.261   5.847
 9838TIP3    H229460   3.391   2.224   5.730
 9839TIP3   OH229461   6.968   4.719   1.053
 9839TIP3    H129462   6.921   4.645   1.091
 9839TIP3    H229463   7.016   4.683   0.979
 9840TIP3   OH229464   8.069   5.639   0.267
 9840TIP3    H129465   8.023   5.719   0.293
 9840TIP3    H229466   8.136   5.627   0.333
 9841TIP3   OH229467   3.341   4.007   1.463
 9841TIP3    H129468   3.424   4.003   1.511
 9841TIP3    H229469   3.322   4.100   1.455
 9842TIP3   OH229470   7.093   6.363   0.095
 9842TIP3    H129471   7.000   6.347   0.078
 9842TIP3    H229472   7.128   6.394   0.012
 9843TIP3   OH229473   0.546   5.710   0.340
 9843TIP3    H129474   0.609   5.655   0.386
 9843TIP3    H229475   0.592   5.737   0.260
 9844TIP3   OH229476   4.005   7.050   6.552
 9844TIP3    H129477   4.061   7.046   6.629
 9844TIP3    H229478   3.960   6.966   6.549
 9845TIP3   OH229479   4.555   6.609   5.118
 9845TIP3    H129480   4.539   6.621   5.024
 9845TIP3    H229481   4.495   6.670   5.160
 9846TIP3   OH229482   2.647   1.527   4.128
 9846TIP3    H129483   2.713   1.459   4.140
 9846TIP3    H229484   2.613   1.511   4.040
 9847TIP3   OH229485   3.452   4.813   6.017
 9847TIP3    H129486   3.409   4.897   6.005
 9847TIP3    H229487   3.515   4.829   6.088
 9848TIP3   OH229488   6.035   1.934   4.412
 9848TIP3    H129489   6.048   1.988   4.334
 9848TIP3    H229490   6.109   1.957   4.469
 9849TIP3   OH229491   0.032   0.224   6.616
 9849TIP3    H129492   0.100   0.214   6.549
 9849TIP3    H229493   0.079   0.260   6.692
 9850TIP3   OH229494   2.725   2.431   0.172
 9850TIP3    H129495   2.792   2.466   0.231
 9850TIP3    H229496   2.773   2.406   0.093
 9851TIP3   OH229497   6.367   4.596   5.614
 9851TIP3    H129498   6.278   4.571   5.636
 9851TIP3    H229499   6.386   4.550   5.532
 9852TIP3   OH229500   5.375   4.744   0.091
 9852TIP3    H129501   5.394   4.756  -0.002
 9852TIP3    H229502   5.407   4.825   0.131
 9853TIP3   OH229503   2.903   3.532   1.700
 9853TIP3    H129504   2.912   3.609   1.756
 9853TIP3    H229505   2.984   3.530   1.649
 9854TIP3   OH229506   1.672   3.941   4.830
 9854TIP3    H129507   1.658   4.034   4.850
 9854TIP3    H229508   1.714   3.941   4.744
 9855TIP3   OH229509   5.360   2.389   1.976
 9855TIP3    H129510   5.297   2.321   2.000
 9855TIP3    H229511   5.445   2.347   1.988
 9856TIP3   OH229512   2.186   3.804   6.229
 9856TIP3    H129513   2.191   3.890   6.269
 9856TIP3    H229514   2.103   3.804   6.182
 9857TIP3   OH229515   1.805   5.936   6.226
 9857TIP3    H129516   1.761   5.909   6.307
 9857TIP3    H229517   1.830   6.027   6.241
 9858TIP3   OH229518   3.318   2.201   0.445
 9858TIP3    H129519   3.351   2.247   0.521
 9858TIP3    H229520   3.305   2.111   0.475
 9859TIP3   OH229521   7.072   1.151   6.285
 9859TIP3    H129522   7.048   1.072   6.237
 9859TIP3    H229523   7.167   1.156   6.279
 9860TIP3   OH229524   3.491   3.171   3.498
 9860TIP3    H129525   3.507   3.175   3.404
 9860TIP3    H229526   3.406   3.128   3.506
 9861TIP3   OH229527   2.844   5.004   0.650
 9861TIP3    H129528   2.753   4.991   0.677
 9861TIP3    H229529   2.876   4.916   0.628
 9862TIP3   OH229530   4.364   1.038   3.907
 9862TIP3    H129531   4.322   1.023   3.822
 9862TIP3    H229532   4.313   1.109   3.946
 9863TIP3   OH229533   3.952   3.314   0.851
 9863TIP3    H129534   3.861   3.344   0.862
 9863TIP3    H229535   3.997   3.347   0.929
 9864TIP3   OH229536   6.060   3.203   1.836
 9864TIP3    H129537   5.972   3.170   1.820
 9864TIP3    H229538   6.097   3.219   1.749
 9865TIP3   OH229539   3.276   5.850   6.318
 9865TIP3    H129540   3.212   5.921   6.311
 9865TIP3    H229541   3.329   5.857   6.238
 9866TIP3   OH229542   5.895   4.212   1.474
 9866TIP3    H129543   5.939   4.147   1.420
 9866TIP3    H229544   5.811   4.172   1.495
 9867TIP3   OH229545   3.480   4.185   1.875
 9867TIP3    H129546   3.485   4.148   1.787
 9867TIP3    H229547   3.468   4.110   1.933
 9868TIP3   OH229548   0.438   7.426   2.668
 9868TIP3    H129549   0.444   7.383   2.582
 9868TIP3    H229550   0.526   7.417   2.705
 9869TIP3   OH229551   1.075   2.801   3.374
 9869TIP3    H129552   0.993   2.753   3.364
 9869TIP3    H229553   1.094   2.798   3.468
 9870TIP3   OH229554   1.629   6.645   2.737
 9870TIP3    H129555   1.585   6.620   2.655
 9870TIP3    H229556   1.720   6.617   2.724
 9871TIP3   OH229557   3.159   2.811   4.225
 9871TIP3    H129558   3.162   2.724   4.265
 9871TIP3    H229559   3.162   2.794   4.131
 9872TIP3   OH229560   7.605   1.322   0.783
 9872TIP3    H129561   7.634   1.404   0.742
 9872TIP3    H229562   7.641   1.253   0.727
 9873TIP3   OH229563   1.982   1.064   2.649
 9873TIP3    H129564   1.928   1.141   2.667
 9873TIP3    H229565   1.947   0.996   2.707
 9874TIP3   OH229566   4.424   3.066   3.546
 9874TIP3    H129567   4.377   3.020   3.617
 9874TIP3    H229568   4.506   3.094   3.586
 9875TIP3   OH229569   5.031   3.436   3.071
 9875TIP3    H129570   4.945   3.435   3.030
 9875TIP3    H229571   5.051   3.528   3.085
 9876TIP3   OH229572   1.499   3.833   0.971
 9876TIP3    H129573   1.475   3.925   0.977
 9876TIP3    H229574   1.591   3.834   0.944
 9877TIP3   OH229575   8.116   2.942   1.855
 9877TIP3    H129576   8.096   2.895   1.936
 9877TIP3    H229577   8.187   2.892   1.814
 9878TIP3   OH229578   1.090   6.527   1.142
 9878TIP3    H129579   1.074   6.619   1.122
 9878TIP3    H229580   1.094   6.484   1.056
 9879TIP3   OH229581   8.022   1.291   5.241
 9879TIP3    H129582   8.108   1.254   5.259
 9879TIP3    H229583   7.986   1.234   5.173
 9880TIP3   OH229584   2.844   3.638   4.906
 9880TIP3    H129585   2.906   3.672   4.972
 9880TIP3    H229586   2.851   3.700   4.833
 9881TIP3   OH229587   6.732   5.572   6.213
 9881TIP3    H129588   6.656   5.514   6.220
 9881TIP3    H229589   6.709   5.633   6.142
 9882TIP3   OH229590   7.235   4.441   3.655
 9882TIP3    H129591   7.296   4.409   3.588
 9882TIP3    H229592   7.182   4.506   3.610
 9883TIP3   OH229593   0.027   4.586   2.691
 9883TIP3    H129594   0.057   4.632   2.769
 9883TIP3    H229595  -0.010   4.654   2.635
 9884TIP3   OH229596   0.103   1.652   2.720
 9884TIP3    H129597   0.058   1.726   2.681
 9884TIP3    H229598   0.082   1.578   2.664
 9885TIP3   OH229599   2.622   1.230   1.077
 9885TIP3    H129600   2.667   1.145   1.073
 9885TIP3    H229601   2.608   1.254   0.986
 9886TIP3   OH229602   4.176   3.704   1.904
 9886TIP3    H129603   4.161   3.627   1.849
 9886TIP3    H229604   4.110   3.698   1.972
 9887TIP3   OH229605   7.841   2.389   4.979
 9887TIP3    H129606   7.868   2.313   5.030
 9887TIP3    H229607   7.776   2.356   4.917
 9888TIP3   OH229608   0.329   0.748   4.439
 9888TIP3    H129609   0.244   0.709   4.460
 9888TIP3    H229610   0.313   0.842   4.443
 9889TIP3   OH229611   8.203   6.609   5.067
 9889TIP3    H129612   8.162   6.684   5.110
 9889TIP3    H229613   8.286   6.642   5.033
 9890TIP3   OH229614   2.871   7.575   1.208
 9890TIP3    H129615   2.916   7.532   1.281
 9890TIP3    H229616   2.936   7.579   1.138
 9891TIP3   OH229617   5.945   0.122   6.763
 9891TIP3    H129618   6.024   0.097   6.810
 9891TIP3    H229619   5.915   0.202   6.807
 9892TIP3   OH229620   5.607   3.735   3.045
 9892TIP3    H129621   5.571   3.734   3.134
 9892TIP3    H229622   5.594   3.825   3.015
 9893TIP3   OH229623   5.032   5.036   0.866
 9893TIP3    H129624   5.112   5.012   0.913
 9893TIP3    H229625   5.046   5.127   0.839
 9894TIP3   OH229626   2.380   0.361   6.401
 9894TIP3    H129627   2.427   0.432   6.446
 9894TIP3    H229628   2.305   0.343   6.457
 9895TIP3   OH229629   3.008   1.347   1.217
 9895TIP3    H129630   2.926   1.394   1.233
 9895TIP3    H229631   3.001   1.268   1.269
 9896TIP3   OH229632   4.201   7.306   3.665
 9896TIP3    H129633   4.164   7.380   3.617
 9896TIP3    H229634   4.146   7.231   3.641
 9897TIP3   OH229635   1.019   0.359   4.224
 9897TIP3    H129636   0.965   0.280   4.230
 9897TIP3    H229637   1.069   0.360   4.305
 9898TIP3   OH229638   0.068   3.848   5.437
 9898TIP3    H129639   0.050   3.787   5.509
 9898TIP3    H229640   0.129   3.801   5.380
 9899TIP3   OH229641   8.172   6.629   6.480
 9899TIP3    H129642   8.136   6.658   6.396
 9899TIP3    H229643   8.263   6.609   6.462
 9900TIP3   OH229644   1.854   3.088   5.248
 9900TIP3    H129645   1.913   3.048   5.312
 9900TIP3    H229646   1.776   3.033   5.249
 9901TIP3   OH229647   0.050   7.746   2.520
 9901TIP3    H129648  -0.042   7.725   2.534
 9901TIP3    H229649   0.098   7.669   2.551
 9902TIP3   OH229650   6.739   7.285   3.566
 9902TIP3    H129651   6.718   7.293   3.659
 9902TIP3    H229652   6.820   7.234   3.564
 9903TIP3   OH229653   5.212   7.452   6.076
 9903TIP3    H129654   5.162   7.516   6.128
 9903TIP3    H229655   5.279   7.504   6.032
 9904TIP3   OH229656   5.600   2.947   4.423
 9904TIP3    H129657   5.578   3.015   4.359
 9904TIP3    H229658   5.575   2.984   4.507
 9905TIP3   OH229659   7.004   5.212   3.447
 9905TIP3    H129660   7.017   5.167   3.364
 9905TIP3    H229661   7.091   5.217   3.486
 9906TIP3   OH229662   7.589   6.002   2.508
 9906TIP3    H129663   7.563   5.999   2.415
 9906TIP3    H229664   7.506   5.993   2.555
 9907TIP3   OH229665   0.593   5.096   2.622
 9907TIP3    H129666   0.648   5.170   2.596
 9907TIP3    H229667   0.610   5.086   2.716
 9908TIP3   OH229668   4.514   7.170   6.009
 9908TIP3    H129669   4.548   7.081   6.003
 9908TIP3    H229670   4.553   7.205   6.089
 9909TIP3   OH229671   4.089   5.848   6.353
 9909TIP3    H129672   4.009   5.900   6.342
 9909TIP3    H229673   4.159   5.906   6.322
 9910TIP3   OH229674   2.702   4.797   4.690
 9910TIP3    H129675   2.663   4.882   4.710
 9910TIP3    H229676   2.684   4.783   4.597
 9911TIP3   OH229677   0.197   3.387   6.033
 9911TIP3    H129678   0.114   3.434   6.030
 9911TIP3    H229679   0.234   3.399   5.946
 9912TIP3   OH229680   5.383   6.034   6.247
 9912TIP3    H129681   5.368   6.084   6.166
 9912TIP3    H229682   5.352   6.092   6.317
 9913TIP3   OH229683   1.031   0.461   2.601
 9913TIP3    H129684   1.020   0.555   2.620
 9913TIP3    H229685   1.076   0.427   2.679
 9914TIP3   OH229686   4.941   3.239   3.647
 9914TIP3    H129687   4.927   3.298   3.721
 9914TIP3    H229688   4.974   3.294   3.577
 9915TIP3   OH229689   8.048   5.938   5.161
 9915TIP3    H129690   8.143   5.935   5.176
 9915TIP3    H229691   8.036   6.013   5.103
 9916TIP3   OH229692   4.344   2.029   4.458
 9916TIP3    H129693   4.389   2.110   4.432
 9916TIP3    H229694   4.358   2.024   4.553
 9917TIP3   OH229695   5.135   2.691   3.573
 9917TIP3    H129696   5.148   2.614   3.518
 9917TIP3    H229697   5.040   2.703   3.575
 9918TIP3   OH229698   8.102   4.918   1.546
 9918TIP3    H129699   8.058   4.958   1.621
 9918TIP3    H229700   8.140   4.837   1.582
 9919TIP3   OH229701   1.858   1.347   6.573
 9919TIP3    H129702   1.940   1.301   6.556
 9919TIP3    H229703   1.842   1.397   6.493
 9920TIP3   OH229704   5.646   7.236   4.244
 9920TIP3    H129705   5.612   7.228   4.155
 9920TIP3    H229706   5.585   7.295   4.289
 9921TIP3   OH229707   2.153   1.149   5.571
 9921TIP3    H129708   2.224   1.090   5.546
 9921TIP3    H229709   2.125   1.118   5.657
 9922TIP3   OH229710   7.168   5.131   1.411
 9922TIP3    H129711   7.116   5.159   1.336
 9922TIP3    H229712   7.104   5.100   1.475
 9923TIP3   OH229713   0.285   4.559   2.452
 9923TIP3    H129714   0.234   4.633   2.419
 9923TIP3    H229715   0.346   4.597   2.515
 9924TIP3   OH229716   7.294   6.526   1.389
 9924TIP3    H129717   7.288   6.604   1.333
 9924TIP3    H229718   7.388   6.512   1.399
 9925TIP3   OH229719   2.229   2.791   4.991
 9925TIP3    H129720   2.244   2.744   4.909
 9925TIP3    H229721   2.191   2.875   4.963
 9926TIP3   OH229722   3.106   1.374   5.745
 9926TIP3    H129723   3.129   1.461   5.713
 9926TIP3    H229724   3.185   1.322   5.735
 9927TIP3   OH229725   5.118   6.436   2.473
 9927TIP3    H129726   5.073   6.375   2.415
 9927TIP3    H229727   5.049   6.473   2.527
 9928TIP3   OH229728   3.052   7.203   3.952
 9928TIP3    H129729   3.100   7.243   3.880
 9928TIP3    H229730   3.015   7.122   3.914
 9929TIP3   OH229731   5.406   1.766   4.679
 9929TIP3    H129732   5.352   1.823   4.734
 9929TIP3    H229733   5.416   1.813   4.596
 9930TIP3   OH229734   7.891   5.031   2.498
 9930TIP3    H129735   7.826   5.088   2.457
 9930TIP3    H229736   7.892   5.059   2.590
 9931TIP3   OH229737   7.648   6.676   5.272
 9931TIP3    H129738   7.712   6.716   5.214
 9931TIP3    H229739   7.631   6.590   5.235
 9932TIP3   OH229740   0.773   1.826   6.766
 9932TIP3    H129741   0.830   1.756   6.794
 9932TIP3    H229742   0.807   1.852   6.680
 9933TIP3   OH229743   8.208   3.374   1.350
 9933TIP3    H129744   8.262   3.401   1.276
 9933TIP3    H229745   8.138   3.321   1.310
 9934TIP3   OH229746   4.899   4.841   0.690
 9934TIP3    H129747   4.804   4.839   0.706
 9934TIP3    H229748   4.930   4.915   0.742
 9935TIP3   OH229749   0.690   1.530   6.325
 9935TIP3    H129750   0.649   1.468   6.385
 9935TIP3    H229751   0.745   1.477   6.269
 9936TIP3   OH229752   8.123   6.379   5.186
 9936TIP3    H129753   8.137   6.459   5.136
 9936TIP3    H229754   8.193   6.378   5.252
 9937TIP3   OH229755   1.270   6.833   4.057
 9937TIP3    H129756   1.359   6.826   4.090
 9937TIP3    H229757   1.220   6.870   4.130
 9938TIP3   OH229758   3.954   2.699   4.080
 9938TIP3    H129759   3.949   2.767   4.013
 9938TIP3    H229760   4.012   2.735   4.147
 9939TIP3   OH229761   7.471   4.735   2.960
 9939TIP3    H129762   7.430   4.819   2.941
 9939TIP3    H229763   7.411   4.693   3.023
 9940TIP3   OH229764   5.564   1.656   5.061
 9940TIP3    H129765   5.558   1.738   5.011
 9940TIP3    H229766   5.658   1.640   5.069
 9941TIP3   OH229767   5.965   4.968   0.473
 9941TIP3    H129768   5.925   4.991   0.557
 9941TIP3    H229769   6.055   4.999   0.480
 9942TIP3   OH229770   5.938   6.200   1.162
 9942TIP3    H129771   5.981   6.270   1.113
 9942TIP3    H229772   5.894   6.244   1.234
 9943TIP3   OH229773   2.558   1.137   2.346
 9943TIP3    H129774   2.502   1.076   2.297
 9943TIP3    H229775   2.499   1.206   2.375
 9944TIP3   OH229776   3.062   2.009   4.885
 9944TIP3    H129777   3.008   1.937   4.852
 9944TIP3    H229778   3.002   2.063   4.937
 9945TIP3   OH229779   0.405   0.347   4.049
 9945TIP3    H129780   0.327   0.351   4.105
 9945TIP3    H229781   0.380   0.288   3.978
 9946TIP3   OH229782   6.642   1.444   3.509
 9946TIP3    H129783   6.622   1.351   3.492
 9946TIP3    H229784   6.573   1.472   3.569
 9947TIP3   OH229785   6.178   0.632   2.126
 9947TIP3    H129786   6.150   0.702   2.184
 9947TIP3    H229787   6.216   0.677   2.051
 9948TIP3   OH229788   7.766   1.545   0.380
 9948TIP3    H129789   7.712   1.579   0.309
 9948TIP3    H229790   7.821   1.619   0.406
 9949TIP3   OH229791   3.312   4.222   3.595
 9949TIP3    H129792   3.244   4.216   3.663
 9949TIP3    H229793   3.340   4.131   3.581
 9950TIP3   OH229794   5.457   2.183   3.070
 9950TIP3    H129795   5.431   2.113   3.131
 9950TIP3    H229796   5.420   2.262   3.107
 9951TIP3   OH229797   7.865   3.696   4.360
 9951TIP3    H129798   7.811   3.769   4.391
 9951TIP3    H229799   7.811   3.654   4.292
 9952TIP3   OH229800   3.929   3.059   4.370
 9952TIP3    H129801   3.866   3.101   4.312
 9952TIP3    H229802   3.884   3.057   4.455
 9953TIP3   OH229803   7.662   1.763   6.738
 9953TIP3    H129804   7.629   1.680   6.701
 9953TIP3    H229805   7.746   1.740   6.777
 9954TIP3   OH229806   0.795   0.853   1.370
 9954TIP3    H129807   0.841   0.906   1.435
 9954TIP3    H229808   0.738   0.796   1.422
 9955TIP3   OH229809   6.454   5.651   0.634
 9955TIP3    H129810   6.362   5.663   0.657
 9955TIP3    H229811   6.475   5.563   0.664
 9956TIP3   OH229812   7.734   2.212   3.546
 9956TIP3    H129813   7.786   2.156   3.603
 9956TIP3    H229814   7.795   2.280   3.518
 9957TIP3   OH229815   3.561   3.719   0.143
 9957TIP3    H129816   3.649   3.690   0.118
 9957TIP3    H229817   3.564   3.724   0.239
 9958TIP3   OH229818   5.750   2.065   5.869
 9958TIP3    H129819   5.663   2.025   5.867
 9958TIP3    H229820   5.777   2.060   5.960
 9959TIP3   OH229821   8.261   1.051   2.860
 9959TIP3    H129822   8.258   0.993   2.784
 9959TIP3    H229823   8.354   1.069   2.873
 9960TIP3   OH229824   6.065   5.690   4.615
 9960TIP3    H129825   6.029   5.606   4.644
 9960TIP3    H229826   6.156   5.670   4.591
 9961TIP3   OH229827   7.930   2.093   6.570
 9961TIP3    H129828   7.859   2.075   6.508
 9961TIP3    H229829   7.970   2.174   6.537
 9962TIP3   OH229830   6.885   1.266   1.508
 9962TIP3    H129831   6.834   1.281   1.428
 9962TIP3    H229832   6.975   1.262   1.478
 9963TIP3   OH229833   3.468   5.205   5.598
 9963TIP3    H129834   3.403   5.265   5.635
 9963TIP3    H229835   3.423   5.162   5.526
 9964TIP3   OH229836   4.913   0.047   1.101
 9964TIP3    H129837   4.898   0.087   1.186
 9964TIP3    H229838   4.876   0.109   1.038
 9965TIP3   OH229839   4.911   1.130   6.058
 9965TIP3    H129840   4.968   1.188   6.008
 9965TIP3    H229841   4.953   1.045   6.054
 9966TIP3   OH229842   4.553   5.847   1.076
 9966TIP3    H129843   4.644   5.865   1.052
 9966TIP3    H229844   4.521   5.792   1.004
 9967TIP3   OH229845   7.541   3.467   4.681
 9967TIP3    H129846   7.613   3.527   4.660
 9967TIP3    H229847   7.556   3.443   4.773
 9968TIP3   OH229848   0.235   0.379   1.626
 9968TIP3    H129849   0.271   0.461   1.660
 9968TIP3    H229850   0.282   0.310   1.673
 9969TIP3   OH229851   8.082  -0.009   3.470
 9969TIP3    H129852   8.014   0.056   3.451
 9969TIP3    H229853   8.143   0.037   3.527
 9970TIP3   OH229854   1.726   0.118   5.385
 9970TIP3    H129855   1.706   0.031   5.418
 9970TIP3    H229856   1.666   0.131   5.311
 9971TIP3   OH229857   0.927   2.136   2.877
 9971TIP3    H129858   1.015   2.155   2.910
 9971TIP3    H229859   0.888   2.221   2.862
 9972TIP3   OH229860   1.112   2.401   1.845
 9972TIP3    H129861   1.026   2.381   1.808
 9972TIP3    H229862   1.107   2.493   1.871
 9973TIP3   OH229863   5.771   6.575   2.921
 9973TIP3    H129864   5.713   6.541   2.989
 9973TIP3    H229865   5.790   6.665   2.948
 9974TIP3   OH229866   7.180   2.538   4.858
 9974TIP3    H129867   7.244   2.507   4.795
 9974TIP3    H229868   7.166   2.630   4.834
 9975TIP3   OH229869   1.112   0.648   6.197
 9975TIP3    H129870   1.058   0.581   6.156
 9975TIP3    H229871   1.071   0.664   6.281
 9976TIP3   OH229872   7.019   3.798   4.958
 9976TIP3    H129873   7.066   3.881   4.966
 9976TIP3    H229874   7.086   3.734   4.935
 9977TIP3   OH229875   2.741   4.950   3.549
 9977TIP3    H129876   2.648   4.926   3.547
 9977TIP3    H229877   2.743   5.036   3.590
 9978TIP3   OH229878   5.598   0.358   5.776
 9978TIP3    H129879   5.553   0.390   5.855
 9978TIP3    H229880   5.533   0.369   5.706
 9979TIP3   OH229881   0.283   6.267   2.228
 9979TIP3    H129882   0.190   6.261   2.251
 9979TIP3    H229883   0.329   6.248   2.309
 9980TIP3   OH229884   2.167   7.148   3.159
 9980TIP3    H129885   2.196   7.199   3.235
 9980TIP3    H229886   2.116   7.076   3.197
 9981TIP3   OH229887   1.593   0.665   5.066
 9981TIP3    H129888   1.549   0.707   5.140
 9981TIP3    H229889   1.528   0.664   4.996
 9982TIP3   OH229890   4.494   1.612   2.341
 9982TIP3    H129891   4.442   1.614   2.421
 9982TIP3    H229892   4.547   1.533   2.348
 9983TIP3   OH229893   1.264   2.800   3.154
 9983TIP3    H129894   1.224   2.876   3.112
 9983TIP3    H229895   1.203   2.778   3.225
 9984TIP3   OH229896   1.185   7.667   2.439
 9984TIP3    H129897   1.120   7.615   2.486
 9984TIP3    H229898   1.212   7.611   2.366
 9985TIP3   OH229899   8.268   6.818   0.176
 9985TIP3    H129900   8.215   6.738   0.177
 9985TIP3    H229901   8.257   6.854   0.088
 9986TIP3   OH229902   4.570   3.316   5.647
 9986TIP3    H129903   4.540   3.313   5.556
 9986TIP3    H229904   4.507   3.263   5.695
 9987TIP3   OH229905   4.547   3.948   1.190
 9987TIP3    H129906   4.526   4.040   1.204
 9987TIP3    H229907   4.564   3.914   1.278
 9988TIP3   OH229908   0.673   0.517   6.091
 9988TIP3    H129909   0.609   0.547   6.027
 9988TIP3    H229910   0.708   0.597   6.129
 9989TIP3   OH229911   6.293   2.267   1.521
 9989TIP3    H129912   6.234   2.204   1.563
 9989TIP3    H229913   6.293   2.342   1.581
 9990TIP3   OH229914   7.840   2.789   0.021
 9990TIP3    H129915   7.869   2.725  -0.044
 9990TIP3    H229916   7.851   2.745   0.105
 9991TIP3   OH229917   2.780   0.725   1.076
 9991TIP3    H129918   2.791   0.812   1.037
 9991TIP3    H229919   2.840   0.725   1.151
 9992TIP3   OH229920   5.116   6.636   4.981
 9992TIP3    H129921   5.038   6.656   4.930
 9992TIP3    H229922   5.155   6.560   4.937
 9993TIP3   OH229923   7.075   3.881   3.722
 9993TIP3    H129924   7.010   3.890   3.652
 9993TIP3    H229925   7.096   3.971   3.747
 9994TIP3   OH229926   2.881   2.608   3.237
 9994TIP3    H129927   2.828   2.666   3.181
 9994TIP3    H229928   2.870   2.643   3.325
 9995TIP3   OH229929   0.451   1.399   1.088
 9995TIP3    H129930   0.388   1.425   1.020
 9995TIP3    H229931   0.398   1.385   1.166
 9996TIP3   OH229932   2.545   3.065   5.721
 9996TIP3    H129933   2.520   3.030   5.806
 9996TIP3    H229934   2.469   3.050   5.665
 9997TIP3   OH229935   5.290   3.509   3.641
 9997TIP3    H129936   5.364   3.493   3.700
 9997TIP3    H229937   5.294   3.602   3.622
 9998TIP3   OH229938   6.244   0.481   3.105
 9998TIP3    H129939   6.196   0.563   3.096
 9998TIP3    H229940   6.228   0.434   3.023
 9999TIP3   OH229941   5.197   5.734   6.711
 9999TIP3    H129942   5.227   5.655   6.665
 9999TIP3    H229943   5.101   5.732   6.701
10000TIP3   OH229944   6.775   6.411   6.639
10000TIP3    H129945   6.748   6.329   6.682
10000TIP3    H229946   6.785   6.388   6.547
10001TIP3   OH229947   2.617   1.110   3.289
10001TIP3    H129948   2.598   1.017   3.282
10001TIP3    H229949   2.546   1.145   3.343
10002TIP3   OH229950   2.832   1.579   6.067
10002TIP3    H129951   2.822   1.528   5.987
10002TIP3    H229952   2.780   1.533   6.132
10003TIP3   OH229953   4.707   2.217   3.788
10003TIP3    H129954   4.616   2.219   3.756
10003TIP3    H229955   4.698   2.210   3.883
10004TIP3   OH229956   6.253   5.563   3.030
10004TIP3    H129957   6.268   5.587   3.121
10004TIP3    H229958   6.249   5.467   3.031
10005TIP3   OH229959   6.780   1.960   0.965
10005TIP3    H129960   6.814   1.945   0.877
10005TIP3    H229961   6.810   2.048   0.987
10006TIP3   OH229962   1.631   3.914   5.600
10006TIP3    H129963   1.549   3.864   5.602
10006TIP3    H229964   1.608   3.998   5.562
10007TIP3   OH229965   2.857   0.441   0.382
10007TIP3    H129966   2.786   0.492   0.421
10007TIP3    H229967   2.916   0.506   0.345
10008TIP3   OH229968   4.843   5.963   0.965
10008TIP3    H129969   4.907   5.895   0.987
10008TIP3    H229970   4.848   5.971   0.870
10009TIP3   OH229971   6.169   2.055   5.101
10009TIP3    H129972   6.257   2.092   5.103
10009TIP3    H229973   6.141   2.065   5.010
10010TIP3   OH229974   6.121   4.041   1.374
10010TIP3    H129975   6.196   4.029   1.433
10010TIP3    H229976   6.156   4.089   1.299
10011TIP3   OH229977   3.439   6.843   0.472
10011TIP3    H129978   3.370   6.794   0.515
10011TIP3    H229979   3.426   6.827   0.379
10012TIP3   OH229980   3.372   4.462   2.600
10012TIP3    H129981   3.346   4.388   2.655
10012TIP3    H229982   3.383   4.535   2.661
10013TIP3   OH229983   6.867   6.937   3.106
10013TIP3    H129984   6.786   6.978   3.137
10013TIP3    H229985   6.843   6.845   3.091
10014TIP3   OH229986   3.135   7.586   5.081
10014TIP3    H129987   3.093   7.512   5.037
10014TIP3    H229988   3.222   7.591   5.042
10015TIP3   OH229989   0.725   3.191   4.258
10015TIP3    H129990   0.665   3.133   4.211
10015TIP3    H229991   0.684   3.203   4.344
10016TIP3   OH229992   6.448   3.285   1.056
10016TIP3    H129993   6.372   3.313   1.106
10016TIP3    H229994   6.522   3.301   1.113
10017TIP3   OH229995   6.075   4.429   2.310
10017TIP3    H129996   6.067   4.418   2.216
10017TIP3    H229997   6.114   4.515   2.322
10018TIP3   OH229998   6.922   4.158   5.990
10018TIP3    H129999   6.837   4.183   6.026
10018TIP3    H230000   6.901   4.090   5.926
10019TIP3   OH230001   2.214   7.324   3.394
10019TIP3    H130002   2.156   7.336   3.469
10019TIP3    H230003   2.229   7.412   3.360
10020TIP3   OH230004   8.254   3.187   2.149
10020TIP3    H130005   8.263   3.099   2.185
10020TIP3    H230006   8.204   3.235   2.215
10021TIP3   OH230007   5.827   6.627   1.840
10021TIP3    H130008   5.860   6.633   1.750
10021TIP3    H230009   5.885   6.684   1.890
10022TIP3   OH230010   3.566   4.641   2.445
10022TIP3    H130011   3.490   4.659   2.389
10022TIP3    H230012   3.529   4.625   2.531
10023TIP3   OH230013   7.907   6.419   4.217
10023TIP3    H130014   7.816   6.450   4.215
10023TIP3    H230015   7.957   6.492   4.254
10024TIP3   OH230016   2.494   3.011   4.316
10024TIP3    H130017   2.401   2.994   4.300
10024TIP3    H230018   2.531   3.024   4.228
10025TIP3   OH230019   5.835   0.947   3.170
10025TIP3    H130020   5.751   0.927   3.211
10025TIP3    H230021   5.890   0.872   3.192
10026TIP3   OH230022   2.869   4.761   2.988
10026TIP3    H130023   2.820   4.842   2.991
10026TIP3    H230024   2.825   4.703   3.050
10027TIP3   OH230025   7.915   4.233   4.887
10027TIP3    H130026   7.823   4.211   4.898
10027TIP3    H230027   7.958   4.193   4.963
10028TIP3   OH230028   4.685   0.367   1.082
10028TIP3    H130029   4.763   0.338   1.035
10028TIP3    H230030   4.673   0.458   1.055
10029TIP3   OH230031   3.766   0.275   5.705
10029TIP3    H130032   3.678   0.314   5.706
10029TIP3    H230033   3.787   0.263   5.797
10030TIP3   OH230034   0.481   6.807   2.411
10030TIP3    H130035   0.455   6.865   2.483
10030TIP3    H230036   0.576   6.796   2.423
10031TIP3   OH230037   3.550   6.715   6.024
10031TIP3    H130038   3.556   6.620   6.027
10031TIP3    H230039   3.583   6.744   6.109
10032TIP3   OH230040   4.467   7.324   4.708
10032TIP3    H130041   4.483   7.230   4.723
10032TIP3    H230042   4.409   7.350   4.779
10033TIP3   OH230043   2.420   7.082   6.211
10033TIP3    H130044   2.494   7.125   6.254
10033TIP3    H230045   2.345   7.137   6.233
10034TIP3   OH230046   1.886   6.285   1.169
10034TIP3    H130047   1.974   6.323   1.177
10034TIP3    H230048   1.882   6.254   1.078
10035TIP3   OH230049   1.650   6.984   6.175
10035TIP3    H130050   1.611   6.977   6.087
10035TIP3    H230051   1.606   6.915   6.225
10036TIP3   OH230052   1.929   0.712   6.237
10036TIP3    H130053   1.956   0.748   6.322
10036TIP3    H230054   2.007   0.721   6.182
10037TIP3   OH230055   0.756   0.221   1.959
10037TIP3    H130056   0.662   0.241   1.955
10037TIP3    H230057   0.767   0.174   2.042
10038TIP3   OH230058   3.136   0.093   3.187
10038TIP3    H130059   3.098   0.067   3.103
10038TIP3    H230060   3.142   0.011   3.237
10039TIP3   OH230061   0.100   7.530   4.383
10039TIP3    H130062   0.077   7.460   4.445
10039TIP3    H230063   0.124   7.484   4.303
10040TIP3   OH230064   6.800   7.038   0.975
10040TIP3    H130065   6.851   7.108   0.932
10040TIP3    H230066   6.862   6.999   1.036
10041TIP3   OH230067   2.069   5.927   1.739
10041TIP3    H130068   2.160   5.923   1.709
10041TIP3    H230069   2.018   5.948   1.661
10042TIP3   OH230070   7.353   0.934   4.780
10042TIP3    H130071   7.379   0.907   4.868
10042TIP3    H230072   7.366   0.856   4.726
10043TIP3   OH230073   6.968   5.285   4.666
10043TIP3    H130074   6.927   5.348   4.607
10043TIP3    H230075   7.004   5.218   4.608
10044TIP3   OH230076   5.317   7.723   2.561
10044TIP3    H130077   5.231   7.738   2.523
10044TIP3    H230078   5.338   7.804   2.607
10045TIP3   OH230079   0.509   5.651   4.904
10045TIP3    H130080   0.537   5.587   4.840
10045TIP3    H230081   0.569   5.641   4.977
10046TIP3   OH230082   7.677   7.749   0.446
10046TIP3    H130083   7.598   7.750   0.392
10046TIP3    H230084   7.649   7.710   0.529
10047TIP3   OH230085   5.252   0.966   4.293
10047TIP3    H130086   5.289   0.904   4.355
10047TIP3    H230087   5.328   1.011   4.256
10048TIP3   OH230088   2.891   6.958   5.874
10048TIP3    H130089   2.933   6.874   5.894
10048TIP3    H230090   2.813   6.960   5.929
10049TIP3   OH230091   4.006   4.674   0.985
10049TIP3    H130092   3.989   4.675   1.080
10049TIP3    H230093   4.097   4.702   0.977
10050TIP3   OH230094   0.967   3.290   3.969
10050TIP3    H130095   0.884   3.319   4.007
10050TIP3    H230096   0.981   3.349   3.895
10051TIP3   OH230097   5.063   0.182   6.038
10051TIP3    H130098   4.978   0.169   6.080
10051TIP3    H230099   5.062   0.122   5.963
10052TIP3   OH230100   1.988   7.805   1.551
10052TIP3    H130101   1.989   7.898   1.574
10052TIP3    H230102   2.018   7.761   1.630
10053TIP3   OH230103   4.913   5.956   5.004
10053TIP3    H130104   4.848   5.956   4.934
10053TIP3    H230105   4.989   5.912   4.966
10054TIP3   OH230106   1.769   2.338   5.613
10054TIP3    H130107   1.763   2.251   5.571
10054TIP3    H230108   1.857   2.369   5.588
10055TIP3   OH230109   1.918   1.016   4.027
10055TIP3    H130110   1.961   1.086   4.076
10055TIP3    H230111   1.906   0.946   4.092
10056TIP3   OH230112   7.498   6.809   4.319
10056TIP3    H130113   7.531   6.747   4.384
10056TIP3    H230114   7.404   6.790   4.315
10057TIP3   OH230115   5.144   6.730   4.672
10057TIP3    H130116   5.125   6.793   4.603
10057TIP3    H230117   5.070   6.737   4.732
10058TIP3   OH230118   5.149   5.160   1.411
10058TIP3    H130119   5.116   5.182   1.324
10058TIP3    H230120   5.121   5.070   1.425
10059TIP3   OH230121   1.327   0.649   3.162
10059TIP3    H130122   1.389   0.585   3.126
10059TIP3    H230123   1.382   0.720   3.194
10060TIP3   OH230124   8.114   4.185   0.975
10060TIP3    H130125   8.097   4.243   0.901
10060TIP3    H230126   8.095   4.098   0.942
10061TIP3   OH230127   3.510   5.063   0.419
10061TIP3    H130128   3.494   4.997   0.351
10061TIP3    H230129   3.581   5.027   0.471
10062TIP3   OH230130   1.293   2.185   1.188
10062TIP3    H130131   1.227   2.116   1.187
10062TIP3    H230132   1.242   2.267   1.190
10063TIP3   OH230133   6.657   4.809   3.634
10063TIP3    H130134   6.718   4.736   3.629
10063TIP3    H230135   6.691   4.866   3.703
10064TIP3   OH230136   5.392   7.727   0.523
10064TIP3    H130137   5.377   7.757   0.434
10064TIP3    H230138   5.326   7.773   0.575
10065TIP3   OH230139   2.187   7.778   0.461
10065TIP3    H130140   2.155   7.743   0.544
10065TIP3    H230141   2.268   7.730   0.444
10066TIP3   OH230142   2.501   4.584   2.753
10066TIP3    H130143   2.504   4.522   2.680
10066TIP3    H230144   2.591   4.617   2.760
10067TIP3   OH230145   1.008   4.254   6.085
10067TIP3    H130146   1.085   4.245   6.141
10067TIP3    H230147   1.035   4.215   6.002
10068TIP3   OH230148   1.525   4.634   4.126
10068TIP3    H130149   1.499   4.548   4.159
10068TIP3    H230150   1.618   4.626   4.106
10069TIP3   OH230151   5.517   7.076   2.486
10069TIP3    H130152   5.471   7.060   2.569
10069TIP3    H230153   5.515   6.991   2.441
10070TIP3   OH230154   1.880   0.908   1.726
10070TIP3    H130155   1.973   0.910   1.747
10070TIP3    H230156   1.865   0.820   1.692
10071TIP3   OH230157   3.240   3.091   3.406
10071TIP3    H130158   3.261   2.998   3.394
10071TIP3    H230159   3.202   3.118   3.323
10072TIP3   OH230160   6.104   3.374   4.938
10072TIP3    H130161   6.012   3.378   4.964
10072TIP3    H230162   6.103   3.321   4.857
10073TIP3   OH230163   4.798   1.724   0.602
10073TIP3    H130164   4.777   1.636   0.633
10073TIP3    H230165   4.773   1.723   0.510
10074TIP3   OH230166   0.423   5.643   5.324
10074TIP3    H130167   0.471   5.592   5.389
10074TIP3    H230168   0.466   5.623   5.241
10075TIP3   OH230169   7.639   5.826   3.095
10075TIP3    H130170   7.602   5.859   3.177
10075TIP3    H230171   7.732   5.813   3.115
10076TIP3   OH230172   2.766   1.504   3.275
10076TIP3    H130173   2.758   1.599   3.266
10076TIP3    H230174   2.805   1.476   3.192
10077TIP3   OH230175   7.686   4.546   2.979
10077TIP3    H130176   7.620   4.615   2.977
10077TIP3    H230177   7.653   4.478   2.920
10078TIP3   OH230178   6.094   4.779   6.376
10078TIP3    H130179   6.003   4.803   6.357
10078TIP3    H230180   6.133   4.760   6.291
10079TIP3   OH230181   4.365   0.556   5.299
10079TIP3    H130182   4.394   0.478   5.347
10079TIP3    H230183   4.270   0.551   5.300
10080TIP3   OH230184   2.073   7.333   6.347
10080TIP3    H130185   2.148   7.363   6.295
10080TIP3    H230186   2.083   7.238   6.351
10081TIP3   OH230187   3.749   1.649   2.274
10081TIP3    H130188   3.697   1.707   2.329
10081TIP3    H230189   3.793   1.590   2.335
10082TIP3   OH230190   5.459   0.126   3.683
10082TIP3    H130191   5.544   0.088   3.659
10082TIP3    H230192   5.402   0.050   3.697
10083TIP3   OH230193   0.882   0.407   4.816
10083TIP3    H130194   0.833   0.329   4.840
10083TIP3    H230195   0.927   0.433   4.896
10084TIP3   OH230196   4.207   5.912   1.917
10084TIP3    H130197   4.261   5.834   1.908
10084TIP3    H230198   4.236   5.970   1.846
10085TIP3   OH230199   2.770   6.675   6.713
10085TIP3    H130200   2.760   6.770   6.726
10085TIP3    H230201   2.729   6.636   6.791
10086TIP3   OH230202   2.076   1.606   6.448
10086TIP3    H130203   2.155   1.658   6.461
10086TIP3    H230204   2.036   1.642   6.369
10087TIP3   OH230205   5.395   1.856   5.220
10087TIP3    H130206   5.373   1.813   5.302
10087TIP3    H230207   5.476   1.814   5.192
10088TIP3   OH230208   8.223   2.104   4.901
10088TIP3    H130209   8.242   2.121   4.994
10088TIP3    H230210   8.178   2.184   4.871
10089TIP3   OH230211   4.939   6.356   4.082
10089TIP3    H130212   4.926   6.385   4.172
10089TIP3    H230213   4.857   6.310   4.060
10090TIP3   OH230214   1.617   0.351   4.881
10090TIP3    H130215   1.603   0.444   4.864
10090TIP3    H230216   1.680   0.350   4.954
10091TIP3   OH230217   1.828   1.047   3.772
10091TIP3    H130218   1.816   1.140   3.752
10091TIP3    H230219   1.847   1.045   3.865
10092TIP3   OH230220   4.369   3.873   1.764
10092TIP3    H130221   4.439   3.836   1.818
10092TIP3    H230222   4.289   3.836   1.800
10093TIP3   OH230223   4.067   1.282   5.878
10093TIP3    H130224   4.012   1.277   5.956
10093TIP3    H230225   4.020   1.230   5.813
10094TIP3   OH230226   6.801   3.982   3.283
10094TIP3    H130227   6.788   3.922   3.210
10094TIP3    H230228   6.893   4.009   3.276
10095TIP3   OH230229   2.652   4.510   1.402
10095TIP3    H130230   2.736   4.467   1.384
10095TIP3    H230231   2.666   4.601   1.375
10096TIP3   OH230232   0.155   5.607   5.272
10096TIP3    H130233   0.177   5.578   5.184
10096TIP3    H230234   0.239   5.635   5.311
10097TIP3   OH230235   6.454   7.676   2.988
10097TIP3    H130236   6.497   7.696   3.071
10097TIP3    H230237   6.526   7.648   2.931
10098TIP3   OH230238   1.797   1.354   4.452
10098TIP3    H130239   1.857   1.395   4.513
10098TIP3    H230240   1.711   1.392   4.472
10099TIP3   OH230241   6.542   1.001   1.641
10099TIP3    H130242   6.476   1.002   1.711
10099TIP3    H230243   6.516   1.072   1.583
10100TIP3   OH230244   3.414   5.633   5.550
10100TIP3    H130245   3.374   5.667   5.629
10100TIP3    H230246   3.394   5.698   5.482
10101TIP3   OH230247   4.794   5.127   1.530
10101TIP3    H130248   4.725   5.120   1.596
10101TIP3    H230249   4.775   5.056   1.469
10102TIP3   OH230250   3.431   5.786   4.588
10102TIP3    H130251   3.394   5.719   4.645
10102TIP3    H230252   3.501   5.826   4.640
10103TIP3   OH230253   6.847   3.723   3.094
10103TIP3    H130254   6.753   3.717   3.109
10103TIP3    H230255   6.887   3.684   3.171
10104TIP3   OH230256   5.410   4.859   3.183
10104TIP3    H130257   5.316   4.874   3.198
10104TIP3    H230258   5.415   4.832   3.091
10105TIP3   OH230259   1.095   3.387   6.627
10105TIP3    H130260   1.083   3.357   6.717
10105TIP3    H230261   1.179   3.350   6.601
10106TIP3   OH230262   0.628   7.069   1.865
10106TIP3    H130263   0.696   7.005   1.845
10106TIP3    H230264   0.572   7.025   1.930
10107TIP3   OH230265   7.211   2.197   6.110
10107TIP3    H130266   7.150   2.167   6.041
10107TIP3    H230267   7.244   2.116   6.148
10108TIP3   OH230268   4.093   6.388   4.399
10108TIP3    H130269   4.052   6.325   4.339
10108TIP3    H230270   4.078   6.473   4.358
10109TIP3   OH230271   3.560   5.452   4.581
10109TIP3    H130272   3.625   5.522   4.590
10109TIP3    H230273   3.558   5.410   4.667
10110TIP3   OH230274   7.123   5.334   6.251
10110TIP3    H130275   7.085   5.250   6.276
10110TIP3    H230276   7.217   5.319   6.252
10111TIP3   OH230277   1.196   0.532   1.343
10111TIP3    H130278   1.162   0.472   1.409
10111TIP3    H230279   1.135   0.523   1.269
10112TIP3   OH230280   5.277   4.550   4.535
10112TIP3    H130281   5.271   4.456   4.553
10112TIP3    H230282   5.338   4.556   4.462
10113TIP3   OH230283   8.039   1.086   5.893
10113TIP3    H130284   7.945   1.083   5.909
10113TIP3    H230285   8.056   1.011   5.835
10114TIP3   OH230286   6.412   1.642   1.028
10114TIP3    H130287   6.400   1.678   1.116
10114TIP3    H230288   6.328   1.657   0.985
10115TIP3   OH230289   5.579   5.055   4.249
10115TIP3    H130290   5.514   4.985   4.250
10115TIP3    H230291   5.597   5.070   4.156
10116TIP3   OH230292   1.811   5.601   4.405
10116TIP3    H130293   1.774   5.558   4.329
10116TIP3    H230294   1.870   5.536   4.444
10117TIP3   OH230295   1.628   1.759   1.239
10117TIP3    H130296   1.717   1.787   1.216
10117TIP3    H230297   1.621   1.670   1.203
10118TIP3   OH230298   3.553   7.297   3.808
10118TIP3    H130299   3.567   7.388   3.833
10118TIP3    H230300   3.608   7.284   3.731
10119TIP3   OH230301   6.538   7.442   6.610
10119TIP3    H130302   6.498   7.527   6.627
10119TIP3    H230303   6.494   7.410   6.531
10120TIP3   OH230304   1.910   1.396   5.972
10120TIP3    H130305   1.828   1.349   5.983
10120TIP3    H230306   1.953   1.390   6.057
10121TIP3   OH230307   0.648   0.282   0.210
10121TIP3    H130308   0.725   0.282   0.268
10121TIP3    H230309   0.605   0.198   0.227
10122TIP3   OH230310   5.975   5.456   0.303
10122TIP3    H130311   5.917   5.418   0.368
10122TIP3    H230312   6.054   5.480   0.351
10123TIP3   OH230313   1.685   1.640   5.793
10123TIP3    H130314   1.716   1.558   5.753
10123TIP3    H230315   1.619   1.612   5.857
10124TIP3   OH230316   7.828   4.874   4.886
10124TIP3    H130317   7.780   4.911   4.961
10124TIP3    H230318   7.847   4.784   4.912
10125TIP3   OH230319   8.173   2.977   2.975
10125TIP3    H130320   8.109   2.961   2.907
10125TIP3    H230321   8.253   3.003   2.928
10126TIP3   OH230322   0.869   7.064   2.374
10126TIP3    H130323   0.946   7.031   2.328
10126TIP3    H230324   0.824   7.119   2.310
10127TIP3   OH230325   2.301   4.397   1.080
10127TIP3    H130326   2.351   4.388   1.161
10127TIP3    H230327   2.340   4.473   1.037
10128TIP3   OH230328   4.785   7.166   4.679
10128TIP3    H130329   4.804   7.248   4.726
10128TIP3    H230330   4.754   7.195   4.593
10129TIP3   OH230331   6.401   5.799   2.082
10129TIP3    H130332   6.399   5.721   2.026
10129TIP3    H230333   6.314   5.838   2.073
10130TIP3   OH230334   6.279   7.789   0.293
10130TIP3    H130335   6.184   7.778   0.287
10130TIP3    H230336   6.294   7.823   0.381
10131TIP3   OH230337   2.059   0.606   2.984
10131TIP3    H130338   2.037   0.534   3.043
10131TIP3    H230339   2.111   0.666   3.036
10132TIP3   OH230340   5.029   3.767   0.627
10132TIP3    H130341   5.079   3.845   0.650
10132TIP3    H230342   5.069   3.735   0.547
10133TIP3   OH230343   0.668   5.607   2.650
10133TIP3    H130344   0.677   5.633   2.742
10133TIP3    H230345   0.723   5.529   2.641
10134TIP3   OH230346   1.429   0.500   2.121
10134TIP3    H130347   1.510   0.522   2.166
10134TIP3    H230348   1.366   0.564   2.153
10135TIP3   OH230349   3.675   1.590   0.498
10135TIP3    H130350   3.678   1.627   0.410
10135TIP3    H230351   3.722   1.653   0.553
10136TIP3   OH230352   0.228   1.198   6.012
10136TIP3    H130353   0.284   1.213   6.088
10136TIP3    H230354   0.140   1.190   6.049
10137TIP3   OH230355   0.765   0.596   1.072
10137TIP3    H130356   0.771   0.686   1.040
10137TIP3    H230357   0.830   0.591   1.142
10138TIP3   OH230358   2.968   2.699   1.619
10138TIP3    H130359   2.880   2.736   1.605
10138TIP3    H230360   2.959   2.607   1.596
10139TIP3   OH230361   1.757   7.417   4.298
10139TIP3    H130362   1.759   7.480   4.370
10139TIP3    H230363   1.836   7.437   4.247
10140TIP3   OH230364   3.330   2.866   0.250
10140TIP3    H130365   3.338   2.774   0.223
10140TIP3    H230366   3.372   2.915   0.179
10141TIP3   OH230367   2.251   7.483   1.639
10141TIP3    H130368   2.195   7.495   1.562
10141TIP3    H230369   2.340   7.478   1.604
10142TIP3   OH230370   6.427   0.220   2.505
10142TIP3    H130371   6.332   0.207   2.498
10142TIP3    H230372   6.464   0.160   2.440
10143TIP3   OH230373   0.838   4.902   6.743
10143TIP3    H130374   0.794   4.975   6.700
10143TIP3    H230375   0.862   4.935   6.829
10144TIP3   OH230376   3.767   4.033   0.331
10144TIP3    H130377   3.816   4.090   0.390
10144TIP3    H230378   3.688   4.082   0.310
10145TIP3   OH230379   5.474   0.476   5.988
10145TIP3    H130380   5.381   0.488   5.968
10145TIP3    H230381   5.475   0.444   6.079
10146TIP3   OH230382   4.713   5.730   4.539
10146TIP3    H130383   4.662   5.656   4.573
10146TIP3    H230384   4.760   5.694   4.464
10147TIP3   OH230385   0.464   4.538   5.144
10147TIP3    H130386   0.543   4.574   5.183
10147TIP3    H230387   0.401   4.610   5.143
10148TIP3   OH230388   7.550   1.838   6.246
10148TIP3    H130389   7.485   1.903   6.217
10148TIP3    H230390   7.497   1.765   6.277
10149TIP3   OH230391   4.552   0.110   1.092
10149TIP3    H130392   4.537   0.166   1.016
10149TIP3    H230393   4.598   0.033   1.057
10150TIP3   OH230394   1.580   3.750   1.405
10150TIP3    H130395   1.621   3.805   1.338
10150TIP3    H230396   1.648   3.686   1.428
10151TIP3   OH230397   0.834   3.497   4.504
10151TIP3    H130398   0.922   3.462   4.498
10151TIP3    H230399   0.784   3.430   4.550
10152TIP3   OH230400   5.064   5.879   2.633
10152TIP3    H130401   4.982   5.898   2.679
10152TIP3    H230402   5.078   5.954   2.576
10153TIP3   OH230403  -0.002   5.124   6.537
10153TIP3    H130404   0.034   5.095   6.454
10153TIP3    H230405   0.022   5.216   6.544
10154TIP3   OH230406   3.125   1.656   5.677
10154TIP3    H130407   3.032   1.667   5.656
10154TIP3    H230408   3.143   1.726   5.740
10155TIP3   OH230409   5.605   2.971   5.745
10155TIP3    H130410   5.606   2.892   5.799
10155TIP3    H230411   5.612   2.939   5.655
10156TIP3   OH230412   3.331   5.306   3.457
10156TIP3    H130413   3.369   5.259   3.382
10156TIP3    H230414   3.302   5.390   3.420
10157TIP3   OH230415   6.245   0.206   0.832
10157TIP3    H130416   6.181   0.180   0.898
10157TIP3    H230417   6.193   0.230   0.756
10158TIP3   OH230418   3.934   7.795   0.592
10158TIP3    H130419   3.842   7.818   0.610
10158TIP3    H230420   3.984   7.841   0.659
10159TIP3   OH230421   6.831   0.994   0.713
10159TIP3    H130422   6.858   0.930   0.648
10159TIP3    H230423   6.800   0.942   0.787
10160TIP3   OH230424   7.846   5.581   1.303
10160TIP3    H130425   7.845   5.625   1.389
10160TIP3    H230426   7.776   5.624   1.254
10161TIP3   OH230427   4.829   6.902   0.221
10161TIP3    H130428   4.815   6.885   0.314
10161TIP3    H230429   4.783   6.831   0.176
10162TIP3   OH230430   3.994   0.948   1.080
10162TIP3    H130431   3.971   0.866   1.124
10162TIP3    H230432   4.041   0.999   1.146
10163TIP3   OH230433   6.586   0.117   3.757
10163TIP3    H130434   6.555   0.087   3.672
10163TIP3    H230435   6.525   0.186   3.782
10164TIP3   OH230436   0.143   2.652   2.207
10164TIP3    H130437   0.191   2.641   2.125
10164TIP3    H230438   0.194   2.716   2.257
10165TIP3   OH230439   2.597   3.332   4.229
10165TIP3    H130440   2.671   3.309   4.286
10165TIP3    H230441   2.520   3.306   4.278
10166TIP3   OH230442   0.260   7.569   5.558
10166TIP3    H130443   0.271   7.475   5.570
10166TIP3    H230444   0.170   7.586   5.583
10167TIP3   OH230445   4.783   4.592   1.467
10167TIP3    H130446   4.717   4.650   1.431
10167TIP3    H230447   4.788   4.519   1.406
10168TIP3   OH230448   4.753   0.877   3.686
10168TIP3    H130449   4.712   0.853   3.769
10168TIP3    H230450   4.749   0.797   3.633
10169TIP3   OH230451   4.039   3.822   0.229
10169TIP3    H130452   3.973   3.753   0.220
10169TIP3    H230453   4.111   3.794   0.172
10170TIP3   OH230454   1.119   0.013   6.384
10170TIP3    H130455   1.171  -0.045   6.440
10170TIP3    H230456   1.066   0.064   6.446
10171TIP3   OH230457   1.297   4.318   0.792
10171TIP3    H130458   1.221   4.306   0.735
10171TIP3    H230459   1.266   4.378   0.860
10172TIP3   OH230460   3.460   5.820   3.036
10172TIP3    H130461   3.398   5.803   2.965
10172TIP3    H230462   3.480   5.913   3.029
10173TIP3   OH230463   0.161   1.679   1.365
10173TIP3    H130464   0.247   1.645   1.390
10173TIP3    H230465   0.132   1.727   1.443
10174TIP3   OH230466   5.328   0.212   5.326
10174TIP3    H130467   5.423   0.220   5.327
10174TIP3    H230468   5.310   0.124   5.359
10175TIP3   OH230469   5.383   5.391   3.180
10175TIP3    H130470   5.299   5.373   3.137
10175TIP3    H230471   5.448   5.387   3.110
10176TIP3   OH230472   1.692   3.146   1.299
10176TIP3    H130473   1.652   3.231   1.319
10176TIP3    H230474   1.691   3.100   1.383
10177TIP3   OH230475   7.574   1.988   3.066
10177TIP3    H130476   7.661   2.020   3.041
10177TIP3    H230477   7.542   1.942   2.989
10178TIP3   OH230478   1.743   6.789   0.260
10178TIP3    H130479   1.663   6.774   0.310
10178TIP3    H230480   1.739   6.881   0.234
10179TIP3   OH230481   5.825   4.162   4.059
10179TIP3    H130482   5.918   4.148   4.043
10179TIP3    H230483   5.822   4.230   4.127
10180TIP3   OH230484   4.391   2.877   3.831
10180TIP3    H130485   4.448   2.941   3.874
10180TIP3    H230486   4.376   2.810   3.898
10181TIP3   OH230487   6.097   1.536   0.984
10181TIP3    H130488   6.119   1.611   0.929
10181TIP3    H230489   6.003   1.525   0.975
10182TIP3   OH230490   7.777   0.030   3.128
10182TIP3    H130491   7.684   0.007   3.126
10182TIP3    H230492   7.806   0.017   3.038
10183TIP3   OH230493   0.919   3.410   1.767
10183TIP3    H130494   0.847   3.444   1.820
10183TIP3    H230495   0.888   3.324   1.737
10184TIP3   OH230496   4.312   6.828   2.041
10184TIP3    H130497   4.356   6.744   2.053
10184TIP3    H230498   4.313   6.869   2.127
10185TIP3   OH230499   7.551   1.209   2.331
10185TIP3    H130500   7.621   1.271   2.313
10185TIP3    H230501   7.548   1.153   2.253
10186TIP3   OH230502   4.511   1.591   0.655
10186TIP3    H130503   4.502   1.581   0.560
10186TIP3    H230504   4.603   1.571   0.672
10187TIP3   OH230505   0.409   0.552   4.639
10187TIP3    H130506   0.330   0.534   4.689
10187TIP3    H230507   0.382   0.619   4.576
10188TIP3   OH230508   7.621   4.300   1.138
10188TIP3    H130509   7.657   4.376   1.093
10188TIP3    H230510   7.558   4.336   1.200
10189TIP3   OH230511   7.223   4.040   1.984
10189TIP3    H130512   7.303   3.995   2.012
10189TIP3    H230513   7.254   4.112   1.929
10190TIP3   OH230514   0.849   2.875   5.678
10190TIP3    H130515   0.771   2.830   5.646
10190TIP3    H230516   0.854   2.956   5.626
10191TIP3   OH230517   2.139   2.827   2.888
10191TIP3    H130518   2.181   2.897   2.837
10191TIP3    H230519   2.177   2.834   2.975
10192TIP3   OH230520   3.932   1.298   4.594
10192TIP3    H130521   3.962   1.360   4.528
10192TIP3    H230522   3.837   1.309   4.595
10193TIP3   OH230523   2.978   0.732   1.271
10193TIP3    H130524   3.068   0.747   1.241
10193TIP3    H230525   2.969   0.789   1.347
10194TIP3   OH230526   2.925   5.609   1.234
10194TIP3    H130527   2.969   5.524   1.239
10194TIP3    H230528   2.927   5.643   1.323
10195TIP3   OH230529   4.955   1.406   5.125
10195TIP3    H130530   4.952   1.463   5.202
10195TIP3    H230531   4.893   1.445   5.064
10196TIP3   OH230532   1.619   5.087   1.716
10196TIP3    H130533   1.635   5.182   1.723
10196TIP3    H230534   1.532   5.075   1.754
10197TIP3   OH230535   6.272   4.918   5.969
10197TIP3    H130536   6.302   5.008   5.984
10197TIP3    H230537   6.178   4.928   5.951
10198TIP3   OH230538   4.015   2.938   6.416
10198TIP3    H130539   4.106   2.907   6.414
10198TIP3    H230540   3.963   2.860   6.396
10199TIP3   OH230541   8.268   3.102   2.531
10199TIP3    H130542   8.264   3.029   2.594
10199TIP3    H230543   8.259   3.060   2.446
10200TIP3   OH230544   3.434   7.436   0.793
10200TIP3    H130545   3.446   7.399   0.705
10200TIP3    H230546   3.448   7.362   0.852
10201TIP3   OH230547   7.778   3.008   3.244
10201TIP3    H130548   7.837   2.933   3.247
10201TIP3    H230549   7.813   3.063   3.174
10202TIP3   OH230550   3.549   5.651   2.591
10202TIP3    H130551   3.516   5.564   2.614
10202TIP3    H230552   3.480   5.689   2.537
10203TIP3   OH230553   7.331   3.874   5.498
10203TIP3    H130554   7.417   3.885   5.456
10203TIP3    H230555   7.351   3.834   5.582
10204TIP3   OH230556   2.490   0.596   5.975
10204TIP3    H130557   2.444   0.534   5.918
10204TIP3    H230558   2.507   0.547   6.055
10205TIP3   OH230559   3.558   0.716   2.192
10205TIP3    H130560   3.513   0.701   2.109
10205TIP3    H230561   3.551   0.632   2.238
10206TIP3   OH230562   5.808   6.131   4.190
10206TIP3    H130563   5.716   6.107   4.198
10206TIP3    H230564   5.847   6.060   4.139
10207TIP3   OH230565   3.093   2.163   5.916
10207TIP3    H130566   3.147   2.148   5.993
10207TIP3    H230567   3.008   2.189   5.950
10208TIP3   OH230568   1.953   7.468   3.217
10208TIP3    H130569   1.900   7.404   3.170
10208TIP3    H230570   2.012   7.504   3.151
10209TIP3   OH230571   0.965   5.249   5.662
10209TIP3    H130572   1.038   5.187   5.657
10209TIP3    H230573   0.895   5.201   5.706
10210TIP3   OH230574   5.375   2.502   1.299
10210TIP3    H130575   5.325   2.438   1.247
10210TIP3    H230576   5.357   2.480   1.390
10211TIP3   OH230577   1.973   7.368   3.492
10211TIP3    H130578   1.930   7.283   3.491
10211TIP3    H230579   1.943   7.411   3.412
10212TIP3   OH230580   1.245   5.984   4.313
10212TIP3    H130581   1.316   5.970   4.375
10212TIP3    H230582   1.232   5.898   4.272
10213TIP3   OH230583   2.461   4.346   3.213
10213TIP3    H130584   2.444   4.417   3.151
10213TIP3    H230585   2.555   4.330   3.204
10214TIP3   OH230586   4.737   1.835   5.172
10214TIP3    H130587   4.730   1.930   5.163
10214TIP3    H230588   4.831   1.818   5.176
10215TIP3   OH230589   6.636   2.705   0.800
10215TIP3    H130590   6.722   2.665   0.812
10215TIP3    H230591   6.574   2.635   0.820
10216TIP3   OH230592   6.578   1.451   5.004
10216TIP3    H130593   6.663   1.434   5.045
10216TIP3    H230594   6.561   1.372   4.952
10217TIP3   OH230595   7.176   1.692   6.128
10217TIP3    H130596   7.196   1.656   6.041
10217TIP3    H230597   7.212   1.628   6.189
10218TIP3   OH230598   2.634   2.113   0.814
10218TIP3    H130599   2.576   2.189   0.809
10218TIP3    H230600   2.617   2.064   0.734
10219TIP3   OH230601   8.068   4.510   4.903
10219TIP3    H130602   8.063   4.555   4.987
10219TIP3    H230603   8.131   4.439   4.917
10220TIP3   OH230604   4.561   6.866   0.697
10220TIP3    H130605   4.599   6.885   0.783
10220TIP3    H230606   4.570   6.949   0.649
10221TIP3   OH230607   7.641   4.176   4.923
10221TIP3    H130608   7.603   4.118   4.857
10221TIP3    H230609   7.576   4.178   4.993
10222TIP3   OH230610   5.134   7.758   0.663
10222TIP3    H130611   5.134   7.700   0.739
10222TIP3    H230612   5.106   7.702   0.590
10223TIP3   OH230613   4.566   1.912   3.788
10223TIP3    H130614   4.539   1.932   3.878
10223TIP3    H230615   4.530   1.826   3.771
10224TIP3   OH230616   4.674   0.266   0.595
10224TIP3    H130617   4.594   0.214   0.594
10224TIP3    H230618   4.645   0.355   0.617
10225TIP3   OH230619   2.128   0.796   5.053
10225TIP3    H130620   2.198   0.860   5.065
10225TIP3    H230621   2.067   0.814   5.124
10226TIP3   OH230622   5.584   4.316   6.336
10226TIP3    H130623   5.521   4.247   6.358
10226TIP3    H230624   5.641   4.276   6.270
10227TIP3   OH230625   2.985   1.099   1.286
10227TIP3    H130626   3.078   1.103   1.309
10227TIP3    H230627   2.941   1.084   1.369
10228TIP3   OH230628   7.860   2.452   3.464
10228TIP3    H130629   7.948   2.489   3.473
10228TIP3    H230630   7.855   2.423   3.373
10229TIP3   OH230631   2.340   7.563   5.081
10229TIP3    H130632   2.306   7.474   5.093
10229TIP3    H230633   2.398   7.578   5.155
10230TIP3   OH230634   2.643   1.397   3.503
10230TIP3    H130635   2.696   1.411   3.424
10230TIP3    H230636   2.613   1.484   3.527
10231TIP3   OH230637   4.881   3.365   5.011
10231TIP3    H130638   4.899   3.430   4.943
10231TIP3    H230639   4.816   3.306   4.971
10232TIP3   OH230640   4.228   1.950  -0.031
10232TIP3    H130641   4.306   1.932  -0.083
10232TIP3    H230642   4.262   1.977   0.054
10233TIP3   OH230643   2.136   7.461   0.660
10233TIP3    H130644   2.121   7.406   0.737
10233TIP3    H230645   2.171   7.543   0.695
10234TIP3   OH230646   3.612   1.170   0.311
10234TIP3    H130647   3.666   1.188   0.388
10234TIP3    H230648   3.671   1.125   0.250
10235TIP3   OH230649   0.745   3.247   0.259
10235TIP3    H130650   0.715   3.170   0.211
10235TIP3    H230651   0.781   3.304   0.191
10236TIP3   OH230652   0.339   0.426   2.187
10236TIP3    H130653   0.412   0.383   2.232
10236TIP3    H230654   0.351   0.519   2.206
10237TIP3   OH230655   5.663   1.366   1.170
10237TIP3    H130656   5.572   1.397   1.171
10237TIP3    H230657   5.657   1.276   1.138
10238TIP3   OH230658   5.154   6.538   3.332
10238TIP3    H130659   5.238   6.504   3.363
10238TIP3    H230660   5.091   6.469   3.352
10239TIP3   OH230661   6.248   1.686   2.884
10239TIP3    H130662   6.159   1.663   2.858
10239TIP3    H230663   6.281   1.607   2.928
10240TIP3   OH230664   6.268   5.891   5.365
10240TIP3    H130665   6.289   5.954   5.434
10240TIP3    H230666   6.173   5.879   5.371
10241TIP3   OH230667   1.150   4.815   5.072
10241TIP3    H130668   1.082   4.748   5.072
10241TIP3    H230669   1.107   4.893   5.107
10242TIP3   OH230670   6.123   1.626   0.455
10242TIP3    H130671   6.159   1.541   0.432
10242TIP3    H230672   6.186   1.662   0.518
10243TIP3   OH230673   8.218   2.827   3.738
10243TIP3    H130674   8.305   2.826   3.699
10243TIP3    H230675   8.202   2.918   3.760
10244TIP3   OH230676   6.713   6.728   0.924
10244TIP3    H130677   6.772   6.756   0.854
10244TIP3    H230678   6.628   6.767   0.901
10245TIP3   OH230679   3.333   6.876   5.201
10245TIP3    H130680   3.260   6.824   5.233
10245TIP3    H230681   3.309   6.900   5.112
10246TIP3   OH230682   7.288   1.217   3.036
10246TIP3    H130683   7.324   1.262   3.112
10246TIP3    H230684   7.361   1.167   3.000
10247TIP3   OH230685   3.245   1.559   3.114
10247TIP3    H130686   3.170   1.502   3.097
10247TIP3    H230687   3.210   1.627   3.172
10248TIP3   OH230688   0.931   5.217   2.346
10248TIP3    H130689   1.024   5.234   2.336
10248TIP3    H230690   0.906   5.267   2.424
10249TIP3   OH230691   3.494   1.581   6.712
10249TIP3    H130692   3.566   1.519   6.729
10249TIP3    H230693   3.499   1.597   6.618
10250TIP3   OH230694   2.218   2.929   5.382
10250TIP3    H130695   2.194   2.978   5.304
10250TIP3    H230696   2.280   2.985   5.428
10251TIP3   OH230697   1.418   3.164   4.213
10251TIP3    H130698   1.336   3.184   4.169
10251TIP3    H230699   1.403   3.078   4.253
10252TIP3   OH230700   3.697   7.164   4.593
10252TIP3    H130701   3.753   7.089   4.612
10252TIP3    H230702   3.757   7.233   4.565
10253TIP3   OH230703   3.672   3.552   2.419
10253TIP3    H130704   3.762   3.523   2.404
10253TIP3    H230705   3.643   3.501   2.495
10254TIP3   OH230706   3.611   0.304   1.563
10254TIP3    H130707   3.707   0.299   1.553
10254TIP3    H230708   3.593   0.397   1.575
10255TIP3   OH230709   3.117   3.306   4.145
10255TIP3    H130710   3.166   3.296   4.227
10255TIP3    H230711   3.136   3.227   4.095
10256TIP3   OH230712   5.855   0.879   0.301
10256TIP3    H130713   5.840   0.917   0.214
10256TIP3    H230714   5.905   0.946   0.347
10257TIP3   OH230715   4.273   5.660   5.999
10257TIP3    H130716   4.322   5.578   5.999
10257TIP3    H230717   4.277   5.690   6.090
10258TIP3   OH230718   0.004   6.409   5.408
10258TIP3    H130719   0.018   6.318   5.437
10258TIP3    H230720   0.053   6.415   5.326
10259TIP3   OH230721   7.244   3.899   2.364
10259TIP3    H130722   7.179   3.958   2.326
10259TIP3    H230723   7.305   3.881   2.293
10260TIP3   OH230724   5.148   6.189   2.141
10260TIP3    H130725   5.178   6.164   2.053
10260TIP3    H230726   5.212   6.253   2.171
10261TIP3   OH230727   1.201   1.900   0.124
10261TIP3    H130728   1.289   1.913   0.160
10261TIP3    H230729   1.190   1.805   0.121
10262TIP3   OH230730   5.269   4.287   4.524
10262TIP3    H130731   5.268   4.222   4.454
10262TIP3    H230732   5.219   4.246   4.596
10263TIP3   OH230733   8.103   3.439   4.638
10263TIP3    H130734   8.137   3.456   4.726
10263TIP3    H230735   8.180   3.439   4.582
10264TIP3   OH230736   3.914   6.158   0.992
10264TIP3    H130737   3.956   6.237   0.959
10264TIP3    H230738   3.831   6.188   1.028
10265TIP3   OH230739   6.553   3.507   3.017
10265TIP3    H130740   6.643   3.491   3.046
10265TIP3    H230741   6.503   3.515   3.098
10266TIP3   OH230742   5.676   5.255   1.906
10266TIP3    H130743   5.660   5.164   1.884
10266TIP3    H230744   5.663   5.302   1.823
10267TIP3   OH230745   4.674   4.068   3.175
10267TIP3    H130746   4.721   4.016   3.241
10267TIP3    H230747   4.742   4.122   3.135
10268TIP3   OH230748   6.471   3.196   5.013
10268TIP3    H130749   6.395   3.239   5.053
10268TIP3    H230750   6.546   3.228   5.062
10269TIP3   OH230751   5.149   6.635   1.305
10269TIP3    H130752   5.110   6.557   1.344
10269TIP3    H230753   5.204   6.602   1.234
10270TIP3   OH230754   6.202   2.561   5.804
10270TIP3    H130755   6.170   2.517   5.725
10270TIP3    H230756   6.221   2.491   5.865
10271TIP3   OH230757   7.290   4.342   0.958
10271TIP3    H130758   7.255   4.272   0.903
10271TIP3    H230759   7.385   4.333   0.950
10272TIP3   OH230760   0.453   2.939   4.533
10272TIP3    H130761   0.447   2.968   4.624
10272TIP3    H230762   0.387   2.990   4.486
10273TIP3   OH230763   5.766   2.346   3.343
10273TIP3    H130764   5.820   2.407   3.394
10273TIP3    H230765   5.689   2.331   3.398
10274TIP3   OH230766   6.116   2.230   0.461
10274TIP3    H130767   6.139   2.249   0.370
10274TIP3    H230768   6.190   2.264   0.512
10275TIP3   OH230769   6.030   0.113   2.978
10275TIP3    H130770   6.101   0.143   2.921
10275TIP3    H230771   5.964   0.182   2.971
10276TIP3   OH230772   3.443   6.049   4.875
10276TIP3    H130773   3.490   5.973   4.841
10276TIP3    H230774   3.496   6.124   4.846
10277TIP3   OH230775   6.936   6.898   1.200
10277TIP3    H130776   6.923   6.854   1.284
10277TIP3    H230777   6.978   6.981   1.222
10278TIP3   OH230778   5.634   1.421   4.366
10278TIP3    H130779   5.652   1.426   4.460
10278TIP3    H230780   5.613   1.329   4.350
10279TIP3   OH230781   7.761   6.948   3.401
10279TIP3    H130782   7.681   6.949   3.349
10279TIP3    H230783   7.790   7.039   3.401
10280TIP3   OH230784   3.321   2.239   0.919
10280TIP3    H130785   3.275   2.156   0.904
10280TIP3    H230786   3.252   2.305   0.912
10281TIP3   OH230787   7.235   7.175   1.205
10281TIP3    H130788   7.240   7.222   1.122
10281TIP3    H230789   7.141   7.172   1.225
10282TIP3   OH230790   6.248   7.763   0.863
10282TIP3    H130791   6.158   7.783   0.890
10282TIP3    H230792   6.249   7.668   0.852
10283TIP3   OH230793   1.011   6.132   3.132
10283TIP3    H130794   1.072   6.138   3.206
10283TIP3    H230795   0.928   6.106   3.172
10284TIP3   OH230796   5.097   3.769   2.106
10284TIP3    H130797   5.027   3.834   2.116
10284TIP3    H230798   5.121   3.745   2.195
10285TIP3   OH230799   6.288   7.381   2.382
10285TIP3    H130800   6.267   7.398   2.474
10285TIP3    H230801   6.206   7.351   2.344
10286TIP3   OH230802   0.478   2.593   2.590
10286TIP3    H130803   0.402   2.543   2.559
10286TIP3    H230804   0.546   2.528   2.604
10287TIP3   OH230805   6.828   5.252   1.235
10287TIP3    H130806   6.809   5.256   1.329
10287TIP3    H230807   6.810   5.162   1.210
10288TIP3   OH230808   0.793   6.768   2.443
10288TIP3    H130809   0.801   6.808   2.356
10288TIP3    H230810   0.811   6.839   2.504
10289TIP3   OH230811   4.980   2.965   6.371
10289TIP3    H130812   4.893   2.959   6.333
10289TIP3    H230813   5.036   2.994   6.299
10290TIP3   OH230814   3.443   4.732   0.673
10290TIP3    H130815   3.445   4.723   0.768
10290TIP3    H230816   3.533   4.716   0.645
10291TIP3   OH230817   4.795   6.511   3.243
10291TIP3    H130818   4.870   6.459   3.271
10291TIP3    H230819   4.730   6.499   3.312
10292TIP3   OH230820   4.872   3.557   4.692
10292TIP3    H130821   4.787   3.554   4.735
10292TIP3    H230822   4.930   3.600   4.756
10293TIP3   OH230823   2.304   4.894   4.085
10293TIP3    H130824   2.389   4.917   4.123
10293TIP3    H230825   2.263   4.838   4.150
10294TIP3   OH230826   4.202   7.584   1.019
10294TIP3    H130827   4.195   7.576   0.924
10294TIP3    H230828   4.142   7.519   1.053
10295TIP3   OH230829   3.152   2.550   4.326
10295TIP3    H130830   3.228   2.526   4.380
10295TIP3    H230831   3.084   2.570   4.389
10296TIP3   OH230832   1.850   7.457   2.189
10296TIP3    H130833   1.891   7.533   2.147
10296TIP3    H230834   1.777   7.494   2.237
10297TIP3   OH230835   0.546   7.397   1.211
10297TIP3    H130836   0.628   7.445   1.218
10297TIP3    H230837   0.498   7.441   1.141
10298TIP3   OH230838   6.650   2.875   1.389
10298TIP3    H130839   6.596   2.862   1.467
10298TIP3    H230840   6.597   2.930   1.332
10299TIP3   OH230841   5.404   1.379   0.314
10299TIP3    H130842   5.381   1.469   0.293
10299TIP3    H230843   5.500   1.378   0.316
10300TIP3   OH230844   3.239   6.272   1.103
10300TIP3    H130845   3.182   6.326   1.048
10300TIP3    H230846   3.183   6.200   1.131
10301TIP3   OH230847   3.722   5.555   5.545
10301TIP3    H130848   3.626   5.555   5.538
10301TIP3    H230849   3.743   5.642   5.579
10302TIP3   OH230850   2.267   3.349   6.630
10302TIP3    H130851   2.292   3.386   6.714
10302TIP3    H230852   2.211   3.274   6.653
10303TIP3   OH230853   7.167   1.219   2.796
10303TIP3    H130854   7.233   1.267   2.747
10303TIP3    H230855   7.185   1.240   2.888
10304TIP3   OH230856   1.529   4.433   1.763
10304TIP3    H130857   1.533   4.338   1.761
10304TIP3    H230858   1.438   4.454   1.741
10305TIP3   OH230859   4.974   6.734   4.174
10305TIP3    H130860   4.889   6.699   4.146
10305TIP3    H230861   5.027   6.656   4.192
10306TIP3   OH230862   0.939   1.528   0.882
10306TIP3    H130863   0.876   1.589   0.922
10306TIP3    H230864   0.884   1.466   0.834
10307TIP3   OH230865   6.125   0.803   5.642
10307TIP3    H130866   6.109   0.863   5.715
10307TIP3    H230867   6.135   0.860   5.566
10308TIP3   OH230868   8.202   5.395   5.308
10308TIP3    H130869   8.277   5.380   5.250
10308TIP3    H230870   8.134   5.430   5.250
10309TIP3   OH230871   5.202   1.955   1.873
10309TIP3    H130872   5.115   1.914   1.874
10309TIP3    H230873   5.254   1.900   1.814
10310TIP3   OH230874   5.542   4.381   0.761
10310TIP3    H130875   5.606   4.352   0.696
10310TIP3    H230876   5.467   4.411   0.710
10311TIP3   OH230877   3.414   0.872   4.604
10311TIP3    H130878   3.420   0.806   4.672
10311TIP3    H230879   3.324   0.903   4.608
10312TIP3   OH230880   2.108   7.112   5.307
10312TIP3    H130881   2.068   7.043   5.360
10312TIP3    H230882   2.139   7.066   5.229
10313TIP3   OH230883   1.017   1.506   3.351
10313TIP3    H130884   1.083   1.465   3.295
10313TIP3    H230885   0.934   1.487   3.307
10314TIP3   OH230886   7.481   3.998   2.044
10314TIP3    H130887   7.492   3.997   2.139
10314TIP3    H230888   7.533   4.073   2.015
10315TIP3   OH230889   6.181   5.063   0.114
10315TIP3    H130890   6.095   5.024   0.102
10315TIP3    H230891   6.169   5.155   0.093
10316TIP3   OH230892   1.687   0.522   1.934
10316TIP3    H130893   1.763   0.499   1.987
10316TIP3    H230894   1.675   0.448   1.875
10317TIP3   OH230895   7.021   0.917   6.143
10317TIP3    H130896   7.074   0.838   6.143
10317TIP3    H230897   7.012   0.940   6.050
10318TIP3   OH230898   1.924   2.900   0.674
10318TIP3    H130899   1.909   2.972   0.613
10318TIP3    H230900   1.946   2.943   0.757
10319TIP3   OH230901   5.608   4.034   0.962
10319TIP3    H130902   5.623   4.026   0.868
10319TIP3    H230903   5.578   3.947   0.988
10320TIP3   OH230904   3.574   1.048   5.271
10320TIP3    H130905   3.598   1.139   5.256
10320TIP3    H230906   3.483   1.051   5.301
10321TIP3   OH230907   1.254   0.009   1.202
10321TIP3    H130908   1.338  -0.023   1.233
10321TIP3    H230909   1.276   0.075   1.136
10322TIP3   OH230910   6.689   4.755   1.905
10322TIP3    H130911   6.745   4.720   1.975
10322TIP3    H230912   6.609   4.704   1.911
10323TIP3   OH230913   3.890   2.174   3.323
10323TIP3    H130914   3.906   2.230   3.399
10323TIP3    H230915   3.814   2.122   3.347
10324TIP3   OH230916   6.770   7.496   4.126
10324TIP3    H130917   6.778   7.587   4.155
10324TIP3    H230918   6.712   7.500   4.050
10325TIP3   OH230919   4.530   5.062   5.243
10325TIP3    H130920   4.531   5.033   5.334
10325TIP3    H230921   4.565   4.988   5.194
10326TIP3   OH230922   1.731   2.836   2.853
10326TIP3    H130923   1.808   2.892   2.844
10326TIP3    H230924   1.657   2.895   2.835
10327TIP3   OH230925   0.985   0.774   0.149
10327TIP3    H130926   1.066   0.747   0.105
10327TIP3    H230927   0.984   0.870   0.139
10328TIP3   OH230928   7.311   1.820   3.516
10328TIP3    H130929   7.253   1.859   3.451
10328TIP3    H230930   7.252   1.769   3.572
10329TIP3   OH230931   0.837   0.971   3.169
10329TIP3    H130932   0.906   0.917   3.129
10329TIP3    H230933   0.884   1.040   3.215
10330TIP3   OH230934   3.650   6.446   0.495
10330TIP3    H130935   3.663   6.465   0.588
10330TIP3    H230936   3.627   6.353   0.493
10331TIP3   OH230937   7.223   0.812   3.987
10331TIP3    H130938   7.190   0.723   3.978
10331TIP3    H230939   7.305   0.812   3.937
10332TIP3   OH230940   5.408   3.178   5.671
10332TIP3    H130941   5.493   3.133   5.672
10332TIP3    H230942   5.347   3.112   5.703
10333TIP3   OH230943   3.986   4.627   3.845
10333TIP3    H130944   3.910   4.674   3.881
10333TIP3    H230945   4.059   4.656   3.899
10334TIP3   OH230946   2.080   4.088   4.850
10334TIP3    H130947   2.135   4.051   4.918
10334TIP3    H230948   2.048   4.171   4.887
10335TIP3   OH230949   1.653   4.244   2.221
10335TIP3    H130950   1.741   4.280   2.225
10335TIP3    H230951   1.596   4.320   2.239
10336TIP3   OH230952   7.929   7.302   3.682
10336TIP3    H130953   7.902   7.355   3.756
10336TIP3    H230954   8.020   7.277   3.702
10337TIP3   OH230955   6.139   4.509   5.705
10337TIP3    H130956   6.133   4.517   5.801
10337TIP3    H230957   6.125   4.416   5.688
10338TIP3   OH230958   8.187   4.536   0.941
10338TIP3    H130959   8.183   4.506   0.850
10338TIP3    H230960   8.096   4.554   0.964
10339TIP3   OH230961   7.243   2.757   3.555
10339TIP3    H130962   7.273   2.669   3.578
10339TIP3    H230963   7.167   2.771   3.612
10340TIP3   OH230964   0.880   2.463   4.315
10340TIP3    H130965   0.859   2.441   4.405
10340TIP3    H230966   0.905   2.380   4.274
10341TIP3   OH230967   2.066   6.336   4.303
10341TIP3    H130968   2.132   6.271   4.281
10341TIP3    H230969   2.104   6.419   4.274
10342TIP3   OH230970   4.133   5.680   5.776
10342TIP3    H130971   4.183   5.681   5.857
10342TIP3    H230972   4.151   5.594   5.738
10343TIP3   OH230973   5.896   3.565   1.326
10343TIP3    H130974   5.951   3.623   1.380
10343TIP3    H230975   5.836   3.624   1.281
10344TIP3   OH230976   0.476   7.091   3.468
10344TIP3    H130977   0.394   7.124   3.505
10344TIP3    H230978   0.543   7.149   3.504
10345TIP3   OH230979   4.600   0.756   2.622
10345TIP3    H130980   4.692   0.769   2.645
10345TIP3    H230981   4.602   0.694   2.550
10346TIP3   OH230982   0.283   5.261   4.186
10346TIP3    H130983   0.252   5.176   4.153
10346TIP3    H230984   0.317   5.305   4.108
10347TIP3   OH230985   5.685   3.034   0.508
10347TIP3    H130986   5.753   2.973   0.534
10347TIP3    H230987   5.721   3.120   0.529
10348TIP3   OH230988   6.144   6.736   2.223
10348TIP3    H130989   6.135   6.687   2.141
10348TIP3    H230990   6.201   6.809   2.201
10349TIP3   OH230991   4.746   6.395   0.977
10349TIP3    H130992   4.667   6.428   1.020
10349TIP3    H230993   4.787   6.339   1.043
10350TIP3   OH230994   3.409   6.718   6.735
10350TIP3    H130995   3.346   6.669   6.682
10350TIP3    H230996   3.380   6.809   6.727
10351TIP3   OH230997   2.144   4.891   0.814
10351TIP3    H130998   2.221   4.858   0.768
10351TIP3    H230999   2.153   4.857   0.903
10352TIP3   OH231000   7.568   7.511   2.502
10352TIP3    H131001   7.630   7.576   2.471
10352TIP3    H231002   7.608   7.427   2.479
10353TIP3   OH231003   2.755   2.317   3.068
10353TIP3    H131004   2.693   2.268   3.014
10353TIP3    H231005   2.702   2.353   3.139
10354TIP3   OH231006   4.769   2.851   0.760
10354TIP3    H131007   4.676   2.838   0.742
10354TIP3    H231008   4.812   2.840   0.675
10355TIP3   OH231009   7.248   7.633   0.315
10355TIP3    H131010   7.235   7.553   0.266
10355TIP3    H231011   7.273   7.603   0.403
10356TIP3   OH231012   1.482   0.156   3.822
10356TIP3    H131013   1.446   0.238   3.856
10356TIP3    H231014   1.576   0.172   3.815
10357TIP3   OH231015   5.008   3.187   5.957
10357TIP3    H131016   5.020   3.264   5.901
10357TIP3    H231017   4.931   3.207   6.010
10358TIP3   OH231018   2.909   6.944   0.844
10358TIP3    H131019   2.939   7.030   0.871
10358TIP3    H231020   2.818   6.957   0.816
10359TIP3   OH231021   0.409   3.437   1.630
10359TIP3    H131022   0.454   3.466   1.551
10359TIP3    H231023   0.334   3.496   1.638
10360TIP3   OH231024   4.588   3.128   6.662
10360TIP3    H131025   4.670   3.157   6.624
10360TIP3    H231026   4.542   3.209   6.685
10361TIP3   OH231027   3.418   0.990   2.389
10361TIP3    H131028   3.337   0.949   2.420
10361TIP3    H231029   3.457   0.925   2.331
10362TIP3   OH231030   0.731   5.939   5.965
10362TIP3    H131031   0.642   5.970   5.948
10362TIP3    H231032   0.728   5.909   6.056
10363TIP3   OH231033   7.602   0.477   4.297
10363TIP3    H131034   7.670   0.427   4.342
10363TIP3    H231035   7.520   0.444   4.333
10364TIP3   OH231036   2.669   3.827   4.380
10364TIP3    H131037   2.655   3.773   4.302
10364TIP3    H231038   2.731   3.894   4.352
10365TIP3   OH231039   3.409   6.005   6.124
10365TIP3    H131040   3.474   5.994   6.054
10365TIP3    H231041   3.454   6.056   6.191
10366TIP3   OH231042   7.251   5.478   1.876
10366TIP3    H131043   7.295   5.489   1.961
10366TIP3    H231044   7.301   5.534   1.817
10367TIP3   OH231045   7.640   4.434   4.761
10367TIP3    H131046   7.641   4.363   4.825
10367TIP3    H231047   7.692   4.503   4.802
10368TIP3   OH231048   3.384   0.146   3.006
10368TIP3    H131049   3.299   0.186   2.992
10368TIP3    H231050   3.366   0.066   3.057
10369TIP3   OH231051   6.689   1.938   0.301
10369TIP3    H131052   6.764   1.930   0.242
10369TIP3    H231053   6.693   1.860   0.356
10370TIP3   OH231054   6.890   6.377   2.878
10370TIP3    H131055   6.961   6.316   2.902
10370TIP3    H231056   6.820   6.356   2.940
10371TIP3   OH231057   1.099   1.703   6.694
10371TIP3    H131058   1.047   1.694   6.775
10371TIP3    H231059   1.187   1.723   6.725
10372TIP3   OH231060   8.090   2.854   5.914
10372TIP3    H131061   8.141   2.801   5.853
10372TIP3    H231062   8.005   2.865   5.871
10373TIP3   OH231063   0.582   6.498   1.766
10373TIP3    H131064   0.560   6.424   1.823
10373TIP3    H231065   0.626   6.458   1.691
10374TIP3   OH231066   3.203   2.127   6.162
10374TIP3    H131067   3.285   2.083   6.137
10374TIP3    H231068   3.232   2.206   6.208
10375TIP3   OH231069   2.400   7.303   5.060
10375TIP3    H131070   2.494   7.319   5.049
10375TIP3    H231071   2.395   7.224   5.114
10376TIP3   OH231072   0.858   4.925   1.118
10376TIP3    H131073   0.843   4.919   1.213
10376TIP3    H231074   0.952   4.912   1.108
10377TIP3   OH231075   0.068   1.815   3.608
10377TIP3    H131076   0.037   1.833   3.519
10377TIP3    H231077   0.004   1.857   3.665
10378TIP3   OH231078   3.305   7.787   5.726
10378TIP3    H131079   3.275   7.866   5.681
10378TIP3    H231080   3.400   7.796   5.729
10379TIP3   OH231081   5.841   6.415   6.715
10379TIP3    H131082   5.922   6.435   6.763
10379TIP3    H231083   5.774   6.464   6.761
10380TIP3   OH231084   1.519   3.235   3.498
10380TIP3    H131085   1.449   3.298   3.516
10380TIP3    H231086   1.507   3.212   3.406
10381TIP3   OH231087   5.545   5.420   5.733
10381TIP3    H131088   5.504   5.461   5.809
10381TIP3    H231089   5.501   5.335   5.724
10382TIP3   OH231090   7.531   5.059   2.669
10382TIP3    H131091   7.618   5.033   2.700
10382TIP3    H231092   7.500   4.983   2.618
10383TIP3   OH231093   4.868   2.750   3.618
10383TIP3    H131094   4.801   2.810   3.650
10383TIP3    H231095   4.822   2.668   3.604
10384TIP3   OH231096   0.354   4.278   0.946
10384TIP3    H131097   0.399   4.361   0.930
10384TIP3    H231098   0.357   4.267   1.042
10385TIP3   OH231099   7.664   0.862   6.363
10385TIP3    H131100   7.737   0.802   6.347
10385TIP3    H231101   7.702   0.935   6.411
10386TIP3   OH231102   5.441   5.875   0.190
10386TIP3    H131103   5.504   5.824   0.241
10386TIP3    H231104   5.478   5.963   0.186
10387TIP3   OH231105   1.839   1.567   3.878
10387TIP3    H131106   1.860   1.478   3.908
10387TIP3    H231107   1.831   1.618   3.959
10388TIP3   OH231108   7.716   1.775   2.924
10388TIP3    H131109   7.752   1.808   3.006
10388TIP3    H231110   7.692   1.685   2.942
10389TIP3   OH231111   2.250   6.911   3.953
10389TIP3    H131112   2.281   6.952   4.034
10389TIP3    H231113   2.204   6.980   3.906
10390TIP3   OH231114   4.842   1.441   6.680
10390TIP3    H131115   4.863   1.400   6.764
10390TIP3    H231116   4.758   1.402   6.655
10391TIP3   OH231117   6.390   4.156   5.185
10391TIP3    H131118   6.439   4.212   5.126
10391TIP3    H231119   6.411   4.067   5.157
10392TIP3   OH231120   5.435   0.600   5.728
10392TIP3    H131121   5.430   0.634   5.638
10392TIP3    H231122   5.452   0.677   5.781
10393TIP3   OH231123   4.966   6.945   4.690
10393TIP3    H131124   4.882   6.991   4.690
10393TIP3    H231125   5.014   6.983   4.763
10394TIP3   OH231126   4.768   3.779   6.740
10394TIP3    H131127   4.832   3.713   6.765
10394TIP3    H231128   4.770   3.780   6.644
10395TIP3   OH231129   4.262   0.598   2.495
10395TIP3    H131130   4.231   0.570   2.581
10395TIP3    H231131   4.305   0.520   2.460
10396TIP3   OH231132   5.410   0.453   0.532
10396TIP3    H131133   5.341   0.487   0.588
10396TIP3    H231134   5.368   0.386   0.478
10397TIP3   OH231135   6.936   3.806   5.352
10397TIP3    H131136   6.978   3.725   5.322
10397TIP3    H231137   7.008   3.862   5.377
10398TIP3   OH231138   5.914   2.877   0.628
10398TIP3    H131139   5.962   2.847   0.551
10398TIP3    H231140   5.966   2.950   0.662
10399TIP3   OH231141   2.242   4.355   4.386
10399TIP3    H131142   2.218   4.297   4.459
10399TIP3    H231143   2.206   4.440   4.411
10400TIP3   OH231144   3.333   3.940   6.570
10400TIP3    H131145   3.243   3.920   6.545
10400TIP3    H231146   3.346   3.893   6.652
10401TIP3   OH231147   8.145   0.103   5.185
10401TIP3    H131148   8.106   0.016   5.193
10401TIP3    H231149   8.220   0.103   5.244
10402TIP3   OH231150   6.870   2.901   1.708
10402TIP3    H131151   6.890   2.811   1.734
10402TIP3    H231152   6.837   2.942   1.787
10403TIP3   OH231153   6.523   2.722   3.277
10403TIP3    H131154   6.601   2.710   3.223
10403TIP3    H231155   6.547   2.687   3.363
10404TIP3   OH231156   5.188   1.950   3.679
10404TIP3    H131157   5.110   2.002   3.662
10404TIP3    H231158   5.192   1.943   3.774
10405TIP3   OH231159   3.566   4.849   1.964
10405TIP3    H131160   3.531   4.928   2.006
10405TIP3    H231161   3.502   4.781   1.986
10406TIP3   OH231162   0.560   7.777   4.540
10406TIP3    H131163   0.596   7.854   4.585
10406TIP3    H231164   0.505   7.814   4.471
10407TIP3   OH231165   3.171   6.254   2.735
10407TIP3    H131166   3.149   6.181   2.677
10407TIP3    H231167   3.188   6.327   2.675
10408TIP3   OH231168   3.611   5.838   4.793
10408TIP3    H131169   3.590   5.758   4.841
10408TIP3    H231170   3.705   5.850   4.807
10409TIP3   OH231171   4.995   6.317   3.302
10409TIP3    H131172   4.988   6.279   3.214
10409TIP3    H231173   5.019   6.243   3.358
10410TIP3   OH231174   6.798   5.393   5.802
10410TIP3    H131175   6.891   5.372   5.796
10410TIP3    H231176   6.756   5.333   5.741
10411TIP3   OH231177   6.800   5.426   4.496
10411TIP3    H131178   6.721   5.443   4.547
10411TIP3    H231179   6.807   5.500   4.436
10412TIP3   OH231180   0.590   6.227   2.361
10412TIP3    H131181   0.555   6.200   2.276
10412TIP3    H231182   0.526   6.193   2.424
10413TIP3   OH231183   2.969   4.966   1.476
10413TIP3    H131184   2.955   4.899   1.542
10413TIP3    H231185   2.975   5.048   1.525
10414TIP3   OH231186   1.081   3.776   0.736
10414TIP3    H131187   1.104   3.683   0.742
10414TIP3    H231188   1.019   3.790   0.807
10415TIP3   OH231189   7.437   4.102   6.696
10415TIP3    H131190   7.426   4.196   6.681
10415TIP3    H231191   7.408   4.088   6.786
10416TIP3   OH231192   1.478   2.957   2.584
10416TIP3    H131193   1.478   3.019   2.658
10416TIP3    H231194   1.502   2.873   2.624
10417TIP3   OH231195   1.229   5.020   0.305
10417TIP3    H131196   1.135   5.031   0.322
10417TIP3    H231197   1.237   5.033   0.211
10418TIP3   OH231198   3.526   0.287   5.011
10418TIP3    H131199   3.552   0.300   4.920
10418TIP3    H231200   3.583   0.217   5.042
10419TIP3   OH231201   4.264   3.742   2.322
10419TIP3    H131202   4.245   3.798   2.397
10419TIP3    H231203   4.233   3.656   2.348
10420TIP3   OH231204   1.443   4.364   2.401
10420TIP3    H131205   1.477   4.330   2.483
10420TIP3    H231206   1.417   4.454   2.421
10421TIP3   OH231207   8.015  -0.016   1.846
10421TIP3    H131208   7.977   0.065   1.810
10421TIP3    H231209   7.987  -0.018   1.937
10422TIP3   OH231210   1.439   6.496   2.245
10422TIP3    H131211   1.498   6.524   2.175
10422TIP3    H231212   1.351   6.509   2.210
10423TIP3   OH231213   4.286   5.851   3.141
10423TIP3    H131214   4.380   5.860   3.154
10423TIP3    H231215   4.278   5.800   3.060
10424TIP3   OH231216   2.804   1.728   6.483
10424TIP3    H131217   2.855   1.694   6.556
10424TIP3    H231218   2.812   1.823   6.490
10425TIP3   OH231219   2.961   5.354   5.484
10425TIP3    H131220   2.972   5.347   5.389
10425TIP3    H231221   2.982   5.446   5.503
10426TIP3   OH231222   1.891   0.375   0.436
10426TIP3    H131223   1.914   0.367   0.529
10426TIP3    H231224   1.796   0.362   0.434
10427TIP3   OH231225   7.536   3.815   5.335
10427TIP3    H131226   7.582   3.787   5.255
10427TIP3    H231227   7.600   3.870   5.380
10428TIP3   OH231228   1.907   7.507   5.653
10428TIP3    H131229   1.819   7.493   5.687
10428TIP3    H231230   1.952   7.424   5.668
10429TIP3   OH231231   1.211   5.646   1.372
10429TIP3    H131232   1.223   5.699   1.294
10429TIP3    H231233   1.233   5.557   1.345
10430TIP3   OH231234   8.272   1.026   3.985
10430TIP3    H131235   8.216   1.037   3.908
10430TIP3    H231236   8.340   0.965   3.957
10431TIP3   OH231237   4.042   2.092   6.303
10431TIP3    H131238   4.131   2.123   6.321
10431TIP3    H231239   4.013   2.147   6.230
10432TIP3   OH231240   0.410   1.337   4.282
10432TIP3    H131241   0.351   1.270   4.315
10432TIP3    H231242   0.353   1.402   4.241
10433TIP3   OH231243   5.974   0.604   4.422
10433TIP3    H131244   5.895   0.550   4.415
10433TIP3    H231245   5.941   0.693   4.434
10434TIP3   OH231246   5.827   3.066   1.690
10434TIP3    H131247   5.878   3.031   1.618
10434TIP3    H231248   5.822   2.995   1.754
10435TIP3   OH231249   8.170   0.042   4.476
10435TIP3    H131250   8.209   0.125   4.449
10435TIP3    H231251   8.242  -0.006   4.517
10436TIP3   OH231252   5.413   4.769   6.648
10436TIP3    H131253   5.428   4.714   6.725
10436TIP3    H231254   5.357   4.716   6.592
10437TIP3   OH231255   6.821   0.893   3.310
10437TIP3    H131256   6.777   0.867   3.229
10437TIP3    H231257   6.841   0.810   3.354
10438TIP3   OH231258   3.812   5.115   1.709
10438TIP3    H131259   3.884   5.129   1.648
10438TIP3    H231260   3.846   5.053   1.774
10439TIP3   OH231261   6.570   6.567   2.799
10439TIP3    H131262   6.508   6.538   2.865
10439TIP3    H231263   6.635   6.618   2.847
10440TIP3   OH231264   7.192   4.933   4.109
10440TIP3    H131265   7.150   4.912   4.026
10440TIP3    H231266   7.125   4.979   4.160
10441TIP3   OH231267   8.181   5.117   0.375
10441TIP3    H131268   8.191   5.198   0.425
10441TIP3    H231269   8.160   5.146   0.286
10442TIP3   OH231270   0.380   3.457   5.265
10442TIP3    H131271   0.300   3.509   5.264
10442TIP3    H231272   0.361   3.381   5.211
10443TIP3   OH231273   1.178   6.217   3.338
10443TIP3    H131274   1.213   6.153   3.400
10443TIP3    H231275   1.255   6.264   3.306
10444TIP3   OH231276   1.549   4.846   1.113
10444TIP3    H131277   1.641   4.840   1.088
10444TIP3    H231278   1.537   4.777   1.178
10445TIP3   OH231279   7.966   1.464   6.266
10445TIP3    H131280   8.060   1.473   6.252
10445TIP3    H231281   7.949   1.371   6.253
10446TIP3   OH231282   7.516   2.726   2.752
10446TIP3    H131283   7.556   2.813   2.747
10446TIP3    H231284   7.583   2.667   2.717
10447TIP3   OH231285   7.176   4.923   3.590
10447TIP3    H131286   7.131   4.975   3.657
10447TIP3    H231287   7.265   4.957   3.590
10448TIP3   OH231288   1.648   2.080   0.909
10448TIP3    H131289   1.736   2.098   0.877
10448TIP3    H231290   1.614   2.014   0.848
10449TIP3   OH231291   6.392   6.310   4.838
10449TIP3    H131292   6.447   6.240   4.875
10449TIP3    H231293   6.348   6.268   4.764
10450TIP3   OH231294   7.559   3.078   3.921
10450TIP3    H131295   7.590   3.040   3.839
10450TIP3    H231296   7.579   3.011   3.987
10451TIP3   OH231297   6.520   6.155   5.833
10451TIP3    H131298   6.478   6.121   5.912
10451TIP3    H231299   6.456   6.214   5.794
10452TIP3   OH231300   6.745   1.011   4.767
10452TIP3    H131301   6.742   0.967   4.852
10452TIP3    H231302   6.825   1.063   4.770
10453TIP3   OH231303   4.009   1.487   6.077
10453TIP3    H131304   4.089   1.439   6.098
10453TIP3    H231305   4.007   1.489   5.982
10454TIP3   OH231306   1.041   1.125   5.027
10454TIP3    H131307   1.042   1.090   5.116
10454TIP3    H231308   1.113   1.081   4.983
10455TIP3   OH231309   1.908   4.317   4.259
10455TIP3    H131310   1.977   4.375   4.226
10455TIP3    H231311   1.925   4.233   4.216
10456TIP3   OH231312   4.069   7.547   4.231
10456TIP3    H131313   4.114   7.479   4.181
10456TIP3    H231314   3.978   7.542   4.201
10457TIP3   OH231315   4.640   7.493   0.498
10457TIP3    H131316   4.704   7.459   0.560
10457TIP3    H231317   4.585   7.552   0.549
10458TIP3   OH231318   2.584   6.109   2.557
10458TIP3    H131319   2.587   6.204   2.551
10458TIP3    H231320   2.507   6.084   2.506
10459TIP3   OH231321   3.864   2.828   2.284
10459TIP3    H131322   3.769   2.836   2.277
10459TIP3    H231323   3.878   2.778   2.365
10460TIP3   OH231324   4.746   6.915   3.689
10460TIP3    H131325   4.837   6.886   3.687
10460TIP3    H231326   4.697   6.840   3.655
10461TIP3   OH231327   6.050   7.369   2.546
10461TIP3    H131328   6.000   7.288   2.532
10461TIP3    H231329   5.987   7.439   2.529
10462TIP3   OH231330   6.296   2.422   0.699
10462TIP3    H131331   6.285   2.485   0.771
10462TIP3    H231332   6.262   2.340   0.734
10463TIP3   OH231333   4.474   5.438   3.593
10463TIP3    H131334   4.549   5.395   3.553
10463TIP3    H231335   4.398   5.401   3.548
10464TIP3   OH231336   0.971   7.514   1.979
10464TIP3    H131337   0.950   7.422   1.995
10464TIP3    H231338   0.912   7.562   2.036
10465TIP3   OH231339   1.232   3.813   5.492
10465TIP3    H131340   1.267   3.769   5.569
10465TIP3    H231341   1.139   3.823   5.510
10466TIP3   OH231342   7.358   3.054   2.908
10466TIP3    H131343   7.336   3.078   2.999
10466TIP3    H231344   7.431   2.993   2.917
10467TIP3   OH231345   4.577   0.765   2.353
10467TIP3    H131346   4.602   0.840   2.407
10467TIP3    H231347   4.484   0.779   2.335
10468TIP3   OH231348   1.128   1.384   4.098
10468TIP3    H131349   1.173   1.326   4.037
10468TIP3    H231350   1.177   1.376   4.180
10469TIP3   OH231351   7.002   5.291   3.812
10469TIP3    H131352   6.978   5.352   3.742
10469TIP3    H231353   7.098   5.287   3.808
10470TIP3   OH231354   1.594   1.113   0.600
10470TIP3    H131355   1.610   1.038   0.656
10470TIP3    H231356   1.647   1.097   0.522
10471TIP3   OH231357   5.303   1.035   4.989
10471TIP3    H131358   5.373   1.039   4.924
10471TIP3    H231359   5.223   1.042   4.938
10472TIP3   OH231360   2.453   1.794   0.548
10472TIP3    H131361   2.545   1.768   0.547
10472TIP3    H231362   2.428   1.795   0.456
10473TIP3   OH231363   5.428   2.357   0.638
10473TIP3    H131364   5.412   2.451   0.654
10473TIP3    H231365   5.481   2.355   0.559
10474TIP3   OH231366   5.232   5.793   4.152
10474TIP3    H131367   5.280   5.803   4.234
10474TIP3    H231368   5.181   5.873   4.144
10475TIP3   OH231369   5.721   1.959   1.324
10475TIP3    H131370   5.673   2.030   1.281
10475TIP3    H231371   5.712   1.885   1.265
10476TIP3   OH231372   3.049   3.080   0.384
10476TIP3    H131373   3.014   3.164   0.415
10476TIP3    H231374   3.073   3.097   0.293
10477TIP3   OH231375   6.633   1.129   5.359
10477TIP3    H131376   6.712   1.108   5.309
10477TIP3    H231377   6.662   1.127   5.451
10478TIP3   OH231378   1.423   3.967   2.157
10478TIP3    H131379   1.378   3.985   2.239
10478TIP3    H231380   1.420   4.049   2.108
10479TIP3   OH231381   2.205   5.982   6.240
10479TIP3    H131382   2.164   5.953   6.321
10479TIP3    H231383   2.201   5.906   6.182
10480TIP3   OH231384   0.025   4.682   5.135
10480TIP3    H131385  -0.012   4.600   5.168
10480TIP3    H231386  -0.041   4.714   5.073
10481TIP3   OH231387   0.191   7.001   3.019
10481TIP3    H131388   0.249   7.063   2.974
10481TIP3    H231389   0.193   6.922   2.965
10482TIP3   OH231390   6.859   7.554   1.453
10482TIP3    H131391   6.848   7.524   1.363
10482TIP3    H231392   6.946   7.593   1.455
10483TIP3   OH231393   3.893   5.546   0.908
10483TIP3    H131394   3.926   5.468   0.951
10483TIP3    H231395   3.884   5.610   0.979
10484TIP3   OH231396   8.170   7.447   4.073
10484TIP3    H131397   8.254   7.424   4.113
10484TIP3    H231398   8.141   7.524   4.122
10485TIP3   OH231399   1.291   6.787   1.013
10485TIP3    H131400   1.321   6.704   1.049
10485TIP3    H231401   1.196   6.779   1.008
10486TIP3   OH231402   6.911   1.232   2.718
10486TIP3    H131403   6.859   1.168   2.766
10486TIP3    H231404   7.001   1.211   2.741
10487TIP3   OH231405   0.175   1.345   3.578
10487TIP3    H131406   0.134   1.262   3.602
10487TIP3    H231407   0.106   1.410   3.588
10488TIP3   OH231408   1.883   3.872   5.426
10488TIP3    H131409   1.880   3.785   5.385
10488TIP3    H231410   1.807   3.873   5.485
10489TIP3   OH231411   7.499   6.313   2.180
10489TIP3    H131412   7.427   6.326   2.119
10489TIP3    H231413   7.476   6.367   2.256
10490TIP3   OH231414   6.722   5.124   3.186
10490TIP3    H131415   6.666   5.050   3.163
10490TIP3    H231416   6.663   5.199   3.187
10491TIP3   OH231417   1.762   6.448   0.020
10491TIP3    H131418   1.796   6.375   0.072
10491TIP3    H231419   1.666   6.438   0.025
10492TIP3   OH231420   6.718   5.379   0.245
10492TIP3    H131421   6.796   5.390   0.299
10492TIP3    H231422   6.751   5.343   0.163
10493TIP3   OH231423   3.660   2.737   1.717
10493TIP3    H131424   3.626   2.774   1.798
10493TIP3    H231425   3.736   2.685   1.744
10494TIP3   OH231426   4.164   7.232   1.296
10494TIP3    H131427   4.095   7.298   1.284
10494TIP3    H231428   4.138   7.160   1.237
10495TIP3   OH231429   7.026   7.315   2.067
10495TIP3    H131430   7.090   7.300   2.136
10495TIP3    H231431   6.975   7.234   2.063
10496TIP3   OH231432   7.016   0.330   2.419
10496TIP3    H131433   7.051   0.405   2.466
10496TIP3    H231434   7.071   0.324   2.340
10497TIP3   OH231435   4.530   2.445   0.328
10497TIP3    H131436   4.513   2.359   0.367
10497TIP3    H231437   4.590   2.427   0.256
10498TIP3   OH231438   3.795   0.387   6.203
10498TIP3    H131439   3.868   0.421   6.151
10498TIP3    H231440   3.716   0.412   6.154
10499TIP3   OH231441   7.794   1.811   6.474
10499TIP3    H131442   7.825   1.756   6.545
10499TIP3    H231443   7.740   1.877   6.517
10500TIP3   OH231444   4.935   3.633   5.289
10500TIP3    H131445   4.917   3.547   5.253
10500TIP3    H231446   5.025   3.652   5.264
10501TIP3   OH231447   0.852   3.650   2.263
10501TIP3    H131448   0.878   3.564   2.295
10501TIP3    H231449   0.931   3.703   2.269
10502TIP3   OH231450   0.776   6.516   0.124
10502TIP3    H131451   0.772   6.529   0.030
10502TIP3    H231452   0.833   6.586   0.156
10503TIP3   OH231453   7.415   0.284   1.695
10503TIP3    H131454   7.385   0.195   1.714
10503TIP3    H231455   7.336   0.338   1.702
10504TIP3   OH231456   0.218   6.635   5.384
10504TIP3    H131457   0.188   6.677   5.303
10504TIP3    H231458   0.303   6.597   5.362
10505TIP3   OH231459   2.820   1.389   5.850
10505TIP3    H131460   2.764   1.311   5.856
10505TIP3    H231461   2.908   1.357   5.865
10506TIP3   OH231462   6.082   2.506   1.969
10506TIP3    H131463   6.154   2.568   1.954
10506TIP3    H231464   6.003   2.561   1.971
10507TIP3   OH231465   5.685   2.761   5.533
10507TIP3    H131466   5.636   2.769   5.451
10507TIP3    H231467   5.773   2.793   5.511
10508TIP3   OH231468   5.727   3.655   0.658
10508TIP3    H131469   5.809   3.685   0.696
10508TIP3    H231470   5.677   3.735   0.642
10509TIP3   OH231471   1.227   6.372   1.688
10509TIP3    H131472   1.318   6.365   1.661
10509TIP3    H231473   1.180   6.402   1.610
10510TIP3   OH231474   5.344   2.698   1.546
10510TIP3    H131475   5.335   2.642   1.623
10510TIP3    H231476   5.259   2.694   1.503
10511TIP3   OH231477   7.820   0.485   2.016
10511TIP3    H131478   7.870   0.488   2.098
10511TIP3    H231479   7.831   0.572   1.978
10512TIP3   OH231480   0.410   7.712   1.023
10512TIP3    H131481   0.476   7.743   1.085
10512TIP3    H231482   0.460   7.681   0.947
10513TIP3   OH231483   0.815   3.258   2.089
10513TIP3    H131484   0.784   3.330   2.034
10513TIP3    H231485   0.909   3.255   2.074
10514TIP3   OH231486   4.082   2.424   3.124
10514TIP3    H131487   4.116   2.383   3.203
10514TIP3    H231488   4.031   2.356   3.081
10515TIP3   OH231489   0.258   1.258   2.232
10515TIP3    H131490   0.272   1.240   2.325
10515TIP3    H231491   0.312   1.336   2.215
10516TIP3   OH231492   5.187   7.307   1.295
10516TIP3    H131493   5.136   7.331   1.372
10516TIP3    H231494   5.144   7.352   1.223
10517TIP3   OH231495   0.080   1.293   1.062
10517TIP3    H131496   0.116   1.375   1.096
10517TIP3    H231497   0.064   1.240   1.139
10518TIP3   OH231498   2.338   6.721   6.447
10518TIP3    H131499   2.338   6.780   6.371
10518TIP3    H231500   2.249   6.726   6.482
10519TIP3   OH231501   1.564   4.037   5.333
10519TIP3    H131502   1.634   4.029   5.268
10519TIP3    H231503   1.491   3.988   5.296
10520TIP3   OH231504   0.990   5.232   0.398
10520TIP3    H131505   0.982   5.231   0.303
10520TIP3    H231506   0.906   5.198   0.430
10521TIP3   OH231507   2.306   6.345   5.166
10521TIP3    H131508   2.286   6.307   5.080
10521TIP3    H231509   2.280   6.278   5.228
10522TIP3   OH231510   6.104   6.529   3.431
10522TIP3    H131511   6.050   6.534   3.353
10522TIP3    H231512   6.044   6.499   3.500
10523TIP3   OH231513   3.843   6.213   5.683
10523TIP3    H131514   3.852   6.133   5.734
10523TIP3    H231515   3.881   6.192   5.598
10524TIP3   OH231516   4.334   7.613   4.292
10524TIP3    H131517   4.244   7.583   4.285
10524TIP3    H231518   4.371   7.561   4.363
10525TIP3   OH231519   0.766   0.403   2.277
10525TIP3    H131520   0.835   0.342   2.304
10525TIP3    H231521   0.685   0.354   2.290
10526TIP3   OH231522   5.119   5.368   3.083
10526TIP3    H131523   5.032   5.328   3.083
10526TIP3    H231524   5.154   5.353   2.995
10527TIP3   OH231525   7.504   0.318   3.003
10527TIP3    H131526   7.459   0.242   2.967
10527TIP3    H231527   7.463   0.333   3.088
10528TIP3   OH231528   3.883   1.096   3.541
10528TIP3    H131529   3.805   1.056   3.578
10528TIP3    H231530   3.938   1.116   3.616
10529TIP3   OH231531   6.147   7.000   0.151
10529TIP3    H131532   6.146   6.909   0.125
10529TIP3    H231533   6.075   7.040   0.102
10530TIP3   OH231534   4.052   5.045   0.181
10530TIP3    H131535   4.048   4.991   0.102
10530TIP3    H231536   3.973   5.099   0.178
10531TIP3   OH231537   4.391   1.950   6.135
10531TIP3    H131538   4.336   1.915   6.065
10531TIP3    H231539   4.364   1.900   6.213
10532TIP3   OH231540   7.045   7.047   4.635
10532TIP3    H131541   7.092   7.072   4.715
10532TIP3    H231542   7.082   6.963   4.610
10533TIP3   OH231543   5.477   0.944   5.200
10533TIP3    H131544   5.481   0.849   5.212
10533TIP3    H231545   5.548   0.964   5.139
10534TIP3   OH231546   4.944   7.746   3.952
10534TIP3    H131547   4.863   7.743   4.003
10534TIP3    H231548   4.934   7.677   3.887
10535TIP3   OH231549   2.795   6.678   5.082
10535TIP3    H131550   2.710   6.649   5.050
10535TIP3    H231551   2.829   6.604   5.132
10536TIP3   OH231552   8.094   5.477   4.226
10536TIP3    H131553   8.157   5.406   4.241
10536TIP3    H231554   8.071   5.469   4.133
10537TIP3   OH231555   3.670   4.106   6.279
10537TIP3    H131556   3.763   4.110   6.302
10537TIP3    H231557   3.665   4.144   6.192
10538TIP3   OH231558   4.507   4.269   1.166
10538TIP3    H131559   4.526   4.299   1.255
10538TIP3    H231560   4.548   4.334   1.110
10539TIP3   OH231561   7.711   5.786   5.596
10539TIP3    H131562   7.724   5.802   5.502
10539TIP3    H231563   7.753   5.702   5.612
10540TIP3   OH231564   4.944   3.582   0.318
10540TIP3    H131565   4.883   3.532   0.372
10540TIP3    H231566   4.898   3.595   0.235
10541TIP3   OH231567   1.471   1.452   2.258
10541TIP3    H131568   1.524   1.381   2.293
10541TIP3    H231569   1.526   1.530   2.268
10542TIP3   OH231570   7.785   4.208   1.337
10542TIP3    H131571   7.804   4.116   1.321
10542TIP3    H231572   7.720   4.232   1.271
10543TIP3   OH231573   3.195   1.123   6.634
10543TIP3    H131574   3.200   1.043   6.686
10543TIP3    H231575   3.105   1.153   6.644
10544TIP3   OH231576   2.658   3.654   1.971
10544TIP3    H131577   2.636   3.742   1.940
10544TIP3    H231578   2.735   3.629   1.920
10545TIP3   OH231579   4.721   3.480   3.626
10545TIP3    H131580   4.802   3.526   3.602
10545TIP3    H231581   4.732   3.460   3.719
10546TIP3   OH231582   1.111   6.614   5.791
10546TIP3    H131583   1.132   6.585   5.880
10546TIP3    H231584   1.043   6.554   5.762
10547TIP3   OH231585   6.630   0.296   1.790
10547TIP3    H131586   6.552   0.342   1.760
10547TIP3    H231587   6.659   0.246   1.715
10548TIP3   OH231588   6.261   4.377   4.917
10548TIP3    H131589   6.216   4.457   4.887
10548TIP3    H231590   6.252   4.316   4.843
10549TIP3   OH231591   6.969   4.804   3.023
10549TIP3    H131592   7.040   4.742   3.007
10549TIP3    H231593   6.990   4.844   3.107
10550TIP3   OH231594   6.219   0.680   3.717
10550TIP3    H131595   6.243   0.631   3.638
10550TIP3    H231596   6.229   0.616   3.788
10551TIP3   OH231597   4.563   1.390   1.494
10551TIP3    H131598   4.641   1.421   1.449
10551TIP3    H231599   4.494   1.451   1.468
10552TIP3   OH231600   5.490   1.765   5.647
10552TIP3    H131601   5.531   1.684   5.678
10552TIP3    H231602   5.489   1.821   5.725
10553TIP3   OH231603   1.612   7.594   5.707
10553TIP3    H131604   1.530   7.617   5.752
10553TIP3    H231605   1.587   7.528   5.643
10554TIP3   OH231606   4.813   5.425   3.318
10554TIP3    H131607   4.751   5.407   3.247
10554TIP3    H231608   4.861   5.502   3.289
10555TIP3   OH231609   0.323   7.549   3.849
10555TIP3    H131610   0.390   7.496   3.805
10555TIP3    H231611   0.242   7.527   3.804
10556TIP3   OH231612   3.598   4.663   6.460
10556TIP3    H131613   3.502   4.668   6.459
10556TIP3    H231614   3.626   4.735   6.403
10557TIP3   OH231615   5.731   6.981   1.027
10557TIP3    H131616   5.672   7.039   0.978
10557TIP3    H231617   5.673   6.931   1.084
10558TIP3   OH231618   4.527   2.493   2.309
10558TIP3    H131619   4.577   2.572   2.292
10558TIP3    H231620   4.572   2.425   2.258
10559TIP3   OH231621   3.937   3.398   4.327
10559TIP3    H131622   3.865   3.340   4.301
10559TIP3    H231623   4.010   3.373   4.271
10560TIP3   OH231624   2.370   5.238   1.421
10560TIP3    H131625   2.453   5.217   1.379
10560TIP3    H231626   2.371   5.333   1.430
10561TIP3   OH231627   7.431   7.324   2.949
10561TIP3    H131628   7.476   7.378   3.015
10561TIP3    H231629   7.399   7.248   2.999
10562TIP3   OH231630   3.709   4.229   3.542
10562TIP3    H131631   3.725   4.254   3.451
10562TIP3    H231632   3.716   4.134   3.542
10563TIP3   OH231633   5.626   0.456   3.037
10563TIP3    H131634   5.635   0.546   3.066
10563TIP3    H231635   5.553   0.421   3.089
10564TIP3   OH231636   6.208   0.696   1.221
10564TIP3    H131637   6.238   0.643   1.147
10564TIP3    H231638   6.269   0.770   1.225
10565TIP3   OH231639   0.402   7.342   4.073
10565TIP3    H131640   0.398   7.424   4.024
10565TIP3    H231641   0.490   7.339   4.109
10566TIP3   OH231642   5.601   2.996   2.676
10566TIP3    H131643   5.555   2.977   2.594
10566TIP3    H231644   5.568   2.930   2.737
10567TIP3   OH231645   5.635   5.694   5.691
10567TIP3    H131646   5.595   5.607   5.696
10567TIP3    H231647   5.575   5.750   5.740
10568TIP3   OH231648   1.426   5.397   5.046
10568TIP3    H131649   1.466   5.311   5.037
10568TIP3    H231650   1.455   5.428   5.132
10569TIP3   OH231651   3.276   5.170   1.008
10569TIP3    H131652   3.314   5.257   0.993
10569TIP3    H231653   3.199   5.167   0.951
10570TIP3   OH231654   5.898   5.524   0.688
10570TIP3    H131655   5.884   5.444   0.636
10570TIP3    H231656   5.811   5.547   0.721
10571TIP3   OH231657   0.932   3.851   1.645
10571TIP3    H131658   1.022   3.875   1.666
10571TIP3    H231659   0.927   3.857   1.550
10572TIP3   OH231660   8.265   6.121   3.217
10572TIP3    H131661   8.234   6.036   3.246
10572TIP3    H231662   8.302   6.161   3.297
10573TIP3   OH231663   1.118   7.217   0.979
10573TIP3    H131664   1.076   7.235   1.063
10573TIP3    H231665   1.061   7.153   0.937
10574TIP3   OH231666   3.121   6.613   2.274
10574TIP3    H131667   3.214   6.621   2.296
10574TIP3    H231668   3.100   6.695   2.230
10575TIP3   OH231669   7.273   3.455   4.596
10575TIP3    H131670   7.365   3.478   4.612
10575TIP3    H231671   7.252   3.393   4.667
10576TIP3   OH231672   4.491   1.007   5.133
10576TIP3    H131673   4.585   1.021   5.148
10576TIP3    H231674   4.448   1.070   5.191
10577TIP3   OH231675   6.003   2.380   5.164
10577TIP3    H131676   5.973   2.302   5.117
10577TIP3    H231677   5.930   2.404   5.221
10578TIP3   OH231678   4.451   1.169   2.183
10578TIP3    H131679   4.534   1.217   2.187
10578TIP3    H231680   4.432   1.161   2.089
10579TIP3   OH231681   3.852   0.237   5.958
10579TIP3    H131682   3.803   0.242   6.040
10579TIP3    H231683   3.909   0.314   5.960
10580TIP3   OH231684   8.109   0.715   1.872
10580TIP3    H131685   8.131   0.632   1.916
10580TIP3    H231686   8.190   0.741   1.828
10581TIP3   OH231687   2.108   7.672   1.751
10581TIP3    H131688   2.169   7.732   1.793
10581TIP3    H231689   2.163   7.610   1.704
10582TIP3   OH231690   6.485   3.294   4.739
10582TIP3    H131691   6.454   3.247   4.816
10582TIP3    H231692   6.521   3.226   4.683
10583TIP3   OH231693   5.302   4.401   0.596
10583TIP3    H131694   5.310   4.371   0.505
10583TIP3    H231695   5.209   4.394   0.616
10584TIP3   OH231696   2.048   3.315   0.772
10584TIP3    H131697   1.982   3.247   0.789
10584TIP3    H231698   2.044   3.372   0.849
10585TIP3   OH231699   1.791   5.093   1.190
10585TIP3    H131700   1.878   5.117   1.157
10585TIP3    H231701   1.731   5.154   1.146
10586TIP3   OH231702   5.804   1.721   6.152
10586TIP3    H131703   5.724   1.672   6.132
10586TIP3    H231704   5.856   1.662   6.206
10587TIP3   OH231705   1.870   5.613   6.011
10587TIP3    H131706   1.841   5.547   6.074
10587TIP3    H231707   1.906   5.562   5.939
10588TIP3   OH231708   3.140   1.103   0.560
10588TIP3    H131709   3.222   1.079   0.518
10588TIP3    H231710   3.165   1.128   0.649
10589TIP3   OH231711   1.147   5.913   5.075
10589TIP3    H131712   1.150   5.867   4.992
10589TIP3    H231713   1.195   5.856   5.136
10590TIP3   OH231714   7.123   4.829   1.306
10590TIP3    H131715   7.123   4.802   1.214
10590TIP3    H231716   7.131   4.924   1.303
10591TIP3   OH231717   3.136   5.761   0.830
10591TIP3    H131718   3.171   5.689   0.777
10591TIP3    H231719   3.062   5.721   0.877
10592TIP3   OH231720   0.127   3.093   0.247
10592TIP3    H131721   0.046   3.045   0.232
10592TIP3    H231722   0.104   3.159   0.312
10593TIP3   OH231723   6.510   4.769   4.664
10593TIP3    H131724   6.456   4.844   4.688
10593TIP3    H231725   6.528   4.724   4.746
10594TIP3   OH231726   6.234   5.508   1.651
10594TIP3    H131727   6.232   5.590   1.602
10594TIP3    H231728   6.271   5.444   1.590
10595TIP3   OH231729   6.298   3.210   2.570
10595TIP3    H131730   6.296   3.143   2.638
10595TIP3    H231731   6.326   3.289   2.615
10596TIP3   OH231732   4.097   6.298   5.153
10596TIP3    H131733   4.158   6.334   5.089
10596TIP3    H231734   4.115   6.204   5.154
10597TIP3   OH231735   7.484   6.959   1.665
10597TIP3    H131736   7.556   6.926   1.720
10597TIP3    H231737   7.410   6.903   1.687
10598TIP3   OH231738   3.442   6.958   2.398
10598TIP3    H131739   3.420   7.014   2.472
10598TIP3    H231740   3.447   7.017   2.323
10599TIP3   OH231741   3.438   5.829   6.563
10599TIP3    H131742   3.376   5.808   6.493
10599TIP3    H231743   3.424   5.761   6.628
10600TIP3   OH231744   3.845   1.613   4.138
10600TIP3    H131745   3.888   1.558   4.203
10600TIP3    H231746   3.871   1.702   4.161
10601TIP3   OH231747   1.732   4.148   0.711
10601TIP3    H131748   1.767   4.170   0.797
10601TIP3    H231749   1.706   4.056   0.718
10602TIP3   OH231750   0.702   5.075   2.899
10602TIP3    H131751   0.756   5.152   2.885
10602TIP3    H231752   0.761   5.001   2.885
10603TIP3   OH231753   6.199   5.844   6.336
10603TIP3    H131754   6.142   5.885   6.272
10603TIP3    H231755   6.182   5.750   6.327
10604TIP3   OH231756   1.240   0.976   4.938
10604TIP3    H131757   1.257   0.885   4.915
10604TIP3    H231758   1.270   1.026   4.862
10605TIP3   OH231759   7.148   1.157   1.727
10605TIP3    H131760   7.059   1.143   1.760
10605TIP3    H231761   7.204   1.143   1.802
10606TIP3   OH231762   0.646   6.113   3.551
10606TIP3    H131763   0.568   6.168   3.555
10606TIP3    H231764   0.698   6.138   3.627
10607TIP3   OH231765   4.248   4.184   3.022
10607TIP3    H131766   4.297   4.258   3.058
10607TIP3    H231767   4.309   4.110   3.029
10608TIP3   OH231768   7.809   6.549   3.779
10608TIP3    H131769   7.829   6.633   3.738
10608TIP3    H231770   7.892   6.520   3.817
10609TIP3   OH231771   5.240   1.588   3.495
10609TIP3    H131772   5.291   1.524   3.444
10609TIP3    H231773   5.306   1.641   3.540
10610TIP3   OH231774   5.126   0.690   0.280
10610TIP3    H131775   5.192   0.734   0.226
10610TIP3    H231776   5.075   0.760   0.319
10611TIP3   OH231777   4.260   4.217   0.682
10611TIP3    H131778   4.269   4.181   0.594
10611TIP3    H231779   4.218   4.302   0.668
10612TIP3   OH231780   2.097   7.663   6.259
10612TIP3    H131781   2.018   7.710   6.231
10612TIP3    H231782   2.067   7.606   6.329
10613TIP3   OH231783   4.652   4.590   6.545
10613TIP3    H131784   4.676   4.516   6.489
10613TIP3    H231785   4.605   4.651   6.487
10614TIP3   OH231786   5.902   6.722   1.575
10614TIP3    H131787   5.825   6.773   1.548
10614TIP3    H231788   5.955   6.783   1.626
10615TIP3   OH231789   3.583   2.238   6.402
10615TIP3    H131790   3.588   2.146   6.373
10615TIP3    H231791   3.555   2.233   6.493
10616TIP3   OH231792   7.240   1.182   0.497
10616TIP3    H131793   7.181   1.240   0.546
10616TIP3    H231794   7.321   1.232   0.489
10617TIP3   OH231795   7.706   5.635   4.812
10617TIP3    H131796   7.778   5.585   4.849
10617TIP3    H231797   7.747   5.712   4.773
10618TIP3   OH231798   0.850   4.089   1.757
10618TIP3    H131799   0.870   4.112   1.847
10618TIP3    H231800   0.868   3.995   1.750
10619TIP3   OH231801   5.001   6.287   0.182
10619TIP3    H131802   4.968   6.288   0.092
10619TIP3    H231803   5.088   6.326   0.176
10620TIP3   OH231804   6.673   5.808   1.048
10620TIP3    H131805   6.598   5.763   1.009
10620TIP3    H231806   6.660   5.900   1.026
10621TIP3   OH231807   4.268   4.598   0.714
10621TIP3    H131808   4.266   4.662   0.785
10621TIP3    H231809   4.193   4.541   0.730
10622TIP3   OH231810   3.440   7.244   4.583
10622TIP3    H131811   3.523   7.197   4.576
10622TIP3    H231812   3.373   7.176   4.575
10623TIP3   OH231813   2.787   3.678   3.498
10623TIP3    H131814   2.724   3.631   3.444
10623TIP3    H231815   2.756   3.665   3.588
10624TIP3   OH231816   5.308   2.571   6.179
10624TIP3    H131817   5.298   2.666   6.185
10624TIP3    H231818   5.251   2.536   6.247
10625TIP3   OH231819   0.784   2.238   3.482
10625TIP3    H131820   0.821   2.252   3.569
10625TIP3    H231821   0.695   2.271   3.487
10626TIP3   OH231822   5.198   3.064   2.579
10626TIP3    H131823   5.129   3.076   2.514
10626TIP3    H231824   5.178   2.981   2.621
10627TIP3   OH231825   5.057   5.031   1.673
10627TIP3    H131826   5.093   4.944   1.654
10627TIP3    H231827   4.974   5.034   1.625
10628TIP3   OH231828   6.990   6.346   5.023
10628TIP3    H131829   6.965   6.359   5.115
10628TIP3    H231830   6.910   6.361   4.974
10629TIP3   OH231831   5.872   5.613   4.261
10629TIP3    H131832   5.865   5.647   4.171
10629TIP3    H231833   5.837   5.524   4.255
10630TIP3   OH231834   0.357   0.856   4.863
10630TIP3    H131835   0.379   0.942   4.899
10630TIP3    H231836   0.380   0.862   4.770
10631TIP3   OH231837   1.846   7.202   1.119
10631TIP3    H131838   1.752   7.184   1.129
10631TIP3    H231839   1.876   7.224   1.208
10632TIP3   OH231840   0.957   3.793   3.785
10632TIP3    H131841   0.957   3.868   3.725
10632TIP3    H231842   0.950   3.832   3.872
10633TIP3   OH231843   2.238   5.338   4.843
10633TIP3    H131844   2.155   5.354   4.886
10633TIP3    H231845   2.278   5.424   4.833
10634TIP3   OH231846   1.037   7.121   4.997
10634TIP3    H131847   1.082   7.065   4.933
10634TIP3    H231848   1.083   7.205   4.993
10635TIP3   OH231849   6.635   3.622   6.070
10635TIP3    H131850   6.543   3.646   6.059
10635TIP3    H231851   6.677   3.647   5.988
10636TIP3   OH231852   4.825   2.064   0.070
10636TIP3    H131853   4.849   2.148   0.029
10636TIP3    H231854   4.753   2.086   0.129
10637TIP3   OH231855   4.789   0.802   2.847
10637TIP3    H131856   4.857   0.851   2.894
10637TIP3    H231857   4.710   0.813   2.900
10638TIP3   OH231858   6.213   7.697   3.853
10638TIP3    H131859   6.250   7.785   3.839
10638TIP3    H231860   6.160   7.706   3.932
10639TIP3   OH231861   0.091   5.235   2.065
10639TIP3    H131862   0.173   5.207   2.104
10639TIP3    H231863   0.054   5.296   2.130
10640TIP3   OH231864   5.388   0.095   2.472
10640TIP3    H131865   5.343   0.178   2.490
10640TIP3    H231866   5.386   0.087   2.376
10641TIP3   OH231867   7.099   3.291   0.922
10641TIP3    H131868   7.011   3.312   0.891
10641TIP3    H231869   7.142   3.253   0.845
10642TIP3   OH231870   6.439   2.442   0.297
10642TIP3    H131871   6.440   2.517   0.237
10642TIP3    H231872   6.417   2.481   0.382
10643TIP3   OH231873   5.452   2.728   0.462
10643TIP3    H131874   5.399   2.674   0.403
10643TIP3    H231875   5.442   2.686   0.547
10644TIP3   OH231876   6.027   0.213   0.645
10644TIP3    H131877   5.988   0.300   0.634
10644TIP3    H231878   5.973   0.155   0.591
10645TIP3   OH231879   7.606   2.344   5.924
10645TIP3    H131880   7.541   2.324   5.856
10645TIP3    H231881   7.690   2.341   5.879
10646TIP3   OH231882   4.148   6.133   3.596
10646TIP3    H131883   4.165   6.146   3.502
10646TIP3    H231884   4.111   6.045   3.601
10647TIP3   OH231885   3.538   4.173   4.766
10647TIP3    H131886   3.548   4.098   4.825
10647TIP3    H231887   3.581   4.245   4.811
10648TIP3   OH231888   6.141   1.538   3.374
10648TIP3    H131889   6.160   1.453   3.335
10648TIP3    H231890   6.128   1.520   3.467
10649TIP3   OH231891   3.953   2.951   5.949
10649TIP3    H131892   3.899   2.961   5.871
10649TIP3    H231893   3.907   3.002   6.016
10650TIP3   OH231894   8.036   2.989   5.321
10650TIP3    H131895   8.026   3.023   5.410
10650TIP3    H231896   8.111   2.929   5.328
10651TIP3   OH231897   0.860   3.731   2.898
10651TIP3    H131898   0.783   3.732   2.841
10651TIP3    H231899   0.849   3.808   2.954
10652TIP3   OH231900   2.404   5.786   5.326
10652TIP3    H131901   2.487   5.803   5.282
10652TIP3    H231902   2.380   5.698   5.297
10653TIP3   OH231903   5.630   1.466   0.645
10653TIP3    H131904   5.646   1.424   0.560
10653TIP3    H231905   5.716   1.468   0.687
10654TIP3   OH231906   7.941   1.247   0.241
10654TIP3    H131907   8.027   1.271   0.278
10654TIP3    H231908   7.920   1.163   0.282
10655TIP3   OH231909   0.813   0.796   0.463
10655TIP3    H131910   0.826   0.737   0.389
10655TIP3    H231911   0.847   0.748   0.539
10656TIP3   OH231912   5.547   7.774   1.064
10656TIP3    H131913   5.614   7.793   1.130
10656TIP3    H231914   5.595   7.734   0.992
10657TIP3   OH231915   3.822   6.692   0.474
10657TIP3    H131916   3.759   6.621   0.457
10657TIP3    H231917   3.884   6.655   0.537
10658TIP3   OH231918   1.306   3.822   6.211
10658TIP3    H131919   1.279   3.779   6.292
10658TIP3    H231920   1.303   3.754   6.145
10659TIP3   OH231921   3.145   7.124   5.861
10659TIP3    H131922   3.085   7.057   5.894
10659TIP3    H231923   3.094   7.205   5.863
10660TIP3   OH231924   6.030   7.518   0.309
10660TIP3    H131925   5.963   7.472   0.258
10660TIP3    H231926   5.983   7.552   0.385
10661TIP3   OH231927   3.318   2.707   4.670
10661TIP3    H131928   3.374   2.750   4.605
10661TIP3    H231929   3.310   2.617   4.638
10662TIP3   OH231930   4.897   2.860   1.259
10662TIP3    H131931   4.853   2.863   1.174
10662TIP3    H231932   4.911   2.767   1.276
10663TIP3   OH231933   1.777   0.654   1.649
10663TIP3    H131934   1.705   0.594   1.628
10663TIP3    H231935   1.852   0.596   1.663
10664TIP3   OH231936   2.234   4.189   5.288
10664TIP3    H131937   2.199   4.123   5.348
10664TIP3    H231938   2.263   4.139   5.212
10665TIP3   OH231939   3.768   3.807   2.190
10665TIP3    H131940   3.689   3.857   2.173
10665TIP3    H231941   3.751   3.762   2.273
10666TIP3   OH231942   7.771   0.074   1.036
10666TIP3    H131943   7.698   0.089   1.096
10666TIP3    H231944   7.740   0.108   0.952
10667TIP3   OH231945   4.138   3.851   3.979
10667TIP3    H131946   4.048   3.850   3.945
10667TIP3    H231947   4.193   3.829   3.904
10668TIP3   OH231948   4.120   4.750   3.626
10668TIP3    H131949   4.043   4.790   3.585
10668TIP3    H231950   4.084   4.685   3.686
10669TIP3   OH231951   6.866   7.161   5.437
10669TIP3    H131952   6.811   7.087   5.463
10669TIP3    H231953   6.895   7.139   5.348
10670TIP3   OH231954   2.633   6.705   5.824
10670TIP3    H131955   2.596   6.718   5.911
10670TIP3    H231956   2.703   6.641   5.836
10671TIP3   OH231957   7.476   7.484   1.514
10671TIP3    H131958   7.445   7.394   1.530
10671TIP3    H231959   7.544   7.474   1.448
10672TIP3   OH231960   3.271   6.850   1.449
10672TIP3    H131961   3.353   6.809   1.476
10672TIP3    H231962   3.281   6.864   1.355
10673TIP3   OH231963   0.154   5.821   2.647
10673TIP3    H131964   0.193   5.908   2.644
10673TIP3    H231965   0.196   5.779   2.722
10674TIP3   OH231966   5.755   0.451   4.441
10674TIP3    H131967   5.684   0.487   4.495
10674TIP3    H231968   5.713   0.432   4.356
10675TIP3   OH231969   1.493   7.148   3.828
10675TIP3    H131970   1.578   7.189   3.812
10675TIP3    H231971   1.440   7.217   3.867
10676TIP3   OH231972   4.222   7.485   2.320
10676TIP3    H131973   4.197   7.577   2.328
10676TIP3    H231974   4.244   7.459   2.410
10677TIP3   OH231975   1.029   0.367   0.812
10677TIP3    H131976   1.054   0.313   0.737
10677TIP3    H231977   1.024   0.306   0.885
10678TIP3   OH231978   6.514   7.623   3.526
10678TIP3    H131979   6.594   7.587   3.565
10678TIP3    H231980   6.502   7.708   3.569
10679TIP3   OH231981   6.286   3.433   3.991
10679TIP3    H131982   6.340   3.450   3.914
10679TIP3    H231983   6.279   3.518   4.035
10680TIP3   OH231984   6.350   3.925   3.061
10680TIP3    H131985   6.274   3.955   3.111
10680TIP3    H231986   6.337   3.963   2.974
10681TIP3   OH231987   3.238   5.869   1.158
10681TIP3    H131988   3.146   5.858   1.183
10681TIP3    H231989   3.275   5.920   1.229
10682TIP3   OH231990   1.707   6.555   6.691
10682TIP3    H131991   1.668   6.611   6.624
10682TIP3    H231992   1.732   6.475   6.645
10683TIP3   OH231993   3.641   5.850   1.888
10683TIP3    H131994   3.598   5.764   1.882
10683TIP3    H231995   3.584   5.901   1.946
10684TIP3   OH231996   3.848   1.262   5.263
10684TIP3    H131997   3.842   1.221   5.177
10684TIP3    H231998   3.848   1.356   5.245
10685TIP3   OH231999   2.063   3.008   4.867
10685TIP3    H132000   2.002   3.063   4.915
10685TIP3    H232001   2.009   2.936   4.833
10686TIP3   OH232002   7.664   2.383   2.329
10686TIP3    H132003   7.595   2.348   2.273
10686TIP3    H232004   7.647   2.346   2.416
10687TIP3   OH232005   7.314   4.899   0.558
10687TIP3    H132006   7.293   4.829   0.496
10687TIP3    H232007   7.292   4.980   0.512
10688TIP3   OH232008   0.730   5.820   0.134
10688TIP3    H132009   0.794   5.802   0.203
10688TIP3    H232010   0.777   5.801   0.052
10689TIP3   OH232011   8.212   0.266   1.801
10689TIP3    H132012   8.125   0.230   1.813
10689TIP3    H232013   8.271   0.201   1.840
10690TIP3   OH232014   4.066   0.427   5.647
10690TIP3    H132015   3.985   0.462   5.609
10690TIP3    H232016   4.068   0.336   5.617
10691TIP3   OH232017   5.767   7.137   6.605
10691TIP3    H132018   5.861   7.155   6.609
10691TIP3    H232019   5.753   7.070   6.673
10692TIP3   OH232020   4.871   6.983   4.258
10692TIP3    H132021   4.915   6.904   4.225
10692TIP3    H232022   4.797   6.996   4.198
10693TIP3   OH232023   3.030   0.222   0.692
10693TIP3    H132024   3.075   0.233   0.775
10693TIP3    H232025   2.955   0.166   0.712
10694TIP3   OH232026   7.397   0.562   6.277
10694TIP3    H132027   7.329   0.495   6.264
10694TIP3    H232028   7.475   0.512   6.299
10695TIP3   OH232029   1.206   7.343   5.029
10695TIP3    H132030   1.177   7.421   4.981
10695TIP3    H232031   1.302   7.350   5.030
10696TIP3   OH232032   7.384   6.817   6.003
10696TIP3    H132033   7.462   6.855   6.043
10696TIP3    H232034   7.311   6.866   6.040
10697TIP3   OH232035   0.087   7.714   3.149
10697TIP3    H132036   0.160   7.675   3.197
10697TIP3    H232037   0.066   7.793   3.199
10698TIP3   OH232038   8.215   6.364   3.120
10698TIP3    H132039   8.179   6.403   3.199
10698TIP3    H232040   8.251   6.280   3.149
10699TIP3   OH232041   6.028   7.298   4.700
10699TIP3    H132042   6.098   7.233   4.696
10699TIP3    H232043   5.947   7.247   4.697
10700TIP3   OH232044   2.480   6.382   0.664
10700TIP3    H132045   2.558   6.347   0.620
10700TIP3    H232046   2.431   6.305   0.692
10701TIP3   OH232047   2.459   0.944   5.828
10701TIP3    H132048   2.386   0.956   5.889
10701TIP3    H232049   2.534   0.924   5.884
10702TIP3   OH232050   7.858   2.659   5.167
10702TIP3    H132051   7.799   2.586   5.150
10702TIP3    H232052   7.909   2.632   5.243
10703TIP3   OH232053   4.427   5.326   4.944
10703TIP3    H132054   4.501   5.364   4.992
10703TIP3    H232055   4.383   5.271   5.008
10704TIP3   OH232056   6.289   2.717   1.983
10704TIP3    H132057   6.225   2.751   1.920
10704TIP3    H232058   6.373   2.727   1.939
10705TIP3   OH232059   1.601   2.987   3.568
10705TIP3    H132060   1.581   3.080   3.554
10705TIP3    H232061   1.529   2.940   3.526
10706TIP3   OH232062   5.673   2.298   2.731
10706TIP3    H132063   5.701   2.335   2.647
10706TIP3    H232064   5.754   2.292   2.782
10707TIP3   OH232065   4.059   4.009   2.880
10707TIP3    H132066   4.116   3.940   2.846
10707TIP3    H232067   4.115   4.061   2.937
10708TIP3   OH232068   1.476   0.684   4.166
10708TIP3    H132069   1.505   0.748   4.231
10708TIP3    H232070   1.382   0.701   4.155
10709TIP3   OH232071   8.270   7.250   3.559
10709TIP3    H132072   8.273   7.274   3.652
10709TIP3    H232073   8.301   7.159   3.557
10710TIP3   OH232074   7.237   5.388   2.357
10710TIP3    H132075   7.303   5.394   2.288
10710TIP3    H232076   7.287   5.383   2.438
10711TIP3   OH232077   3.340   2.564   0.245
10711TIP3    H132078   3.407   2.574   0.312
10711TIP3    H232079   3.309   2.474   0.254
10712TIP3   OH232080   7.565   1.372   2.761
10712TIP3    H132081   7.559   1.439   2.830
10712TIP3    H232082   7.569   1.289   2.809
10713TIP3   OH232083   4.477   3.953   0.640
10713TIP3    H132084   4.483   3.948   0.735
10713TIP3    H232085   4.505   4.043   0.619
10714TIP3   OH232086   5.524   2.067   6.169
10714TIP3    H132087   5.614   2.084   6.195
10714TIP3    H232088   5.494   2.150   6.131
10715TIP3   OH232089   0.448   5.204   2.165
10715TIP3    H132090   0.416   5.275   2.108
10715TIP3    H232091   0.523   5.242   2.209
10716TIP3   OH232092   5.234   7.450   5.116
10716TIP3    H132093   5.301   7.424   5.053
10716TIP3    H232094   5.212   7.368   5.162
10717TIP3   OH232095   5.950   4.498   5.271
10717TIP3    H132096   5.975   4.542   5.353
10717TIP3    H232097   6.027   4.447   5.247
10718TIP3   OH232098   4.059   2.569   0.936
10718TIP3    H132099   4.026   2.588   0.848
10718TIP3    H232100   4.013   2.631   0.993
10719TIP3   OH232101   5.806   3.490   3.376
10719TIP3    H132102   5.895   3.459   3.358
10719TIP3    H232103   5.809   3.584   3.355
10720TIP3   OH232104   3.289   5.604   2.256
10720TIP3    H132105   3.204   5.562   2.244
10720TIP3    H232106   3.351   5.543   2.217
10721TIP3   OH232107   2.797   6.645   6.438
10721TIP3    H132108   2.714   6.600   6.421
10721TIP3    H232109   2.800   6.655   6.533
10722TIP3   OH232110   5.358   6.693   2.403
10722TIP3    H132111   5.362   6.674   2.310
10722TIP3    H232112   5.368   6.608   2.446
10723TIP3   OH232113   0.211   1.508   2.502
10723TIP3    H132114   0.293   1.558   2.499
10723TIP3    H232115   0.236   1.419   2.479
10724TIP3   OH232116   6.553   2.109   1.594
10724TIP3    H132117   6.510   2.117   1.679
10724TIP3    H232118   6.630   2.165   1.600
10725TIP3   OH232119   0.273   6.143   1.890
10725TIP3    H132120   0.293   6.079   1.822
10725TIP3    H232121   0.223   6.094   1.955
10726TIP3   OH232122   3.920   6.576   0.939
10726TIP3    H132123   3.873   6.627   1.006
10726TIP3    H232124   4.002   6.551   0.981
10727TIP3   OH232125   5.795   7.459   4.529
10727TIP3    H132126   5.782   7.530   4.466
10727TIP3    H232127   5.814   7.504   4.612
10728TIP3   OH232128   3.929   1.892   4.197
10728TIP3    H132129   4.004   1.940   4.233
10728TIP3    H232130   3.938   1.902   4.102
10729TIP3   OH232131   2.402   2.636   1.626
10729TIP3    H132132   2.465   2.686   1.678
10729TIP3    H232133   2.327   2.695   1.615
10730TIP3   OH232134   4.736   2.779   6.496
10730TIP3    H132135   4.810   2.718   6.498
10730TIP3    H232136   4.706   2.777   6.405
10731TIP3   OH232137   4.223   5.481   4.829
10731TIP3    H132138   4.307   5.437   4.844
10731TIP3    H232139   4.189   5.441   4.749
10732TIP3   OH232140   1.879   1.452   3.428
10732TIP3    H132141   1.848   1.533   3.469
10732TIP3    H232142   1.801   1.412   3.391
10733TIP3   OH232143   3.103   0.182   5.760
10733TIP3    H132144   3.147   0.097   5.754
10733TIP3    H232145   3.092   0.197   5.854
10734TIP3   OH232146   4.413   7.181   3.791
10734TIP3    H132147   4.350   7.196   3.720
10734TIP3    H232148   4.494   7.155   3.746
10735TIP3   OH232149   5.055   6.733   2.500
10735TIP3    H132150   5.047   6.641   2.525
10735TIP3    H232151   5.145   6.741   2.467
10736TIP3   OH232152   2.628   4.786   1.378
10736TIP3    H132153   2.640   4.834   1.459
10736TIP3    H232154   2.552   4.827   1.336
10737TIP3   OH232155   7.471   4.016   5.124
10737TIP3    H132156   7.544   3.955   5.112
10737TIP3    H232157   7.397   3.975   5.080
10738TIP3   OH232158   4.005   6.237   2.645
10738TIP3    H132159   4.054   6.265   2.567
10738TIP3    H232160   4.050   6.157   2.674
10739TIP3   OH232161   7.067   5.092   1.874
10739TIP3    H132162   7.019   5.170   1.900
10739TIP3    H232163   7.128   5.122   1.807
10740TIP3   OH232164   5.351   7.417   1.807
10740TIP3    H132165   5.385   7.505   1.788
10740TIP3    H232166   5.343   7.414   1.902
10741TIP3   OH232167   4.158   2.200   2.158
10741TIP3    H132168   4.079   2.250   2.138
10741TIP3    H232169   4.138   2.111   2.128
10742TIP3   OH232170   2.925   4.910   5.438
10742TIP3    H132171   2.924   4.968   5.361
10742TIP3    H232172   2.977   4.958   5.503
10743TIP3   OH232173   6.130   3.408   6.460
10743TIP3    H132174   6.197   3.341   6.449
10743TIP3    H232175   6.057   3.361   6.503
10744TIP3   OH232176   3.230   5.742   5.180
10744TIP3    H132177   3.179   5.663   5.158
10744TIP3    H232178   3.218   5.800   5.105
10745TIP3   OH232179   1.950   3.794   6.071
10745TIP3    H132180   1.873   3.810   6.016
10745TIP3    H232181   1.919   3.806   6.160
10746TIP3   OH232182   5.275   7.446   3.286
10746TIP3    H132183   5.276   7.418   3.377
10746TIP3    H232184   5.367   7.449   3.261
10747TIP3   OH232185   2.174   0.452   5.278
10747TIP3    H132186   2.223   0.491   5.207
10747TIP3    H232187   2.117   0.388   5.236
10748TIP3   OH232188   5.835   3.726   3.629
10748TIP3    H132189   5.794   3.711   3.714
10748TIP3    H232190   5.872   3.640   3.606
10749TIP3   OH232191   4.904   1.867   4.532
10749TIP3    H132192   4.813   1.849   4.552
10749TIP3    H232193   4.932   1.793   4.478
10750TIP3   OH232194   1.112   5.457   1.548
10750TIP3    H132195   1.153   5.528   1.498
10750TIP3    H232196   1.186   5.410   1.586
10751TIP3   OH232197   0.786   3.235   0.530
10751TIP3    H132198   0.783   3.253   0.436
10751TIP3    H232199   0.790   3.140   0.536
10752TIP3   OH232200   6.283   5.344   0.848
10752TIP3    H132201   6.220   5.272   0.846
10752TIP3    H232202   6.338   5.329   0.770
10753TIP3   OH232203   7.403   4.142   3.822
10753TIP3    H132204   7.335   4.163   3.758
10753TIP3    H232205   7.485   4.146   3.773
10754TIP3   OH232206   5.298   3.573   5.301
10754TIP3    H132207   5.231   3.572   5.370
10754TIP3    H232208   5.373   3.529   5.341
10755TIP3   OH232209   3.066   7.600   6.270
10755TIP3    H132210   3.026   7.609   6.356
10755TIP3    H232211   3.114   7.683   6.258
10756TIP3   OH232212   6.305   4.192   2.202
10756TIP3    H132213   6.290   4.174   2.109
10756TIP3    H232214   6.321   4.286   2.207
10757TIP3   OH232215   0.798   5.274   1.732
10757TIP3    H132216   0.739   5.263   1.658
10757TIP3    H232217   0.882   5.242   1.700
10758TIP3   OH232218   2.062   6.443   0.281
10758TIP3    H132219   2.060   6.473   0.372
10758TIP3    H232220   2.118   6.365   0.283
10759TIP3   OH232221   0.806   1.724   5.563
10759TIP3    H132222   0.867   1.779   5.612
10759TIP3    H232223   0.732   1.710   5.623
10760TIP3   OH232224   3.014   7.242   2.667
10760TIP3    H132225   2.964   7.317   2.701
10760TIP3    H232226   2.947   7.179   2.640
10761TIP3   OH232227   0.118   0.652   2.150
10761TIP3    H132228   0.147   0.625   2.237
10761TIP3    H232229   0.058   0.583   2.122
10762TIP3   OH232230   0.729   1.640   1.686
10762TIP3    H132231   0.702   1.723   1.727
10762TIP3    H232232   0.674   1.574   1.727
10763TIP3   OH232233   1.808   5.629   6.640
10763TIP3    H132234   1.902   5.626   6.653
10763TIP3    H232235   1.772   5.656   6.725
10764TIP3   OH232236   3.164   6.949   5.549
10764TIP3    H132237   3.158   6.938   5.454
10764TIP3    H232238   3.221   7.024   5.561
10765TIP3   OH232239   5.974   7.688   5.742
10765TIP3    H132240   6.067   7.684   5.720
10765TIP3    H232241   5.944   7.597   5.738
10766TIP3   OH232242   5.778   3.298   0.515
10766TIP3    H132243   5.718   3.365   0.549
10766TIP3    H232244   5.865   3.328   0.542
10767TIP3   OH232245   5.030   5.033   3.701
10767TIP3    H132246   5.005   5.125   3.707
10767TIP3    H232247   4.949   4.985   3.722
10768TIP3   OH232248   4.599   6.011   3.855
10768TIP3    H132249   4.524   6.022   3.797
10768TIP3    H232250   4.672   5.991   3.795
10769TIP3   OH232251   1.472   2.612   3.189
10769TIP3    H132252   1.540   2.669   3.224
10769TIP3    H232253   1.399   2.670   3.169
10770TIP3   OH232254   4.954   6.531   2.683
10770TIP3    H132255   4.934   6.508   2.774
10770TIP3    H232256   4.897   6.606   2.665
10771TIP3   OH232257   7.261   5.801   6.660
10771TIP3    H132258   7.256   5.778   6.568
10771TIP3    H232259   7.331   5.867   6.664
10772TIP3   OH232260   4.585   5.930   3.149
10772TIP3    H132261   4.593   5.934   3.244
10772TIP3    H232262   4.673   5.906   3.118
10773TIP3   OH232263   4.447   2.650   1.917
10773TIP3    H132264   4.384   2.610   1.857
10773TIP3    H232265   4.469   2.580   1.978
10774TIP3   OH232266   5.775   3.172   0.807
10774TIP3    H132267   5.851   3.153   0.862
10774TIP3    H232268   5.784   3.114   0.732
10775TIP3   OH232269   1.308   3.203   6.553
10775TIP3    H132270   1.295   3.219   6.460
10775TIP3    H232271   1.282   3.111   6.565
10776TIP3   OH232272   1.574   0.281   1.189
10776TIP3    H132273   1.580   0.189   1.215
10776TIP3    H232274   1.625   0.328   1.255
10777TIP3   OH232275   1.264   3.678   6.429
10777TIP3    H132276   1.171   3.655   6.429
10777TIP3    H232277   1.280   3.717   6.515
10778TIP3   OH232278   3.759   2.305   0.607
10778TIP3    H132279   3.691   2.241   0.628
10778TIP3    H232280   3.772   2.297   0.513
10779TIP3   OH232281   5.834   7.613   2.506
10779TIP3    H132282   5.780   7.535   2.489
10779TIP3    H232283   5.772   7.685   2.511
10780TIP3   OH232284   2.753   7.319   4.300
10780TIP3    H132285   2.737   7.312   4.394
10780TIP3    H232286   2.675   7.365   4.266
10781TIP3   OH232287   6.263   6.127   4.614
10781TIP3    H132288   6.222   6.046   4.584
10781TIP3    H232289   6.217   6.197   4.567
10782TIP3   OH232290   2.477   4.098   2.063
10782TIP3    H132291   2.490   4.033   1.994
10782TIP3    H232292   2.417   4.057   2.125
10783TIP3   OH232293   1.172   1.899   0.788
10783TIP3    H132294   1.111   1.847   0.736
10783TIP3    H232295   1.184   1.848   0.868
10784TIP3   OH232296   0.867   2.558   5.464
10784TIP3    H132297   0.808   2.568   5.539
10784TIP3    H232298   0.852   2.636   5.411
10785TIP3   OH232299   3.744   6.652   5.769
10785TIP3    H132300   3.681   6.605   5.824
10785TIP3    H232301   3.694   6.723   5.730
10786TIP3   OH232302   3.966   2.619   2.131
10786TIP3    H132303   4.051   2.649   2.100
10786TIP3    H232304   3.932   2.692   2.183
10787TIP3   OH232305   0.703   0.078   2.963
10787TIP3    H132306   0.742   0.088   3.050
10787TIP3    H232307   0.723   0.160   2.918
10788TIP3   OH232308   7.212   0.897   0.402
10788TIP3    H132309   7.284   0.839   0.377
10788TIP3    H232310   7.244   0.944   0.479
10789TIP3   OH232311   6.175   1.491   2.029
10789TIP3    H132312   6.152   1.524   2.116
10789TIP3    H232313   6.258   1.446   2.042
10790TIP3   OH232314   2.625   3.534   3.338
10790TIP3    H132315   2.560   3.493   3.282
10790TIP3    H232316   2.690   3.465   3.353
10791TIP3   OH232317   4.001   5.704   1.445
10791TIP3    H132318   4.038   5.616   1.451
10791TIP3    H232319   4.043   5.743   1.369
10792TIP3   OH232320   2.082   1.494   1.285
10792TIP3    H132321   2.178   1.499   1.285
10792TIP3    H232322   2.059   1.482   1.377
10793TIP3   OH232323   0.475   6.029   2.939
10793TIP3    H132324   0.418   5.988   3.003
10793TIP3    H232325   0.524   6.095   2.989
10794TIP3   OH232326   6.717   1.564   2.854
10794TIP3    H132327   6.755   1.491   2.804
10794TIP3    H232328   6.706   1.634   2.790
10795TIP3   OH232329   5.188   5.418   6.402
10795TIP3    H132330   5.140   5.498   6.424
10795TIP3    H232331   5.266   5.448   6.357
10796TIP3   OH232332   4.857   2.258   0.373
10796TIP3    H132333   4.785   2.224   0.319
10796TIP3    H232334   4.873   2.346   0.338
10797TIP3   OH232335   1.187   3.660   2.894
10797TIP3    H132336   1.225   3.586   2.845
10797TIP3    H232337   1.092   3.648   2.886
10798TIP3   OH232338   2.381   3.124   5.471
10798TIP3    H132339   2.470   3.133   5.434
10798TIP3    H232340   2.345   3.213   5.465
10799TIP3   OH232341   5.862   2.050   6.127
10799TIP3    H132342   5.907   1.967   6.142
10799TIP3    H232343   5.831   2.076   6.214
10800TIP3   OH232344   0.285   6.639   6.198
10800TIP3    H132345   0.248   6.570   6.254
10800TIP3    H232346   0.212   6.698   6.181
10801TIP3   OH232347   2.689   5.572   4.483
10801TIP3    H132348   2.623   5.524   4.534
10801TIP3    H232349   2.639   5.609   4.410
10802TIP3   OH232350   7.870   0.757   0.409
10802TIP3    H132351   7.890   0.682   0.352
10802TIP3    H232352   7.794   0.728   0.460
10803TIP3   OH232353   6.464   1.168   4.128
10803TIP3    H132354   6.539   1.215   4.092
10803TIP3    H232355   6.390   1.195   4.073
10804TIP3   OH232356   1.992   6.870   0.985
10804TIP3    H132357   2.062   6.936   0.984
10804TIP3    H232358   2.036   6.788   0.966
10805TIP3   OH232359   0.320   4.316   5.550
10805TIP3    H132360   0.407   4.304   5.589
10805TIP3    H232361   0.321   4.260   5.473
10806TIP3   OH232362   7.891   5.393   0.801
10806TIP3    H132363   7.897   5.298   0.798
10806TIP3    H232364   7.873   5.413   0.892
10807TIP3   OH232365   5.576   1.191   5.683
10807TIP3    H132366   5.615   1.203   5.596
10807TIP3    H232367   5.631   1.127   5.726
10808TIP3   OH232368   3.424   6.268   2.307
10808TIP3    H132369   3.413   6.220   2.388
10808TIP3    H232370   3.503   6.321   2.320
10809TIP3   OH232371   0.633   5.777   3.423
10809TIP3    H132372   0.710   5.732   3.458
10809TIP3    H232373   0.621   5.852   3.482
10810TIP3   OH232374   4.504   6.910   1.890
10810TIP3    H132375   4.414   6.891   1.916
10810TIP3    H232376   4.543   6.954   1.966
10811TIP3   OH232377   4.507   6.129   1.654
10811TIP3    H132378   4.520   6.194   1.585
10811TIP3    H232379   4.583   6.070   1.647
10812TIP3   OH232380   7.823   2.890   1.880
10812TIP3    H132381   7.791   2.966   1.830
10812TIP3    H232382   7.917   2.892   1.868
10813TIP3   OH232383   0.935   6.188   6.035
10813TIP3    H132384   0.943   6.149   6.122
10813TIP3    H232385   0.882   6.125   5.985
10814TIP3   OH232386   3.851   1.538   3.087
10814TIP3    H132387   3.827   1.630   3.073
10814TIP3    H232388   3.861   1.502   2.999
10815TIP3   OH232389   7.401   6.383   5.420
10815TIP3    H132390   7.371   6.411   5.334
10815TIP3    H232391   7.464   6.313   5.401
10816TIP3   OH232392   5.520   2.659   2.639
10816TIP3    H132393   5.434   2.621   2.617
10816TIP3    H232394   5.505   2.706   2.721
10817TIP3   OH232395   3.210   3.365   4.925
10817TIP3    H132396   3.276   3.433   4.938
10817TIP3    H232397   3.202   3.356   4.830
10818TIP3   OH232398   5.695   4.793   4.057
10818TIP3    H132399   5.700   4.767   4.149
10818TIP3    H232400   5.752   4.869   4.051
10819TIP3   OH232401   7.665   0.702   1.735
10819TIP3    H132402   7.593   0.643   1.758
10819TIP3    H232403   7.734   0.644   1.703
10820TIP3   OH232404   5.555   6.363   0.702
10820TIP3    H132405   5.642   6.323   0.711
10820TIP3    H232406   5.529   6.382   0.792
10821TIP3   OH232407   4.029   6.661   0.162
10821TIP3    H132408   4.102   6.599   0.162
10821TIP3    H232409   4.033   6.703   0.248
10822TIP3   OH232410   3.892   7.166   5.428
10822TIP3    H132411   3.896   7.112   5.507
10822TIP3    H232412   3.980   7.202   5.419
10823TIP3   OH232413   5.778   2.880   1.892
10823TIP3    H132414   5.774   2.787   1.913
10823TIP3    H232415   5.702   2.918   1.936
10824TIP3   OH232416   5.513   3.140   4.209
10824TIP3    H132417   5.463   3.079   4.156
10824TIP3    H232418   5.471   3.224   4.195
10825TIP3   OH232419   7.657   5.492   0.968
10825TIP3    H132420   7.660   5.442   0.887
10825TIP3    H232421   7.574   5.466   1.009
10826TIP3   OH232422   0.356   1.509   5.223
10826TIP3    H132423   0.317   1.496   5.310
10826TIP3    H232424   0.359   1.421   5.186
10827TIP3   OH232425   0.454   7.037   2.623
10827TIP3    H132426   0.541   7.073   2.604
10827TIP3    H232427   0.450   7.037   2.719
10828TIP3   OH232428   7.496   0.099   4.903
10828TIP3    H132429   7.532   0.054   4.979
10828TIP3    H232430   7.471   0.186   4.934
10829TIP3   OH232431   5.960   5.485   1.748
10829TIP3    H132432   5.932   5.576   1.739
10829TIP3    H232433   6.034   5.476   1.687
10830TIP3   OH232434   1.926   7.142   0.202
10830TIP3    H132435   1.915   7.181   0.115
10830TIP3    H232436   1.867   7.192   0.258
10831TIP3   OH232437   5.934   5.786   2.160
10831TIP3    H132438   6.008   5.801   2.101
10831TIP3    H232439   5.873   5.857   2.140
10832TIP3   OH232440   0.235   2.297   4.309
10832TIP3    H132441   0.193   2.295   4.395
10832TIP3    H232442   0.318   2.251   4.322
10833TIP3   OH232443   3.931   7.773   4.438
10833TIP3    H132444   3.948   7.753   4.346
10833TIP3    H232445   3.849   7.823   4.437
10834TIP3   OH232446   7.100   0.915   4.221
10834TIP3    H132447   7.155   0.883   4.149
10834TIP3    H232448   7.069   0.836   4.265
10835TIP3   OH232449   3.218   6.555   4.636
10835TIP3    H132450   3.192   6.496   4.706
10835TIP3    H232451   3.136   6.594   4.606
10836TIP3   OH232452   1.876   5.247   2.053
10836TIP3    H132453   1.810   5.196   2.005
10836TIP3    H232454   1.930   5.287   1.985
10837TIP3   OH232455   0.495   0.087   0.415
10837TIP3    H132456   0.445   0.135   0.481
10837TIP3    H232457   0.432   0.027   0.375
10838TIP3   OH232458   4.137   6.904   1.512
10838TIP3    H132459   4.178   6.869   1.592
10838TIP3    H232460   4.199   6.970   1.481
10839TIP3   OH232461   8.247   6.790   5.773
10839TIP3    H132462   8.269   6.748   5.690
10839TIP3    H232463   8.268   6.724   5.839
10840TIP3   OH232464   0.670   7.688   2.522
10840TIP3    H132465   0.688   7.776   2.556
10840TIP3    H232466   0.752   7.641   2.533
10841TIP3   OH232467   1.193   3.574   5.727
10841TIP3    H132468   1.244   3.531   5.796
10841TIP3    H232469   1.119   3.614   5.773
10842TIP3   OH232470   4.201   6.624   3.967
10842TIP3    H132471   4.173   6.628   4.059
10842TIP3    H232472   4.169   6.540   3.936
10843TIP3   OH232473   4.930   5.489   2.050
10843TIP3    H132474   4.924   5.407   2.098
10843TIP3    H232475   4.852   5.489   1.994
10844TIP3   OH232476   5.494   1.970   5.862
10844TIP3    H132477   5.449   2.035   5.808
10844TIP3    H232478   5.432   1.949   5.931
10845TIP3   OH232479   2.372   3.584   0.061
10845TIP3    H132480   2.300   3.634   0.022
10845TIP3    H232481   2.386   3.623   0.147
10846TIP3   OH232482   5.798   0.649   1.420
10846TIP3    H132483   5.783   0.626   1.511
10846TIP3    H232484   5.725   0.705   1.396
10847TIP3   OH232485   3.471   2.281   4.456
10847TIP3    H132486   3.489   2.219   4.527
10847TIP3    H232487   3.451   2.226   4.380
10848TIP3   OH232488   1.212   0.325   2.117
10848TIP3    H132489   1.296   0.370   2.117
10848TIP3    H232490   1.156   0.379   2.173
10849TIP3   OH232491   6.957   4.637   4.364
10849TIP3    H132492   6.937   4.550   4.330
10849TIP3    H232493   7.033   4.623   4.422
10850TIP3   OH232494   4.193   4.251   6.334
10850TIP3    H132495   4.117   4.201   6.304
10850TIP3    H232496   4.169   4.342   6.320
10851TIP3   OH232497   8.306   1.017   5.670
10851TIP3    H132498   8.284   1.101   5.710
10851TIP3    H232499   8.376   1.037   5.608
10852TIP3   OH232500   3.340   3.830   1.262
10852TIP3    H132501   3.334   3.897   1.330
10852TIP3    H232502   3.415   3.777   1.288
10853TIP3   OH232503   6.865   1.189   0.235
10853TIP3    H132504   6.954   1.158   0.220
10853TIP3    H232505   6.811   1.134   0.179
10854TIP3   OH232506   1.875   4.996   5.239
10854TIP3    H132507   1.887   4.905   5.211
10854TIP3    H232508   1.953   5.016   5.290
10855TIP3   OH232509   0.193   3.697   6.268
10855TIP3    H132510   0.234   3.644   6.200
10855TIP3    H232511   0.219   3.787   6.247
10856TIP3   OH232512   6.015   2.486   4.070
10856TIP3    H132513   5.998   2.431   4.146
10856TIP3    H232514   5.989   2.574   4.097
10857TIP3   OH232515   8.125   3.601   4.234
10857TIP3    H132516   8.112   3.677   4.178
10857TIP3    H232517   8.049   3.602   4.293
10858TIP3   OH232518   3.304   5.624   5.821
10858TIP3    H132519   3.277   5.709   5.856
10858TIP3    H232520   3.384   5.602   5.870
10859TIP3   OH232521   1.576   1.395   1.287
10859TIP3    H132522   1.493   1.439   1.304
10859TIP3    H232523   1.554   1.302   1.286
10860TIP3   OH232524   2.300   3.703   4.161
10860TIP3    H132525   2.375   3.668   4.210
10860TIP3    H232526   2.240   3.629   4.152
10861TIP3   OH232527   5.047   7.389   0.811
10861TIP3    H132528   5.022   7.303   0.846
10861TIP3    H232529   5.125   7.413   0.861
10862TIP3   OH232530   7.238   1.808   1.534
10862TIP3    H132531   7.316   1.855   1.562
10862TIP3    H232532   7.225   1.741   1.600
10863TIP3   OH232533   4.262   1.436   1.207
10863TIP3    H132534   4.332   1.480   1.159
10863TIP3    H232535   4.261   1.347   1.172
10864TIP3   OH232536   7.207   0.662   6.546
10864TIP3    H132537   7.165   0.622   6.470
10864TIP3    H232538   7.259   0.733   6.509
10865TIP3   OH232539   6.690   7.319   6.188
10865TIP3    H132540   6.602   7.281   6.198
10865TIP3    H232541   6.744   7.272   6.251
10866TIP3   OH232542   5.383   4.430   6.172
10866TIP3    H132543   5.344   4.509   6.210
10866TIP3    H232544   5.467   4.422   6.216
10867TIP3   OH232545   3.473   2.895   3.745
10867TIP3    H132546   3.552   2.933   3.706
10867TIP3    H232547   3.506   2.834   3.812
10868TIP3   OH232548   7.358   5.920   1.067
10868TIP3    H132549   7.427   5.982   1.093
10868TIP3    H232550   7.336   5.945   0.977
10869TIP3   OH232551   1.825   0.687   5.723
10869TIP3    H132552   1.733   0.662   5.709
10869TIP3    H232553   1.864   0.685   5.635
10870TIP3   OH232554   7.774   0.450   5.573
10870TIP3    H132555   7.694   0.401   5.556
10870TIP3    H232556   7.784   0.447   5.669
10871TIP3   OH232557   1.985   3.025   0.940
10871TIP3    H132558   2.078   3.022   0.964
10871TIP3    H232559   1.953   3.107   0.978
10872TIP3   OH232560   6.600   6.817   2.233
10872TIP3    H132561   6.618   6.894   2.178
10872TIP3    H232562   6.558   6.755   2.174
10873TIP3   OH232563   5.089   4.714   4.173
10873TIP3    H132564   5.149   4.754   4.236
10873TIP3    H232565   5.105   4.620   4.180
10874TIP3   OH232566   0.782   5.015   0.158
10874TIP3    H132567   0.866   4.999   0.202
10874TIP3    H232568   0.793   5.100   0.115
10875TIP3   OH232569   3.274   4.751   1.515
10875TIP3    H132570   3.279   4.845   1.535
10875TIP3    H232571   3.356   4.731   1.471
10876TIP3   OH232572   3.711   3.854   5.829
10876TIP3    H132573   3.634   3.812   5.867
10876TIP3    H232574   3.689   3.947   5.825
10877TIP3   OH232575   3.276   3.693   0.111
10877TIP3    H132576   3.279   3.639   0.190
10877TIP3    H232577   3.188   3.681   0.076
10878TIP3   OH232578   5.198   4.534   3.227
10878TIP3    H132579   5.289   4.509   3.240
10878TIP3    H232580   5.148   4.471   3.280
10879TIP3   OH232581   0.951   3.837   5.571
10879TIP3    H132582   0.931   3.904   5.636
10879TIP3    H232583   0.869   3.789   5.560
10880TIP3   OH232584   7.898   7.657   5.171
10880TIP3    H132585   7.960   7.588   5.189
10880TIP3    H232586   7.901   7.714   5.248
10881TIP3   OH232587   3.437   4.727   4.675
10881TIP3    H132588   3.458   4.735   4.768
10881TIP3    H232589   3.370   4.658   4.672
10882TIP3   OH232590   3.428   5.676   1.037
10882TIP3    H132591   3.484   5.702   1.109
10882TIP3    H232592   3.343   5.716   1.056
10883TIP3   OH232593   8.160   0.564   0.087
10883TIP3    H132594   8.159   0.586   0.180
10883TIP3    H232595   8.214   0.484   0.082
10884TIP3   OH232596   5.116   3.053   5.128
10884TIP3    H132597   5.179   2.981   5.139
10884TIP3    H232598   5.072   3.033   5.045
10885TIP3   OH232599   3.939   6.146   3.198
10885TIP3    H132600   3.907   6.229   3.162
10885TIP3    H232601   3.887   6.132   3.277
10886TIP3   OH232602   3.366   3.748   5.262
10886TIP3    H132603   3.271   3.754   5.270
10886TIP3    H232604   3.384   3.654   5.268
10887TIP3   OH232605   4.588   1.585   4.331
10887TIP3    H132606   4.505   1.625   4.356
10887TIP3    H232607   4.575   1.491   4.345
10888TIP3   OH232608   3.689   2.397   1.995
10888TIP3    H132609   3.620   2.399   2.062
10888TIP3    H232610   3.664   2.324   1.938
10889TIP3   OH232611   6.948   1.924   2.378
10889TIP3    H132612   6.963   1.910   2.471
10889TIP3    H232613   6.866   1.877   2.360
10890TIP3   OH232614   7.877   2.831   3.528
10890TIP3    H132615   7.833   2.861   3.448
10890TIP3    H232616   7.968   2.859   3.518
10891TIP3   OH232617   2.920   7.743   0.869
10891TIP3    H132618   2.903   7.704   0.783
10891TIP3    H232619   2.969   7.823   0.851
10892TIP3   OH232620   1.345   1.584   4.367
10892TIP3    H132621   1.411   1.589   4.298
10892TIP3    H232622   1.391   1.611   4.446
10893TIP3   OH232623   8.237   5.043   5.911
10893TIP3    H132624   8.276   5.130   5.897
10893TIP3    H232625   8.251   4.997   5.828
10894TIP3   OH232626   8.110   4.874   1.016
10894TIP3    H132627   8.176   4.942   0.999
10894TIP3    H232628   8.105   4.868   1.111
10895TIP3   OH232629   2.500   1.809   3.411
10895TIP3    H132630   2.543   1.799   3.325
10895TIP3    H232631   2.504   1.903   3.428
10896TIP3   OH232632   4.375   2.623   5.160
10896TIP3    H132633   4.421   2.631   5.076
10896TIP3    H232634   4.441   2.586   5.219
10897TIP3   OH232635   3.847   7.234   1.444
10897TIP3    H132636   3.868   7.149   1.484
10897TIP3    H232637   3.771   7.265   1.494
10898TIP3   OH232638   0.411   3.255   2.418
10898TIP3    H132639   0.353   3.247   2.493
10898TIP3    H232640   0.357   3.295   2.350
10899TIP3   OH232641   1.020   3.423   0.488
10899TIP3    H132642   0.969   3.344   0.507
10899TIP3    H232643   1.055   3.450   0.573
10900TIP3   OH232644   7.703   6.140   1.533
10900TIP3    H132645   7.614   6.155   1.567
10900TIP3    H232646   7.690   6.081   1.459
10901TIP3   OH232647   0.106   7.509   2.974
10901TIP3    H132648   0.046   7.499   2.899
10901TIP3    H232649   0.073   7.586   3.020
10902TIP3   OH232650   1.585   2.729   6.144
10902TIP3    H132651   1.599   2.713   6.238
10902TIP3    H232652   1.511   2.790   6.141
10903TIP3   OH232653   2.532   1.837   4.692
10903TIP3    H132654   2.550   1.931   4.684
10903TIP3    H232655   2.498   1.827   4.781
10904TIP3   OH232656   4.198   2.781   2.375
10904TIP3    H132657   4.203   2.685   2.383
10904TIP3    H232658   4.200   2.797   2.281
10905TIP3   OH232659   7.366   2.630   2.963
10905TIP3    H132660   7.438   2.658   2.906
10905TIP3    H232661   7.326   2.557   2.916
10906TIP3   OH232662   1.157   1.977   3.837
10906TIP3    H132663   1.167   2.069   3.861
10906TIP3    H232664   1.245   1.941   3.840
10907TIP3   OH232665   2.207   5.302   2.741
10907TIP3    H132666   2.258   5.228   2.709
10907TIP3    H232667   2.251   5.379   2.706
10908TIP3   OH232668   0.307   2.238   0.487
10908TIP3    H132669   0.344   2.218   0.401
10908TIP3    H232670   0.293   2.153   0.527
10909TIP3   OH232671   5.128   7.793   2.890
10909TIP3    H132672   5.072   7.773   2.815
10909TIP3    H232673   5.213   7.755   2.867
10910TIP3   OH232674   6.748   4.405   5.313
10910TIP3    H132675   6.785   4.323   5.344
10910TIP3    H232676   6.754   4.400   5.218
10911TIP3   OH232677   3.355   7.171   0.260
10911TIP3    H132678   3.276   7.120   0.242
10911TIP3    H232679   3.391   7.132   0.340
10912TIP3   OH232680   4.340   2.158   0.752
10912TIP3    H132681   4.265   2.211   0.778
10912TIP3    H232682   4.302   2.077   0.717
10913TIP3   OH232683   7.664   3.074   5.885
10913TIP3    H132684   7.692   3.157   5.846
10913TIP3    H232685   7.621   3.100   5.967
10914TIP3   OH232686   2.394   2.562   2.438
10914TIP3    H132687   2.484   2.546   2.411
10914TIP3    H232688   2.401   2.625   2.510
10915TIP3   OH232689   7.939   5.762   4.490
10915TIP3    H132690   7.890   5.812   4.424
10915TIP3    H232691   7.902   5.792   4.573
10916TIP3   OH232692   1.633   5.051   3.865
10916TIP3    H132693   1.602   5.003   3.942
10916TIP3    H232694   1.690   5.119   3.901
10917TIP3   OH232695   1.822   6.382   4.749
10917TIP3    H132696   1.903   6.358   4.704
10917TIP3    H232697   1.842   6.464   4.794
10918TIP3   OH232698   6.604   1.875   1.166
10918TIP3    H132699   6.663   1.913   1.100
10918TIP3    H232700   6.651   1.886   1.249
10919TIP3   OH232701   8.116   2.803   1.087
10919TIP3    H132702   8.143   2.879   1.036
10919TIP3    H232703   8.196   2.773   1.130
10920TIP3   OH232704   3.723   3.485   0.851
10920TIP3    H132705   3.741   3.556   0.914
10920TIP3    H232706   3.643   3.513   0.806
10921TIP3   OH232707   7.914   1.670   2.135
10921TIP3    H132708   7.887   1.757   2.108
10921TIP3    H232709   7.839   1.614   2.117
10922TIP3   OH232710   3.869   1.369   0.467
10922TIP3    H132711   3.821   1.451   0.453
10922TIP3    H232712   3.882   1.366   0.562
10923TIP3   OH232713   7.857   7.370   5.473
10923TIP3    H132714   7.783   7.363   5.412
10923TIP3    H232715   7.907   7.290   5.459
10924TIP3   OH232716   1.912   1.907   5.576
10924TIP3    H132717   1.996   1.915   5.623
10924TIP3    H232718   1.846   1.916   5.645
10925TIP3   OH232719   0.156   5.449   3.661
10925TIP3    H132720   0.160   5.404   3.576
10925TIP3    H232721   0.207   5.529   3.648
10926TIP3   OH232722   5.502   7.118   0.939
10926TIP3    H132723   5.425   7.086   0.891
10926TIP3    H232724   5.467   7.184   0.999
10927TIP3   OH232725   6.219   7.650   6.008
10927TIP3    H132726   6.161   7.648   6.084
10927TIP3    H232727   6.238   7.743   5.995
10928TIP3   OH232728   7.235   2.242   0.086
10928TIP3    H132729   7.209   2.261  -0.004
10928TIP3    H232730   7.321   2.283   0.096
10929TIP3   OH232731   7.158   6.366   6.185
10929TIP3    H132732   7.074   6.410   6.181
10929TIP3    H232733   7.192   6.371   6.096
10930TIP3   OH232734   4.865   1.829   5.983
10930TIP3    H132735   4.927   1.900   5.965
10930TIP3    H232736   4.782   1.873   6.000
10931TIP3   OH232737   3.675   4.891   4.229
10931TIP3    H132738   3.766   4.885   4.258
10931TIP3    H232739   3.625   4.843   4.296
10932TIP3   OH232740   7.335   7.578   4.044
10932TIP3    H132741   7.338   7.529   4.127
10932TIP3    H232742   7.245   7.611   4.040
10933TIP3   OH232743   8.301   3.922   2.676
10933TIP3    H132744   8.326   3.993   2.617
10933TIP3    H232745   8.248   3.863   2.622
10934TIP3   OH232746   4.902   5.995   6.264
10934TIP3    H132747   4.821   5.992   6.314
10934TIP3    H232748   4.968   6.024   6.326
10935TIP3   OH232749   1.914   7.638   1.971
10935TIP3    H132750   1.988   7.608   1.918
10935TIP3    H232751   1.838   7.630   1.913
10936TIP3   OH232752   1.381   0.698   0.193
10936TIP3    H132753   1.310   0.674   0.133
10936TIP3    H232754   1.457   0.707   0.136
10937TIP3   OH232755   1.726   1.338   1.839
10937TIP3    H132756   1.746   1.368   1.751
10937TIP3    H232757   1.785   1.264   1.853
10938TIP3   OH232758   6.875   4.256   5.098
10938TIP3    H132759   6.824   4.178   5.118
10938TIP3    H232760   6.874   4.262   5.003
10939TIP3   OH232761   6.751   4.089   1.005
10939TIP3    H132762   6.804   4.155   0.959
10939TIP3    H232763   6.765   4.009   0.955
10940TIP3   OH232764   6.835   5.565   0.489
10940TIP3    H132765   6.919   5.527   0.461
10940TIP3    H232766   6.809   5.512   0.564
10941TIP3   OH232767   2.884   6.514   1.004
10941TIP3    H132768   2.847   6.445   1.059
10941TIP3    H232769   2.821   6.586   1.010
10942TIP3   OH232770   2.571   5.528   2.508
10942TIP3    H132771   2.653   5.495   2.472
10942TIP3    H232772   2.577   5.623   2.499
10943TIP3   OH232773   5.133   1.745   5.803
10943TIP3    H132774   5.084   1.665   5.819
10943TIP3    H232775   5.181   1.761   5.885
10944TIP3   OH232776   2.134   2.248   5.992
10944TIP3    H132777   2.042   2.226   6.004
10944TIP3    H232778   2.155   2.304   6.067
10945TIP3   OH232779   4.504   4.804   6.456
10945TIP3    H132780   4.518   4.860   6.380
10945TIP3    H232781   4.409   4.807   6.470
10946TIP3   OH232782   7.042   1.952   3.748
10946TIP3    H132783   7.133   1.959   3.778
10946TIP3    H232784   7.030   2.027   3.690
10947TIP3   OH232785   4.891   1.399   5.865
10947TIP3    H132786   4.899   1.471   5.802
10947TIP3    H232787   4.973   1.350   5.857
10948TIP3   OH232788   2.164   3.947   1.189
10948TIP3    H132789   2.107   3.903   1.252
10948TIP3    H232790   2.107   3.969   1.116
10949TIP3   OH232791   4.920   4.877   1.130
10949TIP3    H132792   4.831   4.904   1.107
10949TIP3    H232793   4.976   4.923   1.068
10950TIP3   OH232794   2.609   1.102   6.057
10950TIP3    H132795   2.571   1.150   6.130
10950TIP3    H232796   2.596   1.010   6.078
10951TIP3   OH232797   2.887   1.150   6.615
10951TIP3    H132798   2.911   1.202   6.539
10951TIP3    H232799   2.805   1.188   6.646
10952TIP3   OH232800   3.935   2.711   2.528
10952TIP3    H132801   3.871   2.657   2.575
10952TIP3    H232802   4.006   2.650   2.507
10953TIP3   OH232803   6.521   5.080   6.612
10953TIP3    H132804   6.549   5.004   6.561
10953TIP3    H232805   6.567   5.154   6.572
10954TIP3   OH232806   6.043   4.293   3.922
10954TIP3    H132807   6.039   4.229   3.850
10954TIP3    H232808   6.095   4.249   3.989
10955TIP3   OH232809   4.674   0.773   3.926
10955TIP3    H132810   4.751   0.718   3.910
10955TIP3    H232811   4.650   0.753   4.017
10956TIP3   OH232812   2.026   3.524   1.660
10956TIP3    H132813   2.094   3.493   1.721
10956TIP3    H232814   1.978   3.445   1.636
10957TIP3   OH232815   7.143   0.853   5.741
10957TIP3    H132816   7.198   0.789   5.695
10957TIP3    H232817   7.152   0.933   5.691
10958TIP3   OH232818   0.904   2.538   2.496
10958TIP3    H132819   0.935   2.449   2.477
10958TIP3    H232820   0.982   2.584   2.528
10959TIP3   OH232821   7.733   3.103   0.524
10959TIP3    H132822   7.740   3.199   0.529
10959TIP3    H232823   7.824   3.073   0.520
10960TIP3   OH232824   2.465   0.026   0.968
10960TIP3    H132825   2.544  -0.024   0.950
10960TIP3    H232826   2.396  -0.021   0.922
10961TIP3   OH232827   2.795   6.354   2.899
10961TIP3    H132828   2.833   6.403   2.826
10961TIP3    H232829   2.795   6.416   2.972
10962TIP3   OH232830   0.231   7.085   6.737
10962TIP3    H132831   0.248   7.076   6.831
10962TIP3    H232832   0.137   7.100   6.731
10963TIP3   OH232833   6.513   3.798   1.400
10963TIP3    H132834   6.495   3.751   1.318
10963TIP3    H232835   6.587   3.855   1.380
10964TIP3   OH232836   0.589   0.862   6.775
10964TIP3    H132837   0.669   0.810   6.769
10964TIP3    H232838   0.536   0.832   6.702
10965TIP3   OH232839   5.055   7.327   0.128
10965TIP3    H132840   4.970   7.363   0.153
10965TIP3    H232841   5.052   7.236   0.157
10966TIP3   OH232842   3.830   0.725   1.446
10966TIP3    H132843   3.793   0.812   1.458
10966TIP3    H232844   3.888   0.712   1.522
10967TIP3   OH232845   3.674   5.684   2.211
10967TIP3    H132846   3.674   5.608   2.152
10967TIP3    H232847   3.615   5.746   2.168
10968TIP3   OH232848   4.194   4.757   2.494
10968TIP3    H132849   4.218   4.686   2.554
10968TIP3    H232850   4.103   4.776   2.514
10969TIP3   OH232851   4.302   4.576   2.319
10969TIP3    H132852   4.375   4.559   2.380
10969TIP3    H232853   4.236   4.619   2.373
10970TIP3   OH232854   6.758   7.589   3.349
10970TIP3    H132855   6.820   7.598   3.421
10970TIP3    H232856   6.759   7.495   3.329
10971TIP3   OH232857   7.582   7.749   3.247
10971TIP3    H132858   7.533   7.766   3.327
10971TIP3    H232859   7.519   7.761   3.176
10972TIP3   OH232860   5.738   3.674   4.988
10972TIP3    H132861   5.650   3.638   4.995
10972TIP3    H232862   5.787   3.632   5.059
10973TIP3   OH232863   3.811   5.419   3.234
10973TIP3    H132864   3.759   5.490   3.198
10973TIP3    H232865   3.772   5.339   3.199
10974TIP3   OH232866   4.165   5.813   1.266
10974TIP3    H132867   4.225   5.834   1.337
10974TIP3    H232868   4.181   5.881   1.200
10975TIP3   OH232869   0.230   2.965   3.798
10975TIP3    H132870   0.203   3.042   3.848
10975TIP3    H232871   0.277   3.000   3.722
10976TIP3   OH232872   1.300   3.389   3.613
10976TIP3    H132873   1.256   3.472   3.592
10976TIP3    H232874   1.229   3.330   3.637
10977TIP3   OH232875   0.116   4.105   3.367
10977TIP3    H132876   0.116   4.144   3.279
10977TIP3    H232877   0.131   4.179   3.426
10978TIP3   OH232878   5.531   1.437   2.285
10978TIP3    H132879   5.606   1.476   2.330
10978TIP3    H232880   5.482   1.512   2.251
10979TIP3   OH232881   3.107   3.103   2.670
10979TIP3    H132882   3.189   3.153   2.672
10979TIP3    H232883   3.134   3.014   2.651
10980TIP3   OH232884   1.160   3.646   3.588
10980TIP3    H132885   1.163   3.648   3.684
10980TIP3    H232886   1.205   3.726   3.561
10981TIP3   OH232887   4.535   4.185   1.643
10981TIP3    H132888   4.590   4.263   1.645
10981TIP3    H232889   4.497   4.180   1.731
10982TIP3   OH232890   7.109   0.405   0.763
10982TIP3    H132891   7.085   0.338   0.827
10982TIP3    H232892   7.070   0.486   0.796
10983TIP3   OH232893   1.989   3.902   6.670
10983TIP3    H132894   2.084   3.887   6.670
10983TIP3    H232895   1.957   3.854   6.594
10984TIP3   OH232896   2.991   2.465   5.966
10984TIP3    H132897   3.044   2.502   6.037
10984TIP3    H232898   3.015   2.517   5.889
10985TIP3   OH232899   0.567   3.657   6.668
10985TIP3    H132900   0.640   3.708   6.632
10985TIP3    H232901   0.608   3.583   6.711
10986TIP3   OH232902   0.895   5.610   5.865
10986TIP3    H132903   0.901   5.582   5.956
10986TIP3    H232904   0.809   5.580   5.836
10987TIP3   OH232905   2.565   2.420   5.865
10987TIP3    H132906   2.477   2.425   5.828
10987TIP3    H232907   2.574   2.499   5.918
10988TIP3   OH232908   6.019   4.233   6.566
10988TIP3    H132909   6.031   4.262   6.476
10988TIP3    H232910   5.924   4.219   6.574
10989TIP3   OH232911   7.527   5.462   0.286
10989TIP3    H132912   7.593   5.501   0.342
10989TIP3    H232913   7.520   5.522   0.211
10990TIP3   OH232914   6.468   3.270   3.739
10990TIP3    H132915   6.496   3.362   3.739
10990TIP3    H232916   6.494   3.237   3.825
10991TIP3   OH232917   4.619   3.941   1.480
10991TIP3    H132918   4.572   4.022   1.500
10991TIP3    H232919   4.575   3.874   1.533
10992TIP3   OH232920   3.869   4.944   5.899
10992TIP3    H132921   3.785   4.976   5.865
10992TIP3    H232922   3.877   4.856   5.863
10993TIP3   OH232923   4.907   5.785   6.084
10993TIP3    H132924   4.816   5.760   6.067
10993TIP3    H232925   4.900   5.859   6.146
10994TIP3   OH232926   2.169   0.697   2.734
10994TIP3    H132927   2.254   0.678   2.774
10994TIP3    H232928   2.105   0.656   2.793
10995TIP3   OH232929   6.487   2.186   4.406
10995TIP3    H132930   6.569   2.233   4.390
10995TIP3    H232931   6.483   2.175   4.501
10996TIP3   OH232932   5.161   4.633   6.087
10996TIP3    H132933   5.091   4.621   6.023
10996TIP3    H232934   5.239   4.653   6.035
10997TIP3   OH232935   1.737   0.639   1.166
10997TIP3    H132936   1.821   0.678   1.143
10997TIP3    H232937   1.759   0.568   1.227
10998TIP3   OH232938   5.665   6.376   4.096
10998TIP3    H132939   5.606   6.325   4.041
10998TIP3    H232940   5.686   6.318   4.169
10999TIP3   OH232941   5.078   0.968   6.332
10999TIP3    H132942   5.159   0.917   6.338
10999TIP3    H232943   5.048   0.956   6.243
11000TIP3   OH232944   4.768   1.168   0.674
11000TIP3    H132945   4.761   1.117   0.593
11000TIP3    H232946   4.681   1.164   0.712
11001TIP3   OH232947   0.297   6.530   4.784
11001TIP3    H132948   0.249   6.451   4.810
11001TIP3    H232949   0.328   6.566   4.867
11002TIP3   OH232950   2.254   4.170   1.459
11002TIP3    H132951   2.285   4.101   1.517
11002TIP3    H232952   2.322   4.176   1.392
11003TIP3   OH232953   3.790   0.910   4.097
11003TIP3    H132954   3.747   0.861   4.167
11003TIP3    H232955   3.733   0.901   4.021
11004TIP3   OH232956   6.567   5.847   3.250
11004TIP3    H132957   6.533   5.936   3.240
11004TIP3    H232958   6.536   5.819   3.336
11005TIP3   OH232959   7.545   4.479   1.685
11005TIP3    H132960   7.593   4.424   1.623
11005TIP3    H232961   7.604   4.491   1.758
11006TIP3   OH232962   5.765   5.922   4.753
11006TIP3    H132963   5.850   5.937   4.711
11006TIP3    H232964   5.774   5.836   4.795
11007TIP3   OH232965   5.173   3.382   0.973
11007TIP3    H132966   5.080   3.385   0.954
11007TIP3    H232967   5.182   3.427   1.057
11008TIP3   OH232968   5.538   4.517   5.297
11008TIP3    H132969   5.603   4.564   5.349
11008TIP3    H232970   5.591   4.460   5.240
11009TIP3   OH232971   4.412   1.960   4.708
11009TIP3    H132972   4.323   1.929   4.691
11009TIP3    H232973   4.403   2.021   4.781
11010TIP3   OH232974   0.972   6.124   5.077
11010TIP3    H132975   0.903   6.087   5.133
11010TIP3    H232976   1.037   6.055   5.070
11011TIP3   OH232977   0.565   6.495   1.406
11011TIP3    H132978   0.530   6.579   1.438
11011TIP3    H232979   0.582   6.511   1.313
11012TIP3   OH232980   4.254   3.035   1.392
11012TIP3    H132981   4.299   2.995   1.318
11012TIP3    H232982   4.316   3.028   1.465
11013TIP3   OH232983   1.142   1.859   5.404
11013TIP3    H132984   1.055   1.892   5.425
11013TIP3    H232985   1.200   1.934   5.420
11014TIP3   OH232986   2.650   0.100   0.099
11014TIP3    H132987   2.660   0.188   0.062
11014TIP3    H232988   2.579   0.061   0.048
11015TIP3   OH232989   2.339   7.285   5.868
11015TIP3    H132990   2.422   7.259   5.907
11015TIP3    H232991   2.360   7.298   5.775
11016TIP3   OH232992   6.376   1.108   0.585
11016TIP3    H132993   6.458   1.131   0.629
11016TIP3    H232994   6.322   1.069   0.654
11017TIP3   OH232995   7.642   1.537   6.563
11017TIP3    H132996   7.599   1.475   6.622
11017TIP3    H232997   7.718   1.488   6.530
11018TIP3   OH232998   5.142   0.344   2.770
11018TIP3    H132999   5.164   0.436   2.784
11018TIP3    H233000   5.226   0.298   2.777
11019TIP3   OH233001   1.192   5.652   6.447
11019TIP3    H133002   1.283   5.665   6.471
11019TIP3    H233003   1.167   5.732   6.400
11020TIP3   OH233004   7.753   6.974   4.300
11020TIP3    H133005   7.753   6.957   4.394
11020TIP3    H233006   7.671   6.935   4.269
11021TIP3   OH233007   3.536   1.387   2.898
11021TIP3    H133008   3.534   1.293   2.911
11021TIP3    H233009   3.465   1.405   2.836
11022TIP3   OH233010   0.750   4.253   0.617
11022TIP3    H133011   0.821   4.296   0.569
11022TIP3    H233012   0.775   4.161   0.620
11023TIP3   OH233013   4.017   7.498   2.674
11023TIP3    H133014   4.100   7.454   2.657
11023TIP3    H233015   4.026   7.533   2.763
11024TIP3   OH233016   0.303   6.364   6.130
11024TIP3    H133017   0.307   6.279   6.085
11024TIP3    H233018   0.279   6.426   6.061
11025TIP3   OH233019   8.162   3.137   3.737
11025TIP3    H133020   8.180   3.138   3.831
11025TIP3    H233021   8.205   3.216   3.703
11026TIP3   OH233022   6.386   2.903   4.405
11026TIP3    H133023   6.301   2.947   4.403
11026TIP3    H233024   6.376   2.835   4.472
11027TIP3   OH233025   7.039   2.203   2.372
11027TIP3    H133026   6.992   2.127   2.338
11027TIP3    H233027   6.994   2.224   2.454
11028TIP3   OH233028   3.889   0.011   4.882
11028TIP3    H133029   3.920   0.101   4.891
11028TIP3    H233030   3.819   0.016   4.817
11029TIP3   OH233031   2.345   6.961   2.677
11029TIP3    H133032   2.316   7.007   2.756
11029TIP3    H233033   2.337   7.026   2.607
11030TIP3   OH233034   2.953   1.985   2.082
11030TIP3    H133035   3.040   1.971   2.044
11030TIP3    H233036   2.967   1.977   2.177
11031TIP3   OH233037   1.783   3.688   2.830
11031TIP3    H133038   1.778   3.781   2.852
11031TIP3    H233039   1.697   3.653   2.851
11032TIP3   OH233040   2.883   0.028   5.612
11032TIP3    H133041   2.950   0.069   5.667
11032TIP3    H233042   2.809   0.013   5.671
11033TIP3   OH233043   3.332   5.054   1.529
11033TIP3    H133044   3.383   5.130   1.558
11033TIP3    H233045   3.242   5.077   1.551
11034TIP3   OH233046   5.636   5.106   6.272
11034TIP3    H133047   5.594   5.033   6.317
11034TIP3    H233048   5.603   5.184   6.317
11035TIP3   OH233049   7.076   0.519   3.410
11035TIP3    H133050   7.087   0.424   3.401
11035TIP3    H233051   7.075   0.533   3.505
11036TIP3   OH233052   6.401   0.989   4.816
11036TIP3    H133053   6.370   0.992   4.726
11036TIP3    H233054   6.428   0.899   4.829
11037TIP3   OH233055   0.986   5.305   3.371
11037TIP3    H133056   0.990   5.399   3.356
11037TIP3    H233057   1.046   5.267   3.307
11038TIP3   OH233058   1.986   6.853   5.223
11038TIP3    H133059   1.967   6.890   5.309
11038TIP3    H233060   1.906   6.807   5.198
11039TIP3   OH233061   4.545   1.583   3.454
11039TIP3    H133062   4.550   1.595   3.549
11039TIP3    H233063   4.459   1.545   3.439
11040TIP3   OH233064   6.469   7.202   5.964
11040TIP3    H133065   6.530   7.276   5.968
11040TIP3    H233066   6.384   7.243   5.947
11041TIP3   OH233067   1.218   7.001   6.119
11041TIP3    H133068   1.183   6.936   6.180
11041TIP3    H233069   1.269   7.060   6.174
11042TIP3   OH233070   2.462   5.095   1.826
11042TIP3    H133071   2.439   5.130   1.912
11042TIP3    H233072   2.497   5.008   1.844
11043TIP3   OH233073   2.851   0.311   3.577
11043TIP3    H133074   2.878   0.264   3.498
11043TIP3    H233075   2.919   0.377   3.589
11044TIP3   OH233076   6.768   6.436   1.658
11044TIP3    H133077   6.793   6.415   1.748
11044TIP3    H233078   6.743   6.528   1.660
11045TIP3   OH233079   4.280   5.429   1.901
11045TIP3    H133080   4.341   5.422   1.975
11045TIP3    H233081   4.211   5.365   1.920
11046TIP3   OH233082   4.488   1.688   1.303
11046TIP3    H133083   4.532   1.760   1.259
11046TIP3    H233084   4.475   1.622   1.235
11047TIP3   OH233085   3.203   0.289   5.509
11047TIP3    H133086   3.175   0.281   5.600
11047TIP3    H233087   3.123   0.280   5.457
11048TIP3   OH233088   2.631   1.841   3.177
11048TIP3    H133089   2.703   1.902   3.192
11048TIP3    H233090   2.672   1.768   3.130
11049TIP3   OH233091   0.709   6.053   4.526
11049TIP3    H133092   0.667   6.011   4.451
11049TIP3    H233093   0.794   6.008   4.535
11050TIP3   OH233094   2.053   2.659   2.492
11050TIP3    H133095   2.000   2.636   2.568
11050TIP3    H233096   2.072   2.752   2.503
11051TIP3   OH233097   3.722   0.991   1.520
11051TIP3    H133098   3.741   0.991   1.614
11051TIP3    H233099   3.749   1.078   1.490
11052TIP3   OH233100   2.340   2.244   3.260
11052TIP3    H133101   2.334   2.251   3.165
11052TIP3    H233102   2.297   2.161   3.281
11053TIP3   OH233103   7.120   3.211   5.409
11053TIP3    H133104   7.056   3.193   5.478
11053TIP3    H233105   7.189   3.146   5.424
11054TIP3   OH233106   0.294   7.512   0.344
11054TIP3    H133107   0.217   7.538   0.292
11054TIP3    H233108   0.313   7.423   0.316
11055TIP3   OH233109   0.511   7.583   1.814
11055TIP3    H133110   0.548   7.524   1.749
11055TIP3    H233111   0.450   7.638   1.764
11056TIP3   OH233112   8.014   0.529   2.193
11056TIP3    H133113   8.045   0.526   2.284
11056TIP3    H233114   8.082   0.484   2.143
11057TIP3   OH233115   6.936   0.528   1.524
11057TIP3    H133116   6.899   0.442   1.503
11057TIP3    H233117   6.967   0.562   1.440
11058TIP3   OH233118   2.123   4.610   6.500
11058TIP3    H133119   2.142   4.518   6.518
11058TIP3    H233120   2.181   4.658   6.559
11059TIP3   OH233121   2.681   3.993   5.472
11059TIP3    H133122   2.651   4.041   5.395
11059TIP3    H233123   2.739   3.926   5.436
11060TIP3   OH233124   0.297   7.586   6.327
11060TIP3    H133125   0.231   7.651   6.351
11060TIP3    H233126   0.299   7.526   6.401
11061TIP3   OH233127   7.234   5.781   1.366
11061TIP3    H133128   7.232   5.862   1.417
11061TIP3    H233129   7.239   5.810   1.275
11062TIP3   OH233130   4.315   2.557   3.000
11062TIP3    H133131   4.270   2.559   3.084
11062TIP3    H233132   4.245   2.562   2.935
11063TIP3   OH233133   0.991   7.555   1.676
11063TIP3    H133134   1.028   7.629   1.725
11063TIP3    H233135   0.902   7.583   1.655
11064TIP3   OH233136   3.107   6.027   1.912
11064TIP3    H133137   3.157   6.089   1.966
11064TIP3    H233138   3.137   5.941   1.941
11065TIP3   OH233139   5.096   6.808   3.130
11065TIP3    H133140   5.074   6.724   3.169
11065TIP3    H233141   5.174   6.838   3.178
11066TIP3   OH233142   0.550   6.853   0.634
11066TIP3    H133143   0.544   6.826   0.725
11066TIP3    H233144   0.470   6.820   0.593
11067TIP3   OH233145   1.701   6.304   6.554
11067TIP3    H133146   1.616   6.317   6.511
11067TIP3    H233147   1.743   6.234   6.503
11068TIP3   OH233148   2.465   7.512   0.717
11068TIP3    H133149   2.528   7.571   0.759
11068TIP3    H233150   2.503   7.492   0.632
11069TIP3   OH233151   2.980   6.986   6.645
11069TIP3    H133152   2.973   6.980   6.549
11069TIP3    H233153   3.071   7.010   6.661
11070TIP3   OH233154   6.758   4.738   6.263
11070TIP3    H133155   6.670   4.720   6.230
11070TIP3    H233156   6.812   4.667   6.229
11071TIP3   OH233157   0.188   1.897   2.544
11071TIP3    H133158   0.275   1.903   2.584
11071TIP3    H233159   0.133   1.954   2.598
11072TIP3   OH233160   5.532   0.560   2.779
11072TIP3    H133161   5.564   0.508   2.853
11072TIP3    H233162   5.438   0.568   2.794
11073TIP3   OH233163   2.123   4.509   3.190
11073TIP3    H133164   2.154   4.525   3.101
11073TIP3    H233165   2.188   4.450   3.228
11074TIP3   OH233166   3.701   0.744   6.724
11074TIP3    H133167   3.761   0.709   6.658
11074TIP3    H233168   3.707   0.839   6.714
11075TIP3   OH233169   8.075   6.985   3.426
11075TIP3    H133170   7.982   6.977   3.405
11075TIP3    H233171   8.118   6.922   3.369
11076TIP3   OH233172   7.952   3.312   0.816
11076TIP3    H133173   7.929   3.377   0.883
11076TIP3    H233174   7.982   3.363   0.741
11077TIP3   OH233175   2.401   1.863   0.244
11077TIP3    H133176   2.465   1.791   0.244
11077TIP3    H233177   2.392   1.887   0.152
11078TIP3   OH233178   6.543   4.504   4.068
11078TIP3    H133179   6.559   4.590   4.106
11078TIP3    H233180   6.448   4.493   4.071
11079TIP3   OH233181   0.590   4.313   3.326
11079TIP3    H133182   0.674   4.275   3.352
11079TIP3    H233183   0.537   4.310   3.405
11080TIP3   OH233184   1.679   4.640   2.494
11080TIP3    H133185   1.586   4.619   2.480
11080TIP3    H233186   1.719   4.625   2.408
11081TIP3   OH233187   6.917   1.588   3.647
11081TIP3    H133188   6.847   1.525   3.632
11081TIP3    H233189   6.954   1.564   3.732
11082TIP3   OH233190   1.688   4.951   4.345
11082TIP3    H133191   1.667   4.984   4.432
11082TIP3    H233192   1.775   4.987   4.326
11083TIP3   OH233193   5.148   4.127   0.377
11083TIP3    H133194   5.104   4.056   0.330
11083TIP3    H233195   5.136   4.105   0.469
11084TIP3   OH233196   3.964   6.664   4.977
11084TIP3    H133197   3.920   6.628   5.055
11084TIP3    H233198   3.913   6.631   4.903
11085TIP3   OH233199   7.864   6.941   5.815
11085TIP3    H133200   7.844   6.925   5.723
11085TIP3    H233201   7.780   6.962   5.855
11086TIP3   OH233202   2.703   7.421   6.429
11086TIP3    H133203   2.634   7.443   6.366
11086TIP3    H233204   2.678   7.469   6.508
11087TIP3   OH233205   2.456   5.811   4.551
11087TIP3    H133206   2.400   5.748   4.596
11087TIP3    H233207   2.541   5.802   4.593
11088TIP3   OH233208   8.223   6.611   2.961
11088TIP3    H133209   8.239   6.532   3.012
11088TIP3    H233210   8.302   6.663   2.974
11089TIP3   OH233211   5.233   5.846   0.574
11089TIP3    H133212   5.252   5.757   0.543
11089TIP3    H233213   5.199   5.833   0.662
11090TIP3   OH233214   7.302   4.275   1.847
11090TIP3    H133215   7.371   4.284   1.913
11090TIP3    H233216   7.262   4.361   1.842
11091TIP3   OH233217   7.110   7.202   2.765
11091TIP3    H133218   7.066   7.138   2.711
11091TIP3    H233219   7.102   7.168   2.854
11092TIP3   OH233220   1.300   2.936   6.192
11092TIP3    H133221   1.213   2.921   6.227
11092TIP3    H233222   1.305   2.880   6.114
11093TIP3   OH233223   3.395   6.125   2.549
11093TIP3    H133224   3.471   6.111   2.605
11093TIP3    H233225   3.329   6.064   2.582
11094TIP3   OH233226   6.789   5.074   4.742
11094TIP3    H133227   6.790   5.037   4.830
11094TIP3    H233228   6.845   5.152   4.748
11095TIP3   OH233229   4.371   7.643   4.628
11095TIP3    H133230   4.317   7.704   4.577
11095TIP3    H233231   4.400   7.577   4.565
11096TIP3   OH233232   4.112   2.863   4.271
11096TIP3    H133233   4.190   2.914   4.292
11096TIP3    H233234   4.040   2.910   4.312
11097TIP3   OH233235   4.584   1.696   5.391
11097TIP3    H133236   4.552   1.753   5.322
11097TIP3    H233237   4.513   1.633   5.405
11098TIP3   OH233238   6.862   3.277   6.381
11098TIP3    H133239   6.824   3.309   6.462
11098TIP3    H233240   6.857   3.351   6.321
11099TIP3   OH233241   1.748   0.427   5.424
11099TIP3    H133242   1.841   0.405   5.425
11099TIP3    H233243   1.709   0.375   5.494
11100TIP3   OH233244   5.379   6.455   2.529
11100TIP3    H133245   5.414   6.366   2.521
11100TIP3    H233246   5.284   6.444   2.523
11101TIP3   OH233247   2.446   2.558   4.713
11101TIP3    H133248   2.496   2.544   4.633
11101TIP3    H233249   2.355   2.567   4.682
11102TIP3   OH233250   2.589   6.941   4.440
11102TIP3    H133251   2.657   6.998   4.406
11102TIP3    H233252   2.577   6.969   4.530
11103TIP3   OH233253   7.258   0.337   1.348
11103TIP3    H133254   7.278   0.260   1.401
11103TIP3    H233255   7.215   0.301   1.270
11104TIP3   OH233256   1.304   6.038   3.492
11104TIP3    H133257   1.333   6.112   3.545
11104TIP3    H233258   1.340   5.961   3.535
11105TIP3   OH233259   7.087   0.217   0.231
11105TIP3    H133260   7.033   0.190   0.306
11105TIP3    H233261   7.143   0.286   0.266
11106TIP3   OH233262   3.881   3.681   1.981
11106TIP3    H133263   3.841   3.699   2.066
11106TIP3    H233264   3.851   3.754   1.926
11107TIP3   OH233265   4.321   4.916   1.515
11107TIP3    H133266   4.362   4.838   1.552
11107TIP3    H233267   4.296   4.890   1.427
11108TIP3   OH233268   1.165   4.473   5.475
11108TIP3    H133269   1.163   4.445   5.567
11108TIP3    H233270   1.184   4.567   5.480
11109TIP3   OH233271   2.270   3.770   0.461
11109TIP3    H133272   2.315   3.777   0.545
11109TIP3    H233273   2.237   3.681   0.459
11110TIP3   OH233274   0.255   3.922   6.617
11110TIP3    H133275   0.244   3.852   6.682
11110TIP3    H233276   0.347   3.945   6.623
11111TIP3   OH233277   1.733   3.419   6.082
11111TIP3    H133278   1.664   3.389   6.141
11111TIP3    H233279   1.694   3.494   6.036
11112TIP3   OH233280   4.087   2.845   3.413
11112TIP3    H133281   4.092   2.908   3.485
11112TIP3    H233282   4.177   2.835   3.383
11113TIP3   OH233283   5.792   5.830   6.604
11113TIP3    H133284   5.845   5.884   6.664
11113TIP3    H233285   5.814   5.740   6.627
11114TIP3   OH233286   7.763   0.502   5.888
11114TIP3    H133287   7.739   0.572   5.827
11114TIP3    H233288   7.711   0.522   5.967
11115TIP3   OH233289   4.660   7.136   2.879
11115TIP3    H133290   4.673   7.125   2.785
11115TIP3    H233291   4.669   7.048   2.915
11116TIP3   OH233292   5.553   0.592   6.306
11116TIP3    H133293   5.593   0.640   6.233
11116TIP3    H233294   5.526   0.509   6.266
11117TIP3   OH233295   0.608   1.341   4.699
11117TIP3    H133296   0.553   1.300   4.766
11117TIP3    H233297   0.608   1.279   4.627
11118TIP3   OH233298   1.540   7.674   1.125
11118TIP3    H133299   1.573   7.599   1.176
11118TIP3    H233300   1.465   7.639   1.077
11119TIP3   OH233301   4.098   4.304   6.649
11119TIP3    H133302   4.115   4.223   6.601
11119TIP3    H233303   4.151   4.296   6.729
11120TIP3   OH233304   0.004   5.576   3.866
11120TIP3    H133305  -0.025   5.496   3.910
11120TIP3    H233306   0.033   5.547   3.780
11121TIP3   OH233307   2.220   0.607   1.884
11121TIP3    H133308   2.276   0.654   1.945
11121TIP3    H233309   2.143   0.582   1.935
11122TIP3   OH233310   2.707   6.263   0.487
11122TIP3    H133311   2.665   6.204   0.424
11122TIP3    H233312   2.789   6.287   0.445
11123TIP3   OH233313   5.011   1.597   2.280
11123TIP3    H133314   5.075   1.657   2.317
11123TIP3    H233315   4.943   1.590   2.347
11124TIP3   OH233316   5.253   5.148   5.167
11124TIP3    H133317   5.233   5.232   5.208
11124TIP3    H233318   5.229   5.160   5.075
11125TIP3   OH233319   2.061   1.322   0.824
11125TIP3    H133320   2.079   1.324   0.730
11125TIP3    H233321   2.147   1.333   0.865
11126TIP3   OH233322   6.734   0.608   2.613
11126TIP3    H133323   6.794   0.630   2.542
11126TIP3    H233324   6.759   0.519   2.638
11127TIP3   OH233325   5.919   6.366   3.942
11127TIP3    H133326   5.842   6.391   3.993
11127TIP3    H233327   5.979   6.440   3.951
11128TIP3   OH233328   3.254   2.566   5.926
11128TIP3    H133329   3.235   2.637   5.864
11128TIP3    H233330   3.339   2.532   5.898
11129TIP3   OH233331   2.423   5.626   5.026
11129TIP3    H133332   2.469   5.707   5.002
11129TIP3    H233333   2.368   5.607   4.950
11130TIP3   OH233334   6.231   0.293   6.315
11130TIP3    H133335   6.235   0.367   6.375
11130TIP3    H233336   6.212   0.218   6.371
11131TIP3   OH233337   5.712   5.068   5.381
11131TIP3    H133338   5.692   5.081   5.474
11131TIP3    H233339   5.781   5.002   5.381
11132TIP3   OH233340   1.864   4.841   0.639
11132TIP3    H133341   1.781   4.873   0.603
11132TIP3    H233342   1.929   4.903   0.606
11133TIP3   OH233343   4.802   5.974   2.718
11133TIP3    H133344   4.780   6.042   2.782
11133TIP3    H233345   4.754   5.897   2.747
11134TIP3   OH233346   3.148   1.777   1.800
11134TIP3    H133347   3.054   1.760   1.800
11134TIP3    H233348   3.169   1.795   1.891
11135TIP3   OH233349   6.999   2.150   2.634
11135TIP3    H133350   7.052   2.082   2.593
11135TIP3    H233351   7.029   2.152   2.725
11136TIP3   OH233352   1.404   6.541   0.711
11136TIP3    H133353   1.455   6.463   0.735
11136TIP3    H233354   1.422   6.604   0.781
11137TIP3   OH233355   1.342   5.929   2.438
11137TIP3    H133356   1.331   5.999   2.374
11137TIP3    H233357   1.413   5.875   2.403
11138TIP3   OH233358   0.915   2.009   3.415
11138TIP3    H133359   0.858   1.939   3.383
11138TIP3    H233360   0.855   2.080   3.440
11139TIP3   OH233361   1.715   3.428   0.958
11139TIP3    H133362   1.646   3.484   0.994
11139TIP3    H233363   1.779   3.489   0.922
11140TIP3   OH233364   4.541   3.613   5.330
11140TIP3    H133365   4.513   3.534   5.377
11140TIP3    H233366   4.601   3.656   5.391
11141TIP3   OH233367   2.114   3.083   1.455
11141TIP3    H133368   2.116   2.999   1.410
11141TIP3    H233369   2.171   3.072   1.530
11142TIP3   OH233370   2.478   2.019   6.462
11142TIP3    H133371   2.519   1.978   6.537
11142TIP3    H233372   2.461   2.109   6.490
11143TIP3   OH233373   1.595   0.290   3.400
11143TIP3    H133374   1.640   0.325   3.323
11143TIP3    H233375   1.539   0.221   3.366
11144TIP3   OH233376   5.702   0.957   0.577
11144TIP3    H133377   5.680   0.965   0.670
11144TIP3    H233378   5.632   0.904   0.540
11145TIP3   OH233379   5.166   3.009   4.825
11145TIP3    H133380   5.187   3.014   4.732
11145TIP3    H233381   5.140   3.098   4.848
11146TIP3   OH233382   1.504   4.889   6.247
11146TIP3    H133383   1.556   4.907   6.326
11146TIP3    H233384   1.428   4.841   6.279
11147TIP3   OH233385   2.431   7.097   5.265
11147TIP3    H133386   2.373   7.031   5.226
11147TIP3    H233387   2.426   7.080   5.360
11148TIP3   OH233388   3.568   6.896   1.240
11148TIP3    H133389   3.493   6.855   1.197
11148TIP3    H233390   3.580   6.846   1.321
11149TIP3   OH233391   4.454   6.467   4.046
11149TIP3    H133392   4.411   6.552   4.049
11149TIP3    H233393   4.391   6.406   4.084
11150TIP3   OH233394   3.327   0.339   6.262
11150TIP3    H133395   3.329   0.368   6.171
11150TIP3    H233396   3.337   0.244   6.257
11151TIP3   OH233397   4.323   5.311   2.423
11151TIP3    H133398   4.384   5.309   2.496
11151TIP3    H233399   4.311   5.404   2.403
11152TIP3   OH233400   7.506   4.403   0.318
11152TIP3    H133401   7.532   4.471   0.256
11152TIP3    H233402   7.509   4.447   0.403
11153TIP3   OH233403   2.467   3.742   0.257
11153TIP3    H133404   2.457   3.756   0.351
11153TIP3    H233405   2.435   3.823   0.217
11154TIP3   OH233406   7.193   2.424   2.915
11154TIP3    H133407   7.100   2.443   2.903
11154TIP3    H233408   7.198   2.328   2.917
11155TIP3   OH233409   0.524   7.699   4.947
11155TIP3    H133410   0.587   7.726   5.013
11155TIP3    H233411   0.439   7.723   4.985
11156TIP3   OH233412   3.818   5.228   2.103
11156TIP3    H133413   3.852   5.251   2.189
11156TIP3    H233414   3.771   5.307   2.074
11157TIP3   OH233415   1.474   6.754   3.226
11157TIP3    H133416   1.435   6.806   3.156
11157TIP3    H233417   1.568   6.756   3.209
11158TIP3   OH233418   7.948   6.201   5.310
11158TIP3    H133419   7.976   6.290   5.288
11158TIP3    H233420   8.028   6.156   5.338
11159TIP3   OH233421   1.480   0.855   0.366
11159TIP3    H133422   1.438   0.781   0.322
11159TIP3    H233423   1.550   0.816   0.417
11160TIP3   OH233424   1.622   3.657   5.971
11160TIP3    H133425   1.666   3.675   5.888
11160TIP3    H233426   1.628   3.740   6.020
11161TIP3   OH233427   1.583   1.818   4.804
11161TIP3    H133428   1.626   1.889   4.851
11161TIP3    H233429   1.628   1.739   4.834
11162TIP3   OH233430   6.703   0.028   4.833
11162TIP3    H133431   6.785   0.076   4.825
11162TIP3    H233432   6.680   0.035   4.925
11163TIP3   OH233433   2.708   6.404   6.663
11163TIP3    H133434   2.717   6.496   6.688
11163TIP3    H233435   2.628   6.401   6.611
11164TIP3   OH233436   0.667   2.369   6.594
11164TIP3    H133437   0.602   2.392   6.661
11164TIP3    H233438   0.690   2.278   6.613
11165TIP3   OH233439   6.733   5.010   2.055
11165TIP3    H133440   6.640   5.035   2.054
11165TIP3    H233441   6.732   4.915   2.065
11166TIP3   OH233442   7.849   6.316   2.901
11166TIP3    H133443   7.945   6.319   2.898
11166TIP3    H233444   7.828   6.323   2.994
11167TIP3   OH233445   7.248   7.510   6.442
11167TIP3    H133446   7.245   7.452   6.366
11167TIP3    H233447   7.162   7.552   6.443
11168TIP3   OH233448   7.674   3.432   4.954
11168TIP3    H133449   7.749   3.492   4.960
11168TIP3    H233450   7.708   3.355   4.909
11169TIP3   OH233451   1.412   6.290   3.595
11169TIP3    H133452   1.455   6.259   3.675
11169TIP3    H233453   1.480   6.338   3.549
11170TIP3   OH233454   7.223   0.666   4.945
11170TIP3    H133455   7.301   0.613   4.963
11170TIP3    H233456   7.207   0.654   4.851
11171TIP3   OH233457   0.710   6.664   3.420
11171TIP3    H133458   0.694   6.749   3.460
11171TIP3    H233459   0.716   6.603   3.494
11172TIP3   OH233460   7.289   5.457   5.218
11172TIP3    H133461   7.280   5.389   5.151
11172TIP3    H233462   7.211   5.448   5.272
11173TIP3   OH233463   0.493   1.689   3.924
11173TIP3    H133464   0.431   1.675   3.852
11173TIP3    H233465   0.577   1.702   3.880
11174TIP3   OH233466   3.305   6.837   6.499
11174TIP3    H133467   3.337   6.913   6.451
11174TIP3    H233468   3.221   6.816   6.459
11175TIP3   OH233469   8.003   6.288   0.838
11175TIP3    H133470   7.956   6.338   0.772
11175TIP3    H233471   7.979   6.197   0.821
11176TIP3   OH233472   3.954   3.404   3.242
11176TIP3    H133473   3.923   3.368   3.325
11176TIP3    H233474   3.927   3.496   3.245
11177TIP3   OH233475   5.701   1.465   6.075
11177TIP3    H133476   5.796   1.456   6.076
11177TIP3    H233477   5.669   1.375   6.072
11178TIP3   OH233478   3.212   5.567   4.297
11178TIP3    H133479   3.131   5.585   4.345
11178TIP3    H233480   3.183   5.544   4.209
11179TIP3   OH233481   6.913   7.127   4.322
11179TIP3    H133482   6.840   7.184   4.295
11179TIP3    H233483   6.971   7.185   4.371
11180TIP3   OH233484   3.859   7.176   0.122
11180TIP3    H133485   3.922   7.104   0.132
11180TIP3    H233486   3.773   7.134   0.135
11181TIP3   OH233487   5.114   2.027   5.209
11181TIP3    H133488   5.059   2.092   5.252
11181TIP3    H233489   5.203   2.050   5.235
11182TIP3   OH233490   1.685   6.657   3.434
11182TIP3    H133491   1.596   6.643   3.402
11182TIP3    H233492   1.723   6.570   3.438
11183TIP3   OH233493   4.624   1.132   3.860
11183TIP3    H133494   4.631   1.103   3.769
11183TIP3    H233495   4.541   1.095   3.891
11184TIP3   OH233496   0.071   6.386   4.211
11184TIP3    H133497   0.083   6.465   4.263
11184TIP3    H233498   0.078   6.314   4.275
11185TIP3   OH233499   5.472   4.265   1.012
11185TIP3    H133500   5.516   4.180   1.006
11185TIP3    H233501   5.508   4.316   0.939
11186TIP3   OH233502   5.459   4.249   1.299
11186TIP3    H133503   5.455   4.335   1.341
11186TIP3    H233504   5.458   4.267   1.206
11187TIP3   OH233505   7.293   4.645   4.965
11187TIP3    H133506   7.199   4.634   4.955
11187TIP3    H233507   7.303   4.684   5.052
11188TIP3   OH233508   0.567   0.404   4.964
11188TIP3    H133509   0.591   0.352   4.887
11188TIP3    H233510   0.574   0.495   4.935
11189TIP3   OH233511   2.462   0.068   1.472
11189TIP3    H133512   2.504   0.059   1.386
11189TIP3    H233513   2.371   0.040   1.456
11190TIP3   OH233514   8.287   5.071   1.424
11190TIP3    H133515   8.223   5.111   1.364
11190TIP3    H233516   8.233   5.029   1.491
11191TIP3   OH233517   5.571   4.129   4.615
11191TIP3    H133518   5.513   4.121   4.690
11191TIP3    H233519   5.550   4.052   4.561
11192TIP3   OH233520   4.615   1.994   3.528
11192TIP3    H133521   4.555   2.068   3.537
11192TIP3    H233522   4.597   1.938   3.604
11193TIP3   OH233523   6.722   4.159   2.938
11193TIP3    H133524   6.816   4.172   2.948
11193TIP3    H233525   6.704   4.079   2.988
11194TIP3   OH233526   0.956   5.376   3.649
11194TIP3    H133527   0.936   5.303   3.708
11194TIP3    H233528   1.051   5.386   3.654
11195TIP3   OH233529   4.388   1.451   2.048
11195TIP3    H133530   4.467   1.402   2.023
11195TIP3    H233531   4.420   1.536   2.077
11196TIP3   OH233532   5.418   5.153   1.510
11196TIP3    H133533   5.496   5.107   1.479
11196TIP3    H233534   5.407   5.123   1.601
11197TIP3   OH233535   3.122   2.919   1.434
11197TIP3    H133536   3.099   3.002   1.476
11197TIP3    H233537   3.042   2.892   1.389
11198TIP3   OH233538   2.623   4.346   0.994
11198TIP3    H133539   2.680   4.316   1.064
11198TIP3    H233540   2.626   4.441   0.999
11199TIP3   OH233541   0.590   2.379   5.554
11199TIP3    H133542   0.666   2.376   5.612
11199TIP3    H233543   0.537   2.451   5.588
11200TIP3   OH233544   5.144   5.933   1.753
11200TIP3    H133545   5.052   5.908   1.749
11200TIP3    H233546   5.191   5.860   1.714
11201TIP3   OH233547   3.935   6.483   5.668
11201TIP3    H133548   3.890   6.400   5.658
11201TIP3    H233549   3.876   6.537   5.721
11202TIP3   OH233550   6.017   0.971   5.830
11202TIP3    H133551   6.038   1.064   5.821
11202TIP3    H233552   5.935   0.969   5.878
11203TIP3   OH233553   1.768   3.702   2.068
11203TIP3    H133554   1.685   3.653   2.061
11203TIP3    H233555   1.773   3.727   2.160
11204TIP3   OH233556   6.535   2.240   6.475
11204TIP3    H133557   6.589   2.257   6.398
11204TIP3    H233558   6.472   2.313   6.476
11205TIP3   OH233559   2.162   4.904   3.090
11205TIP3    H133560   2.123   4.842   3.152
11205TIP3    H233561   2.140   4.990   3.125
11206TIP3   OH233562   4.363   6.480   3.270
11206TIP3    H133563   4.274   6.483   3.307
11206TIP3    H233564   4.411   6.422   3.329
11207TIP3   OH233565   7.964   0.229   0.830
11207TIP3    H133566   8.042   0.229   0.773
11207TIP3    H233567   7.892   0.208   0.771
11208TIP3   OH233568   5.961   1.174   2.157
11208TIP3    H133569   5.941   1.088   2.120
11208TIP3    H233570   5.906   1.235   2.108
11209TIP3   OH233571   0.311   1.513   0.824
11209TIP3    H133572   0.310   1.418   0.813
11209TIP3    H233573   0.277   1.547   0.741
11210TIP3   OH233574   7.776   4.919   3.654
11210TIP3    H133575   7.816   4.990   3.604
11210TIP3    H233576   7.851   4.872   3.693
11211TIP3   OH233577   4.550   6.472   6.534
11211TIP3    H133578   4.475   6.415   6.548
11211TIP3    H233579   4.512   6.560   6.525
11212TIP3   OH233580   6.666   1.667   3.959
11212TIP3    H133581   6.595   1.663   4.023
11212TIP3    H233582   6.630   1.714   3.885
11213TIP3   OH233583   3.271   7.735   1.571
11213TIP3    H133584   3.345   7.743   1.511
11213TIP3    H233585   3.308   7.757   1.657
11214TIP3   OH233586   8.193   2.319   2.259
11214TIP3    H133587   8.108   2.359   2.245
11214TIP3    H233588   8.219   2.347   2.347
11215TIP3   OH233589   3.737   4.841   0.126
11215TIP3    H133590   3.781   4.803   0.203
11215TIP3    H233591   3.674   4.774   0.100
11216TIP3   OH233592   7.943   1.444   2.906
11216TIP3    H133593   7.975   1.519   2.856
11216TIP3    H233594   7.971   1.368   2.855
11217TIP3   OH233595   6.872   6.717   1.393
11217TIP3    H133596   6.922   6.636   1.394
11217TIP3    H233597   6.796   6.699   1.337
11218TIP3   OH233598   3.609   6.490   4.035
11218TIP3    H133599   3.579   6.400   4.023
11218TIP3    H233600   3.563   6.520   4.114
11219TIP3   OH233601   7.713   7.479   2.790
11219TIP3    H133602   7.807   7.491   2.778
11219TIP3    H233603   7.678   7.473   2.701
11220TIP3   OH233604   4.094   1.713   2.346
11220TIP3    H133605   4.187   1.734   2.352
11220TIP3    H233606   4.049   1.793   2.375
11221TIP3   OH233607   2.996   1.287   0.223
11221TIP3    H133608   3.026   1.292   0.132
11221TIP3    H233609   2.947   1.205   0.227
11222TIP3   OH233610   6.856   3.013   3.694
11222TIP3    H133611   6.879   3.078   3.760
11222TIP3    H233612   6.889   3.049   3.612
11223TIP3   OH233613   5.306   1.738   0.233
11223TIP3    H133614   5.387   1.701   0.268
11223TIP3    H233615   5.254   1.758   0.311
11224TIP3   OH233616   6.665   4.285   3.964
11224TIP3    H133617   6.614   4.205   3.973
11224TIP3    H233618   6.614   4.352   4.010
11225TIP3   OH233619   0.382   3.349   3.088
11225TIP3    H133620   0.475   3.364   3.101
11225TIP3    H233621   0.373   3.333   2.994
11226TIP3   OH233622   5.213   1.573   1.370
11226TIP3    H133623   5.290   1.537   1.326
11226TIP3    H233624   5.139   1.541   1.318
11227TIP3   OH233625   1.681   5.392   3.740
11227TIP3    H133626   1.651   5.483   3.747
11227TIP3    H233627   1.605   5.339   3.764
11228TIP3   OH233628   5.744   1.542   2.751
11228TIP3    H133629   5.704   1.601   2.687
11228TIP3    H233630   5.835   1.571   2.756
11229TIP3   OH233631   5.094   2.937   4.163
11229TIP3    H133632   5.181   2.958   4.129
11229TIP3    H233633   5.095   2.842   4.175
11230TIP3   OH233634   0.936   5.016   6.413
11230TIP3    H133635   0.899   5.073   6.345
11230TIP3    H233636   0.860   4.991   6.467
11231TIP3   OH233637   5.299   0.065   4.326
11231TIP3    H133638   5.300   0.161   4.328
11231TIP3    H233639   5.380   0.041   4.281
11232TIP3   OH233640   5.775   4.689   0.452
11232TIP3    H133641   5.840   4.758   0.463
11232TIP3    H233642   5.821   4.608   0.475
11233TIP3   OH233643   7.719   5.439   2.203
11233TIP3    H133644   7.663   5.396   2.139
11233TIP3    H233645   7.697   5.397   2.286
11234TIP3   OH233646   1.898   2.112   2.392
11234TIP3    H133647   1.917   2.206   2.391
11234TIP3    H233648   1.804   2.106   2.375
11235TIP3   OH233649   4.980   1.106   2.335
11235TIP3    H133650   5.048   1.159   2.375
11235TIP3    H233651   4.977   1.135   2.244
11236TIP3   OH233652   2.264   4.544   5.552
11236TIP3    H133653   2.354   4.565   5.577
11236TIP3    H233654   2.260   4.449   5.558
11237TIP3   OH233655   3.476   0.942   6.442
11237TIP3    H133656   3.526   0.916   6.364
11237TIP3    H233657   3.400   0.884   6.443
11238TIP3   OH233658   1.343   6.168   2.027
11238TIP3    H133659   1.342   6.123   1.942
11238TIP3    H233660   1.355   6.098   2.091
11239TIP3   OH233661   4.403   7.692   6.227
11239TIP3    H133662   4.416   7.666   6.136
11239TIP3    H233663   4.370   7.613   6.270
11240TIP3   OH233664   4.833   5.901   4.282
11240TIP3    H133665   4.770   5.949   4.336
11240TIP3    H233666   4.786   5.884   4.200
11241TIP3   OH233667   7.631   2.133   6.093
11241TIP3    H133668   7.632   2.204   6.029
11241TIP3    H233669   7.583   2.062   6.051
11242TIP3   OH233670   2.261   7.561   6.584
11242TIP3    H133671   2.204   7.555   6.661
11242TIP3    H233672   2.226   7.636   6.535
11243TIP3   OH233673   2.370   5.213   4.059
11243TIP3    H133674   2.446   5.206   4.002
11243TIP3    H233675   2.403   5.258   4.137
11244TIP3   OH233676   4.633   3.314   4.453
11244TIP3    H133677   4.626   3.397   4.501
11244TIP3    H233678   4.669   3.252   4.517
11245TIP3   OH233679   3.162   3.535   1.537
11245TIP3    H133680   3.191   3.467   1.477
11245TIP3    H233681   3.242   3.581   1.562
11246TIP3   OH233682   0.284   6.874   5.560
11246TIP3    H133683   0.221   6.835   5.499
11246TIP3    H233684   0.356   6.811   5.563
11247TIP3   OH233685   7.804   6.907   0.632
11247TIP3    H133686   7.814   6.999   0.656
11247TIP3    H233687   7.727   6.877   0.681
11248TIP3   OH233688   4.212   6.569   2.539
11248TIP3    H133689   4.268   6.495   2.560
11248TIP3    H233690   4.155   6.578   2.616
11249TIP3   OH233691   7.798   1.986   0.945
11249TIP3    H133692   7.712   1.963   0.980
11249TIP3    H233693   7.792   2.080   0.926
11250TIP3   OH233694   7.604   0.110   1.262
11250TIP3    H133695   7.528   0.051   1.255
11250TIP3    H233696   7.570   0.188   1.307
11251TIP3   OH233697   5.341   6.778   5.046
11251TIP3    H133698   5.373   6.730   5.123
11251TIP3    H233699   5.274   6.722   5.009
11252TIP3   OH233700   4.921   2.395   2.959
11252TIP3    H133701   4.898   2.435   2.875
11252TIP3    H233702   4.843   2.345   2.984
11253TIP3   OH233703   5.614   1.273   0.097
11253TIP3    H133704   5.561   1.344   0.060
11253TIP3    H233705   5.690   1.317   0.135
11254TIP3   OH233706   2.775   0.853   3.314
11254TIP3    H133707   2.694   0.806   3.294
11254TIP3    H233708   2.818   0.863   3.229
11255TIP3   OH233709   2.286   5.242   2.318
11255TIP3    H133710   2.322   5.163   2.360
11255TIP3    H233711   2.193   5.224   2.308
11256TIP3   OH233712   1.934   3.209   5.030
11256TIP3    H133713   1.894   3.176   5.110
11256TIP3    H233714   1.860   3.239   4.977
11257TIP3   OH233715   8.056   1.428   1.213
11257TIP3    H133716   8.067   1.337   1.189
11257TIP3    H233717   8.122   1.444   1.281
11258TIP3   OH233718   3.820   4.861   2.840
11258TIP3    H133719   3.822   4.819   2.754
11258TIP3    H233720   3.873   4.941   2.829
11259TIP3   OH233721   2.377   4.682   3.463
11259TIP3    H133722   2.384   4.772   3.497
11259TIP3    H233723   2.466   4.659   3.438
11260TIP3   OH233724   0.238   7.804   3.574
11260TIP3    H133725   0.206   7.822   3.662
11260TIP3    H233726   0.329   7.835   3.575
11261TIP3   OH233727   2.201   5.229   0.865
11261TIP3    H133728   2.213   5.278   0.946
11261TIP3    H233729   2.178   5.296   0.800
11262TIP3   OH233730   3.489   6.308   2.735
11262TIP3    H133731   3.434   6.321   2.812
11262TIP3    H233732   3.427   6.300   2.663
11263TIP3   OH233733   1.644   5.319   2.851
11263TIP3    H133734   1.560   5.315   2.805
11263TIP3    H233735   1.701   5.261   2.801
11264TIP3   OH233736   6.656   0.048   4.016
11264TIP3    H133737   6.586   0.105   4.049
11264TIP3    H233738   6.654   0.059   3.921
11265TIP3   OH233739   2.556   0.500   6.218
11265TIP3    H133740   2.594   0.416   6.242
11265TIP3    H233741   2.497   0.521   6.290
11266TIP3   OH233742   4.687   4.597   4.695
11266TIP3    H133743   4.665   4.559   4.781
11266TIP3    H233744   4.765   4.650   4.712
11267TIP3   OH233745   1.541   7.787   0.065
11267TIP3    H133746   1.628   7.825   0.052
11267TIP3    H233747   1.557   7.705   0.112
11268TIP3   OH233748   0.651   0.606   3.796
11268TIP3    H133749   0.652   0.699   3.772
11268TIP3    H233750   0.680   0.561   3.717
11269TIP3   OH233751   0.940   7.036   0.865
11269TIP3    H133752   0.867   7.030   0.803
11269TIP3    H233753   1.003   6.971   0.834
11270TIP3   OH233754   3.606   3.453   3.319
11270TIP3    H133755   3.676   3.477   3.380
11270TIP3    H233756   3.608   3.357   3.317
11271TIP3   OH233757   3.525   4.941   0.884
11271TIP3    H133758   3.471   4.883   0.937
11271TIP3    H233759   3.548   4.889   0.807
11272TIP3   OH233760   1.700   5.675   0.910
11272TIP3    H133761   1.716   5.702   1.001
11272TIP3    H233762   1.717   5.581   0.910
11273TIP3   OH233763   3.651   1.296   3.203
11273TIP3    H133764   3.700   1.214   3.204
11273TIP3    H233765   3.705   1.356   3.151
11274TIP3   OH233766   1.585   6.906   2.874
11274TIP3    H133767   1.638   6.827   2.862
11274TIP3    H233768   1.648   6.977   2.883
11275TIP3   OH233769   8.000   7.455   3.463
11275TIP3    H133770   7.909   7.472   3.439
11275TIP3    H233771   7.995   7.387   3.530
11276TIP3   OH233772   7.701   4.771   2.421
11276TIP3    H133773   7.739   4.692   2.459
11276TIP3    H233774   7.644   4.806   2.490
11277TIP3   OH233775   7.503   6.823   3.213
11277TIP3    H133776   7.560   6.887   3.171
11277TIP3    H233777   7.524   6.740   3.170
11278TIP3   OH233778   3.465   0.750   4.908
11278TIP3    H133779   3.521   0.711   4.974
11278TIP3    H233780   3.451   0.840   4.937
11279TIP3   OH233781   2.401   3.648   3.430
11279TIP3    H133782   2.427   3.656   3.521
11279TIP3    H233783   2.479   3.614   3.386
11280TIP3   OH233784   1.063   2.456   3.408
11280TIP3    H133785   1.114   2.376   3.403
11280TIP3    H233786   1.074   2.487   3.497
11281TIP3   OH233787   2.675  -0.031   1.634
11281TIP3    H133788   2.616   0.007   1.569
11281TIP3    H233789   2.658   0.019   1.714
11282TIP3   OH233790   4.835   7.114   3.389
11282TIP3    H133791   4.926   7.087   3.376
11282TIP3    H233792   4.783   7.048   3.343
11283TIP3   OH233793   6.456   1.920   6.122
11283TIP3    H133794   6.368   1.922   6.159
11283TIP3    H233795   6.505   1.863   6.181
11284TIP3   OH233796   0.247   7.317   5.337
11284TIP3    H133797   0.160   7.350   5.359
11284TIP3    H233798   0.232   7.253   5.268
11285TIP3   OH233799   3.366   2.049   5.618
11285TIP3    H133800   3.330   1.985   5.556
11285TIP3    H233801   3.391   1.998   5.695
11286TIP3   OH233802   2.991   6.481   5.592
11286TIP3    H133803   2.931   6.556   5.593
11286TIP3    H233804   2.940   6.411   5.551
11287TIP3   OH233805   6.553   5.596   1.868
11287TIP3    H133806   6.517   5.610   1.781
11287TIP3    H233807   6.610   5.671   1.883
11288TIP3   OH233808   4.659   3.046   0.983
11288TIP3    H133809   4.674   3.141   0.984
11288TIP3    H233810   4.746   3.008   0.970
11289TIP3   OH233811   8.082   0.102   3.120
11289TIP3    H133812   7.998   0.078   3.082
11289TIP3    H233813   8.060   0.145   3.203
11290TIP3   OH233814   7.868   5.248   6.300
11290TIP3    H133815   7.940   5.201   6.342
11290TIP3    H233816   7.822   5.292   6.372
11291TIP3   OH233817   4.225   1.173   6.324
11291TIP3    H133818   4.132   1.152   6.312
11291TIP3    H233819   4.267   1.088   6.336
11292TIP3   OH233820   3.218   3.385   2.743
11292TIP3    H133821   3.281   3.412   2.810
11292TIP3    H233822   3.253   3.421   2.662
11293TIP3   OH233823   7.567   2.250   1.176
11293TIP3    H133824   7.661   2.250   1.194
11293TIP3    H233825   7.539   2.160   1.193
11294TIP3   OH233826   1.101   7.826   3.613
11294TIP3    H133827   1.196   7.832   3.605
11294TIP3    H233828   1.086   7.785   3.698
11295TIP3   OH233829   4.162   6.883   3.373
11295TIP3    H133830   4.190   6.951   3.434
11295TIP3    H233831   4.237   6.870   3.315
11296TIP3   OH233832   5.690   3.523   2.899
11296TIP3    H133833   5.671   3.614   2.922
11296TIP3    H233834   5.633   3.472   2.957
11297TIP3   OH233835   5.915   1.461   0.547
11297TIP3    H133836   5.974   1.521   0.501
11297TIP3    H233837   5.936   1.375   0.512
11298TIP3   OH233838   7.042   7.596   0.559
11298TIP3    H133839   7.110   7.541   0.522
11298TIP3    H233840   6.964   7.541   0.560
11299TIP3   OH233841   8.092   3.014   3.442
11299TIP3    H133842   8.022   3.078   3.430
11299TIP3    H233843   8.144   3.048   3.515
11300TIP3   OH233844   6.989   7.155   3.551
11300TIP3    H133845   7.039   7.089   3.598
11300TIP3    H233846   7.046   7.232   3.549
11301TIP3   OH233847   3.356   0.153   5.238
11301TIP3    H133848   3.424   0.092   5.208
11301TIP3    H233849   3.404   0.221   5.285
11302TIP3   OH233850   0.284   2.920   2.234
11302TIP3    H133851   0.354   2.894   2.293
11302TIP3    H233852   0.328   2.962   2.160
11303TIP3   OH233853   4.250   5.090   4.493
11303TIP3    H133854   4.333   5.081   4.447
11303TIP3    H233855   4.244   5.011   4.547
11304TIP3   OH233856   4.830   7.134   1.544
11304TIP3    H133857   4.921   7.119   1.567
11304TIP3    H233858   4.810   7.220   1.580
11305TIP3   OH233859   6.231   0.812   2.828
11305TIP3    H133860   6.195   0.898   2.804
11305TIP3    H233861   6.285   0.787   2.753
11306TIP3   OH233862   4.425   0.185   0.639
11306TIP3    H133863   4.347   0.130   0.652
11306TIP3    H233864   4.452   0.209   0.727
11307TIP3   OH233865   6.479   4.452   2.589
11307TIP3    H133866   6.557   4.409   2.623
11307TIP3    H233867   6.414   4.382   2.584
11308TIP3   OH233868   0.152   4.000   0.940
11308TIP3    H133869   0.128   4.068   1.003
11308TIP3    H233870   0.221   4.041   0.887
11309TIP3   OH233871   4.875   3.266   2.177
11309TIP3    H133872   4.832   3.238   2.096
11309TIP3    H233873   4.852   3.358   2.186
11310TIP3   OH233874   2.178   4.430   6.005
11310TIP3    H133875   2.181   4.342   5.969
11310TIP3    H233876   2.266   4.465   5.991
11311TIP3   OH233877   2.141   1.906   0.323
11311TIP3    H133878   2.073   1.841   0.338
11311TIP3    H233879   2.219   1.855   0.302
11312TIP3   OH233880   1.271   4.488   1.674
11312TIP3    H133881   1.294   4.439   1.595
11312TIP3    H233882   1.232   4.424   1.732
11313TIP3   OH233883   3.400   4.685   2.760
11313TIP3    H133884   3.344   4.756   2.728
11313TIP3    H233885   3.436   4.718   2.842
11314TIP3   OH233886   0.967   3.740   0.180
11314TIP3    H133887   0.926   3.659   0.207
11314TIP3    H233888   0.956   3.743   0.085
11315TIP3   OH233889   1.181   7.396   6.462
11315TIP3    H133890   1.157   7.411   6.371
11315TIP3    H233891   1.260   7.448   6.475
11316TIP3   OH233892   3.656   7.421   5.115
11316TIP3    H133893   3.642   7.347   5.055
11316TIP3    H233894   3.586   7.413   5.180
11317TIP3   OH233895   5.217   7.233   5.543
11317TIP3    H133896   5.135   7.185   5.530
11317TIP3    H233897   5.258   7.233   5.457
11318TIP3   OH233898   3.025   7.523   5.336
11318TIP3    H133899   3.033   7.577   5.415
11318TIP3    H233900   3.079   7.568   5.271
11319TIP3   OH233901   1.845   3.520   5.077
11319TIP3    H133902   1.868   3.607   5.043
11319TIP3    H233903   1.923   3.467   5.060
11320TIP3   OH233904   3.163  -0.049   5.298
11320TIP3    H133905   3.233   0.010   5.271
11320TIP3    H233906   3.082  -0.003   5.273
11321TIP3   OH233907   5.123   4.199   5.141
11321TIP3    H133908   5.168   4.265   5.194
11321TIP3    H233909   5.194   4.150   5.100
11322TIP3   OH233910   3.915   3.101   0.125
11322TIP3    H133911   3.979   3.053   0.072
11322TIP3    H233912   3.831   3.080   0.085
11323TIP3   OH233913   2.983   5.572   2.716
11323TIP3    H133914   2.890   5.583   2.733
11323TIP3    H233915   2.997   5.613   2.631
11324TIP3   OH233916   1.090   0.849   2.402
11324TIP3    H133917   1.046   0.824   2.320
11324TIP3    H233918   1.085   0.945   2.403
11325TIP3   OH233919   4.836   2.399   5.056
11325TIP3    H133920   4.925   2.372   5.030
11325TIP3    H233921   4.840   2.405   5.151
11326TIP3   OH233922   6.337   2.499   2.261
11326TIP3    H133923   6.399   2.550   2.312
11326TIP3    H233924   6.268   2.561   2.237
11327TIP3   OH233925   5.796   3.340   6.245
11327TIP3    H133926   5.808   3.246   6.258
11327TIP3    H233927   5.878   3.370   6.205
11328TIP3   OH233928   2.409   4.569   2.449
11328TIP3    H133929   2.441   4.640   2.506
11328TIP3    H233930   2.474   4.500   2.459
11329TIP3   OH233931   3.631   1.680   0.171
11329TIP3    H133932   3.664   1.735   0.100
11329TIP3    H233933   3.638   1.591   0.137
11330TIP3   OH233934   6.941   0.042   2.459
11330TIP3    H133935   6.997   0.119   2.454
11330TIP3    H233936   6.890   0.044   2.378
11331TIP3   OH233937   3.957   0.309   4.000
11331TIP3    H133938   3.940   0.328   3.908
11331TIP3    H233939   4.030   0.367   4.023
11332TIP3   OH233940   7.428   0.780   6.461
11332TIP3    H133941   7.523   0.784   6.458
11332TIP3    H233942   7.402   0.744   6.376
11333TIP3   OH233943   6.830   3.495   5.788
11333TIP3    H133944   6.795   3.584   5.798
11333TIP3    H233945   6.921   3.508   5.763
11334TIP3   OH233946   8.108   4.772   1.285
11334TIP3    H133947   8.203   4.771   1.282
11334TIP3    H233948   8.087   4.816   1.368
11335TIP3   OH233949   0.278   6.500   2.100
11335TIP3    H133950   0.212   6.454   2.049
11335TIP3    H233951   0.309   6.436   2.163
11336TIP3   OH233952   4.475   7.606   5.984
11336TIP3    H133953   4.470   7.539   5.915
11336TIP3    H233954   4.567   7.606   6.010
11337TIP3   OH233955   8.205   0.379   3.445
11337TIP3    H133956   8.293   0.341   3.449
11337TIP3    H233957   8.182   0.396   3.536
11338TIP3   OH233958   8.123   1.738   1.336
11338TIP3    H133959   8.209   1.711   1.367
11338TIP3    H233960   8.139   1.774   1.249
11339TIP3   OH233961   4.580   7.698   0.101
11339TIP3    H133962   4.594   7.675   0.009
11339TIP3    H233963   4.497   7.656   0.123
11340TIP3   OH233964   4.107   2.894   2.895
11340TIP3    H133965   4.114   2.803   2.867
11340TIP3    H233966   4.037   2.930   2.840
11341TIP3   OH233967   0.426   4.096   2.502
11341TIP3    H133968   0.406   4.159   2.432
11341TIP3    H233969   0.396   4.139   2.582
11342TIP3   OH233970   5.419   1.096   0.239
11342TIP3    H133971   5.496   1.103   0.183
11342TIP3    H233972   5.399   1.186   0.265
11343TIP3   OH233973   6.622   7.009   3.225
11343TIP3    H133974   6.581   7.090   3.194
11343TIP3    H233975   6.550   6.946   3.228
11344TIP3   OH233976   0.164   1.575   6.096
11344TIP3    H133977   0.148   1.537   6.010
11344TIP3    H233978   0.259   1.586   6.101
11345TIP3   OH233979   6.055   1.382   3.895
11345TIP3    H133980   6.034   1.463   3.848
11345TIP3    H233981   6.032   1.400   3.986
11346TIP3   OH233982   6.354   6.723   6.321
11346TIP3    H133983   6.323   6.755   6.236
11346TIP3    H233984   6.316   6.784   6.384
11347TIP3   OH233985   2.867   3.894   2.804
11347TIP3    H133986   2.788   3.911   2.856
11347TIP3    H233987   2.930   3.958   2.836
11348TIP3   OH233988   1.101   3.386   0.208
11348TIP3    H133989   1.062   3.414   0.291
11348TIP3    H233990   1.195   3.386   0.224
11349TIP3   OH233991   4.068   7.376   2.110
11349TIP3    H133992   4.117   7.408   2.186
11349TIP3    H233993   4.053   7.454   2.057
11350TIP3   OH233994   6.612   2.697   0.244
11350TIP3    H133995   6.585   2.748   0.320
11350TIP3    H233996   6.683   2.642   0.276
11351TIP3   OH233997   8.259   0.899   2.026
11351TIP3    H133998   8.210   0.837   1.972
11351TIP3    H233999   8.224   0.985   2.001
11352TIP3   OH234000   1.375   4.936   4.917
11352TIP3    H134001   1.307   4.892   4.969
11352TIP3    H234002   1.421   4.864   4.873
11353TIP3   OH234003   7.750   0.306   3.177
11353TIP3    H134004   7.671   0.302   3.124
11353TIP3    H234005   7.773   0.215   3.193
11354TIP3   OH234006   0.187   4.332   1.416
11354TIP3    H134007   0.164   4.354   1.506
11354TIP3    H234008   0.120   4.269   1.389
11355TIP3   OH234009   2.803   0.998   3.640
11355TIP3    H134010   2.742   1.048   3.693
11355TIP3    H234011   2.782   0.906   3.658
11356TIP3   OH234012   4.143   6.439   0.455
11356TIP3    H134013   4.199   6.497   0.403
11356TIP3    H234014   4.156   6.468   0.545
11357TIP3   OH234015   4.826   6.904   2.413
11357TIP3    H134016   4.879   6.946   2.345
11357TIP3    H234017   4.886   6.846   2.458
11358TIP3   OH234018   3.173   4.887   0.923
11358TIP3    H134019   3.247   4.946   0.923
11358TIP3    H234020   3.176   4.844   0.838
11359TIP3   OH234021   6.070   4.900   4.911
11359TIP3    H134022   6.050   4.989   4.939
11359TIP3    H234023   6.033   4.845   4.980
11360TIP3   OH234024   1.590   0.072   0.186
11360TIP3    H134025   1.552   0.125   0.257
11360TIP3    H234026   1.554  -0.015   0.200
11361TIP3   OH234027   0.769   6.159   1.785
11361TIP3    H134028   0.825   6.082   1.796
11361TIP3    H234029   0.815   6.229   1.832
11362TIP3   OH234030   6.236   6.535   6.128
11362TIP3    H134031   6.215   6.529   6.221
11362TIP3    H234032   6.331   6.528   6.124
11363TIP3   OH234033   5.745   6.810   4.453
11363TIP3    H134034   5.738   6.744   4.384
11363TIP3    H234035   5.678   6.874   4.433
11364TIP3   OH234036   2.050   1.348   0.170
11364TIP3    H134037   2.139   1.322   0.194
11364TIP3    H234038   2.007   1.267   0.143
11365TIP3   OH234039   7.862   6.594   6.634
11365TIP3    H134040   7.870   6.637   6.719
11365TIP3    H234041   7.953   6.577   6.607
11366TIP3   OH234042   6.060   2.691   2.235
11366TIP3    H134043   6.127   2.734   2.183
11366TIP3    H234044   5.994   2.759   2.251
11367TIP3   OH234045   0.891   7.733   5.791
11367TIP3    H134046   0.925   7.660   5.740
11367TIP3    H234047   0.846   7.789   5.728
11368TIP3   OH234048   7.604   6.586   2.378
11368TIP3    H134049   7.508   6.587   2.373
11368TIP3    H234050   7.624   6.645   2.452
11369TIP3   OH234051   1.686   3.286   2.726
11369TIP3    H134052   1.690   3.232   2.647
11369TIP3    H234053   1.751   3.355   2.712
11370TIP3   OH234054   0.773   3.880   4.846
11370TIP3    H134055   0.840   3.948   4.857
11370TIP3    H234056   0.819   3.807   4.805
11371TIP3   OH234057   1.012   2.614   6.273
11371TIP3    H134058   1.006   2.521   6.294
11371TIP3    H234059   1.101   2.639   6.301
11372TIP3   OH234060   1.954   3.644   0.640
11372TIP3    H134061   2.043   3.621   0.613
11372TIP3    H234062   1.902   3.633   0.560
11373TIP3   OH234063   6.083   6.409   2.268
11373TIP3    H134064   6.088   6.415   2.173
11373TIP3    H234065   6.171   6.432   2.298
11374TIP3   OH234066   5.766   5.085   2.351
11374TIP3    H134067   5.702   5.154   2.337
11374TIP3    H234068   5.786   5.053   2.262
11375TIP3   OH234069   0.861   5.189   4.113
11375TIP3    H134070   0.907   5.118   4.159
11375TIP3    H234071   0.883   5.175   4.021
11376TIP3   OH234072   0.993   2.915   0.213
11376TIP3    H134073   0.904   2.891   0.189
11376TIP3    H234074   1.048   2.876   0.145
11377TIP3   OH234075   2.955   2.261   1.101
11377TIP3    H134076   3.014   2.210   1.156
11377TIP3    H234077   2.896   2.304   1.162
11378TIP3   OH234078   1.874   7.559   2.594
11378TIP3    H134079   1.878   7.466   2.571
11378TIP3    H234080   1.871   7.605   2.510
11379TIP3   OH234081   8.186   0.209   1.018
11379TIP3    H134082   8.109   0.226   0.963
11379TIP3    H234083   8.200   0.115   1.010
11380TIP3   OH234084   6.477   3.810   3.673
11380TIP3    H134085   6.491   3.808   3.767
11380TIP3    H234086   6.562   3.837   3.637
11381TIP3   OH234087   8.164   3.844   0.245
11381TIP3    H134088   8.194   3.917   0.192
11381TIP3    H234089   8.211   3.768   0.211
11382TIP3   OH234090   5.003   1.030   3.535
11382TIP3    H134091   4.957   1.030   3.452
11382TIP3    H234092   4.934   1.039   3.601
11383TIP3   OH234093   7.138   7.470   0.972
11383TIP3    H134094   7.222   7.427   0.956
11383TIP3    H234095   7.138   7.545   0.913
11384TIP3   OH234096   1.239   5.803   5.966
11384TIP3    H134097   1.268   5.712   5.966
11384TIP3    H234098   1.153   5.801   6.006
11385TIP3   OH234099   8.191   1.281   3.043
11385TIP3    H134100   8.234   1.362   3.017
11385TIP3    H234101   8.211   1.219   2.973
11386TIP3   OH234102   7.933   2.178   5.148
11386TIP3    H134103   7.922   2.140   5.061
11386TIP3    H234104   7.985   2.114   5.197
11387TIP3   OH234105   7.188   5.652   0.558
11387TIP3    H134106   7.096   5.674   0.540
11387TIP3    H234107   7.238   5.717   0.508
11388TIP3   OH234108   5.183   1.758   2.456
11388TIP3    H134109   5.177   1.833   2.397
11388TIP3    H234110   5.233   1.791   2.531
11389TIP3   OH234111   8.305   4.968   3.264
11389TIP3    H134112   8.318   4.951   3.357
11389TIP3    H234113   8.236   4.906   3.238
11390TIP3   OH234114   7.766   2.021   3.813
11390TIP3    H134115   7.681   2.027   3.855
11390TIP3    H234116   7.764   1.937   3.767
11391TIP3   OH234117   6.413   1.105   5.899
11391TIP3    H134118   6.387   1.021   5.860
11391TIP3    H234119   6.506   1.094   5.917
11392TIP3   OH234120   0.371   2.641   1.997
11392TIP3    H134121   0.388   2.610   1.908
11392TIP3    H234122   0.450   2.687   2.022
11393TIP3   OH234123   7.365   2.499   3.627
11393TIP3    H134124   7.392   2.407   3.633
11393TIP3    H234125   7.446   2.548   3.643
11394TIP3   OH234126   1.233   3.755   3.879
11394TIP3    H134127   1.156   3.807   3.857
11394TIP3    H234128   1.308   3.810   3.858
11395TIP3   OH234129   0.405   7.670   4.168
11395TIP3    H134130   0.393   7.688   4.075
11395TIP3    H234131   0.447   7.749   4.203
11396TIP3   OH234132   7.315   6.492   1.064
11396TIP3    H134133   7.288   6.576   1.102
11396TIP3    H234134   7.262   6.427   1.108
11397TIP3   OH234135   6.394   3.129   1.538
11397TIP3    H134136   6.363   3.114   1.449
11397TIP3    H234137   6.479   3.173   1.526
11398TIP3   OH234138   7.020   4.304  -0.008
11398TIP3    H134139   7.021   4.399  -0.005
11398TIP3    H234140   6.938   4.282  -0.052
11399TIP3   OH234141   1.819   1.756   1.960
11399TIP3    H134142   1.795   1.664   1.967
11399TIP3    H234143   1.863   1.776   2.043
11400TIP3   OH234144   1.536   7.478   5.481
11400TIP3    H134145   1.610   7.423   5.455
11400TIP3    H234146   1.459   7.436   5.442
11401TIP3   OH234147   1.340   4.121   1.509
11401TIP3    H134148   1.402   4.138   1.439
11401TIP3    H234149   1.257   4.106   1.464
11402TIP3   OH234150   2.179   3.232   6.022
11402TIP3    H134151   2.218   3.280   5.948
11402TIP3    H234152   2.216   3.274   6.100
11403TIP3   OH234153   3.942   6.923   3.734
11403TIP3    H134154   3.965   6.868   3.809
11403TIP3    H234155   3.899   6.999   3.773
11404TIP3   OH234156   6.615   0.533   6.038
11404TIP3    H134157   6.529   0.500   6.013
11404TIP3    H234158   6.637   0.484   6.117
11405TIP3   OH234159   5.591   5.955   2.650
11405TIP3    H134160   5.622   5.928   2.736
11405TIP3    H234161   5.546   5.878   2.615
11406TIP3   OH234162   0.524   4.238   6.534
11406TIP3    H134163   0.616   4.213   6.528
11406TIP3    H234164   0.486   4.176   6.596
11407TIP3   OH234165   6.055   5.719   1.280
11407TIP3    H134166   5.978   5.775   1.279
11407TIP3    H234167   6.022   5.633   1.305
11408TIP3   OH234168   4.270   5.684   0.667
11408TIP3    H134169   4.329   5.666   0.594
11408TIP3    H234170   4.183   5.690   0.627
11409TIP3   OH234171   5.729   6.413   0.953
11409TIP3    H134172   5.660   6.480   0.953
11409TIP3    H234173   5.760   6.411   0.862
11410TIP3   OH234174   8.205   3.054   5.720
11410TIP3    H134175   8.120   3.018   5.692
11410TIP3    H234176   8.269   2.995   5.682
11411TIP3   OH234177   2.929   6.168   5.100
11411TIP3    H134178   3.022   6.183   5.117
11411TIP3    H234179   2.887   6.178   5.185
11412TIP3   OH234180   0.692   4.093   2.523
11412TIP3    H134181   0.597   4.093   2.512
11412TIP3    H234182   0.714   4.002   2.543
11413TIP3   OH234183   0.240   7.806   0.529
11413TIP3    H134184   0.296   7.761   0.465
11413TIP3    H234185   0.301   7.840   0.594
11414TIP3   OH234186   7.207   0.395   6.164
11414TIP3    H134187   7.214   0.304   6.194
11414TIP3    H234188   7.113   0.408   6.150
11415TIP3   OH234189   2.631   0.826   1.849
11415TIP3    H134190   2.657   0.908   1.889
11415TIP3    H234191   2.604   0.850   1.760
11416TIP3   OH234192   6.295   3.149   0.761
11416TIP3    H134193   6.355   3.189   0.698
11416TIP3    H234194   6.347   3.081   0.804
11417TIP3   OH234195   6.260   4.681   5.301
11417TIP3    H134196   6.311   4.762   5.301
11417TIP3    H234197   6.295   4.630   5.228
11418TIP3   OH234198   4.465   7.430   4.463
11418TIP3    H134199   4.454   7.349   4.413
11418TIP3    H234200   4.462   7.402   4.554
11419TIP3   OH234201   0.528   5.909   5.493
11419TIP3    H134202   0.499   5.870   5.411
11419TIP3    H234203   0.467   5.875   5.559
11420TIP3   OH234204   0.887   6.894   0.372
11420TIP3    H134205   0.980   6.877   0.360
11420TIP3    H234206   0.845   6.809   0.361
11421TIP3   OH234207   5.168   3.249   6.541
11421TIP3    H134208   5.263   3.241   6.532
11421TIP3    H234209   5.156   3.303   6.619
11422TIP3   OH234210   0.434   6.207   5.489
11422TIP3    H134211   0.452   6.113   5.486
11422TIP3    H234212   0.457   6.238   5.401
11423TIP3   OH234213   4.494   6.413   5.743
11423TIP3    H134214   4.557   6.484   5.733
11423TIP3    H234215   4.465   6.394   5.653
11424TIP3   OH234216   6.052   4.937   2.217
11424TIP3    H134217   5.999   5.010   2.183
11424TIP3    H234218   6.142   4.970   2.214
11425TIP3   OH234219   6.263   5.010   6.522
11425TIP3    H134220   6.350   5.047   6.540
11425TIP3    H234221   6.239   5.046   6.437
11426TIP3   OH234222   0.383   6.231   5.013
11426TIP3    H134223   0.464   6.188   4.987
11426TIP3    H234224   0.329   6.229   4.934
11427TIP3   OH234225   6.584   2.217   1.873
11427TIP3    H134226   6.569   2.300   1.917
11427TIP3    H234227   6.642   2.239   1.799
11428TIP3   OH234228   0.758   0.111   2.588
11428TIP3    H134229   0.790   0.021   2.581
11428TIP3    H234230   0.808   0.159   2.522
11429TIP3   OH234231   1.472   1.759   6.082
11429TIP3    H134232   1.517   1.843   6.074
11429TIP3    H234233   1.403   1.774   6.147
11430TIP3   OH234234   4.319   0.525   1.070
11430TIP3    H134235   4.294   0.610   1.106
11430TIP3    H234236   4.290   0.528   0.979
11431TIP3   OH234237   0.416   0.891   3.991
11431TIP3    H134238   0.456   0.806   4.012
11431TIP3    H234239   0.491   0.949   3.974
11432TIP3   OH234240   7.218   5.715   4.890
11432TIP3    H134241   7.314   5.709   4.891
11432TIP3    H234242   7.190   5.637   4.842
11433TIP3   OH234243   1.245   4.822   1.832
11433TIP3    H134244   1.227   4.740   1.786
11433TIP3    H234245   1.166   4.837   1.885
11434TIP3   OH234246   5.264   2.499   5.522
11434TIP3    H134247   5.345   2.536   5.556
11434TIP3    H234248   5.284   2.477   5.431
11435TIP3   OH234249   0.760   4.383   0.857
11435TIP3    H134250   0.834   4.443   0.852
11435TIP3    H234251   0.743   4.358   0.766
11436TIP3   OH234252   3.519   4.134   6.533
11436TIP3    H134253   3.550   4.113   6.445
11436TIP3    H234254   3.445   4.074   6.547
11437TIP3   OH234255   0.796   4.219   1.088
11437TIP3    H134256   0.756   4.273   1.020
11437TIP3    H234257   0.723   4.172   1.128
11438TIP3   OH234258   7.674   7.500   0.096
11438TIP3    H134259   7.738   7.500   0.167
11438TIP3    H234260   7.599   7.452   0.132
11439TIP3   OH234261   0.436   1.548   6.682
11439TIP3    H134262   0.446   1.622   6.741
11439TIP3    H234263   0.524   1.532   6.647
11440TIP3   OH234264   5.452   4.784   0.883
11440TIP3    H134265   5.423   4.779   0.974
11440TIP3    H234266   5.513   4.711   0.873
11441TIP3   OH234267   2.490   3.322   4.868
11441TIP3    H134268   2.402   3.294   4.846
11441TIP3    H234269   2.506   3.397   4.810
11442TIP3   OH234270   6.467   3.873   6.287
11442TIP3    H134271   6.410   3.945   6.314
11442TIP3    H234272   6.495   3.833   6.369
11443TIP3   OH234273   8.169   4.393   3.052
11443TIP3    H134274   8.080   4.361   3.038
11443TIP3    H234275   8.225   4.318   3.031
11444TIP3   OH234276   5.259   1.678   6.417
11444TIP3    H134277   5.282   1.724   6.336
11444TIP3    H234278   5.222   1.595   6.388
11445TIP3   OH234279   4.579   7.853   1.770
11445TIP3    H134280   4.598   7.804   1.850
11445TIP3    H234281   4.592   7.789   1.699
11446TIP3   OH234282   7.567   0.702   2.276
11446TIP3    H134283   7.611   0.728   2.195
11446TIP3    H234284   7.639   0.693   2.340
11447TIP3   OH234285   1.314   0.865   2.771
11447TIP3    H134286   1.275   0.801   2.713
11447TIP3    H234287   1.404   0.835   2.783
11448TIP3   OH234288   7.750   5.316   6.041
11448TIP3    H134289   7.760   5.273   6.126
11448TIP3    H234290   7.792   5.256   5.979
11449TIP3   OH234291   4.203   0.667   3.234
11449TIP3    H134292   4.142   0.720   3.285
11449TIP3    H234293   4.269   0.729   3.203
11450TIP3   OH234294   0.366   0.459   6.648
11450TIP3    H134295   0.334   0.381   6.693
11450TIP3    H234296   0.319   0.458   6.564
11451TIP3   OH234297   5.696   3.614   2.318
11451TIP3    H134298   5.728   3.595   2.230
11451TIP3    H234299   5.622   3.672   2.305
11452TIP3   OH234300   5.595   6.846   2.369
11452TIP3    H134301   5.517   6.793   2.352
11452TIP3    H234302   5.667   6.783   2.366
11453TIP3   OH234303   0.233   1.073   5.468
11453TIP3    H134304   0.281   1.007   5.518
11453TIP3    H234305   0.161   1.025   5.427
11454TIP3   OH234306   3.230   6.648   5.065
11454TIP3    H134307   3.149   6.633   5.017
11454TIP3    H234308   3.298   6.655   4.998
11455TIP3   OH234309   6.508   2.208   3.058
11455TIP3    H134310   6.602   2.195   3.068
11455TIP3    H234311   6.471   2.120   3.059
11456TIP3   OH234312   5.420   6.546   0.375
11456TIP3    H134313   5.486   6.477   0.385
11456TIP3    H234314   5.469   6.624   0.350
11457TIP3   OH234315   7.684   1.435   6.062
11457TIP3    H134316   7.771   1.406   6.035
11457TIP3    H234317   7.630   1.423   5.985
11458TIP3   OH234318   6.787   6.689   3.297
11458TIP3    H134319   6.804   6.677   3.390
11458TIP3    H234320   6.700   6.730   3.293
11459TIP3   OH234321   1.822   4.861   2.571
11459TIP3    H134322   1.904   4.831   2.610
11459TIP3    H234323   1.768   4.782   2.563
11460TIP3   OH234324   1.018   5.392   0.623
11460TIP3    H134325   0.928   5.398   0.654
11460TIP3    H234326   1.010   5.352   0.537
11461TIP3   OH234327   7.131   0.131   6.262
11461TIP3    H134328   7.166   0.043   6.277
11461TIP3    H234329   7.052   0.135   6.316
11462TIP3   OH234330   0.132   1.621   4.964
11462TIP3    H134331   0.107   1.711   4.985
11462TIP3    H234332   0.228   1.623   4.962
11463TIP3   OH234333   6.193   2.068   1.800
11463TIP3    H134334   6.124   2.131   1.820
11463TIP3    H234335   6.147   1.985   1.788
11464TIP3   OH234336   0.013   4.447   6.298
11464TIP3    H134337  -0.016   4.471   6.210
11464TIP3    H234338   0.095   4.399   6.283
11465TIP3   OH234339   0.270   3.995   2.177
11465TIP3    H134340   0.230   4.073   2.214
11465TIP3    H234341   0.270   4.011   2.082
11466TIP3   OH234342   1.134   4.394   0.409
11466TIP3    H134343   1.220   4.372   0.445
11466TIP3    H234344   1.153   4.460   0.342
11467TIP3   OH234345   2.177   3.091   6.654
11467TIP3    H134346   2.102   3.063   6.603
11467TIP3    H234347   2.233   3.013   6.661
11468TIP3   OH234348   4.153   0.062   3.151
11468TIP3    H134349   4.172   0.088   3.242
11468TIP3    H234350   4.065   0.025   3.155
11469TIP3   OH234351   3.669   2.028   3.619
11469TIP3    H134352   3.627   2.039   3.534
11469TIP3    H234353   3.666   1.934   3.636
11470TIP3   OH234354   3.583   2.637   0.396
11470TIP3    H134355   3.661   2.599   0.437
11470TIP3    H234356   3.611   2.724   0.368
11471TIP3   OH234357   4.527   1.381   3.270
11471TIP3    H134358   4.523   1.474   3.294
11471TIP3    H234359   4.435   1.355   3.260
11472TIP3   OH234360   2.252   2.773   3.139
11472TIP3    H134361   2.343   2.805   3.142
11472TIP3    H234362   2.244   2.718   3.217
11473TIP3   OH234363   2.349   5.531   2.691
11473TIP3    H134364   2.407   5.498   2.623
11473TIP3    H234365   2.354   5.626   2.682
11474TIP3   OH234366   8.087   0.786   5.258
11474TIP3    H134367   8.038   0.766   5.338
11474TIP3    H234368   8.020   0.815   5.196
11475TIP3   OH234369   7.041   6.172   1.753
11475TIP3    H134370   7.106   6.242   1.748
11475TIP3    H234371   6.996   6.187   1.836
11476TIP3   OH234372   2.094   6.704   0.137
11476TIP3    H134373   2.011   6.713   0.091
11476TIP3    H234374   2.085   6.622   0.186
11477TIP3   OH234375   6.137   0.407   1.730
11477TIP3    H134376   6.074   0.453   1.786
11477TIP3    H234377   6.127   0.447   1.644
11478TIP3   OH234378   2.798   4.352   1.744
11478TIP3    H134379   2.827   4.396   1.664
11478TIP3    H234380   2.719   4.399   1.770
11479TIP3   OH234381   5.254   6.068   4.554
11479TIP3    H134382   5.194   6.001   4.521
11479TIP3    H234383   5.198   6.129   4.601
11480TIP3   OH234384   2.233   1.767   1.483
11480TIP3    H134385   2.207   1.824   1.409
11480TIP3    H234386   2.154   1.716   1.502
11481TIP3   OH234387   0.520   5.370   2.795
11481TIP3    H134388   0.611   5.359   2.823
11481TIP3    H234389   0.476   5.409   2.870
11482TIP3   OH234390   4.257   0.874   6.334
11482TIP3    H134391   4.239   0.800   6.392
11482TIP3    H234392   4.326   0.843   6.275
11483TIP3   OH234393   0.622   5.394   0.313
11483TIP3    H134394   0.709   5.429   0.292
11483TIP3    H234395   0.636   5.343   0.393
11484TIP3   OH234396   2.098   3.000   3.179
11484TIP3    H134397   2.048   2.977   3.257
11484TIP3    H234398   2.150   2.922   3.160
11485TIP3   OH234399   6.309   5.696   2.791
11485TIP3    H134400   6.346   5.628   2.735
11485TIP3    H234401   6.270   5.648   2.864
11486TIP3   OH234402   2.617   0.276   4.946
11486TIP3    H134403   2.688   0.214   4.928
11486TIP3    H234404   2.540   0.221   4.959
11487TIP3   OH234405   5.606   7.554   5.645
11487TIP3    H134406   5.585   7.467   5.611
11487TIP3    H234407   5.661   7.593   5.578
11488TIP3   OH234408   1.055   0.203   6.597
11488TIP3    H134409   1.069   0.193   6.691
11488TIP3    H234410   1.139   0.236   6.563
11489TIP3   OH234411   0.469   4.220   3.081
11489TIP3    H134412   0.487   4.241   3.172
11489TIP3    H234413   0.471   4.305   3.036
11490TIP3   OH234414   0.351   5.150   3.094
11490TIP3    H134415   0.426   5.204   3.120
11490TIP3    H234416   0.350   5.156   2.998
11491TIP3   OH234417   4.582   1.978   4.070
11491TIP3    H134418   4.598   2.072   4.071
11491TIP3    H234419   4.615   1.948   4.155
11492TIP3   OH234420   4.537   2.529   1.252
11492TIP3    H134421   4.607   2.504   1.192
11492TIP3    H234422   4.457   2.497   1.211
11493TIP3   OH234423   7.292   1.797   1.839
11493TIP3    H134424   7.352   1.723   1.847
11493TIP3    H234425   7.209   1.765   1.875
11494TIP3   OH234426   4.085   6.632   2.296
11494TIP3    H134427   4.128   6.562   2.246
11494TIP3    H234428   4.133   6.633   2.379
11495TIP3   OH234429   0.111   2.585   5.913
11495TIP3    H134430   0.033   2.621   5.870
11495TIP3    H234431   0.077   2.529   5.982
11496TIP3   OH234432   1.032   4.063   1.111
11496TIP3    H134433   1.045   3.974   1.077
11496TIP3    H234434   0.938   4.080   1.097
11497TIP3   OH234435   4.426   3.659   5.685
11497TIP3    H134436   4.514   3.690   5.664
11497TIP3    H234437   4.420   3.574   5.641
11498TIP3   OH234438   3.146   3.329   6.577
11498TIP3    H134439   3.089   3.339   6.501
11498TIP3    H234440   3.206   3.403   6.571
11499TIP3   OH234441   3.655   0.891   0.216
11499TIP3    H134442   3.596   0.852   0.152
11499TIP3    H234443   3.696   0.964   0.169
11500TIP3   OH234444   1.621   7.038   0.149
11500TIP3    H134445   1.623   7.078   0.062
11500TIP3    H234446   1.637   7.110   0.209
11501TIP3   OH234447   4.971   4.808   2.103
11501TIP3    H134448   4.890   4.849   2.135
11501TIP3    H234449   4.944   4.757   2.027
11502TIP3   OH234450   4.332   0.917   4.152
11502TIP3    H134451   4.323   0.963   4.068
11502TIP3    H234452   4.274   0.841   4.144
11503TIP3   OH234453   1.595   4.414   5.096
11503TIP3    H134454   1.573   4.502   5.124
11503TIP3    H234455   1.673   4.391   5.146
11504TIP3   OH234456   4.341   5.158   6.546
11504TIP3    H134457   4.329   5.253   6.546
11504TIP3    H234458   4.267   5.125   6.495
11505TIP3   OH234459   1.158   5.889   0.549
11505TIP3    H134460   1.149   5.981   0.527
11505TIP3    H234461   1.068   5.857   0.559
11506TIP3   OH234462   5.726   1.724   3.789
11506TIP3    H134463   5.692   1.784   3.722
11506TIP3    H234464   5.815   1.704   3.760
11507TIP3   OH234465   2.287   3.894   3.030
11507TIP3    H134466   2.285   3.990   3.028
11507TIP3    H234467   2.366   3.872   3.079
11508TIP3   OH234468   0.040   4.940   4.880
11508TIP3    H134469  -0.024   4.963   4.813
11508TIP3    H234470  -0.010   4.940   4.962
11509TIP3   OH234471   1.821   6.603   0.879
11509TIP3    H134472   1.899   6.591   0.825
11509TIP3    H234473   1.779   6.681   0.843
11510TIP3   OH234474   1.780   2.181   6.440
11510TIP3    H134475   1.792   2.158   6.532
11510TIP3    H234476   1.842   2.252   6.424
11511TIP3   OH234477   1.915   6.645   1.684
11511TIP3    H134478   1.824   6.632   1.656
11511TIP3    H234479   1.948   6.557   1.700
11512TIP3   OH234480   5.787   6.952   5.109
11512TIP3    H134481   5.803   6.880   5.047
11512TIP3    H234482   5.873   6.969   5.147
11513TIP3   OH234483   3.153   6.076   4.180
11513TIP3    H134484   3.159   6.080   4.276
11513TIP3    H234485   3.205   6.000   4.156
11514TIP3   OH234486   3.201   7.805   6.122
11514TIP3    H134487   3.292   7.829   6.136
11514TIP3    H234488   3.204   7.734   6.059
11515TIP3   OH234489   3.291   5.962   0.635
11515TIP3    H134490   3.252   5.940   0.720
11515TIP3    H234491   3.249   5.902   0.573
11516TIP3   OH234492   6.533   0.844   4.440
11516TIP3    H134493   6.485   0.905   4.384
11516TIP3    H234494   6.512   0.758   4.404
11517TIP3   OH234495   8.077   1.573   4.442
11517TIP3    H134496   8.147   1.516   4.473
11517TIP3    H234497   8.121   1.641   4.391
11518TIP3   OH234498   3.883   2.245   5.260
11518TIP3    H134499   3.843   2.309   5.201
11518TIP3    H234500   3.917   2.297   5.333
11519TIP3   OH234501   4.776   3.852   3.330
11519TIP3    H134502   4.770   3.771   3.279
11519TIP3    H234503   4.781   3.822   3.421
11520TIP3   OH234504   6.743   6.778   4.168
11520TIP3    H134505   6.711   6.753   4.255
11520TIP3    H234506   6.691   6.726   4.107
11521TIP3   OH234507   2.645   0.621   4.566
11521TIP3    H134508   2.679   0.570   4.640
11521TIP3    H234509   2.634   0.709   4.601
11522TIP3   OH234510   4.203   3.533   0.241
11522TIP3    H134511   4.174   3.478   0.168
11522TIP3    H234512   4.250   3.605   0.200
11523TIP3   OH234513   3.452   6.266   0.463
11523TIP3    H134514   3.451   6.317   0.545
11523TIP3    H234515   3.430   6.177   0.490
11524TIP3   OH234516   5.479   1.071   4.114
11524TIP3    H134517   5.402   1.073   4.059
11524TIP3    H234518   5.548   1.034   4.059
11525TIP3   OH234519   6.861   1.091   5.177
11525TIP3    H134520   6.885   0.999   5.188
11525TIP3    H234521   6.922   1.124   5.111
11526TIP3   OH234522   2.067   5.579   2.316
11526TIP3    H134523   2.017   5.497   2.319
11526TIP3    H234524   2.154   5.555   2.348
11527TIP3   OH234525   6.457   5.665   6.678
11527TIP3    H134526   6.544   5.705   6.678
11527TIP3    H234527   6.398   5.735   6.649
11528TIP3   OH234528   7.298   5.098   2.158
11528TIP3    H134529   7.283   5.060   2.071
11528TIP3    H234530   7.211   5.128   2.185
11529TIP3   OH234531   5.234   2.688   2.703
11529TIP3    H134532   5.214   2.748   2.774
11529TIP3    H234533   5.225   2.601   2.741
11530TIP3   OH234534   4.070   5.028   4.794
11530TIP3    H134535   4.050   4.961   4.860
11530TIP3    H234536   4.017   5.103   4.820
11531TIP3   OH234537   2.756   3.075   1.191
11531TIP3    H134538   2.787   3.144   1.249
11531TIP3    H234539   2.705   3.120   1.124
11532TIP3   OH234540   6.878   3.500   1.239
11532TIP3    H134541   6.960   3.513   1.192
11532TIP3    H234542   6.819   3.566   1.204
11533TIP3   OH234543   2.997   7.563   2.547
11533TIP3    H134544   2.940   7.550   2.623
11533TIP3    H234545   3.083   7.580   2.583
11534TIP3   OH234546   5.663   4.229   3.440
11534TIP3    H134547   5.724   4.280   3.387
11534TIP3    H234548   5.691   4.138   3.427
11535TIP3   OH234549   0.134   0.034   3.939
11535TIP3    H134550   0.058  -0.015   3.971
11535TIP3    H234551   0.112   0.126   3.954
11536TIP3   OH234552   7.453   0.229   3.276
11536TIP3    H134553   7.373   0.242   3.328
11536TIP3    H234554   7.445   0.140   3.241
11537TIP3   OH234555   7.431   3.644   1.893
11537TIP3    H134556   7.515   3.690   1.901
11537TIP3    H234557   7.383   3.693   1.826
11538TIP3   OH234558   6.340   6.032   2.997
11538TIP3    H134559   6.378   6.076   3.073
11538TIP3    H234560   6.277   5.970   3.035
11539TIP3   OH234561   6.585   1.212   0.725
11539TIP3    H134562   6.666   1.200   0.676
11539TIP3    H234563   6.594   1.154   0.800
11540TIP3   OH234564   4.669   2.910   4.896
11540TIP3    H134565   4.677   2.951   4.982
11540TIP3    H234566   4.731   2.837   4.899
11541TIP3   OH234567   0.818   6.200   4.249
11541TIP3    H134568   0.860   6.228   4.168
11541TIP3    H234569   0.774   6.279   4.282
11542TIP3   OH234570   2.207   0.028   1.393
11542TIP3    H134571   2.197   0.060   1.303
11542TIP3    H234572   2.158   0.089   1.447
11543TIP3   OH234573   0.309   7.266   0.952
11543TIP3    H134574   0.291   7.322   0.876
11543TIP3    H234575   0.237   7.203   0.953
11544TIP3   OH234576   2.058   4.543   3.854
11544TIP3    H134577   2.150   4.543   3.878
11544TIP3    H234578   2.039   4.451   3.834
11545TIP3   OH234579   0.032   4.983   0.116
11545TIP3    H134580   0.031   4.908   0.175
11545TIP3    H234581  -0.060   4.998   0.094
11546TIP3   OH234582   3.488   5.530   1.709
11546TIP3    H134583   3.564   5.487   1.671
11546TIP3    H234584   3.513   5.622   1.715
11547TIP3   OH234585   5.202   1.958   2.872
11547TIP3    H134586   5.174   2.046   2.900
11547TIP3    H234587   5.164   1.899   2.936
11548TIP3   OH234588   7.158   6.925   0.071
11548TIP3    H134589   7.192   6.907  -0.017
11548TIP3    H234590   7.070   6.960   0.055
11549TIP3   OH234591   5.168   3.645   2.659
11549TIP3    H134592   5.256   3.615   2.635
11549TIP3    H234593   5.130   3.571   2.706
11550TIP3   OH234594   6.149   3.551   3.638
11550TIP3    H134595   6.163   3.561   3.544
11550TIP3    H234596   6.166   3.458   3.655
11551TIP3   OH234597   1.090   2.366   1.086
11551TIP3    H134598   1.010   2.362   1.032
11551TIP3    H234599   1.153   2.412   1.031
11552TIP3   OH234600   3.227   2.314   0.209
11552TIP3    H134601   3.230   2.269   0.293
11552TIP3    H234602   3.143   2.360   0.209
11553TIP3   OH234603   7.053   3.145   6.663
11553TIP3    H134604   7.010   3.114   6.584
11553TIP3    H234605   7.145   3.121   6.652
11554TIP3   OH234606   1.690   4.561   6.455
11554TIP3    H134607   1.599   4.592   6.454
11554TIP3    H234608   1.741   4.641   6.471
11555TIP3   OH234609   5.476   3.975   3.515
11555TIP3    H134610   5.448   4.062   3.543
11555TIP3    H234611   5.493   3.928   3.597
11556TIP3   OH234612   1.618   0.651   5.545
11556TIP3    H134613   1.523   0.654   5.546
11556TIP3    H234614   1.639   0.575   5.490
11557TIP3   OH234615   5.323   2.328   1.519
11557TIP3    H134616   5.340   2.279   1.599
11557TIP3    H234617   5.250   2.386   1.541
11558TIP3   OH234618   7.456   7.059   2.263
11558TIP3    H134619   7.543   7.045   2.226
11558TIP3    H234620   7.467   7.048   2.357
11559TIP3   OH234621   6.572   7.716   5.532
11559TIP3    H134622   6.664   7.718   5.561
11559TIP3    H234623   6.522   7.735   5.611
11560TIP3   OH234624   2.742   1.077   2.611
11560TIP3    H134625   2.689   1.005   2.576
11560TIP3    H234626   2.686   1.154   2.602
11561TIP3   OH234627   4.464   0.300   1.631
11561TIP3    H134628   4.404   0.324   1.560
11561TIP3    H234629   4.441   0.209   1.650
11562TIP3   OH234630   2.363   6.857   5.920
11562TIP3    H134631   2.282   6.908   5.919
11562TIP3    H234632   2.386   6.847   5.827
11563TIP3   OH234633   6.884   7.116   0.018
11563TIP3    H134634   6.820   7.045   0.012
11563TIP3    H234635   6.854   7.181  -0.045
11564TIP3   OH234636   2.254   1.322   5.891
11564TIP3    H134637   2.240   1.404   5.937
11564TIP3    H234638   2.166   1.283   5.885
11565TIP3   OH234639   5.626   0.114   6.397
11565TIP3    H134640   5.619   0.061   6.477
11565TIP3    H234641   5.719   0.139   6.393
11566TIP3   OH234642   7.567   3.109   5.310
11566TIP3    H134643   7.648   3.088   5.263
11566TIP3    H234644   7.502   3.119   5.241
11567TIP3   OH234645   0.054   0.266   4.073
11567TIP3    H134646  -0.024   0.310   4.040
11567TIP3    H234647   0.102   0.333   4.121
11568TIP3   OH234648   6.933   5.037   6.465
11568TIP3    H134649   6.985   5.054   6.544
11568TIP3    H234650   6.900   5.123   6.440
11569TIP3   OH234651   0.575   4.588   2.309
11569TIP3    H134652   0.644   4.555   2.252
11569TIP3    H234653   0.496   4.584   2.256
11570TIP3   OH234654   6.276   3.885   2.516
11570TIP3    H134655   6.365   3.908   2.543
11570TIP3    H234656   6.285   3.855   2.426
11571TIP3   OH234657   2.063   7.260   6.634
11571TIP3    H134658   2.114   7.310   6.570
11571TIP3    H234659   2.041   7.179   6.589
11572TIP3   OH234660   5.717   2.379   2.474
11572TIP3    H134661   5.639   2.331   2.445
11572TIP3    H234662   5.707   2.467   2.436
11573TIP3   OH234663   3.490   7.508   2.284
11573TIP3    H134664   3.496   7.472   2.372
11573TIP3    H234665   3.467   7.600   2.297
11574TIP3   OH234666   5.622   1.487   1.503
11574TIP3    H134667   5.584   1.405   1.535
11574TIP3    H234668   5.714   1.467   1.489
11575TIP3   OH234669   2.133   6.831   3.032
11575TIP3    H134670   2.134   6.916   3.075
11575TIP3    H234671   2.225   6.815   3.009
11576TIP3   OH234672   0.506   5.183   3.956
11576TIP3    H134673   0.527   5.222   4.041
11576TIP3    H234674   0.418   5.215   3.938
11577TIP3   OH234675   0.395   2.991   3.582
11577TIP3    H134676   0.482   2.990   3.621
11577TIP3    H234677   0.392   2.912   3.527
11578TIP3   OH234678   1.992   4.327   1.092
11578TIP3    H134679   2.083   4.300   1.103
11578TIP3    H234680   1.979   4.396   1.157
11579TIP3   OH234681   7.294   7.675   4.535
11579TIP3    H134682   7.317   7.629   4.616
11579TIP3    H234683   7.203   7.651   4.519
11580TIP3   OH234684   5.639   2.664   0.227
11580TIP3    H134685   5.555   2.655   0.271
11580TIP3    H234686   5.649   2.583   0.178
11581TIP3   OH234687   1.258   7.803   0.293
11581TIP3    H134688   1.246   7.720   0.339
11581TIP3    H234689   1.180   7.812   0.239
11582TIP3   OH234690   4.263   6.197   0.404
11582TIP3    H134691   4.209   6.269   0.437
11582TIP3    H234692   4.317   6.237   0.336
11583TIP3   OH234693   7.177   3.449   3.326
11583TIP3    H134694   7.122   3.375   3.299
11583TIP3    H234695   7.115   3.513   3.361
11584TIP3   OH234696   7.030   6.587   3.661
11584TIP3    H134697   7.027   6.510   3.604
11584TIP3    H234698   7.121   6.590   3.692
11585TIP3   OH234699   8.277   5.776   4.877
11585TIP3    H134700   8.291   5.712   4.807
11585TIP3    H234701   8.210   5.835   4.842
11586TIP3   OH234702   0.984   0.241   1.135
11586TIP3    H134703   0.938   0.159   1.121
11586TIP3    H234704   1.076   0.215   1.148
11587TIP3   OH234705   3.870   5.397   4.881
11587TIP3    H134706   3.895   5.324   4.937
11587TIP3    H234707   3.775   5.402   4.888
11588TIP3   OH234708   1.724   4.287   3.961
11588TIP3    H134709   1.774   4.209   3.935
11588TIP3    H234710   1.722   4.340   3.881
11589TIP3   OH234711   0.726   6.790   4.018
11589TIP3    H134712   0.788   6.810   3.948
11589TIP3    H234713   0.642   6.822   3.985
11590TIP3   OH234714   4.201   5.771   1.650
11590TIP3    H134715   4.254   5.828   1.595
11590TIP3    H234716   4.120   5.757   1.601
11591TIP3   OH234717   7.107   3.139   5.066
11591TIP3    H134718   7.063   3.204   5.122
11591TIP3    H234719   7.039   3.112   5.004
11592TIP3   OH234720   3.129   5.202   1.863
11592TIP3    H134721   3.042   5.218   1.825
11592TIP3    H234722   3.190   5.242   1.801
11593TIP3   OH234723   6.877   1.014   1.032
11593TIP3    H134724   6.799   0.961   1.047
11593TIP3    H234725   6.865   1.091   1.088
11594TIP3   OH234726   1.890   0.325   4.357
11594TIP3    H134727   1.810   0.310   4.307
11594TIP3    H234728   1.918   0.238   4.384
11595TIP3   OH234729   0.737   7.218   2.168
11595TIP3    H134730   0.715   7.311   2.163
11595TIP3    H234731   0.665   7.175   2.121
11596TIP3   OH234732   4.453   3.043   1.629
11596TIP3    H134733   4.455   3.032   1.724
11596TIP3    H234734   4.540   3.015   1.600
11597TIP3   OH234735   4.420   4.008   5.857
11597TIP3    H134736   4.398   4.063   5.933
11597TIP3    H234737   4.480   4.061   5.805
11598TIP3   OH234738   6.425   5.419   6.556
11598TIP3    H134739   6.450   5.500   6.601
11598TIP3    H234740   6.337   5.400   6.588
11599TIP3   OH234741   8.100   2.643   0.828
11599TIP3    H134742   8.116   2.571   0.889
11599TIP3    H234743   8.055   2.709   0.879
11600TIP3   OH234744   0.533   4.748   1.465
11600TIP3    H134745   0.604   4.701   1.420
11600TIP3    H234746   0.502   4.687   1.532
11601TIP3   OH234747   8.071   4.392   2.759
11601TIP3    H134748   8.118   4.464   2.801
11601TIP3    H234749   8.109   4.313   2.797
11602TIP3   OH234750   6.812   3.122   2.647
11602TIP3    H134751   6.877   3.155   2.709
11602TIP3    H234752   6.751   3.195   2.635
11603TIP3   OH234753   5.560   6.383   4.818
11603TIP3    H134754   5.607   6.301   4.802
11603TIP3    H234755   5.600   6.418   4.898
11604TIP3   OH234756   7.582   0.468   3.373
11604TIP3    H134757   7.533   0.386   3.377
11604TIP3    H234758   7.660   0.447   3.321
11605TIP3   OH234759   1.342   6.908   0.113
11605TIP3    H134760   1.435   6.930   0.110
11605TIP3    H234761   1.306   6.950   0.035
11606TIP3   OH234762   4.232   4.356   5.065
11606TIP3    H134763   4.285   4.431   5.040
11606TIP3    H234764   4.162   4.353   5.000
11607TIP3   OH234765   6.990   5.481   1.244
11607TIP3    H134766   6.947   5.564   1.224
11607TIP3    H234767   6.932   5.414   1.208
11608TIP3   OH234768   1.496   0.284   5.974
11608TIP3    H134769   1.549   0.210   5.947
11608TIP3    H234770   1.525   0.304   6.063
11609TIP3   OH234771   8.285   7.468   1.939
11609TIP3    H134772   8.236   7.477   1.857
11609TIP3    H234773   8.376   7.485   1.914
11610TIP3   OH234774   2.265   2.237   5.092
11610TIP3    H134775   2.298   2.288   5.018
11610TIP3    H234776   2.284   2.146   5.068
11611TIP3   OH234777   0.658   6.815   1.153
11611TIP3    H134778   0.735   6.836   1.204
11611TIP3    H234779   0.586   6.857   1.199
11612TIP3   OH234780   3.180   1.600   3.666
11612TIP3    H134781   3.229   1.625   3.745
11612TIP3    H234782   3.242   1.548   3.615
11613TIP3   OH234783   5.646   1.008   4.947
11613TIP3    H134784   5.635   1.025   4.853
11613TIP3    H234785   5.713   1.069   4.975
11614TIP3   OH234786   2.225   6.105   4.266
11614TIP3    H134787   2.268   6.027   4.301
11614TIP3    H234788   2.138   6.076   4.239
11615TIP3   OH234789   6.706   5.652   1.415
11615TIP3    H134790   6.661   5.619   1.337
11615TIP3    H234791   6.796   5.669   1.385
11616TIP3   OH234792   7.106   6.835   6.540
11616TIP3    H134793   7.098   6.773   6.613
11616TIP3    H234794   7.085   6.783   6.462
11617TIP3   OH234795   2.581   6.977   5.715
11617TIP3    H134796   2.620   6.903   5.761
11617TIP3    H234797   2.626   7.054   5.751
11618TIP3   OH234798   6.065   7.726   4.115
11618TIP3    H134799   6.057   7.652   4.174
11618TIP3    H234800   6.097   7.798   4.171
11619TIP3   OH234801   3.709   0.498   2.548
11619TIP3    H134802   3.672   0.582   2.576
11619TIP3    H234803   3.733   0.454   2.629
11620TIP3   OH234804   3.912   1.289   0.716
11620TIP3    H134805   3.897   1.194   0.710
11620TIP3    H234806   4.001   1.297   0.751
11621TIP3   OH234807   5.636   5.010   1.417
11621TIP3    H134808   5.711   4.962   1.452
11621TIP3    H234809   5.598   4.952   1.351
11622TIP3   OH234810   2.395   2.005   5.520
11622TIP3    H134811   2.478   2.002   5.471
11622TIP3    H234812   2.338   2.060   5.467
11623TIP3   OH234813   5.664   5.031   4.804
11623TIP3    H134814   5.597   5.007   4.868
11623TIP3    H234815   5.616   5.044   4.722
11624TIP3   OH234816   8.114   5.022   4.704
11624TIP3    H134817   8.060   4.987   4.632
11624TIP3    H234818   8.063   5.094   4.739
11625TIP3   OH234819   3.264   0.012   3.535
11625TIP3    H134820   3.275   0.078   3.466
11625TIP3    H234821   3.306  -0.067   3.500
11626TIP3   OH234822   4.820   7.369   2.962
11626TIP3    H134823   4.915   7.363   2.949
11626TIP3    H234824   4.785   7.295   2.913
11627TIP3   OH234825   2.827   3.321   3.423
11627TIP3    H134826   2.912   3.339   3.464
11627TIP3    H234827   2.846   3.254   3.357
11628TIP3   OH234828   5.787   7.374   1.192
11628TIP3    H134829   5.721   7.397   1.256
11628TIP3    H234830   5.756   7.412   1.110
11629TIP3   OH234831   0.236   1.221   4.467
11629TIP3    H134832   0.155   1.173   4.485
11629TIP3    H234833   0.299   1.186   4.531
11630TIP3   OH234834   0.583   3.029   0.578
11630TIP3    H134835   0.552   3.097   0.519
11630TIP3    H234836   0.679   3.030   0.568
11631TIP3   OH234837   6.354   4.136   2.876
11631TIP3    H134838   6.348   4.216   2.928
11631TIP3    H234839   6.349   4.166   2.785
11632TIP3   OH234840   5.909   3.350   2.305
11632TIP3    H134841   5.932   3.442   2.306
11632TIP3    H234842   5.957   3.311   2.378
11633TIP3   OH234843   6.101   7.502   4.255
11633TIP3    H134844   6.023   7.451   4.235
11633TIP3    H234845   6.098   7.515   4.350
11634TIP3   OH234846   1.925   0.246   1.113
11634TIP3    H134847   2.016   0.217   1.106
11634TIP3    H234848   1.888   0.188   1.180
11635TIP3   OH234849   8.172   3.949   6.396
11635TIP3    H134850   8.189   4.043   6.402
11635TIP3    H234851   8.220   3.921   6.318
11636TIP3   OH234852   8.062   4.531   2.505
11636TIP3    H134853   8.061   4.475   2.582
11636TIP3    H234854   8.040   4.618   2.538
11637TIP3   OH234855   0.903   3.505   3.057
11637TIP3    H134856   0.896   3.568   3.129
11637TIP3    H234857   0.883   3.556   2.979
11638TIP3   OH234858   3.198   2.122   4.679
11638TIP3    H134859   3.164   2.098   4.765
11638TIP3    H234860   3.290   2.097   4.682
11639TIP3   OH234861   2.426   7.337   2.790
11639TIP3    H134862   2.497   7.286   2.750
11639TIP3    H234863   2.367   7.271   2.826
11640TIP3   OH234864   2.291   2.186   1.054
11640TIP3    H134865   2.361   2.207   0.992
11640TIP3    H234866   2.223   2.250   1.036
11641TIP3   OH234867   8.020   6.890   0.314
11641TIP3    H134868   8.014   6.967   0.371
11641TIP3    H234869   8.080   6.915   0.245
11642TIP3   OH234870   0.602   5.285   3.134
11642TIP3    H134871   0.679   5.280   3.078
11642TIP3    H234872   0.625   5.349   3.201
11643TIP3   OH234873   7.338   3.765   5.022
11643TIP3    H134874   7.343   3.775   4.927
11643TIP3    H234875   7.371   3.677   5.039
11644TIP3   OH234876   2.578   4.773   1.937
11644TIP3    H134877   2.665   4.768   1.977
11644TIP3    H234878   2.517   4.749   2.006
11645TIP3   OH234879   3.902   2.639   1.860
11645TIP3    H134880   3.900   2.630   1.956
11645TIP3    H234881   3.920   2.551   1.828
11646TIP3   OH234882   2.994   7.101   4.865
11646TIP3    H134883   2.957   7.154   4.794
11646TIP3    H234884   2.948   7.018   4.858
11647TIP3   OH234885   7.055   3.832   6.455
11647TIP3    H134886   6.968   3.850   6.492
11647TIP3    H234887   7.116   3.872   6.517
11648TIP3   OH234888   5.527   3.378   6.346
11648TIP3    H134889   5.518   3.424   6.429
11648TIP3    H234890   5.621   3.379   6.327
11649TIP3   OH234891   7.518   5.205   5.217
11649TIP3    H134892   7.552   5.221   5.129
11649TIP3    H234893   7.425   5.188   5.204
11650TIP3   OH234894   2.474   2.883   3.286
11650TIP3    H134895   2.410   2.917   3.349
11650TIP3    H234896   2.520   2.814   3.333
11651TIP3   OH234897   8.285   5.091   1.030
11651TIP3    H134898   8.218   5.121   1.092
11651TIP3    H234899   8.299   5.167   0.973
11652TIP3   OH234900   6.656   0.147   0.859
11652TIP3    H134901   6.591   0.079   0.877
11652TIP3    H234902   6.605   0.221   0.827
11653TIP3   OH234903   0.374   3.967   2.836
11653TIP3    H134904   0.404   3.886   2.793
11653TIP3    H234905   0.448   3.992   2.892
11654TIP3   OH234906   3.087   3.973   0.165
11654TIP3    H134907   3.021   3.943   0.226
11654TIP3    H234908   3.170   3.943   0.202
11655TIP3   OH234909   5.324   2.142   0.938
11655TIP3    H134910   5.270   2.207   0.894
11655TIP3    H234911   5.282   2.059   0.918
11656TIP3   OH234912   2.369   1.526   1.258
11656TIP3    H134913   2.408   1.606   1.223
11656TIP3    H234914   2.420   1.507   1.337
11657TIP3   OH234915   2.589   1.384   1.939
11657TIP3    H134916   2.543   1.383   2.023
11657TIP3    H234917   2.564   1.467   1.899
11658TIP3   OH234918   2.392   1.019   5.563
11658TIP3    H134919   2.407   0.995   5.654
11658TIP3    H234920   2.471   0.990   5.517
11659TIP3   OH234921   0.887   7.678   3.287
11659TIP3    H134922   0.849   7.740   3.350
11659TIP3    H234923   0.811   7.638   3.244
11660TIP3   OH234924   0.086   2.714   4.785
11660TIP3    H134925   0.001   2.725   4.743
11660TIP3    H234926   0.076   2.635   4.839
11661TIP3   OH234927   2.982   1.422   2.487
11661TIP3    H134928   2.956   1.455   2.401
11661TIP3    H234929   3.076   1.440   2.492
11662TIP3   OH234930   4.532   6.283   4.787
11662TIP3    H134931   4.625   6.303   4.800
11662TIP3    H234932   4.500   6.354   4.731
11663TIP3   OH234933   0.435   4.527   0.860
11663TIP3    H134934   0.372   4.598   0.847
11663TIP3    H234935   0.517   4.571   0.882
11664TIP3   OH234936   1.319   0.348   0.817
11664TIP3    H134937   1.386   0.401   0.859
11664TIP3    H234938   1.239   0.399   0.826
11665TIP3   OH234939   5.928   6.605   3.219
11665TIP3    H134940   5.979   6.612   3.138
11665TIP3    H234941   5.904   6.695   3.239
11666TIP3   OH234942   6.825   0.272   3.695
11666TIP3    H134943   6.901   0.215   3.679
11666TIP3    H234944   6.782   0.235   3.772
11667TIP3   OH234945   6.013   6.289   1.709
11667TIP3    H134946   6.007   6.374   1.665
11667TIP3    H234947   6.103   6.259   1.692
11668TIP3   OH234948   7.442   0.487   6.599
11668TIP3    H134949   7.397   0.476   6.683
11668TIP3    H234950   7.393   0.555   6.554
11669TIP3   OH234951   2.359   5.248   3.722
11669TIP3    H134952   2.275   5.292   3.725
11669TIP3    H234953   2.349   5.180   3.656
11670TIP3   OH234954   3.273   5.135   0.553
11670TIP3    H134955   3.300   5.208   0.609
11670TIP3    H234956   3.351   5.112   0.503
11671TIP3   OH234957   3.217   5.898   5.649
11671TIP3    H134958   3.224   5.984   5.691
11671TIP3    H234959   3.282   5.901   5.579
11672TIP3   OH234960   7.565   1.884   2.211
11672TIP3    H134961   7.513   1.803   2.206
11672TIP3    H234962   7.629   1.868   2.280
11673TIP3   OH234963   7.371   5.249   6.538
11673TIP3    H134964   7.451   5.270   6.490
11673TIP3    H234965   7.302   5.248   6.471
11674TIP3   OH234966   6.923   3.245   5.607
11674TIP3    H134967   6.900   3.159   5.572
11674TIP3    H234968   6.861   3.305   5.564
11675TIP3   OH234969   5.703   1.850   2.324
11675TIP3    H134970   5.721   1.844   2.418
11675TIP3    H234971   5.724   1.940   2.301
11676TIP3   OH234972   3.959   4.632   2.390
11676TIP3    H134973   4.029   4.596   2.336
11676TIP3    H234974   3.931   4.558   2.445
11677TIP3   OH234975   5.631   7.828   1.574
11677TIP3    H134976   5.682   7.906   1.593
11677TIP3    H234977   5.598   7.799   1.660
11678TIP3   OH234978   0.663   7.215   3.879
11678TIP3    H134979   0.672   7.138   3.935
11678TIP3    H234980   0.730   7.276   3.910
11679TIP3   OH234981   0.487   1.920   0.804
11679TIP3    H134982   0.405   1.969   0.800
11679TIP3    H234983   0.554   1.985   0.783
11680TIP3   OH234984   6.324   4.565   0.687
11680TIP3    H134985   6.328   4.631   0.757
11680TIP3    H234986   6.244   4.587   0.638
11681TIP3   OH234987   6.547   7.347   1.393
11681TIP3    H134988   6.510   7.411   1.454
11681TIP3    H234989   6.603   7.291   1.447
11682TIP3   OH234990   5.645   6.487   3.392
11682TIP3    H134991   5.694   6.464   3.314
11682TIP3    H234992   5.658   6.581   3.403
11683TIP3   OH234993   3.538   2.110   1.010
11683TIP3    H134994   3.465   2.167   0.986
11683TIP3    H234995   3.616   2.166   1.004
11684TIP3   OH234996   7.685   3.251   6.525
11684TIP3    H134997   7.744   3.316   6.563
11684TIP3    H234998   7.644   3.209   6.601
11685TIP3   OH234999   7.702   3.346   5.739
11685TIP3    H135000   7.660   3.414   5.792
11685TIP3    H235001   7.651   3.344   5.658
11686TIP3   OH235002   5.887   6.574   0.437
11686TIP3    H135003   5.905   6.624   0.517
11686TIP3    H235004   5.963   6.590   0.381
11687TIP3   OH235005   6.924   4.243   4.052
11687TIP3    H135006   6.965   4.186   3.988
11687TIP3    H235007   6.833   4.249   4.024
11688TIP3   OH235008   3.206   0.289   5.025
11688TIP3    H135009   3.145   0.229   5.068
11688TIP3    H235010   3.290   0.270   5.066
11689TIP3   OH235011   1.399   7.803   3.614
11689TIP3    H135012   1.476   7.748   3.622
11689TIP3    H235013   1.400   7.835   3.524
11690TIP3   OH235014   7.800   1.832   1.568
11690TIP3    H135015   7.863   1.903   1.576
11690TIP3    H235016   7.850   1.757   1.536
11691TIP3   OH235017   1.906   0.475   3.781
11691TIP3    H135018   1.822   0.509   3.750
11691TIP3    H235019   1.899   0.380   3.767
11692TIP3   OH235020   6.677   1.195   2.350
11692TIP3    H135021   6.771   1.175   2.353
11692TIP3    H235022   6.666   1.267   2.412
11693TIP3   OH235023   1.681   6.146   1.834
11693TIP3    H135024   1.673   6.071   1.776
11693TIP3    H235025   1.754   6.125   1.892
11694TIP3   OH235026   0.996   4.641   3.701
11694TIP3    H135027   1.031   4.556   3.727
11694TIP3    H235028   0.924   4.657   3.762
11695TIP3   OH235029   0.984   1.881   5.714
11695TIP3    H135030   0.955   1.862   5.803
11695TIP3    H235031   1.079   1.864   5.715
11696TIP3   OH235032   4.031   4.126   1.782
11696TIP3    H135033   4.064   4.110   1.870
11696TIP3    H235034   4.071   4.209   1.755
11697TIP3   OH235035   5.919   4.074   0.566
11697TIP3    H135036   5.992   4.134   0.581
11697TIP3    H235037   5.938   4.035   0.481
11698TIP3   OH235038   6.084   1.778   1.951
11698TIP3    H135039   6.008   1.764   2.007
11698TIP3    H235040   6.063   1.858   1.902
11699TIP3   OH235041   6.141   7.278   3.844
11699TIP3    H135042   6.181   7.298   3.759
11699TIP3    H235043   6.162   7.186   3.859
11700TIP3   OH235044   4.514   3.771   6.006
11700TIP3    H135045   4.464   3.836   5.955
11700TIP3    H235046   4.476   3.776   6.094
11701TIP3   OH235047   5.492   1.633   0.375
11701TIP3    H135048   5.560   1.686   0.334
11701TIP3    H235049   5.516   1.631   0.468
11702TIP3   OH235050   2.656   4.866   4.441
11702TIP3    H135051   2.684   4.944   4.394
11702TIP3    H235052   2.632   4.804   4.371
11703TIP3   OH235053   5.923   1.201   3.142
11703TIP3    H135054   5.911   1.235   3.053
11703TIP3    H235055   5.904   1.107   3.133
11704TIP3   OH235056   7.247   6.881   1.413
11704TIP3    H135057   7.208   6.967   1.430
11704TIP3    H235058   7.225   6.829   1.491
11705TIP3   OH235059   5.688   6.528   4.591
11705TIP3    H135060   5.677   6.476   4.670
11705TIP3    H235061   5.611   6.585   4.588
11706TIP3   OH235062   2.444   6.350   3.840
11706TIP3    H135063   2.499   6.368   3.917
11706TIP3    H235064   2.447   6.255   3.830
11707TIP3   OH235065   8.075   6.208   2.010
11707TIP3    H135066   8.128   6.196   1.931
11707TIP3    H235067   8.139   6.216   2.080
11708TIP3   OH235068   0.787   5.846   4.781
11708TIP3    H135069   0.723   5.853   4.851
11708TIP3    H235070   0.835   5.930   4.783
11709TIP3   OH235071   6.125   2.089   4.853
11709TIP3    H135072   6.116   2.031   4.778
11709TIP3    H235073   6.065   2.161   4.836
11710TIP3   OH235074   7.788   1.715   4.224
11710TIP3    H135075   7.750   1.730   4.310
11710TIP3    H235076   7.793   1.802   4.185
11711TIP3   OH235077   5.588   3.859   1.556
11711TIP3    H135078   5.503   3.852   1.601
11711TIP3    H235079   5.622   3.770   1.555
11712TIP3   OH235080   7.802   6.046   2.649
11712TIP3    H135081   7.784   6.006   2.734
11712TIP3    H235082   7.726   6.024   2.596
11713TIP3   OH235083   2.021   6.842   1.833
11713TIP3    H135084   2.053   6.785   1.902
11713TIP3    H235085   1.968   6.786   1.777
11714TIP3   OH235086   3.471   3.820   5.946
11714TIP3    H135087   3.408   3.892   5.941
11714TIP3    H235088   3.437   3.754   5.887
11715TIP3   OH235089   6.784   3.916   2.331
11715TIP3    H135090   6.846   3.884   2.397
11715TIP3    H235091   6.715   3.850   2.329
11716TIP3   OH235092   5.924   1.221   5.902
11716TIP3    H135093   5.838   1.205   5.942
11716TIP3    H235094   5.905   1.238   5.810
11717TIP3   OH235095   1.660   0.113   4.502
11717TIP3    H135096   1.722   0.040   4.509
11717TIP3    H235097   1.674   0.147   4.414
11718TIP3   OH235098   7.427   5.481   2.212
11718TIP3    H135099   7.440   5.567   2.172
11718TIP3    H235100   7.482   5.422   2.160
11719TIP3   OH235101   1.160   1.727   3.706
11719TIP3    H135102   1.105   1.735   3.627
11719TIP3    H235103   1.135   1.801   3.760
11720TIP3   OH235104   6.692   6.306   4.604
11720TIP3    H135105   6.628   6.345   4.544
11720TIP3    H235106   6.775   6.312   4.557
11721TIP3   OH235107   4.750   5.921   4.786
11721TIP3    H135108   4.816   5.880   4.731
11721TIP3    H235109   4.683   5.854   4.798
11722TIP3   OH235110   2.134   2.489   5.205
11722TIP3    H135111   2.203   2.555   5.209
11722TIP3    H235112   2.181   2.406   5.194
11723TIP3   OH235113   5.470   3.508   2.014
11723TIP3    H135114   5.379   3.487   1.993
11723TIP3    H235115   5.495   3.575   1.950
11724TIP3   OH235116   2.908   0.452   5.664
11724TIP3    H135117   2.839   0.451   5.731
11724TIP3    H235118   2.886   0.378   5.608
11725TIP3   OH235119   0.541   4.004   1.492
11725TIP3    H135120   0.571   4.092   1.512
11725TIP3    H235121   0.505   3.972   1.575
11726TIP3   OH235122   4.190   5.377   5.695
11726TIP3    H135123   4.189   5.355   5.788
11726TIP3    H235124   4.241   5.306   5.654
11727TIP3   OH235125   7.882   2.181   2.007
11727TIP3    H135126   7.955   2.208   1.951
11727TIP3    H235127   7.880   2.248   2.076
11728TIP3   OH235128   3.051   1.857   0.531
11728TIP3    H135129   3.031   1.816   0.615
11728TIP3    H235130   3.073   1.947   0.553
11729TIP3   OH235131   2.402   1.141   3.771
11729TIP3    H135132   2.481   1.177   3.732
11729TIP3    H235133   2.382   1.201   3.843
11730TIP3   OH235134   4.476   1.327   4.245
11730TIP3    H135135   4.408   1.294   4.304
11730TIP3    H235136   4.428   1.356   4.168
11731TIP3   OH235137   1.886   7.719   0.112
11731TIP3    H135138   1.928   7.783   0.168
11731TIP3    H235139   1.809   7.691   0.163
11732TIP3   OH235140   2.340   5.496   0.810
11732TIP3    H135141   2.246   5.494   0.791
11732TIP3    H235142   2.381   5.502   0.724
11733TIP3   OH235143   0.099   7.730   6.412
11733TIP3    H135144   0.004   7.742   6.419
11733TIP3    H235145   0.132   7.746   6.500
11734TIP3   OH235146   0.990   7.681   5.377
11734TIP3    H135147   1.034   7.668   5.461
11734TIP3    H235148   0.932   7.756   5.392
11735TIP3   OH235149   0.891   5.490   1.385
11735TIP3    H135150   0.961   5.509   1.447
11735TIP3    H235151   0.885   5.569   1.330
11736TIP3   OH235152   2.341   5.812   2.654
11736TIP3    H135153   2.369   5.884   2.710
11736TIP3    H235154   2.253   5.837   2.625
11737TIP3   OH235155   6.344   3.104   2.835
11737TIP3    H135156   6.334   3.009   2.829
11737TIP3    H235157   6.258   3.135   2.862
11738TIP3   OH235158   4.722   5.186   3.675
11738TIP3    H135159   4.801   5.198   3.622
11738TIP3    H235160   4.663   5.135   3.621
11739TIP3   OH235161   3.430   4.007   0.597
11739TIP3    H135162   3.349   3.984   0.644
11739TIP3    H235163   3.471   3.924   0.577
11740TIP3   OH235164   0.066   0.150   4.878
11740TIP3    H135165   0.154   0.152   4.916
11740TIP3    H235166   0.020   0.222   4.921
11741TIP3   OH235167   4.277   4.510   1.337
11741TIP3    H135168   4.362   4.549   1.360
11741TIP3    H235169   4.272   4.431   1.391
11742TIP3   OH235170   1.618   0.692   0.003
11742TIP3    H135171   1.689   0.717   0.061
11742TIP3    H235172   1.635   0.600  -0.017
11743TIP3   OH235173   0.110   0.079   0.056
11743TIP3    H135174   0.036   0.021   0.071
11743TIP3    H235175   0.161   0.036  -0.013
11744TIP3   OH235176   1.615   1.707   6.715
11744TIP3    H135177   1.661   1.744   6.791
11744TIP3    H235178   1.684   1.682   6.654
11745TIP3   OH235179   7.484   1.120   4.416
11745TIP3    H135180   7.486   1.161   4.502
11745TIP3    H235181   7.537   1.177   4.361
11746TIP3   OH235182   2.716   3.244   6.321
11746TIP3    H135183   2.742   3.158   6.287
11746TIP3    H235184   2.639   3.268   6.269
11747TIP3   OH235185   1.599   1.940   3.554
11747TIP3    H135186   1.683   1.950   3.600
11747TIP3    H235187   1.548   1.881   3.610
11748TIP3   OH235188   1.833   0.597   2.794
11748TIP3    H135189   1.803   0.603   2.885
11748TIP3    H235190   1.778   0.528   2.756
11749TIP3   OH235191   5.717   7.186   0.343
11749TIP3    H135192   5.723   7.138   0.261
11749TIP3    H235193   5.806   7.182   0.380
11750TIP3   OH235194   5.056   7.051   4.448
11750TIP3    H135195   4.982   7.060   4.388
11750TIP3    H235196   5.017   7.019   4.529
11751TIP3   OH235197   6.346   3.840   6.754
11751TIP3    H135198   6.281   3.911   6.755
11751TIP3    H235199   6.311   3.777   6.692
11752TIP3   OH235200   0.665   7.273   5.937
11752TIP3    H135201   0.704   7.307   5.856
11752TIP3    H235202   0.683   7.340   6.003
11753TIP3   OH235203   0.207   0.241   0.351
11753TIP3    H135204   0.228   0.155   0.314
11753TIP3    H235205   0.289   0.291   0.343
11754TIP3   OH235206   7.910   5.106   0.720
11754TIP3    H135207   7.905   5.014   0.746
11754TIP3    H235208   7.926   5.105   0.626
11755TIP3   OH235209   0.663   1.912   0.457
11755TIP3    H135210   0.728   1.982   0.452
11755TIP3    H235211   0.668   1.881   0.547
11756TIP3   OH235212   7.174   6.405   1.815
11756TIP3    H135213   7.133   6.483   1.776
11756TIP3    H235214   7.265   6.408   1.785
11757TIP3   OH235215   3.121   4.150   3.774
11757TIP3    H135216   3.075   4.072   3.742
11757TIP3    H235217   3.055   4.196   3.826
11758TIP3   OH235218   1.104   6.625   6.302
11758TIP3    H135219   1.035   6.596   6.362
11758TIP3    H235220   1.135   6.544   6.262
11759TIP3   OH235221   1.319   2.819   5.940
11759TIP3    H135222   1.386   2.857   5.884
11759TIP3    H235223   1.337   2.725   5.938
11760TIP3   OH235224   2.161   6.607   4.229
11760TIP3    H135225   2.245   6.651   4.239
11760TIP3    H235226   2.118   6.653   4.157
11761TIP3   OH235227   6.610   0.780   2.394
11761TIP3    H135228   6.705   0.784   2.386
11761TIP3    H235229   6.593   0.699   2.442
11762TIP3   OH235230   0.069   7.136   1.017
11762TIP3    H135231  -0.017   7.130   0.976
11762TIP3    H235232   0.078   7.054   1.066
11763TIP3   OH235233   2.496   6.577   4.474
11763TIP3    H135234   2.529   6.620   4.395
11763TIP3    H235235   2.444   6.503   4.442
11764TIP3   OH235236   4.464   5.098   3.812
11764TIP3    H135237   4.476   5.019   3.865
11764TIP3    H235238   4.552   5.130   3.796
11765TIP3   OH235239   3.249   5.527   1.852
11765TIP3    H135240   3.298   5.464   1.905
11765TIP3    H235241   3.296   5.529   1.768
11766TIP3   OH235242   6.933   7.467   5.212
11766TIP3    H135243   6.844   7.438   5.191
11766TIP3    H235244   6.933   7.477   5.308
11767TIP3   OH235245   7.974   0.489   3.095
11767TIP3    H135246   7.918   0.448   3.161
11767TIP3    H235247   8.023   0.556   3.143
11768TIP3   OH235248   3.868   2.416   1.686
11768TIP3    H135249   3.869   2.347   1.620
11768TIP3    H235250   3.787   2.402   1.735
11769TIP3   OH235251   0.552   5.935   4.133
11769TIP3    H135252   0.636   5.890   4.133
11769TIP3    H235253   0.562   6.006   4.070
11770TIP3   OH235254   7.022   4.632   2.153
11770TIP3    H135255   6.927   4.621   2.162
11770TIP3    H235256   7.048   4.567   2.088
11771TIP3   OH235257   7.763   2.366   6.466
11771TIP3    H135258   7.744   2.351   6.373
11771TIP3    H235259   7.826   2.437   6.467
11772TIP3   OH235260   4.191   1.315   1.438
11772TIP3    H135261   4.207   1.380   1.369
11772TIP3    H235262   4.173   1.234   1.391
11773TIP3   OH235263   6.229   6.796   4.073
11773TIP3    H135264   6.169   6.784   4.147
11773TIP3    H235265   6.293   6.859   4.105
11774TIP3   OH235266   5.931   7.513   3.733
11774TIP3    H135267   6.026   7.497   3.738
11774TIP3    H235268   5.918   7.594   3.782
11775TIP3   OH235269   7.113   1.050   5.307
11775TIP3    H135270   7.112   0.976   5.247
11775TIP3    H235271   7.021   1.070   5.324
11776TIP3   OH235272   6.773   3.192   0.764
11776TIP3    H135273   6.865   3.190   0.739
11776TIP3    H235274   6.737   3.110   0.730
11777TIP3   OH235275   5.430   0.182   0.948
11777TIP3    H135276   5.410   0.213   1.037
11777TIP3    H235277   5.403   0.253   0.891
11778TIP3   OH235278   6.456   0.593   0.871
11778TIP3    H135279   6.462   0.613   0.964
11778TIP3    H235280   6.539   0.623   0.834
11779TIP3   OH235281   5.693   0.993   6.304
11779TIP3    H135282   5.738   0.938   6.367
11779TIP3    H235283   5.705   1.082   6.337
11780TIP3   OH235284   4.500   0.353   2.500
11780TIP3    H135285   4.446   0.279   2.527
11780TIP3    H235286   4.589   0.318   2.494
11781TIP3   OH235287   7.080   7.481   4.954
11781TIP3    H135288   7.020   7.553   4.936
11781TIP3    H235289   7.057   7.450   5.041
11782TIP3   OH235290   1.389   5.896   2.107
11782TIP3    H135291   1.364   5.819   2.056
11782TIP3    H235292   1.312   5.916   2.160
11783TIP3   OH235293   7.072   6.901   0.498
11783TIP3    H135294   7.055   6.858   0.414
11783TIP3    H235295   7.149   6.855   0.532
11784TIP3   OH235296   8.187   5.940   4.089
11784TIP3    H135297   8.194   5.907   3.999
11784TIP3    H235298   8.265   5.994   4.100
11785TIP3   OH235299   4.097   1.779   5.315
11785TIP3    H135300   4.148   1.859   5.305
11785TIP3    H235301   4.155   1.720   5.365
11786TIP3   OH235302   4.219   2.266   5.152
11786TIP3    H135303   4.204   2.356   5.181
11786TIP3    H235304   4.198   2.267   5.059
11787TIP3   OH235305   2.242   3.398   6.267
11787TIP3    H135306   2.204   3.321   6.309
11787TIP3    H235307   2.171   3.463   6.269
11788TIP3   OH235308   8.009   6.211   1.251
11788TIP3    H135309   8.064   6.228   1.174
11788TIP3    H235310   8.035   6.123   1.280
11789TIP3   OH235311   5.053   5.681   1.891
11789TIP3    H135312   5.140   5.710   1.919
11789TIP3    H235313   5.020   5.630   1.965
11790TIP3   OH235314   6.832   3.660   4.670
11790TIP3    H135315   6.897   3.614   4.618
11790TIP3    H235316   6.875   3.740   4.699
11791TIP3   OH235317   1.186   7.465   0.873
11791TIP3    H135318   1.179   7.370   0.881
11791TIP3    H235319   1.280   7.482   0.872
11792TIP3   OH235320   3.841   4.926   1.028
11792TIP3    H135321   3.779   4.882   1.086
11792TIP3    H235322   3.786   4.965   0.960
11793TIP3   OH235323   5.832   4.039   1.211
11793TIP3    H135324   5.853   4.125   1.175
11793TIP3    H235325   5.789   3.992   1.140
11794TIP3   OH235326   2.896   5.694   0.977
11794TIP3    H135327   2.885   5.689   1.072
11794TIP3    H235328   2.865   5.609   0.945
11795TIP3   OH235329   2.512   7.166   1.409
11795TIP3    H135330   2.532   7.087   1.360
11795TIP3    H235331   2.470   7.135   1.489
11796TIP3   OH235332   7.260   2.937   4.760
11796TIP3    H135333   7.227   2.900   4.842
11796TIP3    H235334   7.197   2.907   4.694
11797TIP3   OH235335   6.691   7.285   4.277
11797TIP3    H135336   6.722   7.370   4.249
11797TIP3    H235337   6.670   7.296   4.370
11798TIP3   OH235338   4.200   4.814   5.351
11798TIP3    H135339   4.295   4.822   5.341
11798TIP3    H235340   4.188   4.737   5.407
11799TIP3   OH235341   5.137   0.918   5.223
11799TIP3    H135342   5.090   0.865   5.159
11799TIP3    H235343   5.079   0.923   5.299
11800TIP3   OH235344   3.393   5.436   2.578
11800TIP3    H135345   3.416   5.359   2.630
11800TIP3    H235346   3.314   5.471   2.619
11801TIP3   OH235347   5.267   5.695   3.375
11801TIP3    H135348   5.238   5.719   3.463
11801TIP3    H235349   5.312   5.773   3.342
11802TIP3   OH235350   4.686   4.996   1.087
11802TIP3    H135351   4.707   5.084   1.118
11802TIP3    H235352   4.596   4.981   1.116
11803TIP3   OH235353   3.417   2.368   0.645
11803TIP3    H135354   3.426   2.376   0.740
11803TIP3    H235355   3.362   2.442   0.620
11804TIP3   OH235356   6.948   4.325   3.419
11804TIP3    H135357   6.960   4.286   3.506
11804TIP3    H235358   6.863   4.293   3.389
11805TIP3   OH235359   2.677   1.451   6.264
11805TIP3    H135360   2.718   1.384   6.318
11805TIP3    H235361   2.595   1.410   6.235
11806TIP3   OH235362   1.034   1.730   2.011
11806TIP3    H135363   1.102   1.783   1.968
11806TIP3    H235364   1.076   1.645   2.024
11807TIP3   OH235365   4.575   3.097   5.906
11807TIP3    H135366   4.622   3.163   5.957
11807TIP3    H235367   4.642   3.057   5.851
11808TIP3   OH235368   2.865   4.398   3.514
11808TIP3    H135369   2.900   4.451   3.586
11808TIP3    H235370   2.788   4.447   3.485
11809TIP3   OH235371   2.847   4.111   0.864
11809TIP3    H135372   2.782   4.140   0.801
11809TIP3    H235373   2.797   4.096   0.945
11810TIP3   OH235374   3.066   6.103   0.485
11810TIP3    H135375   3.135   6.068   0.429
11810TIP3    H235376   3.029   6.026   0.528
11811TIP3   OH235377   7.836   2.216   1.222
11811TIP3    H135378   7.911   2.275   1.227
11811TIP3    H235379   7.872   2.129   1.238
11812TIP3   OH235380   5.186   0.593   4.927
11812TIP3    H135381   5.098   0.599   4.888
11812TIP3    H235382   5.215   0.504   4.908
11813TIP3   OH235383   0.629   4.647   4.854
11813TIP3    H135384   0.541   4.630   4.889
11813TIP3    H235385   0.614   4.675   4.764
11814TIP3   OH235386   4.650   0.143   6.330
11814TIP3    H135387   4.571   0.134   6.276
11814TIP3    H235388   4.621   0.125   6.419
11815TIP3   OH235389   1.492   6.465   1.930
11815TIP3    H135390   1.408   6.443   1.970
11815TIP3    H235391   1.492   6.418   1.847
11816TIP3   OH235392   2.056   6.888   5.724
11816TIP3    H135393   2.097   6.965   5.762
11816TIP3    H235394   1.970   6.883   5.766
11817TIP3   OH235395   2.404   4.450   4.189
11817TIP3    H135396   2.489   4.414   4.162
11817TIP3    H235397   2.383   4.402   4.270
11818TIP3   OH235398   0.280   0.167   4.240
11818TIP3    H135399   0.193   0.155   4.202
11818TIP3    H235400   0.267   0.229   4.312
11819TIP3   OH235401   6.812   7.117   6.345
11819TIP3    H135402   6.775   7.081   6.426
11819TIP3    H235403   6.906   7.113   6.358
11820TIP3   OH235404   3.793   3.648   4.453
11820TIP3    H135405   3.876   3.602   4.442
11820TIP3    H235406   3.730   3.598   4.401
11821TIP3   OH235407   6.347   6.483   2.402
11821TIP3    H135408   6.393   6.416   2.453
11821TIP3    H235409   6.389   6.565   2.428
11822TIP3   OH235410   4.599   1.614   5.980
11822TIP3    H135411   4.629   1.678   5.916
11822TIP3    H235412   4.622   1.653   6.065
11823TIP3   OH235413   3.315   3.896   4.399
11823TIP3    H135414   3.257   3.820   4.405
11823TIP3    H235415   3.262   3.969   4.431
11824TIP3   OH235416   3.155   0.407   1.792
11824TIP3    H135417   3.152   0.408   1.887
11824TIP3    H235418   3.167   0.499   1.767
11825TIP3   OH235419   6.073   6.669   5.105
11825TIP3    H135420   6.068   6.761   5.080
11825TIP3    H235421   6.167   6.651   5.110
11826TIP3   OH235422   6.615   0.228   2.246
11826TIP3    H135423   6.674   0.289   2.289
11826TIP3    H235424   6.668   0.188   2.177
11827TIP3   OH235425   2.840   1.238   3.134
11827TIP3    H135426   2.759   1.211   3.177
11827TIP3    H235427   2.909   1.207   3.191
11828TIP3   OH235428   2.629   7.349   0.255
11828TIP3    H135429   2.539   7.321   0.242
11828TIP3    H235430   2.670   7.278   0.304
11829TIP3   OH235431   4.836   7.412   4.792
11829TIP3    H135432   4.766   7.476   4.780
11829TIP3    H235433   4.899   7.434   4.724
11830TIP3   OH235434   2.331   5.815   3.606
11830TIP3    H135435   2.318   5.721   3.610
11830TIP3    H235436   2.282   5.843   3.529
11831TIP3   OH235437   5.353   3.939   5.855
11831TIP3    H135438   5.386   4.018   5.898
11831TIP3    H235439   5.422   3.874   5.868
11832TIP3   OH235440   6.236   5.287   3.762
11832TIP3    H135441   6.277   5.335   3.834
11832TIP3    H235442   6.231   5.351   3.690
11833TIP3   OH235443   7.396   6.863   4.734
11833TIP3    H135444   7.431   6.803   4.800
11833TIP3    H235445   7.435   6.948   4.756
11834TIP3   OH235446   7.296   7.151   3.111
11834TIP3    H135447   7.249   7.088   3.057
11834TIP3    H235448   7.272   7.130   3.201
11835TIP3   OH235449   7.346   5.513   5.558
11835TIP3    H135450   7.288   5.582   5.591
11835TIP3    H235451   7.287   5.444   5.529
11836TIP3   OH235452   6.838   5.864   6.021
11836TIP3    H135453   6.771   5.890   6.085
11836TIP3    H235454   6.789   5.833   5.946
11837TIP3   OH235455   0.093   2.099   6.588
11837TIP3    H135456   0.040   2.022   6.568
11837TIP3    H235457   0.078   2.116   6.681
11838TIP3   OH235458   7.193   1.426   5.016
11838TIP3    H135459   7.111   1.447   4.973
11838TIP3    H235460   7.247   1.504   5.003
11839TIP3   OH235461   6.913   2.815   0.099
11839TIP3    H135462   6.840   2.876   0.112
11839TIP3    H235463   6.882   2.755   0.030
11840TIP3   OH235464   3.039   0.829   1.511
11840TIP3    H135465   2.980   0.868   1.576
11840TIP3    H235466   3.103   0.897   1.493
11841TIP3   OH235467   4.093   1.946   2.091
11841TIP3    H135468   4.164   1.948   2.026
11841TIP3    H235469   4.022   1.898   2.049
11842TIP3   OH235470   5.237   4.416   0.320
11842TIP3    H135471   5.182   4.340   0.302
11842TIP3    H235472   5.182   4.491   0.296
11843TIP3   OH235473   0.945   0.754   3.905
11843TIP3    H135474   0.957   0.697   3.981
11843TIP3    H235475   0.921   0.695   3.834
11844TIP3   OH235476   4.671   5.173   1.974
11844TIP3    H135477   4.721   5.238   1.925
11844TIP3    H235478   4.593   5.220   2.003
11845TIP3   OH235479   2.046   6.589   5.865
11845TIP3    H135480   1.984   6.536   5.815
11845TIP3    H235481   2.063   6.664   5.809
11846TIP3   OH235482   8.278   4.615   4.554
11846TIP3    H135483   8.241   4.545   4.608
11846TIP3    H235484   8.371   4.616   4.576
11847TIP3   OH235485   0.986   1.319   1.156
11847TIP3    H135486   0.894   1.328   1.179
11847TIP3    H235487   1.004   1.392   1.097
11848TIP3   OH235488   3.605   2.610   3.349
11848TIP3    H135489   3.563   2.525   3.357
11848TIP3    H235490   3.643   2.627   3.435
11849TIP3   OH235491   1.562   0.595   4.724
11849TIP3    H135492   1.617   0.560   4.654
11849TIP3    H235493   1.532   0.680   4.690
11850TIP3   OH235494   6.118   5.343   3.313
11850TIP3    H135495   6.032   5.354   3.271
11850TIP3    H235496   6.172   5.301   3.246
11851TIP3   OH235497   1.995   2.385   4.254
11851TIP3    H135498   1.994   2.476   4.285
11851TIP3    H235499   1.906   2.354   4.271
11852TIP3   OH235500   3.846   5.289   3.688
11852TIP3    H135501   3.863   5.243   3.770
11852TIP3    H235502   3.894   5.239   3.622
11853TIP3   OH235503   4.711   0.426   5.984
11853TIP3    H135504   4.746   0.339   5.962
11853TIP3    H235505   4.697   0.468   5.900
11854TIP3   OH235506   3.186   3.657   4.476
11854TIP3    H135507   3.157   3.566   4.476
11854TIP3    H235508   3.264   3.657   4.531
11855TIP3   OH235509   3.492   2.213   5.305
11855TIP3    H135510   3.536   2.296   5.286
11855TIP3    H235511   3.530   2.184   5.388
11856TIP3   OH235512   1.144   1.248   2.808
11856TIP3    H135513   1.138   1.155   2.786
11856TIP3    H235514   1.234   1.258   2.841
11857TIP3   OH235515   0.351   0.905   3.012
11857TIP3    H135516   0.280   0.848   2.985
11857TIP3    H235517   0.307   0.981   3.051
11858TIP3   OH235518   4.548   5.999   0.604
11858TIP3    H135519   4.481   6.007   0.671
11858TIP3    H235520   4.528   5.916   0.560
11859TIP3   OH235521   4.716   7.397   4.024
11859TIP3    H135522   4.641   7.419   3.969
11859TIP3    H235523   4.721   7.469   4.088
11860TIP3   OH235524   2.088   5.644   3.714
11860TIP3    H135525   2.097   5.600   3.629
11860TIP3    H235526   2.162   5.612   3.765
11861TIP3   OH235527   3.080   1.506   6.692
11861TIP3    H135528   3.079   1.450   6.614
11861TIP3    H235529   3.098   1.446   6.764
11862TIP3   OH235530   3.334   6.010   0.923
11862TIP3    H135531   3.405   5.947   0.933
11862TIP3    H235532   3.257   5.966   0.960
11863TIP3   OH235533   3.667   2.710   4.524
11863TIP3    H135534   3.755   2.737   4.551
11863TIP3    H235535   3.678   2.681   4.433
11864TIP3   OH235536   7.933   7.449   4.820
11864TIP3    H135537   7.842   7.455   4.847
11864TIP3    H235538   7.939   7.366   4.773
11865TIP3   OH235539   4.918   7.366   5.677
11865TIP3    H135540   4.966   7.284   5.664
11865TIP3    H235541   4.905   7.372   5.771
11866TIP3   OH235542   3.985   4.754   0.312
11866TIP3    H135543   3.982   4.849   0.325
11866TIP3    H235544   4.035   4.743   0.231
11867TIP3   OH235545   2.060   6.706   6.506
11867TIP3    H135546   2.037   6.713   6.413
11867TIP3    H235547   2.022   6.622   6.533
11868TIP3   OH235548   7.215   1.746   0.920
11868TIP3    H135549   7.170   1.806   0.979
11868TIP3    H235550   7.255   1.804   0.854
11869TIP3   OH235551   6.239   7.560   5.046
11869TIP3    H135552   6.294   7.607   5.108
11869TIP3    H235553   6.290   7.484   5.021
11870TIP3   OH235554   5.189   2.282   5.072
11870TIP3    H135555   5.268   2.228   5.067
11870TIP3    H235556   5.180   2.320   4.984
11871TIP3   OH235557   5.515   4.006   2.954
11871TIP3    H135558   5.448   3.960   2.902
11871TIP3    H235559   5.488   4.098   2.951
11872TIP3   OH235560   5.316   3.754   4.691
11872TIP3    H135561   5.347   3.837   4.726
11872TIP3    H235562   5.267   3.777   4.613
11873TIP3   OH235563   0.440   1.804   4.816
11873TIP3    H135564   0.473   1.725   4.860
11873TIP3    H235565   0.387   1.848   4.883
11874TIP3   OH235566   3.631   2.548   6.235
11874TIP3    H135567   3.693   2.518   6.168
11874TIP3    H235568   3.605   2.469   6.281
11875TIP3   OH235569   6.878   3.451   2.174
11875TIP3    H135570   6.914   3.525   2.223
11875TIP3    H235571   6.950   3.389   2.167
11876TIP3   OH235572   0.603   7.598   0.409
11876TIP3    H135573   0.643   7.528   0.357
11876TIP3    H235574   0.522   7.559   0.443
11877TIP3   OH235575   7.626   2.178   0.509
11877TIP3    H135576   7.654   2.239   0.576
11877TIP3    H235577   7.689   2.106   0.514
11878TIP3   OH235578   4.193   0.523   5.866
11878TIP3    H135579   4.148   0.484   5.791
11878TIP3    H235580   4.241   0.450   5.906
11879TIP3   OH235581   6.698   6.229   1.442
11879TIP3    H135582   6.682   6.135   1.432
11879TIP3    H235583   6.689   6.245   1.536
11880TIP3   OH235584   6.481   0.156   0.226
11880TIP3    H135585   6.442   0.180   0.310
11880TIP3    H235586   6.533   0.078   0.245
11881TIP3   OH235587   5.775   6.208   5.590
11881TIP3    H135588   5.791   6.303   5.587
11881TIP3    H235589   5.732   6.195   5.674
11882TIP3   OH235590   2.683   1.600   6.780
11882TIP3    H135591   2.618   1.560   6.838
11882TIP3    H235592   2.631   1.655   6.721
11883TIP3   OH235593   4.683   1.757   1.914
11883TIP3    H135594   4.687   1.740   2.008
11883TIP3    H235595   4.608   1.706   1.883
11884TIP3   OH235596   1.487   4.666   0.258
11884TIP3    H135597   1.564   4.627   0.217
11884TIP3    H235598   1.486   4.756   0.227
11885TIP3   OH235599   3.335   1.731   6.200
11885TIP3    H135600   3.428   1.752   6.194
11885TIP3    H235601   3.309   1.711   6.110
11886TIP3   OH235602   4.636   7.318   6.209
11886TIP3    H135603   4.659   7.292   6.298
11886TIP3    H235604   4.628   7.414   6.214
11887TIP3   OH235605   5.746   7.308   5.010
11887TIP3    H135606   5.702   7.325   5.094
11887TIP3    H235607   5.705   7.369   4.949
11888TIP3   OH235608   0.721   7.834   5.572
11888TIP3    H135609   0.634   7.862   5.601
11888TIP3    H235610   0.705   7.755   5.520
11889TIP3   OH235611   7.368   7.294   4.567
11889TIP3    H135612   7.359   7.216   4.512
11889TIP3    H235613   7.413   7.264   4.645
11890TIP3   OH235614   5.825   4.576   1.530
11890TIP3    H135615   5.853   4.527   1.453
11890TIP3    H235616   5.820   4.510   1.600
11891TIP3   OH235617   4.566   4.006   2.446
11891TIP3    H135618   4.600   3.953   2.518
11891TIP3    H235619   4.487   4.046   2.482
11892TIP3   OH235620   2.377   6.577   5.292
11892TIP3    H135621   2.369   6.486   5.264
11892TIP3    H235622   2.331   6.580   5.376
11893TIP3   OH235623   4.551   7.118   3.493
11893TIP3    H135624   4.517   7.196   3.451
11893TIP3    H235625   4.592   7.068   3.422
11894TIP3   OH235626   1.728   4.036   4.407
11894TIP3    H135627   1.823   4.037   4.399
11894TIP3    H235628   1.697   4.047   4.317
11895TIP3   OH235629   5.952   6.054   5.401
11895TIP3    H135630   5.916   6.065   5.489
11895TIP3    H235631   5.942   5.960   5.383
11896TIP3   OH235632   3.782   4.392   0.415
11896TIP3    H135633   3.714   4.327   0.438
11896TIP3    H235634   3.815   4.422   0.499
11897TIP3   OH235635   5.192   2.692   4.270
11897TIP3    H135636   5.286   2.709   4.258
11897TIP3    H235637   5.171   2.731   4.354
11898TIP3   OH235638   3.038   6.552   3.458
11898TIP3    H135639   3.103   6.621   3.441
11898TIP3    H235640   3.026   6.553   3.553
11899TIP3   OH235641   0.988   3.589   1.212
11899TIP3    H135642   1.012   3.513   1.264
11899TIP3    H235643   1.068   3.612   1.165
11900TIP3   OH235644   3.125   2.910   5.418
11900TIP3    H135645   3.078   2.834   5.453
11900TIP3    H235646   3.217   2.889   5.430
11901TIP3   OH235647   2.647   4.438   3.745
11901TIP3    H135648   2.676   4.347   3.741
11901TIP3    H235649   2.568   4.441   3.691
11902TIP3   OH235650   7.401   6.227   6.035
11902TIP3    H135651   7.493   6.222   6.058
11902TIP3    H235652   7.367   6.139   6.053
11903TIP3   OH235653   4.516   1.128   0.802
11903TIP3    H135654   4.567   1.094   0.875
11903TIP3    H235655   4.486   1.050   0.755
11904TIP3   OH235656   0.969   6.055   5.532
11904TIP3    H135657   0.914   6.023   5.603
11904TIP3    H235658   1.031   5.984   5.516
11905TIP3   OH235659   5.803   0.699   5.587
11905TIP3    H135660   5.885   0.743   5.564
11905TIP3    H235661   5.822   0.654   5.670
11906TIP3   OH235662   1.935   2.141   6.670
11906TIP3    H135663   2.000   2.153   6.601
11906TIP3    H235664   1.960   2.059   6.712
11907TIP3   OH235665   7.066   5.006   0.970
11907TIP3    H135666   7.139   5.052   0.930
11907TIP3    H235667   7.077   4.915   0.945
11908TIP3   OH235668   7.049   5.437   0.358
11908TIP3    H135669   7.137   5.449   0.394
11908TIP3    H235670   7.056   5.469   0.268
11909TIP3   OH235671   7.397   4.603   2.412
11909TIP3    H135672   7.336   4.560   2.353
11909TIP3    H235673   7.452   4.532   2.447
11910TIP3   OH235674   6.121   4.634   1.355
11910TIP3    H135675   6.161   4.605   1.273
11910TIP3    H235676   6.051   4.571   1.371
11911TIP3   OH235677   4.139   1.230   2.011
11911TIP3    H135678   4.146   1.224   2.106
11911TIP3    H235679   4.222   1.195   1.979
11912TIP3   OH235680   2.778   3.881   2.210
11912TIP3    H135681   2.862   3.835   2.208
11912TIP3    H235682   2.717   3.821   2.168
11913TIP3   OH235683   5.413   4.078   0.465
11913TIP3    H135684   5.356   4.116   0.531
11913TIP3    H235685   5.376   4.107   0.381
11914TIP3   OH235686   0.214   5.020   4.045
11914TIP3    H135687   0.263   4.969   3.981
11914TIP3    H235688   0.128   4.978   4.049
11915TIP3   OH235689   6.520   0.480   2.426
11915TIP3    H135690   6.577   0.491   2.503
11915TIP3    H235691   6.479   0.395   2.439
11916TIP3   OH235692   2.772   6.389   4.954
11916TIP3    H135693   2.727   6.380   5.037
11916TIP3    H235694   2.858   6.349   4.968
11917TIP3   OH235695   0.506   2.069   2.270
11917TIP3    H135696   0.440   2.002   2.251
11917TIP3    H235697   0.548   2.086   2.186
11918TIP3   OH235698   7.516   6.176   3.072
11918TIP3    H135699   7.483   6.143   3.156
11918TIP3    H235700   7.609   6.192   3.088
11919TIP3   OH235701   0.839   4.830   1.407
11919TIP3    H135702   0.898   4.759   1.381
11919TIP3    H235703   0.752   4.800   1.382
11920TIP3   OH235704   7.318   3.213   0.770
11920TIP3    H135705   7.353   3.232   0.682
11920TIP3    H235706   7.352   3.127   0.792
11921TIP3   OH235707   2.457   2.782   6.320
11921TIP3    H135708   2.369   2.752   6.295
11921TIP3    H235709   2.508   2.702   6.328
11922TIP3   OH235710   3.666   4.294   1.004
11922TIP3    H135711   3.693   4.361   0.942
11922TIP3    H235712   3.656   4.215   0.952
11923TIP3   OH235713   1.423   4.193   3.050
11923TIP3    H135714   1.371   4.274   3.055
11923TIP3    H235715   1.497   4.216   2.994
11924TIP3   OH235716   5.477   1.798   0.996
11924TIP3    H135717   5.489   1.835   0.909
11924TIP3    H235718   5.425   1.864   1.043
11925TIP3   OH235719   1.319   4.840   0.978
11925TIP3    H135720   1.308   4.916   0.920
11925TIP3    H235721   1.400   4.858   1.026
11926TIP3   OH235722   7.704   7.692   5.666
11926TIP3    H135723   7.616   7.655   5.678
11926TIP3    H235724   7.697   7.781   5.701
11927TIP3   OH235725   0.095   3.500   1.597
11927TIP3    H135726   0.132   3.506   1.509
11927TIP3    H235727   0.059   3.411   1.602
11928TIP3   OH235728   6.500   3.135   1.820
11928TIP3    H135729   6.479   3.048   1.853
11928TIP3    H235730   6.467   3.136   1.730
11929TIP3   OH235731   4.180   1.487   4.076
11929TIP3    H135732   4.131   1.498   4.157
11929TIP3    H235733   4.193   1.393   4.069
11930TIP3   OH235734   3.250   0.641   1.436
11930TIP3    H135735   3.229   0.691   1.515
11930TIP3    H235736   3.192   0.676   1.368
11931TIP3   OH235737   3.782   7.434   5.865
11931TIP3    H135738   3.760   7.342   5.854
11931TIP3    H235739   3.821   7.439   5.952
11932TIP3   OH235740   0.767   2.138   4.427
11932TIP3    H135741   0.795   2.191   4.501
11932TIP3    H235742   0.786   2.048   4.454
11933TIP3   OH235743   5.149   1.267   1.851
11933TIP3    H135744   5.233   1.288   1.892
11933TIP3    H235745   5.156   1.305   1.763
11934TIP3   OH235746   5.222   6.522   5.940
11934TIP3    H135747   5.297   6.583   5.936
11934TIP3    H235748   5.145   6.579   5.937
11935TIP3   OH235749   2.529   1.718   1.111
11935TIP3    H135750   2.563   1.802   1.078
11935TIP3    H235751   2.605   1.660   1.111
11936TIP3   OH235752   5.758   5.779   5.421
11936TIP3    H135753   5.700   5.737   5.485
11936TIP3    H235754   5.711   5.858   5.395
11937TIP3   OH235755   6.748   0.752   3.680
11937TIP3    H135756   6.732   0.667   3.640
11937TIP3    H235757   6.663   0.778   3.716
11938TIP3   OH235758   2.749   2.193   5.750
11938TIP3    H135759   2.689   2.266   5.735
11938TIP3    H235760   2.743   2.176   5.844
11939TIP3   OH235761   7.425   7.350   0.057
11939TIP3    H135762   7.332   7.333   0.044
11939TIP3    H235763   7.468   7.309  -0.018
11940TIP3   OH235764   2.292   6.456   6.681
11940TIP3    H135765   2.234   6.445   6.606
11940TIP3    H235766   2.294   6.370   6.723
11941TIP3   OH235767   8.111   0.901   4.482
11941TIP3    H135768   8.071   0.839   4.541
11941TIP3    H235769   8.086   0.871   4.394
11942TIP3   OH235770   4.075   4.454   3.088
11942TIP3    H135771   4.169   4.453   3.102
11942TIP3    H235772   4.064   4.476   2.995
11943TIP3   OH235773   2.182   6.461   6.101
11943TIP3    H135774   2.161   6.514   6.025
11943TIP3    H235775   2.134   6.379   6.089
11944TIP3   OH235776   1.026   3.850   2.031
11944TIP3    H135777   1.064   3.930   1.994
11944TIP3    H235778   1.035   3.860   2.126
11945TIP3   OH235779   4.139   2.631   2.822
11945TIP3    H135780   4.142   2.594   2.734
11945TIP3    H235781   4.055   2.602   2.858
11946TIP3   OH235782   1.455   1.267   6.410
11946TIP3    H135783   1.483   1.339   6.354
11946TIP3    H235784   1.483   1.188   6.363
11947TIP3   OH235785   7.217   1.483   2.320
11947TIP3    H135786   7.141   1.456   2.268
11947TIP3    H235787   7.225   1.577   2.302
11948TIP3   OH235788   1.071   2.388   2.328
11948TIP3    H135789   1.057   2.303   2.286
11948TIP3    H235790   1.084   2.449   2.255
11949TIP3   OH235791   2.103   4.605   6.204
11949TIP3    H135792   2.121   4.525   6.155
11949TIP3    H235793   2.109   4.578   6.296
11950TIP3   OH235794   0.683   0.859   4.733
11950TIP3    H135795   0.722   0.908   4.806
11950TIP3    H235796   0.607   0.910   4.708
11951TIP3   OH235797   1.838   3.485   2.642
11951TIP3    H135798   1.917   3.485   2.695
11951TIP3    H235799   1.796   3.569   2.661
11952TIP3   OH235800   3.569   4.210   0.471
11952TIP3    H135801   3.529   4.132   0.509
11952TIP3    H235802   3.521   4.223   0.389
11953TIP3   OH235803   0.050   2.123   2.140
11953TIP3    H135804  -0.010   2.183   2.184
11953TIP3    H235805   0.064   2.052   2.202
11954TIP3   OH235806   2.669   1.412   0.266
11954TIP3    H135807   2.695   1.320   0.261
11954TIP3    H235808   2.575   1.410   0.281
11955TIP3   OH235809   3.410   4.347   2.944
11955TIP3    H135810   3.335   4.395   2.980
11955TIP3    H235811   3.375   4.301   2.867
11956TIP3   OH235812   1.746   6.772   3.164
11956TIP3    H135813   1.742   6.866   3.182
11956TIP3    H235814   1.825   6.742   3.210
11957TIP3   OH235815   3.903   1.962   5.429
11957TIP3    H135816   3.909   2.045   5.381
11957TIP3    H235817   3.949   1.899   5.374
11958TIP3   OH235818   1.595   6.627   4.050
11958TIP3    H135819   1.595   6.723   4.044
11958TIP3    H235820   1.564   6.598   3.965
11959TIP3   OH235821   6.907   2.425   2.977
11959TIP3    H135822   6.933   2.356   3.038
11959TIP3    H235823   6.811   2.417   2.972
11960TIP3   OH235824   0.112   4.054   0.162
11960TIP3    H135825   0.089   4.146   0.166
11960TIP3    H235826   0.154   4.035   0.246
11961TIP3   OH235827   3.065   7.060   2.156
11961TIP3    H135828   3.018   7.144   2.151
11961TIP3    H235829   3.132   7.066   2.088
11962TIP3   OH235830   5.471   0.670   0.259
11962TIP3    H135831   5.459   0.576   0.244
11962TIP3    H235832   5.399   0.711   0.213
11963TIP3   OH235833   2.895   5.721   2.460
11963TIP3    H135834   2.981   5.762   2.448
11963TIP3    H235835   2.833   5.792   2.447
11964TIP3   OH235836   2.362   2.722   2.670
11964TIP3    H135837   2.437   2.778   2.691
11964TIP3    H235838   2.286   2.771   2.702
11965TIP3   OH235839   7.874   1.680   5.268
11965TIP3    H135840   7.804   1.706   5.207
11965TIP3    H235841   7.931   1.624   5.215
11966TIP3   OH235842   8.146   1.858   3.805
11966TIP3    H135843   8.072   1.830   3.753
11966TIP3    H235844   8.130   1.822   3.892
11967TIP3   OH235845   7.711   1.505   3.545
11967TIP3    H135846   7.658   1.507   3.625
11967TIP3    H235847   7.648   1.521   3.474
11968TIP3   OH235848   3.518   6.263   0.977
11968TIP3    H135849   3.442   6.295   1.026
11968TIP3    H235850   3.490   6.178   0.943
11969TIP3   OH235851   3.236   0.619   2.327
11969TIP3    H135852   3.209   0.572   2.406
11969TIP3    H235853   3.277   0.552   2.272
11970TIP3   OH235854   6.924   3.972   4.357
11970TIP3    H135855   6.847   4.023   4.385
11970TIP3    H235856   6.998   4.017   4.397
11971TIP3   OH235857   4.389   0.294   1.232
11971TIP3    H135858   4.458   0.261   1.174
11971TIP3    H235859   4.353   0.370   1.186
11972TIP3   OH235860   3.809   6.152   3.698
11972TIP3    H135861   3.734   6.095   3.710
11972TIP3    H235862   3.807   6.211   3.773
11973TIP3   OH235863   0.307   0.554   5.445
11973TIP3    H135864   0.346   0.482   5.494
11973TIP3    H235865   0.335   0.540   5.355
11974TIP3   OH235866   5.341   5.974   3.379
11974TIP3    H135867   5.433   5.971   3.403
11974TIP3    H235868   5.331   6.056   3.331
11975TIP3   OH235869   4.143   4.890   0.552
11975TIP3    H135870   4.092   4.909   0.630
11975TIP3    H235871   4.233   4.877   0.584
11976TIP3   OH235872   5.194   3.680   2.338
11976TIP3    H135873   5.163   3.692   2.428
11976TIP3    H235874   5.275   3.629   2.347
11977TIP3   OH235875   7.422   1.918   6.553
11977TIP3    H135876   7.422   1.822   6.550
11977TIP3    H235877   7.333   1.943   6.529
11978TIP3   OH235878   6.596   7.677   1.072
11978TIP3    H135879   6.529   7.710   1.132
11978TIP3    H235880   6.678   7.716   1.104
11979TIP3   OH235881   4.024   5.994   1.601
11979TIP3    H135882   3.994   5.926   1.662
11979TIP3    H235883   4.108   6.022   1.636
11980TIP3   OH235884   0.801   5.637   4.561
11980TIP3    H135885   0.789   5.701   4.630
11980TIP3    H235886   0.848   5.564   4.603
11981TIP3   OH235887   6.525   2.341   2.353
11981TIP3    H135888   6.456   2.388   2.308
11981TIP3    H235889   6.591   2.323   2.286
11982TIP3   OH235890   7.390   6.784   5.711
11982TIP3    H135891   7.379   6.775   5.806
11982TIP3    H235892   7.321   6.846   5.685
11983TIP3   OH235893   1.684   5.006   6.420
11983TIP3    H135894   1.760   5.050   6.459
11983TIP3    H235895   1.704   5.001   6.327
11984TIP3   OH235896   0.781   2.887   4.176
11984TIP3    H135897   0.782   2.792   4.170
11984TIP3    H235898   0.694   2.908   4.209
11985TIP3   OH235899   6.390   6.789   0.432
11985TIP3    H135900   6.435   6.773   0.515
11985TIP3    H235901   6.429   6.869   0.398
11986TIP3   OH235902   4.321   1.725   4.951
11986TIP3    H135903   4.336   1.819   4.962
11986TIP3    H235904   4.273   1.700   5.030
11987TIP3   OH235905   6.956   5.021   5.076
11987TIP3    H135906   7.008   4.986   5.149
11987TIP3    H235907   6.922   4.943   5.032
11988TIP3   OH235908   6.073   6.032   4.414
11988TIP3    H135909   6.037   6.073   4.493
11988TIP3    H235910   6.014   5.959   4.395
11989TIP3   OH235911   4.376   7.258   0.706
11989TIP3    H135912   4.348   7.258   0.798
11989TIP3    H235913   4.319   7.323   0.664
11990TIP3   OH235914   1.686   6.378   3.516
11990TIP3    H135915   1.705   6.363   3.608
11990TIP3    H235916   1.684   6.290   3.477
11991TIP3   OH235917   2.026   0.445   6.641
11991TIP3    H135918   2.000   0.525   6.686
11991TIP3    H235919   1.972   0.442   6.562
11992TIP3   OH235920   7.368   3.449   0.325
11992TIP3    H135921   7.433   3.393   0.281
11992TIP3    H235922   7.354   3.406   0.409
11993TIP3   OH235923   3.555   1.603   0.987
11993TIP3    H135924   3.622   1.562   0.933
11993TIP3    H235925   3.478   1.548   0.976
11994TIP3   OH235926   7.200   4.604   6.086
11994TIP3    H135927   7.239   4.581   6.170
11994TIP3    H235928   7.107   4.586   6.097
11995TIP3   OH235929   3.945   3.939   3.629
11995TIP3    H135930   3.851   3.960   3.636
11995TIP3    H235931   3.982   4.015   3.583
11996TIP3   OH235932   4.427   3.348   6.769
11996TIP3    H135933   4.360   3.336   6.836
11996TIP3    H235934   4.383   3.396   6.699
11997TIP3   OH235935   5.511   3.156   1.132
11997TIP3    H135936   5.425   3.130   1.099
11997TIP3    H235937   5.493   3.189   1.220
11998TIP3   OH235938   3.516   4.465   3.222
11998TIP3    H135939   3.464   4.405   3.168
11998TIP3    H235940   3.459   4.541   3.236
11999TIP3   OH235941   7.662   6.245   4.189
11999TIP3    H135942   7.636   6.294   4.111
11999TIP3    H235943   7.620   6.160   4.180
12000TIP3   OH235944   2.736   1.321   2.867
12000TIP3    H135945   2.797   1.387   2.833
12000TIP3    H235946   2.768   1.303   2.955
12001TIP3   OH235947   2.353   5.079   5.202
12001TIP3    H135948   2.335   5.074   5.108
12001TIP3    H235949   2.306   5.005   5.239
12002TIP3   OH235950   4.239   0.801   0.278
12002TIP3    H135951   4.313   0.851   0.244
12002TIP3    H235952   4.235   0.723   0.224
12003TIP3   OH235953   4.439   7.445   2.132
12003TIP3    H135954   4.525   7.458   2.173
12003TIP3    H235955   4.377   7.453   2.205
12004TIP3   OH235956   1.388   5.511   4.625
12004TIP3    H135957   1.469   5.559   4.638
12004TIP3    H235958   1.328   5.575   4.587
12005TIP3   OH235959   4.325   2.996   5.830
12005TIP3    H135960   4.284   3.081   5.847
12005TIP3    H235961   4.415   3.006   5.863
12006TIP3   OH235962   6.598   7.799   1.411
12006TIP3    H135963   6.665   7.813   1.345
12006TIP3    H235964   6.645   7.763   1.486
12007TIP3   OH235965   4.522   2.936   1.882
12007TIP3    H135966   4.467   2.858   1.877
12007TIP3    H235967   4.602   2.907   1.926
12008TIP3   OH235968   6.157   7.258   5.616
12008TIP3    H135969   6.164   7.295   5.528
12008TIP3    H235970   6.248   7.248   5.645
12009TIP3   OH235971   5.155   6.487   3.979
12009TIP3    H135972   5.080   6.432   4.002
12009TIP3    H235973   5.165   6.546   4.054
12010TIP3   OH235974   8.143   0.661   4.196
12010TIP3    H135975   8.223   0.701   4.163
12010TIP3    H235976   8.137   0.578   4.149
12011TIP3   OH235977   1.035   1.110   6.039
12011TIP3    H135978   1.104   1.165   6.002
12011TIP3    H235979   1.006   1.158   6.117
12012TIP3   OH235980   1.854   1.344   3.032
12012TIP3    H135981   1.937   1.384   3.008
12012TIP3    H235982   1.789   1.390   2.979
12013TIP3   OH235983   0.758   2.848   0.876
12013TIP3    H135984   0.719   2.765   0.848
12013TIP3    H235985   0.842   2.852   0.830
12014TIP3   OH235986   7.017   7.250   1.664
12014TIP3    H135987   6.928   7.234   1.696
12014TIP3    H235988   7.069   7.261   1.744
12015TIP3   OH235989   3.769   1.053   3.159
12015TIP3    H135990   3.747   0.972   3.205
12015TIP3    H235991   3.865   1.053   3.156
12016TIP3   OH235992   6.974   6.360   5.280
12016TIP3    H135993   7.047   6.311   5.318
12016TIP3    H235994   6.994   6.451   5.302
12017TIP3   OH235995   1.167   4.003   1.691
12017TIP3    H135996   1.236   4.047   1.642
12017TIP3    H235997   1.175   4.036   1.780
12018TIP3   OH235998   0.666   3.578   0.898
12018TIP3    H135999   0.594   3.538   0.947
12018TIP3    H236000   0.692   3.511   0.835
12019TIP3   OH236001   3.905   3.233   1.845
12019TIP3    H136002   3.814   3.210   1.824
12019TIP3    H236003   3.935   3.161   1.901
12020TIP3   OH236004   4.789   1.562   2.458
12020TIP3    H136005   4.715   1.570   2.518
12020TIP3    H236006   4.824   1.474   2.475
12021TIP3   OH236007   3.521   5.616   4.927
12021TIP3    H136008   3.494   5.532   4.888
12021TIP3    H236009   3.498   5.607   5.019
12022TIP3   OH236010   1.815   2.265   2.663
12022TIP3    H136011   1.893   2.290   2.713
12022TIP3    H236012   1.743   2.275   2.724
12023TIP3   OH236013   5.576   3.646   0.024
12023TIP3    H136014   5.484   3.623   0.036
12023TIP3    H236015   5.622   3.599   0.094
12024TIP3   OH236016   4.956   4.880   4.451
12024TIP3    H136017   5.018   4.844   4.514
12024TIP3    H236018   4.968   4.825   4.373
12025TIP3   OH236019   3.573   5.572   3.394
12025TIP3    H136020   3.578   5.476   3.401
12025TIP3    H236021   3.661   5.598   3.366
12026TIP3   OH236022   3.178   2.025   0.923
12026TIP3    H136023   3.157   1.999   1.013
12026TIP3    H236024   3.224   1.949   0.887
12027TIP3   OH236025   1.364   0.389   3.055
12027TIP3    H136026   1.412   0.307   3.042
12027TIP3    H236027   1.306   0.371   3.130
12028TIP3   OH236028   0.257   2.144   1.588
12028TIP3    H136029   0.342   2.187   1.591
12028TIP3    H236030   0.266   2.077   1.520
12029TIP3   OH236031   6.695   3.362   0.126
12029TIP3    H136032   6.723   3.325   0.042
12029TIP3    H236033   6.612   3.317   0.144
12030TIP3   OH236034   6.680   2.919   1.032
12030TIP3    H136035   6.673   2.961   0.946
12030TIP3    H236036   6.624   2.972   1.089
12031TIP3   OH236037   4.567   4.692   4.203
12031TIP3    H136038   4.632   4.757   4.229
12031TIP3    H236039   4.488   4.716   4.253
12032TIP3   OH236040   3.712   1.107   6.740
12032TIP3    H136041   3.786   1.064   6.697
12032TIP3    H236042   3.671   1.159   6.671
12033TIP3   OH236043   4.200   0.767   4.693
12033TIP3    H136044   4.185   0.808   4.607
12033TIP3    H236045   4.168   0.832   4.756
12034TIP3   OH236046   1.090   1.752   3.435
12034TIP3    H136047   1.097   1.784   3.345
12034TIP3    H236048   1.044   1.668   3.427
12035TIP3   OH236049   6.989   2.366   2.123
12035TIP3    H136050   6.958   2.443   2.171
12035TIP3    H236051   7.029   2.310   2.189
12036TIP3   OH236052   4.500   2.635   6.604
12036TIP3    H136053   4.588   2.605   6.581
12036TIP3    H236054   4.492   2.721   6.562
12037TIP3   OH236055   4.092   5.445   5.109
12037TIP3    H136056   4.062   5.415   5.023
12037TIP3    H236057   4.151   5.517   5.089
12038TIP3   OH236058   4.078   6.926   4.755
12038TIP3    H136059   4.081   6.918   4.660
12038TIP3    H236060   4.166   6.901   4.784
12039TIP3   OH236061   5.513   3.077   5.128
12039TIP3    H136062   5.483   3.011   5.065
12039TIP3    H236063   5.604   3.093   5.104
12040TIP3   OH236064   6.449   6.118   2.005
12040TIP3    H136065   6.497   6.137   1.925
12040TIP3    H236066   6.392   6.044   1.983
12041TIP3   OH236067   8.111   3.424   4.934
12041TIP3    H136068   8.070   3.349   4.978
12041TIP3    H236069   8.205   3.411   4.948
12042TIP3   OH236070   4.839   5.031   5.141
12042TIP3    H136071   4.829   4.997   5.052
12042TIP3    H236072   4.879   4.959   5.189
12043TIP3   OH236073   5.312   7.404   3.571
12043TIP3    H136074   5.325   7.326   3.625
12043TIP3    H236075   5.401   7.436   3.552
12044TIP3   OH236076   0.304   0.398   2.508
12044TIP3    H136077   0.317   0.310   2.473
12044TIP3    H236078   0.371   0.406   2.576
12045TIP3   OH236079   2.798   5.460   3.804
12045TIP3    H136080   2.847   5.403   3.864
12045TIP3    H236081   2.864   5.499   3.748
12046TIP3   OH236082   6.675   1.250   3.108
12046TIP3    H136083   6.674   1.308   3.032
12046TIP3    H236084   6.692   1.163   3.072
12047TIP3   OH236085   3.821   3.865   0.825
12047TIP3    H136086   3.857   3.951   0.846
12047TIP3    H236087   3.889   3.822   0.773
12048TIP3   OH236088   6.393   4.447   1.381
12048TIP3    H136089   6.451   4.398   1.440
12048TIP3    H236090   6.318   4.472   1.435
12049TIP3   OH236091   5.315   7.559   5.497
12049TIP3    H136092   5.362   7.476   5.502
12049TIP3    H236093   5.339   7.605   5.578
12050TIP3   OH236094   3.212   5.966   2.697
12050TIP3    H136095   3.163   5.974   2.778
12050TIP3    H236096   3.152   5.922   2.637
12051TIP3   OH236097   3.684   6.359   1.687
12051TIP3    H136098   3.627   6.302   1.738
12051TIP3    H236099   3.694   6.438   1.740
12052TIP3   OH236100   3.774   3.128   1.082
12052TIP3    H136101   3.766   3.077   1.162
12052TIP3    H236102   3.835   3.198   1.103
12053TIP3   OH236103   3.198   5.954   4.565
12053TIP3    H136104   3.190   6.030   4.507
12053TIP3    H236105   3.281   5.913   4.540
12054TIP3   OH236106   1.565   3.384   4.139
12054TIP3    H136107   1.529   3.310   4.187
12054TIP3    H236108   1.493   3.414   4.083
12055TIP3   OH236109   6.324   5.750   4.821
12055TIP3    H136110   6.373   5.676   4.856
12055TIP3    H236111   6.286   5.792   4.898
12056TIP3   OH236112   4.619   6.249   6.275
12056TIP3    H136113   4.653   6.196   6.347
12056TIP3    H236114   4.525   6.253   6.290
12057TIP3   OH236115   6.860   2.792   5.196
12057TIP3    H136116   6.945   2.762   5.229
12057TIP3    H236117   6.797   2.757   5.259
12058TIP3   OH236118   2.609   7.132   6.634
12058TIP3    H136119   2.542   7.195   6.661
12058TIP3    H236120   2.576   7.047   6.663
12059TIP3   OH236121   7.541   2.909   5.708
12059TIP3    H136122   7.527   2.825   5.751
12059TIP3    H236123   7.616   2.947   5.754
12060TIP3   OH236124   3.754   5.432   0.524
12060TIP3    H136125   3.789   5.504   0.472
12060TIP3    H236126   3.702   5.380   0.462
12061TIP3   OH236127   6.739   7.614   5.819
12061TIP3    H136128   6.766   7.544   5.879
12061TIP3    H236129   6.760   7.694   5.866
12062TIP3   OH236130   4.711   2.414   6.747
12062TIP3    H136131   4.649   2.370   6.806
12062TIP3    H236132   4.692   2.507   6.757
12063TIP3   OH236133   5.812   0.742   4.651
12063TIP3    H136134   5.891   0.740   4.705
12063TIP3    H236135   5.784   0.650   4.646
12064TIP3   OH236136   0.677   4.213   4.094
12064TIP3    H136137   0.717   4.242   4.011
12064TIP3    H236138   0.745   4.227   4.159
12065TIP3   OH236139   4.185   6.656   5.332
12065TIP3    H136140   4.251   6.708   5.286
12065TIP3    H236141   4.212   6.658   5.423
12066TIP3   OH236142   7.521   2.409   6.613
12066TIP3    H136143   7.454   2.472   6.585
12066TIP3    H236144   7.591   2.417   6.549
12067TIP3   OH236145   2.637   3.681   5.790
12067TIP3    H136146   2.671   3.765   5.761
12067TIP3    H236147   2.573   3.702   5.858
12068TIP3   OH236148   2.529   4.304   3.485
12068TIP3    H136149   2.521   4.338   3.396
12068TIP3    H236150   2.454   4.342   3.532
12069TIP3   OH236151   8.167   3.019   0.246
12069TIP3    H136152   8.121   2.979   0.320
12069TIP3    H236153   8.113   2.996   0.170
12070TIP3   OH236154   2.436   3.502   6.498
12070TIP3    H136155   2.366   3.444   6.525
12070TIP3    H236156   2.458   3.551   6.577
12071TIP3   OH236157   3.807   0.500   4.903
12071TIP3    H136158   3.886   0.552   4.889
12071TIP3    H236159   3.759   0.546   4.971
12072TIP3   OH236160   5.564   2.331   5.083
12072TIP3    H136161   5.539   2.277   5.158
12072TIP3    H236162   5.548   2.276   5.007
12073TIP3   OH236163   2.236   3.541   2.570
12073TIP3    H136164   2.283   3.458   2.562
12073TIP3    H236165   2.287   3.592   2.633
12074TIP3   OH236166   1.668   2.461   5.859
12074TIP3    H136167   1.698   2.410   5.784
12074TIP3    H236168   1.706   2.416   5.935
12075TIP3   OH236169   3.759   4.346   5.615
12075TIP3    H136170   3.791   4.428   5.576
12075TIP3    H236171   3.838   4.302   5.647
12076TIP3   OH236172   1.204   4.372   5.217
12076TIP3    H136173   1.228   4.342   5.305
12076TIP3    H236174   1.108   4.381   5.220
12077TIP3   OH236175   6.294   3.646   1.695
12077TIP3    H136176   6.325   3.563   1.659
12077TIP3    H236177   6.264   3.625   1.783
12078TIP3   OH236178   5.839   6.475   5.610
12078TIP3    H136179   5.876   6.477   5.522
12078TIP3    H236180   5.814   6.566   5.628
12079TIP3   OH236181   5.805   0.015   5.220
12079TIP3    H136182   5.828  -0.070   5.181
12079TIP3    H236183   5.812   0.077   5.147
12080TIP3   OH236184   7.777   0.296   4.807
12080TIP3    H136185   7.764   0.250   4.890
12080TIP3    H236186   7.689   0.316   4.776
12081TIP3   OH236187   0.818   7.428   1.143
12081TIP3    H136188   0.796   7.431   1.049
12081TIP3    H236189   0.887   7.495   1.153
12082TIP3   OH236190   2.089   3.369   4.252
12082TIP3    H136191   1.993   3.360   4.250
12082TIP3    H236192   2.110   3.419   4.173
12083TIP3   OH236193   5.409   1.547   0.788
12083TIP3    H136194   5.440   1.623   0.838
12083TIP3    H236195   5.486   1.519   0.738
12084TIP3   OH236196   3.475   2.913   4.530
12084TIP3    H136197   3.539   2.843   4.522
12084TIP3    H236198   3.526   2.989   4.558
12085TIP3   OH236199   5.420   2.130   5.226
12085TIP3    H136200   5.404   2.139   5.320
12085TIP3    H236201   5.429   2.035   5.213
12086TIP3   OH236202   0.411   5.347   6.372
12086TIP3    H136203   0.412   5.367   6.465
12086TIP3    H236204   0.483   5.399   6.336
12087TIP3   OH236205   4.308   3.370   5.781
12087TIP3    H136206   4.254   3.322   5.844
12087TIP3    H236207   4.385   3.396   5.831
12088TIP3   OH236208   4.330   3.303   0.535
12088TIP3    H136209   4.362   3.288   0.624
12088TIP3    H236210   4.309   3.397   0.533
12089TIP3   OH236211   7.834   5.529   4.093
12089TIP3    H136212   7.846   5.557   4.002
12089TIP3    H236213   7.875   5.599   4.145
12090TIP3   OH236214   6.294   2.793   1.513
12090TIP3    H136215   6.264   2.712   1.471
12090TIP3    H236216   6.386   2.776   1.535
12091TIP3   OH236217   2.308   2.692   5.219
12091TIP3    H136218   2.267   2.751   5.283
12091TIP3    H236219   2.289   2.732   5.134
12092TIP3   OH236220   3.900   2.194   0.822
12092TIP3    H136221   3.837   2.238   0.879
12092TIP3    H236222   3.900   2.245   0.741
12093TIP3   OH236223   7.801   1.844   2.439
12093TIP3    H136224   7.740   1.803   2.500
12093TIP3    H236225   7.881   1.791   2.446
12094TIP3   OH236226   5.462   6.272   4.367
12094TIP3    H136227   5.505   6.190   4.343
12094TIP3    H236228   5.442   6.262   4.460
12095TIP3   OH236229   2.514   0.168   3.002
12095TIP3    H136230   2.521   0.073   3.002
12095TIP3    H236231   2.545   0.194   3.089
12096TIP3   OH236232   0.352   2.524   6.357
12096TIP3    H136233   0.331   2.483   6.441
12096TIP3    H236234   0.391   2.454   6.305
12097TIP3   OH236235   3.521   7.088   2.669
12097TIP3    H136236   3.455   7.146   2.708
12097TIP3    H236237   3.539   7.025   2.739
12098TIP3   OH236238   8.194   4.206   6.040
12098TIP3    H136239   8.148   4.224   5.958
12098TIP3    H236240   8.131   4.229   6.108
12099TIP3   OH236241   7.360   7.613   0.636
12099TIP3    H136242   7.326   7.693   0.596
12099TIP3    H236243   7.371   7.635   0.729
12100TIP3   OH236244   7.392   6.058   6.388
12100TIP3    H136245   7.389   6.154   6.384
12100TIP3    H236246   7.480   6.036   6.360
12101TIP3   OH236247   5.094   6.467   4.608
12101TIP3    H136248   5.117   6.386   4.654
12101TIP3    H236249   5.129   6.537   4.664
12102TIP3   OH236250   7.519   7.794   3.991
12102TIP3    H136251   7.477   7.709   4.003
12102TIP3    H236252   7.572   7.806   4.069
12103TIP3   OH236253   0.357   5.104   2.498
12103TIP3    H136254   0.337   5.197   2.499
12103TIP3    H236255   0.451   5.099   2.514
12104TIP3   OH236256   7.775   1.380   1.575
12104TIP3    H136257   7.692   1.419   1.547
12104TIP3    H236258   7.752   1.292   1.604
12105TIP3   OH236259   6.100   2.344   1.298
12105TIP3    H136260   6.176   2.290   1.321
12105TIP3    H236261   6.059   2.297   1.225
12106TIP3   OH236262   7.549   6.626   4.519
12106TIP3    H136263   7.543   6.531   4.518
12106TIP3    H236264   7.493   6.653   4.592
12107TIP3   OH236265   2.033   1.707   2.429
12107TIP3    H136266   2.040   1.621   2.389
12107TIP3    H236267   2.103   1.709   2.495
12108TIP3   OH236268   3.257   4.488   5.094
12108TIP3    H136269   3.327   4.536   5.050
12108TIP3    H236270   3.297   4.405   5.119
12109TIP3   OH236271   5.774   0.500   3.422
12109TIP3    H136272   5.685   0.489   3.458
12109TIP3    H236273   5.796   0.413   3.387
12110TIP3   OH236274   1.688   4.732   3.859
12110TIP3    H136275   1.680   4.667   3.928
12110TIP3    H236276   1.702   4.815   3.904
12111TIP3   OH236277   1.603   2.625   0.207
12111TIP3    H136278   1.663   2.551   0.196
12111TIP3    H236279   1.630   2.666   0.289
12112TIP3   OH236280   4.342   6.470   1.878
12112TIP3    H136281   4.262   6.418   1.874
12112TIP3    H236282   4.344   6.504   1.968
12113TIP3   OH236283   5.730   6.298   2.396
12113TIP3    H136284   5.654   6.274   2.449
12113TIP3    H236285   5.803   6.252   2.437
12114TIP3   OH236286   1.964   7.156   2.828
12114TIP3    H136287   1.921   7.184   2.747
12114TIP3    H236288   1.945   7.062   2.834
12115TIP3   OH236289   7.797   3.002   2.165
12115TIP3    H136290   7.709   3.005   2.202
12115TIP3    H236291   7.785   3.029   2.074
12116TIP3   OH236292   1.885   5.621   1.641
12116TIP3    H136293   1.892   5.711   1.608
12116TIP3    H236294   1.973   5.586   1.634
12117TIP3   OH236295   5.872   0.844   3.485
12117TIP3    H136296   5.785   0.872   3.459
12117TIP3    H236297   5.898   0.781   3.418
12118TIP3   OH236298   4.763   0.262   2.480
12118TIP3    H136299   4.805   0.243   2.396
12118TIP3    H236300   4.815   0.215   2.545
12119TIP3   OH236301   7.700   7.572   1.377
12119TIP3    H136302   7.722   7.663   1.395
12119TIP3    H236303   7.740   7.554   1.292
12120TIP3   OH236304   5.645   1.204   1.573
12120TIP3    H136305   5.677   1.172   1.488
12120TIP3    H236306   5.593   1.132   1.608
12121TIP3   OH236307   5.178   3.104   4.559
12121TIP3    H136308   5.259   3.139   4.524
12121TIP3    H236309   5.129   3.181   4.590
12122TIP3   OH236310   2.909   6.625   4.056
12122TIP3    H136311   2.983   6.669   4.015
12122TIP3    H236312   2.926   6.633   4.150
12123TIP3   OH236313   0.609   2.786   3.670
12123TIP3    H136314   0.692   2.790   3.624
12123TIP3    H236315   0.610   2.862   3.728
12124TIP3   OH236316   7.522   2.644   1.389
12124TIP3    H136317   7.493   2.677   1.304
12124TIP3    H236318   7.579   2.570   1.368
12125TIP3   OH236319   2.954   6.878   5.169
12125TIP3    H136320   2.908   6.829   5.100
12125TIP3    H236321   3.012   6.813   5.209
12126TIP3   OH236322   4.313   1.624   5.974
12126TIP3    H136323   4.403   1.624   5.943
12126TIP3    H236324   4.306   1.543   6.025
12127TIP3   OH236325   7.905   1.784   0.166
12127TIP3    H136326   7.852   1.849   0.210
12127TIP3    H236327   7.895   1.705   0.218
12128TIP3   OH236328   2.655   0.893   4.639
12128TIP3    H136329   2.621   0.949   4.569
12128TIP3    H236330   2.599   0.914   4.715
12129TIP3   OH236331   5.747   7.222   5.877
12129TIP3    H136332   5.655   7.199   5.862
12129TIP3    H236333   5.783   7.234   5.789
12130TIP3   OH236334   4.620   5.158   4.162
12130TIP3    H136335   4.545   5.117   4.205
12130TIP3    H236336   4.599   5.251   4.160
12131TIP3   OH236337   5.381   2.595   1.812
12131TIP3    H136338   5.357   2.674   1.860
12131TIP3    H236339   5.353   2.523   1.870
12132TIP3   OH236340   2.550   2.516   1.088
12132TIP3    H136341   2.645   2.528   1.079
12132TIP3    H236342   2.524   2.466   1.011
12133TIP3   OH236343   2.676   4.264   2.137
12133TIP3    H136344   2.605   4.214   2.096
12133TIP3    H236345   2.691   4.220   2.221
12134TIP3   OH236346   2.797   3.866   5.268
12134TIP3    H136347   2.713   3.870   5.222
12134TIP3    H236348   2.838   3.786   5.234
12135TIP3   OH236349   3.078   6.311   6.523
12135TIP3    H136350   3.129   6.251   6.577
12135TIP3    H236351   3.081   6.394   6.569
12136TIP3   OH236352   8.331   5.263   4.764
12136TIP3    H136353   8.238   5.252   4.745
12136TIP3    H236354   8.371   5.181   4.733
12137TIP3   OH236355   0.932   1.813   6.495
12137TIP3    H136356   0.963   1.892   6.451
12137TIP3    H236357   1.005   1.785   6.549
12138TIP3   OH236358   7.752   6.836   2.423
12138TIP3    H136359   7.821   6.902   2.428
12138TIP3    H236360   7.671   6.887   2.424
12139TIP3   OH236361   1.136   3.909   5.988
12139TIP3    H136362   1.213   3.894   6.043
12139TIP3    H236363   1.092   3.824   5.984
12140TIP3   OH236364   0.817   7.189   1.314
12140TIP3    H136365   0.740   7.226   1.270
12140TIP3    H236366   0.839   7.253   1.382
12141TIP3   OH236367   1.392   3.993   4.893
12141TIP3    H136368   1.468   3.955   4.850
12141TIP3    H236369   1.323   3.992   4.827
12142TIP3   OH236370   2.644   6.406   1.087
12142TIP3    H136371   2.641   6.397   1.183
12142TIP3    H236372   2.657   6.317   1.055
12143TIP3   OH236373   5.959   4.592   1.027
12143TIP3    H136374   6.040   4.542   1.039
12143TIP3    H236375   5.925   4.563   0.943
12144TIP3   OH236376   2.072   3.126   0.537
12144TIP3    H136377   2.115   3.183   0.474
12144TIP3    H236378   1.982   3.158   0.540
12145TIP3   OH236379   5.563   2.822   3.899
12145TIP3    H136380   5.536   2.906   3.862
12145TIP3    H236381   5.488   2.764   3.882
12146TIP3   OH236382   3.201   1.817   1.554
12146TIP3    H136383   3.200   1.820   1.649
12146TIP3    H236384   3.146   1.742   1.531
12147TIP3   OH236385   2.601   2.394   3.584
12147TIP3    H136386   2.547   2.472   3.599
12147TIP3    H236387   2.573   2.332   3.651
12148TIP3   OH236388   7.303   3.535   0.802
12148TIP3    H136389   7.392   3.519   0.834
12148TIP3    H236390   7.286   3.463   0.742
12149TIP3   OH236391   6.008   5.485   1.002
12149TIP3    H136392   6.046   5.412   0.952
12149TIP3    H236393   6.079   5.514   1.059
12150TIP3   OH236394   6.696   0.527   6.801
12150TIP3    H136395   6.622   0.499   6.856
12150TIP3    H236396   6.655   0.557   6.720
12151TIP3   OH236397   4.250   1.448   5.073
12151TIP3    H136398   4.158   1.443   5.048
12151TIP3    H236399   4.297   1.454   4.989
12152TIP3   OH236400   1.141   4.986   6.012
12152TIP3    H136401   1.142   5.020   6.102
12152TIP3    H236402   1.232   4.961   5.995
12153TIP3   OH236403   7.225   6.643   0.248
12153TIP3    H136404   7.274   6.723   0.267
12153TIP3    H236405   7.283   6.592   0.192
12154TIP3   OH236406   3.288   0.570   4.771
12154TIP3    H136407   3.218   0.628   4.743
12154TIP3    H236408   3.354   0.628   4.810
12155TIP3   OH236409   7.743   7.013   2.774
12155TIP3    H136410   7.721   7.048   2.861
12155TIP3    H236411   7.827   7.053   2.753
12156TIP3   OH236412   1.049   2.322   6.304
12156TIP3    H136413   1.144   2.310   6.292
12156TIP3    H236414   1.038   2.327   6.399
12157TIP3   OH236415   3.423   0.926   6.739
12157TIP3    H136416   3.476   0.938   6.660
12157TIP3    H236417   3.448   0.999   6.796
12158TIP3   OH236418   6.090   5.230   6.029
12158TIP3    H136419   6.057   5.175   5.959
12158TIP3    H236420   6.078   5.319   5.998
12159TIP3   OH236421   2.002   4.594   5.649
12159TIP3    H136422   2.091   4.560   5.658
12159TIP3    H236423   1.993   4.613   5.556
12160TIP3   OH236424   2.258   5.891   3.357
12160TIP3    H136425   2.223   5.980   3.353
12160TIP3    H236426   2.288   5.873   3.268
12161TIP3   OH236427   6.440   4.846   1.002
12161TIP3    H136428   6.491   4.781   0.954
12161TIP3    H236429   6.349   4.818   0.991
12162TIP3   OH236430   1.353   2.081   0.651
12162TIP3    H136431   1.291   2.014   0.679
12162TIP3    H236432   1.437   2.053   0.688
12163TIP3   OH236433   6.594   7.354   0.701
12163TIP3    H136434   6.556   7.370   0.787
12163TIP3    H236435   6.554   7.420   0.644
12164TIP3   OH236436   5.111   2.682   6.386
12164TIP3    H136437   5.138   2.613   6.446
12164TIP3    H236438   5.051   2.736   6.436
12165TIP3   OH236439   6.943   5.714   3.275
12165TIP3    H136440   7.036   5.696   3.286
12165TIP3    H236441   6.899   5.640   3.317
12166TIP3   OH236442   6.359   7.099   6.585
12166TIP3    H136443   6.293   7.151   6.630
12166TIP3    H236444   6.310   7.048   6.520
12167TIP3   OH236445   3.189   1.867   2.049
12167TIP3    H136446   3.270   1.816   2.046
12167TIP3    H236447   3.139   1.828   2.121
12168TIP3   OH236448   2.648   4.396   5.088
12168TIP3    H136449   2.609   4.464   5.032
12168TIP3    H236450   2.740   4.420   5.095
12169TIP3   OH236451   1.301   5.834   0.073
12169TIP3    H136452   1.261   5.874  -0.004
12169TIP3    H236453   1.339   5.908   0.121
12170TIP3   OH236454   8.218   4.682   6.516
12170TIP3    H136455   8.129   4.679   6.480
12170TIP3    H236456   8.245   4.591   6.521
12171TIP3   OH236457   5.464   6.851   3.700
12171TIP3    H136458   5.486   6.931   3.653
12171TIP3    H236459   5.515   6.857   3.782
12172TIP3   OH236460   3.104   2.292   2.197
12172TIP3    H136461   3.110   2.283   2.102
12172TIP3    H236462   3.155   2.371   2.217
12173TIP3   OH236463   3.059   5.609   6.040
12173TIP3    H136464   3.147   5.647   6.044
12173TIP3    H236465   3.002   5.676   6.077
12174TIP3   OH236466   5.396   4.371   1.919
12174TIP3    H136467   5.424   4.363   1.827
12174TIP3    H236468   5.455   4.312   1.966
12175TIP3   OH236469   6.535   5.230   5.513
12175TIP3    H136470   6.577   5.213   5.597
12175TIP3    H236471   6.443   5.206   5.526
12176TIP3   OH236472   5.643   3.936   5.735
12176TIP3    H136473   5.615   3.845   5.730
12176TIP3    H236474   5.625   3.963   5.825
12177TIP3   OH236475   3.924   7.778   3.282
12177TIP3    H136476   3.894   7.713   3.217
12177TIP3    H236477   3.965   7.846   3.229
12178TIP3   OH236478   5.706   4.723   4.885
12178TIP3    H136479   5.627   4.685   4.924
12178TIP3    H236480   5.677   4.806   4.847
12179TIP3   OH236481   7.180   2.191   5.295
12179TIP3    H136482   7.130   2.141   5.230
12179TIP3    H236483   7.259   2.217   5.249
12180TIP3   OH236484   3.424   6.790   3.077
12180TIP3    H136485   3.438   6.750   3.164
12180TIP3    H236486   3.417   6.715   3.018
12181TIP3   OH236487   2.128   5.831   4.977
12181TIP3    H136488   2.159   5.788   4.898
12181TIP3    H236489   2.199   5.891   5.001
12182TIP3   OH236490   6.198   5.385   0.499
12182TIP3    H136491   6.260   5.453   0.472
12182TIP3    H236492   6.149   5.425   0.571
12183TIP3   OH236493   4.726   0.078   0.358
12183TIP3    H136494   4.800   0.021   0.377
12183TIP3    H236495   4.726   0.142   0.429
12184TIP3   OH236496   7.421   7.661   5.693
12184TIP3    H136497   7.430   7.566   5.691
12184TIP3    H236498   7.334   7.677   5.656
12185TIP3   OH236499   1.825   5.384   4.604
12185TIP3    H136500   1.757   5.317   4.598
12185TIP3    H236501   1.829   5.406   4.697
12186TIP3   OH236502   7.558   3.873   4.238
12186TIP3    H136503   7.642   3.915   4.221
12186TIP3    H236504   7.563   3.789   4.192
12187TIP3   OH236505   2.107   4.436   4.142
12187TIP3    H136506   2.135   4.523   4.114
12187TIP3    H236507   2.183   4.400   4.187
12188TIP3   OH236508   5.582   5.836   1.406
12188TIP3    H136509   5.526   5.911   1.424
12188TIP3    H236510   5.537   5.762   1.445
12189TIP3   OH236511   5.310   5.107   3.859
12189TIP3    H136512   5.242   5.085   3.922
12189TIP3    H236513   5.271   5.091   3.773
12190TIP3   OH236514   4.477   3.526   0.294
12190TIP3    H136515   4.454   3.594   0.358
12190TIP3    H236516   4.437   3.446   0.328
12191TIP3   OH236517   3.090   7.747   3.866
12191TIP3    H136518   3.143   7.687   3.918
12191TIP3    H236519   3.000   7.714   3.876
12192TIP3   OH236520   4.344   1.740   4.413
12192TIP3    H136521   4.259   1.695   4.408
12192TIP3    H236522   4.322   1.829   4.440
12193TIP3   OH236523   5.426   3.036   3.716
12193TIP3    H136524   5.452   3.119   3.677
12193TIP3    H236525   5.330   3.042   3.723
12194TIP3   OH236526   2.063   2.721   5.460
12194TIP3    H136527   1.971   2.747   5.466
12194TIP3    H236528   2.110   2.803   5.445
12195TIP3   OH236529   3.240   3.104   2.119
12195TIP3    H136530   3.200   3.132   2.202
12195TIP3    H236531   3.311   3.166   2.105
12196TIP3   OH236532   5.045   7.050   0.188
12196TIP3    H136533   4.964   7.000   0.178
12196TIP3    H236534   5.099   7.024   0.114
12197TIP3   OH236535   5.341   4.014   4.774
12197TIP3    H136536   5.359   4.017   4.868
12197TIP3    H236537   5.247   3.999   4.767
12198TIP3   OH236538   6.505   3.521   6.498
12198TIP3    H136539   6.566   3.508   6.426
12198TIP3    H236540   6.516   3.444   6.554
12199TIP3   OH236541   4.701   4.808   0.379
12199TIP3    H136542   4.759   4.883   0.372
12199TIP3    H236543   4.744   4.739   0.328
12200TIP3   OH236544   2.731   5.947   5.884
12200TIP3    H136545   2.681   5.978   5.960
12200TIP3    H236546   2.665   5.921   5.821
12201TIP3   OH236547   5.406   3.489   1.447
12201TIP3    H136548   5.361   3.451   1.522
12201TIP3    H236549   5.492   3.447   1.447
12202TIP3   OH236550   5.364   1.389   3.357
12202TIP3    H136551   5.300   1.328   3.394
12202TIP3    H236552   5.443   1.374   3.409
12203TIP3   OH236553   6.279   3.465   1.239
12203TIP3    H136554   6.360   3.513   1.223
12203TIP3    H236555   6.232   3.518   1.304
12204TIP3   OH236556   6.900   6.119   1.234
12204TIP3    H136557   6.939   6.052   1.178
12204TIP3    H236558   6.820   6.078   1.268
12205TIP3   OH236559   7.658   4.439   5.360
12205TIP3    H136560   7.685   4.418   5.449
12205TIP3    H236561   7.594   4.371   5.338
12206TIP3   OH236562   4.469   0.882   0.148
12206TIP3    H136563   4.548   0.936   0.149
12206TIP3    H236564   4.478   0.827   0.070
12207TIP3   OH236565   7.618   7.445   4.433
12207TIP3    H136566   7.590   7.422   4.522
12207TIP3    H236567   7.656   7.364   4.398
12208TIP3   OH236568   1.982   1.390   1.555
12208TIP3    H136569   1.904   1.438   1.582
12208TIP3    H236570   1.952   1.300   1.544
12209TIP3   OH236571   6.471   3.876   0.427
12209TIP3    H136572   6.410   3.945   0.400
12209TIP3    H236573   6.554   3.921   0.439
12210TIP3   OH236574   7.783   3.193   1.492
12210TIP3    H136575   7.859   3.140   1.466
12210TIP3    H236576   7.716   3.129   1.515
12211TIP3   OH236577   3.790   2.940   5.721
12211TIP3    H136578   3.762   2.850   5.711
12211TIP3    H236579   3.713   2.986   5.756
12212TIP3   OH236580   2.157   1.267   6.517
12212TIP3    H136581   2.151   1.177   6.484
12212TIP3    H236582   2.197   1.258   6.604
12213TIP3   OH236583   6.218   0.560   4.874
12213TIP3    H136584   6.270   0.524   4.945
12213TIP3    H236585   6.208   0.487   4.812
12214TIP3   OH236586   7.231   5.103   2.928
12214TIP3    H136587   7.205   5.017   2.897
12214TIP3    H236588   7.309   5.087   2.981
12215TIP3   OH236589   5.206   5.744   2.433
12215TIP3    H136590   5.154   5.799   2.491
12215TIP3    H236591   5.238   5.673   2.489
12216TIP3   OH236592   1.118   3.643   1.866
12216TIP3    H136593   1.054   3.701   1.907
12216TIP3    H236594   1.201   3.665   1.908
12217TIP3   OH236595   8.139   7.042   2.617
12217TIP3    H136596   8.119   7.031   2.524
12217TIP3    H236597   8.231   7.018   2.626
12218TIP3   OH236598   3.678   2.697   5.736
12218TIP3    H136599   3.609   2.724   5.675
12218TIP3    H236600   3.631   2.653   5.807
12219TIP3   OH236601   0.051   1.851   3.017
12219TIP3    H136602   0.076   1.901   3.095
12219TIP3    H236603   0.107   1.773   3.020
12220TIP3   OH236604   0.095   3.853   3.886
12220TIP3    H136605   0.063   3.885   3.802
12220TIP3    H236606   0.048   3.904   3.951
12221TIP3   OH236607   5.055   7.624   3.272
12221TIP3    H136608   5.056   7.712   3.234
12221TIP3    H236609   5.146   7.608   3.297
12222TIP3   OH236610   3.453   4.138   3.183
12222TIP3    H136611   3.368   4.171   3.212
12222TIP3    H236612   3.516   4.202   3.217
12223TIP3   OH236613   2.931   1.776   4.758
12223TIP3    H136614   2.851   1.736   4.790
12223TIP3    H236615   2.905   1.823   4.679
12224TIP3   OH236616   2.092   3.435   4.997
12224TIP3    H136617   2.171   3.434   5.051
12224TIP3    H236618   2.060   3.344   5.000
12225TIP3   OH236619   7.046   3.145   2.813
12225TIP3    H136620   7.122   3.094   2.838
12225TIP3    H236621   7.080   3.213   2.755
12226TIP3   OH236622   4.724   1.053   0.968
12226TIP3    H136623   4.733   1.002   1.049
12226TIP3    H236624   4.789   1.015   0.908
12227TIP3   OH236625   4.797   4.073   2.843
12227TIP3    H136626   4.817   4.130   2.769
12227TIP3    H236627   4.800   4.131   2.920
12228TIP3   OH236628   1.200   0.781   4.208
12228TIP3    H136629   1.160   0.720   4.145
12228TIP3    H236630   1.125   0.826   4.247
12229TIP3   OH236631   5.663   5.986   6.226
12229TIP3    H136632   5.715   6.010   6.150
12229TIP3    H236633   5.572   5.993   6.196
12230TIP3   OH236634   3.983   0.939   3.003
12230TIP3    H136635   4.049   1.009   3.008
12230TIP3    H236636   4.023   0.866   3.049
12231TIP3   OH236637   0.387   6.064   5.236
12231TIP3    H136638   0.436   5.984   5.220
12231TIP3    H236639   0.400   6.117   5.157
12232TIP3   OH236640   1.866   6.170   6.369
12232TIP3    H136641   1.914   6.188   6.450
12232TIP3    H236642   1.862   6.255   6.325
12233TIP3   OH236643   2.393   5.466   3.509
12233TIP3    H136644   2.382   5.393   3.570
12233TIP3    H236645   2.443   5.531   3.557
12234TIP3   OH236646   5.068   5.045   6.031
12234TIP3    H136647   5.084   4.983   6.103
12234TIP3    H236648   5.041   5.126   6.076
12235TIP3   OH236649   6.024   6.003   5.700
12235TIP3    H136650   6.114   6.015   5.730
12235TIP3    H236651   5.970   6.017   5.777
12236TIP3   OH236652   5.239   4.052   3.081
12236TIP3    H136653   5.317   4.065   3.135
12236TIP3    H236654   5.254   4.106   3.003
12237TIP3   OH236655   8.015   1.504   3.160
12237TIP3    H136656   8.003   1.485   3.067
12237TIP3    H236657   8.110   1.511   3.171
12238TIP3   OH236658   5.336   3.670   4.047
12238TIP3    H136659   5.323   3.739   3.982
12238TIP3    H236660   5.379   3.599   4.000
12239TIP3   OH236661   8.237   5.681   5.590
12239TIP3    H136662   8.310   5.739   5.570
12239TIP3    H236663   8.171   5.701   5.524
12240TIP3   OH236664   2.137   1.309   0.523
12240TIP3    H136665   2.118   1.402   0.509
12240TIP3    H236666   2.213   1.292   0.467
12241TIP3   OH236667   5.282   6.168   6.041
12241TIP3    H136668   5.319   6.198   5.958
12241TIP3    H236669   5.194   6.139   6.019
12242TIP3   OH236670   3.039   3.525   2.054
12242TIP3    H136671   2.969   3.459   2.060
12242TIP3    H236672   3.113   3.485   2.101
12243TIP3   OH236673   7.741   5.109   5.855
12243TIP3    H136674   7.668   5.167   5.835
12243TIP3    H236675   7.769   5.075   5.770
12244TIP3   OH236676   6.344   4.719   2.891
12244TIP3    H136677   6.371   4.704   2.982
12244TIP3    H236678   6.261   4.766   2.898
12245TIP3   OH236679   6.512   5.653   1.605
12245TIP3    H136680   6.577   5.641   1.536
12245TIP3    H236681   6.433   5.681   1.558
12246TIP3   OH236682   7.627   3.456   3.748
12246TIP3    H136683   7.645   3.550   3.751
12246TIP3    H236684   7.568   3.445   3.673
12247TIP3   OH236685   1.996   7.333   2.404
12247TIP3    H136686   2.059   7.405   2.413
12247TIP3    H236687   1.938   7.360   2.333
12248TIP3   OH236688   3.547   5.608   0.556
12248TIP3    H136689   3.515   5.657   0.632
12248TIP3    H236690   3.636   5.638   0.543
12249TIP3   OH236691   2.850   4.228   6.337
12249TIP3    H136692   2.907   4.195   6.407
12249TIP3    H236693   2.778   4.165   6.333
12250TIP3   OH236694   7.507   5.401   6.377
12250TIP3    H136695   7.460   5.468   6.328
12250TIP3    H236696   7.581   5.447   6.416
12251TIP3   OH236697   4.328   0.030   1.336
12251TIP3    H136698   4.359  -0.019   1.261
12251TIP3    H236699   4.350   0.121   1.316
12252TIP3   OH236700   4.759   1.944   1.710
12252TIP3    H136701   4.740   1.865   1.761
12252TIP3    H236702   4.754   2.016   1.773
12253TIP3   OH236703   1.189   5.559   1.980
12253TIP3    H136704   1.116   5.498   1.991
12253TIP3    H236705   1.190   5.578   1.886
12254TIP3   OH236706   6.411   1.102   3.368
12254TIP3    H136707   6.318   1.122   3.378
12254TIP3    H236708   6.422   1.089   3.274
12255TIP3   OH236709   4.160   5.524   4.329
12255TIP3    H136710   4.129   5.546   4.417
12255TIP3    H236711   4.254   5.541   4.333
12256TIP3   OH236712   1.463   2.198   5.685
12256TIP3    H136713   1.530   2.260   5.714
12256TIP3    H236714   1.454   2.136   5.758
12257TIP3   OH236715   6.676   7.341   4.905
12257TIP3    H136716   6.684   7.337   5.000
12257TIP3    H236717   6.766   7.350   4.874
12258TIP3   OH236718   4.839   6.150   2.515
12258TIP3    H136719   4.789   6.095   2.575
12258TIP3    H236720   4.923   6.162   2.559
12259TIP3   OH236721   7.135   0.709   3.675
12259TIP3    H136722   7.124   0.650   3.749
12259TIP3    H236723   7.084   0.787   3.699
12260TIP3   OH236724   7.142  -0.083   0.396
12260TIP3    H136725   7.155  -0.120   0.483
12260TIP3    H236726   7.088  -0.005   0.411
12261TIP3   OH236727   8.232   1.199   6.096
12261TIP3    H136728   8.192   1.186   6.182
12261TIP3    H236729   8.212   1.118   6.048
12262TIP3   OH236730   3.468   0.872   1.624
12262TIP3    H136731   3.556   0.889   1.590
12262TIP3    H236732   3.470   0.906   1.713
12263TIP3   OH236733   5.713   0.439   1.788
12263TIP3    H136734   5.646   0.456   1.854
12263TIP3    H236735   5.756   0.524   1.776
12264TIP3   OH236736   3.478   4.424   6.080
12264TIP3    H136737   3.502   4.483   6.009
12264TIP3    H236738   3.536   4.348   6.069
12265TIP3   OH236739   6.112   4.729   1.820
12265TIP3    H136740   6.132   4.710   1.911
12265TIP3    H236741   6.038   4.789   1.823
12266TIP3   OH236742   3.025   3.918   4.114
12266TIP3    H136743   3.008   3.841   4.168
12266TIP3    H236744   3.050   3.883   4.029
12267TIP3   OH236745   2.978   4.175   0.039
12267TIP3    H136746   2.939   4.231   0.106
12267TIP3    H236747   3.020   4.104   0.087
12268TIP3   OH236748   0.853   5.833   3.107
12268TIP3    H136749   0.903   5.858   3.029
12268TIP3    H236750   0.867   5.905   3.169
12269TIP3   OH236751   6.759   3.286   4.823
12269TIP3    H136752   6.666   3.306   4.820
12269TIP3    H236753   6.800   3.367   4.856
12270TIP3   OH236754   8.087   6.493   1.334
12270TIP3    H136755   8.046   6.409   1.355
12270TIP3    H236756   8.014   6.550   1.312
12271TIP3   OH236757   7.425   3.486   3.555
12271TIP3    H136758   7.375   3.411   3.586
12271TIP3    H236759   7.382   3.562   3.595
12272TIP3   OH236760   1.330   1.272   3.498
12272TIP3    H136761   1.403   1.328   3.475
12272TIP3    H236762   1.267   1.330   3.540
12273TIP3   OH236763   0.588   0.911   1.139
12273TIP3    H136764   0.512   0.853   1.133
12273TIP3    H236765   0.642   0.873   1.208
12274TIP3   OH236766   7.089   3.994   0.688
12274TIP3    H136767   7.014   3.998   0.630
12274TIP3    H236768   7.145   3.926   0.650
12275TIP3   OH236769   2.406   7.566   5.733
12275TIP3    H136770   2.467   7.519   5.676
12275TIP3    H236771   2.353   7.497   5.773
12276TIP3   OH236772   2.724   5.844   4.660
12276TIP3    H136773   2.775   5.923   4.677
12276TIP3    H236774   2.778   5.794   4.598
12277TIP3   OH236775   4.118   7.704   0.213
12277TIP3    H136776   4.194   7.695   0.270
12277TIP3    H236777   4.126   7.792   0.176
12278TIP3   OH236778   5.606   5.272   2.212
12278TIP3    H136779   5.559   5.331   2.272
12278TIP3    H236780   5.589   5.308   2.125
12279TIP3   OH236781   3.803   7.215   0.402
12279TIP3    H136782   3.772   7.131   0.437
12279TIP3    H236783   3.781   7.212   0.309
12280TIP3   OH236784   6.850   5.106   6.030
12280TIP3    H136785   6.880   5.068   6.112
12280TIP3    H236786   6.931   5.128   5.983
12281TIP3   OH236787   6.220   7.562   1.554
12281TIP3    H136788   6.143   7.567   1.610
12281TIP3    H236789   6.185   7.554   1.465
12282TIP3   OH236790   5.179   4.300   1.091
12282TIP3    H136791   5.143   4.235   1.032
12282TIP3    H236792   5.255   4.336   1.045
12283TIP3   OH236793   5.070   2.468   1.522
12283TIP3    H136794   5.014   2.499   1.451
12283TIP3    H236795   5.083   2.545   1.577
12284TIP3   OH236796   5.992   1.022   4.153
12284TIP3    H136797   5.985   1.055   4.242
12284TIP3    H236798   6.059   0.954   4.157
12285TIP3   OH236799   6.258   5.527   3.951
12285TIP3    H136800   6.348   5.506   3.978
12285TIP3    H236801   6.250   5.621   3.968
12286TIP3   OH236802   7.438   5.444   2.584
12286TIP3    H136803   7.432   5.388   2.661
12286TIP3    H236804   7.400   5.527   2.612
12287TIP3   OH236805   1.554   3.691   1.731
12287TIP3    H136806   1.473   3.721   1.691
12287TIP3    H236807   1.574   3.756   1.798
12288TIP3   OH236808   3.470   2.565   1.850
12288TIP3    H136809   3.559   2.537   1.867
12288TIP3    H236810   3.463   2.564   1.754
12289TIP3   OH236811   2.627   3.887   1.827
12289TIP3    H136812   2.700   3.908   1.768
12289TIP3    H236813   2.548   3.904   1.775
12290TIP3   OH236814   1.706   5.063   1.961
12290TIP3    H136815   1.680   5.062   1.869
12290TIP3    H236816   1.721   4.971   1.983
12291TIP3   OH236817   5.272   4.700   1.433
12291TIP3    H136818   5.312   4.704   1.520
12291TIP3    H236819   5.190   4.749   1.442
12292TIP3   OH236820   1.386   3.985   0.548
12292TIP3    H136821   1.304   4.029   0.570
12292TIP3    H236822   1.360   3.912   0.491
12293TIP3   OH236823   5.813   5.037   2.093
12293TIP3    H136824   5.740   5.081   2.050
12293TIP3    H236825   5.778   4.950   2.115
12294TIP3   OH236826   2.750   0.155   2.026
12294TIP3    H136827   2.672   0.109   2.057
12294TIP3    H236828   2.814   0.086   2.009
12295TIP3   OH236829   6.722   7.032   6.607
12295TIP3    H136830   6.656   6.964   6.616
12295TIP3    H236831   6.804   6.990   6.633
12296TIP3   OH236832   2.095   7.171   3.848
12296TIP3    H136833   2.007   7.149   3.877
12296TIP3    H236834   2.116   7.251   3.895
12297TIP3   OH236835   5.081   3.998   5.412
12297TIP3    H136836   5.140   4.016   5.339
12297TIP3    H236837   5.138   3.992   5.488
12298TIP3   OH236838   3.539   2.492   5.900
12298TIP3    H136839   3.498   2.407   5.886
12298TIP3    H236840   3.624   2.472   5.939
12299TIP3   OH236841   7.670   3.981   6.610
12299TIP3    H136842   7.725   4.054   6.640
12299TIP3    H236843   7.584   3.998   6.648
12300TIP3   OH236844   4.177   6.909   5.570
12300TIP3    H136845   4.150   6.899   5.661
12300TIP3    H236846   4.248   6.846   5.559
12301TIP3   OH236847   3.596   1.212   6.521
12301TIP3    H136848   3.661   1.225   6.452
12301TIP3    H236849   3.545   1.136   6.492
12302TIP3   OH236850   2.603   4.936   0.452
12302TIP3    H136851   2.575   4.865   0.509
12302TIP3    H236852   2.652   4.894   0.382
12303TIP3   OH236853   3.544   6.410   3.662
12303TIP3    H136854   3.584   6.363   3.589
12303TIP3    H236855   3.455   6.430   3.633
12304TIP3   OH236856   6.660   2.520   6.630
12304TIP3    H136857   6.704   2.486   6.552
12304TIP3    H236858   6.659   2.615   6.618
12305TIP3   OH236859   2.508   1.894   2.754
12305TIP3    H136860   2.426   1.853   2.780
12305TIP3    H236861   2.498   1.914   2.661
12306TIP3   OH236862   3.974   4.143   1.499
12306TIP3    H136863   3.921   4.085   1.445
12306TIP3    H236864   3.992   4.093   1.578
12307TIP3   OH236865   1.169   4.675   3.112
12307TIP3    H136866   1.096   4.716   3.159
12307TIP3    H236867   1.242   4.736   3.122
12308TIP3   OH236868   1.460   5.010   4.569
12308TIP3    H136869   1.398   5.070   4.610
12308TIP3    H236870   1.426   4.923   4.591
12309TIP3   OH236871   5.155   0.462   1.227
12309TIP3    H136872   5.177   0.519   1.301
12309TIP3    H236873   5.146   0.522   1.153
12310TIP3   OH236874   5.832   5.811   3.270
12310TIP3    H136875   5.874   5.887   3.310
12310TIP3    H236876   5.898   5.777   3.209
12311TIP3   OH236877   1.441   4.711   6.575
12311TIP3    H136878   1.378   4.669   6.634
12311TIP3    H236879   1.474   4.785   6.625
12312TIP3   OH236880   3.144   3.985   1.069
12312TIP3    H136881   3.053   3.989   1.096
12312TIP3    H236882   3.180   3.910   1.116
12313TIP3   OH236883   4.457   0.796   2.843
12313TIP3    H136884   4.387   0.839   2.794
12313TIP3    H236885   4.518   0.765   2.776
12314TIP3   OH236886   0.794   7.256   4.684
12314TIP3    H136887   0.705   7.255   4.649
12314TIP3    H236888   0.783   7.253   4.779
12315TIP3   OH236889   2.615   7.494   2.670
12315TIP3    H136890   2.539   7.463   2.718
12315TIP3    H236891   2.690   7.455   2.714
12316TIP3   OH236892   6.124   5.872   2.006
12316TIP3    H136893   6.071   5.952   2.011
12316TIP3    H236894   6.154   5.869   1.915
12317TIP3   OH236895   3.926   0.300   0.522
12317TIP3    H136896   3.835   0.288   0.494
12317TIP3    H236897   3.937   0.395   0.527
12318TIP3   OH236898   2.348   6.062   1.235
12318TIP3    H136899   2.344   6.025   1.147
12318TIP3    H236900   2.308   6.149   1.226
12319TIP3   OH236901   4.019   2.265   0.031
12319TIP3    H136902   4.061   2.227  -0.046
12319TIP3    H236903   4.011   2.193   0.093
12320TIP3   OH236904   4.542   6.362   3.784
12320TIP3    H136905   4.566   6.382   3.875
12320TIP3    H236906   4.447   6.352   3.786
12321TIP3   OH236907   2.848   0.336   4.592
12321TIP3    H136908   2.888   0.251   4.608
12321TIP3    H236909   2.857   0.383   4.675
12322TIP3   OH236910   5.113   7.672   0.926
12322TIP3    H136911   5.094   7.758   0.963
12322TIP3    H236912   5.029   7.644   0.887
12323TIP3   OH236913   5.717   4.126   6.701
12323TIP3    H136914   5.789   4.122   6.764
12323TIP3    H236915   5.643   4.084   6.746
12324TIP3   OH236916   3.417   0.625   4.198
12324TIP3    H136917   3.332   0.669   4.193
12324TIP3    H236918   3.466   0.659   4.124
12325TIP3   OH236919   3.018   0.568   3.457
12325TIP3    H136920   3.032   0.661   3.472
12325TIP3    H236921   2.967   0.564   3.376
12326TIP3   OH236922   4.344   1.911   2.718
12326TIP3    H136923   4.415   1.956   2.672
12326TIP3    H236924   4.348   1.944   2.807
12327TIP3   OH236925   0.331   3.516   3.512
12327TIP3    H136926   0.386   3.540   3.438
12327TIP3    H236927   0.373   3.439   3.550
12328TIP3   OH236928   1.001   3.927   6.726
12328TIP3    H136929   0.927   3.983   6.748
12328TIP3    H236930   0.973   3.839   6.751
12329TIP3   OH236931   4.614   2.388   4.896
12329TIP3    H136932   4.695   2.394   4.947
12329TIP3    H236933   4.575   2.475   4.903
12330TIP3   OH236934   3.750   0.361   2.054
12330TIP3    H136935   3.793   0.368   2.139
12330TIP3    H236936   3.685   0.292   2.065
12331TIP3   OH236937   7.163   0.424   1.689
12331TIP3    H136938   7.089   0.377   1.728
12331TIP3    H236939   7.122   0.495   1.639
12332TIP3   OH236940   5.077   2.936   2.007
12332TIP3    H136941   5.067   2.929   2.102
12332TIP3    H236942   5.162   2.895   1.989
12333TIP3   OH236943   5.441   7.730   4.919
12333TIP3    H136944   5.351   7.725   4.950
12333TIP3    H236945   5.458   7.824   4.910
12334TIP3   OH236946   2.074   4.569   0.140
12334TIP3    H136947   2.112   4.566   0.227
12334TIP3    H236948   2.004   4.503   0.142
12335TIP3   OH236949   4.473   2.285   1.692
12335TIP3    H136950   4.391   2.287   1.642
12335TIP3    H236951   4.529   2.348   1.646
12336TIP3   OH236952   4.972   0.800   6.501
12336TIP3    H136953   4.993   0.861   6.430
12336TIP3    H236954   5.052   0.749   6.512
12337TIP3   OH236955   6.894   3.365   6.685
12337TIP3    H136956   6.889   3.444   6.631
12337TIP3    H236957   6.981   3.329   6.668
12338TIP3   OH236958   7.838   7.626   2.454
12338TIP3    H136959   7.783   7.696   2.418
12338TIP3    H236960   7.886   7.592   2.378
12339TIP3   OH236961   3.869   7.382   4.616
12339TIP3    H136962   3.926   7.384   4.539
12339TIP3    H236963   3.840   7.472   4.627
12340TIP3   OH236964   2.389   6.733   1.905
12340TIP3    H136965   2.348   6.763   1.986
12340TIP3    H236966   2.353   6.645   1.892
12341TIP3   OH236967   7.272   2.267   0.375
12341TIP3    H136968   7.326   2.343   0.396
12341TIP3    H236969   7.243   2.282   0.285
12342TIP3   OH236970   6.278   2.691   6.620
12342TIP3    H136971   6.204   2.736   6.662
12342TIP3    H236972   6.298   2.744   6.543
12343TIP3   OH236973   6.223   3.020   1.365
12343TIP3    H136974   6.247   2.941   1.414
12343TIP3    H236975   6.235   2.996   1.273
12344TIP3   OH236976   1.332   2.546   0.104
12344TIP3    H136977   1.421   2.580   0.113
12344TIP3    H236978   1.294   2.597   0.033
12345TIP3   OH236979   0.591   2.525   6.102
12345TIP3    H136980   0.590   2.466   6.177
12345TIP3    H236981   0.655   2.592   6.125
12346TIP3   OH236982   0.310   5.608   0.234
12346TIP3    H136983   0.321   5.513   0.223
12346TIP3    H236984   0.387   5.636   0.282
12347TIP3   OH236985   4.455   1.919   3.305
12347TIP3    H136986   4.452   1.971   3.385
12347TIP3    H236987   4.377   1.863   3.310
12348TIP3   OH236988   4.242   6.759   0.507
12348TIP3    H136989   4.257   6.839   0.557
12348TIP3    H236990   4.177   6.784   0.441
12349TIP3   OH236991   7.876   4.531   3.666
12349TIP3    H136992   7.812   4.528   3.738
12349TIP3    H236993   7.825   4.508   3.588
12350TIP3   OH236994   5.881   6.078   0.179
12350TIP3    H136995   5.867   6.082   0.085
12350TIP3    H236996   5.904   5.987   0.196
12351TIP3   OH236997   3.642   2.269   2.661
12351TIP3    H136998   3.604   2.181   2.659
12351TIP3    H236999   3.634   2.296   2.752
12352TIP3   OH237000   3.562   6.090   3.059
12352TIP3    H137001   3.605   6.171   3.088
12352TIP3    H237002   3.588   6.081   2.967
12353TIP3   OH237003   1.298   3.407   1.110
12353TIP3    H137004   1.310   3.345   1.182
12353TIP3    H237005   1.295   3.352   1.032
12354TIP3   OH237006   0.108   3.552   3.891
12354TIP3    H137007   0.200   3.536   3.910
12354TIP3    H237008   0.095   3.645   3.908
12355TIP3   OH237009   8.031   1.375   0.518
12355TIP3    H137010   7.947   1.402   0.481
12355TIP3    H237011   8.043   1.432   0.594
12356TIP3   OH237012   1.675   0.925   3.611
12356TIP3    H137013   1.584   0.954   3.616
12356TIP3    H237014   1.719   0.975   3.680
12357TIP3   OH237015   7.585   6.849   4.026
12357TIP3    H137016   7.639   6.917   4.067
12357TIP3    H237017   7.600   6.771   4.080
12358TIP3   OH237018   0.842   3.670   5.055
12358TIP3    H137019   0.907   3.738   5.072
12358TIP3    H237020   0.879   3.590   5.093
12359TIP3   OH237021   0.772   7.173   4.951
12359TIP3    H137022   0.863   7.153   4.972
12359TIP3    H237023   0.730   7.187   5.035
12360TIP3   OH237024   4.909   0.294   6.488
12360TIP3    H137025   4.840   0.256   6.434
12360TIP3    H237026   4.975   0.225   6.493
12361TIP3   OH237027   0.164   2.588   3.198
12361TIP3    H137028   0.144   2.615   3.108
12361TIP3    H237029   0.136   2.661   3.252
12362TIP3   OH237030   4.675   1.069   0.444
12362TIP3    H137031   4.675   1.034   0.354
12362TIP3    H237032   4.598   1.125   0.448
12363TIP3   OH237033   3.204   3.502   3.354
12363TIP3    H137034   3.298   3.491   3.362
12363TIP3    H237035   3.193   3.587   3.311
12364TIP3   OH237036   3.667   7.565   0.027
12364TIP3    H137037   3.755   7.560   0.063
12364TIP3    H237038   3.673   7.519  -0.057
12365TIP3   OH237039   0.346   2.373   2.221
12365TIP3    H137040   0.335   2.312   2.294
12365TIP3    H237041   0.264   2.421   2.217
12366TIP3   OH237042   6.851   4.611   3.604
12366TIP3    H137043   6.863   4.566   3.688
12366TIP3    H237044   6.938   4.617   3.567
12367TIP3   OH237045   4.359   6.596   3.596
12367TIP3    H137046   4.328   6.508   3.616
12367TIP3    H237047   4.282   6.653   3.608
12368TIP3   OH237048   6.393   0.087   3.087
12368TIP3    H137049   6.424  -0.003   3.088
12368TIP3    H237050   6.364   0.102   2.997
12369TIP3   OH237051   3.193   5.871   3.337
12369TIP3    H137052   3.246   5.847   3.413
12369TIP3    H237053   3.236   5.949   3.301
12370TIP3   OH237054   1.843   5.427   6.218
12370TIP3    H137055   1.912   5.477   6.262
12370TIP3    H237056   1.860   5.336   6.241
12371TIP3   OH237057   4.643   5.221   6.559
12371TIP3    H137058   4.706   5.149   6.551
12371TIP3    H237059   4.557   5.178   6.554
12372TIP3   OH237060   5.505   5.867   4.808
12372TIP3    H137061   5.512   5.778   4.843
12372TIP3    H237062   5.595   5.892   4.787
12373TIP3   OH237063   4.405   4.488   1.797
12373TIP3    H137064   4.464   4.498   1.872
12373TIP3    H237065   4.464   4.478   1.722
12374TIP3   OH237066   1.676   5.078   0.513
12374TIP3    H137067   1.607   5.037   0.462
12374TIP3    H237068   1.701   5.155   0.462
12375TIP3   OH237069   5.351   1.507   5.165
12375TIP3    H137070   5.326   1.543   5.250
12375TIP3    H237071   5.415   1.568   5.130
12376TIP3   OH237072   3.597   7.345   1.022
12376TIP3    H137073   3.586   7.418   1.083
12376TIP3    H237074   3.641   7.277   1.074
12377TIP3   OH237075   5.833   1.206   5.025
12377TIP3    H137076   5.799   1.232   5.110
12377TIP3    H237077   5.847   1.289   4.979
12378TIP3   OH237078   3.312   5.280   1.683
12378TIP3    H137079   3.394   5.328   1.669
12378TIP3    H237080   3.258   5.302   1.608
12379TIP3   OH237081   1.790   6.760   4.220
12379TIP3    H137082   1.854   6.766   4.149
12379TIP3    H237083   1.838   6.716   4.291
12380TIP3   OH237084   3.644   7.397   4.271
12380TIP3    H137085   3.620   7.438   4.353
12380TIP3    H237086   3.664   7.469   4.212
12381TIP3   OH237087   1.287   3.212   1.900
12381TIP3    H137088   1.378   3.193   1.926
12381TIP3    H237089   1.267   3.143   1.836
12382TIP3   OH237090   2.886   3.812   3.273
12382TIP3    H137091   2.859   3.764   3.352
12382TIP3    H237092   2.971   3.776   3.251
12383TIP3   OH237093   2.133   0.326   4.013
12383TIP3    H137094   2.054   0.293   4.056
12383TIP3    H237095   2.126   0.297   3.923
12384TIP3   OH237096   1.229   7.782   1.114
12384TIP3    H137097   1.263   7.780   1.203
12384TIP3    H237098   1.305   7.806   1.060
12385TIP3   OH237099   7.291   2.307   6.366
12385TIP3    H137100   7.346   2.384   6.382
12385TIP3    H237101   7.278   2.306   6.271
12386TIP3   OH237102   7.251   5.223   1.705
12386TIP3    H137103   7.169   5.271   1.706
12386TIP3    H237104   7.300   5.259   1.631
12387TIP3   OH237105   0.532   0.577   3.345
12387TIP3    H137106   0.472   0.571   3.419
12387TIP3    H237107   0.496   0.647   3.291
12388TIP3   OH237108   7.028   5.729   4.542
12388TIP3    H137109   7.122   5.710   4.547
12388TIP3    H237110   6.996   5.674   4.471
12389TIP3   OH237111   5.176   5.543   4.024
12389TIP3    H137112   5.246   5.510   3.968
12389TIP3    H237113   5.212   5.622   4.064
12390TIP3   OH237114   6.974   0.179   4.924
12390TIP3    H137115   7.041   0.215   4.982
12390TIP3    H237116   6.907   0.247   4.921
12391TIP3   OH237117   6.787   2.172   4.062
12391TIP3    H137118   6.812   2.227   3.988
12391TIP3    H237119   6.863   2.116   4.078
12392TIP3   OH237120   7.901   0.741   6.257
12392TIP3    H137121   7.879   0.682   6.185
12392TIP3    H237122   7.966   0.693   6.308
12393TIP3   OH237123   6.369   5.003   4.539
12393TIP3    H137124   6.385   5.072   4.475
12393TIP3    H237125   6.433   5.020   4.608
12394TIP3   OH237126   3.242   7.709   0.107
12394TIP3    H137127   3.320   7.673   0.149
12394TIP3    H237128   3.250   7.682   0.015
12395TIP3   OH237129   6.225   6.035   4.174
12395TIP3    H137130   6.177   6.021   4.255
12395TIP3    H237131   6.199   6.122   4.145
12396TIP3   OH237132   6.287   2.651   4.067
12396TIP3    H137133   6.257   2.563   4.043
12396TIP3    H237134   6.293   2.648   4.163
12397TIP3   OH237135   3.827   6.118   6.620
12397TIP3    H137136   3.750   6.096   6.567
12397TIP3    H237137   3.827   6.213   6.624
12398TIP3   OH237138   2.942   1.766   1.029
12398TIP3    H137139   2.994   1.686   1.020
12398TIP3    H237140   2.947   1.809   0.943
12399TIP3   OH237141   2.990   1.170   2.324
12399TIP3    H137142   3.002   1.160   2.419
12399TIP3    H237143   2.909   1.221   2.316
12400TIP3   OH237144   3.335   0.598   2.716
12400TIP3    H137145   3.404   0.653   2.679
12400TIP3    H237146   3.382   0.532   2.768
12401TIP3   OH237147   6.137   7.167   2.283
12401TIP3    H137148   6.156   7.110   2.209
12401TIP3    H237149   6.060   7.128   2.324
12402TIP3   OH237150   6.471   6.442   6.343
12402TIP3    H137151   6.391   6.390   6.348
12402TIP3    H237152   6.467   6.501   6.418
12403TIP3   OH237153   0.641   4.503   0.534
12403TIP3    H137154   0.723   4.473   0.497
12403TIP3    H237155   0.605   4.426   0.578
12404TIP3   OH237156   7.339   4.548   2.074
12404TIP3    H137157   7.408   4.614   2.072
12404TIP3    H237158   7.289   4.563   1.994
12405TIP3   OH237159   4.466   2.909   6.561
12405TIP3    H137160   4.491   2.899   6.470
12405TIP3    H237161   4.500   2.995   6.587
12406TIP3   OH237162   7.415   3.841   0.180
12406TIP3    H137163   7.328   3.871   0.207
12406TIP3    H237164   7.461   3.921   0.155
12407TIP3   OH237165   3.494   6.712   3.774
12407TIP3    H137166   3.486   6.747   3.685
12407TIP3    H237167   3.526   6.623   3.761
12408TIP3   OH237168   2.589   2.240   1.148
12408TIP3    H137169   2.578   2.335   1.140
12408TIP3    H237170   2.636   2.228   1.230
12409TIP3   OH237171   4.096   6.195   0.059
12409TIP3    H137172   4.183   6.230   0.042
12409TIP3    H237173   4.061   6.250   0.129
12410TIP3   OH237174   1.641   6.284   2.076
12410TIP3    H137175   1.575   6.348   2.049
12410TIP3    H237176   1.621   6.206   2.023
12411TIP3   OH237177   5.385   5.240   0.651
12411TIP3    H137178   5.429   5.299   0.713
12411TIP3    H237179   5.425   5.155   0.666
12412TIP3   OH237180   5.340   6.183   0.101
12412TIP3    H137181   5.308   6.271   0.120
12412TIP3    H237182   5.435   6.187   0.118
12413TIP3   OH237183   0.186   6.872   4.893
12413TIP3    H137184   0.106   6.900   4.937
12413TIP3    H237185   0.223   6.805   4.950
12414TIP3   OH237186   5.143   3.722   4.431
12414TIP3    H137187   5.139   3.627   4.422
12414TIP3    H237188   5.052   3.749   4.441
12415TIP3   OH237189   3.035   7.403   4.920
12415TIP3    H137190   3.026   7.355   5.002
12415TIP3    H237191   3.104   7.358   4.872
12416TIP3   OH237192   0.211   2.815   1.487
12416TIP3    H137193   0.278   2.880   1.464
12416TIP3    H237194   0.189   2.836   1.578
12417TIP3   OH237195   7.462   6.294   4.855
12417TIP3    H137196   7.439   6.387   4.859
12417TIP3    H237197   7.389   6.249   4.898
12418TIP3   OH237198   7.653   1.462   3.248
12418TIP3    H137199   7.680   1.377   3.281
12418TIP3    H237200   7.579   1.487   3.304
12419TIP3   OH237201   2.067   1.879   5.218
12419TIP3    H137202   2.110   1.902   5.136
12419TIP3    H237203   2.090   1.950   5.278
12420TIP3   OH237204   4.003   2.057   6.591
12420TIP3    H137205   3.946   2.125   6.629
12420TIP3    H237206   4.004   2.077   6.497
12421TIP3   OH237207   0.763   4.427   3.613
12421TIP3    H137208   0.695   4.473   3.563
12421TIP3    H237209   0.820   4.497   3.645
12422TIP3   OH237210   2.361   4.806   0.697
12422TIP3    H137211   2.446   4.851   0.701
12422TIP3    H237212   2.364   4.744   0.770
12423TIP3   OH237213   0.541   3.953   2.202
12423TIP3    H137214   0.556   4.031   2.256
12423TIP3    H237215   0.450   3.961   2.174
12424TIP3   OH237216   3.774   1.721   4.778
12424TIP3    H137217   3.813   1.715   4.691
12424TIP3    H237218   3.819   1.795   4.820
12425TIP3   OH237219   5.316   0.223   3.439
12425TIP3    H137220   5.252   0.290   3.416
12425TIP3    H237221   5.350   0.250   3.524
12426TIP3   OH237222   0.605   6.193   5.883
12426TIP3    H137223   0.535   6.128   5.886
12426TIP3    H237224   0.598   6.241   5.966
12427TIP3   OH237225   3.893   5.155   6.275
12427TIP3    H137226   3.883   5.250   6.269
12427TIP3    H237227   3.841   5.131   6.352
12428TIP3   OH237228   7.782   5.623   1.574
12428TIP3    H137229   7.834   5.686   1.624
12428TIP3    H237230   7.774   5.548   1.632
12429TIP3   OH237231   1.387   5.760   0.417
12429TIP3    H137232   1.415   5.726   0.502
12429TIP3    H237233   1.300   5.796   0.433
12430TIP3   OH237234   1.531   0.503   1.644
12430TIP3    H137235   1.556   0.430   1.701
12430TIP3    H237236   1.532   0.466   1.556
12431TIP3   OH237237   6.860   3.513   4.904
12431TIP3    H137238   6.811   3.583   4.860
12431TIP3    H237239   6.945   3.552   4.925
12432TIP3   OH237240   2.783   4.231   1.446
12432TIP3    H137241   2.846   4.164   1.473
12432TIP3    H237242   2.715   4.229   1.513
12433TIP3   OH237243   2.497   7.425   1.499
12433TIP3    H137244   2.562   7.476   1.451
12433TIP3    H237245   2.505   7.337   1.463
12434TIP3   OH237246   1.854   6.884   5.958
12434TIP3    H137247   1.775   6.843   5.993
12434TIP3    H237248   1.891   6.932   6.032
12435TIP3   OH237249   7.635   4.555   0.536
12435TIP3    H137250   7.598   4.570   0.623
12435TIP3    H237251   7.685   4.634   0.517
12436TIP3   OH237252   5.993   6.465   1.526
12436TIP3    H137253   5.967   6.557   1.515
12436TIP3    H237254   6.074   6.458   1.475
12437TIP3   OH237255   4.004   2.115   0.283
12437TIP3    H137256   4.014   2.149   0.372
12437TIP3    H237257   4.046   2.029   0.285
12438TIP3   OH237258   7.977   3.320   2.001
12438TIP3    H137259   7.915   3.254   2.032
12438TIP3    H237260   7.971   3.315   1.905
12439TIP3   OH237261   7.268   1.525   3.173
12439TIP3    H137262   7.190   1.477   3.200
12439TIP3    H237263   7.240   1.616   3.167
12440TIP3   OH237264   7.739   0.778   4.303
12440TIP3    H137265   7.682   0.821   4.368
12440TIP3    H237266   7.807   0.843   4.285
12441TIP3   OH237267   0.557   2.880   4.860
12441TIP3    H137268   0.648   2.906   4.841
12441TIP3    H237269   0.561   2.785   4.868
12442TIP3   OH237270   5.412   0.397   6.763
12442TIP3    H137271   5.484   0.398   6.826
12442TIP3    H237272   5.447   0.444   6.686
12443TIP3   OH237273   7.988   2.252   4.642
12443TIP3    H137274   8.043   2.241   4.564
12443TIP3    H237275   7.899   2.239   4.611
12444TIP3   OH237276   8.174   5.457   0.786
12444TIP3    H137277   8.097   5.412   0.820
12444TIP3    H237278   8.189   5.529   0.847
12445TIP3   OH237279   7.004   3.384   4.156
12445TIP3    H137280   7.083   3.338   4.182
12445TIP3    H237281   7.005   3.466   4.205
12446TIP3   OH237282   6.068   1.479   2.949
12446TIP3    H137283   6.006   1.408   2.932
12446TIP3    H237284   6.015   1.549   2.986
12447TIP3   OH237285   1.487   7.100   3.301
12447TIP3    H137286   1.421   7.058   3.356
12447TIP3    H237287   1.441   7.118   3.218
12448TIP3   OH237288   2.675  -0.030   0.343
12448TIP3    H137289   2.693   0.035   0.410
12448TIP3    H237290   2.622   0.016   0.278
12449TIP3   OH237291   6.056   4.140   3.681
12449TIP3    H137292   6.116   4.065   3.680
12449TIP3    H237293   6.036   4.155   3.589
12450TIP3   OH237294   7.350   2.662   0.172
12450TIP3    H137295   7.399   2.739   0.200
12450TIP3    H237296   7.318   2.684   0.084
12451TIP3   OH237297   6.655   4.873   6.493
12451TIP3    H137298   6.660   4.792   6.441
12451TIP3    H237299   6.746   4.895   6.511
12452TIP3   OH237300   2.079   5.618   6.697
12452TIP3    H137301   2.117   5.537   6.663
12452TIP3    H237302   2.148   5.683   6.688
12453TIP3   OH237303   5.213   1.672   4.337
12453TIP3    H137304   5.203   1.613   4.412
12453TIP3    H237305   5.287   1.637   4.288
12454TIP3   OH237306   3.160   0.194   0.110
12454TIP3    H137307   3.231   0.258   0.117
12454TIP3    H237308   3.164   0.143   0.191
12455TIP3   OH237309   0.810   4.734   3.359
12455TIP3    H137310   0.731   4.682   3.340
12455TIP3    H237311   0.778   4.804   3.416
12456TIP3   OH237312   7.373   6.719   5.399
12456TIP3    H137313   7.438   6.671   5.346
12456TIP3    H237314   7.412   6.724   5.486
12457TIP3   OH237315   2.816   4.474   4.694
12457TIP3    H137316   2.773   4.483   4.780
12457TIP3    H237317   2.750   4.501   4.631
12458TIP3   OH237318   7.996   0.692   4.615
12458TIP3    H137319   8.046   0.686   4.696
12458TIP3    H237320   7.912   0.650   4.635
12459TIP3   OH237321   8.251   6.494   6.772
12459TIP3    H137322   8.180   6.438   6.739
12459TIP3    H237323   8.329   6.463   6.726
12460TIP3   OH237324   0.096   4.188   5.325
12460TIP3    H137325   0.148   4.115   5.357
12460TIP3    H237326   0.159   4.248   5.286
12461TIP3   OH237327   7.322   5.612   0.824
12461TIP3    H137328   7.240   5.649   0.790
12461TIP3    H237329   7.297   5.528   0.863
12462TIP3   OH237330   5.180   1.062   0.382
12462TIP3    H137331   5.231   1.098   0.455
12462TIP3    H237332   5.245   1.041   0.315
12463TIP3   OH237333   1.877   5.019   3.130
12463TIP3    H137334   1.836   5.103   3.149
12463TIP3    H237335   1.923   5.032   3.047
12464TIP3   OH237336   7.636   5.833   2.022
12464TIP3    H137337   7.696   5.795   2.087
12464TIP3    H237338   7.688   5.900   1.978
12465TIP3   OH237339   7.721   5.737   3.496
12465TIP3    H137340   7.779   5.812   3.508
12465TIP3    H237341   7.780   5.664   3.476
12466TIP3   OH237342   0.637   6.262   5.173
12466TIP3    H137343   0.683   6.180   5.193
12466TIP3    H237344   0.651   6.316   5.251
12467TIP3   OH237345   0.780   2.555   0.562
12467TIP3    H137346   0.872   2.539   0.541
12467TIP3    H237347   0.731   2.496   0.505
12468TIP3   OH237348   0.626   3.286   1.716
12468TIP3    H137349   0.679   3.284   1.637
12468TIP3    H237350   0.538   3.309   1.685
12469TIP3   OH237351   7.244   6.219   4.990
12469TIP3    H137352   7.229   6.127   5.010
12469TIP3    H237353   7.157   6.258   4.988
12470TIP3   OH237354   8.198   3.211   6.173
12470TIP3    H137355   8.207   3.223   6.078
12470TIP3    H237356   8.278   3.165   6.199
12471TIP3   OH237357   6.229   3.781   6.177
12471TIP3    H137358   6.307   3.786   6.232
12471TIP3    H237359   6.161   3.828   6.226
12472TIP3   OH237360   3.260   2.423   1.322
12472TIP3    H137361   3.281   2.514   1.345
12472TIP3    H237362   3.250   2.378   1.406
12473TIP3   OH237363   3.580   3.186   5.559
12473TIP3    H137364   3.621   3.159   5.642
12473TIP3    H237365   3.653   3.194   5.498
12474TIP3   OH237366   7.100   7.765   2.898
12474TIP3    H137367   7.156   7.687   2.899
12474TIP3    H237368   7.012   7.731   2.913
12475TIP3   OH237369   7.371   0.072   2.469
12475TIP3    H137370   7.404   0.031   2.548
12475TIP3    H237371   7.449   0.095   2.419
12476TIP3   OH237372   7.172   3.393   1.357
12476TIP3    H137373   7.180   3.466   1.295
12476TIP3    H237374   7.151   3.434   1.441
12477TIP3   OH237375   4.378   4.089   5.121
12477TIP3    H137376   4.444   4.071   5.188
12477TIP3    H237377   4.381   4.183   5.108
12478TIP3   OH237378   5.653   0.207   2.213
12478TIP3    H137379   5.656   0.132   2.272
12478TIP3    H237380   5.587   0.184   2.148
12479TIP3   OH237381   1.805   5.038   0.206
12479TIP3    H137382   1.858   4.971   0.248
12479TIP3    H237383   1.862   5.115   0.202
12480TIP3   OH237384   4.974   4.378   0.652
12480TIP3    H137385   4.983   4.310   0.719
12480TIP3    H237386   4.884   4.370   0.622
12481TIP3   OH237387   2.557   6.297   1.946
12481TIP3    H137388   2.540   6.243   2.023
12481TIP3    H237389   2.645   6.331   1.960
12482TIP3   OH237390   4.140   6.514   6.084
12482TIP3    H137391   4.059   6.465   6.068
12482TIP3    H237392   4.172   6.536   5.996
12483TIP3   OH237393   1.525   1.413   2.566
12483TIP3    H137394   1.522   1.422   2.661
12483TIP3    H237395   1.544   1.501   2.534
12484TIP3   OH237396   8.200   0.107   3.689
12484TIP3    H137397   8.131   0.066   3.742
12484TIP3    H237398   8.177   0.200   3.690
12485TIP3   OH237399   2.880   1.945   5.375
12485TIP3    H137400   2.806   1.962   5.433
12485TIP3    H237401   2.911   1.858   5.400
12486TIP3   OH237402   1.217   1.880   1.901
12486TIP3    H137403   1.301   1.848   1.869
12486TIP3    H237404   1.210   1.969   1.868
12487TIP3   OH237405   1.440   5.021   1.474
12487TIP3    H137406   1.433   5.116   1.481
12487TIP3    H237407   1.521   4.999   1.521
12488TIP3   OH237408   7.106   0.106   2.113
12488TIP3    H137409   7.158   0.051   2.172
12488TIP3    H237410   7.057   0.044   2.059
12489TIP3   OH237411   3.371   3.510   6.073
12489TIP3    H137412   3.346   3.597   6.103
12489TIP3    H237413   3.289   3.467   6.051
12490TIP3   OH237414   6.029   0.675   0.503
12490TIP3    H137415   6.123   0.685   0.486
12490TIP3    H237416   5.988   0.691   0.418
12491TIP3   OH237417   4.665   7.594   2.969
12491TIP3    H137418   4.729   7.523   2.967
12491TIP3    H237419   4.594   7.565   2.912
12492TIP3   OH237420   7.982   5.293   1.894
12492TIP3    H137421   7.948   5.351   1.961
12492TIP3    H237422   8.011   5.215   1.942
12493TIP3   OH237423   5.763   0.134   1.382
12493TIP3    H137424   5.771   0.124   1.287
12493TIP3    H237425   5.700   0.067   1.408
12494TIP3   OH237426   3.480   3.742   0.537
12494TIP3    H137427   3.493   3.687   0.614
12494TIP3    H237428   3.560   3.730   0.485
12495TIP3   OH237429   3.778   1.838   3.895
12495TIP3    H137430   3.816   1.751   3.880
12495TIP3    H237431   3.687   1.821   3.918
12496TIP3   OH237432   2.494   2.945   2.845
12496TIP3    H137433   2.585   2.965   2.822
12496TIP3    H237434   2.448   3.029   2.833
12497TIP3   OH237435   1.577   0.099   4.770
12497TIP3    H137436   1.584   0.190   4.800
12497TIP3    H237437   1.607   0.102   4.679
12498TIP3   OH237438   0.888   0.159   5.418
12498TIP3    H137439   0.968   0.134   5.463
12498TIP3    H237440   0.858   0.079   5.375
12499TIP3   OH237441   3.459   5.029   4.636
12499TIP3    H137442   3.549   4.998   4.633
12499TIP3    H237443   3.406   4.949   4.640
12500TIP3   OH237444   5.155   6.432   5.267
12500TIP3    H137445   5.243   6.407   5.239
12500TIP3    H237446   5.132   6.505   5.210
12501TIP3   OH237447   7.599   5.199   3.025
12501TIP3    H137448   7.676   5.252   3.008
12501TIP3    H237449   7.531   5.237   2.969
12502TIP3   OH237450   5.509   5.834   3.931
12502TIP3    H137451   5.482   5.786   4.010
12502TIP3    H237452   5.552   5.913   3.965
12503TIP3   OH237453   4.736   4.219   0.646
12503TIP3    H137454   4.692   4.206   0.730
12503TIP3    H237455   4.770   4.133   0.623
12504TIP3   OH237456   6.216   4.573   4.574
12504TIP3    H137457   6.284   4.597   4.511
12504TIP3    H237458   6.182   4.656   4.606
12505TIP3   OH237459   1.061   7.458   1.428
12505TIP3    H137460   1.036   7.496   1.512
12505TIP3    H237461   1.154   7.480   1.419
12506TIP3   OH237462   2.545   4.495   0.064
12506TIP3    H137463   2.524   4.545  -0.015
12506TIP3    H237464   2.640   4.499   0.070
12507TIP3   OH237465   1.018   1.155   2.045
12507TIP3    H137466   0.996   1.219   2.112
12507TIP3    H237467   1.106   1.125   2.067
12508TIP3   OH237468   4.658   7.362   5.854
12508TIP3    H137469   4.629   7.271   5.854
12508TIP3    H237470   4.673   7.383   5.946
12509TIP3   OH237471   0.431   0.366   5.612
12509TIP3    H137472   0.512   0.374   5.562
12509TIP3    H237473   0.440   0.284   5.660
12510TIP3   OH237474   5.592   2.554   4.398
12510TIP3    H137475   5.649   2.615   4.444
12510TIP3    H237476   5.651   2.505   4.340
12511TIP3   OH237477   7.970   6.034   3.020
12511TIP3    H137478   7.902   6.089   2.980
12511TIP3    H237479   7.941   6.023   3.111
12512TIP3   OH237480   1.270   7.540   0.599
12512TIP3    H137481   1.186   7.559   0.642
12512TIP3    H237482   1.305   7.465   0.648
12513TIP3   OH237483   3.260   3.333   1.384
12513TIP3    H137484   3.282   3.371   1.299
12513TIP3    H237485   3.345   3.322   1.428
12514TIP3   OH237486   3.102   4.453   6.315
12514TIP3    H137487   3.085   4.359   6.319
12514TIP3    H237488   3.124   4.478   6.405
12515TIP3   OH237489   5.399   5.610   6.518
12515TIP3    H137490   5.413   5.694   6.562
12515TIP3    H237491   5.452   5.548   6.567
12516TIP3   OH237492   6.145   0.172   2.424
12516TIP3    H137493   6.100   0.247   2.385
12516TIP3    H237494   6.171   0.119   2.349
12517TIP3   OH237495   1.193   4.160   2.594
12517TIP3    H137496   1.098   4.174   2.589
12517TIP3    H237497   1.204   4.098   2.667
12518TIP3   OH237498   4.299   5.407   5.312
12518TIP3    H137499   4.260   5.320   5.312
12518TIP3    H237500   4.246   5.457   5.250
12519TIP3   OH237501   4.804   0.127   6.085
12519TIP3    H137502   4.760   0.057   6.036
12519TIP3    H237503   4.761   0.128   6.170
12520TIP3   OH237504   6.608   3.671   3.293
12520TIP3    H137505   6.556   3.693   3.371
12520TIP3    H237506   6.581   3.735   3.227
12521TIP3   OH237507   4.177   5.529   2.166
12521TIP3    H137508   4.210   5.447   2.128
12521TIP3    H237509   4.121   5.502   2.238
12522TIP3   OH237510   3.513   3.140   3.230
12522TIP3    H137511   3.550   3.052   3.228
12522TIP3    H237512   3.577   3.194   3.183
12523TIP3   OH237513   0.254   7.163   1.778
12523TIP3    H137514   0.163   7.182   1.759
12523TIP3    H237515   0.268   7.194   1.868
12524TIP3   OH237516   2.652   5.825   5.240
12524TIP3    H137517   2.719   5.814   5.172
12524TIP3    H237518   2.660   5.916   5.268
12525TIP3   OH237519   4.344   5.038   4.841
12525TIP3    H137520   4.258   5.048   4.800
12525TIP3    H237521   4.328   5.057   4.934
12526TIP3   OH237522   7.827   2.692   6.219
12526TIP3    H137523   7.883   2.770   6.225
12526TIP3    H237524   7.861   2.633   6.287
12527TIP3   OH237525   5.154   4.962   3.235
12527TIP3    H137526   5.151   5.057   3.220
12527TIP3    H237527   5.169   4.954   3.329
12528TIP3   OH237528   6.486   0.655   1.150
12528TIP3    H137529   6.427   0.600   1.202
12528TIP3    H237530   6.541   0.699   1.214
12529TIP3   OH237531   1.282   4.408   1.401
12529TIP3    H137532   1.221   4.342   1.369
12529TIP3    H237533   1.264   4.485   1.347
12530TIP3   OH237534   8.244   4.064   0.657
12530TIP3    H137535   8.280   4.131   0.715
12530TIP3    H237536   8.279   3.982   0.692
12531TIP3   OH237537   4.440   6.633   1.263
12531TIP3    H137538   4.347   6.653   1.259
12531TIP3    H237539   4.481   6.711   1.301
12532TIP3   OH237540   6.783   4.643   4.708
12532TIP3    H137541   6.844   4.643   4.633
12532TIP3    H237542   6.772   4.550   4.729
12533TIP3   OH237543   3.509   3.264   1.061
12533TIP3    H137544   3.590   3.213   1.067
12533TIP3    H237545   3.481   3.275   1.152
12534TIP3   OH237546   8.291   4.726   0.181
12534TIP3    H137547   8.363   4.683   0.135
12534TIP3    H237548   8.212   4.696   0.135
12535TIP3   OH237549   7.716   5.228   2.405
12535TIP3    H137550   7.698   5.302   2.463
12535TIP3    H237551   7.637   5.174   2.410
12536TIP3   OH237552   2.878   7.080   2.975
12536TIP3    H137553   2.865   7.015   2.906
12536TIP3    H237554   2.832   7.044   3.051
12537TIP3   OH237555   2.903   4.512   1.242
12537TIP3    H137556   2.953   4.584   1.203
12537TIP3    H237557   2.964   4.471   1.303
12538TIP3   OH237558   1.262   4.435   3.006
12538TIP3    H137559   1.272   4.415   2.913
12538TIP3    H237560   1.237   4.527   3.009
12539TIP3   OH237561   1.251   2.291   3.412
12539TIP3    H137562   1.336   2.269   3.373
12539TIP3    H237563   1.228   2.214   3.464
12540TIP3   OH237564   3.649   4.389   4.443
12540TIP3    H137565   3.737   4.357   4.464
12540TIP3    H237566   3.628   4.346   4.360
12541TIP3   OH237567   7.584   2.179   1.520
12541TIP3    H137568   7.537   2.142   1.445
12541TIP3    H237569   7.515   2.212   1.578
12542TIP3   OH237570   7.446   5.624   6.226
12542TIP3    H137571   7.449   5.599   6.133
12542TIP3    H237572   7.532   5.664   6.242
12543TIP3   OH237573   0.845   4.060   5.284
12543TIP3    H137574   0.877   4.099   5.366
12543TIP3    H237575   0.845   4.132   5.221
12544TIP3   OH237576   0.278   6.582   1.153
12544TIP3    H137577   0.366   6.545   1.167
12544TIP3    H237578   0.255   6.554   1.064
12545TIP3   OH237579   2.690   3.308   5.789
12545TIP3    H137580   2.683   3.376   5.722
12545TIP3    H237581   2.671   3.227   5.741
12546TIP3   OH237582   5.874   1.001   5.281
12546TIP3    H137583   5.825   0.921   5.301
12546TIP3    H237584   5.868   1.009   5.186
12547TIP3   OH237585   1.860   4.752   6.535
12547TIP3    H137586   1.861   4.803   6.615
12547TIP3    H237587   1.932   4.690   6.544
12548TIP3   OH237588   4.177   0.967   3.729
12548TIP3    H137589   4.178   0.883   3.683
12548TIP3    H237590   4.136   0.947   3.814
12549TIP3   OH237591   1.758   2.387   6.721
12549TIP3    H137592   1.801   2.465   6.684
12549TIP3    H237593   1.808   2.314   6.685
12550TIP3   OH237594   0.550   3.020   6.712
12550TIP3    H137595   0.499   3.002   6.791
12550TIP3    H237596   0.496   2.987   6.640
12551TIP3   OH237597   7.497   6.012   5.007
12551TIP3    H137598   7.570   5.970   5.052
12551TIP3    H237599   7.460   6.072   5.072
12552TIP3   OH237600   5.156   4.811   3.879
12552TIP3    H137601   5.166   4.866   3.956
12552TIP3    H237602   5.068   4.831   3.846
12553TIP3   OH237603   5.534   6.373  -0.013
12553TIP3    H137604   5.592   6.431   0.037
12553TIP3    H237605   5.594   6.318  -0.065
12554TIP3   OH237606   0.835   5.683   3.609
12554TIP3    H137607   0.895   5.756   3.597
12554TIP3    H237608   0.890   5.605   3.601
12555TIP3   OH237609   3.596   0.432   6.021
12555TIP3    H137610   3.626   0.516   5.988
12555TIP3    H237611   3.501   0.442   6.029
12556TIP3   OH237612   5.233   2.838   0.642
12556TIP3    H137613   5.230   2.925   0.680
12556TIP3    H237614   5.238   2.852   0.548
12557TIP3   OH237615   6.363   5.232   1.598
12557TIP3    H137616   6.357   5.138   1.583
12557TIP3    H237617   6.444   5.244   1.647
12558TIP3   OH237618   1.477   2.469   3.532
12558TIP3    H137619   1.448   2.549   3.575
12558TIP3    H237620   1.397   2.421   3.513
12559TIP3   OH237621   6.306   3.716   5.319
12559TIP3    H137622   6.346   3.636   5.353
12559TIP3    H237623   6.359   3.787   5.354
12560TIP3   OH237624   3.578   4.948   1.720
12560TIP3    H137625   3.589   4.892   1.797
12560TIP3    H237626   3.658   5.001   1.717
12561TIP3   OH237627   0.410   5.411   2.479
12561TIP3    H137628   0.488   5.410   2.535
12561TIP3    H237629   0.421   5.489   2.424
12562TIP3   OH237630   2.647   0.796   6.522
12562TIP3    H137631   2.631   0.851   6.445
12562TIP3    H237632   2.721   0.838   6.566
12563TIP3   OH237633   3.038   1.792   3.498
12563TIP3    H137634   2.961   1.745   3.530
12563TIP3    H237635   3.098   1.792   3.572
12564TIP3   OH237636   2.162   3.508   0.473
12564TIP3    H137637   2.183   3.448   0.544
12564TIP3    H237638   2.094   3.464   0.423
12565TIP3   OH237639   0.990   1.690   0.683
12565TIP3    H137640   0.957   1.646   0.761
12565TIP3    H237641   1.038   1.622   0.636
12566TIP3   OH237642   0.237   3.301   2.039
12566TIP3    H137643   0.228   3.314   2.133
12566TIP3    H237644   0.322   3.340   2.018
12567TIP3   OH237645   0.268   4.840   4.758
12567TIP3    H137646   0.243   4.764   4.704
12567TIP3    H237647   0.185   4.883   4.778
12568TIP3   OH237648   2.129   0.211   6.695
12568TIP3    H137649   2.084   0.295   6.692
12568TIP3    H237650   2.103   0.167   6.614
12569TIP3   OH237651   2.943   2.601   4.497
12569TIP3    H137652   2.929   2.695   4.512
12569TIP3    H237653   2.856   2.563   4.500
12570TIP3   OH237654   7.137   0.402   2.132
12570TIP3    H137655   7.142   0.309   2.113
12570TIP3    H237656   7.044   0.422   2.133
12571TIP3   OH237657   4.467   5.864   4.514
12571TIP3    H137658   4.548   5.817   4.533
12571TIP3    H237659   4.483   5.953   4.546
12572TIP3   OH237660   1.502   2.151   5.126
12572TIP3    H137661   1.472   2.204   5.200
12572TIP3    H237662   1.484   2.205   5.050
12573TIP3   OH237663   1.433   1.165   2.611
12573TIP3    H137664   1.473   1.144   2.695
12573TIP3    H237665   1.450   1.259   2.600
12574TIP3   OH237666   6.414   2.875   5.203
12574TIP3    H137667   6.349   2.844   5.266
12574TIP3    H237668   6.479   2.921   5.256
12575TIP3   OH237669   2.444   7.627   0.295
12575TIP3    H137670   2.404   7.547   0.261
12575TIP3    H237671   2.435   7.690   0.223
12576TIP3   OH237672   5.768   3.812   0.288
12576TIP3    H137673   5.828   3.759   0.235
12576TIP3    H237674   5.790   3.903   0.265
12577TIP3   OH237675   2.302   6.747   1.259
12577TIP3    H137676   2.335   6.662   1.288
12577TIP3    H237677   2.220   6.759   1.307
12578TIP3   OH237678   4.919   4.201   3.408
12578TIP3    H137679   4.953   4.290   3.417
12578TIP3    H237680   4.936   4.177   3.317
12579TIP3   OH237681   6.652   6.189   2.746
12579TIP3    H137682   6.602   6.113   2.776
12579TIP3    H237683   6.743   6.158   2.744
12580TIP3   OH237684   6.031   6.154   2.000
12580TIP3    H137685   6.082   6.222   1.956
12580TIP3    H237686   5.977   6.201   2.064
12581TIP3   OH237687   7.306   5.790   6.382
12581TIP3    H137688   7.353   5.870   6.357
12581TIP3    H237689   7.353   5.720   6.337
12582TIP3   OH237690   4.275   0.241   6.466
12582TIP3    H137691   4.294   0.162   6.416
12582TIP3    H237692   4.344   0.303   6.441
12583TIP3   OH237693   2.141   3.222   2.571
12583TIP3    H137694   2.128   3.266   2.487
12583TIP3    H237695   2.132   3.292   2.636
12584TIP3   OH237696   2.637   1.125   1.794
12584TIP3    H137697   2.610   1.161   1.710
12584TIP3    H237698   2.606   1.189   1.858
12585TIP3   OH237699   0.060   5.488   1.861
12585TIP3    H137700  -0.031   5.515   1.846
12585TIP3    H237701   0.062   5.396   1.838
12586TIP3   OH237702   7.081   2.057   4.664
12586TIP3    H137703   7.083   2.151   4.681
12586TIP3    H237704   7.021   2.047   4.590
12587TIP3   OH237705   1.428   4.395   4.259
12587TIP3    H137706   1.449   4.334   4.329
12587TIP3    H237707   1.333   4.389   4.249
12588TIP3   OH237708   7.393   0.985   3.560
12588TIP3    H137709   7.304   1.018   3.570
12588TIP3    H237710   7.427   0.979   3.649
12589TIP3   OH237711   0.172   3.772   4.517
12589TIP3    H137712   0.093   3.797   4.469
12589TIP3    H237713   0.227   3.850   4.514
12590TIP3   OH237714   7.591   2.549   6.143
12590TIP3    H137715   7.644   2.623   6.175
12590TIP3    H237716   7.654   2.478   6.132
12591TIP3   OH237717   0.879   2.589   1.066
12591TIP3    H137718   0.869   2.503   1.025
12591TIP3    H237719   0.841   2.579   1.153
12592TIP3   OH237720   5.355   2.091   3.502
12592TIP3    H137721   5.325   2.014   3.550
12592TIP3    H237722   5.326   2.076   3.412
12593TIP3   OH237723   6.808   7.746   4.215
12593TIP3    H137724   6.777   7.813   4.276
12593TIP3    H237725   6.902   7.765   4.206
12594TIP3   OH237726   0.714   5.132   5.704
12594TIP3    H137727   0.693   5.187   5.780
12594TIP3    H237728   0.637   5.075   5.694
12595TIP3   OH237729   2.682   2.990   0.402
12595TIP3    H137730   2.719   2.930   0.467
12595TIP3    H237731   2.613   3.037   0.449
12596TIP3   OH237732   0.693   1.979   3.137
12596TIP3    H137733   0.670   1.963   3.045
12596TIP3    H237734   0.745   2.059   3.135
12597TIP3   OH237735   7.832   5.758   6.558
12597TIP3    H137736   7.874   5.678   6.591
12597TIP3    H237737   7.894   5.828   6.579
12598TIP3   OH237738   4.074   7.398   5.814
12598TIP3    H137739   4.138   7.349   5.763
12598TIP3    H237740   4.003   7.417   5.753
12599TIP3   OH237741   6.602   6.219   4.097
12599TIP3    H137742   6.671   6.189   4.157
12599TIP3    H237743   6.534   6.253   4.155
12600TIP3   OH237744   5.235   3.599   1.900
12600TIP3    H137745   5.183   3.653   1.960
12600TIP3    H237746   5.172   3.571   1.834
12601TIP3   OH237747   3.589   2.681   4.790
12601TIP3    H137748   3.629   2.675   4.704
12601TIP3    H237749   3.510   2.733   4.776
12602TIP3   OH237750   1.199   3.109   1.637
12602TIP3    H137751   1.177   3.029   1.684
12602TIP3    H237752   1.260   3.080   1.569
12603TIP3   OH237753   4.300   1.548   3.147
12603TIP3    H137754   4.276   1.530   3.238
12603TIP3    H237755   4.216   1.550   3.100
12604TIP3   OH237756   0.186   3.082   1.147
12604TIP3    H137757   0.167   2.988   1.147
12604TIP3    H237758   0.104   3.122   1.118
12605TIP3   OH237759   3.791   5.434   4.339
12605TIP3    H137760   3.746   5.352   4.359
12605TIP3    H237761   3.799   5.478   4.424
12606TIP3   OH237762   4.818   3.770   4.039
12606TIP3    H137763   4.762   3.775   3.962
12606TIP3    H237764   4.898   3.815   4.013
12607TIP3   OH237765   5.921   0.385   0.004
12607TIP3    H137766   5.895   0.457  -0.054
12607TIP3    H237767   6.011   0.406   0.028
12608TIP3   OH237768   1.008   7.241   2.170
12608TIP3    H137769   0.912   7.248   2.165
12608TIP3    H237770   1.034   7.210   2.084
12609TIP3   OH237771   3.718   2.116   3.983
12609TIP3    H137772   3.776   2.041   3.969
12609TIP3    H237773   3.688   2.107   4.074
12610TIP3   OH237774   6.107   6.317   5.353
12610TIP3    H137775   6.118   6.226   5.383
12610TIP3    H237776   6.032   6.313   5.293
12611TIP3   OH237777   7.898   0.427   6.120
12611TIP3    H137778   7.965   0.364   6.145
12611TIP3    H237779   7.846   0.383   6.053
12612TIP3   OH237780   1.059   6.116   6.525
12612TIP3    H137781   0.981   6.118   6.579
12612TIP3    H237782   1.040   6.050   6.458
12613TIP3   OH237783   5.040   7.312   3.515
12613TIP3    H137784   5.061   7.250   3.584
12613TIP3    H237785   5.123   7.353   3.493
12614TIP3   OH237786   7.783   7.537   1.124
12614TIP3    H137787   7.815   7.610   1.070
12614TIP3    H237788   7.745   7.475   1.061
12615TIP3   OH237789   3.195   6.551   6.634
12615TIP3    H137790   3.199   6.580   6.543
12615TIP3    H237791   3.148   6.620   6.680
12616TIP3   OH237792   6.913   6.432   1.441
12616TIP3    H137793   6.880   6.378   1.369
12616TIP3    H237794   6.842   6.432   1.505
12617TIP3   OH237795   1.226   3.407   1.672
12617TIP3    H137796   1.229   3.312   1.677
12617TIP3    H237797   1.317   3.434   1.665
12618TIP3   OH237798   6.420   7.056   0.098
12618TIP3    H137799   6.344   7.017   0.142
12618TIP3    H237800   6.389   7.142   0.069
12619TIP3   OH237801   6.019   7.335   5.026
12619TIP3    H137802   6.034   7.334   4.931
12619TIP3    H237803   5.924   7.343   5.034
12620TIP3   OH237804   4.498   4.422   0.750
12620TIP3    H137805   4.516   4.328   0.743
12620TIP3    H237806   4.518   4.443   0.841
12621TIP3   OH237807   3.054   1.368   0.475
12621TIP3    H137808   3.039   1.374   0.380
12621TIP3    H237809   3.058   1.274   0.492
12622TIP3   OH237810   2.642   5.098   2.276
12622TIP3    H137811   2.577   5.107   2.345
12622TIP3    H237812   2.600   5.042   2.210
12623TIP3   OH237813   3.199   7.328   5.270
12623TIP3    H137814   3.142   7.269   5.220
12623TIP3    H237815   3.139   7.393   5.308
12624TIP3   OH237816   7.957   3.641   5.397
12624TIP3    H137817   7.954   3.675   5.487
12624TIP3    H237818   7.875   3.594   5.387
12625TIP3   OH237819   3.999   4.201   5.645
12625TIP3    H137820   4.064   4.266   5.671
12625TIP3    H237821   4.044   4.117   5.654
12626TIP3   OH237822   4.605   6.008   6.409
12626TIP3    H137823   4.597   5.913   6.420
12626TIP3    H237824   4.520   6.042   6.438
12627TIP3   OH237825   6.070   4.434   1.989
12627TIP3    H137826   6.053   4.528   1.997
12627TIP3    H237827   6.135   4.427   1.920
12628TIP3   OH237828   7.958   6.669   4.531
12628TIP3    H137829   7.915   6.745   4.570
12628TIP3    H237830   7.954   6.602   4.599
12629TIP3   OH237831   5.208   6.276   5.805
12629TIP3    H137832   5.202   6.318   5.719
12629TIP3    H237833   5.232   6.347   5.865
12630TIP3   OH237834   2.917   6.793   0.136
12630TIP3    H137835   2.971   6.748   0.200
12630TIP3    H237836   2.836   6.742   0.133
12631TIP3   OH237837   0.702   3.823   2.415
12631TIP3    H137838   0.756   3.759   2.369
12631TIP3    H237839   0.632   3.844   2.354
12632TIP3   OH237840   2.396   5.095   4.939
12632TIP3    H137841   2.470   5.070   4.882
12632TIP3    H237842   2.360   5.173   4.898
12633TIP3   OH237843   7.675   4.352   6.226
12633TIP3    H137844   7.633   4.328   6.308
12633TIP3    H237845   7.620   4.422   6.190
12634TIP3   OH237846   4.559   3.168   0.488
12634TIP3    H137847   4.549   3.142   0.579
12634TIP3    H237848   4.477   3.210   0.465
12635TIP3   OH237849   3.695   0.633   1.909
12635TIP3    H137850   3.730   0.711   1.866
12635TIP3    H237851   3.773   0.586   1.939
12636TIP3   OH237852   5.391   3.731   4.307
12636TIP3    H137853   5.385   3.712   4.214
12636TIP3    H237854   5.300   3.744   4.334
12637TIP3   OH237855   5.767   6.751   0.114
12637TIP3    H137856   5.730   6.662   0.117
12637TIP3    H237857   5.693   6.808   0.135
12638TIP3   OH237858   4.969   7.655   1.777
12638TIP3    H137859   4.999   7.738   1.739
12638TIP3    H237860   4.937   7.605   1.701
12639TIP3   OH237861   0.851   7.263   1.863
12639TIP3    H137862   0.924   7.224   1.815
12639TIP3    H237863   0.778   7.203   1.849
12640TIP3   OH237864   4.617   2.460   3.000
12640TIP3    H137865   4.624   2.436   3.093
12640TIP3    H237866   4.558   2.394   2.964
12641TIP3   OH237867   0.352   3.085   5.844
12641TIP3    H137868   0.270   3.045   5.875
12641TIP3    H237869   0.381   3.027   5.773
12642TIP3   OH237870   3.644   0.123   0.379
12642TIP3    H137871   3.576   0.167   0.430
12642TIP3    H237872   3.659   0.041   0.425
12643TIP3   OH237873   0.556   7.645   6.521
12643TIP3    H137874   0.613   7.578   6.558
12643TIP3    H237875   0.477   7.642   6.575
12644TIP3   OH237876   0.208   1.543   1.152
12644TIP3    H137877   0.181   1.597   1.227
12644TIP3    H237878   0.264   1.601   1.100
12645TIP3   OH237879   7.135   1.913   2.632
12645TIP3    H137880   7.148   1.865   2.714
12645TIP3    H237881   7.219   1.909   2.588
12646TIP3   OH237882   0.882   6.767   6.130
12646TIP3    H137883   0.855   6.840   6.186
12646TIP3    H237884   0.890   6.692   6.189
12647TIP3   OH237885   0.279   1.822   0.339
12647TIP3    H137886   0.367   1.849   0.314
12647TIP3    H237887   0.235   1.804   0.255
12648TIP3   OH237888   2.599   4.964   1.592
12648TIP3    H137889   2.679   4.983   1.640
12648TIP3    H237890   2.544   5.042   1.606
12649TIP3   OH237891   7.098   1.393   1.369
12649TIP3    H137892   7.048   1.461   1.324
12649TIP3    H237893   7.117   1.430   1.455
12650TIP3   OH237894   7.292   0.691   2.984
12650TIP3    H137895   7.246   0.767   3.019
12650TIP3    H237896   7.327   0.646   3.061
12651TIP3   OH237897   1.992   2.946   3.432
12651TIP3    H137898   2.070   2.946   3.487
12651TIP3    H237899   1.922   2.915   3.490
12652TIP3   OH237900   0.830   1.928   0.880
12652TIP3    H137901   0.924   1.949   0.885
12652TIP3    H237902   0.788   2.013   0.865
12653TIP3   OH237903   0.167   7.082   5.799
12653TIP3    H137904   0.262   7.094   5.802
12653TIP3    H237905   0.155   6.998   5.755
12654TIP3   OH237906   1.484   2.938   6.380
12654TIP3    H137907   1.404   2.955   6.329
12654TIP3    H237908   1.533   3.021   6.374
12655TIP3   OH237909   2.626   1.674   0.170
12655TIP3    H137910   2.566   1.643   0.102
12655TIP3    H237911   2.686   1.601   0.184
12656TIP3   OH237912   2.272   6.450   4.677
12656TIP3    H137913   2.367   6.456   4.670
12656TIP3    H237914   2.248   6.519   4.740
12657TIP3   OH237915   0.255   0.065   0.780
12657TIP3    H137916   0.193   0.052   0.708
12657TIP3    H237917   0.311  -0.012   0.778
12658TIP3   OH237918   3.396   5.411   0.921
12658TIP3    H137919   3.491   5.403   0.931
12658TIP3    H237920   3.374   5.494   0.963
12659TIP3   OH237921   2.525   0.945   1.031
12659TIP3    H137922   2.618   0.931   1.015
12659TIP3    H237923   2.482   0.909   0.954
12660TIP3   OH237924   5.988   1.890   0.428
12660TIP3    H137925   5.999   1.795   0.418
12660TIP3    H237926   6.076   1.923   0.442
12661TIP3   OH237927   7.972   5.179   2.271
12661TIP3    H137928   8.012   5.133   2.345
12661TIP3    H237929   7.884   5.201   2.301
12662TIP3   OH237930   6.954   5.586   0.133
12662TIP3    H137931   7.018   5.647   0.170
12662TIP3    H237932   6.883   5.642   0.103
12663TIP3   OH237933   7.278   1.613   3.899
12663TIP3    H137934   7.282   1.556   3.822
12663TIP3    H237935   7.310   1.560   3.971
12664TIP3   OH237936   0.426   3.274   3.561
12664TIP3    H137937   0.409   3.181   3.568
12664TIP3    H237938   0.482   3.283   3.484
12665TIP3   OH237939   3.484   0.973   4.365
12665TIP3    H137940   3.515   0.889   4.332
12665TIP3    H237941   3.483   0.962   4.460
12666TIP3   OH237942   6.904   2.081   1.284
12666TIP3    H137943   6.873   2.111   1.198
12666TIP3    H237944   6.846   2.008   1.306
12667TIP3   OH237945   1.207   5.747   4.194
12667TIP3    H137946   1.246   5.661   4.175
12667TIP3    H237947   1.148   5.763   4.120
12668TIP3   OH237948   4.119   7.142   6.329
12668TIP3    H137949   4.086   7.124   6.417
12668TIP3    H237950   4.080   7.074   6.274
12669TIP3   OH237951   6.542   0.258   4.691
12669TIP3    H137952   6.564   0.254   4.598
12669TIP3    H237953   6.606   0.200   4.733
12670TIP3   OH237954   4.666   6.829   4.885
12670TIP3    H137955   4.664   6.894   4.955
12670TIP3    H237956   4.589   6.774   4.901
12671TIP3   OH237957   0.351   2.205   1.993
12671TIP3    H137958   0.321   2.116   2.012
12671TIP3    H237959   0.375   2.241   2.079
12672TIP3   OH237960   2.213   3.969   0.276
12672TIP3    H137961   2.282   3.962   0.210
12672TIP3    H237962   2.251   3.928   0.354
12673TIP3   OH237963   7.542   5.264   2.091
12673TIP3    H137964   7.458   5.240   2.129
12673TIP3    H237965   7.535   5.238   1.999
12674TIP3   OH237966   5.695   7.014   1.889
12674TIP3    H137967   5.687   7.029   1.983
12674TIP3    H237968   5.620   7.058   1.851
12675TIP3   OH237969   4.001   2.695   0.707
12675TIP3    H137970   4.003   2.723   0.615
12675TIP3    H237971   3.930   2.745   0.746
12676TIP3   OH237972   2.489   2.176   6.010
12676TIP3    H137973   2.535   2.236   5.952
12676TIP3    H237974   2.473   2.227   6.090
12677TIP3   OH237975   2.006   5.557   4.158
12677TIP3    H137976   2.069   5.494   4.121
12677TIP3    H237977   2.041   5.577   4.245
12678TIP3   OH237978   5.326   0.333   4.359
12678TIP3    H137979   5.372   0.380   4.289
12678TIP3    H237980   5.307   0.401   4.424
12679TIP3   OH237981   2.300   6.177   6.744
12679TIP3    H137982   2.352   6.153   6.667
12679TIP3    H237983   2.253   6.097   6.767
12680TIP3   OH237984   0.967   5.938   1.068
12680TIP3    H137985   0.955   6.028   1.101
12680TIP3    H237986   0.944   5.944   0.975
12681TIP3   OH237987   1.436   2.539   2.911
12681TIP3    H137988   1.447   2.574   3.000
12681TIP3    H237989   1.342   2.522   2.903
12682TIP3   OH237990   0.147   5.644   6.743
12682TIP3    H137991   0.135   5.680   6.655
12682TIP3    H237992   0.178   5.718   6.795
12683TIP3   OH237993   2.423   5.415   1.752
12683TIP3    H137994   2.511   5.394   1.719
12683TIP3    H237995   2.400   5.341   1.808
12684TIP3   OH237996   2.370   5.027   2.924
12684TIP3    H137997   2.282   5.023   2.962
12684TIP3    H237998   2.365   4.972   2.845
12685TIP3   OH237999   5.151   7.759   4.900
12685TIP3    H138000   5.129   7.798   4.985
12685TIP3    H238001   5.092   7.684   4.892
12686TIP3   OH238002   2.756   2.621   5.407
12686TIP3    H138003   2.761   2.539   5.358
12686TIP3    H238004   2.674   2.616   5.455
12687TIP3   OH238005   6.679   4.104   1.559
12687TIP3    H138006   6.683   4.200   1.556
12687TIP3    H238007   6.630   4.080   1.479
12688TIP3   OH238008   6.081   2.105   3.281
12688TIP3    H138009   6.171   2.086   3.257
12688TIP3    H238010   6.087   2.177   3.344
12689TIP3   OH238011   1.664   7.688   3.591
12689TIP3    H138012   1.742   7.742   3.600
12689TIP3    H238013   1.682   7.630   3.518
12690TIP3   OH238014   5.234   4.203   0.109
12690TIP3    H138015   5.226   4.134   0.043
12690TIP3    H238016   5.219   4.159   0.192
12691TIP3   OH238017   2.933   6.518   1.526
12691TIP3    H138018   2.925   6.593   1.468
12691TIP3    H238019   3.011   6.471   1.494
12692TIP3   OH238020   7.040   3.573   4.524
12692TIP3    H138021   7.057   3.590   4.431
12692TIP3    H238022   7.126   3.551   4.560
12693TIP3   OH238023   7.375   3.993   4.061
12693TIP3    H138024   7.393   4.060   3.995
12693TIP3    H238025   7.315   4.035   4.122
12694TIP3   OH238026   2.769   3.021   1.629
12694TIP3    H138027   2.828   3.096   1.623
12694TIP3    H238028   2.706   3.045   1.697
12695TIP3   OH238029   5.716   3.675   3.867
12695TIP3    H138030   5.711   3.588   3.907
12695TIP3    H238031   5.732   3.734   3.940
12696TIP3   OH238032   4.395   2.856   0.468
12696TIP3    H138033   4.363   2.771   0.438
12696TIP3    H238034   4.325   2.917   0.447
12697TIP3   OH238035   6.603   1.204   4.605
12697TIP3    H138036   6.643   1.144   4.669
12697TIP3    H238037   6.642   1.178   4.521
12698TIP3   OH238038   5.720   5.991   0.407
12698TIP3    H138039   5.764   6.076   0.398
12698TIP3    H238040   5.632   6.013   0.438
12699TIP3   OH238041   8.023   2.476   3.080
12699TIP3    H138042   7.956   2.427   3.127
12699TIP3    H238043   8.105   2.436   3.108
12700TIP3   OH238044   7.451   3.380   1.478
12700TIP3    H138045   7.397   3.422   1.545
12700TIP3    H238046   7.441   3.286   1.493
12701TIP3   OH238047  -0.024   6.236   1.826
12701TIP3    H138048  -0.008   6.202   1.737
12701TIP3    H238049   0.063   6.246   1.864
12702TIP3   OH238050   2.587   6.632   4.218
12702TIP3    H138051   2.538   6.649   4.137
12702TIP3    H238052   2.588   6.537   4.226
12703TIP3   OH238053   1.834   4.741   6.057
12703TIP3    H138054   1.875   4.655   6.063
12703TIP3    H238055   1.744   4.727   6.085
12704TIP3   OH238056   6.496   0.332   3.159
12704TIP3    H138057   6.432   0.261   3.159
12704TIP3    H238058   6.447   0.409   3.131
12705TIP3   OH238059   1.113   1.510   2.722
12705TIP3    H138060   1.131   1.417   2.739
12705TIP3    H238061   1.199   1.548   2.705
12706TIP3   OH238062   7.112   1.102   0.245
12706TIP3    H138063   7.165   1.141   0.314
12706TIP3    H238064   7.114   1.008   0.262
12707TIP3   OH238065   3.330   7.583   4.268
12707TIP3    H138066   3.299   7.542   4.348
12707TIP3    H238067   3.326   7.514   4.202
12708TIP3   OH238068   5.390   2.393   6.732
12708TIP3    H138069   5.382   2.299   6.717
12708TIP3    H238070   5.443   2.424   6.659
12709TIP3   OH238071   2.573   6.493   4.812
12709TIP3    H138072   2.631   6.471   4.885
12709TIP3    H238073   2.617   6.459   4.735
12710TIP3   OH238074   3.686   4.857   2.299
12710TIP3    H138075   3.614   4.913   2.270
12710TIP3    H238076   3.650   4.807   2.372
12711TIP3   OH238077   2.842   6.004   5.401
12711TIP3    H138078   2.874   5.998   5.491
12711TIP3    H238079   2.895   5.942   5.352
12712TIP3   OH238080   0.929   1.341   3.756
12712TIP3    H138081   0.999   1.359   3.693
12712TIP3    H238082   0.858   1.400   3.730
12713TIP3   OH238083   0.232   5.193   0.371
12713TIP3    H138084   0.150   5.232   0.339
12713TIP3    H238085   0.301   5.249   0.335
12714TIP3   OH238086   0.771   2.297   2.366
12714TIP3    H138087   0.856   2.281   2.324
12714TIP3    H238088   0.729   2.361   2.308
12715TIP3   OH238089   5.328   2.850   1.958
12715TIP3    H138090   5.403   2.904   1.933
12715TIP3    H238091   5.354   2.809   2.040
12716TIP3   OH238092   1.462   2.705   1.828
12716TIP3    H138093   1.434   2.634   1.770
12716TIP3    H238094   1.536   2.668   1.877
12717TIP3   OH238095   5.871   3.177   5.975
12717TIP3    H138096   5.941   3.116   6.000
12717TIP3    H238097   5.790   3.126   5.988
12718TIP3   OH238098   4.798   3.393   2.934
12718TIP3    H138099   4.765   3.455   2.869
12718TIP3    H238100   4.752   3.311   2.915
12719TIP3   OH238101   1.642   5.972   2.117
12719TIP3    H138102   1.669   5.890   2.159
12719TIP3    H238103   1.550   5.959   2.095
12720TIP3   OH238104   2.295   3.155   0.713
12720TIP3    H138105   2.206   3.149   0.680
12720TIP3    H238106   2.288   3.132   0.806
12721TIP3   OH238107   4.006   6.044   2.310
12721TIP3    H138108   3.976   6.135   2.319
12721TIP3    H238109   4.096   6.046   2.342
12722TIP3   OH238110   2.301   6.955   3.438
12722TIP3    H138111   2.324   6.941   3.530
12722TIP3    H238112   2.374   7.006   3.403
12723TIP3   OH238113   7.861   0.135   0.445
12723TIP3    H138114   7.930   0.099   0.390
12723TIP3    H238115   7.869   0.087   0.527
12724TIP3   OH238116   0.353   2.830   1.197
12724TIP3    H138117   0.341   2.911   1.247
12724TIP3    H238118   0.412   2.778   1.251
12725TIP3   OH238119   2.613   2.913   4.535
12725TIP3    H138120   2.571   2.943   4.454
12725TIP3    H238121   2.707   2.925   4.519
12726TIP3   OH238122   2.043   2.739  -0.040
12726TIP3    H138123   1.987   2.806  -0.080
12726TIP3    H238124   2.109   2.789   0.007
12727TIP3   OH238125   0.902   4.336   3.954
12727TIP3    H138126   0.956   4.264   3.919
12727TIP3    H238127   0.952   4.370   4.028
12728TIP3   OH238128   6.827   0.276   6.659
12728TIP3    H138129   6.770   0.200   6.663
12728TIP3    H238130   6.793   0.336   6.725
12729TIP3   OH238131   1.754   4.392   3.713
12729TIP3    H138132   1.820   4.458   3.694
12729TIP3    H238133   1.671   4.440   3.709
12730TIP3   OH238134   6.291   3.688   3.425
12730TIP3    H138135   6.222   3.746   3.392
12730TIP3    H238136   6.352   3.747   3.469
12731TIP3   OH238137   6.966   7.375   6.365
12731TIP3    H138138   6.978   7.302   6.304
12731TIP3    H238139   7.017   7.447   6.326
12732TIP3   OH238140   7.826   1.984   6.244
12732TIP3    H138141   7.891   2.049   6.268
12732TIP3    H238142   7.744   2.033   6.239
12733TIP3   OH238143   5.429   0.697   4.304
12733TIP3    H138144   5.508   0.751   4.302
12733TIP3    H238145   5.399   0.701   4.395
12734TIP3   OH238146   4.850   0.653   0.588
12734TIP3    H138147   4.889   0.659   0.675
12734TIP3    H238148   4.758   0.630   0.605
12735TIP3   OH238149   4.218   7.459   0.542
12735TIP3    H138150   4.146   7.396   0.548
12735TIP3    H238151   4.261   7.438   0.459
12736TIP3   OH238152   3.467   7.441   5.857
12736TIP3    H138153   3.528   7.376   5.892
12736TIP3    H238154   3.495   7.524   5.896
12737TIP3   OH238155   7.344   1.171   6.313
12737TIP3    H138156   7.349   1.110   6.386
12737TIP3    H238157   7.430   1.214   6.312
12738TIP3   OH238158   6.423   7.074   5.688
12738TIP3    H138159   6.408   6.980   5.675
12738TIP3    H238160   6.368   7.096   5.764
12739TIP3   OH238161   5.522   2.000   6.535
12739TIP3    H138162   5.587   1.971   6.599
12739TIP3    H238163   5.437   1.984   6.578
12740TIP3   OH238164   1.698   1.521   6.216
12740TIP3    H138165   1.654   1.589   6.267
12740TIP3    H238166   1.733   1.567   6.140
12741TIP3   OH238167   1.632   1.855   0.489
12741TIP3    H138168   1.661   1.771   0.454
12741TIP3    H238169   1.623   1.911   0.412
12742TIP3   OH238170   5.648   3.274   2.658
12742TIP3    H138171   5.594   3.282   2.579
12742TIP3    H238172   5.633   3.185   2.688
12743TIP3   OH238173   7.868   1.464   1.849
12743TIP3    H138174   7.853   1.457   1.755
12743TIP3    H238175   7.922   1.389   1.871
12744TIP3   OH238176   1.325   2.124   4.475
12744TIP3    H138177   1.348   2.102   4.566
12744TIP3    H238178   1.243   2.079   4.459
12745TIP3   OH238179   1.742   1.398   5.678
12745TIP3    H138180   1.817   1.347   5.648
12745TIP3    H238181   1.698   1.340   5.742
12746TIP3   OH238182   0.366   1.908   6.355
12746TIP3    H138183   0.289   1.851   6.353
12746TIP3    H238184   0.371   1.938   6.446
12747TIP3   OH238185   3.757   5.552   2.760
12747TIP3    H138186   3.803   5.635   2.774
12747TIP3    H238187   3.706   5.566   2.680
12748TIP3   OH238188   6.820   6.020   6.582
12748TIP3    H138189   6.880   5.949   6.605
12748TIP3    H238190   6.858   6.061   6.505
12749TIP3   OH238191   3.243   7.298   1.108
12749TIP3    H138192   3.182   7.231   1.139
12749TIP3    H238193   3.232   7.370   1.170
12750TIP3   OH238194   6.611   3.893   3.074
12750TIP3    H138195   6.521   3.926   3.072
12750TIP3    H238196   6.621   3.845   2.992
12751TIP3   OH238197   1.790   5.300   5.665
12751TIP3    H138198   1.807   5.286   5.572
12751TIP3    H238199   1.695   5.292   5.674
12752TIP3   OH238200   6.397   6.612   4.394
12752TIP3    H138201   6.342   6.643   4.465
12752TIP3    H238202   6.338   6.558   4.340
12753TIP3   OH238203   8.154   3.262   5.910
12753TIP3    H138204   8.153   3.196   5.840
12753TIP3    H238205   8.148   3.346   5.863
12754TIP3   OH238206   5.045   0.968   2.836
12754TIP3    H138207   5.124   0.944   2.787
12754TIP3    H238208   4.977   0.975   2.770
12755TIP3   OH238209   0.155   5.680   6.452
12755TIP3    H138210   0.242   5.715   6.468
12755TIP3    H238211   0.165   5.624   6.375
12756TIP3   OH238212   5.394   2.086   5.524
12756TIP3    H138213   5.343   2.015   5.563
12756TIP3    H238214   5.372   2.164   5.575
12757TIP3   OH238215   7.550   4.705   2.049
12757TIP3    H138216   7.579   4.780   2.100
12757TIP3    H238217   7.607   4.704   1.972
12758TIP3   OH238218   1.913   1.741   0.292
12758TIP3    H138219   1.836   1.795   0.281
12758TIP3    H238220   1.900   1.668   0.231
12759TIP3   OH238221   4.738   3.417   0.455
12759TIP3    H138222   4.653   3.443   0.489
12759TIP3    H238223   4.737   3.322   0.456
12760TIP3   OH238224   3.033   3.178   1.775
12760TIP3    H138225   3.012   3.199   1.684
12760TIP3    H238226   3.126   3.200   1.784
12761TIP3   OH238227   4.515   5.796   4.815
12761TIP3    H138228   4.497   5.726   4.753
12761TIP3    H238229   4.444   5.859   4.801
12762TIP3   OH238230   5.426   4.285   4.076
12762TIP3    H138231   5.435   4.381   4.073
12762TIP3    H238232   5.483   4.258   4.148
12763TIP3   OH238233   4.886   1.233   4.353
12763TIP3    H138234   4.816   1.177   4.319
12763TIP3    H238235   4.874   1.230   4.448
12764TIP3   OH238236   3.849   0.415   1.768
12764TIP3    H138237   3.867   0.346   1.833
12764TIP3    H238238   3.755   0.429   1.773
12765TIP3   OH238239   4.528   1.265   4.664
12765TIP3    H138240   4.490   1.336   4.716
12765TIP3    H238241   4.454   1.227   4.618
12766TIP3   OH238242   3.859   7.755   0.329
12766TIP3    H138243   3.873   7.768   0.423
12766TIP3    H238244   3.945   7.729   0.296
12767TIP3   OH238245   0.824   7.023   6.345
12767TIP3    H138246   0.733   7.028   6.316
12767TIP3    H238247   0.867   7.097   6.302
12768TIP3   OH238248   0.972   3.949   2.694
12768TIP3    H138249   0.964   4.030   2.642
12768TIP3    H238250   0.947   3.975   2.782
12769TIP3   OH238251   6.161   5.886   3.144
12769TIP3    H138252   6.154   5.854   3.234
12769TIP3    H238253   6.093   5.839   3.097
12770TIP3   OH238254   2.173   4.947   3.622
12770TIP3    H138255   2.090   4.910   3.653
12770TIP3    H238256   2.233   4.937   3.697
12771TIP3   OH238257   6.526   2.190   6.148
12771TIP3    H138258   6.595   2.184   6.081
12771TIP3    H238259   6.504   2.099   6.167
12772TIP3   OH238260   6.799   2.737   2.541
12772TIP3    H138261   6.799   2.642   2.550
12772TIP3    H238262   6.712   2.758   2.507
12773TIP3   OH238263   6.958   2.818   1.015
12773TIP3    H138264   6.974   2.753   1.083
12773TIP3    H238265   6.865   2.839   1.024
12774TIP3   OH238266   5.472   7.599   6.485
12774TIP3    H138267   5.388   7.554   6.483
12774TIP3    H238268   5.531   7.537   6.528
12775TIP3   OH238269   2.580   5.211   3.150
12775TIP3    H138270   2.630   5.285   3.117
12775TIP3    H238271   2.492   5.246   3.165
12776TIP3   OH238272   5.907   5.395   2.000
12776TIP3    H138273   5.838   5.328   2.003
12776TIP3    H238274   5.916   5.415   1.907
12777TIP3   OH238275   7.987   4.194   5.836
12777TIP3    H138276   7.939   4.157   5.910
12777TIP3    H238277   7.945   4.279   5.821
12778TIP3   OH238278   2.480   2.899   1.680
12778TIP3    H138279   2.550   2.870   1.621
12778TIP3    H238280   2.513   2.878   1.768
12779TIP3   OH238281   2.870   6.466   5.234
12779TIP3    H138282   2.785   6.464   5.278
12779TIP3    H238283   2.928   6.420   5.294
12780TIP3   OH238284   1.551   7.256   0.918
12780TIP3    H138285   1.546   7.240   1.013
12780TIP3    H238286   1.521   7.174   0.879
12781TIP3   OH238287   0.274   2.747   0.427
12781TIP3    H138288   0.338   2.731   0.496
12781TIP3    H238289   0.201   2.791   0.471
12782TIP3   OH238290   1.864   1.618   4.313
12782TIP3    H138291   1.854   1.697   4.366
12782TIP3    H238292   1.775   1.590   4.294
12783TIP3   OH238293   5.541   0.695   5.486
12783TIP3    H138294   5.540   0.628   5.418
12783TIP3    H238295   5.633   0.704   5.511
12784TIP3   OH238296   5.867   0.200   1.767
12784TIP3    H138297   5.932   0.202   1.696
12784TIP3    H238298   5.815   0.279   1.755
12785TIP3   OH238299   2.569   5.183   3.897
12785TIP3    H138300   2.509   5.229   3.838
12785TIP3    H238301   2.644   5.161   3.842
12786TIP3   OH238302   0.984   3.116   0.951
12786TIP3    H138303   0.934   3.055   1.005
12786TIP3    H238304   0.963   3.203   0.987
12787TIP3   OH238305   6.576   2.475   1.976
12787TIP3    H138306   6.647   2.535   1.998
12787TIP3    H238307   6.507   2.495   2.039
12788TIP3   OH238308   6.850   5.753   5.530
12788TIP3    H138309   6.937   5.713   5.525
12788TIP3    H238310   6.816   5.725   5.616
12789TIP3   OH238311   8.119   5.949   1.303
12789TIP3    H138312   8.188   6.012   1.281
12789TIP3    H238313   8.158   5.864   1.281
12790TIP3   OH238314   1.332   1.452   5.754
12790TIP3    H138315   1.411   1.467   5.807
12790TIP3    H238316   1.284   1.386   5.803
12791TIP3   OH238317   5.026   1.229   6.487
12791TIP3    H138318   5.048   1.153   6.434
12791TIP3    H238319   5.025   1.196   6.577
12792TIP3   OH238320   2.859   4.845   3.292
12792TIP3    H138321   2.817   4.911   3.348
12792TIP3    H238322   2.943   4.884   3.267
12793TIP3   OH238323   4.330   6.435   2.982
12793TIP3    H138324   4.352   6.450   3.074
12793TIP3    H238325   4.261   6.498   2.963
12794TIP3   OH238326   6.957   1.913   6.553
12794TIP3    H138327   7.040   1.954   6.528
12794TIP3    H238328   6.972   1.880   6.641
12795TIP3   OH238329   7.705   0.836   0.195
12795TIP3    H138330   7.756   0.763   0.161
12795TIP3    H238331   7.731   0.843   0.287
12796TIP3   OH238332   6.351   1.003   3.104
12796TIP3    H138333   6.256   0.989   3.101
12796TIP3    H238334   6.365   1.083   3.053
12797TIP3   OH238335   0.127   0.757   2.886
12797TIP3    H138336   0.087   0.725   2.967
12797TIP3    H238337   0.053   0.779   2.829
12798TIP3   OH238338   4.605   6.046   5.194
12798TIP3    H138339   4.567   6.110   5.134
12798TIP3    H238340   4.684   6.088   5.227
12799TIP3   OH238341   6.180   7.300   3.254
12799TIP3    H138342   6.133   7.249   3.188
12799TIP3    H238343   6.140   7.274   3.337
12800TIP3   OH238344   1.396   1.929   4.993
12800TIP3    H138345   1.449   1.850   5.004
12800TIP3    H238346   1.450   2.000   5.025
12801TIP3   OH238347   8.083   4.157   0.189
12801TIP3    H138348   8.112   4.208   0.265
12801TIP3    H238349   8.138   4.188   0.117
12802TIP3   OH238350   1.848   6.972   4.872
12802TIP3    H138351   1.786   7.042   4.890
12802TIP3    H238352   1.885   6.993   4.786
12803TIP3   OH238353   2.930   2.441   5.076
12803TIP3    H138354   2.888   2.441   5.162
12803TIP3    H238355   2.857   2.444   5.014
12804TIP3   OH238356   5.363   3.599   6.157
12804TIP3    H138357   5.453   3.571   6.174
12804TIP3    H238358   5.320   3.521   6.121
12805TIP3   OH238359   7.028   2.473   5.275
12805TIP3    H138360   7.101   2.425   5.315
12805TIP3    H238361   7.062   2.562   5.264
12806TIP3   OH238362   4.578   5.682   6.450
12806TIP3    H138363   4.558   5.663   6.542
12806TIP3    H238364   4.614   5.601   6.416
12807TIP3   OH238365   1.287   4.821   1.385
12807TIP3    H138366   1.365   4.765   1.389
12807TIP3    H238367   1.310   4.898   1.437
12808TIP3   OH238368   1.928   5.800   1.930
12808TIP3    H138369   1.965   5.845   1.854
12808TIP3    H238370   1.997   5.741   1.959
12809TIP3   OH238371   4.385   6.151   6.436
12809TIP3    H138372   4.331   6.100   6.376
12809TIP3    H238373   4.336   6.233   6.449
12810TIP3   OH238374   6.701   2.561   1.459
12810TIP3    H138375   6.771   2.496   1.453
12810TIP3    H238376   6.626   2.520   1.416
12811TIP3   OH238377   4.466   2.957   1.144
12811TIP3    H138378   4.405   2.987   1.077
12811TIP3    H238379   4.552   2.965   1.104
12812TIP3   OH238380   8.258   1.440   4.599
12812TIP3    H138381   8.339   1.408   4.641
12812TIP3    H238382   8.206   1.473   4.672
12813TIP3   OH238383   1.306   6.645   0.460
12813TIP3    H138384   1.338   6.604   0.540
12813TIP3    H238385   1.366   6.615   0.392
12814TIP3   OH238386   1.971   7.675   0.659
12814TIP3    H138387   1.879   7.683   0.632
12814TIP3    H238388   1.999   7.592   0.623
12815TIP3   OH238389   7.027   4.491   0.277
12815TIP3    H138390   6.939   4.523   0.298
12815TIP3    H238391   7.055   4.444   0.356
12816TIP3   OH238392   5.891   5.244   6.267
12816TIP3    H138393   5.937   5.204   6.193
12816TIP3    H238394   5.809   5.194   6.273
12817TIP3   OH238395   6.451   7.625   4.220
12817TIP3    H138396   6.482   7.615   4.130
12817TIP3    H238397   6.362   7.591   4.219
12818TIP3   OH238398   2.532   0.291   5.353
12818TIP3    H138399   2.461   0.307   5.415
12818TIP3    H238400   2.581   0.373   5.350
12819TIP3   OH238401   7.821   6.526   1.196
12819TIP3    H138402   7.793   6.454   1.252
12819TIP3    H238403   7.837   6.599   1.256
12820TIP3   OH238404   2.724   2.617   0.421
12820TIP3    H138405   2.757   2.663   0.344
12820TIP3    H238406   2.720   2.685   0.489
12821TIP3   OH238407   5.130   4.000   3.396
12821TIP3    H138408   5.065   4.067   3.415
12821TIP3    H238409   5.190   4.042   3.334
12822TIP3   OH238410   1.853   3.463   3.013
12822TIP3    H138411   1.919   3.525   3.045
12822TIP3    H238412   1.781   3.471   3.075
12823TIP3   OH238413   7.934   7.289   4.592
12823TIP3    H138414   7.882   7.250   4.522
12823TIP3    H238415   8.011   7.327   4.548
12824TIP3   OH238416   3.325   0.225   1.225
12824TIP3    H138417   3.384   0.259   1.158
12824TIP3    H238418   3.312   0.298   1.285
12825TIP3   OH238419   3.222   2.615   2.327
12825TIP3    H138420   3.269   2.687   2.284
12825TIP3    H238421   3.133   2.621   2.292
12826TIP3   OH238422   0.674   1.234   4.085
12826TIP3    H138423   0.627   1.216   4.004
12826TIP3    H238424   0.766   1.218   4.064
12827TIP3   OH238425   6.914   6.188   3.365
12827TIP3    H138426   6.936   6.280   3.351
12827TIP3    H238427   6.938   6.145   3.282
12828TIP3   OH238428   1.234   0.373   4.046
12828TIP3    H138429   1.203   0.289   4.013
12828TIP3    H238430   1.159   0.410   4.092
12829TIP3   OH238431   1.688   4.656   0.742
12829TIP3    H138432   1.722   4.630   0.828
12829TIP3    H238433   1.748   4.723   0.711
12830TIP3   OH238434   7.094   3.594   2.305
12830TIP3    H138435   7.130   3.610   2.392
12830TIP3    H238436   7.131   3.510   2.278
12831TIP3   OH238437   6.109   5.917   2.448
12831TIP3    H138438   6.025   5.876   2.427
12831TIP3    H238439   6.091   6.011   2.446
12832TIP3   OH238440   5.455   2.685   4.193
12832TIP3    H138441   5.523   2.643   4.245
12832TIP3    H238442   5.477   2.664   4.103
12833TIP3   OH238443   0.070   4.516   1.133
12833TIP3    H138444   0.076   4.423   1.112
12833TIP3    H238445   0.015   4.553   1.063
12834TIP3   OH238446   5.011   2.718   6.133
12834TIP3    H138447   5.016   2.631   6.092
12834TIP3    H238448   5.051   2.706   6.219
12835TIP3   OH238449   2.100   0.034   3.733
12835TIP3    H138450   2.080  -0.030   3.801
12835TIP3    H238451   2.194   0.050   3.742
12836TIP3   OH238452   2.525   3.805   1.424
12836TIP3    H138453   2.521   3.718   1.463
12836TIP3    H238454   2.615   3.814   1.395
12837TIP3   OH238455   3.738   1.567   1.595
12837TIP3    H138456   3.669   1.512   1.631
12837TIP3    H238457   3.778   1.514   1.526
12838TIP3   OH238458   0.968   5.267   0.073
12838TIP3    H138459   0.954   5.334   0.007
12838TIP3    H238460   1.008   5.194   0.026
12839TIP3   OH238461   6.771   0.397   0.525
12839TIP3    H138462   6.680   0.406   0.496
12839TIP3    H238463   6.767   0.398   0.621
12840TIP3   OH238464   6.374   1.617   0.100
12840TIP3    H138465   6.446   1.598   0.039
12840TIP3    H238466   6.416   1.621   0.186
12841TIP3   OH238467   6.130   0.944   5.415
12841TIP3    H138468   6.154   1.036   5.410
12841TIP3    H238469   6.046   0.937   5.369
12842TIP3   OH238470   0.865   2.101   0.461
12842TIP3    H138471   0.942   2.045   0.451
12842TIP3    H238472   0.898   2.190   0.451
12843TIP3   OH238473   3.195   4.840   0.620
12843TIP3    H138474   3.282   4.814   0.650
12843TIP3    H238475   3.208   4.927   0.582
12844TIP3   OH238476   5.077   3.929   2.655
12844TIP3    H138477   5.088   3.837   2.629
12844TIP3    H238478   4.990   3.952   2.621
12845TIP3   OH238479   6.002   5.063   4.415
12845TIP3    H138480   5.982   5.038   4.505
12845TIP3    H238481   6.052   4.988   4.381
12846TIP3   OH238482   7.074   5.191   2.287
12846TIP3    H138483   7.031   5.142   2.358
12846TIP3    H238484   7.111   5.268   2.330
12847TIP3   OH238485   2.165   4.855   6.034
12847TIP3    H138486   2.179   4.895   6.119
12847TIP3    H238487   2.157   4.761   6.053
12848TIP3   OH238488   4.377   5.551   3.240
12848TIP3    H138489   4.394   5.605   3.317
12848TIP3    H238490   4.298   5.502   3.263
12849TIP3   OH238491   1.036   2.905   6.257
12849TIP3    H138492   0.960   2.961   6.243
12849TIP3    H238493   0.999   2.818   6.269
12850TIP3   OH238494   1.950   1.687   1.482
12850TIP3    H138495   1.860   1.720   1.485
12850TIP3    H238496   1.958   1.646   1.396
12851TIP3   OH238497   0.562   2.955   3.182
12851TIP3    H138498   0.511   2.893   3.235
12851TIP3    H238499   0.652   2.944   3.210
12852TIP3   OH238500   4.381   0.885   0.975
12852TIP3    H138501   4.325   0.939   0.920
12852TIP3    H238502   4.329   0.806   0.993
12853TIP3   OH238503   6.760   6.614   4.946
12853TIP3    H138504   6.789   6.700   4.915
12853TIP3    H238505   6.665   6.615   4.931
12854TIP3   OH238506   4.192   3.906   0.740
12854TIP3    H138507   4.275   3.938   0.704
12854TIP3    H238508   4.137   3.891   0.663
12855TIP3   OH238509   5.787   2.545   5.784
12855TIP3    H138510   5.724   2.581   5.721
12855TIP3    H238511   5.794   2.453   5.761
12856TIP3   OH238512   1.657   3.152   6.338
12856TIP3    H138513   1.640   3.229   6.393
12856TIP3    H238514   1.594   3.158   6.267
12857TIP3   OH238515   0.953   5.174   2.761
12857TIP3    H138516   1.029   5.158   2.817
12857TIP3    H238517   0.918   5.087   2.742
12858TIP3   OH238518   0.716   6.540   6.628
12858TIP3    H138519   0.621   6.527   6.625
12858TIP3    H238520   0.726   6.629   6.660
12859TIP3   OH238521   8.311   0.939   5.382
12859TIP3    H138522   8.339   0.857   5.422
12859TIP3    H238523   8.230   0.918   5.336
12860TIP3   OH238524   2.695   1.522   0.526
12860TIP3    H138525   2.727   1.612   0.535
12860TIP3    H238526   2.695   1.507   0.431
12861TIP3   OH238527   0.872   7.673   0.492
12861TIP3    H138528   0.880   7.610   0.563
12861TIP3    H238529   0.778   7.672   0.470
12862TIP3   OH238530   8.259   7.418   2.751
12862TIP3    H138531   8.273   7.333   2.708
12862TIP3    H238532   8.203   7.466   2.689
12863TIP3   OH238533   7.517   3.767   3.012
12863TIP3    H138534   7.581   3.783   2.943
12863TIP3    H238535   7.497   3.674   3.005
12864TIP3   OH238536   8.010   6.925   4.162
12864TIP3    H138537   8.025   7.019   4.166
12864TIP3    H238538   7.924   6.913   4.204
12865TIP3   OH238539   5.949   1.605   3.682
12865TIP3    H138540   5.956   1.659   3.603
12865TIP3    H238541   5.938   1.516   3.650
12866TIP3   OH238542   4.952   4.141   3.131
12866TIP3    H138543   4.950   4.217   3.072
12866TIP3    H238544   5.022   4.086   3.097
12867TIP3   OH238545   5.801   4.634   4.289
12867TIP3    H138546   5.864   4.593   4.231
12867TIP3    H238547   5.854   4.681   4.354
12868TIP3   OH238548   7.640   2.959   4.157
12868TIP3    H138549   7.603   2.969   4.244
12868TIP3    H238550   7.670   2.868   4.154
12869TIP3   OH238551   1.824   1.120   4.346
12869TIP3    H138552   1.799   1.205   4.382
12869TIP3    H238553   1.911   1.103   4.382
12870TIP3   OH238554   8.278   4.546   5.737
12870TIP3    H138555   8.207   4.574   5.678
12870TIP3    H238556   8.271   4.451   5.740
12871TIP3   OH238557   2.204   0.656   3.379
12871TIP3    H138558   2.249   0.573   3.395
12871TIP3    H238559   2.124   0.651   3.432
12872TIP3   OH238560   6.730   3.775   5.861
12872TIP3    H138561   6.677   3.842   5.905
12872TIP3    H238562   6.719   3.793   5.767
12873TIP3   OH238563   7.490   5.320   4.323
12873TIP3    H138564   7.529   5.310   4.236
12873TIP3    H238565   7.564   5.341   4.380
12874TIP3   OH238566   7.074   6.587   0.578
12874TIP3    H138567   7.109   6.531   0.508
12874TIP3    H238568   7.109   6.550   0.658
12875TIP3   OH238569   5.773   1.474   2.421
12875TIP3    H138570   5.802   1.565   2.428
12875TIP3    H238571   5.812   1.431   2.498
12876TIP3   OH238572   5.639   6.785   5.975
12876TIP3    H138573   5.572   6.720   5.993
12876TIP3    H238574   5.709   6.766   6.038
12877TIP3   OH238575   4.873   1.303   2.514
12877TIP3    H138576   4.872   1.215   2.477
12877TIP3    H238577   4.960   1.312   2.552
12878TIP3   OH238578   2.149   7.681   2.575
12878TIP3    H138579   2.108   7.682   2.662
12878TIP3    H238580   2.079   7.705   2.515
12879TIP3   OH238581   1.039   6.367   0.650
12879TIP3    H138582   1.063   6.373   0.742
12879TIP3    H238583   1.056   6.455   0.615
12880TIP3   OH238584   6.600   4.690   4.928
12880TIP3    H138585   6.628   4.768   4.975
12880TIP3    H238586   6.667   4.625   4.947
12881TIP3   OH238587   2.993   5.674   2.986
12881TIP3    H138588   2.969   5.642   2.899
12881TIP3    H238589   2.978   5.599   3.044
12882TIP3   OH238590   8.260   5.233   3.608
12882TIP3    H138591   8.275   5.325   3.584
12882TIP3    H238592   8.347   5.201   3.633
12883TIP3   OH238593   7.533   0.328   5.565
12883TIP3    H138594   7.469   0.387   5.605
12883TIP3    H238595   7.504   0.240   5.590
12884TIP3   OH238596   5.448   7.668   3.048
12884TIP3    H138597   5.417   7.758   3.059
12884TIP3    H238598   5.492   7.647   3.130
12885TIP3   OH238599   6.652   6.234   6.440
12885TIP3    H138600   6.608   6.297   6.382
12885TIP3    H238601   6.701   6.177   6.380
12886TIP3   OH238602   3.061   7.027   3.310
12886TIP3    H138603   3.140   7.017   3.364
12886TIP3    H238604   3.071   7.113   3.269
12887TIP3   OH238605   3.707   4.783   0.611
12887TIP3    H138606   3.753   4.838   0.548
12887TIP3    H238607   3.777   4.744   0.664
12888TIP3   OH238608   1.408   7.193   5.572
12888TIP3    H138609   1.483   7.191   5.632
12888TIP3    H238610   1.335   7.225   5.625
12889TIP3   OH238611   3.177   6.186   4.436
12889TIP3    H138612   3.246   6.252   4.427
12889TIP3    H238613   3.108   6.230   4.486
12890TIP3   OH238614   7.061   0.462   4.636
12890TIP3    H138615   7.103   0.381   4.665
12890TIP3    H238616   7.133   0.522   4.618
12891TIP3   OH238617   0.584   0.388   1.101
12891TIP3    H138618   0.632   0.343   1.171
12891TIP3    H238619   0.643   0.458   1.074
12892TIP3   OH238620   4.287   7.743   5.049
12892TIP3    H138621   4.251   7.820   5.005
12892TIP3    H238622   4.302   7.772   5.139
12893TIP3   OH238623   2.010   0.232   0.667
12893TIP3    H138624   2.002   0.299   0.735
12893TIP3    H238625   2.103   0.231   0.645
12894TIP3   OH238626   6.457   4.439   2.158
12894TIP3    H138627   6.537   4.478   2.194
12894TIP3    H238628   6.488   4.373   2.096
12895TIP3   OH238629   0.852   4.268   6.300
12895TIP3    H138630   0.777   4.248   6.244
12895TIP3    H238631   0.927   4.269   6.241
12896TIP3   OH238632   2.379   1.869   3.813
12896TIP3    H138633   2.353   1.954   3.850
12896TIP3    H238634   2.342   1.870   3.725
12897TIP3   OH238635   6.788   1.098   4.022
12897TIP3    H138636   6.796   1.154   3.945
12897TIP3    H238637   6.823   1.014   3.995
12898TIP3   OH238638   5.231   7.086   2.344
12898TIP3    H138639   5.139   7.069   2.324
12898TIP3    H238640   5.248   7.034   2.422
12899TIP3   OH238641   4.797   0.442   0.196
12899TIP3    H138642   4.709   0.470   0.222
12899TIP3    H238643   4.842   0.426   0.279
12900TIP3   OH238644   2.714   4.178   3.641
12900TIP3    H138645   2.787   4.238   3.655
12900TIP3    H238646   2.656   4.223   3.579
12901TIP3   OH238647   1.533   7.397   3.352
12901TIP3    H138648   1.476   7.460   3.308
12901TIP3    H238649   1.524   7.317   3.301
12902TIP3   OH238650   8.260   2.167   5.177
12902TIP3    H138651   8.301   2.208   5.254
12902TIP3    H238652   8.204   2.099   5.214
12903TIP3   OH238653   4.710   5.790   2.388
12903TIP3    H138654   4.773   5.788   2.460
12903TIP3    H238655   4.757   5.751   2.314
12904TIP3   OH238656   6.725   1.072   6.202
12904TIP3    H138657   6.791   1.138   6.180
12904TIP3    H238658   6.716   1.019   6.123
12905TIP3   OH238659   0.977   5.733   2.804
12905TIP3    H138660   0.970   5.827   2.819
12905TIP3    H238661   1.049   5.724   2.742
12906TIP3   OH238662   7.304   3.716   3.670
12906TIP3    H138663   7.216   3.744   3.694
12906TIP3    H238664   7.320   3.757   3.585
12907TIP3   OH238665   4.641   6.395   3.448
12907TIP3    H138666   4.666   6.402   3.540
12907TIP3    H238667   4.553   6.358   3.450
12908TIP3   OH238668   5.872   3.434   4.550
12908TIP3    H138669   5.779   3.413   4.555
12908TIP3    H238670   5.884   3.507   4.611
12909TIP3   OH238671   2.953   2.988   3.989
12909TIP3    H138672   3.042   2.955   3.975
12909TIP3    H238673   2.896   2.916   3.961
12910TIP3   OH238674   8.136   7.698   3.780
12910TIP3    H138675   8.197   7.717   3.709
12910TIP3    H238676   8.186   7.713   3.860
12911TIP3   OH238677   6.284   4.419   0.326
12911TIP3    H138678   6.356   4.461   0.373
12911TIP3    H238679   6.289   4.455   0.237
12912TIP3   OH238680   3.923   1.414   6.589
12912TIP3    H138681   3.984   1.416   6.663
12912TIP3    H238682   3.930   1.502   6.550
12913TIP3   OH238683   6.540   0.749   0.564
12913TIP3    H138684   6.563   0.756   0.656
12913TIP3    H238685   6.512   0.658   0.553
12914TIP3   OH238686   1.376   2.073   4.747
12914TIP3    H138687   1.339   2.020   4.818
12914TIP3    H238688   1.471   2.067   4.760
12915TIP3   OH238689   0.388   2.145   0.249
12915TIP3    H138690   0.333   2.128   0.172
12915TIP3    H238691   0.437   2.064   0.260
12916TIP3   OH238692   7.637   2.823   4.502
12916TIP3    H138693   7.687   2.745   4.525
12916TIP3    H238694   7.675   2.892   4.557
12917TIP3   OH238695   2.066   1.234   4.113
12917TIP3    H138696   2.037   1.318   4.150
12917TIP3    H238697   2.139   1.258   4.056
12918TIP3   OH238698   2.665   4.551   5.689
12918TIP3    H138699   2.671   4.632   5.639
12918TIP3    H238700   2.746   4.548   5.740
12919TIP3   OH238701   6.557   5.232   3.745
12919TIP3    H138702   6.508   5.151   3.732
12919TIP3    H238703   6.630   5.226   3.683
12920TIP3   OH238704   0.014   5.344   5.074
12920TIP3    H138705   0.087   5.287   5.052
12920TIP3    H238706  -0.055   5.318   5.012
12921TIP3   OH238707   8.004   3.585   3.117
12921TIP3    H138708   7.913   3.564   3.094
12921TIP3    H238709   8.002   3.596   3.212
12922TIP3   OH238710   0.186   5.861   4.548
12922TIP3    H138711   0.239   5.783   4.564
12922TIP3    H238712   0.097   5.834   4.570
12923TIP3   OH238713   5.034   6.199   3.041
12923TIP3    H138714   4.987   6.223   2.961
12923TIP3    H238715   5.120   6.239   3.031
12924TIP3   OH238716   7.137   2.489   1.753
12924TIP3    H138717   7.089   2.443   1.685
12924TIP3    H238718   7.189   2.420   1.796
12925TIP3   OH238719   7.842   5.919   1.353
12925TIP3    H138720   7.927   5.901   1.314
12925TIP3    H238721   7.843   5.871   1.436
12926TIP3   OH238722   0.431   7.274   6.653
12926TIP3    H138723   0.363   7.338   6.632
12926TIP3    H238724   0.383   7.194   6.674
12927TIP3   OH238725   2.557   4.924   5.508
12927TIP3    H138726   2.641   4.894   5.544
12927TIP3    H238727   2.552   4.882   5.422
12928TIP3   OH238728   6.738   7.309   5.912
12928TIP3    H138729   6.717   7.222   5.879
12928TIP3    H238730   6.729   7.300   6.007
12929TIP3   OH238731   5.571   2.603   5.228
12929TIP3    H138732   5.637   2.636   5.168
12929TIP3    H238733   5.519   2.680   5.251
12930TIP3   OH238734   5.951   4.624   4.784
12930TIP3    H138735   5.867   4.637   4.828
12930TIP3    H238736   5.966   4.704   4.735
12931TIP3   OH238737   5.452   0.879   0.458
12931TIP3    H138738   5.455   0.811   0.390
12931TIP3    H238739   5.458   0.961   0.410
12932TIP3   OH238740   4.656   2.235   4.061
12932TIP3    H138741   4.692   2.321   4.080
12932TIP3    H238742   4.562   2.249   4.057
12933TIP3   OH238743   2.820   2.632   2.583
12933TIP3    H138744   2.895   2.581   2.613
12933TIP3    H238745   2.757   2.567   2.551
12934TIP3   OH238746   3.898   4.339   6.191
12934TIP3    H138747   3.901   4.348   6.287
12934TIP3    H238748   3.921   4.248   6.175
12935TIP3   OH238749   2.921   0.631   1.884
12935TIP3    H138750   2.856   0.696   1.909
12935TIP3    H238751   2.987   0.635   1.952
12936TIP3   OH238752   4.447   2.306   1.969
12936TIP3    H138753   4.354   2.315   1.987
12936TIP3    H238754   4.452   2.280   1.877
12937TIP3   OH238755   0.666   0.409   3.548
12937TIP3    H138756   0.585   0.413   3.497
12937TIP3    H238757   0.733   0.441   3.488
12938TIP3   OH238758   1.379   1.273   6.092
12938TIP3    H138759   1.439   1.244   6.023
12938TIP3    H238760   1.383   1.204   6.158
12939TIP3   OH238761   5.741   4.360   5.169
12939TIP3    H138762   5.794   4.420   5.222
12939TIP3    H238763   5.779   4.274   5.185
12940TIP3   OH238764   5.904   1.904   2.952
12940TIP3    H138765   5.831   1.952   2.914
12940TIP3    H238766   5.863   1.833   3.001
12941TIP3   OH238767   4.715   4.930   4.253
12941TIP3    H138768   4.782   4.967   4.310
12941TIP3    H238769   4.673   5.005   4.213
12942TIP3   OH238770   2.430   4.559   0.334
12942TIP3    H138771   2.382   4.483   0.364
12942TIP3    H238772   2.454   4.538   0.243
12943TIP3   OH238773   7.820   0.986   1.758
12943TIP3    H138774   7.768   1.065   1.744
12943TIP3    H238775   7.822   0.942   1.673
12944TIP3   OH238776   3.845   2.157   5.945
12944TIP3    H138777   3.858   2.221   5.875
12944TIP3    H238778   3.934   2.132   5.971
12945TIP3   OH238779   3.114   6.074   6.288
12945TIP3    H138780   3.144   6.158   6.252
12945TIP3    H238781   3.019   6.082   6.290
12946TIP3   OH238782   4.289   1.398   6.507
12946TIP3    H138783   4.277   1.335   6.436
12946TIP3    H238784   4.344   1.353   6.570
12947TIP3   OH238785   6.818   0.764   4.952
12947TIP3    H138786   6.830   0.689   4.894
12947TIP3    H238787   6.896   0.818   4.936
12948TIP3   OH238788   7.233   1.636   5.493
12948TIP3    H138789   7.305   1.683   5.452
12948TIP3    H238790   7.154   1.678   5.458
12949TIP3   OH238791   4.517   5.181   3.371
12949TIP3    H138792   4.558   5.095   3.364
12949TIP3    H238793   4.467   5.178   3.453
12950TIP3   OH238794   7.609   0.907   1.566
12950TIP3    H138795   7.638   0.827   1.611
12950TIP3    H238796   7.513   0.897   1.560
12951TIP3   OH238797   2.726   6.923   4.133
12951TIP3    H138798   2.801   6.967   4.173
12951TIP3    H238799   2.718   6.840   4.180
12952TIP3   OH238800   7.147   7.685   2.572
12952TIP3    H138801   7.173   7.602   2.531
12952TIP3    H238802   7.136   7.663   2.664
12953TIP3   OH238803   2.634   3.175   4.614
12953TIP3    H138804   2.626   3.080   4.628
12953TIP3    H238805   2.613   3.213   4.699
12954TIP3   OH238806   4.600   6.079   2.110
12954TIP3    H138807   4.682   6.049   2.071
12954TIP3    H238808   4.559   6.133   2.043
12955TIP3   OH238809   4.493   2.820   0.723
12955TIP3    H138810   4.417   2.829   0.780
12955TIP3    H238811   4.457   2.828   0.635
12956TIP3   OH238812   2.635   6.356   5.977
12956TIP3    H138813   2.574   6.409   6.028
12956TIP3    H238814   2.580   6.294   5.930
12957TIP3   OH238815   2.387   3.416   0.736
12957TIP3    H138816   2.351   3.329   0.720
12957TIP3    H238817   2.478   3.411   0.706
12958TIP3   OH238818   2.515   0.836   0.782
12958TIP3    H138819   2.581   0.772   0.755
12958TIP3    H238820   2.434   0.805   0.742
12959TIP3   OH238821   1.269   0.461   4.470
12959TIP3    H138822   1.297   0.465   4.561
12959TIP3    H238823   1.317   0.531   4.427
12960TIP3   OH238824   2.255   5.379   1.098
12960TIP3    H138825   2.308   5.427   1.034
12960TIP3    H238826   2.282   5.414   1.183
12961TIP3   OH238827   3.752   6.022   2.489
12961TIP3    H138828   3.830   6.075   2.470
12961TIP3    H238829   3.783   5.932   2.482
12962TIP3   OH238830   6.957   6.333   4.485
12962TIP3    H138831   6.985   6.299   4.569
12962TIP3    H238832   6.985   6.425   4.485
12963TIP3   OH238833   4.709   7.328   3.568
12963TIP3    H138834   4.654   7.250   3.572
12963TIP3    H238835   4.747   7.335   3.655
12964TIP3   OH238836   0.346   3.131   3.239
12964TIP3    H138837   0.441   3.120   3.246
12964TIP3    H238838   0.336   3.209   3.183
12965TIP3   OH238839   6.123   5.374   6.436
12965TIP3    H138840   6.134   5.330   6.520
12965TIP3    H238841   6.133   5.304   6.371
12966TIP3   OH238842   6.458   7.450   2.693
12966TIP3    H138843   6.530   7.397   2.659
12966TIP3    H238844   6.431   7.405   2.773
12967TIP3   OH238845   0.914   5.423   4.301
12967TIP3    H138846   0.917   5.392   4.391
12967TIP3    H238847   0.918   5.343   4.248
12968TIP3   OH238848   4.548   3.492   5.890
12968TIP3    H138849   4.530   3.565   5.950
12968TIP3    H238850   4.610   3.528   5.827
12969TIP3   OH238851   0.728   2.469   3.964
12969TIP3    H138852   0.704   2.534   4.029
12969TIP3    H238853   0.662   2.400   3.973
12970TIP3   OH238854   6.339   0.968   4.310
12970TIP3    H138855   6.304   0.918   4.237
12970TIP3    H238856   6.352   1.056   4.274
12971TIP3   OH238857   4.428   6.079   1.239
12971TIP3    H138858   4.377   6.115   1.166
12971TIP3    H238859   4.482   6.011   1.199
12972TIP3   OH238860   7.937   0.195   1.548
12972TIP3    H138861   7.990   0.174   1.472
12972TIP3    H238862   7.974   0.276   1.583
12973TIP3   OH238863   1.332   2.567   0.843
12973TIP3    H138864   1.399   2.583   0.776
12973TIP3    H238865   1.330   2.472   0.853
12974TIP3   OH238866   7.693   2.825   5.478
12974TIP3    H138867   7.654   2.870   5.402
12974TIP3    H238868   7.632   2.842   5.549
12975TIP3   OH238869   4.213   4.447   1.079
12975TIP3    H138870   4.251   4.521   1.033
12975TIP3    H238871   4.232   4.463   1.172
12976TIP3   OH238872   0.881   5.779   5.090
12976TIP3    H138873   0.952   5.826   5.047
12976TIP3    H238874   0.905   5.777   5.183
12977TIP3   OH238875   5.252   0.623   2.469
12977TIP3    H138876   5.181   0.664   2.519
12977TIP3    H238877   5.225   0.532   2.460
12978TIP3   OH238878   8.266   2.668   1.950
12978TIP3    H138879   8.176   2.640   1.940
12978TIP3    H238880   8.282   2.666   2.045
12979TIP3   OH238881   0.311   5.305   6.033
12979TIP3    H138882   0.353   5.238   6.086
12979TIP3    H238883   0.231   5.327   6.082
12980TIP3   OH238884   0.114   3.380   0.056
12980TIP3    H138885   0.171   3.414  -0.013
12980TIP3    H238886   0.130   3.286   0.057
12981TIP3   OH238887   0.330   0.291   1.235
12981TIP3    H138888   0.350   0.202   1.264
12981TIP3    H238889   0.254   0.280   1.177
12982TIP3   OH238890   5.219   1.868   1.153
12982TIP3    H138891   5.170   1.792   1.120
12982TIP3    H238892   5.175   1.944   1.113
12983TIP3   OH238893   2.260   7.595   3.280
12983TIP3    H138894   2.245   7.579   3.187
12983TIP3    H238895   2.354   7.610   3.287
12984TIP3   OH238896   5.491   5.647   2.224
12984TIP3    H138897   5.585   5.631   2.211
12984TIP3    H238898   5.458   5.565   2.261
12985TIP3   OH238899   5.516   3.269   0.754
12985TIP3    H138900   5.520   3.333   0.683
12985TIP3    H238901   5.607   3.252   0.776
12986TIP3   OH238902   4.070   0.853   3.384
12986TIP3    H138903   4.082   0.814   3.470
12986TIP3    H238904   4.104   0.942   3.393
12987TIP3   OH238905   7.380   2.484   5.334
12987TIP3    H138906   7.442   2.486   5.407
12987TIP3    H238907   7.331   2.565   5.342
12988TIP3   OH238908   0.017   3.654   2.434
12988TIP3    H138909   0.070   3.642   2.513
12988TIP3    H238910  -0.070   3.676   2.467
12989TIP3   OH238911   7.536   3.359   0.595
12989TIP3    H138912   7.556   3.312   0.676
12989TIP3    H238913   7.622   3.377   0.556
12990TIP3   OH238914   2.321   4.534   3.931
12990TIP3    H138915   2.354   4.498   4.014
12990TIP3    H238916   2.373   4.613   3.916
12991TIP3   OH238917   6.201   1.205   1.841
12991TIP3    H138918   6.197   1.229   1.748
12991TIP3    H238919   6.159   1.278   1.886
12992TIP3   OH238920   7.871   2.303   3.220
12992TIP3    H138921   7.940   2.250   3.260
12992TIP3    H238922   7.830   2.245   3.156
12993TIP3   OH238923   2.398   3.300   5.855
12993TIP3    H138924   2.449   3.318   5.777
12993TIP3    H238925   2.460   3.262   5.917
12994TIP3   OH238926   0.803   0.092   3.232
12994TIP3    H138927   0.739   0.073   3.301
12994TIP3    H238928   0.874   0.030   3.248
12995TIP3   OH238929   1.050   4.764   2.040
12995TIP3    H138930   1.006   4.768   2.125
12995TIP3    H238931   0.985   4.726   1.981
12996TIP3   OH238932   0.721   0.721   3.483
12996TIP3    H138933   0.674   0.801   3.506
12996TIP3    H238934   0.652   0.662   3.450
12997TIP3   OH238935   4.469   4.750   5.352
12997TIP3    H138936   4.544   4.775   5.298
12997TIP3    H238937   4.470   4.654   5.351
12998TIP3   OH238938   1.814   5.380   4.879
12998TIP3    H138939   1.893   5.407   4.927
12998TIP3    H238940   1.790   5.297   4.919
12999TIP3   OH238941   6.030   2.197   3.776
12999TIP3    H138942   6.108   2.147   3.751
12999TIP3    H238943   6.063   2.269   3.829
13000TIP3   OH238944   7.221   3.806   4.397
13000TIP3    H138945   7.303   3.785   4.441
13000TIP3    H238946   7.231   3.769   4.309
13001TIP3   OH238947   7.978   4.253   0.760
13001TIP3    H138948   7.930   4.318   0.811
13001TIP3    H238949   7.979   4.288   0.671
13002TIP3   OH238950   2.782   4.481   6.443
13002TIP3    H138951   2.706   4.513   6.393
13002TIP3    H238952   2.821   4.415   6.385
13003TIP3   OH238953   6.059   2.534   2.786
13003TIP3    H138954   5.970   2.547   2.752
13003TIP3    H238955   6.053   2.452   2.836
13004TIP3   OH238956   6.527   6.097   4.602
13004TIP3    H138957   6.443   6.142   4.612
13004TIP3    H238958   6.591   6.167   4.595
13005TIP3   OH238959   3.941   7.532   0.094
13005TIP3    H138960   3.972   7.442   0.080
13005TIP3    H238961   4.003   7.570   0.156
13006TIP3   OH238962   0.107   2.624   6.272
13006TIP3    H138963   0.175   2.589   6.328
13006TIP3    H238964   0.115   2.719   6.282
13007TIP3   OH238965   6.928   7.462   1.159
13007TIP3    H138966   6.857   7.496   1.105
13007TIP3    H238967   7.008   7.484   1.110
13008TIP3   OH238968   7.255   7.525   2.851
13008TIP3    H138969   7.309   7.553   2.777
13008TIP3    H238970   7.289   7.438   2.874
13009TIP3   OH238971   0.075   0.676   1.745
13009TIP3    H138972   0.046   0.611   1.680
13009TIP3    H238973   0.169   0.665   1.750
13010TIP3   OH238974   5.997   2.565   6.720
13010TIP3    H138975   5.911   2.530   6.740
13010TIP3    H238976   5.989   2.659   6.736
13011TIP3   OH238977   1.087   0.140   3.984
13011TIP3    H138978   1.044   0.152   4.069
13011TIP3    H238979   1.016   0.118   3.924
13012TIP3   OH238980   6.872   0.467   3.859
13012TIP3    H138981   6.785   0.494   3.889
13012TIP3    H238982   6.855   0.403   3.790
13013TIP3   OH238983   4.935   4.925   6.707
13013TIP3    H138984   4.854   4.939   6.658
13013TIP3    H238985   4.947   4.830   6.708
13014TIP3   OH238986   7.329   4.185   1.437
13014TIP3    H138987   7.392   4.258   1.434
13014TIP3    H238988   7.312   4.164   1.346
13015TIP3   OH238989   0.107   4.720   2.925
13015TIP3    H138990   0.190   4.679   2.951
13015TIP3    H238991   0.119   4.813   2.947
13016TIP3   OH238992   2.659   1.012   6.334
13016TIP3    H138993   2.671   1.087   6.392
13016TIP3    H238994   2.743   1.004   6.288
13017TIP3   OH238995   6.785   5.812   4.682
13017TIP3    H138996   6.846   5.741   4.661
13017TIP3    H238997   6.807   5.882   4.620
13018TIP3   OH238998   1.063   7.589   2.954
13018TIP3    H138999   1.090   7.574   3.045
13018TIP3    H239000   1.135   7.554   2.901
13019TIP3   OH239001   2.283   7.107   2.459
13019TIP3    H139002   2.191   7.131   2.472
13019TIP3    H239003   2.311   7.160   2.384
13020TIP3   OH239004   0.165   4.730   5.875
13020TIP3    H139005   0.121   4.693   5.952
13020TIP3    H239006   0.112   4.701   5.801
13021TIP3   OH239007   2.944   6.323   2.586
13021TIP3    H139008   2.945   6.303   2.680
13021TIP3    H239009   2.923   6.416   2.581
13022TIP3   OH239010   3.135   4.862   5.193
13022TIP3    H139011   3.130   4.778   5.239
13022TIP3    H239012   3.046   4.897   5.198
13023TIP3   OH239013   4.509   4.463   5.287
13023TIP3    H139014   4.585   4.444   5.341
13023TIP3    H239015   4.524   4.412   5.207
13024TIP3   OH239016   6.316   3.707   4.136
13024TIP3    H139017   6.379   3.760   4.184
13024TIP3    H239018   6.245   3.691   4.198
13025TIP3   OH239019   5.255   3.171   0.667
13025TIP3    H139020   5.336   3.212   0.699
13025TIP3    H239021   5.192   3.243   0.665
13026TIP3   OH239022   1.785   4.315   3.061
13026TIP3    H139023   1.836   4.237   3.043
13026TIP3    H239024   1.811   4.341   3.150
13027TIP3   OH239025   5.367   2.911   0.927
13027TIP3    H139026   5.337   2.976   0.990
13027TIP3    H239027   5.288   2.861   0.904
13028TIP3   OH239028   1.164   3.075   0.735
13028TIP3    H139029   1.096   3.100   0.798
13028TIP3    H239030   1.157   2.980   0.729
13029TIP3   OH239031   5.377   4.592   3.581
13029TIP3    H139032   5.373   4.681   3.618
13029TIP3    H239033   5.455   4.553   3.620
13030TIP3   OH239034   7.167   2.065   1.329
13030TIP3    H139035   7.072   2.059   1.339
13030TIP3    H239036   7.181   2.138   1.268
13031TIP3   OH239037   5.051   6.955   3.375
13031TIP3    H139038   5.114   6.930   3.442
13031TIP3    H239039   4.985   6.886   3.376
13032TIP3   OH239040   7.998   7.580   5.590
13032TIP3    H139041   7.937   7.525   5.541
13032TIP3    H239042   7.945   7.618   5.660
13033TIP3   OH239043   2.305   1.247   3.147
13033TIP3    H139044   2.242   1.310   3.183
13033TIP3    H239045   2.358   1.220   3.222
13034TIP3   OH239046   6.663   2.438   5.982
13034TIP3    H139047   6.623   2.503   6.039
13034TIP3    H239048   6.622   2.355   6.008
13035TIP3   OH239049   2.795   7.223   5.797
13035TIP3    H139050   2.828   7.228   5.707
13035TIP3    H239051   2.836   7.145   5.833
13036TIP3   OH239052   5.337   0.093   4.865
13036TIP3    H139053   5.335   0.185   4.890
13036TIP3    H239054   5.339   0.094   4.769
13037TIP3   OH239055   1.599   7.135   4.913
13037TIP3    H139056   1.582   7.229   4.904
13037TIP3    H239057   1.533   7.104   4.975
13038TIP3   OH239058   1.100   4.561   6.575
13038TIP3    H139059   1.112   4.555   6.481
13038TIP3    H239060   1.044   4.638   6.587
13039TIP3   OH239061   6.097   0.413   2.280
13039TIP3    H139062   6.035   0.377   2.216
13039TIP3    H239063   6.118   0.500   2.246
13040TIP3   OH239064   2.688   4.654   3.409
13040TIP3    H139065   2.714   4.617   3.324
13040TIP3    H239066   2.729   4.741   3.410
13041TIP3   OH239067   4.387   2.214   4.870
13041TIP3    H139068   4.381   2.277   4.798
13041TIP3    H239069   4.460   2.244   4.923
13042TIP3   OH239070   4.292   1.652   6.593
13042TIP3    H139071   4.293   1.564   6.557
13042TIP3    H239072   4.299   1.640   6.688
13043TIP3   OH239073   7.944   3.682   5.682
13043TIP3    H139074   7.877   3.748   5.664
13043TIP3    H239075   7.985   3.711   5.764
13044TIP3   OH239076   5.309   4.713   1.153
13044TIP3    H139077   5.263   4.692   1.234
13044TIP3    H239078   5.254   4.676   1.084
13045TIP3   OH239079   7.118   1.013   1.187
13045TIP3    H139080   7.029   1.037   1.159
13045TIP3    H239081   7.105   0.974   1.274
13046TIP3   OH239082   0.570   5.700   3.724
13046TIP3    H139083   0.654   5.676   3.685
13046TIP3    H239084   0.552   5.630   3.787
13047TIP3   OH239085   2.916   4.137   3.428
13047TIP3    H139086   2.821   4.129   3.421
13047TIP3    H239087   2.931   4.228   3.455
13048TIP3   OH239088   6.222   1.347   0.356
13048TIP3    H139089   6.315   1.345   0.375
13048TIP3    H239090   6.209   1.279   0.290
13049TIP3   OH239091   2.714   3.484   0.838
13049TIP3    H139092   2.748   3.526   0.759
13049TIP3    H239093   2.665   3.553   0.883
13050TIP3   OH239094   3.604   7.557   3.943
13050TIP3    H139095   3.638   7.619   3.878
13050TIP3    H239096   3.530   7.604   3.984
13051TIP3   OH239097   6.420   3.049   2.122
13051TIP3    H139098   6.455   3.137   2.112
13051TIP3    H239099   6.482   2.994   2.074
13052TIP3   OH239100   1.819   1.314   3.959
13052TIP3    H139101   1.888   1.251   3.982
13052TIP3    H239102   1.750   1.298   4.024
13053TIP3   OH239103   5.027   4.721   2.720
13053TIP3    H139104   5.036   4.727   2.815
13053TIP3    H239105   5.115   4.736   2.686
13054TIP3   OH239106   7.393   5.002   6.674
13054TIP3    H139107   7.301   4.978   6.664
13054TIP3    H239108   7.394   5.097   6.673
13055TIP3   OH239109   0.003   1.639   2.374
13055TIP3    H139110   0.073   1.588   2.416
13055TIP3    H239111  -0.027   1.699   2.443
13056TIP3   OH239112   6.322   3.419   0.832
13056TIP3    H139113   6.386   3.421   0.903
13056TIP3    H239114   6.311   3.325   0.813
13057TIP3   OH239115   1.593   0.916   1.640
13057TIP3    H139116   1.670   0.861   1.653
13057TIP3    H239117   1.557   0.927   1.728
13058TIP3   OH239118   1.393   3.820   2.837
13058TIP3    H139119   1.323   3.761   2.862
13058TIP3    H239120   1.356   3.908   2.848
13059TIP3   OH239121   1.458   3.183   0.361
13059TIP3    H139122   1.449   3.213   0.452
13059TIP3    H239123   1.396   3.110   0.354
13060TIP3   OH239124   0.743   7.761   1.001
13060TIP3    H139125   0.836   7.744   1.016
13060TIP3    H239126   0.741   7.845   0.955
13061TIP3   OH239127   2.636   1.960   3.748
13061TIP3    H139128   2.547   1.923   3.753
13061TIP3    H239129   2.636   2.012   3.667
13062TIP3   OH239130   7.995   4.381   0.519
13062TIP3    H139131   7.933   4.395   0.448
13062TIP3    H239132   8.061   4.322   0.482
13063TIP3   OH239133   7.295   7.212   4.172
13063TIP3    H139134   7.293   7.291   4.226
13063TIP3    H239135   7.211   7.213   4.126
13064TIP3   OH239136   0.423   1.892   5.121
13064TIP3    H139137   0.462   1.941   5.193
13064TIP3    H239138   0.497   1.864   5.068
13065TIP3   OH239139   0.189   4.054   0.428
13065TIP3    H139140   0.284   4.065   0.430
13065TIP3    H239141   0.154   4.142   0.442
13066TIP3   OH239142   3.903   4.132   5.913
13066TIP3    H139143   3.995   4.119   5.934
13066TIP3    H239144   3.900   4.130   5.817
13067TIP3   OH239145   4.721   4.975   6.475
13067TIP3    H139146   4.646   4.916   6.485
13067TIP3    H239147   4.735   4.981   6.380
13068TIP3   OH239148   4.248   0.379   1.522
13068TIP3    H139149   4.201   0.403   1.602
13068TIP3    H239150   4.204   0.427   1.452
13069TIP3   OH239151   3.536   1.128   1.326
13069TIP3    H139152   3.574   1.129   1.414
13069TIP3    H239153   3.611   1.141   1.268
13070TIP3   OH239154   0.362   5.894   3.351
13070TIP3    H139155   0.447   5.879   3.311
13070TIP3    H239156   0.315   5.811   3.338
13071TIP3   OH239157   6.432   2.709   5.850
13071TIP3    H139158   6.361   2.648   5.828
13071TIP3    H239159   6.404   2.793   5.813
13072TIP3   OH239160   3.177   4.610   1.745
13072TIP3    H139161   3.220   4.524   1.739
13072TIP3    H239162   3.232   4.668   1.692
13073TIP3   OH239163   7.878   1.140   6.360
13073TIP3    H139164   7.801   1.118   6.412
13073TIP3    H239165   7.952   1.117   6.416
13074TIP3   OH239166   2.512   3.859   6.539
13074TIP3    H139167   2.550   3.921   6.476
13074TIP3    H239168   2.578   3.790   6.548
13075TIP3   OH239169   2.358   0.079   6.717
13075TIP3    H139170   2.327  -0.007   6.745
13075TIP3    H239171   2.280   0.135   6.717
13076TIP3   OH239172   0.252   6.640   3.977
13076TIP3    H139173   0.228   6.628   3.885
13076TIP3    H239174   0.204   6.718   4.005
13077TIP3   OH239175   3.019   3.048   2.960
13077TIP3    H139176   2.998   3.134   2.925
13077TIP3    H239177   3.104   3.027   2.922
13078TIP3   OH239178   1.994   0.449   0.859
13078TIP3    H139179   1.976   0.541   0.843
13078TIP3    H239180   2.038   0.448   0.945
13079TIP3   OH239181   6.378   0.809   5.417
13079TIP3    H139182   6.290   0.834   5.444
13079TIP3    H239183   6.398   0.866   5.344
13080TIP3   OH239184   8.003   5.914   0.284
13080TIP3    H139185   8.090   5.944   0.311
13080TIP3    H239186   8.012   5.895   0.190
13081TIP3   OH239187   4.998   0.709   1.170
13081TIP3    H139188   5.059   0.694   1.242
13081TIP3    H239189   4.961   0.796   1.187
13082TIP3   OH239190   5.100   5.815   5.235
13082TIP3    H139191   5.179   5.784   5.280
13082TIP3    H239192   5.115   5.795   5.143
13083TIP3   OH239193   6.388   3.404   2.774
13083TIP3    H139194   6.373   3.320   2.819
13083TIP3    H239195   6.437   3.456   2.836
13084TIP3   OH239196   4.155   0.089   1.848
13084TIP3    H139197   4.063   0.109   1.865
13084TIP3    H239198   4.164   0.098   1.753
13085TIP3   OH239199   1.759   2.665   2.354
13085TIP3    H139200   1.804   2.716   2.421
13085TIP3    H239201   1.734   2.584   2.397
13086TIP3   OH239202   4.186   7.315   4.140
13086TIP3    H139203   4.093   7.292   4.144
13086TIP3    H239204   4.232   7.234   4.162
13087TIP3   OH239205   2.125   7.615   0.972
13087TIP3    H139206   2.097   7.689   1.026
13087TIP3    H239207   2.175   7.655   0.900
13088TIP3   OH239208   3.903   1.840   0.229
13088TIP3    H139209   3.935   1.808   0.145
13088TIP3    H239210   3.837   1.906   0.206
13089TIP3   OH239211   2.577   6.655   5.549
13089TIP3    H139212   2.621   6.655   5.634
13089TIP3    H239213   2.496   6.704   5.564
13090TIP3   OH239214   5.441   0.648   5.200
13090TIP3    H139215   5.483   0.590   5.137
13090TIP3    H239216   5.350   0.621   5.201
13091TIP3   OH239217   5.134   1.845   3.401
13091TIP3    H139218   5.167   1.829   3.489
13091TIP3    H239219   5.083   1.767   3.379
13092TIP3   OH239220   0.661   5.066   1.894
13092TIP3    H139221   0.666   4.996   1.829
13092TIP3    H239222   0.681   5.145   1.844
13093TIP3   OH239223   2.289   1.930   6.680
13093TIP3    H139224   2.380   1.943   6.707
13093TIP3    H239225   2.295   1.874   6.603
13094TIP3   OH239226   1.656   0.201   6.447
13094TIP3    H139227   1.618   0.116   6.469
13094TIP3    H239228   1.584   0.251   6.408
13095TIP3   OH239229   2.823   2.035   3.246
13095TIP3    H139230   2.826   2.125   3.214
13095TIP3    H239231   2.915   2.005   3.243
13096TIP3   OH239232   0.482   2.013   6.727
13096TIP3    H139233   0.577   2.028   6.720
13096TIP3    H239234   0.475   1.929   6.771
13097TIP3   OH239235   3.653   5.070   5.747
13097TIP3    H139236   3.575   5.054   5.693
13097TIP3    H239237   3.649   5.164   5.768
13098TIP3   OH239238   3.440   5.804   3.491
13098TIP3    H139239   3.502   5.735   3.465
13098TIP3    H239240   3.467   5.881   3.441
13099TIP3   OH239241   6.108   6.579   5.492
13099TIP3    H139242   6.041   6.575   5.424
13099TIP3    H239243   6.163   6.502   5.475
13100TIP3   OH239244   5.057   5.402   4.754
13100TIP3    H139245   5.091   5.483   4.714
13100TIP3    H239246   4.962   5.407   4.741
13101TIP3   OH239247   6.475   1.436   2.904
13101TIP3    H139248   6.545   1.500   2.892
13101TIP3    H239249   6.483   1.377   2.828
13102TIP3   OH239250   7.887   5.683   2.796
13102TIP3    H139251   7.854   5.767   2.826
13102TIP3    H239252   7.961   5.705   2.739
13103TIP3   OH239253   5.662   6.974   2.884
13103TIP3    H139254   5.745   6.932   2.906
13103TIP3    H239255   5.653   6.961   2.790
13104TIP3   OH239256   0.529   1.708   1.313
13104TIP3    H139257   0.566   1.625   1.285
13104TIP3    H239258   0.501   1.693   1.404
13105TIP3   OH239259   4.489   5.608   6.716
13105TIP3    H139260   4.437   5.552   6.774
13105TIP3    H239261   4.454   5.696   6.731
13106TIP3   OH239262   5.122   0.106   1.638
13106TIP3    H139263   5.119   0.202   1.636
13106TIP3    H239264   5.073   0.082   1.717
13107TIP3   OH239265   2.959   0.609   4.243
13107TIP3    H139266   3.009   0.674   4.193
13107TIP3    H239267   3.003   0.605   4.328
13108TIP3   OH239268   8.080   6.289   6.671
13108TIP3    H139269   7.988   6.275   6.691
13108TIP3    H239270   8.127   6.232   6.733
13109TIP3   OH239271   1.641   1.517   4.972
13109TIP3    H139272   1.702   1.512   5.046
13109TIP3    H239273   1.563   1.559   5.009
13110TIP3   OH239274   1.074   0.769   3.126
13110TIP3    H139275   1.015   0.704   3.089
13110TIP3    H239276   1.161   0.729   3.119
13111TIP3   OH239277   8.009   2.879   2.568
13111TIP3    H139278   7.989   2.956   2.515
13111TIP3    H239279   7.966   2.806   2.523
13112TIP3   OH239280   1.138   6.816   4.886
13112TIP3    H139281   1.163   6.792   4.975
13112TIP3    H239282   1.221   6.825   4.839
13113TIP3   OH239283   6.806   5.652   0.886
13113TIP3    H139284   6.790   5.699   0.805
13113TIP3    H239285   6.780   5.713   0.955
13114TIP3   OH239286   7.626   6.914   6.128
13114TIP3    H139287   7.703   6.858   6.119
13114TIP3    H239288   7.651   6.996   6.085
13115TIP3   OH239289   4.097   0.976   2.660
13115TIP3    H139290   4.071   0.891   2.695
13115TIP3    H239291   4.178   0.959   2.612
13116TIP3   OH239292   4.575   3.928   4.509
13116TIP3    H139293   4.600   4.020   4.504
13116TIP3    H239294   4.652   3.881   4.477
13117TIP3   OH239295   0.894   0.073   4.201
13117TIP3    H139296   0.853   0.096   4.285
13117TIP3    H239297   0.907  -0.021   4.206
13118TIP3   OH239298   7.377   0.721   5.624
13118TIP3    H139299   7.355   0.634   5.656
13118TIP3    H239300   7.429   0.761   5.694
13119TIP3   OH239301   3.836   6.430   6.592
13119TIP3    H139302   3.894   6.491   6.638
13119TIP3    H239303   3.758   6.425   6.647
13120TIP3   OH239304   6.335   4.103   6.634
13120TIP3    H139305   6.327   4.198   6.636
13120TIP3    H239306   6.394   4.082   6.706
13121TIP3   OH239307   5.594   0.870   0.838
13121TIP3    H139308   5.610   0.794   0.783
13121TIP3    H239309   5.504   0.895   0.820
13122TIP3   OH239310   3.791   6.984   2.998
13122TIP3    H139311   3.808   7.023   2.912
13122TIP3    H239312   3.873   6.993   3.046
13123TIP3   OH239313   5.924   6.940   2.154
13123TIP3    H139314   5.835   6.973   2.142
13123TIP3    H239315   5.919   6.886   2.233
13124TIP3   OH239316   1.722   2.343   4.272
13124TIP3    H139317   1.648   2.351   4.332
13124TIP3    H239318   1.688   2.294   4.197
13125TIP3   OH239319   0.087   7.485   3.725
13125TIP3    H139320   0.023   7.432   3.773
13125TIP3    H239321   0.034   7.535   3.662
13126TIP3   OH239322   3.632   4.208   4.224
13126TIP3    H139323   3.714   4.249   4.195
13126TIP3    H239324   3.574   4.216   4.148
13127TIP3   OH239325   6.747   4.805   5.302
13127TIP3    H139326   6.827   4.752   5.300
13127TIP3    H239327   6.737   4.830   5.394
13128TIP3   OH239328   0.177   1.448   1.600
13128TIP3    H139329   0.143   1.525   1.645
13128TIP3    H239330   0.161   1.375   1.661
13129TIP3   OH239331   5.625   7.148   3.118
13129TIP3    H139332   5.631   7.075   3.180
13129TIP3    H239333   5.651   7.110   3.034
13130TIP3   OH239334   8.215   4.287   5.698
13130TIP3    H139335   8.228   4.225   5.626
13130TIP3    H239336   8.154   4.242   5.757
13131TIP3   OH239337   3.803   2.284   0.341
13131TIP3    H139338   3.715   2.262   0.312
13131TIP3    H239339   3.860   2.227   0.290
13132TIP3   OH239340   0.695   2.722   2.499
13132TIP3    H139341   0.617   2.667   2.508
13132TIP3    H239342   0.768   2.661   2.509
13133TIP3   OH239343   6.805   6.707   3.581
13133TIP3    H139344   6.864   6.663   3.642
13133TIP3    H239345   6.810   6.799   3.605
13134TIP3   OH239346   0.188   6.588   3.423
13134TIP3    H139347   0.262   6.553   3.473
13134TIP3    H239348   0.200   6.552   3.334
13135TIP3   OH239349   4.707   3.864   3.808
13135TIP3    H139350   4.785   3.809   3.793
13135TIP3    H239351   4.728   3.947   3.766
13136TIP3   OH239352   4.517   5.611   2.290
13136TIP3    H139353   4.449   5.672   2.261
13136TIP3    H239354   4.572   5.663   2.349
13137TIP3   OH239355   7.641   3.607   3.420
13137TIP3    H139356   7.569   3.611   3.356
13137TIP3    H239357   7.599   3.578   3.501
13138TIP3   OH239358   1.840   5.813   5.326
13138TIP3    H139359   1.935   5.811   5.317
13138TIP3    H239360   1.808   5.826   5.237
13139TIP3   OH239361   2.890   4.293   0.259
13139TIP3    H139362   2.876   4.360   0.325
13139TIP3    H239363   2.859   4.212   0.300
13140TIP3   OH239364   2.504   3.098   2.507
13140TIP3    H139365   2.564   3.027   2.529
13140TIP3    H239366   2.478   3.134   2.592
13141TIP3   OH239367   6.846   6.007   2.828
13141TIP3    H139368   6.769   5.965   2.866
13141TIP3    H239369   6.871   6.074   2.891
13142TIP3   OH239370   7.609   7.777   1.767
13142TIP3    H139371   7.692   7.753   1.727
13142TIP3    H239372   7.626   7.773   1.861
13143TIP3   OH239373   2.552   2.603   6.659
13143TIP3    H139374   2.618   2.551   6.705
13143TIP3    H239375   2.505   2.649   6.729
13144TIP3   OH239376   0.435   4.017   3.626
13144TIP3    H139377   0.484   4.095   3.651
13144TIP3    H239378   0.344   4.039   3.645
13145TIP3   OH239379   6.269   6.710   1.582
13145TIP3    H139380   6.257   6.769   1.507
13145TIP3    H239381   6.264   6.622   1.545
13146TIP3   OH239382   7.114   6.069   0.577
13146TIP3    H139383   7.043   6.133   0.569
13146TIP3    H239384   7.088   5.997   0.519
13147TIP3   OH239385   1.493   1.728   2.876
13147TIP3    H139386   1.427   1.718   2.808
13147TIP3    H239387   1.539   1.644   2.878
13148TIP3   OH239388   1.356   5.854   3.717
13148TIP3    H139389   1.336   5.763   3.738
13148TIP3    H239390   1.417   5.882   3.785
13149TIP3   OH239391   4.875   6.940   1.240
13149TIP3    H139392   4.901   6.859   1.195
13149TIP3    H239393   4.904   6.928   1.330
13150TIP3   OH239394   5.935   0.599   6.146
13150TIP3    H139395   5.849   0.591   6.106
13150TIP3    H239396   5.994   0.618   6.073
13151TIP3   OH239397   2.364   3.715   2.753
13151TIP3    H139398   2.326   3.784   2.700
13151TIP3    H239399   2.371   3.753   2.841
13152TIP3   OH239400   3.302   5.111   5.383
13152TIP3    H139401   3.284   5.033   5.330
13152TIP3    H239402   3.311   5.182   5.318
13153TIP3   OH239403   2.039   4.020   2.457
13153TIP3    H139404   2.005   3.982   2.376
13153TIP3    H239405   2.006   4.110   2.457
13154TIP3   OH239406   8.024   1.145   1.572
13154TIP3    H139407   8.035   1.240   1.576
13154TIP3    H239408   7.931   1.132   1.552
13155TIP3   OH239409   5.110   6.710   0.439
13155TIP3    H139410   5.055   6.688   0.514
13155TIP3    H239411   5.086   6.646   0.372
13156TIP3   OH239412   5.622   3.622   5.320
13156TIP3    H139413   5.626   3.527   5.311
13156TIP3    H239414   5.714   3.650   5.316
13157TIP3   OH239415   6.830   7.565   6.116
13157TIP3    H139416   6.746   7.610   6.126
13157TIP3    H239417   6.808   7.472   6.125
13158TIP3   OH239418   7.338   1.177   1.109
13158TIP3    H139419   7.295   1.233   1.043
13158TIP3    H239420   7.266   1.132   1.152
13159TIP3   OH239421   1.894   2.130   4.384
13159TIP3    H139422   1.850   2.197   4.332
13159TIP3    H239423   1.956   2.179   4.438
13160TIP3   OH239424   4.118   5.871   6.659
13160TIP3    H139425   4.120   5.835   6.570
13160TIP3    H239426   4.044   5.828   6.700
13161TIP3   OH239427   1.513   3.562   1.123
13161TIP3    H139428   1.432   3.512   1.133
13161TIP3    H239429   1.486   3.654   1.130
13162TIP3   OH239430   5.907   4.472   3.737
13162TIP3    H139431   5.968   4.414   3.783
13162TIP3    H239432   5.823   4.459   3.781
13163TIP3   OH239433   6.690   1.709   5.272
13163TIP3    H139434   6.615   1.717   5.331
13163TIP3    H239435   6.726   1.622   5.291
13164TIP3   OH239436   1.572   1.698   2.517
13164TIP3    H139437   1.536   1.767   2.461
13164TIP3    H239438   1.666   1.703   2.503
13165TIP3   OH239439   6.769   3.215   4.123
13165TIP3    H139440   6.857   3.249   4.137
13165TIP3    H239441   6.731   3.211   4.211
13166TIP3   OH239442   7.863   1.411   6.504
13166TIP3    H139443   7.933   1.354   6.535
13166TIP3    H239444   7.895   1.447   6.422
13167TIP3   OH239445   0.720   0.017   3.514
13167TIP3    H139446   0.809   0.053   3.519
13167TIP3    H239447   0.674   0.059   3.586
13168TIP3   OH239448   4.234   6.934   0.146
13168TIP3    H139449   4.147   6.969   0.126
13168TIP3    H239450   4.220   6.840   0.159
13169TIP3   OH239451   0.572   4.611   2.001
13169TIP3    H139452   0.655   4.570   2.027
13169TIP3    H239453   0.593   4.659   1.921
13170TIP3   OH239454   0.392   3.052   0.173
13170TIP3    H139455   0.302   3.063   0.202
13170TIP3    H239456   0.446   3.082   0.247
13171TIP3   OH239457   8.034   5.427   2.823
13171TIP3    H139458   8.027   5.522   2.810
13171TIP3    H239459   7.986   5.410   2.904
13172TIP3   OH239460   5.975   2.307   6.275
13172TIP3    H139461   6.051   2.250   6.287
13172TIP3    H239462   5.933   2.275   6.195
13173TIP3   OH239463   6.879   1.608   0.439
13173TIP3    H139464   6.786   1.598   0.422
13173TIP3    H239465   6.922   1.561   0.367
13174TIP3   OH239466   4.677   2.930   2.213
13174TIP3    H139467   4.701   2.863   2.278
13174TIP3    H239468   4.751   2.930   2.151
13175TIP3   OH239469   2.071   6.214   6.126
13175TIP3    H139470   2.084   6.182   6.037
13175TIP3    H239471   2.120   6.152   6.181
13176TIP3   OH239472   6.761   5.222   1.486
13176TIP3    H139473   6.735   5.279   1.559
13176TIP3    H239474   6.835   5.172   1.520
13177TIP3   OH239475   1.037   1.154   4.247
13177TIP3    H139476   1.001   1.241   4.228
13177TIP3    H239477   1.131   1.169   4.257
13178TIP3   OH239478   4.963   4.466   6.295
13178TIP3    H139479   4.909   4.531   6.249
13178TIP3    H239480   4.952   4.386   6.244
13179TIP3   OH239481   7.427   5.279   2.825
13179TIP3    H139482   7.454   5.203   2.774
13179TIP3    H239483   7.336   5.260   2.850
13180TIP3   OH239484   5.597   1.160   4.339
13180TIP3    H139485   5.634   1.085   4.385
13180TIP3    H239486   5.590   1.131   4.248
13181TIP3   OH239487   4.875   7.128   6.080
13181TIP3    H139488   4.852   7.036   6.087
13181TIP3    H239489   4.843   7.167   6.161
13182TIP3   OH239490   6.507   1.393   3.974
13182TIP3    H139491   6.420   1.353   3.964
13182TIP3    H239492   6.493   1.486   3.954
13183TIP3   OH239493   7.918   6.486   5.357
13183TIP3    H139494   7.847   6.428   5.386
13183TIP3    H239495   7.905   6.495   5.263
13184TIP3   OH239496   2.568   4.673   3.895
13184TIP3    H139497   2.575   4.601   3.832
13184TIP3    H239498   2.642   4.730   3.874
13185TIP3   OH239499   2.845   0.133   2.350
13185TIP3    H139500   2.844   0.069   2.421
13185TIP3    H239501   2.772   0.107   2.293
13186TIP3   OH239502   4.466   1.476   6.282
13186TIP3    H139503   4.522   1.552   6.269
13186TIP3    H239504   4.442   1.478   6.374
13187TIP3   OH239505   8.067   5.314   4.657
13187TIP3    H139506   7.990   5.291   4.605
13187TIP3    H239507   8.034   5.374   4.724
13188TIP3   OH239508   8.034   2.483   6.767
13188TIP3    H139509   7.942   2.498   6.789
13188TIP3    H239510   8.074   2.453   6.848
13189TIP3   OH239511   2.835   3.665   5.483
13189TIP3    H139512   2.861   3.573   5.483
13189TIP3    H239513   2.745   3.665   5.451
13190TIP3   OH239514   2.475   5.821   3.824
13190TIP3    H139515   2.434   5.793   3.742
13190TIP3    H239516   2.402   5.834   3.884
13191TIP3   OH239517   7.562   5.052   3.848
13191TIP3    H139518   7.572   5.051   3.943
13191TIP3    H239519   7.623   4.984   3.817
13192TIP3   OH239520   0.947   1.741   2.674
13192TIP3    H139521   0.983   1.652   2.675
13192TIP3    H239522   0.973   1.776   2.589
13193TIP3   OH239523   3.947   4.392   0.940
13193TIP3    H139524   3.953   4.333   1.015
13193TIP3    H239525   3.993   4.471   0.969
13194TIP3   OH239526   4.166   6.137   0.675
13194TIP3    H139527   4.205   6.144   0.588
13194TIP3    H239528   4.237   6.105   0.731
13195TIP3   OH239529   4.952   1.020   0.837
13195TIP3    H139530   4.979   1.093   0.892
13195TIP3    H239531   4.907   1.062   0.763
13196TIP3   OH239532   7.450   1.638   6.392
13196TIP3    H139533   7.513   1.587   6.443
13196TIP3    H239534   7.378   1.655   6.454
13197TIP3   OH239535   6.893   6.967   5.241
13197TIP3    H139536   6.969   6.928   5.284
13197TIP3    H239537   6.829   6.896   5.234
13198TIP3   OH239538   6.086   3.160   4.739
13198TIP3    H139539   6.098   3.157   4.644
13198TIP3    H239540   6.118   3.074   4.769
13199TIP3   OH239541   0.653   3.557   4.871
13199TIP3    H139542   0.726   3.540   4.812
13199TIP3    H239543   0.694   3.573   4.956
13200TIP3   OH239544   5.998   7.226   1.715
13200TIP3    H139545   6.011   7.210   1.809
13200TIP3    H239546   6.070   7.180   1.673
13201TIP3   OH239547   5.709   7.738   5.163
13201TIP3    H139548   5.640   7.768   5.104
13201TIP3    H239549   5.771   7.811   5.168
13202TIP3   OH239550   7.141   3.586   1.153
13202TIP3    H139551   7.096   3.581   1.069
13202TIP3    H239552   7.202   3.659   1.143
13203TIP3   OH239553   4.666   1.474   2.701
13203TIP3    H139554   4.610   1.529   2.756
13203TIP3    H239555   4.607   1.433   2.639
13204TIP3   OH239556   2.469   4.928   3.578
13204TIP3    H139557   2.434   5.013   3.551
13204TIP3    H239558   2.460   4.927   3.673
13205TIP3   OH239559   6.721   3.671   1.097
13205TIP3    H139560   6.745   3.648   1.008
13205TIP3    H239561   6.754   3.760   1.109
13206TIP3   OH239562   1.290   7.102   4.820
13206TIP3    H139563   1.359   7.052   4.776
13206TIP3    H239564   1.309   7.092   4.913
13207TIP3   OH239565   4.677   4.686   2.791
13207TIP3    H139566   4.689   4.781   2.798
13207TIP3    H239567   4.702   4.665   2.701
13208TIP3   OH239568   8.047   1.209   2.495
13208TIP3    H139569   8.100   1.129   2.488
13208TIP3    H239570   7.977   1.196   2.431
13209TIP3   OH239571   1.967   0.029   4.441
13209TIP3    H139572   1.979   0.057   4.531
13209TIP3    H239573   1.934  -0.060   4.447
13210TIP3   OH239574   1.687   5.433   2.126
13210TIP3    H139575   1.613   5.441   2.066
13210TIP3    H239576   1.740   5.362   2.090
13211TIP3   OH239577   8.291   1.553   3.662
13211TIP3    H139578   8.229   1.545   3.589
13211TIP3    H239579   8.346   1.628   3.638
13212TIP3   OH239580   6.182   1.594   2.580
13212TIP3    H139581   6.167   1.688   2.583
13212TIP3    H239582   6.166   1.569   2.489
13213TIP3   OH239583   8.299   3.321   5.614
13213TIP3    H139584   8.336   3.253   5.670
13213TIP3    H239585   8.251   3.378   5.674
13214TIP3   OH239586   3.846   4.367   1.968
13214TIP3    H139587   3.805   4.431   2.027
13214TIP3    H239588   3.856   4.289   2.022
13215TIP3   OH239589   1.637   2.725   4.641
13215TIP3    H139590   1.572   2.740   4.709
13215TIP3    H239591   1.659   2.632   4.648
13216TIP3   OH239592   2.401   3.314   0.064
13216TIP3    H139593   2.476   3.285   0.116
13216TIP3    H239594   2.405   3.409   0.065
13217TIP3   OH239595   0.705   6.381   3.906
13217TIP3    H139596   0.742   6.336   3.831
13217TIP3    H239597   0.781   6.417   3.952
13218TIP3   OH239598   6.082   6.918   5.260
13218TIP3    H139599   6.147   6.981   5.228
13218TIP3    H239600   6.123   6.878   5.337
13219TIP3   OH239601   4.667   1.001   2.449
13219TIP3    H139602   4.740   0.993   2.388
13219TIP3    H239603   4.705   0.985   2.535
13220TIP3   OH239604   0.517   3.950   3.357
13220TIP3    H139605   0.497   3.988   3.443
13220TIP3    H239606   0.433   3.916   3.326
13221TIP3   OH239607   2.920   5.680   1.510
13221TIP3    H139608   2.948   5.769   1.489
13221TIP3    H239609   2.999   5.638   1.545
13222TIP3   OH239610   7.132   2.373   4.275
13222TIP3    H139611   7.055   2.428   4.261
13222TIP3    H239612   7.097   2.289   4.305
13223TIP3   OH239613   7.678   6.095   2.231
13223TIP3    H139614   7.621   6.171   2.249
13223TIP3    H239615   7.621   6.019   2.245
13224TIP3   OH239616   6.512   0.803   3.800
13224TIP3    H139617   6.460   0.846   3.732
13224TIP3    H239618   6.526   0.871   3.866
13225TIP3   OH239619   5.178   0.637   6.554
13225TIP3    H139620   5.269   0.638   6.582
13225TIP3    H239621   5.142   0.557   6.593
13226TIP3   OH239622   3.862   5.732   4.875
13226TIP3    H139623   3.884   5.701   4.963
13226TIP3    H239624   3.941   5.720   4.824
13227TIP3   OH239625   4.602   1.932   5.931
13227TIP3    H139626   4.600   1.904   5.840
13227TIP3    H239627   4.513   1.961   5.950
13228TIP3   OH239628   3.355   0.232   0.447
13228TIP3    H139629   3.275   0.284   0.444
13228TIP3    H239630   3.351   0.186   0.530
13229TIP3   OH239631   2.627   6.676   0.757
13229TIP3    H139632   2.678   6.604   0.794
13229TIP3    H239633   2.548   6.681   0.811
13230TIP3   OH239634   2.757   6.839   1.852
13230TIP3    H139635   2.691   6.898   1.888
13230TIP3    H239636   2.740   6.838   1.758
13231TIP3   OH239637   0.292   1.586   0.027
13231TIP3    H139638   0.294   1.563   0.120
13231TIP3    H239639   0.312   1.504  -0.018
13232TIP3   OH239640   6.260   4.907   0.370
13232TIP3    H139641   6.260   4.993   0.412
13232TIP3    H239642   6.302   4.922   0.285
13233TIP3   OH239643   5.382   7.341   4.273
13233TIP3    H139644   5.418   7.430   4.274
13233TIP3    H239645   5.343   7.330   4.360
13234TIP3   OH239646   2.391   6.659   3.617
13234TIP3    H139647   2.383   6.753   3.636
13234TIP3    H239648   2.486   6.644   3.610
13235TIP3   OH239649   5.514   4.768   6.381
13235TIP3    H139650   5.502   4.801   6.470
13235TIP3    H239651   5.458   4.824   6.327
13236TIP3   OH239652   4.584   2.701   6.267
13236TIP3    H139653   4.514   2.723   6.206
13236TIP3    H239654   4.582   2.605   6.273
13237TIP3   OH239655   6.348   6.257   1.484
13237TIP3    H139656   6.336   6.331   1.424
13237TIP3    H239657   6.354   6.297   1.570
13238TIP3   OH239658   1.943   3.364   0.050
13238TIP3    H139659   1.955   3.273   0.024
13238TIP3    H239660   1.942   3.363   0.146
13239TIP3   OH239661   2.065   4.587   4.448
13239TIP3    H139662   1.975   4.616   4.457
13239TIP3    H239663   2.107   4.614   4.530
13240TIP3   OH239664   6.822   2.347   4.600
13240TIP3    H139665   6.912   2.374   4.620
13240TIP3    H239666   6.826   2.251   4.599
13241TIP3   OH239667   4.052   3.123   5.136
13241TIP3    H139668   4.002   3.072   5.073
13241TIP3    H239669   4.081   3.200   5.088
13242TIP3   OH239670   7.424   7.739   6.003
13242TIP3    H139671   7.450   7.689   5.926
13242TIP3    H239672   7.447   7.683   6.077
13243TIP3   OH239673   7.784   2.158   2.967
13243TIP3    H139674   7.731   2.234   2.943
13243TIP3    H239675   7.845   2.148   2.894
13244TIP3   OH239676   4.618   1.829   5.692
13244TIP3    H139677   4.609   1.734   5.683
13244TIP3    H239678   4.652   1.857   5.607
13245TIP3   OH239679   3.734   6.192   5.155
13245TIP3    H139680   3.811   6.144   5.124
13245TIP3    H239681   3.708   6.246   5.080
13246TIP3   OH239682   4.715   3.011   2.563
13246TIP3    H139683   4.730   2.945   2.631
13246TIP3    H239684   4.802   3.031   2.529
13247TIP3   OH239685   7.159   6.315   1.465
13247TIP3    H139686   7.206   6.396   1.450
13247TIP3    H239687   7.067   6.342   1.476
13248TIP3   OH239688   1.408   7.326   0.197
13248TIP3    H139689   1.376   7.370   0.118
13248TIP3    H239690   1.405   7.394   0.264
13249TIP3   OH239691   5.083   7.742   1.291
13249TIP3    H139692   5.045   7.802   1.227
13249TIP3    H239693   5.170   7.723   1.258
13250TIP3   OH239694   6.474   5.874   5.646
13250TIP3    H139695   6.407   5.942   5.650
13250TIP3    H239696   6.437   5.802   5.698
13251TIP3   OH239697   7.775   0.700   5.424
13251TIP3    H139698   7.854   0.728   5.470
13251TIP3    H239699   7.757   0.613   5.458
13252TIP3   OH239700   6.916   1.635   5.477
13252TIP3    H139701   6.940   1.652   5.386
13252TIP3    H239702   6.858   1.559   5.473
13253TIP3   OH239703   2.998   0.334   3.206
13253TIP3    H139704   3.080   0.382   3.210
13253TIP3    H239705   3.022   0.248   3.170
13254TIP3   OH239706   1.732   1.496   1.582
13254TIP3    H139707   1.703   1.433   1.516
13254TIP3    H239708   1.657   1.553   1.596
13255TIP3   OH239709   2.128   4.393   0.396
13255TIP3    H139710   2.073   4.325   0.434
13255TIP3    H239711   2.157   4.445   0.471
13256TIP3   OH239712   6.877   4.159   0.538
13256TIP3    H139713   6.824   4.105   0.596
13256TIP3    H239714   6.875   4.114   0.454
13257TIP3   OH239715   2.590   6.898   5.034
13257TIP3    H139716   2.615   6.917   5.124
13257TIP3    H239717   2.552   6.810   5.038
13258TIP3   OH239718   3.640   6.512   0.794
13258TIP3    H139719   3.687   6.595   0.790
13258TIP3    H239720   3.673   6.468   0.872
13259TIP3   OH239721   7.204   7.540   6.715
13259TIP3    H139722   7.218   7.462   6.769
13259TIP3    H239723   7.259   7.526   6.638
13260TIP3   OH239724   7.963   6.957   2.972
13260TIP3    H139725   7.992   7.025   2.910
13260TIP3    H239726   8.034   6.951   3.036
13261TIP3   OH239727   0.614   5.278   4.181
13261TIP3    H139728   0.704   5.254   4.160
13261TIP3    H239729   0.596   5.236   4.265
13262TIP3   OH239730   1.773   4.529   4.064
13262TIP3    H139731   1.758   4.439   4.033
13262TIP3    H239732   1.852   4.523   4.118
13263TIP3   OH239733   7.435   6.016   2.860
13263TIP3    H139734   7.434   6.067   2.941
13263TIP3    H239735   7.522   6.030   2.823
13264TIP3   OH239736   2.173   7.165   0.306
13264TIP3    H139737   2.206   7.085   0.264
13264TIP3    H239738   2.081   7.169   0.282
13265TIP3   OH239739   5.441   0.879   5.843
13265TIP3    H139740   5.479   0.909   5.925
13265TIP3    H239741   5.349   0.863   5.864
13266TIP3   OH239742   4.217   0.666   6.493
13266TIP3    H139743   4.244   0.654   6.584
13266TIP3    H239744   4.129   0.630   6.489
13267TIP3   OH239745   6.713   4.520   5.981
13267TIP3    H139746   6.622   4.550   5.991
13267TIP3    H239747   6.706   4.426   5.967
13268TIP3   OH239748   1.020   5.837   2.335
13268TIP3    H139749   1.059   5.915   2.375
13268TIP3    H239750   0.945   5.871   2.285
13269TIP3   OH239751   6.885   4.714   5.873
13269TIP3    H139752   6.827   4.652   5.919
13269TIP3    H239753   6.966   4.713   5.925
13270TIP3   OH239754   5.800   0.744   5.311
13270TIP3    H139755   5.807   0.716   5.402
13270TIP3    H239756   5.756   0.671   5.267
13271TIP3   OH239757   3.080   6.756   6.783
13271TIP3    H139758   2.997   6.803   6.782
13271TIP3    H239759   3.143   6.821   6.814
13272TIP3   OH239760   3.989   4.821   1.432
13272TIP3    H139761   4.070   4.820   1.380
13272TIP3    H239762   3.928   4.767   1.382
13273TIP3   OH239763   6.507   7.304   1.857
13273TIP3    H139764   6.523   7.337   1.768
13273TIP3    H239765   6.433   7.354   1.889
13274TIP3   OH239766   2.423   3.958   5.838
13274TIP3    H139767   2.425   3.956   5.742
13274TIP3    H239768   2.381   3.876   5.863
13275TIP3   OH239769   8.006   4.336   5.453
13275TIP3    H139770   8.077   4.343   5.517
13275TIP3    H239771   7.929   4.311   5.504
13276TIP3   OH239772   5.604   5.972   2.305
13276TIP3    H139773   5.521   5.985   2.351
13276TIP3    H239774   5.592   6.017   2.221
13277TIP3   OH239775   6.493   2.366   2.700
13277TIP3    H139776   6.414   2.319   2.673
13277TIP3    H239777   6.564   2.305   2.681
13278TIP3   OH239778   2.431   3.697   6.135
13278TIP3    H139779   2.342   3.712   6.168
13278TIP3    H239780   2.421   3.692   6.040
13279TIP3   OH239781   7.130   5.889   1.775
13279TIP3    H139782   7.077   5.809   1.770
13279TIP3    H239783   7.068   5.960   1.760
13280TIP3   OH239784   7.453   4.743   0.148
13280TIP3    H139785   7.367   4.722   0.183
13280TIP3    H239786   7.479   4.665   0.099
13281TIP3   OH239787   4.835   6.582   1.492
13281TIP3    H139788   4.887   6.640   1.548
13281TIP3    H239789   4.861   6.494   1.517
13282TIP3   OH239790   4.254   4.141   3.642
13282TIP3    H139791   4.301   4.201   3.584
13282TIP3    H239792   4.166   4.135   3.605
13283TIP3   OH239793   1.280   0.243   4.713
13283TIP3    H139794   1.320   0.223   4.798
13283TIP3    H239795   1.250   0.334   4.721
13284TIP3   OH239796   6.975   5.973   1.556
13284TIP3    H139797   6.892   5.987   1.511
13284TIP3    H239798   7.007   6.061   1.575
13285TIP3   OH239799   2.570   4.073   1.010
13285TIP3    H139800   2.567   4.168   1.002
13285TIP3    H239801   2.513   4.053   1.084
13286TIP3   OH239802   8.095   5.583   1.775
13286TIP3    H139803   8.037   5.507   1.766
13286TIP3    H239804   8.051   5.639   1.840
13287TIP3   OH239805   6.948   6.122   6.357
13287TIP3    H139806   6.948   6.108   6.263
13287TIP3    H239807   6.931   6.215   6.368
13288TIP3   OH239808   4.088   3.914   0.470
13288TIP3    H139809   4.005   3.961   0.460
13288TIP3    H239810   4.110   3.884   0.382
13289TIP3   OH239811   0.572   5.349   0.858
13289TIP3    H139812   0.547   5.437   0.886
13289TIP3    H239813   0.490   5.308   0.830
13290TIP3   OH239814   1.885   5.059   3.544
13290TIP3    H139815   1.834   4.992   3.589
13290TIP3    H239816   1.976   5.030   3.553
13291TIP3   OH239817   6.043   0.613   6.770
13291TIP3    H139818   6.119   0.554   6.773
13291TIP3    H239819   6.079   0.700   6.787
13292TIP3   OH239820   3.021   4.325   4.601
13292TIP3    H139821   3.076   4.292   4.672
13292TIP3    H239822   2.956   4.380   4.644
13293TIP3   OH239823   7.500   7.766   3.492
13293TIP3    H139824   7.548   7.811   3.562
13293TIP3    H239825   7.455   7.694   3.535
13294TIP3   OH239826   7.463   7.273   0.339
13294TIP3    H139827   7.424   7.274   0.251
13294TIP3    H239828   7.416   7.204   0.385
13295TIP3   OH239829   4.378   7.514   1.646
13295TIP3    H139830   4.423   7.499   1.729
13295TIP3    H239831   4.331   7.597   1.658
13296TIP3   OH239832   3.193   7.707   2.857
13296TIP3    H139833   3.232   7.787   2.893
13296TIP3    H239834   3.099   7.720   2.866
13297TIP3   OH239835   8.089   4.647   4.065
13297TIP3    H139836   8.181   4.656   4.041
13297TIP3    H239837   8.062   4.736   4.088
13298TIP3   OH239838   4.924   5.614   3.923
13298TIP3    H139839   4.934   5.631   3.829
13298TIP3    H239840   5.007   5.572   3.947
13299TIP3   OH239841   7.541   2.688   2.220
13299TIP3    H139842   7.592   2.769   2.223
13299TIP3    H239843   7.469   2.703   2.282
13300TIP3   OH239844   6.490   7.120   0.569
13300TIP3    H139845   6.529   7.182   0.631
13300TIP3    H239846   6.551   7.119   0.495
13301TIP3   OH239847   4.013   0.155   4.386
13301TIP3    H139848   4.009   0.126   4.295
13301TIP3    H239849   3.980   0.081   4.436
13302TIP3   OH239850   4.246   6.175   2.418
13302TIP3    H139851   4.329   6.145   2.380
13302TIP3    H239852   4.271   6.218   2.499
13303TIP3   OH239853   2.435   6.459   0.928
13303TIP3    H139854   2.464   6.465   0.836
13303TIP3    H239855   2.516   6.444   0.977
13304TIP3   OH239856   1.093   4.722   0.449
13304TIP3    H139857   1.135   4.724   0.535
13304TIP3    H239858   1.160   4.688   0.390
13305TIP3   OH239859   3.577   0.993   2.753
13305TIP3    H139860   3.548   1.049   2.825
13305TIP3    H239861   3.672   0.994   2.758
13306TIP3   OH239862   6.077   4.906   0.725
13306TIP3    H139863   6.145   4.969   0.749
13306TIP3    H239864   5.995   4.953   0.741
13307TIP3   OH239865   2.636   5.182   1.352
13307TIP3    H139866   2.698   5.125   1.399
13307TIP3    H239867   2.678   5.198   1.268
13308TIP3   OH239868   5.507   6.515   6.006
13308TIP3    H139869   5.576   6.449   6.009
13308TIP3    H239870   5.460   6.504   6.089
13309TIP3   OH239871   6.663   5.305   6.585
13309TIP3    H139872   6.688   5.310   6.677
13309TIP3    H239873   6.576   5.346   6.581
13310TIP3   OH239874   3.472   2.055   3.173
13310TIP3    H139875   3.445   1.987   3.111
13310TIP3    H239876   3.393   2.107   3.189
13311TIP3   OH239877   2.282   0.934   4.606
13311TIP3    H139878   2.258   1.014   4.560
13311TIP3    H239879   2.359   0.959   4.658
13312TIP3   OH239880   7.754   0.300   3.563
13312TIP3    H139881   7.660   0.312   3.572
13312TIP3    H239882   7.764   0.209   3.535
13313TIP3   OH239883   2.988   5.317   5.221
13313TIP3    H139884   2.931   5.317   5.144
13313TIP3    H239885   3.071   5.281   5.190
13314TIP3   OH239886   4.362   0.914   3.197
13314TIP3    H139887   4.342   0.949   3.284
13314TIP3    H239888   4.353   0.989   3.139
13315TIP3   OH239889   2.999   1.574   6.355
13315TIP3    H139890   2.943   1.635   6.307
13315TIP3    H239891   3.034   1.625   6.428
13316TIP3   OH239892   6.321   6.991   2.150
13316TIP3    H139893   6.385   7.039   2.202
13316TIP3    H239894   6.360   6.986   2.063
13317TIP3   OH239895   3.346   3.853   3.261
13317TIP3    H139896   3.380   3.932   3.219
13317TIP3    H239897   3.260   3.840   3.222
13318TIP3   OH239898   4.073   3.666   6.557
13318TIP3    H139899   4.074   3.688   6.464
13318TIP3    H239900   4.050   3.748   6.601
13319TIP3   OH239901   3.800   1.189   4.997
13319TIP3    H139902   3.707   1.212   5.001
13319TIP3    H239903   3.817   1.171   4.905
13320TIP3   OH239904   3.723   1.258   1.492
13320TIP3    H139905   3.708   1.314   1.416
13320TIP3    H239906   3.814   1.275   1.517
13321TIP3   OH239907   6.247   7.367   0.287
13321TIP3    H139908   6.261   7.346   0.379
13321TIP3    H239909   6.177   7.432   0.288
13322TIP3   OH239910   6.921   0.169   3.397
13322TIP3    H139911   6.942   0.227   3.324
13322TIP3    H239912   6.849   0.115   3.365
13323TIP3   OH239913   1.580   2.231   1.114
13323TIP3    H139914   1.487   2.209   1.117
13323TIP3    H239915   1.616   2.173   1.048
13324TIP3   OH239916   3.235   4.215   0.416
13324TIP3    H139917   3.204   4.238   0.328
13324TIP3    H239918   3.242   4.119   0.415
13325TIP3   OH239919   5.995   5.094   2.953
13325TIP3    H139920   5.911   5.052   2.933
13325TIP3    H239921   5.995   5.103   3.048
13326TIP3   OH239922   6.073   0.095   3.359
13326TIP3    H139923   6.066   0.001   3.377
13326TIP3    H239924   6.164   0.117   3.380
13327TIP3   OH239925   1.205   1.496   0.554
13327TIP3    H139926   1.157   1.428   0.602
13327TIP3    H239927   1.274   1.448   0.508
13328TIP3   OH239928   2.647   1.955   1.037
13328TIP3    H139929   2.632   1.994   0.951
13328TIP3    H239930   2.644   2.029   1.098
13329TIP3   OH239931   2.044   0.170   5.205
13329TIP3    H139932   1.979   0.165   5.135
13329TIP3    H239933   2.128   0.159   5.161
13330TIP3   OH239934   4.740   4.719   1.939
13330TIP3    H139935   4.692   4.776   1.999
13330TIP3    H239936   4.712   4.748   1.852
13331TIP3   OH239937   4.242   0.230   3.773
13331TIP3    H139938   4.266   0.187   3.855
13331TIP3    H239939   4.227   0.158   3.712
13332TIP3   OH239940   4.154   4.166   5.997
13332TIP3    H139941   4.223   4.150   6.061
13332TIP3    H239942   4.200   4.188   5.916
13333TIP3   OH239943   8.202   7.308   3.826
13333TIP3    H139944   8.199   7.219   3.861
13333TIP3    H239945   8.186   7.364   3.902
13334TIP3   OH239946   3.684   7.469   6.391
13334TIP3    H139947   3.634   7.406   6.339
13334TIP3    H239948   3.629   7.548   6.391
13335TIP3   OH239949   1.181   2.255   3.938
13335TIP3    H139950   1.249   2.304   3.893
13335TIP3    H239951   1.189   2.282   4.030
13336TIP3   OH239952   0.227   2.705   2.960
13336TIP3    H139953   0.305   2.661   2.927
13336TIP3    H239954   0.255   2.795   2.976
13337TIP3   OH239955   0.489   0.622   5.907
13337TIP3    H139956   0.469   0.716   5.906
13337TIP3    H239957   0.432   0.587   5.975
13338TIP3   OH239958   4.049   1.203   2.494
13338TIP3    H139959   4.098   1.162   2.423
13338TIP3    H239960   4.055   1.142   2.567
13339TIP3   OH239961   4.260   3.623   0.609
13339TIP3    H139962   4.179   3.636   0.660
13339TIP3    H239963   4.257   3.690   0.541
13340TIP3   OH239964   3.632   1.290   5.873
13340TIP3    H139965   3.679   1.280   5.956
13340TIP3    H239966   3.680   1.358   5.827
13341TIP3   OH239967   3.344   6.552   2.951
13341TIP3    H139968   3.369   6.500   3.028
13341TIP3    H239969   3.253   6.529   2.935
13342TIP3   OH239970   7.516   7.402   0.575
13342TIP3    H139971   7.485   7.385   0.486
13342TIP3    H239972   7.461   7.474   0.607
13343TIP3   OH239973   5.615   0.206   0.250
13343TIP3    H139974   5.645   0.193   0.340
13343TIP3    H239975   5.664   0.142   0.199
13344TIP3   OH239976   7.775   6.090   0.070
13344TIP3    H139977   7.843   6.029   0.041
13344TIP3    H239978   7.816   6.176   0.065
13345TIP3   OH239979   8.085   2.334   4.881
13345TIP3    H139980   8.006   2.372   4.918
13345TIP3    H239981   8.062   2.312   4.791
13346TIP3   OH239982   4.215   6.042   6.224
13346TIP3    H139983   4.153   6.031   6.151
13346TIP3    H239984   4.298   6.063   6.181
13347TIP3   OH239985   8.111   3.273   3.281
13347TIP3    H139986   8.187   3.312   3.323
13347TIP3    H239987   8.037   3.327   3.310
13348TIP3   OH239988   3.847   5.698   3.402
13348TIP3    H139989   3.940   5.686   3.417
13348TIP3    H239990   3.842   5.756   3.326
13349TIP3   OH239991   1.130   4.859   1.161
13349TIP3    H139992   1.192   4.850   1.234
13349TIP3    H239993   1.178   4.829   1.084
13350TIP3   OH239994   2.203   5.944   0.242
13350TIP3    H139995   2.253   5.904   0.172
13350TIP3    H239996   2.154   5.871   0.281
13351TIP3   OH239997   4.972   6.457   0.861
13351TIP3    H139998   5.044   6.418   0.910
13351TIP3    H239999   4.895   6.443   0.916
13352TIP3   OH240000   2.817   6.043   1.423
13352TIP3    H140001   2.735   6.016   1.380
13352TIP3    H240002   2.797   6.127   1.463
13353TIP3   OH240003   4.174   7.801   4.553
13353TIP3    H140004   4.085   7.782   4.525
13353TIP3    H240005   4.197   7.881   4.507
13354TIP3   OH240006   7.684   6.344   5.456
13354TIP3    H140007   7.628   6.311   5.525
13354TIP3    H240008   7.643   6.313   5.375
13355TIP3   OH240009   0.081   6.642   2.389
13355TIP3    H140010  -0.003   6.626   2.347
13355TIP3    H240011   0.134   6.685   2.323
13356TIP3   OH240012   6.230   2.866   3.386
13356TIP3    H140013   6.259   2.886   3.475
13356TIP3    H240014   6.135   2.858   3.392
13357TIP3   OH240015   1.451   1.013   3.100
13357TIP3    H140016   1.426   0.942   3.159
13357TIP3    H240017   1.533   1.047   3.138
13358TIP3   OH240018   5.838   3.644   4.736
13358TIP3    H140019   5.770   3.631   4.803
13358TIP3    H240020   5.918   3.660   4.786
13359TIP3   OH240021   2.299   2.093   4.835
13359TIP3    H140022   2.326   2.151   4.763
13359TIP3    H240023   2.378   2.043   4.856
13360TIP3   OH240024   2.272   3.629   5.336
13360TIP3    H140025   2.211   3.555   5.331
13360TIP3    H240026   2.243   3.689   5.267
13361TIP3   OH240027   3.514   1.799   3.972
13361TIP3    H140028   3.437   1.850   3.997
13361TIP3    H240029   3.497   1.712   4.008
13362TIP3   OH240030   6.249   3.360   1.622
13362TIP3    H140031   6.289   3.275   1.603
13362TIP3    H240032   6.166   3.359   1.574
13363TIP3   OH240033   7.103   2.940   0.769
13363TIP3    H140034   7.161   2.874   0.730
13363TIP3    H240035   7.057   2.893   0.839
13364TIP3   OH240036   5.621   0.065   1.147
13364TIP3    H140037   5.526   0.066   1.142
13364TIP3    H240038   5.649   0.036   1.060
13365TIP3   OH240039   0.215   3.614   3.072
13365TIP3    H140040   0.292   3.584   3.023
13365TIP3    H240041   0.164   3.663   3.008
13366TIP3   OH240042   2.174   0.094   2.067
13366TIP3    H140043   2.197   0.181   2.036
13366TIP3    H240044   2.243   0.071   2.129
13367TIP3   OH240045   1.617   0.841   2.821
13367TIP3    H140046   1.712   0.849   2.816
13367TIP3    H240047   1.587   0.930   2.842
13368TIP3   OH240048   1.303   2.585   5.031
13368TIP3    H140049   1.337   2.616   5.115
13368TIP3    H240050   1.211   2.567   5.048
13369TIP3   OH240051   1.523   4.209   4.494
13369TIP3    H140052   1.601   4.176   4.450
13369TIP3    H240053   1.551   4.225   4.584
13370TIP3   OH240054   1.956   2.477   0.342
13370TIP3    H140055   2.031   2.444   0.291
13370TIP3    H240056   1.891   2.407   0.336
13371TIP3   OH240057   7.481   4.004   0.487
13371TIP3    H140058   7.562   4.031   0.530
13371TIP3    H240059   7.496   4.022   0.394
13372TIP3   OH240060   4.856   3.091   3.914
13372TIP3    H140061   4.943   3.078   3.951
13372TIP3    H240062   4.860   3.049   3.828
13373TIP3   OH240063   8.187   0.252   6.085
13373TIP3    H140064   8.167   0.214   6.000
13373TIP3    H240065   8.268   0.302   6.071
13374TIP3   OH240066   2.248   0.277   4.657
13374TIP3    H140067   2.161   0.236   4.663
13374TIP3    H240068   2.230   0.368   4.633
13375TIP3   OH240069   1.726   1.939   0.244
13375TIP3    H140070   1.694   1.944   0.153
13375TIP3    H240071   1.788   2.011   0.251
13376TIP3   OH240072   3.446   1.452   1.413
13376TIP3    H140073   3.365   1.432   1.367
13376TIP3    H240074   3.477   1.533   1.374
13377TIP3   OH240075   1.608   2.984   1.803
13377TIP3    H140076   1.586   2.891   1.791
13377TIP3    H240077   1.607   2.997   1.897
13378TIP3   OH240078   4.023   4.810   4.956
13378TIP3    H140079   4.092   4.743   4.955
13378TIP3    H240080   3.945   4.763   4.926
13379TIP3   OH240081   1.860   5.714   4.819
13379TIP3    H140082   1.877   5.686   4.909
13379TIP3    H240083   1.800   5.648   4.784
13380TIP3   OH240084   3.705   3.136   4.025
13380TIP3    H140085   3.651   3.175   3.957
13380TIP3    H240086   3.795   3.157   4.000
13381TIP3   OH240087  -0.015   1.975   1.210
13381TIP3    H140088   0.061   1.929   1.173
13381TIP3    H240089  -0.024   2.054   1.157
13382TIP3   OH240090   2.703   4.639   1.049
13382TIP3    H140091   2.701   4.573   1.118
13382TIP3    H240092   2.795   4.664   1.041
13383TIP3   OH240093   3.101   4.055   5.439
13383TIP3    H140094   3.178   4.107   5.463
13383TIP3    H240095   3.089   3.995   5.512
13384TIP3   OH240096   3.703   5.802   5.214
13384TIP3    H140097   3.731   5.877   5.163
13384TIP3    H240098   3.783   5.767   5.251
13385TIP3   OH240099   1.306   3.760   1.652
13385TIP3    H140100   1.239   3.829   1.653
13385TIP3    H240101   1.299   3.720   1.565
13386TIP3   OH240102   5.650   5.672   2.922
13386TIP3    H140103   5.630   5.666   2.829
13386TIP3    H240104   5.566   5.691   2.964
13387TIP3   OH240105   0.716   0.104   5.967
13387TIP3    H140106   0.709   0.176   5.905
13387TIP3    H240107   0.640   0.114   6.024
13388TIP3   OH240108   1.384   0.861   5.466
13388TIP3    H140109   1.475   0.878   5.492
13388TIP3    H240110   1.333   0.879   5.544
13389TIP3   OH240111   8.234   1.421   5.476
13389TIP3    H140112   8.308   1.466   5.516
13389TIP3    H240113   8.265   1.394   5.390
13390TIP3   OH240114   1.491   2.387   4.017
13390TIP3    H140115   1.427   2.356   4.081
13390TIP3    H240116   1.441   2.441   3.956
13391TIP3   OH240117   1.224   7.647   1.897
13391TIP3    H140118   1.133   7.618   1.905
13391TIP3    H240119   1.246   7.682   1.983
13392TIP3   OH240120   4.503   4.753   4.853
13392TIP3    H140121   4.434   4.803   4.808
13392TIP3    H240122   4.580   4.765   4.798
13393TIP3   OH240123   5.658   2.883   0.069
13393TIP3    H140124   5.662   2.806   0.125
13393TIP3    H240125   5.599   2.943   0.114
13394TIP3   OH240126   4.762   1.010   5.234
13394TIP3    H140127   4.757   0.986   5.326
13394TIP3    H240128   4.773   1.105   5.234
13395TIP3   OH240129   1.482   0.501   1.011
13395TIP3    H140130   1.536   0.489   1.089
13395TIP3    H240131   1.433   0.582   1.028
13396TIP3   OH240132   7.651   4.226   0.587
13396TIP3    H140133   7.689   4.314   0.591
13396TIP3    H240134   7.670   4.196   0.498
13397TIP3   OH240135   5.540   0.075   1.998
13397TIP3    H140136   5.533   0.082   1.902
13397TIP3    H240137   5.630   0.047   2.013
13398TIP3   OH240138   0.758   6.779   1.426
13398TIP3    H140139   0.713   6.707   1.469
13398TIP3    H240140   0.712   6.857   1.456
13399TIP3   OH240141   6.738   0.171   3.101
13399TIP3    H140142   6.643   0.180   3.103
13399TIP3    H240143   6.763   0.205   3.015
13400TIP3   OH240144   6.302   4.376   3.183
13400TIP3    H140145   6.391   4.404   3.203
13400TIP3    H240146   6.288   4.402   3.092
13401TIP3   OH240147   7.617   2.476   2.643
13401TIP3    H140148   7.613   2.485   2.738
13401TIP3    H240149   7.533   2.438   2.619
13402TIP3   OH240150   0.465   5.660   1.471
13402TIP3    H140151   0.456   5.707   1.554
13402TIP3    H240152   0.539   5.601   1.485
13403TIP3   OH240153   8.092   1.260   2.760
13403TIP3    H140154   8.146   1.182   2.774
13403TIP3    H240155   8.052   1.246   2.674
13404TIP3   OH240156   3.695   5.823   4.395
13404TIP3    H140157   3.617   5.779   4.361
13404TIP3    H240158   3.713   5.892   4.332
13405TIP3   OH240159   7.332   7.011   6.722
13405TIP3    H140160   7.257   7.035   6.776
13405TIP3    H240161   7.312   6.923   6.690
13406TIP3   OH240162   4.253   6.129   1.738
13406TIP3    H140163   4.219   6.219   1.736
13406TIP3    H240164   4.341   6.136   1.702
13407TIP3   OH240165   6.148   1.584   1.268
13407TIP3    H140166   6.080   1.646   1.243
13407TIP3    H240167   6.162   1.531   1.189
13408TIP3   OH240168   3.213   6.203   2.137
13408TIP3    H140169   3.281   6.222   2.200
13408TIP3    H240170   3.133   6.241   2.174
13409TIP3   OH240171   2.537   4.804   2.508
13409TIP3    H140172   2.567   4.767   2.425
13409TIP3    H240173   2.616   4.842   2.547
13410TIP3   OH240174   7.860   1.004   6.094
13410TIP3    H140175   7.873   0.934   6.158
13410TIP3    H240176   7.906   1.079   6.131
13411TIP3   OH240177   5.898   1.066   0.837
13411TIP3    H140178   5.944   0.992   0.798
13411TIP3    H240179   5.940   1.079   0.922
13412TIP3   OH240180   4.685   5.281   2.275
13412TIP3    H140181   4.687   5.192   2.310
13412TIP3    H240182   4.775   5.299   2.248
13413TIP3   OH240183   4.088   3.313   1.576
13413TIP3    H140184   4.137   3.322   1.494
13413TIP3    H240185   4.004   3.356   1.560
13414TIP3   OH240186   2.398   5.264   2.046
13414TIP3    H140187   2.470   5.326   2.052
13414TIP3    H240188   2.356   5.268   2.132
13415TIP3   OH240189   4.603   2.054   2.867
13415TIP3    H140190   4.688   2.072   2.908
13415TIP3    H240191   4.623   1.991   2.798
13416TIP3   OH240192   6.694   1.084   3.484
13416TIP3    H140193   6.616   1.121   3.443
13416TIP3    H240194   6.715   1.007   3.432
13417TIP3   OH240195   7.045   3.618   4.256
13417TIP3    H140196   7.113   3.671   4.213
13417TIP3    H240197   6.964   3.644   4.213
13418TIP3   OH240198   4.223   1.078   2.977
13418TIP3    H140199   4.182   1.153   2.933
13418TIP3    H240200   4.289   1.047   2.916
13419TIP3   OH240201   6.348   6.107   6.033
13419TIP3    H140202   6.268   6.150   6.004
13419TIP3    H240203   6.342   6.105   6.128
13420TIP3   OH240204   1.973   7.093   2.519
13420TIP3    H140205   1.893   7.096   2.571
13420TIP3    H240206   1.980   7.180   2.480
13421TIP3   OH240207   6.203   1.083   2.462
13421TIP3    H140208   6.291   1.048   2.475
13421TIP3    H240209   6.207   1.127   2.377
13422TIP3   OH240210   4.016   7.638   0.821
13422TIP3    H140211   3.975   7.629   0.735
13422TIP3    H240212   3.943   7.648   0.882
13423TIP3   OH240213   7.025   7.130   5.880
13423TIP3    H140214   6.947   7.076   5.866
13423TIP3    H240215   7.046   7.164   5.794
13424TIP3   OH240216   6.294   2.374   4.537
13424TIP3    H140217   6.201   2.394   4.533
13424TIP3    H240218   6.309   2.350   4.629
13425TIP3   OH240219   2.644   2.747   2.194
13425TIP3    H140220   2.692   2.669   2.224
13425TIP3    H240221   2.701   2.820   2.216
13426TIP3   OH240222   0.262   3.690   5.958
13426TIP3    H140223   0.307   3.771   5.935
13426TIP3    H240224   0.331   3.633   5.991
13427TIP3   OH240225   0.677   2.175   4.712
13427TIP3    H140226   0.592   2.182   4.668
13427TIP3    H240227   0.660   2.121   4.789
13428TIP3   OH240228   2.103   4.156   6.734
13428TIP3    H140229   2.160   4.115   6.669
13428TIP3    H240230   2.024   4.101   6.735
13429TIP3   OH240231   2.002   4.517   2.933
13429TIP3    H140232   1.977   4.484   3.019
13429TIP3    H240233   1.927   4.496   2.876
13430TIP3   OH240234   6.696   2.562   5.749
13430TIP3    H140235   6.645   2.519   5.681
13430TIP3    H240236   6.664   2.525   5.831
13431TIP3   OH240237   0.468   6.966   1.277
13431TIP3    H140238   0.524   6.981   1.353
13431TIP3    H240239   0.391   7.021   1.293
13432TIP3   OH240240   3.474   6.069   5.142
13432TIP3    H140241   3.563   6.100   5.158
13432TIP3    H240242   3.473   6.046   5.049
13433TIP3   OH240243   1.212   6.091   0.931
13433TIP3    H140244   1.234   6.020   0.991
13433TIP3    H240245   1.244   6.062   0.846
13434TIP3   OH240246   6.367   2.576   2.821
13434TIP3    H140247   6.278   2.541   2.830
13434TIP3    H240248   6.423   2.498   2.818
13435TIP3   OH240249   7.153   7.659   5.244
13435TIP3    H140250   7.133   7.570   5.217
13435TIP3    H240251   7.164   7.707   5.162
13436TIP3   OH240252   7.547   1.452   1.480
13436TIP3    H140253   7.532   1.371   1.433
13436TIP3    H240254   7.559   1.518   1.412
13437TIP3   OH240255   1.582   1.820   4.085
13437TIP3    H140256   1.573   1.859   4.172
13437TIP3    H240257   1.652   1.871   4.044
13438TIP3   OH240258   3.737   0.392   0.251
13438TIP3    H140259   3.711   0.388   0.343
13438TIP3    H240260   3.758   0.301   0.229
13439TIP3   OH240261   0.387   7.813   3.897
13439TIP3    H140262   0.380   7.721   3.872
13439TIP3    H240263   0.297   7.842   3.909
13440TIP3   OH240264   7.146   6.919   5.689
13440TIP3    H140265   7.067   6.877   5.723
13440TIP3    H240266   7.118   7.009   5.668
13441TIP3   OH240267   3.891   6.950   5.632
13441TIP3    H140268   3.803   6.929   5.663
13441TIP3    H240269   3.949   6.905   5.693
13442TIP3   OH240270   6.671   4.865   2.558
13442TIP3    H140271   6.631   4.946   2.527
13442TIP3    H240272   6.597   4.810   2.582
13443TIP3   OH240273   8.146   3.751   0.509
13443TIP3    H140274   8.131   3.744   0.415
13443TIP3    H240275   8.241   3.748   0.519
13444TIP3   OH240276   7.409   1.420   4.149
13444TIP3    H140277   7.404   1.471   4.229
13444TIP3    H240278   7.490   1.370   4.157
13445TIP3   OH240279   2.026   4.845   0.029
13445TIP3    H140280   1.997   4.755   0.045
13445TIP3    H240281   2.038   4.882   0.116
13446TIP3   OH240282   8.039   4.925   5.493
13446TIP3    H140283   8.132   4.911   5.476
13446TIP3    H240284   7.999   4.840   5.476
13447TIP3   OH240285   4.168   1.891   0.295
13447TIP3    H140286   4.083   1.859   0.326
13447TIP3    H240287   4.228   1.818   0.310
13448TIP3   OH240288   5.420   0.085   1.434
13448TIP3    H140289   5.325   0.072   1.436
13448TIP3    H240290   5.437   0.123   1.348
13449TIP3   OH240291   0.360   0.104   1.838
13449TIP3    H140292   0.418   0.031   1.855
13449TIP3    H240293   0.408   0.181   1.868
13450TIP3   OH240294   7.829   4.172   6.712
13450TIP3    H140295   7.918   4.139   6.710
13450TIP3    H240296   7.823   4.230   6.636
13451TIP3   OH240297   5.605   7.756   2.517
13451TIP3    H140298   5.605   7.845   2.480
13451TIP3    H240299   5.525   7.751   2.568
13452TIP3   OH240300   1.041   5.860   3.614
13452TIP3    H140301   1.055   5.943   3.660
13452TIP3    H240302   1.121   5.845   3.565
13453TIP3   OH240303   4.793   7.754   0.636
13453TIP3    H140304   4.722   7.751   0.572
13453TIP3    H240305   4.865   7.706   0.593
13454TIP3   OH240306   7.978   1.237   3.240
13454TIP3    H140307   8.040   1.233   3.167
13454TIP3    H240308   7.942   1.326   3.236
13455TIP3   OH240309   2.637   2.611   6.396
13455TIP3    H140310   2.605   2.605   6.486
13455TIP3    H240311   2.733   2.613   6.405
13456TIP3   OH240312   2.515   1.276   0.797
13456TIP3    H140313   2.477   1.335   0.731
13456TIP3    H240314   2.440   1.243   0.846
13457TIP3   OH240315   0.295   5.814   4.949
13457TIP3    H140316   0.242   5.739   4.922
13457TIP3    H240317   0.384   5.780   4.954
13458TIP3   OH240318   1.919   1.709   5.397
13458TIP3    H140319   1.938   1.765   5.322
13458TIP3    H240320   1.903   1.769   5.469
13459TIP3   OH240321   0.541   2.336   0.609
13459TIP3    H140322   0.457   2.296   0.586
13459TIP3    H240323   0.571   2.376   0.528
13460TIP3   OH240324   5.381   1.507   4.716
13460TIP3    H140325   5.382   1.602   4.723
13460TIP3    H240326   5.302   1.487   4.665
13461TIP3   OH240327   3.776   2.399   4.624
13461TIP3    H140328   3.772   2.307   4.647
13461TIP3    H240329   3.730   2.405   4.540
13462TIP3   OH240330   6.721   2.255   2.192
13462TIP3    H140331   6.713   2.166   2.160
13462TIP3    H240332   6.814   2.275   2.184
13463TIP3   OH240333   3.670   1.159   5.582
13463TIP3    H140334   3.646   1.203   5.663
13463TIP3    H240335   3.649   1.224   5.514
13464TIP3   OH240336   6.264   6.289   3.290
13464TIP3    H140337   6.282   6.222   3.356
13464TIP3    H240338   6.169   6.288   3.281
13465TIP3   OH240339   4.294   2.940   2.695
13465TIP3    H140340   4.235   2.951   2.621
13465TIP3    H240341   4.251   2.985   2.768
13466TIP3   OH240342   5.669   1.629   1.732
13466TIP3    H140343   5.636   1.595   1.648
13466TIP3    H240344   5.764   1.632   1.720
13467TIP3   OH240345   1.761   3.374   1.746
13467TIP3    H140346   1.784   3.341   1.832
13467TIP3    H240347   1.794   3.308   1.685
13468TIP3   OH240348   2.246   1.202   5.293
13468TIP3    H140349   2.176   1.266   5.280
13468TIP3    H240350   2.287   1.228   5.376
13469TIP3   OH240351   7.950   4.363   2.332
13469TIP3    H140352   7.997   4.284   2.359
13469TIP3    H240353   7.983   4.431   2.391
13470TIP3   OH240354   6.904   0.884   5.852
13470TIP3    H140355   6.991   0.882   5.811
13470TIP3    H240356   6.890   0.795   5.884
13471TIP3   OH240357   8.120   2.740   0.450
13471TIP3    H140358   8.134   2.649   0.475
13471TIP3    H240359   8.201   2.785   0.473
13472TIP3   OH240360   3.718   3.288   3.097
13472TIP3    H140361   3.738   3.265   3.007
13472TIP3    H240362   3.801   3.316   3.134
13473TIP3   OH240363   7.260   6.281   3.952
13473TIP3    H140364   7.228   6.359   3.907
13473TIP3    H240365   7.253   6.301   4.045
13474TIP3   OH240366   3.198   1.840   5.474
13474TIP3    H140367   3.184   1.765   5.532
13474TIP3    H240368   3.270   1.813   5.417
13475TIP3   OH240369   5.753   2.215   6.683
13475TIP3    H140370   5.659   2.210   6.702
13475TIP3    H240371   5.759   2.279   6.613
13476TIP3   OH240372   1.370   0.260   4.967
13476TIP3    H140373   1.322   0.314   5.030
13476TIP3    H240374   1.444   0.314   4.941
13477TIP3   OH240375   0.301   6.375   4.041
13477TIP3    H140376   0.273   6.466   4.050
13477TIP3    H240377   0.247   6.327   4.104
13478TIP3   OH240378   3.227   0.282   4.757
13478TIP3    H140379   3.188   0.369   4.750
13478TIP3    H240380   3.227   0.264   4.851
13479TIP3   OH240381   3.888   4.863   4.449
13479TIP3    H140382   3.940   4.886   4.372
13479TIP3    H240383   3.909   4.771   4.464
13480TIP3   OH240384   0.343   4.887   3.473
13480TIP3    H140385   0.372   4.961   3.419
13480TIP3    H240386   0.277   4.842   3.421
13481TIP3   OH240387   5.831   3.685   2.082
13481TIP3    H140388   5.905   3.694   2.141
13481TIP3    H240389   5.857   3.617   2.020
13482TIP3   OH240390   7.374   6.322   6.370
13482TIP3    H140391   7.438   6.387   6.342
13482TIP3    H240392   7.304   6.327   6.305
13483TIP3   OH240393   5.145   1.925   5.611
13483TIP3    H140394   5.160   1.872   5.533
13483TIP3    H240395   5.147   1.862   5.684
13484TIP3   OH240396   0.590   5.418   4.721
13484TIP3    H140397   0.564   5.407   4.630
13484TIP3    H240398   0.625   5.333   4.747
13485TIP3   OH240399   0.327   3.948   5.909
13485TIP3    H140400   0.287   3.980   5.828
13485TIP3    H240401   0.349   4.028   5.957
13486TIP3   OH240402   3.285   7.202   5.534
13486TIP3    H140403   3.325   7.284   5.562
13486TIP3    H240404   3.266   7.214   5.441
13487TIP3   OH240405   5.706   4.483   1.927
13487TIP3    H140406   5.749   4.432   1.995
13487TIP3    H240407   5.756   4.462   1.847
13488TIP3   OH240408   4.602   1.405   6.559
13488TIP3    H140409   4.565   1.323   6.524
13488TIP3    H240410   4.679   1.421   6.504
13489TIP3   OH240411   1.348   0.459   5.402
13489TIP3    H140412   1.365   0.370   5.433
13489TIP3    H240413   1.334   0.510   5.482
13490TIP3   OH240414   1.763   1.461   5.382
13490TIP3    H140415   1.706   1.535   5.360
13490TIP3    H240416   1.763   1.459   5.478
13491TIP3   OH240417   4.678   3.728   5.545
13491TIP3    H140418   4.704   3.659   5.605
13491TIP3    H240419   4.732   3.804   5.571
13492TIP3   OH240420   6.985   4.196   2.853
13492TIP3    H140421   7.068   4.181   2.898
13492TIP3    H240422   7.000   4.164   2.764
13493TIP3   OH240423   5.270   0.304   6.218
13493TIP3    H140424   5.268   0.365   6.144
13493TIP3    H240425   5.181   0.269   6.223
13494TIP3   OH240426   0.250   5.084   1.338
13494TIP3    H140427   0.250   5.077   1.243
13494TIP3    H240428   0.157   5.085   1.362
13495TIP3   OH240429   2.643   1.609   1.396
13495TIP3    H140430   2.631   1.702   1.413
13495TIP3    H240431   2.704   1.605   1.322
13496TIP3   OH240432   1.742   4.200   4.965
13496TIP3    H140433   1.802   4.163   5.029
13496TIP3    H240434   1.670   4.235   5.017
13497TIP3   OH240435   2.289   7.319   6.165
13497TIP3    H140436   2.353   7.391   6.162
13497TIP3    H240437   2.304   7.271   6.083
13498TIP3   OH240438   1.220   5.157   1.135
13498TIP3    H140439   1.183   5.069   1.136
13498TIP3    H240440   1.314   5.143   1.137
13499TIP3   OH240441   1.150   6.074   3.772
13499TIP3    H140442   1.237   6.039   3.791
13499TIP3    H240443   1.132   6.134   3.844
13500TIP3   OH240444   7.732   1.208   3.331
13500TIP3    H140445   7.685   1.137   3.287
13500TIP3    H240446   7.822   1.200   3.301
13501TIP3   OH240447   4.655   1.617   0.394
13501TIP3    H140448   4.719   1.556   0.358
13501TIP3    H240449   4.647   1.685   0.326
13502TIP3   OH240450   6.767   4.131   3.742
13502TIP3    H140451   6.782   4.051   3.793
13502TIP3    H240452   6.708   4.183   3.797
13503TIP3   OH240453   4.017   5.102   3.596
13503TIP3    H140454   3.969   5.033   3.550
13503TIP3    H240455   4.107   5.093   3.565
13504TIP3   OH240456   2.196   1.614   5.293
13504TIP3    H140457   2.143   1.693   5.296
13504TIP3    H240458   2.152   1.558   5.229
13505TIP3   OH240459   3.303   7.221   0.525
13505TIP3    H140460   3.367   7.182   0.584
13505TIP3    H240461   3.355   7.277   0.467
13506TIP3   OH240462   1.775   6.100   4.101
13506TIP3    H140463   1.775   6.146   4.185
13506TIP3    H240464   1.721   6.154   4.044
13507TIP3   OH240465   5.551   7.314   4.000
13507TIP3    H140466   5.458   7.333   3.990
13507TIP3    H240467   5.593   7.359   3.927
13508TIP3   OH240468   0.732   1.852   5.189
13508TIP3    H140469   0.707   1.760   5.188
13508TIP3    H240470   0.694   1.886   5.270
13509TIP3   OH240471   5.141   3.413   1.258
13509TIP3    H140472   5.223   3.441   1.298
13509TIP3    H240473   5.081   3.486   1.272
13510TIP3   OH240474   2.601   2.028   2.268
13510TIP3    H140475   2.599   2.104   2.210
13510TIP3    H240476   2.629   1.956   2.210
13511TIP3   OH240477   3.272   5.653   3.910
13511TIP3    H140478   3.240   5.564   3.927
13511TIP3    H240479   3.303   5.651   3.819
13512TIP3   OH240480   7.680   3.714   3.720
13512TIP3    H140481   7.658   3.787   3.779
13512TIP3    H240482   7.775   3.721   3.707
13513TIP3   OH240483   6.238   3.151   5.830
13513TIP3    H140484   6.313   3.105   5.793
13513TIP3    H240485   6.198   3.089   5.890
13514TIP3   OH240486   0.520   2.514   0.140
13514TIP3    H140487   0.450   2.492   0.079
13514TIP3    H240488   0.512   2.609   0.152
13515TIP3   OH240489   8.186   5.370   2.264
13515TIP3    H140490   8.101   5.327   2.272
13515TIP3    H240491   8.165   5.460   2.239
13516TIP3   OH240492   6.335   4.211   5.656
13516TIP3    H140493   6.250   4.232   5.619
13516TIP3    H240494   6.395   4.215   5.581
13517TIP3   OH240495   4.987   5.879   2.091
13517TIP3    H140496   5.047   5.806   2.097
13517TIP3    H240497   5.003   5.931   2.170
13518TIP3   OH240498   0.575   2.788   5.661
13518TIP3    H140499   0.492   2.834   5.658
13518TIP3    H240500   0.563   2.720   5.728
13519TIP3   OH240501   2.255   1.082   1.518
13519TIP3    H140502   2.327   1.141   1.540
13519TIP3    H240503   2.286   1.032   1.443
13520TIP3   OH240504   2.428   0.374   2.285
13520TIP3    H140505   2.361   0.415   2.340
13520TIP3    H240506   2.507   0.426   2.299
13521TIP3   OH240507   6.572   4.537   3.239
13521TIP3    H140508   6.655   4.567   3.200
13521TIP3    H240509   6.598   4.480   3.311
13522TIP3   OH240510   8.243   6.891   1.460
13522TIP3    H140511   8.323   6.944   1.454
13522TIP3    H240512   8.199   6.922   1.539
13523TIP3   OH240513   1.713   0.114   3.576
13523TIP3    H140514   1.670   0.184   3.528
13523TIP3    H240515   1.722   0.043   3.512
13524TIP3   OH240516   7.934   3.539   1.743
13524TIP3    H140517   7.865   3.499   1.796
13524TIP3    H240518   7.991   3.466   1.719
13525TIP3   OH240519   2.013   0.631   5.451
13525TIP3    H140520   2.064   0.566   5.402
13525TIP3    H240521   1.949   0.664   5.387
13526TIP3   OH240522   7.850   6.005   0.806
13526TIP3    H140523   7.768   6.030   0.764
13526TIP3    H240524   7.882   5.931   0.755
13527TIP3   OH240525   0.792   5.889   2.161
13527TIP3    H140526   0.751   5.850   2.238
13527TIP3    H240527   0.757   5.839   2.088
13528TIP3   OH240528   7.144   4.180   5.675
13528TIP3    H140529   7.197   4.188   5.754
13528TIP3    H240530   7.192   4.228   5.608
13529TIP3   OH240531   2.753   1.883   2.450
13529TIP3    H140532   2.691   1.942   2.405
13529TIP3    H240533   2.834   1.892   2.400
13530TIP3   OH240534   5.664   3.583   2.605
13530TIP3    H140535   5.682   3.572   2.511
13530TIP3    H240536   5.592   3.646   2.608
13531TIP3   OH240537   1.134   1.377   4.428
13531TIP3    H140538   1.204   1.320   4.396
13531TIP3    H240539   1.174   1.463   4.436
13532TIP3   OH240540   7.698   2.687   1.715
13532TIP3    H140541   7.611   2.668   1.749
13532TIP3    H240542   7.727   2.763   1.767
13533TIP3   OH240543   2.849   0.308   2.939
13533TIP3    H140544   2.798   0.270   3.011
13533TIP3    H240545   2.940   0.290   2.962
13534TIP3   OH240546   2.342   5.112   5.627
13534TIP3    H140547   2.426   5.070   5.609
13534TIP3    H240548   2.296   5.050   5.683
13535TIP3   OH240549   2.329   0.769   5.315
13535TIP3    H140550   2.331   0.815   5.399
13535TIP3    H240551   2.335   0.838   5.249
13536TIP3   OH240552   2.952   2.170   5.080
13536TIP3    H140553   2.965   2.166   5.174
13536TIP3    H240554   2.954   2.264   5.060
13537TIP3   OH240555   5.697   1.963   5.199
13537TIP3    H140556   5.727   1.881   5.237
13537TIP3    H240557   5.659   1.938   5.114
13538TIP3   OH240558   5.873   1.700   2.131
13538TIP3    H140559   5.809   1.744   2.076
13538TIP3    H240560   5.827   1.687   2.214
13539TIP3   OH240561   3.046   3.757   5.063
13539TIP3    H140562   3.076   3.711   5.141
13539TIP3    H240563   3.088   3.843   5.068
13540TIP3   OH240564   6.547   3.848   2.042
13540TIP3    H140565   6.620   3.786   2.038
13540TIP3    H240566   6.571   3.917   1.980
13541TIP3   OH240567   7.783   2.941   5.213
13541TIP3    H140568   7.867   2.974   5.245
13541TIP3    H240569   7.795   2.846   5.210
13542TIP3   OH240570   4.446   1.403   2.541
13542TIP3    H140571   4.428   1.315   2.507
13542TIP3    H240572   4.359   1.444   2.548
13543TIP3   OH240573   6.900   2.896   4.654
13543TIP3    H140574   6.954   2.857   4.585
13543TIP3    H240575   6.810   2.879   4.626
13544TIP3   OH240576   7.478   6.035   4.050
13544TIP3    H140577   7.540   5.962   4.051
13544TIP3    H240578   7.434   6.026   3.965
13545TIP3   OH240579   8.051   3.822   4.105
13545TIP3    H140580   8.077   3.898   4.054
13545TIP3    H240581   7.973   3.788   4.061
13546TIP3   OH240582   6.963   5.471   3.589
13546TIP3    H140583   6.948   5.442   3.499
13546TIP3    H240584   6.879   5.462   3.633
13547TIP3   OH240585   0.064   3.327   2.842
13547TIP3    H140586   0.117   3.268   2.896
13547TIP3    H240587  -0.015   3.342   2.894
13548TIP3   OH240588   7.306   3.357   5.289
13548TIP3    H140589   7.245   3.315   5.349
13548TIP3    H240590   7.323   3.443   5.328
13549TIP3   OH240591   0.055   5.879   2.354
13549TIP3    H140592  -0.036   5.887   2.324
13549TIP3    H240593   0.107   5.919   2.284
13550TIP3   OH240594   4.141   5.767   4.772
13550TIP3    H140595   4.109   5.765   4.682
13550TIP3    H240596   4.169   5.677   4.789
13551TIP3   OH240597   7.886   2.733   4.029
13551TIP3    H140598   7.887   2.715   3.935
13551TIP3    H240599   7.979   2.741   4.052
13552TIP3   OH240600   2.907   3.577   5.812
13552TIP3    H140601   2.816   3.571   5.782
13552TIP3    H240602   2.957   3.529   5.746
13553TIP3   OH240603   0.332   7.432   3.411
13553TIP3    H140604   0.394   7.431   3.484
13553TIP3    H240605   0.323   7.339   3.387
13554TIP3   OH240606   1.128   4.556   4.531
13554TIP3    H140607   1.123   4.565   4.626
13554TIP3    H240608   1.222   4.560   4.511
13555TIP3   OH240609   3.636   0.124   5.397
13555TIP3    H140610   3.631   0.218   5.380
13555TIP3    H240611   3.589   0.112   5.480
13556TIP3   OH240612   1.579   3.976   3.679
13556TIP3    H140613   1.654   4.033   3.662
13556TIP3    H240614   1.603   3.893   3.636
13557TIP3   OH240615   6.739   6.152   0.799
13557TIP3    H140616   6.705   6.091   0.733
13557TIP3    H240617   6.832   6.130   0.807
13558TIP3   OH240618   2.796   1.062   2.029
13558TIP3    H140619   2.809   0.992   2.094
13558TIP3    H240620   2.876   1.114   2.033
13559TIP3   OH240621   4.518   3.557   4.584
13559TIP3    H140622   4.495   3.623   4.649
13559TIP3    H240623   4.435   3.537   4.539
13560TIP3   OH240624   7.090   7.089   1.451
13560TIP3    H140625   7.035   7.134   1.387
13560TIP3    H240626   7.082   7.142   1.530
13561TIP3   OH240627   0.023   1.117   2.484
13561TIP3    H140628   0.088   1.184   2.505
13561TIP3    H240629   0.066   1.035   2.507
13562TIP3   OH240630   1.775   2.084   1.273
13562TIP3    H140631   1.838   2.127   1.332
13562TIP3    H240632   1.722   2.155   1.238
13563TIP3   OH240633   6.468   1.762   2.739
13563TIP3    H140634   6.391   1.737   2.790
13563TIP3    H240635   6.475   1.694   2.671
13564TIP3   OH240636   3.059   5.039   3.260
13564TIP3    H140637   3.052   5.060   3.166
13564TIP3    H240638   3.145   4.998   3.269
13565TIP3   OH240639   1.633   2.724   4.076
13565TIP3    H140640   1.608   2.752   3.987
13565TIP3    H240641   1.651   2.806   4.122
13566TIP3   OH240642   2.639   1.278   5.549
13566TIP3    H140643   2.732   1.293   5.565
13566TIP3    H240644   2.603   1.253   5.634
13567TIP3   OH240645   0.260   0.666   1.378
13567TIP3    H140646   0.245   0.746   1.428
13567TIP3    H240647   0.336   0.685   1.324
13568TIP3   OH240648   7.091   4.722   6.421
13568TIP3    H140649   7.017   4.666   6.441
13568TIP3    H240650   7.103   4.712   6.326
13569TIP3   OH240651   0.333   3.396   0.503
13569TIP3    H140652   0.298   3.472   0.455
13569TIP3    H240653   0.332   3.424   0.595
13570TIP3   OH240654   3.661   4.216   6.019
13570TIP3    H140655   3.646   4.226   5.925
13570TIP3    H240656   3.755   4.201   6.027
13571TIP3   OH240657   0.319   2.863   3.346
13571TIP3    H140658   0.237   2.818   3.330
13571TIP3    H240659   0.309   2.949   3.304
13572TIP3   OH240660   7.434   2.768   5.998
13572TIP3    H140661   7.497   2.719   6.051
13572TIP3    H240662   7.383   2.818   6.061
13573TIP3   OH240663   3.116   1.601   4.654
13573TIP3    H140664   3.075   1.554   4.581
13573TIP3    H240665   3.044   1.652   4.692
13574TIP3   OH240666   5.111   1.427   0.342
13574TIP3    H140667   5.163   1.348   0.358
13574TIP3    H240668   5.032   1.415   0.395
13575TIP3   OH240669   1.144   0.118   5.661
13575TIP3    H140670   1.236   0.134   5.643
13575TIP3    H240671   1.141   0.095   5.755
13576TIP3   OH240672   7.572   1.114   5.475
13576TIP3    H140673   7.531   1.040   5.429
13576TIP3    H240674   7.511   1.135   5.545
13577TIP3   OH240675   3.711   7.408   2.857
13577TIP3    H140676   3.689   7.338   2.795
13577TIP3    H240677   3.802   7.392   2.879
13578TIP3   OH240678   1.455   7.668   2.658
13578TIP3    H140679   1.408   7.645   2.578
13578TIP3    H240680   1.395   7.728   2.704
13579TIP3   OH240681   0.615   3.743   1.400
13579TIP3    H140682   0.530   3.699   1.404
13579TIP3    H240683   0.598   3.831   1.436
13580TIP3   OH240684   1.592   4.281   2.614
13580TIP3    H140685   1.641   4.199   2.613
13580TIP3    H240686   1.581   4.302   2.707
13581TIP3   OH240687   5.804   0.543   5.801
13581TIP3    H140688   5.876   0.488   5.772
13581TIP3    H240689   5.726   0.490   5.787
13582TIP3   OH240690   4.181   2.821   5.632
13582TIP3    H140691   4.086   2.820   5.639
13582TIP3    H240692   4.206   2.910   5.657
13583TIP3   OH240693   1.385   7.210   3.030
13583TIP3    H140694   1.411   7.118   3.031
13583TIP3    H240695   1.292   7.209   3.051
13584TIP3   OH240696   6.958   1.798   1.641
13584TIP3    H140697   6.946   1.703   1.646
13584TIP3    H240698   7.029   1.809   1.576
13585TIP3   OH240699   5.872   4.635   0.120
13585TIP3    H140700   5.931   4.608   0.191
13585TIP3    H240701   5.847   4.724   0.144
13586TIP3   OH240702   2.184   7.111   1.015
13586TIP3    H140703   2.191   7.206   1.004
13586TIP3    H240704   2.195   7.097   1.109
13587TIP3   OH240705   3.606   0.388   6.670
13587TIP3    H140706   3.516   0.364   6.652
13587TIP3    H240707   3.652   0.374   6.588
13588TIP3   OH240708   2.731   3.356   2.707
13588TIP3    H140709   2.798   3.311   2.759
13588TIP3    H240710   2.657   3.367   2.767
13589TIP3   OH240711   7.331   7.449   4.307
13589TIP3    H140712   7.267   7.494   4.362
13589TIP3    H240713   7.401   7.424   4.368
13590TIP3   OH240714   5.241   5.657   0.766
13590TIP3    H140715   5.314   5.718   0.777
13590TIP3    H240716   5.238   5.608   0.848
13591TIP3   OH240717   6.785   3.863   1.420
13591TIP3    H140718   6.774   3.926   1.491
13591TIP3    H240719   6.850   3.801   1.453
13592TIP3   OH240720   1.404   1.165   1.618
13592TIP3    H140721   1.387   1.139   1.527
13592TIP3    H240722   1.427   1.083   1.662
13593TIP3   OH240723   3.848   0.815   4.640
13593TIP3    H140724   3.845   0.814   4.736
13593TIP3    H240725   3.897   0.735   4.617
13594TIP3   OH240726   2.302   4.680   6.685
13594TIP3    H140727   2.294   4.704   6.778
13594TIP3    H240728   2.382   4.628   6.681
13595TIP3   OH240729   1.594   2.181   2.351
13595TIP3    H140730   1.615   2.271   2.324
13595TIP3    H240731   1.517   2.158   2.298
13596TIP3   OH240732   0.542   4.301   1.554
13596TIP3    H140733   0.617   4.356   1.575
13596TIP3    H240734   0.484   4.357   1.502
13597TIP3   OH240735   0.125   5.872   5.552
13597TIP3    H140736   0.141   5.952   5.502
13597TIP3    H240737   0.213   5.834   5.565
13598TIP3   OH240738   7.476   2.718   4.885
13598TIP3    H140739   7.550   2.692   4.940
13598TIP3    H240740   7.502   2.803   4.849
13599TIP3   OH240741   1.454   0.137   2.020
13599TIP3    H140742   1.460   0.200   2.092
13599TIP3    H240743   1.535   0.087   2.024
13600TIP3   OH240744   3.640   3.410   5.853
13600TIP3    H140745   3.601   3.479   5.800
13600TIP3    H240746   3.566   3.362   5.889
13601TIP3   OH240747   2.667   5.366   2.820
13601TIP3    H140748   2.669   5.447   2.769
13601TIP3    H240749   2.715   5.386   2.900
13602TIP3   OH240750   7.161   0.061   0.769
13602TIP3    H140751   7.185   0.121   0.698
13602TIP3    H240752   7.233   0.067   0.831
13603TIP3   OH240753   2.730   3.701   6.556
13603TIP3    H140754   2.718   3.607   6.549
13603TIP3    H240755   2.807   3.720   6.503
13604TIP3   OH240756   6.546   6.947   0.893
13604TIP3    H140757   6.628   6.989   0.919
13604TIP3    H240758   6.479   7.014   0.906
13605TIP3   OH240759   3.435   0.987   5.039
13605TIP3    H140760   3.436   0.970   5.133
13605TIP3    H240761   3.490   1.065   5.028
13606TIP3   OH240762   3.103   6.854   3.079
13606TIP3    H140763   3.059   6.893   3.155
13606TIP3    H240764   3.105   6.761   3.098
13607TIP3   OH240765   6.022   0.656   4.050
13607TIP3    H140766   5.937   0.644   4.092
13607TIP3    H240767   6.007   0.632   3.959
13608TIP3   OH240768   0.174   1.177   0.131
13608TIP3    H140769   0.207   1.088   0.144
13608TIP3    H240770   0.248   1.234   0.153
13609TIP3   OH240771   6.942   5.938   0.791
13609TIP3    H140772   6.871   5.883   0.761
13609TIP3    H240773   7.004   5.940   0.719
13610TIP3   OH240774   4.124   6.047   1.130
13610TIP3    H140775   4.092   6.094   1.207
13610TIP3    H240776   4.058   6.063   1.063
13611TIP3   OH240777   2.751   4.672   2.745
13611TIP3    H140778   2.801   4.688   2.824
13611TIP3    H240779   2.803   4.713   2.675
13612TIP3   OH240780   7.048   4.564   4.867
13612TIP3    H140781   7.102   4.516   4.804
13612TIP3    H240782   6.967   4.515   4.872
13613TIP3   OH240783   2.624   0.824   6.050
13613TIP3    H140784   2.568   0.748   6.062
13613TIP3    H240785   2.705   0.802   6.096
13614TIP3   OH240786   1.459   6.923   3.689
13614TIP3    H140787   1.442   6.998   3.746
13614TIP3    H240788   1.398   6.933   3.616
13615TIP3   OH240789   5.266   7.023   5.748
13615TIP3    H140790   5.253   7.100   5.803
13615TIP3    H240791   5.342   7.044   5.693
13616TIP3   OH240792   5.608   3.993   4.132
13616TIP3    H140793   5.673   4.061   4.113
13616TIP3    H240794   5.652   3.911   4.112
13617TIP3   OH240795   2.851   1.533   2.730
13617TIP3    H140796   2.808   1.618   2.718
13617TIP3    H240797   2.848   1.492   2.643
13618TIP3   OH240798   3.832   2.835   5.337
13618TIP3    H140799   3.799   2.924   5.344
13618TIP3    H240800   3.793   2.801   5.256
13619TIP3   OH240801   2.239   7.225   1.285
13619TIP3    H140802   2.314   7.184   1.329
13619TIP3    H240803   2.263   7.317   1.279
13620TIP3   OH240804   7.911   4.904   5.943
13620TIP3    H140805   7.847   4.973   5.929
13620TIP3    H240806   7.976   4.943   6.001
13621TIP3   OH240807   7.597   3.103   6.739
13621TIP3    H140808   7.594   3.121   6.833
13621TIP3    H240809   7.665   3.036   6.730
13622TIP3   OH240810   6.968   4.830   0.433
13622TIP3    H140811   6.982   4.777   0.512
13622TIP3    H240812   6.891   4.882   0.453
13623TIP3   OH240813   4.481   2.174   5.568
13623TIP3    H140814   4.467   2.260   5.608
13623TIP3    H240815   4.446   2.183   5.480
13624TIP3   OH240816   2.230   0.351   3.725
13624TIP3    H140817   2.318   0.319   3.709
13624TIP3    H240818   2.241   0.417   3.793
13625TIP3   OH240819   3.887   0.710   1.190
13625TIP3    H140820   3.867   0.618   1.170
13625TIP3    H240821   3.867   0.719   1.283
13626TIP3   OH240822  -0.022   7.712   3.549
13626TIP3    H140823  -0.037   7.730   3.456
13626TIP3    H240824   0.073   7.716   3.560
13627TIP3   OH240825   6.631   1.297   5.681
13627TIP3    H140826   6.569   1.362   5.714
13627TIP3    H240827   6.611   1.218   5.730
13628TIP3   OH240828   7.278   7.591   1.820
13628TIP3    H140829   7.217   7.568   1.751
13628TIP3    H240830   7.256   7.682   1.843
13629TIP3   OH240831   4.469   7.273   3.002
13629TIP3    H140832   4.534   7.260   2.933
13629TIP3    H240833   4.458   7.186   3.040
13630TIP3   OH240834   1.280   0.478   5.893
13630TIP3    H140835   1.282   0.545   5.960
13630TIP3    H240836   1.359   0.425   5.909
13631TIP3   OH240837   0.942   7.563   5.141
13631TIP3    H140838   0.968   7.616   5.217
13631TIP3    H240839   1.024   7.542   5.098
13632TIP3   OH240840   3.677   2.001   4.263
13632TIP3    H140841   3.696   2.044   4.346
13632TIP3    H240842   3.750   1.941   4.249
13633TIP3   OH240843   4.736   6.989   3.966
13633TIP3    H140844   4.712   6.952   3.882
13633TIP3    H240845   4.675   6.949   4.028
13634TIP3   OH240846   1.230   1.233   3.901
13634TIP3    H140847   1.227   1.145   3.864
13634TIP3    H240848   1.274   1.286   3.834
13635TIP3   OH240849   1.583   0.815   0.997
13635TIP3    H140850   1.629   0.758   1.058
13635TIP3    H240851   1.494   0.822   1.033
13636TIP3   OH240852   7.689   5.303   3.746
13636TIP3    H140853   7.758   5.274   3.687
13636TIP3    H240854   7.647   5.222   3.776
13637TIP3   OH240855   2.099   2.793   1.447
13637TIP3    H140856   2.187   2.801   1.409
13637TIP3    H240857   2.115   2.776   1.540
13638TIP3   OH240858   3.359   4.721   2.266
13638TIP3    H140859   3.380   4.814   2.274
13638TIP3    H240860   3.368   4.703   2.173
13639TIP3   OH240861   4.984   4.821   5.256
13639TIP3    H140862   5.078   4.817   5.237
13639TIP3    H240863   4.953   4.732   5.245
13640TIP3   OH240864   0.851   1.033   0.130
13640TIP3    H140865   0.882   1.117   0.096
13640TIP3    H240866   0.835   1.049   0.223
13641TIP3   OH240867   6.425   6.178   2.402
13641TIP3    H140868   6.505   6.220   2.433
13641TIP3    H240869   6.451   6.089   2.379
13642TIP3   OH240870   7.179   6.322   0.380
13642TIP3    H140871   7.205   6.361   0.296
13642TIP3    H240872   7.118   6.253   0.356
13643TIP3   OH240873   6.416   5.104   0.219
13643TIP3    H140874   6.472   5.039   0.175
13643TIP3    H240875   6.330   5.092   0.179
13644TIP3   OH240876   6.647   4.407   1.522
13644TIP3    H140877   6.663   4.484   1.468
13644TIP3    H240878   6.717   4.408   1.588
13645TIP3   OH240879   5.966   3.800   0.996
13645TIP3    H140880   6.043   3.832   1.043
13645TIP3    H240881   5.904   3.775   1.065
13646TIP3   OH240882   8.177   6.257   1.059
13646TIP3    H140883   8.241   6.211   1.005
13646TIP3    H240884   8.115   6.294   0.997
13647TIP3   OH240885   6.710   0.330   6.258
13647TIP3    H140886   6.636   0.288   6.215
13647TIP3    H240887   6.679   0.352   6.346
13648TIP3   OH240888   4.115   7.106   2.414
13648TIP3    H140889   4.041   7.159   2.384
13648TIP3    H240890   4.075   7.025   2.445
13649TIP3   OH240891   6.563   7.756   0.645
13649TIP3    H140892   6.550   7.671   0.687
13649TIP3    H240893   6.491   7.764   0.583
13650TIP3   OH240894   8.249   2.464   1.731
13650TIP3    H140895   8.235   2.541   1.786
13650TIP3    H240896   8.301   2.405   1.785
13651TIP3   OH240897   2.600   7.293   5.964
13651TIP3    H140898   2.683   7.273   5.922
13651TIP3    H240899   2.593   7.389   5.959
13652TIP3   OH240900   3.659   6.036   2.768
13652TIP3    H140901   3.693   6.059   2.682
13652TIP3    H240902   3.599   5.963   2.751
13653TIP3   OH240903   2.523   3.627   5.117
13653TIP3    H140904   2.526   3.643   5.023
13653TIP3    H240905   2.521   3.715   5.156
13654TIP3   OH240906   8.185   5.355   3.982
13654TIP3    H140907   8.095   5.332   3.957
13654TIP3    H240908   8.226   5.271   4.002
13655TIP3   OH240909   2.146   7.788   4.888
13655TIP3    H140910   2.194   7.723   4.837
13655TIP3    H240911   2.204   7.811   4.960
13656TIP3   OH240912   7.633   5.578   3.701
13656TIP3    H140913   7.702   5.607   3.761
13656TIP3    H240914   7.623   5.485   3.721
13657TIP3   OH240915   6.707   5.142   5.721
13657TIP3    H140916   6.798   5.133   5.693
13657TIP3    H240917   6.707   5.111   5.812
13658TIP3   OH240918   5.504   0.996   1.614
13658TIP3    H140919   5.522   0.927   1.677
13658TIP3    H240920   5.417   0.975   1.579
13659TIP3   OH240921   1.104   7.232   1.640
13659TIP3    H140922   1.019   7.255   1.602
13659TIP3    H240923   1.167   7.249   1.570
13660TIP3   OH240924   2.545   4.449   0.713
13660TIP3    H140925   2.535   4.521   0.651
13660TIP3    H240926   2.511   4.483   0.795
13661TIP3   OH240927   8.087   4.262   1.231
13661TIP3    H140928   8.089   4.241   1.138
13661TIP3    H240929   8.060   4.353   1.235
13662TIP3   OH240930   5.649   4.123   1.484
13662TIP3    H140931   5.637   4.031   1.507
13662TIP3    H240932   5.588   4.138   1.411
13663TIP3   OH240933   4.842   4.653   4.050
13663TIP3    H140934   4.792   4.729   4.079
13663TIP3    H240935   4.934   4.679   4.062
13664TIP3   OH240936   6.954   7.190   1.245
13664TIP3    H140937   6.976   7.273   1.202
13664TIP3    H240938   6.860   7.179   1.229
13665TIP3   OH240939   5.336   3.868   2.812
13665TIP3    H140940   5.270   3.934   2.831
13665TIP3    H240941   5.297   3.813   2.744
13666TIP3   OH240942   6.127   4.610   4.995
13666TIP3    H140943   6.083   4.630   5.077
13666TIP3    H240944   6.060   4.625   4.928
13667TIP3   OH240945   7.219   1.423   6.197
13667TIP3    H140946   7.232   1.375   6.278
13667TIP3    H240947   7.262   1.369   6.130
13668TIP3   OH240948   7.078   6.037   3.787
13668TIP3    H140949   7.153   6.074   3.742
13668TIP3    H240950   7.110   5.956   3.827
13669TIP3   OH240951   2.389   7.023   5.529
13669TIP3    H140952   2.377   6.933   5.499
13669TIP3    H240953   2.456   7.018   5.596
13670TIP3   OH240954   6.261   2.830   2.782
13670TIP3    H140955   6.252   2.842   2.687
13670TIP3    H240956   6.270   2.736   2.793
13671TIP3   OH240957   0.478   2.577   5.852
13671TIP3    H140958   0.542   2.556   5.920
13671TIP3    H240959   0.419   2.641   5.893
13672TIP3   OH240960   3.772   3.696   6.539
13672TIP3    H140961   3.865   3.719   6.539
13672TIP3    H240962   3.746   3.699   6.447
13673TIP3   OH240963   3.903   1.900   1.859
13673TIP3    H140964   3.987   1.939   1.834
13673TIP3    H240965   3.922   1.806   1.868
13674TIP3   OH240966   5.680   4.727   3.792
13674TIP3    H140967   5.673   4.636   3.819
13674TIP3    H240968   5.687   4.777   3.874
13675TIP3   OH240969   3.713   7.122   1.146
13675TIP3    H140970   3.640   7.060   1.142
13675TIP3    H240971   3.764   7.094   1.221
13676TIP3   OH240972   6.558   3.151   3.005
13676TIP3    H140973   6.632   3.199   2.967
13676TIP3    H240974   6.512   3.114   2.930
13677TIP3   OH240975   2.957   6.423   0.730
13677TIP3    H140976   2.933   6.465   0.812
13677TIP3    H240977   2.998   6.341   0.755
13678TIP3   OH240978   4.777   7.624   5.767
13678TIP3    H140979   4.798   7.535   5.795
13678TIP3    H240980   4.727   7.612   5.686
13679TIP3   OH240981   2.717   6.676   2.336
13679TIP3    H140982   2.753   6.659   2.423
13679TIP3    H240983   2.788   6.721   2.290
13680TIP3   OH240984   4.153   5.086   5.431
13680TIP3    H140985   4.091   5.142   5.385
13680TIP3    H240986   4.139   4.999   5.394
13681TIP3   OH240987   1.922   1.101   1.184
13681TIP3    H140988   1.881   1.094   1.270
13681TIP3    H240989   1.954   1.013   1.165
13682TIP3   OH240990   2.121   6.150   2.554
13682TIP3    H140991   2.057   6.163   2.484
13682TIP3    H240992   2.086   6.077   2.605
13683TIP3   OH240993   3.454   5.700   4.324
13683TIP3    H140994   3.447   5.688   4.418
13683TIP3    H240995   3.381   5.649   4.288
13684TIP3   OH240996   1.105   4.107   3.618
13684TIP3    H140997   1.051   4.050   3.563
13684TIP3    H240998   1.174   4.050   3.651
13685TIP3   OH240999   3.700   4.754   3.784
13685TIP3    H141000   3.683   4.834   3.835
13685TIP3    H241001   3.625   4.698   3.803
13686TIP3   OH241002   6.069   1.555   4.911
13686TIP3    H141003   6.128   1.615   4.958
13686TIP3    H241004   6.125   1.515   4.844
13687TIP3   OH241005   2.490   1.227   1.594
13687TIP3    H141006   2.485   1.315   1.634
13687TIP3    H241007   2.491   1.244   1.500
13688TIP3   OH241008   1.087   5.375   5.336
13688TIP3    H141009   1.037   5.455   5.351
13688TIP3    H241010   1.175   5.394   5.370
13689TIP3   OH241011   4.772   3.085   4.522
13689TIP3    H141012   4.835   3.132   4.467
13689TIP3    H241013   4.756   3.003   4.476
13690TIP3   OH241014   0.165   0.618   0.643
13690TIP3    H141015   0.154   0.630   0.548
13690TIP3    H241016   0.224   0.689   0.669
13691TIP3   OH241017   2.658   3.055   3.150
13691TIP3    H141018   2.602   3.118   3.104
13691TIP3    H241019   2.600   3.010   3.211
13692TIP3   OH241020   0.309   4.744   5.036
13692TIP3    H141021   0.227   4.786   5.063
13692TIP3    H241022   0.319   4.767   4.944
13693TIP3   OH241023   4.806   5.456   6.128
13693TIP3    H141024   4.895   5.488   6.143
13693TIP3    H241025   4.768   5.519   6.066
13694TIP3   OH241026   3.781   2.144   2.229
13694TIP3    H141027   3.832   2.177   2.156
13694TIP3    H241028   3.835   2.075   2.268
13695TIP3   OH241029   7.998   4.797   3.714
13695TIP3    H141030   7.990   4.707   3.683
13695TIP3    H241031   8.066   4.792   3.782
13696TIP3   OH241032   3.561   2.057   5.106
13696TIP3    H141033   3.543   2.099   5.190
13696TIP3    H241034   3.475   2.027   5.075
13697TIP3   OH241035   6.863   5.366   2.535
13697TIP3    H141036   6.853   5.444   2.480
13697TIP3    H241037   6.776   5.350   2.571
13698TIP3   OH241038   6.372   0.444   1.283
13698TIP3    H141039   6.354   0.366   1.232
13698TIP3    H241040   6.309   0.442   1.355
13699TIP3   OH241041   7.026   3.919   3.011
13699TIP3    H141042   7.044   3.986   3.076
13699TIP3    H241043   6.986   3.848   3.060
13700TIP3   OH241044   1.315   5.052   0.793
13700TIP3    H141045   1.405   5.077   0.769
13700TIP3    H241046   1.270   5.135   0.806
13701TIP3   OH241047   4.443   1.112   2.790
13701TIP3    H141048   4.441   1.202   2.823
13701TIP3    H241049   4.460   1.122   2.696
13702TIP3   OH241050   0.620   6.511   2.856
13702TIP3    H141051   0.631   6.514   2.761
13702TIP3    H241052   0.693   6.458   2.887
13703TIP3   OH241053   4.966   2.623   1.891
13703TIP3    H141054   4.880   2.635   1.852
13703TIP3    H241055   4.948   2.606   1.984
13704TIP3   OH241056   4.374   6.363   6.207
13704TIP3    H141057   4.341   6.327   6.125
13704TIP3    H241058   4.449   6.417   6.182
13705TIP3   OH241059   6.020   6.479   2.974
13705TIP3    H141060   5.930   6.496   2.949
13705TIP3    H241061   6.072   6.504   2.897
13706TIP3   OH241062   0.585   0.260   4.615
13706TIP3    H141063   0.609   0.174   4.649
13706TIP3    H241064   0.667   0.298   4.585
13707TIP3   OH241065   0.654   0.196   1.315
13707TIP3    H141066   0.673   0.169   1.405
13707TIP3    H241067   0.731   0.170   1.265
13708TIP3   OH241068   2.001   0.249   1.756
13708TIP3    H141069   2.027   0.160   1.782
13708TIP3    H241070   1.978   0.292   1.838
13709TIP3   OH241071   0.938   4.395   4.919
13709TIP3    H141072   1.028   4.423   4.938
13709TIP3    H241073   0.932   4.397   4.824
13710TIP3   OH241074   7.307   7.282   6.273
13710TIP3    H141075   7.221   7.244   6.289
13710TIP3    H241076   7.365   7.238   6.336
13711TIP3   OH241077   0.414   0.036   1.387
13711TIP3    H141078   0.481   0.085   1.339
13711TIP3    H241079   0.452   0.023   1.474
13712TIP3   OH241080   1.717   5.696   5.706
13712TIP3    H141081   1.717   5.670   5.614
13712TIP3    H241082   1.635   5.661   5.741
13713TIP3   OH241083   2.087   0.321   0.242
13713TIP3    H141084   2.037   0.327   0.323
13713TIP3    H241085   2.047   0.248   0.194
13714TIP3   OH241086   5.504   5.250   5.479
13714TIP3    H141087   5.544   5.191   5.542
13714TIP3    H241088   5.429   5.200   5.444
13715TIP3   OH241089   3.432   6.963   4.137
13715TIP3    H141090   3.406   7.048   4.173
13715TIP3    H241091   3.402   6.899   4.203
13716TIP3   OH241092   6.509   6.369   2.590
13716TIP3    H141093   6.543   6.301   2.648
13716TIP3    H241094   6.515   6.449   2.641
13717TIP3   OH241095   0.222   6.371   3.074
13717TIP3    H141096   0.213   6.462   3.102
13717TIP3    H241097   0.294   6.337   3.127
13718TIP3   OH241098   0.228   5.396   5.478
13718TIP3    H141099   0.188   5.311   5.457
13718TIP3    H241100   0.187   5.457   5.416
13719TIP3   OH241101   1.290   7.154   4.209
13719TIP3    H141102   1.266   7.071   4.250
13719TIP3    H241103   1.261   7.221   4.271
13720TIP3   OH241104   3.711   2.838   0.241
13720TIP3    H141105   3.770   2.894   0.190
13720TIP3    H241106   3.639   2.896   0.266
13721TIP3   OH241107   1.970   4.287   6.310
13721TIP3    H141108   1.900   4.280   6.376
13721TIP3    H241109   1.924   4.301   6.228
13722TIP3   OH241110   6.875   7.517   1.959
13722TIP3    H141111   6.803   7.517   2.022
13722TIP3    H241112   6.941   7.459   1.998
13723TIP3   OH241113   2.893   3.510   1.187
13723TIP3    H141114   2.936   3.507   1.101
13723TIP3    H241115   2.929   3.589   1.228
13724TIP3   OH241116   0.924   1.328   1.590
13724TIP3    H141117   0.889   1.397   1.534
13724TIP3    H241118   1.017   1.323   1.566
13725TIP3   OH241119   8.209   6.505   0.136
13725TIP3    H141120   8.215   6.452   0.216
13725TIP3    H241121   8.189   6.441   0.067
13726TIP3   OH241122   3.235   4.130   4.799
13726TIP3    H141123   3.181   4.071   4.747
13726TIP3    H241124   3.324   4.096   4.789
13727TIP3   OH241125   3.681   0.010   4.672
13727TIP3    H141126   3.653  -0.081   4.683
13727TIP3    H241127   3.599   0.059   4.665
13728TIP3   OH241128   6.816   6.324   0.050
13728TIP3    H141129   6.773   6.251   0.007
13728TIP3    H241130   6.745   6.378   0.085
13729TIP3   OH241131   3.547   0.471   2.334
13729TIP3    H141132   3.615   0.492   2.398
13729TIP3    H241133   3.512   0.387   2.362
13730TIP3   OH241134   0.773   3.136   3.447
13730TIP3    H141135   0.826   3.102   3.374
13730TIP3    H241136   0.794   3.079   3.520
13731TIP3   OH241137   3.426   7.565   6.579
13731TIP3    H141138   3.366   7.635   6.604
13731TIP3    H241139   3.375   7.510   6.519
13732TIP3   OH241140   0.105   4.863   3.729
13732TIP3    H141141   0.050   4.893   3.801
13732TIP3    H241142   0.194   4.887   3.755
13733TIP3   OH241143   7.986   0.836   5.509
13733TIP3    H141144   7.937   0.917   5.493
13733TIP3    H241145   8.045   0.858   5.582
13734TIP3   OH241146   5.242   1.504   3.135
13734TIP3    H141147   5.276   1.440   3.071
13734TIP3    H241148   5.282   1.479   3.218
13735TIP3   OH241149   4.270   7.076   2.648
13735TIP3    H141150   4.245   7.088   2.556
13735TIP3    H241151   4.202   7.019   2.684
13736TIP3   OH241152   2.191   3.142   4.446
13736TIP3    H141153   2.108   3.190   4.450
13736TIP3    H241154   2.166   3.050   4.448
13737TIP3   OH241155   6.135   0.329   1.123
13737TIP3    H141156   6.074   0.395   1.154
13737TIP3    H241157   6.173   0.367   1.043
13738TIP3   OH241158   3.352   4.891   0.266
13738TIP3    H141159   3.360   4.853   0.179
13738TIP3    H241160   3.332   4.816   0.323
13739TIP3   OH241161   5.783   5.200   1.605
13739TIP3    H141162   5.875   5.214   1.583
13739TIP3    H241163   5.763   5.112   1.573
13740TIP3   OH241164   5.196   1.692  -0.025
13740TIP3    H141165   5.236   1.701   0.061
13740TIP3    H241166   5.245   1.621  -0.067
13741TIP3   OH241167   2.404   2.234   1.528
13741TIP3    H141168   2.315   2.223   1.562
13741TIP3    H241169   2.441   2.304   1.581
13742TIP3   OH241170   0.279   2.956   5.244
13742TIP3    H141171   0.286   3.047   5.217
13742TIP3    H241172   0.269   2.907   5.162
13743TIP3   OH241173   7.322   3.800   4.749
13743TIP3    H141174   7.355   3.750   4.675
13743TIP3    H241175   7.242   3.842   4.716
13744TIP3   OH241176   4.315   5.708   6.293
13744TIP3    H141177   4.329   5.785   6.238
13744TIP3    H241178   4.396   5.698   6.341
13745TIP3   OH241179   5.278   7.230   4.769
13745TIP3    H141180   5.329   7.156   4.738
13745TIP3    H241181   5.220   7.194   4.835
13746TIP3   OH241182   3.227   7.234   4.898
13746TIP3    H141183   3.306   7.189   4.868
13746TIP3    H241184   3.157   7.171   4.884
13747TIP3   OH241185   1.433   7.742   0.607
13747TIP3    H141186   1.373   7.804   0.650
13747TIP3    H241187   1.385   7.659   0.607
13748TIP3   OH241188   7.237   0.240   3.412
13748TIP3    H141189   7.230   0.267   3.504
13748TIP3    H241190   7.225   0.145   3.414
13749TIP3   OH241191   0.690   6.523   0.667
13749TIP3    H141192   0.607   6.568   0.656
13749TIP3    H241193   0.725   6.514   0.578
13750TIP3   OH241194   4.514   6.361   5.227
13750TIP3    H141195   4.491   6.308   5.151
13750TIP3    H241196   4.531   6.448   5.191
13751TIP3   OH241197   1.408   1.524   6.749
13751TIP3    H141198   1.489   1.573   6.736
13751TIP3    H241199   1.358   1.576   6.811
13752TIP3   OH241200   4.647   1.334   2.105
13752TIP3    H141201   4.740   1.330   2.130
13752TIP3    H241202   4.649   1.348   2.010
13753TIP3   OH241203   0.749   2.038   2.430
13753TIP3    H141204   0.680   2.033   2.363
13753TIP3    H241205   0.753   2.131   2.452
13754TIP3   OH241206   1.690   5.612   5.445
13754TIP3    H141207   1.728   5.690   5.405
13754TIP3    H241208   1.754   5.543   5.428
13755TIP3   OH241209   1.359   7.101   0.335
13755TIP3    H141210   1.387   7.191   0.318
13755TIP3    H241211   1.368   7.058   0.250
13756TIP3   OH241212   7.792   4.312   6.484
13756TIP3    H141213   7.828   4.277   6.402
13756TIP3    H241214   7.841   4.392   6.499
13757TIP3   OH241215   6.765   7.633   0.478
13757TIP3    H141216   6.710   7.672   0.546
13757TIP3    H241217   6.703   7.592   0.418
13758TIP3   OH241218   3.778   1.445   1.303
13758TIP3    H141219   3.860   1.485   1.273
13758TIP3    H241220   3.712   1.513   1.290
13759TIP3   OH241221   1.627   1.209   3.435
13759TIP3    H141222   1.644   1.275   3.503
13759TIP3    H241223   1.597   1.132   3.483
13760TIP3   OH241224   4.864   6.212   1.141
13760TIP3    H141225   4.851   6.118   1.135
13760TIP3    H241226   4.931   6.223   1.209
13761TIP3   OH241227   8.163   3.947   5.834
13761TIP3    H141228   8.096   4.009   5.805
13761TIP3    H241229   8.115   3.878   5.879
13762TIP3   OH241230   2.969   2.882   5.904
13762TIP3    H141231   2.876   2.860   5.892
13762TIP3    H241232   2.983   2.874   5.998
13763TIP3   OH241233   6.458   4.338   3.506
13763TIP3    H141234   6.462   4.331   3.602
13763TIP3    H241235   6.440   4.430   3.489
13764TIP3   OH241236   1.372   6.252   4.066
13764TIP3    H141237   1.451   6.249   4.014
13764TIP3    H241238   1.401   6.234   4.156
13765TIP3   OH241239   5.136   4.053   4.401
13765TIP3    H141240   5.128   3.970   4.447
13765TIP3    H241241   5.075   4.112   4.447
13766TIP3   OH241242   8.208   6.956   3.116
13766TIP3    H141243   8.211   6.873   3.164
13766TIP3    H241244   8.289   6.957   3.065
13767TIP3   OH241245   0.666   2.407   2.644
13767TIP3    H141246   0.720   2.389   2.721
13767TIP3    H241247   0.728   2.411   2.571
13768TIP3   OH241248   1.023   3.856   5.201
13768TIP3    H141249   1.066   3.930   5.159
13768TIP3    H241250   0.966   3.895   5.267
13769TIP3   OH241251   4.860   5.919   5.260
13769TIP3    H141252   4.944   5.874   5.270
13769TIP3    H241253   4.860   5.949   5.169
13770TIP3   OH241254   6.343   0.221   3.399
13770TIP3    H141255   6.388   0.285   3.343
13770TIP3    H241256   6.313   0.272   3.474
13771TIP3   OH241257   6.956   5.025   3.767
13771TIP3    H141258   6.863   5.017   3.786
13771TIP3    H241259   6.975   5.118   3.781
13772TIP3   OH241260   4.940   4.782   3.399
13772TIP3    H141261   4.882   4.858   3.405
13772TIP3    H241262   5.019   4.809   3.446
13773TIP3   OH241263   2.156   6.306   2.223
13773TIP3    H141264   2.060   6.296   2.227
13773TIP3    H241265   2.181   6.327   2.313
13774TIP3   OH241266   0.667   7.132   2.909
13774TIP3    H141267   0.619   7.099   2.985
13774TIP3    H241268   0.741   7.072   2.899
13775TIP3   OH241269   1.533   6.549   3.810
13775TIP3    H141270   1.515   6.460   3.842
13775TIP3    H241271   1.471   6.562   3.739
13776TIP3   OH241272   0.269   1.157   3.084
13776TIP3    H141273   0.269   1.235   3.029
13776TIP3    H241274   0.253   1.190   3.172
13777TIP3   OH241275   1.458   6.240   4.318
13777TIP3    H141276   1.510   6.171   4.360
13777TIP3    H241277   1.518   6.315   4.312
13778TIP3   OH241278   6.332   6.367   5.807
13778TIP3    H141279   6.283   6.375   5.889
13778TIP3    H241280   6.266   6.371   5.738
13779TIP3   OH241281   0.759   2.820   5.412
13779TIP3    H141282   0.726   2.750   5.356
13779TIP3    H241283   0.681   2.865   5.443
13780TIP3   OH241284   3.128   1.199   0.999
13780TIP3    H141285   3.061   1.175   0.935
13780TIP3    H241286   3.080   1.234   1.073
13781TIP3   OH241287   8.239   4.228   1.773
13781TIP3    H141288   8.159   4.268   1.808
13781TIP3    H241289   8.208   4.153   1.722
13782TIP3   OH241290   6.833   4.491   3.842
13782TIP3    H141291   6.747   4.458   3.871
13782TIP3    H241292   6.889   4.483   3.919
13783TIP3   OH241293   4.808   1.383   1.009
13783TIP3    H141294   4.887   1.330   1.017
13783TIP3    H241295   4.737   1.325   1.037
13784TIP3   OH241296   4.974   1.428   3.108
13784TIP3    H141297   4.953   1.437   3.015
13784TIP3    H241298   5.070   1.427   3.110
13785TIP3   OH241299   7.901   3.302   4.782
13785TIP3    H141300   7.933   3.211   4.780
13785TIP3    H241301   7.980   3.355   4.788
13786TIP3   OH241302   1.485   2.282   0.123
13786TIP3    H141303   1.447   2.357   0.170
13786TIP3    H241304   1.431   2.274   0.044
13787TIP3   OH241305   2.274   0.358   2.054
13787TIP3    H141306   2.340   0.396   2.112
13787TIP3    H241307   2.281   0.408   1.973
13788TIP3   OH241308   3.859   6.568   1.879
13788TIP3    H141309   3.902   6.486   1.903
13788TIP3    H241310   3.872   6.625   1.955
13789TIP3   OH241311   0.616   2.696   6.537
13789TIP3    H141312   0.667   2.721   6.614
13789TIP3    H241313   0.609   2.601   6.543
13790TIP3   OH241314   0.825   0.746   2.941
13790TIP3    H141315   0.733   0.761   2.919
13790TIP3    H241316   0.872   0.759   2.859
13791TIP3   OH241317   8.213   0.932   1.105
13791TIP3    H141318   8.153   0.991   1.151
13791TIP3    H241319   8.187   0.844   1.133
13792TIP3   OH241320   3.425   1.508   3.540
13792TIP3    H141321   3.411   1.535   3.449
13792TIP3    H241322   3.470   1.423   3.533
13793TIP3   OH241323   1.149   6.847   0.301
13793TIP3    H141324   1.230   6.863   0.254
13793TIP3    H241325   1.166   6.877   0.390
13794TIP3   OH241326   6.756   0.540   5.605
13794TIP3    H141327   6.709   0.484   5.544
13794TIP3    H241328   6.844   0.549   5.568
13795TIP3   OH241329   5.398   3.457   3.898
13795TIP3    H141330   5.338   3.384   3.889
13795TIP3    H241331   5.484   3.420   3.877
13796TIP3   OH241332   6.195   7.195   2.710
13796TIP3    H141333   6.172   7.283   2.680
13796TIP3    H241334   6.111   7.149   2.714
13797TIP3   OH241335   1.558   2.939   0.851
13797TIP3    H141336   1.611   2.867   0.815
13797TIP3    H241337   1.520   2.903   0.931
13798TIP3   OH241338   6.635   0.683   5.350
13798TIP3    H141339   6.556   0.708   5.397
13798TIP3    H241340   6.604   0.635   5.273
13799TIP3   OH241341   3.101   6.372   1.342
13799TIP3    H141342   3.141   6.454   1.312
13799TIP3    H241343   3.121   6.309   1.272
13800TIP3   OH241344   4.347   3.239   0.043
13800TIP3    H141345   4.287   3.266  -0.027
13800TIP3    H241346   4.293   3.184   0.100
13801TIP3   OH241347   7.703   4.237   2.399
13801TIP3    H141348   7.632   4.279   2.448
13801TIP3    H241349   7.773   4.303   2.398
13802TIP3   OH241350   0.193   0.910   0.245
13802TIP3    H141351   0.245   0.831   0.235
13802TIP3    H241352   0.210   0.938   0.335
13803TIP3   OH241353   2.991   4.436   2.874
13803TIP3    H141354   3.014   4.353   2.834
13803TIP3    H241355   3.052   4.446   2.947
13804TIP3   OH241356   4.786   0.079   4.654
13804TIP3    H141357   4.796  -0.012   4.683
13804TIP3    H241358   4.869   0.100   4.613
13805TIP3   OH241359   6.494   2.013   0.700
13805TIP3    H141360   6.553   1.938   0.711
13805TIP3    H241361   6.540   2.071   0.640
13806TIP3   OH241362   6.215   1.760   5.074
13806TIP3    H141363   6.306   1.764   5.104
13806TIP3    H241364   6.189   1.851   5.062
13807TIP3   OH241365   0.868   6.479   5.771
13807TIP3    H141366   0.805   6.535   5.817
13807TIP3    H241367   0.814   6.415   5.725
13808TIP3   OH241368   3.569   3.693   1.294
13808TIP3    H141369   3.578   3.600   1.270
13808TIP3    H241370   3.638   3.737   1.244
13809TIP3   OH241371   7.765   0.815   4.917
13809TIP3    H141372   7.755   0.796   5.010
13809TIP3    H241373   7.741   0.733   4.873
13810TIP3   OH241374   6.466   5.323   0.361
13810TIP3    H141375   6.554   5.332   0.324
13810TIP3    H241376   6.434   5.240   0.327
13811TIP3   OH241377   1.764   1.606   0.669
13811TIP3    H141378   1.799   1.627   0.756
13811TIP3    H241379   1.779   1.685   0.617
13812TIP3   OH241380   3.719   0.549   4.069
13812TIP3    H141381   3.747   0.618   4.008
13812TIP3    H241382   3.650   0.502   4.021
13813TIP3   OH241383   2.197   4.323   2.774
13813TIP3    H141384   2.211   4.418   2.784
13813TIP3    H241385   2.109   4.316   2.735
13814TIP3   OH241386   5.698   4.147   3.794
13814TIP3    H141387   5.753   4.157   3.871
13814TIP3    H241388   5.759   4.148   3.721
13815TIP3   OH241389   7.018   2.868   2.371
13815TIP3    H141390   6.937   2.910   2.343
13815TIP3    H241391   6.990   2.805   2.438
13816TIP3   OH241392   2.783   3.732   6.039
13816TIP3    H141393   2.822   3.666   6.096
13816TIP3    H241394   2.798   3.700   5.951
13817TIP3   OH241395   5.552   0.045   6.655
13817TIP3    H141396   5.598   0.081   6.731
13817TIP3    H241397   5.475   0.101   6.644
13818TIP3   OH241398   6.997   0.702   2.020
13818TIP3    H141399   6.970   0.643   1.949
13818TIP3    H241400   7.071   0.659   2.061
13819TIP3   OH241401   1.833   2.405   2.002
13819TIP3    H141402   1.810   2.338   1.937
13819TIP3    H241403   1.751   2.420   2.050
13820TIP3   OH241404   1.666   5.938   1.579
13820TIP3    H141405   1.631   5.998   1.514
13820TIP3    H241406   1.759   5.932   1.558
13821TIP3   OH241407   6.675   1.443   5.420
13821TIP3    H141408   6.686   1.408   5.508
13821TIP3    H241409   6.584   1.474   5.418
13822TIP3   OH241410   3.356   5.361   2.074
13822TIP3    H141411   3.261   5.358   2.082
13822TIP3    H241412   3.387   5.352   2.164
13823TIP3   OH241413   3.064   7.301   3.189
13823TIP3    H141414   3.134   7.356   3.155
13823TIP3    H241415   2.989   7.360   3.196
13824TIP3   OH241416   2.257   7.295   2.255
13824TIP3    H141417   2.352   7.311   2.255
13824TIP3    H241418   2.218   7.381   2.265
13825TIP3   OH241419   1.031   7.617   0.252
13825TIP3    H141420   0.957   7.633   0.311
13825TIP3    H241421   0.995   7.564   0.181
13826TIP3   OH241422   3.040   0.168   1.177
13826TIP3    H141423   3.099   0.093   1.186
13826TIP3    H241424   3.072   0.232   1.241
13827TIP3   OH241425   2.848   0.242   0.997
13827TIP3    H141426   2.861   0.164   0.942
13827TIP3    H241427   2.913   0.233   1.067
13828TIP3   OH241428   4.817   6.362   4.716
13828TIP3    H141429   4.808   6.440   4.661
13828TIP3    H241430   4.889   6.313   4.675
13829TIP3   OH241431   1.788   0.060   0.578
13829TIP3    H141432   1.852   0.120   0.618
13829TIP3    H241433   1.706   0.078   0.624
13830TIP3   OH241434   1.671   0.197   4.244
13830TIP3    H141435   1.615   0.269   4.216
13830TIP3    H241436   1.726   0.179   4.167
13831TIP3   OH241437   1.221   6.052   5.750
13831TIP3    H141438   1.280   5.979   5.770
13831TIP3    H241439   1.133   6.014   5.757
13832TIP3   OH241440   7.903   3.216   3.525
13832TIP3    H141441   7.820   3.172   3.507
13832TIP3    H241442   7.901   3.294   3.470
13833TIP3   OH241443   2.786   7.237   1.630
13833TIP3    H141444   2.817   7.184   1.704
13833TIP3    H241445   2.700   7.201   1.610
13834TIP3   OH241446   5.631   4.037   0.678
13834TIP3    H141447   5.674   4.114   0.641
13834TIP3    H241448   5.614   3.980   0.603
13835TIP3   OH241449   1.622   1.706   2.252
13835TIP3    H141450   1.697   1.750   2.294
13835TIP3    H241451   1.658   1.671   2.170
13836TIP3   OH241452   0.569   0.613   4.066
13836TIP3    H141453   0.477   0.597   4.085
13836TIP3    H241454   0.575   0.610   3.970
13837TIP3   OH241455   4.093   3.644   4.333
13837TIP3    H141456   4.045   3.589   4.269
13837TIP3    H241457   4.056   3.731   4.321
13838TIP3   OH241458   1.800   1.741   6.020
13838TIP3    H141459   1.710   1.756   6.049
13838TIP3    H241460   1.790   1.698   5.935
13839TIP3   OH241461   2.530   0.713   3.309
13839TIP3    H141462   2.511   0.634   3.360
13839TIP3    H241463   2.460   0.774   3.334
13840TIP3   OH241464   1.003   0.371   5.622
13840TIP3    H141465   1.083   0.321   5.637
13840TIP3    H241466   0.932   0.309   5.639
13841TIP3   OH241467   7.920   4.382   4.139
13841TIP3    H141468   7.908   4.352   4.049
13841TIP3    H241469   7.912   4.477   4.133
13842TIP3   OH241470   1.392   3.017   5.617
13842TIP3    H141471   1.464   3.050   5.670
13842TIP3    H241472   1.323   3.082   5.626
13843TIP3   OH241473   0.744   1.918   2.835
13843TIP3    H141474   0.813   1.983   2.849
13843TIP3    H241475   0.780   1.860   2.767
13844TIP3   OH241476   6.305   5.421   4.913
13844TIP3    H141477   6.366   5.484   4.952
13844TIP3    H241478   6.225   5.470   4.899
13845TIP3   OH241479   0.661   2.130   1.097
13845TIP3    H141480   0.630   2.181   1.022
13845TIP3    H241481   0.597   2.059   1.105
13846TIP3   OH241482   1.085   1.973   0.479
13846TIP3    H141483   1.089   1.961   0.574
13846TIP3    H241484   1.137   1.901   0.444
13847TIP3   OH241485   2.038   3.660   2.850
13847TIP3    H141486   1.943   3.659   2.860
13847TIP3    H241487   2.057   3.745   2.810
13848TIP3   OH241488   6.758   0.561   4.319
13848TIP3    H141489   6.690   0.616   4.278
13848TIP3    H241490   6.834   0.619   4.327
13849TIP3   OH241491   0.298   1.935   2.091
13849TIP3    H141492   0.226   1.934   2.153
13849TIP3    H241493   0.342   1.851   2.103
13850TIP3   OH241494   4.807   3.967   0.929
13850TIP3    H141495   4.860   3.906   0.980
13850TIP3    H241496   4.798   3.925   0.843
13851TIP3   OH241497   2.062   7.017   6.533
13851TIP3    H141498   1.967   7.020   6.521
13851TIP3    H241499   2.088   6.932   6.498
13852TIP3   OH241500   4.181   4.520   5.903
13852TIP3    H141501   4.101   4.528   5.955
13852TIP3    H241502   4.173   4.589   5.837
13853TIP3   OH241503   5.629   1.685   1.315
13853TIP3    H141504   5.639   1.619   1.383
13853TIP3    H241505   5.570   1.644   1.251
13854TIP3   OH241506   5.730   2.567   4.867
13854TIP3    H141507   5.756   2.501   4.931
13854TIP3    H241508   5.691   2.517   4.795
13855TIP3   OH241509   8.020   5.902   5.666
13855TIP3    H141510   7.982   5.983   5.632
13855TIP3    H241511   8.009   5.838   5.596
13856TIP3   OH241512   4.179   4.793   6.345
13856TIP3    H141513   4.142   4.705   6.348
13856TIP3    H241514   4.193   4.810   6.252
13857TIP3   OH241515   1.770   4.560   2.240
13857TIP3    H141516   1.754   4.638   2.186
13857TIP3    H241517   1.825   4.504   2.186
13858TIP3   OH241518   3.462   2.715   6.050
13858TIP3    H141519   3.487   2.623   6.038
13858TIP3    H241520   3.444   2.723   6.144
13859TIP3   OH241521   4.859   6.754   6.078
13859TIP3    H141522   4.818   6.672   6.052
13859TIP3    H241523   4.940   6.758   6.026
13860TIP3   OH241524   5.734   5.545   1.044
13860TIP3    H141525   5.706   5.580   0.959
13860TIP3    H241526   5.823   5.512   1.028
13861TIP3   OH241527   7.497   5.463   3.188
13861TIP3    H141528   7.490   5.369   3.207
13861TIP3    H241529   7.413   5.487   3.151
13862TIP3   OH241530   1.790   5.661   5.088
13862TIP3    H141531   1.711   5.712   5.068
13862TIP3    H241532   1.757   5.572   5.101
13863TIP3   OH241533   6.069   4.479   5.981
13863TIP3    H141534   5.975   4.461   5.984
13863TIP3    H241535   6.109   4.398   6.012
13864TIP3   OH241536   2.760   5.163   5.474
13864TIP3    H141537   2.799   5.075   5.468
13864TIP3    H241538   2.834   5.220   5.496
13865TIP3   OH241539   0.223   6.484   0.911
13865TIP3    H141540   0.136   6.496   0.874
13865TIP3    H241541   0.241   6.391   0.903
13866TIP3   OH241542   4.799   5.915   3.668
13866TIP3    H141543   4.871   5.930   3.607
13866TIP3    H241544   4.755   5.837   3.633
13867TIP3   OH241545   0.653   4.040   1.216
13867TIP3    H141546   0.562   4.038   1.247
13867TIP3    H241547   0.662   3.959   1.165
13868TIP3   OH241548   0.274   6.070   2.753
13868TIP3    H141549   0.202   6.084   2.815
13868TIP3    H241550   0.353   6.077   2.807
13869TIP3   OH241551   1.234   0.850   5.704
13869TIP3    H141552   1.298   0.897   5.757
13869TIP3    H241553   1.168   0.820   5.767
13870TIP3   OH241554   4.026   3.323   4.586
13870TIP3    H141555   3.977   3.343   4.666
13870TIP3    H241556   3.960   3.327   4.517
13871TIP3   OH241557   4.935   4.390   2.213
13871TIP3    H141558   4.955   4.422   2.125
13871TIP3    H241559   5.002   4.431   2.269
13872TIP3   OH241560   5.051   1.057   4.804
13872TIP3    H141561   4.956   1.068   4.811
13872TIP3    H241562   5.065   1.030   4.713
13873TIP3   OH241563   2.873   7.140   6.100
13873TIP3    H141564   2.910   7.057   6.131
13873TIP3    H241565   2.782   7.137   6.129
13874TIP3   OH241566   4.658   3.732   1.067
13874TIP3    H141567   4.597   3.801   1.094
13874TIP3    H241568   4.694   3.699   1.149
13875TIP3   OH241569   3.913   6.308   2.333
13875TIP3    H141570   3.953   6.395   2.340
13875TIP3    H241571   3.822   6.326   2.307
13876TIP3   OH241572   0.039   6.971   0.432
13876TIP3    H141573   0.034   6.935   0.343
13876TIP3    H241574   0.047   7.065   0.419
13877TIP3   OH241575   4.668   7.453   2.302
13877TIP3    H141576   4.745   7.509   2.304
13877TIP3    H241577   4.700   7.369   2.270
13878TIP3   OH241578   6.477   5.856   1.232
13878TIP3    H141579   6.518   5.859   1.145
13878TIP3    H241580   6.483   5.764   1.258
13879TIP3   OH241581   6.531   4.560   5.334
13879TIP3    H141582   6.495   4.562   5.246
13879TIP3    H241583   6.599   4.493   5.331
13880TIP3   OH241584   5.342   0.633   1.579
13880TIP3    H141585   5.397   0.556   1.590
13880TIP3    H241586   5.317   0.658   1.668
13881TIP3   OH241587   7.501   1.626   2.448
13881TIP3    H141588   7.442   1.620   2.373
13881TIP3    H241589   7.542   1.540   2.454
13882TIP3   OH241590   7.288   4.318   3.134
13882TIP3    H141591   7.306   4.408   3.107
13882TIP3    H241592   7.257   4.276   3.054
13883TIP3   OH241593  -0.019   2.951   2.285
13883TIP3    H141594   0.070   2.923   2.264
13883TIP3    H241595  -0.075   2.889   2.239
13884TIP3   OH241596   1.864   4.408   5.224
13884TIP3    H141597   1.938   4.372   5.272
13884TIP3    H241598   1.832   4.480   5.278
13885TIP3   OH241599   8.213   0.789   0.808
13885TIP3    H141600   8.300   0.828   0.808
13885TIP3    H241601   8.219   0.718   0.872
13886TIP3   OH241602   4.154   6.562   4.685
13886TIP3    H141603   4.219   6.497   4.660
13886TIP3    H241604   4.204   6.632   4.727
13887TIP3   OH241605   1.907   0.473   5.878
13887TIP3    H141606   1.871   0.551   5.835
13887TIP3    H241607   1.865   0.472   5.964
13888TIP3   OH241608   4.538   5.092   0.255
13888TIP3    H141609   4.554   5.084   0.349
13888TIP3    H241610   4.459   5.146   0.248
13889TIP3   OH241611   4.644   7.511   6.694
13889TIP3    H141612   4.681   7.434   6.737
13889TIP3    H241613   4.627   7.482   6.605
13890TIP3   OH241614   3.423   2.114   4.230
13890TIP3    H141615   3.362   2.074   4.168
13890TIP3    H241616   3.502   2.059   4.224
13891TIP3   OH241617   7.461   5.032   4.156
13891TIP3    H141618   7.420   5.108   4.199
13891TIP3    H241619   7.387   4.980   4.124
13892TIP3   OH241620   1.143   0.845   1.818
13892TIP3    H141621   1.140   0.919   1.757
13892TIP3    H241622   1.207   0.785   1.780
13893TIP3   OH241623   0.393   2.604   3.911
13893TIP3    H141624   0.477   2.558   3.905
13893TIP3    H241625   0.344   2.556   3.978
13894TIP3   OH241626   5.379   1.171   4.521
13894TIP3    H141627   5.465   1.174   4.480
13894TIP3    H241628   5.328   1.238   4.476
13895TIP3   OH241629   1.460   2.656   5.232
13895TIP3    H141630   1.435   2.718   5.300
13895TIP3    H241631   1.520   2.595   5.276
13896TIP3   OH241632   0.019   5.536   4.735
13896TIP3    H141633   0.049   5.561   4.647
13896TIP3    H241634   0.020   5.440   4.733
13897TIP3   OH241635   2.986   7.482   0.268
13897TIP3    H141636   2.951   7.445   0.349
13897TIP3    H241637   2.982   7.411   0.204
13898TIP3   OH241638   5.762   4.155   6.171
13898TIP3    H141639   5.848   4.113   6.161
13898TIP3    H241640   5.730   4.122   6.255
13899TIP3   OH241641   3.495   4.251   1.523
13899TIP3    H141642   3.491   4.244   1.428
13899TIP3    H241643   3.586   4.230   1.545
13900TIP3   OH241644   1.432   4.931   5.977
13900TIP3    H141645   1.450   4.874   6.052
13900TIP3    H241646   1.501   4.998   5.981
13901TIP3   OH241647   2.644   4.280   4.106
13901TIP3    H141648   2.565   4.233   4.079
13901TIP3    H241649   2.716   4.224   4.077
13902TIP3   OH241650   1.285   3.692   1.382
13902TIP3    H141651   1.239   3.714   1.301
13902TIP3    H241652   1.377   3.705   1.362
13903TIP3   OH241653   4.254   4.119   0.416
13903TIP3    H141654   4.208   4.037   0.436
13903TIP3    H241655   4.338   4.091   0.379
13904TIP3   OH241656   3.010   0.139   5.125
13904TIP3    H141657   2.930   0.145   5.178
13904TIP3    H241658   2.987   0.078   5.054
13905TIP3   OH241659   2.254   4.841   5.441
13905TIP3    H141660   2.315   4.816   5.510
13905TIP3    H241661   2.192   4.768   5.435
13906TIP3   OH241662   0.865   5.840   1.831
13906TIP3    H141663   0.795   5.777   1.812
13906TIP3    H241664   0.943   5.802   1.792
13907TIP3   OH241665   7.992   5.859   3.729
13907TIP3    H141666   8.080   5.872   3.765
13907TIP3    H241667   7.998   5.892   3.640
13908TIP3   OH241668   4.838   6.493   1.851
13908TIP3    H141669   4.843   6.407   1.810
13908TIP3    H241670   4.787   6.479   1.931
13909TIP3   OH241671   4.096   7.015   3.108
13909TIP3    H141672   4.147   7.072   3.050
13909TIP3    H241673   4.055   7.075   3.170
13910TIP3   OH241674   6.992   5.707   5.034
13910TIP3    H141675   6.935   5.647   4.985
13910TIP3    H241676   7.077   5.700   4.990
13911TIP3   OH241677   1.473   1.090   4.552
13911TIP3    H141678   1.550   1.086   4.610
13911TIP3    H241679   1.409   1.140   4.603
13912TIP3   OH241680   3.381   1.537   3.845
13912TIP3    H141681   3.424   1.515   3.762
13912TIP3    H241682   3.405   1.467   3.904
13913TIP3   OH241683   0.507   4.927   5.625
13913TIP3    H141684   0.452   4.861   5.585
13913TIP3    H241685   0.448   5.000   5.645
13914TIP3   OH241686   0.624   3.388   1.176
13914TIP3    H141687   0.566   3.326   1.132
13914TIP3    H241688   0.712   3.359   1.151
13915TIP3   OH241689   2.127   1.521   2.027
13915TIP3    H141690   2.080   1.544   1.948
13915TIP3    H241691   2.177   1.442   2.004
13916TIP3   OH241692   2.601   4.341   5.509
13916TIP3    H141693   2.611   4.432   5.537
13916TIP3    H241694   2.507   4.328   5.504
13917TIP3   OH241695   8.141   1.342   4.230
13917TIP3    H141696   8.218   1.387   4.264
13917TIP3    H241697   8.155   1.250   4.251
13918TIP3   OH241698   0.990   0.608   4.127
13918TIP3    H141699   0.911   0.654   4.155
13918TIP3    H241700   0.984   0.522   4.169
13919TIP3   OH241701   0.082   2.613   2.755
13919TIP3    H141702   0.128   2.653   2.829
13919TIP3    H241703   0.001   2.580   2.792
13920TIP3   OH241704   2.957   7.332   6.568
13920TIP3    H141705   2.959   7.288   6.483
13920TIP3    H241706   2.864   7.337   6.590
13921TIP3   OH241707   3.549   3.272   2.652
13921TIP3    H141708   3.636   3.311   2.649
13921TIP3    H241709   3.564   3.178   2.650
13922TIP3   OH241710   2.961   6.243   5.402
13922TIP3    H141711   3.047   6.206   5.425
13922TIP3    H241712   2.899   6.172   5.417
13923TIP3   OH241713   0.184   2.183   3.909
13923TIP3    H141714   0.095   2.215   3.895
13923TIP3    H241715   0.234   2.218   3.835
13924TIP3   OH241716   2.248   1.273   2.343
13924TIP3    H141717   2.284   1.327   2.273
13924TIP3    H241718   2.165   1.240   2.309
13925TIP3   OH241719   0.548   6.679   6.171
13925TIP3    H141720   0.453   6.681   6.169
13925TIP3    H241721   0.571   6.697   6.262
13926TIP3   OH241722   8.224   5.012   5.146
13926TIP3    H141723   8.192   4.987   5.233
13926TIP3    H241724   8.291   5.078   5.164
13927TIP3   OH241725   4.301   0.569   3.966
13927TIP3    H141726   4.307   0.638   3.901
13927TIP3    H241727   4.240   0.603   4.032
13928TIP3   OH241728   0.947   0.394   5.265
13928TIP3    H141729   0.949   0.308   5.306
13928TIP3    H241730   0.856   0.421   5.270
13929TIP3   OH241731   1.290   5.504   3.107
13929TIP3    H141732   1.355   5.523   3.175
13929TIP3    H241733   1.312   5.565   3.036
13930TIP3   OH241734   8.122   6.538   3.831
13930TIP3    H141735   8.106   6.625   3.868
13930TIP3    H241736   8.152   6.486   3.906
13931TIP3   OH241737   4.186   0.691   4.162
13931TIP3    H141738   4.226   0.636   4.230
13931TIP3    H241739   4.092   0.678   4.173
13932TIP3   OH241740   6.818   0.314   4.216
13932TIP3    H141741   6.727   0.290   4.201
13932TIP3    H241742   6.816   0.407   4.239
13933TIP3   OH241743   1.255   1.407   2.447
13933TIP3    H141744   1.339   1.383   2.409
13933TIP3    H241745   1.227   1.484   2.397
13934TIP3   OH241746   4.280   7.744   3.899
13934TIP3    H141747   4.249   7.661   3.863
13934TIP3    H241748   4.290   7.727   3.993
13935TIP3   OH241749   6.965   5.044   1.579
13935TIP3    H141750   6.918   4.960   1.581
13935TIP3    H241751   6.954   5.080   1.667
13936TIP3   OH241752   3.523   1.509   5.742
13936TIP3    H141753   3.577   1.582   5.772
13936TIP3    H241754   3.497   1.463   5.822
13937TIP3   OH241755   3.423   2.754   5.272
13937TIP3    H141756   3.427   2.685   5.206
13937TIP3    H241757   3.494   2.814   5.248
13938TIP3   OH241758   4.778   5.982   1.934
13938TIP3    H141759   4.749   5.895   1.907
13938TIP3    H241760   4.854   5.965   1.989
13939TIP3   OH241761   0.898   3.733   3.251
13939TIP3    H141762   0.870   3.824   3.240
13939TIP3    H241763   0.830   3.693   3.305
13940TIP3   OH241764   6.104   5.406   5.424
13940TIP3    H141765   6.196   5.386   5.411
13940TIP3    H241766   6.100   5.450   5.509
13941TIP3   OH241767   0.961   4.484   2.699
13941TIP3    H141768   0.921   4.416   2.754
13941TIP3    H241769   0.949   4.565   2.748
13942TIP3   OH241770   3.338  -0.046   1.247
13942TIP3    H141771   3.342   0.044   1.279
13942TIP3    H241772   3.421  -0.059   1.201
13943TIP3   OH241773   4.156   6.293   5.479
13943TIP3    H141774   4.112   6.338   5.407
13943TIP3    H241775   4.141   6.200   5.462
13944TIP3   OH241776   4.292   5.423   6.546
13944TIP3    H141777   4.367   5.481   6.534
13944TIP3    H241778   4.219   5.467   6.503
13945TIP3   OH241779   4.803   6.530   2.940
13945TIP3    H141780   4.718   6.495   2.912
13945TIP3    H241781   4.797   6.536   3.035
13946TIP3   OH241782   3.606   5.345   4.059
13946TIP3    H141783   3.524   5.310   4.025
13946TIP3    H241784   3.635   5.279   4.123
13947TIP3   OH241785   6.974   1.535   4.881
13947TIP3    H141786   6.928   1.616   4.899
13947TIP3    H241787   6.939   1.505   4.797
13948TIP3   OH241788   6.885   1.482   4.166
13948TIP3    H141789   6.813   1.422   4.187
13948TIP3    H241790   6.948   1.471   4.237
13949TIP3   OH241791   4.742   4.642   6.213
13949TIP3    H141792   4.646   4.648   6.220
13949TIP3    H241793   4.763   4.689   6.132
13950TIP3   OH241794   2.178   2.824   6.527
13950TIP3    H141795   2.102   2.784   6.569
13950TIP3    H241796   2.163   2.813   6.433
13951TIP3   OH241797   3.434   7.219   4.257
13951TIP3    H141798   3.391   7.228   4.342
13951TIP3    H241799   3.521   7.258   4.270
13952TIP3   OH241800   1.648   6.358   5.517
13952TIP3    H141801   1.598   6.290   5.471
13952TIP3    H241802   1.727   6.313   5.549
13953TIP3   OH241803   7.082   4.162   4.446
13953TIP3    H141804   7.128   4.176   4.364
13953TIP3    H241805   7.149   4.172   4.514
13954TIP3   OH241806   5.259   6.172   4.145
13954TIP3    H141807   5.265   6.197   4.237
13954TIP3    H241808   5.178   6.123   4.138
13955TIP3   OH241809   5.728   2.946   3.331
13955TIP3    H141810   5.639   2.934   3.297
13955TIP3    H241811   5.740   3.040   3.332
13956TIP3   OH241812   3.634   3.512   2.055
13956TIP3    H141813   3.717   3.464   2.052
13956TIP3    H241814   3.655   3.591   2.105
13957TIP3   OH241815   6.892   0.450   0.027
13957TIP3    H141816   6.816   0.458   0.086
13957TIP3    H241817   6.967   0.446   0.086
13958TIP3   OH241818   0.852   1.465   4.720
13958TIP3    H141819   0.824   1.551   4.751
13958TIP3    H241820   0.772   1.413   4.719
13959TIP3   OH241821   5.129   1.289   5.923
13959TIP3    H141822   5.184   1.269   5.847
13959TIP3    H241823   5.180   1.353   5.973
13960TIP3   OH241824   5.457   2.612   4.709
13960TIP3    H141825   5.437   2.605   4.802
13960TIP3    H241826   5.378   2.651   4.670
13961TIP3   OH241827   0.596   7.063   3.182
13961TIP3    H141828   0.615   6.969   3.179
13961TIP3    H241829   0.572   7.080   3.273
13962TIP3   OH241830   4.619   1.709   6.268
13962TIP3    H141831   4.577   1.771   6.328
13962TIP3    H241832   4.713   1.719   6.286
13963TIP3   OH241833   5.350   6.186   0.768
13963TIP3    H141834   5.432   6.143   0.791
13963TIP3    H241835   5.357   6.204   0.674
13964TIP3   OH241836   3.427   2.608   6.434
13964TIP3    H141837   3.451   2.626   6.525
13964TIP3    H241838   3.497   2.647   6.382
13965TIP3   OH241839   1.610   3.549   4.487
13965TIP3    H141840   1.556   3.568   4.410
13965TIP3    H241841   1.552   3.566   4.561
13966TIP3   OH241842   7.834   0.501   1.670
13966TIP3    H141843   7.929   0.494   1.657
13966TIP3    H241844   7.804   0.411   1.679
13967TIP3   OH241845   7.797   2.383   1.619
13967TIP3    H141846   7.887   2.414   1.608
13967TIP3    H241847   7.743   2.459   1.597
13968TIP3   OH241848   1.963   6.342   2.907
13968TIP3    H141849   2.049   6.302   2.892
13968TIP3    H241850   1.908   6.270   2.938
13969TIP3   OH241851   1.858   0.989   2.169
13969TIP3    H141852   1.770   0.957   2.182
13969TIP3    H241853   1.914   0.930   2.219
13970TIP3   OH241854   0.233   3.224   4.236
13970TIP3    H141855   0.205   3.202   4.325
13970TIP3    H241856   0.263   3.314   4.242
13971TIP3   OH241857   6.118   4.740   6.656
13971TIP3    H141858   6.032   4.700   6.674
13971TIP3    H241859   6.116   4.760   6.562
13972TIP3   OH241860   0.934   7.010   4.220
13972TIP3    H141861   0.964   6.923   4.245
13972TIP3    H241862   0.920   7.055   4.303
13973TIP3   OH241863   4.916   3.114   6.619
13973TIP3    H141864   4.948   3.198   6.588
13973TIP3    H241865   4.948   3.051   6.555
13974TIP3   OH241866   0.317   2.903   5.619
13974TIP3    H141867   0.281   2.815   5.609
13974TIP3    H241868   0.252   2.960   5.576
13975TIP3   OH241869   5.443   5.697   3.129
13975TIP3    H141870   5.483   5.741   3.204
13975TIP3    H241871   5.458   5.604   3.145
13976TIP3   OH241872   4.167   4.619   4.063
13976TIP3    H141873   4.238   4.558   4.080
13976TIP3    H241874   4.087   4.567   4.076
13977TIP3   OH241875   5.880   0.166   6.353
13977TIP3    H141876   5.956   0.123   6.392
13977TIP3    H241877   5.885   0.146   6.260
13978TIP3   OH241878   6.725   7.301   2.684
13978TIP3    H141879   6.721   7.316   2.589
13978TIP3    H241880   6.741   7.207   2.692
13979TIP3   OH241881   0.775   3.188   1.411
13979TIP3    H141882   0.702   3.126   1.402
13979TIP3    H241883   0.735   3.274   1.398
13980TIP3   OH241884   5.215   3.713   0.389
13980TIP3    H141885   5.249   3.693   0.301
13980TIP3    H241886   5.249   3.643   0.444
13981TIP3   OH241887   7.807   7.764   2.777
13981TIP3    H141888   7.872   7.701   2.807
13981TIP3    H241889   7.853   7.817   2.711
13982TIP3   OH241890   7.017   6.052   6.106
13982TIP3    H141891   7.013   6.125   6.044
13982TIP3    H241892   6.949   5.992   6.076
13983TIP3   OH241893   8.240   7.414   0.702
13983TIP3    H141894   8.266   7.505   0.685
13983TIP3    H241895   8.316   7.362   0.674
13984TIP3   OH241896   6.086   2.829   0.423
13984TIP3    H141897   6.159   2.778   0.456
13984TIP3    H241898   6.090   2.817   0.328
13985TIP3   OH241899   1.475   7.829   2.114
13985TIP3    H141900   1.423   7.880   2.051
13985TIP3    H241901   1.470   7.739   2.083
13986TIP3   OH241902   0.216   5.148   3.628
13986TIP3    H141903   0.282   5.187   3.571
13986TIP3    H241904   0.252   5.062   3.651
13987TIP3   OH241905   7.288   3.880   6.623
13987TIP3    H141906   7.301   3.842   6.710
13987TIP3    H241907   7.315   3.971   6.633
13988TIP3   OH241908   0.828   1.534   1.438
13988TIP3    H141909   0.812   1.587   1.516
13988TIP3    H241910   0.865   1.595   1.374
13989TIP3   OH241911   7.506   4.639   1.089
13989TIP3    H141912   7.484   4.583   1.163
13989TIP3    H241913   7.548   4.715   1.129
13990TIP3   OH241914   4.747   6.542   5.646
13990TIP3    H141915   4.766   6.527   5.554
13990TIP3    H241916   4.831   6.570   5.684
13991TIP3   OH241917   7.292   3.183   5.951
13991TIP3    H141918   7.197   3.183   5.940
13991TIP3    H241919   7.305   3.195   6.045
13992TIP3   OH241920   7.252   2.982   2.193
13992TIP3    H141921   7.315   2.986   2.121
13992TIP3    H241922   7.268   2.897   2.234
13993TIP3   OH241923   0.260   6.595   3.712
13993TIP3    H141924   0.267   6.690   3.704
13993TIP3    H241925   0.351   6.565   3.720
13994TIP3   OH241926   3.104   6.994   1.595
13994TIP3    H141927   3.014   6.974   1.570
13994TIP3    H241928   3.158   6.937   1.539
13995TIP3   OH241929   3.490   6.945   5.421
13995TIP3    H141930   3.439   6.932   5.341
13995TIP3    H241931   3.528   7.032   5.411
13996TIP3   OH241932   4.696   5.439   1.897
13996TIP3    H141933   4.649   5.485   1.828
13996TIP3    H241934   4.629   5.418   1.962
13997TIP3   OH241935   3.031   0.373   6.211
13997TIP3    H141936   3.110   0.388   6.262
13997TIP3    H241937   3.061   0.329   6.132
13998TIP3   OH241938   0.389   1.166   3.440
13998TIP3    H141939   0.447   1.174   3.364
13998TIP3    H241940   0.371   1.256   3.466
13999TIP3   OH241941   4.438   4.796   5.673
13999TIP3    H141942   4.478   4.810   5.759
13999TIP3    H241943   4.510   4.806   5.611
14000TIP3   OH241944   3.128   6.712   5.331
14000TIP3    H141945   3.137   6.630   5.282
14000TIP3    H241946   3.177   6.697   5.412
14001TIP3   OH241947   2.461   7.218   1.882
14001TIP3    H141948   2.529   7.276   1.916
14001TIP3    H241949   2.381   7.270   1.884
14002TIP3   OH241950   0.778   0.879   2.491
14002TIP3    H141951   0.796   0.809   2.429
14002TIP3    H241952   0.801   0.960   2.445
14003TIP3   OH241953   2.199   0.693   4.793
14003TIP3    H141954   2.181   0.693   4.887
14003TIP3    H241955   2.210   0.785   4.771
14004TIP3   OH241956   2.952   0.389   3.845
14004TIP3    H141957   2.876   0.439   3.875
14004TIP3    H241958   3.006   0.454   3.798
14005TIP3   OH241959   7.497   2.497   0.999
14005TIP3    H141960   7.590   2.487   1.020
14005TIP3    H241961   7.491   2.584   0.958
14006TIP3   OH241962   0.811   6.953   5.366
14006TIP3    H141963   0.736   6.901   5.396
14006TIP3    H241964   0.869   6.958   5.442
14007TIP3   OH241965   4.680   7.423   5.136
14007TIP3    H141966   4.637   7.500   5.098
14007TIP3    H241967   4.629   7.402   5.214
14008TIP3   OH241968   1.245   4.727   5.584
14008TIP3    H141969   1.192   4.765   5.654
14008TIP3    H241970   1.335   4.733   5.615
14009TIP3   OH241971   5.157   2.870   1.383
14009TIP3    H141972   5.130   2.894   1.472
14009TIP3    H241973   5.079   2.887   1.329
14010TIP3   OH241974   3.238   2.583   0.552
14010TIP3    H141975   3.214   2.662   0.504
14010TIP3    H241976   3.155   2.538   0.567
14011TIP3   OH241977   3.261   0.675   1.751
14011TIP3    H141978   3.271   0.763   1.787
14011TIP3    H241979   3.329   0.623   1.794
14012TIP3   OH241980   5.108   0.374   1.660
14012TIP3    H141981   5.102   0.433   1.585
14012TIP3    H241982   5.023   0.380   1.703
14013TIP3   OH241983   1.747   4.114   5.914
14013TIP3    H141984   1.665   4.135   5.871
14013TIP3    H241985   1.758   4.020   5.902
14014TIP3   OH241986   1.200   7.481   2.239
14014TIP3    H141987   1.128   7.417   2.241
14014TIP3    H241988   1.279   7.428   2.239
14015TIP3   OH241989   2.512   0.436   5.641
14015TIP3    H141990   2.453   0.433   5.566
14015TIP3    H241991   2.461   0.399   5.713
14016TIP3   OH241992   3.048   4.455   5.722
14016TIP3    H141993   3.010   4.523   5.778
14016TIP3    H241994   3.124   4.496   5.682
14017TIP3   OH241995   0.963   6.898   5.159
14017TIP3    H141996   0.994   6.983   5.127
14017TIP3    H241997   0.897   6.919   5.225
14018TIP3   OH241998   5.151   4.203   1.917
14018TIP3    H141999   5.175   4.161   2.000
14018TIP3    H242000   5.162   4.296   1.933
14019TIP3   OH242001   4.042   6.443   1.273
14019TIP3    H142002   4.119   6.497   1.290
14019TIP3    H242003   4.071   6.353   1.291
14020TIP3   OH242004   2.906   0.376   4.887
14020TIP3    H142005   2.841   0.418   4.943
14020TIP3    H242006   2.957   0.321   4.946
14021TIP3   OH242007   5.255   3.689   2.995
14021TIP3    H142008   5.168   3.693   2.955
14021TIP3    H242009   5.306   3.757   2.951
14022TIP3   OH242010   2.693   6.356   1.357
14022TIP3    H142011   2.639   6.309   1.421
14022TIP3    H242012   2.782   6.329   1.378
14023TIP3   OH242013   1.375   6.225   6.061
14023TIP3    H142014   1.320   6.228   5.982
14023TIP3    H242015   1.398   6.133   6.071
14024TIP3   OH242016   6.330   1.990   3.147
14024TIP3    H142017   6.311   1.896   3.155
14024TIP3    H242018   6.277   2.019   3.073
14025TIP3   OH242019   5.339   3.268   6.173
14025TIP3    H142020   5.406   3.291   6.108
14025TIP3    H242021   5.373   3.305   6.255
14026TIP3   OH242022   4.207   0.703   0.570
14026TIP3    H142023   4.211   0.779   0.513
14026TIP3    H242024   4.147   0.643   0.526
14027TIP3   OH242025   3.929   7.735   2.504
14027TIP3    H142026   3.929   7.680   2.582
14027TIP3    H242027   4.021   7.744   2.481
14028TIP3   OH242028   2.032   7.769   2.821
14028TIP3    H142029   2.068   7.857   2.813
14028TIP3    H242030   1.937   7.781   2.813
14029TIP3   OH242031   3.274   5.667   0.099
14029TIP3    H142032   3.284   5.652   0.193
14029TIP3    H242033   3.364   5.676   0.066
14030TIP3   OH242034   6.791   5.454   3.038
14030TIP3    H142035   6.732   5.527   3.055
14030TIP3    H242036   6.743   5.397   2.978
14031TIP3   OH242037   7.482   3.343   1.205
14031TIP3    H142038   7.391   3.329   1.176
14031TIP3    H242039   7.476   3.353   1.300
14032TIP3   OH242040   3.943   6.318   0.272
14032TIP3    H142041   3.872   6.281   0.325
14032TIP3    H242042   4.002   6.359   0.335
14033TIP3   OH242043   3.109   7.391   2.277
14033TIP3    H142044   3.187   7.346   2.310
14033TIP3    H242045   3.094   7.462   2.339
14034TIP3   OH242046   2.348   2.483   6.432
14034TIP3    H142047   2.365   2.406   6.487
14034TIP3    H242048   2.345   2.556   6.494
14035TIP3   OH242049   1.950   5.273   2.900
14035TIP3    H142050   2.036   5.302   2.870
14035TIP3    H242051   1.937   5.188   2.857
14036TIP3   OH242052   6.811   4.098   2.136
14036TIP3    H142053   6.871   4.063   2.069
14036TIP3    H242054   6.779   4.020   2.181
14037TIP3   OH242055   6.518   5.245   5.234
14037TIP3    H142056   6.549   5.215   5.320
14037TIP3    H242057   6.598   5.267   5.186
14038TIP3   OH242058   8.000   4.003   3.161
14038TIP3    H142059   8.015   4.059   3.238
14038TIP3    H242060   8.081   3.952   3.152
14039TIP3   OH242061   7.115   5.287   2.699
14039TIP3    H142062   7.046   5.340   2.659
14039TIP3    H242063   7.099   5.294   2.793
14040TIP3   OH242064   3.085   1.647   0.353
14040TIP3    H142065   3.087   1.585   0.426
14040TIP3    H242066   3.081   1.733   0.395
14041TIP3   OH242067   1.493   6.866   0.406
14041TIP3    H142068   1.457   6.955   0.403
14041TIP3    H242069   1.416   6.810   0.403
14042TIP3   OH242070   4.856   7.724   4.645
14042TIP3    H142071   4.812   7.690   4.566
14042TIP3    H242072   4.788   7.720   4.713
14043TIP3   OH242073   7.451   1.722   1.051
14043TIP3    H142074   7.371   1.734   1.001
14043TIP3    H242075   7.497   1.650   1.007
14044TIP3   OH242076   7.127   6.281   1.189
14044TIP3    H142077   7.126   6.321   1.276
14044TIP3    H242078   7.073   6.202   1.200
14045TIP3   OH242079   5.275   7.250   5.902
14045TIP3    H142080   5.256   7.290   5.987
14045TIP3    H242081   5.307   7.322   5.848
14046TIP3   OH242082   5.519   3.754   3.696
14046TIP3    H142083   5.588   3.730   3.758
14046TIP3    H242084   5.544   3.711   3.614
14047TIP3   OH242085   3.511   2.129   4.691
14047TIP3    H142086   3.598   2.091   4.704
14047TIP3    H242087   3.506   2.201   4.754
14048TIP3   OH242088   2.306   6.023   2.357
14048TIP3    H142089   2.247   6.012   2.432
14048TIP3    H242090   2.265   5.973   2.287
14049TIP3   OH242091   5.812   1.528   4.935
14049TIP3    H142092   5.775   1.583   4.866
14049TIP3    H242093   5.906   1.547   4.933
14050TIP3   OH242094   3.578   3.859   2.870
14050TIP3    H142095   3.602   3.768   2.888
14050TIP3    H242096   3.651   3.911   2.904
14051TIP3   OH242097   5.240   0.612   2.770
14051TIP3    H142098   5.240   0.611   2.866
14051TIP3    H242099   5.234   0.705   2.747
14052TIP3   OH242100   7.875   0.520   0.647
14052TIP3    H142101   7.885   0.549   0.738
14052TIP3    H242102   7.951   0.556   0.601
14053TIP3   OH242103   0.435   5.210   5.785
14053TIP3    H142104   0.362   5.149   5.786
14053TIP3    H242105   0.430   5.255   5.869
14054TIP3   OH242106   7.986   0.227   4.308
14054TIP3    H142107   7.943   0.237   4.223
14054TIP3    H242108   8.079   0.217   4.286
14055TIP3   OH242109   7.509   6.575   3.465
14055TIP3    H142110   7.572   6.517   3.507
14055TIP3    H242111   7.540   6.582   3.375
14056TIP3   OH242112   2.495   7.066   1.057
14056TIP3    H142113   2.507   7.154   1.022
14056TIP3    H242114   2.412   7.037   1.019
14057TIP3   OH242115   3.810   0.455   6.495
14057TIP3    H142116   3.805   0.412   6.409
14057TIP3    H242117   3.902   0.447   6.521
14058TIP3   OH242118   4.669   3.752   5.102
14058TIP3    H142119   4.633   3.688   5.164
14058TIP3    H242120   4.733   3.802   5.153
14059TIP3   OH242121   6.905   2.254   5.729
14059TIP3    H142122   6.872   2.294   5.648
14059TIP3    H242123   6.997   2.236   5.712
14060TIP3   OH242124   0.411   5.661   2.629
14060TIP3    H142125   0.500   5.637   2.654
14060TIP3    H242126   0.362   5.660   2.712
14061TIP3   OH242127   1.518   0.738   1.882
14061TIP3    H142128   1.574   0.665   1.909
14061TIP3    H242129   1.470   0.705   1.807
14062TIP3   OH242130   3.730   0.135   2.484
14062TIP3    H142131   3.751   0.082   2.407
14062TIP3    H242132   3.816   0.156   2.522
14063TIP3   OH242133   5.475   7.006   3.342
14063TIP3    H142134   5.480   7.077   3.405
14063TIP3    H242135   5.390   7.018   3.299
14064TIP3   OH242136   6.158   2.506   2.522
14064TIP3    H142137   6.186   2.415   2.535
14064TIP3    H242138   6.128   2.534   2.608
14065TIP3   OH242139   0.194   6.738   6.572
14065TIP3    H142140   0.279   6.696   6.588
14065TIP3    H242141   0.163   6.763   6.659
14066TIP3   OH242142   2.883   7.611   6.062
14066TIP3    H142143   2.926   7.566   6.134
14066TIP3    H242144   2.954   7.658   6.018
14067TIP3   OH242145   1.435   5.798   5.620
14067TIP3    H142146   1.514   5.852   5.621
14067TIP3    H242147   1.431   5.760   5.708
14068TIP3   OH242148   6.047   0.734   0.154
14068TIP3    H142149   6.034   0.768   0.066
14068TIP3    H242150   5.982   0.779   0.208
14069TIP3   OH242151   0.141   3.160   6.312
14069TIP3    H142152   0.099   3.246   6.318
14069TIP3    H242153   0.230   3.179   6.284
14070TIP3   OH242154   4.822   1.428   6.396
14070TIP3    H142155   4.842   1.481   6.319
14070TIP3    H242156   4.908   1.403   6.431
14071TIP3   OH242157   1.477   5.791   4.182
14071TIP3    H142158   1.386   5.808   4.157
14071TIP3    H242159   1.521   5.875   4.169
14072TIP3   OH242160   5.468   3.751   6.709
14072TIP3    H142161   5.544   3.784   6.757
14072TIP3    H242162   5.403   3.731   6.778
14073TIP3   OH242163   0.454   3.208   1.074
14073TIP3    H142164   0.374   3.155   1.074
14073TIP3    H242165   0.501   3.180   0.995
14074TIP3   OH242166   1.896   4.345   2.075
14074TIP3    H142167   1.976   4.313   2.034
14074TIP3    H242168   1.847   4.385   2.003
14075TIP3   OH242169   3.644   0.396   0.533
14075TIP3    H142170   3.632   0.416   0.625
14075TIP3    H242171   3.603   0.470   0.487
14076TIP3   OH242172   3.667   3.969   3.618
14076TIP3    H142173   3.585   4.002   3.655
14076TIP3    H242174   3.644   3.885   3.579
14077TIP3   OH242175   1.671   4.642   5.299
14077TIP3    H142176   1.667   4.559   5.347
14077TIP3    H242177   1.677   4.709   5.367
14078TIP3   OH242178   3.262   6.478   2.603
14078TIP3    H142179   3.346   6.492   2.559
14078TIP3    H242180   3.220   6.564   2.605
14079TIP3   OH242181   2.482   1.458   0.006
14079TIP3    H142182   2.452   1.431   0.092
14079TIP3    H242183   2.408   1.438  -0.052
14080TIP3   OH242184   5.639   3.275   4.992
14080TIP3    H142185   5.695   3.247   4.920
14080TIP3    H242186   5.550   3.274   4.956
14081TIP3   OH242187   2.693   6.389   4.024
14081TIP3    H142188   2.748   6.463   3.999
14081TIP3    H242189   2.730   6.358   4.107
14082TIP3   OH242190   1.001   7.078   6.693
14082TIP3    H142191   0.993   7.008   6.628
14082TIP3    H242192   0.981   7.158   6.644
14083TIP3   OH242193   2.409   2.366   4.915
14083TIP3    H142194   2.487   2.311   4.908
14083TIP3    H242195   2.433   2.448   4.872
14084TIP3   OH242196   3.399   4.401   0.813
14084TIP3    H142197   3.362   4.346   0.882
14084TIP3    H242198   3.474   4.444   0.855
14085TIP3   OH242199   3.144   2.209   5.661
14085TIP3    H142200   3.210   2.143   5.637
14085TIP3    H242201   3.120   2.186   5.751
14086TIP3   OH242202   4.611   3.006   5.170
14086TIP3    H142203   4.521   3.038   5.165
14086TIP3    H242204   4.653   3.063   5.235
14087TIP3   OH242205   0.414   0.217   0.629
14087TIP3    H142206   0.326   0.254   0.631
14087TIP3    H242207   0.419   0.164   0.709
14088TIP3   OH242208   0.797   6.994   0.629
14088TIP3    H142209   0.707   6.964   0.624
14088TIP3    H242210   0.838   6.960   0.549
14089TIP3   OH242211   6.466   1.682   1.296
14089TIP3    H142212   6.508   1.732   1.226
14089TIP3    H242213   6.537   1.663   1.357
14090TIP3   OH242214   5.813   1.411   5.241
14090TIP3    H142215   5.906   1.392   5.241
14090TIP3    H242216   5.807   1.504   5.220
14091TIP3   OH242217   0.678   3.685   2.682
14091TIP3    H142218   0.725   3.713   2.603
14091TIP3    H242219   0.592   3.726   2.674
14092TIP3   OH242220   3.040   4.354   4.089
14092TIP3    H142221   3.094   4.280   4.118
14092TIP3    H242222   2.994   4.382   4.168
14093TIP3   OH242223   7.998   5.398   5.067
14093TIP3    H142224   7.986   5.304   5.054
14093TIP3    H242225   8.003   5.434   4.979
14094TIP3   OH242226   4.691   1.770   3.311
14094TIP3    H142227   4.620   1.833   3.295
14094TIP3    H242228   4.653   1.704   3.369
14095TIP3   OH242229   6.065   3.561   5.460
14095TIP3    H142230   6.132   3.623   5.428
14095TIP3    H242231   6.068   3.570   5.555
14096TIP3   OH242232   1.799   1.029   4.639
14096TIP3    H142233   1.845   1.101   4.597
14096TIP3    H242234   1.754   1.069   4.714
14097TIP3   OH242235   2.818   5.281   0.071
14097TIP3    H142236   2.874   5.351   0.105
14097TIP3    H242237   2.768   5.251   0.147
14098TIP3   OH242238   6.066   7.154   1.990
14098TIP3    H142239   6.011   7.230   2.006
14098TIP3    H242240   6.019   7.081   2.031
14099TIP3   OH242241   1.907   6.271   0.888
14099TIP3    H142242   1.982   6.328   0.869
14099TIP3    H242243   1.845   6.288   0.817
14100TIP3   OH242244   6.478   0.522   5.659
14100TIP3    H142245   6.474   0.480   5.573
14100TIP3    H242246   6.558   0.574   5.656
14101TIP3   OH242247   2.638   3.548   1.298
14101TIP3    H142248   2.669   3.538   1.389
14101TIP3    H242249   2.714   3.525   1.245
14102TIP3   OH242250   4.848   1.822   6.393
14102TIP3    H142251   4.909   1.800   6.463
14102TIP3    H242252   4.903   1.856   6.322
14103TIP3   OH242253   4.304   1.359   4.460
14103TIP3    H142254   4.221   1.395   4.430
14103TIP3    H242255   4.282   1.271   4.491
14104TIP3   OH242256   1.877   4.370   4.521
14104TIP3    H142257   1.802   4.429   4.527
14104TIP3    H242258   1.887   4.355   4.427
14105TIP3   OH242259   0.047   2.737   0.774
14105TIP3    H142260   0.089   2.650   0.768
14105TIP3    H242261  -0.047   2.718   0.776
14106TIP3   OH242262   0.714   6.183   4.759
14106TIP3    H142263   0.809   6.170   4.763
14106TIP3    H242264   0.689   6.143   4.675
14107TIP3   OH242265   5.865   6.757   0.660
14107TIP3    H142266   5.959   6.756   0.678
14107TIP3    H242267   5.842   6.850   0.659
14108TIP3   OH242268   3.602   7.093   3.157
14108TIP3    H142269   3.516   7.066   3.124
14108TIP3    H242270   3.663   7.032   3.114
14109TIP3   OH242271   5.949   4.793   5.143
14109TIP3    H142272   5.934   4.811   5.236
14109TIP3    H242273   5.868   4.752   5.113
14110TIP3   OH242274   2.870   4.593   2.361
14110TIP3    H142275   2.890   4.512   2.408
14110TIP3    H242276   2.808   4.568   2.294
14111TIP3   OH242277   1.624   5.749   3.201
14111TIP3    H142278   1.579   5.681   3.152
14111TIP3    H242279   1.554   5.805   3.235
14112TIP3   OH242280   2.545   7.508   6.213
14112TIP3    H142281   2.578   7.524   6.124
14112TIP3    H242282   2.497   7.588   6.235
14113TIP3   OH242283   6.840   7.342   0.606
14113TIP3    H142284   6.837   7.256   0.564
14113TIP3    H242285   6.748   7.363   0.625
14114TIP3   OH242286   2.474   2.074   3.062
14114TIP3    H142287   2.546   2.088   3.002
14114TIP3    H242288   2.511   2.020   3.133
14115TIP3   OH242289   7.688   6.979   3.096
14115TIP3    H142290   7.674   7.070   3.070
14115TIP3    H242291   7.778   6.960   3.071
14116TIP3   OH242292   6.921   3.181   3.903
14116TIP3    H142293   6.854   3.184   3.972
14116TIP3    H242294   6.967   3.265   3.911
14117TIP3   OH242295   1.325   3.908   3.503
14117TIP3    H142296   1.413   3.924   3.537
14117TIP3    H242297   1.316   3.970   3.431
14118TIP3   OH242298   1.527   6.716   2.038
14118TIP3    H142299   1.527   6.638   1.982
14118TIP3    H242300   1.479   6.782   1.988
14119TIP3   OH242301   1.669   2.001   1.738
14119TIP3    H142302   1.642   1.913   1.766
14119TIP3    H242303   1.696   1.990   1.647
14120TIP3   OH242304   3.706   6.528   0.195
14120TIP3    H142305   3.670   6.487   0.273
14120TIP3    H242306   3.799   6.505   0.197
14121TIP3   OH242307   1.979   4.986   5.682
14121TIP3    H142308   1.904   4.957   5.734
14121TIP3    H242309   2.053   4.982   5.743
14122TIP3   OH242310   7.360   5.781   5.670
14122TIP3    H142311   7.415   5.710   5.704
14122TIP3    H242312   7.327   5.826   5.748
14123TIP3   OH242313   2.638   2.179   2.557
14123TIP3    H142314   2.591   2.115   2.504
14123TIP3    H242315   2.572   2.215   2.616
14124TIP3   OH242316   0.664   1.140   2.249
14124TIP3    H142317   0.723   1.118   2.321
14124TIP3    H242318   0.635   1.229   2.270
14125TIP3   OH242319   4.023   1.579   1.287
14125TIP3    H142320   4.015   1.650   1.224
14125TIP3    H242321   4.102   1.531   1.259
14126TIP3   OH242322   0.727   0.560   5.779
14126TIP3    H142323   0.657   0.578   5.842
14126TIP3    H242324   0.734   0.640   5.727
14127TIP3   OH242325   6.418   3.048   4.155
14127TIP3    H142326   6.474   2.992   4.209
14127TIP3    H242327   6.410   3.001   4.072
14128TIP3   OH242328   6.276   7.361   2.015
14128TIP3    H142329   6.212   7.292   2.029
14128TIP3    H242330   6.231   7.426   1.962
14129TIP3   OH242331   0.084   5.688   1.436
14129TIP3    H142332   0.160   5.631   1.425
14129TIP3    H242333   0.065   5.721   1.348
14130TIP3   OH242334   6.233   5.627   5.238
14130TIP3    H142335   6.296   5.567   5.277
14130TIP3    H242336   6.250   5.711   5.280
14131TIP3   OH242337   2.276   2.275   0.529
14131TIP3    H142338   2.240   2.362   0.547
14131TIP3    H242339   2.367   2.292   0.503
14132TIP3   OH242340   8.214   1.189   0.210
14132TIP3    H142341   8.160   1.189   0.131
14132TIP3    H242342   8.302   1.171   0.179
14133TIP3   OH242343   4.047   3.834   1.622
14133TIP3    H142344   3.959   3.804   1.602
14133TIP3    H242345   4.047   3.848   1.717
14134TIP3   OH242346   3.423   1.958   1.795
14134TIP3    H142347   3.419   1.878   1.849
14134TIP3    H242348   3.516   1.978   1.789
14135TIP3   OH242349   5.563   6.329   1.451
14135TIP3    H142350   5.635   6.365   1.399
14135TIP3    H242351   5.606   6.287   1.525
14136TIP3   OH242352   4.516   2.168   6.337
14136TIP3    H142353   4.591   2.179   6.396
14136TIP3    H242354   4.521   2.077   6.308
14137TIP3   OH242355   4.956   5.495   2.410
14137TIP3    H142356   5.023   5.505   2.478
14137TIP3    H242357   4.874   5.520   2.453
14138TIP3   OH242358   3.632   6.890   5.671
14138TIP3    H142359   3.552   6.894   5.724
14138TIP3    H242360   3.607   6.925   5.586
14139TIP3   OH242361   0.806   0.791   5.615
14139TIP3    H142362   0.844   0.720   5.564
14139TIP3    H242363   0.727   0.816   5.568
14140TIP3   OH242364   1.552   1.900   0.733
14140TIP3    H142365   1.515   1.815   0.755
14140TIP3    H242366   1.592   1.887   0.647
14141TIP3   OH242367   7.472   1.400   0.052
14141TIP3    H142368   7.554   1.374   0.009
14141TIP3    H242369   7.492   1.399   0.146
14142TIP3   OH242370   5.092   4.164   4.057
14142TIP3    H142371   5.154   4.119   4.114
14142TIP3    H242372   5.006   4.137   4.088
14143TIP3   OH242373   0.241   0.518   2.794
14143TIP3    H142374   0.284   0.529   2.709
14143TIP3    H242375   0.187   0.597   2.805
14144TIP3   OH242376   7.644   7.235   2.562
14144TIP3    H142377   7.673   7.152   2.601
14144TIP3    H242378   7.548   7.228   2.561
14145TIP3   OH242379   7.942   6.106   2.332
14145TIP3    H142380   7.857   6.142   2.309
14145TIP3    H242381   7.970   6.156   2.409
14146TIP3   OH242382   5.897   1.714   1.216
14146TIP3    H142383   5.802   1.728   1.216
14146TIP3    H242384   5.917   1.689   1.125
14147TIP3   OH242385   5.010   0.685   3.532
14147TIP3    H142386   5.040   0.607   3.580
14147TIP3    H242387   5.075   0.752   3.554
14148TIP3   OH242388   7.390   0.909   5.399
14148TIP3    H142389   7.408   0.847   5.470
14148TIP3    H242390   7.298   0.934   5.412
14149TIP3   OH242391   1.177   2.942   1.003
14149TIP3    H142392   1.159   2.915   1.093
14149TIP3    H242393   1.096   2.984   0.975
14150TIP3   OH242394   7.687   4.484   3.870
14150TIP3    H142395   7.592   4.473   3.874
14150TIP3    H242396   7.723   4.398   3.889
14151TIP3   OH242397   3.391   6.400   3.192
14151TIP3    H142398   3.460   6.422   3.254
14151TIP3    H242399   3.368   6.310   3.214
14152TIP3   OH242400   6.903   2.236   0.313
14152TIP3    H142401   6.848   2.268   0.242
14152TIP3    H242402   6.951   2.314   0.343
14153TIP3   OH242403   3.780   2.925   1.265
14153TIP3    H142404   3.766   2.939   1.359
14153TIP3    H242405   3.776   2.830   1.254
14154TIP3   OH242406   3.149   5.122   2.672
14154TIP3    H142407   3.114   5.140   2.585
14154TIP3    H242408   3.164   5.209   2.710
14155TIP3   OH242409   1.464   6.308   4.774
14155TIP3    H142410   1.438   6.371   4.841
14155TIP3    H242411   1.560   6.308   4.777
14156TIP3   OH242412   5.999   0.515   1.942
14156TIP3    H142413   6.032   0.562   2.018
14156TIP3    H242414   5.936   0.453   1.977
14157TIP3   OH242415   0.016   7.426   3.333
14157TIP3    H142416   0.111   7.416   3.333
14157TIP3    H242417  -0.012   7.393   3.419
14158TIP3   OH242418   0.074   6.021   6.555
14158TIP3    H142419   0.159   5.978   6.543
14158TIP3    H242420   0.065   6.078   6.478
14159TIP3   OH242421   6.906   6.158   2.464
14159TIP3    H142422   6.869   6.071   2.471
14159TIP3    H242423   6.998   6.143   2.440
14160TIP3   OH242424   0.144   2.453   0.721
14160TIP3    H142425   0.225   2.503   0.724
14160TIP3    H242426   0.116   2.458   0.629
14161TIP3   OH242427   5.317   3.601   0.614
14161TIP3    H142428   5.342   3.692   0.626
14161TIP3    H242429   5.352   3.556   0.691
14162TIP3   OH242430   4.188   6.087   3.295
14162TIP3    H142431   4.112   6.116   3.243
14162TIP3    H242432   4.215   6.005   3.253
14163TIP3   OH242433   2.851   0.864   4.890
14163TIP3    H142434   2.926   0.862   4.831
14163TIP3    H242435   2.798   0.938   4.858
14164TIP3   OH242436   2.661   7.506   1.036
14164TIP3    H142437   2.729   7.533   1.096
14164TIP3    H242438   2.649   7.580   0.977
14165TIP3   OH242439   3.998   2.693   3.189
14165TIP3    H142440   4.013   2.599   3.200
14165TIP3    H242441   4.046   2.734   3.261
14166TIP3   OH242442   1.467   5.713   0.787
14166TIP3    H142443   1.444   5.622   0.769
14166TIP3    H242444   1.547   5.708   0.838
14167TIP3   OH242445   1.544   6.882   6.442
14167TIP3    H142446   1.465   6.934   6.459
14167TIP3    H242447   1.528   6.798   6.485
14168TIP3   OH242448   5.982   4.165   3.399
14168TIP3    H142449   6.001   4.133   3.311
14168TIP3    H242450   5.915   4.106   3.432
14169TIP3   OH242451   5.857   6.416   4.417
14169TIP3    H142452   5.819   6.339   4.375
14169TIP3    H242453   5.784   6.458   4.462
14170TIP3   OH242454   4.985   2.019   2.064
14170TIP3    H142455   4.937   1.987   2.140
14170TIP3    H242456   4.990   1.944   2.004
14171TIP3   OH242457   4.594   6.456   6.068
14171TIP3    H142458   4.623   6.424   5.983
14171TIP3    H242459   4.639   6.400   6.132
14172TIP3   OH242460   6.373   7.533   6.383
14172TIP3    H142461   6.454   7.546   6.333
14172TIP3    H242462   6.303   7.538   6.318
14173TIP3   OH242463   0.111   6.036   4.206
14173TIP3    H142464   0.199   6.072   4.220
14173TIP3    H242465   0.054   6.090   4.262
14174TIP3   OH242466   6.879   4.584   6.561
14174TIP3    H142467   6.789   4.602   6.587
14174TIP3    H242468   6.880   4.491   6.538
14175TIP3   OH242469   2.143   4.249   2.017
14175TIP3    H142470   2.146   4.180   2.084
14175TIP3    H242471   2.196   4.215   1.945
14176TIP3   OH242472   6.623   2.860   6.229
14176TIP3    H142473   6.714   2.859   6.201
14176TIP3    H242474   6.619   2.928   6.296
14177TIP3   OH242475   5.490   6.147   3.637
14177TIP3    H142476   5.401   6.115   3.625
14177TIP3    H242477   5.482   6.219   3.700
14178TIP3   OH242478   4.359   4.425   3.143
14178TIP3    H142479   4.418   4.463   3.078
14178TIP3    H242480   4.397   4.449   3.228
14179TIP3   OH242481   4.671   3.138   4.200
14179TIP3    H142482   4.661   3.233   4.192
14179TIP3    H242483   4.751   3.127   4.251
14180TIP3   OH242484   7.970   6.286   3.653
14180TIP3    H142485   8.016   6.234   3.719
14180TIP3    H242486   7.879   6.254   3.657
14181TIP3   OH242487   6.877   4.504   1.613
14181TIP3    H142488   6.921   4.445   1.553
14181TIP3    H242489   6.897   4.592   1.580
14182TIP3   OH242490   3.645   4.942   6.205
14182TIP3    H142491   3.604   5.006   6.146
14182TIP3    H242492   3.594   4.947   6.285
14183TIP3   OH242493   3.617   0.441   0.799
14183TIP3    H142494   3.577   0.525   0.779
14183TIP3    H242495   3.575   0.413   0.880
14184TIP3   OH242496   2.701   6.846   1.580
14184TIP3    H142497   2.626   6.837   1.521
14184TIP3    H242498   2.767   6.892   1.529
14185TIP3   OH242499   1.172   3.119   0.181
14185TIP3    H142500   1.144   3.210   0.169
14185TIP3    H242501   1.092   3.072   0.203
14186TIP3   OH242502   2.623   2.043   3.488
14186TIP3    H142503   2.701   2.017   3.439
14186TIP3    H242504   2.592   2.122   3.444
14187TIP3   OH242505   0.585   0.952   0.026
14187TIP3    H142506   0.607   0.888   0.093
14187TIP3    H242507   0.666   1.001   0.013
14188TIP3   OH242508   3.507   4.995   1.322
14188TIP3    H142509   3.517   5.082   1.284
14188TIP3    H242510   3.429   5.001   1.376
14189TIP3   OH242511   1.328   4.015   3.797
14189TIP3    H142512   1.405   3.994   3.744
14189TIP3    H242513   1.362   4.069   3.868
14190TIP3   OH242514   6.755   3.968   0.731
14190TIP3    H142515   6.771   3.916   0.652
14190TIP3    H242516   6.808   3.926   0.799
14191TIP3   OH242517   1.990   0.950   6.070
14191TIP3    H142518   1.935   0.952   6.149
14191TIP3    H242519   1.960   0.873   6.022
14192TIP3   OH242520   6.749   6.696   1.785
14192TIP3    H142521   6.819   6.705   1.849
14192TIP3    H242522   6.670   6.723   1.831
14193TIP3   OH242523   4.007   6.627   4.295
14193TIP3    H142524   3.994   6.696   4.360
14193TIP3    H242525   3.950   6.650   4.222
14194TIP3   OH242526   1.851   7.239   3.078
14194TIP3    H142527   1.826   7.160   3.126
14194TIP3    H242528   1.916   7.208   3.014
14195TIP3   OH242529   3.782   6.580   6.113
14195TIP3    H142530   3.799   6.531   6.194
14195TIP3    H242531   3.798   6.517   6.043
14196TIP3   OH242532   5.902   0.340   2.693
14196TIP3    H142533   5.962   0.412   2.673
14196TIP3    H242534   5.879   0.304   2.608
14197TIP3   OH242535   6.384   1.639   1.797
14197TIP3    H142536   6.442   1.712   1.820
14197TIP3    H242537   6.326   1.630   1.873
14198TIP3   OH242538   3.877   3.407   0.604
14198TIP3    H142539   3.785   3.381   0.614
14198TIP3    H242540   3.924   3.353   0.667
14199TIP3   OH242541   6.373   0.712   1.930
14199TIP3    H142542   6.424   0.729   2.009
14199TIP3    H242543   6.438   0.694   1.862
14200TIP3   OH242544   3.508   2.955   4.112
14200TIP3    H142545   3.557   2.884   4.070
14200TIP3    H242546   3.551   3.035   4.080
14201TIP3   OH242547   1.056   5.191   6.633
14201TIP3    H142548   1.142   5.157   6.608
14201TIP3    H242549   1.034   5.254   6.565
14202TIP3   OH242550   2.701   4.614   6.066
14202TIP3    H142551   2.612   4.593   6.035
14202TIP3    H242552   2.736   4.531   6.096
14203TIP3   OH242553   3.803   2.534   3.875
14203TIP3    H142554   3.810   2.464   3.810
14203TIP3    H242555   3.894   2.555   3.898
14204TIP3   OH242556   6.246   2.717   5.394
14204TIP3    H142557   6.306   2.750   5.460
14204TIP3    H242558   6.174   2.679   5.444
14205TIP3   OH242559   3.715   5.985   5.451
14205TIP3    H142560   3.721   5.919   5.520
14205TIP3    H242561   3.687   5.937   5.374
14206TIP3   OH242562   0.334   6.008   0.151
14206TIP3    H142563   0.420   6.040   0.177
14206TIP3    H242564   0.315   6.053   0.068
14207TIP3   OH242565   2.436   3.178   1.079
14207TIP3    H142566   2.420   3.258   1.130
14207TIP3    H242567   2.512   3.199   1.025
14208TIP3   OH242568   1.343   7.579   6.601
14208TIP3    H142569   1.422   7.631   6.580
14208TIP3    H242570   1.377   7.492   6.620
14209TIP3   OH242571   7.681   2.863   0.667
14209TIP3    H142572   7.664   2.784   0.615
14209TIP3    H242573   7.695   2.931   0.602
14210TIP3   OH242574   6.469   7.230   3.193
14210TIP3    H142575   6.381   7.230   3.230
14210TIP3    H242576   6.517   7.295   3.245
14211TIP3   OH242577   3.505   4.593   3.858
14211TIP3    H142578   3.473   4.587   3.948
14211TIP3    H242579   3.484   4.508   3.820
14212TIP3   OH242580   0.905   4.348   4.667
14212TIP3    H142581   0.860   4.263   4.660
14212TIP3    H242582   0.871   4.398   4.593
14213TIP3   OH242583   7.849   0.070   4.585
14213TIP3    H142584   7.771   0.015   4.594
14213TIP3    H242585   7.868   0.100   4.674
14214TIP3   OH242586   0.440   3.763   0.300
14214TIP3    H142587   0.425   3.787   0.392
14214TIP3    H242588   0.494   3.684   0.304
14215TIP3   OH242589   6.346   1.682   0.605
14215TIP3    H142590   6.412   1.613   0.611
14215TIP3    H242591   6.395   1.760   0.581
14216TIP3   OH242592   2.804   0.995   1.031
14216TIP3    H142593   2.839   1.046   0.958
14216TIP3    H242594   2.867   1.009   1.102
14217TIP3   OH242595   0.191   7.019   1.455
14217TIP3    H142596   0.222   7.089   1.397
14217TIP3    H242597   0.182   7.062   1.540
14218TIP3   OH242598   0.250   4.364   4.801
14218TIP3    H142599   0.288   4.297   4.858
14218TIP3    H242600   0.157   4.339   4.794
14219TIP3   OH242601   5.795   0.182   0.808
14219TIP3    H142602   5.829   0.271   0.816
14219TIP3    H242603   5.753   0.180   0.721
14220TIP3   OH242604   3.649   0.750   4.320
14220TIP3    H142605   3.616   0.684   4.259
14220TIP3    H242606   3.627   0.717   4.407
14221TIP3   OH242607   1.276   7.045   1.105
14221TIP3    H142608   1.218   7.107   1.061
14221TIP3    H242609   1.261   6.962   1.060
14222TIP3   OH242610   3.709   6.728   4.505
14222TIP3    H142611   3.762   6.777   4.442
14222TIP3    H242612   3.747   6.749   4.590
14223TIP3   OH242613   6.529   0.734   5.885
14223TIP3    H142614   6.447   0.688   5.868
14223TIP3    H242615   6.554   0.707   5.973
14224TIP3   OH242616   2.407   0.159   6.193
14224TIP3    H142617   2.317   0.157   6.159
14224TIP3    H242618   2.402   0.218   6.268
14225TIP3   OH242619   5.971   1.449   1.840
14225TIP3    H142620   5.932   1.419   1.922
14225TIP3    H242621   6.052   1.493   1.868
14226TIP3   OH242622   5.786   1.211   4.646
14226TIP3    H142623   5.745   1.298   4.645
14226TIP3    H242624   5.877   1.228   4.669
14227TIP3   OH242625   1.989   6.738   4.000
14227TIP3    H142626   2.055   6.765   3.936
14227TIP3    H242627   1.906   6.745   3.953
14228TIP3   OH242628   0.788   2.570   0.042
14228TIP3    H142629   0.766   2.648  -0.009
14228TIP3    H242630   0.705   2.523   0.052
14229TIP3   OH242631   6.345   5.557   0.335
14229TIP3    H142632   6.320   5.565   0.243
14229TIP3    H242633   6.401   5.480   0.338
14230TIP3   OH242634   3.683   7.665   4.993
14230TIP3    H142635   3.672   7.571   5.006
14230TIP3    H242636   3.775   7.682   5.016
14231TIP3   OH242637   0.872   1.087   5.767
14231TIP3    H142638   0.904   1.069   5.856
14231TIP3    H242639   0.834   1.004   5.738
14232TIP3   OH242640   5.049   3.474   3.797
14232TIP3    H142641   5.131   3.474   3.747
14232TIP3    H242642   5.038   3.564   3.825
14233TIP3   OH242643   6.046   2.634   5.563
14233TIP3    H142644   6.015   2.725   5.557
14233TIP3    H242645   5.999   2.598   5.637
14234TIP3   OH242646   7.712   4.860   0.278
14234TIP3    H142647   7.631   4.893   0.239
14234TIP3    H242648   7.765   4.938   0.292
14235TIP3   OH242649   3.570   3.726   3.488
14235TIP3    H142650   3.539   3.702   3.401
14235TIP3    H242651   3.493   3.715   3.544
14236TIP3   OH242652   0.894   5.377   4.569
14236TIP3    H142653   0.816   5.342   4.613
14236TIP3    H242654   0.927   5.303   4.519
14237TIP3   OH242655   6.037   7.412   5.786
14237TIP3    H142656   6.064   7.337   5.733
14237TIP3    H242657   6.099   7.481   5.765
14238TIP3   OH242658   3.351   0.212   3.353
14238TIP3    H142659   3.340   0.294   3.401
14238TIP3    H242660   3.302   0.225   3.272
14239TIP3   OH242661   7.749   5.360   3.413
14239TIP3    H142662   7.654   5.357   3.402
14239TIP3    H242663   7.779   5.412   3.339
14240TIP3   OH242664   5.721   1.700   4.334
14240TIP3    H142665   5.672   1.621   4.357
14240TIP3    H242666   5.744   1.688   4.242
14241TIP3   OH242667   0.142   5.978   2.091
14241TIP3    H142668   0.237   5.975   2.093
14241TIP3    H242669   0.116   5.892   2.057
14242TIP3   OH242670   8.065   6.553   3.552
14242TIP3    H142671   8.102   6.503   3.626
14242TIP3    H242672   8.059   6.643   3.585
14243TIP3   OH242673   2.330   1.141   0.943
14243TIP3    H142674   2.408   1.109   0.988
14243TIP3    H242675   2.271   1.168   1.014
14244TIP3   OH242676   6.216   1.732   3.195
14244TIP3    H142677   6.137   1.742   3.141
14244TIP3    H242678   6.189   1.675   3.267
14245TIP3   OH242679   5.551   0.560   4.585
14245TIP3    H142680   5.566   0.631   4.647
14245TIP3    H242681   5.468   0.521   4.612
14246TIP3   OH242682   6.919   5.667   2.066
14246TIP3    H142683   6.897   5.576   2.043
14246TIP3    H242684   6.997   5.659   2.121
14247TIP3   OH242685   2.289   3.327   4.688
14247TIP3    H142686   2.217   3.388   4.706
14247TIP3    H242687   2.248   3.257   4.638
14248TIP3   OH242688   5.932   7.640   6.062
14248TIP3    H142689   5.881   7.717   6.086
14248TIP3    H242690   5.910   7.624   5.970
14249TIP3   OH242691   4.200   4.986   2.146
14249TIP3    H142692   4.125   4.945   2.188
14249TIP3    H242693   4.246   4.915   2.102
14250TIP3   OH242694   0.828   2.335   3.754
14250TIP3    H142695   0.780   2.394   3.812
14250TIP3    H242696   0.813   2.248   3.790
14251TIP3   OH242697   2.531   1.133   0.498
14251TIP3    H142698   2.484   1.165   0.421
14251TIP3    H242699   2.462   1.117   0.563
14252TIP3   OH242700   6.720   7.486   2.170
14252TIP3    H142701   6.631   7.461   2.145
14252TIP3    H242702   6.712   7.577   2.198
14253TIP3   OH242703   7.246   5.592   0.214
14253TIP3    H142704   7.278   5.659   0.153
14253TIP3    H242705   7.261   5.509   0.169
14254TIP3   OH242706   2.323   0.403   5.828
14254TIP3    H142707   2.277   0.370   5.905
14254TIP3    H242708   2.253   0.429   5.767
14255TIP3   OH242709   5.886   4.337   5.770
14255TIP3    H142710   5.800   4.348   5.731
14255TIP3    H242711   5.868   4.313   5.861
14256TIP3   OH242712   5.802   4.313   0.285
14256TIP3    H142713   5.750   4.300   0.206
14256TIP3    H242714   5.812   4.408   0.292
14257TIP3   OH242715   1.856   4.973   1.698
14257TIP3    H142716   1.914   5.015   1.634
14257TIP3    H242717   1.774   5.021   1.689
14258TIP3   OH242718   1.486   5.529   3.282
14258TIP3    H142719   1.581   5.520   3.289
14258TIP3    H242720   1.456   5.547   3.371
14259TIP3   OH242721   1.833   3.476   4.220
14259TIP3    H142722   1.837   3.569   4.197
14259TIP3    H242723   1.749   3.446   4.184
14260TIP3   OH242724   5.564   5.426   4.071
14260TIP3    H142725   5.546   5.515   4.101
14260TIP3    H242726   5.652   5.406   4.104
14261TIP3   OH242727   4.075   3.508   1.045
14261TIP3    H142728   4.148   3.468   1.091
14261TIP3    H242729   4.089   3.603   1.054
14262TIP3   OH242730   7.153   4.540   6.685
14262TIP3    H142731   7.156   4.594   6.607
14262TIP3    H242732   7.061   4.515   6.693
14263TIP3   OH242733   4.467   2.080   1.012
14263TIP3    H142734   4.483   1.994   0.972
14263TIP3    H242735   4.437   2.135   0.939
14264TIP3   OH242736   1.183   2.063   2.439
14264TIP3    H142737   1.265   2.026   2.471
14264TIP3    H242738   1.209   2.120   2.366
14265TIP3   OH242739   6.214   6.933   4.417
14265TIP3    H142740   6.265   6.947   4.337
14265TIP3    H242741   6.123   6.936   4.388
14266TIP3   OH242742   7.577   1.076   2.103
14266TIP3    H142743   7.552   1.062   2.012
14266TIP3    H242744   7.666   1.113   2.098
14267TIP3   OH242745   7.715   6.614   4.800
14267TIP3    H142746   7.630   6.573   4.782
14267TIP3    H242747   7.729   6.675   4.728
14268TIP3   OH242748   7.508   4.120   4.331
14268TIP3    H142749   7.533   4.171   4.254
14268TIP3    H242750   7.518   4.029   4.303
14269TIP3   OH242751   4.974   7.802   2.073
14269TIP3    H142752   4.941   7.813   1.984
14269TIP3    H242753   5.051   7.746   2.063
14270TIP3   OH242754   6.756   3.299   3.541
14270TIP3    H142755   6.753   3.361   3.468
14270TIP3    H242756   6.779   3.353   3.617
14271TIP3   OH242757   1.532   3.600   2.839
14271TIP3    H142758   1.454   3.556   2.804
14271TIP3    H242759   1.504   3.690   2.852
14272TIP3   OH242760   7.613   3.555   5.904
14272TIP3    H142761   7.540   3.554   5.966
14272TIP3    H242762   7.688   3.585   5.955
14273TIP3   OH242763   5.569   5.228   3.341
14273TIP3    H142764   5.587   5.320   3.359
14273TIP3    H242765   5.499   5.228   3.277
14274TIP3   OH242766   4.133   2.476   2.494
14274TIP3    H142767   4.175   2.489   2.409
14274TIP3    H242768   4.170   2.394   2.527
14275TIP3   OH242769   2.895   0.877   6.602
14275TIP3    H142770   2.901   0.972   6.606
14275TIP3    H242771   2.984   0.846   6.619
14276TIP3   OH242772   5.557   7.521   5.224
14276TIP3    H142773   5.596   7.607   5.211
14276TIP3    H242774   5.465   7.539   5.244
14277TIP3   OH242775   2.052   2.583   5.754
14277TIP3    H142776   2.043   2.528   5.677
14277TIP3    H242777   1.966   2.623   5.766
14278TIP3   OH242778   5.064   7.107   1.121
14278TIP3    H142779   5.126   7.144   1.184
14278TIP3    H242780   5.015   7.042   1.171
14279TIP3   OH242781   5.028   4.183   0.874
14279TIP3    H142782   5.024   4.102   0.925
14279TIP3    H242783   4.945   4.227   0.892
14280TIP3   OH242784   5.546   5.481   0.381
14280TIP3    H142785   5.482   5.493   0.451
14280TIP3    H242786   5.572   5.570   0.357
14281TIP3   OH242787   0.604   1.086   1.554
14281TIP3    H142788   0.605   1.179   1.531
14281TIP3    H242789   0.541   1.047   1.493
14282TIP3   OH242790   3.732   0.718   0.955
14282TIP3    H142791   3.788   0.740   1.030
14282TIP3    H242792   3.710   0.802   0.916
14283TIP3   OH242793   6.320   7.167   0.905
14283TIP3    H142794   6.276   7.112   0.840
14283TIP3    H242795   6.250   7.203   0.959
14284TIP3   OH242796   3.692   1.019   0.677
14284TIP3    H142797   3.631   1.092   0.688
14284TIP3    H242798   3.714   0.992   0.766
14285TIP3   OH242799   8.271   7.405   1.430
14285TIP3    H142800   8.189   7.383   1.386
14285TIP3    H242801   8.334   7.415   1.358
14286TIP3   OH242802   0.837   2.034   5.516
14286TIP3    H142803   0.864   1.993   5.599
14286TIP3    H242804   0.858   2.127   5.527
14287TIP3   OH242805   1.275   7.411   3.448
14287TIP3    H142806   1.370   7.403   3.441
14287TIP3    H242807   1.257   7.417   3.542
14288TIP3   OH242808   3.380   3.461   5.259
14288TIP3    H142809   3.352   3.463   5.350
14288TIP3    H242810   3.339   3.382   5.223
14289TIP3   OH242811   1.272   2.428   0.339
14289TIP3    H142812   1.264   2.332   0.336
14289TIP3    H242813   1.287   2.454   0.248
14290TIP3   OH242814   2.612   5.112   5.839
14290TIP3    H142815   2.631   5.044   5.774
14290TIP3    H242816   2.679   5.179   5.824
14291TIP3   OH242817   4.904   1.043   3.893
14291TIP3    H142818   4.942   1.123   3.858
14291TIP3    H242819   4.809   1.059   3.893
14292TIP3   OH242820   6.635   0.475   1.348
14292TIP3    H142821   6.672   0.406   1.404
14292TIP3    H242822   6.543   0.453   1.341
14293TIP3   OH242823   6.815   4.701   2.843
14293TIP3    H142824   6.861   4.618   2.833
14293TIP3    H242825   6.840   4.732   2.930
14294TIP3   OH242826   2.880   5.755   4.151
14294TIP3    H142827   2.823   5.742   4.076
14294TIP3    H242828   2.956   5.801   4.116
14295TIP3   OH242829   0.721   3.417   2.734
14295TIP3    H142830   0.703   3.396   2.642
14295TIP3    H242831   0.693   3.508   2.744
14296TIP3   OH242832   0.066   3.267   0.425
14296TIP3    H142833   0.076   3.218   0.506
14296TIP3    H242834   0.111   3.350   0.442
14297TIP3   OH242835   1.733   6.030   3.469
14297TIP3    H142836   1.808   6.034   3.409
14297TIP3    H242837   1.656   6.040   3.412
14298TIP3   OH242838   7.130   0.090   5.977
14298TIP3    H142839   7.221   0.062   5.964
14298TIP3    H242840   7.125   0.113   6.069
14299TIP3   OH242841   5.930   7.403   1.978
14299TIP3    H142842   5.929   7.438   2.067
14299TIP3    H242843   5.839   7.409   1.949
14300TIP3   OH242844   0.296   1.956   4.468
14300TIP3    H142845   0.318   2.046   4.443
14300TIP3    H242846   0.238   1.925   4.398
14301TIP3   OH242847   2.340   6.113   2.719
14301TIP3    H142848   2.408   6.167   2.759
14301TIP3    H242849   2.302   6.169   2.652
14302TIP3   OH242850   3.450   0.437   2.921
14302TIP3    H142851   3.418   0.352   2.951
14302TIP3    H242852   3.507   0.467   2.992
14303TIP3   OH242853   4.074   1.655   3.544
14303TIP3    H142854   3.984   1.674   3.570
14303TIP3    H242855   4.101   1.586   3.604
14304TIP3   OH242856   4.431   1.142   2.493
14304TIP3    H142857   4.518   1.123   2.458
14304TIP3    H242858   4.395   1.057   2.515
14305TIP3   OH242859   6.162   2.500   4.858
14305TIP3    H142860   6.147   2.491   4.952
14305TIP3    H242861   6.256   2.515   4.849
14306TIP3   OH242862   2.039   3.707   4.328
14306TIP3    H142863   1.948   3.686   4.351
14306TIP3    H242864   2.091   3.651   4.385
14307TIP3   OH242865   7.013   2.164   3.554
14307TIP3    H142866   6.922   2.191   3.562
14307TIP3    H242867   7.062   2.245   3.544
14308TIP3   OH242868   6.833   3.703   3.577
14308TIP3    H142869   6.771   3.775   3.590
14308TIP3    H242870   6.869   3.686   3.664
14309TIP3   OH242871   7.755   6.598   4.343
14309TIP3    H142872   7.822   6.617   4.409
14309TIP3    H242873   7.675   6.582   4.394
14310TIP3   OH242874   3.434   0.538   1.918
14310TIP3    H142875   3.524   0.571   1.914
14310TIP3    H242876   3.442   0.444   1.901
14311TIP3   OH242877   6.792   5.359   5.394
14311TIP3    H142878   6.786   5.283   5.335
14311TIP3    H242879   6.826   5.324   5.476
14312TIP3   OH242880   7.434   5.835   0.643
14312TIP3    H142881   7.380   5.885   0.704
14312TIP3    H242882   7.421   5.878   0.559
14313TIP3   OH242883   1.619   6.908   1.292
14313TIP3    H142884   1.688   6.857   1.248
14313TIP3    H242885   1.665   6.983   1.330
14314TIP3   OH242886   1.261   3.626   0.053
14314TIP3    H142887   1.230   3.553  -0.001
14314TIP3    H242888   1.226   3.607   0.140
14315TIP3   OH242889   4.626   0.279   4.554
14315TIP3    H142890   4.673   0.360   4.572
14315TIP3    H242891   4.674   0.212   4.603
14316TIP3   OH242892   0.064   0.324   1.405
14316TIP3    H142893   0.135   0.352   1.463
14316TIP3    H242894   0.098   0.339   1.317
14317TIP3   OH242895   3.690   4.059   3.304
14317TIP3    H142896   3.604   4.069   3.262
14317TIP3    H242897   3.749   4.036   3.232
14318TIP3   OH242898   7.593   7.786   6.554
14318TIP3    H142899   7.550   7.707   6.523
14318TIP3    H242900   7.563   7.854   6.494
14319TIP3   OH242901   6.833   3.141   0.298
14319TIP3    H142902   6.780   3.182   0.367
14319TIP3    H242903   6.769   3.111   0.233
14320TIP3   OH242904   1.114   5.778   1.698
14320TIP3    H142905   1.194   5.750   1.743
14320TIP3    H242906   1.141   5.854   1.647
14321TIP3   OH242907   2.380   2.803   2.247
14321TIP3    H142908   2.363   2.794   2.341
14321TIP3    H242909   2.474   2.787   2.239
14322TIP3   OH242910   7.769   1.515   2.628
14322TIP3    H142911   7.766   1.462   2.548
14322TIP3    H242912   7.736   1.456   2.696
14323TIP3   OH242913   8.108   5.253   6.156
14323TIP3    H142914   8.032   5.282   6.207
14323TIP3    H242915   8.102   5.302   6.074
14324TIP3   OH242916   5.675   3.541   4.313
14324TIP3    H142917   5.645   3.473   4.373
14324TIP3    H242918   5.688   3.619   4.368
14325TIP3   OH242919   6.558   6.381   0.790
14325TIP3    H142920   6.579   6.288   0.798
14325TIP3    H242921   6.640   6.426   0.808
14326TIP3   OH242922   5.951   2.707   4.226
14326TIP3    H142923   6.030   2.684   4.275
14326TIP3    H242924   5.887   2.730   4.294
14327TIP3   OH242925   2.805   2.099   0.075
14327TIP3    H142926   2.889   2.084   0.120
14327TIP3    H242927   2.820   2.177   0.022
14328TIP3   OH242928   2.816   6.019   3.237
14328TIP3    H142929   2.723   5.997   3.242
14328TIP3    H242930   2.828   6.087   3.303
14329TIP3   OH242931   3.715   5.866   0.369
14329TIP3    H142932   3.647   5.895   0.429
14329TIP3    H242933   3.668   5.841   0.289
14330TIP3   OH242934   4.336   0.335   4.218
14330TIP3    H142935   4.356   0.418   4.260
14330TIP3    H242936   4.312   0.276   4.290
14331TIP3   OH242937   4.709   3.452   1.572
14331TIP3    H142938   4.789   3.427   1.527
14331TIP3    H242939   4.716   3.414   1.659
14332TIP3   OH242940   3.390   1.189   2.161
14332TIP3    H142941   3.410   1.148   2.245
14332TIP3    H242942   3.442   1.140   2.098
14333TIP3   OH242943   3.978   5.776   0.670
14333TIP3    H142944   3.949   5.867   0.682
14333TIP3    H242945   4.007   5.748   0.757
14334TIP3   OH242946   2.907   0.425   6.555
14334TIP3    H142947   2.929   0.467   6.638
14334TIP3    H242948   2.934   0.488   6.488
14335TIP3   OH242949   3.862   7.614   2.243
14335TIP3    H142950   3.906   7.695   2.270
14335TIP3    H242951   3.840   7.570   2.326
14336TIP3   OH242952   3.150   0.241   3.700
14336TIP3    H142953   3.160   0.154   3.737
14336TIP3    H242954   3.103   0.291   3.767
14337TIP3   OH242955   4.782   6.350   0.357
14337TIP3    H142956   4.855   6.325   0.301
14337TIP3    H242957   4.712   6.290   0.333
14338TIP3   OH242958   4.979   0.932   5.444
14338TIP3    H142959   4.939   1.015   5.418
14338TIP3    H242960   5.053   0.957   5.499
14339TIP3   OH242961   8.207   1.491   4.847
14339TIP3    H142962   8.290   1.537   4.851
14339TIP3    H242963   8.218   1.416   4.906
14340TIP3   OH242964   1.668   0.231   5.614
14340TIP3    H142965   1.690   0.156   5.560
14340TIP3    H242966   1.727   0.225   5.689
14341TIP3   OH242967   4.251   1.784   4.047
14341TIP3    H142968   4.341   1.754   4.058
14341TIP3    H242969   4.198   1.707   4.064
14342TIP3   OH242970   7.516   5.595   5.350
14342TIP3    H142971   7.457   5.602   5.426
14342TIP3    H242972   7.461   5.559   5.281
14343TIP3   OH242973   1.305   2.913   0.320
14343TIP3    H142974   1.255   2.962   0.254
14343TIP3    H242975   1.261   2.828   0.324
14344TIP3   OH242976   5.403   0.725   4.781
14344TIP3    H142977   5.321   0.690   4.818
14344TIP3    H242978   5.467   0.712   4.851
14345TIP3   OH242979   4.267   3.893   3.734
14345TIP3    H142980   4.252   3.987   3.726
14345TIP3    H242981   4.259   3.859   3.645
14346TIP3   OH242982   2.404   6.938   0.773
14346TIP3    H142983   2.417   6.898   0.859
14346TIP3    H242984   2.313   6.965   0.772
14347TIP3   OH242985   8.029   6.544   0.612
14347TIP3    H142986   8.043   6.617   0.673
14347TIP3    H242987   7.955   6.495   0.649
14348TIP3   OH242988   3.741   1.766   5.747
14348TIP3    H142989   3.696   1.798   5.669
14348TIP3    H242990   3.834   1.776   5.727
14349TIP3   OH242991   3.446   4.067   3.849
14349TIP3    H142992   3.440   3.972   3.846
14349TIP3    H242993   3.358   4.098   3.828
14350TIP3   OH242994   8.122   6.734   4.015
14350TIP3    H142995   8.104   6.669   4.083
14350TIP3    H242996   8.119   6.818   4.061
14351TIP3   OH242997   0.509   2.709   1.663
14351TIP3    H142998   0.446   2.643   1.688
14351TIP3    H242999   0.461   2.792   1.667
14352TIP3   OH243000   2.653   2.070   6.258
14352TIP3    H143001   2.595   2.044   6.329
14352TIP3    H243002   2.720   2.124   6.300
14353TIP3   OH243003   7.472   5.131   5.535
14353TIP3    H143004   7.494   5.162   5.623
14353TIP3    H243005   7.440   5.209   5.489
14354TIP3   OH243006   2.334   0.695   5.684
14354TIP3    H143007   2.363   0.605   5.697
14354TIP3    H243008   2.406   0.749   5.718
14355TIP3   OH243009   4.747   5.003   4.570
14355TIP3    H143010   4.807   4.935   4.541
14355TIP3    H243011   4.798   5.084   4.565
14356TIP3   OH243012   1.566   5.816   4.987
14356TIP3    H143013   1.528   5.882   5.045
14356TIP3    H243014   1.492   5.762   4.960
14357TIP3   OH243015   1.345   0.612   3.739
14357TIP3    H143016   1.396   0.548   3.690
14357TIP3    H243017   1.284   0.560   3.791
14358TIP3   OH243018   1.217   3.278   5.358
14358TIP3    H143019   1.180   3.277   5.446
14358TIP3    H243020   1.165   3.343   5.311
14359TIP3   OH243021   8.226   7.419   2.450
14359TIP3    H143022   8.312   7.384   2.474
14359TIP3    H243023   8.212   7.388   2.361
14360TIP3   OH243024   1.656   4.371   0.303
14360TIP3    H143025   1.681   4.392   0.393
14360TIP3    H243026   1.630   4.279   0.306
14361TIP3   OH243027   3.050   6.736   6.371
14361TIP3    H143028   2.959   6.737   6.401
14361TIP3    H243029   3.068   6.644   6.351
14362TIP3   OH243030   7.948   1.142   5.013
14362TIP3    H143031   7.860   1.133   5.049
14362TIP3    H243032   7.966   1.057   4.973
14363TIP3   OH243033   1.638   6.960   3.972
14363TIP3    H143034   1.697   6.914   3.912
14363TIP3    H243035   1.559   6.975   3.921
14364TIP3   OH243036   8.251   2.950   1.540
14364TIP3    H143037   8.262   2.887   1.469
14364TIP3    H243038   8.293   2.909   1.615
14365TIP3   OH243039   0.852   4.788   4.884
14365TIP3    H143040   0.821   4.878   4.897
14365TIP3    H243041   0.772   4.735   4.881
14366TIP3   OH243042   0.902   4.830   1.687
14366TIP3    H143043   0.945   4.744   1.683
14366TIP3    H243044   0.857   4.838   1.604
14367TIP3   OH243045   5.973   0.148   4.219
14367TIP3    H143046   5.999   0.240   4.218
14367TIP3    H243047   5.917   0.138   4.142
14368TIP3   OH243048   8.095   3.733   2.236
14368TIP3    H143049   8.068   3.643   2.217
14368TIP3    H243050   8.171   3.748   2.180
14369TIP3   OH243051   1.701   5.297   2.433
14369TIP3    H143052   1.710   5.351   2.355
14369TIP3    H243053   1.607   5.298   2.453
14370TIP3   OH243054   4.772   6.754   1.775
14370TIP3    H143055   4.853   6.776   1.730
14370TIP3    H243056   4.777   6.659   1.788
14371TIP3   OH243057   0.158   7.006   2.555
14371TIP3    H143058   0.142   6.919   2.594
14371TIP3    H243059   0.252   7.017   2.560
14372TIP3   OH243060   4.208   0.167   5.686
14372TIP3    H143061   4.300   0.183   5.706
14372TIP3    H243062   4.209   0.090   5.628
14373TIP3   OH243063   3.386   7.761   1.806
14373TIP3    H143064   3.439   7.700   1.858
14373TIP3    H243065   3.428   7.846   1.821
14374TIP3   OH243066   2.155   5.926   0.820
14374TIP3    H143067   2.127   5.927   0.911
14374TIP3    H243068   2.225   5.859   0.817
14375TIP3   OH243069   4.919   2.856   2.688
14375TIP3    H143070   4.909   2.789   2.620
14375TIP3    H243071   4.888   2.815   2.768
14376TIP3   OH243072   3.672   5.172   0.930
14376TIP3    H143073   3.664   5.240   0.863
14376TIP3    H243074   3.595   5.117   0.918
14377TIP3   OH243075   3.787   7.749   2.861
14377TIP3    H143076   3.876   7.720   2.877
14377TIP3    H243077   3.797   7.834   2.817
14378TIP3   OH243078   5.161   3.646   5.530
14378TIP3    H143079   5.222   3.597   5.584
14378TIP3    H243080   5.136   3.721   5.584
14379TIP3   OH243081   7.701   7.505   2.066
14379TIP3    H143082   7.646   7.498   1.988
14379TIP3    H243083   7.791   7.494   2.033
14380TIP3   OH243084   3.646   6.788   0.758
14380TIP3    H143085   3.595   6.837   0.694
14380TIP3    H243086   3.733   6.828   0.755
14381TIP3   OH243087   0.752   2.638   3.049
14381TIP3    H143088   0.783   2.617   3.137
14381TIP3    H243089   0.814   2.703   3.016
14382TIP3   OH243090   2.359   5.992   5.027
14382TIP3    H143091   2.431   5.972   4.967
14382TIP3    H243092   2.350   6.087   5.024
14383TIP3   OH243093   7.325   3.637   5.340
14383TIP3    H143094   7.365   3.684   5.266
14383TIP3    H243095   7.325   3.701   5.411
14384TIP3   OH243096   0.611   4.919   2.393
14384TIP3    H143097   0.552   4.847   2.371
14384TIP3    H243098   0.581   4.950   2.478
14385TIP3   OH243099   7.695   5.875   0.525
14385TIP3    H143100   7.676   5.940   0.457
14385TIP3    H243101   7.622   5.883   0.586
14386TIP3   OH243102   5.337   1.971   4.191
14386TIP3    H143103   5.327   1.950   4.283
14386TIP3    H243104   5.425   2.008   4.184
14387TIP3   OH243105   4.876   3.790   4.501
14387TIP3    H143106   4.865   3.868   4.555
14387TIP3    H243107   4.848   3.718   4.557
14388TIP3   OH243108   4.370   5.694   1.847
14388TIP3    H143109   4.313   5.717   1.774
14388TIP3    H243110   4.354   5.601   1.862
14389TIP3   OH243111   3.488   3.988   1.063
14389TIP3    H143112   3.442   3.923   1.115
14389TIP3    H243113   3.509   3.943   0.981
14390TIP3   OH243114   7.297   1.959   5.805
14390TIP3    H143115   7.228   1.897   5.783
14390TIP3    H243116   7.251   2.039   5.831
14391TIP3   OH243117   1.786   4.548   0.982
14391TIP3    H143118   1.853   4.487   1.013
14391TIP3    H243119   1.769   4.605   1.056
14392TIP3   OH243120   4.070   6.850   0.984
14392TIP3    H143121   4.164   6.828   0.986
14392TIP3    H243122   4.037   6.805   0.906
14393TIP3   OH243123   2.851   7.403   0.751
14393TIP3    H143124   2.771   7.398   0.804
14393TIP3    H243125   2.922   7.400   0.814
14394TIP3   OH243126   8.256   6.914   5.043
14394TIP3    H143127   8.231   6.882   5.129
14394TIP3    H243128   8.221   7.002   5.039
14395TIP3   OH243129   8.290   4.294   4.707
14395TIP3    H143130   8.270   4.207   4.671
14395TIP3    H243131   8.212   4.346   4.688
14396TIP3   OH243132   1.858   7.681   3.881
14396TIP3    H143133   1.918   7.630   3.826
14396TIP3    H243134   1.907   7.761   3.900
14397TIP3   OH243135   7.818   3.539   4.594
14397TIP3    H143136   7.855   3.479   4.659
14397TIP3    H243137   7.893   3.568   4.542
14398TIP3   OH243138   7.121   1.151   3.582
14398TIP3    H143139   7.078   1.067   3.599
14398TIP3    H243140   7.160   1.176   3.666
14399TIP3   OH243141   1.030   0.094   2.789
14399TIP3    H143142   1.004   0.035   2.860
14399TIP3    H243143   1.022   0.181   2.827
14400TIP3   OH243144   4.931   4.621   0.357
14400TIP3    H143145   4.989   4.641   0.284
14400TIP3    H243146   4.966   4.672   0.430
14401TIP3   OH243147   4.933   0.539   1.819
14401TIP3    H143148   4.985   0.557   1.898
14401TIP3    H243149   4.843   0.562   1.844
14402TIP3   OH243150   0.406   0.854   5.254
14402TIP3    H143151   0.348   0.912   5.204
14402TIP3    H243152   0.390   0.767   5.218
14403TIP3   OH243153   0.350   7.362   4.953
14403TIP3    H143154   0.431   7.349   5.002
14403TIP3    H243155   0.298   7.420   5.008
14404TIP3   OH243156   6.669   2.817   6.730
14404TIP3    H143157   6.713   2.884   6.784
14404TIP3    H243158   6.626   2.868   6.661
14405TIP3   OH243159   2.470   0.109   4.141
14405TIP3    H143160   2.558   0.142   4.155
14405TIP3    H243161   2.425   0.124   4.224
14406TIP3   OH243162   7.325   7.492   2.382
14406TIP3    H143163   7.265   7.440   2.435
14406TIP3    H243164   7.404   7.501   2.435
14407TIP3   OH243165   3.780   6.751   2.837
14407TIP3    H143166   3.779   6.835   2.883
14407TIP3    H243167   3.690   6.720   2.842
14408TIP3   OH243168   2.071   5.276   3.707
14408TIP3    H143169   2.051   5.185   3.729
14408TIP3    H243170   2.007   5.300   3.640
14409TIP3   OH243171   6.257   1.784   3.628
14409TIP3    H143172   6.202   1.759   3.553
14409TIP3    H243173   6.268   1.704   3.678
14410TIP3   OH243174   2.246   0.170   0.517
14410TIP3    H143175   2.330   0.172   0.471
14410TIP3    H243176   2.199   0.097   0.478
14411TIP3   OH243177   5.952   5.270   5.237
14411TIP3    H143178   5.865   5.290   5.271
14411TIP3    H243179   6.011   5.324   5.289
14412TIP3   OH243180   7.839   7.621   4.396
14412TIP3    H143181   7.830   7.670   4.478
14412TIP3    H243182   7.768   7.557   4.398
14413TIP3   OH243183   0.124   6.324   5.181
14413TIP3    H143184   0.209   6.282   5.167
14413TIP3    H243185   0.083   6.324   5.094
14414TIP3   OH243186   0.338   5.393   1.985
14414TIP3    H143187   0.268   5.430   2.039
14414TIP3    H243188   0.326   5.434   1.899
14415TIP3   OH243189   7.814   1.070   1.200
14415TIP3    H143190   7.772   0.984   1.204
14415TIP3    H243191   7.786   1.105   1.115
14416TIP3   OH243192   3.185   5.849   2.132
14416TIP3    H143193   3.101   5.808   2.112
14416TIP3    H243194   3.236   5.780   2.175
14417TIP3   OH243195   5.413   3.176   0.154
14417TIP3    H143196   5.428   3.258   0.202
14417TIP3    H243197   5.428   3.108   0.220
14418TIP3   OH243198   0.965   6.425   3.999
14418TIP3    H143199   1.054   6.430   4.033
14418TIP3    H243200   0.975   6.438   3.905
14419TIP3   OH243201   0.241   2.436   2.617
14419TIP3    H143202   0.192   2.505   2.662
14419TIP3    H243203   0.176   2.392   2.562
14420TIP3   OH243204   6.669   5.646   3.599
14420TIP3    H143205   6.676   5.601   3.684
14420TIP3    H243206   6.758   5.677   3.582
14421TIP3   OH243207   7.318   0.516   4.102
14421TIP3    H143208   7.285   0.574   4.171
14421TIP3    H243209   7.343   0.436   4.148
14422TIP3   OH243210   0.310   2.383   4.065
14422TIP3    H143211   0.310   2.292   4.035
14422TIP3    H243212   0.278   2.379   4.155
14423TIP3   OH243213   5.165   4.548   5.255
14423TIP3    H143214   5.238   4.566   5.196
14423TIP3    H243215   5.204   4.500   5.328
14424TIP3   OH243216   4.384   4.603   3.675
14424TIP3    H143217   4.330   4.651   3.738
14424TIP3    H243218   4.437   4.545   3.729
14425TIP3   OH243219   6.618   4.860   2.278
14425TIP3    H143220   6.593   4.948   2.306
14425TIP3    H243221   6.650   4.818   2.358
14426TIP3   OH243222   4.544   1.742   0.147
14426TIP3    H143223   4.583   1.811   0.093
14426TIP3    H243224   4.470   1.709   0.095
14427TIP3   OH243225   0.165   7.772   2.023
14427TIP3    H143226   0.242   7.809   1.980
14427TIP3    H243227   0.194   7.754   2.113
14428TIP3   OH243228   6.881   7.060   2.650
14428TIP3    H143229   6.891   6.981   2.598
14428TIP3    H243230   6.811   7.040   2.712
14429TIP3   OH243231   7.506   0.173   4.575
14429TIP3    H143232   7.463   0.143   4.655
14429TIP3    H243233   7.484   0.106   4.510
14430TIP3   OH243234   5.353   3.175   1.977
14430TIP3    H143235   5.269   3.186   1.931
14430TIP3    H243236   5.410   3.133   1.913
14431TIP3   OH243237   3.552   0.969   1.890
14431TIP3    H143238   3.568   1.041   1.828
14431TIP3    H243239   3.638   0.948   1.926
14432TIP3   OH243240   7.920   7.529   3.897
14432TIP3    H143241   8.006   7.561   3.868
14432TIP3    H243242   7.932   7.509   3.990
14433TIP3   OH243243   5.240   4.581   6.375
14433TIP3    H143244   5.210   4.656   6.426
14433TIP3    H243245   5.175   4.572   6.306
14434TIP3   OH243246   2.957   0.848   2.528
14434TIP3    H143247   2.929   0.759   2.506
14434TIP3    H243248   2.876   0.897   2.538
14435TIP3   OH243249   1.046   1.335   0.214
14435TIP3    H143250   1.082   1.335   0.125
14435TIP3    H243251   1.026   1.427   0.232
14436TIP3   OH243252   4.153   3.190   5.928
14436TIP3    H143253   4.071   3.151   5.896
14436TIP3    H243254   4.136   3.205   6.021
14437TIP3   OH243255   1.282   6.691   5.552
14437TIP3    H143256   1.344   6.749   5.596
14437TIP3    H243257   1.226   6.657   5.623
14438TIP3   OH243258   5.227   2.096   6.226
14438TIP3    H143259   5.219   2.158   6.154
14438TIP3    H243260   5.305   2.045   6.206
14439TIP3   OH243261   3.928   3.878   4.278
14439TIP3    H143262   3.983   3.924   4.215
14439TIP3    H243263   3.849   3.932   4.284
14440TIP3   OH243264   6.259   7.646   2.770
14440TIP3    H143265   6.318   7.575   2.744
14440TIP3    H243266   6.194   7.650   2.700
14441TIP3   OH243267   1.140   6.622   4.329
14441TIP3    H143268   1.157   6.596   4.239
14441TIP3    H243269   1.195   6.565   4.382
14442TIP3   OH243270   3.652   4.310   5.206
14442TIP3    H143271   3.740   4.275   5.222
14442TIP3    H243272   3.593   4.238   5.225
14443TIP3   OH243273   5.463   0.516   1.350
14443TIP3    H143274   5.447   0.599   1.395
14443TIP3    H243275   5.544   0.483   1.388
14444TIP3   OH243276   7.822   5.110   1.371
14444TIP3    H143277   7.904   5.159   1.382
14444TIP3    H243278   7.846   5.035   1.317
14445TIP3   OH243279   8.074   5.394   5.919
14445TIP3    H143280   8.072   5.468   5.858
14445TIP3    H243281   8.108   5.321   5.867
14446TIP3   OH243282   7.669   7.780   4.243
14446TIP3    H143283   7.699   7.701   4.288
14446TIP3    H243284   7.612   7.824   4.307
14447TIP3   OH243285   6.117   1.142   6.420
14447TIP3    H143286   6.125   1.128   6.326
14447TIP3    H243287   6.181   1.082   6.459
14448TIP3   OH243288   0.334   2.213   2.429
14448TIP3    H143289   0.367   2.198   2.518
14448TIP3    H243290   0.399   2.171   2.372
14449TIP3   OH243291   5.723   4.916   4.422
14449TIP3    H143292   5.817   4.901   4.418
14449TIP3    H243293   5.704   4.971   4.346
14450TIP3   OH243294   4.652   4.904   0.795
14450TIP3    H143295   4.695   4.924   0.878
14450TIP3    H243296   4.579   4.966   0.790
14451TIP3   OH243297   6.062   6.279   4.155
14451TIP3    H143298   5.990   6.242   4.207
14451TIP3    H243299   6.026   6.287   4.067
14452TIP3   OH243300   4.185   4.331   1.689
14452TIP3    H143301   4.253   4.390   1.720
14452TIP3    H243302   4.203   4.320   1.596
14453TIP3   OH243303   2.861   6.677   4.789
14453TIP3    H143304   2.839   6.642   4.876
14453TIP3    H243305   2.834   6.768   4.792
14454TIP3   OH243306   2.037   7.345   5.979
14454TIP3    H143307   2.071   7.335   6.068
14454TIP3    H243308   2.058   7.435   5.955
14455TIP3   OH243309   4.583   2.767   4.133
14455TIP3    H143310   4.676   2.786   4.122
14455TIP3    H243311   4.555   2.821   4.207
14456TIP3   OH243312   4.803   1.355   2.916
14456TIP3    H143313   4.751   1.278   2.938
14456TIP3    H243314   4.773   1.381   2.829
14457TIP3   OH243315   2.989   0.703   0.607
14457TIP3    H143316   3.065   0.645   0.610
14457TIP3    H243317   3.016   0.775   0.550
14458TIP3   OH243318   0.680   1.223   6.127
14458TIP3    H143319   0.627   1.214   6.048
14458TIP3    H243320   0.756   1.274   6.099
14459TIP3   OH243321   1.735   6.594   4.534
14459TIP3    H143322   1.775   6.546   4.606
14459TIP3    H243323   1.810   6.626   4.483
14460TIP3   OH243324   0.280   0.833   1.945
14460TIP3    H143325   0.347   0.765   1.945
14460TIP3    H243326   0.322   0.908   1.903
14461TIP3   OH243327   4.819   2.533   4.342
14461TIP3    H143328   4.725   2.537   4.326
14461TIP3    H243329   4.843   2.442   4.324
14462TIP3   OH243330   3.029   1.473   4.427
14462TIP3    H143331   2.941   1.444   4.403
14462TIP3    H243332   3.087   1.413   4.381
14463TIP3   OH243333   6.802   5.709   6.443
14463TIP3    H143334   6.799   5.657   6.362
14463TIP3    H243335   6.876   5.768   6.430
14464TIP3   OH243336   3.673   5.189   4.337
14464TIP3    H143337   3.593   5.174   4.288
14464TIP3    H243338   3.710   5.102   4.350
14465TIP3   OH243339   2.042   6.392   1.492
14465TIP3    H143340   2.131   6.382   1.526
14465TIP3    H243341   1.992   6.322   1.535
14466TIP3   OH243342   6.079   5.573   2.634
14466TIP3    H143343   6.018   5.511   2.673
14466TIP3    H243344   6.091   5.641   2.701
14467TIP3   OH243345   0.833   2.615   3.323
14467TIP3    H143346   0.749   2.570   3.319
14467TIP3    H243347   0.890   2.554   3.371
14468TIP3   OH243348   5.994   6.877   6.231
14468TIP3    H143349   5.954   6.859   6.317
14468TIP3    H243350   5.929   6.930   6.186
14469TIP3   OH243351   5.525   3.316   5.987
14469TIP3    H143352   5.606   3.366   6.000
14469TIP3    H243353   5.554   3.227   5.968
14470TIP3   OH243354   7.219   5.936   0.176
14470TIP3    H143355   7.137   5.961   0.134
14470TIP3    H243356   7.256   5.870   0.118
14471TIP3   OH243357   4.978   7.003   2.229
14471TIP3    H143358   5.014   6.951   2.157
14471TIP3    H243359   4.928   7.072   2.186
14472TIP3   OH243360   0.499   3.149   2.125
14472TIP3    H143361   0.494   3.237   2.087
14472TIP3    H243362   0.481   3.162   2.218
14473TIP3   OH243363   7.466   0.714   0.458
14473TIP3    H143364   7.445   0.656   0.532
14473TIP3    H243365   7.505   0.791   0.499
14474TIP3   OH243366   4.759   1.017   6.576
14474TIP3    H143367   4.820   0.944   6.562
14474TIP3    H243368   4.780   1.079   6.507
14475TIP3   OH243369   4.466   7.334   3.346
14475TIP3    H143370   4.377   7.319   3.314
14475TIP3    H243371   4.487   7.424   3.318
14476TIP3   OH243372   1.148   5.234   3.920
14476TIP3    H143373   1.171   5.212   4.010
14476TIP3    H243374   1.137   5.329   3.921
14477TIP3   OH243375   7.016   6.407   5.677
14477TIP3    H143376   7.066   6.348   5.621
14477TIP3    H243377   7.063   6.491   5.671
14478TIP3   OH243378   8.216   3.869   5.032
14478TIP3    H143379   8.235   3.960   5.057
14478TIP3    H243380   8.300   3.833   5.005
14479TIP3   OH243381   8.239   2.120   3.751
14479TIP3    H143382   8.180   2.052   3.782
14479TIP3    H243383   8.219   2.196   3.805
14480TIP3   OH243384   8.066   7.459   3.198
14480TIP3    H143385   7.976   7.435   3.177
14480TIP3    H243386   8.062   7.491   3.288
14481TIP3   OH243387   4.244   2.247   6.462
14481TIP3    H143388   4.338   2.256   6.447
14481TIP3    H243389   4.210   2.336   6.453
14482TIP3   OH243390   7.494   4.474   3.327
14482TIP3    H143391   7.441   4.402   3.293
14482TIP3    H243392   7.571   4.431   3.365
14483TIP3   OH243393   6.007   6.008   3.604
14483TIP3    H143394   5.914   6.007   3.628
14483TIP3    H243395   6.051   6.045   3.680
14484TIP3   OH243396   5.914   1.247   2.858
14484TIP3    H143397   5.988   1.197   2.823
14484TIP3    H243398   5.858   1.264   2.782
14485TIP3   OH243399   3.208   2.920   3.724
14485TIP3    H143400   3.223   3.011   3.750
14485TIP3    H243401   3.291   2.892   3.686
14486TIP3   OH243402   5.141   0.032   0.917
14486TIP3    H143403   5.067   0.036   0.979
14486TIP3    H243404   5.209   0.084   0.958
14487TIP3   OH243405   8.317   5.893   5.807
14487TIP3    H143406   8.226   5.923   5.805
14487TIP3    H243407   8.348   5.905   5.717
14488TIP3   OH243408   6.582   2.637   2.255
14488TIP3    H143409   6.578   2.698   2.328
14488TIP3    H243410   6.612   2.690   2.181
14489TIP3   OH243411   4.235   2.188   2.406
14489TIP3    H143412   4.330   2.200   2.417
14489TIP3    H243413   4.217   2.220   2.318
14490TIP3   OH243414   2.199   0.656   6.095
14490TIP3    H143415   2.292   0.671   6.076
14490TIP3    H243416   2.156   0.666   6.010
14491TIP3   OH243417   0.235   0.393   6.414
14491TIP3    H143418   0.242   0.299   6.400
14491TIP3    H243419   0.230   0.430   6.325
14492TIP3   OH243420   8.003   3.279   2.792
14492TIP3    H143421   8.047   3.301   2.874
14492TIP3    H243422   8.055   3.324   2.725
14493TIP3   OH243423   2.020   0.547   5.003
14493TIP3    H143424   2.028   0.634   5.044
14493TIP3    H243425   1.974   0.563   4.921
14494TIP3   OH243426   6.646   3.765   2.514
14494TIP3    H143427   6.691   3.688   2.548
14494TIP3    H243428   6.667   3.835   2.576
14495TIP3   OH243429   6.124   6.082   4.995
14495TIP3    H143430   6.100   6.012   4.934
14495TIP3    H243431   6.052   6.144   4.991
14496TIP3   OH243432   6.791   3.014   2.388
14496TIP3    H143433   6.704   3.053   2.384
14496TIP3    H243434   6.824   3.036   2.475
14497TIP3   OH243435   6.431   4.993   3.678
14497TIP3    H143436   6.428   4.969   3.771
14497TIP3    H243437   6.489   4.928   3.639
14498TIP3   OH243438   0.023   4.533   3.450
14498TIP3    H143439  -0.072   4.523   3.441
14498TIP3    H243440   0.050   4.579   3.371
14499TIP3   OH243441   3.188   7.449   3.010
14499TIP3    H143442   3.245   7.378   2.979
14499TIP3    H243443   3.226   7.528   2.971
14500TIP3   OH243444   7.450   1.620   5.997
14500TIP3    H143445   7.501   1.575   6.065
14500TIP3    H243446   7.462   1.567   5.918
14501TIP3   OH243447   4.605   2.972   0.315
14501TIP3    H143448   4.518   2.948   0.347
14501TIP3    H243449   4.629   3.048   0.367
14502TIP3   OH243450   7.648   1.803   3.250
14502TIP3    H143451   7.597   1.848   3.182
14502TIP3    H243452   7.586   1.740   3.287
14503TIP3   OH243453   7.617   5.755   4.141
14503TIP3    H143454   7.633   5.692   4.071
14503TIP3    H243455   7.533   5.729   4.179
14504TIP3   OH243456   0.861   4.415   0.407
14504TIP3    H143457   0.857   4.356   0.332
14504TIP3    H243458   0.955   4.423   0.426
14505TIP3   OH243459   6.841   5.369   2.175
14505TIP3    H143460   6.888   5.304   2.226
14505TIP3    H243461   6.878   5.363   2.087
14506TIP3   OH243462   7.122   6.268   2.575
14506TIP3    H143463   7.203   6.246   2.621
14506TIP3    H243464   7.052   6.234   2.632
14507TIP3   OH243465   3.736   4.829   6.660
14507TIP3    H143466   3.671   4.834   6.731
14507TIP3    H243467   3.741   4.736   6.639
14508TIP3   OH243468   0.766   7.344   3.251
14508TIP3    H143469   0.761   7.264   3.199
14508TIP3    H243470   0.859   7.366   3.253
14509TIP3   OH243471   5.517   7.598   4.293
14509TIP3    H143472   5.481   7.617   4.206
14509TIP3    H243473   5.587   7.662   4.304
14510TIP3   OH243474   2.670   5.742   0.729
14510TIP3    H143475   2.632   5.723   0.643
14510TIP3    H243476   2.672   5.657   0.773
14511TIP3   OH243477   2.354   5.366   4.352
14511TIP3    H143478   2.313   5.279   4.358
14511TIP3    H243479   2.388   5.383   4.439
14512TIP3   OH243480   6.135   6.778   5.661
14512TIP3    H143481   6.136   6.711   5.592
14512TIP3    H243482   6.224   6.813   5.661
14513TIP3   OH243483   4.576   4.008   5.323
14513TIP3    H143484   4.535   3.945   5.383
14513TIP3    H243485   4.669   3.985   5.324
14514TIP3   OH243486   5.051   1.879   6.208
14514TIP3    H143487   5.137   1.919   6.193
14514TIP3    H243488   5.002   1.897   6.128
14515TIP3   OH243489   7.722   0.222   2.708
14515TIP3    H143490   7.790   0.251   2.647
14515TIP3    H243491   7.700   0.301   2.758
14516TIP3   OH243492   2.460   1.616   3.619
14516TIP3    H143493   2.462   1.682   3.550
14516TIP3    H243494   2.374   1.575   3.610
14517TIP3   OH243495   1.869   2.518   1.047
14517TIP3    H143496   1.865   2.608   1.077
14517TIP3    H243497   1.848   2.465   1.124
14518TIP3   OH243498   5.794   1.232   6.364
14518TIP3    H143499   5.862   1.267   6.307
14518TIP3    H243500   5.825   1.250   6.453
14519TIP3   OH243501   2.405   1.315   6.176
14519TIP3    H143502   2.337   1.381   6.159
14519TIP3    H243503   2.381   1.276   6.259
14520TIP3   OH243504   2.447   6.713   3.255
14520TIP3    H143505   2.422   6.773   3.325
14520TIP3    H243506   2.433   6.626   3.293
14521TIP3   OH243507   3.534   2.086   6.602
14521TIP3    H143508   3.565   2.002   6.569
14521TIP3    H243509   3.569   2.091   6.691
14522TIP3   OH243510   4.572   2.509   5.301
14522TIP3    H143511   4.558   2.536   5.391
14522TIP3    H243512   4.651   2.556   5.273
14523TIP3   OH243513   5.465   4.075   3.234
14523TIP3    H143514   5.496   4.060   3.324
14523TIP3    H243515   5.516   4.014   3.181
14524TIP3   OH243516   4.062   0.149   0.713
14524TIP3    H143517   3.990   0.145   0.777
14524TIP3    H243518   4.023   0.192   0.637
14525TIP3   OH243519   7.715   1.105   4.042
14525TIP3    H143520   7.794   1.051   4.034
14525TIP3    H243521   7.658   1.074   3.972
14526TIP3   OH243522   6.989   7.848   5.342
14526TIP3    H143523   6.945   7.860   5.258
14526TIP3    H243524   7.044   7.770   5.328
14527TIP3   OH243525   6.670   2.903   5.815
14527TIP3    H143526   6.656   2.824   5.867
14527TIP3    H243527   6.760   2.929   5.835
14528TIP3   OH243528   7.010   0.244   5.394
14528TIP3    H143529   7.046   0.163   5.357
14528TIP3    H243530   6.930   0.216   5.439
14529TIP3   OH243531   2.814   3.223   4.371
14529TIP3    H143532   2.875   3.158   4.337
14529TIP3    H243533   2.773   3.180   4.446
14530TIP3   OH243534   3.882   5.165   3.922
14530TIP3    H143535   3.901   5.246   3.969
14530TIP3    H243536   3.956   5.108   3.941
14531TIP3   OH243537   2.232   3.970   4.229
14531TIP3    H143538   2.277   3.977   4.313
14531TIP3    H243539   2.258   3.884   4.195
14532TIP3   OH243540   7.977   5.161   3.922
14532TIP3    H143541   8.054   5.104   3.914
14532TIP3    H243542   7.942   5.167   3.832
14533TIP3   OH243543   6.318   0.152   5.388
14533TIP3    H143544   6.410   0.173   5.373
14533TIP3    H243545   6.282   0.138   5.301
14534TIP3   OH243546   3.601   0.718   2.663
14534TIP3    H143547   3.597   0.755   2.751
14534TIP3    H243548   3.643   0.787   2.611
14535TIP3   OH243549   0.477   6.782   4.604
14535TIP3    H143550   0.415   6.747   4.539
14535TIP3    H243551   0.430   6.855   4.645
14536TIP3   OH243552   7.757   6.654   0.507
14536TIP3    H143553   7.730   6.693   0.424
14536TIP3    H243554   7.808   6.722   0.550
14537TIP3   OH243555   2.335   6.189   5.568
14537TIP3    H143556   2.258   6.136   5.590
14537TIP3    H243557   2.393   6.128   5.521
14538TIP3   OH243558   1.869   2.615   2.705
14538TIP3    H143559   1.824   2.698   2.721
14538TIP3    H243560   1.800   2.554   2.679
14539TIP3   OH243561   6.125   4.201   5.999
14539TIP3    H143562   6.094   4.159   6.079
14539TIP3    H243563   6.145   4.128   5.940
14540TIP3   OH243564   6.466   0.284   6.135
14540TIP3    H143565   6.393   0.285   6.197
14540TIP3    H243566   6.426   0.261   6.051
14541TIP3   OH243567   7.320   7.184   5.984
14541TIP3    H143568   7.298   7.179   6.077
14541TIP3    H243569   7.252   7.133   5.941
14542TIP3   OH243570   2.584   4.266   2.701
14542TIP3    H143571   2.565   4.310   2.618
14542TIP3    H243572   2.558   4.175   2.686
14543TIP3   OH243573   3.023   3.203   5.632
14543TIP3    H143574   3.034   3.181   5.725
14543TIP3    H243575   2.942   3.158   5.607
14544TIP3   OH243576   5.332   4.223   3.578
14544TIP3    H143577   5.407   4.276   3.604
14544TIP3    H243578   5.315   4.166   3.653
14545TIP3   OH243579   3.748   6.383   2.688
14545TIP3    H143580   3.808   6.309   2.673
14545TIP3    H243581   3.673   6.344   2.733
14546TIP3   OH243582   3.397   5.371   0.642
14546TIP3    H143583   3.426   5.356   0.732
14546TIP3    H243584   3.430   5.458   0.620
14547TIP3   OH243585   6.339   6.544   3.624
14547TIP3    H143586   6.248   6.555   3.598
14547TIP3    H243587   6.379   6.497   3.551
14548TIP3   OH243588   7.737   3.132   1.816
14548TIP3    H143589   7.722   3.226   1.829
14548TIP3    H243590   7.658   3.101   1.772
14549TIP3   OH243591   6.689   6.610   4.372
14549TIP3    H143592   6.594   6.618   4.371
14549TIP3    H243593   6.706   6.525   4.331
14550TIP3   OH243594   0.968   0.005   2.081
14550TIP3    H143595   1.026  -0.048   2.136
14550TIP3    H243596   1.027   0.048   2.019
14551TIP3   OH243597   6.206   5.116   6.296
14551TIP3    H143598   6.292   5.118   6.254
14551TIP3    H243599   6.145   5.104   6.223
14552TIP3   OH243600   3.655   3.095   4.697
14552TIP3    H143601   3.616   3.082   4.783
14552TIP3    H243602   3.740   3.052   4.701
14553TIP3   OH243603   2.935   4.524   5.357
14553TIP3    H143604   2.946   4.430   5.369
14553TIP3    H243605   2.854   4.545   5.403
14554TIP3   OH243606   7.478   6.604   0.482
14554TIP3    H143607   7.465   6.584   0.390
14554TIP3    H243608   7.573   6.618   0.490
14555TIP3   OH243609   6.186   2.381   6.049
14555TIP3    H143610   6.120   2.327   6.007
14555TIP3    H243611   6.220   2.327   6.120
14556TIP3   OH243612   5.319   0.692   0.668
14556TIP3    H143613   5.367   0.735   0.598
14556TIP3    H243614   5.234   0.737   0.670
14557TIP3   OH243615   5.098   3.169   1.887
14557TIP3    H143616   5.014   3.214   1.896
14557TIP3    H243617   5.090   3.092   1.943
14558TIP3   OH243618   7.726   5.601   0.397
14558TIP3    H143619   7.805   5.576   0.446
14558TIP3    H243620   7.713   5.693   0.421
14559TIP3   OH243621   0.701   4.579   5.311
14559TIP3    H143622   0.711   4.632   5.391
14559TIP3    H243623   0.655   4.500   5.341
14560TIP3   OH243624   2.419   6.142   3.441
14560TIP3    H143625   2.409   6.212   3.506
14560TIP3    H243626   2.342   6.151   3.384
14561TIP3   OH243627   5.365   6.345   2.240
14561TIP3    H143628   5.387   6.421   2.186
14561TIP3    H243629   5.367   6.379   2.329
14562TIP3   OH243630   2.918   6.384   0.380
14562TIP3    H143631   2.988   6.332   0.419
14562TIP3    H243632   2.941   6.475   0.399
14563TIP3   OH243633   7.734   5.750   2.496
14563TIP3    H143634   7.821   5.767   2.531
14563TIP3    H243635   7.689   5.834   2.500
14564TIP3   OH243636   4.695   2.031   5.452
14564TIP3    H143637   4.635   2.100   5.481
14564TIP3    H243638   4.654   1.996   5.373
14565TIP3   OH243639   4.302   6.399   6.638
14565TIP3    H143640   4.224   6.347   6.657
14565TIP3    H243641   4.356   6.391   6.717
14566TIP3   OH243642   4.269   3.971   1.521
14566TIP3    H143643   4.324   3.951   1.597
14566TIP3    H243644   4.180   3.947   1.548
14567TIP3   OH243645   6.858   1.455   5.704
14567TIP3    H143646   6.826   1.545   5.713
14567TIP3    H243647   6.780   1.400   5.708
14568TIP3   OH243648   7.199   2.641   0.585
14568TIP3    H143649   7.246   2.607   0.509
14568TIP3    H243650   7.252   2.715   0.614
14569TIP3   OH243651   2.018   4.002   3.674
14569TIP3    H143652   2.111   4.002   3.649
14569TIP3    H243653   2.003   3.913   3.706
14570TIP3   OH243654   7.372   6.562   1.655
14570TIP3    H143655   7.437   6.562   1.584
14570TIP3    H243656   7.289   6.576   1.610
14571TIP3   OH243657   1.274   5.214   4.623
14571TIP3    H143658   1.220   5.197   4.699
14571TIP3    H243659   1.301   5.306   4.632
14572TIP3   OH243660   0.988   5.495   3.992
14572TIP3    H143661   0.952   5.568   4.044
14572TIP3    H243662   0.917   5.473   3.932
14573TIP3   OH243663   5.478   2.863   5.338
14573TIP3    H143664   5.504   2.929   5.274
14573TIP3    H243665   5.389   2.840   5.313
14574TIP3   OH243666   0.910   1.372   2.174
14574TIP3    H143667   0.829   1.399   2.132
14574TIP3    H243668   0.907   1.412   2.261
14575TIP3   OH243669   6.501   2.541   4.831
14575TIP3    H143670   6.558   2.547   4.754
14575TIP3    H243671   6.472   2.450   4.833
14576TIP3   OH243672   4.238   3.647   1.550
14576TIP3    H143673   4.158   3.698   1.556
14576TIP3    H243674   4.215   3.561   1.586
14577TIP3   OH243675   0.907   5.781   0.627
14577TIP3    H143676   0.958   5.729   0.689
14577TIP3    H243677   0.818   5.781   0.663
14578TIP3   OH243678   4.004   5.144   6.672
14578TIP3    H143679   4.091   5.176   6.646
14578TIP3    H243680   4.020   5.054   6.701
14579TIP3   OH243681   6.195   2.586   4.325
14579TIP3    H143682   6.149   2.578   4.409
14579TIP3    H243683   6.245   2.505   4.317
14580TIP3   OH243684   5.992   1.814   5.934
14580TIP3    H143685   5.922   1.874   5.962
14580TIP3    H243686   5.949   1.729   5.931
14581TIP3   OH243687   0.941   1.179   3.976
14581TIP3    H143688   0.975   1.204   3.890
14581TIP3    H243689   1.020   1.163   4.029
14582TIP3   OH243690   1.029   3.076   5.328
14582TIP3    H143691   1.120   3.105   5.327
14582TIP3    H243692   0.990   3.117   5.251
14583TIP3   OH243693   4.073   7.742   5.660
14583TIP3    H143694   4.073   7.742   5.756
14583TIP3    H243695   3.996   7.690   5.637
14584TIP3   OH243696   3.069   2.058   0.120
14584TIP3    H143697   3.139   2.075   0.058
14584TIP3    H243698   3.113   2.041   0.203
14585TIP3   OH243699   6.878   4.795   5.614
14585TIP3    H143700   6.786   4.777   5.630
14585TIP3    H243701   6.918   4.797   5.701
14586TIP3   OH243702   5.611   6.139   5.188
14586TIP3    H143703   5.583   6.128   5.279
14586TIP3    H243704   5.603   6.052   5.149
14587TIP3   OH243705   7.940   5.222   4.390
14587TIP3    H143706   7.906   5.209   4.301
14587TIP3    H243707   7.973   5.136   4.416
14588TIP3   OH243708   2.160   3.935   5.360
14588TIP3    H143709   2.179   3.875   5.288
14588TIP3    H243710   2.067   3.921   5.379
14589TIP3   OH243711   4.151   2.216   5.564
14589TIP3    H143712   4.130   2.294   5.512
14589TIP3    H243713   4.087   2.216   5.635
14590TIP3   OH243714   5.848   2.878   2.384
14590TIP3    H143715   5.894   2.917   2.459
14590TIP3    H243716   5.762   2.920   2.385
14591TIP3   OH243717   7.077   6.203   2.969
14591TIP3    H143718   7.134   6.230   3.041
14591TIP3    H243719   7.119   6.124   2.935
14592TIP3   OH243720   3.686   5.530   0.131
14592TIP3    H143721   3.766   5.499   0.174
14592TIP3    H243722   3.615   5.491   0.183
14593TIP3   OH243723   7.387   3.346   6.751
14593TIP3    H143724   7.445   3.415   6.783
14593TIP3    H243725   7.359   3.376   6.665
14594TIP3   OH243726   8.017   6.608   0.992
14594TIP3    H143727   8.075   6.681   1.011
14594TIP3    H243728   7.969   6.593   1.073
14595TIP3   OH243729   0.960   2.187   2.180
14595TIP3    H143730   0.927   2.097   2.175
14595TIP3    H243731   0.917   2.232   2.107
14596TIP3   OH243732   6.659   1.041   0.176
14596TIP3    H143733   6.605   1.015   0.251
14596TIP3    H243734   6.603   1.101   0.126
14597TIP3   OH243735   7.668   1.555   2.092
14597TIP3    H143736   7.671   1.626   2.028
14597TIP3    H243737   7.576   1.548   2.116
14598TIP3   OH243738   6.301   7.498   5.451
14598TIP3    H143739   6.386   7.468   5.420
14598TIP3    H243740   6.238   7.460   5.390
14599TIP3   OH243741   6.212   4.601   3.492
14599TIP3    H143742   6.207   4.554   3.576
14599TIP3    H243743   6.166   4.544   3.430
14600TIP3   OH243744   1.399   3.525   4.670
14600TIP3    H143745   1.377   3.455   4.609
14600TIP3    H243746   1.437   3.481   4.746
14601TIP3   OH243747   0.993   2.669   4.468
14601TIP3    H143748   0.941   2.639   4.394
14601TIP3    H243749   0.940   2.736   4.510
14602TIP3   OH243750   3.245   7.406   4.451
14602TIP3    H143751   3.318   7.417   4.512
14602TIP3    H243752   3.167   7.404   4.507
14603TIP3   OH243753   2.856   4.383   6.130
14603TIP3    H143754   2.851   4.318   6.200
14603TIP3    H243755   2.949   4.402   6.121
14604TIP3   OH243756   3.779   5.127   0.158
14604TIP3    H143757   3.766   5.033   0.141
14604TIP3    H243758   3.720   5.171   0.097
14605TIP3   OH243759   5.156   1.325   4.282
14605TIP3    H143760   5.107   1.246   4.257
14605TIP3    H243761   5.178   1.366   4.198
14606TIP3   OH243762   6.462   1.218   0.099
14606TIP3    H143763   6.476   1.269   0.019
14606TIP3    H243764   6.438   1.283   0.165
14607TIP3   OH243765   5.590   6.295   1.172
14607TIP3    H143766   5.633   6.312   1.088
14607TIP3    H243767   5.647   6.335   1.237
14608TIP3   OH243768   7.098   4.574   5.692
14608TIP3    H143769   7.053   4.514   5.633
14608TIP3    H243770   7.029   4.612   5.746
14609TIP3   OH243771   1.860   0.119   5.803
14609TIP3    H143772   1.944   0.110   5.757
14609TIP3    H243773   1.870   0.066   5.882
14610TIP3   OH243774   7.750   1.132   0.947
14610TIP3    H143775   7.710   1.201   0.894
14610TIP3    H243776   7.800   1.080   0.884
14611TIP3   OH243777   5.930   7.158   1.107
14611TIP3    H143778   5.862   7.095   1.083
14611TIP3    H243779   5.882   7.235   1.137
14612TIP3   OH243780   7.689   5.741   1.174
14612TIP3    H143781   7.622   5.747   1.242
14612TIP3    H243782   7.729   5.828   1.171
14613TIP3   OH243783   7.396   7.504   3.193
14613TIP3    H143784   7.453   7.554   3.135
14613TIP3    H243785   7.326   7.566   3.217
14614TIP3   OH243786   7.701   1.729   1.838
14614TIP3    H143787   7.683   1.816   1.874
14614TIP3    H243788   7.734   1.745   1.750
14615TIP3   OH243789   2.536   5.926   4.145
14615TIP3    H143790   2.591   5.852   4.119
14615TIP3    H243791   2.472   5.888   4.205
14616TIP3   OH243792   5.178   3.220   3.904
14616TIP3    H143793   5.154   3.150   3.842
14616TIP3    H243794   5.112   3.287   3.890
14617TIP3   OH243795   3.593   1.649   1.254
14617TIP3    H143796   3.573   1.644   1.161
14617TIP3    H243797   3.570   1.738   1.279
14618TIP3   OH243798   7.309   4.827   1.075
14618TIP3    H143799   7.262   4.824   0.992
14618TIP3    H243800   7.363   4.748   1.075
14619TIP3   OH243801   0.052   7.829   1.174
14619TIP3    H143802   0.048   7.814   1.269
14619TIP3    H243803   0.128   7.884   1.162
14620TIP3   OH243804   0.018   4.192   2.908
14620TIP3    H143805  -0.032   4.111   2.915
14620TIP3    H243806   0.102   4.173   2.950
14621TIP3   OH243807   4.689   5.376   1.011
14621TIP3    H143808   4.664   5.465   1.036
14621TIP3    H243809   4.714   5.334   1.093
14622TIP3   OH243810   8.035   5.546   4.843
14622TIP3    H143811   8.127   5.538   4.816
14622TIP3    H243812   8.035   5.619   4.905
14623TIP3   OH243813   6.725   5.904   0.289
14623TIP3    H143814   6.769   5.891   0.205
14623TIP3    H243815   6.677   5.823   0.304
14624TIP3   OH243816   8.134   6.289   2.853
14624TIP3    H143817   8.167   6.346   2.922
14624TIP3    H243818   8.166   6.202   2.876
14625TIP3   OH243819   2.062   2.562   2.900
14625TIP3    H143820   2.101   2.650   2.896
14625TIP3    H243821   2.038   2.543   2.809
14626TIP3   OH243822   8.217   2.035   4.128
14626TIP3    H143823   8.149   2.049   4.061
14626TIP3    H243824   8.252   2.123   4.145
14627TIP3   OH243825   0.289   5.008   1.983
14627TIP3    H143826   0.231   4.936   1.960
14627TIP3    H243827   0.300   5.058   1.902
14628TIP3   OH243828   5.456   6.697   2.684
14628TIP3    H143829   5.415   6.746   2.613
14628TIP3    H243830   5.457   6.607   2.653
14629TIP3   OH243831   5.273   4.771   2.625
14629TIP3    H143832   5.320   4.703   2.674
14629TIP3    H243833   5.338   4.807   2.565
14630TIP3   OH243834   1.783   2.424   0.056
14630TIP3    H143835   1.850   2.453  -0.006
14630TIP3    H243836   1.782   2.329   0.048
14631TIP3   OH243837   7.274   1.948   6.201
14631TIP3    H143838   7.213   1.908   6.263
14631TIP3    H243839   7.253   1.907   6.117
14632TIP3   OH243840   7.320   2.891   6.230
14632TIP3    H143841   7.242   2.938   6.199
14632TIP3    H243842   7.292   2.848   6.310
14633TIP3   OH243843   4.407   7.005   3.057
14633TIP3    H143844   4.418   6.936   2.991
14633TIP3    H243845   4.330   6.978   3.106
14634TIP3   OH243846   6.615   0.353   5.459
14634TIP3    H143847   6.668   0.276   5.479
14634TIP3    H243848   6.605   0.352   5.364
14635TIP3   OH243849   1.794   1.087   6.330
14635TIP3    H143850   1.828   1.098   6.419
14635TIP3    H243851   1.747   1.004   6.333
14636TIP3   OH243852   4.083   5.782   0.081
14636TIP3    H143853   4.117   5.855   0.132
14636TIP3    H243854   4.045   5.723   0.146
14637TIP3   OH243855   0.953   5.042   4.676
14637TIP3    H143856   1.004   5.063   4.754
14637TIP3    H243857   0.983   5.104   4.610
14638TIP3   OH243858   3.869   0.144   6.455
14638TIP3    H143859   3.847   0.084   6.526
14638TIP3    H243860   3.788   0.151   6.404
14639TIP3   OH243861   0.419   1.443   3.585
14639TIP3    H143862   0.333   1.400   3.584
14639TIP3    H243863   0.405   1.522   3.637
14640TIP3   OH243864   6.839   4.986   1.147
14640TIP3    H143865   6.920   5.005   1.099
14640TIP3    H243866   6.838   4.891   1.155
14641TIP3   OH243867   6.940   2.355   6.033
14641TIP3    H143868   6.864   2.404   6.002
14641TIP3    H243869   6.931   2.269   5.992
14642TIP3   OH243870   7.515   1.733   0.558
14642TIP3    H143871   7.438   1.694   0.600
14642TIP3    H243872   7.479   1.799   0.500
14643TIP3   OH243873   6.792   4.662   0.604
14643TIP3    H143874   6.750   4.580   0.632
14643TIP3    H243875   6.719   4.722   0.588
14644TIP3   OH243876   1.497   4.805   5.702
14644TIP3    H143877   1.578   4.808   5.752
14644TIP3    H243878   1.428   4.802   5.768
14645TIP3   OH243879   6.496   6.212   5.337
14645TIP3    H143880   6.450   6.277   5.283
14645TIP3    H243881   6.583   6.206   5.298
14646TIP3   OH243882   0.175   1.736   4.590
14646TIP3    H143883   0.229   1.794   4.535
14646TIP3    H243884   0.125   1.795   4.646
14647TIP3   OH243885   3.132   7.406   0.871
14647TIP3    H143886   3.123   7.331   0.813
14647TIP3    H243887   3.196   7.378   0.937
14648TIP3   OH243888   0.636   1.924   3.673
14648TIP3    H143889   0.702   1.873   3.626
14648TIP3    H243890   0.684   1.964   3.746
14649TIP3   OH243891   7.693   0.407   3.830
14649TIP3    H143892   7.732   0.340   3.773
14649TIP3    H243893   7.599   0.391   3.825
14650TIP3   OH243894   2.979   5.957   5.995
14650TIP3    H143895   2.898   5.923   5.958
14650TIP3    H243896   2.952   6.013   6.068
14651TIP3   OH243897   3.279   3.621   0.411
14651TIP3    H143898   3.357   3.649   0.459
14651TIP3    H243899   3.226   3.575   0.477
14652TIP3   OH243900   2.939   5.323   3.398
14652TIP3    H143901   2.846   5.301   3.404
14652TIP3    H243902   2.984   5.243   3.425
14653TIP3   OH243903   1.987   4.691   5.381
14653TIP3    H143904   1.977   4.727   5.293
14653TIP3    H243905   2.018   4.602   5.368
14654TIP3   OH243906   7.116   5.542   1.480
14654TIP3    H143907   7.067   5.518   1.401
14654TIP3    H243908   7.176   5.610   1.451
14655TIP3   OH243909   3.517   2.726   1.241
14655TIP3    H143910   3.498   2.650   1.186
14655TIP3    H243911   3.591   2.699   1.296
14656TIP3   OH243912   7.223   2.133   2.940
14656TIP3    H143913   7.138   2.094   2.918
14656TIP3    H243914   7.218   2.151   3.033
14657TIP3   OH243915   7.746   6.842   0.279
14657TIP3    H143916   7.751   6.805   0.191
14657TIP3    H243917   7.837   6.862   0.302
14658TIP3   OH243918   2.784   0.198   0.479
14658TIP3    H143919   2.860   0.141   0.466
14658TIP3    H243920   2.809   0.280   0.437
14659TIP3   OH243921   1.854   2.879   1.580
14659TIP3    H143922   1.942   2.863   1.544
14659TIP3    H243923   1.799   2.812   1.538
14660TIP3   OH243924   0.550   6.100   6.430
14660TIP3    H143925   0.489   6.033   6.399
14660TIP3    H243926   0.499   6.181   6.426
14661TIP3   OH243927   7.917   5.501   0.563
14661TIP3    H143928   7.893   5.461   0.647
14661TIP3    H243929   7.992   5.449   0.533
14662TIP3   OH243930   5.776   6.663   1.300
14662TIP3    H143931   5.700   6.714   1.271
14662TIP3    H243932   5.840   6.673   1.230
14663TIP3   OH243933   7.818   3.882   3.011
14663TIP3    H143934   7.750   3.850   3.070
14663TIP3    H243935   7.882   3.923   3.069
14664TIP3   OH243936   6.068   4.330   0.115
14664TIP3    H143937   6.068   4.417   0.076
14664TIP3    H243938   6.155   4.321   0.156
14665TIP3   OH243939   3.415   4.224   4.059
14665TIP3    H143940   3.352   4.191   4.123
14665TIP3    H243941   3.428   4.152   3.998
14666TIP3   OH243942   8.265   4.521   1.417
14666TIP3    H143943   8.297   4.555   1.334
14666TIP3    H243944   8.343   4.487   1.461
14667TIP3   OH243945   2.790   1.654   3.522
14667TIP3    H143946   2.769   1.638   3.614
14667TIP3    H243947   2.721   1.713   3.492
14668TIP3   OH243948   7.322   6.880   3.961
14668TIP3    H143949   7.313   6.791   3.926
14668TIP3    H243950   7.413   6.886   3.990
14669TIP3   OH243951   7.046   6.628   1.684
14669TIP3    H143952   6.956   6.605   1.663
14669TIP3    H243953   7.050   6.724   1.674
14670TIP3   OH243954   2.897   6.946   1.423
14670TIP3    H143955   2.847   6.995   1.358
14670TIP3    H243956   2.910   6.860   1.384
14671TIP3   OH243957   7.583   7.718   5.299
14671TIP3    H143958   7.607   7.810   5.302
14671TIP3    H243959   7.656   7.673   5.341
14672TIP3   OH243960   6.530   1.566   5.760
14672TIP3    H143961   6.470   1.568   5.686
14672TIP3    H243962   6.482   1.521   5.830
14673TIP3   OH243963   1.312   1.179   4.743
14673TIP3    H143964   1.344   1.250   4.799
14673TIP3    H243965   1.218   1.191   4.740
14674TIP3   OH243966   5.106   7.047   1.589
14674TIP3    H143967   5.192   7.085   1.603
14674TIP3    H243968   5.111   7.005   1.503
14675TIP3   OH243969   5.836   3.154   4.845
14675TIP3    H143970   5.853   3.061   4.861
14675TIP3    H243971   5.910   3.183   4.792
14676TIP3   OH243972   4.270   1.181   1.063
14676TIP3    H143973   4.298   1.125   0.990
14676TIP3    H243974   4.241   1.120   1.130
14677TIP3   OH243975   4.809   4.040   6.323
14677TIP3    H143976   4.732   4.040   6.381
14677TIP3    H243977   4.882   4.016   6.381
14678TIP3   OH243978   6.979   7.644   5.705
14678TIP3    H143979   6.886   7.635   5.722
14678TIP3    H243980   7.001   7.732   5.735
14679TIP3   OH243981   2.106   1.404   2.879
14679TIP3    H143982   2.128   1.311   2.870
14679TIP3    H243983   2.075   1.430   2.792
14680TIP3   OH243984   1.233   0.993   2.088
14680TIP3    H143985   1.265   0.910   2.123
14680TIP3    H243986   1.218   0.975   1.995
14681TIP3   OH243987   4.809   1.407   0.241
14681TIP3    H143988   4.736   1.390   0.182
14681TIP3    H243989   4.850   1.321   0.253
14682TIP3   OH243990   1.837   1.107   1.912
14682TIP3    H143991   1.850   1.070   1.999
14682TIP3    H243992   1.850   1.033   1.852
14683TIP3   OH243993   0.975   0.111   6.077
14683TIP3    H143994   1.022   0.175   6.023
14683TIP3    H243995   0.882   0.127   6.058
14684TIP3   OH243996   0.341   4.706   5.499
14684TIP3    H143997   0.278   4.649   5.457
14684TIP3    H243998   0.391   4.649   5.558
14685TIP3   OH243999   4.950   7.401   5.941
14685TIP3    H144000   5.035   7.436   5.968
14685TIP3    H244001   4.941   7.319   5.990
14686TIP3   OH244002   1.578   6.467   4.298
14686TIP3    H144003   1.588   6.547   4.247
14686TIP3    H244004   1.607   6.490   4.386
14687TIP3   OH244005   6.949   0.656   6.671
14687TIP3    H144006   6.951   0.578   6.727
14687TIP3    H244007   7.034   0.658   6.629
14688TIP3   OH244008   0.683   3.360   0.739
14688TIP3    H144009   0.667   3.293   0.806
14688TIP3    H244010   0.727   3.313   0.668
14689TIP3   OH244011   6.777   7.634   4.628
14689TIP3    H144012   6.690   7.639   4.589
14689TIP3    H244013   6.834   7.679   4.566
14690TIP3   OH244014   6.505   4.691   1.641
14690TIP3    H144015   6.510   4.675   1.735
14690TIP3    H244016   6.430   4.639   1.612
14691TIP3   OH244017   3.714   2.752   4.256
14691TIP3    H144018   3.752   2.714   4.176
14691TIP3    H244019   3.619   2.750   4.240
14692TIP3   OH244020   2.664   4.700   1.694
14692TIP3    H144021   2.649   4.729   1.784
14692TIP3    H244022   2.759   4.688   1.688
14693TIP3   OH244023   6.895   0.824   1.543
14693TIP3    H144024   6.967   0.816   1.606
14693TIP3    H244025   6.934   0.801   1.459
14694TIP3   OH244026   4.630   2.145   0.272
14694TIP3    H144027   4.651   2.083   0.341
14694TIP3    H244028   4.537   2.131   0.254
14695TIP3   OH244029   5.726   2.117   2.262
14695TIP3    H144030   5.646   2.150   2.303
14695TIP3    H244031   5.738   2.173   2.186
14696TIP3   OH244032   4.151   2.395   1.640
14696TIP3    H144033   4.189   2.407   1.553
14696TIP3    H244034   4.058   2.412   1.628
14697TIP3   OH244035   1.040   6.998   1.957
14697TIP3    H144036   1.009   6.947   1.882
14697TIP3    H244037   1.135   6.984   1.958
14698TIP3   OH244038   7.004   3.253   0.128
14698TIP3    H144039   7.075   3.292   0.180
14698TIP3    H244040   6.945   3.217   0.193
14699TIP3   OH244041   2.142   2.106   0.129
14699TIP3    H144042   2.132   2.035   0.193
14699TIP3    H244043   2.214   2.159   0.163
14700TIP3   OH244044   1.262   5.221   2.589
14700TIP3    H144045   1.212   5.145   2.559
14700TIP3    H244046   1.323   5.239   2.517
14701TIP3   OH244047   5.681   4.811   0.691
14701TIP3    H144048   5.676   4.749   0.765
14701TIP3    H244049   5.680   4.755   0.613
14702TIP3   OH244050   1.436   1.604   0.725
14702TIP3    H144051   1.353   1.571   0.689
14702TIP3    H244052   1.498   1.532   0.711
14703TIP3   OH244053   1.448   0.711   6.063
14703TIP3    H144054   1.442   0.778   5.995
14703TIP3    H244055   1.521   0.738   6.118
14704TIP3   OH244056   1.648   6.774   0.642
14704TIP3    H144057   1.670   6.837   0.711
14704TIP3    H244058   1.610   6.828   0.572
14705TIP3   OH244059   1.171   4.489   6.309
14705TIP3    H144060   1.173   4.528   6.221
14705TIP3    H244061   1.180   4.395   6.294
14706TIP3   OH244062   3.915   7.398   5.160
14706TIP3    H144063   3.927   7.341   5.084
14706TIP3    H244064   3.820   7.413   5.163
14707TIP3   OH244065   0.198   5.529   4.945
14707TIP3    H144066   0.136   5.459   4.965
14707TIP3    H244067   0.166   5.567   4.864
14708TIP3   OH244068   6.608   1.874   5.037
14708TIP3    H144069   6.613   1.850   5.130
14708TIP3    H244070   6.695   1.910   5.018
14709TIP3   OH244071   2.293   1.345   3.921
14709TIP3    H144072   2.317   1.381   4.007
14709TIP3    H244073   2.234   1.410   3.884
14710TIP3   OH244074   6.400   2.174   1.122
14710TIP3    H144075   6.472   2.233   1.097
14710TIP3    H244076   6.323   2.211   1.079
14711TIP3   OH244077   4.522   7.030   2.637
14711TIP3    H144078   4.528   7.054   2.544
14711TIP3    H244079   4.439   7.068   2.666
14712TIP3   OH244080   6.207   1.335   2.739
14712TIP3    H144081   6.232   1.390   2.664
14712TIP3    H244082   6.175   1.398   2.804
14713TIP3   OH244083   7.657   0.645   2.535
14713TIP3    H144084   7.719   0.715   2.552
14713TIP3    H244085   7.597   0.646   2.609
14714TIP3   OH244086   6.313   6.404   1.743
14714TIP3    H144087   6.305   6.482   1.797
14714TIP3    H244088   6.390   6.358   1.777
14715TIP3   OH244089   2.555   5.942   3.299
14715TIP3    H144090   2.503   5.880   3.249
14715TIP3    H244091   2.492   6.003   3.336
14716TIP3   OH244092   5.043   0.121   4.566
14716TIP3    H144093   5.092   0.180   4.623
14716TIP3    H244094   5.049   0.161   4.479
14717TIP3   OH244095   1.252   2.289   6.532
14717TIP3    H144096   1.283   2.216   6.584
14717TIP3    H244097   1.253   2.364   6.592
14718TIP3   OH244098   4.386   4.681   1.621
14718TIP3    H144099   4.294   4.655   1.612
14718TIP3    H244100   4.415   4.636   1.701
14719TIP3   OH244101   7.398   0.349   2.547
14719TIP3    H144102   7.381   0.396   2.465
14719TIP3    H244103   7.382   0.257   2.527
14720TIP3   OH244104   7.300   3.608   0.074
14720TIP3    H144105   7.350   3.689   0.088
14720TIP3    H244106   7.325   3.552   0.148
14721TIP3   OH244107   0.168   3.325   0.866
14721TIP3    H144108   0.245   3.286   0.907
14721TIP3    H244109   0.123   3.370   0.937
14722TIP3   OH244110   1.462   2.176   4.255
14722TIP3    H144111   1.411   2.120   4.314
14722TIP3    H244112   1.517   2.115   4.205
14723TIP3   OH244113   1.301   1.282   1.915
14723TIP3    H144114   1.369   1.228   1.956
14723TIP3    H244115   1.290   1.245   1.828
14724TIP3   OH244116   7.106   2.418   3.504
14724TIP3    H144117   7.202   2.415   3.505
14724TIP3    H244118   7.084   2.482   3.437
14725TIP3   OH244119   4.249   2.645   3.757
14725TIP3    H144120   4.293   2.723   3.725
14725TIP3    H244121   4.239   2.658   3.851
14726TIP3   OH244122   1.296   7.546   4.669
14726TIP3    H144123   1.224   7.609   4.663
14726TIP3    H244124   1.257   7.462   4.646
14727TIP3   OH244125   8.141   3.844   0.928
14727TIP3    H144126   8.100   3.836   0.842
14727TIP3    H244127   8.230   3.809   0.916
14728TIP3   OH244128   0.488   1.559   4.514
14728TIP3    H144129   0.529   1.645   4.518
14728TIP3    H244130   0.539   1.506   4.576
14729TIP3   OH244131   4.430   5.837   0.400
14729TIP3    H144132   4.523   5.851   0.384
14729TIP3    H244133   4.424   5.749   0.436
14730TIP3   OH244134   5.188   1.528   0.651
14730TIP3    H144135   5.107   1.568   0.683
14730TIP3    H244136   5.250   1.541   0.722
14731TIP3   OH244137   4.817   4.926   4.898
14731TIP3    H144138   4.878   4.965   4.835
14731TIP3    H244139   4.749   4.992   4.909
14732TIP3   OH244140   8.209   0.367   4.738
14732TIP3    H144141   8.142   0.336   4.799
14732TIP3    H244142   8.216   0.297   4.673
14733TIP3   OH244143   3.931   4.559   5.526
14733TIP3    H144144   3.933   4.476   5.478
14733TIP3    H244145   3.998   4.612   5.483
14734TIP3   OH244146   6.640   6.466   0.186
14734TIP3    H144147   6.643   6.555   0.153
14734TIP3    H244148   6.555   6.460   0.231
14735TIP3   OH244149   3.789   5.780   1.595
14735TIP3    H144150   3.875   5.743   1.571
14735TIP3    H244151   3.809   5.842   1.665
14736TIP3   OH244152   8.003   2.436   1.194
14736TIP3    H144153   8.085   2.416   1.240
14736TIP3    H244154   7.990   2.530   1.207
14737TIP3   OH244155   2.047   5.386   1.872
14737TIP3    H144156   2.106   5.314   1.891
14737TIP3    H244157   2.076   5.419   1.786
14738TIP3   OH244158   2.846   7.517   1.605
14738TIP3    H144159   2.778   7.545   1.543
14738TIP3    H244160   2.837   7.422   1.609
14739TIP3   OH244161   5.271   0.553  -0.019
14739TIP3    H144162   5.283   0.486   0.048
14739TIP3    H244163   5.183   0.587  -0.004
14740TIP3   OH244164   1.200   6.607   2.504
14740TIP3    H144165   1.145   6.604   2.425
14740TIP3    H244166   1.190   6.521   2.544
14741TIP3   OH244167   1.714   7.240   0.358
14741TIP3    H144168   1.703   7.165   0.416
14741TIP3    H244169   1.643   7.299   0.381
14742TIP3   OH244170   7.906   3.416   3.726
14742TIP3    H144171   7.811   3.412   3.742
14742TIP3    H244172   7.936   3.326   3.739
14743TIP3   OH244173   5.114   4.454   4.132
14743TIP3    H144174   5.131   4.493   4.046
14743TIP3    H244175   5.101   4.361   4.114
14744TIP3   OH244176   2.326   5.646   6.246
14744TIP3    H144177   2.371   5.593   6.312
14744TIP3    H244178   2.233   5.626   6.259
14745TIP3   OH244179   0.407   3.646   3.291
14745TIP3    H144180   0.370   3.734   3.293
14745TIP3    H244181   0.336   3.591   3.260
14746TIP3   OH244182   7.437   2.707   4.040
14746TIP3    H144183   7.397   2.790   4.064
14746TIP3    H244184   7.516   2.701   4.093
14747TIP3   OH244185   8.081   6.764   6.228
14747TIP3    H144186   8.044   6.754   6.140
14747TIP3    H244187   8.012   6.809   6.277
14748TIP3   OH244188   3.127   6.398   4.848
14748TIP3    H144189   3.207   6.387   4.899
14748TIP3    H244190   3.093   6.309   4.837
14749TIP3   OH244191   4.547   5.378   5.454
14749TIP3    H144192   4.504   5.377   5.369
14749TIP3    H244193   4.500   5.311   5.505
14750TIP3   OH244194   8.034   3.811   4.834
14750TIP3    H144195   8.085   3.837   4.911
14750TIP3    H244196   7.996   3.892   4.801
14751TIP3   OH244197   5.232   5.735   4.542
14751TIP3    H144198   5.148   5.765   4.508
14751TIP3    H244199   5.244   5.785   4.624
14752TIP3   OH244200   5.174   6.279   0.973
14752TIP3    H144201   5.227   6.241   1.044
14752TIP3    H244202   5.217   6.249   0.893
14753TIP3   OH244203   1.055   3.961   4.598
14753TIP3    H144204   0.988   3.916   4.650
14753TIP3    H244205   1.083   4.034   4.653
14754TIP3   OH244206   4.668   0.626   5.773
14754TIP3    H144207   4.741   0.682   5.747
14754TIP3    H244208   4.624   0.605   5.691
14755TIP3   OH244209   0.979   5.165   1.503
14755TIP3    H144210   1.031   5.242   1.477
14755TIP3    H244211   0.923   5.147   1.427
14756TIP3   OH244212   5.253   7.692   1.491
14756TIP3    H144213   5.274   7.784   1.507
14756TIP3    H244214   5.170   7.695   1.443
14757TIP3   OH244215   7.775   5.987   3.858
14757TIP3    H144216   7.791   5.991   3.952
14757TIP3    H244217   7.849   5.938   3.823
14758TIP3   OH244218   6.803   6.739   6.497
14758TIP3    H144219   6.891   6.726   6.462
14758TIP3    H244220   6.747   6.743   6.420
14759TIP3   OH244221   4.190   2.816   6.008
14759TIP3    H144222   4.110   2.869   6.005
14759TIP3    H244223   4.245   2.850   5.938
14760TIP3   OH244224   3.597   4.176   0.769
14760TIP3    H144225   3.560   4.114   0.706
14760TIP3    H244226   3.529   4.241   0.783
14761TIP3   OH244227   1.911   0.061   2.066
14761TIP3    H144228   1.919   0.011   2.147
14761TIP3    H244229   1.989   0.116   2.063
14762TIP3   OH244230   2.513   0.181   4.687
14762TIP3    H144231   2.571   0.217   4.619
14762TIP3    H244232   2.433   0.233   4.680
14763TIP3   OH244233   7.002   5.418   1.950
14763TIP3    H144234   6.956   5.396   1.869
14763TIP3    H244235   7.084   5.457   1.920
14764TIP3   OH244236   4.421   5.807   2.520
14764TIP3    H144237   4.402   5.860   2.443
14764TIP3    H244238   4.345   5.750   2.529
14765TIP3   OH244239   0.090   1.701   1.643
14765TIP3    H144240   0.004   1.707   1.685
14765TIP3    H244241   0.146   1.758   1.696
14766TIP3   OH244242   8.053   6.135   4.572
14766TIP3    H144243   8.089   6.086   4.498
14766TIP3    H244244   7.961   6.148   4.550
14767TIP3   OH244245   3.502   5.781   1.597
14767TIP3    H144246   3.513   5.872   1.625
14767TIP3    H244247   3.591   5.753   1.572
14768TIP3   OH244248   2.122   7.097   2.087
14768TIP3    H144249   2.199   7.146   2.117
14768TIP3    H244250   2.050   7.131   2.141
14769TIP3   OH244251   5.110   2.520   3.966
14769TIP3    H144252   5.182   2.499   4.026
14769TIP3    H244253   5.065   2.436   3.954
14770TIP3   OH244254   1.820   4.190   1.553
14770TIP3    H144255   1.793   4.122   1.615
14770TIP3    H244256   1.893   4.233   1.596
14771TIP3   OH244257   6.167   0.445   4.194
14771TIP3    H144258   6.119   0.512   4.147
14771TIP3    H244259   6.190   0.486   4.277
14772TIP3   OH244260   2.451   0.956   2.136
14772TIP3    H144261   2.473   1.020   2.068
14772TIP3    H244262   2.448   0.872   2.090
14773TIP3   OH244263   0.532   4.587   6.052
14773TIP3    H144264   0.618   4.546   6.063
14773TIP3    H244265   0.548   4.662   5.995
14774TIP3   OH244266   3.514   6.743   1.780
14774TIP3    H144267   3.430   6.705   1.758
14774TIP3    H244268   3.502   6.781   1.867
14775TIP3   OH244269   0.581   5.814   3.150
14775TIP3    H144270   0.585   5.775   3.237
14775TIP3    H244271   0.659   5.870   3.146
14776TIP3   OH244272   7.982  -0.022   6.464
14776TIP3    H144273   7.976   0.072   6.444
14776TIP3    H244274   8.074  -0.035   6.488
14777TIP3   OH244275   5.218   7.737   4.279
14777TIP3    H144276   5.129   7.710   4.259
14777TIP3    H244277   5.267   7.655   4.287
14778TIP3   OH244278   1.121   4.331   1.068
14778TIP3    H144279   1.081   4.248   1.041
14778TIP3    H244280   1.050   4.395   1.063
14779TIP3   OH244281   6.562   1.978   4.039
14779TIP3    H144282   6.583   1.919   3.967
14779TIP3    H244283   6.634   2.042   4.039
14780TIP3   OH244284   1.446   0.929   2.467
14780TIP3    H144285   1.489   0.977   2.396
14780TIP3    H244286   1.427   0.995   2.533
14781TIP3   OH244287   2.093   0.412   5.684
14781TIP3    H144288   2.050   0.436   5.602
14781TIP3    H244289   2.030   0.435   5.752
14782TIP3   OH244290   5.829   2.135   3.166
14782TIP3    H144291   5.799   2.213   3.214
14782TIP3    H244292   5.924   2.139   3.171
14783TIP3   OH244293   4.633   1.218   1.689
14783TIP3    H144294   4.641   1.274   1.765
14783TIP3    H244295   4.610   1.277   1.617
14784TIP3   OH244296   0.181   6.089   0.660
14784TIP3    H144297   0.227   6.116   0.580
14784TIP3    H244298   0.243   6.107   0.731
14785TIP3   OH244299   7.137   7.375   0.426
14785TIP3    H144300   7.183   7.311   0.372
14785TIP3    H244301   7.046   7.371   0.396
14786TIP3   OH244302   4.578   6.741   4.388
14786TIP3    H144303   4.633   6.667   4.361
14786TIP3    H244304   4.617   6.770   4.470
14787TIP3   OH244305   4.522   0.957   3.553
14787TIP3    H144306   4.613   0.934   3.530
14787TIP3    H244307   4.513   1.048   3.526
14788TIP3   OH244308   1.353   1.155   2.275
14788TIP3    H144309   1.322   1.098   2.205
14788TIP3    H244310   1.274   1.187   2.317
14789TIP3   OH244311   8.239   0.468   1.602
14789TIP3    H144312   8.215   0.400   1.665
14789TIP3    H244313   8.291   0.422   1.536
14790TIP3   OH244314   5.607   7.244   0.600
14790TIP3    H144315   5.524   7.209   0.633
14790TIP3    H244316   5.601   7.231   0.505
14791TIP3   OH244317   5.039   3.661   4.903
14791TIP3    H144318   5.086   3.620   4.975
14791TIP3    H244319   5.044   3.755   4.921
14792TIP3   OH244320   4.009   1.808   5.652
14792TIP3    H144321   4.092   1.836   5.692
14792TIP3    H244322   3.981   1.884   5.600
14793TIP3   OH244323   5.750   3.771   4.450
14793TIP3    H144324   5.688   3.838   4.475
14793TIP3    H244325   5.797   3.749   4.530
14794TIP3   OH244326   1.051   4.125   5.852
14794TIP3    H144327   0.963   4.104   5.822
14794TIP3    H244328   1.074   4.053   5.911
14795TIP3   OH244329   2.878   3.056   0.849
14795TIP3    H144330   2.903   3.046   0.757
14795TIP3    H244331   2.819   2.983   0.866
14796TIP3   OH244332   0.711   6.456   4.937
14796TIP3    H144333   0.702   6.386   4.872
14796TIP3    H244334   0.704   6.411   5.021
14797TIP3   OH244335   1.282   1.453   5.193
14797TIP3    H144336   1.195   1.447   5.152
14797TIP3    H244337   1.312   1.363   5.197
14798TIP3   OH244338   6.569   4.333   5.073
14798TIP3    H144339   6.646   4.371   5.030
14798TIP3    H244340   6.500   4.399   5.062
14799TIP3   OH244341   7.066   7.824   1.252
14799TIP3    H144342   7.065   7.830   1.348
14799TIP3    H244343   7.139   7.764   1.234
14800TIP3   OH244344   4.195   4.269   2.210
14800TIP3    H144345   4.284   4.289   2.240
14800TIP3    H244346   4.152   4.355   2.204
14801TIP3   OH244347   0.576   3.524   0.231
14801TIP3    H144348   0.506   3.537   0.166
14801TIP3    H244349   0.644   3.478   0.182
14802TIP3   OH244350   1.735   4.046   2.659
14802TIP3    H144351   1.829   4.031   2.655
14802TIP3    H244352   1.711   4.018   2.748
14803TIP3   OH244353   1.704   0.064   6.116
14803TIP3    H144354   1.733   0.081   6.205
14803TIP3    H244355   1.767   0.000   6.082
14804TIP3   OH244356   5.735   6.335   6.077
14804TIP3    H144357   5.736   6.252   6.028
14804TIP3    H244358   5.827   6.354   6.094
14805TIP3   OH244359   2.281   6.190   0.741
14805TIP3    H144360   2.228   6.261   0.777
14805TIP3    H244361   2.230   6.111   0.758
14806TIP3   OH244362   8.060   5.457   3.129
14806TIP3    H144363   8.078   5.440   3.222
14806TIP3    H244364   8.146   5.460   3.088
14807TIP3   OH244365   2.301   2.509   0.814
14807TIP3    H144366   2.214   2.524   0.777
14807TIP3    H244367   2.287   2.505   0.908
14808TIP3   OH244368   4.803   6.122   3.463
14808TIP3    H144369   4.792   6.212   3.492
14808TIP3    H244370   4.891   6.098   3.492
14809TIP3   OH244371   5.225   5.062   4.331
14809TIP3    H144372   5.179   5.092   4.409
14809TIP3    H244373   5.282   5.135   4.306
14810TIP3   OH244374   0.825   1.073   1.869
14810TIP3    H144375   0.883   1.097   1.941
14810TIP3    H244376   0.879   1.081   1.790
14811TIP3   OH244377   7.409   4.387   6.696
14811TIP3    H144378   7.455   4.416   6.775
14811TIP3    H244379   7.331   4.442   6.692
14812TIP3   OH244380   6.877   7.627   3.109
14812TIP3    H144381   6.829   7.652   3.188
14812TIP3    H244382   6.901   7.536   3.123
14813TIP3   OH244383   7.102   1.217   5.880
14813TIP3    H144384   7.188   1.235   5.919
14813TIP3    H244385   7.118   1.142   5.823
14814TIP3   OH244386   2.819   2.673   3.500
14814TIP3    H144387   2.860   2.755   3.527
14814TIP3    H244388   2.853   2.608   3.562
14815TIP3   OH244389   6.934   2.880   1.347
14815TIP3    H144390   6.876   2.877   1.423
14815TIP3    H244391   6.925   2.968   1.312
14816TIP3   OH244392   1.016   3.558   5.475
14816TIP3    H144393   1.082   3.531   5.538
14816TIP3    H244394   1.066   3.581   5.397
14817TIP3   OH244395   1.038   0.913   0.674
14817TIP3    H144396   1.126   0.937   0.646
14817TIP3    H244397   1.007   0.987   0.726
14818TIP3   OH244398   3.806   0.000   1.443
14818TIP3    H144399   3.893  -0.030   1.415
14818TIP3    H244400   3.818   0.022   1.536
14819TIP3   OH244401   1.661   2.591   1.490
14819TIP3    H144402   1.569   2.618   1.490
14819TIP3    H244403   1.685   2.590   1.397
14820TIP3   OH244404   5.545   0.974   3.803
14820TIP3    H144405   5.477   1.037   3.828
14820TIP3    H244406   5.503   0.889   3.808
14821TIP3   OH244407   0.988   7.463   4.392
14821TIP3    H144408   0.942   7.383   4.369
14821TIP3    H244409   0.923   7.533   4.378
14822TIP3   OH244410   1.241   2.889   1.818
14822TIP3    H144411   1.320   2.839   1.838
14822TIP3    H244412   1.173   2.850   1.872
14823TIP3   OH244413   4.731   3.517   5.695
14823TIP3    H144414   4.675   3.442   5.674
14823TIP3    H244415   4.802   3.481   5.747
14824TIP3   OH244416   4.567   6.467   2.853
14824TIP3    H144417   4.475   6.476   2.877
14824TIP3    H244418   4.570   6.492   2.760
14825TIP3   OH244419   6.885   4.104   4.732
14825TIP3    H144420   6.836   4.173   4.778
14825TIP3    H244421   6.824   4.071   4.666
14826TIP3   OH244422   3.875   2.620   1.183
14826TIP3    H144423   3.809   2.615   1.252
14826TIP3    H244424   3.834   2.674   1.115
14827TIP3   OH244425   7.703   0.368   2.398
14827TIP3    H144426   7.633   0.430   2.421
14827TIP3    H244427   7.728   0.392   2.309
14828TIP3   OH244428   3.382   3.661   2.201
14828TIP3    H144429   3.329   3.672   2.121
14828TIP3    H244430   3.435   3.583   2.183
14829TIP3   OH244431   6.209   5.746   0.068
14829TIP3    H144432   6.232   5.667   0.019
14829TIP3    H244433   6.292   5.779   0.102
14830TIP3   OH244434   3.713   6.953   0.436
14830TIP3    H144435   3.619   6.942   0.454
14830TIP3    H244436   3.746   6.864   0.428
14831TIP3   OH244437   0.668   4.236   2.118
14831TIP3    H144438   0.638   4.216   2.030
14831TIP3    H244439   0.717   4.158   2.145
14832TIP3   OH244440   3.250   6.693   5.584
14832TIP3    H144441   3.216   6.782   5.594
14832TIP3    H244442   3.340   6.698   5.617
14833TIP3   OH244443   5.276   1.882   4.980
14833TIP3    H144444   5.307   1.863   5.069
14833TIP3    H244445   5.248   1.797   4.946
14834TIP3   OH244446   0.521   5.275   1.206
14834TIP3    H144447   0.456   5.205   1.201
14834TIP3    H244448   0.597   5.233   1.246
14835TIP3   OH244449   0.536   4.551   3.543
14835TIP3    H144450   0.557   4.643   3.526
14835TIP3    H244451   0.449   4.553   3.584
14836TIP3   OH244452   1.937   1.731   3.175
14836TIP3    H144453   1.957   1.819   3.145
14836TIP3    H244454   1.890   1.691   3.102
14837TIP3   OH244455   8.117   2.326   6.510
14837TIP3    H144456   8.145   2.399   6.455
14837TIP3    H244457   8.139   2.353   6.599
14838TIP3   OH244458   0.044   5.737   1.989
14838TIP3    H144459  -0.044   5.767   1.966
14838TIP3    H244460   0.060   5.662   1.932
14839TIP3   OH244461   0.109   5.766   0.602
14839TIP3    H144462   0.145   5.696   0.658
14839TIP3    H244463   0.179   5.830   0.597
   8.29624   7.82177   6.77385   0.00000   0.00000  -2.76541   0.00000  -2.76541  -3.91089
