Title t=   1.00000 step= 500
29212
    1ASP      N    1   1.738   1.078   1.829
    1ASP    HT1    2   1.798   1.141   1.885
    1ASP    HT2    3   1.647   1.130   1.829
    1ASP    HT3    4   1.768   1.071   1.730
    1ASP     CA    5   1.723   0.946   1.900
    1ASP     HA    6   1.654   0.896   1.833
    1ASP     CB    7   1.856   0.863   1.890
    1ASP    HB1    8   1.855   0.762   1.938
    1ASP    HB2    9   1.937   0.925   1.934
    1ASP     CG   10   1.898   0.836   1.748
    1ASP    OD1   11   1.842   0.891   1.655
    1ASP    OD2   12   1.994   0.759   1.727
    1ASP      C   13   1.682   0.958   2.047
    1ASP      O   14   1.741   1.025   2.133
    2GLY      N   15   1.571   0.884   2.083
    2GLY     HN   16   1.522   0.824   2.020
    2GLY     CA   17   1.484   0.903   2.199
    2GLY    HA1   18   1.543   0.899   2.290
    2GLY    HA2   19   1.404   0.832   2.193
    2GLY      C   20   1.409   1.036   2.198
    2GLY      O   21   1.407   1.101   2.095
    3ASP      N   22   1.343   1.061   2.314
    3ASP     HN   23   1.363   1.001   2.391
    3ASP     CA   24   1.271   1.180   2.343
    3ASP     HA   25   1.180   1.189   2.286
    3ASP     CB   26   1.217   1.174   2.485
    3ASP    HB1   27   1.160   1.268   2.500
    3ASP    HB2   28   1.286   1.158   2.571
    3ASP     CG   29   1.120   1.064   2.496
    3ASP    OD1   30   1.114   0.994   2.602
    3ASP    OD2   31   1.039   1.040   2.401
    3ASP      C   32   1.355   1.312   2.339
    3ASP      O   33   1.476   1.300   2.374
    4GLY      N   34   1.301   1.424   2.295
    4GLY     HN   35   1.206   1.421   2.265
    4GLY     CA   36   1.358   1.558   2.324
    4GLY    HA1   37   1.303   1.622   2.257
    4GLY    HA2   38   1.462   1.553   2.294
    4GLY      C   39   1.349   1.611   2.468
    4GLY      O   40   1.299   1.535   2.556
    5PRO      N   41   1.391   1.734   2.495
    5PRO     CD   42   1.422   1.833   2.391
    5PRO    HD1   43   1.344   1.841   2.311
    5PRO    HD2   44   1.518   1.817   2.338
    5PRO     CA   45   1.374   1.789   2.625
    5PRO     HA   46   1.423   1.721   2.692
    5PRO     CB   47   1.446   1.925   2.612
    5PRO    HB1   48   1.555   1.906   2.619
    5PRO    HB2   49   1.423   2.004   2.687
    5PRO     CG   50   1.426   1.968   2.464
    5PRO    HG1   51   1.323   2.008   2.462
    5PRO    HG2   52   1.496   2.044   2.424
    5PRO      C   53   1.234   1.791   2.687
    5PRO      O   54   1.140   1.796   2.612
    6GLY      N   55   1.223   1.786   2.817
    6GLY     HN   56   1.299   1.759   2.875
    6GLY     CA   57   1.093   1.780   2.885
    6GLY    HA1   58   1.110   1.716   2.971
    6GLY    HA2   59   1.018   1.740   2.818
    6GLY      C   60   1.032   1.908   2.941
    6GLY      O   61   1.064   2.023   2.907
    7ASP      N   62   0.943   1.891   3.042
    7ASP     HN   63   0.923   1.802   3.082
    7ASP     CA   64   0.875   1.995   3.110
    7ASP     HA   65   0.846   2.062   3.030
    7ASP     CB   66   0.740   1.942   3.177
    7ASP    HB1   67   0.682   2.020   3.232
    7ASP    HB2   68   0.768   1.868   3.255
    7ASP     CG   69   0.646   1.879   3.083
    7ASP    OD1   70   0.547   1.815   3.140
    7ASP    OD2   71   0.652   1.896   2.961
    7ASP      C   72   0.964   2.070   3.213
    7ASP      O   73   1.061   2.014   3.261
    8PRO      N   74   0.930   2.184   3.239
    8PRO     CD   75   0.818   2.264   3.184
    8PRO    HD1   76   0.732   2.203   3.149
    8PRO    HD2   77   0.870   2.331   3.111
    8PRO     CA   78   0.962   2.237   3.375
    8PRO     HA   79   1.069   2.227   3.387
    8PRO     CB   80   0.894   2.377   3.388
    8PRO    HB1   81   0.953   2.457   3.338
    8PRO    HB2   82   0.861   2.404   3.490
    8PRO     CG   83   0.763   2.356   3.307
    8PRO    HG1   84   0.670   2.311   3.349
    8PRO    HG2   85   0.739   2.459   3.272
    8PRO      C   86   0.898   2.159   3.484
    8PRO      O   87   0.802   2.088   3.460
    9GLY      N   88   0.952   2.163   3.608
    9GLY     HN   89   1.033   2.221   3.610
    9GLY     CA   90   0.897   2.096   3.722
    9GLY    HA1   91   0.976   2.095   3.796
    9GLY    HA2   92   0.867   1.996   3.697
    9GLY      C   93   0.781   2.167   3.783
    9GLY      O   94   0.715   2.251   3.722
   10ASP      N   95   0.747   2.132   3.909
   10ASP     HN   96   0.790   2.049   3.944
   10ASP     CA   97   0.643   2.196   3.989
   10ASP     HA   98   0.560   2.219   3.924
   10ASP     CB   99   0.610   2.110   4.112
   10ASP    HB1  100   0.546   2.159   4.189
   10ASP    HB2  101   0.707   2.103   4.166
   10ASP     CG  102   0.563   1.967   4.087
   10ASP    OD1  103   0.488   1.933   3.996
   10ASP    OD2  104   0.570   1.900   4.194
   10ASP      C  105   0.677   2.336   4.028
   10ASP      O  106   0.594   2.428   4.016
   11GLY      N  107   0.803   2.364   4.065
   11GLY     HN  108   0.861   2.283   4.067
   11GLY     CA  109   0.852   2.497   4.107
   11GLY    HA1  110   0.817   2.514   4.207
   11GLY    HA2  111   0.813   2.558   4.027
   11GLY      C  112   1.005   2.505   4.113
   11GLY    OT1  113   1.065   2.451   4.212
   11GLY    OT2  114   1.066   2.575   4.032
   12LIT    LIT  115   3.826   5.572   1.359
   13LIT    LIT  116   2.245   3.402   5.777
   14LIT    LIT  117   2.213   0.803   0.867
   15LIT    LIT  118   3.416   1.291   2.000
   16LIT    LIT  119   1.099   2.755   4.067
   17LIT    LIT  120   3.456   6.512   4.399
   18LIT    LIT  121   3.031   3.212   3.360
   19LIT    LIT  122   1.889   6.110   0.981
   20LIT    LIT  123   7.156   2.466   3.662
   21LIT    LIT  124   2.111   0.721   2.229
   22LIT    LIT  125   5.362   3.913   0.043
   23LIT    LIT  126   3.722   4.559   5.815
   24LIT    LIT  127   6.478   4.461   4.740
   25LIT    LIT  128   0.583   1.981   2.805
   26LIT    LIT  129   0.299   1.904   3.982
   27LIT    LIT  130   3.876   1.222   3.391
   28LIT    LIT  131   5.372   1.850   0.022
   29LIT    LIT  132   7.033   3.304   2.790
   30LIT    LIT  133   0.448   2.244   1.550
   31LIT    LIT  134   4.559   0.804   2.151
   32LIT    LIT  135   6.697   2.330   0.296
   33LIT    LIT  136   3.706   3.247   2.593
   34LIT    LIT  137   4.680   1.774   4.312
   35LIT    LIT  138   0.771   1.327   2.581
   36LIT    LIT  139   5.829   5.233   1.628
   37LIT    LIT  140   2.659   4.728   0.990
   38LIT    LIT  141   1.503   2.679   5.681
   39LIT    LIT  142   1.986   0.783   1.538
   40LIT    LIT  143   2.720   6.770   2.936
   41LIT    LIT  144   3.191   1.415   3.160
   42LIT    LIT  145   1.012   0.867   2.438
   43CLA    CLA  146   4.989   0.102   2.817
   44CLA    CLA  147   4.184   1.766   3.932
   45CLA    CLA  148   3.464   3.343   3.325
   46CLA    CLA  149   6.189   2.548   0.639
   47CLA    CLA  150   0.509   1.651   2.487
   48CLA    CLA  151   4.591   5.424   0.477
   49CLA    CLA  152   2.741   6.329   3.762
   50CLA    CLA  153   3.608   3.487   1.282
   51CLA    CLA  154   6.920   1.571   1.646
   52CLA    CLA  155   3.850   4.563   3.862
   53CLA    CLA  156   3.684   1.274   2.666
   54CLA    CLA  157   3.444   0.943   1.312
   55CLA    CLA  158   7.005   3.162   5.659
   56CLA    CLA  159   7.036   0.541   4.931
   57CLA    CLA  160   7.035   2.400   4.256
   58CLA    CLA  161   3.797   3.122   2.412
   59CLA    CLA  162   5.194   0.083   1.427
   60CLA    CLA  163   6.895   6.630   3.312
   61CLA    CLA  164   1.438   0.298   0.722
   62CLA    CLA  165   4.442   6.787   0.974
   63CLA    CLA  166   0.530   1.190   0.555
   64CLA    CLA  167   4.444   4.043   0.546
   65CLA    CLA  168   6.143   5.075   2.374
   66CLA    CLA  169   3.300   0.458   2.735
   67CLA    CLA  170   5.933   1.700   2.208
   68CLA    CLA  171   0.466   2.294   2.042
   69CLA    CLA  172   4.113   4.007   2.283
   70TIP3   OH2  173   6.001   3.162   0.174
   70TIP3    H1  174   5.913   3.195   0.154
   70TIP3    H2  175   6.054   3.187   0.098
   71TIP3   OH2  176   1.048   5.164   4.084
   71TIP3    H1  177   0.957   5.181   4.110
   71TIP3    H2  178   1.044   5.083   4.032
   72TIP3   OH2  179   5.800   4.736   4.386
   72TIP3    H1  180   5.783   4.642   4.391
   72TIP3    H2  181   5.751   4.773   4.459
   73TIP3   OH2  182   4.003   3.122   0.519
   73TIP3    H1  183   3.970   3.119   0.430
   73TIP3    H2  184   4.085   3.171   0.513
   74TIP3   OH2  185   4.639   5.842   4.529
   74TIP3    H1  186   4.692   5.839   4.608
   74TIP3    H2  187   4.653   5.931   4.495
   75TIP3   OH2  188   2.982   3.762   1.944
   75TIP3    H1  189   2.960   3.793   1.856
   75TIP3    H2  190   2.957   3.834   2.001
   76TIP3   OH2  191   2.314   6.370   3.599
   76TIP3    H1  192   2.355   6.365   3.686
   76TIP3    H2  193   2.375   6.422   3.547
   77TIP3   OH2  194   0.189   4.632   5.769
   77TIP3    H1  195   0.162   4.686   5.843
   77TIP3    H2  196   0.131   4.659   5.698
   78TIP3   OH2  197   0.813   4.565   0.134
   78TIP3    H1  198   0.834   4.542   0.224
   78TIP3    H2  199   0.886   4.530   0.082
   79TIP3   OH2  200   1.470   4.489   4.060
   79TIP3    H1  201   1.485   4.397   4.083
   79TIP3    H2  202   1.482   4.492   3.965
   80TIP3   OH2  203   3.352   0.159   0.769
   80TIP3    H1  204   3.435   0.119   0.743
   80TIP3    H2  205   3.299   0.086   0.801
   81TIP3   OH2  206   0.306   3.372   3.457
   81TIP3    H1  207   0.377   3.419   3.414
   81TIP3    H2  208   0.345   3.335   3.535
   82TIP3   OH2  209   3.953   5.106   3.221
   82TIP3    H1  210   3.885   5.039   3.225
   82TIP3    H2  211   3.915   5.182   3.266
   83TIP3   OH2  212   0.988   4.127   0.890
   83TIP3    H1  213   0.921   4.176   0.938
   83TIP3    H2  214   0.990   4.168   0.804
   84TIP3   OH2  215   5.244   1.377   1.989
   84TIP3    H1  216   5.285   1.292   1.979
   84TIP3    H2  217   5.262   1.403   2.080
   85TIP3   OH2  218   6.857   2.141   3.333
   85TIP3    H1  219   6.792   2.124   3.265
   85TIP3    H2  220   6.836   2.080   3.403
   86TIP3   OH2  221   7.110   1.996   3.224
   86TIP3    H1  222   7.057   2.056   3.276
   86TIP3    H2  223   7.048   1.948   3.171
   87TIP3   OH2  224   6.885   6.762   2.110
   87TIP3    H1  225   6.907   6.854   2.127
   87TIP3    H2  226   6.811   6.766   2.050
   88TIP3   OH2  227   1.166   5.430   4.163
   88TIP3    H1  228   1.108   5.476   4.102
   88TIP3    H2  229   1.133   5.340   4.165
   89TIP3   OH2  230   6.602   5.668   3.756
   89TIP3    H1  231   6.686   5.625   3.773
   89TIP3    H2  232   6.620   5.731   3.687
   90TIP3   OH2  233   1.302   5.209   4.779
   90TIP3    H1  234   1.324   5.190   4.688
   90TIP3    H2  235   1.210   5.185   4.787
   91TIP3   OH2  236   2.512   2.722   5.436
   91TIP3    H1  237   2.463   2.747   5.358
   91TIP3    H2  238   2.602   2.746   5.417
   92TIP3   OH2  239   3.071   0.122   0.596
   92TIP3    H1  240   3.155   0.145   0.555
   92TIP3    H2  241   3.095   0.094   0.685
   93TIP3   OH2  242   0.061   5.381   3.906
   93TIP3    H1  243   0.094   5.354   3.820
   93TIP3    H2  244   0.117   5.336   3.968
   94TIP3   OH2  245   3.642   1.514   0.980
   94TIP3    H1  246   3.708   1.448   1.000
   94TIP3    H2  247   3.691   1.587   0.941
   95TIP3   OH2  248   3.589   4.470   5.210
   95TIP3    H1  249   3.540   4.390   5.193
   95TIP3    H2  250   3.680   4.447   5.191
   96TIP3   OH2  251   6.789   6.545   1.609
   96TIP3    H1  252   6.716   6.576   1.662
   96TIP3    H2  253   6.841   6.491   1.669
   97TIP3   OH2  254   5.777   0.008   3.788
   97TIP3    H1  255   5.742   0.047   3.868
   97TIP3    H2  256   5.728  -0.073   3.777
   98TIP3   OH2  257   0.443   1.761   2.053
   98TIP3    H1  258   0.531   1.795   2.036
   98TIP3    H2  259   0.455   1.700   2.126
   99TIP3   OH2  260   1.265   5.018   2.506
   99TIP3    H1  261   1.198   5.086   2.507
   99TIP3    H2  262   1.233   4.951   2.566
  100TIP3   OH2  263   3.158   3.098   0.942
  100TIP3    H1  264   3.211   3.020   0.956
  100TIP3    H2  265   3.200   3.143   0.870
  101TIP3   OH2  266   5.269   1.410   0.836
  101TIP3    H1  267   5.357   1.416   0.798
  101TIP3    H2  268   5.279   1.348   0.909
  102TIP3   OH2  269   2.513   0.742   2.076
  102TIP3    H1  270   2.603   0.712   2.071
  102TIP3    H2  271   2.478   0.700   2.155
  103TIP3   OH2  272   6.848   1.302   1.509
  103TIP3    H1  273   6.865   1.370   1.574
  103TIP3    H2  274   6.935   1.271   1.483
  104TIP3   OH2  275   5.512   2.576   5.828
  104TIP3    H1  276   5.538   2.580   5.920
  104TIP3    H2  277   5.426   2.534   5.829
  105TIP3   OH2  278   6.491   3.378   2.128
  105TIP3    H1  279   6.415   3.422   2.165
  105TIP3    H2  280   6.525   3.439   2.063
  106TIP3   OH2  281   3.050   2.135   4.513
  106TIP3    H1  282   3.101   2.179   4.446
  106TIP3    H2  283   3.108   2.068   4.548
  107TIP3   OH2  284   5.421   2.003   0.130
  107TIP3    H1  285   5.417   2.004   0.226
  107TIP3    H2  286   5.465   2.085   0.107
  108TIP3   OH2  287   3.623   1.942   2.415
  108TIP3    H1  288   3.579   1.862   2.384
  108TIP3    H2  289   3.657   1.982   2.336
  109TIP3   OH2  290   2.077   6.277   3.507
  109TIP3    H1  291   2.162   6.309   3.537
  109TIP3    H2  292   2.053   6.210   3.570
  110TIP3   OH2  293   1.380   0.756   1.889
  110TIP3    H1  294   1.442   0.730   1.819
  110TIP3    H2  295   1.318   0.814   1.845
  111TIP3   OH2  296   1.700   0.194   0.120
  111TIP3    H1  297   1.622   0.139   0.113
  111TIP3    H2  298   1.719   0.221   0.031
  112TIP3   OH2  299   0.160   1.542   5.599
  112TIP3    H1  300   0.156   1.558   5.505
  112TIP3    H2  301   0.218   1.467   5.608
  113TIP3   OH2  302   2.136   5.818   3.651
  113TIP3    H1  303   2.220   5.783   3.681
  113TIP3    H2  304   2.101   5.749   3.595
  114TIP3   OH2  305   2.702   0.706   4.185
  114TIP3    H1  306   2.629   0.767   4.189
  114TIP3    H2  307   2.730   0.696   4.276
  115TIP3   OH2  308   4.516   1.105   4.278
  115TIP3    H1  309   4.476   1.157   4.348
  115TIP3    H2  310   4.498   1.014   4.303
  116TIP3   OH2  311   3.777   3.490   0.847
  116TIP3    H1  312   3.784   3.474   0.753
  116TIP3    H2  313   3.860   3.462   0.883
  117TIP3   OH2  314   5.967   0.027   1.353
  117TIP3    H1  315   5.964   0.123   1.360
  117TIP3    H2  316   5.911   0.007   1.278
  118TIP3   OH2  317   0.515   5.051   5.233
  118TIP3    H1  318   0.476   5.019   5.152
  118TIP3    H2  319   0.470   5.002   5.302
  119TIP3   OH2  320   2.543   4.141   1.569
  119TIP3    H1  321   2.493   4.083   1.626
  119TIP3    H2  322   2.558   4.089   1.490
  120TIP3   OH2  323   2.510   0.851   2.770
  120TIP3    H1  324   2.516   0.945   2.790
  120TIP3    H2  325   2.473   0.812   2.849
  121TIP3   OH2  326   4.129   0.025   2.947
  121TIP3    H1  327   4.087   0.054   2.866
  121TIP3    H2  328   4.081  -0.054   2.972
  122TIP3   OH2  329   6.784   3.610   3.059
  122TIP3    H1  330   6.838   3.624   2.981
  122TIP3    H2  331   6.699   3.648   3.036
  123TIP3   OH2  332   0.141   6.637   3.095
  123TIP3    H1  333   0.178   6.610   3.179
  123TIP3    H2  334   0.202   6.704   3.062
  124TIP3   OH2  335   6.163   0.844   1.062
  124TIP3    H1  336   6.246   0.848   1.013
  124TIP3    H2  337   6.149   0.751   1.078
  125TIP3   OH2  338   4.581   3.550   1.884
  125TIP3    H1  339   4.615   3.560   1.973
  125TIP3    H2  340   4.615   3.627   1.837
  126TIP3   OH2  341   0.688   5.622   3.640
  126TIP3    H1  342   0.657   5.538   3.675
  126TIP3    H2  343   0.648   5.688   3.696
  127TIP3   OH2  344   0.979   1.680   5.372
  127TIP3    H1  345   0.918   1.646   5.306
  127TIP3    H2  346   1.003   1.767   5.340
  128TIP3   OH2  347   3.966   0.509   3.811
  128TIP3    H1  348   4.000   0.419   3.815
  128TIP3    H2  349   4.035   0.558   3.765
  129TIP3   OH2  350   2.285   2.576   4.384
  129TIP3    H1  351   2.277   2.518   4.459
  129TIP3    H2  352   2.310   2.661   4.422
  130TIP3   OH2  353   1.343   4.822   5.341
  130TIP3    H1  354   1.283   4.851   5.273
  130TIP3    H2  355   1.426   4.806   5.296
  131TIP3   OH2  356   4.318   0.210   5.830
  131TIP3    H1  357   4.391   0.167   5.874
  131TIP3    H2  358   4.347   0.220   5.739
  132TIP3   OH2  359   5.780   3.036   3.784
  132TIP3    H1  360   5.716   3.102   3.809
  132TIP3    H2  361   5.794   2.985   3.865
  133TIP3   OH2  362   0.605   2.513   3.691
  133TIP3    H1  363   0.632   2.551   3.607
  133TIP3    H2  364   0.657   2.433   3.698
  134TIP3   OH2  365   1.804   3.837   1.610
  134TIP3    H1  366   1.788   3.931   1.611
  134TIP3    H2  367   1.889   3.827   1.568
  135TIP3   OH2  368   0.540   5.100   4.675
  135TIP3    H1  369   0.448   5.126   4.672
  135TIP3    H2  370   0.559   5.069   4.586
  136TIP3   OH2  371   4.005   4.474   5.507
  136TIP3    H1  372   4.073   4.414   5.477
  136TIP3    H2  373   4.041   4.515   5.586
  137TIP3   OH2  374   3.262   5.525   5.703
  137TIP3    H1  375   3.209   5.509   5.624
  137TIP3    H2  376   3.300   5.612   5.689
  138TIP3   OH2  377   4.673   1.287   0.551
  138TIP3    H1  378   4.678   1.192   0.540
  138TIP3    H2  379   4.753   1.310   0.599
  139TIP3   OH2  380   4.135   6.690   3.786
  139TIP3    H1  381   4.123   6.782   3.808
  139TIP3    H2  382   4.159   6.648   3.868
  140TIP3   OH2  383   2.529   1.163   0.389
  140TIP3    H1  384   2.502   1.194   0.302
  140TIP3    H2  385   2.510   1.069   0.387
  141TIP3   OH2  386   6.555   6.617   3.604
  141TIP3    H1  387   6.624   6.680   3.583
  141TIP3    H2  388   6.567   6.598   3.697
  142TIP3   OH2  389   0.717   5.202   2.842
  142TIP3    H1  390   0.692   5.146   2.915
  142TIP3    H2  391   0.763   5.275   2.882
  143TIP3   OH2  392   6.937   5.900   1.491
  143TIP3    H1  393   6.969   5.850   1.566
  143TIP3    H2  394   6.879   5.966   1.529
  144TIP3   OH2  395   1.356   4.573   1.398
  144TIP3    H1  396   1.418   4.527   1.455
  144TIP3    H2  397   1.395   4.568   1.311
  145TIP3   OH2  398   3.637   3.475   2.904
  145TIP3    H1  399   3.594   3.395   2.935
  145TIP3    H2  400   3.707   3.491   2.967
  146TIP3   OH2  401   1.028   3.214   0.357
  146TIP3    H1  402   1.069   3.270   0.423
  146TIP3    H2  403   1.098   3.196   0.294
  147TIP3   OH2  404   2.269   6.186   3.829
  147TIP3    H1  405   2.245   6.164   3.739
  147TIP3    H2  406   2.342   6.247   3.820
  148TIP3   OH2  407   5.699   0.408   2.660
  148TIP3    H1  408   5.705   0.315   2.680
  148TIP3    H2  409   5.609   0.420   2.630
  149TIP3   OH2  410   6.532   2.003   4.284
  149TIP3    H1  411   6.443   2.037   4.298
  149TIP3    H2  412   6.589   2.069   4.323
  150TIP3   OH2  413   0.240   4.736   2.285
  150TIP3    H1  414   0.238   4.786   2.204
  150TIP3    H2  415   0.279   4.652   2.261
  151TIP3   OH2  416   6.299   0.987   3.361
  151TIP3    H1  417   6.217   0.950   3.329
  151TIP3    H2  418   6.320   1.055   3.297
  152TIP3   OH2  419   6.975   5.181   1.081
  152TIP3    H1  420   6.942   5.093   1.067
  152TIP3    H2  421   6.942   5.232   1.007
  153TIP3   OH2  422   2.163   3.648   3.173
  153TIP3    H1  423   2.138   3.717   3.111
  153TIP3    H2  424   2.097   3.580   3.163
  154TIP3   OH2  425   6.843   6.743   2.935
  154TIP3    H1  426   6.839   6.647   2.932
  154TIP3    H2  427   6.930   6.762   2.969
  155TIP3   OH2  428   4.531   5.224   5.564
  155TIP3    H1  429   4.610   5.202   5.515
  155TIP3    H2  430   4.472   5.262   5.499
  156TIP3   OH2  431   4.058   2.482   2.476
  156TIP3    H1  432   4.040   2.517   2.563
  156TIP3    H2  433   4.086   2.558   2.425
  157TIP3   OH2  434   5.737   4.537   5.268
  157TIP3    H1  435   5.695   4.451   5.266
  157TIP3    H2  436   5.667   4.598   5.294
  158TIP3   OH2  437   3.658   0.077   3.984
  158TIP3    H1  438   3.673   0.168   3.959
  158TIP3    H2  439   3.728   0.028   3.941
  159TIP3   OH2  440   6.132   0.195   0.673
  159TIP3    H1  441   6.181   0.116   0.694
  159TIP3    H2  442   6.198   0.263   0.665
  160TIP3   OH2  443   0.467   1.663   5.851
  160TIP3    H1  444   0.505   1.575   5.848
  160TIP3    H2  445   0.486   1.699   5.765
  161TIP3   OH2  446   6.815   1.998   0.951
  161TIP3    H1  447   6.883   2.010   1.018
  161TIP3    H2  448   6.855   1.939   0.887
  162TIP3   OH2  449   4.483   1.408   3.905
  162TIP3    H1  450   4.555   1.348   3.883
  162TIP3    H2  451   4.487   1.416   4.000
  163TIP3   OH2  452   0.817   5.834   4.825
  163TIP3    H1  453   0.896   5.794   4.789
  163TIP3    H2  454   0.846   5.918   4.860
  164TIP3   OH2  455   5.369   4.533   0.742
  164TIP3    H1  456   5.286   4.515   0.697
  164TIP3    H2  457   5.345   4.583   0.820
  165TIP3   OH2  458   0.290   1.604   5.157
  165TIP3    H1  459   0.241   1.621   5.237
  165TIP3    H2  460   0.333   1.520   5.172
  166TIP3   OH2  461   5.158   6.145   4.566
  166TIP3    H1  462   5.098   6.085   4.610
  166TIP3    H2  463   5.244   6.104   4.576
  167TIP3   OH2  464   5.926   3.034   0.933
  167TIP3    H1  465   5.843   3.075   0.955
  167TIP3    H2  466   5.910   2.992   0.849
  168TIP3   OH2  467   4.123   4.154   1.982
  168TIP3    H1  468   4.123   4.131   2.075
  168TIP3    H2  469   4.162   4.079   1.938
  169TIP3   OH2  470   0.411   4.452   2.808
  169TIP3    H1  471   0.466   4.484   2.879
  169TIP3    H2  472   0.368   4.530   2.774
  170TIP3   OH2  473   6.150   2.234   0.495
  170TIP3    H1  474   6.071   2.180   0.500
  170TIP3    H2  475   6.145   2.291   0.572
  171TIP3   OH2  476   2.381   3.670   4.740
  171TIP3    H1  477   2.287   3.681   4.748
  171TIP3    H2  478   2.393   3.583   4.703
  172TIP3   OH2  479   4.342   2.247   4.937
  172TIP3    H1  480   4.250   2.271   4.941
  172TIP3    H2  481   4.389   2.325   4.966
  173TIP3   OH2  482   6.017   0.147   5.793
  173TIP3    H1  483   6.054   0.196   5.866
  173TIP3    H2  484   6.013   0.057   5.824
  174TIP3   OH2  485   0.235   6.336   2.906
  174TIP3    H1  486   0.152   6.368   2.939
  174TIP3    H2  487   0.294   6.338   2.981
  175TIP3   OH2  488   4.851   6.774   1.183
  175TIP3    H1  489   4.831   6.708   1.249
  175TIP3    H2  490   4.838   6.857   1.228
  176TIP3   OH2  491   4.445   0.427   0.626
  176TIP3    H1  492   4.509   0.356   0.631
  176TIP3    H2  493   4.360   0.382   0.622
  177TIP3   OH2  494   3.513   5.892   4.211
  177TIP3    H1  495   3.452   5.867   4.141
  177TIP3    H2  496   3.545   5.978   4.185
  178TIP3   OH2  497   3.304   3.696   2.619
  178TIP3    H1  498   3.388   3.704   2.664
  178TIP3    H2  499   3.250   3.645   2.680
  179TIP3   OH2  500   6.956   5.936   3.453
  179TIP3    H1  501   6.967   5.842   3.462
  179TIP3    H2  502   7.041   5.973   3.475
  180TIP3   OH2  503   0.773   1.455   2.106
  180TIP3    H1  504   0.763   1.486   2.016
  180TIP3    H2  505   0.683   1.444   2.137
  181TIP3   OH2  506   0.978   0.472   2.995
  181TIP3    H1  507   0.949   0.419   2.920
  181TIP3    H2  508   0.918   0.448   3.066
  182TIP3   OH2  509   0.909   1.270   2.727
  182TIP3    H1  510   0.917   1.326   2.804
  182TIP3    H2  511   0.930   1.182   2.758
  183TIP3   OH2  512   5.483   0.184   3.017
  183TIP3    H1  513   5.395   0.204   2.988
  183TIP3    H2  514   5.472   0.147   3.105
  184TIP3   OH2  515   2.839   0.462   3.064
  184TIP3    H1  516   2.870   0.445   2.975
  184TIP3    H2  517   2.831   0.375   3.103
  185TIP3   OH2  518   2.130   1.123   0.502
  185TIP3    H1  519   2.142   1.200   0.445
  185TIP3    H2  520   2.043   1.091   0.481
  186TIP3   OH2  521   2.931   2.538   2.070
  186TIP3    H1  522   2.951   2.449   2.098
  186TIP3    H2  523   2.868   2.526   1.998
  187TIP3   OH2  524   1.697   4.603   4.180
  187TIP3    H1  525   1.623   4.559   4.137
  187TIP3    H2  526   1.773   4.578   4.128
  188TIP3   OH2  527   0.586   5.302   2.117
  188TIP3    H1  528   0.535   5.255   2.051
  188TIP3    H2  529   0.656   5.241   2.141
  189TIP3   OH2  530   6.867   2.399   4.521
  189TIP3    H1  531   6.876   2.493   4.537
  189TIP3    H2  532   6.910   2.385   4.437
  190TIP3   OH2  533   4.252   3.572   0.361
  190TIP3    H1  534   4.261   3.636   0.433
  190TIP3    H2  535   4.158   3.552   0.359
  191TIP3   OH2  536   2.444   4.484   2.817
  191TIP3    H1  537   2.474   4.526   2.737
  191TIP3    H2  538   2.518   4.429   2.845
  192TIP3   OH2  539   7.017   6.272   1.417
  192TIP3    H1  540   6.964   6.247   1.493
  192TIP3    H2  541   6.970   6.346   1.378
  193TIP3   OH2  542   4.849   1.670   5.051
  193TIP3    H1  543   4.764   1.703   5.080
  193TIP3    H2  544   4.840   1.574   5.054
  194TIP3   OH2  545   0.217   3.855   0.323
  194TIP3    H1  546   0.202   3.949   0.315
  194TIP3    H2  547   0.312   3.845   0.319
  195TIP3   OH2  548   1.634   0.844   1.491
  195TIP3    H1  549   1.721   0.866   1.524
  195TIP3    H2  550   1.594   0.928   1.470
  196TIP3   OH2  551   4.879   2.984   4.257
  196TIP3    H1  552   4.957   2.946   4.217
  196TIP3    H2  553   4.902   2.995   4.349
  197TIP3   OH2  554   4.750   1.842   0.192
  197TIP3    H1  555   4.843   1.839   0.168
  197TIP3    H2  556   4.751   1.860   0.286
  198TIP3   OH2  557   1.624   6.167   2.957
  198TIP3    H1  558   1.609   6.131   2.870
  198TIP3    H2  559   1.710   6.208   2.952
  199TIP3   OH2  560   5.453   1.351   0.311
  199TIP3    H1  561   5.520   1.394   0.364
  199TIP3    H2  562   5.454   1.260   0.341
  200TIP3   OH2  563   4.298   2.063   3.947
  200TIP3    H1  564   4.238   2.123   3.903
  200TIP3    H2  565   4.251   1.979   3.949
  201TIP3   OH2  566   3.451   4.994   3.144
  201TIP3    H1  567   3.442   5.031   3.232
  201TIP3    H2  568   3.544   4.977   3.134
  202TIP3   OH2  569   1.272   1.610   2.004
  202TIP3    H1  570   1.268   1.543   1.936
  202TIP3    H2  571   1.272   1.693   1.956
  203TIP3   OH2  572   0.431   1.654   1.291
  203TIP3    H1  573   0.471   1.657   1.378
  203TIP3    H2  574   0.429   1.745   1.262
  204TIP3   OH2  575   1.025   1.711   2.125
  204TIP3    H1  576   0.975   1.730   2.046
  204TIP3    H2  577   1.088   1.644   2.099
  205TIP3   OH2  578   4.895   2.845   3.171
  205TIP3    H1  579   4.890   2.880   3.082
  205TIP3    H2  580   4.988   2.846   3.192
  206TIP3   OH2  581   1.097   4.341   3.800
  206TIP3    H1  582   1.063   4.262   3.842
  206TIP3    H2  583   1.131   4.310   3.716
  207TIP3   OH2  584   2.669   1.578   4.603
  207TIP3    H1  585   2.705   1.641   4.540
  207TIP3    H2  586   2.584   1.554   4.568
  208TIP3   OH2  587   1.766   3.485   0.206
  208TIP3    H1  588   1.752   3.574   0.174
  208TIP3    H2  589   1.855   3.488   0.243
  209TIP3   OH2  590   6.904   4.352   0.431
  209TIP3    H1  591   6.943   4.410   0.496
  209TIP3    H2  592   6.835   4.405   0.390
  210TIP3   OH2  593   0.225   6.049   3.827
  210TIP3    H1  594   0.273   6.062   3.909
  210TIP3    H2  595   0.288   6.006   3.769
  211TIP3   OH2  596   4.968   2.067   1.103
  211TIP3    H1  597   5.006   1.979   1.102
  211TIP3    H2  598   4.881   2.056   1.065
  212TIP3   OH2  599   0.560   5.075   3.668
  212TIP3    H1  600   0.635   5.053   3.723
  212TIP3    H2  601   0.555   5.005   3.603
  213TIP3   OH2  602   2.202   2.987   4.248
  213TIP3    H1  603   2.245   2.928   4.310
  213TIP3    H2  604   2.227   3.075   4.276
  214TIP3   OH2  605   7.028   2.504   2.622
  214TIP3    H1  606   7.003   2.589   2.659
  214TIP3    H2  607   7.000   2.508   2.531
  215TIP3   OH2  608   4.393   6.359   4.152
  215TIP3    H1  609   4.471   6.304   4.141
  215TIP3    H2  610   4.319   6.301   4.138
  216TIP3   OH2  611   7.211   0.200   3.412
  216TIP3    H1  612   7.138   0.234   3.463
  216TIP3    H2  613   7.207   0.247   3.329
  217TIP3   OH2  614   0.756   0.125   0.499
  217TIP3    H1  615   0.786   0.214   0.518
  217TIP3    H2  616   0.818   0.069   0.545
  218TIP3   OH2  617   2.102   0.821   4.553
  218TIP3    H1  618   2.091   0.727   4.537
  218TIP3    H2  619   2.182   0.844   4.506
  219TIP3   OH2  620   4.445   2.020   1.086
  219TIP3    H1  621   4.437   2.065   1.170
  219TIP3    H2  622   4.444   1.927   1.108
  220TIP3   OH2  623   4.014   4.209   5.805
  220TIP3    H1  624   4.023   4.173   5.893
  220TIP3    H2  625   4.073   4.285   5.803
  221TIP3   OH2  626   6.781   3.993   4.923
  221TIP3    H1  627   6.692   3.957   4.924
  221TIP3    H2  628   6.794   4.027   5.011
  222TIP3   OH2  629   5.742   4.404   2.509
  222TIP3    H1  630   5.794   4.366   2.580
  222TIP3    H2  631   5.800   4.403   2.433
  223TIP3   OH2  632   3.869   1.819   3.074
  223TIP3    H1  633   3.943   1.796   3.017
  223TIP3    H2  634   3.894   1.902   3.114
  224TIP3   OH2  635   2.793   6.398   1.357
  224TIP3    H1  636   2.814   6.451   1.434
  224TIP3    H2  637   2.851   6.322   1.364
  225TIP3   OH2  638   2.356   6.598   4.900
  225TIP3    H1  639   2.361   6.518   4.848
  225TIP3    H2  640   2.300   6.575   4.974
  226TIP3   OH2  641   5.481   1.584   5.284
  226TIP3    H1  642   5.540   1.580   5.208
  226TIP3    H2  643   5.522   1.647   5.343
  227TIP3   OH2  644   1.245   6.726   0.268
  227TIP3    H1  645   1.154   6.744   0.290
  227TIP3    H2  646   1.282   6.812   0.246
  228TIP3   OH2  647   3.899   3.901   2.486
  228TIP3    H1  648   3.932   3.955   2.558
  228TIP3    H2  649   3.958   3.918   2.414
  229TIP3   OH2  650   2.785   0.128   3.905
  229TIP3    H1  651   2.836   0.100   3.982
  229TIP3    H2  652   2.816   0.216   3.886
  230TIP3   OH2  653   5.041   0.841   2.470
  230TIP3    H1  654   4.953   0.804   2.481
  230TIP3    H2  655   5.070   0.860   2.559
  231TIP3   OH2  656   4.056   0.489   0.772
  231TIP3    H1  657   4.082   0.409   0.728
  231TIP3    H2  658   3.991   0.461   0.836
  232TIP3   OH2  659   6.163   1.711   3.784
  232TIP3    H1  660   6.142   1.644   3.720
  232TIP3    H2  661   6.118   1.789   3.752
  233TIP3   OH2  662   2.155   1.174   5.539
  233TIP3    H1  663   2.125   1.265   5.535
  233TIP3    H2  664   2.077   1.124   5.564
  234TIP3   OH2  665   3.470   2.284   1.668
  234TIP3    H1  666   3.491   2.287   1.761
  234TIP3    H2  667   3.515   2.360   1.630
  235TIP3   OH2  668   4.561   5.893   1.679
  235TIP3    H1  669   4.581   5.886   1.586
  235TIP3    H2  670   4.465   5.890   1.683
  236TIP3   OH2  671   0.613   6.335   3.897
  236TIP3    H1  672   0.570   6.415   3.927
  236TIP3    H2  673   0.590   6.329   3.805
  237TIP3   OH2  674   1.890   5.823   5.754
  237TIP3    H1  675   1.862   5.750   5.700
  237TIP3    H2  676   1.893   5.898   5.694
  238TIP3   OH2  677   5.496   1.871   5.470
  238TIP3    H1  678   5.557   1.887   5.542
  238TIP3    H2  679   5.416   1.839   5.512
  239TIP3   OH2  680   5.971   6.224   0.517
  239TIP3    H1  681   6.000   6.263   0.434
  239TIP3    H2  682   5.877   6.210   0.504
  240TIP3   OH2  683   5.376   2.470   1.127
  240TIP3    H1  684   5.384   2.524   1.205
  240TIP3    H2  685   5.286   2.436   1.129
  241TIP3   OH2  686   2.104   5.213   2.785
  241TIP3    H1  687   2.136   5.151   2.850
  241TIP3    H2  688   2.024   5.249   2.824
  242TIP3   OH2  689   4.211   2.603   4.241
  242TIP3    H1  690   4.241   2.530   4.295
  242TIP3    H2  691   4.186   2.671   4.303
  243TIP3   OH2  692   1.729   3.865   2.863
  243TIP3    H1  693   1.702   3.929   2.928
  243TIP3    H2  694   1.733   3.782   2.911
  244TIP3   OH2  695   1.005   0.561   1.465
  244TIP3    H1  696   1.098   0.565   1.490
  244TIP3    H2  697   0.968   0.491   1.519
  245TIP3   OH2  698   2.702   5.351   3.872
  245TIP3    H1  699   2.641   5.344   3.799
  245TIP3    H2  700   2.702   5.264   3.912
  246TIP3   OH2  701   4.746   3.861   5.789
  246TIP3    H1  702   4.699   3.810   5.854
  246TIP3    H2  703   4.704   3.947   5.790
  247TIP3   OH2  704   5.262   1.691   2.522
  247TIP3    H1  705   5.327   1.665   2.588
  247TIP3    H2  706   5.271   1.786   2.516
  248TIP3   OH2  707   4.435   5.190   4.365
  248TIP3    H1  708   4.403   5.122   4.424
  248TIP3    H2  709   4.386   5.269   4.390
  249TIP3   OH2  710   1.861   2.254   5.769
  249TIP3    H1  711   1.774   2.255   5.730
  249TIP3    H2  712   1.917   2.211   5.704
  250TIP3   OH2  713   4.696   0.680   2.246
  250TIP3    H1  714   4.711   0.667   2.340
  250TIP3    H2  715   4.782   0.666   2.206
  251TIP3   OH2  716   5.748   5.363   1.771
  251TIP3    H1  717   5.760   5.408   1.856
  251TIP3    H2  718   5.672   5.307   1.785
  252TIP3   OH2  719   6.808   6.803   5.434
  252TIP3    H1  720   6.809   6.774   5.343
  252TIP3    H2  721   6.720   6.782   5.466
  253TIP3   OH2  722   3.041   2.707   1.731
  253TIP3    H1  723   3.114   2.744   1.681
  253TIP3    H2  724   3.067   2.616   1.747
  254TIP3   OH2  725   6.598   4.055   0.298
  254TIP3    H1  726   6.691   4.038   0.310
  254TIP3    H2  727   6.556   3.969   0.308
  255TIP3   OH2  728   3.688   4.093   0.666
  255TIP3    H1  729   3.691   4.067   0.758
  255TIP3    H2  730   3.649   4.180   0.667
  256TIP3   OH2  731   4.162   4.634   5.658
  256TIP3    H1  732   4.129   4.724   5.654
  256TIP3    H2  733   4.257   4.643   5.654
  257TIP3   OH2  734   1.583   5.079   0.077
  257TIP3    H1  735   1.646   5.147   0.101
  257TIP3    H2  736   1.632   5.020   0.019
  258TIP3   OH2  737   5.355   3.643   5.046
  258TIP3    H1  738   5.264   3.617   5.049
  258TIP3    H2  739   5.380   3.635   4.954
  259TIP3   OH2  740   4.894   6.703   2.682
  259TIP3    H1  741   4.947   6.733   2.608
  259TIP3    H2  742   4.951   6.712   2.758
  260TIP3   OH2  743   1.575   3.771   0.444
  260TIP3    H1  744   1.569   3.715   0.521
  260TIP3    H2  745   1.536   3.854   0.471
  261TIP3   OH2  746   1.649   0.385   2.519
  261TIP3    H1  747   1.668   0.292   2.506
  261TIP3    H2  748   1.619   0.391   2.609
  262TIP3   OH2  749   2.756   3.319   5.811
  262TIP3    H1  750   2.709   3.401   5.826
  262TIP3    H2  751   2.847   3.339   5.830
  263TIP3   OH2  752   5.569   0.457   1.648
  263TIP3    H1  753   5.645   0.427   1.598
  263TIP3    H2  754   5.496   0.409   1.610
  264TIP3   OH2  755   2.840   6.132   3.996
  264TIP3    H1  756   2.835   6.199   3.929
  264TIP3    H2  757   2.748   6.115   4.020
  265TIP3   OH2  758   7.095   1.814   1.621
  265TIP3    H1  759   7.070   1.722   1.621
  265TIP3    H2  760   7.013   1.862   1.627
  266TIP3   OH2  761   0.579   1.310   1.420
  266TIP3    H1  762   0.545   1.344   1.337
  266TIP3    H2  763   0.674   1.318   1.413
  267TIP3   OH2  764   3.378   0.378   4.843
  267TIP3    H1  765   3.308   0.443   4.839
  267TIP3    H2  766   3.395   0.367   4.937
  268TIP3   OH2  767   5.584   3.255   2.239
  268TIP3    H1  768   5.520   3.242   2.309
  268TIP3    H2  769   5.571   3.180   2.181
  269TIP3   OH2  770   4.822   1.720   5.609
  269TIP3    H1  771   4.911   1.753   5.621
  269TIP3    H2  772   4.824   1.676   5.524
  270TIP3   OH2  773   4.008   2.795   2.221
  270TIP3    H1  774   4.069   2.848   2.169
  270TIP3    H2  775   4.014   2.831   2.309
  271TIP3   OH2  776   2.285   6.350   2.631
  271TIP3    H1  777   2.196   6.338   2.597
  271TIP3    H2  778   2.309   6.265   2.667
  272TIP3   OH2  779   2.548   6.177   4.707
  272TIP3    H1  780   2.561   6.186   4.613
  272TIP3    H2  781   2.631   6.143   4.740
  273TIP3   OH2  782   1.110   6.008   2.565
  273TIP3    H1  783   1.184   6.069   2.560
  273TIP3    H2  784   1.043   6.056   2.613
  274TIP3   OH2  785   3.546   0.756   4.060
  274TIP3    H1  786   3.607   0.829   4.071
  274TIP3    H2  787   3.527   0.754   3.966
  275TIP3   OH2  788   3.497   4.530   0.680
  275TIP3    H1  789   3.514   4.619   0.712
  275TIP3    H2  790   3.453   4.487   0.753
  276TIP3   OH2  791   0.446   2.776   4.636
  276TIP3    H1  792   0.441   2.861   4.680
  276TIP3    H2  793   0.373   2.726   4.673
  277TIP3   OH2  794   2.015   2.298   0.327
  277TIP3    H1  795   2.083   2.286   0.261
  277TIP3    H2  796   1.934   2.304   0.277
  278TIP3   OH2  797   3.462   5.898   3.503
  278TIP3    H1  798   3.406   5.925   3.575
  278TIP3    H2  799   3.498   5.814   3.530
  279TIP3   OH2  800   4.858   2.257   3.180
  279TIP3    H1  801   4.807   2.252   3.261
  279TIP3    H2  802   4.800   2.300   3.118
  280TIP3   OH2  803   1.950   0.516   5.035
  280TIP3    H1  804   1.913   0.431   5.059
  280TIP3    H2  805   1.970   0.558   5.118
  281TIP3   OH2  806   1.304   0.325   3.797
  281TIP3    H1  807   1.300   0.413   3.834
  281TIP3    H2  808   1.303   0.267   3.873
  282TIP3   OH2  809   4.695   4.472   3.045
  282TIP3    H1  810   4.723   4.563   3.038
  282TIP3    H2  811   4.776   4.422   3.034
  283TIP3   OH2  812   2.089   1.736   1.346
  283TIP3    H1  813   2.003   1.723   1.385
  283TIP3    H2  814   2.110   1.653   1.305
  284TIP3   OH2  815   0.768   3.799   5.115
  284TIP3    H1  816   0.854   3.800   5.156
  284TIP3    H2  817   0.742   3.891   5.112
  285TIP3   OH2  818   0.687   0.394   5.111
  285TIP3    H1  819   0.640   0.406   5.029
  285TIP3    H2  820   0.652   0.462   5.169
  286TIP3   OH2  821   3.065   6.798   4.185
  286TIP3    H1  822   3.103   6.715   4.156
  286TIP3    H2  823   3.054   6.787   4.280
  287TIP3   OH2  824   5.742   2.741   4.304
  287TIP3    H1  825   5.835   2.717   4.302
  287TIP3    H2  826   5.717   2.736   4.396
  288TIP3   OH2  827   5.192   3.195   1.919
  288TIP3    H1  828   5.236   3.272   1.881
  288TIP3    H2  829   5.115   3.231   1.963
  289TIP3   OH2  830   3.419   4.285   0.881
  289TIP3    H1  831   3.383   4.198   0.866
  289TIP3    H2  832   3.444   4.285   0.973
  290TIP3   OH2  833   1.660   5.873   1.616
  290TIP3    H1  834   1.727   5.862   1.684
  290TIP3    H2  835   1.644   5.784   1.583
  291TIP3   OH2  836   6.301   1.469   2.456
  291TIP3    H1  837   6.378   1.415   2.440
  291TIP3    H2  838   6.305   1.536   2.388
  292TIP3   OH2  839   5.912   1.670   4.310
  292TIP3    H1  840   5.861   1.663   4.390
  292TIP3    H2  841   5.972   1.743   4.326
  293TIP3   OH2  842   5.796   2.563   1.842
  293TIP3    H1  843   5.843   2.646   1.851
  293TIP3    H2  844   5.770   2.559   1.750
  294TIP3   OH2  845   0.037   2.331   3.573
  294TIP3    H1  846   0.129   2.342   3.600
  294TIP3    H2  847   0.043   2.288   3.488
  295TIP3   OH2  848   1.820   0.943   3.240
  295TIP3    H1  849   1.877   1.008   3.282
  295TIP3    H2  850   1.788   0.988   3.161
  296TIP3   OH2  851   4.661   4.551   1.504
  296TIP3    H1  852   4.711   4.524   1.428
  296TIP3    H2  853   4.583   4.495   1.503
  297TIP3   OH2  854   3.464   3.015   2.188
  297TIP3    H1  855   3.453   3.092   2.133
  297TIP3    H2  856   3.555   2.988   2.175
  298TIP3   OH2  857   6.129   3.264   2.320
  298TIP3    H1  858   6.103   3.270   2.228
  298TIP3    H2  859   6.076   3.192   2.355
  299TIP3   OH2  860   5.917   4.511   4.085
  299TIP3    H1  861   5.851   4.505   4.154
  299TIP3    H2  862   5.877   4.468   4.010
  300TIP3   OH2  863   0.584   6.328   4.178
  300TIP3    H1  864   0.642   6.312   4.104
  300TIP3    H2  865   0.532   6.404   4.152
  301TIP3   OH2  866   5.651   3.742   5.452
  301TIP3    H1  867   5.652   3.756   5.357
  301TIP3    H2  868   5.734   3.700   5.471
  302TIP3   OH2  869   3.279   3.545   3.192
  302TIP3    H1  870   3.339   3.595   3.137
  302TIP3    H2  871   3.335   3.509   3.262
  303TIP3   OH2  872   2.058   0.703   4.192
  303TIP3    H1  873   2.062   0.740   4.104
  303TIP3    H2  874   2.142   0.657   4.202
  304TIP3   OH2  875   0.635   2.735   4.964
  304TIP3    H1  876   0.620   2.791   5.041
  304TIP3    H2  877   0.548   2.701   4.942
  305TIP3   OH2  878   7.125   6.635   5.842
  305TIP3    H1  879   7.038   6.633   5.803
  305TIP3    H2  880   7.134   6.549   5.884
  306TIP3   OH2  881   3.028   0.931   4.639
  306TIP3    H1  882   3.018   0.870   4.712
  306TIP3    H2  883   2.987   1.012   4.670
  307TIP3   OH2  884   6.695   5.451   4.470
  307TIP3    H1  885   6.766   5.480   4.527
  307TIP3    H2  886   6.692   5.517   4.401
  308TIP3   OH2  887   0.671   3.248   0.060
  308TIP3    H1  888   0.643   3.329   0.102
  308TIP3    H2  889   0.685   3.187   0.132
  309TIP3   OH2  890   3.868   5.494   1.837
  309TIP3    H1  891   3.901   5.404   1.841
  309TIP3    H2  892   3.855   5.519   1.928
  310TIP3   OH2  893   0.209   0.848   2.818
  310TIP3    H1  894   0.279   0.859   2.754
  310TIP3    H2  895   0.131   0.882   2.775
  311TIP3   OH2  896   6.749   0.718   3.086
  311TIP3    H1  897   6.795   0.747   3.007
  311TIP3    H2  898   6.681   0.784   3.099
  312TIP3   OH2  899   3.658   5.682   2.878
  312TIP3    H1  900   3.738   5.706   2.833
  312TIP3    H2  901   3.588   5.706   2.818
  313TIP3   OH2  902   1.638   3.079   4.091
  313TIP3    H1  903   1.678   3.141   4.030
  313TIP3    H2  904   1.712   3.029   4.126
  314TIP3   OH2  905   2.718   0.789   4.649
  314TIP3    H1  906   2.761   0.772   4.733
  314TIP3    H2  907   2.758   0.726   4.589
  315TIP3   OH2  908   4.057   4.816   2.726
  315TIP3    H1  909   4.151   4.808   2.746
  315TIP3    H2  910   4.056   4.858   2.640
  316TIP3   OH2  911   6.149   0.578   4.016
  316TIP3    H1  912   6.159   0.674   4.016
  316TIP3    H2  913   6.072   0.563   3.961
  317TIP3   OH2  914   0.459   6.326   0.323
  317TIP3    H1  915   0.421   6.239   0.308
  317TIP3    H2  916   0.446   6.341   0.416
  318TIP3   OH2  917   1.841   0.870   4.541
  318TIP3    H1  918   1.831   0.899   4.450
  318TIP3    H2  919   1.936   0.873   4.556
  319TIP3   OH2  920   2.545   2.121   1.298
  319TIP3    H1  921   2.598   2.183   1.348
  319TIP3    H2  922   2.594   2.109   1.216
  320TIP3   OH2  923   0.577   2.699   1.172
  320TIP3    H1  924   0.661   2.696   1.219
  320TIP3    H2  925   0.591   2.642   1.096
  321TIP3   OH2  926   4.528   1.768   1.194
  321TIP3    H1  927   4.469   1.720   1.253
  321TIP3    H2  928   4.614   1.760   1.235
  322TIP3   OH2  929   2.601   3.139   4.622
  322TIP3    H1  930   2.648   3.221   4.635
  322TIP3    H2  931   2.582   3.137   4.528
  323TIP3   OH2  932   2.206   5.947   0.700
  323TIP3    H1  933   2.219   5.862   0.659
  323TIP3    H2  934   2.229   6.010   0.631
  324TIP3   OH2  935   0.780   1.545   4.651
  324TIP3    H1  936   0.859   1.597   4.669
  324TIP3    H2  937   0.777   1.538   4.556
  325TIP3   OH2  938   1.781   5.061   3.878
  325TIP3    H1  939   1.843   4.993   3.852
  325TIP3    H2  940   1.739   5.088   3.795
  326TIP3   OH2  941   6.308   6.211   0.444
  326TIP3    H1  942   6.304   6.122   0.481
  326TIP3    H2  943   6.355   6.262   0.509
  327TIP3   OH2  944   6.172   6.482   1.574
  327TIP3    H1  945   6.106   6.413   1.565
  327TIP3    H2  946   6.252   6.436   1.601
  328TIP3   OH2  947   3.455   4.094   4.051
  328TIP3    H1  948   3.406   4.016   4.077
  328TIP3    H2  949   3.543   4.080   4.085
  329TIP3   OH2  950   3.055   0.824   4.360
  329TIP3    H1  951   3.140   0.820   4.315
  329TIP3    H2  952   3.072   0.874   4.439
  330TIP3   OH2  953   3.747   2.240   3.139
  330TIP3    H1  954   3.815   2.175   3.154
  330TIP3    H2  955   3.724   2.230   3.046
  331TIP3   OH2  956   1.453   1.872   2.981
  331TIP3    H1  957   1.544   1.860   3.009
  331TIP3    H2  958   1.407   1.899   3.060
  332TIP3   OH2  959   5.172   0.971   5.454
  332TIP3    H1  960   5.135   0.897   5.406
  332TIP3    H2  961   5.096   1.018   5.488
  333TIP3   OH2  962   6.738   5.917   3.882
  333TIP3    H1  963   6.788   5.838   3.902
  333TIP3    H2  964   6.716   5.954   3.968
  334TIP3   OH2  965   4.951   4.811   2.811
  334TIP3    H1  966   4.977   4.849   2.727
  334TIP3    H2  967   4.897   4.735   2.788
  335TIP3   OH2  968   0.468   0.533   5.291
  335TIP3    H1  969   0.423   0.553   5.373
  335TIP3    H2  970   0.398   0.526   5.227
  336TIP3   OH2  971   1.465   3.964   5.132
  336TIP3    H1  972   1.525   4.014   5.188
  336TIP3    H2  973   1.518   3.894   5.095
  337TIP3   OH2  974   0.812   0.624   1.998
  337TIP3    H1  975   0.751   0.576   1.942
  337TIP3    H2  976   0.761   0.697   2.032
  338TIP3   OH2  977   1.093   4.601   1.050
  338TIP3    H1  978   1.087   4.524   1.107
  338TIP3    H2  979   1.117   4.566   0.964
  339TIP3   OH2  980   3.767   0.349   0.414
  339TIP3    H1  981   3.751   0.399   0.494
  339TIP3    H2  982   3.770   0.415   0.345
  340TIP3   OH2  983   0.524   6.722   5.428
  340TIP3    H1  984   0.442   6.696   5.470
  340TIP3    H2  985   0.579   6.751   5.501
  341TIP3   OH2  986   1.674   0.493   1.639
  341TIP3    H1  987   1.741   0.456   1.696
  341TIP3    H2  988   1.647   0.421   1.582
  342TIP3   OH2  989   5.167   4.320   3.999
  342TIP3    H1  990   5.256   4.287   4.010
  342TIP3    H2  991   5.178   4.411   3.973
  343TIP3   OH2  992   2.611   3.952   4.941
  343TIP3    H1  993   2.681   3.923   4.883
  343TIP3    H2  994   2.565   3.871   4.965
  344TIP3   OH2  995   3.373   6.742   1.730
  344TIP3    H1  996   3.285   6.718   1.702
  344TIP3    H2  997   3.414   6.659   1.755
  345TIP3   OH2  998   3.186   4.179   4.774
  345TIP3    H1  999   3.266   4.131   4.796
  345TIP3    H2 1000   3.143   4.193   4.859
  346TIP3   OH2 1001   4.516   6.785   3.131
  346TIP3    H1 1002   4.426   6.766   3.106
  346TIP3    H2 1003   4.560   6.699   3.130
  347TIP3   OH2 1004   0.378   1.683   0.121
  347TIP3    H1 1005   0.457   1.734   0.136
  347TIP3    H2 1006   0.316   1.746   0.081
  348TIP3   OH2 1007   5.251   6.150   0.435
  348TIP3    H1 1008   5.212   6.174   0.519
  348TIP3    H2 1009   5.310   6.078   0.455
  349TIP3   OH2 1010   5.514   4.939   1.791
  349TIP3    H1 1011   5.522   4.872   1.722
  349TIP3    H2 1012   5.565   4.904   1.864
  350TIP3   OH2 1013   2.503   3.444   5.093
  350TIP3    H1 1014   2.481   3.466   5.184
  350TIP3    H2 1015   2.540   3.356   5.098
  351TIP3   OH2 1016   5.675   2.451   5.274
  351TIP3    H1 1017   5.597   2.506   5.277
  351TIP3    H2 1018   5.642   2.362   5.286
  352TIP3   OH2 1019   4.501   6.065   3.934
  352TIP3    H1 1020   4.484   5.989   3.878
  352TIP3    H2 1021   4.539   6.131   3.875
  353TIP3   OH2 1022   5.655   3.152   1.199
  353TIP3    H1 1023   5.743   3.188   1.206
  353TIP3    H2 1024   5.633   3.160   1.106
  354TIP3   OH2 1025   5.051   1.520  -0.004
  354TIP3    H1 1026   5.103   1.492   0.072
  354TIP3    H2 1027   5.104   1.495  -0.080
  355TIP3   OH2 1028   6.882   0.556   4.675
  355TIP3    H1 1029   6.830   0.477   4.687
  355TIP3    H2 1030   6.943   0.557   4.749
  356TIP3   OH2 1031   3.331   0.922   1.817
  356TIP3    H1 1032   3.279   0.915   1.736
  356TIP3    H2 1033   3.371   0.835   1.827
  357TIP3   OH2 1034   7.099   3.203   4.038
  357TIP3    H1 1035   7.039   3.144   3.991
  357TIP3    H2 1036   7.132   3.150   4.110
  358TIP3   OH2 1037   5.596   1.993   4.552
  358TIP3    H1 1038   5.668   2.042   4.512
  358TIP3    H2 1039   5.587   2.032   4.639
  359TIP3   OH2 1040   2.243   5.908   1.649
  359TIP3    H1 1041   2.244   5.848   1.574
  359TIP3    H2 1042   2.311   5.875   1.707
  360TIP3   OH2 1043   1.769   1.281   3.096
  360TIP3    H1 1044   1.798   1.358   3.146
  360TIP3    H2 1045   1.710   1.235   3.156
  361TIP3   OH2 1046   4.185   3.827   2.622
  361TIP3    H1 1047   4.122   3.894   2.647
  361TIP3    H2 1048   4.260   3.876   2.587
  362TIP3   OH2 1049   6.382   6.642   2.917
  362TIP3    H1 1050   6.434   6.722   2.902
  362TIP3    H2 1051   6.314   6.645   2.850
  363TIP3   OH2 1052   4.047   3.613   5.014
  363TIP3    H1 1053   4.115   3.622   5.080
  363TIP3    H2 1054   4.090   3.565   4.942
  364TIP3   OH2 1055   1.853   2.971   5.592
  364TIP3    H1 1056   1.783   3.021   5.635
  364TIP3    H2 1057   1.817   2.947   5.507
  365TIP3   OH2 1058   2.590   3.820   0.326
  365TIP3    H1 1059   2.587   3.896   0.269
  365TIP3    H2 1060   2.608   3.747   0.268
  366TIP3   OH2 1061   5.568   3.571   2.807
  366TIP3    H1 1062   5.563   3.624   2.729
  366TIP3    H2 1063   5.540   3.629   2.878
  367TIP3   OH2 1064   3.948   5.457   4.749
  367TIP3    H1 1065   3.869   5.407   4.770
  367TIP3    H2 1066   3.930   5.545   4.781
  368TIP3   OH2 1067   6.791   5.612   4.261
  368TIP3    H1 1068   6.886   5.617   4.268
  368TIP3    H2 1069   6.775   5.543   4.196
  369TIP3   OH2 1070   4.296   0.881   3.014
  369TIP3    H1 1071   4.371   0.922   3.058
  369TIP3    H2 1072   4.234   0.862   3.085
  370TIP3   OH2 1073   5.599   0.843   5.022
  370TIP3    H1 1074   5.541   0.793   4.965
  370TIP3    H2 1075   5.686   0.830   4.985
  371TIP3   OH2 1076   0.495   3.156   1.100
  371TIP3    H1 1077   0.553   3.231   1.109
  371TIP3    H2 1078   0.424   3.172   1.162
  372TIP3   OH2 1079   1.236   4.498   0.807
  372TIP3    H1 1080   1.241   4.586   0.770
  372TIP3    H2 1081   1.188   4.447   0.743
  373TIP3   OH2 1082   2.665   1.183   3.526
  373TIP3    H1 1083   2.708   1.102   3.551
  373TIP3    H2 1084   2.579   1.156   3.493
  374TIP3   OH2 1085   6.749   5.168   4.594
  374TIP3    H1 1086   6.730   5.182   4.686
  374TIP3    H2 1087   6.670   5.197   4.548
  375TIP3   OH2 1088   6.033   0.057   2.260
  375TIP3    H1 1089   6.025   0.066   2.165
  375TIP3    H2 1090   5.957   0.004   2.285
  376TIP3   OH2 1091   0.238   5.636   5.817
  376TIP3    H1 1092   0.268   5.639   5.726
  376TIP3    H2 1093   0.271   5.717   5.856
  377TIP3   OH2 1094   3.173   1.928   3.177
  377TIP3    H1 1095   3.105   1.917   3.243
  377TIP3    H2 1096   3.125   1.945   3.095
  378TIP3   OH2 1097   0.736   3.836   3.816
  378TIP3    H1 1098   0.735   3.809   3.908
  378TIP3    H2 1099   0.697   3.923   3.816
  379TIP3   OH2 1100   5.113   3.385   5.699
  379TIP3    H1 1101   5.182   3.323   5.676
  379TIP3    H2 1102   5.073   3.409   5.616
  380TIP3   OH2 1103   5.980   2.859   2.212
  380TIP3    H1 1104   5.987   2.770   2.246
  380TIP3    H2 1105   6.039   2.910   2.267
  381TIP3   OH2 1106   2.563   3.385   2.994
  381TIP3    H1 1107   2.622   3.355   2.925
  381TIP3    H2 1108   2.524   3.466   2.959
  382TIP3   OH2 1109   5.310   3.020   4.668
  382TIP3    H1 1110   5.373   2.949   4.679
  382TIP3    H2 1111   5.291   3.021   4.575
  383TIP3   OH2 1112   6.260   3.867   0.682
  383TIP3    H1 1113   6.250   3.958   0.710
  383TIP3    H2 1114   6.171   3.839   0.661
  384TIP3   OH2 1115   3.326   6.583   2.549
  384TIP3    H1 1116   3.292   6.496   2.568
  384TIP3    H2 1117   3.404   6.591   2.604
  385TIP3   OH2 1118   2.407   0.770   0.852
  385TIP3    H1 1119   2.430   0.796   0.942
  385TIP3    H2 1120   2.484   0.724   0.820
  386TIP3   OH2 1121   4.082   1.749   0.132
  386TIP3    H1 1122   4.160   1.772   0.182
  386TIP3    H2 1123   4.101   1.777   0.043
  387TIP3   OH2 1124   6.698   5.516   2.936
  387TIP3    H1 1125   6.616   5.469   2.918
  387TIP3    H2 1126   6.757   5.448   2.969
  388TIP3   OH2 1127   3.409   4.659   3.198
  388TIP3    H1 1128   3.374   4.692   3.116
  388TIP3    H2 1129   3.352   4.586   3.221
  389TIP3   OH2 1130   0.396   4.268   2.057
  389TIP3    H1 1131   0.374   4.201   2.122
  389TIP3    H2 1132   0.459   4.225   1.999
  390TIP3   OH2 1133   4.687   5.577   2.923
  390TIP3    H1 1134   4.749   5.643   2.953
  390TIP3    H2 1135   4.604   5.601   2.964
  391TIP3   OH2 1136   1.812   3.127   1.272
  391TIP3    H1 1137   1.898   3.115   1.313
  391TIP3    H2 1138   1.816   3.073   1.193
  392TIP3   OH2 1139   0.843   4.824   3.189
  392TIP3    H1 1140   0.872   4.838   3.279
  392TIP3    H2 1141   0.922   4.827   3.136
  393TIP3   OH2 1142   3.308   5.087   5.242
  393TIP3    H1 1143   3.396   5.050   5.244
  393TIP3    H2 1144   3.322   5.182   5.248
  394TIP3   OH2 1145   4.691   1.283   5.666
  394TIP3    H1 1146   4.762   1.257   5.723
  394TIP3    H2 1147   4.619   1.225   5.689
  395TIP3   OH2 1148   6.131   5.224   1.963
  395TIP3    H1 1149   6.170   5.139   1.982
  395TIP3    H2 1150   6.192   5.265   1.901
  396TIP3   OH2 1151   0.508   6.100   4.292
  396TIP3    H1 1152   0.542   6.187   4.269
  396TIP3    H2 1153   0.580   6.040   4.274
  397TIP3   OH2 1154   1.317   2.214   1.667
  397TIP3    H1 1155   1.346   2.304   1.651
  397TIP3    H2 1156   1.260   2.221   1.744
  398TIP3   OH2 1157   2.849   5.401   0.576
  398TIP3    H1 1158   2.777   5.352   0.535
  398TIP3    H2 1159   2.926   5.375   0.527
  399TIP3   OH2 1160   2.676   6.272   1.101
  399TIP3    H1 1161   2.635   6.230   1.177
  399TIP3    H2 1162   2.745   6.326   1.139
  400TIP3   OH2 1163   6.844   5.293   0.878
  400TIP3    H1 1164   6.797   5.364   0.922
  400TIP3    H2 1165   6.809   5.292   0.789
  401TIP3   OH2 1166   0.869   4.801   1.078
  401TIP3    H1 1167   0.942   4.740   1.088
  401TIP3    H2 1168   0.908   4.880   1.041
  402TIP3   OH2 1169   3.591   2.724   1.721
  402TIP3    H1 1170   3.579   2.805   1.671
  402TIP3    H2 1171   3.611   2.753   1.810
  403TIP3   OH2 1172   1.595   3.090   0.460
  403TIP3    H1 1173   1.682   3.055   0.440
  403TIP3    H2 1174   1.539   3.013   0.468
  404TIP3   OH2 1175   0.855   2.694   3.787
  404TIP3    H1 1176   0.806   2.640   3.849
  404TIP3    H2 1177   0.852   2.644   3.705
  405TIP3   OH2 1178   1.712   1.880   3.290
  405TIP3    H1 1179   1.687   1.973   3.284
  405TIP3    H2 1180   1.738   1.856   3.201
  406TIP3   OH2 1181   0.373   2.665   4.976
  406TIP3    H1 1182   0.361   2.616   5.057
  406TIP3    H2 1183   0.346   2.605   4.907
  407TIP3   OH2 1184   5.465   1.707   2.296
  407TIP3    H1 1185   5.514   1.763   2.235
  407TIP3    H2 1186   5.386   1.757   2.316
  408TIP3   OH2 1187   1.107   4.403   2.737
  408TIP3    H1 1188   1.146   4.388   2.651
  408TIP3    H2 1189   1.034   4.463   2.721
  409TIP3   OH2 1190   5.189   3.000   5.236
  409TIP3    H1 1191   5.227   2.939   5.300
  409TIP3    H2 1192   5.167   3.078   5.287
  410TIP3   OH2 1193   6.713   2.726   0.208
  410TIP3    H1 1194   6.634   2.767   0.244
  410TIP3    H2 1195   6.785   2.763   0.260
  411TIP3   OH2 1196   3.076   4.970   0.713
  411TIP3    H1 1197   3.131   4.996   0.639
  411TIP3    H2 1198   3.108   4.883   0.737
  412TIP3   OH2 1199   3.516   0.463   0.965
  412TIP3    H1 1200   3.581   0.529   0.943
  412TIP3    H2 1201   3.529   0.447   1.059
  413TIP3   OH2 1202   3.263   3.659   2.341
  413TIP3    H1 1203   3.182   3.611   2.328
  413TIP3    H2 1204   3.279   3.655   2.436
  414TIP3   OH2 1205   3.481   0.064   2.342
  414TIP3    H1 1206   3.549   0.091   2.404
  414TIP3    H2 1207   3.441   0.146   2.313
  415TIP3   OH2 1208   6.345   6.599   0.300
  415TIP3    H1 1209   6.398   6.558   0.368
  415TIP3    H2 1210   6.408   6.631   0.236
  416TIP3   OH2 1211   5.149   2.437   1.358
  416TIP3    H1 1212   5.070   2.452   1.305
  416TIP3    H2 1213   5.120   2.455   1.448
  417TIP3   OH2 1214   2.465   5.414   1.146
  417TIP3    H1 1215   2.470   5.473   1.070
  417TIP3    H2 1216   2.373   5.390   1.152
  418TIP3   OH2 1217   6.564   3.078   4.444
  418TIP3    H1 1218   6.606   3.005   4.399
  418TIP3    H2 1219   6.484   3.041   4.480
  419TIP3   OH2 1220   5.374   5.472   0.827
  419TIP3    H1 1221   5.349   5.387   0.792
  419TIP3    H2 1222   5.302   5.496   0.886
  420TIP3   OH2 1223   5.032   2.325   4.304
  420TIP3    H1 1224   5.041   2.420   4.289
  420TIP3    H2 1225   5.082   2.285   4.232
  421TIP3   OH2 1226   2.362   2.189   3.393
  421TIP3    H1 1227   2.414   2.261   3.429
  421TIP3    H2 1228   2.311   2.156   3.468
  422TIP3   OH2 1229   0.486   6.173   0.059
  422TIP3    H1 1230   0.512   6.227   0.133
  422TIP3    H2 1231   0.525   6.216  -0.017
  423TIP3   OH2 1232   7.065   1.081   1.527
  423TIP3    H1 1233   7.131   1.015   1.549
  423TIP3    H2 1234   7.014   1.091   1.607
  424TIP3   OH2 1235   6.148   3.940   2.161
  424TIP3    H1 1236   6.198   3.901   2.232
  424TIP3    H2 1237   6.193   4.023   2.142
  425TIP3   OH2 1238   0.392   3.677   3.326
  425TIP3    H1 1239   0.346   3.755   3.358
  425TIP3    H2 1240   0.438   3.644   3.403
  426TIP3   OH2 1241   3.336  -0.001   4.328
  426TIP3    H1 1242   3.336  -0.046   4.412
  426TIP3    H2 1243   3.338   0.092   4.350
  427TIP3   OH2 1244   0.335   0.810   0.511
  427TIP3    H1 1245   0.280   0.735   0.487
  427TIP3    H2 1246   0.353   0.798   0.604
  428TIP3   OH2 1247   1.867   6.009   2.126
  428TIP3    H1 1248   1.817   5.942   2.172
  428TIP3    H2 1249   1.953   5.969   2.114
  429TIP3   OH2 1250   6.214   2.544   2.251
  429TIP3    H1 1251   6.133   2.587   2.278
  429TIP3    H2 1252   6.192   2.450   2.250
  430TIP3   OH2 1253   4.216  -0.005   4.047
  430TIP3    H1 1254   4.262   0.028   3.969
  430TIP3    H2 1255   4.244   0.053   4.117
  431TIP3   OH2 1256   0.934   3.883   1.493
  431TIP3    H1 1257   1.014   3.935   1.489
  431TIP3    H2 1258   0.895   3.890   1.406
  432TIP3   OH2 1259   0.287   2.051   2.130
  432TIP3    H1 1260   0.344   1.985   2.091
  432TIP3    H2 1261   0.338   2.132   2.124
  433TIP3   OH2 1262   4.148   0.263   0.589
  433TIP3    H1 1263   4.124   0.321   0.517
  433TIP3    H2 1264   4.213   0.204   0.552
  434TIP3   OH2 1265   5.045   6.781   4.484
  434TIP3    H1 1266   5.072   6.710   4.542
  434TIP3    H2 1267   5.094   6.857   4.515
  435TIP3   OH2 1268   2.943   4.314   5.071
  435TIP3    H1 1269   3.009   4.247   5.052
  435TIP3    H2 1270   2.864   4.283   5.028
  436TIP3   OH2 1271   5.034   3.917   0.622
  436TIP3    H1 1272   4.960   3.918   0.561
  436TIP3    H2 1273   5.025   3.836   0.671
  437TIP3   OH2 1274   2.732   2.337   2.704
  437TIP3    H1 1275   2.682   2.280   2.762
  437TIP3    H2 1276   2.666   2.387   2.656
  438TIP3   OH2 1277   3.116   0.294   1.137
  438TIP3    H1 1278   3.033   0.261   1.102
  438TIP3    H2 1279   3.171   0.309   1.060
  439TIP3   OH2 1280   0.655   5.253   5.079
  439TIP3    H1 1281   0.612   5.262   4.994
  439TIP3    H2 1282   0.592   5.204   5.132
  440TIP3   OH2 1283   6.420   5.746   3.958
  440TIP3    H1 1284   6.466   5.739   4.041
  440TIP3    H2 1285   6.486   5.725   3.892
  441TIP3   OH2 1286   4.343   3.304   4.583
  441TIP3    H1 1287   4.299   3.357   4.648
  441TIP3    H2 1288   4.393   3.240   4.634
  442TIP3   OH2 1289   0.913   6.121   4.433
  442TIP3    H1 1290   0.895   6.152   4.344
  442TIP3    H2 1291   0.982   6.180   4.466
  443TIP3   OH2 1292   4.933   3.929   4.046
  443TIP3    H1 1293   5.013   3.949   4.094
  443TIP3    H2 1294   4.959   3.934   3.954
  444TIP3   OH2 1295   6.516   0.860   3.192
  444TIP3    H1 1296   6.423   0.845   3.209
  444TIP3    H2 1297   6.533   0.948   3.224
  445TIP3   OH2 1298   5.067   4.288   4.335
  445TIP3    H1 1299   5.036   4.316   4.422
  445TIP3    H2 1300   4.989   4.292   4.280
  446TIP3   OH2 1301   6.422   2.089   4.595
  446TIP3    H1 1302   6.362   2.108   4.523
  446TIP3    H2 1303   6.495   2.149   4.583
  447TIP3   OH2 1304   5.094   2.765   4.832
  447TIP3    H1 1305   5.160   2.718   4.781
  447TIP3    H2 1306   5.089   2.851   4.790
  448TIP3   OH2 1307   4.585   5.250   2.500
  448TIP3    H1 1308   4.563   5.338   2.530
  448TIP3    H2 1309   4.680   5.246   2.507
  449TIP3   OH2 1310   6.876   6.702   5.696
  449TIP3    H1 1311   6.884   6.797   5.702
  449TIP3    H2 1312   6.844   6.685   5.607
  450TIP3   OH2 1313   6.699   3.918   2.978
  450TIP3    H1 1314   6.728   3.977   3.048
  450TIP3    H2 1315   6.781   3.886   2.940
  451TIP3   OH2 1316   3.703   0.753   1.274
  451TIP3    H1 1317   3.621   0.801   1.279
  451TIP3    H2 1318   3.679   0.671   1.229
  452TIP3   OH2 1319   2.883   0.822   3.407
  452TIP3    H1 1320   2.933   0.838   3.487
  452TIP3    H2 1321   2.795   0.852   3.428
  453TIP3   OH2 1322   4.363   0.380   2.696
  453TIP3    H1 1323   4.446   0.401   2.654
  453TIP3    H2 1324   4.297   0.422   2.642
  454TIP3   OH2 1325   3.002   5.069   2.757
  454TIP3    H1 1326   2.944   5.022   2.818
  454TIP3    H2 1327   2.943   5.102   2.689
  455TIP3   OH2 1328   2.462   5.297   5.588
  455TIP3    H1 1329   2.546   5.319   5.628
  455TIP3    H2 1330   2.480   5.220   5.534
  456TIP3   OH2 1331   5.380   0.977   3.893
  456TIP3    H1 1332   5.405   1.018   3.810
  456TIP3    H2 1333   5.373   0.884   3.872
  457TIP3   OH2 1334   1.368   4.276   0.132
  457TIP3    H1 1335   1.376   4.188   0.096
  457TIP3    H2 1336   1.296   4.315   0.084
  458TIP3   OH2 1337   3.194   3.878   0.747
  458TIP3    H1 1338   3.193   3.839   0.834
  458TIP3    H2 1339   3.122   3.942   0.749
  459TIP3   OH2 1340   0.372   0.677   1.535
  459TIP3    H1 1341   0.313   0.706   1.465
  459TIP3    H2 1342   0.316   0.631   1.597
  460TIP3   OH2 1343   2.661   4.689   3.850
  460TIP3    H1 1344   2.612   4.642   3.917
  460TIP3    H2 1345   2.626   4.655   3.767
  461TIP3   OH2 1346   5.319   5.397   5.594
  461TIP3    H1 1347   5.408   5.371   5.615
  461TIP3    H2 1348   5.325   5.490   5.575
  462TIP3   OH2 1349   6.102   1.173   5.810
  462TIP3    H1 1350   6.171   1.237   5.794
  462TIP3    H2 1351   6.115   1.106   5.743
  463TIP3   OH2 1352   5.615   2.971   3.043
  463TIP3    H1 1353   5.680   2.902   3.056
  463TIP3    H2 1354   5.542   2.926   3.000
  464TIP3   OH2 1355   2.588   5.681   3.082
  464TIP3    H1 1356   2.646   5.621   3.129
  464TIP3    H2 1357   2.643   5.757   3.062
  465TIP3   OH2 1358   5.226   5.758   3.982
  465TIP3    H1 1359   5.172   5.838   3.978
  465TIP3    H2 1360   5.278   5.768   4.062
  466TIP3   OH2 1361   4.926   0.697   4.310
  466TIP3    H1 1362   4.973   0.728   4.232
  466TIP3    H2 1363   4.886   0.775   4.347
  467TIP3   OH2 1364   3.348   4.889   5.682
  467TIP3    H1 1365   3.352   4.825   5.610
  467TIP3    H2 1366   3.312   4.968   5.642
  468TIP3   OH2 1367   2.336   1.579   3.578
  468TIP3    H1 1368   2.407   1.573   3.514
  468TIP3    H2 1369   2.334   1.494   3.621
  469TIP3   OH2 1370   5.511   6.104   5.464
  469TIP3    H1 1371   5.503   6.056   5.382
  469TIP3    H2 1372   5.592   6.072   5.503
  470TIP3   OH2 1373   1.564   6.596   2.936
  470TIP3    H1 1374   1.512   6.523   2.902
  470TIP3    H2 1375   1.509   6.634   3.004
  471TIP3   OH2 1376   6.316   1.430   3.205
  471TIP3    H1 1377   6.370   1.428   3.127
  471TIP3    H2 1378   6.305   1.523   3.224
  472TIP3   OH2 1379   5.951   6.787   5.746
  472TIP3    H1 1380   6.029   6.827   5.708
  472TIP3    H2 1381   5.985   6.725   5.811
  473TIP3   OH2 1382   7.121   0.218   0.225
  473TIP3    H1 1383   7.207   0.205   0.265
  473TIP3    H2 1384   7.086   0.295   0.270
  474TIP3   OH2 1385   6.289   4.492   4.711
  474TIP3    H1 1386   6.255   4.421   4.657
  474TIP3    H2 1387   6.215   4.517   4.766
  475TIP3   OH2 1388   0.275   6.439   5.688
  475TIP3    H1 1389   0.236   6.521   5.718
  475TIP3    H2 1390   0.364   6.463   5.661
  476TIP3   OH2 1391   0.413   1.319   4.452
  476TIP3    H1 1392   0.436   1.250   4.390
  476TIP3    H2 1393   0.318   1.330   4.441
  477TIP3   OH2 1394   5.392   3.920   2.524
  477TIP3    H1 1395   5.396   3.869   2.443
  477TIP3    H2 1396   5.483   3.929   2.551
  478TIP3   OH2 1397   0.762   6.724   2.392
  478TIP3    H1 1398   0.712   6.792   2.437
  478TIP3    H2 1399   0.819   6.772   2.332
  479TIP3   OH2 1400   1.272   6.452   3.508
  479TIP3    H1 1401   1.340   6.395   3.543
  479TIP3    H2 1402   1.234   6.493   3.585
  480TIP3   OH2 1403   2.162   1.152   2.031
  480TIP3    H1 1404   2.199   1.239   2.014
  480TIP3    H2 1405   2.069   1.162   2.012
  481TIP3   OH2 1406   2.978   0.797   1.850
  481TIP3    H1 1407   3.003   0.883   1.885
  481TIP3    H2 1408   3.058   0.763   1.812
  482TIP3   OH2 1409   0.526   3.421   2.662
  482TIP3    H1 1410   0.600   3.363   2.682
  482TIP3    H2 1411   0.516   3.473   2.742
  483TIP3   OH2 1412   5.338   6.424   4.179
  483TIP3    H1 1413   5.390   6.489   4.225
  483TIP3    H2 1414   5.320   6.463   4.093
  484TIP3   OH2 1415   6.710   2.758   1.841
  484TIP3    H1 1416   6.788   2.772   1.895
  484TIP3    H2 1417   6.664   2.842   1.844
  485TIP3   OH2 1418  -0.010   0.456   0.509
  485TIP3    H1 1419  -0.020   0.540   0.555
  485TIP3    H2 1420   0.078   0.460   0.471
  486TIP3   OH2 1421   6.389   3.187   0.968
  486TIP3    H1 1422   6.387   3.199   0.873
  486TIP3    H2 1423   6.300   3.158   0.990
  487TIP3   OH2 1424   0.621   6.122   0.596
  487TIP3    H1 1425   0.712   6.131   0.625
  487TIP3    H2 1426   0.571   6.174   0.659
  488TIP3   OH2 1427   3.462   3.012   3.742
  488TIP3    H1 1428   3.374   3.046   3.727
  488TIP3    H2 1429   3.517   3.061   3.682
  489TIP3   OH2 1430   6.410   1.966   5.810
  489TIP3    H1 1431   6.384   1.987   5.720
  489TIP3    H2 1432   6.327   1.955   5.856
  490TIP3   OH2 1433   3.999   6.831   0.184
  490TIP3    H1 1434   4.093   6.820   0.201
  490TIP3    H2 1435   3.981   6.769   0.113
  491TIP3   OH2 1436   0.967   0.720   2.885
  491TIP3    H1 1437   1.009   0.777   2.951
  491TIP3    H2 1438   0.992   0.631   2.911
  492TIP3   OH2 1439   2.661   4.759   1.935
  492TIP3    H1 1440   2.677   4.854   1.935
  492TIP3    H2 1441   2.727   4.724   1.875
  493TIP3   OH2 1442   2.228   2.080   5.495
  493TIP3    H1 1443   2.249   1.990   5.469
  493TIP3    H2 1444   2.289   2.135   5.446
  494TIP3   OH2 1445   3.312   2.028   1.675
  494TIP3    H1 1446   3.356   2.114   1.674
  494TIP3    H2 1447   3.278   2.018   1.586
  495TIP3   OH2 1448   1.557   1.324   2.708
  495TIP3    H1 1449   1.518   1.327   2.620
  495TIP3    H2 1450   1.590   1.412   2.722
  496TIP3   OH2 1451   6.017   4.513   3.168
  496TIP3    H1 1452   6.024   4.574   3.241
  496TIP3    H2 1453   5.923   4.506   3.151
  497TIP3   OH2 1454   5.701   4.572   3.880
  497TIP3    H1 1455   5.772   4.512   3.859
  497TIP3    H2 1456   5.635   4.557   3.812
  498TIP3   OH2 1457   7.110   0.187   3.104
  498TIP3    H1 1458   7.168   0.126   3.149
  498TIP3    H2 1459   7.026   0.141   3.098
  499TIP3   OH2 1460   1.697   6.341   5.676
  499TIP3    H1 1461   1.744   6.418   5.646
  499TIP3    H2 1462   1.757   6.298   5.737
  500TIP3   OH2 1463   1.982   2.176   5.054
  500TIP3    H1 1464   1.962   2.235   4.981
  500TIP3    H2 1465   1.898   2.162   5.097
  501TIP3   OH2 1466   3.265   1.829   5.760
  501TIP3    H1 1467   3.303   1.917   5.756
  501TIP3    H2 1468   3.204   1.833   5.833
  502TIP3   OH2 1469   1.304   6.308   4.249
  502TIP3    H1 1470   1.252   6.331   4.325
  502TIP3    H2 1471   1.395   6.311   4.279
  503TIP3   OH2 1472   2.505   2.944   2.304
  503TIP3    H1 1473   2.439   3.007   2.332
  503TIP3    H2 1474   2.567   2.994   2.252
  504TIP3   OH2 1475   7.150   0.454   5.868
  504TIP3    H1 1476   7.093   0.513   5.817
  504TIP3    H2 1477   7.156   0.495   5.954
  505TIP3   OH2 1478   6.014   6.743   1.624
  505TIP3    H1 1479   6.090   6.685   1.636
  505TIP3    H2 1480   6.047   6.814   1.569
  506TIP3   OH2 1481   1.575   2.413   3.032
  506TIP3    H1 1482   1.532   2.494   3.060
  506TIP3    H2 1483   1.616   2.436   2.948
  507TIP3   OH2 1484   2.653   0.205   4.163
  507TIP3    H1 1485   2.643   0.157   4.245
  507TIP3    H2 1486   2.625   0.143   4.095
  508TIP3   OH2 1487   0.301   0.221   2.354
  508TIP3    H1 1488   0.353   0.198   2.277
  508TIP3    H2 1489   0.365   0.255   2.417
  509TIP3   OH2 1490   3.005   6.234   1.463
  509TIP3    H1 1491   2.996   6.245   1.558
  509TIP3    H2 1492   3.049   6.149   1.453
  510TIP3   OH2 1493   3.730   4.374   4.495
  510TIP3    H1 1494   3.646   4.377   4.541
  510TIP3    H2 1495   3.783   4.441   4.538
  511TIP3   OH2 1496   4.007   1.984   2.469
  511TIP3    H1 1497   4.102   1.983   2.453
  511TIP3    H2 1498   3.996   2.036   2.548
  512TIP3   OH2 1499   2.801   2.272   0.476
  512TIP3    H1 1500   2.839   2.220   0.546
  512TIP3    H2 1501   2.708   2.278   0.498
  513TIP3   OH2 1502   5.744   0.716   4.167
  513TIP3    H1 1503   5.655   0.684   4.155
  513TIP3    H2 1504   5.738   0.811   4.157
  514TIP3   OH2 1505   6.152   3.399   4.485
  514TIP3    H1 1506   6.176   3.429   4.572
  514TIP3    H2 1507   6.235   3.385   4.440
  515TIP3   OH2 1508   1.029   1.394   2.208
  515TIP3    H1 1509   1.063   1.324   2.152
  515TIP3    H2 1510   0.948   1.422   2.164
  516TIP3   OH2 1511   1.269   6.251   1.628
  516TIP3    H1 1512   1.334   6.309   1.668
  516TIP3    H2 1513   1.188   6.303   1.628
  517TIP3   OH2 1514   5.981   1.138   5.420
  517TIP3    H1 1515   5.956   1.218   5.468
  517TIP3    H2 1516   5.921   1.136   5.345
  518TIP3   OH2 1517   6.998   4.758   1.996
  518TIP3    H1 1518   6.921   4.716   1.957
  518TIP3    H2 1519   6.966   4.839   2.034
  519TIP3   OH2 1520   3.901   1.578   3.928
  519TIP3    H1 1521   3.973   1.641   3.930
  519TIP3    H2 1522   3.827   1.624   3.967
  520TIP3   OH2 1523   6.099   6.252   5.427
  520TIP3    H1 1524   6.122   6.226   5.338
  520TIP3    H2 1525   6.011   6.289   5.419
  521TIP3   OH2 1526   0.725   2.650   3.066
  521TIP3    H1 1527   0.711   2.702   2.986
  521TIP3    H2 1528   0.818   2.662   3.086
  522TIP3   OH2 1529   6.160   1.091   2.334
  522TIP3    H1 1530   6.109   1.114   2.256
  522TIP3    H2 1531   6.119   1.011   2.367
  523TIP3   OH2 1532   0.470   6.578   1.503
  523TIP3    H1 1533   0.389   6.628   1.496
  523TIP3    H2 1534   0.536   6.644   1.525
  524TIP3   OH2 1535   4.509   6.219   0.170
  524TIP3    H1 1536   4.557   6.197   0.250
  524TIP3    H2 1537   4.517   6.141   0.115
  525TIP3   OH2 1538   0.209   1.876   5.460
  525TIP3    H1 1539   0.215   1.970   5.444
  525TIP3    H2 1540   0.142   1.846   5.397
  526TIP3   OH2 1541   3.701   1.190   4.524
  526TIP3    H1 1542   3.746   1.179   4.440
  526TIP3    H2 1543   3.711   1.283   4.544
  527TIP3   OH2 1544   1.730   3.605   2.098
  527TIP3    H1 1545   1.638   3.629   2.108
  527TIP3    H2 1546   1.763   3.663   2.029
  528TIP3   OH2 1547   4.110   3.680   2.408
  528TIP3    H1 1548   4.151   3.765   2.391
  528TIP3    H2 1549   4.130   3.663   2.500
  529TIP3   OH2 1550   4.926   3.784   4.673
  529TIP3    H1 1551   5.018   3.784   4.649
  529TIP3    H2 1552   4.879   3.767   4.592
  530TIP3   OH2 1553   4.277   5.404   4.462
  530TIP3    H1 1554   4.252   5.442   4.377
  530TIP3    H2 1555   4.250   5.469   4.526
  531TIP3   OH2 1556   2.352   2.507   0.892
  531TIP3    H1 1557   2.403   2.567   0.837
  531TIP3    H2 1558   2.318   2.442   0.831
  532TIP3   OH2 1559   3.928   3.430   5.465
  532TIP3    H1 1560   3.911   3.454   5.374
  532TIP3    H2 1561   4.001   3.486   5.491
  533TIP3   OH2 1562   3.550   0.883   1.001
  533TIP3    H1 1563   3.547   0.961   0.946
  533TIP3    H2 1564   3.522   0.914   1.088
  534TIP3   OH2 1565   4.373   0.334   5.137
  534TIP3    H1 1566   4.354   0.406   5.196
  534TIP3    H2 1567   4.304   0.339   5.070
  535TIP3   OH2 1568   4.328   5.799   2.473
  535TIP3    H1 1569   4.363   5.762   2.554
  535TIP3    H2 1570   4.405   5.812   2.417
  536TIP3   OH2 1571   4.496   5.578   1.430
  536TIP3    H1 1572   4.572   5.632   1.407
  536TIP3    H2 1573   4.479   5.597   1.522
  537TIP3   OH2 1574   6.105   3.830   5.830
  537TIP3    H1 1575   6.115   3.903   5.768
  537TIP3    H2 1576   6.192   3.790   5.834
  538TIP3   OH2 1577   2.790   6.296   2.118
  538TIP3    H1 1578   2.817   6.211   2.083
  538TIP3    H2 1579   2.719   6.324   2.061
  539TIP3   OH2 1580   4.761   1.160   2.321
  539TIP3    H1 1581   4.686   1.217   2.334
  539TIP3    H2 1582   4.834   1.220   2.304
  540TIP3   OH2 1583   3.931   0.818   3.396
  540TIP3    H1 1584   3.845   0.781   3.415
  540TIP3    H2 1585   3.921   0.859   3.310
  541TIP3   OH2 1586   4.161   5.023   5.335
  541TIP3    H1 1587   4.226   4.965   5.295
  541TIP3    H2 1588   4.099   5.042   5.264
  542TIP3   OH2 1589   5.110   5.138   2.139
  542TIP3    H1 1590   5.074   5.050   2.127
  542TIP3    H2 1591   5.136   5.165   2.051
  543TIP3   OH2 1592   0.336   2.382   0.667
  543TIP3    H1 1593   0.257   2.421   0.704
  543TIP3    H2 1594   0.303   2.312   0.610
  544TIP3   OH2 1595   0.838   3.046   5.883
  544TIP3    H1 1596   0.822   3.058   5.976
  544TIP3    H2 1597   0.900   3.115   5.860
  545TIP3   OH2 1598   7.172   5.106   4.967
  545TIP3    H1 1599   7.231   5.085   5.039
  545TIP3    H2 1600   7.108   5.165   5.005
  546TIP3   OH2 1601   5.037   3.876   3.349
  546TIP3    H1 1602   5.007   3.826   3.273
  546TIP3    H2 1603   5.106   3.822   3.387
  547TIP3   OH2 1604   5.393   1.048   5.035
  547TIP3    H1 1605   5.467   0.990   5.019
  547TIP3    H2 1606   5.383   1.049   5.130
  548TIP3   OH2 1607   4.304   5.939   5.772
  548TIP3    H1 1608   4.281   6.022   5.732
  548TIP3    H2 1609   4.400   5.935   5.766
  549TIP3   OH2 1610   6.314   5.259   4.141
  549TIP3    H1 1611   6.290   5.328   4.079
  549TIP3    H2 1612   6.396   5.224   4.107
  550TIP3   OH2 1613   6.845   6.480   3.018
  550TIP3    H1 1614   6.804   6.516   3.096
  550TIP3    H2 1615   6.888   6.399   3.047
  551TIP3   OH2 1616   0.430   2.998   1.919
  551TIP3    H1 1617   0.437   2.991   1.823
  551TIP3    H2 1618   0.393   2.914   1.946
  552TIP3   OH2 1619   6.538   6.450   2.096
  552TIP3    H1 1620   6.509   6.371   2.143
  552TIP3    H2 1621   6.631   6.458   2.118
  553TIP3   OH2 1622   5.915   0.641  -0.003
  553TIP3    H1 1623   5.823   0.663  -0.020
  553TIP3    H2 1624   5.911   0.557   0.043
  554TIP3   OH2 1625   4.867   1.566   5.364
  554TIP3    H1 1626   4.821   1.503   5.309
  554TIP3    H2 1627   4.943   1.593   5.312
  555TIP3   OH2 1628   4.543   4.855   4.474
  555TIP3    H1 1629   4.617   4.794   4.484
  555TIP3    H2 1630   4.530   4.891   4.562
  556TIP3   OH2 1631   1.078   4.662   2.393
  556TIP3    H1 1632   1.169   4.664   2.422
  556TIP3    H2 1633   1.034   4.727   2.448
  557TIP3   OH2 1634   1.408   5.105   5.013
  557TIP3    H1 1635   1.369   5.124   4.928
  557TIP3    H2 1636   1.484   5.163   5.019
  558TIP3   OH2 1637   7.107   0.655   3.595
  558TIP3    H1 1638   7.178   0.711   3.627
  558TIP3    H2 1639   7.079   0.606   3.671
  559TIP3   OH2 1640   3.106   6.704   0.319
  559TIP3    H1 1641   3.119   6.773   0.384
  559TIP3    H2 1642   3.011   6.693   0.314
  560TIP3   OH2 1643   3.017   4.751   2.081
  560TIP3    H1 1644   2.968   4.677   2.046
  560TIP3    H2 1645   3.096   4.713   2.118
  561TIP3   OH2 1646   2.723   5.673   3.659
  561TIP3    H1 1647   2.671   5.663   3.739
  561TIP3    H2 1648   2.813   5.685   3.690
  562TIP3   OH2 1649   4.654   3.077   2.256
  562TIP3    H1 1650   4.593   3.005   2.271
  562TIP3    H2 1651   4.731   3.037   2.216
  563TIP3   OH2 1652   0.514   4.910   1.987
  563TIP3    H1 1653   0.487   5.000   1.967
  563TIP3    H2 1654   0.550   4.916   2.076
  564TIP3   OH2 1655   1.704   6.221   0.189
  564TIP3    H1 1656   1.730   6.217   0.097
  564TIP3    H2 1657   1.684   6.313   0.204
  565TIP3   OH2 1658   3.392   5.277   2.232
  565TIP3    H1 1659   3.395   5.305   2.141
  565TIP3    H2 1660   3.428   5.188   2.231
  566TIP3   OH2 1661   5.399   0.255   1.270
  566TIP3    H1 1662   5.328   0.213   1.320
  566TIP3    H2 1663   5.387   0.349   1.287
  567TIP3   OH2 1664   3.267   0.635   0.168
  567TIP3    H1 1665   3.235   0.554   0.206
  567TIP3    H2 1666   3.292   0.612   0.079
  568TIP3   OH2 1667   3.002   2.276   2.033
  568TIP3    H1 1668   2.985   2.316   1.947
  568TIP3    H2 1669   3.090   2.240   2.025
  569TIP3   OH2 1670   6.266   5.890   2.815
  569TIP3    H1 1671   6.353   5.901   2.853
  569TIP3    H2 1672   6.206   5.915   2.885
  570TIP3   OH2 1673   0.509   0.852   3.671
  570TIP3    H1 1674   0.575   0.910   3.634
  570TIP3    H2 1675   0.426   0.887   3.638
  571TIP3   OH2 1676   1.958   1.469   0.801
  571TIP3    H1 1677   2.007   1.529   0.858
  571TIP3    H2 1678   1.961   1.510   0.715
  572TIP3   OH2 1679   3.479   5.778   3.776
  572TIP3    H1 1680   3.574   5.771   3.782
  572TIP3    H2 1681   3.460   5.870   3.796
  573TIP3   OH2 1682   2.720   5.333   0.108
  573TIP3    H1 1683   2.625   5.344   0.102
  573TIP3    H2 1684   2.735   5.239   0.101
  574TIP3   OH2 1685   6.502   6.338   0.597
  574TIP3    H1 1686   6.479   6.267   0.657
  574TIP3    H2 1687   6.579   6.378   0.637
  575TIP3   OH2 1688   4.862   3.981   0.386
  575TIP3    H1 1689   4.845   3.931   0.306
  575TIP3    H2 1690   4.783   4.035   0.397
  576TIP3   OH2 1691   1.313   0.509   0.907
  576TIP3    H1 1692   1.335   0.447   0.837
  576TIP3    H2 1693   1.334   0.462   0.988
  577TIP3   OH2 1694   6.047   4.280   3.354
  577TIP3    H1 1695   6.043   4.243   3.266
  577TIP3    H2 1696   6.133   4.320   3.360
  578TIP3   OH2 1697   6.356   5.255   5.150
  578TIP3    H1 1698   6.267   5.253   5.113
  578TIP3    H2 1699   6.344   5.288   5.239
  579TIP3   OH2 1700   3.317   2.757   1.233
  579TIP3    H1 1701   3.304   2.664   1.253
  579TIP3    H2 1702   3.410   2.772   1.252
  580TIP3   OH2 1703   2.232   4.373   1.925
  580TIP3    H1 1704   2.173   4.374   2.000
  580TIP3    H2 1705   2.285   4.453   1.935
  581TIP3   OH2 1706   5.019   4.932   1.828
  581TIP3    H1 1707   5.092   4.933   1.890
  581TIP3    H2 1708   4.993   4.840   1.823
  582TIP3   OH2 1709   4.201   5.868   4.958
  582TIP3    H1 1710   4.172   5.824   5.038
  582TIP3    H2 1711   4.297   5.863   4.961
  583TIP3   OH2 1712   4.901   2.548   0.692
  583TIP3    H1 1713   4.843   2.599   0.748
  583TIP3    H2 1714   4.895   2.591   0.606
  584TIP3   OH2 1715   2.758   1.093   2.172
  584TIP3    H1 1716   2.744   1.008   2.213
  584TIP3    H2 1717   2.674   1.115   2.131
  585TIP3   OH2 1718   2.578   5.037   0.066
  585TIP3    H1 1719   2.576   5.093  -0.012
  585TIP3    H2 1720   2.629   4.961   0.040
  586TIP3   OH2 1721   2.878   0.197   0.995
  586TIP3    H1 1722   2.939   0.127   0.969
  586TIP3    H2 1723   2.813   0.198   0.925
  587TIP3   OH2 1724   3.845   0.028   2.773
  587TIP3    H1 1725   3.886  -0.058   2.760
  587TIP3    H2 1726   3.763   0.008   2.819
  588TIP3   OH2 1727   6.806   4.639   0.366
  588TIP3    H1 1728   6.748   4.572   0.403
  588TIP3    H2 1729   6.747   4.699   0.321
  589TIP3   OH2 1730   4.488   2.853   2.662
  589TIP3    H1 1731   4.470   2.821   2.750
  589TIP3    H2 1732   4.470   2.947   2.666
  590TIP3   OH2 1733   5.537   6.136   0.829
  590TIP3    H1 1734   5.488   6.172   0.755
  590TIP3    H2 1735   5.619   6.186   0.831
  591TIP3   OH2 1736   4.717   2.751   2.130
  591TIP3    H1 1737   4.757   2.664   2.134
  591TIP3    H2 1738   4.786   2.810   2.161
  592TIP3   OH2 1739   0.197   5.256   4.143
  592TIP3    H1 1740   0.250   5.333   4.121
  592TIP3    H2 1741   0.219   5.237   4.234
  593TIP3   OH2 1742   3.793   1.518   2.827
  593TIP3    H1 1743   3.792   1.590   2.764
  593TIP3    H2 1744   3.754   1.444   2.780
  594TIP3   OH2 1745   7.033   2.012   1.825
  594TIP3    H1 1746   7.057   1.925   1.857
  594TIP3    H2 1747   6.937   2.014   1.830
  595TIP3   OH2 1748   4.404   4.919   5.698
  595TIP3    H1 1749   4.423   4.942   5.607
  595TIP3    H2 1750   4.405   5.003   5.744
  596TIP3   OH2 1751   2.324   1.394   4.147
  596TIP3    H1 1752   2.231   1.371   4.146
  596TIP3    H2 1753   2.342   1.426   4.059
  597TIP3   OH2 1754   3.945   0.503   1.682
  597TIP3    H1 1755   3.904   0.419   1.662
  597TIP3    H2 1756   3.902   0.566   1.624
  598TIP3   OH2 1757   7.048   4.274   3.440
  598TIP3    H1 1758   7.022   4.191   3.478
  598TIP3    H2 1759   7.131   4.254   3.395
  599TIP3   OH2 1760   6.302   2.979   4.446
  599TIP3    H1 1761   6.245   2.991   4.522
  599TIP3    H2 1762   6.243   2.986   4.371
  600TIP3   OH2 1763   2.411   5.484   3.463
  600TIP3    H1 1764   2.464   5.558   3.433
  600TIP3    H2 1765   2.332   5.487   3.410
  601TIP3   OH2 1766   0.741   1.215   0.883
  601TIP3    H1 1767   0.703   1.148   0.940
  601TIP3    H2 1768   0.666   1.266   0.852
  602TIP3   OH2 1769   3.310   0.129   2.982
  602TIP3    H1 1770   3.260   0.209   3.000
  602TIP3    H2 1771   3.371   0.122   3.054
  603TIP3   OH2 1772   5.906   3.752   3.759
  603TIP3    H1 1773   5.994   3.767   3.793
  603TIP3    H2 1774   5.908   3.790   3.671
  604TIP3   OH2 1775   6.432   1.977   4.041
  604TIP3    H1 1776   6.460   1.994   4.131
  604TIP3    H2 1777   6.481   1.899   4.014
  605TIP3   OH2 1778   5.142   3.686   5.647
  605TIP3    H1 1779   5.130   3.598   5.682
  605TIP3    H2 1780   5.190   3.673   5.565
  606TIP3   OH2 1781   2.273   4.980   0.349
  606TIP3    H1 1782   2.291   4.984   0.443
  606TIP3    H2 1783   2.346   5.028   0.309
  607TIP3   OH2 1784   6.911   6.197   4.441
  607TIP3    H1 1785   6.892   6.123   4.383
  607TIP3    H2 1786   6.964   6.256   4.388
  608TIP3   OH2 1787   2.900   4.290   3.192
  608TIP3    H1 1788   2.951   4.213   3.219
  608TIP3    H2 1789   2.949   4.327   3.119
  609TIP3   OH2 1790   3.723   5.271   5.498
  609TIP3    H1 1791   3.666   5.337   5.536
  609TIP3    H2 1792   3.719   5.197   5.559
  610TIP3   OH2 1793   4.557   2.288   2.549
  610TIP3    H1 1794   4.573   2.207   2.598
  610TIP3    H2 1795   4.470   2.278   2.511
  611TIP3   OH2 1796   7.204   4.331   3.151
  611TIP3    H1 1797   7.129   4.347   3.095
  611TIP3    H2 1798   7.280   4.337   3.093
  612TIP3   OH2 1799   1.774   1.686   4.914
  612TIP3    H1 1800   1.702   1.737   4.876
  612TIP3    H2 1801   1.795   1.730   4.996
  613TIP3   OH2 1802   2.991   2.254   3.160
  613TIP3    H1 1803   2.896   2.245   3.164
  613TIP3    H2 1804   3.021   2.170   3.124
  614TIP3   OH2 1805   2.126   4.893   1.059
  614TIP3    H1 1806   2.116   4.947   1.137
  614TIP3    H2 1807   2.057   4.924   1.000
  615TIP3   OH2 1808   6.006   4.299   0.878
  615TIP3    H1 1809   6.076   4.341   0.828
  615TIP3    H2 1810   5.983   4.363   0.945
  616TIP3   OH2 1811   1.992   4.897   5.689
  616TIP3    H1 1812   1.977   4.991   5.691
  616TIP3    H2 1813   1.978   4.873   5.597
  617TIP3   OH2 1814   0.094   3.114   5.601
  617TIP3    H1 1815  -0.001   3.125   5.598
  617TIP3    H2 1816   0.112   3.042   5.541
  618TIP3   OH2 1817   1.320   0.176   4.573
  618TIP3    H1 1818   1.234   0.195   4.536
  618TIP3    H2 1819   1.322   0.225   4.656
  619TIP3   OH2 1820   2.006   2.353   2.451
  619TIP3    H1 1821   2.077   2.385   2.507
  619TIP3    H2 1822   1.994   2.421   2.385
  620TIP3   OH2 1823   1.927   2.580   3.745
  620TIP3    H1 1824   1.893   2.649   3.801
  620TIP3    H2 1825   2.002   2.545   3.793
  621TIP3   OH2 1826   3.402   3.348   0.121
  621TIP3    H1 1827   3.493   3.322   0.104
  621TIP3    H2 1828   3.385   3.418   0.057
  622TIP3   OH2 1829   4.635   3.952   2.279
  622TIP3    H1 1830   4.717   4.000   2.281
  622TIP3    H2 1831   4.568   4.019   2.267
  623TIP3   OH2 1832   5.972   2.153   2.565
  623TIP3    H1 1833   5.910   2.137   2.636
  623TIP3    H2 1834   5.969   2.073   2.512
  624TIP3   OH2 1835   4.825   3.720   2.812
  624TIP3    H1 1836   4.753   3.663   2.838
  624TIP3    H2 1837   4.863   3.677   2.735
  625TIP3   OH2 1838   4.365   3.810   0.241
  625TIP3    H1 1839   4.336   3.767   0.321
  625TIP3    H2 1840   4.283   3.831   0.195
  626TIP3   OH2 1841   4.243   6.678   5.717
  626TIP3    H1 1842   4.256   6.773   5.714
  626TIP3    H2 1843   4.296   6.644   5.645
  627TIP3   OH2 1844   3.176   2.651   4.489
  627TIP3    H1 1845   3.094   2.612   4.460
  627TIP3    H2 1846   3.182   2.733   4.439
  628TIP3   OH2 1847   5.639   3.693   0.299
  628TIP3    H1 1848   5.677   3.751   0.365
  628TIP3    H2 1849   5.701   3.621   0.291
  629TIP3   OH2 1850   2.844   0.586   3.978
  629TIP3    H1 1851   2.904   0.551   4.044
  629TIP3    H2 1852   2.789   0.648   4.026
  630TIP3   OH2 1853   0.862   3.057   3.752
  630TIP3    H1 1854   0.838   3.037   3.662
  630TIP3    H2 1855   0.947   3.014   3.765
  631TIP3   OH2 1856   4.471   5.254   2.846
  631TIP3    H1 1857   4.507   5.226   2.929
  631TIP3    H2 1858   4.385   5.213   2.841
  632TIP3   OH2 1859   3.265   3.987   1.146
  632TIP3    H1 1860   3.331   3.943   1.091
  632TIP3    H2 1861   3.313   4.013   1.225
  633TIP3   OH2 1862   6.226   5.085   5.420
  633TIP3    H1 1863   6.306   5.137   5.415
  633TIP3    H2 1864   6.256   4.996   5.439
  634TIP3   OH2 1865   2.879   2.774   4.701
  634TIP3    H1 1866   2.957   2.806   4.747
  634TIP3    H2 1867   2.893   2.799   4.610
  635TIP3   OH2 1868   3.315   4.235   3.691
  635TIP3    H1 1869   3.378   4.210   3.624
  635TIP3    H2 1870   3.237   4.261   3.642
  636TIP3   OH2 1871   4.469   2.644   4.816
  636TIP3    H1 1872   4.483   2.567   4.871
  636TIP3    H2 1873   4.425   2.707   4.874
  637TIP3   OH2 1874   1.466   0.563   5.756
  637TIP3    H1 1875   1.547   0.608   5.780
  637TIP3    H2 1876   1.417   0.628   5.705
  638TIP3   OH2 1877   2.087   2.476   3.980
  638TIP3    H1 1878   2.068   2.409   4.045
  638TIP3    H2 1879   2.079   2.559   4.028
  639TIP3   OH2 1880   5.347   2.589   5.463
  639TIP3    H1 1881   5.414   2.596   5.396
  639TIP3    H2 1882   5.277   2.537   5.423
  640TIP3   OH2 1883   6.672   0.225   3.670
  640TIP3    H1 1884   6.730   0.194   3.600
  640TIP3    H2 1885   6.667   0.319   3.658
  641TIP3   OH2 1886   0.513   3.459   1.560
  641TIP3    H1 1887   0.547   3.494   1.642
  641TIP3    H2 1888   0.590   3.444   1.506
  642TIP3   OH2 1889   6.066   2.356   1.379
  642TIP3    H1 1890   6.004   2.427   1.359
  642TIP3    H2 1891   6.067   2.302   1.300
  643TIP3   OH2 1892   0.808   2.055   0.846
  643TIP3    H1 1893   0.761   2.137   0.834
  643TIP3    H2 1894   0.805   2.038   0.940
  644TIP3   OH2 1895   0.446   5.591   3.422
  644TIP3    H1 1896   0.435   5.518   3.483
  644TIP3    H2 1897   0.458   5.550   3.337
  645TIP3   OH2 1898   6.390   6.420   2.539
  645TIP3    H1 1899   6.379   6.514   2.525
  645TIP3    H2 1900   6.310   6.381   2.504
  646TIP3   OH2 1901   6.285   4.398   1.078
  646TIP3    H1 1902   6.190   4.406   1.078
  646TIP3    H2 1903   6.316   4.473   1.130
  647TIP3   OH2 1904   4.490   5.167   0.294
  647TIP3    H1 1905   4.499   5.235   0.361
  647TIP3    H2 1906   4.518   5.087   0.337
  648TIP3   OH2 1907   4.388   0.753   0.645
  648TIP3    H1 1908   4.476   0.790   0.651
  648TIP3    H2 1909   4.354   0.785   0.562
  649TIP3   OH2 1910   1.883   4.474   5.448
  649TIP3    H1 1911   1.962   4.420   5.435
  649TIP3    H2 1912   1.838   4.433   5.521
  650TIP3   OH2 1913   3.391   3.458   0.556
  650TIP3    H1 1914   3.420   3.548   0.567
  650TIP3    H2 1915   3.296   3.461   0.571
  651TIP3   OH2 1916   3.290   1.273   3.039
  651TIP3    H1 1917   3.383   1.292   3.028
  651TIP3    H2 1918   3.260   1.248   2.951
  652TIP3   OH2 1919   4.287   2.632   1.957
  652TIP3    H1 1920   4.247   2.719   1.955
  652TIP3    H2 1921   4.364   2.639   1.902
  653TIP3   OH2 1922   0.239   5.946   5.467
  653TIP3    H1 1923   0.154   5.969   5.428
  653TIP3    H2 1924   0.274   6.029   5.498
  654TIP3   OH2 1925   0.118   4.135   2.869
  654TIP3    H1 1926   0.191   4.196   2.875
  654TIP3    H2 1927   0.126   4.080   2.947
  655TIP3   OH2 1928   2.926   3.582   0.984
  655TIP3    H1 1929   2.976   3.655   1.021
  655TIP3    H2 1930   2.992   3.527   0.942
  656TIP3   OH2 1931   5.096   6.430   1.965
  656TIP3    H1 1932   5.024   6.480   2.004
  656TIP3    H2 1933   5.121   6.368   2.033
  657TIP3   OH2 1934   5.566   5.922   5.722
  657TIP3    H1 1935   5.589   5.831   5.704
  657TIP3    H2 1936   5.516   5.950   5.646
  658TIP3   OH2 1937   5.612   0.765   5.665
  658TIP3    H1 1938   5.668   0.838   5.636
  658TIP3    H2 1939   5.539   0.808   5.710
  659TIP3   OH2 1940   5.295   6.190   2.408
  659TIP3    H1 1941   5.388   6.173   2.426
  659TIP3    H2 1942   5.269   6.253   2.475
  660TIP3   OH2 1943   2.098   2.846   4.635
  660TIP3    H1 1944   2.003   2.843   4.644
  660TIP3    H2 1945   2.129   2.765   4.677
  661TIP3   OH2 1946   6.687   4.171   0.060
  661TIP3    H1 1947   6.728   4.252   0.092
  661TIP3    H2 1948   6.660   4.125   0.139
  662TIP3   OH2 1949   4.559   3.187   1.311
  662TIP3    H1 1950   4.583   3.094   1.320
  662TIP3    H2 1951   4.489   3.200   1.375
  663TIP3   OH2 1952   0.976   5.941   1.662
  663TIP3    H1 1953   0.915   5.922   1.734
  663TIP3    H2 1954   0.948   6.026   1.628
  664TIP3   OH2 1955   2.549   4.165   0.306
  664TIP3    H1 1956   2.491   4.105   0.260
  664TIP3    H2 1957   2.505   4.250   0.299
  665TIP3   OH2 1958   3.849   1.397   3.286
  665TIP3    H1 1959   3.933   1.436   3.264
  665TIP3    H2 1960   3.794   1.412   3.209
  666TIP3   OH2 1961   6.156   3.427   1.407
  666TIP3    H1 1962   6.221   3.360   1.388
  666TIP3    H2 1963   6.190   3.506   1.366
  667TIP3   OH2 1964   4.421   6.563   4.353
  667TIP3    H1 1965   4.341   6.564   4.406
  667TIP3    H2 1966   4.402   6.501   4.283
  668TIP3   OH2 1967   2.804   6.579   1.558
  668TIP3    H1 1968   2.709   6.589   1.569
  668TIP3    H2 1969   2.841   6.657   1.599
  669TIP3   OH2 1970   4.193   4.817   1.495
  669TIP3    H1 1971   4.284   4.809   1.523
  669TIP3    H2 1972   4.160   4.727   1.493
  670TIP3   OH2 1973   4.833   4.452   1.254
  670TIP3    H1 1974   4.779   4.394   1.202
  670TIP3    H2 1975   4.811   4.540   1.223
  671TIP3   OH2 1976   5.141   2.445   3.065
  671TIP3    H1 1977   5.057   2.482   3.039
  671TIP3    H2 1978   5.206   2.498   3.018
  672TIP3   OH2 1979   4.509   3.037   3.270
  672TIP3    H1 1980   4.477   2.963   3.219
  672TIP3    H2 1981   4.562   2.996   3.340
  673TIP3   OH2 1982   0.699   3.237   1.745
  673TIP3    H1 1983   0.604   3.229   1.746
  673TIP3    H2 1984   0.724   3.223   1.654
  674TIP3   OH2 1985   5.403   4.090   3.674
  674TIP3    H1 1986   5.413   3.995   3.666
  674TIP3    H2 1987   5.369   4.118   3.588
  675TIP3   OH2 1988   5.287   5.193   0.745
  675TIP3    H1 1989   5.206   5.196   0.693
  675TIP3    H2 1990   5.285   5.107   0.787
  676TIP3   OH2 1991   5.205   0.052   2.483
  676TIP3    H1 1992   5.145   0.022   2.551
  676TIP3    H2 1993   5.170   0.137   2.455
  677TIP3   OH2 1994   0.133   5.805   2.461
  677TIP3    H1 1995   0.098   5.894   2.453
  677TIP3    H2 1996   0.111   5.778   2.551
  678TIP3   OH2 1997   2.957   3.881   5.755
  678TIP3    H1 1998   2.906   3.833   5.690
  678TIP3    H2 1999   2.933   3.973   5.742
  679TIP3   OH2 2000   0.704   4.870   4.749
  679TIP3    H1 2001   0.676   4.829   4.831
  679TIP3    H2 2002   0.634   4.931   4.727
  680TIP3   OH2 2003   6.430   3.868   2.883
  680TIP3    H1 2004   6.367   3.903   2.946
  680TIP3    H2 2005   6.514   3.870   2.930
  681TIP3   OH2 2006   4.711   2.028   1.027
  681TIP3    H1 2007   4.618   2.032   1.049
  681TIP3    H2 2008   4.718   2.073   0.942
  682TIP3   OH2 2009   4.383   3.120   2.983
  682TIP3    H1 2010   4.291   3.103   2.962
  682TIP3    H2 2011   4.400   3.064   3.059
  683TIP3   OH2 2012   0.193   4.495   2.082
  683TIP3    H1 2013   0.262   4.430   2.071
  683TIP3    H2 2014   0.236   4.579   2.065
  684TIP3   OH2 2015   0.282   3.248   0.168
  684TIP3    H1 2016   0.234   3.329   0.185
  684TIP3    H2 2017   0.369   3.264   0.205
  685TIP3   OH2 2018   5.507   5.905   3.855
  685TIP3    H1 2019   5.445   5.931   3.923
  685TIP3    H2 2020   5.491   5.967   3.783
  686TIP3   OH2 2021   0.457   0.264   0.588
  686TIP3    H1 2022   0.476   0.322   0.514
  686TIP3    H2 2023   0.438   0.180   0.548
  687TIP3   OH2 2024   5.202   3.396   4.507
  687TIP3    H1 2025   5.139   3.324   4.501
  687TIP3    H2 2026   5.269   3.375   4.442
  688TIP3   OH2 2027   4.499   6.165   2.319
  688TIP3    H1 2028   4.569   6.206   2.369
  688TIP3    H2 2029   4.420   6.215   2.341
  689TIP3   OH2 2030   2.442   5.640   0.263
  689TIP3    H1 2031   2.457   5.659   0.356
  689TIP3    H2 2032   2.486   5.712   0.217
  690TIP3   OH2 2033   4.526   1.648   3.357
  690TIP3    H1 2034   4.541   1.570   3.305
  690TIP3    H2 2035   4.614   1.681   3.378
  691TIP3   OH2 2036   2.681   3.867   2.415
  691TIP3    H1 2037   2.695   3.773   2.421
  691TIP3    H2 2038   2.756   3.905   2.462
  692TIP3   OH2 2039   6.921   5.679   3.548
  692TIP3    H1 2040   6.931   5.621   3.624
  692TIP3    H2 2041   6.888   5.621   3.479
  693TIP3   OH2 2042   6.154   5.322   3.642
  693TIP3    H1 2043   6.179   5.283   3.558
  693TIP3    H2 2044   6.184   5.413   3.637
  694TIP3   OH2 2045   1.159   1.269   4.255
  694TIP3    H1 2046   1.100   1.282   4.181
  694TIP3    H2 2047   1.149   1.176   4.277
  695TIP3   OH2 2048   6.747   1.015   5.515
  695TIP3    H1 2049   6.743   0.927   5.552
  695TIP3    H2 2050   6.837   1.044   5.530
  696TIP3   OH2 2051   4.005   3.445   0.383
  696TIP3    H1 2052   3.933   3.486   0.431
  696TIP3    H2 2053   3.973   3.439   0.293
  697TIP3   OH2 2054   2.166   1.234   1.543
  697TIP3    H1 2055   2.224   1.177   1.492
  697TIP3    H2 2056   2.198   1.322   1.528
  698TIP3   OH2 2057   6.195   0.257   0.306
  698TIP3    H1 2058   6.145   0.308   0.370
  698TIP3    H2 2059   6.286   0.266   0.334
  699TIP3   OH2 2060   6.506   5.855   3.572
  699TIP3    H1 2061   6.430   5.840   3.517
  699TIP3    H2 2062   6.491   5.941   3.612
  700TIP3   OH2 2063   6.744   3.097   2.964
  700TIP3    H1 2064   6.835   3.068   2.971
  700TIP3    H2 2065   6.735   3.166   3.030
  701TIP3   OH2 2066   3.180   3.557   2.828
  701TIP3    H1 2067   3.226   3.611   2.892
  701TIP3    H2 2068   3.193   3.467   2.858
  702TIP3   OH2 2069   7.126   3.513   4.560
  702TIP3    H1 2070   7.097   3.596   4.598
  702TIP3    H2 2071   7.102   3.447   4.625
  703TIP3   OH2 2072   3.062   1.855   1.282
  703TIP3    H1 2073   3.034   1.854   1.191
  703TIP3    H2 2074   3.141   1.801   1.284
  704TIP3   OH2 2075   2.598   5.954   0.145
  704TIP3    H1 2076   2.690   5.973   0.129
  704TIP3    H2 2077   2.551   6.021   0.096
  705TIP3   OH2 2078   4.993   1.760   3.321
  705TIP3    H1 2079   5.063   1.717   3.370
  705TIP3    H2 2080   5.034   1.838   3.284
  706TIP3   OH2 2081   1.175   6.564   1.042
  706TIP3    H1 2082   1.234   6.632   1.075
  706TIP3    H2 2083   1.162   6.505   1.117
  707TIP3   OH2 2084   3.137   4.214   1.079
  707TIP3    H1 2085   3.178   4.256   1.155
  707TIP3    H2 2086   3.167   4.124   1.083
  708TIP3   OH2 2087   0.400   4.375   0.841
  708TIP3    H1 2088   0.312   4.338   0.845
  708TIP3    H2 2089   0.395   4.454   0.894
  709TIP3   OH2 2090   5.846   2.720   3.711
  709TIP3    H1 2091   5.793   2.690   3.637
  709TIP3    H2 2092   5.894   2.795   3.677
  710TIP3   OH2 2093   1.717   4.123   1.102
  710TIP3    H1 2094   1.754   4.059   1.163
  710TIP3    H2 2095   1.791   4.149   1.047
  711TIP3   OH2 2096   4.200   5.421   1.471
  711TIP3    H1 2097   4.133   5.380   1.415
  711TIP3    H2 2098   4.187   5.515   1.460
  712TIP3   OH2 2099   3.876   4.704   5.813
  712TIP3    H1 2100   3.899   4.775   5.873
  712TIP3    H2 2101   3.909   4.733   5.728
  713TIP3   OH2 2102   1.379   6.146   5.357
  713TIP3    H1 2103   1.356   6.199   5.281
  713TIP3    H2 2104   1.341   6.060   5.338
  714TIP3   OH2 2105   4.510   0.883   1.288
  714TIP3    H1 2106   4.588   0.827   1.291
  714TIP3    H2 2107   4.487   0.887   1.195
  715TIP3   OH2 2108   2.362   2.543   3.423
  715TIP3    H1 2109   2.283   2.497   3.396
  715TIP3    H2 2110   2.337   2.636   3.421
  716TIP3   OH2 2111   2.951   2.156   2.769
  716TIP3    H1 2112   2.878   2.213   2.745
  716TIP3    H2 2113   2.974   2.111   2.688
  717TIP3   OH2 2114   2.133   5.769   1.416
  717TIP3    H1 2115   2.144   5.735   1.327
  717TIP3    H2 2116   2.062   5.832   1.408
  718TIP3   OH2 2117   3.575   6.807   1.995
  718TIP3    H1 2118   3.655   6.786   1.946
  718TIP3    H2 2119   3.508   6.815   1.927
  719TIP3   OH2 2120   6.590   6.613   4.149
  719TIP3    H1 2121   6.607   6.706   4.163
  719TIP3    H2 2122   6.603   6.574   4.236
  720TIP3   OH2 2123   4.088   5.824   1.036
  720TIP3    H1 2124   4.175   5.854   1.065
  720TIP3    H2 2125   4.031   5.900   1.050
  721TIP3   OH2 2126   4.269   0.551   5.274
  721TIP3    H1 2127   4.341   0.613   5.288
  721TIP3    H2 2128   4.200   0.603   5.233
  722TIP3   OH2 2129   4.872   3.520   2.417
  722TIP3    H1 2130   4.801   3.509   2.353
  722TIP3    H2 2131   4.859   3.449   2.479
  723TIP3   OH2 2132   3.050   1.838   1.013
  723TIP3    H1 2133   3.047   1.923   0.969
  723TIP3    H2 2134   3.120   1.790   0.968
  724TIP3   OH2 2135   5.323   4.035   1.655
  724TIP3    H1 2136   5.380   4.008   1.583
  724TIP3    H2 2137   5.304   4.128   1.638
  725TIP3   OH2 2138   2.682   4.860   1.131
  725TIP3    H1 2139   2.673   4.953   1.149
  725TIP3    H2 2140   2.711   4.822   1.214
  726TIP3   OH2 2141   6.865   3.576   4.387
  726TIP3    H1 2142   6.820   3.608   4.465
  726TIP3    H2 2143   6.806   3.511   4.349
  727TIP3   OH2 2144   4.557   0.633   4.113
  727TIP3    H1 2145   4.610   0.669   4.184
  727TIP3    H2 2146   4.466   0.643   4.143
  728TIP3   OH2 2147   1.935   2.555   4.520
  728TIP3    H1 2148   1.940   2.487   4.587
  728TIP3    H2 2149   1.914   2.635   4.568
  729TIP3   OH2 2150   4.155   5.289   5.073
  729TIP3    H1 2151   4.073   5.272   5.120
  729TIP3    H2 2152   4.208   5.338   5.135
  730TIP3   OH2 2153   0.674   5.496   2.700
  730TIP3    H1 2154   0.663   5.565   2.635
  730TIP3    H2 2155   0.634   5.419   2.660
  731TIP3   OH2 2156   2.523   0.901   4.177
  731TIP3    H1 2157   2.436   0.902   4.217
  731TIP3    H2 2158   2.505   0.908   4.083
  732TIP3   OH2 2159   2.835   2.278   1.064
  732TIP3    H1 2160   2.749   2.239   1.052
  732TIP3    H2 2161   2.851   2.325   0.983
  733TIP3   OH2 2162   4.649   6.376   4.477
  733TIP3    H1 2163   4.720   6.364   4.413
  733TIP3    H2 2164   4.591   6.441   4.437
  734TIP3   OH2 2165   4.526   5.519   2.566
  734TIP3    H1 2166   4.610   5.561   2.583
  734TIP3    H2 2167   4.483   5.517   2.651
  735TIP3   OH2 2168   3.974   3.891   5.376
  735TIP3    H1 2169   4.009   3.964   5.324
  735TIP3    H2 2170   3.930   3.835   5.312
  736TIP3   OH2 2171   6.168   2.958   1.713
  736TIP3    H1 2172   6.208   2.872   1.706
  736TIP3    H2 2173   6.149   2.969   1.806
  737TIP3   OH2 2174   2.285   2.761   0.132
  737TIP3    H1 2175   2.222   2.825   0.165
  737TIP3    H2 2176   2.354   2.813   0.091
  738TIP3   OH2 2177   1.899   1.762   1.693
  738TIP3    H1 2178   1.982   1.804   1.712
  738TIP3    H2 2179   1.859   1.816   1.625
  739TIP3   OH2 2180   2.705   2.841   2.465
  739TIP3    H1 2181   2.769   2.839   2.394
  739TIP3    H2 2182   2.625   2.876   2.425
  740TIP3   OH2 2183   1.612   4.803   1.890
  740TIP3    H1 2184   1.704   4.796   1.864
  740TIP3    H2 2185   1.615   4.821   1.984
  741TIP3   OH2 2186   7.100   1.771   2.818
  741TIP3    H1 2187   7.115   1.765   2.724
  741TIP3    H2 2188   7.187   1.788   2.855
  742TIP3   OH2 2189   5.517   4.336   3.485
  742TIP3    H1 2190   5.601   4.290   3.476
  742TIP3    H2 2191   5.469   4.314   3.405
  743TIP3   OH2 2192   2.915   5.295   5.066
  743TIP3    H1 2193   2.891   5.300   5.158
  743TIP3    H2 2194   2.991   5.237   5.064
  744TIP3   OH2 2195   6.330   6.483   0.863
  744TIP3    H1 2196   6.327   6.397   0.820
  744TIP3    H2 2197   6.303   6.545   0.795
  745TIP3   OH2 2198   0.146   1.060   0.374
  745TIP3    H1 2199   0.235   1.025   0.372
  745TIP3    H2 2200   0.148   1.128   0.441
  746TIP3   OH2 2201   5.844   5.964   4.785
  746TIP3    H1 2202   5.839   5.942   4.878
  746TIP3    H2 2203   5.778   6.033   4.774
  747TIP3   OH2 2204   5.231   0.247   3.770
  747TIP3    H1 2205   5.268   0.166   3.806
  747TIP3    H2 2206   5.293   0.274   3.703
  748TIP3   OH2 2207   3.870   6.127   2.035
  748TIP3    H1 2208   3.798   6.069   2.012
  748TIP3    H2 2209   3.854   6.207   1.984
  749TIP3   OH2 2210   6.478   5.907   3.173
  749TIP3    H1 2211   6.481   5.858   3.091
  749TIP3    H2 2212   6.569   5.909   3.203
  750TIP3   OH2 2213   5.234   5.953   2.272
  750TIP3    H1 2214   5.194   5.973   2.187
  750TIP3    H2 2215   5.237   6.037   2.318
  751TIP3   OH2 2216   6.162   0.540   0.904
  751TIP3    H1 2217   6.186   0.521   0.995
  751TIP3    H2 2218   6.066   0.534   0.903
  752TIP3   OH2 2219   4.929   1.850   4.639
  752TIP3    H1 2220   4.988   1.924   4.625
  752TIP3    H2 2221   4.852   1.870   4.585
  753TIP3   OH2 2222   1.552   1.473   3.700
  753TIP3    H1 2223   1.628   1.529   3.687
  753TIP3    H2 2224   1.529   1.443   3.612
  754TIP3   OH2 2225   2.250   4.041   4.938
  754TIP3    H1 2226   2.212   4.103   5.001
  754TIP3    H2 2227   2.307   3.986   4.991
  755TIP3   OH2 2228   0.412   4.108   4.489
  755TIP3    H1 2229   0.507   4.101   4.494
  755TIP3    H2 2230   0.379   4.026   4.526
  756TIP3   OH2 2231   4.229   5.331   3.238
  756TIP3    H1 2232   4.290   5.263   3.266
  756TIP3    H2 2233   4.261   5.411   3.280
  757TIP3   OH2 2234   7.128   5.463   5.674
  757TIP3    H1 2235   7.087   5.389   5.629
  757TIP3    H2 2236   7.055   5.513   5.709
  758TIP3   OH2 2237   6.662   1.784   5.764
  758TIP3    H1 2238   6.630   1.698   5.738
  758TIP3    H2 2239   6.587   1.827   5.804
  759TIP3   OH2 2240   3.707   4.942   1.027
  759TIP3    H1 2241   3.681   4.876   0.963
  759TIP3    H2 2242   3.803   4.937   1.029
  760TIP3   OH2 2243   5.633   0.280   5.192
  760TIP3    H1 2244   5.561   0.290   5.254
  760TIP3    H2 2245   5.634   0.362   5.142
  761TIP3   OH2 2246   1.300   1.718   1.550
  761TIP3    H1 2247   1.305   1.813   1.539
  761TIP3    H2 2248   1.390   1.688   1.542
  762TIP3   OH2 2249   4.151   2.140   0.198
  762TIP3    H1 2250   4.214   2.198   0.243
  762TIP3    H2 2251   4.078   2.133   0.259
  763TIP3   OH2 2252   2.897   5.198   4.065
  763TIP3    H1 2253   2.939   5.260   4.005
  763TIP3    H2 2254   2.950   5.202   4.144
  764TIP3   OH2 2255   6.628   2.732   2.223
  764TIP3    H1 2256   6.561   2.673   2.256
  764TIP3    H2 2257   6.582   2.788   2.160
  765TIP3   OH2 2258   6.612   0.722   0.207
  765TIP3    H1 2259   6.600   0.737   0.300
  765TIP3    H2 2260   6.707   0.708   0.198
  766TIP3   OH2 2261   4.381   3.250   3.436
  766TIP3    H1 2262   4.309   3.205   3.480
  766TIP3    H2 2263   4.396   3.198   3.356
  767TIP3   OH2 2264   3.460   1.786   3.370
  767TIP3    H1 2265   3.513   1.823   3.299
  767TIP3    H2 2266   3.522   1.768   3.440
  768TIP3   OH2 2267   3.901   0.154   0.530
  768TIP3    H1 2268   3.985   0.187   0.561
  768TIP3    H2 2269   3.864   0.226   0.479
  769TIP3   OH2 2270   6.633   2.065   5.678
  769TIP3    H1 2271   6.578   2.073   5.600
  769TIP3    H2 2272   6.575   2.027   5.745
  770TIP3   OH2 2273   7.074   2.261   0.505
  770TIP3    H1 2274   7.133   2.322   0.549
  770TIP3    H2 2275   7.102   2.175   0.535
  771TIP3   OH2 2276   6.452   0.433   4.681
  771TIP3    H1 2277   6.438   0.402   4.771
  771TIP3    H2 2278   6.530   0.386   4.652
  772TIP3   OH2 2279   4.428   5.673   4.174
  772TIP3    H1 2280   4.486   5.626   4.234
  772TIP3    H2 2281   4.398   5.750   4.224
  773TIP3   OH2 2282   5.486   5.368   0.074
  773TIP3    H1 2283   5.408   5.337   0.028
  773TIP3    H2 2284   5.494   5.311   0.150
  774TIP3   OH2 2285   7.038   0.355   0.720
  774TIP3    H1 2286   7.086   0.374   0.640
  774TIP3    H2 2287   6.946   0.355   0.694
  775TIP3   OH2 2288   3.330   6.175   4.672
  775TIP3    H1 2289   3.379   6.109   4.623
  775TIP3    H2 2290   3.249   6.130   4.697
  776TIP3   OH2 2291   3.180   5.767   1.911
  776TIP3    H1 2292   3.212   5.751   1.822
  776TIP3    H2 2293   3.183   5.681   1.954
  777TIP3   OH2 2294   0.597   2.519   4.767
  777TIP3    H1 2295   0.506   2.490   4.770
  777TIP3    H2 2296   0.597   2.591   4.705
  778TIP3   OH2 2297   5.982   5.552   5.595
  778TIP3    H1 2298   6.053   5.612   5.620
  778TIP3    H2 2299   6.021   5.465   5.601
  779TIP3   OH2 2300   0.924   3.924   2.811
  779TIP3    H1 2301   1.000   3.964   2.853
  779TIP3    H2 2302   0.905   3.847   2.865
  780TIP3   OH2 2303   5.891   4.566   0.736
  780TIP3    H1 2304   5.882   4.638   0.673
  780TIP3    H2 2305   5.808   4.564   0.783
  781TIP3   OH2 2306   5.849   5.732   1.294
  781TIP3    H1 2307   5.873   5.793   1.225
  781TIP3    H2 2308   5.782   5.676   1.256
  782TIP3   OH2 2309   3.516   0.492   2.221
  782TIP3    H1 2310   3.518   0.446   2.137
  782TIP3    H2 2311   3.477   0.429   2.282
  783TIP3   OH2 2312   5.735   6.726   1.493
  783TIP3    H1 2313   5.721   6.820   1.504
  783TIP3    H2 2314   5.823   6.719   1.456
  784TIP3   OH2 2315   2.062   3.869   3.017
  784TIP3    H1 2316   1.983   3.919   3.036
  784TIP3    H2 2317   2.132   3.935   3.017
  785TIP3   OH2 2318   0.018   3.003   2.629
  785TIP3    H1 2319  -0.035   2.942   2.680
  785TIP3    H2 2320   0.098   3.014   2.680
  786TIP3   OH2 2321   3.016   4.090   0.772
  786TIP3    H1 2322   3.006   4.157   0.840
  786TIP3    H2 2323   2.927   4.059   0.756
  787TIP3   OH2 2324   4.642   5.575   5.408
  787TIP3    H1 2325   4.661   5.544   5.497
  787TIP3    H2 2326   4.581   5.510   5.373
  788TIP3   OH2 2327   6.241   2.008   0.789
  788TIP3    H1 2328   6.257   2.100   0.767
  788TIP3    H2 2329   6.233   2.007   0.885
  789TIP3   OH2 2330   0.964   0.628   5.786
  789TIP3    H1 2331   0.993   0.719   5.781
  789TIP3    H2 2332   0.912   0.624   5.866
  790TIP3   OH2 2333   5.915   1.640   5.772
  790TIP3    H1 2334   5.827   1.604   5.764
  790TIP3    H2 2335   5.945   1.613   5.859
  791TIP3   OH2 2336   0.934   4.182   4.521
  791TIP3    H1 2337   0.903   4.271   4.505
  791TIP3    H2 2338   0.933   4.173   4.617
  792TIP3   OH2 2339   4.669   2.370   2.314
  792TIP3    H1 2340   4.746   2.426   2.313
  792TIP3    H2 2341   4.657   2.349   2.407
  793TIP3   OH2 2342   0.910   4.901   4.385
  793TIP3    H1 2343   0.993   4.908   4.431
  793TIP3    H2 2344   0.933   4.879   4.295
  794TIP3   OH2 2345   1.920   3.779   5.060
  794TIP3    H1 2346   1.903   3.833   5.137
  794TIP3    H2 2347   1.876   3.825   4.988
  795TIP3   OH2 2348   5.497   5.886   5.277
  795TIP3    H1 2349   5.579   5.838   5.284
  795TIP3    H2 2350   5.430   5.819   5.262
  796TIP3   OH2 2351   0.510   5.427   1.166
  796TIP3    H1 2352   0.543   5.346   1.129
  796TIP3    H2 2353   0.585   5.487   1.164
  797TIP3   OH2 2354   6.023   1.433   2.450
  797TIP3    H1 2355   6.112   1.409   2.427
  797TIP3    H2 2356   6.010   1.518   2.408
  798TIP3   OH2 2357   6.115   2.377   5.405
  798TIP3    H1 2358   6.036   2.431   5.400
  798TIP3    H2 2359   6.131   2.350   5.315
  799TIP3   OH2 2360   1.756   5.069   5.758
  799TIP3    H1 2361   1.663   5.054   5.775
  799TIP3    H2 2362   1.800   5.048   5.840
  800TIP3   OH2 2363   0.859   4.745   5.031
  800TIP3    H1 2364   0.888   4.828   5.069
  800TIP3    H2 2365   0.764   4.750   5.033
  801TIP3   OH2 2366   0.824   5.862   5.317
  801TIP3    H1 2367   0.734   5.859   5.350
  801TIP3    H2 2368   0.878   5.832   5.391
  802TIP3   OH2 2369   4.484   3.133   3.669
  802TIP3    H1 2370   4.488   3.045   3.632
  802TIP3    H2 2371   4.462   3.189   3.595
  803TIP3   OH2 2372   2.942   5.852   5.313
  803TIP3    H1 2373   2.987   5.913   5.371
  803TIP3    H2 2374   2.860   5.832   5.358
  804TIP3   OH2 2375   6.071   2.314   2.201
  804TIP3    H1 2376   5.986   2.331   2.161
  804TIP3    H2 2377   6.077   2.218   2.203
  805TIP3   OH2 2378   4.541   1.583   0.276
  805TIP3    H1 2379   4.560   1.573   0.370
  805TIP3    H2 2380   4.624   1.563   0.233
  806TIP3   OH2 2381   2.911   5.016   2.107
  806TIP3    H1 2382   2.922   4.921   2.095
  806TIP3    H2 2383   2.995   5.046   2.140
  807TIP3   OH2 2384   4.875   4.094   2.295
  807TIP3    H1 2385   4.930   4.035   2.243
  807TIP3    H2 2386   4.923   4.106   2.377
  808TIP3   OH2 2387   3.856   5.505   2.357
  808TIP3    H1 2388   3.937   5.556   2.369
  808TIP3    H2 2389   3.873   5.452   2.279
  809TIP3   OH2 2390   6.677   0.573   3.295
  809TIP3    H1 2391   6.752   0.602   3.347
  809TIP3    H2 2392   6.685   0.621   3.212
  810TIP3   OH2 2393   1.316   3.719   1.141
  810TIP3    H1 2394   1.236   3.750   1.098
  810TIP3    H2 2395   1.386   3.772   1.103
  811TIP3   OH2 2396   1.538   6.473   4.598
  811TIP3    H1 2397   1.487   6.411   4.650
  811TIP3    H2 2398   1.618   6.487   4.649
  812TIP3   OH2 2399   7.064   3.252   4.748
  812TIP3    H1 2400   6.971   3.238   4.728
  812TIP3    H2 2401   7.111   3.204   4.680
  813TIP3   OH2 2402   1.556   1.000   1.233
  813TIP3    H1 2403   1.531   0.971   1.145
  813TIP3    H2 2404   1.491   0.959   1.290
  814TIP3   OH2 2405   2.326   3.255   0.605
  814TIP3    H1 2406   2.389   3.291   0.542
  814TIP3    H2 2407   2.377   3.241   0.684
  815TIP3   OH2 2408   6.602   2.778   5.197
  815TIP3    H1 2409   6.687   2.735   5.186
  815TIP3    H2 2410   6.624   2.871   5.209
  816TIP3   OH2 2411   6.725   2.410   2.901
  816TIP3    H1 2412   6.663   2.362   2.847
  816TIP3    H2 2413   6.721   2.500   2.869
  817TIP3   OH2 2414   4.684   1.689   4.488
  817TIP3    H1 2415   4.617   1.705   4.555
  817TIP3    H2 2416   4.741   1.622   4.527
  818TIP3   OH2 2417   3.620   4.139   5.897
  818TIP3    H1 2418   3.597   4.048   5.875
  818TIP3    H2 2419   3.549   4.191   5.858
  819TIP3   OH2 2420   6.977   5.287   3.974
  819TIP3    H1 2421   7.010   5.219   4.033
  819TIP3    H2 2422   7.056   5.330   3.941
  820TIP3   OH2 2423   4.576   4.024   0.265
  820TIP3    H1 2424   4.517   3.965   0.218
  820TIP3    H2 2425   4.547   4.020   0.356
  821TIP3   OH2 2426   6.170   1.442   4.329
  821TIP3    H1 2427   6.197   1.534   4.330
  821TIP3    H2 2428   6.138   1.427   4.240
  822TIP3   OH2 2429   3.867   1.613   1.691
  822TIP3    H1 2430   3.820   1.539   1.729
  822TIP3    H2 2431   3.876   1.591   1.598
  823TIP3   OH2 2432   3.381   4.794   5.136
  823TIP3    H1 2433   3.327   4.838   5.071
  823TIP3    H2 2434   3.471   4.816   5.111
  824TIP3   OH2 2435   4.219   3.843   2.001
  824TIP3    H1 2436   4.142   3.843   1.944
  824TIP3    H2 2437   4.183   3.856   2.089
  825TIP3   OH2 2438   0.174   6.485   1.140
  825TIP3    H1 2439   0.266   6.460   1.130
  825TIP3    H2 2440   0.128   6.402   1.151
  826TIP3   OH2 2441   4.805   4.895   3.355
  826TIP3    H1 2442   4.851   4.888   3.438
  826TIP3    H2 2443   4.820   4.985   3.327
  827TIP3   OH2 2444   2.664   0.462   2.765
  827TIP3    H1 2445   2.622   0.401   2.825
  827TIP3    H2 2446   2.648   0.548   2.803
  828TIP3   OH2 2447   2.487   5.930   0.779
  828TIP3    H1 2448   2.546   5.996   0.816
  828TIP3    H2 2449   2.399   5.967   0.792
  829TIP3   OH2 2450   5.035   1.138   2.888
  829TIP3    H1 2451   4.944   1.110   2.879
  829TIP3    H2 2452   5.076   1.069   2.941
  830TIP3   OH2 2453   0.088   4.288   5.101
  830TIP3    H1 2454   0.088   4.382   5.117
  830TIP3    H2 2455   0.038   4.277   5.020
  831TIP3   OH2 2456   3.309   3.842   5.067
  831TIP3    H1 2457   3.282   3.825   5.157
  831TIP3    H2 2458   3.373   3.913   5.074
  832TIP3   OH2 2459   4.639   4.219   1.448
  832TIP3    H1 2460   4.724   4.232   1.406
  832TIP3    H2 2461   4.586   4.175   1.382
  833TIP3   OH2 2462   6.009   6.353   1.001
  833TIP3    H1 2463   5.968   6.412   0.938
  833TIP3    H2 2464   6.073   6.406   1.047
  834TIP3   OH2 2465   5.524   3.532   1.833
  834TIP3    H1 2466   5.551   3.624   1.843
  834TIP3    H2 2467   5.495   3.507   1.921
  835TIP3   OH2 2468   6.619   3.681   2.325
  835TIP3    H1 2469   6.677   3.659   2.252
  835TIP3    H2 2470   6.615   3.601   2.378
  836TIP3   OH2 2471   0.797   6.579   2.092
  836TIP3    H1 2472   0.759   6.492   2.094
  836TIP3    H2 2473   0.851   6.584   2.171
  837TIP3   OH2 2474   2.143   2.985   0.218
  837TIP3    H1 2475   2.127   3.009   0.127
  837TIP3    H2 2476   2.084   3.042   0.268
  838TIP3   OH2 2477   1.126   6.733   0.799
  838TIP3    H1 2478   1.220   6.748   0.794
  838TIP3    H2 2479   1.114   6.674   0.874
  839TIP3   OH2 2480   3.582   2.865   1.272
  839TIP3    H1 2481   3.581   2.946   1.221
  839TIP3    H2 2482   3.670   2.862   1.310
  840TIP3   OH2 2483   6.326   5.581   2.153
  840TIP3    H1 2484   6.255   5.535   2.199
  840TIP3    H2 2485   6.392   5.597   2.221
  841TIP3   OH2 2486   3.025   4.660   0.726
  841TIP3    H1 2487   3.077   4.601   0.780
  841TIP3    H2 2488   3.006   4.609   0.647
  842TIP3   OH2 2489   0.386   5.852   1.236
  842TIP3    H1 2490   0.446   5.813   1.173
  842TIP3    H2 2491   0.434   5.850   1.319
  843TIP3   OH2 2492   6.808   0.731   3.662
  843TIP3    H1 2493   6.889   0.778   3.642
  843TIP3    H2 2494   6.739   0.796   3.651
  844TIP3   OH2 2495   3.700   2.303   5.109
  844TIP3    H1 2496   3.608   2.327   5.101
  844TIP3    H2 2497   3.738   2.326   5.024
  845TIP3   OH2 2498   3.559   6.543   3.961
  845TIP3    H1 2499   3.542   6.564   3.870
  845TIP3    H2 2500   3.547   6.626   4.008
  846TIP3   OH2 2501   2.751   0.826   1.679
  846TIP3    H1 2502   2.683   0.761   1.696
  846TIP3    H2 2503   2.827   0.795   1.729
  847TIP3   OH2 2504   6.956   5.162   5.130
  847TIP3    H1 2505   6.921   5.251   5.138
  847TIP3    H2 2506   6.968   5.133   5.221
  848TIP3   OH2 2507   0.053   4.788   1.934
  848TIP3    H1 2508  -0.041   4.794   1.952
  848TIP3    H2 2509   0.082   4.879   1.926
  849TIP3   OH2 2510   1.620   3.997   4.296
  849TIP3    H1 2511   1.627   4.044   4.379
  849TIP3    H2 2512   1.536   3.951   4.300
  850TIP3   OH2 2513   5.624   0.295   1.855
  850TIP3    H1 2514   5.664   0.229   1.798
  850TIP3    H2 2515   5.602   0.367   1.796
  851TIP3   OH2 2516   0.978   4.074   0.608
  851TIP3    H1 2517   0.887   4.046   0.598
  851TIP3    H2 2518   1.030   4.002   0.573
  852TIP3   OH2 2519   7.171   2.055   2.129
  852TIP3    H1 2520   7.163   2.038   2.223
  852TIP3    H2 2521   7.266   2.059   2.114
  853TIP3   OH2 2522   2.906   0.917   5.847
  853TIP3    H1 2523   2.868   1.003   5.825
  853TIP3    H2 2524   2.883   0.905   5.940
  854TIP3   OH2 2525   6.298   5.619   2.903
  854TIP3    H1 2526   6.360   5.674   2.854
  854TIP3    H2 2527   6.220   5.674   2.913
  855TIP3   OH2 2528   1.010   5.666   2.162
  855TIP3    H1 2529   1.040   5.751   2.131
  855TIP3    H2 2530   0.984   5.619   2.083
  856TIP3   OH2 2531   3.352   6.786   0.522
  856TIP3    H1 2532   3.376   6.820   0.608
  856TIP3    H2 2533   3.328   6.695   0.538
  857TIP3   OH2 2534   5.508   4.384   0.567
  857TIP3    H1 2535   5.442   4.316   0.552
  857TIP3    H2 2536   5.475   4.434   0.642
  858TIP3   OH2 2537   3.207   4.453   0.817
  858TIP3    H1 2538   3.258   4.531   0.840
  858TIP3    H2 2539   3.241   4.384   0.874
  859TIP3   OH2 2540   1.230   1.516   4.690
  859TIP3    H1 2541   1.315   1.559   4.695
  859TIP3    H2 2542   1.238   1.452   4.620
  860TIP3   OH2 2543   1.194   4.573   4.315
  860TIP3    H1 2544   1.277   4.617   4.331
  860TIP3    H2 2545   1.218   4.488   4.280
  861TIP3   OH2 2546   1.668   5.355   3.515
  861TIP3    H1 2547   1.666   5.361   3.420
  861TIP3    H2 2548   1.576   5.364   3.542
  862TIP3   OH2 2549   3.352   0.937   2.234
  862TIP3    H1 2550   3.330   0.848   2.206
  862TIP3    H2 2551   3.383   0.927   2.324
  863TIP3   OH2 2552   4.731   5.347   2.789
  863TIP3    H1 2553   4.639   5.321   2.784
  863TIP3    H2 2554   4.729   5.438   2.820
  864TIP3   OH2 2555   1.415   1.778   1.031
  864TIP3    H1 2556   1.412   1.685   1.009
  864TIP3    H2 2557   1.385   1.782   1.122
  865TIP3   OH2 2558   0.088   6.529   4.221
  865TIP3    H1 2559   0.054   6.614   4.248
  865TIP3    H2 2560   0.029   6.501   4.150
  866TIP3   OH2 2561   7.201   1.620   4.682
  866TIP3    H1 2562   7.140   1.602   4.610
  866TIP3    H2 2563   7.172   1.564   4.753
  867TIP3   OH2 2564   7.061   2.139   1.598
  867TIP3    H1 2565   6.980   2.101   1.564
  867TIP3    H2 2566   7.074   2.095   1.682
  868TIP3   OH2 2567   4.846   6.495   3.233
  868TIP3    H1 2568   4.871   6.496   3.325
  868TIP3    H2 2569   4.789   6.419   3.225
  869TIP3   OH2 2570   0.996   0.253   1.385
  869TIP3    H1 2571   1.024   0.332   1.339
  869TIP3    H2 2572   0.914   0.229   1.344
  870TIP3   OH2 2573   6.681   3.537   1.933
  870TIP3    H1 2574   6.664   3.517   1.841
  870TIP3    H2 2575   6.752   3.602   1.931
  871TIP3   OH2 2576   5.685   1.035   2.190
  871TIP3    H1 2577   5.688   1.059   2.098
  871TIP3    H2 2578   5.721   1.111   2.236
  872TIP3   OH2 2579   7.158   6.265   0.913
  872TIP3    H1 2580   7.175   6.359   0.916
  872TIP3    H2 2581   7.079   6.253   0.966
  873TIP3   OH2 2582   2.500   0.355   0.631
  873TIP3    H1 2583   2.545   0.375   0.549
  873TIP3    H2 2584   2.568   0.365   0.699
  874TIP3   OH2 2585   5.747   1.384   2.942
  874TIP3    H1 2586   5.785   1.404   2.857
  874TIP3    H2 2587   5.653   1.400   2.931
  875TIP3   OH2 2588   5.794   3.813   0.533
  875TIP3    H1 2589   5.759   3.867   0.603
  875TIP3    H2 2590   5.805   3.726   0.572
  876TIP3   OH2 2591   1.002   0.271   3.987
  876TIP3    H1 2592   1.033   0.183   3.967
  876TIP3    H2 2593   1.003   0.317   3.903
  877TIP3   OH2 2594   3.510   2.921   0.831
  877TIP3    H1 2595   3.562   3.001   0.822
  877TIP3    H2 2596   3.470   2.907   0.746
  878TIP3   OH2 2597   6.246   0.551   3.118
  878TIP3    H1 2598   6.238   0.634   3.071
  878TIP3    H2 2599   6.202   0.566   3.202
  879TIP3   OH2 2600   6.854   6.393   0.530
  879TIP3    H1 2601   6.858   6.402   0.626
  879TIP3    H2 2602   6.897   6.310   0.512
  880TIP3   OH2 2603   3.671   2.252   3.830
  880TIP3    H1 2604   3.711   2.177   3.874
  880TIP3    H2 2605   3.701   2.245   3.739
  881TIP3   OH2 2606   3.959   2.048   3.207
  881TIP3    H1 2607   3.941   1.988   3.279
  881TIP3    H2 2608   4.043   2.088   3.228
  882TIP3   OH2 2609   5.509   2.942   3.658
  882TIP3    H1 2610   5.583   3.002   3.649
  882TIP3    H2 2611   5.543   2.873   3.716
  883TIP3   OH2 2612   3.851   0.519   4.059
  883TIP3    H1 2613   3.892   0.504   3.973
  883TIP3    H2 2614   3.878   0.608   4.082
  884TIP3   OH2 2615   0.240   1.861   0.359
  884TIP3    H1 2616   0.281   1.906   0.433
  884TIP3    H2 2617   0.282   1.775   0.356
  885TIP3   OH2 2618   2.373   3.496   2.107
  885TIP3    H1 2619   2.336   3.568   2.158
  885TIP3    H2 2620   2.315   3.422   2.126
  886TIP3   OH2 2621   3.020   1.630   2.517
  886TIP3    H1 2622   3.073   1.706   2.540
  886TIP3    H2 2623   3.078   1.576   2.463
  887TIP3   OH2 2624   3.074   2.037   0.544
  887TIP3    H1 2625   2.984   2.030   0.576
  887TIP3    H2 2626   3.070   2.105   0.476
  888TIP3   OH2 2627   1.352   4.748   0.974
  888TIP3    H1 2628   1.349   4.794   0.890
  888TIP3    H2 2629   1.277   4.781   1.023
  889TIP3   OH2 2630   6.586   0.952   5.310
  889TIP3    H1 2631   6.640   0.875   5.290
  889TIP3    H2 2632   6.625   0.989   5.389
  890TIP3   OH2 2633   5.980   0.771   5.769
  890TIP3    H1 2634   5.935   0.687   5.758
  890TIP3    H2 2635   6.040   0.775   5.695
  891TIP3   OH2 2636   4.733   6.088   2.730
  891TIP3    H1 2637   4.819   6.122   2.751
  891TIP3    H2 2638   4.682   6.164   2.704
  892TIP3   OH2 2639   3.871   0.147   5.379
  892TIP3    H1 2640   3.933   0.075   5.394
  892TIP3    H2 2641   3.926   0.221   5.354
  893TIP3   OH2 2642   0.359   5.204   4.348
  893TIP3    H1 2643   0.445   5.197   4.306
  893TIP3    H2 2644   0.371   5.270   4.416
  894TIP3   OH2 2645   0.310   3.255   4.757
  894TIP3    H1 2646   0.368   3.318   4.799
  894TIP3    H2 2647   0.225   3.271   4.797
  895TIP3   OH2 2648   1.233   2.998   2.892
  895TIP3    H1 2649   1.329   3.005   2.890
  895TIP3    H2 2650   1.204   3.057   2.823
  896TIP3   OH2 2651   5.592   4.149   2.349
  896TIP3    H1 2652   5.651   4.076   2.369
  896TIP3    H2 2653   5.585   4.197   2.431
  897TIP3   OH2 2654   7.156   1.259   3.748
  897TIP3    H1 2655   7.070   1.223   3.769
  897TIP3    H2 2656   7.138   1.345   3.712
  898TIP3   OH2 2657   5.030   4.847   1.103
  898TIP3    H1 2658   4.996   4.788   1.036
  898TIP3    H2 2659   5.065   4.789   1.171
  899TIP3   OH2 2660   3.339   2.795   1.692
  899TIP3    H1 2661   3.402   2.732   1.728
  899TIP3    H2 2662   3.367   2.879   1.728
  900TIP3   OH2 2663   5.262   6.506   1.275
  900TIP3    H1 2664   5.168   6.516   1.289
  900TIP3    H2 2665   5.283   6.422   1.316
  901TIP3   OH2 2666   5.269   1.744   2.954
  901TIP3    H1 2667   5.187   1.784   2.925
  901TIP3    H2 2668   5.319   1.733   2.874
  902TIP3   OH2 2669   1.425   0.922   2.896
  902TIP3    H1 2670   1.492   0.980   2.860
  902TIP3    H2 2671   1.472   0.862   2.954
  903TIP3   OH2 2672   1.210   2.037   0.227
  903TIP3    H1 2673   1.236   1.946   0.214
  903TIP3    H2 2674   1.115   2.037   0.217
  904TIP3   OH2 2675   3.935   5.102   4.845
  904TIP3    H1 2676   3.876   5.166   4.806
  904TIP3    H2 2677   4.019   5.148   4.851
  905TIP3   OH2 2678   3.031   4.033   3.176
  905TIP3    H1 2679   3.074   3.984   3.106
  905TIP3    H2 2680   3.052   3.984   3.256
  906TIP3   OH2 2681   2.001   5.605   1.581
  906TIP3    H1 2682   2.063   5.576   1.648
  906TIP3    H2 2683   2.049   5.671   1.531
  907TIP3   OH2 2684   3.891   0.960   1.236
  907TIP3    H1 2685   3.843   0.878   1.231
  907TIP3    H2 2686   3.843   1.011   1.301
  908TIP3   OH2 2687   4.218   5.235   3.842
  908TIP3    H1 2688   4.136   5.194   3.817
  908TIP3    H2 2689   4.278   5.214   3.770
  909TIP3   OH2 2690   6.681   5.723   2.309
  909TIP3    H1 2691   6.711   5.763   2.391
  909TIP3    H2 2692   6.592   5.756   2.297
  910TIP3   OH2 2693   6.340   1.069   5.210
  910TIP3    H1 2694   6.328   1.120   5.290
  910TIP3    H2 2695   6.420   1.019   5.226
  911TIP3   OH2 2696   6.590   3.831   3.885
  911TIP3    H1 2697   6.661   3.774   3.856
  911TIP3    H2 2698   6.623   3.920   3.872
  912TIP3   OH2 2699   7.231   0.308   3.889
  912TIP3    H1 2700   7.241   0.235   3.951
  912TIP3    H2 2701   7.141   0.300   3.857
  913TIP3   OH2 2702   7.102   2.877   2.433
  913TIP3    H1 2703   7.008   2.898   2.433
  913TIP3    H2 2704   7.140   2.938   2.496
  914TIP3   OH2 2705   5.929   0.890   2.292
  914TIP3    H1 2706   5.836   0.912   2.281
  914TIP3    H2 2707   5.936   0.858   2.381
  915TIP3   OH2 2708   5.859   1.732   2.789
  915TIP3    H1 2709   5.952   1.708   2.795
  915TIP3    H2 2710   5.821   1.668   2.729
  916TIP3   OH2 2711   2.118   0.214   1.954
  916TIP3    H1 2712   2.037   0.264   1.946
  916TIP3    H2 2713   2.172   0.265   2.016
  917TIP3   OH2 2714   1.572   6.373   4.348
  917TIP3    H1 2715   1.581   6.406   4.438
  917TIP3    H2 2716   1.617   6.439   4.294
  918TIP3   OH2 2717   4.224   6.249   5.702
  918TIP3    H1 2718   4.177   6.272   5.782
  918TIP3    H2 2719   4.314   6.275   5.719
  919TIP3   OH2 2720   5.713   6.649   4.198
  919TIP3    H1 2721   5.707   6.743   4.178
  919TIP3    H2 2722   5.778   6.616   4.136
  920TIP3   OH2 2723   5.892   3.488   4.481
  920TIP3    H1 2724   5.866   3.459   4.394
  920TIP3    H2 2725   5.983   3.458   4.491
  921TIP3   OH2 2726   5.543   6.033   2.771
  921TIP3    H1 2727   5.531   5.997   2.858
  921TIP3    H2 2728   5.539   5.958   2.712
  922TIP3   OH2 2729   2.182   4.611   1.410
  922TIP3    H1 2730   2.091   4.626   1.435
  922TIP3    H2 2731   2.230   4.613   1.492
  923TIP3   OH2 2732   2.287   1.293   3.633
  923TIP3    H1 2733   2.210   1.349   3.644
  923TIP3    H2 2734   2.320   1.279   3.722
  924TIP3   OH2 2735   6.861   2.895   0.363
  924TIP3    H1 2736   6.905   2.914   0.446
  924TIP3    H2 2737   6.922   2.927   0.296
  925TIP3   OH2 2738   4.436   6.413   0.424
  925TIP3    H1 2739   4.386   6.430   0.345
  925TIP3    H2 2740   4.515   6.466   0.415
  926TIP3   OH2 2741   6.007   3.693   0.125
  926TIP3    H1 2742   5.917   3.723   0.116
  926TIP3    H2 2743   6.011   3.612   0.074
  927TIP3   OH2 2744   0.484   1.101   1.031
  927TIP3    H1 2745   0.464   1.090   1.124
  927TIP3    H2 2746   0.433   1.177   1.004
  928TIP3   OH2 2747   0.691   1.480   2.670
  928TIP3    H1 2748   0.738   1.548   2.718
  928TIP3    H2 2749   0.627   1.528   2.617
  929TIP3   OH2 2750   2.867   5.099   0.268
  929TIP3    H1 2751   2.805   5.026   0.272
  929TIP3    H2 2752   2.952   5.057   0.256
  930TIP3   OH2 2753   5.175   3.543   0.096
  930TIP3    H1 2754   5.256   3.554   0.146
  930TIP3    H2 2755   5.106   3.567   0.157
  931TIP3   OH2 2756   5.653   3.708   4.374
  931TIP3    H1 2757   5.678   3.671   4.458
  931TIP3    H2 2758   5.572   3.663   4.350
  932TIP3   OH2 2759   3.153   2.938   4.231
  932TIP3    H1 2760   3.110   2.858   4.202
  932TIP3    H2 2761   3.201   2.969   4.154
  933TIP3   OH2 2762   2.564   3.847   4.639
  933TIP3    H1 2763   2.495   3.790   4.675
  933TIP3    H2 2764   2.561   3.926   4.693
  934TIP3   OH2 2765   1.102   0.543   3.211
  934TIP3    H1 2766   1.067   0.529   3.124
  934TIP3    H2 2767   1.038   0.600   3.254
  935TIP3   OH2 2768   2.750   0.929   0.306
  935TIP3    H1 2769   2.771   1.004   0.361
  935TIP3    H2 2770   2.736   0.857   0.367
  936TIP3   OH2 2771   4.540   5.309   3.923
  936TIP3    H1 2772   4.507   5.239   3.978
  936TIP3    H2 2773   4.526   5.278   3.833
  937TIP3   OH2 2774   6.347   4.503   2.139
  937TIP3    H1 2775   6.431   4.526   2.099
  937TIP3    H2 2776   6.369   4.485   2.230
  938TIP3   OH2 2777   1.067   2.103   2.622
  938TIP3    H1 2778   1.004   2.054   2.570
  938TIP3    H2 2779   1.087   2.046   2.696
  939TIP3   OH2 2780   2.725   2.534   1.879
  939TIP3    H1 2781   2.642   2.508   1.919
  939TIP3    H2 2782   2.706   2.544   1.786
  940TIP3   OH2 2783   0.042   6.282   1.282
  940TIP3    H1 2784   0.090   6.203   1.257
  940TIP3    H2 2785  -0.045   6.251   1.305
  941TIP3   OH2 2786   2.925   0.363   3.831
  941TIP3    H1 2787   2.914   0.390   3.739
  941TIP3    H2 2788   2.909   0.443   3.881
  942TIP3   OH2 2789   2.661   0.704   3.756
  942TIP3    H1 2790   2.604   0.635   3.721
  942TIP3    H2 2791   2.704   0.663   3.832
  943TIP3   OH2 2792   2.286   4.529   0.116
  943TIP3    H1 2793   2.213   4.591   0.119
  943TIP3    H2 2794   2.321   4.536   0.027
  944TIP3   OH2 2795   6.954   0.969   2.049
  944TIP3    H1 2796   6.988   0.887   2.084
  944TIP3    H2 2797   6.985   1.036   2.110
  945TIP3   OH2 2798   1.501   5.181   1.373
  945TIP3    H1 2799   1.414   5.214   1.396
  945TIP3    H2 2800   1.507   5.096   1.418
  946TIP3   OH2 2801   0.597   0.397   3.509
  946TIP3    H1 2802   0.554   0.357   3.585
  946TIP3    H2 2803   0.544   0.475   3.490
  947TIP3   OH2 2804   1.098   5.871   1.144
  947TIP3    H1 2805   1.135   5.799   1.093
  947TIP3    H2 2806   1.174   5.914   1.184
  948TIP3   OH2 2807   2.931   1.480   5.201
  948TIP3    H1 2808   2.855   1.483   5.260
  948TIP3    H2 2809   2.929   1.565   5.156
  949TIP3   OH2 2810   0.482   0.082   2.131
  949TIP3    H1 2811   0.460   0.001   2.176
  949TIP3    H2 2812   0.399   0.112   2.093
  950TIP3   OH2 2813   4.475   2.281   0.032
  950TIP3    H1 2814   4.447   2.197   0.068
  950TIP3    H2 2815   4.498   2.262  -0.059
  951TIP3   OH2 2816   4.904   1.659   3.854
  951TIP3    H1 2817   4.825   1.639   3.804
  951TIP3    H2 2818   4.889   1.746   3.889
  952TIP3   OH2 2819   1.184   2.951   0.490
  952TIP3    H1 2820   1.138   3.013   0.547
  952TIP3    H2 2821   1.156   2.973   0.402
  953TIP3   OH2 2822   6.406   4.469   4.247
  953TIP3    H1 2823   6.472   4.436   4.186
  953TIP3    H2 2824   6.362   4.390   4.280
  954TIP3   OH2 2825   2.685   2.434   4.454
  954TIP3    H1 2826   2.642   2.480   4.381
  954TIP3    H2 2827   2.776   2.463   4.450
  955TIP3   OH2 2828   2.951   0.878   2.767
  955TIP3    H1 2829   2.888   0.948   2.777
  955TIP3    H2 2830   2.932   0.818   2.840
  956TIP3   OH2 2831   5.106   3.509   1.400
  956TIP3    H1 2832   5.100   3.577   1.333
  956TIP3    H2 2833   5.184   3.531   1.451
  957TIP3   OH2 2834   6.989   3.810   4.335
  957TIP3    H1 2835   6.938   3.733   4.361
  957TIP3    H2 2836   6.987   3.867   4.412
  958TIP3   OH2 2837   5.089   4.698   4.676
  958TIP3    H1 2838   5.003   4.733   4.699
  958TIP3    H2 2839   5.109   4.737   4.591
  959TIP3   OH2 2840   7.176   0.500   0.920
  959TIP3    H1 2841   7.124   0.455   0.853
  959TIP3    H2 2842   7.147   0.591   0.917
  960TIP3   OH2 2843   1.207   0.105   0.702
  960TIP3    H1 2844   1.273   0.036   0.704
  960TIP3    H2 2845   1.257   0.186   0.697
  961TIP3   OH2 2846   3.194   5.677   4.254
  961TIP3    H1 2847   3.188   5.588   4.221
  961TIP3    H2 2848   3.250   5.723   4.190
  962TIP3   OH2 2849   6.849   0.799   1.569
  962TIP3    H1 2850   6.778   0.813   1.631
  962TIP3    H2 2851   6.815   0.833   1.486
  963TIP3   OH2 2852   0.196   1.647   0.946
  963TIP3    H1 2853   0.127   1.613   1.003
  963TIP3    H2 2854   0.150   1.672   0.866
  964TIP3   OH2 2855   5.975   2.536   4.248
  964TIP3    H1 2856   6.060   2.494   4.265
  964TIP3    H2 2857   5.951   2.507   4.161
  965TIP3   OH2 2858   3.798   2.329   4.855
  965TIP3    H1 2859   3.854   2.367   4.787
  965TIP3    H2 2860   3.711   2.366   4.838
  966TIP3   OH2 2861   6.742   6.618   1.349
  966TIP3    H1 2862   6.770   6.609   1.440
  966TIP3    H2 2863   6.761   6.533   1.309
  967TIP3   OH2 2864   3.742   4.427   2.180
  967TIP3    H1 2865   3.807   4.382   2.125
  967TIP3    H2 2866   3.673   4.453   2.119
  968TIP3   OH2 2867   3.408   4.253   5.176
  968TIP3    H1 2868   3.345   4.189   5.209
  968TIP3    H2 2869   3.360   4.335   5.174
  969TIP3   OH2 2870   5.500   1.759   4.375
  969TIP3    H1 2871   5.523   1.845   4.412
  969TIP3    H2 2872   5.569   1.701   4.406
  970TIP3   OH2 2873   1.089   5.845   4.236
  970TIP3    H1 2874   1.139   5.811   4.162
  970TIP3    H2 2875   1.047   5.924   4.202
  971TIP3   OH2 2876   3.681   6.633   4.937
  971TIP3    H1 2877   3.592   6.604   4.956
  971TIP3    H2 2878   3.674   6.729   4.932
  972TIP3   OH2 2879   0.079   6.090   5.272
  972TIP3    H1 2880  -0.012   6.102   5.246
  972TIP3    H2 2881   0.127   6.156   5.223
  973TIP3   OH2 2882   5.122   1.258   1.235
  973TIP3    H1 2883   5.048   1.204   1.207
  973TIP3    H2 2884   5.194   1.195   1.248
  974TIP3   OH2 2885   5.704   2.900   2.246
  974TIP3    H1 2886   5.674   2.975   2.195
  974TIP3    H2 2887   5.798   2.895   2.227
  975TIP3   OH2 2888   0.968   3.342   2.702
  975TIP3    H1 2889   0.894   3.347   2.762
  975TIP3    H2 2890   1.040   3.384   2.748
  976TIP3   OH2 2891   5.003   2.942   2.586
  976TIP3    H1 2892   4.914   2.974   2.595
  976TIP3    H2 2893   4.993   2.849   2.566
  977TIP3   OH2 2894   0.398   3.501   5.143
  977TIP3    H1 2895   0.434   3.587   5.162
  977TIP3    H2 2896   0.362   3.471   5.227
  978TIP3   OH2 2897   6.923   0.596   3.389
  978TIP3    H1 2898   6.985   0.630   3.324
  978TIP3    H2 2899   6.962   0.620   3.473
  979TIP3   OH2 2900   1.659   2.568   0.579
  979TIP3    H1 2901   1.636   2.494   0.522
  979TIP3    H2 2902   1.753   2.578   0.569
  980TIP3   OH2 2903   4.488   0.986   5.180
  980TIP3    H1 2904   4.468   1.074   5.209
  980TIP3    H2 2905   4.584   0.983   5.174
  981TIP3   OH2 2906   2.572   3.205   5.277
  981TIP3    H1 2907   2.585   3.208   5.371
  981TIP3    H2 2908   2.482   3.175   5.265
  982TIP3   OH2 2909   3.596   3.900   0.474
  982TIP3    H1 2910   3.680   3.908   0.429
  982TIP3    H2 2911   3.604   3.957   0.551
  983TIP3   OH2 2912   0.870   6.700   1.025
  983TIP3    H1 2913   0.828   6.751   1.094
  983TIP3    H2 2914   0.964   6.712   1.040
  984TIP3   OH2 2915   4.561   1.555   3.053
  984TIP3    H1 2916   4.640   1.608   3.038
  984TIP3    H2 2917   4.554   1.500   2.974
  985TIP3   OH2 2918   2.601   3.608   0.157
  985TIP3    H1 2919   2.647   3.525   0.167
  985TIP3    H2 2920   2.600   3.625   0.063
  986TIP3   OH2 2921   6.251   4.115   0.098
  986TIP3    H1 2922   6.312   4.177   0.138
  986TIP3    H2 2923   6.303   4.068   0.034
  987TIP3   OH2 2924   4.787   2.232   0.029
  987TIP3    H1 2925   4.820   2.208  -0.057
  987TIP3    H2 2926   4.865   2.259   0.078
  988TIP3   OH2 2927   5.946   1.938   5.305
  988TIP3    H1 2928   5.903   1.862   5.343
  988TIP3    H2 2929   5.883   2.009   5.314
  989TIP3   OH2 2930   5.143   2.556   1.923
  989TIP3    H1 2931   5.093   2.488   1.968
  989TIP3    H2 2932   5.080   2.625   1.904
  990TIP3   OH2 2933   1.410   4.981   1.835
  990TIP3    H1 2934   1.339   4.929   1.798
  990TIP3    H2 2935   1.486   4.922   1.834
  991TIP3   OH2 2936   1.231   1.093   5.712
  991TIP3    H1 2937   1.234   1.144   5.632
  991TIP3    H2 2938   1.160   1.030   5.699
  992TIP3   OH2 2939   2.569   0.089   3.232
  992TIP3    H1 2940   2.653   0.067   3.271
  992TIP3    H2 2941   2.504   0.052   3.293
  993TIP3   OH2 2942   2.753   1.743   1.431
  993TIP3    H1 2943   2.700   1.815   1.465
  993TIP3    H2 2944   2.832   1.785   1.398
  994TIP3   OH2 2945   6.208   1.847   5.392
  994TIP3    H1 2946   6.113   1.853   5.382
  994TIP3    H2 2947   6.242   1.853   5.303
  995TIP3   OH2 2948   3.722   1.712   4.090
  995TIP3    H1 2949   3.657   1.672   4.147
  995TIP3    H2 2950   3.796   1.730   4.147
  996TIP3   OH2 2951   5.390   3.592   0.329
  996TIP3    H1 2952   5.324   3.655   0.356
  996TIP3    H2 2953   5.467   3.645   0.308
  997TIP3   OH2 2954   2.323   2.490   5.695
  997TIP3    H1 2955   2.354   2.400   5.680
  997TIP3    H2 2956   2.400   2.545   5.678
  998TIP3   OH2 2957   0.179   0.373   4.577
  998TIP3    H1 2958   0.106   0.314   4.560
  998TIP3    H2 2959   0.252   0.335   4.529
  999TIP3   OH2 2960   5.605   5.463   0.959
  999TIP3    H1 2961   5.520   5.473   0.917
  999TIP3    H2 2962   5.652   5.543   0.936
 1000TIP3   OH2 2963   2.286   2.392   3.651
 1000TIP3    H1 2964   2.328   2.392   3.737
 1000TIP3    H2 2965   2.340   2.451   3.598
 1001TIP3   OH2 2966   7.128   4.503   2.107
 1001TIP3    H1 2967   7.220   4.502   2.136
 1001TIP3    H2 2968   7.107   4.596   2.097
 1002TIP3   OH2 2969   7.225   0.970   4.649
 1002TIP3    H1 2970   7.276   0.991   4.570
 1002TIP3    H2 2971   7.140   0.940   4.615
 1003TIP3   OH2 2972   3.562   0.221   4.540
 1003TIP3    H1 2973   3.473   0.232   4.505
 1003TIP3    H2 2974   3.556   0.148   4.601
 1004TIP3   OH2 2975   6.360   3.365   0.189
 1004TIP3    H1 2976   6.440   3.416   0.193
 1004TIP3    H2 2977   6.289   3.428   0.201
 1005TIP3   OH2 2978   0.876   3.680   4.825
 1005TIP3    H1 2979   0.830   3.751   4.781
 1005TIP3    H2 2980   0.894   3.714   4.913
 1006TIP3   OH2 2981   2.879   3.088   5.531
 1006TIP3    H1 2982   2.823   3.162   5.551
 1006TIP3    H2 2983   2.905   3.054   5.616
 1007TIP3   OH2 2984   4.715   4.713   0.601
 1007TIP3    H1 2985   4.666   4.643   0.643
 1007TIP3    H2 2986   4.706   4.788   0.659
 1008TIP3   OH2 2987   2.741   1.768   0.519
 1008TIP3    H1 2988   2.810   1.703   0.504
 1008TIP3    H2 2989   2.714   1.755   0.610
 1009TIP3   OH2 2990   3.844   6.356   2.871
 1009TIP3    H1 2991   3.876   6.430   2.819
 1009TIP3    H2 2992   3.904   6.284   2.850
 1010TIP3   OH2 2993   5.677   6.605   3.392
 1010TIP3    H1 2994   5.645   6.678   3.339
 1010TIP3    H2 2995   5.610   6.595   3.460
 1011TIP3   OH2 2996   6.667   5.856   4.943
 1011TIP3    H1 2997   6.598   5.880   5.005
 1011TIP3    H2 2998   6.707   5.778   4.981
 1012TIP3   OH2 2999   6.951   5.551   2.548
 1012TIP3    H1 3000   6.924   5.620   2.609
 1012TIP3    H2 3001   6.870   5.523   2.505
 1013TIP3   OH2 3002   0.922   0.326   4.687
 1013TIP3    H1 3003   0.865   0.398   4.716
 1013TIP3    H2 3004   0.861   0.257   4.660
 1014TIP3   OH2 3005   6.639   4.484   1.339
 1014TIP3    H1 3006   6.644   4.393   1.367
 1014TIP3    H2 3007   6.547   4.508   1.351
 1015TIP3   OH2 3008   6.827   0.544   1.440
 1015TIP3    H1 3009   6.897   0.482   1.458
 1015TIP3    H2 3010   6.862   0.629   1.465
 1016TIP3   OH2 3011   4.422   2.811   3.154
 1016TIP3    H1 3012   4.328   2.815   3.138
 1016TIP3    H2 3013   4.430   2.792   3.247
 1017TIP3   OH2 3014   7.071   4.040   2.826
 1017TIP3    H1 3015   7.155   4.077   2.852
 1017TIP3    H2 3016   7.088   3.947   2.816
 1018TIP3   OH2 3017   2.554   6.374   1.976
 1018TIP3    H1 3018   2.475   6.321   1.961
 1018TIP3    H2 3019   2.526   6.464   1.957
 1019TIP3   OH2 3020   5.900   1.225   0.819
 1019TIP3    H1 3021   5.850   1.167   0.761
 1019TIP3    H2 3022   5.906   1.178   0.902
 1020TIP3   OH2 3023   0.630   2.940   0.977
 1020TIP3    H1 3024   0.581   3.023   0.979
 1020TIP3    H2 3025   0.609   2.899   1.061
 1021TIP3   OH2 3026   5.172   2.942   1.780
 1021TIP3    H1 3027   5.173   3.038   1.772
 1021TIP3    H2 3028   5.262   2.915   1.762
 1022TIP3   OH2 3029   3.567   1.203   1.668
 1022TIP3    H1 3030   3.523   1.238   1.591
 1022TIP3    H2 3031   3.566   1.108   1.657
 1023TIP3   OH2 3032   3.624   5.364   2.657
 1023TIP3    H1 3033   3.613   5.270   2.671
 1023TIP3    H2 3034   3.708   5.385   2.697
 1024TIP3   OH2 3035   1.163   1.773   5.762
 1024TIP3    H1 3036   1.250   1.733   5.766
 1024TIP3    H2 3037   1.173   1.857   5.806
 1025TIP3   OH2 3038   2.217   4.181   1.493
 1025TIP3    H1 3039   2.167   4.204   1.415
 1025TIP3    H2 3040   2.308   4.190   1.467
 1026TIP3   OH2 3041   2.238   1.699   4.000
 1026TIP3    H1 3042   2.281   1.784   3.993
 1026TIP3    H2 3043   2.227   1.687   4.094
 1027TIP3   OH2 3044   1.789   2.442   1.087
 1027TIP3    H1 3045   1.704   2.401   1.073
 1027TIP3    H2 3046   1.815   2.472   1.000
 1028TIP3   OH2 3047   2.737   1.632   3.676
 1028TIP3    H1 3048   2.832   1.625   3.676
 1028TIP3    H2 3049   2.712   1.630   3.583
 1029TIP3   OH2 3050   1.124   5.927   3.657
 1029TIP3    H1 3051   1.190   5.985   3.619
 1029TIP3    H2 3052   1.125   5.947   3.751
 1030TIP3   OH2 3053   6.630   3.916   2.646
 1030TIP3    H1 3054   6.697   3.981   2.663
 1030TIP3    H2 3055   6.589   3.901   2.731
 1031TIP3   OH2 3056   0.680   6.149   3.084
 1031TIP3    H1 3057   0.650   6.199   3.007
 1031TIP3    H2 3058   0.627   6.183   3.156
 1032TIP3   OH2 3059   4.398   4.656   1.821
 1032TIP3    H1 3060   4.470   4.599   1.849
 1032TIP3    H2 3061   4.354   4.681   1.902
 1033TIP3   OH2 3062   1.271   5.754   3.458
 1033TIP3    H1 3063   1.243   5.685   3.518
 1033TIP3    H2 3064   1.264   5.835   3.509
 1034TIP3   OH2 3065   6.906   0.591   5.449
 1034TIP3    H1 3066   6.820   0.623   5.422
 1034TIP3    H2 3067   6.894   0.497   5.463
 1035TIP3   OH2 3068   4.918   1.816   1.834
 1035TIP3    H1 3069   4.917   1.728   1.874
 1035TIP3    H2 3070   4.929   1.875   1.908
 1036TIP3   OH2 3071   2.209   3.270   4.340
 1036TIP3    H1 3072   2.174   3.285   4.252
 1036TIP3    H2 3073   2.139   3.297   4.399
 1037TIP3   OH2 3074   1.017   1.667   0.972
 1037TIP3    H1 3075   0.925   1.681   0.993
 1037TIP3    H2 3076   1.023   1.575   0.947
 1038TIP3   OH2 3077   0.295   2.740   3.552
 1038TIP3    H1 3078   0.324   2.675   3.489
 1038TIP3    H2 3079   0.343   2.819   3.528
 1039TIP3   OH2 3080   5.798   3.086   3.493
 1039TIP3    H1 3081   5.873   3.137   3.463
 1039TIP3    H2 3082   5.833   3.031   3.563
 1040TIP3   OH2 3083   3.407   6.592   4.900
 1040TIP3    H1 3084   3.345   6.656   4.865
 1040TIP3    H2 3085   3.358   6.510   4.900
 1041TIP3   OH2 3086   4.744   4.241   1.948
 1041TIP3    H1 3087   4.657   4.208   1.969
 1041TIP3    H2 3088   4.802   4.167   1.965
 1042TIP3   OH2 3089   0.863   5.145   1.816
 1042TIP3    H1 3090   0.823   5.075   1.764
 1042TIP3    H2 3091   0.893   5.102   1.896
 1043TIP3   OH2 3092   0.903   0.931   3.336
 1043TIP3    H1 3093   0.986   0.906   3.375
 1043TIP3    H2 3094   0.925   0.961   3.248
 1044TIP3   OH2 3095   0.266   0.284   5.170
 1044TIP3    H1 3096   0.227   0.359   5.216
 1044TIP3    H2 3097   0.229   0.289   5.082
 1045TIP3   OH2 3098   6.281   2.989   0.742
 1045TIP3    H1 3099   6.373   2.979   0.718
 1045TIP3    H2 3100   6.275   2.951   0.829
 1046TIP3   OH2 3101   1.289   2.496   1.125
 1046TIP3    H1 3102   1.346   2.500   1.201
 1046TIP3    H2 3103   1.229   2.570   1.135
 1047TIP3   OH2 3104   7.223   4.297   1.931
 1047TIP3    H1 3105   7.217   4.335   2.018
 1047TIP3    H2 3106   7.142   4.247   1.921
 1048TIP3   OH2 3107   4.782   0.590   5.085
 1048TIP3    H1 3108   4.724   0.533   5.136
 1048TIP3    H2 3109   4.722   0.649   5.039
 1049TIP3   OH2 3110   3.598   5.525   2.451
 1049TIP3    H1 3111   3.605   5.482   2.536
 1049TIP3    H2 3112   3.680   5.502   2.406
 1050TIP3   OH2 3113   0.677   2.728   2.783
 1050TIP3    H1 3114   0.700   2.742   2.691
 1050TIP3    H2 3115   0.700   2.637   2.800
 1051TIP3   OH2 3116   2.743   4.423   1.314
 1051TIP3    H1 3117   2.679   4.427   1.386
 1051TIP3    H2 3118   2.777   4.334   1.317
 1052TIP3   OH2 3119   5.540   5.545   3.030
 1052TIP3    H1 3120   5.579   5.458   3.014
 1052TIP3    H2 3121   5.529   5.549   3.125
 1053TIP3   OH2 3122   3.830   6.693   3.962
 1053TIP3    H1 3123   3.745   6.696   4.006
 1053TIP3    H2 3124   3.816   6.741   3.880
 1054TIP3   OH2 3125   4.571   3.305   2.123
 1054TIP3    H1 3126   4.491   3.338   2.164
 1054TIP3    H2 3127   4.597   3.231   2.178
 1055TIP3   OH2 3128   3.481   1.689   4.212
 1055TIP3    H1 3129   3.489   1.765   4.156
 1055TIP3    H2 3130   3.428   1.627   4.162
 1056TIP3   OH2 3131   1.406   1.522   2.948
 1056TIP3    H1 3132   1.418   1.524   3.043
 1056TIP3    H2 3133   1.495   1.522   2.913
 1057TIP3   OH2 3134   6.009   5.844   3.454
 1057TIP3    H1 3135   6.101   5.819   3.459
 1057TIP3    H2 3136   6.002   5.901   3.378
 1058TIP3   OH2 3137   3.255   6.547   2.161
 1058TIP3    H1 3138   3.170   6.515   2.192
 1058TIP3    H2 3139   3.245   6.549   2.065
 1059TIP3   OH2 3140   0.258   0.152   1.457
 1059TIP3    H1 3141   0.324   0.100   1.413
 1059TIP3    H2 3142   0.240   0.224   1.396
 1060TIP3   OH2 3143   1.819   5.907   2.377
 1060TIP3    H1 3144   1.741   5.940   2.423
 1060TIP3    H2 3145   1.884   5.897   2.446
 1061TIP3   OH2 3146   4.947   0.538   1.225
 1061TIP3    H1 3147   4.950   0.510   1.316
 1061TIP3    H2 3148   4.855   0.563   1.210
 1062TIP3   OH2 3149   1.427   1.011  -0.016
 1062TIP3    H1 3150   1.398   0.948   0.050
 1062TIP3    H2 3151   1.490   0.963  -0.069
 1063TIP3   OH2 3152   1.855   4.423   0.474
 1063TIP3    H1 3153   1.842   4.330   0.493
 1063TIP3    H2 3154   1.844   4.429   0.379
 1064TIP3   OH2 3155   1.963   1.541   0.489
 1064TIP3    H1 3156   1.968   1.600   0.413
 1064TIP3    H2 3157   1.916   1.465   0.457
 1065TIP3   OH2 3158   6.957   5.765   3.983
 1065TIP3    H1 3159   7.027   5.827   3.963
 1065TIP3    H2 3160   6.961   5.754   4.078
 1066TIP3   OH2 3161   0.724   3.615   3.613
 1066TIP3    H1 3162   0.746   3.674   3.685
 1066TIP3    H2 3163   0.784   3.541   3.623
 1067TIP3   OH2 3164   5.272   1.903   5.002
 1067TIP3    H1 3165   5.333   1.928   5.071
 1067TIP3    H2 3166   5.186   1.919   5.040
 1068TIP3   OH2 3167   1.049   6.608   2.269
 1068TIP3    H1 3168   1.126   6.559   2.300
 1068TIP3    H2 3169   1.071   6.699   2.286
 1069TIP3   OH2 3170   4.495   4.441   4.051
 1069TIP3    H1 3171   4.562   4.461   4.116
 1069TIP3    H2 3172   4.513   4.351   4.024
 1070TIP3   OH2 3173   2.260   0.351   3.683
 1070TIP3    H1 3174   2.332   0.320   3.629
 1070TIP3    H2 3175   2.194   0.282   3.678
 1071TIP3   OH2 3176   2.910   3.418   2.137
 1071TIP3    H1 3177   2.925   3.346   2.198
 1071TIP3    H2 3178   2.934   3.497   2.186
 1072TIP3   OH2 3179   4.102   6.751   4.339
 1072TIP3    H1 3180   4.055   6.751   4.255
 1072TIP3    H2 3181   4.134   6.661   4.348
 1073TIP3   OH2 3182   2.428   1.185   4.503
 1073TIP3    H1 3183   2.496   1.121   4.526
 1073TIP3    H2 3184   2.364   1.134   4.453
 1074TIP3   OH2 3185   3.712   2.536   5.547
 1074TIP3    H1 3186   3.666   2.573   5.623
 1074TIP3    H2 3187   3.775   2.603   5.522
 1075TIP3   OH2 3188   0.447   4.804   3.731
 1075TIP3    H1 3189   0.510   4.791   3.801
 1075TIP3    H2 3190   0.501   4.808   3.651
 1076TIP3   OH2 3191   3.192   2.300   4.356
 1076TIP3    H1 3192   3.216   2.273   4.267
 1076TIP3    H2 3193   3.272   2.335   4.394
 1077TIP3   OH2 3194   6.952   2.225   3.642
 1077TIP3    H1 3195   7.040   2.192   3.626
 1077TIP3    H2 3196   6.895   2.170   3.588
 1078TIP3   OH2 3197   4.424   2.742   4.548
 1078TIP3    H1 3198   4.427   2.711   4.639
 1078TIP3    H2 3199   4.486   2.814   4.545
 1079TIP3   OH2 3200   2.332   3.451   5.361
 1079TIP3    H1 3201   2.288   3.520   5.312
 1079TIP3    H2 3202   2.297   3.369   5.325
 1080TIP3   OH2 3203   1.319   0.486   3.010
 1080TIP3    H1 3204   1.394   0.493   3.070
 1080TIP3    H2 3205   1.271   0.408   3.039
 1081TIP3   OH2 3206   2.232   0.585   1.164
 1081TIP3    H1 3207   2.208   0.561   1.254
 1081TIP3    H2 3208   2.317   0.543   1.150
 1082TIP3   OH2 3209   0.486   6.444   0.586
 1082TIP3    H1 3210   0.472   6.390   0.664
 1082TIP3    H2 3211   0.554   6.506   0.611
 1083TIP3   OH2 3212   3.505   1.501   2.532
 1083TIP3    H1 3213   3.541   1.416   2.558
 1083TIP3    H2 3214   3.420   1.480   2.494
 1084TIP3   OH2 3215   3.933   5.332   2.163
 1084TIP3    H1 3216   4.008   5.365   2.113
 1084TIP3    H2 3217   3.966   5.254   2.207
 1085TIP3   OH2 3218   0.726   6.124   4.660
 1085TIP3    H1 3219   0.799   6.104   4.719
 1085TIP3    H2 3220   0.767   6.159   4.582
 1086TIP3   OH2 3221   5.331   5.484   1.412
 1086TIP3    H1 3222   5.302   5.405   1.367
 1086TIP3    H2 3223   5.251   5.531   1.433
 1087TIP3   OH2 3224   2.414   0.125   3.916
 1087TIP3    H1 3225   2.474   0.168   3.855
 1087TIP3    H2 3226   2.336   0.106   3.864
 1088TIP3   OH2 3227   3.677   5.952   1.835
 1088TIP3    H1 3228   3.686   5.990   1.747
 1088TIP3    H2 3229   3.697   5.859   1.824
 1089TIP3   OH2 3230   6.699   4.203   4.404
 1089TIP3    H1 3231   6.751   4.175   4.329
 1089TIP3    H2 3232   6.712   4.297   4.409
 1090TIP3   OH2 3233   3.843   2.881   0.746
 1090TIP3    H1 3234   3.899   2.821   0.696
 1090TIP3    H2 3235   3.818   2.831   0.824
 1091TIP3   OH2 3236   5.399   2.235   2.902
 1091TIP3    H1 3237   5.458   2.310   2.910
 1091TIP3    H2 3238   5.344   2.256   2.826
 1092TIP3   OH2 3239   1.008   2.817   2.878
 1092TIP3    H1 3240   1.093   2.773   2.888
 1092TIP3    H2 3241   1.027   2.909   2.895
 1093TIP3   OH2 3242   5.088   2.856   4.100
 1093TIP3    H1 3243   5.148   2.927   4.083
 1093TIP3    H2 3244   5.050   2.834   4.015
 1094TIP3   OH2 3245   4.384   0.139   3.053
 1094TIP3    H1 3246   4.294   0.135   3.022
 1094TIP3    H2 3247   4.426   0.062   3.016
 1095TIP3   OH2 3248   6.784   4.583   5.414
 1095TIP3    H1 3249   6.826   4.499   5.396
 1095TIP3    H2 3250   6.700   4.578   5.368
 1096TIP3   OH2 3251   3.835   0.127   4.276
 1096TIP3    H1 3252   3.745   0.137   4.244
 1096TIP3    H2 3253   3.843   0.033   4.293
 1097TIP3   OH2 3254   4.268   2.757   1.259
 1097TIP3    H1 3255   4.327   2.823   1.296
 1097TIP3    H2 3256   4.184   2.773   1.302
 1098TIP3   OH2 3257   5.521   5.011   2.112
 1098TIP3    H1 3258   5.599   4.985   2.162
 1098TIP3    H2 3259   5.448   4.987   2.169
 1099TIP3   OH2 3260   7.017   0.281   1.476
 1099TIP3    H1 3261   7.082   0.212   1.488
 1099TIP3    H2 3262   6.936   0.235   1.451
 1100TIP3   OH2 3263   0.401   4.783   1.698
 1100TIP3    H1 3264   0.327   4.784   1.638
 1100TIP3    H2 3265   0.407   4.873   1.730
 1101TIP3   OH2 3266   4.352   3.415   3.962
 1101TIP3    H1 3267   4.405   3.355   3.909
 1101TIP3    H2 3268   4.343   3.493   3.907
 1102TIP3   OH2 3269   6.349   1.112   4.875
 1102TIP3    H1 3270   6.441   1.105   4.852
 1102TIP3    H2 3271   6.325   1.024   4.906
 1103TIP3   OH2 3272   5.033   2.313   2.322
 1103TIP3    H1 3273   5.129   2.319   2.322
 1103TIP3    H2 3274   5.014   2.242   2.384
 1104TIP3   OH2 3275   4.594   6.624   0.335
 1104TIP3    H1 3276   4.667   6.594   0.281
 1104TIP3    H2 3277   4.549   6.689   0.281
 1105TIP3   OH2 3278   3.148   5.064   5.467
 1105TIP3    H1 3279   3.082   4.994   5.469
 1105TIP3    H2 3280   3.192   5.052   5.383
 1106TIP3   OH2 3281   2.560   1.511   3.164
 1106TIP3    H1 3282   2.579   1.605   3.162
 1106TIP3    H2 3283   2.572   1.483   3.074
 1107TIP3   OH2 3284   7.033   4.164   1.320
 1107TIP3    H1 3285   7.128   4.152   1.317
 1107TIP3    H2 3286   7.008   4.135   1.408
 1108TIP3   OH2 3287   6.507   5.769   4.717
 1108TIP3    H1 3288   6.571   5.731   4.778
 1108TIP3    H2 3289   6.451   5.823   4.773
 1109TIP3   OH2 3290   1.238   2.449   0.502
 1109TIP3    H1 3291   1.232   2.362   0.462
 1109TIP3    H2 3292   1.229   2.432   0.596
 1110TIP3   OH2 3293   3.541   2.071   5.357
 1110TIP3    H1 3294   3.554   2.024   5.274
 1110TIP3    H2 3295   3.596   2.149   5.350
 1111TIP3   OH2 3296   3.317   0.486   1.518
 1111TIP3    H1 3297   3.345   0.552   1.454
 1111TIP3    H2 3298   3.398   0.454   1.557
 1112TIP3   OH2 3299   0.362   5.094   3.096
 1112TIP3    H1 3300   0.359   5.130   3.184
 1112TIP3    H2 3301   0.337   5.167   3.040
 1113TIP3   OH2 3302   3.738   2.475   0.206
 1113TIP3    H1 3303   3.647   2.468   0.234
 1113TIP3    H2 3304   3.733   2.469   0.110
 1114TIP3   OH2 3305   2.724   6.573   3.385
 1114TIP3    H1 3306   2.684   6.490   3.413
 1114TIP3    H2 3307   2.650   6.634   3.380
 1115TIP3   OH2 3308   2.680   2.761   0.049
 1115TIP3    H1 3309   2.710   2.770   0.140
 1115TIP3    H2 3310   2.611   2.826   0.040
 1116TIP3   OH2 3311   0.694   6.394   1.349
 1116TIP3    H1 3312   0.622   6.456   1.339
 1116TIP3    H2 3313   0.654   6.308   1.336
 1117TIP3   OH2 3314   5.838   3.181   5.583
 1117TIP3    H1 3315   5.826   3.095   5.622
 1117TIP3    H2 3316   5.790   3.240   5.642
 1118TIP3   OH2 3317   2.211   6.450   4.308
 1118TIP3    H1 3318   2.137   6.446   4.369
 1118TIP3    H2 3319   2.171   6.465   4.223
 1119TIP3   OH2 3320   3.775   2.455   1.345
 1119TIP3    H1 3321   3.754   2.395   1.274
 1119TIP3    H2 3322   3.868   2.438   1.364
 1120TIP3   OH2 3323   5.720   1.253   4.452
 1120TIP3    H1 3324   5.657   1.194   4.412
 1120TIP3    H2 3325   5.730   1.324   4.389
 1121TIP3   OH2 3326   3.730   0.170   0.199
 1121TIP3    H1 3327   3.754   0.226   0.125
 1121TIP3    H2 3328   3.749   0.222   0.276
 1122TIP3   OH2 3329   0.793   3.156   4.340
 1122TIP3    H1 3330   0.794   3.064   4.369
 1122TIP3    H2 3331   0.829   3.153   4.251
 1123TIP3   OH2 3332   4.115   5.916   4.589
 1123TIP3    H1 3333   4.210   5.910   4.585
 1123TIP3    H2 3334   4.097   5.961   4.671
 1124TIP3   OH2 3335   5.674   1.559   5.550
 1124TIP3    H1 3336   5.620   1.480   5.553
 1124TIP3    H2 3337   5.647   1.609   5.627
 1125TIP3   OH2 3338   0.869   6.590   1.376
 1125TIP3    H1 3339   0.785   6.544   1.380
 1125TIP3    H2 3340   0.870   6.632   1.290
 1126TIP3   OH2 3341   4.258   0.410   4.209
 1126TIP3    H1 3342   4.174   0.365   4.198
 1126TIP3    H2 3343   4.323   0.340   4.209
 1127TIP3   OH2 3344   3.228   4.534   5.649
 1127TIP3    H1 3345   3.262   4.520   5.737
 1127TIP3    H2 3346   3.203   4.626   5.647
 1128TIP3   OH2 3347   6.437   0.373   0.412
 1128TIP3    H1 3348   6.445   0.468   0.409
 1128TIP3    H2 3349   6.475   0.348   0.496
 1129TIP3   OH2 3350   6.332   5.591   0.336
 1129TIP3    H1 3351   6.288   5.506   0.333
 1129TIP3    H2 3352   6.423   5.572   0.313
 1130TIP3   OH2 3353   6.703   3.881   5.440
 1130TIP3    H1 3354   6.704   3.954   5.501
 1130TIP3    H2 3355   6.636   3.906   5.375
 1131TIP3   OH2 3356   3.826   1.490   3.610
 1131TIP3    H1 3357   3.895   1.455   3.666
 1131TIP3    H2 3358   3.869   1.557   3.558
 1132TIP3   OH2 3359   6.217   3.959   3.062
 1132TIP3    H1 3360   6.127   3.954   3.096
 1132TIP3    H2 3361   6.258   4.028   3.113
 1133TIP3   OH2 3362   0.816   0.894   4.898
 1133TIP3    H1 3363   0.892   0.951   4.910
 1133TIP3    H2 3364   0.750   0.950   4.857
 1134TIP3   OH2 3365   4.806   1.916   2.531
 1134TIP3    H1 3366   4.712   1.900   2.528
 1134TIP3    H2 3367   4.842   1.839   2.575
 1135TIP3   OH2 3368   5.429   6.004   2.022
 1135TIP3    H1 3369   5.384   5.923   1.997
 1135TIP3    H2 3370   5.360   6.060   2.058
 1136TIP3   OH2 3371   6.631   3.294   1.765
 1136TIP3    H1 3372   6.542   3.306   1.798
 1136TIP3    H2 3373   6.619   3.269   1.673
 1137TIP3   OH2 3374   3.347   3.138   5.031
 1137TIP3    H1 3375   3.384   3.087   4.959
 1137TIP3    H2 3376   3.253   3.120   5.026
 1138TIP3   OH2 3377   2.000   3.156   0.917
 1138TIP3    H1 3378   1.970   3.070   0.947
 1138TIP3    H2 3379   1.996   3.151   0.822
 1139TIP3   OH2 3380   1.046   3.786   1.073
 1139TIP3    H1 3381   1.068   3.863   1.126
 1139TIP3    H2 3382   0.991   3.820   1.003
 1140TIP3   OH2 3383   6.868   1.000   4.872
 1140TIP3    H1 3384   6.909   0.979   4.788
 1140TIP3    H2 3385   6.880   0.922   4.925
 1141TIP3   OH2 3386   6.407   5.117   3.186
 1141TIP3    H1 3387   6.478   5.117   3.251
 1141TIP3    H2 3388   6.327   5.111   3.238
 1142TIP3   OH2 3389   2.141   6.719   5.260
 1142TIP3    H1 3390   2.175   6.640   5.220
 1142TIP3    H2 3391   2.208   6.745   5.323
 1143TIP3   OH2 3392   0.554   3.437   3.479
 1143TIP3    H1 3393   0.600   3.513   3.515
 1143TIP3    H2 3394   0.547   3.376   3.553
 1144TIP3   OH2 3395   5.255   2.422   3.617
 1144TIP3    H1 3396   5.212   2.377   3.544
 1144TIP3    H2 3397   5.200   2.498   3.635
 1145TIP3   OH2 3398   6.544   0.727   4.983
 1145TIP3    H1 3399   6.618   0.746   5.042
 1145TIP3    H2 3400   6.553   0.634   4.963
 1146TIP3   OH2 3401   1.449   5.630   4.349
 1146TIP3    H1 3402   1.373   5.584   4.384
 1146TIP3    H2 3403   1.485   5.678   4.423
 1147TIP3   OH2 3404   6.190   1.597   1.834
 1147TIP3    H1 3405   6.197   1.686   1.799
 1147TIP3    H2 3406   6.106   1.564   1.801
 1148TIP3   OH2 3407   2.783   5.529   5.431
 1148TIP3    H1 3408   2.695   5.564   5.438
 1148TIP3    H2 3409   2.839   5.601   5.462
 1149TIP3   OH2 3410   4.758   1.152   0.909
 1149TIP3    H1 3411   4.690   1.085   0.902
 1149TIP3    H2 3412   4.714   1.227   0.950
 1150TIP3   OH2 3413   5.673   1.471   3.741
 1150TIP3    H1 3414   5.749   1.518   3.776
 1150TIP3    H2 3415   5.599   1.506   3.790
 1151TIP3   OH2 3416   3.607   3.120   0.637
 1151TIP3    H1 3417   3.596   3.176   0.560
 1151TIP3    H2 3418   3.629   3.034   0.601
 1152TIP3   OH2 3419   3.540   5.525   5.412
 1152TIP3    H1 3420   3.526   5.462   5.341
 1152TIP3    H2 3421   3.534   5.610   5.370
 1153TIP3   OH2 3422   5.683   5.448   5.101
 1153TIP3    H1 3423   5.692   5.444   5.006
 1153TIP3    H2 3424   5.639   5.367   5.125
 1154TIP3   OH2 3425   1.520   4.203   4.028
 1154TIP3    H1 3426   1.599   4.240   3.990
 1154TIP3    H2 3427   1.534   4.108   4.027
 1155TIP3   OH2 3428   3.348   3.774   5.337
 1155TIP3    H1 3429   3.332   3.685   5.368
 1155TIP3    H2 3430   3.441   3.788   5.353
 1156TIP3   OH2 3431   0.488   5.979   2.789
 1156TIP3    H1 3432   0.517   6.071   2.794
 1156TIP3    H2 3433   0.473   5.964   2.696
 1157TIP3   OH2 3434   6.248   6.496   1.173
 1157TIP3    H1 3435   6.286   6.560   1.233
 1157TIP3    H2 3436   6.324   6.457   1.129
 1158TIP3   OH2 3437   2.186   1.497   1.258
 1158TIP3    H1 3438   2.106   1.449   1.281
 1158TIP3    H2 3439   2.235   1.504   1.340
 1159TIP3   OH2 3440   0.356   5.727   5.579
 1159TIP3    H1 3441   0.307   5.802   5.547
 1159TIP3    H2 3442   0.432   5.764   5.623
 1160TIP3   OH2 3443   5.452   0.156   4.637
 1160TIP3    H1 3444   5.514   0.227   4.622
 1160TIP3    H2 3445   5.483   0.114   4.717
 1161TIP3   OH2 3446   1.001   5.497   2.605
 1161TIP3    H1 3447   1.025   5.585   2.576
 1161TIP3    H2 3448   0.917   5.479   2.563
 1162TIP3   OH2 3449   7.058   2.198   0.934
 1162TIP3    H1 3450   7.064   2.182   1.028
 1162TIP3    H2 3451   7.136   2.157   0.897
 1163TIP3   OH2 3452   2.755   5.021   1.397
 1163TIP3    H1 3453   2.707   4.963   1.455
 1163TIP3    H2 3454   2.688   5.072   1.352
 1164TIP3   OH2 3455   4.028   6.557   0.651
 1164TIP3    H1 3456   3.993   6.578   0.565
 1164TIP3    H2 3457   4.119   6.587   0.649
 1165TIP3   OH2 3458   3.046   5.848   5.762
 1165TIP3    H1 3459   2.983   5.886   5.702
 1165TIP3    H2 3460   3.033   5.895   5.844
 1166TIP3   OH2 3461   5.346   5.930   0.557
 1166TIP3    H1 3462   5.333   5.841   0.524
 1166TIP3    H2 3463   5.368   5.918   0.649
 1167TIP3   OH2 3464   5.045   3.486   3.202
 1167TIP3    H1 3465   4.979   3.556   3.198
 1167TIP3    H2 3466   4.993   3.405   3.203
 1168TIP3   OH2 3467   6.804   2.604   5.146
 1168TIP3    H1 3468   6.806   2.519   5.190
 1168TIP3    H2 3469   6.861   2.593   5.070
 1169TIP3   OH2 3470   5.997   2.661   5.112
 1169TIP3    H1 3471   6.064   2.617   5.059
 1169TIP3    H2 3472   5.984   2.602   5.186
 1170TIP3   OH2 3473   2.812   5.209   3.133
 1170TIP3    H1 3474   2.746   5.160   3.084
 1170TIP3    H2 3475   2.855   5.264   3.067
 1171TIP3   OH2 3476   1.264   3.640   2.803
 1171TIP3    H1 3477   1.198   3.659   2.736
 1171TIP3    H2 3478   1.248   3.549   2.827
 1172TIP3   OH2 3479   4.841   0.684   3.970
 1172TIP3    H1 3480   4.857   0.595   3.936
 1172TIP3    H2 3481   4.746   0.688   3.980
 1173TIP3   OH2 3482   4.991   4.401   5.029
 1173TIP3    H1 3483   5.019   4.371   5.116
 1173TIP3    H2 3484   4.986   4.321   4.977
 1174TIP3   OH2 3485   4.271   0.165   2.383
 1174TIP3    H1 3486   4.272   0.075   2.351
 1174TIP3    H2 3487   4.362   0.182   2.408
 1175TIP3   OH2 3488   1.268   1.361   4.474
 1175TIP3    H1 3489   1.348   1.312   4.460
 1175TIP3    H2 3490   1.230   1.372   4.387
 1176TIP3   OH2 3491   5.001   1.036   0.562
 1176TIP3    H1 3492   4.938   1.064   0.496
 1176TIP3    H2 3493   5.047   1.116   0.587
 1177TIP3   OH2 3494   0.131   4.308   0.823
 1177TIP3    H1 3495   0.048   4.329   0.866
 1177TIP3    H2 3496   0.105   4.272   0.738
 1178TIP3   OH2 3497   0.325   0.692   5.878
 1178TIP3    H1 3498   0.413   0.661   5.897
 1178TIP3    H2 3499   0.272   0.613   5.872
 1179TIP3   OH2 3500   1.951   2.593   3.462
 1179TIP3    H1 3501   1.954   2.571   3.555
 1179TIP3    H2 3502   2.030   2.644   3.446
 1180TIP3   OH2 3503   0.308   6.384   1.602
 1180TIP3    H1 3504   0.373   6.435   1.554
 1180TIP3    H2 3505   0.320   6.295   1.570
 1181TIP3   OH2 3506   4.212   4.458   3.353
 1181TIP3    H1 3507   4.281   4.407   3.309
 1181TIP3    H2 3508   4.217   4.431   3.444
 1182TIP3   OH2 3509   5.245   5.779   1.213
 1182TIP3    H1 3510   5.222   5.793   1.305
 1182TIP3    H2 3511   5.192   5.844   1.166
 1183TIP3   OH2 3512   0.662   3.953   3.095
 1183TIP3    H1 3513   0.687   3.871   3.137
 1183TIP3    H2 3514   0.689   4.021   3.156
 1184TIP3   OH2 3515   7.018   2.885   4.175
 1184TIP3    H1 3516   7.064   2.898   4.258
 1184TIP3    H2 3517   7.040   2.795   4.149
 1185TIP3   OH2 3518   2.538   0.882   0.125
 1185TIP3    H1 3519   2.598   0.901   0.197
 1185TIP3    H2 3520   2.573   0.801   0.086
 1186TIP3   OH2 3521   0.124   5.811   0.912
 1186TIP3    H1 3522   0.034   5.835   0.937
 1186TIP3    H2 3523   0.148   5.742   0.973
 1187TIP3   OH2 3524   4.452   0.601   0.872
 1187TIP3    H1 3525   4.511   0.527   0.859
 1187TIP3    H2 3526   4.426   0.626   0.783
 1188TIP3   OH2 3527   3.414   0.617   1.306
 1188TIP3    H1 3528   3.363   0.663   1.239
 1188TIP3    H2 3529   3.459   0.687   1.354
 1189TIP3   OH2 3530   6.538   6.639   1.735
 1189TIP3    H1 3531   6.502   6.553   1.757
 1189TIP3    H2 3532   6.466   6.686   1.696
 1190TIP3   OH2 3533   5.405   6.111   4.755
 1190TIP3    H1 3534   5.367   6.023   4.758
 1190TIP3    H2 3535   5.332   6.169   4.778
 1191TIP3   OH2 3536   7.001   2.836   1.880
 1191TIP3    H1 3537   7.021   2.928   1.864
 1191TIP3    H2 3538   7.056   2.789   1.817
 1192TIP3   OH2 3539   0.579   5.232   0.263
 1192TIP3    H1 3540   0.564   5.157   0.320
 1192TIP3    H2 3541   0.528   5.303   0.303
 1193TIP3   OH2 3542   4.496   5.952   0.744
 1193TIP3    H1 3543   4.501   6.040   0.706
 1193TIP3    H2 3544   4.564   5.903   0.698
 1194TIP3   OH2 3545   5.517   0.513   0.758
 1194TIP3    H1 3546   5.444   0.510   0.820
 1194TIP3    H2 3547   5.534   0.422   0.737
 1195TIP3   OH2 3548   6.801   2.559   1.344
 1195TIP3    H1 3549   6.833   2.469   1.354
 1195TIP3    H2 3550   6.777   2.586   1.432
 1196TIP3   OH2 3551   0.110   5.051   2.860
 1196TIP3    H1 3552   0.127   4.957   2.857
 1196TIP3    H2 3553   0.190   5.091   2.828
 1197TIP3   OH2 3554   3.744   1.671   1.955
 1197TIP3    H1 3555   3.791   1.646   1.875
 1197TIP3    H2 3556   3.814   1.697   2.015
 1198TIP3   OH2 3557   3.015   4.805   5.425
 1198TIP3    H1 3558   2.956   4.742   5.466
 1198TIP3    H2 3559   2.979   4.819   5.338
 1199TIP3   OH2 3560   5.211   2.763   0.978
 1199TIP3    H1 3561   5.156   2.841   0.970
 1199TIP3    H2 3562   5.151   2.690   0.972
 1200TIP3   OH2 3563   2.214   0.349   0.729
 1200TIP3    H1 3564   2.299   0.365   0.690
 1200TIP3    H2 3565   2.233   0.300   0.810
 1201TIP3   OH2 3566   4.260   6.532   2.301
 1201TIP3    H1 3567   4.191   6.577   2.252
 1201TIP3    H2 3568   4.265   6.578   2.385
 1202TIP3   OH2 3569   0.752   5.263   4.775
 1202TIP3    H1 3570   0.690   5.196   4.745
 1202TIP3    H2 3571   0.718   5.345   4.736
 1203TIP3   OH2 3572   4.031   0.054   1.238
 1203TIP3    H1 3573   3.976   0.006   1.299
 1203TIP3    H2 3574   4.120   0.036   1.267
 1204TIP3   OH2 3575   7.090   2.019   2.424
 1204TIP3    H1 3576   7.115   1.986   2.510
 1204TIP3    H2 3577   7.044   2.101   2.444
 1205TIP3   OH2 3578   2.736   1.001   1.102
 1205TIP3    H1 3579   2.767   0.919   1.065
 1205TIP3    H2 3580   2.673   1.034   1.039
 1206TIP3   OH2 3581   3.046   5.193   3.372
 1206TIP3    H1 3582   2.995   5.147   3.439
 1206TIP3    H2 3583   3.005   5.167   3.289
 1207TIP3   OH2 3584   3.038   2.005   4.182
 1207TIP3    H1 3585   3.043   2.096   4.154
 1207TIP3    H2 3586   3.124   1.986   4.221
 1208TIP3   OH2 3587   6.634   1.577   2.261
 1208TIP3    H1 3588   6.624   1.493   2.307
 1208TIP3    H2 3589   6.551   1.623   2.278
 1209TIP3   OH2 3590   2.415   6.087   5.879
 1209TIP3    H1 3591   2.324   6.089   5.849
 1209TIP3    H2 3592   2.466   6.107   5.801
 1210TIP3   OH2 3593   3.729   5.117   2.796
 1210TIP3    H1 3594   3.641   5.108   2.831
 1210TIP3    H2 3595   3.749   5.031   2.759
 1211TIP3   OH2 3596   6.987   4.552   1.467
 1211TIP3    H1 3597   6.975   4.613   1.540
 1211TIP3    H2 3598   6.947   4.470   1.497
 1212TIP3   OH2 3599   6.867   1.109   3.550
 1212TIP3    H1 3600   6.811   1.186   3.549
 1212TIP3    H2 3601   6.905   1.106   3.462
 1213TIP3   OH2 3602   6.861   0.015   2.609
 1213TIP3    H1 3603   6.886   0.075   2.679
 1213TIP3    H2 3604   6.939  -0.039   2.594
 1214TIP3   OH2 3605   6.462   2.023   4.938
 1214TIP3    H1 3606   6.426   1.962   5.003
 1214TIP3    H2 3607   6.484   1.967   4.863
 1215TIP3   OH2 3608   4.365   6.002   1.348
 1215TIP3    H1 3609   4.441   5.949   1.368
 1215TIP3    H2 3610   4.377   6.082   1.399
 1216TIP3   OH2 3611   1.549   5.133   0.904
 1216TIP3    H1 3612   1.626   5.101   0.951
 1216TIP3    H2 3613   1.562   5.103   0.814
 1217TIP3   OH2 3614   6.584   6.571   3.324
 1217TIP3    H1 3615   6.675   6.600   3.331
 1217TIP3    H2 3616   6.550   6.577   3.412
 1218TIP3   OH2 3617   2.033   2.310   2.768
 1218TIP3    H1 3618   1.939   2.303   2.784
 1218TIP3    H2 3619   2.053   2.402   2.784
 1219TIP3   OH2 3620   4.323   0.163   0.360
 1219TIP3    H1 3621   4.284   0.104   0.296
 1219TIP3    H2 3622   4.417   0.147   0.353
 1220TIP3   OH2 3623   1.545   1.980   1.381
 1220TIP3    H1 3624   1.628   1.959   1.422
 1220TIP3    H2 3625   1.565   2.052   1.321
 1221TIP3   OH2 3626   6.124   0.913   2.570
 1221TIP3    H1 3627   6.106   0.853   2.643
 1221TIP3    H2 3628   6.130   0.999   2.612
 1222TIP3   OH2 3629   2.040   2.631   1.705
 1222TIP3    H1 3630   1.963   2.640   1.649
 1222TIP3    H2 3631   2.012   2.665   1.790
 1223TIP3   OH2 3632   5.791   3.877   4.644
 1223TIP3    H1 3633   5.759   3.839   4.726
 1223TIP3    H2 3634   5.751   3.964   4.641
 1224TIP3   OH2 3635   2.042   5.831   2.527
 1224TIP3    H1 3636   2.128   5.798   2.500
 1224TIP3    H2 3637   2.050   5.847   2.621
 1225TIP3   OH2 3638   5.738   3.706   0.883
 1225TIP3    H1 3639   5.814   3.700   0.826
 1225TIP3    H2 3640   5.668   3.663   0.834
 1226TIP3   OH2 3641   5.007   3.050   1.347
 1226TIP3    H1 3642   5.026   3.105   1.423
 1226TIP3    H2 3643   5.093   3.020   1.317
 1227TIP3   OH2 3644   0.140   0.252   0.725
 1227TIP3    H1 3645   0.054   0.260   0.766
 1227TIP3    H2 3646   0.136   0.309   0.648
 1228TIP3   OH2 3647   0.518   0.433   4.898
 1228TIP3    H1 3648   0.551   0.387   4.821
 1228TIP3    H2 3649   0.543   0.524   4.885
 1229TIP3   OH2 3650   2.803   0.094   0.555
 1229TIP3    H1 3651   2.897   0.076   0.565
 1229TIP3    H2 3652   2.793   0.119   0.463
 1230TIP3   OH2 3653   1.923   0.785   5.399
 1230TIP3    H1 3654   1.897   0.837   5.323
 1230TIP3    H2 3655   1.966   0.847   5.457
 1231TIP3   OH2 3656   6.249   2.506   3.546
 1231TIP3    H1 3657   6.291   2.590   3.566
 1231TIP3    H2 3658   6.260   2.454   3.625
 1232TIP3   OH2 3659   5.147   0.365   2.002
 1232TIP3    H1 3660   5.148   0.273   1.974
 1232TIP3    H2 3661   5.111   0.412   1.927
 1233TIP3   OH2 3662   2.280   5.963   4.544
 1233TIP3    H1 3663   2.350   5.960   4.479
 1233TIP3    H2 3664   2.301   6.038   4.599
 1234TIP3   OH2 3665   5.097   6.740   4.213
 1234TIP3    H1 3666   5.122   6.650   4.235
 1234TIP3    H2 3667   5.044   6.769   4.288
 1235TIP3   OH2 3668   2.124   1.109   2.380
 1235TIP3    H1 3669   2.157   1.135   2.294
 1235TIP3    H2 3670   2.183   1.152   2.442
 1236TIP3   OH2 3671   6.601   0.187   5.211
 1236TIP3    H1 3672   6.665   0.255   5.235
 1236TIP3    H2 3673   6.634   0.152   5.129
 1237TIP3   OH2 3674   1.716   0.302   3.482
 1237TIP3    H1 3675   1.732   0.362   3.408
 1237TIP3    H2 3676   1.625   0.318   3.506
 1238TIP3   OH2 3677   1.471   1.745   5.065
 1238TIP3    H1 3678   1.404   1.772   5.002
 1238TIP3    H2 3679   1.545   1.802   5.047
 1239TIP3   OH2 3680   5.101   3.942   1.801
 1239TIP3    H1 3681   5.144   3.874   1.853
 1239TIP3    H2 3682   5.170   3.977   1.745
 1240TIP3   OH2 3683   5.115   4.809   0.712
 1240TIP3    H1 3684   5.168   4.796   0.634
 1240TIP3    H2 3685   5.110   4.904   0.722
 1241TIP3   OH2 3686   6.884   3.174   1.763
 1241TIP3    H1 3687   6.950   3.139   1.823
 1241TIP3    H2 3688   6.822   3.219   1.819
 1242TIP3   OH2 3689   0.550   4.901   3.236
 1242TIP3    H1 3690   0.541   4.994   3.216
 1242TIP3    H2 3691   0.576   4.862   3.153
 1243TIP3   OH2 3692   2.971   1.502   1.911
 1243TIP3    H1 3693   2.995   1.497   1.819
 1243TIP3    H2 3694   2.949   1.412   1.935
 1244TIP3   OH2 3695   7.214   0.587   1.202
 1244TIP3    H1 3696   7.223   0.570   1.108
 1244TIP3    H2 3697   7.156   0.663   1.207
 1245TIP3   OH2 3698   6.110   6.032   4.178
 1245TIP3    H1 3699   6.191   6.020   4.128
 1245TIP3    H2 3700   6.110   5.959   4.240
 1246TIP3   OH2 3701   3.041   4.210   2.728
 1246TIP3    H1 3702   3.083   4.133   2.766
 1246TIP3    H2 3703   3.107   4.279   2.736
 1247TIP3   OH2 3704   4.298   5.347   1.092
 1247TIP3    H1 3705   4.298   5.433   1.134
 1247TIP3    H2 3706   4.299   5.366   0.998
 1248TIP3   OH2 3707   2.292   0.985   5.666
 1248TIP3    H1 3708   2.267   1.044   5.596
 1248TIP3    H2 3709   2.278   0.897   5.630
 1249TIP3   OH2 3710   5.981   1.050   1.022
 1249TIP3    H1 3711   5.926   1.001   1.084
 1249TIP3    H2 3712   6.057   0.994   1.008
 1250TIP3   OH2 3713   2.214   1.413   1.968
 1250TIP3    H1 3714   2.269   1.425   1.891
 1250TIP3    H2 3715   2.227   1.494   2.018
 1251TIP3   OH2 3716   5.440   2.613   0.907
 1251TIP3    H1 3717   5.420   2.550   0.976
 1251TIP3    H2 3718   5.376   2.684   0.921
 1252TIP3   OH2 3719   3.213   0.709   4.614
 1252TIP3    H1 3720   3.296   0.753   4.633
 1252TIP3    H2 3721   3.148   0.779   4.620
 1253TIP3   OH2 3722   6.770   4.821   0.638
 1253TIP3    H1 3723   6.730   4.764   0.571
 1253TIP3    H2 3724   6.787   4.903   0.592
 1254TIP3   OH2 3725   3.362   4.854   2.443
 1254TIP3    H1 3726   3.363   4.893   2.531
 1254TIP3    H2 3727   3.406   4.769   2.455
 1255TIP3   OH2 3728   6.628   3.422   0.476
 1255TIP3    H1 3729   6.620   3.429   0.380
 1255TIP3    H2 3730   6.671   3.338   0.490
 1256TIP3   OH2 3731   2.388   4.216   1.271
 1256TIP3    H1 3732   2.352   4.171   1.195
 1256TIP3    H2 3733   2.385   4.309   1.248
 1257TIP3   OH2 3734   6.381   2.678   5.377
 1257TIP3    H1 3735   6.300   2.719   5.348
 1257TIP3    H2 3736   6.445   2.700   5.310
 1258TIP3   OH2 3737   4.916   6.028   4.628
 1258TIP3    H1 3738   4.852   6.072   4.571
 1258TIP3    H2 3739   4.866   6.006   4.707
 1259TIP3   OH2 3740   6.067   4.338   3.619
 1259TIP3    H1 3741   6.143   4.396   3.624
 1259TIP3    H2 3742   6.068   4.306   3.529
 1260TIP3   OH2 3743   7.058   6.692   1.474
 1260TIP3    H1 3744   7.075   6.598   1.474
 1260TIP3    H2 3745   7.107   6.725   1.550
 1261TIP3   OH2 3746   5.761   0.766   0.223
 1261TIP3    H1 3747   5.817   0.828   0.176
 1261TIP3    H2 3748   5.673   0.783   0.189
 1262TIP3   OH2 3749   3.247   1.633   1.823
 1262TIP3    H1 3750   3.190   1.691   1.872
 1262TIP3    H2 3751   3.313   1.691   1.785
 1263TIP3   OH2 3752   3.778   5.397   1.254
 1263TIP3    H1 3753   3.748   5.430   1.170
 1263TIP3    H2 3754   3.748   5.306   1.257
 1264TIP3   OH2 3755   6.051   0.157   5.358
 1264TIP3    H1 3756   6.055   0.076   5.409
 1264TIP3    H2 3757   6.014   0.221   5.419
 1265TIP3   OH2 3758   0.414   2.984   3.111
 1265TIP3    H1 3759   0.339   3.042   3.127
 1265TIP3    H2 3760   0.377   2.911   3.061
 1266TIP3   OH2 3761   0.206   5.853   0.199
 1266TIP3    H1 3762   0.159   5.797   0.260
 1266TIP3    H2 3763   0.295   5.857   0.234
 1267TIP3   OH2 3764   6.285   5.311   1.484
 1267TIP3    H1 3765   6.346   5.284   1.415
 1267TIP3    H2 3766   6.214   5.355   1.436
 1268TIP3   OH2 3767   0.257   3.078   3.381
 1268TIP3    H1 3768   0.281   3.164   3.415
 1268TIP3    H2 3769   0.338   3.027   3.384
 1269TIP3   OH2 3770   3.030   1.589   4.769
 1269TIP3    H1 3771   3.111   1.539   4.770
 1269TIP3    H2 3772   2.963   1.526   4.743
 1270TIP3   OH2 3773   2.653   5.341   4.573
 1270TIP3    H1 3774   2.711   5.307   4.505
 1270TIP3    H2 3775   2.566   5.311   4.547
 1271TIP3   OH2 3776   4.220   3.488   1.605
 1271TIP3    H1 3777   4.278   3.555   1.569
 1271TIP3    H2 3778   4.271   3.448   1.676
 1272TIP3   OH2 3779   1.497   0.954   4.958
 1272TIP3    H1 3780   1.510   0.892   4.886
 1272TIP3    H2 3781   1.494   1.040   4.916
 1273TIP3   OH2 3782   7.069   0.812   0.048
 1273TIP3    H1 3783   7.109   0.886   0.094
 1273TIP3    H2 3784   7.060   0.842  -0.043
 1274TIP3   OH2 3785   6.841   1.074   2.879
 1274TIP3    H1 3786   6.902   1.001   2.868
 1274TIP3    H2 3787   6.889   1.151   2.848
 1275TIP3   OH2 3788   3.434   1.118   4.512
 1275TIP3    H1 3789   3.525   1.148   4.502
 1275TIP3    H2 3790   3.394   1.136   4.427
 1276TIP3   OH2 3791   4.835   0.657   2.500
 1276TIP3    H1 3792   4.866   0.567   2.488
 1276TIP3    H2 3793   4.772   0.652   2.572
 1277TIP3   OH2 3794   5.298   5.063   1.680
 1277TIP3    H1 3795   5.228   5.041   1.741
 1277TIP3    H2 3796   5.375   5.017   1.713
 1278TIP3   OH2 3797   1.325   5.630   4.086
 1278TIP3    H1 3798   1.264   5.557   4.097
 1278TIP3    H2 3799   1.386   5.621   4.158
 1279TIP3   OH2 3800   0.554   0.755   4.269
 1279TIP3    H1 3801   0.618   0.794   4.328
 1279TIP3    H2 3802   0.606   0.724   4.195
 1280TIP3   OH2 3803   6.644   6.731   4.644
 1280TIP3    H1 3804   6.565   6.757   4.693
 1280TIP3    H2 3805   6.661   6.641   4.672
 1281TIP3   OH2 3806   2.011   6.044   3.650
 1281TIP3    H1 3807   1.972   6.030   3.736
 1281TIP3    H2 3808   2.040   5.957   3.622
 1282TIP3   OH2 3809   3.667   3.436   4.961
 1282TIP3    H1 3810   3.635   3.453   5.049
 1282TIP3    H2 3811   3.679   3.341   4.959
 1283TIP3   OH2 3812   4.944   4.613   0.035
 1283TIP3    H1 3813   4.990   4.658   0.106
 1283TIP3    H2 3814   4.898   4.541   0.077
 1284TIP3   OH2 3815   0.972   4.357   2.984
 1284TIP3    H1 3816   0.894   4.410   3.004
 1284TIP3    H2 3817   0.990   4.375   2.891
 1285TIP3   OH2 3818   5.413   2.810   1.785
 1285TIP3    H1 3819   5.482   2.864   1.747
 1285TIP3    H2 3820   5.458   2.752   1.846
 1286TIP3   OH2 3821   2.839   5.620   4.134
 1286TIP3    H1 3822   2.903   5.550   4.125
 1286TIP3    H2 3823   2.796   5.626   4.049
 1287TIP3   OH2 3824   4.642   1.855   3.745
 1287TIP3    H1 3825   4.572   1.817   3.799
 1287TIP3    H2 3826   4.596   1.913   3.684
 1288TIP3   OH2 3827   6.380   2.447   2.753
 1288TIP3    H1 3828   6.361   2.402   2.835
 1288TIP3    H2 3829   6.452   2.397   2.714
 1289TIP3   OH2 3830   0.866   0.851   1.532
 1289TIP3    H1 3831   0.866   0.789   1.604
 1289TIP3    H2 3832   0.785   0.833   1.484
 1290TIP3   OH2 3833   3.972   1.677   3.495
 1290TIP3    H1 3834   4.009   1.677   3.407
 1290TIP3    H2 3835   4.047   1.692   3.553
 1291TIP3   OH2 3836   0.119   3.058   5.871
 1291TIP3    H1 3837   0.146   3.107   5.793
 1291TIP3    H2 3838   0.200   3.029   5.911
 1292TIP3   OH2 3839   2.092   1.141   2.824
 1292TIP3    H1 3840   2.001   1.124   2.802
 1292TIP3    H2 3841   2.133   1.165   2.740
 1293TIP3   OH2 3842   1.388   5.902   2.004
 1293TIP3    H1 3843   1.481   5.918   1.995
 1293TIP3    H2 3844   1.365   5.845   1.931
 1294TIP3   OH2 3845   4.536   4.743   4.200
 1294TIP3    H1 3846   4.446   4.746   4.166
 1294TIP3    H2 3847   4.536   4.801   4.276
 1295TIP3   OH2 3848   7.082   5.291   4.537
 1295TIP3    H1 3849   7.101   5.264   4.447
 1295TIP3    H2 3850   7.014   5.230   4.566
 1296TIP3   OH2 3851   6.574   5.805   1.963
 1296TIP3    H1 3852   6.479   5.813   1.969
 1296TIP3    H2 3853   6.607   5.873   2.023
 1297TIP3   OH2 3854   4.467   6.391   1.070
 1297TIP3    H1 3855   4.550   6.433   1.046
 1297TIP3    H2 3856   4.486   6.344   1.151
 1298TIP3   OH2 3857   6.107   5.286   5.026
 1298TIP3    H1 3858   6.127   5.354   4.961
 1298TIP3    H2 3859   6.035   5.322   5.077
 1299TIP3   OH2 3860   5.443   5.640   5.526
 1299TIP3    H1 3861   5.538   5.629   5.532
 1299TIP3    H2 3862   5.419   5.604   5.441
 1300TIP3   OH2 3863   1.839   6.515   1.037
 1300TIP3    H1 3864   1.808   6.549   0.952
 1300TIP3    H2 3865   1.788   6.563   1.102
 1301TIP3   OH2 3866   1.920   4.956   4.980
 1301TIP3    H1 3867   1.840   4.928   4.936
 1301TIP3    H2 3868   1.931   5.047   4.953
 1302TIP3   OH2 3869   1.620   1.298   1.439
 1302TIP3    H1 3870   1.554   1.229   1.432
 1302TIP3    H2 3871   1.588   1.367   1.381
 1303TIP3   OH2 3872   6.381   1.701   2.248
 1303TIP3    H1 3873   6.318   1.635   2.219
 1303TIP3    H2 3874   6.334   1.784   2.241
 1304TIP3   OH2 3875   4.661   1.298   5.392
 1304TIP3    H1 3876   4.625   1.307   5.481
 1304TIP3    H2 3877   4.586   1.278   5.338
 1305TIP3   OH2 3878   1.064   2.986   4.412
 1305TIP3    H1 3879   1.048   2.894   4.389
 1305TIP3    H2 3880   1.001   3.004   4.482
 1306TIP3   OH2 3881   1.878   4.686   4.727
 1306TIP3    H1 3882   1.940   4.727   4.667
 1306TIP3    H2 3883   1.796   4.732   4.713
 1307TIP3   OH2 3884   2.884   6.433   3.210
 1307TIP3    H1 3885   2.818   6.482   3.260
 1307TIP3    H2 3886   2.850   6.344   3.207
 1308TIP3   OH2 3887   4.322   1.766   0.268
 1308TIP3    H1 3888   4.387   1.696   0.275
 1308TIP3    H2 3889   4.299   1.787   0.358
 1309TIP3   OH2 3890   2.904   5.899   1.034
 1309TIP3    H1 3891   2.998   5.912   1.030
 1309TIP3    H2 3892   2.886   5.827   0.973
 1310TIP3   OH2 3893   7.147   5.103   2.520
 1310TIP3    H1 3894   7.065   5.085   2.566
 1310TIP3    H2 3895   7.164   5.196   2.535
 1311TIP3   OH2 3896   5.966   4.453   1.315
 1311TIP3    H1 3897   6.008   4.414   1.392
 1311TIP3    H2 3898   5.943   4.541   1.342
 1312TIP3   OH2 3899   0.863   6.120   5.785
 1312TIP3    H1 3900   0.818   6.144   5.704
 1312TIP3    H2 3901   0.878   6.026   5.777
 1313TIP3   OH2 3902   2.919   1.682   5.019
 1313TIP3    H1 3903   2.849   1.617   5.024
 1313TIP3    H2 3904   2.974   1.653   4.946
 1314TIP3   OH2 3905   5.042   6.443   3.000
 1314TIP3    H1 3906   5.127   6.469   3.036
 1314TIP3    H2 3907   4.983   6.447   3.076
 1315TIP3   OH2 3908   6.721   0.625   1.166
 1315TIP3    H1 3909   6.650   0.568   1.137
 1315TIP3    H2 3910   6.750   0.586   1.248
 1316TIP3   OH2 3911   0.751   2.563   0.946
 1316TIP3    H1 3912   0.747   2.650   0.907
 1316TIP3    H2 3913   0.843   2.537   0.939
 1317TIP3   OH2 3914   3.771   5.726   1.663
 1317TIP3    H1 3915   3.722   5.676   1.597
 1317TIP3    H2 3916   3.835   5.664   1.698
 1318TIP3   OH2 3917   5.299   6.342   3.402
 1318TIP3    H1 3918   5.314   6.436   3.394
 1318TIP3    H2 3919   5.203   6.332   3.399
 1319TIP3   OH2 3920   5.874   2.984   0.641
 1319TIP3    H1 3921   5.862   2.973   0.547
 1319TIP3    H2 3922   5.864   2.896   0.677
 1320TIP3   OH2 3923   2.928   1.378   0.493
 1320TIP3    H1 3924   2.945   1.358   0.585
 1320TIP3    H2 3925   2.843   1.336   0.475
 1321TIP3   OH2 3926   5.234   1.120   3.526
 1321TIP3    H1 3927   5.329   1.123   3.522
 1321TIP3    H2 3928   5.205   1.172   3.450
 1322TIP3   OH2 3929   3.562   3.818   3.670
 1322TIP3    H1 3930   3.616   3.872   3.613
 1322TIP3    H2 3931   3.510   3.880   3.720
 1323TIP3   OH2 3932   4.065   4.296   2.410
 1323TIP3    H1 3933   4.064   4.210   2.368
 1323TIP3    H2 3934   4.130   4.288   2.479
 1324TIP3   OH2 3935   1.806   6.474   2.720
 1324TIP3    H1 3936   1.778   6.563   2.695
 1324TIP3    H2 3937   1.745   6.416   2.675
 1325TIP3   OH2 3938   1.544   5.383   5.804
 1325TIP3    H1 3939   1.512   5.468   5.834
 1325TIP3    H2 3940   1.639   5.394   5.797
 1326TIP3   OH2 3941   1.904   5.775   0.946
 1326TIP3    H1 3942   1.928   5.860   0.908
 1326TIP3    H2 3943   1.909   5.714   0.873
 1327TIP3   OH2 3944   1.865   0.921   4.252
 1327TIP3    H1 3945   1.809   0.899   4.177
 1327TIP3    H2 3946   1.931   0.852   4.254
 1328TIP3   OH2 3947   5.820   2.804   3.131
 1328TIP3    H1 3948   5.878   2.755   3.073
 1328TIP3    H2 3949   5.848   2.781   3.219
 1329TIP3   OH2 3950   0.437   2.069   4.787
 1329TIP3    H1 3951   0.342   2.080   4.790
 1329TIP3    H2 3952   0.451   1.977   4.809
 1330TIP3   OH2 3953   3.220   6.435   3.847
 1330TIP3    H1 3954   3.173   6.354   3.868
 1330TIP3    H2 3955   3.275   6.413   3.772
 1331TIP3   OH2 3956   0.290   2.890   1.300
 1331TIP3    H1 3957   0.289   2.970   1.247
 1331TIP3    H2 3958   0.251   2.916   1.383
 1332TIP3   OH2 3959   3.627   4.615   1.689
 1332TIP3    H1 3960   3.716   4.586   1.706
 1332TIP3    H2 3961   3.572   4.543   1.719
 1333TIP3   OH2 3962   5.821   2.932   4.751
 1333TIP3    H1 3963   5.910   2.922   4.784
 1333TIP3    H2 3964   5.794   2.844   4.726
 1334TIP3   OH2 3965   1.816   2.806   3.860
 1334TIP3    H1 3966   1.773   2.843   3.783
 1334TIP3    H2 3967   1.836   2.881   3.916
 1335TIP3   OH2 3968   4.946   4.044   5.855
 1335TIP3    H1 3969   5.032   4.004   5.843
 1335TIP3    H2 3970   4.884   3.972   5.842
 1336TIP3   OH2 3971   4.106   0.224   3.144
 1336TIP3    H1 3972   4.174   0.177   3.191
 1336TIP3    H2 3973   4.076   0.163   3.077
 1337TIP3   OH2 3974   1.597   4.708   3.284
 1337TIP3    H1 3975   1.594   4.617   3.311
 1337TIP3    H2 3976   1.529   4.716   3.217
 1338TIP3   OH2 3977   3.545   5.108   2.567
 1338TIP3    H1 3978   3.549   5.078   2.476
 1338TIP3    H2 3979   3.632   5.090   2.602
 1339TIP3   OH2 3980   2.839   4.877   3.706
 1339TIP3    H1 3981   2.898   4.948   3.730
 1339TIP3    H2 3982   2.803   4.846   3.790
 1340TIP3   OH2 3983   5.861   6.671   2.949
 1340TIP3    H1 3984   5.954   6.649   2.945
 1340TIP3    H2 3985   5.825   6.612   3.015
 1341TIP3   OH2 3986   7.003   1.155   0.011
 1341TIP3    H1 3987   6.927   1.099   0.026
 1341TIP3    H2 3988   6.980   1.237   0.055
 1342TIP3   OH2 3989   2.093   1.087   3.345
 1342TIP3    H1 3990   2.146   1.155   3.304
 1342TIP3    H2 3991   2.096   1.107   3.438
 1343TIP3   OH2 3992   2.755   6.202   0.467
 1343TIP3    H1 3993   2.766   6.195   0.372
 1343TIP3    H2 3994   2.843   6.222   0.499
 1344TIP3   OH2 3995   4.350   3.743   1.777
 1344TIP3    H1 3996   4.305   3.781   1.853
 1344TIP3    H2 3997   4.427   3.701   1.814
 1345TIP3   OH2 3998   1.100   5.256   4.452
 1345TIP3    H1 3999   1.144   5.333   4.416
 1345TIP3    H2 4000   1.080   5.202   4.375
 1346TIP3   OH2 4001   1.131   1.306   4.862
 1346TIP3    H1 4002   1.130   1.355   4.780
 1346TIP3    H2 4003   1.121   1.373   4.930
 1347TIP3   OH2 4004   3.529   4.461   5.840
 1347TIP3    H1 4005   3.485   4.389   5.794
 1347TIP3    H2 4006   3.459   4.507   5.886
 1348TIP3   OH2 4007   0.371   3.271   3.706
 1348TIP3    H1 4008   0.430   3.196   3.711
 1348TIP3    H2 4009   0.391   3.323   3.783
 1349TIP3   OH2 4010   3.594   0.386   1.702
 1349TIP3    H1 4011   3.647   0.440   1.760
 1349TIP3    H2 4012   3.596   0.299   1.741
 1350TIP3   OH2 4013   2.096   3.280   3.692
 1350TIP3    H1 4014   2.178   3.308   3.733
 1350TIP3    H2 4015   2.033   3.349   3.715
 1351TIP3   OH2 4016   2.308   3.827   5.803
 1351TIP3    H1 4017   2.353   3.883   5.866
 1351TIP3    H2 4018   2.338   3.738   5.823
 1352TIP3   OH2 4019   4.581   4.076   5.780
 1352TIP3    H1 4020   4.613   4.157   5.821
 1352TIP3    H2 4021   4.517   4.042   5.842
 1353TIP3   OH2 4022   0.807   6.273   0.877
 1353TIP3    H1 4023   0.862   6.198   0.898
 1353TIP3    H2 4024   0.831   6.296   0.787
 1354TIP3   OH2 4025   1.102   3.332   5.420
 1354TIP3    H1 4026   1.108   3.320   5.514
 1354TIP3    H2 4027   1.075   3.424   5.409
 1355TIP3   OH2 4028   4.538   2.091   2.750
 1355TIP3    H1 4029   4.583   2.006   2.747
 1355TIP3    H2 4030   4.446   2.068   2.765
 1356TIP3   OH2 4031   7.053   6.550   2.195
 1356TIP3    H1 4032   7.066   6.499   2.115
 1356TIP3    H2 4033   6.991   6.618   2.170
 1357TIP3   OH2 4034   6.760   2.536   4.221
 1357TIP3    H1 4035   6.792   2.552   4.132
 1357TIP3    H2 4036   6.837   2.503   4.268
 1358TIP3   OH2 4037   0.542   4.271   4.053
 1358TIP3    H1 4038   0.539   4.344   4.115
 1358TIP3    H2 4039   0.458   4.275   4.008
 1359TIP3   OH2 4040   3.254   0.991   2.933
 1359TIP3    H1 4041   3.312   1.011   3.007
 1359TIP3    H2 4042   3.247   0.896   2.933
 1360TIP3   OH2 4043   3.641   0.832   1.956
 1360TIP3    H1 4044   3.647   0.919   1.915
 1360TIP3    H2 4045   3.654   0.849   2.049
 1361TIP3   OH2 4046   3.420   1.778   1.669
 1361TIP3    H1 4047   3.475   1.799   1.744
 1361TIP3    H2 4048   3.375   1.860   1.649
 1362TIP3   OH2 4049   3.793   4.298   3.701
 1362TIP3    H1 4050   3.794   4.361   3.773
 1362TIP3    H2 4051   3.710   4.251   3.711
 1363TIP3   OH2 4052   1.355   0.259   4.840
 1363TIP3    H1 4053   1.325   0.350   4.837
 1363TIP3    H2 4054   1.275   0.207   4.846
 1364TIP3   OH2 4055   3.723  -0.016   1.124
 1364TIP3    H1 4056   3.642  -0.014   1.174
 1364TIP3    H2 4057   3.792   0.006   1.187
 1365TIP3   OH2 4058   1.381   0.399   1.165
 1365TIP3    H1 4059   1.335   0.318   1.191
 1365TIP3    H2 4060   1.474   0.377   1.172
 1366TIP3   OH2 4061   2.218   2.278   0.120
 1366TIP3    H1 4062   2.268   2.358   0.137
 1366TIP3    H2 4063   2.185   2.288   0.030
 1367TIP3   OH2 4064   4.661   6.425   1.561
 1367TIP3    H1 4065   4.588   6.419   1.623
 1367TIP3    H2 4066   4.739   6.422   1.617
 1368TIP3   OH2 4067   2.542   1.201   0.646
 1368TIP3    H1 4068   2.562   1.174   0.557
 1368TIP3    H2 4069   2.467   1.147   0.672
 1369TIP3   OH2 4070   3.491   5.296   1.442
 1369TIP3    H1 4071   3.413   5.258   1.401
 1369TIP3    H2 4072   3.562   5.239   1.415
 1370TIP3   OH2 4073   5.644   3.583   2.169
 1370TIP3    H1 4074   5.714   3.571   2.105
 1370TIP3    H2 4075   5.567   3.544   2.128
 1371TIP3   OH2 4076   5.420   4.031   2.178
 1371TIP3    H1 4077   5.480   4.084   2.230
 1371TIP3    H2 4078   5.333   4.068   2.197
 1372TIP3   OH2 4079   2.938   1.644   2.833
 1372TIP3    H1 4080   3.004   1.681   2.775
 1372TIP3    H2 4081   2.874   1.603   2.775
 1373TIP3   OH2 4082   0.539   0.541   4.443
 1373TIP3    H1 4083   0.606   0.591   4.488
 1373TIP3    H2 4084   0.519   0.591   4.365
 1374TIP3   OH2 4085   0.215   5.365   0.373
 1374TIP3    H1 4086   0.167   5.338   0.451
 1374TIP3    H2 4087   0.152   5.355   0.301
 1375TIP3   OH2 4088   0.136   4.138   3.666
 1375TIP3    H1 4089   0.185   4.198   3.610
 1375TIP3    H2 4090   0.069   4.100   3.609
 1376TIP3   OH2 4091   5.636   6.205   0.018
 1376TIP3    H1 4092   5.648   6.117   0.053
 1376TIP3    H2 4093   5.649   6.263   0.093
 1377TIP3   OH2 4094   2.740   5.887   3.022
 1377TIP3    H1 4095   2.755   5.866   2.929
 1377TIP3    H2 4096   2.691   5.970   3.020
 1378TIP3   OH2 4097   1.306   1.582   0.713
 1378TIP3    H1 4098   1.327   1.586   0.807
 1378TIP3    H2 4099   1.224   1.630   0.705
 1379TIP3   OH2 4100   6.181   4.708   0.114
 1379TIP3    H1 4101   6.276   4.709   0.099
 1379TIP3    H2 4102   6.152   4.624   0.080
 1380TIP3   OH2 4103   0.356   5.135   3.392
 1380TIP3    H1 4104   0.445   5.160   3.418
 1380TIP3    H2 4105   0.301   5.206   3.427
 1381TIP3   OH2 4106   6.279   1.423   5.612
 1381TIP3    H1 4107   6.276   1.420   5.708
 1381TIP3    H2 4108   6.235   1.505   5.589
 1382TIP3   OH2 4109   6.038   2.998   2.786
 1382TIP3    H1 4110   5.948   3.030   2.793
 1382TIP3    H2 4111   6.071   3.000   2.876
 1383TIP3   OH2 4112   2.659   4.744   2.996
 1383TIP3    H1 4113   2.631   4.653   2.997
 1383TIP3    H2 4114   2.684   4.762   3.087
 1384TIP3   OH2 4115   1.223   1.279   0.158
 1384TIP3    H1 4116   1.220   1.375   0.158
 1384TIP3    H2 4117   1.213   1.255   0.250
 1385TIP3   OH2 4118   2.120   3.509   1.070
 1385TIP3    H1 4119   2.182   3.449   1.029
 1385TIP3    H2 4120   2.046   3.454   1.095
 1386TIP3   OH2 4121   3.351   2.125   0.543
 1386TIP3    H1 4122   3.345   2.104   0.636
 1386TIP3    H2 4123   3.268   2.094   0.506
 1387TIP3   OH2 4124   5.037   6.535   1.412
 1387TIP3    H1 4125   5.024   6.602   1.479
 1387TIP3    H2 4126   4.957   6.539   1.359
 1388TIP3   OH2 4127   0.309   6.628   2.453
 1388TIP3    H1 4128   0.372   6.561   2.427
 1388TIP3    H2 4129   0.357   6.687   2.510
 1389TIP3   OH2 4130   2.284   3.352   0.914
 1389TIP3    H1 4131   2.290   3.288   0.843
 1389TIP3    H2 4132   2.376   3.372   0.936
 1390TIP3   OH2 4133   4.491   4.304   5.587
 1390TIP3    H1 4134   4.563   4.247   5.614
 1390TIP3    H2 4135   4.485   4.293   5.492
 1391TIP3   OH2 4136   3.931   5.783   3.731
 1391TIP3    H1 4137   3.868   5.713   3.711
 1391TIP3    H2 4138   3.904   5.817   3.816
 1392TIP3   OH2 4139   0.672   6.117   1.285
 1392TIP3    H1 4140   0.738   6.048   1.288
 1392TIP3    H2 4141   0.617   6.094   1.210
 1393TIP3   OH2 4142   0.883   4.514   0.385
 1393TIP3    H1 4143   0.820   4.471   0.443
 1393TIP3    H2 4144   0.881   4.606   0.412
 1394TIP3   OH2 4145   5.741   0.270   3.261
 1394TIP3    H1 4146   5.746   0.182   3.224
 1394TIP3    H2 4147   5.655   0.274   3.304
 1395TIP3   OH2 4148   5.482   1.982   3.368
 1395TIP3    H1 4149   5.563   1.932   3.356
 1395TIP3    H2 4150   5.482   2.046   3.297
 1396TIP3   OH2 4151   2.879   3.968   2.589
 1396TIP3    H1 4152   2.974   3.955   2.598
 1396TIP3    H2 4153   2.845   3.955   2.677
 1397TIP3   OH2 4154   4.900   1.070   1.149
 1397TIP3    H1 4155   4.842   1.111   1.086
 1397TIP3    H2 4156   4.923   0.985   1.109
 1398TIP3   OH2 4157   6.143   1.923   1.079
 1398TIP3    H1 4158   6.216   1.884   1.126
 1398TIP3    H2 4159   6.069   1.916   1.139
 1399TIP3   OH2 4160   6.497   1.832   0.739
 1399TIP3    H1 4161   6.553   1.866   0.669
 1399TIP3    H2 4162   6.419   1.888   0.736
 1400TIP3   OH2 4163   5.773   5.369   3.621
 1400TIP3    H1 4164   5.735   5.295   3.669
 1400TIP3    H2 4165   5.815   5.422   3.688
 1401TIP3   OH2 4166   6.689   5.877   3.328
 1401TIP3    H1 4167   6.618   5.878   3.392
 1401TIP3    H2 4168   6.756   5.934   3.365
 1402TIP3   OH2 4169   1.597   6.320   2.302
 1402TIP3    H1 4170   1.534   6.264   2.257
 1402TIP3    H2 4171   1.667   6.335   2.238
 1403TIP3   OH2 4172   3.629   1.007   3.876
 1403TIP3    H1 4173   3.640   1.101   3.862
 1403TIP3    H2 4174   3.605   0.973   3.790
 1404TIP3   OH2 4175   5.604   0.355   4.288
 1404TIP3    H1 4176   5.695   0.366   4.259
 1404TIP3    H2 4177   5.611   0.325   4.379
 1405TIP3   OH2 4178   0.354   6.725   1.811
 1405TIP3    H1 4179   0.447   6.714   1.828
 1405TIP3    H2 4180   0.348   6.741   1.717
 1406TIP3   OH2 4181   5.007   1.589   2.460
 1406TIP3    H1 4182   5.087   1.641   2.467
 1406TIP3    H2 4183   4.960   1.606   2.541
 1407TIP3   OH2 4184   0.235   3.638   0.544
 1407TIP3    H1 4185   0.282   3.717   0.520
 1407TIP3    H2 4186   0.234   3.585   0.464
 1408TIP3   OH2 4187   0.050   6.233   0.343
 1408TIP3    H1 4188   0.135   6.212   0.305
 1408TIP3    H2 4189   0.024   6.315   0.300
 1409TIP3   OH2 4190   1.158   5.539   3.599
 1409TIP3    H1 4191   1.236   5.553   3.654
 1409TIP3    H2 4192   1.091   5.595   3.639
 1410TIP3   OH2 4193   3.667   5.942   1.422
 1410TIP3    H1 4194   3.610   6.019   1.419
 1410TIP3    H2 4195   3.756   5.979   1.427
 1411TIP3   OH2 4196   2.782   2.131   3.494
 1411TIP3    H1 4197   2.776   2.164   3.404
 1411TIP3    H2 4198   2.723   2.187   3.544
 1412TIP3   OH2 4199   0.616   4.547   1.307
 1412TIP3    H1 4200   0.595   4.477   1.245
 1412TIP3    H2 4201   0.557   4.619   1.284
 1413TIP3   OH2 4202   3.315   0.261   4.440
 1413TIP3    H1 4203   3.264   0.339   4.418
 1413TIP3    H2 4204   3.278   0.231   4.522
 1414TIP3   OH2 4205   2.670   0.443   4.564
 1414TIP3    H1 4206   2.762   0.416   4.569
 1414TIP3    H2 4207   2.652   0.446   4.470
 1415TIP3   OH2 4208   5.498   0.723   1.523
 1415TIP3    H1 4209   5.480   0.778   1.599
 1415TIP3    H2 4210   5.483   0.634   1.553
 1416TIP3   OH2 4211   5.014   4.872   2.187
 1416TIP3    H1 4212   5.040   4.824   2.266
 1416TIP3    H2 4213   4.971   4.808   2.132
 1417TIP3   OH2 4214   0.997   2.166   4.974
 1417TIP3    H1 4215   1.070   2.210   4.931
 1417TIP3    H2 4216   0.945   2.237   5.012
 1418TIP3   OH2 4217   4.163   5.680   5.415
 1418TIP3    H1 4218   4.130   5.717   5.333
 1418TIP3    H2 4219   4.133   5.741   5.482
 1419TIP3   OH2 4220   2.793   4.131   1.679
 1419TIP3    H1 4221   2.767   4.075   1.752
 1419TIP3    H2 4222   2.716   4.136   1.623
 1420TIP3   OH2 4223   5.532   1.089   4.342
 1420TIP3    H1 4224   5.544   1.015   4.282
 1420TIP3    H2 4225   5.453   1.133   4.310
 1421TIP3   OH2 4226   2.519   6.580   1.674
 1421TIP3    H1 4227   2.581   6.511   1.696
 1421TIP3    H2 4228   2.464   6.543   1.605
 1422TIP3   OH2 4229   0.809   5.039   5.714
 1422TIP3    H1 4230   0.898   5.022   5.684
 1422TIP3    H2 4231   0.753   5.009   5.643
 1423TIP3   OH2 4232   3.011   0.179   4.859
 1423TIP3    H1 4233   2.957   0.240   4.809
 1423TIP3    H2 4234   2.949   0.135   4.918
 1424TIP3   OH2 4235   0.172   1.096   3.065
 1424TIP3    H1 4236   0.239   1.164   3.053
 1424TIP3    H2 4237   0.124   1.096   2.982
 1425TIP3   OH2 4238   6.221   2.692   3.803
 1425TIP3    H1 4239   6.304   2.693   3.755
 1425TIP3    H2 4240   6.243   2.652   3.887
 1426TIP3   OH2 4241   7.099   5.594   1.444
 1426TIP3    H1 4242   7.027   5.585   1.506
 1426TIP3    H2 4243   7.145   5.673   1.472
 1427TIP3   OH2 4244   5.251   0.134   5.043
 1427TIP3    H1 4245   5.269   0.207   4.983
 1427TIP3    H2 4246   5.335   0.089   5.051
 1428TIP3   OH2 4247   4.205   4.453   2.001
 1428TIP3    H1 4248   4.235   4.449   2.092
 1428TIP3    H2 4249   4.200   4.361   1.973
 1429TIP3   OH2 4250   6.695   5.546   0.084
 1429TIP3    H1 4251   6.717   5.470   0.031
 1429TIP3    H2 4252   6.624   5.589   0.035
 1430TIP3   OH2 4253   0.986   4.803   4.793
 1430TIP3    H1 4254   0.899   4.800   4.755
 1430TIP3    H2 4255   0.973   4.781   4.885
 1431TIP3   OH2 4256   1.401   6.096   5.641
 1431TIP3    H1 4257   1.388   6.141   5.557
 1431TIP3    H2 4258   1.347   6.143   5.703
 1432TIP3   OH2 4259   0.171   1.403   3.054
 1432TIP3    H1 4260   0.136   1.373   3.138
 1432TIP3    H2 4261   0.228   1.477   3.077
 1433TIP3   OH2 4262   6.350   2.364   1.419
 1433TIP3    H1 4263   6.351   2.404   1.332
 1433TIP3    H2 4264   6.262   2.382   1.452
 1434TIP3   OH2 4265   4.940   4.015   3.605
 1434TIP3    H1 4266   4.991   4.069   3.666
 1434TIP3    H2 4267   4.996   4.006   3.528
 1435TIP3   OH2 4268   3.316   0.939   5.239
 1435TIP3    H1 4269   3.290   0.984   5.319
 1435TIP3    H2 4270   3.262   0.978   5.170
 1436TIP3   OH2 4271   4.180   5.412   5.304
 1436TIP3    H1 4272   4.147   5.498   5.331
 1436TIP3    H2 4273   4.129   5.349   5.355
 1437TIP3   OH2 4274   4.169   1.421   2.046
 1437TIP3    H1 4275   4.170   1.497   1.987
 1437TIP3    H2 4276   4.233   1.442   2.114
 1438TIP3   OH2 4277   2.958   6.422   0.563
 1438TIP3    H1 4278   3.007   6.482   0.620
 1438TIP3    H2 4279   2.909   6.366   0.623
 1439TIP3   OH2 4280   2.748   2.717   3.716
 1439TIP3    H1 4281   2.794   2.650   3.664
 1439TIP3    H2 4282   2.671   2.671   3.750
 1440TIP3   OH2 4283   4.393   5.813   4.649
 1440TIP3    H1 4284   4.407   5.749   4.719
 1440TIP3    H2 4285   4.477   5.818   4.604
 1441TIP3   OH2 4286   7.090   3.430   1.998
 1441TIP3    H1 4287   7.019   3.365   1.997
 1441TIP3    H2 4288   7.109   3.446   1.905
 1442TIP3   OH2 4289   2.224   6.310   0.973
 1442TIP3    H1 4290   2.198   6.217   0.974
 1442TIP3    H2 4291   2.318   6.308   0.953
 1443TIP3   OH2 4292   2.242   6.696   1.486
 1443TIP3    H1 4293   2.188   6.761   1.530
 1443TIP3    H2 4294   2.328   6.737   1.477
 1444TIP3   OH2 4295   1.152   0.459   4.297
 1444TIP3    H1 4296   1.118   0.375   4.327
 1444TIP3    H2 4297   1.093   0.484   4.226
 1445TIP3   OH2 4298   6.518   4.506   5.281
 1445TIP3    H1 4299   6.456   4.516   5.353
 1445TIP3    H2 4300   6.464   4.508   5.202
 1446TIP3   OH2 4301   5.874   4.357   1.778
 1446TIP3    H1 4302   5.849   4.383   1.689
 1446TIP3    H2 4303   5.842   4.428   1.834
 1447TIP3   OH2 4304   0.709   3.934   0.628
 1447TIP3    H1 4305   0.684   3.856   0.678
 1447TIP3    H2 4306   0.651   4.003   0.660
 1448TIP3   OH2 4307   1.345   4.520   5.198
 1448TIP3    H1 4308   1.366   4.434   5.233
 1448TIP3    H2 4309   1.430   4.564   5.188
 1449TIP3   OH2 4310   2.541   1.881   1.587
 1449TIP3    H1 4311   2.510   1.969   1.607
 1449TIP3    H2 4312   2.465   1.836   1.550
 1450TIP3   OH2 4313   0.616   2.383   5.584
 1450TIP3    H1 4314   0.708   2.374   5.560
 1450TIP3    H2 4315   0.608   2.474   5.614
 1451TIP3   OH2 4316   2.199   0.235   3.393
 1451TIP3    H1 4317   2.192   0.327   3.421
 1451TIP3    H2 4318   2.272   0.235   3.330
 1452TIP3   OH2 4319   0.256   6.146   0.183
 1452TIP3    H1 4320   0.330   6.154   0.122
 1452TIP3    H2 4321   0.231   6.054   0.177
 1453TIP3   OH2 4322   4.904   6.092   2.254
 1453TIP3    H1 4323   4.845   6.124   2.323
 1453TIP3    H2 4324   4.861   6.014   2.220
 1454TIP3   OH2 4325   5.792   6.589   5.614
 1454TIP3    H1 4326   5.713   6.590   5.667
 1454TIP3    H2 4327   5.855   6.640   5.665
 1455TIP3   OH2 4328   5.187   3.094   3.937
 1455TIP3    H1 4329   5.123   3.159   3.907
 1455TIP3    H2 4330   5.272   3.129   3.909
 1456TIP3   OH2 4331   4.009   6.506   3.648
 1456TIP3    H1 4332   4.042   6.578   3.701
 1456TIP3    H2 4333   4.087   6.456   3.624
 1457TIP3   OH2 4334   6.632   5.136   3.370
 1457TIP3    H1 4335   6.647   5.198   3.442
 1457TIP3    H2 4336   6.720   5.112   3.342
 1458TIP3   OH2 4337   7.181   3.930   5.471
 1458TIP3    H1 4338   7.242   3.912   5.543
 1458TIP3    H2 4339   7.117   3.860   5.476
 1459TIP3   OH2 4340   6.608   4.628   2.578
 1459TIP3    H1 4341   6.541   4.618   2.646
 1459TIP3    H2 4342   6.626   4.538   2.549
 1460TIP3   OH2 4343   5.135   4.159   1.947
 1460TIP3    H1 4344   5.169   4.110   2.023
 1460TIP3    H2 4345   5.102   4.091   1.888
 1461TIP3   OH2 4346   4.738   6.280   3.026
 1461TIP3    H1 4347   4.774   6.207   3.076
 1461TIP3    H2 4348   4.799   6.293   2.954
 1462TIP3   OH2 4349   5.594   2.740   3.856
 1462TIP3    H1 4350   5.665   2.777   3.908
 1462TIP3    H2 4351   5.618   2.648   3.844
 1463TIP3   OH2 4352   6.309   1.237   3.683
 1463TIP3    H1 4353   6.236   1.179   3.661
 1463TIP3    H2 4354   6.387   1.180   3.677
 1464TIP3   OH2 4355   7.131   3.737   1.634
 1464TIP3    H1 4356   7.075   3.762   1.561
 1464TIP3    H2 4357   7.124   3.811   1.695
 1465TIP3   OH2 4358   0.083   0.841   3.669
 1465TIP3    H1 4359   0.155   0.847   3.606
 1465TIP3    H2 4360   0.092   0.919   3.723
 1466TIP3   OH2 4361   4.054   2.016   3.575
 1466TIP3    H1 4362   4.145   2.004   3.548
 1466TIP3    H2 4363   4.059   2.040   3.668
 1467TIP3   OH2 4364   1.884   0.645   1.457
 1467TIP3    H1 4365   1.874   0.634   1.362
 1467TIP3    H2 4366   1.804   0.610   1.494
 1468TIP3   OH2 4367   4.940   2.143   1.783
 1468TIP3    H1 4368   5.012   2.111   1.837
 1468TIP3    H2 4369   4.966   2.120   1.693
 1469TIP3   OH2 4370   4.195   5.587   4.278
 1469TIP3    H1 4371   4.278   5.611   4.236
 1469TIP3    H2 4372   4.148   5.539   4.209
 1470TIP3   OH2 4373   6.032   4.615   4.618
 1470TIP3    H1 4374   6.049   4.602   4.525
 1470TIP3    H2 4375   6.070   4.701   4.637
 1471TIP3   OH2 4376   4.373   3.649   0.889
 1471TIP3    H1 4377   4.283   3.645   0.857
 1471TIP3    H2 4378   4.410   3.726   0.846
 1472TIP3   OH2 4379   0.672   6.730   4.773
 1472TIP3    H1 4380   0.653   6.811   4.819
 1472TIP3    H2 4381   0.693   6.667   4.843
 1473TIP3   OH2 4382   5.260   3.708   1.822
 1473TIP3    H1 4383   5.255   3.613   1.833
 1473TIP3    H2 4384   5.292   3.721   1.733
 1474TIP3   OH2 4385   5.138   4.908   5.763
 1474TIP3    H1 4386   5.107   4.884   5.851
 1474TIP3    H2 4387   5.106   4.997   5.750
 1475TIP3   OH2 4388   1.024   1.695   4.727
 1475TIP3    H1 4389   1.069   1.622   4.684
 1475TIP3    H2 4390   1.053   1.773   4.680
 1476TIP3   OH2 4391   5.137   5.698   0.819
 1476TIP3    H1 4392   5.138   5.633   0.890
 1476TIP3    H2 4393   5.204   5.761   0.843
 1477TIP3   OH2 4394   3.626   1.483   3.078
 1477TIP3    H1 4395   3.655   1.458   2.990
 1477TIP3    H2 4396   3.675   1.562   3.099
 1478TIP3   OH2 4397   6.516   0.098   2.094
 1478TIP3    H1 4398   6.593   0.053   2.130
 1478TIP3    H2 4399   6.514   0.182   2.141
 1479TIP3   OH2 4400   3.985   0.476   3.464
 1479TIP3    H1 4401   4.018   0.496   3.552
 1479TIP3    H2 4402   3.941   0.557   3.437
 1480TIP3   OH2 4403   0.278   1.440   0.225
 1480TIP3    H1 4404   0.318   1.526   0.210
 1480TIP3    H2 4405   0.351   1.379   0.221
 1481TIP3   OH2 4406   6.051   0.168   1.041
 1481TIP3    H1 4407   6.117   0.136   1.103
 1481TIP3    H2 4408   5.994   0.093   1.026
 1482TIP3   OH2 4409   1.861   5.531   2.861
 1482TIP3    H1 4410   1.825   5.445   2.843
 1482TIP3    H2 4411   1.945   5.514   2.903
 1483TIP3   OH2 4412   6.801   5.605   1.257
 1483TIP3    H1 4413   6.798   5.646   1.343
 1483TIP3    H2 4414   6.760   5.668   1.198
 1484TIP3   OH2 4415   3.255   6.147   5.640
 1484TIP3    H1 4416   3.303   6.229   5.633
 1484TIP3    H2 4417   3.163   6.172   5.640
 1485TIP3   OH2 4418   6.404   6.077   3.972
 1485TIP3    H1 4419   6.344   6.138   3.928
 1485TIP3    H2 4420   6.370   5.991   3.950
 1486TIP3   OH2 4421   6.752   5.534   1.937
 1486TIP3    H1 4422   6.676   5.553   1.992
 1486TIP3    H2 4423   6.723   5.464   1.879
 1487TIP3   OH2 4424   5.838   4.918   4.779
 1487TIP3    H1 4425   5.855   4.898   4.872
 1487TIP3    H2 4426   5.806   4.836   4.743
 1488TIP3   OH2 4427   0.193   2.512   0.116
 1488TIP3    H1 4428   0.211   2.440   0.056
 1488TIP3    H2 4429   0.139   2.573   0.065
 1489TIP3   OH2 4430   3.802   1.360   1.742
 1489TIP3    H1 4431   3.754   1.282   1.714
 1489TIP3    H2 4432   3.843   1.335   1.825
 1490TIP3   OH2 4433   0.715   3.393   3.240
 1490TIP3    H1 4434   0.644   3.405   3.303
 1490TIP3    H2 4435   0.710   3.301   3.216
 1491TIP3   OH2 4436   5.242   3.821   2.059
 1491TIP3    H1 4437   5.230   3.747   2.119
 1491TIP3    H2 4438   5.292   3.784   1.986
 1492TIP3   OH2 4439   1.761   3.864   4.615
 1492TIP3    H1 4440   1.682   3.821   4.583
 1492TIP3    H2 4441   1.775   3.827   4.702
 1493TIP3   OH2 4442   0.456   3.730   1.050
 1493TIP3    H1 4443   0.511   3.740   1.127
 1493TIP3    H2 4444   0.491   3.654   1.004
 1494TIP3   OH2 4445   0.755   6.390   0.316
 1494TIP3    H1 4446   0.676   6.339   0.337
 1494TIP3    H2 4447   0.731   6.438   0.237
 1495TIP3   OH2 4448   5.701   6.274   0.488
 1495TIP3    H1 4449   5.705   6.363   0.454
 1495TIP3    H2 4450   5.616   6.269   0.533
 1496TIP3   OH2 4451   6.380   1.603   4.184
 1496TIP3    H1 4452   6.337   1.552   4.115
 1496TIP3    H2 4453   6.438   1.663   4.136
 1497TIP3   OH2 4454   0.548   3.140   0.727
 1497TIP3    H1 4455   0.500   3.060   0.749
 1497TIP3    H2 4456   0.622   3.110   0.674
 1498TIP3   OH2 4457   7.003   1.555   4.275
 1498TIP3    H1 4458   6.986   1.489   4.208
 1498TIP3    H2 4459   7.025   1.634   4.226
 1499TIP3   OH2 4460   2.113   1.804   1.956
 1499TIP3    H1 4461   2.095   1.898   1.957
 1499TIP3    H2 4462   2.140   1.785   1.866
 1500TIP3   OH2 4463   4.322   0.019   4.416
 1500TIP3    H1 4464   4.403   0.033   4.366
 1500TIP3    H2 4465   4.271   0.098   4.401
 1501TIP3   OH2 4466   0.421   1.670   4.123
 1501TIP3    H1 4467   0.475   1.749   4.119
 1501TIP3    H2 4468   0.376   1.677   4.208
 1502TIP3   OH2 4469   1.245   0.779   4.114
 1502TIP3    H1 4470   1.268   0.715   4.046
 1502TIP3    H2 4471   1.295   0.753   4.190
 1503TIP3   OH2 4472   1.865   4.485   1.277
 1503TIP3    H1 4473   1.845   4.523   1.192
 1503TIP3    H2 4474   1.877   4.561   1.335
 1504TIP3   OH2 4475   6.559   3.617   4.070
 1504TIP3    H1 4476   6.599   3.538   4.032
 1504TIP3    H2 4477   6.601   3.689   4.023
 1505TIP3   OH2 4478   3.345   5.640   4.505
 1505TIP3    H1 4479   3.284   5.615   4.435
 1505TIP3    H2 4480   3.425   5.666   4.459
 1506TIP3   OH2 4481   5.799   1.422   4.252
 1506TIP3    H1 4482   5.847   1.501   4.277
 1506TIP3    H2 4483   5.733   1.452   4.191
 1507TIP3   OH2 4484   4.861   3.076   3.667
 1507TIP3    H1 4485   4.944   3.124   3.667
 1507TIP3    H2 4486   4.801   3.131   3.617
 1508TIP3   OH2 4487   1.809   6.251   1.781
 1508TIP3    H1 4488   1.823   6.275   1.689
 1508TIP3    H2 4489   1.789   6.157   1.778
 1509TIP3   OH2 4490   4.188   0.862   3.536
 1509TIP3    H1 4491   4.110   0.859   3.481
 1509TIP3    H2 4492   4.245   0.927   3.495
 1510TIP3   OH2 4493   3.734   2.718   0.948
 1510TIP3    H1 4494   3.723   2.630   0.912
 1510TIP3    H2 4495   3.651   2.762   0.931
 1511TIP3   OH2 4496   4.981   3.589   1.987
 1511TIP3    H1 4497   4.916   3.658   1.998
 1511TIP3    H2 4498   4.935   3.509   2.011
 1512TIP3   OH2 4499   6.098   3.977   3.698
 1512TIP3    H1 4500   6.155   3.912   3.740
 1512TIP3    H2 4501   6.159   4.039   3.657
 1513TIP3   OH2 4502   0.469   1.027   2.677
 1513TIP3    H1 4503   0.467   1.098   2.742
 1513TIP3    H2 4504   0.383   1.031   2.634
 1514TIP3   OH2 4505   0.204   0.433   5.849
 1514TIP3    H1 4506   0.235   0.426   5.759
 1514TIP3    H2 4507   0.111   0.453   5.841
 1515TIP3   OH2 4508   1.356   1.796   4.560
 1515TIP3    H1 4509   1.286   1.845   4.517
 1515TIP3    H2 4510   1.398   1.748   4.489
 1516TIP3   OH2 4511   6.105   1.321   1.349
 1516TIP3    H1 4512   6.146   1.407   1.344
 1516TIP3    H2 4513   6.055   1.313   1.268
 1517TIP3   OH2 4514   6.066   4.926   3.901
 1517TIP3    H1 4515   6.046   5.019   3.903
 1517TIP3    H2 4516   6.128   4.913   3.973
 1518TIP3   OH2 4517   3.744   5.339   3.366
 1518TIP3    H1 4518   3.836   5.327   3.390
 1518TIP3    H2 4519   3.747   5.398   3.290
 1519TIP3   OH2 4520   2.668   6.535   5.287
 1519TIP3    H1 4521   2.677   6.441   5.305
 1519TIP3    H2 4522   2.749   6.574   5.321
 1520TIP3   OH2 4523   0.645   6.270   2.449
 1520TIP3    H1 4524   0.734   6.253   2.419
 1520TIP3    H2 4525   0.650   6.354   2.493
 1521TIP3   OH2 4526   3.168   0.697   3.983
 1521TIP3    H1 4527   3.230   0.756   4.025
 1521TIP3    H2 4528   3.097   0.754   3.954
 1522TIP3   OH2 4529   5.399   3.822   3.391
 1522TIP3    H1 4530   5.330   3.755   3.391
 1522TIP3    H2 4531   5.480   3.774   3.407
 1523TIP3   OH2 4532   0.955   3.020   4.678
 1523TIP3    H1 4533   1.048   2.999   4.694
 1523TIP3    H2 4534   0.907   2.961   4.736
 1524TIP3   OH2 4535   1.674   2.484   4.147
 1524TIP3    H1 4536   1.582   2.510   4.154
 1524TIP3    H2 4537   1.717   2.531   4.218
 1525TIP3   OH2 4538   5.757   0.040   0.811
 1525TIP3    H1 4539   5.794   0.128   0.804
 1525TIP3    H2 4540   5.816  -0.006   0.871
 1526TIP3   OH2 4541   6.646   3.471   0.186
 1526TIP3    H1 4542   6.729   3.435   0.154
 1526TIP3    H2 4543   6.639   3.556   0.142
 1527TIP3   OH2 4544   0.345   5.885   5.868
 1527TIP3    H1 4545   0.350   5.953   5.801
 1527TIP3    H2 4546   0.418   5.904   5.927
 1528TIP3   OH2 4547   6.525   1.107   3.649
 1528TIP3    H1 4548   6.510   1.026   3.600
 1528TIP3    H2 4549   6.576   1.079   3.725
 1529TIP3   OH2 4550   3.595   5.372   0.064
 1529TIP3    H1 4551   3.559   5.394   0.150
 1529TIP3    H2 4552   3.689   5.387   0.073
 1530TIP3   OH2 4553   3.211   5.127   4.142
 1530TIP3    H1 4554   3.180   5.039   4.122
 1530TIP3    H2 4555   3.240   5.161   4.057
 1531TIP3   OH2 4556   2.607   4.059   1.302
 1531TIP3    H1 4557   2.583   3.992   1.239
 1531TIP3    H2 4558   2.530   4.116   1.307
 1532TIP3   OH2 4559   4.102   1.673   2.927
 1532TIP3    H1 4560   4.074   1.584   2.906
 1532TIP3    H2 4561   4.087   1.722   2.847
 1533TIP3   OH2 4562   0.847   2.450   1.706
 1533TIP3    H1 4563   0.880   2.540   1.697
 1533TIP3    H2 4564   0.861   2.428   1.798
 1534TIP3   OH2 4565   1.541   6.600   3.341
 1534TIP3    H1 4566   1.470   6.586   3.279
 1534TIP3    H2 4567   1.586   6.515   3.346
 1535TIP3   OH2 4568   0.210   1.158   2.320
 1535TIP3    H1 4569   0.147   1.202   2.263
 1535TIP3    H2 4570   0.279   1.223   2.333
 1536TIP3   OH2 4571   1.481   1.521   0.068
 1536TIP3    H1 4572   1.545   1.573   0.115
 1536TIP3    H2 4573   1.397   1.562   0.089
 1537TIP3   OH2 4574   6.240   1.683   3.236
 1537TIP3    H1 4575   6.156   1.655   3.200
 1537TIP3    H2 4576   6.267   1.756   3.180
 1538TIP3   OH2 4577   4.682   6.731   4.644
 1538TIP3    H1 4578   4.681   6.674   4.720
 1538TIP3    H2 4579   4.656   6.674   4.571
 1539TIP3   OH2 4580   2.292   6.109   1.431
 1539TIP3    H1 4581   2.377   6.154   1.424
 1539TIP3    H2 4582   2.300   6.057   1.511
 1540TIP3   OH2 4583   0.511   1.502   2.217
 1540TIP3    H1 4584   0.520   1.550   2.300
 1540TIP3    H2 4585   0.481   1.415   2.243
 1541TIP3   OH2 4586   1.492   4.819   2.779
 1541TIP3    H1 4587   1.542   4.814   2.697
 1541TIP3    H2 4588   1.546   4.871   2.838
 1542TIP3   OH2 4589   4.053   5.848   0.496
 1542TIP3    H1 4590   4.087   5.868   0.409
 1542TIP3    H2 4591   4.054   5.931   0.543
 1543TIP3   OH2 4592   2.240   5.847   0.195
 1543TIP3    H1 4593   2.302   5.842   0.122
 1543TIP3    H2 4594   2.177   5.913   0.169
 1544TIP3   OH2 4595   0.989   2.107   1.840
 1544TIP3    H1 4596   1.036   2.191   1.842
 1544TIP3    H2 4597   0.986   2.079   1.932
 1545TIP3   OH2 4598   4.507   0.847   4.358
 1545TIP3    H1 4599   4.432   0.813   4.308
 1545TIP3    H2 4600   4.500   0.804   4.443
 1546TIP3   OH2 4601   3.927   1.638   5.602
 1546TIP3    H1 4602   3.886   1.557   5.631
 1546TIP3    H2 4603   3.937   1.690   5.682
 1547TIP3   OH2 4604   6.449   5.469   5.826
 1547TIP3    H1 4605   6.483   5.543   5.777
 1547TIP3    H2 4606   6.487   5.478   5.913
 1548TIP3   OH2 4607   3.245   5.787   2.378
 1548TIP3    H1 4608   3.215   5.789   2.468
 1548TIP3    H2 4609   3.277   5.697   2.365
 1549TIP3   OH2 4610   0.158   2.052   4.781
 1549TIP3    H1 4611   0.100   2.034   4.708
 1549TIP3    H2 4612   0.099   2.063   4.856
 1550TIP3   OH2 4613   4.778   6.276   0.896
 1550TIP3    H1 4614   4.761   6.370   0.887
 1550TIP3    H2 4615   4.836   6.255   0.823
 1551TIP3   OH2 4616   3.835   0.494   0.940
 1551TIP3    H1 4617   3.813   0.478   1.032
 1551TIP3    H2 4618   3.793   0.579   0.920
 1552TIP3   OH2 4619   2.953   5.390   2.961
 1552TIP3    H1 4620   3.014   5.431   3.022
 1552TIP3    H2 4621   3.009   5.351   2.893
 1553TIP3   OH2 4622   4.170   2.520   3.220
 1553TIP3    H1 4623   4.179   2.532   3.126
 1553TIP3    H2 4624   4.126   2.599   3.251
 1554TIP3   OH2 4625   5.568   1.404   2.613
 1554TIP3    H1 4626   5.570   1.333   2.549
 1554TIP3    H2 4627   5.532   1.479   2.566
 1555TIP3   OH2 4628   4.734   3.124   0.642
 1555TIP3    H1 4629   4.725   3.113   0.737
 1555TIP3    H2 4630   4.645   3.130   0.610
 1556TIP3   OH2 4631   4.789   4.405   0.851
 1556TIP3    H1 4632   4.798   4.369   0.940
 1556TIP3    H2 4633   4.873   4.448   0.834
 1557TIP3   OH2 4634   2.552   2.052   1.916
 1557TIP3    H1 4635   2.483   2.005   1.963
 1557TIP3    H2 4636   2.628   2.048   1.974
 1558TIP3   OH2 4637   3.341   5.169   0.693
 1558TIP3    H1 4638   3.250   5.190   0.715
 1558TIP3    H2 4639   3.384   5.254   0.688
 1559TIP3   OH2 4640   0.550   1.676   5.045
 1559TIP3    H1 4641   0.486   1.663   5.114
 1559TIP3    H2 4642   0.498   1.706   4.970
 1560TIP3   OH2 4643   5.399   3.735   1.535
 1560TIP3    H1 4644   5.470   3.797   1.523
 1560TIP3    H2 4645   5.320   3.790   1.541
 1561TIP3   OH2 4646   1.699   6.640   5.619
 1561TIP3    H1 4647   1.661   6.644   5.707
 1561TIP3    H2 4648   1.738   6.727   5.606
 1562TIP3   OH2 4649   3.984   2.412   1.051
 1562TIP3    H1 4650   4.039   2.350   1.004
 1562TIP3    H2 4651   4.006   2.398   1.144
 1563TIP3   OH2 4652   1.399   6.214   0.132
 1563TIP3    H1 4653   1.449   6.281   0.087
 1563TIP3    H2 4654   1.322   6.260   0.166
 1564TIP3   OH2 4655   1.232   5.772   4.920
 1564TIP3    H1 4656   1.314   5.779   4.969
 1564TIP3    H2 4657   1.233   5.846   4.859
 1565TIP3   OH2 4658   2.144   4.493   3.408
 1565TIP3    H1 4659   2.166   4.461   3.320
 1565TIP3    H2 4660   2.056   4.530   3.399
 1566TIP3   OH2 4661   6.511   4.371   4.909
 1566TIP3    H1 4662   6.565   4.364   4.988
 1566TIP3    H2 4663   6.424   4.343   4.937
 1567TIP3   OH2 4664   2.381   2.413   2.915
 1567TIP3    H1 4665   2.443   2.359   2.865
 1567TIP3    H2 4666   2.392   2.383   3.005
 1568TIP3   OH2 4667   4.944   4.929   4.825
 1568TIP3    H1 4668   4.951   4.952   4.732
 1568TIP3    H2 4669   4.862   4.880   4.832
 1569TIP3   OH2 4670   2.760   0.318   2.538
 1569TIP3    H1 4671   2.731   0.361   2.619
 1569TIP3    H2 4672   2.840   0.365   2.514
 1570TIP3   OH2 4673   5.971   3.403   2.998
 1570TIP3    H1 4674   6.054   3.448   3.013
 1570TIP3    H2 4675   5.983   3.316   3.038
 1571TIP3   OH2 4676   1.863   5.088   2.585
 1571TIP3    H1 4677   1.923   5.038   2.640
 1571TIP3    H2 4678   1.864   5.176   2.622
 1572TIP3   OH2 4679   1.126   1.615   4.247
 1572TIP3    H1 4680   1.208   1.567   4.235
 1572TIP3    H2 4681   1.126   1.641   4.339
 1573TIP3   OH2 4682   7.059   0.817   1.306
 1573TIP3    H1 4683   6.968   0.842   1.288
 1573TIP3    H2 4684   7.053   0.736   1.356
 1574TIP3   OH2 4685   5.857   1.476   5.232
 1574TIP3    H1 4686   5.948   1.461   5.207
 1574TIP3    H2 4687   5.822   1.388   5.250
 1575TIP3   OH2 4688   1.107   2.753   1.399
 1575TIP3    H1 4689   1.015   2.725   1.399
 1575TIP3    H2 4690   1.157   2.671   1.406
 1576TIP3   OH2 4691   6.599   5.817   4.217
 1576TIP3    H1 4692   6.692   5.805   4.236
 1576TIP3    H2 4693   6.554   5.772   4.288
 1577TIP3   OH2 4694   1.637   0.036   3.872
 1577TIP3    H1 4695   1.598  -0.050   3.856
 1577TIP3    H2 4696   1.622   0.052   3.965
 1578TIP3   OH2 4697   6.800   3.787   1.887
 1578TIP3    H1 4698   6.879   3.789   1.941
 1578TIP3    H2 4699   6.784   3.879   1.864
 1579TIP3   OH2 4700   3.800   1.209   5.497
 1579TIP3    H1 4701   3.743   1.135   5.514
 1579TIP3    H2 4702   3.886   1.171   5.481
 1580TIP3   OH2 4703   4.961   5.147   1.422
 1580TIP3    H1 4704   4.887   5.184   1.375
 1580TIP3    H2 4705   4.926   5.124   1.509
 1581TIP3   OH2 4706   5.778   0.922   5.532
 1581TIP3    H1 4707   5.800   1.011   5.560
 1581TIP3    H2 4708   5.795   0.921   5.438
 1582TIP3   OH2 4709   1.823   4.128   1.646
 1582TIP3    H1 4710   1.812   4.154   1.554
 1582TIP3    H2 4711   1.910   4.162   1.669
 1583TIP3   OH2 4712   4.971   5.306   1.072
 1583TIP3    H1 4713   5.056   5.261   1.071
 1583TIP3    H2 4714   4.918   5.254   1.132
 1584TIP3   OH2 4715   6.338   6.240   3.016
 1584TIP3    H1 4716   6.339   6.336   3.014
 1584TIP3    H2 4717   6.376   6.215   2.931
 1585TIP3   OH2 4718   0.017   5.589   2.830
 1585TIP3    H1 4719  -0.045   5.516   2.829
 1585TIP3    H2 4720   0.099   5.550   2.799
 1586TIP3   OH2 4721   6.178   6.243   2.461
 1586TIP3    H1 4722   6.180   6.167   2.519
 1586TIP3    H2 4723   6.103   6.294   2.489
 1587TIP3   OH2 4724   7.144   3.511   3.568
 1587TIP3    H1 4725   7.148   3.521   3.473
 1587TIP3    H2 4726   7.214   3.568   3.601
 1588TIP3   OH2 4727   5.006   5.939   2.694
 1588TIP3    H1 4728   5.008   5.929   2.789
 1588TIP3    H2 4729   5.081   5.995   2.674
 1589TIP3   OH2 4730   0.360   6.510   0.159
 1589TIP3    H1 4731   0.375   6.584   0.217
 1589TIP3    H2 4732   0.403   6.436   0.202
 1590TIP3   OH2 4733   5.172   1.022   5.803
 1590TIP3    H1 4734   5.149   0.933   5.778
 1590TIP3    H2 4735   5.267   1.024   5.800
 1591TIP3   OH2 4736   4.715   5.677   2.656
 1591TIP3    H1 4737   4.715   5.658   2.750
 1591TIP3    H2 4738   4.727   5.772   2.651
 1592TIP3   OH2 4739   2.314   6.655   0.480
 1592TIP3    H1 4740   2.368   6.641   0.558
 1592TIP3    H2 4741   2.269   6.572   0.466
 1593TIP3   OH2 4742   3.095   5.762   0.055
 1593TIP3    H1 4743   3.025   5.697   0.053
 1593TIP3    H2 4744   3.135   5.752   0.141
 1594TIP3   OH2 4745   7.104   2.103   1.236
 1594TIP3    H1 4746   7.148   2.181   1.270
 1594TIP3    H2 4747   7.176   2.046   1.206
 1595TIP3   OH2 4748   1.303   6.554   2.638
 1595TIP3    H1 4749   1.346   6.490   2.693
 1595TIP3    H2 4750   1.284   6.628   2.696
 1596TIP3   OH2 4751   0.269   3.358   4.306
 1596TIP3    H1 4752   0.259   3.264   4.291
 1596TIP3    H2 4753   0.250   3.397   4.221
 1597TIP3   OH2 4754   6.032   4.847   1.827
 1597TIP3    H1 4755   6.068   4.787   1.893
 1597TIP3    H2 4756   5.993   4.918   1.878
 1598TIP3   OH2 4757   1.574   4.534   5.859
 1598TIP3    H1 4758   1.631   4.605   5.888
 1598TIP3    H2 4759   1.498   4.578   5.822
 1599TIP3   OH2 4760   0.425   4.140   3.248
 1599TIP3    H1 4761   0.423   4.122   3.342
 1599TIP3    H2 4762   0.429   4.053   3.208
 1600TIP3   OH2 4763   3.903   5.415   0.063
 1600TIP3    H1 4764   3.989   5.457   0.075
 1600TIP3    H2 4765   3.919   5.323   0.083
 1601TIP3   OH2 4766   0.081   2.338   4.427
 1601TIP3    H1 4767   0.017   2.357   4.359
 1601TIP3    H2 4768   0.029   2.325   4.506
 1602TIP3   OH2 4769   1.996   5.079   0.072
 1602TIP3    H1 4770   1.985   5.118  -0.015
 1602TIP3    H2 4771   1.932   5.124   0.127
 1603TIP3   OH2 4772   4.580   0.603   0.461
 1603TIP3    H1 4773   4.510   0.590   0.398
 1603TIP3    H2 4774   4.550   0.559   0.541
 1604TIP3   OH2 4775   4.237   2.844   4.385
 1604TIP3    H1 4776   4.298   2.799   4.442
 1604TIP3    H2 4777   4.195   2.910   4.440
 1605TIP3   OH2 4778   0.904   5.273   5.870
 1605TIP3    H1 4779   0.839   5.203   5.854
 1605TIP3    H2 4780   0.957   5.274   5.791
 1606TIP3   OH2 4781   3.872   2.079   1.788
 1606TIP3    H1 4782   3.786   2.042   1.807
 1606TIP3    H2 4783   3.855   2.169   1.760
 1607TIP3   OH2 4784   1.191   4.939   1.087
 1607TIP3    H1 4785   1.197   5.001   1.016
 1607TIP3    H2 4786   1.140   4.984   1.155
 1608TIP3   OH2 4787   6.301   4.319   2.377
 1608TIP3    H1 4788   6.271   4.388   2.436
 1608TIP3    H2 4789   6.229   4.307   2.315
 1609TIP3   OH2 4790   3.553   2.410  -0.006
 1609TIP3    H1 4791   3.585   2.324   0.023
 1609TIP3    H2 4792   3.460   2.395  -0.025
 1610TIP3   OH2 4793   2.029   4.310   2.131
 1610TIP3    H1 4794   1.969   4.366   2.081
 1610TIP3    H2 4795   1.971   4.248   2.176
 1611TIP3   OH2 4796   3.116   1.724   0.108
 1611TIP3    H1 4797   3.081   1.651   0.057
 1611TIP3    H2 4798   3.043   1.785   0.116
 1612TIP3   OH2 4799   5.169   2.552   5.179
 1612TIP3    H1 4800   5.195   2.460   5.169
 1612TIP3    H2 4801   5.087   2.549   5.227
 1613TIP3   OH2 4802   0.474   0.334   2.545
 1613TIP3    H1 4803   0.453   0.402   2.609
 1613TIP3    H2 4804   0.569   0.337   2.537
 1614TIP3   OH2 4805   0.078   1.997   1.561
 1614TIP3    H1 4806  -0.003   2.048   1.556
 1614TIP3    H2 4807   0.050   1.910   1.589
 1615TIP3   OH2 4808   2.208   0.771   2.818
 1615TIP3    H1 4809   2.228   0.836   2.886
 1615TIP3    H2 4810   2.270   0.791   2.748
 1616TIP3   OH2 4811   1.170   0.917   0.425
 1616TIP3    H1 4812   1.121   0.898   0.505
 1616TIP3    H2 4813   1.146   1.007   0.403
 1617TIP3   OH2 4814   4.761   1.112   2.715
 1617TIP3    H1 4815   4.718   1.085   2.635
 1617TIP3    H2 4816   4.841   1.059   2.719
 1618TIP3   OH2 4817   5.582   3.491   3.155
 1618TIP3    H1 4818   5.591   3.569   3.100
 1618TIP3    H2 4819   5.520   3.436   3.108
 1619TIP3   OH2 4820   1.518   5.348   4.007
 1619TIP3    H1 4821   1.581   5.379   3.942
 1619TIP3    H2 4822   1.440   5.327   3.956
 1620TIP3   OH2 4823   0.743   1.872   5.003
 1620TIP3    H1 4824   0.665   1.817   5.007
 1620TIP3    H2 4825   0.742   1.910   4.916
 1621TIP3   OH2 4826   4.948   1.525   4.086
 1621TIP3    H1 4827   4.937   1.594   4.020
 1621TIP3    H2 4828   5.039   1.533   4.114
 1622TIP3   OH2 4829   3.806   3.427   2.187
 1622TIP3    H1 4830   3.788   3.477   2.108
 1622TIP3    H2 4831   3.900   3.438   2.202
 1623TIP3   OH2 4832   4.284   3.856   4.724
 1623TIP3    H1 4833   4.320   3.941   4.751
 1623TIP3    H2 4834   4.361   3.802   4.705
 1624TIP3   OH2 4835   4.481   1.375   4.178
 1624TIP3    H1 4836   4.512   1.284   4.183
 1624TIP3    H2 4837   4.419   1.383   4.250
 1625TIP3   OH2 4838   3.904   4.329   0.492
 1625TIP3    H1 4839   3.816   4.363   0.473
 1625TIP3    H2 4840   3.896   4.234   0.483
 1626TIP3   OH2 4841   1.821   0.175   0.793
 1626TIP3    H1 4842   1.829   0.125   0.874
 1626TIP3    H2 4843   1.753   0.240   0.812
 1627TIP3   OH2 4844   1.515   2.892   1.327
 1627TIP3    H1 4845   1.450   2.899   1.256
 1627TIP3    H2 4846   1.576   2.825   1.296
 1628TIP3   OH2 4847   4.111   4.410   3.070
 1628TIP3    H1 4848   4.071   4.361   3.143
 1628TIP3    H2 4849   4.162   4.479   3.112
 1629TIP3   OH2 4850   0.812   0.019   3.005
 1629TIP3    H1 4851   0.784  -0.073   3.000
 1629TIP3    H2 4852   0.903   0.017   2.976
 1630TIP3   OH2 4853   6.082   2.784   4.328
 1630TIP3    H1 4854   6.049   2.820   4.246
 1630TIP3    H2 4855   6.109   2.695   4.307
 1631TIP3   OH2 4856   4.936   4.076   0.947
 1631TIP3    H1 4857   4.970   4.045   1.030
 1631TIP3    H2 4858   4.852   4.030   0.937
 1632TIP3   OH2 4859   5.688   1.582   2.428
 1632TIP3    H1 4860   5.737   1.645   2.376
 1632TIP3    H2 4861   5.601   1.620   2.437
 1633TIP3   OH2 4862   4.070   5.970   1.910
 1633TIP3    H1 4863   4.028   6.014   1.984
 1633TIP3    H2 4864   4.073   6.036   1.841
 1634TIP3   OH2 4865   1.492   3.497   5.430
 1634TIP3    H1 4866   1.560   3.564   5.426
 1634TIP3    H2 4867   1.458   3.492   5.340
 1635TIP3   OH2 4868   6.615   6.247   3.501
 1635TIP3    H1 4869   6.687   6.188   3.524
 1635TIP3    H2 4870   6.594   6.224   3.410
 1636TIP3   OH2 4871   7.211   1.094   2.873
 1636TIP3    H1 4872   7.222   1.028   2.805
 1636TIP3    H2 4873   7.151   1.159   2.834
 1637TIP3   OH2 4874   2.445   3.678   2.594
 1637TIP3    H1 4875   2.435   3.759   2.645
 1637TIP3    H2 4876   2.419   3.703   2.505
 1638TIP3   OH2 4877   1.974   0.574   0.065
 1638TIP3    H1 4878   1.992   0.592   0.157
 1638TIP3    H2 4879   1.952   0.481   0.062
 1639TIP3   OH2 4880   3.441   0.913   2.489
 1639TIP3    H1 4881   3.523   0.928   2.536
 1639TIP3    H2 4882   3.412   0.827   2.518
 1640TIP3   OH2 4883   4.100   0.768   2.510
 1640TIP3    H1 4884   4.032   0.702   2.494
 1640TIP3    H2 4885   4.150   0.771   2.428
 1641TIP3   OH2 4886   6.094   0.742   4.873
 1641TIP3    H1 4887   6.159   0.779   4.933
 1641TIP3    H2 4888   6.145   0.685   4.814
 1642TIP3   OH2 4889   0.812   0.773   4.343
 1642TIP3    H1 4890   0.845   0.813   4.262
 1642TIP3    H2 4891   0.880   0.790   4.408
 1643TIP3   OH2 4892   6.683   1.411   2.694
 1643TIP3    H1 4893   6.611   1.473   2.707
 1643TIP3    H2 4894   6.755   1.447   2.747
 1644TIP3   OH2 4895   3.706   6.578   0.916
 1644TIP3    H1 4896   3.767   6.540   0.979
 1644TIP3    H2 4897   3.758   6.640   0.866
 1645TIP3   OH2 4898   1.188   4.164   2.869
 1645TIP3    H1 4899   1.130   4.231   2.906
 1645TIP3    H2 4900   1.251   4.212   2.816
 1646TIP3   OH2 4901   3.818   1.767   5.087
 1646TIP3    H1 4902   3.800   1.795   5.176
 1646TIP3    H2 4903   3.748   1.706   5.065
 1647TIP3   OH2 4904   2.840   0.023   2.620
 1647TIP3    H1 4905   2.831   0.076   2.699
 1647TIP3    H2 4906   2.872   0.084   2.554
 1648TIP3   OH2 4907   4.619   0.842   4.706
 1648TIP3    H1 4908   4.612   0.767   4.647
 1648TIP3    H2 4909   4.529   0.875   4.713
 1649TIP3   OH2 4910   6.447   2.184   0.638
 1649TIP3    H1 4911   6.439   2.144   0.552
 1649TIP3    H2 4912   6.535   2.161   0.668
 1650TIP3   OH2 4913   1.622   2.853   0.718
 1650TIP3    H1 4914   1.583   2.879   0.634
 1650TIP3    H2 4915   1.610   2.758   0.721
 1651TIP3   OH2 4916   6.419   3.321   4.371
 1651TIP3    H1 4917   6.485   3.267   4.415
 1651TIP3    H2 4918   6.425   3.295   4.279
 1652TIP3   OH2 4919   7.175   5.672   4.694
 1652TIP3    H1 4920   7.248   5.690   4.754
 1652TIP3    H2 4921   7.103   5.725   4.728
 1653TIP3   OH2 4922   3.518   1.399   5.676
 1653TIP3    H1 4923   3.516   1.427   5.584
 1653TIP3    H2 4924   3.462   1.462   5.721
 1654TIP3   OH2 4925   6.542   6.002   4.558
 1654TIP3    H1 4926   6.579   5.915   4.571
 1654TIP3    H2 4927   6.485   6.015   4.634
 1655TIP3   OH2 4928   5.194   4.884   3.400
 1655TIP3    H1 4929   5.180   4.832   3.479
 1655TIP3    H2 4930   5.162   4.971   3.424
 1656TIP3   OH2 4931   3.452   0.075   3.209
 1656TIP3    H1 4932   3.462  -0.007   3.257
 1656TIP3    H2 4933   3.494   0.140   3.265
 1657TIP3   OH2 4934   3.707   0.972   4.162
 1657TIP3    H1 4935   3.638   1.031   4.192
 1657TIP3    H2 4936   3.719   0.993   4.069
 1658TIP3   OH2 4937   3.814   3.005   5.109
 1658TIP3    H1 4938   3.897   2.958   5.110
 1658TIP3    H2 4939   3.798   3.025   5.017
 1659TIP3   OH2 4940   5.831   1.868   0.235
 1659TIP3    H1 4941   5.926   1.858   0.225
 1659TIP3    H2 4942   5.795   1.841   0.150
 1660TIP3   OH2 4943   0.150   3.481   2.558
 1660TIP3    H1 4944   0.152   3.391   2.524
 1660TIP3    H2 4945   0.172   3.535   2.482
 1661TIP3   OH2 4946   0.845   1.831   1.547
 1661TIP3    H1 4947   0.810   1.881   1.473
 1661TIP3    H2 4948   0.931   1.871   1.564
 1662TIP3   OH2 4949   7.189   5.189   0.779
 1662TIP3    H1 4950   7.224   5.140   0.854
 1662TIP3    H2 4951   7.120   5.132   0.744
 1663TIP3   OH2 4952   5.294   6.803   1.659
 1663TIP3    H1 4953   5.286   6.714   1.692
 1663TIP3    H2 4954   5.271   6.797   1.566
 1664TIP3   OH2 4955   3.804   3.204   2.744
 1664TIP3    H1 4956   3.844   3.119   2.759
 1664TIP3    H2 4957   3.796   3.244   2.830
 1665TIP3   OH2 4958   6.981   3.051   3.851
 1665TIP3    H1 4959   6.982   3.109   3.775
 1665TIP3    H2 4960   6.912   2.988   3.832
 1666TIP3   OH2 4961   1.313   3.282   2.487
 1666TIP3    H1 4962   1.274   3.370   2.484
 1666TIP3    H2 4963   1.277   3.238   2.411
 1667TIP3   OH2 4964   5.965   4.208   0.106
 1667TIP3    H1 4965   5.893   4.184   0.164
 1667TIP3    H2 4966   6.030   4.138   0.118
 1668TIP3   OH2 4967   6.433   5.181   3.650
 1668TIP3    H1 4968   6.511   5.173   3.705
 1668TIP3    H2 4969   6.365   5.213   3.710
 1669TIP3   OH2 4970   2.318   2.466   1.204
 1669TIP3    H1 4971   2.255   2.532   1.235
 1669TIP3    H2 4972   2.318   2.477   1.109
 1670TIP3   OH2 4973   5.667   2.335   4.856
 1670TIP3    H1 4974   5.753   2.342   4.897
 1670TIP3    H2 4975   5.621   2.414   4.884
 1671TIP3   OH2 4976   6.322   4.920   3.731
 1671TIP3    H1 4977   6.320   5.005   3.687
 1671TIP3    H2 4978   6.243   4.919   3.785
 1672TIP3   OH2 4979   0.972   4.771   1.514
 1672TIP3    H1 4980   1.037   4.756   1.445
 1672TIP3    H2 4981   0.904   4.823   1.473
 1673TIP3   OH2 4982   2.858   4.925   2.961
 1673TIP3    H1 4983   2.852   4.941   3.056
 1673TIP3    H2 4984   2.767   4.918   2.933
 1674TIP3   OH2 4985   1.264   3.928   3.779
 1674TIP3    H1 4986   1.266   3.912   3.873
 1674TIP3    H2 4987   1.171   3.927   3.756
 1675TIP3   OH2 4988   3.874   6.055   4.208
 1675TIP3    H1 4989   3.886   6.018   4.295
 1675TIP3    H2 4990   3.829   6.138   4.224
 1676TIP3   OH2 4991   2.390   4.610   1.947
 1676TIP3    H1 4992   2.456   4.618   2.016
 1676TIP3    H2 4993   2.415   4.676   1.882
 1677TIP3   OH2 4994   6.166   1.614   4.777
 1677TIP3    H1 4995   6.225   1.577   4.712
 1677TIP3    H2 4996   6.125   1.538   4.818
 1678TIP3   OH2 4997   3.838   1.907   3.409
 1678TIP3    H1 4998   3.855   1.814   3.420
 1678TIP3    H2 4999   3.881   1.948   3.484
 1679TIP3   OH2 5000   3.153   2.638   2.912
 1679TIP3    H1 5001   3.241   2.615   2.943
 1679TIP3    H2 5002   3.119   2.557   2.875
 1680TIP3   OH2 5003   0.560   2.642   4.445
 1680TIP3    H1 5004   0.524   2.712   4.499
 1680TIP3    H2 5005   0.529   2.663   4.356
 1681TIP3   OH2 5006   6.222   0.124   1.580
 1681TIP3    H1 5007   6.148   0.151   1.634
 1681TIP3    H2 5008   6.288   0.192   1.594
 1682TIP3   OH2 5009   6.335   0.624   0.151
 1682TIP3    H1 5010   6.412   0.679   0.165
 1682TIP3    H2 5011   6.279   0.675   0.093
 1683TIP3   OH2 5012   4.863   2.501   5.899
 1683TIP3    H1 5013   4.903   2.463   5.821
 1683TIP3    H2 5014   4.927   2.486   5.968
 1684TIP3   OH2 5015   0.502   0.920   5.126
 1684TIP3    H1 5016   0.444   0.877   5.063
 1684TIP3    H2 5017   0.583   0.869   5.123
 1685TIP3   OH2 5018  -0.008   2.361   2.338
 1685TIP3    H1 5019   0.041   2.326   2.264
 1685TIP3    H2 5020   0.035   2.324   2.415
 1686TIP3   OH2 5021   6.264   3.049   2.200
 1686TIP3    H1 5022   6.220   3.065   2.117
 1686TIP3    H2 5023   6.258   3.133   2.246
 1687TIP3   OH2 5024   6.079   6.757   3.687
 1687TIP3    H1 5025   6.165   6.768   3.648
 1687TIP3    H2 5026   6.095   6.708   3.768
 1688TIP3   OH2 5027   5.223   2.572   2.362
 1688TIP3    H1 5028   5.301   2.620   2.390
 1688TIP3    H2 5029   5.225   2.491   2.413
 1689TIP3   OH2 5030   3.471   1.710   2.326
 1689TIP3    H1 5031   3.465   1.636   2.387
 1689TIP3    H2 5032   3.385   1.713   2.283
 1690TIP3   OH2 5033   5.347   1.010   2.780
 1690TIP3    H1 5034   5.324   1.061   2.702
 1690TIP3    H2 5035   5.425   1.053   2.814
 1691TIP3   OH2 5036   6.630   3.436   2.447
 1691TIP3    H1 5037   6.555   3.434   2.507
 1691TIP3    H2 5038   6.617   3.360   2.390
 1692TIP3   OH2 5039   5.041   0.125   4.615
 1692TIP3    H1 5040   5.055   0.060   4.684
 1692TIP3    H2 5041   5.129   0.142   4.580
 1693TIP3   OH2 5042   0.146   0.954   0.745
 1693TIP3    H1 5043   0.191   1.037   0.727
 1693TIP3    H2 5044   0.217   0.891   0.761
 1694TIP3   OH2 5045   1.161   5.586   0.980
 1694TIP3    H1 5046   1.154   5.501   1.023
 1694TIP3    H2 5047   1.102   5.580   0.906
 1695TIP3   OH2 5048   3.715   6.317   4.012
 1695TIP3    H1 5049   3.660   6.395   4.000
 1695TIP3    H2 5050   3.770   6.314   3.934
 1696TIP3   OH2 5051   6.825   4.187   4.722
 1696TIP3    H1 5052   6.792   4.125   4.786
 1696TIP3    H2 5053   6.815   4.142   4.638
 1697TIP3   OH2 5054   4.615   4.990   4.982
 1697TIP3    H1 5055   4.615   4.903   5.023
 1697TIP3    H2 5056   4.634   5.050   5.054
 1698TIP3   OH2 5057   0.039   5.879   3.338
 1698TIP3    H1 5058   0.002   5.924   3.262
 1698TIP3    H2 5059   0.036   5.786   3.314
 1699TIP3   OH2 5060   0.691   0.119   1.831
 1699TIP3    H1 5061   0.644   0.060   1.771
 1699TIP3    H2 5062   0.626   0.183   1.858
 1700TIP3   OH2 5063   2.281   4.090   1.034
 1700TIP3    H1 5064   2.292   4.052   0.947
 1700TIP3    H2 5065   2.193   4.063   1.060
 1701TIP3   OH2 5066   3.189   3.661   0.229
 1701TIP3    H1 5067   3.118   3.601   0.251
 1701TIP3    H2 5068   3.229   3.683   0.313
 1702TIP3   OH2 5069   4.989   4.772   0.268
 1702TIP3    H1 5070   4.963   4.859   0.296
 1702TIP3    H2 5071   4.949   4.712   0.331
 1703TIP3   OH2 5072   4.282   2.215   5.581
 1703TIP3    H1 5073   4.235   2.165   5.513
 1703TIP3    H2 5074   4.361   2.163   5.598
 1704TIP3   OH2 5075   6.229   2.196   3.099
 1704TIP3    H1 5076   6.192   2.178   3.013
 1704TIP3    H2 5077   6.153   2.220   3.153
 1705TIP3   OH2 5078   4.165   3.474   0.064
 1705TIP3    H1 5079   4.074   3.447   0.072
 1705TIP3    H2 5080   4.214   3.408   0.113
 1706TIP3   OH2 5081   3.743   1.820   5.346
 1706TIP3    H1 5082   3.653   1.814   5.314
 1706TIP3    H2 5083   3.735   1.851   5.436
 1707TIP3   OH2 5084   2.304   6.254   5.552
 1707TIP3    H1 5085   2.374   6.307   5.590
 1707TIP3    H2 5086   2.341   6.219   5.471
 1708TIP3   OH2 5087   0.361   4.843   5.033
 1708TIP3    H1 5088   0.318   4.907   4.976
 1708TIP3    H2 5089   0.433   4.809   4.980
 1709TIP3   OH2 5090   4.684   4.050   3.270
 1709TIP3    H1 5091   4.753   4.023   3.210
 1709TIP3    H2 5092   4.727   4.112   3.329
 1710TIP3   OH2 5093   4.307   5.610   5.922
 1710TIP3    H1 5094   4.259   5.607   5.840
 1710TIP3    H2 5095   4.397   5.632   5.897
 1711TIP3   OH2 5096   6.943   1.867   1.210
 1711TIP3    H1 5097   6.964   1.924   1.283
 1711TIP3    H2 5098   7.021   1.871   1.154
 1712TIP3   OH2 5099   3.280   2.524   2.647
 1712TIP3    H1 5100   3.282   2.619   2.661
 1712TIP3    H2 5101   3.289   2.513   2.552
 1713TIP3   OH2 5102   2.549   6.241   1.384
 1713TIP3    H1 5103   2.609   6.167   1.389
 1713TIP3    H2 5104   2.604   6.318   1.396
 1714TIP3   OH2 5105   2.291   3.169   2.121
 1714TIP3    H1 5106   2.369   3.176   2.175
 1714TIP3    H2 5107   2.322   3.130   2.039
 1715TIP3   OH2 5108   4.201   1.794   4.245
 1715TIP3    H1 5109   4.180   1.827   4.158
 1715TIP3    H2 5110   4.181   1.701   4.241
 1716TIP3   OH2 5111   1.758   2.243   4.052
 1716TIP3    H1 5112   1.735   2.335   4.062
 1716TIP3    H2 5113   1.853   2.241   4.051
 1717TIP3   OH2 5114   6.597   1.356   2.430
 1717TIP3    H1 5115   6.578   1.266   2.404
 1717TIP3    H2 5116   6.642   1.349   2.513
 1718TIP3   OH2 5117   5.527   4.383   1.224
 1718TIP3    H1 5118   5.543   4.374   1.130
 1718TIP3    H2 5119   5.563   4.469   1.246
 1719TIP3   OH2 5120   3.504   5.720   0.994
 1719TIP3    H1 5121   3.441   5.661   0.952
 1719TIP3    H2 5122   3.540   5.772   0.922
 1720TIP3   OH2 5123   0.312   0.026   5.091
 1720TIP3    H1 5124   0.225   0.015   5.052
 1720TIP3    H2 5125   0.304   0.103   5.148
 1721TIP3   OH2 5126   2.087   6.523   3.328
 1721TIP3    H1 5127   2.169   6.529   3.279
 1721TIP3    H2 5128   2.112   6.487   3.413
 1722TIP3   OH2 5129   6.504   2.303   4.055
 1722TIP3    H1 5130   6.437   2.236   4.046
 1722TIP3    H2 5131   6.565   2.286   3.983
 1723TIP3   OH2 5132   3.779   5.509   3.152
 1723TIP3    H1 5133   3.730   5.490   3.072
 1723TIP3    H2 5134   3.856   5.558   3.122
 1724TIP3   OH2 5135   4.660   1.546   4.738
 1724TIP3    H1 5136   4.587   1.518   4.683
 1724TIP3    H2 5137   4.631   1.528   4.828
 1725TIP3   OH2 5138   6.044   0.725   1.839
 1725TIP3    H1 5139   6.122   0.697   1.790
 1725TIP3    H2 5140   6.079   0.770   1.916
 1726TIP3   OH2 5141   3.054   0.526   4.173
 1726TIP3    H1 5142   3.086   0.578   4.100
 1726TIP3    H2 5143   3.100   0.443   4.167
 1727TIP3   OH2 5144   6.667   0.055   1.424
 1727TIP3    H1 5145   6.720  -0.009   1.377
 1727TIP3    H2 5146   6.584   0.011   1.439
 1728TIP3   OH2 5147   4.841   3.529   4.386
 1728TIP3    H1 5148   4.931   3.559   4.380
 1728TIP3    H2 5149   4.793   3.605   4.419
 1729TIP3   OH2 5150   5.567   6.507   2.942
 1729TIP3    H1 5151   5.637   6.510   3.007
 1729TIP3    H2 5152   5.562   6.415   2.917
 1730TIP3   OH2 5153   0.764   3.659   2.381
 1730TIP3    H1 5154   0.680   3.655   2.426
 1730TIP3    H2 5155   0.813   3.583   2.413
 1731TIP3   OH2 5156   4.773   1.666   1.316
 1731TIP3    H1 5157   4.849   1.611   1.335
 1731TIP3    H2 5158   4.773   1.732   1.384
 1732TIP3   OH2 5159   3.768   1.218   0.669
 1732TIP3    H1 5160   3.818   1.150   0.624
 1732TIP3    H2 5161   3.807   1.300   0.641
 1733TIP3   OH2 5162   0.529   4.015   5.637
 1733TIP3    H1 5163   0.465   3.976   5.578
 1733TIP3    H2 5164   0.497   3.996   5.724
 1734TIP3   OH2 5165   6.361   2.671   5.037
 1734TIP3    H1 5166   6.405   2.726   5.102
 1734TIP3    H2 5167   6.356   2.726   4.959
 1735TIP3   OH2 5168   6.245   4.535   5.153
 1735TIP3    H1 5169   6.211   4.540   5.242
 1735TIP3    H2 5170   6.200   4.606   5.107
 1736TIP3   OH2 5171   6.728   6.624   5.912
 1736TIP3    H1 5172   6.788   6.644   5.840
 1736TIP3    H2 5173   6.644   6.608   5.870
 1737TIP3   OH2 5174   0.094   6.420   2.473
 1737TIP3    H1 5175   0.133   6.496   2.515
 1737TIP3    H2 5176   0.049   6.373   2.544
 1738TIP3   OH2 5177   3.726   5.968   5.284
 1738TIP3    H1 5178   3.690   6.010   5.362
 1738TIP3    H2 5179   3.811   6.011   5.271
 1739TIP3   OH2 5180   3.192   1.363   0.591
 1739TIP3    H1 5181   3.128   1.350   0.661
 1739TIP3    H2 5182   3.267   1.403   0.635
 1740TIP3   OH2 5183   6.654   6.280   4.513
 1740TIP3    H1 5184   6.616   6.193   4.525
 1740TIP3    H2 5185   6.744   6.264   4.486
 1741TIP3   OH2 5186   4.934   0.302   4.428
 1741TIP3    H1 5187   5.003   0.344   4.376
 1741TIP3    H2 5188   4.971   0.219   4.456
 1742TIP3   OH2 5189   1.819   1.266   3.789
 1742TIP3    H1 5190   1.789   1.310   3.709
 1742TIP3    H2 5191   1.914   1.279   3.790
 1743TIP3   OH2 5192   1.119   1.536   1.588
 1743TIP3    H1 5193   1.055   1.566   1.524
 1743TIP3    H2 5194   1.190   1.600   1.583
 1744TIP3   OH2 5195   1.960   5.966   0.437
 1744TIP3    H1 5196   1.882   5.912   0.455
 1744TIP3    H2 5197   2.028   5.928   0.492
 1745TIP3   OH2 5198   2.852   3.502   0.587
 1745TIP3    H1 5199   2.793   3.429   0.567
 1745TIP3    H2 5200   2.805   3.553   0.653
 1746TIP3   OH2 5201   2.197   3.476   0.524
 1746TIP3    H1 5202   2.221   3.550   0.579
 1746TIP3    H2 5203   2.225   3.399   0.574
 1747TIP3   OH2 5204   0.548   3.085   1.437
 1747TIP3    H1 5205   0.609   3.060   1.368
 1747TIP3    H2 5206   0.490   3.149   1.396
 1748TIP3   OH2 5207   5.397   0.326   3.582
 1748TIP3    H1 5208   5.463   0.260   3.561
 1748TIP3    H2 5209   5.376   0.366   3.497
 1749TIP3   OH2 5210   1.684   4.347   1.819
 1749TIP3    H1 5211   1.684   4.408   1.745
 1749TIP3    H2 5212   1.614   4.285   1.798
 1750TIP3   OH2 5213   4.897   0.390   2.449
 1750TIP3    H1 5214   4.870   0.315   2.502
 1750TIP3    H2 5215   4.845   0.383   2.369
 1751TIP3   OH2 5216   4.055   6.532   5.833
 1751TIP3    H1 5217   4.020   6.586   5.903
 1751TIP3    H2 5218   4.102   6.593   5.776
 1752TIP3   OH2 5219   6.195   6.159   0.882
 1752TIP3    H1 5220   6.119   6.131   0.830
 1752TIP3    H2 5221   6.159   6.219   0.947
 1753TIP3   OH2 5222   2.447   2.428   4.626
 1753TIP3    H1 5223   2.416   2.346   4.588
 1753TIP3    H2 5224   2.540   2.432   4.601
 1754TIP3   OH2 5225   4.783   4.178   4.965
 1754TIP3    H1 5226   4.743   4.150   5.047
 1754TIP3    H2 5227   4.845   4.109   4.944
 1755TIP3   OH2 5228   6.837   0.094   1.661
 1755TIP3    H1 5229   6.759   0.095   1.605
 1755TIP3    H2 5230   6.890   0.023   1.625
 1756TIP3   OH2 5231   5.638   4.590   0.847
 1756TIP3    H1 5232   5.561   4.549   0.808
 1756TIP3    H2 5233   5.662   4.533   0.920
 1757TIP3   OH2 5234   2.921   5.423   1.351
 1757TIP3    H1 5235   2.935   5.495   1.413
 1757TIP3    H2 5236   2.848   5.453   1.296
 1758TIP3   OH2 5237   4.963   1.990   0.016
 1758TIP3    H1 5238   4.993   2.076  -0.011
 1758TIP3    H2 5239   4.888   2.006   0.073
 1759TIP3   OH2 5240   6.650   6.026   2.114
 1759TIP3    H1 5241   6.745   6.032   2.120
 1759TIP3    H2 5242   6.618   6.063   2.197
 1760TIP3   OH2 5243   0.544   5.267   2.628
 1760TIP3    H1 5244   0.627   5.253   2.675
 1760TIP3    H2 5245   0.564   5.244   2.537
 1761TIP3   OH2 5246   7.189   5.345   4.268
 1761TIP3    H1 5247   7.262   5.306   4.221
 1761TIP3    H2 5248   7.117   5.283   4.255
 1762TIP3   OH2 5249   4.251   0.284   1.371
 1762TIP3    H1 5250   4.250   0.189   1.356
 1762TIP3    H2 5251   4.238   0.293   1.466
 1763TIP3   OH2 5252   1.140   4.670   0.141
 1763TIP3    H1 5253   1.143   4.586   0.186
 1763TIP3    H2 5254   1.185   4.654   0.058
 1764TIP3   OH2 5255   1.914   4.819   4.093
 1764TIP3    H1 5256   1.936   4.834   4.001
 1764TIP3    H2 5257   1.888   4.727   4.097
 1765TIP3   OH2 5258   4.438   0.207   4.192
 1765TIP3    H1 5259   4.475   0.244   4.112
 1765TIP3    H2 5260   4.510   0.157   4.230
 1766TIP3   OH2 5261   0.743   3.417   4.444
 1766TIP3    H1 5262   0.654   3.437   4.415
 1766TIP3    H2 5263   0.755   3.324   4.422
 1767TIP3   OH2 5264   4.846   3.437   2.683
 1767TIP3    H1 5265   4.925   3.384   2.677
 1767TIP3    H2 5266   4.838   3.460   2.775
 1768TIP3   OH2 5267   0.784   5.812   0.796
 1768TIP3    H1 5268   0.718   5.871   0.832
 1768TIP3    H2 5269   0.856   5.868   0.768
 1769TIP3   OH2 5270   4.998   4.619   4.346
 1769TIP3    H1 5271   5.079   4.571   4.365
 1769TIP3    H2 5272   5.021   4.677   4.273
 1770TIP3   OH2 5273   5.297   3.113   0.026
 1770TIP3    H1 5274   5.281   3.202  -0.005
 1770TIP3    H2 5275   5.333   3.125   0.114
 1771TIP3   OH2 5276   0.542   0.466   0.983
 1771TIP3    H1 5277   0.543   0.455   1.078
 1771TIP3    H2 5278   0.452   0.488   0.962
 1772TIP3   OH2 5279   2.634   4.494   5.344
 1772TIP3    H1 5280   2.680   4.510   5.262
 1772TIP3    H2 5281   2.637   4.577   5.391
 1773TIP3   OH2 5282   5.310   1.444   4.723
 1773TIP3    H1 5283   5.291   1.498   4.647
 1773TIP3    H2 5284   5.352   1.504   4.785
 1774TIP3   OH2 5285   4.080   0.472   0.395
 1774TIP3    H1 5286   4.036   0.525   0.328
 1774TIP3    H2 5287   4.071   0.522   0.475
 1775TIP3   OH2 5288   5.189   6.535   1.742
 1775TIP3    H1 5289   5.144   6.497   1.818
 1775TIP3    H2 5290   5.227   6.460   1.697
 1776TIP3   OH2 5291   6.477   2.707   0.486
 1776TIP3    H1 5292   6.469   2.744   0.398
 1776TIP3    H2 5293   6.451   2.615   0.475
 1777TIP3   OH2 5294   3.124   0.812   4.891
 1777TIP3    H1 5295   3.220   0.809   4.882
 1777TIP3    H2 5296   3.107   0.895   4.936
 1778TIP3   OH2 5297   3.351   1.405   4.932
 1778TIP3    H1 5298   3.275   1.391   4.988
 1778TIP3    H2 5299   3.315   1.409   4.843
 1779TIP3   OH2 5300   4.448   4.793   2.943
 1779TIP3    H1 5301   4.512   4.864   2.950
 1779TIP3    H2 5302   4.488   4.731   2.882
 1780TIP3   OH2 5303   0.926   5.697   5.513
 1780TIP3    H1 5304   1.013   5.668   5.484
 1780TIP3    H2 5305   0.885   5.618   5.548
 1781TIP3   OH2 5306   6.033   2.291   3.546
 1781TIP3    H1 5307   6.002   2.364   3.600
 1781TIP3    H2 5308   6.104   2.328   3.494
 1782TIP3   OH2 5309   3.172   4.651   1.508
 1782TIP3    H1 5310   3.099   4.602   1.546
 1782TIP3    H2 5311   3.167   4.738   1.548
 1783TIP3   OH2 5312   5.534   1.058   3.692
 1783TIP3    H1 5313   5.627   1.042   3.705
 1783TIP3    H2 5314   5.512   1.011   3.612
 1784TIP3   OH2 5315   5.481   3.078   1.427
 1784TIP3    H1 5316   5.464   2.985   1.444
 1784TIP3    H2 5317   5.570   3.080   1.392
 1785TIP3   OH2 5318   3.214   6.400   4.939
 1785TIP3    H1 5319   3.145   6.444   4.890
 1785TIP3    H2 5320   3.168   6.339   4.996
 1786TIP3   OH2 5321   3.377   2.509   3.756
 1786TIP3    H1 5322   3.358   2.514   3.663
 1786TIP3    H2 5323   3.420   2.592   3.777
 1787TIP3   OH2 5324   5.373   3.168   4.885
 1787TIP3    H1 5325   5.358   3.127   4.800
 1787TIP3    H2 5326   5.426   3.103   4.933
 1788TIP3   OH2 5327   1.860   0.496   3.322
 1788TIP3    H1 5328   1.890   0.574   3.275
 1788TIP3    H2 5329   1.930   0.479   3.385
 1789TIP3   OH2 5330   4.063   0.985   4.478
 1789TIP3    H1 5331   3.996   1.052   4.466
 1789TIP3    H2 5332   4.108   1.009   4.559
 1790TIP3   OH2 5333   5.645   6.119   3.159
 1790TIP3    H1 5334   5.684   6.163   3.235
 1790TIP3    H2 5335   5.551   6.117   3.179
 1791TIP3   OH2 5336   6.531   5.816   2.919
 1791TIP3    H1 5337   6.592   5.889   2.906
 1791TIP3    H2 5338   6.582   5.738   2.897
 1792TIP3   OH2 5339   1.325   0.541   4.796
 1792TIP3    H1 5340   1.254   0.588   4.841
 1792TIP3    H2 5341   1.292   0.527   4.708
 1793TIP3   OH2 5342   5.038   4.428   5.752
 1793TIP3    H1 5343   5.069   4.488   5.685
 1793TIP3    H2 5344   5.112   4.419   5.812
 1794TIP3   OH2 5345   4.338   2.433   3.929
 1794TIP3    H1 5346   4.383   2.472   4.004
 1794TIP3    H2 5347   4.409   2.398   3.875
 1795TIP3   OH2 5348   6.500   0.567   2.333
 1795TIP3    H1 5349   6.471   0.580   2.423
 1795TIP3    H2 5350   6.448   0.628   2.282
 1796TIP3   OH2 5351   5.676   0.820   3.180
 1796TIP3    H1 5352   5.695   0.780   3.265
 1796TIP3    H2 5353   5.615   0.891   3.201
 1797TIP3   OH2 5354   5.321   6.139   1.009
 1797TIP3    H1 5355   5.376   6.159   0.933
 1797TIP3    H2 5356   5.290   6.050   0.992
 1798TIP3   OH2 5357   5.221   1.770   1.690
 1798TIP3    H1 5358   5.130   1.746   1.709
 1798TIP3    H2 5359   5.244   1.718   1.613
 1799TIP3   OH2 5360   3.977   1.229   3.554
 1799TIP3    H1 5361   4.072   1.233   3.565
 1799TIP3    H2 5362   3.943   1.241   3.643
 1800TIP3   OH2 5363   4.532   1.702   1.724
 1800TIP3    H1 5364   4.486   1.695   1.808
 1800TIP3    H2 5365   4.588   1.624   1.721
 1801TIP3   OH2 5366   4.978   2.336   3.507
 1801TIP3    H1 5367   4.967   2.416   3.558
 1801TIP3    H2 5368   5.008   2.365   3.421
 1802TIP3   OH2 5369   1.458   1.524   5.598
 1802TIP3    H1 5370   1.470   1.467   5.674
 1802TIP3    H2 5371   1.366   1.512   5.573
 1803TIP3   OH2 5372   1.502   3.263   1.641
 1803TIP3    H1 5373   1.529   3.355   1.638
 1803TIP3    H2 5374   1.564   3.219   1.584
 1804TIP3   OH2 5375   1.087   6.713   4.115
 1804TIP3    H1 5376   1.041   6.767   4.180
 1804TIP3    H2 5377   1.150   6.773   4.074
 1805TIP3   OH2 5378   4.869   4.213   1.683
 1805TIP3    H1 5379   4.899   4.300   1.656
 1805TIP3    H2 5380   4.814   4.230   1.760
 1806TIP3   OH2 5381   1.583   0.147   4.487
 1806TIP3    H1 5382   1.603   0.059   4.454
 1806TIP3    H2 5383   1.491   0.144   4.510
 1807TIP3   OH2 5384   3.233   1.722   4.445
 1807TIP3    H1 5385   3.166   1.694   4.383
 1807TIP3    H2 5386   3.187   1.781   4.505
 1808TIP3   OH2 5387   4.414   4.588   2.438
 1808TIP3    H1 5388   4.395   4.593   2.344
 1808TIP3    H2 5389   4.426   4.678   2.465
 1809TIP3   OH2 5390   0.620   4.315   1.870
 1809TIP3    H1 5391   0.682   4.328   1.942
 1809TIP3    H2 5392   0.570   4.396   1.866
 1810TIP3   OH2 5393   6.825   1.021   4.048
 1810TIP3    H1 5394   6.781   1.036   4.132
 1810TIP3    H2 5395   6.894   0.957   4.068
 1811TIP3   OH2 5396   5.720   2.175   0.111
 1811TIP3    H1 5397   5.708   2.080   0.118
 1811TIP3    H2 5398   5.810   2.189   0.142
 1812TIP3   OH2 5399   3.263   2.204   5.628
 1812TIP3    H1 5400   3.224   2.154   5.556
 1812TIP3    H2 5401   3.271   2.140   5.700
 1813TIP3   OH2 5402   3.197   4.523   4.086
 1813TIP3    H1 5403   3.275   4.532   4.031
 1813TIP3    H2 5404   3.178   4.429   4.087
 1814TIP3   OH2 5405   7.113   3.977   1.764
 1814TIP3    H1 5406   7.050   4.006   1.830
 1814TIP3    H2 5407   7.198   3.982   1.807
 1815TIP3   OH2 5408   6.787   3.263   4.321
 1815TIP3    H1 5409   6.879   3.236   4.332
 1815TIP3    H2 5410   6.737   3.186   4.344
 1816TIP3   OH2 5411   2.219   5.150   3.637
 1816TIP3    H1 5412   2.276   5.145   3.560
 1816TIP3    H2 5413   2.275   5.127   3.710
 1817TIP3   OH2 5414   2.076   3.144   0.007
 1817TIP3    H1 5415   1.992   3.191   0.007
 1817TIP3    H2 5416   2.141   3.212  -0.007
 1818TIP3   OH2 5417   5.651   5.275   1.164
 1818TIP3    H1 5418   5.692   5.334   1.101
 1818TIP3    H2 5419   5.670   5.187   1.129
 1819TIP3   OH2 5420   6.225   2.477   4.629
 1819TIP3    H1 5421   6.297   2.454   4.687
 1819TIP3    H2 5422   6.256   2.554   4.582
 1820TIP3   OH2 5423   6.280   3.239   3.117
 1820TIP3    H1 5424   6.267   3.324   3.076
 1820TIP3    H2 5425   6.191   3.209   3.138
 1821TIP3   OH2 5426   7.191   4.716   2.341
 1821TIP3    H1 5427   7.285   4.710   2.329
 1821TIP3    H2 5428   7.179   4.728   2.436
 1822TIP3   OH2 5429   5.976   1.094   1.794
 1822TIP3    H1 5430   6.031   1.023   1.761
 1822TIP3    H2 5431   5.971   1.078   1.888
 1823TIP3   OH2 5432   3.576   6.362   3.377
 1823TIP3    H1 5433   3.650   6.320   3.334
 1823TIP3    H2 5434   3.500   6.310   3.353
 1824TIP3   OH2 5435   4.284   3.758   3.524
 1824TIP3    H1 5436   4.363   3.810   3.507
 1824TIP3    H2 5437   4.213   3.823   3.525
 1825TIP3   OH2 5438   3.984   5.452   4.066
 1825TIP3    H1 5439   3.902   5.462   4.017
 1825TIP3    H2 5440   4.052   5.460   3.999
 1826TIP3   OH2 5441   5.665   5.053   5.689
 1826TIP3    H1 5442   5.745   5.099   5.714
 1826TIP3    H2 5443   5.691   4.961   5.683
 1827TIP3   OH2 5444   0.037   6.415   4.686
 1827TIP3    H1 5445   0.080   6.342   4.732
 1827TIP3    H2 5446   0.087   6.424   4.605
 1828TIP3   OH2 5447   4.919   3.161   1.094
 1828TIP3    H1 5448   4.983   3.225   1.063
 1828TIP3    H2 5449   4.951   3.136   1.181
 1829TIP3   OH2 5450   6.638   4.384   3.816
 1829TIP3    H1 5451   6.685   4.467   3.828
 1829TIP3    H2 5452   6.697   4.329   3.765
 1830TIP3   OH2 5453   1.664   3.468   4.828
 1830TIP3    H1 5454   1.752   3.497   4.804
 1830TIP3    H2 5455   1.665   3.373   4.815
 1831TIP3   OH2 5456   4.492   4.590   2.748
 1831TIP3    H1 5457   4.401   4.610   2.725
 1831TIP3    H2 5458   4.491   4.498   2.773
 1832TIP3   OH2 5459   1.250   3.159   2.250
 1832TIP3    H1 5460   1.220   3.183   2.162
 1832TIP3    H2 5461   1.335   3.117   2.235
 1833TIP3   OH2 5462   3.946   4.733   5.103
 1833TIP3    H1 5463   3.920   4.646   5.071
 1833TIP3    H2 5464   3.990   4.715   5.186
 1834TIP3   OH2 5465   6.025   3.975   0.497
 1834TIP3    H1 5466   5.950   3.924   0.526
 1834TIP3    H2 5467   6.032   3.957   0.403
 1835TIP3   OH2 5468   6.163   6.207   0.117
 1835TIP3    H1 5469   6.132   6.266   0.186
 1835TIP3    H2 5470   6.156   6.258   0.037
 1836TIP3   OH2 5471   4.438   6.112   4.649
 1836TIP3    H1 5472   4.409   6.028   4.686
 1836TIP3    H2 5473   4.523   6.128   4.691
 1837TIP3   OH2 5474   6.849   0.837   0.427
 1837TIP3    H1 5475   6.935   0.796   0.425
 1837TIP3    H2 5476   6.866   0.928   0.452
 1838TIP3   OH2 5477   1.725   5.169   0.471
 1838TIP3    H1 5478   1.734   5.224   0.549
 1838TIP3    H2 5479   1.637   5.187   0.439
 1839TIP3   OH2 5480   3.806   3.498   4.729
 1839TIP3    H1 5481   3.753   3.489   4.808
 1839TIP3    H2 5482   3.810   3.593   4.714
 1840TIP3   OH2 5483   1.729   6.728   3.599
 1840TIP3    H1 5484   1.649   6.769   3.567
 1840TIP3    H2 5485   1.704   6.637   3.616
 1841TIP3   OH2 5486   7.104   4.712   4.789
 1841TIP3    H1 5487   7.198   4.695   4.786
 1841TIP3    H2 5488   7.096   4.807   4.784
 1842TIP3   OH2 5489   6.872   6.338   5.102
 1842TIP3    H1 5490   6.854   6.291   5.184
 1842TIP3    H2 5491   6.876   6.269   5.036
 1843TIP3   OH2 5492   3.487   6.380   2.211
 1843TIP3    H1 5493   3.414   6.434   2.180
 1843TIP3    H2 5494   3.483   6.387   2.306
 1844TIP3   OH2 5495   3.402   0.701   0.517
 1844TIP3    H1 5496   3.489   0.731   0.491
 1844TIP3    H2 5497   3.404   0.606   0.503
 1845TIP3   OH2 5498   6.220   3.835   1.016
 1845TIP3    H1 5499   6.262   3.751   0.999
 1845TIP3    H2 5500   6.287   3.900   0.995
 1846TIP3   OH2 5501   4.613   1.568   0.539
 1846TIP3    H1 5502   4.535   1.614   0.569
 1846TIP3    H2 5503   4.617   1.489   0.592
 1847TIP3   OH2 5504   6.871   4.897   0.148
 1847TIP3    H1 5505   6.909   4.976   0.109
 1847TIP3    H2 5506   6.780   4.897   0.119
 1848TIP3   OH2 5507   2.428   0.675   3.022
 1848TIP3    H1 5508   2.397   0.613   2.956
 1848TIP3    H2 5509   2.382   0.649   3.102
 1849TIP3   OH2 5510   2.655   3.614   2.792
 1849TIP3    H1 5511   2.569   3.612   2.749
 1849TIP3    H2 5512   2.718   3.606   2.721
 1850TIP3   OH2 5513   2.111   5.880   1.976
 1850TIP3    H1 5514   2.132   5.787   1.961
 1850TIP3    H2 5515   2.116   5.920   1.889
 1851TIP3   OH2 5516   0.919   3.350   1.890
 1851TIP3    H1 5517   0.834   3.336   1.849
 1851TIP3    H2 5518   0.905   3.333   1.983
 1852TIP3   OH2 5519   2.712   1.721   5.616
 1852TIP3    H1 5520   2.640   1.727   5.679
 1852TIP3    H2 5521   2.709   1.804   5.569
 1853TIP3   OH2 5522   2.874   6.447   5.849
 1853TIP3    H1 5523   2.802   6.505   5.873
 1853TIP3    H2 5524   2.953   6.499   5.861
 1854TIP3   OH2 5525   1.944   6.754   0.201
 1854TIP3    H1 5526   1.952   6.681   0.139
 1854TIP3    H2 5527   1.978   6.718   0.283
 1855TIP3   OH2 5528   2.408   5.038   5.489
 1855TIP3    H1 5529   2.454   5.025   5.406
 1855TIP3    H2 5530   2.323   5.076   5.463
 1856TIP3   OH2 5531   7.148   1.254   1.897
 1856TIP3    H1 5532   7.182   1.165   1.884
 1856TIP3    H2 5533   7.071   1.241   1.953
 1857TIP3   OH2 5534   6.060   6.234   5.160
 1857TIP3    H1 5535   6.002   6.287   5.106
 1857TIP3    H2 5536   6.025   6.145   5.152
 1858TIP3   OH2 5537   2.389   5.947   3.020
 1858TIP3    H1 5538   2.459   6.009   3.000
 1858TIP3    H2 5539   2.425   5.890   3.087
 1859TIP3   OH2 5540   1.880   1.568   5.539
 1859TIP3    H1 5541   1.936   1.495   5.514
 1859TIP3    H2 5542   1.934   1.646   5.527
 1860TIP3   OH2 5543   2.947   2.555   4.989
 1860TIP3    H1 5544   2.966   2.592   4.903
 1860TIP3    H2 5545   2.921   2.630   5.042
 1861TIP3   OH2 5546   0.743   4.302   0.630
 1861TIP3    H1 5547   0.758   4.261   0.545
 1861TIP3    H2 5548   0.670   4.253   0.668
 1862TIP3   OH2 5549   1.005   2.645   0.464
 1862TIP3    H1 5550   0.928   2.683   0.505
 1862TIP3    H2 5551   1.049   2.596   0.534
 1863TIP3   OH2 5552   2.426   5.875   4.182
 1863TIP3    H1 5553   2.352   5.918   4.139
 1863TIP3    H2 5554   2.424   5.786   4.148
 1864TIP3   OH2 5555   0.935   5.432   3.288
 1864TIP3    H1 5556   0.957   5.344   3.259
 1864TIP3    H2 5557   0.917   5.423   3.381
 1865TIP3   OH2 5558   5.065   5.956   1.084
 1865TIP3    H1 5559   5.038   6.039   1.123
 1865TIP3    H2 5560   4.982   5.909   1.070
 1866TIP3   OH2 5561   5.752   2.155   5.291
 1866TIP3    H1 5562   5.788   2.218   5.354
 1866TIP3    H2 5563   5.661   2.142   5.320
 1867TIP3   OH2 5564   5.961   5.169   5.405
 1867TIP3    H1 5565   5.898   5.132   5.343
 1867TIP3    H2 5566   6.044   5.127   5.383
 1868TIP3   OH2 5567   2.870   2.697   5.865
 1868TIP3    H1 5568   2.870   2.760   5.792
 1868TIP3    H2 5569   2.907   2.746   5.938
 1869TIP3   OH2 5570   4.680   1.204   3.910
 1869TIP3    H1 5571   4.682   1.110   3.929
 1869TIP3    H2 5572   4.733   1.244   3.980
 1870TIP3   OH2 5573   4.402   2.329   0.589
 1870TIP3    H1 5574   4.403   2.400   0.525
 1870TIP3    H2 5575   4.396   2.249   0.537
 1871TIP3   OH2 5576   0.480   2.952   3.447
 1871TIP3    H1 5577   0.533   2.982   3.521
 1871TIP3    H2 5578   0.530   2.880   3.410
 1872TIP3   OH2 5579   3.091   4.290   2.352
 1872TIP3    H1 5580   3.021   4.269   2.415
 1872TIP3    H2 5581   3.170   4.252   2.391
 1873TIP3   OH2 5582   6.094   6.236   2.876
 1873TIP3    H1 5583   6.115   6.327   2.896
 1873TIP3    H2 5584   6.165   6.185   2.913
 1874TIP3   OH2 5585   2.730   1.597   0.758
 1874TIP3    H1 5586   2.821   1.576   0.781
 1874TIP3    H2 5587   2.688   1.512   0.747
 1875TIP3   OH2 5588   6.132   5.566   5.181
 1875TIP3    H1 5589   6.209   5.587   5.234
 1875TIP3    H2 5590   6.060   5.561   5.244
 1876TIP3   OH2 5591   1.701   5.129   3.213
 1876TIP3    H1 5592   1.717   5.222   3.199
 1876TIP3    H2 5593   1.788   5.089   3.212
 1877TIP3   OH2 5594   4.291   0.069   5.176
 1877TIP3    H1 5595   4.324   0.158   5.160
 1877TIP3    H2 5596   4.369   0.019   5.199
 1878TIP3   OH2 5597   6.307   2.235   0.282
 1878TIP3    H1 5598   6.315   2.328   0.259
 1878TIP3    H2 5599   6.240   2.233   0.351
 1879TIP3   OH2 5600   3.004   3.643   3.222
 1879TIP3    H1 5601   2.987   3.674   3.133
 1879TIP3    H2 5602   3.071   3.575   3.212
 1880TIP3   OH2 5603   2.093   2.726   4.085
 1880TIP3    H1 5604   2.158   2.772   4.138
 1880TIP3    H2 5605   2.020   2.787   4.077
 1881TIP3   OH2 5606   6.141   4.777   0.555
 1881TIP3    H1 5607   6.070   4.794   0.616
 1881TIP3    H2 5608   6.098   4.743   0.476
 1882TIP3   OH2 5609   6.264   0.302   4.519
 1882TIP3    H1 5610   6.327   0.351   4.572
 1882TIP3    H2 5611   6.308   0.292   4.434
 1883TIP3   OH2 5612   5.276   1.319   1.495
 1883TIP3    H1 5613   5.319   1.236   1.476
 1883TIP3    H2 5614   5.192   1.294   1.535
 1884TIP3   OH2 5615   3.619   2.861   3.302
 1884TIP3    H1 5616   3.658   2.838   3.386
 1884TIP3    H2 5617   3.679   2.825   3.237
 1885TIP3   OH2 5618   4.867   2.641   4.281
 1885TIP3    H1 5619   4.846   2.592   4.201
 1885TIP3    H2 5620   4.807   2.716   4.280
 1886TIP3   OH2 5621   7.153   6.002   3.067
 1886TIP3    H1 5622   7.121   5.927   3.016
 1886TIP3    H2 5623   7.235   6.026   3.024
 1887TIP3   OH2 5624   6.717   2.710   1.099
 1887TIP3    H1 5625   6.743   2.655   1.172
 1887TIP3    H2 5626   6.621   2.708   1.100
 1888TIP3   OH2 5627   3.287   2.217   3.509
 1888TIP3    H1 5628   3.193   2.222   3.527
 1888TIP3    H2 5629   3.295   2.143   3.448
 1889TIP3   OH2 5630   6.461   2.851   2.069
 1889TIP3    H1 5631   6.429   2.941   2.062
 1889TIP3    H2 5632   6.463   2.819   1.979
 1890TIP3   OH2 5633   1.277   5.327   1.463
 1890TIP3    H1 5634   1.315   5.401   1.509
 1890TIP3    H2 5635   1.249   5.267   1.532
 1891TIP3   OH2 5636   0.140   5.140   5.754
 1891TIP3    H1 5637   0.197   5.083   5.806
 1891TIP3    H2 5638   0.150   5.227   5.792
 1892TIP3   OH2 5639   4.207   5.172   2.817
 1892TIP3    H1 5640   4.138   5.173   2.884
 1892TIP3    H2 5641   4.167   5.215   2.741
 1893TIP3   OH2 5642   2.035   6.657   0.457
 1893TIP3    H1 5643   2.096   6.713   0.505
 1893TIP3    H2 5644   1.969   6.632   0.521
 1894TIP3   OH2 5645   1.099   1.875   2.349
 1894TIP3    H1 5646   1.071   1.795   2.305
 1894TIP3    H2 5647   1.120   1.847   2.438
 1895TIP3   OH2 5648   6.373   4.053   4.968
 1895TIP3    H1 5649   6.367   4.149   4.966
 1895TIP3    H2 5650   6.406   4.029   4.882
 1896TIP3   OH2 5651   2.133   3.365   1.384
 1896TIP3    H1 5652   2.213   3.398   1.344
 1896TIP3    H2 5653   2.062   3.397   1.328
 1897TIP3   OH2 5654   6.713   3.141   5.920
 1897TIP3    H1 5655   6.679   3.052   5.922
 1897TIP3    H2 5656   6.731   3.158   5.828
 1898TIP3   OH2 5657   2.636   0.676   5.532
 1898TIP3    H1 5658   2.554   0.628   5.525
 1898TIP3    H2 5659   2.695   0.631   5.472
 1899TIP3   OH2 5660   2.109   4.756   4.284
 1899TIP3    H1 5661   2.184   4.796   4.240
 1899TIP3    H2 5662   2.033   4.789   4.237
 1900TIP3   OH2 5663   2.861   4.742   0.295
 1900TIP3    H1 5664   2.911   4.667   0.327
 1900TIP3    H2 5665   2.854   4.728   0.201
 1901TIP3   OH2 5666   4.551   3.755   4.665
 1901TIP3    H1 5667   4.564   3.818   4.736
 1901TIP3    H2 5668   4.551   3.670   4.708
 1902TIP3   OH2 5669   3.795   1.060   1.820
 1902TIP3    H1 5670   3.866   1.034   1.879
 1902TIP3    H2 5671   3.823   1.031   1.734
 1903TIP3   OH2 5672   0.609   0.837   2.011
 1903TIP3    H1 5673   0.619   0.932   2.016
 1903TIP3    H2 5674   0.547   0.824   1.939
 1904TIP3   OH2 5675   6.040   3.775   1.548
 1904TIP3    H1 5676   6.043   3.737   1.460
 1904TIP3    H2 5677   6.035   3.870   1.532
 1905TIP3   OH2 5678   0.142   1.020   4.374
 1905TIP3    H1 5679   0.203   0.948   4.361
 1905TIP3    H2 5680   0.192   1.088   4.419
 1906TIP3   OH2 5681   4.988   0.175   5.466
 1906TIP3    H1 5682   4.999   0.261   5.506
 1906TIP3    H2 5683   5.025   0.184   5.378
 1907TIP3   OH2 5684   0.273   0.401   3.926
 1907TIP3    H1 5685   0.186   0.363   3.915
 1907TIP3    H2 5686   0.329   0.327   3.951
 1908TIP3   OH2 5687   0.868   3.706   2.957
 1908TIP3    H1 5688   0.943   3.648   2.968
 1908TIP3    H2 5689   0.810   3.685   3.030
 1909TIP3   OH2 5690   6.399   6.395   3.561
 1909TIP3    H1 5691   6.414   6.485   3.592
 1909TIP3    H2 5692   6.484   6.366   3.529
 1910TIP3   OH2 5693   0.993   5.904   3.099
 1910TIP3    H1 5694   1.037   5.834   3.146
 1910TIP3    H2 5695   0.930   5.859   3.042
 1911TIP3   OH2 5696   1.530   0.678   3.251
 1911TIP3    H1 5697   1.524   0.588   3.219
 1911TIP3    H2 5698   1.590   0.673   3.325
 1912TIP3   OH2 5699   1.763   4.764   5.716
 1912TIP3    H1 5700   1.817   4.843   5.723
 1912TIP3    H2 5701   1.686   4.783   5.769
 1913TIP3   OH2 5702   0.997   6.203   0.367
 1913TIP3    H1 5703   0.930   6.209   0.299
 1913TIP3    H2 5704   0.959   6.248   0.442
 1914TIP3   OH2 5705   6.915   5.472   4.853
 1914TIP3    H1 5706   6.917   5.567   4.865
 1914TIP3    H2 5707   6.922   5.436   4.941
 1915TIP3   OH2 5708   6.034   2.902   3.604
 1915TIP3    H1 5709   6.096   2.855   3.661
 1915TIP3    H2 5710   6.090   2.945   3.539
 1916TIP3   OH2 5711   5.476   5.414   3.670
 1916TIP3    H1 5712   5.434   5.499   3.678
 1916TIP3    H2 5713   5.554   5.430   3.618
 1917TIP3   OH2 5714   0.669   5.914   3.230
 1917TIP3    H1 5715   0.741   5.888   3.288
 1917TIP3    H2 5716   0.700   5.994   3.188
 1918TIP3   OH2 5717   5.376   3.868   3.923
 1918TIP3    H1 5718   5.391   3.855   3.829
 1918TIP3    H2 5719   5.463   3.864   3.962
 1919TIP3   OH2 5720   3.192   3.985   2.864
 1919TIP3    H1 5721   3.210   3.972   2.770
 1919TIP3    H2 5722   3.269   4.033   2.895
 1920TIP3   OH2 5723   6.477   3.135   5.370
 1920TIP3    H1 5724   6.538   3.084   5.317
 1920TIP3    H2 5725   6.457   3.078   5.445
 1921TIP3   OH2 5726   4.186   4.822   0.531
 1921TIP3    H1 5727   4.205   4.754   0.596
 1921TIP3    H2 5728   4.117   4.784   0.477
 1922TIP3   OH2 5729   1.894   1.829   5.879
 1922TIP3    H1 5730   1.934   1.809   5.795
 1922TIP3    H2 5731   1.958   1.798   5.944
 1923TIP3   OH2 5732  -0.008   6.057   4.840
 1923TIP3    H1 5733   0.043   5.999   4.897
 1923TIP3    H2 5734   0.056   6.119   4.805
 1924TIP3   OH2 5735   5.250   0.782   0.687
 1924TIP3    H1 5736   5.288   0.859   0.645
 1924TIP3    H2 5737   5.286   0.784   0.776
 1925TIP3   OH2 5738   6.790   6.796   4.941
 1925TIP3    H1 5739   6.833   6.711   4.939
 1925TIP3    H2 5740   6.699   6.778   4.918
 1926TIP3   OH2 5741   6.059   4.592   5.614
 1926TIP3    H1 5742   5.978   4.598   5.665
 1926TIP3    H2 5743   6.107   4.672   5.636
 1927TIP3   OH2 5744   3.970   0.777   4.084
 1927TIP3    H1 5745   3.956   0.860   4.037
 1927TIP3    H2 5746   4.014   0.803   4.165
 1928TIP3   OH2 5747   4.975   1.066   5.141
 1928TIP3    H1 5748   4.991   0.972   5.130
 1928TIP3    H2 5749   5.014   1.105   5.062
 1929TIP3   OH2 5750   0.087   5.853   2.778
 1929TIP3    H1 5751   0.103   5.766   2.816
 1929TIP3    H2 5752   0.124   5.914   2.842
 1930TIP3   OH2 5753   2.458   2.626   2.253
 1930TIP3    H1 5754   2.441   2.673   2.335
 1930TIP3    H2 5755   2.373   2.620   2.211
 1931TIP3   OH2 5756   5.461   0.661   2.050
 1931TIP3    H1 5757   5.436   0.628   1.964
 1931TIP3    H2 5758   5.536   0.608   2.076
 1932TIP3   OH2 5759   3.404   4.627   0.923
 1932TIP3    H1 5760   3.439   4.717   0.920
 1932TIP3    H2 5761   3.372   4.617   1.012
 1933TIP3   OH2 5762   5.692   2.664   5.628
 1933TIP3    H1 5763   5.635   2.637   5.699
 1933TIP3    H2 5764   5.752   2.590   5.615
 1934TIP3   OH2 5765   1.278   3.352   0.353
 1934TIP3    H1 5766   1.329   3.416   0.303
 1934TIP3    H2 5767   1.266   3.278   0.293
 1935TIP3   OH2 5768   0.286   3.989   1.221
 1935TIP3    H1 5769   0.317   4.024   1.305
 1935TIP3    H2 5770   0.245   4.064   1.177
 1936TIP3   OH2 5771   0.047   5.409   1.900
 1936TIP3    H1 5772   0.037   5.504   1.910
 1936TIP3    H2 5773  -0.031   5.373   1.942
 1937TIP3   OH2 5774   6.338   6.116   3.529
 1937TIP3    H1 5775   6.289   6.071   3.460
 1937TIP3    H2 5776   6.383   6.188   3.484
 1938TIP3   OH2 5777   4.637   6.763   3.367
 1938TIP3    H1 5778   4.583   6.795   3.294
 1938TIP3    H2 5779   4.726   6.791   3.345
 1939TIP3   OH2 5780   6.924   6.271   1.695
 1939TIP3    H1 5781   7.009   6.266   1.738
 1939TIP3    H2 5782   6.864   6.298   1.764
 1940TIP3   OH2 5783   2.242   0.923   4.053
 1940TIP3    H1 5784   2.190   0.862   4.001
 1940TIP3    H2 5785   2.320   0.940   4.000
 1941TIP3   OH2 5786   5.044   0.428   5.544
 1941TIP3    H1 5787   5.103   0.423   5.619
 1941TIP3    H2 5788   4.988   0.504   5.562
 1942TIP3   OH2 5789   1.096   1.168   0.420
 1942TIP3    H1 5790   1.002   1.179   0.404
 1942TIP3    H2 5791   1.118   1.238   0.481
 1943TIP3   OH2 5792   3.222   4.255   1.882
 1943TIP3    H1 5793   3.200   4.199   1.956
 1943TIP3    H2 5794   3.198   4.343   1.909
 1944TIP3   OH2 5795   6.901   2.095   5.614
 1944TIP3    H1 5796   6.935   2.060   5.697
 1944TIP3    H2 5797   6.810   2.065   5.610
 1945TIP3   OH2 5798   7.147   5.988   2.611
 1945TIP3    H1 5799   7.081   6.033   2.664
 1945TIP3    H2 5800   7.195   5.934   2.674
 1946TIP3   OH2 5801   1.825   2.498   5.901
 1946TIP3    H1 5802   1.857   2.431   5.841
 1946TIP3    H2 5803   1.804   2.573   5.845
 1947TIP3   OH2 5804   0.591   1.939   3.521
 1947TIP3    H1 5805   0.686   1.953   3.515
 1947TIP3    H2 5806   0.578   1.899   3.607
 1948TIP3   OH2 5807   6.831   0.726   4.431
 1948TIP3    H1 5808   6.833   0.651   4.490
 1948TIP3    H2 5809   6.746   0.721   4.388
 1949TIP3   OH2 5810   1.414   0.461   5.199
 1949TIP3    H1 5811   1.395   0.550   5.169
 1949TIP3    H2 5812   1.459   0.419   5.125
 1950TIP3   OH2 5813   2.789   4.071   3.568
 1950TIP3    H1 5814   2.783   3.975   3.561
 1950TIP3    H2 5815   2.737   4.092   3.645
 1951TIP3   OH2 5816   5.742   5.468  -0.008
 1951TIP3    H1 5817   5.798   5.478   0.069
 1951TIP3    H2 5818   5.655   5.451   0.028
 1952TIP3   OH2 5819   6.034   2.626   2.982
 1952TIP3    H1 5820   5.988   2.581   2.912
 1952TIP3    H2 5821   6.066   2.556   3.039
 1953TIP3   OH2 5822   3.147   5.358   0.181
 1953TIP3    H1 5823   3.124   5.360   0.088
 1953TIP3    H2 5824   3.065   5.381   0.225
 1954TIP3   OH2 5825   6.381   4.893   4.538
 1954TIP3    H1 5826   6.473   4.885   4.563
 1954TIP3    H2 5827   6.375   4.845   4.455
 1955TIP3   OH2 5828   6.668   2.637   2.696
 1955TIP3    H1 5829   6.630   2.719   2.664
 1955TIP3    H2 5830   6.606   2.569   2.669
 1956TIP3   OH2 5831   4.817   5.016   2.021
 1956TIP3    H1 5832   4.902   5.012   1.977
 1956TIP3    H2 5833   4.756   4.972   1.961
 1957TIP3   OH2 5834   3.675   3.869   1.319
 1957TIP3    H1 5835   3.748   3.832   1.367
 1957TIP3    H2 5836   3.597   3.839   1.366
 1958TIP3   OH2 5837   3.029   5.099   3.772
 1958TIP3    H1 5838   3.105   5.076   3.718
 1958TIP3    H2 5839   3.066   5.125   3.856
 1959TIP3   OH2 5840   5.624   6.114   1.591
 1959TIP3    H1 5841   5.618   6.169   1.512
 1959TIP3    H2 5842   5.643   6.027   1.558
 1960TIP3   OH2 5843   2.295   4.593   3.931
 1960TIP3    H1 5844   2.376   4.609   3.979
 1960TIP3    H2 5845   2.254   4.520   3.978
 1961TIP3   OH2 5846   3.156   6.442   1.859
 1961TIP3    H1 5847   3.097   6.370   1.836
 1961TIP3    H2 5848   3.128   6.514   1.803
 1962TIP3   OH2 5849   3.664   2.749   5.720
 1962TIP3    H1 5850   3.600   2.713   5.781
 1962TIP3    H2 5851   3.610   2.787   5.650
 1963TIP3   OH2 5852   0.582   6.516   1.885
 1963TIP3    H1 5853   0.663   6.475   1.916
 1963TIP3    H2 5854   0.513   6.455   1.910
 1964TIP3   OH2 5855   1.518   6.360   1.084
 1964TIP3    H1 5856   1.580   6.413   1.033
 1964TIP3    H2 5857   1.482   6.298   1.021
 1965TIP3   OH2 5858   1.608   4.464   3.629
 1965TIP3    H1 5859   1.518   4.456   3.658
 1965TIP3    H2 5860   1.609   4.423   3.542
 1966TIP3   OH2 5861   3.028   4.600   5.040
 1966TIP3    H1 5862   3.008   4.511   5.069
 1966TIP3    H2 5863   3.040   4.592   4.946
 1967TIP3   OH2 5864   0.772   4.527   3.048
 1967TIP3    H1 5865   0.706   4.460   3.030
 1967TIP3    H2 5866   0.722   4.603   3.077
 1968TIP3   OH2 5867   3.548   5.440   1.062
 1968TIP3    H1 5868   3.523   5.525   1.099
 1968TIP3    H2 5869   3.469   5.387   1.071
 1969TIP3   OH2 5870   1.891   5.085   1.244
 1969TIP3    H1 5871   1.921   5.162   1.195
 1969TIP3    H2 5872   1.820   5.048   1.191
 1970TIP3   OH2 5873   5.042   2.949   0.934
 1970TIP3    H1 5874   4.993   2.929   0.855
 1970TIP3    H2 5875   4.992   3.019   0.977
 1971TIP3   OH2 5876   4.754   4.984   0.950
 1971TIP3    H1 5877   4.794   4.931   1.019
 1971TIP3    H2 5878   4.677   5.022   0.991
 1972TIP3   OH2 5879   2.269   2.288   5.100
 1972TIP3    H1 5880   2.300   2.200   5.081
 1972TIP3    H2 5881   2.250   2.287   5.194
 1973TIP3   OH2 5882   3.708   0.479   3.725
 1973TIP3    H1 5883   3.713   0.440   3.638
 1973TIP3    H2 5884   3.799   0.490   3.752
 1974TIP3   OH2 5885   2.354   0.942   3.209
 1974TIP3    H1 5886   2.328   0.956   3.118
 1974TIP3    H2 5887   2.282   0.978   3.260
 1975TIP3   OH2 5888   3.392   4.919   4.559
 1975TIP3    H1 5889   3.313   4.916   4.505
 1975TIP3    H2 5890   3.359   4.924   4.649
 1976TIP3   OH2 5891   0.310   1.381   4.785
 1976TIP3    H1 5892   0.307   1.476   4.781
 1976TIP3    H2 5893   0.402   1.359   4.769
 1977TIP3   OH2 5894   3.870   6.342   4.539
 1977TIP3    H1 5895   3.858   6.375   4.450
 1977TIP3    H2 5896   3.822   6.404   4.594
 1978TIP3   OH2 5897   7.220   2.631   5.250
 1978TIP3    H1 5898   7.261   2.697   5.307
 1978TIP3    H2 5899   7.127   2.653   5.252
 1979TIP3   OH2 5900   2.192   3.262   3.977
 1979TIP3    H1 5901   2.279   3.235   3.946
 1979TIP3    H2 5902   2.135   3.189   3.953
 1980TIP3   OH2 5903   3.334   1.882   2.934
 1980TIP3    H1 5904   3.327   1.882   3.029
 1980TIP3    H2 5905   3.426   1.862   2.916
 1981TIP3   OH2 5906   6.268   6.073   5.555
 1981TIP3    H1 5907   6.216   6.082   5.475
 1981TIP3    H2 5908   6.275   6.163   5.589
 1982TIP3   OH2 5909   2.442   0.114   2.522
 1982TIP3    H1 5910   2.514   0.054   2.540
 1982TIP3    H2 5911   2.380   0.062   2.470
 1983TIP3   OH2 5912   0.830   3.014   1.825
 1983TIP3    H1 5913   0.778   2.974   1.895
 1983TIP3    H2 5914   0.777   3.088   1.795
 1984TIP3   OH2 5915   4.501   3.771   2.121
 1984TIP3    H1 5916   4.413   3.799   2.095
 1984TIP3    H2 5917   4.537   3.848   2.166
 1985TIP3   OH2 5918   5.612   2.337   4.587
 1985TIP3    H1 5919   5.653   2.335   4.674
 1985TIP3    H2 5920   5.667   2.281   4.533
 1986TIP3   OH2 5921   0.578   6.046   3.919
 1986TIP3    H1 5922   0.513   6.055   3.988
 1986TIP3    H2 5923   0.615   6.133   3.908
 1987TIP3   OH2 5924   0.934   4.375   4.903
 1987TIP3    H1 5925   1.009   4.423   4.868
 1987TIP3    H2 5926   0.867   4.381   4.835
 1988TIP3   OH2 5927   0.220   1.191   5.438
 1988TIP3    H1 5928   0.264   1.107   5.425
 1988TIP3    H2 5929   0.240   1.215   5.528
 1989TIP3   OH2 5930   4.350   2.535   5.842
 1989TIP3    H1 5931   4.336   2.506   5.932
 1989TIP3    H2 5932   4.438   2.504   5.820
 1990TIP3   OH2 5933   6.273   3.913   5.591
 1990TIP3    H1 5934   6.283   3.826   5.554
 1990TIP3    H2 5935   6.329   3.913   5.669
 1991TIP3   OH2 5936   4.754   3.262   1.855
 1991TIP3    H1 5937   4.721   3.172   1.853
 1991TIP3    H2 5938   4.677   3.315   1.876
 1992TIP3   OH2 5939   4.223   6.795   0.758
 1992TIP3    H1 5940   4.276   6.772   0.682
 1992TIP3    H2 5941   4.286   6.799   0.830
 1993TIP3   OH2 5942   5.372   2.825   1.439
 1993TIP3    H1 5943   5.442   2.772   1.477
 1993TIP3    H2 5944   5.295   2.804   1.491
 1994TIP3   OH2 5945   4.804   4.181   4.496
 1994TIP3    H1 5946   4.851   4.127   4.433
 1994TIP3    H2 5947   4.739   4.122   4.535
 1995TIP3   OH2 5948   3.890   5.903   2.260
 1995TIP3    H1 5949   3.948   5.977   2.241
 1995TIP3    H2 5950   3.920   5.833   2.201
 1996TIP3   OH2 5951   1.679   3.882   2.049
 1996TIP3    H1 5952   1.748   3.947   2.055
 1996TIP3    H2 5953   1.667   3.851   2.139
 1997TIP3   OH2 5954   5.895   4.341   5.144
 1997TIP3    H1 5955   5.847   4.422   5.163
 1997TIP3    H2 5956   5.965   4.368   5.085
 1998TIP3   OH2 5957   4.300   6.102   4.407
 1998TIP3    H1 5958   4.240   6.174   4.392
 1998TIP3    H2 5959   4.331   6.114   4.497
 1999TIP3   OH2 5960   5.462   5.777   4.451
 1999TIP3    H1 5961   5.502   5.862   4.468
 1999TIP3    H2 5962   5.533   5.724   4.415
 2000TIP3   OH2 5963   2.097   5.453   3.942
 2000TIP3    H1 5964   2.175   5.446   3.998
 2000TIP3    H2 5965   2.062   5.364   3.940
 2001TIP3   OH2 5966   6.286   6.665   2.456
 2001TIP3    H1 5967   6.293   6.703   2.368
 2001TIP3    H2 5968   6.233   6.728   2.505
 2002TIP3   OH2 5969   3.844   2.709   1.234
 2002TIP3    H1 5970   3.812   2.619   1.242
 2002TIP3    H2 5971   3.827   2.733   1.143
 2003TIP3   OH2 5972   3.684   4.186   0.015
 2003TIP3    H1 5973   3.712   4.273  -0.011
 2003TIP3    H2 5974   3.662   4.142  -0.068
 2004TIP3   OH2 5975   2.127   1.605   5.331
 2004TIP3    H1 5976   2.209   1.571   5.297
 2004TIP3    H2 5977   2.106   1.549   5.406
 2005TIP3   OH2 5978   5.570   6.450   2.261
 2005TIP3    H1 5979   5.482   6.470   2.228
 2005TIP3    H2 5980   5.570   6.355   2.273
 2006TIP3   OH2 5981   0.162   0.216   2.948
 2006TIP3    H1 5982   0.223   0.262   3.005
 2006TIP3    H2 5983   0.204   0.131   2.931
 2007TIP3   OH2 5984   6.824   0.036   3.814
 2007TIP3    H1 5985   6.786   0.054   3.900
 2007TIP3    H2 5986   6.778   0.096   3.755
 2008TIP3   OH2 5987   3.983   4.542   0.048
 2008TIP3    H1 5988   4.038   4.469   0.074
 2008TIP3    H2 5989   3.949   4.518  -0.038
 2009TIP3   OH2 5990   5.243   3.771   0.444
 2009TIP3    H1 5991   5.173   3.720   0.484
 2009TIP3    H2 5992   5.198   3.850   0.411
 2010TIP3   OH2 5993   6.931   1.366   0.881
 2010TIP3    H1 5994   7.025   1.354   0.878
 2010TIP3    H2 5995   6.897   1.310   0.810
 2011TIP3   OH2 5996   1.233   5.693   1.879
 2011TIP3    H1 5997   1.138   5.695   1.885
 2011TIP3    H2 5998   1.257   5.603   1.902
 2012TIP3   OH2 5999   7.000   6.106   0.397
 2012TIP3    H1 6000   6.998   6.039   0.328
 2012TIP3    H2 6001   7.081   6.155   0.381
 2013TIP3   OH2 6002   7.059   3.016   0.560
 2013TIP3    H1 6003   7.106   2.933   0.566
 2013TIP3    H2 6004   7.027   3.032   0.649
 2014TIP3   OH2 6005   6.569   6.076   1.760
 2014TIP3    H1 6006   6.480   6.112   1.749
 2014TIP3    H2 6007   6.594   6.102   1.849
 2015TIP3   OH2 6008   0.494   1.276   0.246
 2015TIP3    H1 6009   0.516   1.246   0.334
 2015TIP3    H2 6010   0.553   1.350   0.231
 2016TIP3   OH2 6011   5.823   1.422   0.637
 2016TIP3    H1 6012   5.824   1.505   0.684
 2016TIP3    H2 6013   5.846   1.356   0.703
 2017TIP3   OH2 6014   0.964   5.422   4.896
 2017TIP3    H1 6015   0.951   5.327   4.895
 2017TIP3    H2 6016   0.962   5.447   4.804
 2018TIP3   OH2 6017   4.588   5.352   5.106
 2018TIP3    H1 6018   4.574   5.325   5.016
 2018TIP3    H2 6019   4.655   5.420   5.102
 2019TIP3   OH2 6020   3.837   1.453   4.750
 2019TIP3    H1 6021   3.752   1.415   4.727
 2019TIP3    H2 6022   3.855   1.421   4.838
 2020TIP3   OH2 6023   2.388   6.702   2.418
 2020TIP3    H1 6024   2.446   6.705   2.342
 2020TIP3    H2 6025   2.306   6.667   2.384
 2021TIP3   OH2 6026   0.188   0.573   5.197
 2021TIP3    H1 6027   0.174   0.647   5.138
 2021TIP3    H2 6028   0.160   0.605   5.283
 2022TIP3   OH2 6029   6.763   2.500   2.101
 2022TIP3    H1 6030   6.856   2.519   2.087
 2022TIP3    H2 6031   6.730   2.575   2.150
 2023TIP3   OH2 6032   5.291   6.024   5.080
 2023TIP3    H1 6033   5.298   6.115   5.053
 2023TIP3    H2 6034   5.369   6.008   5.134
 2024TIP3   OH2 6035   1.398   1.887   3.867
 2024TIP3    H1 6036   1.347   1.884   3.948
 2024TIP3    H2 6037   1.436   1.975   3.866
 2025TIP3   OH2 6038   3.813   1.492   5.380
 2025TIP3    H1 6039   3.844   1.573   5.422
 2025TIP3    H2 6040   3.817   1.427   5.450
 2026TIP3   OH2 6041   4.041   0.920   4.929
 2026TIP3    H1 6042   4.120   0.967   4.901
 2026TIP3    H2 6043   3.999   0.892   4.848
 2027TIP3   OH2 6044   2.428   2.198   5.340
 2027TIP3    H1 6045   2.471   2.270   5.386
 2027TIP3    H2 6046   2.499   2.156   5.290
 2028TIP3   OH2 6047   3.630   0.590   3.087
 2028TIP3    H1 6048   3.711   0.640   3.090
 2028TIP3    H2 6049   3.586   0.619   3.008
 2029TIP3   OH2 6050   4.654   0.185   0.377
 2029TIP3    H1 6051   4.673   0.265   0.427
 2029TIP3    H2 6052   4.686   0.114   0.433
 2030TIP3   OH2 6053   5.241   0.317   0.431
 2030TIP3    H1 6054   5.154   0.316   0.392
 2030TIP3    H2 6055   5.277   0.403   0.406
 2031TIP3   OH2 6056   0.912   5.091   0.943
 2031TIP3    H1 6057   0.987   5.095   0.883
 2031TIP3    H2 6058   0.929   5.159   1.008
 2032TIP3   OH2 6059   2.442   4.116   4.739
 2032TIP3    H1 6060   2.406   4.090   4.824
 2032TIP3    H2 6061   2.517   4.171   4.760
 2033TIP3   OH2 6062   0.849   5.721   1.186
 2033TIP3    H1 6063   0.870   5.700   1.278
 2033TIP3    H2 6064   0.922   5.777   1.158
 2034TIP3   OH2 6065   6.053   2.277   0.891
 2034TIP3    H1 6066   6.007   2.310   0.969
 2034TIP3    H2 6067   6.145   2.296   0.906
 2035TIP3   OH2 6068   1.703   5.474   0.324
 2035TIP3    H1 6069   1.644   5.413   0.280
 2035TIP3    H2 6070   1.645   5.539   0.364
 2036TIP3   OH2 6071   6.775   6.342   5.667
 2036TIP3    H1 6072   6.777   6.324   5.761
 2036TIP3    H2 6073   6.770   6.255   5.627
 2037TIP3   OH2 6074   1.919   2.642   0.535
 2037TIP3    H1 6075   1.977   2.620   0.609
 2037TIP3    H2 6076   1.974   2.633   0.458
 2038TIP3   OH2 6077   6.896   1.182   3.824
 2038TIP3    H1 6078   6.898   1.110   3.888
 2038TIP3    H2 6079   6.877   1.140   3.741
 2039TIP3   OH2 6080   0.362   6.054   4.059
 2039TIP3    H1 6081   0.405   6.076   4.142
 2039TIP3    H2 6082   0.333   5.964   4.070
 2040TIP3   OH2 6083   4.971   3.213   5.336
 2040TIP3    H1 6084   5.006   3.208   5.425
 2040TIP3    H2 6085   4.896   3.154   5.336
 2041TIP3   OH2 6086   5.121   3.104   5.535
 2041TIP3    H1 6087   5.078   3.094   5.620
 2041TIP3    H2 6088   5.157   3.017   5.516
 2042TIP3   OH2 6089   2.258   0.876   0.232
 2042TIP3    H1 6090   2.337   0.893   0.181
 2042TIP3    H2 6091   2.186   0.904   0.176
 2043TIP3   OH2 6092   7.206   1.950   4.986
 2043TIP3    H1 6093   7.205   2.003   5.066
 2043TIP3    H2 6094   7.236   1.864   5.014
 2044TIP3   OH2 6095   2.422   0.014   1.678
 2044TIP3    H1 6096   2.439   0.108   1.684
 2044TIP3    H2 6097   2.382  -0.009   1.761
 2045TIP3   OH2 6098   2.055   5.660   1.149
 2045TIP3    H1 6099   2.003   5.703   1.081
 2045TIP3    H2 6100   1.992   5.614   1.203
 2046TIP3   OH2 6101   1.526   3.150   4.333
 2046TIP3    H1 6102   1.550   3.126   4.244
 2046TIP3    H2 6103   1.445   3.201   4.323
 2047TIP3   OH2 6104   0.541   5.043   4.176
 2047TIP3    H1 6105   0.451   5.013   4.163
 2047TIP3    H2 6106   0.592   4.962   4.178
 2048TIP3   OH2 6107   3.239   5.190   1.728
 2048TIP3    H1 6108   3.176   5.178   1.799
 2048TIP3    H2 6109   3.320   5.150   1.761
 2049TIP3   OH2 6110   2.075   1.147   4.486
 2049TIP3    H1 6111   2.134   1.222   4.494
 2049TIP3    H2 6112   2.050   1.126   4.575
 2050TIP3   OH2 6113   0.072   2.341   1.535
 2050TIP3    H1 6114  -0.014   2.379   1.553
 2050TIP3    H2 6115   0.080   2.345   1.439
 2051TIP3   OH2 6116   4.815   4.233   3.420
 2051TIP3    H1 6117   4.817   4.328   3.412
 2051TIP3    H2 6118   4.830   4.217   3.513
 2052TIP3   OH2 6119   4.543   3.907   4.903
 2052TIP3    H1 6120   4.591   3.972   4.954
 2052TIP3    H2 6121   4.473   3.878   4.961
 2053TIP3   OH2 6122   6.591   4.735   0.253
 2053TIP3    H1 6123   6.512   4.682   0.252
 2053TIP3    H2 6124   6.562   4.822   0.224
 2054TIP3   OH2 6125   1.307   3.764   2.396
 2054TIP3    H1 6126   1.285   3.789   2.485
 2054TIP3    H2 6127   1.308   3.847   2.348
 2055TIP3   OH2 6128   1.009   1.955   4.210
 2055TIP3    H1 6129   0.954   1.922   4.139
 2055TIP3    H2 6130   1.047   2.036   4.176
 2056TIP3   OH2 6131   6.601   5.518   0.345
 2056TIP3    H1 6132   6.677   5.499   0.290
 2056TIP3    H2 6133   6.637   5.530   0.433
 2057TIP3   OH2 6134   3.703   6.603   2.419
 2057TIP3    H1 6135   3.633   6.646   2.369
 2057TIP3    H2 6136   3.712   6.517   2.377
 2058TIP3   OH2 6137   3.528   5.090   4.423
 2058TIP3    H1 6138   3.602   5.030   4.411
 2058TIP3    H2 6139   3.466   5.041   4.477
 2059TIP3   OH2 6140   6.967   0.432   0.319
 2059TIP3    H1 6141   7.040   0.456   0.376
 2059TIP3    H2 6142   6.903   0.392   0.378
 2060TIP3   OH2 6143   6.101   1.351   5.228
 2060TIP3    H1 6144   6.099   1.257   5.207
 2060TIP3    H2 6145   6.128   1.354   5.320
 2061TIP3   OH2 6146   5.464   3.523   3.843
 2061TIP3    H1 6147   5.514   3.593   3.884
 2061TIP3    H2 6148   5.374   3.537   3.874
 2062TIP3   OH2 6149   2.884   5.353   0.315
 2062TIP3    H1 6150   2.815   5.382   0.254
 2062TIP3    H2 6151   2.884   5.258   0.307
 2063TIP3   OH2 6152   0.752   1.880   0.493
 2063TIP3    H1 6153   0.712   1.964   0.470
 2063TIP3    H2 6154   0.845   1.901   0.505
 2064TIP3   OH2 6155   7.155   0.894   5.727
 2064TIP3    H1 6156   7.238   0.926   5.763
 2064TIP3    H2 6157   7.126   0.964   5.668
 2065TIP3   OH2 6158   4.912   5.555   0.702
 2065TIP3    H1 6159   4.870   5.588   0.622
 2065TIP3    H2 6160   4.969   5.627   0.730
 2066TIP3   OH2 6161   7.048   4.934   4.466
 2066TIP3    H1 6162   7.141   4.937   4.442
 2066TIP3    H2 6163   7.048   4.946   4.561
 2067TIP3   OH2 6164   1.910   6.286   0.920
 2067TIP3    H1 6165   1.927   6.318   0.831
 2067TIP3    H2 6166   1.890   6.364   0.971
 2068TIP3   OH2 6167   2.751   6.782   3.121
 2068TIP3    H1 6168   2.676   6.786   3.181
 2068TIP3    H2 6169   2.827   6.791   3.179
 2069TIP3   OH2 6170   2.271   4.427   2.258
 2069TIP3    H1 6171   2.279   4.520   2.237
 2069TIP3    H2 6172   2.188   4.400   2.217
 2070TIP3   OH2 6173   2.560   2.015   0.736
 2070TIP3    H1 6174   2.504   2.073   0.685
 2070TIP3    H2 6175   2.501   1.946   0.768
 2071TIP3   OH2 6176   6.753   2.926   3.346
 2071TIP3    H1 6177   6.749   3.020   3.329
 2071TIP3    H2 6178   6.663   2.895   3.334
 2072TIP3   OH2 6179   2.486   0.748   1.111
 2072TIP3    H1 6180   2.506   0.656   1.098
 2072TIP3    H2 6181   2.492   0.761   1.206
 2073TIP3   OH2 6182   0.725   2.666   0.502
 2073TIP3    H1 6183   0.733   2.621   0.418
 2073TIP3    H2 6184   0.686   2.601   0.561
 2074TIP3   OH2 6185   6.223   0.092   2.711
 2074TIP3    H1 6186   6.145   0.138   2.744
 2074TIP3    H2 6187   6.213   0.094   2.616
 2075TIP3   OH2 6188   0.273   5.373   0.841
 2075TIP3    H1 6189   0.208   5.367   0.911
 2075TIP3    H2 6190   0.232   5.428   0.774
 2076TIP3   OH2 6191   6.686   1.081   3.270
 2076TIP3    H1 6192   6.773   1.041   3.262
 2076TIP3    H2 6193   6.705   1.172   3.294
 2077TIP3   OH2 6194   1.173   5.559   5.556
 2077TIP3    H1 6195   1.151   5.500   5.484
 2077TIP3    H2 6196   1.246   5.612   5.522
 2078TIP3   OH2 6197   0.099   3.456   1.735
 2078TIP3    H1 6198   0.070   3.476   1.645
 2078TIP3    H2 6199   0.093   3.361   1.741
 2079TIP3   OH2 6200   6.155   3.641   3.479
 2079TIP3    H1 6201   6.168   3.567   3.539
 2079TIP3    H2 6202   6.231   3.698   3.494
 2080TIP3   OH2 6203   4.917   5.714   2.314
 2080TIP3    H1 6204   4.855   5.786   2.327
 2080TIP3    H2 6205   4.991   5.736   2.372
 2081TIP3   OH2 6206   2.049   4.155   2.376
 2081TIP3    H1 6207   2.059   4.141   2.282
 2081TIP3    H2 6208   1.959   4.128   2.395
 2082TIP3   OH2 6209   2.147   3.921   5.301
 2082TIP3    H1 6210   2.052   3.916   5.299
 2082TIP3    H2 6211   2.169   3.933   5.393
 2083TIP3   OH2 6212   3.380   6.740   2.328
 2083TIP3    H1 6213   3.345   6.702   2.408
 2083TIP3    H2 6214   3.349   6.682   2.258
 2084TIP3   OH2 6215   6.987   4.155   1.953
 2084TIP3    H1 6216   7.014   4.136   2.043
 2084TIP3    H2 6217   6.892   4.152   1.955
 2085TIP3   OH2 6218   7.234   6.561   3.729
 2085TIP3    H1 6219   7.150   6.543   3.686
 2085TIP3    H2 6220   7.210   6.583   3.819
 2086TIP3   OH2 6221   4.316   5.603   1.184
 2086TIP3    H1 6222   4.247   5.663   1.209
 2086TIP3    H2 6223   4.379   5.607   1.255
 2087TIP3   OH2 6224   0.046   3.490   2.294
 2087TIP3    H1 6225  -0.039   3.523   2.323
 2087TIP3    H2 6226   0.048   3.399   2.324
 2088TIP3   OH2 6227   1.165   1.017   5.193
 2088TIP3    H1 6228   1.128   1.012   5.104
 2088TIP3    H2 6229   1.247   1.066   5.182
 2089TIP3   OH2 6230   6.084   6.217   1.370
 2089TIP3    H1 6231   6.180   6.216   1.364
 2089TIP3    H2 6232   6.059   6.124   1.366
 2090TIP3   OH2 6233   6.887   0.304   5.505
 2090TIP3    H1 6234   6.901   0.281   5.413
 2090TIP3    H2 6235   6.820   0.242   5.534
 2091TIP3   OH2 6236   3.635   4.749   1.207
 2091TIP3    H1 6237   3.615   4.786   1.293
 2091TIP3    H2 6238   3.654   4.825   1.152
 2092TIP3   OH2 6239   1.502   5.805   5.081
 2092TIP3    H1 6240   1.551   5.725   5.064
 2092TIP3    H2 6241   1.566   5.875   5.067
 2093TIP3   OH2 6242   5.819   1.667   3.836
 2093TIP3    H1 6243   5.856   1.748   3.799
 2093TIP3    H2 6244   5.782   1.694   3.920
 2094TIP3   OH2 6245   2.822   3.345   1.118
 2094TIP3    H1 6246   2.872   3.417   1.079
 2094TIP3    H2 6247   2.885   3.297   1.171
 2095TIP3   OH2 6248   2.057   0.646   5.757
 2095TIP3    H1 6249   2.084   0.735   5.737
 2095TIP3    H2 6250   2.012   0.653   5.842
 2096TIP3   OH2 6251   0.866   6.232   5.364
 2096TIP3    H1 6252   0.959   6.253   5.357
 2096TIP3    H2 6253   0.830   6.253   5.278
 2097TIP3   OH2 6254   4.159   2.282   0.744
 2097TIP3    H1 6255   4.121   2.369   0.746
 2097TIP3    H2 6256   4.236   2.290   0.688
 2098TIP3   OH2 6257   1.667   6.333   0.457
 2098TIP3    H1 6258   1.584   6.381   0.453
 2098TIP3    H2 6259   1.718   6.368   0.385
 2099TIP3   OH2 6260   4.210   1.765   0.851
 2099TIP3    H1 6261   4.258   1.778   0.932
 2099TIP3    H2 6262   4.175   1.851   0.829
 2100TIP3   OH2 6263   2.864   1.295   2.339
 2100TIP3    H1 6264   2.820   1.233   2.281
 2100TIP3    H2 6265   2.947   1.252   2.362
 2101TIP3   OH2 6266   2.551   4.276   2.495
 2101TIP3    H1 6267   2.457   4.268   2.510
 2101TIP3    H2 6268   2.563   4.246   2.405
 2102TIP3   OH2 6269   3.593   2.611   0.578
 2102TIP3    H1 6270   3.564   2.587   0.666
 2102TIP3    H2 6271   3.647   2.537   0.550
 2103TIP3   OH2 6272   7.027   2.254   2.005
 2103TIP3    H1 6273   7.061   2.184   2.060
 2103TIP3    H2 6274   6.972   2.209   1.940
 2104TIP3   OH2 6275   2.375   3.433   1.262
 2104TIP3    H1 6276   2.461   3.457   1.296
 2104TIP3    H2 6277   2.388   3.422   1.168
 2105TIP3   OH2 6278   1.729   0.604   2.370
 2105TIP3    H1 6279   1.641   0.641   2.370
 2105TIP3    H2 6280   1.724   0.530   2.430
 2106TIP3   OH2 6281   0.381   0.978   5.352
 2106TIP3    H1 6282   0.429   0.973   5.269
 2106TIP3    H2 6283   0.449   0.967   5.419
 2107TIP3   OH2 6284   6.842   2.832   4.460
 2107TIP3    H1 6285   6.919   2.776   4.456
 2107TIP3    H2 6286   6.816   2.831   4.552
 2108TIP3   OH2 6287   3.645   4.001   2.698
 2108TIP3    H1 6288   3.717   4.053   2.735
 2108TIP3    H2 6289   3.640   4.028   2.606
 2109TIP3   OH2 6290   4.721   3.987   5.166
 2109TIP3    H1 6291   4.812   3.964   5.147
 2109TIP3    H2 6292   4.680   3.905   5.191
 2110TIP3   OH2 6293   4.260   3.133   4.965
 2110TIP3    H1 6294   4.213   3.127   4.881
 2110TIP3    H2 6295   4.215   3.071   5.022
 2111TIP3   OH2 6296   4.847   3.470   1.502
 2111TIP3    H1 6297   4.913   3.516   1.451
 2111TIP3    H2 6298   4.867   3.492   1.593
 2112TIP3   OH2 6299   3.601   2.684   2.083
 2112TIP3    H1 6300   3.661   2.759   2.074
 2112TIP3    H2 6301   3.514   2.723   2.079
 2113TIP3   OH2 6302   2.630   5.888   1.565
 2113TIP3    H1 6303   2.668   5.861   1.482
 2113TIP3    H2 6304   2.567   5.819   1.587
 2114TIP3   OH2 6305   4.867   3.990   1.949
 2114TIP3    H1 6306   4.900   3.905   1.979
 2114TIP3    H2 6307   4.900   3.998   1.859
 2115TIP3   OH2 6308   1.847   2.590   1.491
 2115TIP3    H1 6309   1.886   2.645   1.423
 2115TIP3    H2 6310   1.790   2.530   1.443
 2116TIP3   OH2 6311   1.115   2.308   0.717
 2116TIP3    H1 6312   1.037   2.343   0.675
 2116TIP3    H2 6313   1.097   2.215   0.728
 2117TIP3   OH2 6314   3.162   4.032   0.486
 2117TIP3    H1 6315   3.143   4.041   0.579
 2117TIP3    H2 6316   3.099   4.090   0.443
 2118TIP3   OH2 6317   5.782   2.522   1.546
 2118TIP3    H1 6318   5.722   2.450   1.529
 2118TIP3    H2 6319   5.814   2.548   1.459
 2119TIP3   OH2 6320   4.914   2.608   3.328
 2119TIP3    H1 6321   4.910   2.644   3.239
 2119TIP3    H2 6322   4.948   2.680   3.381
 2120TIP3   OH2 6323   4.223   4.007   4.406
 2120TIP3    H1 6324   4.287   3.942   4.436
 2120TIP3    H2 6325   4.214   3.990   4.312
 2121TIP3   OH2 6326   6.429   1.429   3.501
 2121TIP3    H1 6327   6.380   1.369   3.557
 2121TIP3    H2 6328   6.439   1.383   3.418
 2122TIP3   OH2 6329   4.524   2.677   5.552
 2122TIP3    H1 6330   4.502   2.705   5.641
 2122TIP3    H2 6331   4.475   2.595   5.541
 2123TIP3   OH2 6332   0.776   2.840   4.762
 2123TIP3    H1 6333   0.712   2.886   4.707
 2123TIP3    H2 6334   0.724   2.797   4.830
 2124TIP3   OH2 6335   4.897   0.432   3.925
 2124TIP3    H1 6336   4.866   0.377   3.854
 2124TIP3    H2 6337   4.891   0.377   4.003
 2125TIP3   OH2 6338   2.376   6.760   3.992
 2125TIP3    H1 6339   2.471   6.769   3.996
 2125TIP3    H2 6340   2.356   6.763   3.898
 2126TIP3   OH2 6341   1.621   5.611   0.589
 2126TIP3    H1 6342   1.544   5.615   0.647
 2126TIP3    H2 6343   1.638   5.702   0.565
 2127TIP3   OH2 6344   2.054   3.862   1.503
 2127TIP3    H1 6345   2.111   3.892   1.573
 2127TIP3    H2 6346   2.099   3.784   1.468
 2128TIP3   OH2 6347   0.120   2.120   3.119
 2128TIP3    H1 6348   0.040   2.086   3.158
 2128TIP3    H2 6349   0.114   2.093   3.027
 2129TIP3   OH2 6350   1.726   4.191   5.025
 2129TIP3    H1 6351   1.680   4.274   5.014
 2129TIP3    H2 6352   1.806   4.214   5.073
 2130TIP3   OH2 6353   2.248   0.229   1.393
 2130TIP3    H1 6354   2.266   0.154   1.450
 2130TIP3    H2 6355   2.172   0.203   1.342
 2131TIP3   OH2 6356   4.766   0.926   3.059
 2131TIP3    H1 6357   4.757   0.895   3.149
 2131TIP3    H2 6358   4.798   1.015   3.068
 2132TIP3   OH2 6359   3.054   0.797   0.112
 2132TIP3    H1 6360   3.109   0.722   0.134
 2132TIP3    H2 6361   3.034   0.838   0.196
 2133TIP3   OH2 6362   3.300   5.542   0.965
 2133TIP3    H1 6363   3.280   5.466   1.019
 2133TIP3    H2 6364   3.227   5.547   0.903
 2134TIP3   OH2 6365   4.628   1.797   2.704
 2134TIP3    H1 6366   4.681   1.721   2.680
 2134TIP3    H2 6367   4.539   1.774   2.680
 2135TIP3   OH2 6368   4.668   6.643   2.554
 2135TIP3    H1 6369   4.687   6.556   2.518
 2135TIP3    H2 6370   4.748   6.668   2.600
 2136TIP3   OH2 6371   1.618   1.876   4.640
 2136TIP3    H1 6372   1.625   1.972   4.640
 2136TIP3    H2 6373   1.534   1.858   4.599
 2137TIP3   OH2 6374   1.327   5.514   5.217
 2137TIP3    H1 6375   1.241   5.527   5.179
 2137TIP3    H2 6376   1.331   5.577   5.289
 2138TIP3   OH2 6377   5.520   4.283   2.574
 2138TIP3    H1 6378   5.589   4.342   2.543
 2138TIP3    H2 6379   5.441   4.312   2.529
 2139TIP3   OH2 6380   4.393   2.046   0.804
 2139TIP3    H1 6381   4.415   2.062   0.896
 2139TIP3    H2 6382   4.304   2.082   0.795
 2140TIP3   OH2 6383   1.661   1.718   5.441
 2140TIP3    H1 6384   1.728   1.666   5.486
 2140TIP3    H2 6385   1.681   1.808   5.466
 2141TIP3   OH2 6386   4.214   5.650   0.604
 2141TIP3    H1 6387   4.135   5.696   0.576
 2141TIP3    H2 6388   4.232   5.683   0.692
 2142TIP3   OH2 6389   5.092   6.290   2.226
 2142TIP3    H1 6390   5.163   6.256   2.279
 2142TIP3    H2 6391   5.029   6.218   2.221
 2143TIP3   OH2 6392   5.829   0.330   4.851
 2143TIP3    H1 6393   5.876   0.297   4.928
 2143TIP3    H2 6394   5.791   0.413   4.880
 2144TIP3   OH2 6395   0.315   5.339   4.650
 2144TIP3    H1 6396   0.322   5.429   4.681
 2144TIP3    H2 6397   0.220   5.323   4.645
 2145TIP3   OH2 6398   1.112   5.719   0.666
 2145TIP3    H1 6399   1.062   5.726   0.585
 2145TIP3    H2 6400   1.116   5.809   0.699
 2146TIP3   OH2 6401   6.349   2.851   2.396
 2146TIP3    H1 6402   6.254   2.850   2.405
 2146TIP3    H2 6403   6.366   2.919   2.331
 2147TIP3   OH2 6404   4.182   1.507   5.599
 2147TIP3    H1 6405   4.099   1.544   5.570
 2147TIP3    H2 6406   4.224   1.477   5.519
 2148TIP3   OH2 6407   4.649   5.283   3.469
 2148TIP3    H1 6408   4.600   5.328   3.401
 2148TIP3    H2 6409   4.724   5.244   3.423
 2149TIP3   OH2 6410   0.153   5.705   4.904
 2149TIP3    H1 6411   0.193   5.630   4.949
 2149TIP3    H2 6412   0.223   5.741   4.849
 2150TIP3   OH2 6413   4.873   5.869   5.216
 2150TIP3    H1 6414   4.887   5.932   5.145
 2150TIP3    H2 6415   4.960   5.834   5.234
 2151TIP3   OH2 6416   5.725   3.455   5.425
 2151TIP3    H1 6417   5.675   3.482   5.348
 2151TIP3    H2 6418   5.762   3.370   5.400
 2152TIP3   OH2 6419   6.118   1.138   2.052
 2152TIP3    H1 6420   6.080   1.224   2.034
 2152TIP3    H2 6421   6.195   1.133   1.996
 2153TIP3   OH2 6422   3.867   3.686   2.687
 2153TIP3    H1 6423   3.879   3.733   2.769
 2153TIP3    H2 6424   3.890   3.750   2.619
 2154TIP3   OH2 6425   3.052   4.167   3.596
 2154TIP3    H1 6426   3.097   4.120   3.526
 2154TIP3    H2 6427   2.961   4.173   3.567
 2155TIP3   OH2 6428   5.365   0.706   0.936
 2155TIP3    H1 6429   5.421   0.635   0.967
 2155TIP3    H2 6430   5.280   0.688   0.976
 2156TIP3   OH2 6431   3.696   5.348   4.535
 2156TIP3    H1 6432   3.666   5.305   4.454
 2156TIP3    H2 6433   3.756   5.416   4.505
 2157TIP3   OH2 6434   1.322   0.622   3.531
 2157TIP3    H1 6435   1.398   0.565   3.529
 2157TIP3    H2 6436   1.287   0.620   3.442
 2158TIP3   OH2 6437   1.805   0.036   2.814
 2158TIP3    H1 6438   1.871   0.008   2.878
 2158TIP3    H2 6439   1.829   0.127   2.795
 2159TIP3   OH2 6440   6.870   4.329   5.384
 2159TIP3    H1 6441   6.919   4.276   5.447
 2159TIP3    H2 6442   6.854   4.270   5.310
 2160TIP3   OH2 6443   3.632   5.558   4.180
 2160TIP3    H1 6444   3.604   5.469   4.199
 2160TIP3    H2 6445   3.672   5.588   4.262
 2161TIP3   OH2 6446   3.068   1.032   1.944
 2161TIP3    H1 6447   3.000   1.099   1.947
 2161TIP3    H2 6448   3.150   1.081   1.931
 2162TIP3   OH2 6449   4.696   4.507   4.220
 2162TIP3    H1 6450   4.682   4.475   4.309
 2162TIP3    H2 6451   4.692   4.603   4.229
 2163TIP3   OH2 6452   6.949   3.207   5.269
 2163TIP3    H1 6453   7.021   3.152   5.300
 2163TIP3    H2 6454   6.938   3.273   5.338
 2164TIP3   OH2 6455   4.969   6.469   1.093
 2164TIP3    H1 6456   4.901   6.463   1.160
 2164TIP3    H2 6457   4.953   6.553   1.050
 2165TIP3   OH2 6458   6.952   3.987   5.788
 2165TIP3    H1 6459   7.031   4.025   5.827
 2165TIP3    H2 6460   6.970   3.893   5.785
 2166TIP3   OH2 6461   2.081   2.656   0.316
 2166TIP3    H1 6462   2.026   2.637   0.239
 2166TIP3    H2 6463   2.164   2.686   0.279
 2167TIP3   OH2 6464   6.144   5.752   1.633
 2167TIP3    H1 6465   6.186   5.756   1.719
 2167TIP3    H2 6466   6.070   5.692   1.645
 2168TIP3   OH2 6467   2.450   0.885   0.446
 2168TIP3    H1 6468   2.511   0.812   0.439
 2168TIP3    H2 6469   2.382   0.865   0.382
 2169TIP3   OH2 6470   1.464   1.282   1.180
 2169TIP3    H1 6471   1.529   1.219   1.148
 2169TIP3    H2 6472   1.379   1.242   1.159
 2170TIP3   OH2 6473   0.793   3.250   2.119
 2170TIP3    H1 6474   0.719   3.201   2.154
 2170TIP3    H2 6475   0.860   3.243   2.187
 2171TIP3   OH2 6476   4.159   2.213   2.699
 2171TIP3    H1 6477   4.084   2.250   2.652
 2171TIP3    H2 6478   4.121   2.176   2.779
 2172TIP3   OH2 6479   7.090   0.730   0.371
 2172TIP3    H1 6480   7.102   0.811   0.322
 2172TIP3    H2 6481   7.149   0.739   0.447
 2173TIP3   OH2 6482   0.593   0.425   1.261
 2173TIP3    H1 6483   0.667   0.484   1.272
 2173TIP3    H2 6484   0.564   0.407   1.351
 2174TIP3   OH2 6485   7.040   3.605   2.436
 2174TIP3    H1 6486   7.115   3.664   2.448
 2174TIP3    H2 6487   6.965   3.656   2.468
 2175TIP3   OH2 6488   4.482   1.968   5.701
 2175TIP3    H1 6489   4.531   1.941   5.624
 2175TIP3    H2 6490   4.393   1.939   5.684
 2176TIP3   OH2 6491   2.289   1.816   5.461
 2176TIP3    H1 6492   2.380   1.839   5.480
 2176TIP3    H2 6493   2.296   1.742   5.400
 2177TIP3   OH2 6494   3.290   4.490   5.140
 2177TIP3    H1 6495   3.371   4.540   5.150
 2177TIP3    H2 6496   3.223   4.557   5.123
 2178TIP3   OH2 6497   3.991   3.895   4.045
 2178TIP3    H1 6498   4.049   3.937   4.109
 2178TIP3    H2 6499   3.991   3.803   4.071
 2179TIP3   OH2 6500   3.963   0.349   1.219
 2179TIP3    H1 6501   3.982   0.307   1.135
 2179TIP3    H2 6502   3.990   0.285   1.285
 2180TIP3   OH2 6503   0.915   3.944   3.393
 2180TIP3    H1 6504   0.859   3.973   3.321
 2180TIP3    H2 6505   0.994   3.997   3.386
 2181TIP3   OH2 6506   1.710   3.683   1.232
 2181TIP3    H1 6507   1.657   3.692   1.153
 2181TIP3    H2 6508   1.646   3.670   1.302
 2182TIP3   OH2 6509   0.767   6.164   5.058
 2182TIP3    H1 6510   0.729   6.245   5.024
 2182TIP3    H2 6511   0.831   6.137   4.992
 2183TIP3   OH2 6512   6.326   3.610   1.264
 2183TIP3    H1 6513   6.399   3.672   1.257
 2183TIP3    H2 6514   6.363   3.526   1.234
 2184TIP3   OH2 6515   2.802   6.740   0.294
 2184TIP3    H1 6516   2.791   6.654   0.254
 2184TIP3    H2 6517   2.738   6.796   0.248
 2185TIP3   OH2 6518   2.490   6.131   3.315
 2185TIP3    H1 6519   2.411   6.168   3.275
 2185TIP3    H2 6520   2.458   6.059   3.370
 2186TIP3   OH2 6521   0.077   6.209   1.926
 2186TIP3    H1 6522   0.157   6.260   1.941
 2186TIP3    H2 6523   0.049   6.234   1.838
 2187TIP3   OH2 6524   2.226   0.169   4.489
 2187TIP3    H1 6525   2.243   0.131   4.575
 2187TIP3    H2 6526   2.131   0.170   4.481
 2188TIP3   OH2 6527   3.492   0.809   0.199
 2188TIP3    H1 6528   3.541   0.822   0.280
 2188TIP3    H2 6529   3.436   0.733   0.217
 2189TIP3   OH2 6530   3.334   2.883   3.957
 2189TIP3    H1 6531   3.265   2.817   3.957
 2189TIP3    H2 6532   3.389   2.860   3.882
 2190TIP3   OH2 6533   0.108   3.575   2.817
 2190TIP3    H1 6534   0.202   3.581   2.837
 2190TIP3    H2 6535   0.105   3.555   2.724
 2191TIP3   OH2 6536   4.332   5.164   1.446
 2191TIP3    H1 6537   4.277   5.241   1.434
 2191TIP3    H2 6538   4.415   5.187   1.404
 2192TIP3   OH2 6539   6.041   5.923   1.435
 2192TIP3    H1 6540   6.085   5.902   1.517
 2192TIP3    H2 6541   5.980   5.851   1.421
 2193TIP3   OH2 6542   3.958   2.835   4.560
 2193TIP3    H1 6543   3.911   2.787   4.491
 2193TIP3    H2 6544   3.984   2.768   4.623
 2194TIP3   OH2 6545   6.469   5.091   2.376
 2194TIP3    H1 6546   6.381   5.072   2.409
 2194TIP3    H2 6547   6.458   5.173   2.326
 2195TIP3   OH2 6548   0.070   6.246   4.078
 2195TIP3    H1 6549   0.118   6.203   4.149
 2195TIP3    H2 6550   0.127   6.318   4.050
 2196TIP3   OH2 6551   0.723   4.354   5.707
 2196TIP3    H1 6552   0.651   4.312   5.662
 2196TIP3    H2 6553   0.801   4.324   5.661
 2197TIP3   OH2 6554   7.118   3.097   1.898
 2197TIP3    H1 6555   7.184   3.140   1.845
 2197TIP3    H2 6556   7.153   3.098   1.987
 2198TIP3   OH2 6557   1.814   4.683   2.537
 2198TIP3    H1 6558   1.746   4.746   2.515
 2198TIP3    H2 6559   1.872   4.683   2.461
 2199TIP3   OH2 6560   2.654   5.766   0.918
 2199TIP3    H1 6561   2.703   5.703   0.865
 2199TIP3    H2 6562   2.591   5.804   0.857
 2200TIP3   OH2 6563   6.962   3.190   3.290
 2200TIP3    H1 6564   6.882   3.192   3.237
 2200TIP3    H2 6565   6.930   3.187   3.381
 2201TIP3   OH2 6566   6.892   0.406   2.106
 2201TIP3    H1 6567   6.798   0.419   2.112
 2201TIP3    H2 6568   6.904   0.350   2.029
 2202TIP3   OH2 6569   7.060   1.975   5.808
 2202TIP3    H1 6570   7.041   2.032   5.882
 2202TIP3    H2 6571   7.143   1.933   5.830
 2203TIP3   OH2 6572   4.662   2.333   5.501
 2203TIP3    H1 6573   4.642   2.287   5.582
 2203TIP3    H2 6574   4.722   2.403   5.528
 2204TIP3   OH2 6575   3.419   1.529   0.734
 2204TIP3    H1 6576   3.470   1.587   0.790
 2204TIP3    H2 6577   3.479   1.505   0.663
 2205TIP3   OH2 6578   0.613   4.859   3.507
 2205TIP3    H1 6579   0.706   4.851   3.489
 2205TIP3    H2 6580   0.573   4.877   3.422
 2206TIP3   OH2 6581   3.332   5.883   1.529
 2206TIP3    H1 6582   3.382   5.951   1.575
 2206TIP3    H2 6583   3.349   5.803   1.578
 2207TIP3   OH2 6584   3.964   2.682   1.646
 2207TIP3    H1 6585   3.970   2.594   1.610
 2207TIP3    H2 6586   3.892   2.678   1.709
 2208TIP3   OH2 6587   1.064   3.594   4.548
 2208TIP3    H1 6588   0.987   3.562   4.501
 2208TIP3    H2 6589   1.105   3.516   4.585
 2209TIP3   OH2 6590   6.262   2.054   3.334
 2209TIP3    H1 6591   6.204   1.979   3.322
 2209TIP3    H2 6592   6.272   2.092   3.247
 2210TIP3   OH2 6593   3.770   2.786   4.788
 2210TIP3    H1 6594   3.733   2.766   4.874
 2210TIP3    H2 6595   3.835   2.717   4.773
 2211TIP3   OH2 6596   0.532   1.244   3.891
 2211TIP3    H1 6597   0.483   1.323   3.913
 2211TIP3    H2 6598   0.479   1.172   3.925
 2212TIP3   OH2 6599   2.439   3.659   3.717
 2212TIP3    H1 6600   2.531   3.645   3.698
 2212TIP3    H2 6601   2.435   3.668   3.812
 2213TIP3   OH2 6602   1.207   1.877   0.570
 2213TIP3    H1 6603   1.286   1.926   0.591
 2213TIP3    H2 6604   1.188   1.826   0.649
 2214TIP3   OH2 6605   2.612   4.412   1.552
 2214TIP3    H1 6606   2.664   4.420   1.632
 2214TIP3    H2 6607   2.570   4.326   1.559
 2215TIP3   OH2 6608   3.727   1.682   2.609
 2215TIP3    H1 6609   3.695   1.607   2.559
 2215TIP3    H2 6610   3.807   1.709   2.564
 2216TIP3   OH2 6611   0.047   0.976   1.858
 2216TIP3    H1 6612  -0.005   0.915   1.804
 2216TIP3    H2 6613   0.035   0.944   1.947
 2217TIP3   OH2 6614   2.132   2.578   5.915
 2217TIP3    H1 6615   2.177   2.537   5.841
 2217TIP3    H2 6616   2.106   2.504   5.970
 2218TIP3   OH2 6617   5.759   4.159   4.684
 2218TIP3    H1 6618   5.809   4.240   4.676
 2218TIP3    H2 6619   5.779   4.127   4.772
 2219TIP3   OH2 6620   2.102   1.611   0.976
 2219TIP3    H1 6621   2.123   1.703   0.992
 2219TIP3    H2 6622   2.185   1.565   0.984
 2220TIP3   OH2 6623   2.036   3.052   3.908
 2220TIP3    H1 6624   2.058   3.027   3.818
 2220TIP3    H2 6625   1.951   3.095   3.901
 2221TIP3   OH2 6626   6.058   6.374   3.827
 2221TIP3    H1 6627   6.113   6.305   3.792
 2221TIP3    H2 6628   6.028   6.341   3.911
 2222TIP3   OH2 6629   4.223   1.535   5.321
 2222TIP3    H1 6630   4.191   1.447   5.302
 2222TIP3    H2 6631   4.183   1.590   5.254
 2223TIP3   OH2 6632   3.040   3.130   0.593
 2223TIP3    H1 6633   3.044   3.177   0.510
 2223TIP3    H2 6634   3.119   3.157   0.640
 2224TIP3   OH2 6635   6.543   4.573   3.405
 2224TIP3    H1 6636   6.479   4.588   3.474
 2224TIP3    H2 6637   6.580   4.660   3.387
 2225TIP3   OH2 6638   1.353   3.723   1.949
 2225TIP3    H1 6639   1.388   3.764   1.870
 2225TIP3    H2 6640   1.269   3.685   1.921
 2226TIP3   OH2 6641   7.045   5.599   1.150
 2226TIP3    H1 6642   6.952   5.595   1.169
 2226TIP3    H2 6643   7.087   5.610   1.235
 2227TIP3   OH2 6644   0.980   4.509   5.300
 2227TIP3    H1 6645   1.051   4.522   5.363
 2227TIP3    H2 6646   0.980   4.415   5.283
 2228TIP3   OH2 6647   0.246   5.443   5.016
 2228TIP3    H1 6648   0.278   5.358   4.987
 2228TIP3    H2 6649   0.322   5.483   5.059
 2229TIP3   OH2 6650   1.324   5.892   2.253
 2229TIP3    H1 6651   1.343   5.873   2.161
 2229TIP3    H2 6652   1.229   5.900   2.257
 2230TIP3   OH2 6653   4.107   5.926   5.590
 2230TIP3    H1 6654   4.029   5.940   5.643
 2230TIP3    H2 6655   4.177   5.909   5.653
 2231TIP3   OH2 6656   3.890   1.790   0.451
 2231TIP3    H1 6657   3.812   1.824   0.408
 2231TIP3    H2 6658   3.924   1.724   0.391
 2232TIP3   OH2 6659   6.847   6.601   3.875
 2232TIP3    H1 6660   6.754   6.621   3.876
 2232TIP3    H2 6661   6.851   6.506   3.887
 2233TIP3   OH2 6662   2.820   3.560   2.984
 2233TIP3    H1 6663   2.858   3.647   2.972
 2233TIP3    H2 6664   2.756   3.552   2.913
 2234TIP3   OH2 6665   6.320   1.144   2.560
 2234TIP3    H1 6666   6.399   1.133   2.507
 2234TIP3    H2 6667   6.249   1.144   2.496
 2235TIP3   OH2 6668   5.598   4.230   1.755
 2235TIP3    H1 6669   5.678   4.280   1.767
 2235TIP3    H2 6670   5.610   4.152   1.809
 2236TIP3   OH2 6671   1.702   1.809   2.940
 2236TIP3    H1 6672   1.754   1.827   2.862
 2236TIP3    H2 6673   1.676   1.717   2.931
 2237TIP3   OH2 6674   4.284   5.880   1.661
 2237TIP3    H1 6675   4.286   5.846   1.751
 2237TIP3    H2 6676   4.230   5.959   1.667
 2238TIP3   OH2 6677   6.290   5.682   4.941
 2238TIP3    H1 6678   6.228   5.674   5.013
 2238TIP3    H2 6679   6.239   5.661   4.863
 2239TIP3   OH2 6680   6.361   0.796   2.481
 2239TIP3    H1 6681   6.288   0.847   2.514
 2239TIP3    H2 6682   6.377   0.730   2.548
 2240TIP3   OH2 6683   3.631   1.090   4.805
 2240TIP3    H1 6684   3.664   1.128   4.723
 2240TIP3    H2 6685   3.645   0.996   4.795
 2241TIP3   OH2 6686   2.914   4.432   4.670
 2241TIP3    H1 6687   2.910   4.449   4.576
 2241TIP3    H2 6688   2.893   4.516   4.710
 2242TIP3   OH2 6689   5.852   4.382   3.778
 2242TIP3    H1 6690   5.931   4.373   3.725
 2242TIP3    H2 6691   5.823   4.292   3.793
 2243TIP3   OH2 6692   0.333   4.136   2.547
 2243TIP3    H1 6693   0.405   4.076   2.565
 2243TIP3    H2 6694   0.375   4.218   2.524
 2244TIP3   OH2 6695   2.328   6.417   1.545
 2244TIP3    H1 6696   2.306   6.482   1.478
 2244TIP3    H2 6697   2.311   6.332   1.503
 2245TIP3   OH2 6698   2.269   0.723   2.344
 2245TIP3    H1 6699   2.313   0.639   2.357
 2245TIP3    H2 6700   2.296   0.776   2.419
 2246TIP3   OH2 6701   4.608   4.329   4.758
 2246TIP3    H1 6702   4.570   4.242   4.745
 2246TIP3    H2 6703   4.620   4.336   4.852
 2247TIP3   OH2 6704   6.167   0.707   2.753
 2247TIP3    H1 6705   6.128   0.629   2.792
 2247TIP3    H2 6706   6.191   0.762   2.828
 2248TIP3   OH2 6707   5.962   3.803   2.016
 2248TIP3    H1 6708   6.014   3.788   1.937
 2248TIP3    H2 6709   6.023   3.845   2.077
 2249TIP3   OH2 6710   3.919   6.328   5.673
 2249TIP3    H1 6711   3.963   6.390   5.731
 2249TIP3    H2 6712   3.868   6.272   5.732
 2250TIP3   OH2 6713   2.442   5.953   5.133
 2250TIP3    H1 6714   2.455   5.883   5.069
 2250TIP3    H2 6715   2.512   6.015   5.115
 2251TIP3   OH2 6716   5.877   0.453   2.470
 2251TIP3    H1 6717   5.815   0.455   2.543
 2251TIP3    H2 6718   5.910   0.543   2.464
 2252TIP3   OH2 6719   2.472   0.438   0.258
 2252TIP3    H1 6720   2.397   0.497   0.269
 2252TIP3    H2 6721   2.463   0.374   0.328
 2253TIP3   OH2 6722   1.185   3.299   1.466
 2253TIP3    H1 6723   1.190   3.371   1.403
 2253TIP3    H2 6724   1.191   3.220   1.413
 2254TIP3   OH2 6725   3.060   3.182   4.733
 2254TIP3    H1 6726   2.997   3.191   4.804
 2254TIP3    H2 6727   3.126   3.249   4.751
 2255TIP3   OH2 6728   7.109   2.336   4.650
 2255TIP3    H1 6729   7.071   2.261   4.695
 2255TIP3    H2 6730   7.042   2.362   4.586
 2256TIP3   OH2 6731   6.014   0.067   3.436
 2256TIP3    H1 6732   6.103   0.066   3.403
 2256TIP3    H2 6733   5.976  -0.016   3.405
 2257TIP3   OH2 6734   4.152   5.497   0.133
 2257TIP3    H1 6735   4.198   5.429   0.085
 2257TIP3    H2 6736   4.177   5.483   0.224
 2258TIP3   OH2 6737   5.550   4.355   4.142
 2258TIP3    H1 6738   5.477   4.314   4.189
 2258TIP3    H2 6739   5.585   4.286   4.086
 2259TIP3   OH2 6740   0.592   2.421   2.944
 2259TIP3    H1 6741   0.500   2.442   2.933
 2259TIP3    H2 6742   0.628   2.496   2.993
 2260TIP3   OH2 6743   0.257   6.566   0.473
 2260TIP3    H1 6744   0.186   6.503   0.481
 2260TIP3    H2 6745   0.316   6.546   0.546
 2261TIP3   OH2 6746   4.577   2.543   4.378
 2261TIP3    H1 6747   4.639   2.487   4.424
 2261TIP3    H2 6748   4.547   2.606   4.443
 2262TIP3   OH2 6749   3.656   6.743   3.063
 2262TIP3    H1 6750   3.716   6.817   3.070
 2262TIP3    H2 6751   3.663   6.699   3.148
 2263TIP3   OH2 6752   3.425   2.989   1.861
 2263TIP3    H1 6753   3.353   3.051   1.870
 2263TIP3    H2 6754   3.503   3.044   1.852
 2264TIP3   OH2 6755   5.348   6.699   5.851
 2264TIP3    H1 6756   5.253   6.698   5.858
 2264TIP3    H2 6757   5.371   6.791   5.836
 2265TIP3   OH2 6758   5.926   0.668   0.595
 2265TIP3    H1 6759   5.984   0.737   0.625
 2265TIP3    H2 6760   5.842   0.685   0.639
 2266TIP3   OH2 6761   3.801   4.664   3.228
 2266TIP3    H1 6762   3.788   4.609   3.306
 2266TIP3    H2 6763   3.894   4.685   3.229
 2267TIP3   OH2 6764   5.493   4.544   3.663
 2267TIP3    H1 6765   5.490   4.616   3.600
 2267TIP3    H2 6766   5.514   4.467   3.610
 2268TIP3   OH2 6767   1.968   3.641   0.378
 2268TIP3    H1 6768   1.931   3.717   0.333
 2268TIP3    H2 6769   1.940   3.652   0.469
 2269TIP3   OH2 6770   6.486   4.997   1.895
 2269TIP3    H1 6771   6.455   4.950   1.818
 2269TIP3    H2 6772   6.415   5.059   1.915
 2270TIP3   OH2 6773   5.851   2.889   1.142
 2270TIP3    H1 6774   5.777   2.853   1.092
 2270TIP3    H2 6775   5.921   2.898   1.079
 2271TIP3   OH2 6776   6.229   4.115   2.561
 2271TIP3    H1 6777   6.244   4.030   2.602
 2271TIP3    H2 6778   6.304   4.128   2.503
 2272TIP3   OH2 6779   5.900   5.417   2.030
 2272TIP3    H1 6780   5.979   5.410   1.977
 2272TIP3    H2 6781   5.899   5.337   2.082
 2273TIP3   OH2 6782   1.468   0.387   3.585
 2273TIP3    H1 6783   1.407   0.356   3.518
 2273TIP3    H2 6784   1.427   0.360   3.668
 2274TIP3   OH2 6785   6.654   4.320   3.450
 2274TIP3    H1 6786   6.736   4.325   3.400
 2274TIP3    H2 6787   6.617   4.408   3.444
 2275TIP3   OH2 6788   3.079   4.352   4.339
 2275TIP3    H1 6789   2.994   4.346   4.295
 2275TIP3    H2 6790   3.121   4.267   4.323
 2276TIP3   OH2 6791   0.807   3.734   4.062
 2276TIP3    H1 6792   0.757   3.760   4.139
 2276TIP3    H2 6793   0.899   3.748   4.087
 2277TIP3   OH2 6794   0.426   4.299   1.249
 2277TIP3    H1 6795   0.368   4.266   1.318
 2277TIP3    H2 6796   0.370   4.306   1.172
 2278TIP3   OH2 6797   3.738   4.204   2.489
 2278TIP3    H1 6798   3.734   4.243   2.402
 2278TIP3    H2 6799   3.755   4.278   2.547
 2279TIP3   OH2 6800   6.518   2.376   5.125
 2279TIP3    H1 6801   6.449   2.440   5.111
 2279TIP3    H2 6802   6.569   2.378   5.044
 2280TIP3   OH2 6803   2.536   1.275   4.268
 2280TIP3    H1 6804   2.500   1.242   4.350
 2280TIP3    H2 6805   2.464   1.324   4.228
 2281TIP3   OH2 6806   1.258   3.707   0.110
 2281TIP3    H1 6807   1.173   3.736   0.145
 2281TIP3    H2 6808   1.303   3.789   0.089
 2282TIP3   OH2 6809   4.000   1.400   2.936
 2282TIP3    H1 6810   3.932   1.456   2.899
 2282TIP3    H2 6811   3.996   1.320   2.883
 2283TIP3   OH2 6812   0.893   2.401   0.587
 2283TIP3    H1 6813   0.860   2.381   0.500
 2283TIP3    H2 6814   0.815   2.403   0.643
 2284TIP3   OH2 6815   4.532   2.641   2.306
 2284TIP3    H1 6816   4.596   2.684   2.249
 2284TIP3    H2 6817   4.553   2.548   2.298
 2285TIP3   OH2 6818   2.324   4.763   2.209
 2285TIP3    H1 6819   2.418   4.768   2.194
 2285TIP3    H2 6820   2.304   4.841   2.260
 2286TIP3   OH2 6821   3.385  -0.019   3.668
 2286TIP3    H1 6822   3.419   0.068   3.690
 2286TIP3    H2 6823   3.342  -0.049   3.748
 2287TIP3   OH2 6824   4.541   0.908   0.252
 2287TIP3    H1 6825   4.608   0.931   0.188
 2287TIP3    H2 6826   4.522   0.816   0.233
 2288TIP3   OH2 6827   6.233   5.718   5.399
 2288TIP3    H1 6828   6.149   5.762   5.394
 2288TIP3    H2 6829   6.264   5.734   5.488
 2289TIP3   OH2 6830   6.362   4.612   2.737
 2289TIP3    H1 6831   6.301   4.672   2.779
 2289TIP3    H2 6832   6.368   4.538   2.797
 2290TIP3   OH2 6833   0.723   6.495   2.563
 2290TIP3    H1 6834   0.740   6.572   2.509
 2290TIP3    H2 6835   0.754   6.520   2.650
 2291TIP3   OH2 6836   5.149   6.774   4.802
 2291TIP3    H1 6837   5.115   6.751   4.888
 2291TIP3    H2 6838   5.217   6.839   4.820
 2292TIP3   OH2 6839   2.541   2.425   5.446
 2292TIP3    H1 6840   2.582   2.460   5.525
 2292TIP3    H2 6841   2.526   2.501   5.391
 2293TIP3   OH2 6842   4.047   3.177   4.472
 2293TIP3    H1 6843   4.088   3.201   4.388
 2293TIP3    H2 6844   3.972   3.236   4.479
 2294TIP3   OH2 6845   3.921   3.734   0.602
 2294TIP3    H1 6846   3.856   3.790   0.646
 2294TIP3    H2 6847   3.868   3.676   0.547
 2295TIP3   OH2 6848   6.227   1.504   3.965
 2295TIP3    H1 6849   6.240   1.574   3.901
 2295TIP3    H2 6850   6.142   1.467   3.944
 2296TIP3   OH2 6851   6.266   5.821   3.416
 2296TIP3    H1 6852   6.286   5.730   3.395
 2296TIP3    H2 6853   6.263   5.866   3.332
 2297TIP3   OH2 6854   4.106   4.748   3.754
 2297TIP3    H1 6855   4.174   4.681   3.742
 2297TIP3    H2 6856   4.031   4.700   3.789
 2298TIP3   OH2 6857   1.634   6.052   4.151
 2298TIP3    H1 6858   1.656   6.126   4.094
 2298TIP3    H2 6859   1.586   6.091   4.223
 2299TIP3   OH2 6860   5.415   2.027   2.214
 2299TIP3    H1 6861   5.463   1.946   2.196
 2299TIP3    H2 6862   5.368   2.045   2.133
 2300TIP3   OH2 6863   5.220   6.131   5.417
 2300TIP3    H1 6864   5.196   6.047   5.456
 2300TIP3    H2 6865   5.316   6.127   5.409
 2301TIP3   OH2 6866   1.307   5.512   0.073
 2301TIP3    H1 6867   1.265   5.433   0.040
 2301TIP3    H2 6868   1.251   5.584   0.042
 2302TIP3   OH2 6869   3.717   4.068   4.138
 2302TIP3    H1 6870   3.742   4.093   4.226
 2302TIP3    H2 6871   3.799   4.046   4.094
 2303TIP3   OH2 6872   0.529   3.056   5.786
 2303TIP3    H1 6873   0.609   3.061   5.733
 2303TIP3    H2 6874   0.486   3.140   5.771
 2304TIP3   OH2 6875   5.095   0.085   1.060
 2304TIP3    H1 6876   5.140   0.097   1.143
 2304TIP3    H2 6877   5.024   0.025   1.079
 2305TIP3   OH2 6878   1.865   1.788   4.640
 2305TIP3    H1 6879   1.852   1.695   4.622
 2305TIP3    H2 6880   1.777   1.826   4.638
 2306TIP3   OH2 6881   1.200   4.708   4.613
 2306TIP3    H1 6882   1.238   4.744   4.533
 2306TIP3    H2 6883   1.132   4.770   4.638
 2307TIP3   OH2 6884   5.048   1.981   5.476
 2307TIP3    H1 6885   5.103   2.035   5.420
 2307TIP3    H2 6886   5.107   1.912   5.508
 2308TIP3   OH2 6887   5.700   6.544   3.763
 2308TIP3    H1 6888   5.754   6.553   3.841
 2308TIP3    H2 6889   5.761   6.517   3.694
 2309TIP3   OH2 6890   6.913   4.403   2.268
 2309TIP3    H1 6891   6.981   4.424   2.203
 2309TIP3    H2 6892   6.869   4.486   2.283
 2310TIP3   OH2 6893   6.460   3.967   1.833
 2310TIP3    H1 6894   6.369   3.998   1.825
 2310TIP3    H2 6895   6.473   3.913   1.755
 2311TIP3   OH2 6896   4.996   5.168   5.690
 2311TIP3    H1 6897   4.953   5.175   5.775
 2311TIP3    H2 6898   5.084   5.201   5.705
 2312TIP3   OH2 6899   2.752   1.794   4.766
 2312TIP3    H1 6900   2.756   1.699   4.772
 2312TIP3    H2 6901   2.699   1.811   4.688
 2313TIP3   OH2 6902   6.303   3.704   4.663
 2313TIP3    H1 6903   6.214   3.717   4.630
 2313TIP3    H2 6904   6.308   3.610   4.680
 2314TIP3   OH2 6905   5.118   2.546   4.161
 2314TIP3    H1 6906   5.060   2.622   4.157
 2314TIP3    H2 6907   5.205   2.582   4.173
 2315TIP3   OH2 6908   6.621   4.343   0.896
 2315TIP3    H1 6909   6.533   4.376   0.876
 2315TIP3    H2 6910   6.643   4.383   0.980
 2316TIP3   OH2 6911   3.927   3.941   1.086
 2316TIP3    H1 6912   3.926   3.954   1.181
 2316TIP3    H2 6913   3.887   4.021   1.051
 2317TIP3   OH2 6914   7.085   6.358   5.686
 2317TIP3    H1 6915   6.995   6.380   5.711
 2317TIP3    H2 6916   7.127   6.333   5.768
 2318TIP3   OH2 6917   2.241   5.022   2.347
 2318TIP3    H1 6918   2.150   5.044   2.328
 2318TIP3    H2 6919   2.265   5.077   2.422
 2319TIP3   OH2 6920   0.659   0.636   2.297
 2319TIP3    H1 6921   0.677   0.566   2.234
 2319TIP3    H2 6922   0.582   0.680   2.262
 2320TIP3   OH2 6923   5.228   5.253   5.825
 2320TIP3    H1 6924   5.258   5.284   5.740
 2320TIP3    H2 6925   5.189   5.330   5.866
 2321TIP3   OH2 6926   2.244   0.511   2.844
 2321TIP3    H1 6927   2.231   0.603   2.818
 2321TIP3    H2 6928   2.171   0.493   2.903
 2322TIP3   OH2 6929   0.053   2.524   3.318
 2322TIP3    H1 6930  -0.003   2.462   3.364
 2322TIP3    H2 6931   0.066   2.485   3.232
 2323TIP3   OH2 6932   2.071   5.587   5.439
 2323TIP3    H1 6933   2.106   5.674   5.418
 2323TIP3    H2 6934   2.115   5.563   5.521
 2324TIP3   OH2 6935   6.780   2.187   3.069
 2324TIP3    H1 6936   6.741   2.252   3.011
 2324TIP3    H2 6937   6.875   2.198   3.057
 2325TIP3   OH2 6938   5.679   1.993   0.857
 2325TIP3    H1 6939   5.671   2.046   0.778
 2325TIP3    H2 6940   5.773   1.975   0.864
 2326TIP3   OH2 6941   2.405   6.488   3.192
 2326TIP3    H1 6942   2.377   6.399   3.215
 2326TIP3    H2 6943   2.407   6.488   3.096
 2327TIP3   OH2 6944   6.099   2.831   0.514
 2327TIP3    H1 6945   6.060   2.860   0.596
 2327TIP3    H2 6946   6.142   2.748   0.536
 2328TIP3   OH2 6947   6.575   1.863   4.757
 2328TIP3    H1 6948   6.538   1.887   4.672
 2328TIP3    H2 6949   6.627   1.785   4.739
 2329TIP3   OH2 6950   4.428   4.647   5.743
 2329TIP3    H1 6951   4.431   4.635   5.838
 2329TIP3    H2 6952   4.431   4.742   5.731
 2330TIP3   OH2 6953   4.449   6.461   2.089
 2330TIP3    H1 6954   4.434   6.367   2.076
 2330TIP3    H2 6955   4.403   6.482   2.170
 2331TIP3   OH2 6956   0.884   4.343   1.039
 2331TIP3    H1 6957   0.820   4.301   1.095
 2331TIP3    H2 6958   0.838   4.417   1.000
 2332TIP3   OH2 6959   2.488   4.756   1.409
 2332TIP3    H1 6960   2.484   4.701   1.488
 2332TIP3    H2 6961   2.400   4.750   1.372
 2333TIP3   OH2 6962   3.963   0.666   2.090
 2333TIP3    H1 6963   4.030   0.699   2.150
 2333TIP3    H2 6964   3.936   0.582   2.128
 2334TIP3   OH2 6965   0.787   4.415   2.075
 2334TIP3    H1 6966   0.746   4.494   2.110
 2334TIP3    H2 6967   0.860   4.397   2.135
 2335TIP3   OH2 6968   1.925   1.874   3.980
 2335TIP3    H1 6969   1.996   1.938   3.985
 2335TIP3    H2 6970   1.969   1.791   3.962
 2336TIP3   OH2 6971   1.382   4.005   0.536
 2336TIP3    H1 6972   1.326   4.008   0.614
 2336TIP3    H2 6973   1.324   4.027   0.463
 2337TIP3   OH2 6974   5.429   4.425   2.898
 2337TIP3    H1 6975   5.441   4.344   2.849
 2337TIP3    H2 6976   5.509   4.475   2.883
 2338TIP3   OH2 6977   5.845   5.455   4.433
 2338TIP3    H1 6978   5.824   5.380   4.490
 2338TIP3    H2 6979   5.889   5.416   4.358
 2339TIP3   OH2 6980   4.124   2.092   1.408
 2339TIP3    H1 6981   4.085   2.025   1.463
 2339TIP3    H2 6982   4.053   2.152   1.388
 2340TIP3   OH2 6983   4.900   2.519   2.966
 2340TIP3    H1 6984   4.824   2.505   3.023
 2340TIP3    H2 6985   4.875   2.594   2.912
 2341TIP3   OH2 6986   0.045   1.578   0.054
 2341TIP3    H1 6987   0.097   1.503   0.084
 2341TIP3    H2 6988  -0.042   1.563   0.092
 2342TIP3   OH2 6989   5.060   6.335   3.959
 2342TIP3    H1 6990   4.966   6.349   3.973
 2342TIP3    H2 6991   5.071   6.240   3.955
 2343TIP3   OH2 6992   5.897   1.701   0.612
 2343TIP3    H1 6993   5.853   1.782   0.588
 2343TIP3    H2 6994   5.988   1.725   0.626
 2344TIP3   OH2 6995   0.208   4.839   3.854
 2344TIP3    H1 6996   0.296   4.811   3.829
 2344TIP3    H2 6997   0.158   4.758   3.860
 2345TIP3   OH2 6998   6.829   5.017   0.454
 2345TIP3    H1 6999   6.824   4.984   0.364
 2345TIP3    H2 7000   6.894   5.087   0.450
 2346TIP3   OH2 7001   4.422   3.373   1.767
 2346TIP3    H1 7002   4.432   3.299   1.826
 2346TIP3    H2 7003   4.472   3.444   1.807
 2347TIP3   OH2 7004   5.867   0.561   3.981
 2347TIP3    H1 7005   5.838   0.626   4.044
 2347TIP3    H2 7006   5.793   0.551   3.921
 2348TIP3   OH2 7007   0.953   0.450   3.752
 2348TIP3    H1 7008   0.994   0.471   3.668
 2348TIP3    H2 7009   0.859   0.449   3.732
 2349TIP3   OH2 7010   0.493   5.350   3.587
 2349TIP3    H1 7011   0.413   5.367   3.636
 2349TIP3    H2 7012   0.514   5.258   3.604
 2350TIP3   OH2 7013   3.520   1.847   5.552
 2350TIP3    H1 7014   3.448   1.804   5.506
 2350TIP3    H2 7015   3.511   1.940   5.530
 2351TIP3   OH2 7016   5.519   2.957   5.019
 2351TIP3    H1 7017   5.596   2.902   5.032
 2351TIP3    H2 7018   5.444   2.900   5.037
 2352TIP3   OH2 7019   5.733   4.019   0.738
 2352TIP3    H1 7020   5.790   4.086   0.699
 2352TIP3    H2 7021   5.718   4.050   0.828
 2353TIP3   OH2 7022   0.549   6.568   4.400
 2353TIP3    H1 7023   0.474   6.509   4.395
 2353TIP3    H2 7024   0.512   6.653   4.421
 2354TIP3   OH2 7025   5.485   4.753   1.502
 2354TIP3    H1 7026   5.515   4.687   1.565
 2354TIP3    H2 7027   5.403   4.718   1.468
 2355TIP3   OH2 7028   4.673   2.565   3.468
 2355TIP3    H1 7029   4.651   2.477   3.439
 2355TIP3    H2 7030   4.742   2.594   3.408
 2356TIP3   OH2 7031   4.280   5.062   1.712
 2356TIP3    H1 7032   4.327   5.117   1.650
 2356TIP3    H2 7033   4.195   5.046   1.672
 2357TIP3   OH2 7034   1.727   2.651   5.363
 2357TIP3    H1 7035   1.702   2.706   5.289
 2357TIP3    H2 7036   1.787   2.586   5.326
 2358TIP3   OH2 7037   7.188   0.977   3.433
 2358TIP3    H1 7038   7.167   0.895   3.477
 2358TIP3    H2 7039   7.240   0.951   3.357
 2359TIP3   OH2 7040   2.679   6.440   2.352
 2359TIP3    H1 7041   2.693   6.390   2.433
 2359TIP3    H2 7042   2.696   6.378   2.282
 2360TIP3   OH2 7043   2.818   4.265   0.384
 2360TIP3    H1 7044   2.826   4.213   0.464
 2360TIP3    H2 7045   2.733   4.242   0.348
 2361TIP3   OH2 7046   6.230   4.216   2.108
 2361TIP3    H1 7047   6.278   4.288   2.068
 2361TIP3    H2 7048   6.155   4.202   2.050
 2362TIP3   OH2 7049   5.033   6.238   1.416
 2362TIP3    H1 7050   5.032   6.328   1.447
 2362TIP3    H2 7051   5.097   6.238   1.345
 2363TIP3   OH2 7052   0.414   2.889   2.496
 2363TIP3    H1 7053   0.437   2.801   2.523
 2363TIP3    H2 7054   0.382   2.932   2.576
 2364TIP3   OH2 7055   2.377   2.507   0.054
 2364TIP3    H1 7056   2.380   2.516  -0.042
 2364TIP3    H2 7057   2.327   2.583   0.083
 2365TIP3   OH2 7058   3.340   1.309   1.496
 2365TIP3    H1 7059   3.288   1.296   1.417
 2365TIP3    H2 7060   3.388   1.391   1.479
 2366TIP3   OH2 7061   7.060   0.741   0.918
 2366TIP3    H1 7062   6.969   0.711   0.917
 2366TIP3    H2 7063   7.054   0.835   0.900
 2367TIP3   OH2 7064   4.505   0.374   4.457
 2367TIP3    H1 7065   4.543   0.306   4.513
 2367TIP3    H2 7066   4.570   0.389   4.389
 2368TIP3   OH2 7067   4.704   3.434   0.837
 2368TIP3    H1 7068   4.699   3.345   0.871
 2368TIP3    H2 7069   4.789   3.439   0.794
 2369TIP3   OH2 7070   2.721   6.074   0.904
 2369TIP3    H1 7071   2.699   6.139   0.971
 2369TIP3    H2 7072   2.769   6.006   0.951
 2370TIP3   OH2 7073   0.852   1.805   0.752
 2370TIP3    H1 7074   0.847   1.893   0.790
 2370TIP3    H2 7075   0.789   1.806   0.680
 2371TIP3   OH2 7076   1.193   3.348   4.565
 2371TIP3    H1 7077   1.178   3.293   4.488
 2371TIP3    H2 7078   1.193   3.286   4.639
 2372TIP3   OH2 7079   0.407   6.279   4.981
 2372TIP3    H1 7080   0.451   6.305   5.062
 2372TIP3    H2 7081   0.476   6.282   4.914
 2373TIP3   OH2 7082   3.968   1.743   1.072
 2373TIP3    H1 7083   3.953   1.712   0.983
 2373TIP3    H2 7084   3.897   1.705   1.123
 2374TIP3   OH2 7085   1.104   4.407   0.278
 2374TIP3    H1 7086   1.076   4.326   0.235
 2374TIP3    H2 7087   1.024   4.439   0.322
 2375TIP3   OH2 7088   3.816   3.063   4.836
 2375TIP3    H1 7089   3.816   2.970   4.814
 2375TIP3    H2 7090   3.786   3.107   4.757
 2376TIP3   OH2 7091   1.891   4.687   0.536
 2376TIP3    H1 7092   1.917   4.595   0.529
 2376TIP3    H2 7093   1.864   4.711   0.447
 2377TIP3   OH2 7094   5.637   5.594   1.203
 2377TIP3    H1 7095   5.645   5.501   1.181
 2377TIP3    H2 7096   5.580   5.630   1.135
 2378TIP3   OH2 7097   4.845   3.648   3.305
 2378TIP3    H1 7098   4.796   3.653   3.387
 2378TIP3    H2 7099   4.804   3.712   3.247
 2379TIP3   OH2 7100   3.247   0.275   5.526
 2379TIP3    H1 7101   3.232   0.254   5.618
 2379TIP3    H2 7102   3.165   0.255   5.482
 2380TIP3   OH2 7103   3.109   2.905   4.763
 2380TIP3    H1 7104   3.102   3.001   4.761
 2380TIP3    H2 7105   3.158   2.883   4.684
 2381TIP3   OH2 7106   2.627   6.171   5.134
 2381TIP3    H1 7107   2.662   6.212   5.212
 2381TIP3    H2 7108   2.561   6.233   5.102
 2382TIP3   OH2 7109   6.375   4.265   1.828
 2382TIP3    H1 7110   6.306   4.199   1.830
 2382TIP3    H2 7111   6.454   4.215   1.805
 2383TIP3   OH2 7112   5.264   2.522   4.737
 2383TIP3    H1 7113   5.287   2.500   4.647
 2383TIP3    H2 7114   5.171   2.500   4.744
 2384TIP3   OH2 7115   6.089   5.461   1.382
 2384TIP3    H1 7116   6.125   5.547   1.402
 2384TIP3    H2 7117   6.050   5.471   1.295
 2385TIP3   OH2 7118   0.831   5.911   1.930
 2385TIP3    H1 7119   0.903   5.899   1.993
 2385TIP3    H2 7120   0.784   5.988   1.961
 2386TIP3   OH2 7121   0.397   1.731   1.767
 2386TIP3    H1 7122   0.400   1.650   1.818
 2386TIP3    H2 7123   0.378   1.799   1.832
 2387TIP3   OH2 7124   0.767   4.883   2.336
 2387TIP3    H1 7125   0.765   4.819   2.265
 2387TIP3    H2 7126   0.845   4.861   2.386
 2388TIP3   OH2 7127   4.706   2.189   5.162
 2388TIP3    H1 7128   4.741   2.129   5.228
 2388TIP3    H2 7129   4.733   2.151   5.079
 2389TIP3   OH2 7130   1.736   5.702   2.705
 2389TIP3    H1 7131   1.735   5.650   2.625
 2389TIP3    H2 7132   1.797   5.656   2.763
 2390TIP3   OH2 7133   0.628   4.797   4.242
 2390TIP3    H1 7134   0.720   4.795   4.217
 2390TIP3    H2 7135   0.630   4.821   4.335
 2391TIP3   OH2 7136   4.145   4.900   4.361
 2391TIP3    H1 7137   4.104   4.952   4.292
 2391TIP3    H2 7138   4.151   4.812   4.325
 2392TIP3   OH2 7139   0.221   0.621   4.668
 2392TIP3    H1 7140   0.205   0.529   4.652
 2392TIP3    H2 7141   0.149   0.649   4.725
 2393TIP3   OH2 7142   4.642   6.335   2.673
 2393TIP3    H1 7143   4.701   6.396   2.717
 2393TIP3    H2 7144   4.557   6.378   2.675
 2394TIP3   OH2 7145   3.515   5.987   1.142
 2394TIP3    H1 7146   3.422   6.009   1.143
 2394TIP3    H2 7147   3.519   5.897   1.173
 2395TIP3   OH2 7148   5.110   4.141   5.633
 2395TIP3    H1 7149   5.081   4.222   5.675
 2395TIP3    H2 7150   5.187   4.114   5.683
 2396TIP3   OH2 7151   1.538   3.593   4.005
 2396TIP3    H1 7152   1.534   3.543   4.086
 2396TIP3    H2 7153   1.608   3.551   3.954
 2397TIP3   OH2 7154   3.309   4.476   3.815
 2397TIP3    H1 7155   3.292   4.388   3.783
 2397TIP3    H2 7156   3.404   4.480   3.826
 2398TIP3   OH2 7157   4.402   6.612   4.827
 2398TIP3    H1 7158   4.404   6.533   4.772
 2398TIP3    H2 7159   4.332   6.666   4.789
 2399TIP3   OH2 7160   5.523   3.996   1.921
 2399TIP3    H1 7161   5.462   3.977   1.993
 2399TIP3    H2 7162   5.475   3.971   1.842
 2400TIP3   OH2 7163   4.824   1.714   5.914
 2400TIP3    H1 7164   4.736   1.733   5.947
 2400TIP3    H2 7165   4.810   1.683   5.825
 2401TIP3   OH2 7166   1.322   2.029   3.195
 2401TIP3    H1 7167   1.373   2.054   3.273
 2401TIP3    H2 7168   1.232   2.020   3.228
 2402TIP3   OH2 7169   1.795   3.250   0.660
 2402TIP3    H1 7170   1.724   3.245   0.723
 2402TIP3    H2 7171   1.752   3.243   0.575
 2403TIP3   OH2 7172   0.558   5.610   1.998
 2403TIP3    H1 7173   0.465   5.601   1.981
 2403TIP3    H2 7174   0.595   5.523   1.978
 2404TIP3   OH2 7175   3.189   4.395   4.582
 2404TIP3    H1 7176   3.166   4.330   4.648
 2404TIP3    H2 7177   3.145   4.365   4.503
 2405TIP3   OH2 7178   4.339   0.683   1.352
 2405TIP3    H1 7179   4.281   0.655   1.282
 2405TIP3    H2 7180   4.379   0.763   1.319
 2406TIP3   OH2 7181   0.227   1.291   1.739
 2406TIP3    H1 7182   0.297   1.242   1.694
 2406TIP3    H2 7183   0.228   1.377   1.697
 2407TIP3   OH2 7184   0.115   3.145   4.571
 2407TIP3    H1 7185   0.181   3.162   4.639
 2407TIP3    H2 7186   0.135   3.209   4.502
 2408TIP3   OH2 7187   6.880   6.374   3.616
 2408TIP3    H1 7188   6.805   6.329   3.656
 2408TIP3    H2 7189   6.893   6.328   3.532
 2409TIP3   OH2 7190   2.757   4.163   5.294
 2409TIP3    H1 7191   2.682   4.213   5.327
 2409TIP3    H2 7192   2.775   4.201   5.208
 2410TIP3   OH2 7193   0.631   0.908   5.505
 2410TIP3    H1 7194   0.646   0.834   5.563
 2410TIP3    H2 7195   0.702   0.970   5.527
 2411TIP3   OH2 7196   0.270   1.201   0.751
 2411TIP3    H1 7197   0.336   1.202   0.682
 2411TIP3    H2 7198   0.300   1.266   0.814
 2412TIP3   OH2 7199   4.120   4.072   0.579
 2412TIP3    H1 7200   4.130   4.054   0.673
 2412TIP3    H2 7201   4.209   4.066   0.544
 2413TIP3   OH2 7202   7.169   4.122   2.164
 2413TIP3    H1 7203   7.217   4.068   2.101
 2413TIP3    H2 7204   7.171   4.071   2.245
 2414TIP3   OH2 7205   3.850   2.495   3.212
 2414TIP3    H1 7206   3.818   2.414   3.173
 2414TIP3    H2 7207   3.858   2.556   3.139
 2415TIP3   OH2 7208   6.993   3.347   2.972
 2415TIP3    H1 7209   6.942   3.327   3.051
 2415TIP3    H2 7210   7.060   3.408   3.003
 2416TIP3   OH2 7211   6.479   3.795   0.838
 2416TIP3    H1 7212   6.545   3.787   0.769
 2416TIP3    H2 7213   6.395   3.796   0.792
 2417TIP3   OH2 7214   5.369   5.287   3.390
 2417TIP3    H1 7215   5.439   5.222   3.388
 2417TIP3    H2 7216   5.346   5.295   3.483
 2418TIP3   OH2 7217   5.765   5.794   3.913
 2418TIP3    H1 7218   5.771   5.710   3.958
 2418TIP3    H2 7219   5.673   5.820   3.922
 2419TIP3   OH2 7220   3.629   1.779   0.621
 2419TIP3    H1 7221   3.694   1.743   0.560
 2419TIP3    H2 7222   3.550   1.787   0.569
 2420TIP3   OH2 7223   0.308   4.764   0.330
 2420TIP3    H1 7224   0.232   4.783   0.385
 2420TIP3    H2 7225   0.271   4.730   0.248
 2421TIP3   OH2 7226   3.318   3.411   4.857
 2421TIP3    H1 7227   3.332   3.336   4.915
 2421TIP3    H2 7228   3.253   3.465   4.902
 2422TIP3   OH2 7229   0.809   6.452   4.423
 2422TIP3    H1 7230   0.723   6.477   4.391
 2422TIP3    H2 7231   0.824   6.508   4.500
 2423TIP3   OH2 7232   0.578   0.329   0.340
 2423TIP3    H1 7233   0.652   0.384   0.362
 2423TIP3    H2 7234   0.570   0.335   0.245
 2424TIP3   OH2 7235   4.444   2.343   3.188
 2424TIP3    H1 7236   4.421   2.346   3.095
 2424TIP3    H2 7237   4.359   2.340   3.233
 2425TIP3   OH2 7238   3.268   1.762   2.161
 2425TIP3    H1 7239   3.210   1.689   2.143
 2425TIP3    H2 7240   3.272   1.811   2.079
 2426TIP3   OH2 7241   1.606   1.063   2.735
 2426TIP3    H1 7242   1.573   1.037   2.649
 2426TIP3    H2 7243   1.611   1.158   2.731
 2427TIP3   OH2 7244   2.783   6.072   2.572
 2427TIP3    H1 7245   2.865   6.113   2.600
 2427TIP3    H2 7246   2.718   6.142   2.577
 2428TIP3   OH2 7247   3.093   6.385   5.568
 2428TIP3    H1 7248   3.155   6.424   5.507
 2428TIP3    H2 7249   3.074   6.454   5.631
 2429TIP3   OH2 7250   1.095   5.249   2.173
 2429TIP3    H1 7251   1.124   5.303   2.246
 2429TIP3    H2 7252   1.008   5.219   2.198
 2430TIP3   OH2 7253   3.217   0.360   0.194
 2430TIP3    H1 7254   3.149   0.311   0.148
 2430TIP3    H2 7255   3.298   0.314   0.172
 2431TIP3   OH2 7256   4.955   4.771   1.574
 2431TIP3    H1 7257   5.032   4.805   1.527
 2431TIP3    H2 7258   4.900   4.848   1.587
 2432TIP3   OH2 7259   0.198   3.564   4.121
 2432TIP3    H1 7260   0.181   3.651   4.158
 2432TIP3    H2 7261   0.113   3.536   4.088
 2433TIP3   OH2 7262   4.344   3.079   2.238
 2433TIP3    H1 7263   4.252   3.090   2.214
 2433TIP3    H2 7264   4.351   3.117   2.325
 2434TIP3   OH2 7265   5.907   1.382   5.548
 2434TIP3    H1 7266   5.839   1.447   5.534
 2434TIP3    H2 7267   5.986   1.432   5.566
 2435TIP3   OH2 7268   2.806   1.842   2.993
 2435TIP3    H1 7269   2.711   1.827   2.992
 2435TIP3    H2 7270   2.842   1.771   2.940
 2436TIP3   OH2 7271   7.019   2.652   4.558
 2436TIP3    H1 7272   7.086   2.591   4.591
 2436TIP3    H2 7273   6.973   2.682   4.636
 2437TIP3   OH2 7274   1.858   4.019   3.413
 2437TIP3    H1 7275   1.889   4.095   3.463
 2437TIP3    H2 7276   1.910   3.946   3.447
 2438TIP3   OH2 7277   3.591   5.715   4.416
 2438TIP3    H1 7278   3.593   5.795   4.363
 2438TIP3    H2 7279   3.650   5.733   4.489
 2439TIP3   OH2 7280   4.212   6.338   1.527
 2439TIP3    H1 7281   4.209   6.376   1.440
 2439TIP3    H2 7282   4.268   6.398   1.577
 2440TIP3   OH2 7283   4.614   2.993   5.207
 2440TIP3    H1 7284   4.527   2.975   5.244
 2440TIP3    H2 7285   4.675   2.969   5.277
 2441TIP3   OH2 7286   3.996   3.822   0.329
 2441TIP3    H1 7287   3.975   3.861   0.414
 2441TIP3    H2 7288   3.988   3.894   0.267
 2442TIP3   OH2 7289   2.164   2.586   5.053
 2442TIP3    H1 7290   2.091   2.605   5.112
 2442TIP3    H2 7291   2.182   2.493   5.065
 2443TIP3   OH2 7292   6.776   2.080   5.219
 2443TIP3    H1 7293   6.689   2.043   5.208
 2443TIP3    H2 7294   6.830   2.007   5.249
 2444TIP3   OH2 7295   0.095   1.673   4.972
 2444TIP3    H1 7296   0.171   1.653   5.028
 2444TIP3    H2 7297   0.133   1.682   4.884
 2445TIP3   OH2 7298   5.259   2.791   0.710
 2445TIP3    H1 7299   5.220   2.784   0.797
 2445TIP3    H2 7300   5.249   2.703   0.673
 2446TIP3   OH2 7301   3.539   5.481   5.726
 2446TIP3    H1 7302   3.549   5.515   5.638
 2446TIP3    H2 7303   3.445   5.474   5.739
 2447TIP3   OH2 7304   5.543   4.572   2.429
 2447TIP3    H1 7305   5.540   4.641   2.495
 2447TIP3    H2 7306   5.624   4.524   2.447
 2448TIP3   OH2 7307   3.419   6.379   5.662
 2448TIP3    H1 7308   3.475   6.427   5.602
 2448TIP3    H2 7309   3.380   6.447   5.717
 2449TIP3   OH2 7310   1.392   4.335   3.807
 2449TIP3    H1 7311   1.432   4.280   3.875
 2449TIP3    H2 7312   1.304   4.354   3.839
 2450TIP3   OH2 7313   3.276   5.900   4.834
 2450TIP3    H1 7314   3.251   5.815   4.799
 2450TIP3    H2 7315   3.193   5.948   4.844
 2451TIP3   OH2 7316   1.957   3.930   4.443
 2451TIP3    H1 7317   1.972   4.019   4.474
 2451TIP3    H2 7318   1.899   3.891   4.508
 2452TIP3   OH2 7319   4.294   3.628   2.756
 2452TIP3    H1 7320   4.243   3.700   2.718
 2452TIP3    H2 7321   4.240   3.594   2.827
 2453TIP3   OH2 7322   0.464   4.035   3.507
 2453TIP3    H1 7323   0.480   3.946   3.540
 2453TIP3    H2 7324   0.514   4.092   3.566
 2454TIP3   OH2 7325   0.579   4.635   5.651
 2454TIP3    H1 7326   0.633   4.562   5.681
 2454TIP3    H2 7327   0.542   4.605   5.568
 2455TIP3   OH2 7328   2.338   2.074   4.171
 2455TIP3    H1 7329   2.395   2.004   4.140
 2455TIP3    H2 7330   2.304   2.042   4.255
 2456TIP3   OH2 7331   5.169   5.599   2.997
 2456TIP3    H1 7332   5.187   5.524   3.053
 2456TIP3    H2 7333   5.173   5.565   2.907
 2457TIP3   OH2 7334   0.283   0.696   4.400
 2457TIP3    H1 7335   0.249   0.658   4.481
 2457TIP3    H2 7336   0.311   0.622   4.348
 2458TIP3   OH2 7337   0.158   5.036   0.248
 2458TIP3    H1 7338   0.114   5.088   0.180
 2458TIP3    H2 7339   0.089   4.979   0.283
 2459TIP3   OH2 7340   3.212   3.961   1.466
 2459TIP3    H1 7341   3.130   3.920   1.437
 2459TIP3    H2 7342   3.185   4.027   1.529
 2460TIP3   OH2 7343   5.088   3.101   5.003
 2460TIP3    H1 7344   5.164   3.118   4.948
 2460TIP3    H2 7345   5.124   3.084   5.090
 2461TIP3   OH2 7346   2.717   0.319   0.154
 2461TIP3    H1 7347   2.642   0.373   0.130
 2461TIP3    H2 7348   2.789   0.354   0.102
 2462TIP3   OH2 7349   0.918   3.095   4.072
 2462TIP3    H1 7350   0.954   3.184   4.076
 2462TIP3    H2 7351   0.875   3.091   3.987
 2463TIP3   OH2 7352   1.917   1.075   5.013
 2463TIP3    H1 7353   1.875   1.157   5.039
 2463TIP3    H2 7354   1.876   1.008   5.067
 2464TIP3   OH2 7355   2.945   3.633   1.501
 2464TIP3    H1 7356   3.009   3.572   1.537
 2464TIP3    H2 7357   2.867   3.580   1.483
 2465TIP3   OH2 7358   6.850   0.776   5.093
 2465TIP3    H1 7359   6.889   0.693   5.065
 2465TIP3    H2 7360   6.924   0.835   5.106
 2466TIP3   OH2 7361   0.964   6.684   2.625
 2466TIP3    H1 7362   0.985   6.668   2.533
 2466TIP3    H2 7363   0.931   6.773   2.628
 2467TIP3   OH2 7364   2.962   2.535   5.317
 2467TIP3    H1 7365   2.923   2.451   5.293
 2467TIP3    H2 7366   2.931   2.551   5.406
 2468TIP3   OH2 7367   2.484   4.637   1.679
 2468TIP3    H1 7368   2.482   4.542   1.688
 2468TIP3    H2 7369   2.572   4.662   1.707
 2469TIP3   OH2 7370   2.380   0.223   0.399
 2469TIP3    H1 7371   2.425   0.144   0.369
 2469TIP3    H2 7372   2.397   0.226   0.493
 2470TIP3   OH2 7373   7.185   4.687   1.330
 2470TIP3    H1 7374   7.106   4.661   1.377
 2470TIP3    H2 7375   7.171   4.658   1.240
 2471TIP3   OH2 7376   4.135   6.009   3.856
 2471TIP3    H1 7377   4.182   5.932   3.888
 2471TIP3    H2 7378   4.147   6.007   3.761
 2472TIP3   OH2 7379   0.747   3.261   1.113
 2472TIP3    H1 7380   0.823   3.320   1.109
 2472TIP3    H2 7381   0.771   3.198   1.181
 2473TIP3   OH2 7382   5.550   4.335   5.256
 2473TIP3    H1 7383   5.459   4.352   5.227
 2473TIP3    H2 7384   5.541   4.295   5.342
 2474TIP3   OH2 7385   1.203   1.250   3.825
 2474TIP3    H1 7386   1.147   1.252   3.748
 2474TIP3    H2 7387   1.161   1.186   3.883
 2475TIP3   OH2 7388   5.024   1.363   4.742
 2475TIP3    H1 7389   5.118   1.378   4.751
 2475TIP3    H2 7390   4.985   1.450   4.746
 2476TIP3   OH2 7391   2.764   4.070   5.854
 2476TIP3    H1 7392   2.832   4.134   5.834
 2476TIP3    H2 7393   2.731   4.043   5.769
 2477TIP3   OH2 7394   6.579   6.611   0.133
 2477TIP3    H1 7395   6.632   6.690   0.144
 2477TIP3    H2 7396   6.620   6.546   0.189
 2478TIP3   OH2 7397   6.844   1.965   3.928
 2478TIP3    H1 7398   6.904   1.904   3.884
 2478TIP3    H2 7399   6.874   1.966   4.019
 2479TIP3   OH2 7400   6.975   3.376   0.659
 2479TIP3    H1 7401   6.996   3.424   0.739
 2479TIP3    H2 7402   6.882   3.354   0.667
 2480TIP3   OH2 7403   7.171   2.623   1.269
 2480TIP3    H1 7404   7.143   2.692   1.329
 2480TIP3    H2 7405   7.265   2.638   1.257
 2481TIP3   OH2 7406   6.678   6.092   5.687
 2481TIP3    H1 7407   6.743   6.047   5.740
 2481TIP3    H2 7408   6.614   6.025   5.664
 2482TIP3   OH2 7409   6.346   1.099   3.099
 2482TIP3    H1 7410   6.439   1.120   3.093
 2482TIP3    H2 7411   6.301   1.182   3.083
 2483TIP3   OH2 7412   7.234   5.361   0.564
 2483TIP3    H1 7413   7.250   5.447   0.603
 2483TIP3    H2 7414   7.183   5.313   0.630
 2484TIP3   OH2 7415   1.511   6.251   3.191
 2484TIP3    H1 7416   1.576   6.283   3.253
 2484TIP3    H2 7417   1.561   6.215   3.119
 2485TIP3   OH2 7418   5.279   5.506   2.083
 2485TIP3    H1 7419   5.268   5.411   2.076
 2485TIP3    H2 7420   5.349   5.527   2.021
 2486TIP3   OH2 7421   0.248   2.622   1.276
 2486TIP3    H1 7422   0.257   2.718   1.278
 2486TIP3    H2 7423   0.314   2.591   1.338
 2487TIP3   OH2 7424   0.851   4.536   4.139
 2487TIP3    H1 7425   0.887   4.470   4.080
 2487TIP3    H2 7426   0.874   4.505   4.227
 2488TIP3   OH2 7427   6.252   5.544   2.463
 2488TIP3    H1 7428   6.252   5.497   2.546
 2488TIP3    H2 7429   6.206   5.487   2.402
 2489TIP3   OH2 7430   5.247   6.097   3.745
 2489TIP3    H1 7431   5.250   6.192   3.737
 2489TIP3    H2 7432   5.304   6.065   3.675
 2490TIP3   OH2 7433   7.183   4.780   4.033
 2490TIP3    H1 7434   7.182   4.876   4.036
 2490TIP3    H2 7435   7.099   4.754   4.071
 2491TIP3   OH2 7436   2.142   1.224   5.174
 2491TIP3    H1 7437   2.132   1.266   5.088
 2491TIP3    H2 7438   2.226   1.256   5.207
 2492TIP3   OH2 7439   1.226   5.383   1.206
 2492TIP3    H1 7440   1.250   5.319   1.139
 2492TIP3    H2 7441   1.242   5.339   1.289
 2493TIP3   OH2 7442   5.128   4.697   5.614
 2493TIP3    H1 7443   5.214   4.687   5.573
 2493TIP3    H2 7444   5.128   4.786   5.648
 2494TIP3   OH2 7445   4.163   2.832   0.016
 2494TIP3    H1 7446   4.243   2.854   0.063
 2494TIP3    H2 7447   4.190   2.770  -0.051
 2495TIP3   OH2 7448   0.669   2.025   1.451
 2495TIP3    H1 7449   0.722   2.103   1.465
 2495TIP3    H2 7450   0.663   1.984   1.537
 2496TIP3   OH2 7451   7.084   6.374   4.299
 2496TIP3    H1 7452   7.173   6.368   4.265
 2496TIP3    H2 7453   7.052   6.459   4.269
 2497TIP3   OH2 7454   3.434   6.619   2.936
 2497TIP3    H1 7455   3.491   6.674   2.990
 2497TIP3    H2 7456   3.473   6.622   2.849
 2498TIP3   OH2 7457   7.044   4.349   4.344
 2498TIP3    H1 7458   6.962   4.348   4.295
 2498TIP3    H2 7459   7.079   4.437   4.331
 2499TIP3   OH2 7460   1.181   1.444   2.790
 2499TIP3    H1 7461   1.207   1.442   2.699
 2499TIP3    H2 7462   1.248   1.496   2.834
 2500TIP3   OH2 7463   4.965   6.688   0.944
 2500TIP3    H1 7464   4.930   6.747   1.011
 2500TIP3    H2 7465   5.050   6.725   0.921
 2501TIP3   OH2 7466   6.132   2.192   5.627
 2501TIP3    H1 7467   6.074   2.241   5.686
 2501TIP3    H2 7468   6.172   2.259   5.572
 2502TIP3   OH2 7469   4.440   4.835   1.625
 2502TIP3    H1 7470   4.402   4.916   1.657
 2502TIP3    H2 7471   4.422   4.770   1.693
 2503TIP3   OH2 7472   3.731   2.775   3.950
 2503TIP3    H1 7473   3.793   2.847   3.961
 2503TIP3    H2 7474   3.785   2.697   3.943
 2504TIP3   OH2 7475   2.209   3.738   1.185
 2504TIP3    H1 7476   2.223   3.728   1.279
 2504TIP3    H2 7477   2.181   3.651   1.156
 2505TIP3   OH2 7478   6.720   3.503   2.702
 2505TIP3    H1 7479   6.665   3.426   2.719
 2505TIP3    H2 7480   6.685   3.540   2.621
 2506TIP3   OH2 7481   5.021   4.654   1.890
 2506TIP3    H1 7482   4.953   4.600   1.930
 2506TIP3    H2 7483   5.100   4.634   1.939
 2507TIP3   OH2 7484   3.731   4.516   2.430
 2507TIP3    H1 7485   3.695   4.603   2.414
 2507TIP3    H2 7486   3.736   4.476   2.343
 2508TIP3   OH2 7487   7.047   3.141   0.877
 2508TIP3    H1 7488   7.063   3.097   0.961
 2508TIP3    H2 7489   7.014   3.228   0.902
 2509TIP3   OH2 7490   1.520   0.418   4.429
 2509TIP3    H1 7491   1.586   0.348   4.438
 2509TIP3    H2 7492   1.560   0.494   4.471
 2510TIP3   OH2 7493   1.032   5.985   3.921
 2510TIP3    H1 7494   1.068   6.000   4.009
 2510TIP3    H2 7495   1.017   6.073   3.886
 2511TIP3   OH2 7496   2.085   6.459   1.191
 2511TIP3    H1 7497   2.150   6.409   1.142
 2511TIP3    H2 7498   2.013   6.473   1.130
 2512TIP3   OH2 7499   1.439   2.794   4.385
 2512TIP3    H1 7500   1.411   2.728   4.448
 2512TIP3    H2 7501   1.401   2.876   4.418
 2513TIP3   OH2 7502   7.047   5.316   2.236
 2513TIP3    H1 7503   7.000   5.346   2.158
 2513TIP3    H2 7504   7.100   5.391   2.262
 2514TIP3   OH2 7505   1.224   6.157   1.072
 2514TIP3    H1 7506   1.296   6.098   1.095
 2514TIP3    H2 7507   1.181   6.175   1.156
 2515TIP3   OH2 7508   5.693   5.063   0.992
 2515TIP3    H1 7509   5.661   5.059   0.903
 2515TIP3    H2 7510   5.766   5.002   0.995
 2516TIP3   OH2 7511   2.464   6.080   4.362
 2516TIP3    H1 7512   2.436   6.010   4.303
 2516TIP3    H2 7513   2.551   6.052   4.392
 2517TIP3   OH2 7514   4.284   6.179   0.510
 2517TIP3    H1 7515   4.354   6.242   0.492
 2517TIP3    H2 7516   4.204   6.231   0.506
 2518TIP3   OH2 7517   4.347   3.820   5.067
 2518TIP3    H1 7518   4.366   3.855   5.154
 2518TIP3    H2 7519   4.301   3.738   5.083
 2519TIP3   OH2 7520   0.298   4.750   3.481
 2519TIP3    H1 7521   0.369   4.690   3.458
 2519TIP3    H2 7522   0.328   4.793   3.561
 2520TIP3   OH2 7523   3.416   4.056   4.794
 2520TIP3    H1 7524   3.448   3.966   4.807
 2520TIP3    H2 7525   3.485   4.111   4.831
 2521TIP3   OH2 7526   6.880   3.630   2.190
 2521TIP3    H1 7527   6.942   3.597   2.255
 2521TIP3    H2 7528   6.934   3.666   2.120
 2522TIP3   OH2 7529   0.635   2.497   0.684
 2522TIP3    H1 7530   0.661   2.511   0.775
 2522TIP3    H2 7531   0.555   2.446   0.690
 2523TIP3   OH2 7532   5.750   5.792   5.010
 2523TIP3    H1 7533   5.799   5.729   4.957
 2523TIP3    H2 7534   5.725   5.743   5.088
 2524TIP3   OH2 7535   2.495   2.826   1.480
 2524TIP3    H1 7536   2.557   2.791   1.416
 2524TIP3    H2 7537   2.532   2.802   1.565
 2525TIP3   OH2 7538   4.384   6.660   1.294
 2525TIP3    H1 7539   4.414   6.669   1.204
 2525TIP3    H2 7540   4.333   6.578   1.295
 2526TIP3   OH2 7541   2.349   6.670   3.715
 2526TIP3    H1 7542   2.345   6.645   3.622
 2526TIP3    H2 7543   2.440   6.654   3.740
 2527TIP3   OH2 7544   1.648   3.141   5.683
 2527TIP3    H1 7545   1.566   3.190   5.696
 2527TIP3    H2 7546   1.706   3.174   5.751
 2528TIP3   OH2 7547   2.100   5.636   2.229
 2528TIP3    H1 7548   2.009   5.662   2.219
 2528TIP3    H2 7549   2.127   5.673   2.313
 2529TIP3   OH2 7550   5.846   0.947   2.989
 2529TIP3    H1 7551   5.867   1.035   3.020
 2529TIP3    H2 7552   5.791   0.910   3.058
 2530TIP3   OH2 7553   6.372   2.531   4.007
 2530TIP3    H1 7554   6.427   2.453   4.019
 2530TIP3    H2 7555   6.384   2.581   4.088
 2531TIP3   OH2 7556   1.348   2.218   0.413
 2531TIP3    H1 7557   1.305   2.164   0.346
 2531TIP3    H2 7558   1.366   2.157   0.485
 2532TIP3   OH2 7559   6.321   4.184   5.536
 2532TIP3    H1 7560   6.308   4.096   5.571
 2532TIP3    H2 7561   6.340   4.170   5.443
 2533TIP3   OH2 7562   6.619   6.516   5.332
 2533TIP3    H1 7563   6.565   6.443   5.362
 2533TIP3    H2 7564   6.576   6.545   5.251
 2534TIP3   OH2 7565   5.826   3.827   2.887
 2534TIP3    H1 7566   5.867   3.899   2.840
 2534TIP3    H2 7567   5.755   3.799   2.830
 2535TIP3   OH2 7568   6.759   0.084   4.091
 2535TIP3    H1 7569   6.697   0.151   4.121
 2535TIP3    H2 7570   6.842   0.108   4.131
 2536TIP3   OH2 7571   4.397   2.930   1.636
 2536TIP3    H1 7572   4.304   2.949   1.646
 2536TIP3    H2 7573   4.441   3.014   1.646
 2537TIP3   OH2 7574   3.843   2.747   1.901
 2537TIP3    H1 7575   3.892   2.828   1.912
 2537TIP3    H2 7576   3.895   2.681   1.947
 2538TIP3   OH2 7577   2.168   5.759   4.659
 2538TIP3    H1 7578   2.146   5.705   4.583
 2538TIP3    H2 7579   2.195   5.843   4.622
 2539TIP3   OH2 7580   2.821   4.473   2.549
 2539TIP3    H1 7581   2.792   4.518   2.628
 2539TIP3    H2 7582   2.827   4.381   2.575
 2540TIP3   OH2 7583   0.552   4.665   3.948
 2540TIP3    H1 7584   0.565   4.710   4.032
 2540TIP3    H2 7585   0.637   4.624   3.930
 2541TIP3   OH2 7586   0.755   4.096   4.211
 2541TIP3    H1 7587   0.744   4.001   4.210
 2541TIP3    H2 7588   0.688   4.128   4.151
 2542TIP3   OH2 7589   0.798   2.935   3.489
 2542TIP3    H1 7590   0.842   2.922   3.405
 2542TIP3    H2 7591   0.788   2.847   3.526
 2543TIP3   OH2 7592   1.987   3.416   4.249
 2543TIP3    H1 7593   2.005   3.463   4.330
 2543TIP3    H2 7594   2.051   3.450   4.187
 2544TIP3   OH2 7595   4.006   2.876   2.927
 2544TIP3    H1 7596   4.054   2.793   2.916
 2544TIP3    H2 7597   4.069   2.933   2.971
 2545TIP3   OH2 7598   4.277   6.766   0.448
 2545TIP3    H1 7599   4.359   6.780   0.400
 2545TIP3    H2 7600   4.257   6.673   0.435
 2546TIP3   OH2 7601   1.937   2.290   4.612
 2546TIP3    H1 7602   1.959   2.209   4.658
 2546TIP3    H2 7603   1.908   2.261   4.525
 2547TIP3   OH2 7604   4.088   0.411   1.929
 2547TIP3    H1 7605   4.022   0.342   1.936
 2547TIP3    H2 7606   4.042   0.483   1.884
 2548TIP3   OH2 7607   1.989   2.073   5.611
 2548TIP3    H1 7608   1.983   1.979   5.627
 2548TIP3    H2 7609   2.071   2.085   5.563
 2549TIP3   OH2 7610   3.204   5.653   4.728
 2549TIP3    H1 7611   3.267   5.634   4.658
 2549TIP3    H2 7612   3.145   5.578   4.728
 2550TIP3   OH2 7613   1.580   4.424   3.298
 2550TIP3    H1 7614   1.565   4.447   3.206
 2550TIP3    H2 7615   1.564   4.329   3.302
 2551TIP3   OH2 7616   3.822   4.103   2.899
 2551TIP3    H1 7617   3.843   4.134   2.987
 2551TIP3    H2 7618   3.865   4.018   2.892
 2552TIP3   OH2 7619   1.299   0.612   2.118
 2552TIP3    H1 7620   1.380   0.582   2.158
 2552TIP3    H2 7621   1.326   0.651   2.034
 2553TIP3   OH2 7622   6.900   2.287   0.734
 2553TIP3    H1 7623   6.958   2.248   0.800
 2553TIP3    H2 7624   6.947   2.277   0.652
 2554TIP3   OH2 7625   3.558   4.830   1.469
 2554TIP3    H1 7626   3.590   4.795   1.553
 2554TIP3    H2 7627   3.522   4.916   1.492
 2555TIP3   OH2 7628   0.999   0.447   1.739
 2555TIP3    H1 7629   1.048   0.375   1.778
 2555TIP3    H2 7630   0.925   0.405   1.695
 2556TIP3   OH2 7631   5.426   0.674   4.881
 2556TIP3    H1 7632   5.422   0.682   4.785
 2556TIP3    H2 7633   5.334   0.677   4.908
 2557TIP3   OH2 7634   1.242   0.173   1.257
 2557TIP3    H1 7635   1.166   0.181   1.314
 2557TIP3    H2 7636   1.217   0.107   1.192
 2558TIP3   OH2 7637   1.002   5.461   1.999
 2558TIP3    H1 7638   1.037   5.385   2.045
 2558TIP3    H2 7639   0.953   5.423   1.925
 2559TIP3   OH2 7640   0.352   0.059   3.331
 2559TIP3    H1 7641   0.294   0.096   3.398
 2559TIP3    H2 7642   0.416   0.128   3.315
 2560TIP3   OH2 7643   1.973   4.973   0.850
 2560TIP3    H1 7644   1.926   4.929   0.779
 2560TIP3    H2 7645   2.017   5.046   0.807
 2561TIP3   OH2 7646   3.301   5.963   0.123
 2561TIP3    H1 7647   3.259   6.027   0.065
 2561TIP3    H2 7648   3.230   5.905   0.150
 2562TIP3   OH2 7649   2.264   4.824   0.838
 2562TIP3    H1 7650   2.199   4.810   0.769
 2562TIP3    H2 7651   2.212   4.846   0.916
 2563TIP3   OH2 7652   3.331   2.155   3.149
 2563TIP3    H1 7653   3.287   2.171   3.066
 2563TIP3    H2 7654   3.318   2.061   3.165
 2564TIP3   OH2 7655   6.844   2.339   5.293
 2564TIP3    H1 7656   6.791   2.267   5.261
 2564TIP3    H2 7657   6.792   2.379   5.362
 2565TIP3   OH2 7658   2.425   5.471   0.877
 2565TIP3    H1 7659   2.468   5.472   0.792
 2565TIP3    H2 7660   2.331   5.464   0.857
 2566TIP3   OH2 7661   0.751   0.550   0.415
 2566TIP3    H1 7662   0.709   0.614   0.471
 2566TIP3    H2 7663   0.802   0.602   0.353
 2567TIP3   OH2 7664   7.096   1.467   3.511
 2567TIP3    H1 7665   7.146   1.389   3.489
 2567TIP3    H2 7666   7.020   1.434   3.559
 2568TIP3   OH2 7667   6.683   0.240   0.314
 2568TIP3    H1 7668   6.603   0.293   0.324
 2568TIP3    H2 7669   6.659   0.154   0.348
 2569TIP3   OH2 7670   1.019   4.421   2.265
 2569TIP3    H1 7671   1.110   4.393   2.258
 2569TIP3    H2 7672   1.020   4.489   2.333
 2570TIP3   OH2 7673   3.242   6.613   3.291
 2570TIP3    H1 7674   3.233   6.541   3.229
 2570TIP3    H2 7675   3.159   6.614   3.339
 2571TIP3   OH2 7676   5.718   4.028   0.160
 2571TIP3    H1 7677   5.807   4.002   0.181
 2571TIP3    H2 7678   5.683   4.063   0.243
 2572TIP3   OH2 7679   4.183   5.710   3.695
 2572TIP3    H1 7680   4.099   5.756   3.688
 2572TIP3    H2 7681   4.200   5.706   3.789
 2573TIP3   OH2 7682   2.531   6.418   5.059
 2573TIP3    H1 7683   2.557   6.460   5.141
 2573TIP3    H2 7684   2.480   6.485   5.013
 2574TIP3   OH2 7685   1.720   2.734   2.440
 2574TIP3    H1 7686   1.636   2.713   2.400
 2574TIP3    H2 7687   1.715   2.698   2.528
 2575TIP3   OH2 7688   3.830   3.339   4.518
 2575TIP3    H1 7689   3.746   3.366   4.479
 2575TIP3    H2 7690   3.832   3.383   4.603
 2576TIP3   OH2 7691   0.999   1.088   4.969
 2576TIP3    H1 7692   0.932   1.131   5.022
 2576TIP3    H2 7693   1.044   1.159   4.925
 2577TIP3   OH2 7694   2.743   0.594   3.325
 2577TIP3    H1 7695   2.766   0.579   3.233
 2577TIP3    H2 7696   2.822   0.633   3.363
 2578TIP3   OH2 7697   3.498   5.708   5.199
 2578TIP3    H1 7698   3.424   5.685   5.143
 2578TIP3    H2 7699   3.493   5.804   5.206
 2579TIP3   OH2 7700   2.597   3.583   4.267
 2579TIP3    H1 7701   2.681   3.538   4.262
 2579TIP3    H2 7702   2.593   3.618   4.356
 2580TIP3   OH2 7703   6.710   4.604   2.206
 2580TIP3    H1 7704   6.674   4.588   2.119
 2580TIP3    H2 7705   6.675   4.689   2.232
 2581TIP3   OH2 7706   1.165   0.820   1.647
 2581TIP3    H1 7707   1.071   0.817   1.661
 2581TIP3    H2 7708   1.189   0.730   1.626
 2582TIP3   OH2 7709   5.776   5.029   4.260
 2582TIP3    H1 7710   5.712   4.970   4.219
 2582TIP3    H2 7711   5.853   4.974   4.272
 2583TIP3   OH2 7712   6.885   2.385   4.920
 2583TIP3    H1 7713   6.793   2.363   4.929
 2583TIP3    H2 7714   6.925   2.306   4.883
 2584TIP3   OH2 7715   3.243   3.262   4.528
 2584TIP3    H1 7716   3.292   3.253   4.446
 2584TIP3    H2 7717   3.211   3.174   4.547
 2585TIP3   OH2 7718   6.846   3.776   2.511
 2585TIP3    H1 7719   6.828   3.859   2.557
 2585TIP3    H2 7720   6.776   3.769   2.446
 2586TIP3   OH2 7721   3.757   6.757   1.805
 2586TIP3    H1 7722   3.793   6.836   1.764
 2586TIP3    H2 7723   3.827   6.693   1.799
 2587TIP3   OH2 7724   7.020   3.723   5.756
 2587TIP3    H1 7725   6.966   3.692   5.683
 2587TIP3    H2 7726   7.094   3.662   5.759
 2588TIP3   OH2 7727   2.511   0.515   3.648
 2588TIP3    H1 7728   2.522   0.520   3.553
 2588TIP3    H2 7729   2.490   0.423   3.664
 2589TIP3   OH2 7730   6.150   4.470   2.537
 2589TIP3    H1 7731   6.147   4.411   2.612
 2589TIP3    H2 7732   6.194   4.548   2.570
 2590TIP3   OH2 7733   5.422   2.046   3.622
 2590TIP3    H1 7734   5.333   2.078   3.611
 2590TIP3    H2 7735   5.449   2.018   3.534
 2591TIP3   OH2 7736   6.126   6.725   4.446
 2591TIP3    H1 7737   6.082   6.681   4.519
 2591TIP3    H2 7738   6.099   6.817   4.453
 2592TIP3   OH2 7739   0.015   3.117   3.221
 2592TIP3    H1 7740   0.078   3.086   3.287
 2592TIP3    H2 7741  -0.061   3.146   3.271
 2593TIP3   OH2 7742   6.642   1.197   0.902
 2593TIP3    H1 7743   6.595   1.236   0.976
 2593TIP3    H2 7744   6.726   1.169   0.940
 2594TIP3   OH2 7745   5.610   3.709   1.129
 2594TIP3    H1 7746   5.641   3.699   1.039
 2594TIP3    H2 7747   5.559   3.629   1.145
 2595TIP3   OH2 7748   3.509   4.527   5.464
 2595TIP3    H1 7749   3.461   4.607   5.446
 2595TIP3    H2 7750   3.541   4.498   5.379
 2596TIP3   OH2 7751   2.791   1.435   2.674
 2596TIP3    H1 7752   2.866   1.381   2.696
 2596TIP3    H2 7753   2.805   1.461   2.583
 2597TIP3   OH2 7754   3.957   5.751   3.158
 2597TIP3    H1 7755   3.915   5.824   3.205
 2597TIP3    H2 7756   3.973   5.786   3.070
 2598TIP3   OH2 7757   3.765   1.749   4.760
 2598TIP3    H1 7758   3.698   1.752   4.692
 2598TIP3    H2 7759   3.727   1.691   4.827
 2599TIP3   OH2 7760   0.132   4.113   0.291
 2599TIP3    H1 7761   0.181   4.191   0.314
 2599TIP3    H2 7762   0.040   4.139   0.296
 2600TIP3   OH2 7763   5.625   0.838   0.953
 2600TIP3    H1 7764   5.635   0.929   0.981
 2600TIP3    H2 7765   5.537   0.814   0.982
 2601TIP3   OH2 7766   0.070   4.225   4.460
 2601TIP3    H1 7767  -0.010   4.245   4.412
 2601TIP3    H2 7768   0.040   4.181   4.540
 2602TIP3   OH2 7769   2.610   1.400   2.023
 2602TIP3    H1 7770   2.534   1.342   2.021
 2602TIP3    H2 7771   2.621   1.421   2.116
 2603TIP3   OH2 7772   2.290   1.549   0.114
 2603TIP3    H1 7773   2.342   1.494   0.173
 2603TIP3    H2 7774   2.294   1.505   0.030
 2604TIP3   OH2 7775   4.528   4.329   0.246
 2604TIP3    H1 7776   4.484   4.369   0.321
 2604TIP3    H2 7777   4.484   4.245   0.233
 2605TIP3   OH2 7778   5.477   5.525   2.732
 2605TIP3    H1 7779   5.383   5.509   2.718
 2605TIP3    H2 7780   5.484   5.546   2.825
 2606TIP3   OH2 7781   3.266   3.052   0.325
 2606TIP3    H1 7782   3.240   3.145   0.328
 2606TIP3    H2 7783   3.218   3.017   0.250
 2607TIP3   OH2 7784   1.706   3.092   2.209
 2607TIP3    H1 7785   1.721   3.152   2.283
 2607TIP3    H2 7786   1.695   3.150   2.134
 2608TIP3   OH2 7787   7.136   0.409   5.213
 2608TIP3    H1 7788   7.213   0.467   5.220
 2608TIP3    H2 7789   7.090   0.440   5.135
 2609TIP3   OH2 7790   0.138   1.749   1.292
 2609TIP3    H1 7791   0.223   1.708   1.306
 2609TIP3    H2 7792   0.114   1.784   1.377
 2610TIP3   OH2 7793   2.793   1.125   2.752
 2610TIP3    H1 7794   2.725   1.140   2.817
 2610TIP3    H2 7795   2.864   1.185   2.777
 2611TIP3   OH2 7796   4.379   4.179   0.979
 2611TIP3    H1 7797   4.340   4.192   0.893
 2611TIP3    H2 7798   4.468   4.148   0.961
 2612TIP3   OH2 7799   7.155   4.068   0.935
 2612TIP3    H1 7800   7.171   4.160   0.914
 2612TIP3    H2 7801   7.144   4.025   0.850
 2613TIP3   OH2 7802   0.263   2.262   5.822
 2613TIP3    H1 7803   0.196   2.195   5.814
 2613TIP3    H2 7804   0.343   2.213   5.842
 2614TIP3   OH2 7805   0.906   2.549   2.819
 2614TIP3    H1 7806   0.977   2.497   2.782
 2614TIP3    H2 7807   0.941   2.638   2.824
 2615TIP3   OH2 7808   0.845   3.981   0.030
 2615TIP3    H1 7809   0.893   3.915  -0.020
 2615TIP3    H2 7810   0.852   3.951   0.121
 2616TIP3   OH2 7811   6.729   4.344   5.671
 2616TIP3    H1 7812   6.732   4.405   5.745
 2616TIP3    H2 7813   6.790   4.381   5.607
 2617TIP3   OH2 7814   6.861   0.115   3.503
 2617TIP3    H1 7815   6.925   0.164   3.554
 2617TIP3    H2 7816   6.913   0.062   3.443
 2618TIP3   OH2 7817   3.987   2.966   1.949
 2618TIP3    H1 7818   4.079   2.952   1.929
 2618TIP3    H2 7819   3.977   3.061   1.953
 2619TIP3   OH2 7820   6.200   0.851   2.994
 2619TIP3    H1 7821   6.123   0.800   3.018
 2619TIP3    H2 7822   6.185   0.937   3.032
 2620TIP3   OH2 7823   0.921   1.150   1.087
 2620TIP3    H1 7824   0.881   1.186   1.008
 2620TIP3    H2 7825   0.928   1.056   1.070
 2621TIP3   OH2 7826   5.543   2.857   4.678
 2621TIP3    H1 7827   5.605   2.839   4.749
 2621TIP3    H2 7828   5.557   2.785   4.616
 2622TIP3   OH2 7829   0.754   2.475   1.221
 2622TIP3    H1 7830   0.743   2.454   1.128
 2622TIP3    H2 7831   0.842   2.445   1.242
 2623TIP3   OH2 7832   1.561   4.060   2.423
 2623TIP3    H1 7833   1.578   3.997   2.493
 2623TIP3    H2 7834   1.474   4.036   2.391
 2624TIP3   OH2 7835   2.658   0.349   3.420
 2624TIP3    H1 7836   2.681   0.440   3.404
 2624TIP3    H2 7837   2.687   0.302   3.342
 2625TIP3   OH2 7838   5.884   6.589   3.957
 2625TIP3    H1 7839   5.893   6.684   3.948
 2625TIP3    H2 7840   5.973   6.558   3.971
 2626TIP3   OH2 7841   2.505   0.701   1.785
 2626TIP3    H1 7842   2.504   0.779   1.731
 2626TIP3    H2 7843   2.493   0.733   1.875
 2627TIP3   OH2 7844   0.583   5.812   1.810
 2627TIP3    H1 7845   0.675   5.836   1.822
 2627TIP3    H2 7846   0.564   5.755   1.885
 2628TIP3   OH2 7847   4.860   0.901   4.793
 2628TIP3    H1 7848   4.925   0.836   4.764
 2628TIP3    H2 7849   4.783   0.882   4.740
 2629TIP3   OH2 7850   2.011   5.996   0.099
 2629TIP3    H1 7851   2.051   6.081   0.081
 2629TIP3    H2 7852   1.975   6.005   0.187
 2630TIP3   OH2 7853   2.159   2.346   4.822
 2630TIP3    H1 7854   2.201   2.279   4.768
 2630TIP3    H2 7855   2.200   2.337   4.908
 2631TIP3   OH2 7856   1.355   5.771   0.875
 2631TIP3    H1 7857   1.447   5.769   0.901
 2631TIP3    H2 7858   1.344   5.695   0.818
 2632TIP3   OH2 7859   5.811   4.031   3.309
 2632TIP3    H1 7860   5.736   4.013   3.252
 2632TIP3    H2 7861   5.795   4.119   3.343
 2633TIP3   OH2 7862   6.157   0.076   4.674
 2633TIP3    H1 7863   6.202   0.160   4.658
 2633TIP3    H2 7864   6.116   0.087   4.760
 2634TIP3   OH2 7865   4.265   5.136   5.864
 2634TIP3    H1 7866   4.278   5.229   5.843
 2634TIP3    H2 7867   4.220   5.101   5.787
 2635TIP3   OH2 7868   2.463   2.938   0.017
 2635TIP3    H1 7869   2.446   2.945  -0.077
 2635TIP3    H2 7870   2.472   3.028   0.047
 2636TIP3   OH2 7871   6.279   0.752   3.635
 2636TIP3    H1 7872   6.353   0.777   3.690
 2636TIP3    H2 7873   6.290   0.658   3.620
 2637TIP3   OH2 7874   3.671   0.890   3.585
 2637TIP3    H1 7875   3.752   0.907   3.634
 2637TIP3    H2 7876   3.662   0.795   3.587
 2638TIP3   OH2 7877   3.503   4.551   0.318
 2638TIP3    H1 7878   3.559   4.494   0.370
 2638TIP3    H2 7879   3.536   4.543   0.229
 2639TIP3   OH2 7880   2.477   2.616   3.771
 2639TIP3    H1 7881   2.398   2.669   3.776
 2639TIP3    H2 7882   2.453   2.533   3.812
 2640TIP3   OH2 7883   2.338   6.572   5.615
 2640TIP3    H1 7884   2.255   6.606   5.648
 2640TIP3    H2 7885   2.395   6.567   5.692
 2641TIP3   OH2 7886   1.879   0.561   5.555
 2641TIP3    H1 7887   1.877   0.643   5.504
 2641TIP3    H2 7888   1.903   0.589   5.644
 2642TIP3   OH2 7889   0.988   3.064   2.325
 2642TIP3    H1 7890   0.982   2.994   2.260
 2642TIP3    H2 7891   1.075   3.103   2.310
 2643TIP3   OH2 7892   3.807   0.009   2.302
 2643TIP3    H1 7893   3.830  -0.069   2.352
 2643TIP3    H2 7894   3.833   0.082   2.358
 2644TIP3   OH2 7895   6.460   5.200   0.699
 2644TIP3    H1 7896   6.514   5.121   0.711
 2644TIP3    H2 7897   6.471   5.222   0.607
 2645TIP3   OH2 7898   5.048   1.573   2.150
 2645TIP3    H1 7899   5.071   1.557   2.058
 2645TIP3    H2 7900   5.116   1.527   2.200
 2646TIP3   OH2 7901   4.156   0.896   1.207
 2646TIP3    H1 7902   4.068   0.933   1.210
 2646TIP3    H2 7903   4.145   0.805   1.237
 2647TIP3   OH2 7904   1.454   0.116   5.823
 2647TIP3    H1 7905   1.476   0.029   5.858
 2647TIP3    H2 7906   1.489   0.177   5.887
 2648TIP3   OH2 7907   5.893   4.739   1.278
 2648TIP3    H1 7908   5.880   4.773   1.366
 2648TIP3    H2 7909   5.942   4.808   1.233
 2649TIP3   OH2 7910   4.218   6.686   2.525
 2649TIP3    H1 7911   4.140   6.739   2.542
 2649TIP3    H2 7912   4.290   6.737   2.562
 2650TIP3   OH2 7913   6.549   6.727   5.492
 2650TIP3    H1 7914   6.575   6.656   5.434
 2650TIP3    H2 7915   6.484   6.776   5.441
 2651TIP3   OH2 7916   0.382   0.194   4.077
 2651TIP3    H1 7917   0.467   0.164   4.045
 2651TIP3    H2 7918   0.337   0.113   4.102
 2652TIP3   OH2 7919   4.871   5.235   2.557
 2652TIP3    H1 7920   4.849   5.303   2.620
 2652TIP3    H2 7921   4.943   5.272   2.505
 2653TIP3   OH2 7922   0.258   6.511   0.837
 2653TIP3    H1 7923   0.276   6.420   0.862
 2653TIP3    H2 7924   0.169   6.509   0.803
 2654TIP3   OH2 7925   3.307   6.499   0.559
 2654TIP3    H1 7926   3.393   6.479   0.596
 2654TIP3    H2 7927   3.246   6.481   0.630
 2655TIP3   OH2 7928   5.845   2.377   2.637
 2655TIP3    H1 7929   5.795   2.394   2.557
 2655TIP3    H2 7930   5.899   2.301   2.615
 2656TIP3   OH2 7931   6.914   1.423   0.054
 2656TIP3    H1 7932   6.950   1.509   0.073
 2656TIP3    H2 7933   6.866   1.434  -0.028
 2657TIP3   OH2 7934   5.812   0.338   5.854
 2657TIP3    H1 7935   5.717   0.330   5.849
 2657TIP3    H2 7936   5.844   0.270   5.794
 2658TIP3   OH2 7937   4.267   3.978   0.048
 2658TIP3    H1 7938   4.244   3.897   0.004
 2658TIP3    H2 7939   4.199   4.040   0.021
 2659TIP3   OH2 7940   4.203   6.507   3.311
 2659TIP3    H1 7941   4.196   6.415   3.335
 2659TIP3    H2 7942   4.253   6.547   3.382
 2660TIP3   OH2 7943   2.385   1.793   0.686
 2660TIP3    H1 7944   2.309   1.740   0.666
 2660TIP3    H2 7945   2.458   1.731   0.691
 2661TIP3   OH2 7946   0.075   0.036   4.962
 2661TIP3    H1 7947  -0.014   0.022   4.993
 2661TIP3    H2 7948   0.075   0.127   4.931
 2662TIP3   OH2 7949   6.089   3.699   4.879
 2662TIP3    H1 7950   6.178   3.672   4.901
 2662TIP3    H2 7951   6.094   3.730   4.789
 2663TIP3   OH2 7952   5.519   3.748   3.022
 2663TIP3    H1 7953   5.432   3.786   3.034
 2663TIP3    H2 7954   5.579   3.814   3.056
 2664TIP3   OH2 7955   7.048   5.586   5.259
 2664TIP3    H1 7956   7.079   5.628   5.339
 2664TIP3    H2 7957   7.128   5.556   5.216
 2665TIP3   OH2 7958   6.401   2.430   1.138
 2665TIP3    H1 7959   6.398   2.395   1.049
 2665TIP3    H2 7960   6.431   2.520   1.127
 2666TIP3   OH2 7961   2.881   5.086   0.859
 2666TIP3    H1 7962   2.934   5.045   0.791
 2666TIP3    H2 7963   2.901   5.036   0.939
 2667TIP3   OH2 7964   2.349   6.140   5.309
 2667TIP3    H1 7965   2.261   6.104   5.321
 2667TIP3    H2 7966   2.383   6.096   5.231
 2668TIP3   OH2 7967   1.402   2.249   4.118
 2668TIP3    H1 7968   1.407   2.331   4.167
 2668TIP3    H2 7969   1.487   2.208   4.133
 2669TIP3   OH2 7970   1.505   4.567   0.841
 2669TIP3    H1 7971   1.514   4.576   0.746
 2669TIP3    H2 7972   1.413   4.583   0.859
 2670TIP3   OH2 7973   2.996   2.060   2.524
 2670TIP3    H1 7974   3.023   2.146   2.492
 2670TIP3    H2 7975   3.052   1.998   2.477
 2671TIP3   OH2 7976   4.630   0.195   4.664
 2671TIP3    H1 7977   4.621   0.127   4.731
 2671TIP3    H2 7978   4.723   0.215   4.662
 2672TIP3   OH2 7979   6.596   1.581   0.120
 2672TIP3    H1 7980   6.528   1.518   0.144
 2672TIP3    H2 7981   6.646   1.594   0.200
 2673TIP3   OH2 7982   3.499   2.961   1.531
 2673TIP3    H1 7983   3.498   2.921   1.444
 2673TIP3    H2 7984   3.527   3.051   1.515
 2674TIP3   OH2 7985   4.214   2.158   3.232
 2674TIP3    H1 7986   4.229   2.207   3.314
 2674TIP3    H2 7987   4.264   2.077   3.244
 2675TIP3   OH2 7988   5.528   4.070   5.143
 2675TIP3    H1 7989   5.621   4.050   5.145
 2675TIP3    H2 7990   5.523   4.164   5.159
 2676TIP3   OH2 7991   1.941   0.788   2.277
 2676TIP3    H1 7992   1.873   0.730   2.312
 2676TIP3    H2 7993   1.926   0.871   2.322
 2677TIP3   OH2 7994   6.060   4.423   1.569
 2677TIP3    H1 7995   6.060   4.360   1.641
 2677TIP3    H2 7996   6.124   4.490   1.596
 2678TIP3   OH2 7997   0.960   5.662   3.708
 2678TIP3    H1 7998   0.879   5.640   3.663
 2678TIP3    H2 7999   0.952   5.755   3.729
 2679TIP3   OH2 8000   2.689   6.273   5.395
 2679TIP3    H1 8001   2.777   6.251   5.427
 2679TIP3    H2 8002   2.643   6.305   5.473
 2680TIP3   OH2 8003   0.854   0.701   5.060
 2680TIP3    H1 8004   0.798   0.752   5.001
 2680TIP3    H2 8005   0.817   0.716   5.147
 2681TIP3   OH2 8006   2.685   6.090   1.735
 2681TIP3    H1 8007   2.695   6.054   1.823
 2681TIP3    H2 8008   2.690   6.013   1.677
 2682TIP3   OH2 8009   0.350   5.021   2.540
 2682TIP3    H1 8010   0.332   4.938   2.585
 2682TIP3    H2 8011   0.438   5.045   2.568
 2683TIP3   OH2 8012   0.040   0.250   2.054
 2683TIP3    H1 8013  -0.050   0.278   2.035
 2683TIP3    H2 8014   0.063   0.298   2.134
 2684TIP3   OH2 8015   6.145   1.012   5.581
 2684TIP3    H1 8016   6.098   1.076   5.528
 2684TIP3    H2 8017   6.113   0.927   5.552
 2685TIP3   OH2 8018   3.894   6.040   4.510
 2685TIP3    H1 8019   3.971   5.984   4.512
 2685TIP3    H2 8020   3.901   6.094   4.589
 2686TIP3   OH2 8021   1.694   1.840   0.639
 2686TIP3    H1 8022   1.722   1.931   0.627
 2686TIP3    H2 8023   1.770   1.796   0.676
 2687TIP3   OH2 8024   1.403   6.730   3.536
 2687TIP3    H1 8025   1.458   6.691   3.469
 2687TIP3    H2 8026   1.327   6.671   3.542
 2688TIP3   OH2 8027   0.715   2.887   3.984
 2688TIP3    H1 8028   0.796   2.843   3.957
 2688TIP3    H2 8029   0.653   2.867   3.914
 2689TIP3   OH2 8030   4.185   1.452   4.883
 2689TIP3    H1 8031   4.232   1.376   4.916
 2689TIP3    H2 8032   4.104   1.454   4.934
 2690TIP3   OH2 8033   2.973   5.460   3.951
 2690TIP3    H1 8034   3.047   5.498   3.904
 2690TIP3    H2 8035   2.904   5.452   3.886
 2691TIP3   OH2 8036   4.197   1.957   4.999
 2691TIP3    H1 8037   4.211   2.052   4.997
 2691TIP3    H2 8038   4.115   1.944   4.950
 2692TIP3   OH2 8039   1.337   2.972   0.816
 2692TIP3    H1 8040   1.245   2.968   0.790
 2692TIP3    H2 8041   1.385   2.941   0.738
 2693TIP3   OH2 8042   3.046   1.885   5.428
 2693TIP3    H1 8043   3.105   1.959   5.415
 2693TIP3    H2 8044   3.104   1.811   5.447
 2694TIP3   OH2 8045   6.587   4.848   5.465
 2694TIP3    H1 8046   6.646   4.830   5.392
 2694TIP3    H2 8047   6.641   4.836   5.543
 2695TIP3   OH2 8048   1.910   0.062   3.854
 2695TIP3    H1 8049   1.948   0.054   3.767
 2695TIP3    H2 8050   1.816   0.051   3.840
 2696TIP3   OH2 8051   3.209   1.299   1.240
 2696TIP3    H1 8052   3.271   1.312   1.168
 2696TIP3    H2 8053   3.200   1.204   1.247
 2697TIP3   OH2 8054   2.311   4.756   3.126
 2697TIP3    H1 8055   2.354   4.703   3.193
 2697TIP3    H2 8056   2.279   4.693   3.062
 2698TIP3   OH2 8057   2.075   2.244   5.310
 2698TIP3    H1 8058   2.111   2.177   5.368
 2698TIP3    H2 8059   2.053   2.196   5.230
 2699TIP3   OH2 8060   6.090   5.306   5.637
 2699TIP3    H1 8061   6.181   5.285   5.618
 2699TIP3    H2 8062   6.041   5.269   5.564
 2700TIP3   OH2 8063   2.848   4.182   4.235
 2700TIP3    H1 8064   2.924   4.137   4.270
 2700TIP3    H2 8065   2.774   4.123   4.252
 2701TIP3   OH2 8066   2.409   3.175   3.849
 2701TIP3    H1 8067   2.424   3.249   3.789
 2701TIP3    H2 8068   2.497   3.151   3.878
 2702TIP3   OH2 8069   7.205   2.628   1.749
 2702TIP3    H1 8070   7.157   2.546   1.756
 2702TIP3    H2 8071   7.267   2.626   1.822
 2703TIP3   OH2 8072   3.992   1.619   3.232
 2703TIP3    H1 8073   3.929   1.655   3.169
 2703TIP3    H2 8074   4.078   1.635   3.192
 2704TIP3   OH2 8075   6.426   3.179  -0.009
 2704TIP3    H1 8076   6.508   3.158   0.037
 2704TIP3    H2 8077   6.389   3.252   0.041
 2705TIP3   OH2 8078   6.710   3.315   4.065
 2705TIP3    H1 8079   6.797   3.299   4.028
 2705TIP3    H2 8080   6.722   3.307   4.159
 2706TIP3   OH2 8081   0.220   1.995   4.138
 2706TIP3    H1 8082   0.128   2.014   4.157
 2706TIP3    H2 8083   0.265   2.078   4.154
 2707TIP3   OH2 8084   5.437   4.196   4.501
 2707TIP3    H1 8085   5.450   4.266   4.565
 2707TIP3    H2 8086   5.469   4.117   4.545
 2708TIP3   OH2 8087   0.169   1.573   2.232
 2708TIP3    H1 8088   0.078   1.600   2.233
 2708TIP3    H2 8089   0.179   1.520   2.311
 2709TIP3   OH2 8090   3.388   5.516   4.039
 2709TIP3    H1 8091   3.479   5.505   4.066
 2709TIP3    H2 8092   3.341   5.446   4.086
 2710TIP3   OH2 8093   0.781   1.367   3.835
 2710TIP3    H1 8094   0.696   1.363   3.877
 2710TIP3    H2 8095   0.765   1.406   3.749
 2711TIP3   OH2 8096   1.784   6.762   3.285
 2711TIP3    H1 8097   1.797   6.686   3.227
 2711TIP3    H2 8098   1.711   6.737   3.341
 2712TIP3   OH2 8099   4.765   5.449   3.890
 2712TIP3    H1 8100   4.678   5.414   3.906
 2712TIP3    H2 8101   4.814   5.432   3.971
 2713TIP3   OH2 8102   0.813   5.841   2.899
 2713TIP3    H1 8103   0.758   5.763   2.904
 2713TIP3    H2 8104   0.800   5.873   2.809
 2714TIP3   OH2 8105   0.040   4.725   3.574
 2714TIP3    H1 8106   0.134   4.726   3.554
 2714TIP3    H2 8107   0.031   4.659   3.642
 2715TIP3   OH2 8108   5.753   3.373   2.807
 2715TIP3    H1 8109   5.691   3.446   2.809
 2715TIP3    H2 8110   5.817   3.394   2.875
 2716TIP3   OH2 8111   2.615   3.038   0.556
 2716TIP3    H1 8112   2.532   3.015   0.513
 2716TIP3    H2 8113   2.640   2.959   0.604
 2717TIP3   OH2 8114   5.392   4.988   2.719
 2717TIP3    H1 8115   5.448   5.066   2.716
 2717TIP3    H2 8116   5.306   5.018   2.690
 2718TIP3   OH2 8117   4.616   5.883   2.882
 2718TIP3    H1 8118   4.576   5.935   2.951
 2718TIP3    H2 8119   4.687   5.938   2.848
 2719TIP3   OH2 8120   5.593   0.424   3.891
 2719TIP3    H1 8121   5.549   0.398   3.810
 2719TIP3    H2 8122   5.562   0.362   3.957
 2720TIP3   OH2 8123   0.818   2.080   1.116
 2720TIP3    H1 8124   0.750   2.128   1.164
 2720TIP3    H2 8125   0.895   2.083   1.173
 2721TIP3   OH2 8126   3.598   1.171   0.903
 2721TIP3    H1 8127   3.597   1.226   0.824
 2721TIP3    H2 8128   3.690   1.171   0.931
 2722TIP3   OH2 8129   1.835   3.808   2.298
 2722TIP3    H1 8130   1.794   3.855   2.371
 2722TIP3    H2 8131   1.825   3.716   2.320
 2723TIP3   OH2 8132   6.349   6.131   1.426
 2723TIP3    H1 8133   6.367   6.081   1.347
 2723TIP3    H2 8134   6.418   6.198   1.428
 2724TIP3   OH2 8135   4.397   5.318   2.284
 2724TIP3    H1 8136   4.389   5.413   2.300
 2724TIP3    H2 8137   4.482   5.294   2.320
 2725TIP3   OH2 8138   0.297   1.355   3.379
 2725TIP3    H1 8139   0.217   1.309   3.354
 2725TIP3    H2 8140   0.302   1.345   3.474
 2726TIP3   OH2 8141   3.494   2.299   1.968
 2726TIP3    H1 8142   3.495   2.261   2.056
 2726TIP3    H2 8143   3.570   2.358   1.967
 2727TIP3   OH2 8144   2.968   4.145   5.671
 2727TIP3    H1 8145   3.054   4.152   5.629
 2727TIP3    H2 8146   2.942   4.236   5.686
 2728TIP3   OH2 8147   3.885   3.892   3.338
 2728TIP3    H1 8148   3.889   3.837   3.416
 2728TIP3    H2 8149   3.850   3.834   3.270
 2729TIP3   OH2 8150   4.732   1.970   2.231
 2729TIP3    H1 8151   4.750   1.947   2.322
 2729TIP3    H2 8152   4.639   1.994   2.231
 2730TIP3   OH2 8153   3.039   1.110   2.211
 2730TIP3    H1 8154   2.948   1.122   2.184
 2730TIP3    H2 8155   3.082   1.068   2.137
 2731TIP3   OH2 8156   0.172   1.458   3.730
 2731TIP3    H1 8157   0.093   1.431   3.777
 2731TIP3    H2 8158   0.145   1.534   3.678
 2732TIP3   OH2 8159   1.655   4.820   2.165
 2732TIP3    H1 8160   1.742   4.785   2.184
 2732TIP3    H2 8161   1.663   4.913   2.184
 2733TIP3   OH2 8162   5.900   6.309   2.261
 2733TIP3    H1 8163   5.854   6.333   2.180
 2733TIP3    H2 8164   5.991   6.294   2.233
 2734TIP3   OH2 8165   0.673   5.650   3.053
 2734TIP3    H1 8166   0.675   5.746   3.051
 2734TIP3    H2 8167   0.678   5.628   3.146
 2735TIP3   OH2 8168   6.729   2.166   4.378
 2735TIP3    H1 8169   6.761   2.211   4.456
 2735TIP3    H2 8170   6.688   2.234   4.326
 2736TIP3   OH2 8171   3.522   3.142   2.637
 2736TIP3    H1 8172   3.460   3.110   2.571
 2736TIP3    H2 8173   3.496   3.097   2.717
 2737TIP3   OH2 8174   2.856   1.261   1.005
 2737TIP3    H1 8175   2.835   1.168   1.005
 2737TIP3    H2 8176   2.868   1.283   1.098
 2738TIP3   OH2 8177   2.419   3.481   5.769
 2738TIP3    H1 8178   2.497   3.497   5.821
 2738TIP3    H2 8179   2.444   3.504   5.679
 2739TIP3   OH2 8180   5.560   2.459   2.872
 2739TIP3    H1 8181   5.642   2.505   2.855
 2739TIP3    H2 8182   5.493   2.528   2.872
 2740TIP3   OH2 8183   1.223   3.470   4.247
 2740TIP3    H1 8184   1.315   3.444   4.244
 2740TIP3    H2 8185   1.175   3.388   4.258
 2741TIP3   OH2 8186   5.623   5.743   2.680
 2741TIP3    H1 8187   5.584   5.750   2.593
 2741TIP3    H2 8188   5.600   5.655   2.710
 2742TIP3   OH2 8189   4.899   0.301   2.183
 2742TIP3    H1 8190   4.830   0.235   2.174
 2742TIP3    H2 8191   4.973   0.254   2.219
 2743TIP3   OH2 8192   2.758   5.877   2.761
 2743TIP3    H1 8193   2.774   5.924   2.679
 2743TIP3    H2 8194   2.704   5.802   2.736
 2744TIP3   OH2 8195   0.928   6.386   2.338
 2744TIP3    H1 8196   0.905   6.404   2.429
 2744TIP3    H2 8197   0.966   6.468   2.306
 2745TIP3   OH2 8198   2.334   5.597   5.192
 2745TIP3    H1 8199   2.261   5.622   5.247
 2745TIP3    H2 8200   2.313   5.633   5.106
 2746TIP3   OH2 8201   1.440   1.091   5.342
 2746TIP3    H1 8202   1.427   1.136   5.259
 2746TIP3    H2 8203   1.365   1.116   5.396
 2747TIP3   OH2 8204   3.398   4.752   2.045
 2747TIP3    H1 8205   3.460   4.684   2.018
 2747TIP3    H2 8206   3.349   4.711   2.117
 2748TIP3   OH2 8207   1.037   4.841   1.784
 2748TIP3    H1 8208   0.991   4.850   1.701
 2748TIP3    H2 8209   1.022   4.750   1.810
 2749TIP3   OH2 8210   6.960   2.539   1.095
 2749TIP3    H1 8211   6.905   2.507   1.166
 2749TIP3    H2 8212   7.017   2.603   1.136
 2750TIP3   OH2 8213   5.791   5.201   4.489
 2750TIP3    H1 8214   5.696   5.211   4.492
 2750TIP3    H2 8215   5.808   5.153   4.407
 2751TIP3   OH2 8216   6.652   6.781   1.947
 2751TIP3    H1 8217   6.608   6.708   1.903
 2751TIP3    H2 8218   6.644   6.854   1.886
 2752TIP3   OH2 8219   0.516   3.778   4.488
 2752TIP3    H1 8220   0.514   3.688   4.519
 2752TIP3    H2 8221   0.423   3.802   4.479
 2753TIP3   OH2 8222   0.053   0.908   2.126
 2753TIP3    H1 8223   0.144   0.933   2.141
 2753TIP3    H2 8224   0.038   0.836   2.188
 2754TIP3   OH2 8225   3.453   0.033   1.202
 2754TIP3    H1 8226   3.455   0.128   1.193
 2754TIP3    H2 8227   3.414   0.018   1.288
 2755TIP3   OH2 8228   5.254   4.280   2.445
 2755TIP3    H1 8229   5.206   4.299   2.365
 2755TIP3    H2 8230   5.200   4.317   2.515
 2756TIP3   OH2 8231   6.717   5.198   3.812
 2756TIP3    H1 8232   6.671   5.121   3.844
 2756TIP3    H2 8233   6.806   5.190   3.847
 2757TIP3   OH2 8234   6.156   6.778   2.861
 2757TIP3    H1 8235   6.225   6.844   2.866
 2757TIP3    H2 8236   6.146   6.746   2.950
 2758TIP3   OH2 8237   5.362   1.930   3.950
 2758TIP3    H1 8238   5.400   2.011   3.983
 2758TIP3    H2 8239   5.314   1.955   3.872
 2759TIP3   OH2 8240   4.994   5.604   5.581
 2759TIP3    H1 8241   5.030   5.626   5.495
 2759TIP3    H2 8242   4.917   5.551   5.562
 2760TIP3   OH2 8243   3.990   4.847   5.608
 2760TIP3    H1 8244   4.026   4.935   5.621
 2760TIP3    H2 8245   3.896   4.862   5.597
 2761TIP3   OH2 8246   2.230   6.235   3.250
 2761TIP3    H1 8247   2.173   6.277   3.187
 2761TIP3    H2 8248   2.187   6.248   3.335
 2762TIP3   OH2 8249   2.408   6.221   4.934
 2762TIP3    H1 8250   2.465   6.166   4.881
 2762TIP3    H2 8251   2.465   6.290   4.967
 2763TIP3   OH2 8252   3.291   2.751   2.156
 2763TIP3    H1 8253   3.352   2.824   2.148
 2763TIP3    H2 8254   3.219   2.774   2.098
 2764TIP3   OH2 8255   5.658   3.803   2.667
 2764TIP3    H1 8256   5.645   3.889   2.708
 2764TIP3    H2 8257   5.666   3.823   2.573
 2765TIP3   OH2 8258   2.291   3.586   1.836
 2765TIP3    H1 8259   2.272   3.519   1.770
 2765TIP3    H2 8260   2.322   3.536   1.912
 2766TIP3   OH2 8261   4.969   2.579   4.514
 2766TIP3    H1 8262   4.922   2.645   4.565
 2766TIP3    H2 8263   4.945   2.598   4.423
 2767TIP3   OH2 8264   1.376   5.567   2.872
 2767TIP3    H1 8265   1.291   5.539   2.839
 2767TIP3    H2 8266   1.373   5.663   2.867
 2768TIP3   OH2 8267   2.433   1.406   1.723
 2768TIP3    H1 8268   2.520   1.379   1.694
 2768TIP3    H2 8269   2.391   1.326   1.753
 2769TIP3   OH2 8270   0.602   6.236   2.787
 2769TIP3    H1 8271   0.534   6.283   2.740
 2769TIP3    H2 8272   0.678   6.293   2.783
 2770TIP3   OH2 8273   6.223   6.652   3.896
 2770TIP3    H1 8274   6.249   6.560   3.886
 2770TIP3    H2 8275   6.213   6.663   3.990
 2771TIP3   OH2 8276   0.956   4.659   5.611
 2771TIP3    H1 8277   0.938   4.641   5.703
 2771TIP3    H2 8278   1.043   4.621   5.596
 2772TIP3   OH2 8279   5.965   6.551   1.319
 2772TIP3    H1 8280   5.991   6.555   1.411
 2772TIP3    H2 8281   6.043   6.517   1.274
 2773TIP3   OH2 8282   2.687   4.883   4.863
 2773TIP3    H1 8283   2.735   4.965   4.876
 2773TIP3    H2 8284   2.602   4.911   4.827
 2774TIP3   OH2 8285   0.587   4.297   3.459
 2774TIP3    H1 8286   0.644   4.259   3.526
 2774TIP3    H2 8287   0.641   4.364   3.417
 2775TIP3   OH2 8288   4.436   4.443   0.474
 2775TIP3    H1 8289   4.343   4.441   0.497
 2775TIP3    H2 8290   4.480   4.467   0.556
 2776TIP3   OH2 8291   6.510   4.262   0.433
 2776TIP3    H1 8292   6.415   4.250   0.442
 2776TIP3    H2 8293   6.542   4.174   0.411
 2777TIP3   OH2 8294   6.777   2.814   0.857
 2777TIP3    H1 8295   6.777   2.751   0.785
 2777TIP3    H2 8296   6.752   2.763   0.934
 2778TIP3   OH2 8297   5.169   5.084   2.561
 2778TIP3    H1 8298   5.123   5.161   2.527
 2778TIP3    H2 8299   5.234   5.063   2.493
 2779TIP3   OH2 8300   0.577   1.343   4.701
 2779TIP3    H1 8301   0.542   1.344   4.612
 2779TIP3    H2 8302   0.653   1.401   4.698
 2780TIP3   OH2 8303   1.203   0.611   0.376
 2780TIP3    H1 8304   1.236   0.701   0.372
 2780TIP3    H2 8305   1.258   0.562   0.314
 2781TIP3   OH2 8306   5.690   3.509   3.674
 2781TIP3    H1 8307   5.613   3.485   3.726
 2781TIP3    H2 8308   5.739   3.569   3.730
 2782TIP3   OH2 8309   0.406   6.316   3.149
 2782TIP3    H1 8310   0.460   6.300   3.226
 2782TIP3    H2 8311   0.351   6.238   3.142
 2783TIP3   OH2 8312   3.037   4.370   1.394
 2783TIP3    H1 8313   3.027   4.440   1.329
 2783TIP3    H2 8314   2.980   4.300   1.363
 2784TIP3   OH2 8315   6.455   6.486   5.863
 2784TIP3    H1 8316   6.407   6.451   5.788
 2784TIP3    H2 8317   6.514   6.416   5.889
 2785TIP3   OH2 8318   1.572   3.203   2.575
 2785TIP3    H1 8319   1.630   3.218   2.500
 2785TIP3    H2 8320   1.488   3.242   2.549
 2786TIP3   OH2 8321   7.108   4.226   0.291
 2786TIP3    H1 8322   7.147   4.310   0.268
 2786TIP3    H2 8323   7.034   4.248   0.347
 2787TIP3   OH2 8324   5.127   0.915   0.326
 2787TIP3    H1 8325   5.097   0.832   0.289
 2787TIP3    H2 8326   5.061   0.936   0.392
 2788TIP3   OH2 8327   7.251   3.275   0.749
 2788TIP3    H1 8328   7.208   3.190   0.751
 2788TIP3    H2 8329   7.179   3.338   0.747
 2789TIP3   OH2 8330   1.285   5.303   3.853
 2789TIP3    H1 8331   1.209   5.265   3.898
 2789TIP3    H2 8332   1.254   5.387   3.821
 2790TIP3   OH2 8333   5.532   1.981   2.903
 2790TIP3    H1 8334   5.474   2.056   2.901
 2790TIP3    H2 8335   5.547   1.965   2.997
 2791TIP3   OH2 8336   6.325   0.378   5.165
 2791TIP3    H1 8337   6.254   0.442   5.160
 2791TIP3    H2 8338   6.280   0.293   5.168
 2792TIP3   OH2 8339   6.949   4.435   5.052
 2792TIP3    H1 8340   6.906   4.520   5.058
 2792TIP3    H2 8341   6.980   4.417   5.141
 2793TIP3   OH2 8342   5.022   1.593   4.424
 2793TIP3    H1 8343   4.971   1.660   4.469
 2793TIP3    H2 8344   5.099   1.579   4.480
 2794TIP3   OH2 8345   4.878   6.767   3.235
 2794TIP3    H1 8346   4.880   6.673   3.216
 2794TIP3    H2 8347   4.954   6.782   3.292
 2795TIP3   OH2 8348   5.289   1.162   2.238
 2795TIP3    H1 8349   5.332   1.094   2.185
 2795TIP3    H2 8350   5.196   1.147   2.225
 2796TIP3   OH2 8351   2.999   4.682   2.993
 2796TIP3    H1 8352   3.035   4.731   3.067
 2796TIP3    H2 8353   2.911   4.717   2.982
 2797TIP3   OH2 8354   6.287   5.477   3.959
 2797TIP3    H1 8355   6.325   5.562   3.937
 2797TIP3    H2 8356   6.193   5.493   3.962
 2798TIP3   OH2 8357   0.744   3.675   3.207
 2798TIP3    H1 8358   0.728   3.583   3.226
 2798TIP3    H2 8359   0.795   3.707   3.282
 2799TIP3   OH2 8360   0.134   3.811   3.697
 2799TIP3    H1 8361   0.098   3.870   3.631
 2799TIP3    H2 8362   0.155   3.731   3.649
 2800TIP3   OH2 8363   3.921   2.685   5.806
 2800TIP3    H1 8364   3.835   2.718   5.780
 2800TIP3    H2 8365   3.983   2.744   5.764
 2801TIP3   OH2 8366   1.942   4.270   5.178
 2801TIP3    H1 8367   1.976   4.345   5.227
 2801TIP3    H2 8368   1.982   4.194   5.220
 2802TIP3   OH2 8369   0.220   4.380   4.030
 2802TIP3    H1 8370   0.195   4.470   4.050
 2802TIP3    H2 8371   0.245   4.342   4.114
 2803TIP3   OH2 8372   3.301   3.162   1.274
 2803TIP3    H1 8373   3.365   3.121   1.216
 2803TIP3    H2 8374   3.296   3.253   1.243
 2804TIP3   OH2 8375   3.959   2.411   3.450
 2804TIP3    H1 8376   4.030   2.363   3.408
 2804TIP3    H2 8377   3.908   2.447   3.378
 2805TIP3   OH2 8378   5.456   1.952   5.184
 2805TIP3    H1 8379   5.534   1.953   5.129
 2805TIP3    H2 8380   5.485   1.913   5.266
 2806TIP3   OH2 8381   5.393   5.873   0.806
 2806TIP3    H1 8382   5.421   5.814   0.876
 2806TIP3    H2 8383   5.453   5.947   0.812
 2807TIP3   OH2 8384   3.995   2.422   1.588
 2807TIP3    H1 8385   4.071   2.405   1.644
 2807TIP3    H2 8386   3.922   2.380   1.634
 2808TIP3   OH2 8387   1.553   2.496   5.611
 2808TIP3    H1 8388   1.521   2.406   5.605
 2808TIP3    H2 8389   1.636   2.495   5.564
 2809TIP3   OH2 8390   6.795   3.599   3.869
 2809TIP3    H1 8391   6.786   3.511   3.831
 2809TIP3    H2 8392   6.890   3.610   3.880
 2810TIP3   OH2 8393   3.754   1.986   2.667
 2810TIP3    H1 8394   3.683   1.922   2.676
 2810TIP3    H2 8395   3.752   2.012   2.575
 2811TIP3   OH2 8396   0.253   5.302   1.223
 2811TIP3    H1 8397   0.279   5.388   1.259
 2811TIP3    H2 8398   0.163   5.290   1.253
 2812TIP3   OH2 8399   2.654   2.120   4.213
 2812TIP3    H1 8400   2.610   2.098   4.131
 2812TIP3    H2 8401   2.699   2.203   4.194
 2813TIP3   OH2 8402   1.111   2.853   4.858
 2813TIP3    H1 8403   1.081   2.791   4.924
 2813TIP3    H2 8404   1.072   2.936   4.883
 2814TIP3   OH2 8405   3.142   0.529   4.794
 2814TIP3    H1 8406   3.130   0.567   4.881
 2814TIP3    H2 8407   3.164   0.605   4.739
 2815TIP3   OH2 8408   0.970   3.345   4.921
 2815TIP3    H1 8409   0.915   3.390   4.857
 2815TIP3    H2 8410   1.033   3.412   4.949
 2816TIP3   OH2 8411   1.385   2.483   1.657
 2816TIP3    H1 8412   1.385   2.566   1.705
 2816TIP3    H2 8413   1.478   2.467   1.639
 2817TIP3   OH2 8414   0.256   1.832   2.391
 2817TIP3    H1 8415   0.250   1.811   2.298
 2817TIP3    H2 8416   0.326   1.777   2.424
 2818TIP3   OH2 8417   7.073   5.626   4.225
 2818TIP3    H1 8418   7.119   5.544   4.245
 2818TIP3    H2 8419   7.141   5.693   4.226
 2819TIP3   OH2 8420   2.910   6.116   2.826
 2819TIP3    H1 8421   2.841   6.056   2.796
 2819TIP3    H2 8422   2.988   6.087   2.780
 2820TIP3   OH2 8423   1.410   0.133   1.786
 2820TIP3    H1 8424   1.386   0.158   1.875
 2820TIP3    H2 8425   1.339   0.168   1.731
 2821TIP3   OH2 8426   4.071   1.659   1.892
 2821TIP3    H1 8427   4.154   1.691   1.857
 2821TIP3    H2 8428   4.008   1.670   1.820
 2822TIP3   OH2 8429   3.694   5.703   3.579
 2822TIP3    H1 8430   3.780   5.693   3.537
 2822TIP3    H2 8431   3.631   5.680   3.510
 2823TIP3   OH2 8432   5.181   3.985   0.013
 2823TIP3    H1 8433   5.122   3.914  -0.008
 2823TIP3    H2 8434   5.139   4.063  -0.022
 2824TIP3   OH2 8435   6.223   4.150   0.493
 2824TIP3    H1 8436   6.148   4.102   0.528
 2824TIP3    H2 8437   6.185   4.226   0.449
 2825TIP3   OH2 8438   7.075   5.907   0.994
 2825TIP3    H1 8439   7.088   5.906   1.088
 2825TIP3    H2 8440   7.010   5.838   0.978
 2826TIP3   OH2 8441   6.589   2.862   3.062
 2826TIP3    H1 8442   6.500   2.889   3.039
 2826TIP3    H2 8443   6.642   2.941   3.053
 2827TIP3   OH2 8444   5.058   1.220   2.568
 2827TIP3    H1 8445   5.067   1.186   2.657
 2827TIP3    H2 8446   5.074   1.144   2.512
 2828TIP3   OH2 8447   5.969   3.457   5.615
 2828TIP3    H1 8448   5.874   3.461   5.613
 2828TIP3    H2 8449   5.997   3.509   5.539
 2829TIP3   OH2 8450   5.913   5.617   5.353
 2829TIP3    H1 8451   5.953   5.701   5.333
 2829TIP3    H2 8452   5.943   5.596   5.441
 2830TIP3   OH2 8453   0.559   3.731   0.757
 2830TIP3    H1 8454   0.523   3.658   0.705
 2830TIP3    H2 8455   0.607   3.688   0.828
 2831TIP3   OH2 8456   6.101   1.285   2.963
 2831TIP3    H1 8457   6.147   1.315   2.884
 2831TIP3    H2 8458   6.015   1.257   2.930
 2832TIP3   OH2 8459   2.462   3.131   0.815
 2832TIP3    H1 8460   2.492   3.048   0.778
 2832TIP3    H2 8461   2.531   3.157   0.876
 2833TIP3   OH2 8462   4.647   1.882   1.487
 2833TIP3    H1 8463   4.585   1.912   1.421
 2833TIP3    H2 8464   4.597   1.878   1.568
 2834TIP3   OH2 8465   1.665   4.085   3.017
 2834TIP3    H1 8466   1.737   4.067   3.079
 2834TIP3    H2 8467   1.693   4.164   2.971
 2835TIP3   OH2 8468   6.607   6.095   2.592
 2835TIP3    H1 8469   6.522   6.124   2.626
 2835TIP3    H2 8470   6.670   6.157   2.629
 2836TIP3   OH2 8471   3.770   3.198   0.307
 2836TIP3    H1 8472   3.710   3.124   0.314
 2836TIP3    H2 8473   3.729   3.267   0.360
 2837TIP3   OH2 8474   1.386   5.536   0.333
 2837TIP3    H1 8475   1.391   5.632   0.334
 2837TIP3    H2 8476   1.364   5.515   0.242
 2838TIP3   OH2 8477   4.261   2.350   3.427
 2838TIP3    H1 8478   4.308   2.398   3.495
 2838TIP3    H2 8479   4.221   2.418   3.373
 2839TIP3   OH2 8480   4.062   2.731   3.717
 2839TIP3    H1 8481   4.080   2.755   3.808
 2839TIP3    H2 8482   4.007   2.802   3.684
 2840TIP3   OH2 8483   3.129   3.895   2.581
 2840TIP3    H1 8484   3.184   3.822   2.608
 2840TIP3    H2 8485   3.137   3.899   2.486
 2841TIP3   OH2 8486   6.971   2.992   3.079
 2841TIP3    H1 8487   6.996   3.046   3.155
 2841TIP3    H2 8488   7.047   2.936   3.064
 2842TIP3   OH2 8489   0.828   1.276   5.056
 2842TIP3    H1 8490   0.785   1.313   5.133
 2842TIP3    H2 8491   0.812   1.339   4.986
 2843TIP3   OH2 8492   0.686   5.884   4.254
 2843TIP3    H1 8493   0.760   5.884   4.314
 2843TIP3    H2 8494   0.679   5.792   4.225
 2844TIP3   OH2 8495   6.199   6.268   4.354
 2844TIP3    H1 8496   6.295   6.273   4.356
 2844TIP3    H2 8497   6.181   6.178   4.327
 2845TIP3   OH2 8498   3.913   1.524   1.433
 2845TIP3    H1 8499   3.856   1.522   1.356
 2845TIP3    H2 8500   3.926   1.432   1.455
 2846TIP3   OH2 8501   2.058   1.510   3.631
 2846TIP3    H1 8502   2.012   1.427   3.623
 2846TIP3    H2 8503   2.035   1.542   3.719
 2847TIP3   OH2 8504   2.521   0.094   0.049
 2847TIP3    H1 8505   2.579   0.154   0.002
 2847TIP3    H2 8506   2.481   0.040  -0.020
 2848TIP3   OH2 8507   4.014   0.612   5.798
 2848TIP3    H1 8508   4.093   0.573   5.836
 2848TIP3    H2 8509   4.039   0.632   5.708
 2849TIP3   OH2 8510   5.371   4.236   0.916
 2849TIP3    H1 8511   5.322   4.267   0.992
 2849TIP3    H2 8512   5.303   4.207   0.854
 2850TIP3   OH2 8513   1.717   3.709   0.935
 2850TIP3    H1 8514   1.810   3.688   0.926
 2850TIP3    H2 8515   1.674   3.624   0.938
 2851TIP3   OH2 8516   3.766   1.511   4.481
 2851TIP3    H1 8517   3.739   1.532   4.570
 2851TIP3    H2 8518   3.746   1.590   4.430
 2852TIP3   OH2 8519   1.648   5.209   2.000
 2852TIP3    H1 8520   1.683   5.229   1.913
 2852TIP3    H2 8521   1.553   5.212   1.989
 2853TIP3   OH2 8522   2.275   1.233   2.592
 2853TIP3    H1 8523   2.311   1.302   2.647
 2853TIP3    H2 8524   2.351   1.181   2.566
 2854TIP3   OH2 8525   1.598   6.231   4.934
 2854TIP3    H1 8526   1.681   6.212   4.977
 2854TIP3    H2 8527   1.619   6.299   4.870
 2855TIP3   OH2 8528   6.770   3.591   1.560
 2855TIP3    H1 8529   6.766   3.498   1.539
 2855TIP3    H2 8530   6.737   3.636   1.482
 2856TIP3   OH2 8531   0.756   6.525   0.686
 2856TIP3    H1 8532   0.742   6.500   0.777
 2856TIP3    H2 8533   0.803   6.608   0.691
 2857TIP3   OH2 8534   1.624   5.805   0.993
 2857TIP3    H1 8535   1.577   5.736   1.041
 2857TIP3    H2 8536   1.717   5.781   1.002
 2858TIP3   OH2 8537   0.290   1.138   1.964
 2858TIP3    H1 8538   0.211   1.084   1.973
 2858TIP3    H2 8539   0.263   1.209   1.906
 2859TIP3   OH2 8540   2.403   1.741   2.786
 2859TIP3    H1 8541   2.437   1.763   2.873
 2859TIP3    H2 8542   2.315   1.778   2.785
 2860TIP3   OH2 8543   2.181   3.028   2.837
 2860TIP3    H1 8544   2.213   3.076   2.761
 2860TIP3    H2 8545   2.231   2.947   2.839
 2861TIP3   OH2 8546   2.659   1.392   2.935
 2861TIP3    H1 8547   2.692   1.409   2.847
 2861TIP3    H2 8548   2.738   1.378   2.987
 2862TIP3   OH2 8549   3.707   1.972   3.933
 2862TIP3    H1 8550   3.637   1.989   3.996
 2862TIP3    H2 8551   3.776   1.931   3.985
 2863TIP3   OH2 8552   2.870   4.273   3.881
 2863TIP3    H1 8553   2.921   4.350   3.858
 2863TIP3    H2 8554   2.790   4.307   3.921
 2864TIP3   OH2 8555   0.095   1.589   5.343
 2864TIP3    H1 8556   0.068   1.514   5.290
 2864TIP3    H2 8557   0.037   1.660   5.315
 2865TIP3   OH2 8558   1.304   1.540   0.994
 2865TIP3    H1 8559   1.220   1.578   1.019
 2865TIP3    H2 8560   1.313   1.463   1.050
 2866TIP3   OH2 8561   6.010   1.356   4.103
 2866TIP3    H1 8562   5.992   1.362   4.010
 2866TIP3    H2 8563   5.929   1.387   4.145
 2867TIP3   OH2 8564   3.353   1.872   4.029
 2867TIP3    H1 8565   3.323   1.913   4.111
 2867TIP3    H2 8566   3.291   1.902   3.963
 2868TIP3   OH2 8567   3.572   1.749   4.573
 2868TIP3    H1 8568   3.500   1.700   4.533
 2868TIP3    H2 8569   3.581   1.827   4.518
 2869TIP3   OH2 8570   1.556   0.462   2.186
 2869TIP3    H1 8571   1.637   0.483   2.231
 2869TIP3    H2 8572   1.527   0.379   2.225
 2870TIP3   OH2 8573   6.989   3.107   2.802
 2870TIP3    H1 8574   7.012   3.044   2.870
 2870TIP3    H2 8575   6.920   3.063   2.751
 2871TIP3   OH2 8576   0.520   2.935   1.653
 2871TIP3    H1 8577   0.556   2.989   1.583
 2871TIP3    H2 8578   0.572   2.855   1.650
 2872TIP3   OH2 8579   0.602   1.459   2.968
 2872TIP3    H1 8580   0.639   1.541   2.935
 2872TIP3    H2 8581   0.631   1.455   3.059
 2873TIP3   OH2 8582   5.874   1.440   3.425
 2873TIP3    H1 8583   5.931   1.424   3.349
 2873TIP3    H2 8584   5.839   1.354   3.448
 2874TIP3   OH2 8585   2.080   4.671   2.069
 2874TIP3    H1 8586   2.060   4.688   1.977
 2874TIP3    H2 8587   2.165   4.715   2.083
 2875TIP3   OH2 8588   1.013   5.129   1.271
 2875TIP3    H1 8589   0.984   5.177   1.348
 2875TIP3    H2 8590   0.976   5.176   1.197
 2876TIP3   OH2 8591   0.994   3.605   1.841
 2876TIP3    H1 8592   0.916   3.651   1.872
 2876TIP3    H2 8593   0.976   3.513   1.860
 2877TIP3   OH2 8594   5.275   0.243   4.471
 2877TIP3    H1 8595   5.329   0.210   4.543
 2877TIP3    H2 8596   5.311   0.330   4.452
 2878TIP3   OH2 8597   4.630   0.348   3.085
 2878TIP3    H1 8598   4.592   0.265   3.055
 2878TIP3    H2 8599   4.586   0.415   3.033
 2879TIP3   OH2 8600   0.148   0.610   1.727
 2879TIP3    H1 8601   0.184   0.626   1.814
 2879TIP3    H2 8602   0.123   0.697   1.695
 2880TIP3   OH2 8603   3.142   3.812   3.669
 2880TIP3    H1 8604   3.169   3.820   3.577
 2880TIP3    H2 8605   3.217   3.844   3.719
 2881TIP3   OH2 8606   6.444   3.297   4.105
 2881TIP3    H1 8607   6.538   3.279   4.096
 2881TIP3    H2 8608   6.424   3.354   4.031
 2882TIP3   OH2 8609   1.610   1.734   3.963
 2882TIP3    H1 8610   1.549   1.660   3.969
 2882TIP3    H2 8611   1.555   1.807   3.935
 2883TIP3   OH2 8612   3.263   4.456   3.334
 2883TIP3    H1 8613   3.269   4.371   3.376
 2883TIP3    H2 8614   3.211   4.509   3.394
 2884TIP3   OH2 8615   1.311   5.011   4.231
 2884TIP3    H1 8616   1.289   4.993   4.140
 2884TIP3    H2 8617   1.346   5.100   4.230
 2885TIP3   OH2 8618   5.083   3.644   5.134
 2885TIP3    H1 8619   5.046   3.678   5.053
 2885TIP3    H2 8620   5.042   3.696   5.203
 2886TIP3   OH2 8621   4.542   4.902   4.740
 2886TIP3    H1 8622   4.537   4.808   4.757
 2886TIP3    H2 8623   4.565   4.940   4.825
 2887TIP3   OH2 8624   0.120   4.188   3.381
 2887TIP3    H1 8625   0.091   4.230   3.299
 2887TIP3    H2 8626   0.189   4.245   3.414
 2888TIP3   OH2 8627   6.428   1.979   0.443
 2888TIP3    H1 8628   6.392   1.891   0.452
 2888TIP3    H2 8629   6.377   2.019   0.373
 2889TIP3   OH2 8630   4.369   4.817   2.080
 2889TIP3    H1 8631   4.307   4.752   2.114
 2889TIP3    H2 8632   4.436   4.824   2.148
 2890TIP3   OH2 8633   4.063   2.257   4.988
 2890TIP3    H1 8634   4.012   2.218   4.917
 2890TIP3    H2 8635   4.023   2.224   5.068
 2891TIP3   OH2 8636   1.311   1.901   4.124
 2891TIP3    H1 8637   1.227   1.879   4.164
 2891TIP3    H2 8638   1.369   1.915   4.199
 2892TIP3   OH2 8639   6.117   2.076   1.987
 2892TIP3    H1 8640   6.172   2.149   1.958
 2892TIP3    H2 8641   6.029   2.099   1.957
 2893TIP3   OH2 8642   1.094   5.582   5.071
 2893TIP3    H1 8643   1.149   5.634   5.012
 2893TIP3    H2 8644   1.035   5.533   5.012
 2894TIP3   OH2 8645   4.052   5.261   3.029
 2894TIP3    H1 8646   4.120   5.303   3.082
 2894TIP3    H2 8647   4.016   5.193   3.086
 2895TIP3   OH2 8648   3.573   5.020   0.559
 2895TIP3    H1 8649   3.567   5.086   0.629
 2895TIP3    H2 8650   3.667   4.998   0.556
 2896TIP3   OH2 8651   5.518   1.341   5.557
 2896TIP3    H1 8652   5.442   1.326   5.614
 2896TIP3    H2 8653   5.485   1.327   5.469
 2897TIP3   OH2 8654   4.430   4.081   2.162
 2897TIP3    H1 8655   4.345   4.042   2.184
 2897TIP3    H2 8656   4.441   4.061   2.069
 2898TIP3   OH2 8657   1.406   4.412   2.673
 2898TIP3    H1 8658   1.466   4.351   2.632
 2898TIP3    H2 8659   1.400   4.485   2.612
 2899TIP3   OH2 8660   6.538   3.671   4.376
 2899TIP3    H1 8661   6.572   3.657   4.288
 2899TIP3    H2 8662   6.504   3.760   4.375
 2900TIP3   OH2 8663   5.125   4.900   5.023
 2900TIP3    H1 8664   5.099   4.821   5.071
 2900TIP3    H2 8665   5.059   4.910   4.955
 2901TIP3   OH2 8666   1.368   0.412   1.862
 2901TIP3    H1 8667   1.400   0.420   1.952
 2901TIP3    H2 8668   1.280   0.375   1.871
 2902TIP3   OH2 8669   5.802   4.050   5.105
 2902TIP3    H1 8670   5.847   3.985   5.159
 2902TIP3    H2 8671   5.844   4.133   5.127
 2903TIP3   OH2 8672   0.423   0.283   4.493
 2903TIP3    H1 8673   0.444   0.372   4.463
 2903TIP3    H2 8674   0.476   0.272   4.572
 2904TIP3   OH2 8675   0.074   2.907   0.883
 2904TIP3    H1 8676  -0.007   2.860   0.900
 2904TIP3    H2 8677   0.078   2.974   0.952
 2905TIP3   OH2 8678   1.336   5.898   1.372
 2905TIP3    H1 8679   1.394   5.822   1.364
 2905TIP3    H2 8680   1.280   5.878   1.447
 2906TIP3   OH2 8681   3.017   3.666   2.230
 2906TIP3    H1 8682   3.009   3.688   2.137
 2906TIP3    H2 8683   3.009   3.750   2.275
 2907TIP3   OH2 8684   2.250   5.477   5.598
 2907TIP3    H1 8685   2.292   5.507   5.679
 2907TIP3    H2 8686   2.282   5.388   5.586
 2908TIP3   OH2 8687   2.498   1.852   4.655
 2908TIP3    H1 8688   2.474   1.939   4.624
 2908TIP3    H2 8689   2.506   1.800   4.575
 2909TIP3   OH2 8690   4.737   1.002   1.598
 2909TIP3    H1 8691   4.692   1.053   1.530
 2909TIP3    H2 8692   4.785   0.935   1.549
 2910TIP3   OH2 8693   2.868   4.807   5.798
 2910TIP3    H1 8694   2.824   4.773   5.876
 2910TIP3    H2 8695   2.961   4.794   5.816
 2911TIP3   OH2 8696   6.696   6.358   1.854
 2911TIP3    H1 8697   6.711   6.381   1.946
 2911TIP3    H2 8698   6.601   6.349   1.848
 2912TIP3   OH2 8699   0.861   1.661   2.319
 2912TIP3    H1 8700   0.785   1.627   2.271
 2912TIP3    H2 8701   0.929   1.673   2.252
 2913TIP3   OH2 8702   1.487   5.007   0.648
 2913TIP3    H1 8703   1.451   5.094   0.635
 2913TIP3    H2 8704   1.497   4.972   0.559
 2914TIP3   OH2 8705   3.390   3.531   0.846
 2914TIP3    H1 8706   3.424   3.553   0.759
 2914TIP3    H2 8707   3.468   3.510   0.898
 2915TIP3   OH2 8708   1.613   4.149   0.435
 2915TIP3    H1 8709   1.544   4.107   0.487
 2915TIP3    H2 8710   1.690   4.149   0.492
 2916TIP3   OH2 8711   2.900   1.260   3.074
 2916TIP3    H1 8712   2.917   1.170   3.102
 2916TIP3    H2 8713   2.920   1.260   2.980
 2917TIP3   OH2 8714   2.583   3.490   1.821
 2917TIP3    H1 8715   2.664   3.443   1.800
 2917TIP3    H2 8716   2.543   3.507   1.735
 2918TIP3   OH2 8717   2.056   6.351   5.480
 2918TIP3    H1 8718   2.142   6.314   5.497
 2918TIP3    H2 8719   2.043   6.415   5.550
 2919TIP3   OH2 8720   1.955   0.157   3.318
 2919TIP3    H1 8721   1.973   0.063   3.305
 2919TIP3    H2 8722   2.041   0.194   3.339
 2920TIP3   OH2 8723   2.251   2.423   2.627
 2920TIP3    H1 8724   2.274   2.473   2.706
 2920TIP3    H2 8725   2.214   2.341   2.660
 2921TIP3   OH2 8726   7.001   1.715   4.034
 2921TIP3    H1 8727   7.065   1.725   3.964
 2921TIP3    H2 8728   7.005   1.797   4.082
 2922TIP3   OH2 8729   2.997   4.837   1.328
 2922TIP3    H1 8730   2.921   4.793   1.365
 2922TIP3    H2 8731   3.050   4.862   1.404
 2923TIP3   OH2 8732   2.495   5.904   1.104
 2923TIP3    H1 8733   2.429   5.843   1.070
 2923TIP3    H2 8734   2.579   5.867   1.076
 2924TIP3   OH2 8735   4.856   6.392   1.742
 2924TIP3    H1 8736   4.930   6.395   1.804
 2924TIP3    H2 8737   4.874   6.316   1.687
 2925TIP3   OH2 8738   0.205   6.214   0.974
 2925TIP3    H1 8739   0.204   6.159   1.053
 2925TIP3    H2 8740   0.113   6.227   0.953
 2926TIP3   OH2 8741   3.034   3.802   1.104
 2926TIP3    H1 8742   2.984   3.879   1.076
 2926TIP3    H2 8743   3.126   3.828   1.093
 2927TIP3   OH2 8744   2.382   6.330   2.907
 2927TIP3    H1 8745   2.303   6.307   2.955
 2927TIP3    H2 8746   2.359   6.410   2.861
 2928TIP3   OH2 8747   3.738   4.555   2.985
 2928TIP3    H1 8748   3.766   4.602   3.064
 2928TIP3    H2 8749   3.817   4.552   2.931
 2929TIP3   OH2 8750   0.415   1.001   3.277
 2929TIP3    H1 8751   0.487   1.062   3.268
 2929TIP3    H2 8752   0.420   0.946   3.198
 2930TIP3   OH2 8753   4.913   2.648   5.272
 2930TIP3    H1 8754   4.822   2.622   5.256
 2930TIP3    H2 8755   4.913   2.685   5.360
 2931TIP3   OH2 8756   4.386   0.461   2.327
 2931TIP3    H1 8757   4.434   0.437   2.248
 2931TIP3    H2 8758   4.301   0.417   2.318
 2932TIP3   OH2 8759   2.370   4.936   2.607
 2932TIP3    H1 8760   2.377   5.029   2.587
 2932TIP3    H2 8761   2.430   4.893   2.546
 2933TIP3   OH2 8762   6.595   1.836   1.734
 2933TIP3    H1 8763   6.625   1.862   1.821
 2933TIP3    H2 8764   6.591   1.741   1.737
 2934TIP3   OH2 8765   4.787   3.020   5.429
 2934TIP3    H1 8766   4.790   2.933   5.468
 2934TIP3    H2 8767   4.734   3.072   5.490
 2935TIP3   OH2 8768   6.288   1.926   3.040
 2935TIP3    H1 8769   6.277   2.020   3.046
 2935TIP3    H2 8770   6.367   1.914   2.988
 2936TIP3   OH2 8771   0.205   5.876   3.560
 2936TIP3    H1 8772   0.165   5.877   3.473
 2936TIP3    H2 8773   0.299   5.865   3.544
 2937TIP3   OH2 8774   0.242   1.511   1.963
 2937TIP3    H1 8775   0.208   1.497   2.051
 2937TIP3    H2 8776   0.164   1.524   1.909
 2938TIP3   OH2 8777   4.733   4.316   2.718
 2938TIP3    H1 8778   4.691   4.314   2.804
 2938TIP3    H2 8779   4.659   4.315   2.656
 2939TIP3   OH2 8780   1.546   4.685   5.080
 2939TIP3    H1 8781   1.495   4.726   5.010
 2939TIP3    H2 8782   1.601   4.756   5.113
 2940TIP3   OH2 8783   1.625   4.291   2.560
 2940TIP3    H1 8784   1.710   4.316   2.525
 2940TIP3    H2 8785   1.596   4.218   2.505
 2941TIP3   OH2 8786   5.395   4.841   4.120
 2941TIP3    H1 8787   5.434   4.758   4.148
 2941TIP3    H2 8788   5.470   4.902   4.115
 2942TIP3   OH2 8789   6.894   6.523   5.369
 2942TIP3    H1 8790   6.802   6.531   5.344
 2942TIP3    H2 8791   6.892   6.497   5.461
 2943TIP3   OH2 8792   2.103   6.301   2.265
 2943TIP3    H1 8793   2.025   6.271   2.313
 2943TIP3    H2 8794   2.151   6.221   2.246
 2944TIP3   OH2 8795   6.199   5.700   5.689
 2944TIP3    H1 8796   6.196   5.645   5.767
 2944TIP3    H2 8797   6.221   5.787   5.723
 2945TIP3   OH2 8798   0.072   5.392   0.150
 2945TIP3    H1 8799  -0.018   5.396   0.184
 2945TIP3    H2 8800   0.062   5.401   0.056
 2946TIP3   OH2 8801   2.438   3.790   1.704
 2946TIP3    H1 8802   2.456   3.730   1.631
 2946TIP3    H2 8803   2.377   3.741   1.760
 2947TIP3   OH2 8804   1.569   3.666   4.585
 2947TIP3    H1 8805   1.594   3.597   4.647
 2947TIP3    H2 8806   1.473   3.670   4.592
 2948TIP3   OH2 8807   3.435   4.846   4.247
 2948TIP3    H1 8808   3.369   4.914   4.259
 2948TIP3    H2 8809   3.505   4.888   4.198
 2949TIP3   OH2 8810   2.173   0.486   1.435
 2949TIP3    H1 8811   2.243   0.423   1.451
 2949TIP3    H2 8812   2.093   0.439   1.455
 2950TIP3   OH2 8813   5.449   6.303   0.646
 2950TIP3    H1 8814   5.357   6.297   0.622
 2950TIP3    H2 8815   5.473   6.393   0.627
 2951TIP3   OH2 8816   1.087   5.220   2.558
 2951TIP3    H1 8817   1.078   5.312   2.534
 2951TIP3    H2 8818   1.090   5.221   2.654
 2952TIP3   OH2 8819   2.851   4.699   4.776
 2952TIP3    H1 8820   2.916   4.742   4.719
 2952TIP3    H2 8821   2.802   4.771   4.814
 2953TIP3   OH2 8822   1.386   0.774   4.337
 2953TIP3    H1 8823   1.479   0.756   4.350
 2953TIP3    H2 8824   1.343   0.733   4.411
 2954TIP3   OH2 8825   5.489   2.263   5.340
 2954TIP3    H1 8826   5.397   2.244   5.323
 2954TIP3    H2 8827   5.493   2.280   5.434
 2955TIP3   OH2 8828   2.680   3.592   5.292
 2955TIP3    H1 8829   2.706   3.683   5.273
 2955TIP3    H2 8830   2.598   3.601   5.342
 2956TIP3   OH2 8831   3.742   4.521   1.344
 2956TIP3    H1 8832   3.710   4.596   1.294
 2956TIP3    H2 8833   3.788   4.467   1.279
 2957TIP3   OH2 8834   3.354   0.210   4.008
 2957TIP3    H1 8835   3.359   0.129   3.956
 2957TIP3    H2 8836   3.433   0.258   3.985
 2958TIP3   OH2 8837   1.490   1.887   1.733
 2958TIP3    H1 8838   1.530   1.807   1.699
 2958TIP3    H2 8839   1.535   1.958   1.688
 2959TIP3   OH2 8840   4.074   6.234   3.303
 2959TIP3    H1 8841   4.001   6.295   3.315
 2959TIP3    H2 8842   4.065   6.202   3.214
 2960TIP3   OH2 8843   3.519   5.462   1.695
 2960TIP3    H1 8844   3.608   5.433   1.714
 2960TIP3    H2 8845   3.492   5.410   1.620
 2961TIP3   OH2 8846   0.634   0.433   2.123
 2961TIP3    H1 8847   0.590   0.434   2.037
 2961TIP3    H2 8848   0.640   0.340   2.146
 2962TIP3   OH2 8849   0.272   0.201   1.101
 2962TIP3    H1 8850   0.183   0.232   1.119
 2962TIP3    H2 8851   0.328   0.261   1.151
 2963TIP3   OH2 8852   1.477   2.579   2.636
 2963TIP3    H1 8853   1.477   2.495   2.681
 2963TIP3    H2 8854   1.513   2.641   2.700
 2964TIP3   OH2 8855   5.884   2.470   0.060
 2964TIP3    H1 8856   5.878   2.461   0.155
 2964TIP3    H2 8857   5.976   2.490   0.044
 2965TIP3   OH2 8858   3.599   0.131   1.826
 2965TIP3    H1 8859   3.648   0.066   1.876
 2965TIP3    H2 8860   3.518   0.087   1.802
 2966TIP3   OH2 8861   1.987   2.439   0.842
 2966TIP3    H1 8862   2.008   2.533   0.847
 2966TIP3    H2 8863   2.072   2.395   0.849
 2967TIP3   OH2 8864   0.766   0.129   4.564
 2967TIP3    H1 8865   0.809   0.046   4.542
 2967TIP3    H2 8866   0.752   0.172   4.480
 2968TIP3   OH2 8867   4.218   5.447   3.588
 2968TIP3    H1 8868   4.281   5.395   3.639
 2968TIP3    H2 8869   4.212   5.530   3.635
 2969TIP3   OH2 8870   5.580   3.059   4.458
 2969TIP3    H1 8871   5.560   3.016   4.541
 2969TIP3    H2 8872   5.673   3.041   4.443
 2970TIP3   OH2 8873   1.151   4.361   1.146
 2970TIP3    H1 8874   1.067   4.331   1.112
 2970TIP3    H2 8875   1.214   4.341   1.077
 2971TIP3   OH2 8876   4.141   5.510   1.985
 2971TIP3    H1 8877   4.183   5.439   2.033
 2971TIP3    H2 8878   4.131   5.476   1.896
 2972TIP3   OH2 8879   6.030   1.394   1.683
 2972TIP3    H1 8880   6.009   1.302   1.700
 2972TIP3    H2 8881   6.123   1.394   1.662
 2973TIP3   OH2 8882   4.344   4.280   0.008
 2973TIP3    H1 8883   4.318   4.212   0.070
 2973TIP3    H2 8884   4.367   4.355   0.063
 2974TIP3   OH2 8885   6.018   2.389   2.844
 2974TIP3    H1 8886   5.943   2.400   2.785
 2974TIP3    H2 8887   6.039   2.296   2.838
 2975TIP3   OH2 8888   6.338   3.662   4.970
 2975TIP3    H1 8889   6.370   3.578   5.003
 2975TIP3    H2 8890   6.371   3.726   5.032
 2976TIP3   OH2 8891   1.798   4.209   0.636
 2976TIP3    H1 8892   1.809   4.145   0.706
 2976TIP3    H2 8893   1.768   4.288   0.680
 2977TIP3   OH2 8894   1.950   4.551   3.988
 2977TIP3    H1 8895   1.996   4.581   3.909
 2977TIP3    H2 8896   1.979   4.461   3.999
 2978TIP3   OH2 8897   3.386   5.111   0.072
 2978TIP3    H1 8898   3.446   5.125  -0.001
 2978TIP3    H2 8899   3.413   5.174   0.139
 2979TIP3   OH2 8900   6.637   4.333   3.007
 2979TIP3    H1 8901   6.644   4.426   3.030
 2979TIP3    H2 8902   6.669   4.328   2.917
 2980TIP3   OH2 8903   3.509   5.708   0.110
 2980TIP3    H1 8904   3.538   5.699   0.019
 2980TIP3    H2 8905   3.555   5.638   0.157
 2981TIP3   OH2 8906   0.403   6.017   0.485
 2981TIP3    H1 8907   0.344   6.034   0.559
 2981TIP3    H2 8908   0.488   6.049   0.514
 2982TIP3   OH2 8909   2.651   2.961   3.662
 2982TIP3    H1 8910   2.682   2.872   3.676
 2982TIP3    H2 8911   2.705   2.995   3.591
 2983TIP3   OH2 8912   0.959   0.784   0.279
 2983TIP3    H1 8913   0.892   0.845   0.308
 2983TIP3    H2 8914   1.030   0.793   0.343
 2984TIP3   OH2 8915   5.883   4.832   1.543
 2984TIP3    H1 8916   5.949   4.854   1.608
 2984TIP3    H2 8917   5.807   4.803   1.594
 2985TIP3   OH2 8918   7.090   6.529   2.847
 2985TIP3    H1 8919   7.091   6.582   2.927
 2985TIP3    H2 8920   7.168   6.557   2.799
 2986TIP3   OH2 8921   5.097   0.202   4.053
 2986TIP3    H1 8922   5.061   0.287   4.080
 2986TIP3    H2 8923   5.177   0.225   4.006
 2987TIP3   OH2 8924   0.257   1.643   4.703
 2987TIP3    H1 8925   0.301   1.623   4.621
 2987TIP3    H2 8926   0.164   1.637   4.683
 2988TIP3   OH2 8927   6.486   0.389   3.234
 2988TIP3    H1 8928   6.405   0.428   3.199
 2988TIP3    H2 8929   6.538   0.464   3.262
 2989TIP3   OH2 8930   4.369   0.845   1.045
 2989TIP3    H1 8931   4.368   0.752   1.022
 2989TIP3    H2 8932   4.284   0.860   1.085
 2990TIP3   OH2 8933   1.151   2.577   0.793
 2990TIP3    H1 8934   1.155   2.484   0.816
 2990TIP3    H2 8935   1.236   2.612   0.818
 2991TIP3   OH2 8936   6.765   2.976   4.086
 2991TIP3    H1 8937   6.776   3.029   4.007
 2991TIP3    H2 8938   6.848   2.930   4.095
 2992TIP3   OH2 8939   5.471   3.822   0.584
 2992TIP3    H1 8940   5.381   3.800   0.561
 2992TIP3    H2 8941   5.504   3.870   0.509
 2993TIP3   OH2 8942   2.409   5.167   4.389
 2993TIP3    H1 8943   2.423   5.247   4.338
 2993TIP3    H2 8944   2.362   5.108   4.329
 2994TIP3   OH2 8945   3.402   5.657   3.018
 2994TIP3    H1 8946   3.329   5.676   3.076
 2994TIP3    H2 8947   3.480   5.682   3.068
 2995TIP3   OH2 8948   3.331   3.830   4.385
 2995TIP3    H1 8949   3.308   3.755   4.440
 2995TIP3    H2 8950   3.317   3.906   4.441
 2996TIP3   OH2 8951   4.383   6.440   2.663
 2996TIP3    H1 8952   4.353   6.527   2.637
 2996TIP3    H2 8953   4.323   6.413   2.733
 2997TIP3   OH2 8954   5.430   3.449   2.075
 2997TIP3    H1 8955   5.446   3.374   2.133
 2997TIP3    H2 8956   5.339   3.475   2.094
 2998TIP3   OH2 8957   6.584   4.483   1.983
 2998TIP3    H1 8958   6.552   4.468   1.895
 2998TIP3    H2 8959   6.655   4.420   1.994
 2999TIP3   OH2 8960   3.792   2.658   2.315
 2999TIP3    H1 8961   3.859   2.680   2.250
 2999TIP3    H2 8962   3.718   2.715   2.294
 3000TIP3   OH2 8963   4.094   1.030   1.574
 3000TIP3    H1 8964   4.104   0.953   1.630
 3000TIP3    H2 8965   4.164   1.022   1.509
 3001TIP3   OH2 8966   5.592   2.267   2.120
 3001TIP3    H1 8967   5.592   2.208   2.195
 3001TIP3    H2 8968   5.510   2.249   2.075
 3002TIP3   OH2 8969   3.139   2.833   2.442
 3002TIP3    H1 8970   3.174   2.747   2.424
 3002TIP3    H2 8971   3.074   2.848   2.373
 3003TIP3   OH2 8972   0.034   3.314   4.921
 3003TIP3    H1 8973  -0.021   3.317   4.843
 3003TIP3    H2 8974   0.039   3.221   4.944
 3004TIP3   OH2 8975   1.789   4.458   2.072
 3004TIP3    H1 8976   1.773   4.454   1.978
 3004TIP3    H2 8977   1.703   4.454   2.112
 3005TIP3   OH2 8978   6.306   3.642   5.847
 3005TIP3    H1 8979   6.390   3.605   5.873
 3005TIP3    H2 8980   6.267   3.576   5.790
 3006TIP3   OH2 8981   5.572   4.948   3.141
 3006TIP3    H1 8982   5.534   4.891   3.074
 3006TIP3    H2 8983   5.667   4.936   3.132
 3007TIP3   OH2 8984   2.788   2.850   5.453
 3007TIP3    H1 8985   2.807   2.770   5.502
 3007TIP3    H2 8986   2.839   2.918   5.497
 3008TIP3   OH2 8987   0.214   0.711   3.070
 3008TIP3    H1 8988   0.299   0.673   3.048
 3008TIP3    H2 8989   0.202   0.781   3.006
 3009TIP3   OH2 8990   0.498   5.902   0.226
 3009TIP3    H1 8991   0.584   5.935   0.200
 3009TIP3    H2 8992   0.497   5.911   0.321
 3010TIP3   OH2 8993   4.673   6.733   5.831
 3010TIP3    H1 8994   4.684   6.828   5.837
 3010TIP3    H2 8995   4.757   6.697   5.860
 3011TIP3   OH2 8996   2.277   1.640   4.278
 3011TIP3    H1 8997   2.305   1.550   4.258
 3011TIP3    H2 8998   2.194   1.630   4.325
 3012TIP3   OH2 8999   6.864   4.364   3.250
 3012TIP3    H1 9000   6.922   4.384   3.177
 3012TIP3    H2 9001   6.920   4.327   3.317
 3013TIP3   OH2 9002   4.229   6.761   4.701
 3013TIP3    H1 9003   4.163   6.704   4.663
 3013TIP3    H2 9004   4.240   6.831   4.637
 3014TIP3   OH2 9005   5.438   0.491   4.655
 3014TIP3    H1 9006   5.531   0.470   4.669
 3014TIP3    H2 9007   5.429   0.497   4.560
 3015TIP3   OH2 9008   1.469   2.510   1.303
 3015TIP3    H1 9009   1.522   2.445   1.350
 3015TIP3    H2 9010   1.532   2.566   1.260
 3016TIP3   OH2 9011   1.098   6.269   3.364
 3016TIP3    H1 9012   1.154   6.337   3.402
 3016TIP3    H2 9013   1.159   6.204   3.331
 3017TIP3   OH2 9014   6.145   2.535   3.300
 3017TIP3    H1 9015   6.172   2.530   3.392
 3017TIP3    H2 9016   6.193   2.610   3.265
 3018TIP3   OH2 9017   2.460   0.801   4.712
 3018TIP3    H1 9018   2.416   0.763   4.636
 3018TIP3    H2 9019   2.553   0.801   4.688
 3019TIP3   OH2 9020   3.961   4.862   3.020
 3019TIP3    H1 9021   4.017   4.815   3.081
 3019TIP3    H2 9022   4.005   4.853   2.935
 3020TIP3   OH2 9023   5.962   6.319   1.610
 3020TIP3    H1 9024   5.964   6.261   1.687
 3020TIP3    H2 9025   5.965   6.260   1.535
 3021TIP3   OH2 9026   1.259   4.554   0.457
 3021TIP3    H1 9027   1.199   4.483   0.435
 3021TIP3    H2 9028   1.346   4.517   0.443
 3022TIP3   OH2 9029   5.518   0.652   3.999
 3022TIP3    H1 9030   5.455   0.699   3.945
 3022TIP3    H2 9031   5.555   0.586   3.940
 3023TIP3   OH2 9032   2.994   1.009   3.075
 3023TIP3    H1 9033   3.073   1.004   3.022
 3023TIP3    H2 9034   2.965   0.918   3.084
 3024TIP3   OH2 9035   0.720   5.521   5.004
 3024TIP3    H1 9036   0.797   5.523   4.947
 3024TIP3    H2 9037   0.678   5.437   4.985
 3025TIP3   OH2 9038   6.765   1.630   4.706
 3025TIP3    H1 9039   6.722   1.557   4.751
 3025TIP3    H2 9040   6.814   1.588   4.635
 3026TIP3   OH2 9041   3.719   0.463   1.199
 3026TIP3    H1 9042   3.802   0.416   1.197
 3026TIP3    H2 9043   3.689   0.454   1.290
 3027TIP3   OH2 9044   4.960   1.307   2.018
 3027TIP3    H1 9045   5.048   1.318   1.982
 3027TIP3    H2 9046   4.967   1.336   2.109
 3028TIP3   OH2 9047   7.026   5.293   1.516
 3028TIP3    H1 9048   7.064   5.381   1.526
 3028TIP3    H2 9049   6.995   5.271   1.604
 3029TIP3   OH2 9050   4.895   3.709   1.035
 3029TIP3    H1 9051   4.827   3.663   1.084
 3029TIP3    H2 9052   4.930   3.773   1.097
 3030TIP3   OH2 9053   1.546   4.719   3.860
 3030TIP3    H1 9054   1.627   4.669   3.848
 3030TIP3    H2 9055   1.555   4.793   3.800
 3031TIP3   OH2 9056   1.368   0.251   2.619
 3031TIP3    H1 9057   1.409   0.277   2.701
 3031TIP3    H2 9058   1.294   0.311   2.609
 3032TIP3   OH2 9059   5.101   4.750   4.124
 3032TIP3    H1 9060   5.192   4.765   4.096
 3032TIP3    H2 9061   5.048   4.778   4.050
 3033TIP3   OH2 9062   3.038   0.323   1.852
 3033TIP3    H1 9063   3.053   0.252   1.914
 3033TIP3    H2 9064   3.018   0.399   1.907
 3034TIP3   OH2 9065   4.943   0.718   2.144
 3034TIP3    H1 9066   4.939   0.806   2.106
 3034TIP3    H2 9067   5.030   0.713   2.184
 3035TIP3   OH2 9068   3.290   4.823   4.800
 3035TIP3    H1 9069   3.268   4.734   4.828
 3035TIP3    H2 9070   3.368   4.845   4.851
 3036TIP3   OH2 9071   5.844   0.375   4.187
 3036TIP3    H1 9072   5.917   0.397   4.245
 3036TIP3    H2 9073   5.865   0.417   4.104
 3037TIP3   OH2 9074   2.594   6.776   4.835
 3037TIP3    H1 9075   2.635   6.736   4.912
 3037TIP3    H2 9076   2.505   6.741   4.834
 3038TIP3   OH2 9077   5.913   0.171   0.328
 3038TIP3    H1 9078   5.941   0.251   0.372
 3038TIP3    H2 9079   5.894   0.109   0.399
 3039TIP3   OH2 9080   3.373   3.949   3.790
 3039TIP3    H1 9081   3.348   3.907   3.872
 3039TIP3    H2 9082   3.396   4.039   3.814
 3040TIP3   OH2 9083   5.164   3.167   4.208
 3040TIP3    H1 9084   5.167   3.129   4.120
 3040TIP3    H2 9085   5.112   3.246   4.199
 3041TIP3   OH2 9086   1.862   1.433   4.870
 3041TIP3    H1 9087   1.840   1.515   4.915
 3041TIP3    H2 9088   1.786   1.377   4.883
 3042TIP3   OH2 9089   0.919   2.329   4.398
 3042TIP3    H1 9090   0.946   2.375   4.318
 3042TIP3    H2 9091   0.829   2.358   4.413
 3043TIP3   OH2 9092   4.526   4.341   2.531
 3043TIP3    H1 9093   4.470   4.419   2.527
 3043TIP3    H2 9094   4.557   4.330   2.441
 3044TIP3   OH2 9095   3.316   3.155   0.717
 3044TIP3    H1 9096   3.371   3.228   0.686
 3044TIP3    H2 9097   3.359   3.077   0.683
 3045TIP3   OH2 9098   6.882   1.644   1.021
 3045TIP3    H1 9099   6.933   1.689   1.089
 3045TIP3    H2 9100   6.876   1.554   1.051
 3046TIP3   OH2 9101   2.430   5.009   1.815
 3046TIP3    H1 9102   2.431   5.025   1.721
 3046TIP3    H2 9103   2.523   4.998   1.838
 3047TIP3   OH2 9104   0.389   6.088   1.991
 3047TIP3    H1 9105   0.323   6.032   1.950
 3047TIP3    H2 9106   0.452   6.028   2.029
 3048TIP3   OH2 9107   2.449   3.280   1.591
 3048TIP3    H1 9108   2.489   3.216   1.650
 3048TIP3    H2 9109   2.451   3.238   1.505
 3049TIP3   OH2 9110   1.433   1.769   3.355
 3049TIP3    H1 9111   1.431   1.760   3.451
 3049TIP3    H2 9112   1.483   1.850   3.341
 3050TIP3   OH2 9113   1.110   3.882   0.793
 3050TIP3    H1 9114   1.076   3.972   0.803
 3050TIP3    H2 9115   1.193   3.883   0.841
 3051TIP3   OH2 9116   2.815   2.774   0.972
 3051TIP3    H1 9117   2.839   2.867   0.978
 3051TIP3    H2 9118   2.755   2.760   1.044
 3052TIP3   OH2 9119   4.435   4.154   3.103
 3052TIP3    H1 9120   4.482   4.119   3.179
 3052TIP3    H2 9121   4.461   4.095   3.031
 3053TIP3   OH2 9122   7.006   2.768   2.745
 3053TIP3    H1 9123   6.950   2.751   2.820
 3053TIP3    H2 9124   6.955   2.829   2.691
 3054TIP3   OH2 9125   7.064   4.725   5.078
 3054TIP3    H1 9126   7.094   4.714   4.988
 3054TIP3    H2 9127   6.972   4.751   5.070
 3055TIP3   OH2 9128   0.108   6.081   2.403
 3055TIP3    H1 9129   0.052   6.074   2.481
 3055TIP3    H2 9130   0.174   6.147   2.428
 3056TIP3   OH2 9131   4.823   5.467   2.374
 3056TIP3    H1 9132   4.844   5.409   2.300
 3056TIP3    H2 9133   4.851   5.554   2.345
 3057TIP3   OH2 9134   6.939   1.815   4.479
 3057TIP3    H1 9135   6.948   1.734   4.429
 3057TIP3    H2 9136   6.845   1.827   4.490
 3058TIP3   OH2 9137   5.981   4.510   1.045
 3058TIP3    H1 9138   5.949   4.519   1.135
 3058TIP3    H2 9139   5.915   4.554   0.991
 3059TIP3   OH2 9140   1.881   6.174   5.113
 3059TIP3    H1 9141   1.972   6.173   5.084
 3059TIP3    H2 9142   1.878   6.238   5.183
 3060TIP3   OH2 9143   4.256   0.502   1.032
 3060TIP3    H1 9144   4.192   0.560   0.991
 3060TIP3    H2 9145   4.339   0.523   0.989
 3061TIP3   OH2 9146   0.016   3.026   2.949
 3061TIP3    H1 9147   0.009   2.932   2.968
 3061TIP3    H2 9148   0.016   3.068   3.036
 3062TIP3   OH2 9149   4.963   2.043   2.037
 3062TIP3    H1 9150   4.950   2.043   2.132
 3062TIP3    H2 9151   4.901   2.109   2.005
 3063TIP3   OH2 9152   3.261   2.082   5.376
 3063TIP3    H1 9153   3.355   2.087   5.391
 3063TIP3    H2 9154   3.250   2.099   5.283
 3064TIP3   OH2 9155   5.448   1.649   0.458
 3064TIP3    H1 9156   5.450   1.669   0.552
 3064TIP3    H2 9157   5.514   1.581   0.447
 3065TIP3   OH2 9158   0.592   4.324   3.046
 3065TIP3    H1 9159   0.653   4.271   3.098
 3065TIP3    H2 9160   0.512   4.271   3.041
 3066TIP3   OH2 9161   7.157   1.328   4.704
 3066TIP3    H1 9162   7.112   1.244   4.697
 3066TIP3    H2 9163   7.113   1.373   4.776
 3067TIP3   OH2 9164   0.758   1.816   4.354
 3067TIP3    H1 9165   0.701   1.813   4.278
 3067TIP3    H2 9166   0.839   1.857   4.322
 3068TIP3   OH2 9167   2.897   3.069   1.008
 3068TIP3    H1 9168   2.980   3.093   0.967
 3068TIP3    H2 9169   2.911   3.086   1.102
 3069TIP3   OH2 9170   3.010   4.185   5.373
 3069TIP3    H1 9171   2.924   4.213   5.343
 3069TIP3    H2 9172   3.046   4.261   5.419
 3070TIP3   OH2 9173   3.015   1.283   4.060
 3070TIP3    H1 9174   2.990   1.333   4.138
 3070TIP3    H2 9175   2.965   1.201   4.067
 3071TIP3   OH2 9176   3.256   5.612   3.599
 3071TIP3    H1 9177   3.285   5.676   3.664
 3071TIP3    H2 9178   3.327   5.609   3.535
 3072TIP3   OH2 9179   2.682   3.482   1.314
 3072TIP3    H1 9180   2.713   3.562   1.272
 3072TIP3    H2 9181   2.707   3.412   1.253
 3073TIP3   OH2 9182   3.783   1.430   5.699
 3073TIP3    H1 9183   3.821   1.342   5.704
 3073TIP3    H2 9184   3.689   1.416   5.695
 3074TIP3   OH2 9185   1.230   5.162   0.349
 3074TIP3    H1 9186   1.219   5.129   0.438
 3074TIP3    H2 9187   1.140   5.174   0.317
 3075TIP3   OH2 9188   1.745   2.820   2.183
 3075TIP3    H1 9189   1.758   2.789   2.272
 3075TIP3    H2 9190   1.769   2.913   2.185
 3076TIP3   OH2 9191   0.548   0.227   5.803
 3076TIP3    H1 9192   0.551   0.284   5.880
 3076TIP3    H2 9193   0.554   0.287   5.728
 3077TIP3   OH2 9194   4.123   0.957   5.689
 3077TIP3    H1 9195   4.092   0.937   5.777
 3077TIP3    H2 9196   4.205   0.908   5.681
 3078TIP3   OH2 9197   5.862   6.373   4.422
 3078TIP3    H1 9198   5.930   6.386   4.489
 3078TIP3    H2 9199   5.910   6.371   4.339
 3079TIP3   OH2 9200   0.070   2.032   2.832
 3079TIP3    H1 9201   0.006   2.050   2.763
 3079TIP3    H2 9202   0.094   1.940   2.820
 3080TIP3   OH2 9203   0.357   2.239   4.376
 3080TIP3    H1 9204   0.379   2.298   4.305
 3080TIP3    H2 9205   0.270   2.268   4.406
 3081TIP3   OH2 9206   3.482   4.169   3.219
 3081TIP3    H1 9207   3.496   4.094   3.162
 3081TIP3    H2 9208   3.405   4.213   3.182
 3082TIP3   OH2 9209   3.171   4.928   4.379
 3082TIP3    H1 9210   3.176   4.836   4.351
 3082TIP3    H2 9211   3.078   4.942   4.397
 3083TIP3   OH2 9212   4.186   5.957   0.282
 3083TIP3    H1 9213   4.217   6.046   0.262
 3083TIP3    H2 9214   4.186   5.913   0.197
 3084TIP3   OH2 9215   5.696   6.253   2.889
 3084TIP3    H1 9216   5.640   6.177   2.870
 3084TIP3    H2 9217   5.752   6.224   2.961
 3085TIP3   OH2 9218   3.314   0.179   0.393
 3085TIP3    H1 9219   3.371   0.189   0.317
 3085TIP3    H2 9220   3.374   0.168   0.467
 3086TIP3   OH2 9221   5.021   0.714   4.621
 3086TIP3    H1 9222   5.032   0.639   4.563
 3086TIP3    H2 9223   5.030   0.790   4.564
 3087TIP3   OH2 9224   0.452   1.760   3.366
 3087TIP3    H1 9225   0.507   1.811   3.425
 3087TIP3    H2 9226   0.492   1.771   3.280
 3088TIP3   OH2 9227   2.316   0.596   4.187
 3088TIP3    H1 9228   2.388   0.547   4.225
 3088TIP3    H2 9229   2.308   0.560   4.098
 3089TIP3   OH2 9230   2.037   6.319   4.784
 3089TIP3    H1 9231   2.064   6.411   4.794
 3089TIP3    H2 9232   2.091   6.272   4.848
 3090TIP3   OH2 9233   1.119   4.705   1.316
 3090TIP3    H1 9234   1.117   4.691   1.222
 3090TIP3    H2 9235   1.202   4.667   1.344
 3091TIP3   OH2 9236   4.457   2.094   1.774
 3091TIP3    H1 9237   4.525   2.079   1.839
 3091TIP3    H2 9238   4.504   2.125   1.696
 3092TIP3   OH2 9239   5.416   3.193   5.219
 3092TIP3    H1 9240   5.449   3.163   5.134
 3092TIP3    H2 9241   5.487   3.173   5.280
 3093TIP3   OH2 9242   2.445   5.408   0.107
 3093TIP3    H1 9243   2.440   5.498   0.141
 3093TIP3    H2 9244   2.408   5.354   0.177
 3094TIP3   OH2 9245   4.918   5.705   3.037
 3094TIP3    H1 9246   4.921   5.797   3.012
 3094TIP3    H2 9247   5.009   5.677   3.038
 3095TIP3   OH2 9248   2.683   5.075   2.283
 3095TIP3    H1 9249   2.612   5.047   2.224
 3095TIP3    H2 9250   2.763   5.063   2.232
 3096TIP3   OH2 9251   4.648   6.655   2.076
 3096TIP3    H1 9252   4.638   6.703   2.158
 3096TIP3    H2 9253   4.596   6.576   2.087
 3097TIP3   OH2 9254   3.487   4.442   4.855
 3097TIP3    H1 9255   3.490   4.431   4.760
 3097TIP3    H2 9256   3.405   4.490   4.871
 3098TIP3   OH2 9257   1.724   3.363   5.191
 3098TIP3    H1 9258   1.703   3.333   5.280
 3098TIP3    H2 9259   1.638   3.372   5.149
 3099TIP3   OH2 9260   3.685   2.629   2.773
 3099TIP3    H1 9261   3.656   2.539   2.757
 3099TIP3    H2 9262   3.764   2.639   2.721
 3100TIP3   OH2 9263   6.959   3.902   2.307
 3100TIP3    H1 9264   6.939   3.988   2.344
 3100TIP3    H2 9265   6.960   3.844   2.383
 3101TIP3   OH2 9266   3.620   0.561   4.873
 3101TIP3    H1 9267   3.577   0.559   4.788
 3101TIP3    H2 9268   3.550   0.546   4.936
 3102TIP3   OH2 9269   6.348   4.124   3.265
 3102TIP3    H1 9270   6.438   4.141   3.236
 3102TIP3    H2 9271   6.320   4.207   3.303
 3103TIP3   OH2 9272   4.867   4.591   3.906
 3103TIP3    H1 9273   4.894   4.665   3.961
 3103TIP3    H2 9274   4.774   4.606   3.890
 3104TIP3   OH2 9275   4.336   5.888   3.518
 3104TIP3    H1 9276   4.255   5.857   3.478
 3104TIP3    H2 9277   4.406   5.854   3.462
 3105TIP3   OH2 9278   7.215   0.425   2.530
 3105TIP3    H1 9279   7.129   0.439   2.491
 3105TIP3    H2 9280   7.201   0.435   2.624
 3106TIP3   OH2 9281   5.992   5.468   1.090
 3106TIP3    H1 9282   5.946   5.495   1.010
 3106TIP3    H2 9283   6.048   5.542   1.112
 3107TIP3   OH2 9284   2.534   1.336   1.371
 3107TIP3    H1 9285   2.583   1.405   1.326
 3107TIP3    H2 9286   2.569   1.336   1.460
 3108TIP3   OH2 9287   1.318   4.231   0.885
 3108TIP3    H1 9288   1.283   4.312   0.849
 3108TIP3    H2 9289   1.385   4.259   0.948
 3109TIP3   OH2 9290   0.523   6.217   1.062
 3109TIP3    H1 9291   0.571   6.298   1.080
 3109TIP3    H2 9292   0.435   6.234   1.094
 3110TIP3   OH2 9293   4.613   5.617   4.381
 3110TIP3    H1 9294   4.626   5.697   4.432
 3110TIP3    H2 9295   4.698   5.574   4.381
 3111TIP3   OH2 9296   4.067   0.551   4.717
 3111TIP3    H1 9297   3.991   0.505   4.751
 3111TIP3    H2 9298   4.106   0.593   4.793
 3112TIP3   OH2 9299   6.111   3.205   0.667
 3112TIP3    H1 9300   6.026   3.168   0.693
 3112TIP3    H2 9301   6.175   3.140   0.695
 3113TIP3   OH2 9302   0.623   1.934   2.354
 3113TIP3    H1 9303   0.644   1.893   2.270
 3113TIP3    H2 9304   0.584   1.863   2.406
 3114TIP3   OH2 9305   6.520   3.447   1.478
 3114TIP3    H1 9306   6.598   3.392   1.487
 3114TIP3    H2 9307   6.522   3.476   1.387
 3115TIP3   OH2 9308   6.637   0.921   1.041
 3115TIP3    H1 9309   6.723   0.922   0.999
 3115TIP3    H2 9310   6.641   0.991   1.106
 3116TIP3   OH2 9311   0.640   2.169   2.810
 3116TIP3    H1 9312   0.623   2.234   2.877
 3116TIP3    H2 9313   0.604   2.207   2.730
 3117TIP3   OH2 9314   5.459   0.156   0.443
 3117TIP3    H1 9315   5.384   0.186   0.392
 3117TIP3    H2 9316   5.442   0.188   0.532
 3118TIP3   OH2 9317   4.559   1.901   0.648
 3118TIP3    H1 9318   4.615   1.863   0.716
 3118TIP3    H2 9319   4.500   1.960   0.696
 3119TIP3   OH2 9320   5.774   1.770   4.090
 3119TIP3    H1 9321   5.779   1.701   4.156
 3119TIP3    H2 9322   5.800   1.850   4.136
 3120TIP3   OH2 9323   5.061   2.527   3.893
 3120TIP3    H1 9324   5.026   2.615   3.879
 3120TIP3    H2 9325   5.140   2.540   3.945
 3121TIP3   OH2 9326   6.135   3.126   3.839
 3121TIP3    H1 9327   6.095   3.089   3.918
 3121TIP3    H2 9328   6.074   3.195   3.812
 3122TIP3   OH2 9329   2.795   3.220   1.674
 3122TIP3    H1 9330   2.843   3.236   1.755
 3122TIP3    H2 9331   2.848   3.156   1.628
 3123TIP3   OH2 9332   5.164   1.969   4.303
 3123TIP3    H1 9333   5.172   1.888   4.353
 3123TIP3    H2 9334   5.222   2.030   4.348
 3124TIP3   OH2 9335   0.049   0.173   2.405
 3124TIP3    H1 9336   0.032   0.245   2.467
 3124TIP3    H2 9337   0.142   0.180   2.384
 3125TIP3   OH2 9338   5.567   0.596   1.290
 3125TIP3    H1 9339   5.498   0.551   1.338
 3125TIP3    H2 9340   5.589   0.671   1.344
 3126TIP3   OH2 9341   2.735   4.944   4.081
 3126TIP3    H1 9342   2.800   4.876   4.098
 3126TIP3    H2 9343   2.784   5.026   4.086
 3127TIP3   OH2 9344   1.084   0.183   2.809
 3127TIP3    H1 9345   1.098   0.088   2.801
 3127TIP3    H2 9346   1.116   0.205   2.896
 3128TIP3   OH2 9347   1.787   3.468   4.059
 3128TIP3    H1 9348   1.760   3.560   4.061
 3128TIP3    H2 9349   1.830   3.454   4.143
 3129TIP3   OH2 9350   1.046   4.008   5.596
 3129TIP3    H1 9351   1.123   4.001   5.653
 3129TIP3    H2 9352   0.973   4.026   5.655
 3130TIP3   OH2 9353   4.850   1.998   3.593
 3130TIP3    H1 9354   4.816   2.087   3.583
 3130TIP3    H2 9355   4.835   1.977   3.685
 3131TIP3   OH2 9356   3.534   3.914   1.049
 3131TIP3    H1 9357   3.594   3.959   1.108
 3131TIP3    H2 9358   3.556   3.821   1.060
 3132TIP3   OH2 9359   3.271   6.584   5.771
 3132TIP3    H1 9360   3.244   6.639   5.696
 3132TIP3    H2 9361   3.222   6.619   5.845
 3133TIP3   OH2 9362   5.919   2.283   5.814
 3133TIP3    H1 9363   5.855   2.269   5.744
 3133TIP3    H2 9364   5.879   2.350   5.870
 3134TIP3   OH2 9365   7.118   5.337   2.840
 3134TIP3    H1 9366   7.028   5.336   2.873
 3134TIP3    H2 9367   7.171   5.304   2.912
 3135TIP3   OH2 9368   0.694   2.887   2.040
 3135TIP3    H1 9369   0.601   2.891   2.015
 3135TIP3    H2 9370   0.694   2.895   2.135
 3136TIP3   OH2 9371   4.249   1.283   2.904
 3136TIP3    H1 9372   4.174   1.338   2.924
 3136TIP3    H2 9373   4.310   1.341   2.859
 3137TIP3   OH2 9374   0.257   5.069   1.406
 3137TIP3    H1 9375   0.351   5.052   1.408
 3137TIP3    H2 9376   0.250   5.161   1.382
 3138TIP3   OH2 9377   5.490   5.786   1.040
 3138TIP3    H1 9378   5.557   5.849   1.065
 3138TIP3    H2 9379   5.418   5.802   1.102
 3139TIP3   OH2 9380   6.714   5.342   4.095
 3139TIP3    H1 9381   6.800   5.299   4.094
 3139TIP3    H2 9382   6.703   5.373   4.005
 3140TIP3   OH2 9383   0.872   2.358   5.715
 3140TIP3    H1 9384   0.813   2.355   5.791
 3140TIP3    H2 9385   0.932   2.285   5.729
 3141TIP3   OH2 9386   1.844   3.693   3.361
 3141TIP3    H1 9387   1.901   3.724   3.431
 3141TIP3    H2 9388   1.901   3.644   3.303
 3142TIP3   OH2 9389   5.299   4.431   5.193
 3142TIP3    H1 9390   5.249   4.351   5.182
 3142TIP3    H2 9391   5.275   4.464   5.279
 3143TIP3   OH2 9392   6.137   2.896   3.022
 3143TIP3    H1 9393   6.212   2.855   3.065
 3143TIP3    H2 9394   6.089   2.824   2.982
 3144TIP3   OH2 9395   4.319   2.755   0.981
 3144TIP3    H1 9396   4.268   2.836   0.990
 3144TIP3    H2 9397   4.297   2.704   1.059
 3145TIP3   OH2 9398   7.045   1.171   1.251
 3145TIP3    H1 9399   7.033   1.266   1.258
 3145TIP3    H2 9400   7.070   1.144   1.339
 3146TIP3   OH2 9401   1.594   2.960   1.761
 3146TIP3    H1 9402   1.606   2.995   1.673
 3146TIP3    H2 9403   1.537   3.023   1.804
 3147TIP3   OH2 9404   0.249   3.680   1.836
 3147TIP3    H1 9405   0.212   3.673   1.924
 3147TIP3    H2 9406   0.205   3.613   1.785
 3148TIP3   OH2 9407   3.381   6.059   4.409
 3148TIP3    H1 9408   3.463   6.103   4.431
 3148TIP3    H2 9409   3.407   5.985   4.355
 3149TIP3   OH2 9410   0.049   3.788   4.249
 3149TIP3    H1 9411  -0.046   3.795   4.257
 3149TIP3    H2 9412   0.073   3.716   4.306
 3150TIP3   OH2 9413   6.864   3.562   3.572
 3150TIP3    H1 9414   6.947   3.517   3.558
 3150TIP3    H2 9415   6.832   3.527   3.655
 3151TIP3   OH2 9416   3.442   1.190   3.651
 3151TIP3    H1 9417   3.360   1.218   3.691
 3151TIP3    H2 9418   3.441   1.229   3.564
 3152TIP3   OH2 9419   1.440   5.446   1.850
 3152TIP3    H1 9420   1.532   5.421   1.841
 3152TIP3    H2 9421   1.407   5.393   1.922
 3153TIP3   OH2 9422   2.778   0.598   1.298
 3153TIP3    H1 9423   2.868   0.567   1.300
 3153TIP3    H2 9424   2.783   0.689   1.327
 3154TIP3   OH2 9425   1.224   2.385   3.150
 3154TIP3    H1 9426   1.213   2.295   3.120
 3154TIP3    H2 9427   1.233   2.437   3.070
 3155TIP3   OH2 9428   5.122   1.470   5.546
 3155TIP3    H1 9429   5.108   1.385   5.505
 3155TIP3    H2 9430   5.098   1.533   5.478
 3156TIP3   OH2 9431   6.090   4.841   2.680
 3156TIP3    H1 9432   6.100   4.905   2.750
 3156TIP3    H2 9433   6.120   4.886   2.601
 3157TIP3   OH2 9434   1.147   3.567   1.328
 3157TIP3    H1 9435   1.151   3.604   1.416
 3157TIP3    H2 9436   1.176   3.637   1.270
 3158TIP3   OH2 9437   7.205   1.543   1.816
 3158TIP3    H1 9438   7.216   1.449   1.824
 3158TIP3    H2 9439   7.120   1.554   1.774
 3159TIP3   OH2 9440   2.826   5.994   3.641
 3159TIP3    H1 9441   2.773   5.969   3.565
 3159TIP3    H2 9442   2.792   6.080   3.667
 3160TIP3   OH2 9443   3.656   6.359   2.019
 3160TIP3    H1 9444   3.625   6.282   1.972
 3160TIP3    H2 9445   3.597   6.367   2.094
 3161TIP3   OH2 9446   4.075   3.655   3.784
 3161TIP3    H1 9447   4.005   3.591   3.797
 3161TIP3    H2 9448   4.144   3.607   3.739
 3162TIP3   OH2 9449   6.224   1.539   1.215
 3162TIP3    H1 9450   6.170   1.511   1.141
 3162TIP3    H2 9451   6.272   1.614   1.182
 3163TIP3   OH2 9452   0.867   3.278   5.199
 3163TIP3    H1 9453   0.808   3.224   5.146
 3163TIP3    H2 9454   0.890   3.351   5.142
 3164TIP3   OH2 9455   2.198   2.329   4.477
 3164TIP3    H1 9456   2.121   2.361   4.526
 3164TIP3    H2 9457   2.167   2.250   4.434
 3165TIP3   OH2 9458   0.262   2.901   4.948
 3165TIP3    H1 9459   0.325   2.957   4.902
 3165TIP3    H2 9460   0.312   2.822   4.969
 3166TIP3   OH2 9461   3.579   4.758   5.780
 3166TIP3    H1 9462   3.583   4.757   5.875
 3166TIP3    H2 9463   3.488   4.781   5.759
 3167TIP3   OH2 9464   3.645   4.796   4.642
 3167TIP3    H1 9465   3.688   4.827   4.562
 3167TIP3    H2 9466   3.552   4.810   4.626
 3168TIP3   OH2 9467   1.125   1.371   3.255
 3168TIP3    H1 9468   1.178   1.343   3.180
 3168TIP3    H2 9469   1.132   1.467   3.255
 3169TIP3   OH2 9470   1.719   4.484   1.585
 3169TIP3    H1 9471   1.740   4.496   1.492
 3169TIP3    H2 9472   1.662   4.558   1.606
 3170TIP3   OH2 9473   2.467   0.277   1.684
 3170TIP3    H1 9474   2.545   0.294   1.738
 3170TIP3    H2 9475   2.407   0.349   1.705
 3171TIP3   OH2 9476   0.364   2.555   1.844
 3171TIP3    H1 9477   0.397   2.472   1.878
 3171TIP3    H2 9478   0.300   2.585   1.908
 3172TIP3   OH2 9479   4.899   4.299   4.744
 3172TIP3    H1 9480   4.857   4.282   4.828
 3172TIP3    H2 9481   4.862   4.232   4.685
 3173TIP3   OH2 9482   4.312   3.415   1.101
 3173TIP3    H1 9483   4.334   3.508   1.100
 3173TIP3    H2 9484   4.290   3.396   1.192
 3174TIP3   OH2 9485   2.304   1.005   2.939
 3174TIP3    H1 9486   2.383   1.057   2.953
 3174TIP3    H2 9487   2.234   1.070   2.932
 3175TIP3   OH2 9488   1.624   0.274   1.448
 3175TIP3    H1 9489   1.562   0.279   1.376
 3175TIP3    H2 9490   1.709   0.266   1.406
 3176TIP3   OH2 9491   0.201   4.498   4.565
 3176TIP3    H1 9492   0.154   4.428   4.520
 3176TIP3    H2 9493   0.153   4.510   4.647
 3177TIP3   OH2 9494   6.935   6.068   2.196
 3177TIP3    H1 9495   6.919   6.039   2.286
 3177TIP3    H2 9496   7.000   6.007   2.162
 3178TIP3   OH2 9497   5.817   0.845   2.551
 3178TIP3    H1 9498   5.842   0.788   2.624
 3178TIP3    H2 9499   5.795   0.929   2.592
 3179TIP3   OH2 9500   0.852   5.305   3.845
 3179TIP3    H1 9501   0.757   5.298   3.848
 3179TIP3    H2 9502   0.884   5.220   3.876
 3180TIP3   OH2 9503   2.789   4.996   2.554
 3180TIP3    H1 9504   2.744   5.019   2.473
 3180TIP3    H2 9505   2.882   5.005   2.533
 3181TIP3   OH2 9506   6.645   4.383   0.241
 3181TIP3    H1 9507   6.608   4.328   0.310
 3181TIP3    H2 9508   6.568   4.420   0.196
 3182TIP3   OH2 9509   0.061   5.278   4.730
 3182TIP3    H1 9510   0.044   5.340   4.801
 3182TIP3    H2 9511  -0.018   5.278   4.677
 3183TIP3   OH2 9512   6.480   5.799   5.127
 3183TIP3    H1 9513   6.407   5.743   5.099
 3183TIP3    H2 9514   6.492   5.777   5.219
 3184TIP3   OH2 9515   2.485   5.167   0.290
 3184TIP3    H1 9516   2.513   5.109   0.219
 3184TIP3    H2 9517   2.563   5.220   0.308
 3185TIP3   OH2 9518   3.388   2.925   0.580
 3185TIP3    H1 9519   3.329   2.969   0.518
 3185TIP3    H2 9520   3.375   2.832   0.563
 3186TIP3   OH2 9521   6.418   2.710   3.601
 3186TIP3    H1 9522   6.500   2.673   3.569
 3186TIP3    H2 9523   6.408   2.792   3.552
 3187TIP3   OH2 9524   1.296   5.239   0.988
 3187TIP3    H1 9525   1.379   5.191   0.980
 3187TIP3    H2 9526   1.246   5.213   0.911
 3188TIP3   OH2 9527   6.395   2.689   2.950
 3188TIP3    H1 9528   6.436   2.608   2.919
 3188TIP3    H2 9529   6.394   2.746   2.873
 3189TIP3   OH2 9530   5.266   5.044   3.921
 3189TIP3    H1 9531   5.231   5.029   3.833
 3189TIP3    H2 9532   5.258   4.959   3.965
 3190TIP3   OH2 9533   2.450   3.761   1.043
 3190TIP3    H1 9534   2.370   3.784   1.090
 3190TIP3    H2 9535   2.504   3.839   1.048
 3191TIP3   OH2 9536   3.875   4.040   0.488
 3191TIP3    H1 9537   3.965   4.053   0.518
 3191TIP3    H2 9538   3.822   4.057   0.566
 3192TIP3   OH2 9539   0.365   3.971   0.943
 3192TIP3    H1 9540   0.318   3.996   1.022
 3192TIP3    H2 9541   0.412   3.891   0.967
 3193TIP3   OH2 9542   6.515   2.696   4.708
 3193TIP3    H1 9543   6.603   2.732   4.706
 3193TIP3    H2 9544   6.523   2.610   4.665
 3194TIP3   OH2 9545   4.856   6.222   5.426
 3194TIP3    H1 9546   4.928   6.204   5.366
 3194TIP3    H2 9547   4.777   6.212   5.372
 3195TIP3   OH2 9548   5.349   2.621   2.984
 3195TIP3    H1 9549   5.426   2.630   3.040
 3195TIP3    H2 9550   5.352   2.698   2.927
 3196TIP3   OH2 9551   5.322   0.772   4.351
 3196TIP3    H1 9552   5.368   0.821   4.283
 3196TIP3    H2 9553   5.246   0.827   4.372
 3197TIP3   OH2 9554   3.384   4.639   1.249
 3197TIP3    H1 9555   3.466   4.677   1.217
 3197TIP3    H2 9556   3.384   4.659   1.343
 3198TIP3   OH2 9557   6.841   2.515   3.962
 3198TIP3    H1 9558   6.861   2.436   4.013
 3198TIP3    H2 9559   6.799   2.482   3.883
 3199TIP3   OH2 9560   4.753   3.266   4.420
 3199TIP3    H1 9561   4.779   3.335   4.358
 3199TIP3    H2 9562   4.700   3.312   4.485
 3200TIP3   OH2 9563   4.657   3.405   5.380
 3200TIP3    H1 9564   4.737   3.415   5.328
 3200TIP3    H2 9565   4.590   3.384   5.315
 3201TIP3   OH2 9566   6.657   1.571   2.991
 3201TIP3    H1 9567   6.679   1.651   3.039
 3201TIP3    H2 9568   6.742   1.536   2.964
 3202TIP3   OH2 9569   5.313   4.767   4.883
 3202TIP3    H1 9570   5.241   4.808   4.931
 3202TIP3    H2 9571   5.285   4.769   4.792
 3203TIP3   OH2 9572   7.193   3.388   5.824
 3203TIP3    H1 9573   7.240   3.330   5.883
 3203TIP3    H2 9574   7.131   3.331   5.778
 3204TIP3   OH2 9575   0.464   1.406   1.896
 3204TIP3    H1 9576   0.453   1.385   1.803
 3204TIP3    H2 9577   0.381   1.446   1.922
 3205TIP3   OH2 9578   0.103   2.416   3.084
 3205TIP3    H1 9579   0.039   2.461   3.030
 3205TIP3    H2 9580   0.079   2.323   3.076
 3206TIP3   OH2 9581   4.964   1.333   2.327
 3206TIP3    H1 9582   4.972   1.425   2.355
 3206TIP3    H2 9583   4.980   1.282   2.407
 3207TIP3   OH2 9584   6.823   3.207   0.447
 3207TIP3    H1 9585   6.915   3.232   0.448
 3207TIP3    H2 9586   6.812   3.154   0.526
 3208TIP3   OH2 9587   1.407   1.425   0.385
 3208TIP3    H1 9588   1.443   1.336   0.391
 3208TIP3    H2 9589   1.464   1.477   0.441
 3209TIP3   OH2 9590   1.834   1.522   4.599
 3209TIP3    H1 9591   1.848   1.482   4.685
 3209TIP3    H2 9592   1.752   1.482   4.568
 3210TIP3   OH2 9593   4.748   5.174   4.772
 3210TIP3    H1 9594   4.653   5.167   4.784
 3210TIP3    H2 9595   4.784   5.107   4.831
 3211TIP3   OH2 9596   5.835   5.532   0.238
 3211TIP3    H1 9597   5.922   5.572   0.230
 3211TIP3    H2 9598   5.785   5.593   0.291
 3212TIP3   OH2 9599   1.265   3.579   0.508
 3212TIP3    H1 9600   1.229   3.501   0.467
 3212TIP3    H2 9601   1.360   3.568   0.502
 3213TIP3   OH2 9602   4.168   5.345   1.749
 3213TIP3    H1 9603   4.262   5.332   1.737
 3213TIP3    H2 9604   4.135   5.362   1.662
 3214TIP3   OH2 9605   4.137   6.116   1.643
 3214TIP3    H1 9606   4.161   6.188   1.585
 3214TIP3    H2 9607   4.055   6.081   1.606
 3215TIP3   OH2 9608   2.376   0.042   2.223
 3215TIP3    H1 9609   2.461  -0.003   2.225
 3215TIP3    H2 9610   2.317  -0.015   2.272
 3216TIP3   OH2 9611   1.543   2.513   2.125
 3216TIP3    H1 9612   1.529   2.445   2.059
 3216TIP3    H2 9613   1.580   2.586   2.077
 3217TIP3   OH2 9614   1.493   0.843   5.361
 3217TIP3    H1 9615   1.487   0.935   5.336
 3217TIP3    H2 9616   1.431   0.833   5.434
 3218TIP3   OH2 9617   2.064   3.923   1.058
 3218TIP3    H1 9618   2.018   3.950   1.137
 3218TIP3    H2 9619   2.110   3.843   1.083
 3219TIP3   OH2 9620   1.686   6.759   4.590
 3219TIP3    H1 9621   1.760   6.709   4.623
 3219TIP3    H2 9622   1.725   6.825   4.532
 3220TIP3   OH2 9623   6.091   6.376   4.600
 3220TIP3    H1 9624   6.161   6.378   4.666
 3220TIP3    H2 9625   6.132   6.338   4.523
 3221TIP3   OH2 9626   3.340   2.640   4.223
 3221TIP3    H1 9627   3.361   2.706   4.288
 3221TIP3    H2 9628   3.263   2.675   4.178
 3222TIP3   OH2 9629   4.166   2.606   2.905
 3222TIP3    H1 9630   4.184   2.623   2.812
 3222TIP3    H2 9631   4.077   2.571   2.907
 3223TIP3   OH2 9632   1.858   6.269   3.756
 3223TIP3    H1 9633   1.920   6.342   3.758
 3223TIP3    H2 9634   1.908   6.196   3.721
 3224TIP3   OH2 9635   3.839   3.898   3.736
 3224TIP3    H1 9636   3.751   3.890   3.773
 3224TIP3    H2 9637   3.894   3.918   3.811
 3225TIP3   OH2 9638   1.852   1.468   3.292
 3225TIP3    H1 9639   1.935   1.510   3.269
 3225TIP3    H2 9640   1.813   1.526   3.358
 3226TIP3   OH2 9641   1.572   2.743   4.054
 3226TIP3    H1 9642   1.654   2.746   4.004
 3226TIP3    H2 9643   1.593   2.693   4.132
 3227TIP3   OH2 9644   3.524   3.528   2.396
 3227TIP3    H1 9645   3.445   3.556   2.349
 3227TIP3    H2 9646   3.572   3.475   2.333
 3228TIP3   OH2 9647   4.069   6.056   4.825
 3228TIP3    H1 9648   4.129   5.999   4.874
 3228TIP3    H2 9649   4.017   6.099   4.892
 3229TIP3   OH2 9650   4.085   3.993   0.843
 3229TIP3    H1 9651   4.146   3.923   0.823
 3229TIP3    H2 9652   4.039   3.963   0.922
 3230TIP3   OH2 9653   7.061   4.415   4.661
 3230TIP3    H1 9654   6.977   4.419   4.705
 3230TIP3    H2 9655   7.043   4.369   4.579
 3231TIP3   OH2 9656   3.371   1.427   0.095
 3231TIP3    H1 9657   3.454   1.401   0.135
 3231TIP3    H2 9658   3.304   1.397   0.156
 3232TIP3   OH2 9659   6.627   0.979   4.272
 3232TIP3    H1 9660   6.587   0.906   4.320
 3232TIP3    H2 9661   6.567   0.998   4.201
 3233TIP3   OH2 9662   5.229   5.379   5.062
 3233TIP3    H1 9663   5.221   5.298   5.012
 3233TIP3    H2 9664   5.178   5.363   5.141
 3234TIP3   OH2 9665   5.000   3.707   2.566
 3234TIP3    H1 9666   5.086   3.676   2.594
 3234TIP3    H2 9667   4.963   3.635   2.515
 3235TIP3   OH2 9668   1.311   5.890   4.035
 3235TIP3    H1 9669   1.358   5.940   3.967
 3235TIP3    H2 9670   1.354   5.805   4.035
 3236TIP3   OH2 9671   1.524   3.577   3.115
 3236TIP3    H1 9672   1.538   3.614   3.203
 3236TIP3    H2 9673   1.477   3.646   3.068
 3237TIP3   OH2 9674   5.192   6.136   2.741
 3237TIP3    H1 9675   5.202   6.213   2.685
 3237TIP3    H2 9676   5.282   6.110   2.761
 3238TIP3   OH2 9677   6.316   1.252   5.412
 3238TIP3    H1 9678   6.408   1.275   5.400
 3238TIP3    H2 9679   6.287   1.307   5.485
 3239TIP3   OH2 9680   3.628   2.202   0.648
 3239TIP3    H1 9681   3.649   2.281   0.598
 3239TIP3    H2 9682   3.541   2.177   0.617
 3240TIP3   OH2 9683   1.878   0.302   4.171
 3240TIP3    H1 9684   1.883   0.378   4.229
 3240TIP3    H2 9685   1.899   0.338   4.084
 3241TIP3   OH2 9686   3.322   4.065   4.517
 3241TIP3    H1 9687   3.350   4.098   4.603
 3241TIP3    H2 9688   3.374   4.116   4.454
 3242TIP3   OH2 9689   4.544   5.557   0.760
 3242TIP3    H1 9690   4.542   5.643   0.716
 3242TIP3    H2 9691   4.561   5.495   0.689
 3243TIP3   OH2 9692   2.799   6.482   0.180
 3243TIP3    H1 9693   2.814   6.388   0.172
 3243TIP3    H2 9694   2.874   6.523   0.136
 3244TIP3   OH2 9695   2.843   0.224   2.830
 3244TIP3    H1 9696   2.760   0.260   2.861
 3244TIP3    H2 9697   2.882   0.294   2.779
 3245TIP3   OH2 9698   3.516   1.434   4.322
 3245TIP3    H1 9699   3.520   1.529   4.312
 3245TIP3    H2 9700   3.607   1.405   4.312
 3246TIP3   OH2 9701   6.435   6.076   5.166
 3246TIP3    H1 9702   6.407   5.985   5.153
 3246TIP3    H2 9703   6.484   6.074   5.249
 3247TIP3   OH2 9704   6.129   3.547   5.360
 3247TIP3    H1 9705   6.145   3.453   5.373
 3247TIP3    H2 9706   6.188   3.572   5.289
 3248TIP3   OH2 9707   6.683   4.535   4.406
 3248TIP3    H1 9708   6.760   4.581   4.440
 3248TIP3    H2 9709   6.684   4.554   4.312
 3249TIP3   OH2 9710   4.313   2.253   2.458
 3249TIP3    H1 9711   4.274   2.241   2.544
 3249TIP3    H2 9712   4.268   2.329   2.421
 3250TIP3   OH2 9713   1.606   3.923   3.974
 3250TIP3    H1 9714   1.578   3.831   3.976
 3250TIP3    H2 9715   1.670   3.930   4.044
 3251TIP3   OH2 9716   1.377   2.268   0.844
 3251TIP3    H1 9717   1.285   2.271   0.818
 3251TIP3    H2 9718   1.390   2.178   0.875
 3252TIP3   OH2 9719   2.370   5.085   3.410
 3252TIP3    H1 9720   2.417   5.149   3.356
 3252TIP3    H2 9721   2.440   5.035   3.453
 3253TIP3   OH2 9722   0.204   6.000   0.726
 3253TIP3    H1 9723   0.124   6.052   0.732
 3253TIP3    H2 9724   0.189   5.926   0.784
 3254TIP3   OH2 9725   1.906   5.213   4.586
 3254TIP3    H1 9726   2.001   5.205   4.589
 3254TIP3    H2 9727   1.890   5.293   4.535
 3255TIP3   OH2 9728   6.254   4.313   4.981
 3255TIP3    H1 9729   6.250   4.339   5.073
 3255TIP3    H2 9730   6.173   4.346   4.943
 3256TIP3   OH2 9731   3.411   2.884   5.177
 3256TIP3    H1 9732   3.349   2.894   5.105
 3256TIP3    H2 9733   3.423   2.973   5.211
 3257TIP3   OH2 9734   2.707   3.634   3.626
 3257TIP3    H1 9735   2.763   3.656   3.701
 3257TIP3    H2 9736   2.738   3.692   3.556
 3258TIP3   OH2 9737   1.565   0.490   4.158
 3258TIP3    H1 9738   1.491   0.494   4.220
 3258TIP3    H2 9739   1.641   0.476   4.214
 3259TIP3   OH2 9740   5.528   0.296   5.815
 3259TIP3    H1 9741   5.517   0.366   5.750
 3259TIP3    H2 9742   5.453   0.238   5.800
 3260TIP3   OH2 9743   6.870   2.233   0.305
 3260TIP3    H1 9744   6.907   2.206   0.221
 3260TIP3    H2 9745   6.945   2.262   0.357
 3261TIP3   OH2 9746   2.079   0.936   0.027
 3261TIP3    H1 9747   2.004   0.912   0.082
 3261TIP3    H2 9748   2.040   0.986  -0.045
 3262TIP3   OH2 9749   4.324   4.718   4.529
 3262TIP3    H1 9750   4.402   4.767   4.504
 3262TIP3    H2 9751   4.264   4.729   4.455
 3263TIP3   OH2 9752   6.552   6.509   3.867
 3263TIP3    H1 9753   6.540   6.513   3.962
 3263TIP3    H2 9754   6.574   6.417   3.849
 3264TIP3   OH2 9755   3.564   3.717   4.318
 3264TIP3    H1 9756   3.471   3.738   4.320
 3264TIP3    H2 9757   3.606   3.791   4.361
 3265TIP3   OH2 9758   4.145   2.978   0.930
 3265TIP3    H1 9759   4.072   3.037   0.911
 3265TIP3    H2 9760   4.209   2.995   0.862
 3266TIP3   OH2 9761   3.188   4.587   1.819
 3266TIP3    H1 9762   3.106   4.558   1.779
 3266TIP3    H2 9763   3.254   4.526   1.786
 3267TIP3   OH2 9764   7.099   3.013   0.162
 3267TIP3    H1 9765   7.143   2.938   0.202
 3267TIP3    H2 9766   7.125   3.088   0.215
 3268TIP3   OH2 9767   6.695   3.389   5.496
 3268TIP3    H1 9768   6.683   3.388   5.401
 3268TIP3    H2 9769   6.679   3.299   5.523
 3269TIP3   OH2 9770   0.529   1.403   4.192
 3269TIP3    H1 9771   0.483   1.324   4.165
 3269TIP3    H2 9772   0.499   1.470   4.131
 3270TIP3   OH2 9773   3.233   5.270   4.531
 3270TIP3    H1 9774   3.257   5.308   4.615
 3270TIP3    H2 9775   3.315   5.239   4.494
 3271TIP3   OH2 9776   6.564   4.981   3.885
 3271TIP3    H1 9777   6.493   4.952   3.828
 3271TIP3    H2 9778   6.548   4.937   3.968
 3272TIP3   OH2 9779   3.106   2.443   5.653
 3272TIP3    H1 9780   3.188   2.493   5.649
 3272TIP3    H2 9781   3.133   2.353   5.666
 3273TIP3   OH2 9782   2.385   5.468   1.445
 3273TIP3    H1 9783   2.294   5.454   1.470
 3273TIP3    H2 9784   2.384   5.473   1.350
 3274TIP3   OH2 9785   0.221   6.549   3.356
 3274TIP3    H1 9786   0.133   6.526   3.328
 3274TIP3    H2 9787   0.235   6.500   3.436
 3275TIP3   OH2 9788   0.440   6.044   1.676
 3275TIP3    H1 9789   0.477   5.976   1.733
 3275TIP3    H2 9790   0.461   6.126   1.721
 3276TIP3   OH2 9791   2.175   0.928   5.098
 3276TIP3    H1 9792   2.182   0.893   5.009
 3276TIP3    H2 9793   2.109   0.997   5.091
 3277TIP3   OH2 9794   6.877   6.412   1.218
 3277TIP3    H1 9795   6.870   6.453   1.131
 3277TIP3    H2 9796   6.821   6.335   1.211
 3278TIP3   OH2 9797   0.497   1.772   0.424
 3278TIP3    H1 9798   0.592   1.788   0.429
 3278TIP3    H2 9799   0.470   1.808   0.340
 3279TIP3   OH2 9800   1.786   4.122   1.971
 3279TIP3    H1 9801   1.769   4.189   1.905
 3279TIP3    H2 9802   1.861   4.074   1.937
 3280TIP3   OH2 9803   1.274   3.332   3.291
 3280TIP3    H1 9804   1.322   3.401   3.245
 3280TIP3    H2 9805   1.205   3.306   3.229
 3281TIP3   OH2 9806   5.381   6.020   4.082
 3281TIP3    H1 9807   5.432   5.948   4.118
 3281TIP3    H2 9808   5.424   6.099   4.116
 3282TIP3   OH2 9809   0.256   1.739   3.882
 3282TIP3    H1 9810   0.230   1.732   3.790
 3282TIP3    H2 9811   0.181   1.706   3.930
 3283TIP3   OH2 9812   6.196   4.271   4.615
 3283TIP3    H1 9813   6.193   4.243   4.523
 3283TIP3    H2 9814   6.193   4.189   4.665
 3284TIP3   OH2 9815   2.231   5.111   4.173
 3284TIP3    H1 9816   2.154   5.146   4.129
 3284TIP3    H2 9817   2.267   5.047   4.112
 3285TIP3   OH2 9818   6.671   0.275   5.756
 3285TIP3    H1 9819   6.710   0.189   5.740
 3285TIP3    H2 9820   6.731   0.318   5.817
 3286TIP3   OH2 9821   2.962   3.983   2.156
 3286TIP3    H1 9822   2.920   3.997   2.240
 3286TIP3    H2 9823   3.029   4.051   2.150
 3287TIP3   OH2 9824   2.302   2.868   2.066
 3287TIP3    H1 9825   2.352   2.926   2.009
 3287TIP3    H2 9826   2.353   2.866   2.148
 3288TIP3   OH2 9827   1.069   4.670   2.930
 3288TIP3    H1 9828   1.137   4.622   2.883
 3288TIP3    H2 9829   1.032   4.605   2.991
 3289TIP3   OH2 9830   4.495   2.667   0.647
 3289TIP3    H1 9831   4.428   2.722   0.607
 3289TIP3    H2 9832   4.540   2.725   0.708
 3290TIP3   OH2 9833   0.560   3.037   3.694
 3290TIP3    H1 9834   0.582   2.946   3.714
 3290TIP3    H2 9835   0.631   3.087   3.735
 3291TIP3   OH2 9836   3.183   3.649   3.993
 3291TIP3    H1 9837   3.223   3.566   3.967
 3291TIP3    H2 9838   3.125   3.626   4.065
 3292TIP3   OH2 9839   2.442   4.110   0.601
 3292TIP3    H1 9840   2.484   4.040   0.652
 3292TIP3    H2 9841   2.498   4.121   0.525
 3293TIP3   OH2 9842   7.080   1.737   5.579
 3293TIP3    H1 9843   7.151   1.717   5.640
 3293TIP3    H2 9844   7.072   1.832   5.581
 3294TIP3   OH2 9845   2.601   4.799   3.450
 3294TIP3    H1 9846   2.594   4.759   3.536
 3294TIP3    H2 9847   2.614   4.893   3.467
 3295TIP3   OH2 9848   5.753   3.268   0.134
 3295TIP3    H1 9849   5.723   3.180   0.152
 3295TIP3    H2 9850   5.674   3.316   0.108
 3296TIP3   OH2 9851   6.754   4.239   1.369
 3296TIP3    H1 9852   6.745   4.172   1.301
 3296TIP3    H2 9853   6.848   4.256   1.374
 3297TIP3   OH2 9854   3.922   6.084   1.433
 3297TIP3    H1 9855   3.921   6.154   1.368
 3297TIP3    H2 9856   3.869   6.118   1.505
 3298TIP3   OH2 9857   6.645   5.624   0.621
 3298TIP3    H1 9858   6.608   5.550   0.670
 3298TIP3    H2 9859   6.738   5.625   0.646
 3299TIP3   OH2 9860   1.449   2.323   2.495
 3299TIP3    H1 9861   1.435   2.354   2.585
 3299TIP3    H2 9862   1.362   2.324   2.455
 3300TIP3   OH2 9863   1.788   2.675   5.630
 3300TIP3    H1 9864   1.835   2.758   5.639
 3300TIP3    H2 9865   1.776   2.663   5.536
 3301TIP3   OH2 9866   6.897   3.527   1.140
 3301TIP3    H1 9867   6.890   3.471   1.063
 3301TIP3    H2 9868   6.860   3.475   1.211
 3302TIP3   OH2 9869   6.098   4.382   0.414
 3302TIP3    H1 9870   6.057   4.466   0.392
 3302TIP3    H2 9871   6.026   4.318   0.411
 3303TIP3   OH2 9872   0.489   0.181   5.299
 3303TIP3    H1 9873   0.570   0.166   5.250
 3303TIP3    H2 9874   0.445   0.251   5.252
 3304TIP3   OH2 9875   1.403   3.702   5.605
 3304TIP3    H1 9876   1.442   3.618   5.580
 3304TIP3    H2 9877   1.315   3.679   5.636
 3305TIP3   OH2 9878   6.728   2.444   0.138
 3305TIP3    H1 9879   6.723   2.426   0.044
 3305TIP3    H2 9880   6.721   2.539   0.145
 3306TIP3   OH2 9881   5.233   2.027   0.541
 3306TIP3    H1 9882   5.266   2.110   0.574
 3306TIP3    H2 9883   5.221   1.973   0.619
 3307TIP3   OH2 9884   1.552   1.644   2.048
 3307TIP3    H1 9885   1.460   1.623   2.028
 3307TIP3    H2 9886   1.597   1.636   1.964
 3308TIP3   OH2 9887   6.023   5.982   0.646
 3308TIP3    H1 9888   6.000   6.074   0.630
 3308TIP3    H2 9889   6.033   5.945   0.558
 3309TIP3   OH2 9890   2.016   0.756   1.174
 3309TIP3    H1 9891   2.089   0.695   1.168
 3309TIP3    H2 9892   1.967   0.742   1.093
 3310TIP3   OH2 9893   5.889   5.907   4.424
 3310TIP3    H1 9894   5.807   5.897   4.472
 3310TIP3    H2 9895   5.945   5.958   4.483
 3311TIP3   OH2 9896   5.425   2.401   1.470
 3311TIP3    H1 9897   5.396   2.470   1.531
 3311TIP3    H2 9898   5.348   2.383   1.417
 3312TIP3   OH2 9899   2.871   2.374   0.822
 3312TIP3    H1 9900   2.938   2.361   0.756
 3312TIP3    H2 9901   2.804   2.427   0.779
 3313TIP3   OH2 9902   5.088   6.545   5.735
 3313TIP3    H1 9903   5.074   6.455   5.708
 3313TIP3    H2 9904   5.141   6.584   5.665
 3314TIP3   OH2 9905   6.334   1.829   1.936
 3314TIP3    H1 9906   6.323   1.843   1.842
 3314TIP3    H2 9907   6.270   1.888   1.977
 3315TIP3   OH2 9908   5.837   3.568   1.972
 3315TIP3    H1 9909   5.883   3.638   2.018
 3315TIP3    H2 9910   5.784   3.612   1.907
 3316TIP3   OH2 9911   4.648   3.794   1.779
 3316TIP3    H1 9912   4.576   3.844   1.740
 3316TIP3    H2 9913   4.727   3.834   1.742
 3317TIP3   OH2 9914   0.298   1.383   2.452
 3317TIP3    H1 9915   0.354   1.449   2.492
 3317TIP3    H2 9916   0.209   1.415   2.465
 3318TIP3   OH2 9917   5.523   0.016   1.463
 3318TIP3    H1 9918   5.532   0.066   1.382
 3318TIP3    H2 9919   5.431   0.028   1.488
 3319TIP3   OH2 9920   0.728   2.777   0.799
 3319TIP3    H1 9921   0.695   2.836   0.867
 3319TIP3    H2 9922   0.800   2.825   0.759
 3320TIP3   OH2 9923   3.680   4.139   1.298
 3320TIP3    H1 9924   3.686   4.044   1.295
 3320TIP3    H2 9925   3.732   4.164   1.375
 3321TIP3   OH2 9926   1.522   3.398   2.924
 3321TIP3    H1 9927   1.590   3.412   2.857
 3321TIP3    H2 9928   1.535   3.471   2.985
 3322TIP3   OH2 9929   0.629   0.366   2.968
 3322TIP3    H1 9930   0.592   0.279   2.984
 3322TIP3    H2 9931   0.687   0.354   2.894
 3323TIP3   OH2 9932   0.012   2.419   0.664
 3323TIP3    H1 9933  -0.048   2.464   0.724
 3323TIP3    H2 9934   0.070   2.488   0.632
 3324TIP3   OH2 9935   1.826   5.054   2.120
 3324TIP3    H1 9936   1.762   5.118   2.087
 3324TIP3    H2 9937   1.841   4.996   2.046
 3325TIP3   OH2 9938   4.975   2.633   0.156
 3325TIP3    H1 9939   5.010   2.585   0.081
 3325TIP3    H2 9940   5.003   2.724   0.142
 3326TIP3   OH2 9941   0.904  -0.002   0.273
 3326TIP3    H1 9942   0.827   0.037   0.313
 3326TIP3    H2 9943   0.975   0.059   0.293
 3327TIP3   OH2 9944   0.884   6.289   0.613
 3327TIP3    H1 9945   0.842   6.374   0.601
 3327TIP3    H2 9946   0.977   6.309   0.624
 3328TIP3   OH2 9947   1.065   2.792   5.842
 3328TIP3    H1 9948   1.100   2.734   5.909
 3328TIP3    H2 9949   1.005   2.737   5.792
 3329TIP3   OH2 9950   4.267   1.497   0.109
 3329TIP3    H1 9951   4.335   1.457   0.164
 3329TIP3    H2 9952   4.215   1.549   0.170
 3330TIP3   OH2 9953   5.810   5.446   0.719
 3330TIP3    H1 9954   5.836   5.475   0.806
 3330TIP3    H2 9955   5.769   5.524   0.679
 3331TIP3   OH2 9956   5.889   3.584   3.352
 3331TIP3    H1 9957   5.909   3.617   3.264
 3331TIP3    H2 9958   5.969   3.600   3.402
 3332TIP3   OH2 9959   4.524   0.086   2.437
 3332TIP3    H1 9960   4.458   0.026   2.471
 3332TIP3    H2 9961   4.579   0.106   2.512
 3333TIP3   OH2 9962   5.749   3.385   1.019
 3333TIP3    H1 9963   5.726   3.366   0.928
 3333TIP3    H2 9964   5.696   3.462   1.041
 3334TIP3   OH2 9965   4.915   2.270   0.565
 3334TIP3    H1 9966   4.920   2.353   0.611
 3334TIP3    H2 9967   4.966   2.209   0.619
 3335TIP3   OH2 9968   5.907   6.411   5.017
 3335TIP3    H1 9969   5.914   6.497   4.974
 3335TIP3    H2 9970   5.816   6.385   5.003
 3336TIP3   OH2 9971   0.213   6.674   2.211
 3336TIP3    H1 9972   0.178   6.585   2.216
 3336TIP3    H2 9973   0.263   6.685   2.291
 3337TIP3   OH2 9974   6.485   1.279   0.458
 3337TIP3    H1 9975   6.404   1.289   0.407
 3337TIP3    H2 9976   6.482   1.352   0.520
 3338TIP3   OH2 9977   5.505   2.345   2.543
 3338TIP3    H1 9978   5.551   2.428   2.550
 3338TIP3    H2 9979   5.442   2.347   2.615
 3339TIP3   OH2 9980   2.966   1.610   3.300
 3339TIP3    H1 9981   2.916   1.689   3.283
 3339TIP3    H2 9982   2.990   1.616   3.392
 3340TIP3   OH2 9983   6.068   4.238   5.316
 3340TIP3    H1 9984   6.006   4.294   5.270
 3340TIP3    H2 9985   6.096   4.290   5.391
 3341TIP3   OH2 9986   2.788   2.316   1.347
 3341TIP3    H1 9987   2.822   2.289   1.262
 3341TIP3    H2 9988   2.865   2.330   1.402
 3342TIP3   OH2 9989   6.305   5.989   2.018
 3342TIP3    H1 9990   6.215   5.991   1.984
 3342TIP3    H2 9991   6.295   5.961   2.109
 3343TIP3   OH2 9992   1.960   0.408   0.627
 3343TIP3    H1 9993   2.044   0.364   0.644
 3343TIP3    H2 9994   1.894   0.347   0.661
 3344TIP3   OH2 9995   4.937   3.199   3.128
 3344TIP3    H1 9996   5.013   3.217   3.073
 3344TIP3    H2 9997   4.968   3.136   3.193
 3345TIP3   OH2 9998   1.011   0.448   2.093
 3345TIP3    H1 9999   1.076   0.518   2.088
 3345TIP3    H210000   0.931   0.488   2.059
 3346TIP3   OH210001   6.943   4.688   0.831
 3346TIP3    H110002   6.988   4.604   0.843
 3346TIP3    H210003   6.913   4.687   0.740
 3347TIP3   OH210004   4.794   0.266   4.145
 3347TIP3    H110005   4.763   0.322   4.217
 3347TIP3    H210006   4.721   0.266   4.083
 3348TIP3   OH210007   6.993   3.648   5.223
 3348TIP3    H110008   7.060   3.635   5.157
 3348TIP3    H210009   6.995   3.568   5.276
 3349TIP3   OH210010   1.500   5.074   3.849
 3349TIP3    H110011   1.587   5.081   3.889
 3349TIP3    H210012   1.463   5.162   3.857
 3350TIP3   OH210013   1.262   5.866   4.464
 3350TIP3    H110014   1.205   5.848   4.390
 3350TIP3    H210015   1.343   5.819   4.445
 3351TIP3   OH210016   0.842   3.373   5.683
 3351TIP3    H110017   0.837   3.447   5.744
 3351TIP3    H210018   0.810   3.409   5.600
 3352TIP3   OH210019   7.105   2.426   3.841
 3352TIP3    H110020   7.149   2.456   3.921
 3352TIP3    H210021   7.039   2.364   3.872
 3353TIP3   OH210022   5.467   2.830   2.859
 3353TIP3    H110023   5.421   2.914   2.851
 3353TIP3    H210024   5.541   2.838   2.800
 3354TIP3   OH210025   0.607   1.850   4.574
 3354TIP3    H110026   0.525   1.871   4.529
 3354TIP3    H210027   0.666   1.820   4.505
 3355TIP3   OH210028   3.516   3.671   5.706
 3355TIP3    H110029   3.551   3.593   5.663
 3355TIP3    H210030   3.589   3.732   5.708
 3356TIP3   OH210031   3.687   1.036   2.433
 3356TIP3    H110032   3.694   1.100   2.503
 3356TIP3    H210033   3.593   1.031   2.414
 3357TIP3   OH210034   5.186   4.020   4.894
 3357TIP3    H110035   5.246   3.976   4.834
 3357TIP3    H210036   5.182   4.110   4.862
 3358TIP3   OH210037   2.827   1.806   5.900
 3358TIP3    H110038   2.738   1.775   5.917
 3358TIP3    H210039   2.819   1.862   5.823
 3359TIP3   OH210040   4.911   4.317   2.955
 3359TIP3    H110041   4.991   4.366   2.937
 3359TIP3    H210042   4.893   4.269   2.874
 3360TIP3   OH210043   0.244   1.323   1.375
 3360TIP3    H110044   0.182   1.363   1.436
 3360TIP3    H210045   0.240   1.377   1.297
 3361TIP3   OH210046   6.685   5.160   2.848
 3361TIP3    H110047   6.707   5.067   2.842
 3361TIP3    H210048   6.591   5.163   2.828
 3362TIP3   OH210049   6.894   1.853   0.260
 3362TIP3    H110050   6.911   1.908   0.184
 3362TIP3    H210051   6.852   1.912   0.323
 3363TIP3   OH210052   0.655   1.492   0.294
 3363TIP3    H110053   0.651   1.483   0.389
 3363TIP3    H210054   0.646   1.587   0.278
 3364TIP3   OH210055   0.726   3.167   4.748
 3364TIP3    H110056   0.732   3.262   4.735
 3364TIP3    H210057   0.806   3.133   4.708
 3365TIP3   OH210058   0.137   4.504   4.850
 3365TIP3    H110059   0.134   4.409   4.864
 3365TIP3    H210060   0.090   4.541   4.925
 3366TIP3   OH210061   4.877   5.017   0.335
 3366TIP3    H110062   4.841   5.086   0.280
 3366TIP3    H210063   4.840   5.033   0.422
 3367TIP3   OH210064   5.487   4.636   5.046
 3367TIP3    H110065   5.414   4.683   5.006
 3367TIP3    H210066   5.446   4.561   5.091
 3368TIP3   OH210067   2.212   5.797   5.326
 3368TIP3    H110068   2.229   5.852   5.402
 3368TIP3    H210069   2.287   5.812   5.268
 3369TIP3   OH210070   0.623   1.076   2.941
 3369TIP3    H110071   0.563   1.150   2.936
 3369TIP3    H210072   0.690   1.105   3.004
 3370TIP3   OH210073   4.116   2.287   5.822
 3370TIP3    H110074   4.165   2.264   5.743
 3370TIP3    H210075   4.038   2.332   5.790
 3371TIP3   OH210076   2.341   6.796   5.404
 3371TIP3    H110077   2.329   6.752   5.488
 3371TIP3    H210078   2.428   6.835   5.410
 3372TIP3   OH210079   2.515   2.726   4.584
 3372TIP3    H110080   2.532   2.744   4.676
 3372TIP3    H210081   2.508   2.631   4.578
 3373TIP3   OH210082   3.174   6.569   4.086
 3373TIP3    H110083   3.221   6.508   4.144
 3373TIP3    H210084   3.167   6.523   4.003
 3374TIP3   OH210085   6.434   4.358   5.706
 3374TIP3    H110086   6.397   4.288   5.651
 3374TIP3    H210087   6.528   4.342   5.704
 3375TIP3   OH210088   4.255   3.945   1.181
 3375TIP3    H110089   4.298   4.027   1.203
 3375TIP3    H210090   4.161   3.963   1.191
 3376TIP3   OH210091   6.692   3.948   3.443
 3376TIP3    H110092   6.728   3.860   3.432
 3376TIP3    H210093   6.614   3.949   3.389
 3377TIP3   OH210094   3.740   2.247   1.165
 3377TIP3    H110095   3.678   2.232   1.094
 3377TIP3    H210096   3.759   2.160   1.200
 3378TIP3   OH210097   3.632   1.828   5.806
 3378TIP3    H110098   3.645   1.922   5.797
 3378TIP3    H210099   3.588   1.802   5.725
 3379TIP3   OH210100   6.661   6.098   1.251
 3379TIP3    H110101   6.591   6.032   1.253
 3379TIP3    H210102   6.675   6.120   1.343
 3380TIP3   OH210103   2.949   0.886   3.875
 3380TIP3    H110104   2.959   0.914   3.966
 3380TIP3    H210105   2.879   0.942   3.841
 3381TIP3   OH210106   6.526   2.410   4.310
 3381TIP3    H110107   6.600   2.470   4.298
 3381TIP3    H210108   6.518   2.366   4.225
 3382TIP3   OH210109   2.319   1.641   1.750
 3382TIP3    H110110   2.379   1.567   1.744
 3382TIP3    H210111   2.348   1.689   1.828
 3383TIP3   OH210112   2.671   6.303   2.619
 3383TIP3    H110113   2.751   6.342   2.654
 3383TIP3    H210114   2.616   6.378   2.597
 3384TIP3   OH210115   4.790   6.496   1.309
 3384TIP3    H110116   4.782   6.491   1.404
 3384TIP3    H210117   4.718   6.442   1.276
 3385TIP3   OH210118   0.122   5.060   5.189
 3385TIP3    H110119   0.036   5.045   5.229
 3385TIP3    H210120   0.184   5.047   5.261
 3386TIP3   OH210121   3.442   0.076   5.601
 3386TIP3    H110122   3.401   0.045   5.520
 3386TIP3    H210123   3.381   0.141   5.635
 3387TIP3   OH210124   5.665   5.879   4.608
 3387TIP3    H110125   5.658   5.975   4.615
 3387TIP3    H210126   5.739   5.856   4.664
 3388TIP3   OH210127   2.965   0.088   4.141
 3388TIP3    H110128   3.041   0.146   4.144
 3388TIP3    H210129   3.001   0.000   4.134
 3389TIP3   OH210130   0.010   0.963   4.934
 3389TIP3    H110131   0.014   0.959   4.838
 3389TIP3    H210132   0.072   1.032   4.958
 3390TIP3   OH210133   4.852   0.158   0.182
 3390TIP3    H110134   4.855   0.062   0.189
 3390TIP3    H210135   4.768   0.182   0.221
 3391TIP3   OH210136   6.940   5.515   4.586
 3391TIP3    H110137   7.008   5.459   4.549
 3391TIP3    H210138   6.941   5.496   4.680
 3392TIP3   OH210139   3.791   4.491   4.917
 3392TIP3    H110140   3.699   4.467   4.907
 3392TIP3    H210141   3.817   4.523   4.830
 3393TIP3   OH210142   4.751   0.497   4.339
 3393TIP3    H110143   4.816   0.563   4.316
 3393TIP3    H210144   4.803   0.421   4.367
 3394TIP3   OH210145   0.188   1.630   3.316
 3394TIP3    H110146   0.208   1.539   3.338
 3394TIP3    H210147   0.261   1.680   3.352
 3395TIP3   OH210148   6.636   1.009   4.600
 3395TIP3    H110149   6.667   0.919   4.605
 3395TIP3    H210150   6.614   1.032   4.691
 3396TIP3   OH210151   6.994   4.345   3.951
 3396TIP3    H110152   6.975   4.402   3.876
 3396TIP3    H210153   7.086   4.320   3.939
 3397TIP3   OH210154   4.798   5.331   0.799
 3397TIP3    H110155   4.865   5.295   0.856
 3397TIP3    H210156   4.831   5.417   0.774
 3398TIP3   OH210157   3.898   0.857   3.733
 3398TIP3    H110158   3.990   0.840   3.712
 3398TIP3    H210159   3.901   0.904   3.816
 3399TIP3   OH210160   3.169   1.222   1.677
 3399TIP3    H110161   3.096   1.186   1.627
 3399TIP3    H210162   3.238   1.236   1.612
 3400TIP3   OH210163   2.211   1.526   2.658
 3400TIP3    H110164   2.287   1.497   2.708
 3400TIP3    H210165   2.203   1.463   2.587
 3401TIP3   OH210166   1.601   3.185   0.843
 3401TIP3    H110167   1.618   3.139   0.925
 3401TIP3    H210168   1.513   3.159   0.818
 3402TIP3   OH210169   5.234   0.560   2.160
 3402TIP3    H110170   5.225   0.487   2.099
 3402TIP3    H210171   5.299   0.617   2.120
 3403TIP3   OH210172   6.677   0.772   5.610
 3403TIP3    H110173   6.590   0.785   5.573
 3403TIP3    H210174   6.687   0.676   5.613
 3404TIP3   OH210175   4.908   5.775   0.528
 3404TIP3    H110176   4.925   5.781   0.434
 3404TIP3    H210177   4.813   5.776   0.535
 3405TIP3   OH210178   1.996   3.679   0.873
 3405TIP3    H110179   2.084   3.676   0.836
 3405TIP3    H210180   2.001   3.623   0.951
 3406TIP3   OH210181   1.340   4.996   3.636
 3406TIP3    H110182   1.409   4.951   3.587
 3406TIP3    H210183   1.383   5.027   3.716
 3407TIP3   OH210184   0.048   4.568   3.838
 3407TIP3    H110185   0.048   4.586   3.932
 3407TIP3    H210186   0.057   4.472   3.832
 3408TIP3   OH210187  -0.018   1.857   1.102
 3408TIP3    H110188   0.035   1.825   1.174
 3408TIP3    H210189   0.045   1.894   1.040
 3409TIP3   OH210190   4.243   1.081   4.663
 3409TIP3    H110191   4.276   1.054   4.749
 3409TIP3    H210192   4.306   1.147   4.633
 3410TIP3   OH210193   3.294   1.014   3.957
 3410TIP3    H110194   3.253   1.091   3.918
 3410TIP3    H210195   3.329   0.965   3.882
 3411TIP3   OH210196   1.266   6.428   1.257
 3411TIP3    H110197   1.340   6.434   1.197
 3411TIP3    H210198   1.276   6.343   1.300
 3412TIP3   OH210199   6.786   1.506   2.028
 3412TIP3    H110200   6.735   1.503   2.109
 3412TIP3    H210201   6.736   1.563   1.970
 3413TIP3   OH210202   1.487   1.167   0.400
 3413TIP3    H110203   1.533   1.189   0.319
 3413TIP3    H210204   1.490   1.071   0.404
 3414TIP3   OH210205   6.773   3.049   0.663
 3414TIP3    H110206   6.760   3.099   0.743
 3414TIP3    H210207   6.764   2.958   0.690
 3415TIP3   OH210208   3.265   6.502   4.389
 3415TIP3    H110209   3.202   6.436   4.360
 3415TIP3    H210210   3.211   6.579   4.408
 3416TIP3   OH210211   0.227   2.906   5.371
 3416TIP3    H110212   0.301   2.964   5.391
 3416TIP3    H210213   0.208   2.863   5.454
 3417TIP3   OH210214   6.604   4.384   2.455
 3417TIP3    H110215   6.661   4.320   2.413
 3417TIP3    H210216   6.517   4.365   2.420
 3418TIP3   OH210217   7.047   4.467   0.627
 3418TIP3    H110218   6.985   4.429   0.688
 3418TIP3    H210219   7.113   4.399   0.613
 3419TIP3   OH210220   5.458   3.453   1.128
 3419TIP3    H110221   5.404   3.374   1.120
 3419TIP3    H210222   5.435   3.490   1.213
 3420TIP3   OH210223   3.105   0.306   5.087
 3420TIP3    H110224   3.067   0.274   5.005
 3420TIP3    H210225   3.188   0.259   5.095
 3421TIP3   OH210226   5.562   0.388   2.102
 3421TIP3    H110227   5.625   0.339   2.155
 3421TIP3    H210228   5.578   0.357   2.013
 3422TIP3   OH210229   5.594   6.490   4.943
 3422TIP3    H110230   5.585   6.425   5.013
 3422TIP3    H210231   5.627   6.568   4.987
 3423TIP3   OH210232   2.172   0.858   2.090
 3423TIP3    H110233   2.171   0.953   2.098
 3423TIP3    H210234   2.185   0.842   1.997
 3424TIP3   OH210235   1.120   4.100   1.578
 3424TIP3    H110236   1.191   4.062   1.525
 3424TIP3    H210237   1.119   4.192   1.554
 3425TIP3   OH210238   2.914   1.952   3.912
 3425TIP3    H110239   2.930   1.937   4.006
 3425TIP3    H210240   2.833   1.904   3.894
 3426TIP3   OH210241   5.594   1.709   5.768
 3426TIP3    H110242   5.525   1.767   5.736
 3426TIP3    H210243   5.571   1.691   5.859
 3427TIP3   OH210244   6.091   4.888   3.052
 3427TIP3    H110245   6.167   4.867   3.107
 3427TIP3    H210246   6.128   4.930   2.975
 3428TIP3   OH210247   4.713   5.242   4.341
 3428TIP3    H110248   4.754   5.241   4.427
 3428TIP3    H210249   4.631   5.194   4.353
 3429TIP3   OH210250   1.488   3.035   4.872
 3429TIP3    H110251   1.451   3.029   4.960
 3429TIP3    H210252   1.421   2.996   4.815
 3430TIP3   OH210253   2.078   6.559   2.603
 3430TIP3    H110254   2.151   6.545   2.663
 3430TIP3    H210255   2.008   6.595   2.657
 3431TIP3   OH210256   3.857   4.196   0.944
 3431TIP3    H110257   3.816   4.253   1.009
 3431TIP3    H210258   3.911   4.255   0.891
 3432TIP3   OH210259   2.848   2.610   3.204
 3432TIP3    H110260   2.758   2.578   3.206
 3432TIP3    H210261   2.864   2.633   3.113
 3433TIP3   OH210262   6.637   3.483   4.552
 3433TIP3    H110263   6.574   3.491   4.480
 3433TIP3    H210264   6.619   3.558   4.609
 3434TIP3   OH210265   5.040   0.862   3.457
 3434TIP3    H110266   5.129   0.896   3.468
 3434TIP3    H210267   5.002   0.863   3.544
 3435TIP3   OH210268   4.438   0.069   1.944
 3435TIP3    H110269   4.454   0.089   2.037
 3435TIP3    H210270   4.443   0.153   1.900
 3436TIP3   OH210271   3.967   4.344   1.641
 3436TIP3    H110272   4.059   4.367   1.655
 3436TIP3    H210273   3.924   4.365   1.724
 3437TIP3   OH210274   2.011   4.643   0.128
 3437TIP3    H110275   1.965   4.680   0.053
 3437TIP3    H210276   2.031   4.718   0.184
 3438TIP3   OH210277   4.690   5.692   3.198
 3438TIP3    H110278   4.687   5.600   3.224
 3438TIP3    H210279   4.777   5.703   3.160
 3439TIP3   OH210280   0.075   6.142   3.599
 3439TIP3    H110281   0.111   6.054   3.607
 3439TIP3    H210282   0.004   6.145   3.664
 3440TIP3   OH210283   6.421   6.251   2.754
 3440TIP3    H110284   6.507   6.270   2.791
 3440TIP3    H210285   6.415   6.309   2.678
 3441TIP3   OH210286   3.997   1.381   4.526
 3441TIP3    H110287   3.991   1.353   4.617
 3441TIP3    H210288   3.915   1.428   4.510
 3442TIP3   OH210289   5.084   5.826   1.798
 3442TIP3    H110290   5.014   5.779   1.754
 3442TIP3    H210291   5.139   5.859   1.727
 3443TIP3   OH210292   5.364   3.314   4.313
 3443TIP3    H110293   5.312   3.239   4.283
 3443TIP3    H210294   5.455   3.282   4.309
 3444TIP3   OH210295   3.132   1.400   3.639
 3444TIP3    H110296   3.141   1.355   3.723
 3444TIP3    H210297   3.220   1.398   3.601
 3445TIP3   OH210298   0.603   4.623   2.036
 3445TIP3    H110299   0.595   4.718   2.040
 3445TIP3    H210300   0.564   4.599   1.951
 3446TIP3   OH210301   5.338   3.135   3.420
 3446TIP3    H110302   5.357   3.173   3.505
 3446TIP3    H210303   5.419   3.145   3.370
 3447TIP3   OH210304   4.672   1.843   4.847
 3447TIP3    H110305   4.718   1.761   4.826
 3447TIP3    H210306   4.597   1.844   4.788
 3448TIP3   OH210307   4.541   5.778   3.382
 3448TIP3    H110308   4.586   5.753   3.301
 3448TIP3    H210309   4.611   5.792   3.446
 3449TIP3   OH210310   5.945   3.366   1.594
 3449TIP3    H110311   5.892   3.395   1.519
 3449TIP3    H210312   6.034   3.358   1.559
 3450TIP3   OH210313   4.023   0.377   5.293
 3450TIP3    H110314   4.088   0.352   5.228
 3450TIP3    H210315   4.038   0.471   5.306
 3451TIP3   OH210316   5.594   3.590   5.222
 3451TIP3    H110317   5.612   3.592   5.128
 3451TIP3    H210318   5.498   3.587   5.229
 3452TIP3   OH210319   0.469   2.551   2.223
 3452TIP3    H110320   0.384   2.563   2.266
 3452TIP3    H210321   0.473   2.458   2.202
 3453TIP3   OH210322   3.595   4.215   4.983
 3453TIP3    H110323   3.555   4.176   5.061
 3453TIP3    H210324   3.539   4.290   4.963
 3454TIP3   OH210325   0.724   1.088   3.779
 3454TIP3    H110326   0.711   1.067   3.687
 3454TIP3    H210327   0.655   1.152   3.799
 3455TIP3   OH210328   5.366   3.083   2.775
 3455TIP3    H110329   5.428   3.156   2.778
 3455TIP3    H210330   5.287   3.116   2.819
 3456TIP3   OH210331   6.024   2.887   4.929
 3456TIP3    H110332   6.107   2.871   4.884
 3456TIP3    H210333   6.024   2.825   5.002
 3457TIP3   OH210334   2.560   6.096   4.040
 3457TIP3    H110335   2.501   6.025   4.065
 3457TIP3    H210336   2.534   6.170   4.095
 3458TIP3   OH210337   6.645   3.110   0.903
 3458TIP3    H110338   6.562   3.140   0.941
 3458TIP3    H210339   6.683   3.054   0.971
 3459TIP3   OH210340   3.014   5.990   4.123
 3459TIP3    H110341   2.950   6.047   4.081
 3459TIP3    H210342   2.998   5.903   4.085
 3460TIP3   OH210343   0.474   5.885   3.031
 3460TIP3    H110344   0.554   5.923   3.066
 3460TIP3    H210345   0.464   5.926   2.945
 3461TIP3   OH210346   4.889   4.453   2.028
 3461TIP3    H110347   4.870   4.437   2.120
 3461TIP3    H210348   4.862   4.373   1.983
 3462TIP3   OH210349   2.957   3.786   0.162
 3462TIP3    H110350   2.895   3.724   0.199
 3462TIP3    H210351   3.042   3.757   0.196
 3463TIP3   OH210352   4.749   3.871   0.826
 3463TIP3    H110353   4.730   3.857   0.733
 3463TIP3    H210354   4.801   3.796   0.852
 3464TIP3   OH210355   5.652   1.564   5.074
 3464TIP3    H110356   5.629   1.475   5.048
 3464TIP3    H210357   5.725   1.553   5.136
 3465TIP3   OH210358   2.196   3.530   4.054
 3465TIP3    H110359   2.188   3.438   4.029
 3465TIP3    H210360   2.290   3.544   4.065
 3466TIP3   OH210361   1.143   6.510   4.671
 3466TIP3    H110362   1.155   6.605   4.676
 3466TIP3    H210363   1.107   6.485   4.756
 3467TIP3   OH210364   6.065   2.221   4.595
 3467TIP3    H110365   6.038   2.216   4.687
 3467TIP3    H210366   6.124   2.296   4.591
 3468TIP3   OH210367   0.559   0.237   3.272
 3468TIP3    H110368   0.591   0.276   3.353
 3468TIP3    H210369   0.496   0.300   3.238
 3469TIP3   OH210370   2.055   6.450   0.717
 3469TIP3    H110371   2.090   6.490   0.796
 3469TIP3    H210372   2.129   6.406   0.677
 3470TIP3   OH210373   5.413   6.794   4.051
 3470TIP3    H110374   5.428   6.714   4.001
 3470TIP3    H210375   5.499   6.814   4.088
 3471TIP3   OH210376   4.586   4.944   0.386
 3471TIP3    H110377   4.544   4.862   0.361
 3471TIP3    H210378   4.634   4.923   0.466
 3472TIP3   OH210379   6.712   3.132   5.634
 3472TIP3    H110380   6.806   3.144   5.625
 3472TIP3    H210381   6.692   3.052   5.586
 3473TIP3   OH210382   2.360   1.440   3.879
 3473TIP3    H110383   2.447   1.435   3.838
 3473TIP3    H210384   2.332   1.530   3.864
 3474TIP3   OH210385   1.139   0.289   1.936
 3474TIP3    H110386   1.143   0.203   1.977
 3474TIP3    H210387   1.098   0.345   2.002
 3475TIP3   OH210388   0.348   2.991   0.861
 3475TIP3    H110389   0.260   2.953   0.872
 3475TIP3    H210390   0.347   3.070   0.916
 3476TIP3   OH210391   3.826   5.120   3.562
 3476TIP3    H110392   3.809   5.030   3.533
 3476TIP3    H210393   3.751   5.170   3.528
 3477TIP3   OH210394   4.387   4.021   5.546
 3477TIP3    H110395   4.460   4.037   5.606
 3477TIP3    H210396   4.309   4.036   5.598
 3478TIP3   OH210397   1.683   1.643   3.480
 3478TIP3    H110398   1.716   1.700   3.549
 3478TIP3    H210399   1.639   1.703   3.419
 3479TIP3   OH210400   1.815   6.136   3.448
 3479TIP3    H110401   1.900   6.130   3.491
 3479TIP3    H210402   1.763   6.065   3.485
 3480TIP3   OH210403   4.359   1.958   3.702
 3480TIP3    H110404   4.361   2.005   3.785
 3480TIP3    H210405   4.314   1.876   3.723
 3481TIP3   OH210406   1.804   0.528   1.221
 3481TIP3    H110407   1.833   0.442   1.251
 3481TIP3    H210408   1.831   0.533   1.130
 3482TIP3   OH210409   3.889   6.452   3.337
 3482TIP3    H110410   3.932   6.523   3.289
 3482TIP3    H210411   3.843   6.403   3.269
 3483TIP3   OH210412   6.938   3.141   2.232
 3483TIP3    H110413   7.026   3.118   2.203
 3483TIP3    H210414   6.908   3.207   2.169
 3484TIP3   OH210415   7.186   0.061   4.028
 3484TIP3    H110416   7.238  -0.016   4.052
 3484TIP3    H210417   7.101   0.046   4.069
 3485TIP3   OH210418   0.188   2.135   5.409
 3485TIP3    H110419   0.260   2.188   5.443
 3485TIP3    H210420   0.137   2.196   5.356
 3486TIP3   OH210421   0.332   2.087   1.484
 3486TIP3    H110422   0.241   2.057   1.479
 3486TIP3    H210423   0.381   2.025   1.431
 3487TIP3   OH210424   5.408   5.424   5.330
 3487TIP3    H110425   5.443   5.372   5.258
 3487TIP3    H210426   5.378   5.359   5.394
 3488TIP3   OH210427   6.057   3.679   1.208
 3488TIP3    H110428   6.147   3.668   1.241
 3488TIP3    H210429   6.064   3.750   1.145
 3489TIP3   OH210430   5.319   1.968   1.430
 3489TIP3    H110431   5.235   1.924   1.418
 3489TIP3    H210432   5.338   2.008   1.345
 3490TIP3   OH210433   4.498   6.224   2.885
 3490TIP3    H110434   4.529   6.285   2.818
 3490TIP3    H210435   4.558   6.237   2.958
 3491TIP3   OH210436   5.726   4.929   2.269
 3491TIP3    H110437   5.743   4.990   2.341
 3491TIP3    H210438   5.786   4.856   2.285
 3492TIP3   OH210439   2.459   4.170   5.432
 3492TIP3    H110440   2.487   4.193   5.521
 3492TIP3    H210441   2.364   4.177   5.435
 3493TIP3   OH210442   1.349   0.532   5.456
 3493TIP3    H110443   1.374   0.514   5.366
 3493TIP3    H210444   1.339   0.445   5.496
 3494TIP3   OH210445   4.020   5.722   2.083
 3494TIP3    H110446   4.064   5.645   2.047
 3494TIP3    H210447   4.032   5.789   2.015
 3495TIP3   OH210448   4.456   1.136   2.323
 3495TIP3    H110449   4.443   1.193   2.247
 3495TIP3    H210450   4.433   1.192   2.398
 3496TIP3   OH210451   4.250   1.292   2.442
 3496TIP3    H110452   4.183   1.353   2.410
 3496TIP3    H210453   4.201   1.217   2.475
 3497TIP3   OH210454   4.573   6.036   0.986
 3497TIP3    H110455   4.561   5.991   0.902
 3497TIP3    H210456   4.631   6.110   0.965
 3498TIP3   OH210457   6.787   5.267   3.544
 3498TIP3    H110458   6.882   5.258   3.548
 3498TIP3    H210459   6.758   5.258   3.634
 3499TIP3   OH210460   5.924   4.837   0.116
 3499TIP3    H110461   6.009   4.817   0.077
 3499TIP3    H210462   5.885   4.900   0.055
 3500TIP3   OH210463   2.222   0.128   5.584
 3500TIP3    H110464   2.181   0.208   5.618
 3500TIP3    H210465   2.159   0.095   5.520
 3501TIP3   OH210466   4.316   3.725   3.172
 3501TIP3    H110467   4.402   3.685   3.170
 3501TIP3    H210468   4.291   3.725   3.264
 3502TIP3   OH210469   4.597   6.508   3.089
 3502TIP3    H110470   4.511   6.495   3.050
 3502TIP3    H210471   4.654   6.447   3.043
 3503TIP3   OH210472   4.591   3.338   2.601
 3503TIP3    H110473   4.664   3.396   2.623
 3503TIP3    H210474   4.535   3.390   2.544
 3504TIP3   OH210475   3.222   1.717   0.841
 3504TIP3    H110476   3.237   1.740   0.750
 3504TIP3    H210477   3.309   1.696   0.875
 3505TIP3   OH210478   2.453   4.963   4.753
 3505TIP3    H110479   2.395   5.038   4.741
 3505TIP3    H210480   2.421   4.898   4.692
 3506TIP3   OH210481   5.349   4.250   1.396
 3506TIP3    H110482   5.411   4.185   1.429
 3506TIP3    H210483   5.403   4.322   1.365
 3507TIP3   OH210484   0.694   3.909   1.626
 3507TIP3    H110485   0.709   4.000   1.652
 3507TIP3    H210486   0.773   3.884   1.579
 3508TIP3   OH210487   6.946   6.754   4.083
 3508TIP3    H110488   6.866   6.778   4.130
 3508TIP3    H210489   6.915   6.723   3.998
 3509TIP3   OH210490   7.180   2.014   3.632
 3509TIP3    H110491   7.177   1.946   3.564
 3509TIP3    H210492   7.263   2.059   3.618
 3510TIP3   OH210493   5.553   5.211   5.033
 3510TIP3    H110494   5.461   5.186   5.026
 3510TIP3    H210495   5.582   5.224   4.943
 3511TIP3   OH210496   5.932   5.013   0.796
 3511TIP3    H110497   5.904   5.081   0.858
 3511TIP3    H210498   6.026   5.026   0.786
 3512TIP3   OH210499   4.690   4.957   1.786
 3512TIP3    H110500   4.736   4.995   1.711
 3512TIP3    H210501   4.674   4.866   1.760
 3513TIP3   OH210502   0.968   6.087   4.816
 3513TIP3    H110503   1.003   6.119   4.899
 3513TIP3    H210504   1.041   6.093   4.754
 3514TIP3   OH210505   1.619   1.963   4.974
 3514TIP3    H110506   1.542   2.013   5.001
 3514TIP3    H210507   1.647   2.005   4.892
 3515TIP3   OH210508   4.112   1.526   2.657
 3515TIP3    H110509   4.078   1.437   2.647
 3515TIP3    H210510   4.051   1.580   2.606
 3516TIP3   OH210511   4.680   1.492   0.790
 3516TIP3    H110512   4.708   1.541   0.867
 3516TIP3    H210513   4.753   1.432   0.772
 3517TIP3   OH210514   5.645   6.721   0.922
 3517TIP3    H110515   5.567   6.666   0.932
 3517TIP3    H210516   5.704   6.691   0.992
 3518TIP3   OH210517   3.910   6.141   5.269
 3518TIP3    H110518   3.991   6.146   5.320
 3518TIP3    H210519   3.845   6.187   5.321
 3519TIP3   OH210520   1.182   5.155   5.886
 3519TIP3    H110521   1.187   5.249   5.871
 3519TIP3    H210522   1.197   5.116   5.799
 3520TIP3   OH210523   4.475   0.952   2.677
 3520TIP3    H110524   4.515   0.935   2.762
 3520TIP3    H210525   4.541   0.925   2.614
 3521TIP3   OH210526   0.890   0.206   0.055
 3521TIP3    H110527   0.916   0.233  -0.033
 3521TIP3    H210528   0.953   0.249   0.113
 3522TIP3   OH210529   2.914   4.306   1.866
 3522TIP3    H110530   2.965   4.317   1.946
 3522TIP3    H210531   2.857   4.231   1.883
 3523TIP3   OH210532   6.322   1.365   1.894
 3523TIP3    H110533   6.282   1.451   1.901
 3523TIP3    H210534   6.351   1.345   1.983
 3524TIP3   OH210535   6.665   2.243   2.198
 3524TIP3    H110536   6.696   2.327   2.165
 3524TIP3    H210537   6.591   2.220   2.141
 3525TIP3   OH210538   4.622   2.423   0.235
 3525TIP3    H110539   4.576   2.383   0.161
 3525TIP3    H210540   4.714   2.419   0.211
 3526TIP3   OH210541   6.805   4.409   4.127
 3526TIP3    H110542   6.720   4.365   4.121
 3526TIP3    H210543   6.862   4.357   4.070
 3527TIP3   OH210544   6.908   4.990   5.597
 3527TIP3    H110545   6.845   5.032   5.656
 3527TIP3    H210546   6.923   4.903   5.635
 3528TIP3   OH210547   1.303   2.130   3.580
 3528TIP3    H110548   1.309   2.225   3.566
 3528TIP3    H210549   1.298   2.120   3.675
 3529TIP3   OH210550   4.414   0.752   2.027
 3529TIP3    H110551   4.376   0.664   2.020
 3529TIP3    H210552   4.345   0.810   1.994
 3530TIP3   OH210553   5.722   0.106   4.045
 3530TIP3    H110554   5.738   0.179   4.105
 3530TIP3    H210555   5.634   0.077   4.065
 3531TIP3   OH210556   6.085   2.820   1.375
 3531TIP3    H110557   6.124   2.835   1.289
 3531TIP3    H210558   6.037   2.901   1.394
 3532TIP3   OH210559   0.226   2.606   0.900
 3532TIP3    H110560   0.209   2.680   0.958
 3532TIP3    H210561   0.280   2.643   0.830
 3533TIP3   OH210562   3.843   1.996   0.679
 3533TIP3    H110563   3.774   2.061   0.664
 3533TIP3    H210564   3.849   1.948   0.597
 3534TIP3   OH210565   3.833   2.211   0.289
 3534TIP3    H110566   3.803   2.302   0.290
 3534TIP3    H210567   3.895   2.205   0.361
 3535TIP3   OH210568   6.410   4.923   2.785
 3535TIP3    H110569   6.504   4.928   2.770
 3535TIP3    H210570   6.374   4.886   2.704
 3536TIP3   OH210571   6.772   0.422   0.033
 3536TIP3    H110572   6.795   0.491   0.095
 3536TIP3    H210573   6.790   0.340   0.081
 3537TIP3   OH210574   4.722   0.110   5.131
 3537TIP3    H110575   4.702   0.065   5.213
 3537TIP3    H210576   4.808   0.078   5.106
 3538TIP3   OH210577   5.046   4.694   3.571
 3538TIP3    H110578   5.088   4.610   3.557
 3538TIP3    H210579   4.952   4.675   3.570
 3539TIP3   OH210580   1.316   2.655   5.703
 3539TIP3    H110581   1.255   2.670   5.776
 3539TIP3    H210582   1.267   2.597   5.644
 3540TIP3   OH210583   5.076   4.391   0.802
 3540TIP3    H110584   5.072   4.297   0.785
 3540TIP3    H210585   5.099   4.431   0.718
 3541TIP3   OH210586   6.916   4.096   1.587
 3541TIP3    H110587   6.993   4.074   1.640
 3541TIP3    H210588   6.869   4.014   1.577
 3542TIP3   OH210589   6.924   1.476   4.528
 3542TIP3    H110590   6.961   1.388   4.540
 3542TIP3    H210591   6.926   1.491   4.434
 3543TIP3   OH210592   6.327   6.411   4.095
 3543TIP3    H110593   6.381   6.370   4.162
 3543TIP3    H210594   6.328   6.504   4.116
 3544TIP3   OH210595  -0.007   2.936   4.425
 3544TIP3    H110596   0.034   2.987   4.495
 3544TIP3    H210597   0.036   2.851   4.427
 3545TIP3   OH210598   3.394   5.100   3.395
 3545TIP3    H110599   3.443   5.177   3.424
 3545TIP3    H210600   3.338   5.077   3.469
 3546TIP3   OH210601   4.915   2.472   1.246
 3546TIP3    H110602   4.873   2.389   1.271
 3546TIP3    H210603   4.869   2.500   1.167
 3547TIP3   OH210604   4.721   4.268   1.087
 3547TIP3    H110605   4.649   4.245   1.145
 3547TIP3    H210606   4.703   4.222   1.005
 3548TIP3   OH210607   2.769   2.208   1.611
 3548TIP3    H110608   2.770   2.116   1.637
 3548TIP3    H210609   2.700   2.213   1.544
 3549TIP3   OH210610   4.428   2.720   3.782
 3549TIP3    H110611   4.347   2.702   3.828
 3549TIP3    H210612   4.497   2.692   3.842
 3550TIP3   OH210613   7.027   1.516   1.319
 3550TIP3    H110614   6.963   1.471   1.264
 3550TIP3    H210615   6.976   1.546   1.395
 3551TIP3   OH210616   2.170   1.475   5.602
 3551TIP3    H110617   2.136   1.465   5.691
 3551TIP3    H210618   2.264   1.483   5.614
 3552TIP3   OH210619   4.419   2.537   3.575
 3552TIP3    H110620   4.412   2.590   3.654
 3552TIP3    H210621   4.494   2.574   3.528
 3553TIP3   OH210622   4.365   1.777   4.898
 3553TIP3    H110623   4.301   1.832   4.943
 3553TIP3    H210624   4.376   1.700   4.955
 3554TIP3   OH210625   6.559   2.868   2.612
 3554TIP3    H110626   6.509   2.909   2.682
 3554TIP3    H210627   6.497   2.862   2.538
 3555TIP3   OH210628   5.978   0.356   4.433
 3555TIP3    H110629   5.976   0.441   4.478
 3555TIP3    H210630   6.064   0.320   4.455
 3556TIP3   OH210631   2.963   3.716   4.571
 3556TIP3    H110632   3.034   3.667   4.531
 3556TIP3    H210633   2.997   3.805   4.580
 3557TIP3   OH210634   4.130   1.251   1.728
 3557TIP3    H110635   4.121   1.157   1.744
 3557TIP3    H210636   4.041   1.285   1.734
 3558TIP3   OH210637   7.093   4.928   0.684
 3558TIP3    H110638   7.091   4.833   0.671
 3558TIP3    H210639   7.025   4.961   0.627
 3559TIP3   OH210640   3.861   2.700   2.584
 3559TIP3    H110641   3.847   2.668   2.495
 3559TIP3    H210642   3.934   2.761   2.575
 3560TIP3   OH210643   6.953   6.563   1.861
 3560TIP3    H110644   6.899   6.570   1.940
 3560TIP3    H210645   7.031   6.614   1.882
 3561TIP3   OH210646   6.025   1.648   3.083
 3561TIP3    H110647   6.031   1.659   2.988
 3561TIP3    H210648   5.971   1.570   3.095
 3562TIP3   OH210649   5.667   6.158   4.778
 3562TIP3    H110650   5.573   6.137   4.780
 3562TIP3    H210651   5.672   6.238   4.726
 3563TIP3   OH210652   5.571   2.294   3.382
 3563TIP3    H110653   5.480   2.316   3.363
 3563TIP3    H210654   5.617   2.313   3.300
 3564TIP3   OH210655   1.766   2.860   0.340
 3564TIP3    H110656   1.700   2.791   0.335
 3564TIP3    H210657   1.833   2.824   0.398
 3565TIP3   OH210658   4.175   6.467   5.422
 3565TIP3    H110659   4.181   6.379   5.460
 3565TIP3    H210660   4.254   6.511   5.452
 3566TIP3   OH210661   0.009   3.670   0.715
 3566TIP3    H110662   0.090   3.654   0.763
 3566TIP3    H210663   0.037   3.677   0.623
 3567TIP3   OH210664   1.606   4.562   4.466
 3567TIP3    H110665   1.561   4.619   4.404
 3567TIP3    H210666   1.696   4.557   4.434
 3568TIP3   OH210667   5.085   6.452   4.272
 3568TIP3    H110668   5.163   6.419   4.226
 3568TIP3    H210669   5.108   6.445   4.365
 3569TIP3   OH210670   2.400   4.160   1.803
 3569TIP3    H110671   2.338   4.228   1.831
 3569TIP3    H210672   2.475   4.171   1.861
 3570TIP3   OH210673   6.726   1.455   4.236
 3570TIP3    H110674   6.722   1.530   4.295
 3570TIP3    H210675   6.674   1.387   4.278
 3571TIP3   OH210676   0.503   5.886   3.515
 3571TIP3    H110677   0.565   5.921   3.450
 3571TIP3    H210678   0.511   5.791   3.506
 3572TIP3   OH210679   4.237   6.622   4.047
 3572TIP3    H110680   4.310   6.561   4.050
 3572TIP3    H210681   4.273   6.704   4.082
 3573TIP3   OH210682   4.681   1.249   0.177
 3573TIP3    H110683   4.714   1.197   0.251
 3573TIP3    H210684   4.761   1.280   0.133
 3574TIP3   OH210685   6.654   6.272   1.057
 3574TIP3    H110686   6.616   6.224   0.983
 3574TIP3    H210687   6.659   6.207   1.127
 3575TIP3   OH210688   6.001   5.620   3.030
 3575TIP3    H110689   5.955   5.612   3.113
 3575TIP3    H210690   6.053   5.540   3.022
 3576TIP3   OH210691   3.981   6.690   2.267
 3576TIP3    H110692   3.985   6.769   2.213
 3576TIP3    H210693   3.907   6.706   2.326
 3577TIP3   OH210694   0.741   1.502   4.931
 3577TIP3    H110695   0.776   1.535   4.848
 3577TIP3    H210696   0.649   1.529   4.931
 3578TIP3   OH210697   1.483   0.211   2.343
 3578TIP3    H110698   1.420   0.139   2.339
 3578TIP3    H210699   1.445   0.274   2.404
 3579TIP3   OH210700   5.245   4.681   1.420
 3579TIP3    H110701   5.241   4.773   1.395
 3579TIP3    H210702   5.208   4.678   1.508
 3580TIP3   OH210703   1.643   1.345   1.750
 3580TIP3    H110704   1.568   1.367   1.806
 3580TIP3    H210705   1.617   1.373   1.663
 3581TIP3   OH210706   0.071   1.507   2.543
 3581TIP3    H110707   0.119   1.464   2.614
 3581TIP3    H210708  -0.005   1.450   2.527
 3582TIP3   OH210709   5.610   1.370   1.567
 3582TIP3    H110710   5.660   1.314   1.626
 3582TIP3    H210711   5.589   1.447   1.620
 3583TIP3   OH210712   4.707   5.619   1.247
 3583TIP3    H110713   4.788   5.570   1.231
 3583TIP3    H210714   4.646   5.586   1.181
 3584TIP3   OH210715   5.863   0.694   0.933
 3584TIP3    H110716   5.779   0.739   0.928
 3584TIP3    H210717   5.925   0.754   0.893
 3585TIP3   OH210718   5.757   5.190   0.604
 3585TIP3    H110719   5.783   5.275   0.641
 3585TIP3    H210720   5.840   5.148   0.582
 3586TIP3   OH210721   3.699   0.016   5.656
 3586TIP3    H110722   3.616   0.056   5.628
 3586TIP3    H210723   3.739  -0.017   5.576
 3587TIP3   OH210724   3.279   2.567   2.366
 3587TIP3    H110725   3.246   2.484   2.332
 3587TIP3    H210726   3.287   2.623   2.289
 3588TIP3   OH210727   4.605   0.640   4.540
 3588TIP3    H110728   4.647   0.604   4.462
 3588TIP3    H210729   4.544   0.572   4.567
 3589TIP3   OH210730   3.084   1.244   0.844
 3589TIP3    H110731   3.131   1.315   0.888
 3589TIP3    H210732   2.994   1.252   0.876
 3590TIP3   OH210733   1.337   4.908   5.608
 3590TIP3    H110734   1.336   4.879   5.516
 3590TIP3    H210735   1.387   4.989   5.606
 3591TIP3   OH210736   5.949   2.604   1.334
 3591TIP3    H110737   5.933   2.599   1.239
 3591TIP3    H210738   5.978   2.694   1.349
 3592TIP3   OH210739   6.175   2.491   4.961
 3592TIP3    H110740   6.247   2.547   4.991
 3592TIP3    H210741   6.215   2.405   4.948
 3593TIP3   OH210742   5.348   1.873   1.106
 3593TIP3    H110743   5.394   1.792   1.127
 3593TIP3    H210744   5.256   1.851   1.115
 3594TIP3   OH210745   0.541   5.571   3.958
 3594TIP3    H110746   0.601   5.583   4.032
 3594TIP3    H210747   0.549   5.652   3.908
 3595TIP3   OH210748   0.320   0.040   5.777
 3595TIP3    H110749   0.230   0.072   5.772
 3595TIP3    H210750   0.373   0.112   5.741
 3596TIP3   OH210751   2.212   3.327   5.608
 3596TIP3    H110752   2.251   3.363   5.529
 3596TIP3    H210753   2.141   3.270   5.576
 3597TIP3   OH210754   2.369   2.049   0.026
 3597TIP3    H110755   2.333   2.086   0.106
 3597TIP3    H210756   2.374   1.955   0.043
 3598TIP3   OH210757   4.891   5.527   5.301
 3598TIP3    H110758   4.803   5.550   5.328
 3598TIP3    H210759   4.883   5.509   5.207
 3599TIP3   OH210760   2.875   3.488   1.887
 3599TIP3    H110761   2.876   3.448   1.974
 3599TIP3    H210762   2.901   3.579   1.902
 3600TIP3   OH210763   3.747   1.392   4.095
 3600TIP3    H110764   3.706   1.353   4.018
 3600TIP3    H210765   3.800   1.464   4.060
 3601TIP3   OH210766   5.718   3.917   2.395
 3601TIP3    H110767   5.719   3.925   2.300
 3601TIP3    H210768   5.797   3.866   2.416
 3602TIP3   OH210769   2.628   3.086   4.890
 3602TIP3    H110770   2.712   3.131   4.895
 3602TIP3    H210771   2.589   3.116   4.808
 3603TIP3   OH210772   4.701   2.116   4.881
 3603TIP3    H110773   4.697   2.020   4.886
 3603TIP3    H210774   4.681   2.137   4.790
 3604TIP3   OH210775   0.119   5.010   1.029
 3604TIP3    H110776   0.093   4.999   1.120
 3604TIP3    H210777   0.204   5.053   1.033
 3605TIP3   OH210778   6.094   5.984   4.690
 3605TIP3    H110779   6.016   5.953   4.736
 3605TIP3    H210780   6.142   6.035   4.755
 3606TIP3   OH210781   1.817   6.346   2.954
 3606TIP3    H110782   1.836   6.400   2.877
 3606TIP3    H210783   1.770   6.405   3.014
 3607TIP3   OH210784   0.588   1.396   5.820
 3607TIP3    H110785   0.629   1.327   5.872
 3607TIP3    H210786   0.577   1.356   5.733
 3608TIP3   OH210787   0.165   4.576   0.692
 3608TIP3    H110788   0.120   4.601   0.773
 3608TIP3    H210789   0.180   4.482   0.700
 3609TIP3   OH210790   1.957   1.594   4.359
 3609TIP3    H110791   1.903   1.543   4.419
 3609TIP3    H210792   1.898   1.620   4.289
 3610TIP3   OH210793   3.322   5.261   1.046
 3610TIP3    H110794   3.338   5.167   1.039
 3610TIP3    H210795   3.274   5.272   1.128
 3611TIP3   OH210796   2.259   0.337   2.154
 3611TIP3    H110797   2.343   0.350   2.110
 3611TIP3    H210798   2.282   0.304   2.241
 3612TIP3   OH210799   0.067   6.505   0.214
 3612TIP3    H110800   0.028   6.592   0.217
 3612TIP3    H210801   0.158   6.518   0.239
 3613TIP3   OH210802   1.369   1.970   5.481
 3613TIP3    H110803   1.383   1.887   5.435
 3613TIP3    H210804   1.391   1.949   5.573
 3614TIP3   OH210805   0.898   1.735   5.633
 3614TIP3    H110806   0.919   1.688   5.552
 3614TIP3    H210807   0.980   1.736   5.682
 3615TIP3   OH210808   4.789   5.819   4.810
 3615TIP3    H110809   4.883   5.803   4.802
 3615TIP3    H210810   4.775   5.827   4.905
 3616TIP3   OH210811   5.645   6.242   4.483
 3616TIP3    H110812   5.642   6.298   4.561
 3616TIP3    H210813   5.735   6.249   4.452
 3617TIP3   OH210814   0.994   1.637   1.357
 3617TIP3    H110815   1.070   1.667   1.307
 3617TIP3    H210816   0.936   1.714   1.359
 3618TIP3   OH210817   0.207   4.849   3.095
 3618TIP3    H110818   0.180   4.870   3.185
 3618TIP3    H210819   0.283   4.905   3.079
 3619TIP3   OH210820   6.749   2.345   1.551
 3619TIP3    H110821   6.664   2.389   1.557
 3619TIP3    H210822   6.749   2.306   1.463
 3620TIP3   OH210823   2.071   1.795   5.634
 3620TIP3    H110824   2.122   1.750   5.702
 3620TIP3    H210825   2.133   1.806   5.562
 3621TIP3   OH210826   1.979   5.127   2.325
 3621TIP3    H110827   1.933   5.105   2.406
 3621TIP3    H210828   1.927   5.086   2.256
 3622TIP3   OH210829   5.516   2.720   0.129
 3622TIP3    H110830   5.504   2.630   0.159
 3622TIP3    H210831   5.571   2.712   0.052
 3623TIP3   OH210832   3.129   1.407   0.247
 3623TIP3    H110833   3.057   1.420   0.308
 3623TIP3    H210834   3.160   1.318   0.265
 3624TIP3   OH210835   6.814   0.711   3.959
 3624TIP3    H110836   6.802   0.726   3.866
 3624TIP3    H210837   6.905   0.735   3.976
 3625TIP3   OH210838   6.573   3.621   5.634
 3625TIP3    H110839   6.631   3.645   5.706
 3625TIP3    H210840   6.622   3.555   5.585
 3626TIP3   OH210841   3.674   4.775   4.960
 3626TIP3    H110842   3.713   4.693   4.989
 3626TIP3    H210843   3.683   4.774   4.864
 3627TIP3   OH210844   2.962   3.168   4.221
 3627TIP3    H110845   2.965   3.165   4.126
 3627TIP3    H210846   3.019   3.097   4.249
 3628TIP3   OH210847   4.812   1.293   4.144
 3628TIP3    H110848   4.799   1.276   4.237
 3628TIP3    H210849   4.867   1.372   4.141
 3629TIP3   OH210850   6.307   4.635   3.628
 3629TIP3    H110851   6.325   4.680   3.711
 3629TIP3    H210852   6.225   4.673   3.597
 3630TIP3   OH210853   1.467   2.249   5.771
 3630TIP3    H110854   1.537   2.304   5.807
 3630TIP3    H210855   1.461   2.175   5.831
 3631TIP3   OH210856   5.264   6.651   2.287
 3631TIP3    H110857   5.283   6.628   2.378
 3631TIP3    H210858   5.271   6.569   2.239
 3632TIP3   OH210859   4.138   3.095   3.089
 3632TIP3    H110860   4.099   3.162   3.032
 3632TIP3    H210861   4.117   3.123   3.178
 3633TIP3   OH210862   2.465   3.106   1.373
 3633TIP3    H110863   2.485   3.046   1.444
 3633TIP3    H210864   2.497   3.062   1.294
 3634TIP3   OH210865   3.066   2.267   1.212
 3634TIP3    H110866   2.982   2.262   1.167
 3634TIP3    H210867   3.129   2.290   1.143
 3635TIP3   OH210868   0.602   2.980   2.898
 3635TIP3    H110869   0.521   2.949   2.938
 3635TIP3    H210870   0.627   2.910   2.837
 3636TIP3   OH210871   5.447   1.931   0.392
 3636TIP3    H110872   5.436   1.836   0.382
 3636TIP3    H210873   5.389   1.955   0.464
 3637TIP3   OH210874   3.918   2.980   3.241
 3637TIP3    H110875   3.911   3.005   3.149
 3637TIP3    H210876   3.862   3.042   3.287
 3638TIP3   OH210877   6.292   5.973   4.408
 3638TIP3    H110878   6.262   5.985   4.498
 3638TIP3    H210879   6.386   5.992   4.412
 3639TIP3   OH210880   5.754   6.491   3.135
 3639TIP3    H110881   5.737   6.509   3.227
 3639TIP3    H210882   5.798   6.406   3.135
 3640TIP3   OH210883   5.759   2.980   1.415
 3640TIP3    H110884   5.834   3.034   1.441
 3640TIP3    H210885   5.781   2.949   1.328
 3641TIP3   OH210886   4.693   2.176   5.748
 3641TIP3    H110887   4.636   2.100   5.734
 3641TIP3    H210888   4.780   2.139   5.762
 3642TIP3   OH210889   1.161   3.122   2.664
 3642TIP3    H110890   1.067   3.140   2.671
 3642TIP3    H210891   1.194   3.191   2.607
 3643TIP3   OH210892   5.445   2.259   0.419
 3643TIP3    H110893   5.477   2.170   0.406
 3643TIP3    H210894   5.427   2.265   0.513
 3644TIP3   OH210895   2.381   3.050   1.883
 3644TIP3    H110896   2.460   3.065   1.830
 3644TIP3    H210897   2.317   3.014   1.822
 3645TIP3   OH210898   3.375   4.758   3.821
 3645TIP3    H110899   3.469   4.775   3.828
 3645TIP3    H210900   3.366   4.664   3.838
 3646TIP3   OH210901   4.265   2.480   1.222
 3646TIP3    H110902   4.294   2.570   1.234
 3646TIP3    H210903   4.325   2.443   1.157
 3647TIP3   OH210904   7.047   3.042   1.136
 3647TIP3    H110905   7.084   2.998   1.212
 3647TIP3    H210906   6.958   3.007   1.129
 3648TIP3   OH210907   3.800   6.718   0.387
 3648TIP3    H110908   3.891   6.743   0.369
 3648TIP3    H210909   3.751   6.801   0.383
 3649TIP3   OH210910   1.747   6.499   4.770
 3649TIP3    H110911   1.769   6.530   4.858
 3649TIP3    H210912   1.829   6.505   4.722
 3650TIP3   OH210913   5.805   0.593   5.599
 3650TIP3    H110914   5.719   0.634   5.610
 3650TIP3    H210915   5.860   0.661   5.560
 3651TIP3   OH210916   3.027   3.142   1.274
 3651TIP3    H110917   2.990   3.055   1.290
 3651TIP3    H210918   3.121   3.126   1.260
 3652TIP3   OH210919   4.806   4.766   5.065
 3652TIP3    H110920   4.768   4.749   5.151
 3652TIP3    H210921   4.898   4.740   5.074
 3653TIP3   OH210922   6.823   1.968   4.822
 3653TIP3    H110923   6.741   1.921   4.838
 3653TIP3    H210924   6.887   1.900   4.804
 3654TIP3   OH210925   0.566   2.817   4.230
 3654TIP3    H110926   0.478   2.856   4.236
 3654TIP3    H210927   0.587   2.820   4.136
 3655TIP3   OH210928   3.755   5.736   3.991
 3655TIP3    H110929   3.794   5.820   4.014
 3655TIP3    H210930   3.722   5.702   4.075
 3656TIP3   OH210931   3.177   3.365   3.911
 3656TIP3    H110932   3.133   3.281   3.899
 3656TIP3    H210933   3.141   3.421   3.842
 3657TIP3   OH210934   6.684   0.322   4.268
 3657TIP3    H110935   6.663   0.403   4.222
 3657TIP3    H210936   6.779   0.316   4.265
 3658TIP3   OH210937   1.920   1.500   2.738
 3658TIP3    H110938   1.980   1.458   2.801
 3658TIP3    H210939   1.966   1.492   2.654
 3659TIP3   OH210940   0.712   6.513   2.895
 3659TIP3    H110941   0.684   6.540   2.982
 3659TIP3    H210942   0.650   6.556   2.835
 3660TIP3   OH210943   0.309   0.866   1.250
 3660TIP3    H110944   0.242   0.934   1.256
 3660TIP3    H210945   0.386   0.904   1.292
 3661TIP3   OH210946   4.454   5.216   0.673
 3661TIP3    H110947   4.483   5.269   0.599
 3661TIP3    H210948   4.385   5.161   0.638
 3662TIP3   OH210949   4.918   2.948   2.172
 3662TIP3    H110950   4.958   3.024   2.215
 3662TIP3    H210951   4.982   2.878   2.185
 3663TIP3   OH210952   6.469   6.311   4.312
 3663TIP3    H110953   6.513   6.328   4.395
 3663TIP3    H210954   6.535   6.265   4.259
 3664TIP3   OH210955   1.676   0.261   5.077
 3664TIP3    H110956   1.705   0.291   5.162
 3664TIP3    H210957   1.643   0.340   5.033
 3665TIP3   OH210958   1.026   0.837   0.641
 3665TIP3    H110959   0.936   0.816   0.669
 3665TIP3    H210960   1.081   0.800   0.710
 3666TIP3   OH210961   3.678   0.917   5.321
 3666TIP3    H110962   3.660   0.993   5.265
 3666TIP3    H210963   3.639   0.939   5.405
 3667TIP3   OH210964   2.235   0.588   0.286
 3667TIP3    H110965   2.154   0.559   0.327
 3667TIP3    H210966   2.219   0.680   0.264
 3668TIP3   OH210967   3.865   1.728   0.812
 3668TIP3    H110968   3.812   1.784   0.756
 3668TIP3    H210969   3.955   1.752   0.792
 3669TIP3   OH210970   2.572   2.528   1.310
 3669TIP3    H110971   2.495   2.499   1.261
 3669TIP3    H210972   2.631   2.453   1.308
 3670TIP3   OH210973   2.744   1.805   3.288
 3670TIP3    H110974   2.766   1.806   3.194
 3670TIP3    H210975   2.782   1.885   3.322
 3671TIP3   OH210976   3.519   5.036   2.314
 3671TIP3    H110977   3.485   4.960   2.362
 3671TIP3    H210978   3.515   5.010   2.222
 3672TIP3   OH210979   1.667   0.795   4.084
 3672TIP3    H110980   1.676   0.725   4.019
 3672TIP3    H210981   1.597   0.851   4.049
 3673TIP3   OH210982   6.325   1.057   0.223
 3673TIP3    H110983   6.316   1.033   0.131
 3673TIP3    H210984   6.384   1.132   0.223
 3674TIP3   OH210985   6.714   6.331   2.757
 3674TIP3    H110986   6.675   6.391   2.694
 3674TIP3    H210987   6.758   6.388   2.820
 3675TIP3   OH210988   3.679   0.251   5.042
 3675TIP3    H110989   3.704   0.340   5.017
 3675TIP3    H210990   3.754   0.198   5.017
 3676TIP3   OH210991   3.401   2.206   1.092
 3676TIP3    H110992   3.328   2.226   1.033
 3676TIP3    H210993   3.479   2.212   1.037
 3677TIP3   OH210994   0.977   5.310   1.069
 3677TIP3    H110995   1.043   5.358   1.119
 3677TIP3    H210996   0.936   5.377   1.014
 3678TIP3   OH210997   5.400   5.038   1.042
 3678TIP3    H110998   5.425   4.998   1.125
 3678TIP3    H210999   5.479   5.082   1.011
 3679TIP3   OH211000   1.198   3.538   5.700
 3679TIP3    H111001   1.182   3.444   5.700
 3679TIP3    H211002   1.240   3.555   5.785
 3680TIP3   OH211003   3.154   5.598   2.867
 3680TIP3    H111004   3.121   5.590   2.957
 3680TIP3    H211005   3.249   5.606   2.877
 3681TIP3   OH211006   1.374   0.021   5.578
 3681TIP3    H111007   1.403   0.089   5.518
 3681TIP3    H211008   1.429   0.032   5.656
 3682TIP3   OH211009   2.318   2.942   3.977
 3682TIP3    H111010   2.351   3.017   3.928
 3682TIP3    H211011   2.262   2.980   4.044
 3683TIP3   OH211012   3.823   2.395   0.519
 3683TIP3    H111013   3.896   2.343   0.486
 3683TIP3    H211014   3.865   2.466   0.569
 3684TIP3   OH211015   5.774   2.937   5.679
 3684TIP3    H111016   5.754   2.849   5.645
 3684TIP3    H211017   5.847   2.923   5.740
 3685TIP3   OH211018   2.518   2.054   3.187
 3685TIP3    H111019   2.452   2.099   3.134
 3685TIP3    H211020   2.489   2.066   3.277
 3686TIP3   OH211021   0.722   0.064   5.662
 3686TIP3    H111022   0.796   0.060   5.723
 3686TIP3    H211023   0.669   0.137   5.695
 3687TIP3   OH211024   2.717   5.612   1.392
 3687TIP3    H111025   2.782   5.665   1.345
 3687TIP3    H211026   2.633   5.647   1.364
 3688TIP3   OH211027   6.848   0.344   1.020
 3688TIP3    H111028   6.937   0.378   1.029
 3688TIP3    H211029   6.860   0.252   0.995
 3689TIP3   OH211030   4.083   2.179   2.965
 3689TIP3    H111031   4.134   2.178   3.045
 3689TIP3    H211032   4.004   2.129   2.986
 3690TIP3   OH211033   1.386   4.303   4.865
 3690TIP3    H111034   1.324   4.363   4.824
 3690TIP3    H211035   1.445   4.360   4.915
 3691TIP3   OH211036   6.953   1.022   3.261
 3691TIP3    H111037   7.040   1.022   3.302
 3691TIP3    H211038   6.970   0.996   3.170
 3692TIP3   OH211039   5.524   2.857   3.383
 3692TIP3    H111040   5.496   2.868   3.474
 3692TIP3    H211041   5.519   2.944   3.345
 3693TIP3   OH211042   1.225   6.411   0.220
 3693TIP3    H111043   1.180   6.459   0.290
 3693TIP3    H211044   1.242   6.476   0.152
 3694TIP3   OH211045   4.188   2.310   1.764
 3694TIP3    H111046   4.217   2.230   1.806
 3694TIP3    H211047   4.239   2.316   1.684
 3695TIP3   OH211048   6.397   5.440   5.394
 3695TIP3    H111049   6.417   5.392   5.475
 3695TIP3    H211050   6.393   5.531   5.421
 3696TIP3   OH211051   3.185   1.517   5.750
 3696TIP3    H111052   3.107   1.569   5.770
 3696TIP3    H211053   3.230   1.508   5.834
 3697TIP3   OH211054   3.052   4.774   4.592
 3697TIP3    H111055   3.138   4.804   4.622
 3697TIP3    H211056   3.071   4.725   4.512
 3698TIP3   OH211057   5.650   1.759   4.694
 3698TIP3    H111058   5.592   1.735   4.766
 3698TIP3    H211059   5.612   1.838   4.657
 3699TIP3   OH211060   6.359   4.607   1.571
 3699TIP3    H111061   6.336   4.616   1.664
 3699TIP3    H211062   6.332   4.518   1.549
 3700TIP3   OH211063   2.501   4.576   3.647
 3700TIP3    H111064   2.468   4.487   3.659
 3700TIP3    H211065   2.437   4.618   3.591
 3701TIP3   OH211066   3.217   3.203   3.435
 3701TIP3    H111067   3.296   3.255   3.419
 3701TIP3    H211068   3.240   3.148   3.510
 3702TIP3   OH211069   3.791   0.397   2.700
 3702TIP3    H111070   3.829   0.347   2.772
 3702TIP3    H211071   3.723   0.450   2.742
 3703TIP3   OH211072   7.127   2.902   5.491
 3703TIP3    H111073   7.177   2.850   5.553
 3703TIP3    H211074   7.065   2.950   5.544
 3704TIP3   OH211075   3.307   1.956   4.282
 3704TIP3    H111076   3.351   2.024   4.334
 3704TIP3    H211077   3.327   1.875   4.329
 3705TIP3   OH211078   6.002   5.663   4.469
 3705TIP3    H111079   5.954   5.738   4.434
 3705TIP3    H211080   5.937   5.594   4.477
 3706TIP3   OH211081   6.249   0.711   4.418
 3706TIP3    H111082   6.153   0.707   4.422
 3706TIP3    H211083   6.273   0.641   4.357
 3707TIP3   OH211084   1.324   5.871   5.270
 3707TIP3    H111085   1.234   5.887   5.241
 3707TIP3    H211086   1.372   5.850   5.189
 3708TIP3   OH211087   3.185   2.963   4.483
 3708TIP3    H111088   3.278   2.956   4.505
 3708TIP3    H211089   3.181   2.952   4.388
 3709TIP3   OH211090   4.354   0.586   1.628
 3709TIP3    H111091   4.425   0.641   1.662
 3709TIP3    H211092   4.355   0.603   1.534
 3710TIP3   OH211093   4.115   0.402   2.248
 3710TIP3    H111094   4.125   0.310   2.274
 3710TIP3    H211095   4.025   0.408   2.215
 3711TIP3   OH211096   6.465   1.357   2.956
 3711TIP3    H111097   6.524   1.281   2.956
 3711TIP3    H211098   6.523   1.432   2.966
 3712TIP3   OH211099   2.629   0.350   5.765
 3712TIP3    H111100   2.567   0.287   5.802
 3712TIP3    H211101   2.573   0.416   5.723
 3713TIP3   OH211102   2.149   3.941   3.961
 3713TIP3    H111103   2.091   3.879   3.915
 3713TIP3    H211104   2.236   3.921   3.927
 3714TIP3   OH211105   2.091   3.795   1.897
 3714TIP3    H111106   2.146   3.716   1.898
 3714TIP3    H211107   2.133   3.852   1.833
 3715TIP3   OH211108   4.714   2.162   4.362
 3715TIP3    H111109   4.639   2.168   4.303
 3715TIP3    H211110   4.690   2.215   4.438
 3716TIP3   OH211111   3.153   3.861   3.354
 3716TIP3    H111112   3.120   3.772   3.338
 3716TIP3    H211113   3.248   3.852   3.350
 3717TIP3   OH211114   1.048   2.735   2.440
 3717TIP3    H111115   1.015   2.768   2.356
 3717TIP3    H211116   1.096   2.655   2.416
 3718TIP3   OH211117   2.985   1.597   4.204
 3718TIP3    H111118   2.951   1.514   4.239
 3718TIP3    H211119   2.931   1.664   4.246
 3719TIP3   OH211120   3.411   0.980   3.169
 3719TIP3    H111121   3.463   0.930   3.233
 3719TIP3    H211122   3.324   0.986   3.208
 3720TIP3   OH211123   6.204   6.435   0.614
 3720TIP3    H111124   6.240   6.415   0.528
 3720TIP3    H211125   6.113   6.407   0.610
 3721TIP3   OH211126   5.386   1.323   4.237
 3721TIP3    H111127   5.328   1.263   4.190
 3721TIP3    H211128   5.445   1.358   4.170
 3722TIP3   OH211129   0.149   4.711   0.121
 3722TIP3    H111130   0.067   4.756   0.143
 3722TIP3    H211131   0.184   4.761   0.047
 3723TIP3   OH211132   3.490   5.110   2.915
 3723TIP3    H111133   3.436   5.081   2.990
 3723TIP3    H211134   3.499   5.205   2.928
 3724TIP3   OH211135   1.595   1.522   1.203
 3724TIP3    H111136   1.575   1.428   1.206
 3724TIP3    H211137   1.604   1.541   1.109
 3725TIP3   OH211138   1.407   5.248   0.561
 3725TIP3    H111139   1.389   5.339   0.583
 3725TIP3    H211140   1.387   5.242   0.467
 3726TIP3   OH211141   1.448   6.470   4.034
 3726TIP3    H111142   1.395   6.401   4.075
 3726TIP3    H211143   1.456   6.538   4.102
 3727TIP3   OH211144   0.454   1.376   5.165
 3727TIP3    H111145   0.428   1.318   5.094
 3727TIP3    H211146   0.542   1.347   5.188
 3728TIP3   OH211147   6.350   4.788   3.168
 3728TIP3    H111148   6.431   4.821   3.128
 3728TIP3    H211149   6.348   4.830   3.254
 3729TIP3   OH211150   2.334   1.023   0.662
 3729TIP3    H111151   2.249   1.046   0.624
 3729TIP3    H211152   2.375   0.967   0.597
 3730TIP3   OH211153   6.161   3.169   4.865
 3730TIP3    H111154   6.227   3.181   4.933
 3730TIP3    H211155   6.078   3.165   4.912
 3731TIP3   OH211156   1.540   3.559   3.599
 3731TIP3    H111157   1.526   3.643   3.643
 3731TIP3    H211158   1.454   3.533   3.568
 3732TIP3   OH211159   4.444   4.011   3.995
 3732TIP3    H111160   4.525   4.055   4.019
 3732TIP3    H211161   4.471   3.920   3.977
 3733TIP3   OH211162   4.292   5.039   4.966
 3733TIP3    H111163   4.251   5.113   5.012
 3733TIP3    H211164   4.352   5.079   4.904
 3734TIP3   OH211165   2.031   2.282   3.660
 3734TIP3    H111166   2.118   2.320   3.643
 3734TIP3    H211167   1.974   2.359   3.668
 3735TIP3   OH211168   4.849   3.552   3.861
 3735TIP3    H111169   4.919   3.595   3.812
 3735TIP3    H211170   4.782   3.532   3.795
 3736TIP3   OH211171   7.095   2.256   2.998
 3736TIP3    H111172   7.129   2.232   2.912
 3736TIP3    H211173   7.061   2.345   2.986
 3737TIP3   OH211174   1.594   2.716   5.859
 3737TIP3    H111175   1.531   2.712   5.930
 3737TIP3    H211176   1.677   2.736   5.902
 3738TIP3   OH211177   2.702   3.431   4.885
 3738TIP3    H111178   2.620   3.466   4.921
 3738TIP3    H211179   2.697   3.450   4.791
 3739TIP3   OH211180   6.376   5.837   0.461
 3739TIP3    H111181   6.415   5.896   0.396
 3739TIP3    H211182   6.351   5.759   0.411
 3740TIP3   OH211183   2.858   6.446   2.743
 3740TIP3    H111184   2.917   6.379   2.779
 3740TIP3    H211185   2.915   6.502   2.690
 3741TIP3   OH211186   4.108   6.075   2.295
 3741TIP3    H111187   4.111   6.171   2.291
 3741TIP3    H211188   4.115   6.055   2.388
 3742TIP3   OH211189   6.606   4.827   2.370
 3742TIP3    H111190   6.546   4.886   2.415
 3742TIP3    H211191   6.627   4.760   2.435
 3743TIP3   OH211192   4.246   5.081   0.271
 3743TIP3    H111193   4.261   4.989   0.248
 3743TIP3    H211194   4.334   5.116   0.285
 3744TIP3   OH211195   5.106   3.087   3.319
 3744TIP3    H111196   5.194   3.116   3.344
 3744TIP3    H211197   5.117   2.995   3.294
 3745TIP3   OH211198   6.568   0.984   1.626
 3745TIP3    H111199   6.606   1.007   1.712
 3745TIP3    H211200   6.576   1.064   1.575
 3746TIP3   OH211201   1.037   0.537   3.502
 3746TIP3    H111202   1.090   0.596   3.449
 3746TIP3    H211203   1.044   0.452   3.458
 3747TIP3   OH211204   1.418   5.971   1.086
 3747TIP3    H111205   1.511   5.958   1.066
 3747TIP3    H211206   1.386   5.883   1.107
 3748TIP3   OH211207   1.651   4.540   5.328
 3748TIP3    H111208   1.730   4.541   5.382
 3748TIP3    H211209   1.671   4.598   5.255
 3749TIP3   OH211210   5.706   6.694   5.119
 3749TIP3    H111211   5.678   6.785   5.118
 3749TIP3    H211212   5.798   6.697   5.143
 3750TIP3   OH211213   2.451   1.486   5.533
 3750TIP3    H111214   2.445   1.397   5.499
 3750TIP3    H211215   2.454   1.542   5.456
 3751TIP3   OH211216   2.755   5.268   3.408
 3751TIP3    H111217   2.819   5.315   3.461
 3751TIP3    H211218   2.796   5.259   3.322
 3752TIP3   OH211219   2.170   5.820   5.770
 3752TIP3    H111220   2.193   5.913   5.765
 3752TIP3    H211221   2.075   5.819   5.775
 3753TIP3   OH211222   7.215   2.473   5.829
 3753TIP3    H111223   7.216   2.445   5.737
 3753TIP3    H211224   7.211   2.568   5.825
 3754TIP3   OH211225   6.697   6.164   1.505
 3754TIP3    H111226   6.755   6.214   1.564
 3754TIP3    H211227   6.618   6.148   1.557
 3755TIP3   OH211228   2.799   5.188   4.356
 3755TIP3    H111229   2.788   5.123   4.426
 3755TIP3    H211230   2.893   5.189   4.339
 3756TIP3   OH211231   2.815   0.183   5.648
 3756TIP3    H111232   2.780   0.098   5.675
 3756TIP3    H211233   2.750   0.246   5.676
 3757TIP3   OH211234   5.444   3.734   2.309
 3757TIP3    H111235   5.515   3.673   2.291
 3757TIP3    H211236   5.449   3.799   2.239
 3758TIP3   OH211237   4.084   0.722   4.400
 3758TIP3    H111238   4.007   0.668   4.414
 3758TIP3    H211239   4.059   0.809   4.433
 3759TIP3   OH211240   3.154   5.654   5.458
 3759TIP3    H111241   3.108   5.713   5.397
 3759TIP3    H211242   3.206   5.713   5.513
 3760TIP3   OH211243   0.597   4.714   4.956
 3760TIP3    H111244   0.614   4.653   5.028
 3760TIP3    H211245   0.550   4.661   4.891
 3761TIP3   OH211246   0.156   1.337   2.779
 3761TIP3    H111247   0.130   1.307   2.866
 3761TIP3    H211248   0.220   1.406   2.795
 3762TIP3   OH211249   0.185   6.047   2.938
 3762TIP3    H111250   0.206   6.135   2.908
 3762TIP3    H211251   0.224   6.042   3.026
 3763TIP3   OH211252   4.444   6.424   1.720
 3763TIP3    H111253   4.476   6.501   1.767
 3763TIP3    H211254   4.395   6.375   1.787
 3764TIP3   OH211255   7.031   1.263   2.782
 3764TIP3    H111256   7.028   1.350   2.822
 3764TIP3    H211257   7.062   1.279   2.693
 3765TIP3   OH211258   5.550   2.079   4.815
 3765TIP3    H111259   5.578   2.171   4.815
 3765TIP3    H211260   5.567   2.049   4.905
 3766TIP3   OH211261   2.620   0.516   1.089
 3766TIP3    H111262   2.572   0.448   1.135
 3766TIP3    H211263   2.685   0.547   1.151
 3767TIP3   OH211264   0.789   5.450   1.246
 3767TIP3    H111265   0.810   5.362   1.215
 3767TIP3    H211266   0.862   5.504   1.216
 3768TIP3   OH211267   0.129   3.127   1.107
 3768TIP3    H111268   0.183   3.202   1.083
 3768TIP3    H211269   0.050   3.166   1.144
 3769TIP3   OH211270   1.501   0.405   3.207
 3769TIP3    H111271   1.559   0.329   3.201
 3769TIP3    H211272   1.421   0.371   3.247
 3770TIP3   OH211273   2.530   0.038   0.635
 3770TIP3    H111274   2.489  -0.029   0.581
 3770TIP3    H211275   2.611   0.059   0.588
 3771TIP3   OH211276   1.118   6.363   5.260
 3771TIP3    H111277   1.202   6.408   5.246
 3771TIP3    H211278   1.105   6.312   5.180
 3772TIP3   OH211279   5.110   3.543   3.631
 3772TIP3    H111280   5.053   3.466   3.632
 3772TIP3    H211281   5.156   3.540   3.715
 3773TIP3   OH211282   3.907   2.649   0.350
 3773TIP3    H111283   3.845   2.668   0.421
 3773TIP3    H211284   3.864   2.582   0.297
 3774TIP3   OH211285   1.474   1.341   1.999
 3774TIP3    H111286   1.452   1.253   2.029
 3774TIP3    H211287   1.390   1.388   2.001
 3775TIP3   OH211288   5.822   4.783   5.710
 3775TIP3    H111289   5.790   4.804   5.798
 3775TIP3    H211290   5.764   4.713   5.680
 3776TIP3   OH211291   3.284   5.612   5.075
 3776TIP3    H111292   3.229   5.578   5.004
 3776TIP3    H211293   3.225   5.664   5.129
 3777TIP3   OH211294   7.146   6.122   0.654
 3777TIP3    H111295   7.075   6.077   0.607
 3777TIP3    H211296   7.107   6.146   0.738
 3778TIP3   OH211297   3.688   6.089   3.451
 3778TIP3    H111298   3.634   6.011   3.459
 3778TIP3    H211299   3.658   6.146   3.522
 3779TIP3   OH211300   4.501   4.420   3.257
 3779TIP3    H111301   4.590   4.447   3.236
 3779TIP3    H211302   4.497   4.328   3.233
 3780TIP3   OH211303   4.433   3.947   2.596
 3780TIP3    H111304   4.469   4.030   2.564
 3780TIP3    H211305   4.492   3.880   2.561
 3781TIP3   OH211306   2.466   2.948   1.112
 3781TIP3    H111307   2.508   3.023   1.070
 3781TIP3    H211308   2.373   2.958   1.092
 3782TIP3   OH211309   7.060   2.942   4.788
 3782TIP3    H111310   7.132   2.989   4.829
 3782TIP3    H211311   7.010   2.906   4.861
 3783TIP3   OH211312   5.574   5.455   2.015
 3783TIP3    H111313   5.608   5.440   2.104
 3783TIP3    H211314   5.597   5.546   1.996
 3784TIP3   OH211315   2.845   6.267   4.998
 3784TIP3    H111316   2.874   6.202   4.934
 3784TIP3    H211317   2.770   6.227   5.041
 3785TIP3   OH211318   3.026   5.276   5.665
 3785TIP3    H111319   3.030   5.181   5.652
 3785TIP3    H211320   3.012   5.311   5.577
 3786TIP3   OH211321   0.671   0.367   3.821
 3786TIP3    H111322   0.615   0.305   3.775
 3786TIP3    H211323   0.719   0.313   3.885
 3787TIP3   OH211324   5.718   0.240   1.496
 3787TIP3    H111325   5.658   0.171   1.525
 3787TIP3    H211326   5.802   0.217   1.537
 3788TIP3   OH211327   5.740   4.593   4.960
 3788TIP3    H111328   5.671   4.648   4.997
 3788TIP3    H211329   5.820   4.646   4.967
 3789TIP3   OH211330   6.719   5.962   0.882
 3789TIP3    H111331   6.640   5.930   0.839
 3789TIP3    H211332   6.751   6.031   0.824
 3790TIP3   OH211333   0.980   2.413   1.342
 3790TIP3    H111334   0.960   2.365   1.422
 3790TIP3    H211335   1.060   2.461   1.363
 3791TIP3   OH211336   0.690   4.537   5.200
 3791TIP3    H111337   0.781   4.554   5.175
 3791TIP3    H211338   0.696   4.495   5.286
 3792TIP3   OH211339   5.816   6.439   2.743
 3792TIP3    H111340   5.784   6.360   2.787
 3792TIP3    H211341   5.776   6.512   2.791
 3793TIP3   OH211342   2.735   1.157   4.116
 3793TIP3    H111343   2.782   1.085   4.158
 3793TIP3    H211344   2.665   1.179   4.177
 3794TIP3   OH211345   5.434   0.840   4.611
 3794TIP3    H111346   5.401   0.832   4.522
 3794TIP3    H211347   5.366   0.890   4.657
 3795TIP3   OH211348   0.876   1.104   0.047
 3795TIP3    H111349   0.860   1.012   0.024
 3795TIP3    H211350   0.876   1.105   0.143
 3796TIP3   OH211351   6.107   2.132   2.834
 3796TIP3    H111352   6.032   2.074   2.824
 3796TIP3    H211353   6.161   2.114   2.757
 3797TIP3   OH211354   6.625   4.130   3.213
 3797TIP3    H111355   6.613   4.192   3.141
 3797TIP3    H211356   6.687   4.173   3.271
 3798TIP3   OH211357   1.376   2.494   0.057
 3798TIP3    H111358   1.340   2.406   0.051
 3798TIP3    H211359   1.350   2.525   0.143
 3799TIP3   OH211360   2.164   6.448   0.321
 3799TIP3    H111361   2.154   6.491   0.236
 3799TIP3    H211362   2.076   6.415   0.341
 3800TIP3   OH211363   0.294   1.407   5.898
 3800TIP3    H111364   0.390   1.400   5.900
 3800TIP3    H211365   0.267   1.338   5.838
 3801TIP3   OH211366   5.040   3.664   0.802
 3801TIP3    H111367   5.111   3.613   0.840
 3801TIP3    H211368   4.990   3.695   0.877
 3802TIP3   OH211369   5.805   5.648   0.903
 3802TIP3    H111370   5.740   5.689   0.846
 3802TIP3    H211371   5.876   5.712   0.907
 3803TIP3   OH211372   6.638   0.731   4.679
 3803TIP3    H111373   6.596   0.701   4.760
 3803TIP3    H211374   6.731   0.710   4.691
 3804TIP3   OH211375   6.822   3.183   3.540
 3804TIP3    H111376   6.853   3.237   3.612
 3804TIP3    H211377   6.860   3.097   3.557
 3805TIP3   OH211378   3.974   0.916   5.187
 3805TIP3    H111379   3.994   0.924   5.094
 3805TIP3    H211380   3.879   0.932   5.193
 3806TIP3   OH211381   4.636   1.022   0.016
 3806TIP3    H111382   4.583   1.019  -0.064
 3806TIP3    H211383   4.627   1.112   0.048
 3807TIP3   OH211384   2.918   2.237   0.219
 3807TIP3    H111385   2.830   2.229   0.182
 3807TIP3    H211386   2.903   2.246   0.314
 3808TIP3   OH211387   6.140   1.336   0.692
 3808TIP3    H111388   6.196   1.351   0.768
 3808TIP3    H211389   6.056   1.310   0.729
 3809TIP3   OH211390   4.392   6.554   3.773
 3809TIP3    H111391   4.319   6.503   3.739
 3809TIP3    H211392   4.359   6.644   3.775
 3810TIP3   OH211393   0.168   4.466   1.548
 3810TIP3    H111394   0.208   4.547   1.517
 3810TIP3    H211395   0.114   4.493   1.622
 3811TIP3   OH211396   3.094   0.857   3.615
 3811TIP3    H111397   3.181   0.885   3.640
 3811TIP3    H211398   3.046   0.850   3.698
 3812TIP3   OH211399   4.853   5.168   3.304
 3812TIP3    H111400   4.921   5.230   3.327
 3812TIP3    H211401   4.838   5.181   3.210
 3813TIP3   OH211402   5.249   6.076   5.744
 3813TIP3    H111403   5.209   6.127   5.814
 3813TIP3    H211404   5.288   6.001   5.789
 3814TIP3   OH211405   2.253   1.511   2.357
 3814TIP3    H111406   2.254   1.553   2.271
 3814TIP3    H211407   2.315   1.561   2.410
 3815TIP3   OH211408   5.077   5.745   4.385
 3815TIP3    H111409   5.121   5.685   4.324
 3815TIP3    H211410   5.043   5.815   4.329
 3816TIP3   OH211411   0.165   2.995   0.584
 3816TIP3    H111412   0.242   2.938   0.578
 3816TIP3    H211413   0.127   2.975   0.669
 3817TIP3   OH211414   1.683   6.368   3.390
 3817TIP3    H111415   1.668   6.411   3.474
 3817TIP3    H211416   1.736   6.291   3.412
 3818TIP3   OH211417   5.348   5.396   4.558
 3818TIP3    H111418   5.340   5.489   4.537
 3818TIP3    H211419   5.393   5.395   4.643
 3819TIP3   OH211420   5.318   2.775   5.051
 3819TIP3    H111421   5.262   2.715   5.100
 3819TIP3    H211422   5.260   2.812   4.984
 3820TIP3   OH211423   6.578   4.180   1.599
 3820TIP3    H111424   6.644   4.141   1.543
 3820TIP3    H211425   6.614   4.173   1.688
 3821TIP3   OH211426   1.376   6.778   2.037
 3821TIP3    H111427   1.428   6.802   2.114
 3821TIP3    H211428   1.316   6.711   2.069
 3822TIP3   OH211429   0.695   6.599   0.103
 3822TIP3    H111430   0.677   6.531   0.038
 3822TIP3    H211431   0.621   6.659   0.096
 3823TIP3   OH211432   1.470   3.680   2.201
 3823TIP3    H111433   1.433   3.712   2.119
 3823TIP3    H211434   1.399   3.686   2.264
 3824TIP3   OH211435   1.755   6.727   2.647
 3824TIP3    H111436   1.704   6.740   2.567
 3824TIP3    H211437   1.770   6.815   2.680
 3825TIP3   OH211438   3.786   1.354   2.352
 3825TIP3    H111439   3.737   1.401   2.285
 3825TIP3    H211440   3.725   1.350   2.427
 3826TIP3   OH211441   3.959   0.970   2.015
 3826TIP3    H111442   3.944   1.026   2.091
 3826TIP3    H211443   3.916   0.887   2.036
 3827TIP3   OH211444   5.263   3.961   4.156
 3827TIP3    H111445   5.323   3.937   4.086
 3827TIP3    H211446   5.294   4.046   4.187
 3828TIP3   OH211447   2.335   2.877   3.160
 3828TIP3    H111448   2.413   2.927   3.133
 3828TIP3    H211449   2.366   2.822   3.232
 3829TIP3   OH211450   2.569   0.285   2.343
 3829TIP3    H111451   2.507   0.227   2.388
 3829TIP3    H211452   2.639   0.299   2.407
 3830TIP3   OH211453   4.659   5.851   1.406
 3830TIP3    H111454   4.741   5.899   1.407
 3830TIP3    H211455   4.670   5.785   1.338
 3831TIP3   OH211456   4.695   4.193   5.377
 3831TIP3    H111457   4.618   4.236   5.339
 3831TIP3    H211458   4.705   4.113   5.326
 3832TIP3   OH211459   2.817   1.788   4.484
 3832TIP3    H111460   2.810   1.834   4.400
 3832TIP3    H211461   2.884   1.837   4.532
 3833TIP3   OH211462   3.783   0.817   4.431
 3833TIP3    H111463   3.796   0.723   4.446
 3833TIP3    H211464   3.769   0.824   4.337
 3834TIP3   OH211465   0.876   5.220   5.216
 3834TIP3    H111466   0.871   5.124   5.209
 3834TIP3    H211467   0.807   5.252   5.158
 3835TIP3   OH211468   1.385   5.132   4.525
 3835TIP3    H111469   1.375   5.169   4.438
 3835TIP3    H211470   1.475   5.100   4.528
 3836TIP3   OH211471   2.949   6.316   3.517
 3836TIP3    H111472   2.894   6.360   3.582
 3836TIP3    H211473   2.936   6.223   3.532
 3837TIP3   OH211474   6.734   1.861   2.837
 3837TIP3    H111475   6.718   1.777   2.795
 3837TIP3    H211476   6.795   1.907   2.779
 3838TIP3   OH211477   4.855   4.408   5.483
 3838TIP3    H111478   4.858   4.403   5.579
 3838TIP3    H211479   4.786   4.347   5.458
 3839TIP3   OH211480   5.189   3.539   3.903
 3839TIP3    H111481   5.153   3.459   3.942
 3839TIP3    H211482   5.196   3.600   3.976
 3840TIP3   OH211483   3.867   3.709   5.210
 3840TIP3    H111484   3.821   3.633   5.245
 3840TIP3    H211485   3.898   3.682   5.124
 3841TIP3   OH211486   3.505   1.851   3.774
 3841TIP3    H111487   3.575   1.893   3.823
 3841TIP3    H211488   3.424   1.884   3.813
 3842TIP3   OH211489   1.385   6.539   0.850
 3842TIP3    H111490   1.329   6.551   0.927
 3842TIP3    H211491   1.368   6.449   0.822
 3843TIP3   OH211492   6.035   1.875   3.267
 3843TIP3    H111493   6.067   1.827   3.190
 3843TIP3    H211494   6.024   1.807   3.333
 3844TIP3   OH211495   0.295   0.358   3.143
 3844TIP3    H111496   0.209   0.372   3.184
 3844TIP3    H211497   0.323   0.445   3.116
 3845TIP3   OH211498   0.881   1.877   3.972
 3845TIP3    H111499   0.834   1.794   3.973
 3845TIP3    H211500   0.964   1.858   3.927
 3846TIP3   OH211501   2.509   5.259   2.941
 3846TIP3    H111502   2.436   5.203   2.965
 3846TIP3    H211503   2.552   5.213   2.868
 3847TIP3   OH211504   1.659   6.610   0.864
 3847TIP3    H111505   1.571   6.573   0.860
 3847TIP3    H211506   1.696   6.596   0.777
 3848TIP3   OH211507   6.180   5.916   2.245
 3848TIP3    H111508   6.166   6.002   2.286
 3848TIP3    H211509   6.119   5.858   2.290
 3849TIP3   OH211510   5.194   1.445   3.548
 3849TIP3    H111511   5.241   1.526   3.568
 3849TIP3    H211512   5.262   1.378   3.546
 3850TIP3   OH211513   6.028   6.405   4.191
 3850TIP3    H111514   6.014   6.339   4.124
 3850TIP3    H211515   6.117   6.388   4.223
 3851TIP3   OH211516   2.734   1.485   5.409
 3851TIP3    H111517   2.732   1.416   5.475
 3851TIP3    H211518   2.726   1.566   5.460
 3852TIP3   OH211519   3.446   3.840   1.462
 3852TIP3    H111520   3.431   3.752   1.498
 3852TIP3    H211521   3.367   3.888   1.482
 3853TIP3   OH211522   0.682   3.947   2.417
 3853TIP3    H111523   0.713   3.863   2.384
 3853TIP3    H211524   0.611   3.971   2.358
 3854TIP3   OH211525   3.592   3.846   2.095
 3854TIP3    H111526   3.644   3.922   2.070
 3854TIP3    H211527   3.624   3.823   2.182
 3855TIP3   OH211528   1.679   1.021   4.712
 3855TIP3    H111529   1.729   0.998   4.634
 3855TIP3    H211530   1.714   0.964   4.781
 3856TIP3   OH211531   1.227   4.288   4.270
 3856TIP3    H111532   1.319   4.311   4.281
 3856TIP3    H211533   1.215   4.209   4.322
 3857TIP3   OH211534   4.691   1.601   1.069
 3857TIP3    H111535   4.613   1.657   1.079
 3857TIP3    H211536   4.733   1.603   1.155
 3858TIP3   OH211537   6.437   3.629   3.168
 3858TIP3    H111538   6.450   3.723   3.182
 3858TIP3    H211539   6.505   3.604   3.105
 3859TIP3   OH211540   1.277   3.474   3.536
 3859TIP3    H111541   1.210   3.542   3.541
 3859TIP3    H211542   1.262   3.432   3.452
 3860TIP3   OH211543   6.178   4.783   5.744
 3860TIP3    H111544   6.264   4.810   5.777
 3860TIP3    H211545   6.120   4.857   5.764
 3861TIP3   OH211546   4.682   0.055   3.460
 3861TIP3    H111547   4.604   0.043   3.514
 3861TIP3    H211548   4.677   0.146   3.430
 3862TIP3   OH211549   0.182   2.976   1.529
 3862TIP3    H111550   0.099   2.935   1.507
 3862TIP3    H211551   0.221   2.917   1.594
 3863TIP3   OH211552   3.632   0.339   3.189
 3863TIP3    H111553   3.669   0.417   3.149
 3863TIP3    H211554   3.565   0.372   3.249
 3864TIP3   OH211555   3.068   1.524   3.051
 3864TIP3    H111556   3.015   1.557   3.124
 3864TIP3    H211557   3.030   1.566   2.974
 3865TIP3   OH211558   1.822   2.223   4.349
 3865TIP3    H111559   1.754   2.281   4.383
 3865TIP3    H211560   1.786   2.188   4.267
 3866TIP3   OH211561   2.646   0.799   5.776
 3866TIP3    H111562   2.732   0.840   5.783
 3866TIP3    H211563   2.650   0.751   5.693
 3867TIP3   OH211564   6.880   4.359   1.640
 3867TIP3    H111565   6.860   4.270   1.608
 3867TIP3    H211566   6.899   4.347   1.733
 3868TIP3   OH211567   0.679   6.810   0.873
 3868TIP3    H111568   0.733   6.750   0.924
 3868TIP3    H211569   0.598   6.762   0.857
 3869TIP3   OH211570   4.102   3.850   3.064
 3869TIP3    H111571   4.110   3.925   3.122
 3869TIP3    H211572   4.185   3.803   3.072
 3870TIP3   OH211573  -0.020   3.184   2.144
 3870TIP3    H111574  -0.032   3.276   2.120
 3870TIP3    H211575   0.075   3.172   2.142
 3871TIP3   OH211576   2.118   4.344   5.423
 3871TIP3    H111577   2.203   4.386   5.432
 3871TIP3    H211578   2.119   4.273   5.486
 3872TIP3   OH211579   2.492   2.406   1.968
 3872TIP3    H111580   2.433   2.370   2.034
 3872TIP3    H211581   2.525   2.330   1.921
 3873TIP3   OH211582   4.004   2.613   4.747
 3873TIP3    H111583   4.060   2.633   4.822
 3873TIP3    H211584   4.022   2.521   4.728
 3874TIP3   OH211585   3.726   5.882   0.648
 3874TIP3    H111586   3.766   5.798   0.627
 3874TIP3    H211587   3.792   5.928   0.700
 3875TIP3   OH211588   0.596   2.878   0.157
 3875TIP3    H111589   0.673   2.929   0.184
 3875TIP3    H211590   0.538   2.942   0.116
 3876TIP3   OH211591   4.602   3.454   1.420
 3876TIP3    H111592   4.604   3.362   1.393
 3876TIP3    H211593   4.690   3.471   1.453
 3877TIP3   OH211594   0.166   3.623   0.959
 3877TIP3    H111595   0.122   3.621   1.044
 3877TIP3    H211596   0.247   3.672   0.976
 3878TIP3   OH211597   2.730   5.783   5.127
 3878TIP3    H111598   2.748   5.863   5.079
 3878TIP3    H211599   2.806   5.727   5.110
 3879TIP3   OH211600   3.501   1.182   5.844
 3879TIP3    H111601   3.511   1.254   5.782
 3879TIP3    H211602   3.409   1.156   5.836
 3880TIP3   OH211603   4.870   0.041   1.401
 3880TIP3    H111604   4.964   0.053   1.413
 3880TIP3    H211605   4.856   0.058   1.307
 3881TIP3   OH211606   2.083   6.722   1.273
 3881TIP3    H111607   2.128   6.732   1.357
 3881TIP3    H211608   2.080   6.628   1.258
 3882TIP3   OH211609   3.668   4.838   3.790
 3882TIP3    H111610   3.669   4.821   3.696
 3882TIP3    H211611   3.730   4.775   3.827
 3883TIP3   OH211612   1.555   0.480   4.971
 3883TIP3    H111613   1.538   0.573   4.988
 3883TIP3    H211614   1.574   0.477   4.878
 3884TIP3   OH211615   0.353   1.055   0.093
 3884TIP3    H111616   0.370   1.005   0.173
 3884TIP3    H211617   0.378   1.145   0.116
 3885TIP3   OH211618   2.545   4.520   4.431
 3885TIP3    H111619   2.558   4.530   4.525
 3885TIP3    H211620   2.579   4.601   4.393
 3886TIP3   OH211621   1.551   0.955   5.733
 3886TIP3    H111622   1.501   0.888   5.686
 3886TIP3    H211623   1.604   0.997   5.665
 3887TIP3   OH211624   4.631   5.743   1.925
 3887TIP3    H111625   4.618   5.750   1.830
 3887TIP3    H211626   4.545   5.763   1.963
 3888TIP3   OH211627   6.915   1.522   2.894
 3888TIP3    H111628   6.963   1.587   2.841
 3888TIP3    H211629   6.951   1.532   2.982
 3889TIP3   OH211630   5.359   3.376   5.514
 3889TIP3    H111631   5.389   3.313   5.449
 3889TIP3    H211632   5.321   3.447   5.462
 3890TIP3   OH211633   2.993   2.888   3.806
 3890TIP3    H111634   2.911   2.841   3.792
 3890TIP3    H211635   3.061   2.827   3.776
 3891TIP3   OH211636   5.277   0.707   3.903
 3891TIP3    H111637   5.232   0.644   3.847
 3891TIP3    H211638   5.208   0.748   3.955
 3892TIP3   OH211639   4.163   0.638   3.687
 3892TIP3    H111640   4.181   0.717   3.636
 3892TIP3    H211641   4.247   0.617   3.728
 3893TIP3   OH211642   4.185   1.693   3.636
 3893TIP3    H111643   4.268   1.647   3.623
 3893TIP3    H211644   4.173   1.694   3.731
 3894TIP3   OH211645   7.171   3.983   4.619
 3894TIP3    H111646   7.089   3.936   4.608
 3894TIP3    H211647   7.193   3.971   4.711
 3895TIP3   OH211648   6.141   4.545   3.906
 3895TIP3    H111649   6.075   4.543   3.976
 3895TIP3    H211650   6.203   4.613   3.933
 3896TIP3   OH211651   6.873   4.377   0.829
 3896TIP3    H111652   6.780   4.384   0.808
 3896TIP3    H211653   6.875   4.345   0.919
 3897TIP3   OH211654   2.530   3.204   0.061
 3897TIP3    H111655   2.594   3.196   0.131
 3897TIP3    H211656   2.582   3.196  -0.019
 3898TIP3   OH211657   5.103   1.786   5.704
 3898TIP3    H111658   5.128   1.757   5.791
 3898TIP3    H211659   5.148   1.726   5.645
 3899TIP3   OH211660   3.129   2.730   5.641
 3899TIP3    H111661   3.175   2.733   5.558
 3899TIP3    H211662   3.197   2.743   5.707
 3900TIP3   OH211663   1.569   1.617   1.579
 3900TIP3    H111664   1.640   1.605   1.516
 3900TIP3    H211665   1.612   1.606   1.664
 3901TIP3   OH211666   1.293   4.790   1.610
 3901TIP3    H111667   1.198   4.785   1.625
 3901TIP3    H211668   1.309   4.733   1.535
 3902TIP3   OH211669   0.112   0.574   3.390
 3902TIP3    H111670   0.066   0.517   3.328
 3902TIP3    H211671   0.044   0.635   3.421
 3903TIP3   OH211672   5.133   4.008   2.227
 3903TIP3    H111673   5.146   3.975   2.317
 3903TIP3    H211674   5.148   3.931   2.172
 3904TIP3   OH211675   1.256   2.909   2.545
 3904TIP3    H111676   1.213   2.990   2.574
 3904TIP3    H211677   1.187   2.859   2.503
 3905TIP3   OH211678   4.315   4.137   0.253
 3905TIP3    H111679   4.352   4.100   0.333
 3905TIP3    H211680   4.307   4.063   0.194
 3906TIP3   OH211681   2.772   1.189   5.395
 3906TIP3    H111682   2.808   1.169   5.309
 3906TIP3    H211683   2.764   1.104   5.439
 3907TIP3   OH211684   4.688   3.451   3.644
 3907TIP3    H111685   4.634   3.401   3.706
 3907TIP3    H211686   4.629   3.520   3.612
 3908TIP3   OH211687   6.273   4.887   1.045
 3908TIP3    H111688   6.296   4.892   1.138
 3908TIP3    H211689   6.340   4.831   1.007
 3909TIP3   OH211690   1.038   1.515   3.835
 3909TIP3    H111691   0.965   1.454   3.822
 3909TIP3    H211692   1.114   1.458   3.847
 3910TIP3   OH211693   5.965   3.794   4.301
 3910TIP3    H111694   5.897   3.731   4.324
 3910TIP3    H211695   6.040   3.740   4.275
 3911TIP3   OH211696   1.619   1.196   0.163
 3911TIP3    H111697   1.616   1.237   0.077
 3911TIP3    H211698   1.614   1.102   0.145
 3912TIP3   OH211699   3.902   4.729   0.702
 3912TIP3    H111700   3.911   4.638   0.676
 3912TIP3    H211701   3.972   4.744   0.765
 3913TIP3   OH211702   5.522   5.690   3.304
 3913TIP3    H111703   5.578   5.765   3.284
 3913TIP3    H211704   5.563   5.650   3.381
 3914TIP3   OH211705   0.032   2.357   0.287
 3914TIP3    H111706  -0.015   2.418   0.344
 3914TIP3    H211707   0.085   2.413   0.230
 3915TIP3   OH211708   5.316   1.289   5.731
 3915TIP3    H111709   5.307   1.358   5.798
 3915TIP3    H211710   5.270   1.214   5.767
 3916TIP3   OH211711   4.682   2.812   3.317
 3916TIP3    H111712   4.736   2.836   3.242
 3916TIP3    H211713   4.738   2.825   3.393
 3917TIP3   OH211714   5.685   3.538   4.645
 3917TIP3    H111715   5.669   3.465   4.705
 3917TIP3    H211716   5.769   3.517   4.604
 3918TIP3   OH211717   5.432   3.976   5.533
 3918TIP3    H111718   5.512   3.927   5.552
 3918TIP3    H211719   5.398   3.937   5.453
 3919TIP3   OH211720   2.542   1.921   2.652
 3919TIP3    H111721   2.623   1.880   2.621
 3919TIP3    H211722   2.500   1.855   2.707
 3920TIP3   OH211723   6.448   6.791   4.875
 3920TIP3    H111724   6.438   6.880   4.908
 3920TIP3    H211725   6.365   6.748   4.898
 3921TIP3   OH211726   2.802   1.948   1.683
 3921TIP3    H111727   2.712   1.935   1.656
 3921TIP3    H211728   2.828   1.865   1.724
 3922TIP3   OH211729   0.583   2.251   1.714
 3922TIP3    H111730   0.606   2.302   1.791
 3922TIP3    H211731   0.599   2.160   1.739
 3923TIP3   OH211732   2.577   1.373   5.200
 3923TIP3    H111733   2.630   1.412   5.270
 3923TIP3    H211734   2.551   1.288   5.234
 3924TIP3   OH211735   1.760   3.806   5.761
 3924TIP3    H111736   1.688   3.769   5.812
 3924TIP3    H211737   1.837   3.797   5.816
 3925TIP3   OH211738   1.492   4.789   0.452
 3925TIP3    H111739   1.529   4.702   0.465
 3925TIP3    H211740   1.555   4.834   0.396
 3926TIP3   OH211741   5.295   5.224   0.449
 3926TIP3    H111742   5.301   5.136   0.487
 3926TIP3    H211743   5.209   5.255   0.474
 3927TIP3   OH211744   3.462   3.711   2.973
 3927TIP3    H111745   3.452   3.738   2.882
 3927TIP3    H211746   3.514   3.631   2.969
 3928TIP3   OH211747   3.293   4.083   2.400
 3928TIP3    H111748   3.387   4.070   2.384
 3928TIP3    H211749   3.285   4.087   2.495
 3929TIP3   OH211750   4.793   2.332   1.650
 3929TIP3    H111751   4.707   2.359   1.682
 3929TIP3    H211752   4.837   2.294   1.727
 3930TIP3   OH211753   6.261   3.111   3.587
 3930TIP3    H111754   6.344   3.064   3.603
 3930TIP3    H211755   6.208   3.091   3.664
 3931TIP3   OH211756   6.355   0.889   0.557
 3931TIP3    H111757   6.334   0.827   0.488
 3931TIP3    H211758   6.382   0.834   0.631
 3932TIP3   OH211759   2.535   1.068   0.893
 3932TIP3    H111760   2.508   1.159   0.885
 3932TIP3    H211761   2.489   1.023   0.823
 3933TIP3   OH211762   5.660   1.781   1.233
 3933TIP3    H111763   5.589   1.774   1.296
 3933TIP3    H211764   5.714   1.704   1.248
 3934TIP3   OH211765   3.463   1.567   1.485
 3934TIP3    H111766   3.458   1.618   1.566
 3934TIP3    H211767   3.419   1.621   1.420
 3935TIP3   OH211768   1.124   1.581   4.993
 3935TIP3    H111769   1.085   1.624   5.068
 3935TIP3    H211770   1.096   1.633   4.918
 3936TIP3   OH211771   2.077   1.829   5.200
 3936TIP3    H111772   2.097   1.748   5.248
 3936TIP3    H211773   1.984   1.822   5.178
 3937TIP3   OH211774   3.065   5.588   1.155
 3937TIP3    H111775   2.970   5.582   1.143
 3937TIP3    H211776   3.090   5.504   1.193
 3938TIP3   OH211777   1.138   3.859   4.646
 3938TIP3    H111778   1.073   3.792   4.622
 3938TIP3    H211779   1.114   3.883   4.736
 3939TIP3   OH211780   6.163   3.482   0.691
 3939TIP3    H111781   6.228   3.492   0.621
 3939TIP3    H211782   6.148   3.388   0.696
 3940TIP3   OH211783   0.924   4.833   2.543
 3940TIP3    H111784   0.847   4.825   2.598
 3940TIP3    H211785   0.996   4.847   2.605
 3941TIP3   OH211786   3.189   1.066   4.991
 3941TIP3    H111787   3.244   1.098   4.919
 3941TIP3    H211788   3.172   1.143   5.044
 3942TIP3   OH211789   6.896   6.317   3.943
 3942TIP3    H111790   6.935   6.267   4.015
 3942TIP3    H211791   6.821   6.264   3.916
 3943TIP3   OH211792   5.334   0.525   1.405
 3943TIP3    H111793   5.245   0.514   1.439
 3943TIP3    H211794   5.323   0.582   1.329
 3944TIP3   OH211795   2.031   4.148   4.612
 3944TIP3    H111796   1.970   4.209   4.652
 3944TIP3    H211797   2.110   4.199   4.597
 3945TIP3   OH211798   5.899   3.468   4.190
 3945TIP3    H111799   5.995   3.460   4.189
 3945TIP3    H211800   5.867   3.379   4.205
 3946TIP3   OH211801   0.425   6.722   0.833
 3946TIP3    H111802   0.376   6.641   0.846
 3946TIP3    H211803   0.361   6.783   0.798
 3947TIP3   OH211804   1.509   0.197   2.869
 3947TIP3    H111805   1.484   0.248   2.946
 3947TIP3    H211806   1.591   0.236   2.840
 3948TIP3   OH211807   5.920   6.274   3.101
 3948TIP3    H111808   5.971   6.257   3.022
 3948TIP3    H211809   5.975   6.332   3.154
 3949TIP3   OH211810   6.670   4.711   1.761
 3949TIP3    H111811   6.661   4.617   1.776
 3949TIP3    H211812   6.680   4.748   1.848
 3950TIP3   OH211813   6.488   3.631   3.727
 3950TIP3    H111814   6.508   3.708   3.780
 3950TIP3    H211815   6.451   3.667   3.646
 3951TIP3   OH211816   0.663   4.738   1.490
 3951TIP3    H111817   0.678   4.660   1.437
 3951TIP3    H211818   0.568   4.740   1.504
 3952TIP3   OH211819   4.566   0.060   3.719
 3952TIP3    H111820   4.487   0.043   3.770
 3952TIP3    H211821   4.625  -0.013   3.741
 3953TIP3   OH211822   5.459   3.945   0.873
 3953TIP3    H111823   5.491   3.906   0.792
 3953TIP3    H211824   5.494   4.034   0.872
 3954TIP3   OH211825   3.359   5.547   2.346
 3954TIP3    H111826   3.446   5.546   2.387
 3954TIP3    H211827   3.349   5.460   2.308
 3955TIP3   OH211828   2.935   6.646   4.677
 3955TIP3    H111829   2.904   6.632   4.588
 3955TIP3    H211830   2.988   6.569   4.697
 3956TIP3   OH211831   4.890   1.222   0.357
 3956TIP3    H111832   4.825   1.280   0.396
 3956TIP3    H211833   4.964   1.279   0.336
 3957TIP3   OH211834   5.286   2.211   4.799
 3957TIP3    H111835   5.295   2.299   4.764
 3957TIP3    H211836   5.375   2.175   4.796
 3958TIP3   OH211837   5.557   3.099   3.275
 3958TIP3    H111838   5.637   3.149   3.288
 3958TIP3    H211839   5.571   3.050   3.194
 3959TIP3   OH211840   4.399   2.782   5.783
 3959TIP3    H111841   4.370   2.698   5.818
 3959TIP3    H211842   4.392   2.843   5.857
 3960TIP3   OH211843   2.430   4.319   5.173
 3960TIP3    H111844   2.474   4.358   5.249
 3960TIP3    H211845   2.436   4.387   5.106
 3961TIP3   OH211846   6.887   5.297   2.985
 3961TIP3    H111847   6.824   5.233   2.952
 3961TIP3    H211848   6.871   5.298   3.080
 3962TIP3   OH211849   0.895   2.249   0.333
 3962TIP3    H111850   0.876   2.222   0.243
 3962TIP3    H211851   0.951   2.180   0.367
 3963TIP3   OH211852   6.722   2.456   0.454
 3963TIP3    H111853   6.658   2.471   0.524
 3963TIP3    H211854   6.801   2.502   0.483
 3964TIP3   OH211855   1.044   0.250   3.344
 3964TIP3    H111856   0.960   0.289   3.321
 3964TIP3    H211857   1.025   0.192   3.417
 3965TIP3   OH211858   2.112   4.486   3.748
 3965TIP3    H111859   2.167   4.554   3.787
 3965TIP3    H211860   2.174   4.427   3.704
 3966TIP3   OH211861   3.919   1.688   4.279
 3966TIP3    H111862   3.930   1.781   4.295
 3966TIP3    H211863   3.999   1.648   4.313
 3967TIP3   OH211864   4.376   3.410   2.258
 3967TIP3    H111865   4.281   3.406   2.245
 3967TIP3    H211866   4.387   3.469   2.332
 3968TIP3   OH211867   3.761   5.758   5.105
 3968TIP3    H111868   3.667   5.740   5.107
 3968TIP3    H211869   3.771   5.832   5.165
 3969TIP3   OH211870   1.512   1.544   4.785
 3969TIP3    H111871   1.603   1.559   4.810
 3969TIP3    H211872   1.471   1.510   4.864
 3970TIP3   OH211873   1.001   2.689   5.022
 3970TIP3    H111874   0.945   2.749   5.070
 3970TIP3    H211875   0.940   2.630   4.977
 3971TIP3   OH211876   5.404   5.128   3.044
 3971TIP3    H111877   5.327   5.071   3.043
 3971TIP3    H211878   5.470   5.077   3.090
 3972TIP3   OH211879   4.217   0.416   4.520
 3972TIP3    H111880   4.229   0.456   4.606
 3972TIP3    H211881   4.305   0.386   4.495
 3973TIP3   OH211882   1.006   0.219   2.285
 3973TIP3    H111883   0.945   0.182   2.222
 3973TIP3    H211884   1.011   0.312   2.262
 3974TIP3   OH211885   4.266   1.900   2.441
 3974TIP3    H111886   4.258   1.869   2.350
 3974TIP3    H211887   4.354   1.874   2.468
 3975TIP3   OH211888   0.400   2.022   2.743
 3975TIP3    H111889   0.352   2.008   2.825
 3975TIP3    H211890   0.334   2.012   2.675
 3976TIP3   OH211891   5.860   2.508   4.495
 3976TIP3    H111892   5.885   2.505   4.403
 3976TIP3    H211893   5.942   2.523   4.542
 3977TIP3   OH211894   2.404   4.897   4.072
 3977TIP3    H111895   2.488   4.923   4.033
 3977TIP3    H211896   2.414   4.805   4.093
 3978TIP3   OH211897   0.572   2.179   2.510
 3978TIP3    H111898   0.476   2.173   2.508
 3978TIP3    H211899   0.601   2.100   2.463
 3979TIP3   OH211900   4.509   1.323   2.113
 3979TIP3    H111901   4.473   1.281   2.035
 3979TIP3    H211902   4.600   1.340   2.092
 3980TIP3   OH211903   5.396   2.903   4.173
 3980TIP3    H111904   5.385   2.814   4.206
 3980TIP3    H211905   5.423   2.954   4.249
 3981TIP3   OH211906   1.186   1.231   5.454
 3981TIP3    H111907   1.199   1.323   5.435
 3981TIP3    H211908   1.093   1.215   5.436
 3982TIP3   OH211909   6.747   5.975   2.949
 3982TIP3    H111910   6.797   6.044   2.991
 3982TIP3    H211911   6.792   5.894   2.974
 3983TIP3   OH211912   0.243   3.232   3.073
 3983TIP3    H111913   0.308   3.302   3.066
 3983TIP3    H211914   0.206   3.241   3.160
 3984TIP3   OH211915   5.861   5.680   0.529
 3984TIP3    H111916   5.869   5.758   0.474
 3984TIP3    H211917   5.947   5.672   0.572
 3985TIP3   OH211918   5.299   3.427   4.774
 3985TIP3    H111919   5.334   3.353   4.824
 3985TIP3    H211920   5.251   3.387   4.701
 3986TIP3   OH211921   0.804   6.316   3.382
 3986TIP3    H111922   0.886   6.278   3.349
 3986TIP3    H211923   0.813   6.410   3.368
 3987TIP3   OH211924   7.244   2.797   3.890
 3987TIP3    H111925   7.195   2.751   3.958
 3987TIP3    H211926   7.197   2.880   3.878
 3988TIP3   OH211927   2.390   5.728   3.728
 3988TIP3    H111928   2.474   5.759   3.759
 3988TIP3    H211929   2.407   5.640   3.693
 3989TIP3   OH211930   2.835   2.902   1.344
 3989TIP3    H111931   2.915   2.853   1.328
 3989TIP3    H211932   2.767   2.855   1.295
 3990TIP3   OH211933   0.941   1.242   3.398
 3990TIP3    H111934   0.921   1.151   3.379
 3990TIP3    H211935   0.998   1.269   3.326
 3991TIP3   OH211936   5.410   4.472   0.287
 3991TIP3    H111937   5.479   4.457   0.351
 3991TIP3    H211938   5.394   4.566   0.289
 3992TIP3   OH211939   2.585   6.152   2.993
 3992TIP3    H111940   2.535   6.230   2.969
 3992TIP3    H211941   2.640   6.181   3.066
 3993TIP3   OH211942   2.703   1.097   3.829
 3993TIP3    H111943   2.775   1.151   3.797
 3993TIP3    H211944   2.700   1.113   3.924
 3994TIP3   OH211945   4.097   4.522   0.985
 3994TIP3    H111946   4.186   4.553   0.966
 3994TIP3    H211947   4.059   4.507   0.899
 3995TIP3   OH211948   7.238   1.305   2.156
 3995TIP3    H111949   7.229   1.280   2.064
 3995TIP3    H211950   7.173   1.374   2.169
 3996TIP3   OH211951   0.664   0.849   2.778
 3996TIP3    H111952   0.659   0.934   2.823
 3996TIP3    H211953   0.611   0.861   2.699
 3997TIP3   OH211954   1.482   3.620   4.957
 3997TIP3    H111955   1.545   3.572   4.904
 3997TIP3    H211956   1.452   3.691   4.900
 3998TIP3   OH211957   1.399   6.656   4.318
 3998TIP3    H111958   1.349   6.620   4.390
 3998TIP3    H211959   1.490   6.633   4.337
 3999TIP3   OH211960   6.446   2.375   3.030
 3999TIP3    H111961   6.365   2.346   3.073
 3999TIP3    H211962   6.511   2.376   3.101
 4000TIP3   OH211963   5.400   0.633   1.787
 4000TIP3    H111964   5.415   0.726   1.768
 4000TIP3    H211965   5.471   0.587   1.742
 4001TIP3   OH211966   1.599   0.043   1.608
 4001TIP3    H111967   1.615   0.121   1.556
 4001TIP3    H211968   1.526   0.066   1.664
 4002TIP3   OH211969   1.071   0.207   0.343
 4002TIP3    H111970   1.049   0.260   0.419
 4002TIP3    H211971   1.162   0.231   0.323
 4003TIP3   OH211972   4.479   3.518   4.855
 4003TIP3    H111973   4.557   3.530   4.909
 4003TIP3    H211974   4.409   3.499   4.918
 4004TIP3   OH211975   5.656   3.287   3.981
 4004TIP3    H111976   5.596   3.348   3.940
 4004TIP3    H211977   5.600   3.218   4.017
 4005TIP3   OH211978   4.047   4.686   5.358
 4005TIP3    H111979   4.032   4.774   5.391
 4005TIP3    H211980   4.003   4.628   5.421
 4006TIP3   OH211981   4.779   3.438   5.699
 4006TIP3    H111982   4.687   3.447   5.673
 4006TIP3    H211983   4.826   3.425   5.617
 4007TIP3   OH211984   4.163   2.602   0.482
 4007TIP3    H111985   4.166   2.526   0.423
 4007TIP3    H211986   4.072   2.632   0.477
 4008TIP3   OH211987   0.469   3.481   4.449
 4008TIP3    H111988   0.400   3.441   4.397
 4008TIP3    H211989   0.423   3.520   4.524
 4009TIP3   OH211990   5.035   5.036   4.247
 4009TIP3    H111991   5.012   4.954   4.204
 4009TIP3    H211992   4.977   5.101   4.207
 4010TIP3   OH211993   3.915   3.007   3.922
 4010TIP3    H111994   3.989   3.059   3.892
 4010TIP3    H211995   3.878   3.057   3.995
 4011TIP3   OH211996   1.139   6.476   4.031
 4011TIP3    H111997   1.164   6.433   4.113
 4011TIP3    H211998   1.107   6.562   4.057
 4012TIP3   OH211999   5.340   4.555   4.126
 4012TIP3    H112000   5.418   4.510   4.158
 4012TIP3    H212001   5.274   4.539   4.193
 4013TIP3   OH212002   4.020   5.784   4.361
 4013TIP3    H112003   4.027   5.780   4.457
 4013TIP3    H212004   4.070   5.708   4.331
 4014TIP3   OH212005   6.323   6.316   5.129
 4014TIP3    H112006   6.362   6.230   5.146
 4014TIP3    H212007   6.228   6.300   5.130
 4015TIP3   OH212008   1.430   1.801   5.718
 4015TIP3    H112009   1.448   1.716   5.678
 4015TIP3    H212010   1.476   1.799   5.801
 4016TIP3   OH212011   5.140   5.736   2.495
 4016TIP3    H112012   5.208   5.798   2.519
 4016TIP3    H212013   5.101   5.709   2.578
 4017TIP3   OH212014   2.887   3.334   3.374
 4017TIP3    H112015   2.824   3.335   3.446
 4017TIP3    H212016   2.836   3.362   3.298
 4018TIP3   OH212017   2.174   0.751   1.487
 4018TIP3    H112018   2.258   0.794   1.471
 4018TIP3    H212019   2.196   0.658   1.491
 4019TIP3   OH212020   0.078   5.677   3.932
 4019TIP3    H112021   0.070   5.766   3.898
 4019TIP3    H212022   0.024   5.676   4.011
 4020TIP3   OH212023   1.068   4.965   5.681
 4020TIP3    H112024   1.132   4.897   5.661
 4020TIP3    H212025   1.085   5.034   5.617
 4021TIP3   OH212026   1.135   1.381   3.566
 4021TIP3    H112027   1.123   1.476   3.568
 4021TIP3    H212028   1.061   1.349   3.515
 4022TIP3   OH212029   0.144   6.715   1.273
 4022TIP3    H112030   0.160   6.638   1.218
 4022TIP3    H212031   0.062   6.752   1.240
 4023TIP3   OH212032   5.901   1.699   3.449
 4023TIP3    H112033   5.870   1.609   3.446
 4023TIP3    H212034   5.910   1.719   3.542
 4024TIP3   OH212035   6.458   1.066   4.060
 4024TIP3    H112036   6.486   1.048   3.971
 4024TIP3    H212037   6.377   1.115   4.050
 4025TIP3   OH212038   3.669   5.576   0.342
 4025TIP3    H112039   3.721   5.652   0.370
 4025TIP3    H212040   3.648   5.530   0.423
 4026TIP3   OH212041   0.350   0.183   1.814
 4026TIP3    H112042   0.397   0.120   1.759
 4026TIP3    H212043   0.290   0.227   1.754
 4027TIP3   OH212044   6.755   2.703   0.609
 4027TIP3    H112045   6.683   2.725   0.549
 4027TIP3    H212046   6.826   2.675   0.552
 4028TIP3   OH212047   5.518   1.779   1.468
 4028TIP3    H112048   5.596   1.821   1.505
 4028TIP3    H212049   5.447   1.840   1.489
 4029TIP3   OH212050   4.472   1.832   4.325
 4029TIP3    H112051   4.447   1.919   4.355
 4029TIP3    H212052   4.412   1.814   4.252
 4030TIP3   OH212053   1.421   2.543   0.815
 4030TIP3    H112054   1.418   2.450   0.837
 4030TIP3    H212055   1.469   2.546   0.733
 4031TIP3   OH212056   6.569   1.971   3.754
 4031TIP3    H112057   6.627   1.964   3.830
 4031TIP3    H212058   6.514   1.893   3.759
 4032TIP3   OH212059   0.809   3.104   0.547
 4032TIP3    H112060   0.828   3.137   0.635
 4032TIP3    H212061   0.857   3.164   0.489
 4033TIP3   OH212062   6.444   0.347   0.104
 4033TIP3    H112063   6.430   0.440   0.125
 4033TIP3    H212064   6.385   0.300   0.163
 4034TIP3   OH212065   3.582   2.496   2.425
 4034TIP3    H112066   3.660   2.543   2.394
 4034TIP3    H212067   3.510   2.557   2.411
 4035TIP3   OH212068   3.003   3.893   4.013
 4035TIP3    H112069   3.082   3.843   4.032
 4035TIP3    H212070   3.035   3.974   3.974
 4036TIP3   OH212071   7.034   6.129   4.097
 4036TIP3    H112072   7.014   6.079   4.176
 4036TIP3    H212073   7.115   6.176   4.119
 4037TIP3   OH212074   7.242   6.271   1.635
 4037TIP3    H112075   7.241   6.362   1.604
 4037TIP3    H212076   7.189   6.224   1.571
 4038TIP3   OH212077   2.664   3.410   3.917
 4038TIP3    H112078   2.685   3.325   3.954
 4038TIP3    H212079   2.573   3.425   3.941
 4039TIP3   OH212080   2.439   5.692   1.606
 4039TIP3    H112081   2.423   5.643   1.525
 4039TIP3    H212082   2.514   5.649   1.646
 4040TIP3   OH212083   0.160   3.951   1.891
 4040TIP3    H112084   0.209   4.027   1.859
 4040TIP3    H212085   0.216   3.876   1.871
 4041TIP3   OH212086   5.147   1.295   0.603
 4041TIP3    H112087   5.226   1.265   0.557
 4041TIP3    H212088   5.180   1.348   0.675
 4042TIP3   OH212089   2.493   5.710   0.551
 4042TIP3    H112090   2.482   5.744   0.640
 4042TIP3    H212091   2.546   5.776   0.507
 4043TIP3   OH212092   1.806   1.712   3.754
 4043TIP3    H112093   1.886   1.683   3.797
 4043TIP3    H212094   1.749   1.740   3.825
 4044TIP3   OH212095   5.411   5.418   4.065
 4044TIP3    H112096   5.423   5.369   3.983
 4044TIP3    H212097   5.461   5.368   4.130
 4045TIP3   OH212098   0.511   2.936   5.471
 4045TIP3    H112099   0.593   2.945   5.520
 4045TIP3    H212100   0.498   2.842   5.462
 4046TIP3   OH212101   0.425   2.234   5.005
 4046TIP3    H112102   0.429   2.174   4.930
 4046TIP3    H212103   0.470   2.313   4.975
 4047TIP3   OH212104   2.526   6.046   5.598
 4047TIP3    H112105   2.484   5.961   5.584
 4047TIP3    H212106   2.562   6.069   5.512
 4048TIP3   OH212107   2.419   3.637   3.328
 4048TIP3    H112108   2.346   3.652   3.269
 4048TIP3    H212109   2.468   3.565   3.288
 4049TIP3   OH212110   3.393   0.184   0.111
 4049TIP3    H112111   3.430   0.212   0.028
 4049TIP3    H212112   3.447   0.110   0.139
 4050TIP3   OH212113   6.576   3.169   3.345
 4050TIP3    H112114   6.511   3.239   3.331
 4050TIP3    H212115   6.647   3.213   3.392
 4051TIP3   OH212116   6.842   5.828   4.494
 4051TIP3    H112117   6.833   5.865   4.582
 4051TIP3    H212118   6.842   5.733   4.507
 4052TIP3   OH212119   7.142   3.908   1.162
 4052TIP3    H112120   7.162   3.960   1.084
 4052TIP3    H212121   7.215   3.848   1.170
 4053TIP3   OH212122   7.040   0.970   5.133
 4053TIP3    H112123   7.096   0.942   5.205
 4053TIP3    H212124   7.099   0.973   5.057
 4054TIP3   OH212125   1.700   2.096   1.668
 4054TIP3    H112126   1.737   2.055   1.590
 4054TIP3    H212127   1.748   2.179   1.675
 4055TIP3   OH212128   1.142   4.555   5.024
 4055TIP3    H112129   1.065   4.576   5.078
 4055TIP3    H212130   1.215   4.554   5.086
 4056TIP3   OH212131   5.000   2.186   0.802
 4056TIP3    H112132   5.095   2.194   0.816
 4056TIP3    H212133   4.975   2.111   0.855
 4057TIP3   OH212134   2.764   5.386   2.115
 4057TIP3    H112135   2.781   5.468   2.162
 4057TIP3    H212136   2.731   5.327   2.183
 4058TIP3   OH212137   3.914   5.290   5.212
 4058TIP3    H112138   3.910   5.385   5.197
 4058TIP3    H212139   3.887   5.280   5.303
 4059TIP3   OH212140   5.063   5.325   5.333
 4059TIP3    H112141   5.005   5.401   5.325
 4059TIP3    H212142   5.055   5.299   5.425
 4060TIP3   OH212143   0.429   0.555   2.997
 4060TIP3    H112144   0.453   0.593   3.081
 4060TIP3    H212145   0.493   0.485   2.984
 4061TIP3   OH212146   0.638   0.814   4.555
 4061TIP3    H112147   0.571   0.873   4.519
 4061TIP3    H212148   0.721   0.860   4.542
 4062TIP3   OH212149   3.883   4.597   3.537
 4062TIP3    H112150   3.892   4.593   3.632
 4062TIP3    H212151   3.817   4.531   3.516
 4063TIP3   OH212152   7.046   2.799   0.920
 4063TIP3    H112153   6.957   2.832   0.908
 4063TIP3    H212154   7.036   2.705   0.929
 4064TIP3   OH212155   2.417   0.925   1.348
 4064TIP3    H112156   2.370   1.003   1.319
 4064TIP3    H212157   2.509   0.942   1.326
 4065TIP3   OH212158   4.149   2.403   0.067
 4065TIP3    H112159   4.169   2.310   0.078
 4065TIP3    H212160   4.062   2.405   0.028
 4066TIP3   OH212161   6.199   4.027   4.731
 4066TIP3    H112162   6.227   3.937   4.747
 4066TIP3    H212163   6.127   4.041   4.792
 4067TIP3   OH212164   0.569   2.231   1.125
 4067TIP3    H112165   0.507   2.304   1.124
 4067TIP3    H212166   0.529   2.166   1.068
 4068TIP3   OH212167   6.685   1.646   0.375
 4068TIP3    H112168   6.774   1.664   0.403
 4068TIP3    H212169   6.646   1.596   0.447
 4069TIP3   OH212170   1.903   4.130   5.796
 4069TIP3    H112171   1.912   4.117   5.891
 4069TIP3    H212172   1.848   4.208   5.787
 4070TIP3   OH212173   2.641   2.776   1.205
 4070TIP3    H112174   2.602   2.691   1.225
 4070TIP3    H212175   2.567   2.833   1.186
 4071TIP3   OH212176   1.077   1.940   1.632
 4071TIP3    H112177   1.074   1.988   1.714
 4071TIP3    H212178   1.163   1.960   1.595
 4072TIP3   OH212179   6.339   2.114   2.307
 4072TIP3    H112180   6.356   2.174   2.235
 4072TIP3    H212181   6.294   2.040   2.266
 4073TIP3   OH212182   5.058   6.738   2.965
 4073TIP3    H112183   4.975   6.736   3.013
 4073TIP3    H212184   5.097   6.653   2.981
 4074TIP3   OH212185   2.035   1.381   2.958
 4074TIP3    H112186   2.062   1.292   2.934
 4074TIP3    H212187   1.970   1.368   3.028
 4075TIP3   OH212188   6.673   4.882   4.539
 4075TIP3    H112189   6.744   4.819   4.551
 4075TIP3    H212190   6.712   4.966   4.563
 4076TIP3   OH212191   2.419   0.504   5.528
 4076TIP3    H112192   2.417   0.409   5.540
 4076TIP3    H212193   2.326   0.530   5.527
 4077TIP3   OH212194   3.291   3.749   0.990
 4077TIP3    H112195   3.305   3.707   1.074
 4077TIP3    H212196   3.337   3.693   0.927
 4078TIP3   OH212197   1.901   5.591   4.746
 4078TIP3    H112198   1.951   5.526   4.697
 4078TIP3    H212199   1.912   5.672   4.697
 4079TIP3   OH212200   2.870   1.206   0.254
 4079TIP3    H112201   2.963   1.197   0.232
 4079TIP3    H212202   2.865   1.181   0.347
 4080TIP3   OH212203   0.634   2.630   0.095
 4080TIP3    H112204   0.622   2.724   0.107
 4080TIP3    H212205   0.713   2.609   0.146
 4081TIP3   OH212206   0.795   0.415   3.196
 4081TIP3    H112207   0.775   0.502   3.230
 4081TIP3    H212208   0.717   0.390   3.147
 4082TIP3   OH212209   0.752   5.552   4.717
 4082TIP3    H112210   0.787   5.637   4.743
 4082TIP3    H212211   0.678   5.572   4.659
 4083TIP3   OH212212   4.982   4.993   0.038
 4083TIP3    H112213   4.935   4.950   0.109
 4083TIP3    H212214   5.015   4.922  -0.017
 4084TIP3   OH212215   2.698   1.090   5.147
 4084TIP3    H112216   2.625   1.071   5.206
 4084TIP3    H212217   2.665   1.069   5.060
 4085TIP3   OH212218   6.202   5.144   0.153
 4085TIP3    H112219   6.152   5.133   0.073
 4085TIP3    H212220   6.190   5.236   0.177
 4086TIP3   OH212221   6.938   2.568   5.710
 4086TIP3    H112222   6.950   2.474   5.698
 4086TIP3    H212223   6.875   2.575   5.781
 4087TIP3   OH212224   5.180   1.666   5.314
 4087TIP3    H112225   5.266   1.635   5.286
 4087TIP3    H212226   5.139   1.699   5.234
 4088TIP3   OH212227   4.938   6.749   3.722
 4088TIP3    H112228   4.844   6.737   3.734
 4088TIP3    H212229   4.977   6.699   3.794
 4089TIP3   OH212230   0.088   3.226   2.471
 4089TIP3    H112231   0.149   3.192   2.406
 4089TIP3    H212232   0.064   3.149   2.523
 4090TIP3   OH212233   3.780   5.829   1.026
 4090TIP3    H112234   3.705   5.775   1.053
 4090TIP3    H212235   3.748   5.919   1.034
 4091TIP3   OH212236   2.945   0.380   4.680
 4091TIP3    H112237   3.000   0.442   4.728
 4091TIP3    H212238   2.976   0.385   4.590
 4092TIP3   OH212239   2.619   6.661   3.720
 4092TIP3    H112240   2.672   6.670   3.799
 4092TIP3    H212241   2.629   6.570   3.694
 4093TIP3   OH212242   1.737   5.264   4.176
 4093TIP3    H112243   1.665   5.305   4.128
 4093TIP3    H212244   1.707   5.174   4.192
 4094TIP3   OH212245   5.578   6.314   1.089
 4094TIP3    H112246   5.670   6.287   1.094
 4094TIP3    H212247   5.577   6.382   1.022
 4095TIP3   OH212248   0.695   3.143   5.033
 4095TIP3    H112249   0.716   3.150   4.940
 4095TIP3    H212250   0.684   3.049   5.048
 4096TIP3   OH212251   4.335   5.928   1.091
 4096TIP3    H112252   4.403   5.963   1.034
 4096TIP3    H212253   4.352   5.969   1.176
 4097TIP3   OH212254   1.519   2.004   0.862
 4097TIP3    H112255   1.613   2.000   0.882
 4097TIP3    H212256   1.483   1.922   0.897
 4098TIP3   OH212257   5.305   6.337   3.670
 4098TIP3    H112258   5.344   6.347   3.583
 4098TIP3    H212259   5.284   6.426   3.697
 4099TIP3   OH212260   3.322   0.844   5.765
 4099TIP3    H112261   3.284   0.912   5.819
 4099TIP3    H212262   3.400   0.815   5.812
 4100TIP3   OH212263   5.838   6.042   5.104
 4100TIP3    H112264   5.793   5.963   5.075
 4100TIP3    H212265   5.768   6.105   5.121
 4101TIP3   OH212266   7.005   4.638   1.715
 4101TIP3    H112267   6.950   4.579   1.766
 4101TIP3    H212268   7.091   4.597   1.716
 4102TIP3   OH212269   2.915   2.426   5.843
 4102TIP3    H112270   2.880   2.510   5.872
 4102TIP3    H212271   2.972   2.449   5.769
 4103TIP3   OH212272   3.827   2.781   5.430
 4103TIP3    H112273   3.885   2.808   5.501
 4103TIP3    H212274   3.747   2.832   5.444
 4104TIP3   OH212275   7.104   1.771   3.521
 4104TIP3    H112276   7.100   1.678   3.498
 4104TIP3    H212277   7.024   1.785   3.573
 4105TIP3   OH212278   1.176   1.064   2.846
 4105TIP3    H112279   1.144   1.050   2.757
 4105TIP3    H212280   1.237   0.992   2.862
 4106TIP3   OH212281   2.193   5.221   4.556
 4106TIP3    H112282   2.240   5.205   4.637
 4106TIP3    H212283   2.260   5.211   4.487
 4107TIP3   OH212284   6.965   5.745   4.943
 4107TIP3    H112285   6.968   5.840   4.957
 4107TIP3    H212286   7.045   5.712   4.983
 4108TIP3   OH212287   6.525   2.792   0.758
 4108TIP3    H112288   6.499   2.763   0.670
 4108TIP3    H212289   6.620   2.797   0.755
 4109TIP3   OH212290   6.953   5.321   5.431
 4109TIP3    H112291   6.988   5.254   5.489
 4109TIP3    H212292   7.029   5.354   5.383
 4110TIP3   OH212293   3.288   1.927   0.195
 4110TIP3    H112294   3.296   1.992   0.125
 4110TIP3    H212295   3.199   1.894   0.186
 4111TIP3   OH212296   3.857   5.963   5.699
 4111TIP3    H112297   3.856   5.925   5.786
 4111TIP3    H212298   3.847   6.057   5.714
 4112TIP3   OH212299   1.841   0.648   0.672
 4112TIP3    H112300   1.774   0.660   0.605
 4112TIP3    H212301   1.882   0.564   0.651
 4113TIP3   OH212302   5.987   2.169   3.277
 4113TIP3    H112303   6.009   2.079   3.301
 4113TIP3    H212304   5.992   2.218   3.359
 4114TIP3   OH212305   2.765   2.183   4.529
 4114TIP3    H112306   2.854   2.161   4.500
 4114TIP3    H212307   2.733   2.245   4.463
 4115TIP3   OH212308   6.637   4.434   1.729
 4115TIP3    H112309   6.568   4.398   1.673
 4115TIP3    H212310   6.719   4.406   1.687
 4116TIP3   OH212311   2.449   6.672   0.231
 4116TIP3    H112312   2.389   6.622   0.177
 4116TIP3    H212313   2.406   6.676   0.317
 4117TIP3   OH212314   5.866   2.345   5.057
 4117TIP3    H112315   5.927   2.284   5.098
 4117TIP3    H212316   5.796   2.355   5.122
 4118TIP3   OH212317   0.701   1.075   4.747
 4118TIP3    H112318   0.638   1.139   4.711
 4118TIP3    H212319   0.780   1.089   4.695
 4119TIP3   OH212320   1.795   3.232   3.905
 4119TIP3    H112321   1.778   3.291   3.978
 4119TIP3    H212322   1.760   3.279   3.829
 4120TIP3   OH212323   5.916   6.479   3.612
 4120TIP3    H112324   5.976   6.524   3.554
 4120TIP3    H212325   5.968   6.460   3.690
 4121TIP3   OH212326   4.157   4.420   4.554
 4121TIP3    H112327   4.094   4.411   4.482
 4121TIP3    H212328   4.151   4.337   4.601
 4122TIP3   OH212329   0.271   5.814   4.155
 4122TIP3    H112330   0.298   5.784   4.242
 4122TIP3    H212331   0.270   5.735   4.102
 4123TIP3   OH212332   0.643   3.674   1.287
 4123TIP3    H112333   0.702   3.664   1.212
 4123TIP3    H212334   0.687   3.627   1.358
 4124TIP3   OH212335   2.559   2.849   0.835
 4124TIP3    H112336   2.619   2.795   0.886
 4124TIP3    H212337   2.493   2.877   0.899
 4125TIP3   OH212338   5.747   1.217   1.756
 4125TIP3    H112339   5.705   1.143   1.711
 4125TIP3    H212340   5.837   1.188   1.771
 4126TIP3   OH212341   5.597   5.674   0.333
 4126TIP3    H112342   5.530   5.736   0.303
 4126TIP3    H212343   5.548   5.595   0.354
 4127TIP3   OH212344   3.573   0.584   2.778
 4127TIP3    H112345   3.479   0.567   2.775
 4127TIP3    H212346   3.585   0.662   2.723
 4128TIP3   OH212347   5.939   6.796   0.048
 4128TIP3    H112348   5.992   6.749   0.113
 4128TIP3    H212349   5.855   6.810   0.091
 4129TIP3   OH212350   3.809   2.495   3.874
 4129TIP3    H112351   3.879   2.489   3.810
 4129TIP3    H212352   3.740   2.437   3.840
 4130TIP3   OH212353   5.672   4.719   4.144
 4130TIP3    H112354   5.715   4.707   4.228
 4130TIP3    H212355   5.680   4.634   4.100
 4131TIP3   OH212356   1.218   6.158   1.345
 4131TIP3    H112357   1.217   6.173   1.440
 4131TIP3    H212358   1.276   6.083   1.333
 4132TIP3   OH212359   6.360   4.835   2.528
 4132TIP3    H112360   6.296   4.887   2.480
 4132TIP3    H212361   6.349   4.746   2.494
 4133TIP3   OH212362   2.742   4.388   2.275
 4133TIP3    H112363   2.783   4.393   2.362
 4133TIP3    H212364   2.758   4.298   2.247
 4134TIP3   OH212365   3.284   6.416   5.384
 4134TIP3    H112366   3.290   6.330   5.342
 4134TIP3    H212367   3.374   6.448   5.385
 4135TIP3   OH212368   5.532   0.659   5.411
 4135TIP3    H112369   5.529   0.698   5.498
 4135TIP3    H212370   5.442   0.631   5.394
 4136TIP3   OH212371   2.552   4.338   0.017
 4136TIP3    H112372   2.590   4.251   0.032
 4136TIP3    H212373   2.575   4.388   0.095
 4137TIP3   OH212374   0.289   5.510   4.088
 4137TIP3    H112375   0.370   5.531   4.041
 4137TIP3    H212376   0.221   5.513   4.020
 4138TIP3   OH212377   7.074   0.820   3.979
 4138TIP3    H112378   7.110   0.733   3.968
 4138TIP3    H212379   7.131   0.863   4.042
 4139TIP3   OH212380   3.749   4.133   4.668
 4139TIP3    H112381   3.745   4.117   4.763
 4139TIP3    H212382   3.776   4.225   4.661
 4140TIP3   OH212383   1.771   3.289   3.124
 4140TIP3    H112384   1.717   3.220   3.163
 4140TIP3    H212385   1.822   3.245   3.056
 4141TIP3   OH212386   3.968   6.612   5.529
 4141TIP3    H112387   3.994   6.521   5.545
 4141TIP3    H212388   4.036   6.648   5.472
 4142TIP3   OH212389   1.301   3.069   1.631
 4142TIP3    H112390   1.227   3.112   1.675
 4142TIP3    H212391   1.355   3.142   1.600
 4143TIP3   OH212392   6.668   1.214   4.401
 4143TIP3    H112393   6.630   1.160   4.332
 4143TIP3    H212394   6.647   1.167   4.482
 4144TIP3   OH212395   3.034   6.240   3.840
 4144TIP3    H112396   2.980   6.172   3.880
 4144TIP3    H212397   2.972   6.301   3.801
 4145TIP3   OH212398   2.183   0.924   1.016
 4145TIP3    H112399   2.194   1.010   1.055
 4145TIP3    H212400   2.118   0.880   1.071
 4146TIP3   OH212401   2.103   5.272   0.262
 4146TIP3    H112402   2.097   5.200   0.199
 4146TIP3    H212403   2.107   5.351   0.207
 4147TIP3   OH212404   5.560   0.556   2.855
 4147TIP3    H112405   5.616   0.633   2.869
 4147TIP3    H212406   5.606   0.505   2.788
 4148TIP3   OH212407   4.578   5.955   5.671
 4148TIP3    H112408   4.558   6.017   5.600
 4148TIP3    H212409   4.667   5.925   5.653
 4149TIP3   OH212410   5.406   0.697   3.404
 4149TIP3    H112411   5.451   0.668   3.325
 4149TIP3    H212412   5.313   0.683   3.385
 4150TIP3   OH212413   0.029   3.548   5.584
 4150TIP3    H112414  -0.001   3.493   5.657
 4150TIP3    H212415   0.117   3.515   5.564
 4151TIP3   OH212416   1.506   0.397   0.423
 4151TIP3    H112417   1.419   0.388   0.385
 4151TIP3    H212418   1.494   0.376   0.516
 4152TIP3   OH212419   2.520   2.448   4.960
 4152TIP3    H112420   2.558   2.430   4.874
 4152TIP3    H212421   2.435   2.487   4.940
 4153TIP3   OH212422   5.607   4.155   3.862
 4153TIP3    H112423   5.667   4.144   3.787
 4153TIP3    H212424   5.525   4.184   3.823
 4154TIP3   OH212425   5.591   6.640   0.067
 4154TIP3    H112426   5.563   6.660  -0.023
 4154TIP3    H212427   5.623   6.723   0.101
 4155TIP3   OH212428   5.760   1.552   0.896
 4155TIP3    H112429   5.683   1.592   0.935
 4155TIP3    H212430   5.825   1.622   0.893
 4156TIP3   OH212431   5.459   1.674   3.189
 4156TIP3    H112432   5.413   1.658   3.107
 4156TIP3    H212433   5.419   1.755   3.223
 4157TIP3   OH212434   4.847   3.798   0.190
 4157TIP3    H112435   4.901   3.723   0.213
 4157TIP3    H212436   4.762   3.760   0.167
 4158TIP3   OH212437   2.634   5.686   3.404
 4158TIP3    H112438   2.683   5.629   3.344
 4158TIP3    H212439   2.677   5.675   3.488
 4159TIP3   OH212440   0.697   3.218   2.731
 4159TIP3    H112441   0.744   3.192   2.652
 4159TIP3    H212442   0.683   3.137   2.779
 4160TIP3   OH212443   0.404   3.601   4.690
 4160TIP3    H112444   0.362   3.635   4.769
 4160TIP3    H212445   0.473   3.543   4.722
 4161TIP3   OH212446   0.361   6.766   3.375
 4161TIP3    H112447   0.302   6.691   3.384
 4161TIP3    H212448   0.385   6.788   3.465
 4162TIP3   OH212449   6.104   4.327   5.627
 4162TIP3    H112450   6.139   4.416   5.623
 4162TIP3    H212451   6.181   4.271   5.619
 4163TIP3   OH212452   5.294   2.868   5.506
 4163TIP3    H112453   5.384   2.894   5.523
 4163TIP3    H212454   5.293   2.774   5.520
 4164TIP3   OH212455   3.667   3.189   1.374
 4164TIP3    H112456   3.666   3.284   1.360
 4164TIP3    H212457   3.712   3.178   1.458
 4165TIP3   OH212458   2.202   5.306   3.223
 4165TIP3    H112459   2.296   5.319   3.227
 4165TIP3    H212460   2.188   5.251   3.146
 4166TIP3   OH212461   2.695   3.002   5.857
 4166TIP3    H112462   2.727   3.090   5.876
 4166TIP3    H212463   2.768   2.957   5.815
 4167TIP3   OH212464   1.644   4.912   4.909
 4167TIP3    H112465   1.604   4.862   4.837
 4167TIP3    H212466   1.612   5.002   4.896
 4168TIP3   OH212467   1.451   0.712   2.440
 4168TIP3    H112468   1.396   0.634   2.428
 4168TIP3    H212469   1.403   0.767   2.502
 4169TIP3   OH212470   6.025   5.880   5.380
 4169TIP3    H112471   5.978   5.893   5.463
 4169TIP3    H212472   5.979   5.936   5.318
 4170TIP3   OH212473   5.957   0.290   1.371
 4170TIP3    H112474   6.038   0.336   1.350
 4170TIP3    H212475   5.918   0.342   1.442
 4171TIP3   OH212476   2.973   2.493   2.725
 4171TIP3    H112477   2.912   2.447   2.667
 4171TIP3    H212478   3.034   2.538   2.666
 4172TIP3   OH212479   5.095   0.827   1.524
 4172TIP3    H112480   5.103   0.752   1.583
 4172TIP3    H212481   5.109   0.903   1.580
 4173TIP3   OH212482   1.506   1.910   4.331
 4173TIP3    H112483   1.529   1.817   4.332
 4173TIP3    H212484   1.579   1.951   4.284
 4174TIP3   OH212485   6.375   3.509   0.519
 4174TIP3    H112486   6.341   3.537   0.434
 4174TIP3    H212487   6.468   3.493   0.504
 4175TIP3   OH212488   4.750   1.254   1.876
 4175TIP3    H112489   4.754   1.161   1.852
 4175TIP3    H212490   4.826   1.268   1.932
 4176TIP3   OH212491   7.033   2.316   5.525
 4176TIP3    H112492   6.975   2.246   5.555
 4176TIP3    H212493   6.985   2.356   5.452
 4177TIP3   OH212494   1.188   6.432   1.988
 4177TIP3    H112495   1.254   6.372   1.952
 4177TIP3    H212496   1.212   6.442   2.080
 4178TIP3   OH212497   6.312   6.656   2.111
 4178TIP3    H112498   6.377   6.591   2.139
 4178TIP3    H212499   6.230   6.608   2.106
 4179TIP3   OH212500   1.369   3.956   0.839
 4179TIP3    H112501   1.377   4.050   0.823
 4179TIP3    H212502   1.440   3.936   0.900
 4180TIP3   OH212503   1.722   5.485   2.021
 4180TIP3    H112504   1.755   5.405   2.060
 4180TIP3    H212505   1.670   5.527   2.090
 4181TIP3   OH212506   0.711   2.413   1.919
 4181TIP3    H112507   0.635   2.376   1.963
 4181TIP3    H212508   0.749   2.472   1.984
 4182TIP3   OH212509   4.382   4.483   0.954
 4182TIP3    H112510   4.401   4.478   1.048
 4182TIP3    H212511   4.381   4.392   0.924
 4183TIP3   OH212512   0.944   2.635   5.660
 4183TIP3    H112513   0.941   2.542   5.684
 4183TIP3    H212514   0.946   2.636   5.565
 4184TIP3   OH212515   6.359   5.258   1.784
 4184TIP3    H112516   6.455   5.263   1.780
 4184TIP3    H212517   6.330   5.278   1.695
 4185TIP3   OH212518   4.960   5.537   2.629
 4185TIP3    H112519   4.875   5.579   2.641
 4185TIP3    H212520   4.966   5.520   2.535
 4186TIP3   OH212521   7.027   0.649   5.732
 4186TIP3    H112522   6.977   0.638   5.651
 4186TIP3    H212523   7.044   0.743   5.738
 4187TIP3   OH212524   1.612   2.534   3.659
 4187TIP3    H112525   1.624   2.602   3.726
 4187TIP3    H212526   1.699   2.495   3.648
 4188TIP3   OH212527   6.974   5.953   4.299
 4188TIP3    H112528   7.049   5.895   4.302
 4188TIP3    H212529   6.917   5.924   4.370
 4189TIP3   OH212530   1.257   3.376   2.858
 4189TIP3    H112531   1.349   3.372   2.883
 4189TIP3    H212532   1.217   3.300   2.902
 4190TIP3   OH212533   6.014   3.809   2.471
 4190TIP3    H112534   6.107   3.799   2.452
 4190TIP3    H212535   5.975   3.724   2.451
 4191TIP3   OH212536   1.354   0.775   5.620
 4191TIP3    H112537   1.367   0.705   5.556
 4191TIP3    H212538   1.290   0.833   5.579
 4192TIP3   OH212539   4.207   4.813   0.187
 4192TIP3    H112540   4.135   4.838   0.129
 4192TIP3    H212541   4.282   4.801   0.130
 4193TIP3   OH212542   4.605   2.432   5.820
 4193TIP3    H112543   4.684   2.486   5.810
 4193TIP3    H212544   4.627   2.350   5.775
 4194TIP3   OH212545   4.294   4.460   3.610
 4194TIP3    H112546   4.379   4.417   3.619
 4194TIP3    H212547   4.261   4.466   3.700
 4195TIP3   OH212548   0.111   6.157   4.347
 4195TIP3    H112549   0.049   6.137   4.417
 4195TIP3    H212550   0.191   6.110   4.372
 4196TIP3   OH212551   5.452   1.706   4.095
 4196TIP3    H112552   5.415   1.789   4.064
 4196TIP3    H212553   5.474   1.723   4.187
 4197TIP3   OH212554   4.481   2.709   2.906
 4197TIP3    H112555   4.495   2.759   2.986
 4197TIP3    H212556   4.395   2.669   2.918
 4198TIP3   OH212557   7.158   2.772   3.393
 4198TIP3    H112558   7.222   2.711   3.429
 4198TIP3    H212559   7.178   2.855   3.436
 4199TIP3   OH212560   4.662   0.797   0.682
 4199TIP3    H112561   4.738   0.811   0.738
 4199TIP3    H212562   4.690   0.731   0.618
 4200TIP3   OH212563   1.891   4.046   3.144
 4200TIP3    H112564   1.964   4.108   3.143
 4200TIP3    H212565   1.877   4.026   3.236
 4201TIP3   OH212566   6.284   2.237   4.912
 4201TIP3    H112567   6.336   2.158   4.899
 4201TIP3    H212568   6.214   2.232   4.847
 4202TIP3   OH212569   6.616   6.142   4.981
 4202TIP3    H112570   6.563   6.104   5.051
 4202TIP3    H212571   6.685   6.078   4.965
 4203TIP3   OH212572   5.691   2.178   1.739
 4203TIP3    H112573   5.628   2.247   1.761
 4203TIP3    H212574   5.653   2.134   1.663
 4204TIP3   OH212575   6.688   4.354   2.735
 4204TIP3    H112576   6.749   4.409   2.686
 4204TIP3    H212577   6.615   4.340   2.676
 4205TIP3   OH212578   4.325   5.745   0.836
 4205TIP3    H112579   4.328   5.758   0.931
 4205TIP3    H212580   4.371   5.821   0.800
 4206TIP3   OH212581   3.861   0.567   4.498
 4206TIP3    H112582   3.940   0.537   4.543
 4206TIP3    H212583   3.790   0.520   4.542
 4207TIP3   OH212584   0.885   3.823   5.464
 4207TIP3    H112585   0.927   3.896   5.510
 4207TIP3    H212586   0.810   3.799   5.520
 4208TIP3   OH212587   5.792   3.314   0.535
 4208TIP3    H112588   5.771   3.377   0.466
 4208TIP3    H212589   5.884   3.292   0.521
 4209TIP3   OH212590   4.652   4.924   4.049
 4209TIP3    H112591   4.614   4.847   4.090
 4209TIP3    H212592   4.579   4.985   4.038
 4210TIP3   OH212593   3.070   3.025   2.642
 4210TIP3    H112594   3.112   2.967   2.578
 4210TIP3    H212595   3.060   2.970   2.720
 4211TIP3   OH212596   6.157   4.001   4.430
 4211TIP3    H112597   6.131   4.007   4.522
 4211TIP3    H212598   6.090   3.947   4.389
 4212TIP3   OH212599   3.732   5.810   2.493
 4212TIP3    H112600   3.694   5.725   2.471
 4212TIP3    H212601   3.775   5.838   2.412
 4213TIP3   OH212602   4.209   1.465   3.996
 4213TIP3    H112603   4.264   1.422   3.931
 4213TIP3    H212604   4.211   1.557   3.971
 4214TIP3   OH212605   6.452   3.824   0.461
 4214TIP3    H112606   6.534   3.805   0.506
 4214TIP3    H212607   6.396   3.864   0.528
 4215TIP3   OH212608   6.459   4.794   5.787
 4215TIP3    H112609   6.450   4.768   5.879
 4215TIP3    H212610   6.551   4.816   5.777
 4216TIP3   OH212611   1.707   5.319   1.736
 4216TIP3    H112612   1.704   5.294   1.644
 4216TIP3    H212613   1.798   5.343   1.752
 4217TIP3   OH212614   4.578   3.552   4.280
 4217TIP3    H112615   4.643   3.503   4.330
 4217TIP3    H212616   4.627   3.587   4.205
 4218TIP3   OH212617   4.321   5.627   5.133
 4218TIP3    H112618   4.403   5.597   5.172
 4218TIP3    H212619   4.304   5.711   5.176
 4219TIP3   OH212620   5.683   6.278   5.170
 4219TIP3    H112621   5.588   6.269   5.166
 4219TIP3    H212622   5.698   6.366   5.205
 4220TIP3   OH212623   4.887   1.644   2.717
 4220TIP3    H112624   4.892   1.570   2.777
 4220TIP3    H212625   4.916   1.719   2.768
 4221TIP3   OH212626   7.193   0.410   3.199
 4221TIP3    H112627   7.163   0.344   3.136
 4221TIP3    H212628   7.174   0.493   3.157
 4222TIP3   OH212629   4.405   0.688   3.824
 4222TIP3    H112630   4.473   0.623   3.805
 4222TIP3    H212631   4.346   0.644   3.886
 4223TIP3   OH212632   2.442   1.782   0.060
 4223TIP3    H112633   2.509   1.770   0.128
 4223TIP3    H212634   2.397   1.698   0.055
 4224TIP3   OH212635   4.804   4.278   5.759
 4224TIP3    H112636   4.832   4.187   5.768
 4224TIP3    H212637   4.880   4.329   5.787
 4225TIP3   OH212638   2.403   3.408   4.649
 4225TIP3    H112639   2.472   3.401   4.584
 4225TIP3    H212640   2.363   3.321   4.651
 4226TIP3   OH212641   2.274   1.912   1.226
 4226TIP3    H112642   2.205   1.863   1.271
 4226TIP3    H212643   2.313   1.966   1.295
 4227TIP3   OH212644   3.145   5.783   2.649
 4227TIP3    H112645   3.180   5.721   2.713
 4227TIP3    H212646   3.057   5.803   2.681
 4228TIP3   OH212647   1.858   3.235   1.549
 4228TIP3    H112648   1.928   3.180   1.515
 4228TIP3    H212649   1.798   3.247   1.475
 4229TIP3   OH212650   3.057   5.943   0.325
 4229TIP3    H112651   3.015   5.857   0.319
 4229TIP3    H212652   3.055   5.965   0.418
 4230TIP3   OH212653   4.050   5.562   0.993
 4230TIP3    H112654   4.066   5.655   1.008
 4230TIP3    H212655   4.135   5.520   1.007
 4231TIP3   OH212656   5.332   1.947   2.472
 4231TIP3    H112657   5.364   1.997   2.397
 4231TIP3    H212658   5.386   1.975   2.545
 4232TIP3   OH212659   1.405   4.006   2.880
 4232TIP3    H112660   1.335   4.064   2.911
 4232TIP3    H212661   1.484   4.040   2.922
 4233TIP3   OH212662   2.153   2.539   2.892
 4233TIP3    H112663   2.225   2.477   2.891
 4233TIP3    H212664   2.120   2.536   2.982
 4234TIP3   OH212665   1.258   0.059   2.306
 4234TIP3    H112666   1.190   0.126   2.314
 4234TIP3    H212667   1.210  -0.024   2.315
 4235TIP3   OH212668   3.756   4.685   4.238
 4235TIP3    H112669   3.699   4.608   4.240
 4235TIP3    H212670   3.837   4.653   4.198
 4236TIP3   OH212671   1.541   3.113   2.971
 4236TIP3    H112672   1.612   3.099   2.908
 4236TIP3    H212673   1.534   3.209   2.978
 4237TIP3   OH212674   3.341   2.112   2.776
 4237TIP3    H112675   3.317   2.186   2.832
 4237TIP3    H212676   3.324   2.034   2.828
 4238TIP3   OH212677   1.314   2.764   4.696
 4238TIP3    H112678   1.330   2.841   4.643
 4238TIP3    H212679   1.265   2.796   4.772
 4239TIP3   OH212680   0.067   3.377   3.945
 4239TIP3    H112681  -0.008   3.333   3.986
 4239TIP3    H212682   0.113   3.307   3.898
 4240TIP3   OH212683   1.382   1.766   3.630
 4240TIP3    H112684   1.419   1.813   3.704
 4240TIP3    H212685   1.313   1.711   3.667
 4241TIP3   OH212686   5.339   6.520   4.767
 4241TIP3    H112687   5.302   6.605   4.787
 4241TIP3    H212688   5.433   6.537   4.754
 4242TIP3   OH212689   2.576   4.877   5.200
 4242TIP3    H112690   2.622   4.817   5.141
 4242TIP3    H212691   2.569   4.959   5.152
 4243TIP3   OH212692   3.458   2.836   4.374
 4243TIP3    H112693   3.511   2.864   4.299
 4243TIP3    H212694   3.489   2.890   4.446
 4244TIP3   OH212695   4.862   4.453   2.339
 4244TIP3    H112696   4.822   4.520   2.394
 4244TIP3    H212697   4.916   4.401   2.398
 4245TIP3   OH212698   6.021   4.266   3.074
 4245TIP3    H112699   6.059   4.352   3.091
 4245TIP3    H212700   5.927   4.283   3.065
 4246TIP3   OH212701   3.894   6.202   4.992
 4246TIP3    H112702   3.894   6.297   4.975
 4246TIP3    H212703   3.928   6.193   5.081
 4247TIP3   OH212704   3.036   2.195   3.633
 4247TIP3    H112705   3.046   2.129   3.701
 4247TIP3    H212706   2.944   2.192   3.609
 4248TIP3   OH212707   4.095   5.919   1.317
 4248TIP3    H112708   4.179   5.963   1.328
 4248TIP3    H212709   4.031   5.982   1.350
 4249TIP3   OH212710   5.080   0.632   0.276
 4249TIP3    H112711   5.040   0.546   0.269
 4249TIP3    H212712   5.075   0.654   0.369
 4250TIP3   OH212713   0.720   4.069   0.948
 4250TIP3    H112714   0.692   4.097   1.035
 4250TIP3    H212715   0.664   4.119   0.888
 4251TIP3   OH212716   4.755   0.929   4.319
 4251TIP3    H112717   4.749   1.024   4.312
 4251TIP3    H212718   4.677   0.903   4.369
 4252TIP3   OH212719   6.539   2.081   3.373
 4252TIP3    H112720   6.452   2.055   3.401
 4252TIP3    H212721   6.580   2.116   3.452
 4253TIP3   OH212722   4.852   5.881   2.084
 4253TIP3    H112723   4.841   5.786   2.084
 4253TIP3    H212724   4.803   5.910   2.007
 4254TIP3   OH212725   2.906   2.028   4.790
 4254TIP3    H112726   2.866   1.944   4.812
 4254TIP3    H212727   2.866   2.053   4.707
 4255TIP3   OH212728   3.974   5.310   5.567
 4255TIP3    H112729   3.955   5.332   5.658
 4255TIP3    H212730   3.890   5.314   5.523
 4256TIP3   OH212731   2.477   4.442   0.302
 4256TIP3    H112732   2.489   4.500   0.378
 4256TIP3    H212733   2.401   4.478   0.256
 4257TIP3   OH212734   5.618   4.913   0.284
 4257TIP3    H112735   5.685   4.959   0.335
 4257TIP3    H212736   5.575   4.982   0.233
 4258TIP3   OH212737   1.853   3.217   0.388
 4258TIP3    H112738   1.940   3.233   0.352
 4258TIP3    H212739   1.795   3.214   0.312
 4259TIP3   OH212740   2.812   6.761   0.566
 4259TIP3    H112741   2.817   6.764   0.470
 4259TIP3    H212742   2.783   6.672   0.586
 4260TIP3   OH212743   2.024   2.060   2.011
 4260TIP3    H112744   2.046   2.077   2.103
 4260TIP3    H212745   1.941   2.013   2.016
 4261TIP3   OH212746   5.066   6.294   5.241
 4261TIP3    H112747   5.104   6.240   5.310
 4261TIP3    H212748   5.132   6.361   5.223
 4262TIP3   OH212749   2.255   5.680   3.321
 4262TIP3    H112750   2.179   5.624   3.306
 4262TIP3    H212751   2.232   5.763   3.279
 4263TIP3   OH212752   1.147   0.751   2.349
 4263TIP3    H112753   1.177   0.676   2.400
 4263TIP3    H212754   1.136   0.716   2.260
 4264TIP3   OH212755   4.796   2.230   1.350
 4264TIP3    H112756   4.780   2.226   1.445
 4264TIP3    H212757   4.866   2.166   1.335
 4265TIP3   OH212758   2.649   1.013   4.521
 4265TIP3    H112759   2.630   0.959   4.444
 4265TIP3    H212760   2.720   0.967   4.566
 4266TIP3   OH212761   5.349   0.405   0.081
 4266TIP3    H112762   5.337   0.312   0.102
 4266TIP3    H212763   5.399   0.440   0.154
 4267TIP3   OH212764   0.177   1.613   0.553
 4267TIP3    H112765   0.105   1.598   0.492
 4267TIP3    H212766   0.153   1.694   0.599
 4268TIP3   OH212767   2.624   2.322   0.079
 4268TIP3    H112768   2.558   2.354   0.017
 4268TIP3    H212769   2.594   2.354   0.164
 4269TIP3   OH212770   5.529   0.806   0.388
 4269TIP3    H112771   5.613   0.769   0.363
 4269TIP3    H212772   5.544   0.845   0.474
 4270TIP3   OH212773   3.828   4.118   4.398
 4270TIP3    H112774   3.881   4.080   4.468
 4270TIP3    H212775   3.782   4.191   4.439
 4271TIP3   OH212776   6.916   0.168   4.331
 4271TIP3    H112777   6.957   0.094   4.286
 4271TIP3    H212778   6.956   0.168   4.418
 4272TIP3   OH212779   0.714   4.331   2.358
 4272TIP3    H112780   0.685   4.313   2.447
 4272TIP3    H212781   0.719   4.427   2.354
 4273TIP3   OH212782   4.102   1.210   4.116
 4273TIP3    H112783   4.126   1.228   4.207
 4273TIP3    H212784   4.067   1.293   4.083
 4274TIP3   OH212785   0.692   5.400   4.387
 4274TIP3    H112786   0.731   5.455   4.319
 4274TIP3    H212787   0.618   5.450   4.420
 4275TIP3   OH212788   2.899   6.031   2.317
 4275TIP3    H112789   2.982   6.078   2.310
 4275TIP3    H212790   2.846   6.084   2.376
 4276TIP3   OH212791   0.746   2.747   5.895
 4276TIP3    H112792   0.773   2.835   5.922
 4276TIP3    H212793   0.673   2.762   5.835
 4277TIP3   OH212794   1.774   0.532   2.991
 4277TIP3    H112795   1.831   0.582   3.049
 4277TIP3    H212796   1.692   0.580   2.989
 4278TIP3   OH212797   0.673   2.688   1.621
 4278TIP3    H112798   0.760   2.699   1.657
 4278TIP3    H212799   0.634   2.618   1.674
 4279TIP3   OH212800   3.957   2.461   5.127
 4279TIP3    H112801   3.899   2.435   5.055
 4279TIP3    H212802   3.996   2.379   5.157
 4280TIP3   OH212803   4.685   0.244   1.449
 4280TIP3    H112804   4.706   0.269   1.359
 4280TIP3    H212805   4.752   0.181   1.473
 4281TIP3   OH212806   4.337   2.017   2.024
 4281TIP3    H112807   4.401   2.027   1.953
 4281TIP3    H212808   4.252   2.025   1.980
 4282TIP3   OH212809   1.940   3.508   3.664
 4282TIP3    H112810   1.868   3.445   3.657
 4282TIP3    H212811   1.930   3.565   3.588
 4283TIP3   OH212812   6.305   4.134   5.267
 4283TIP3    H112813   6.215   4.166   5.277
 4283TIP3    H212814   6.315   4.116   5.174
 4284TIP3   OH212815   3.226   4.103   2.128
 4284TIP3    H112816   3.268   4.018   2.115
 4284TIP3    H212817   3.248   4.127   2.218
 4285TIP3   OH212818   3.265   3.753   1.900
 4285TIP3    H112819   3.182   3.738   1.946
 4285TIP3    H212820   3.316   3.808   1.960
 4286TIP3   OH212821   5.500   0.644   3.650
 4286TIP3    H112822   5.476   0.552   3.661
 4286TIP3    H212823   5.476   0.664   3.559
 4287TIP3   OH212824   3.796   2.324   1.756
 4287TIP3    H112825   3.744   2.374   1.694
 4287TIP3    H212826   3.790   2.373   1.838
 4288TIP3   OH212827   1.870   0.951   0.208
 4288TIP3    H112828   1.883   0.951   0.303
 4288TIP3    H212829   1.783   0.914   0.195
 4289TIP3   OH212830   1.488   6.750   1.450
 4289TIP3    H112831   1.493   6.667   1.496
 4289TIP3    H212832   1.559   6.803   1.487
 4290TIP3   OH212833   5.733   6.426   0.172
 4290TIP3    H112834   5.689   6.492   0.120
 4290TIP3    H212835   5.701   6.440   0.261
 4291TIP3   OH212836   4.005   5.076   0.379
 4291TIP3    H112837   4.013   5.168   0.355
 4291TIP3    H212838   4.090   5.038   0.360
 4292TIP3   OH212839   7.239   6.662   3.976
 4292TIP3    H112840   7.290   6.738   3.949
 4292TIP3    H212841   7.152   6.696   3.994
 4293TIP3   OH212842   4.518   2.071   3.451
 4293TIP3    H112843   4.494   2.124   3.528
 4293TIP3    H212844   4.445   2.011   3.438
 4294TIP3   OH212845   5.866   3.585   2.526
 4294TIP3    H112846   5.829   3.514   2.474
 4294TIP3    H212847   5.791   3.622   2.572
 4295TIP3   OH212848   3.600   0.473   4.146
 4295TIP3    H112849   3.694   0.492   4.149
 4295TIP3    H212850   3.559   0.558   4.130
 4296TIP3   OH212851   2.920   5.072   1.177
 4296TIP3    H112852   2.889   5.134   1.244
 4296TIP3    H212853   2.931   4.990   1.224
 4297TIP3   OH212854   0.814   0.353   1.578
 4297TIP3    H112855   0.718   0.349   1.570
 4297TIP3    H212856   0.846   0.291   1.512
 4298TIP3   OH212857   3.228   4.856   1.800
 4298TIP3    H112858   3.226   4.760   1.799
 4298TIP3    H212859   3.225   4.879   1.893
 4299TIP3   OH212860   2.068   3.103   1.388
 4299TIP3    H112861   2.131   3.175   1.388
 4299TIP3    H212862   2.119   3.026   1.413
 4300TIP3   OH212863   1.729   3.055   4.562
 4300TIP3    H112864   1.730   3.076   4.469
 4300TIP3    H212865   1.711   3.138   4.606
 4301TIP3   OH212866   5.916   5.919   5.619
 4301TIP3    H112867   5.891   6.011   5.626
 4301TIP3    H212868   5.973   5.904   5.694
 4302TIP3   OH212869   4.729   1.772   2.975
 4302TIP3    H112870   4.718   1.844   3.037
 4302TIP3    H212871   4.658   1.783   2.912
 4303TIP3   OH212872   1.687   5.644   3.042
 4303TIP3    H112873   1.768   5.617   2.998
 4303TIP3    H212874   1.653   5.715   2.988
 4304TIP3   OH212875   1.174   0.911   5.468
 4304TIP3    H112876   1.099   0.865   5.431
 4304TIP3    H212877   1.196   0.978   5.403
 4305TIP3   OH212878   3.751   3.554   0.460
 4305TIP3    H112879   3.679   3.577   0.401
 4305TIP3    H212880   3.721   3.476   0.506
 4306TIP3   OH212881   1.701   2.702   4.353
 4306TIP3    H112882   1.763   2.752   4.406
 4306TIP3    H212883   1.617   2.747   4.367
 4307TIP3   OH212884   1.810   1.969   3.549
 4307TIP3    H112885   1.870   1.901   3.582
 4307TIP3    H212886   1.759   1.924   3.481
 4308TIP3   OH212887   7.036   3.976   5.100
 4308TIP3    H112888   7.058   3.895   5.147
 4308TIP3    H212889   7.113   3.993   5.045
 4309TIP3   OH212890   2.241   2.078   1.462
 4309TIP3    H112891   2.306   2.108   1.525
 4309TIP3    H212892   2.173   2.146   1.464
 4310TIP3   OH212893   1.570   0.198   1.155
 4310TIP3    H112894   1.636   0.136   1.185
 4310TIP3    H212895   1.508   0.145   1.106
 4311TIP3   OH212896   5.044   1.864   0.297
 4311TIP3    H112897   5.088   1.799   0.352
 4311TIP3    H212898   5.058   1.947   0.342
 4312TIP3   OH212899   4.865   6.343   3.636
 4312TIP3    H112900   4.801   6.379   3.697
 4312TIP3    H212901   4.864   6.249   3.652
 4313TIP3   OH212902   2.853   0.187   3.178
 4313TIP3    H112903   2.784   0.157   3.118
 4313TIP3    H212904   2.921   0.119   3.171
 4314TIP3   OH212905   0.702   1.351   5.283
 4314TIP3    H112906   0.683   1.444   5.270
 4314TIP3    H212907   0.732   1.345   5.373
 4315TIP3   OH212908   6.061   4.993   4.348
 4315TIP3    H112909   6.093   4.970   4.435
 4315TIP3    H212910   6.031   5.084   4.358
 4316TIP3   OH212911   5.990   4.188   1.959
 4316TIP3    H112912   5.930   4.196   2.033
 4316TIP3    H212913   5.961   4.255   1.897
 4317TIP3   OH212914   5.436   2.317   5.633
 4317TIP3    H112915   5.388   2.335   5.714
 4317TIP3    H212916   5.397   2.375   5.569
 4318TIP3   OH212917   3.402   1.012   0.577
 4318TIP3    H112918   3.373   0.995   0.487
 4318TIP3    H212919   3.322   1.030   0.625
 4319TIP3   OH212920   3.928   4.342   2.740
 4319TIP3    H112921   3.962   4.423   2.776
 4319TIP3    H212922   3.951   4.275   2.804
 4320TIP3   OH212923   7.167   6.833   0.844
 4320TIP3    H112924   7.135   6.743   0.848
 4320TIP3    H212925   7.200   6.842   0.754
 4321TIP3   OH212926   5.093   5.323   2.424
 4321TIP3    H112927   5.159   5.383   2.389
 4321TIP3    H212928   5.026   5.318   2.356
 4322TIP3   OH212929   0.870   2.701   1.797
 4322TIP3    H112930   0.920   2.648   1.859
 4322TIP3    H212931   0.849   2.781   1.846
 4323TIP3   OH212932   3.075   1.026   1.025
 4323TIP3    H112933   3.098   0.945   0.980
 4323TIP3    H212934   3.073   1.092   0.955
 4324TIP3   OH212935   1.468   5.757   2.454
 4324TIP3    H112936   1.542   5.814   2.473
 4324TIP3    H212937   1.396   5.817   2.432
 4325TIP3   OH212938   6.111   4.717   4.939
 4325TIP3    H112939   6.142   4.762   4.861
 4325TIP3    H212940   6.113   4.783   5.008
 4326TIP3   OH212941   5.032   5.502   0.137
 4326TIP3    H112942   4.947   5.520   0.177
 4326TIP3    H212943   5.043   5.407   0.145
 4327TIP3   OH212944   4.094   2.063   1.926
 4327TIP3    H112945   4.030   2.070   1.854
 4327TIP3    H212946   4.040   2.057   2.005
 4328TIP3   OH212947   3.603   2.113   5.774
 4328TIP3    H112948   3.520   2.065   5.781
 4328TIP3    H212949   3.577   2.205   5.773
 4329TIP3   OH212950   5.820   0.755   3.440
 4329TIP3    H112951   5.864   0.678   3.404
 4329TIP3    H212952   5.803   0.731   3.532
 4330TIP3   OH212953   7.089   3.685   4.793
 4330TIP3    H112954   7.023   3.724   4.850
 4330TIP3    H212955   7.155   3.650   4.853
 4331TIP3   OH212956   5.905   4.628   2.192
 4331TIP3    H112957   5.907   4.706   2.247
 4331TIP3    H212958   5.927   4.556   2.250
 4332TIP3   OH212959   3.892   1.969   4.336
 4332TIP3    H112960   3.938   2.043   4.375
 4332TIP3    H212961   3.940   1.951   4.255
 4333TIP3   OH212962   0.548   0.035   0.363
 4333TIP3    H112963   0.618   0.066   0.420
 4333TIP3    H212964   0.517   0.114   0.317
 4334TIP3   OH212965   6.198   5.024   0.801
 4334TIP3    H112966   6.224   4.967   0.873
 4334TIP3    H212967   6.213   5.113   0.834
 4335TIP3   OH212968   3.129   2.501   3.332
 4335TIP3    H112969   3.043   2.461   3.315
 4335TIP3    H212970   3.171   2.505   3.246
 4336TIP3   OH212971   3.134   1.027   1.276
 4336TIP3    H112972   3.101   1.012   1.188
 4336TIP3    H212973   3.218   0.981   1.278
 4337TIP3   OH212974   4.108   1.679   5.101
 4337TIP3    H112975   4.132   1.696   5.010
 4337TIP3    H212976   4.017   1.709   5.108
 4338TIP3   OH212977   1.013   3.588   3.837
 4338TIP3    H112978   1.006   3.675   3.797
 4338TIP3    H212979   1.101   3.586   3.874
 4339TIP3   OH212980   2.264   2.433   0.411
 4339TIP3    H112981   2.217   2.365   0.458
 4339TIP3    H212982   2.196   2.492   0.378
 4340TIP3   OH212983   5.275   1.820   4.735
 4340TIP3    H112984   5.283   1.851   4.825
 4340TIP3    H212985   5.211   1.878   4.695
 4341TIP3   OH212986   5.867   1.710   5.414
 4341TIP3    H112987   5.880   1.633   5.358
 4341TIP3    H212988   5.784   1.693   5.458
 4342TIP3   OH212989   2.789   3.237   0.661
 4342TIP3    H112990   2.874   3.205   0.630
 4342TIP3    H212991   2.726   3.174   0.624
 4343TIP3   OH212992   5.499   2.403   1.792
 4343TIP3    H112993   5.558   2.458   1.741
 4343TIP3    H212994   5.425   2.387   1.734
 4344TIP3   OH212995   0.874   1.534   4.155
 4344TIP3    H112996   0.954   1.552   4.203
 4344TIP3    H212997   0.895   1.459   4.099
 4345TIP3   OH212998   7.146   3.193   0.352
 4345TIP3    H112999   7.132   3.151   0.437
 4345TIP3    H213000   7.153   3.286   0.372
 4346TIP3   OH213001   5.247   2.406   4.483
 4346TIP3    H113002   5.293   2.387   4.401
 4346TIP3    H213003   5.156   2.386   4.465
 4347TIP3   OH213004   5.466   1.677   2.725
 4347TIP3    H113005   5.541   1.736   2.726
 4347TIP3    H213006   5.489   1.609   2.789
 4348TIP3   OH213007   3.770   4.745   2.132
 4348TIP3    H113008   3.762   4.650   2.127
 4348TIP3    H213009   3.854   4.764   2.090
 4349TIP3   OH213010   1.110   3.273   5.690
 4349TIP3    H113011   1.092   3.185   5.657
 4349TIP3    H213012   1.023   3.311   5.706
 4350TIP3   OH213013   5.562   6.252   1.377
 4350TIP3    H113014   5.616   6.276   1.301
 4350TIP3    H213015   5.514   6.331   1.399
 4351TIP3   OH213016   0.708   0.155   2.262
 4351TIP3    H113017   0.626   0.116   2.232
 4351TIP3    H213018   0.773   0.128   2.197
 4352TIP3   OH213019   3.163   3.564   4.454
 4352TIP3    H113020   3.201   3.549   4.367
 4352TIP3    H213021   3.154   3.477   4.492
 4353TIP3   OH213022   0.552   1.480   1.129
 4353TIP3    H113023   0.489   1.521   1.188
 4353TIP3    H213024   0.499   1.422   1.075
 4354TIP3   OH213025   2.948   4.413   0.910
 4354TIP3    H113026   2.886   4.400   0.837
 4354TIP3    H213027   3.034   4.413   0.868
 4355TIP3   OH213028   6.539   5.680   5.688
 4355TIP3    H113029   6.634   5.673   5.677
 4355TIP3    H213030   6.517   5.764   5.648
 4356TIP3   OH213031   0.436   2.347   3.268
 4356TIP3    H113032   0.493   2.300   3.329
 4356TIP3    H213033   0.442   2.297   3.186
 4357TIP3   OH213034   0.665   2.404   4.390
 4357TIP3    H113035   0.651   2.482   4.444
 4357TIP3    H213036   0.578   2.364   4.384
 4358TIP3   OH213037   5.143   4.462   2.888
 4358TIP3    H113038   5.236   4.442   2.880
 4358TIP3    H213039   5.122   4.513   2.809
 4359TIP3   OH213040   4.987   6.206   0.343
 4359TIP3    H113041   4.949   6.119   0.334
 4359TIP3    H213042   5.075   6.191   0.377
 4360TIP3   OH213043   1.890   6.089   1.176
 4360TIP3    H113044   1.947   6.125   1.243
 4360TIP3    H213045   1.841   6.020   1.221
 4361TIP3   OH213046   1.993   3.017   1.899
 4361TIP3    H113047   2.031   3.066   1.972
 4361TIP3    H213048   1.933   3.078   1.857
 4362TIP3   OH213049   5.373   3.303   0.789
 4362TIP3    H113050   5.411   3.314   0.702
 4362TIP3    H213051   5.441   3.260   0.839
 4363TIP3   OH213052   6.277   2.247  -0.011
 4363TIP3    H113053   6.275   2.225   0.082
 4363TIP3    H213054   6.228   2.329  -0.017
 4364TIP3   OH213055   3.904   4.431   0.753
 4364TIP3    H113056   3.824   4.443   0.806
 4364TIP3    H213057   3.873   4.389   0.673
 4365TIP3   OH213058   3.018   5.705   3.697
 4365TIP3    H113059   3.044   5.784   3.745
 4365TIP3    H213060   3.100   5.667   3.667
 4366TIP3   OH213061   4.460   2.051   2.275
 4366TIP3    H113062   4.415   2.122   2.321
 4366TIP3    H213063   4.421   2.051   2.188
 4367TIP3   OH213064   1.099   0.851   1.333
 4367TIP3    H113065   1.067   0.765   1.305
 4367TIP3    H213066   1.039   0.877   1.403
 4368TIP3   OH213067   6.803   0.857   1.844
 4368TIP3    H113068   6.819   0.763   1.846
 4368TIP3    H213069   6.846   0.890   1.923
 4369TIP3   OH213070   1.933   6.752   4.836
 4369TIP3    H113071   2.020   6.783   4.862
 4369TIP3    H213072   1.902   6.702   4.911
 4370TIP3   OH213073   1.850   3.543   5.855
 4370TIP3    H113074   1.767   3.585   5.877
 4370TIP3    H213075   1.874   3.580   5.770
 4371TIP3   OH213076   5.718   2.644   4.721
 4371TIP3    H113077   5.701   2.624   4.629
 4371TIP3    H213078   5.779   2.575   4.750
 4372TIP3   OH213079   3.815   4.580   4.655
 4372TIP3    H113080   3.764   4.661   4.659
 4372TIP3    H213081   3.904   4.610   4.635
 4373TIP3   OH213082   5.414   5.504   0.430
 4373TIP3    H113083   5.354   5.560   0.479
 4373TIP3    H213084   5.364   5.424   0.413
 4374TIP3   OH213085   6.599   4.071   0.782
 4374TIP3    H113086   6.636   3.989   0.816
 4374TIP3    H213087   6.635   4.139   0.838
 4375TIP3   OH213088   3.490   0.835   4.484
 4375TIP3    H113089   3.582   0.849   4.459
 4375TIP3    H213090   3.458   0.922   4.506
 4376TIP3   OH213091   6.788   0.966   0.102
 4376TIP3    H113092   6.844   0.899   0.142
 4376TIP3    H213093   6.701   0.951   0.141
 4377TIP3   OH213094   4.785   1.511   0.111
 4377TIP3    H113095   4.841   1.558   0.050
 4377TIP3    H213096   4.823   1.529   0.197
 4378TIP3   OH213097   6.392   4.333   3.720
 4378TIP3    H113098   6.345   4.363   3.797
 4378TIP3    H213099   6.485   4.335   3.745
 4379TIP3   OH213100   6.019   5.482   4.023
 4379TIP3    H113101   6.033   5.577   4.022
 4379TIP3    H213102   5.925   5.472   4.008
 4380TIP3   OH213103   4.869   0.386   2.830
 4380TIP3    H113104   4.901   0.296   2.836
 4380TIP3    H213105   4.924   0.427   2.762
 4381TIP3   OH213106   4.593   6.349   5.125
 4381TIP3    H113107   4.552   6.290   5.061
 4381TIP3    H213108   4.638   6.290   5.186
 4382TIP3   OH213109   2.085   3.766   2.767
 4382TIP3    H113110   2.080   3.804   2.854
 4382TIP3    H213111   2.030   3.823   2.712
 4383TIP3   OH213112   2.238   2.758   3.767
 4383TIP3    H113113   2.147   2.757   3.738
 4383TIP3    H213114   2.248   2.842   3.812
 4384TIP3   OH213115   0.379   4.546   3.182
 4384TIP3    H113116   0.452   4.531   3.242
 4384TIP3    H213117   0.333   4.622   3.218
 4385TIP3   OH213118   4.512   2.460   5.019
 4385TIP3    H113119   4.540   2.511   5.095
 4385TIP3    H213120   4.574   2.387   5.015
 4386TIP3   OH213121   2.148   3.568   5.820
 4386TIP3    H113122   2.066   3.554   5.866
 4386TIP3    H213123   2.154   3.663   5.809
 4387TIP3   OH213124   2.023   0.897   0.791
 4387TIP3    H113125   1.970   0.974   0.771
 4387TIP3    H213126   1.966   0.823   0.770
 4388TIP3   OH213127   5.774   4.234   2.135
 4388TIP3    H113128   5.726   4.208   2.213
 4388TIP3    H213129   5.745   4.323   2.117
 4389TIP3   OH213130   2.365   3.839   4.238
 4389TIP3    H113131   2.302   3.786   4.189
 4389TIP3    H213132   2.327   3.846   4.326
 4390TIP3   OH213133   3.925   0.123   4.983
 4390TIP3    H113134   3.962   0.062   5.047
 4390TIP3    H213135   3.990   0.126   4.912
 4391TIP3   OH213136   1.204   0.766   4.579
 4391TIP3    H113137   1.200   0.671   4.569
 4391TIP3    H213138   1.112   0.793   4.583
 4392TIP3   OH213139   5.028   4.456   3.736
 4392TIP3    H113140   4.965   4.511   3.784
 4392TIP3    H213141   5.114   4.489   3.763
 4393TIP3   OH213142   5.889   0.412   0.462
 4393TIP3    H113143   5.914   0.498   0.494
 4393TIP3    H213144   5.838   0.430   0.382
 4394TIP3   OH213145   5.273   0.488   4.067
 4394TIP3    H113146   5.322   0.407   4.054
 4394TIP3    H213147   5.330   0.556   4.029
 4395TIP3   OH213148   3.846   6.760   4.446
 4395TIP3    H113149   3.823   6.824   4.514
 4395TIP3    H213150   3.942   6.765   4.440
 4396TIP3   OH213151   4.498   5.330   1.287
 4396TIP3    H113152   4.493   5.411   1.337
 4396TIP3    H213153   4.438   5.344   1.213
 4397TIP3   OH213154   7.197   3.731   0.417
 4397TIP3    H113155   7.290   3.752   0.415
 4397TIP3    H213156   7.163   3.766   0.335
 4398TIP3   OH213157   0.353   5.072   0.072
 4398TIP3    H113158   0.310   5.053   0.156
 4398TIP3    H213159   0.398   4.990   0.049
 4399TIP3   OH213160   5.791   5.334   5.518
 4399TIP3    H113161   5.840   5.412   5.545
 4399TIP3    H213162   5.845   5.294   5.450
 4400TIP3   OH213163   2.471   3.720   4.997
 4400TIP3    H113164   2.469   3.695   4.905
 4400TIP3    H213165   2.459   3.638   5.045
 4401TIP3   OH213166   6.567   3.228   1.325
 4401TIP3    H113167   6.660   3.249   1.319
 4401TIP3    H213168   6.560   3.174   1.405
 4402TIP3   OH213169   0.262   0.815   4.089
 4402TIP3    H113170   0.279   0.749   4.022
 4402TIP3    H213171   0.322   0.793   4.160
 4403TIP3   OH213172   7.016   1.657   0.130
 4403TIP3    H113173   6.944   1.707   0.169
 4403TIP3    H213174   7.041   1.708   0.053
 4404TIP3   OH213175   2.677   0.546   1.553
 4404TIP3    H113176   2.761   0.568   1.514
 4404TIP3    H213177   2.625   0.510   1.481
 4405TIP3   OH213178   3.736   3.033   4.570
 4405TIP3    H113179   3.775   3.112   4.531
 4405TIP3    H213180   3.807   2.969   4.568
 4406TIP3   OH213181   2.880   6.049   2.024
 4406TIP3    H113182   2.883   6.024   2.117
 4406TIP3    H213183   2.850   5.971   1.979
 4407TIP3   OH213184   5.776   1.566   1.335
 4407TIP3    H113185   5.835   1.588   1.408
 4407TIP3    H213186   5.761   1.472   1.344
 4408TIP3   OH213187   6.497   3.888   3.195
 4408TIP3    H113188   6.423   3.945   3.217
 4408TIP3    H213189   6.571   3.947   3.185
 4409TIP3   OH213190   0.091   1.141   4.125
 4409TIP3    H113191   0.168   1.193   4.147
 4409TIP3    H213192   0.092   1.068   4.186
 4410TIP3   OH213193   3.501   3.699   0.649
 4410TIP3    H113194   3.456   3.771   0.604
 4410TIP3    H213195   3.590   3.701   0.613
 4411TIP3   OH213196   0.787   5.797   2.302
 4411TIP3    H113197   0.854   5.741   2.263
 4411TIP3    H213198   0.836   5.870   2.340
 4412TIP3   OH213199   1.975   0.911   1.379
 4412TIP3    H113200   1.943   1.000   1.362
 4412TIP3    H213201   1.982   0.871   1.292
 4413TIP3   OH213202   4.032   1.438   2.331
 4413TIP3    H113203   3.951   1.388   2.340
 4413TIP3    H213204   4.032   1.468   2.240
 4414TIP3   OH213205   1.765   5.237   1.442
 4414TIP3    H113206   1.803   5.221   1.355
 4414TIP3    H213207   1.671   5.227   1.429
 4415TIP3   OH213208   6.071   4.767   3.606
 4415TIP3    H113209   5.989   4.814   3.597
 4415TIP3    H213210   6.097   4.781   3.698
 4416TIP3   OH213211   6.610   0.897   5.844
 4416TIP3    H113212   6.662   0.855   5.776
 4416TIP3    H213213   6.523   0.906   5.806
 4417TIP3   OH213214   6.832   4.092   0.566
 4417TIP3    H113215   6.868   4.170   0.525
 4417TIP3    H213216   6.787   4.124   0.644
 4418TIP3   OH213217   5.678   2.861   2.680
 4418TIP3    H113218   5.666   2.921   2.606
 4418TIP3    H213219   5.706   2.918   2.753
 4419TIP3   OH213220   1.488   5.028   2.341
 4419TIP3    H113221   1.442   5.013   2.259
 4419TIP3    H213222   1.418   5.032   2.407
 4420TIP3   OH213223   6.926   5.592   0.618
 4420TIP3    H113224   6.983   5.632   0.552
 4420TIP3    H213225   6.986   5.562   0.686
 4421TIP3   OH213226   3.723   5.236   1.008
 4421TIP3    H113227   3.648   5.295   1.013
 4421TIP3    H213228   3.687   5.153   0.977
 4422TIP3   OH213229   0.148   5.641   0.379
 4422TIP3    H113230   0.204   5.669   0.452
 4422TIP3    H213231   0.169   5.548   0.367
 4423TIP3   OH213232   5.111   4.437   4.602
 4423TIP3    H113233   5.067   4.400   4.679
 4423TIP3    H213234   5.068   4.522   4.589
 4424TIP3   OH213235   6.110   2.721   5.624
 4424TIP3    H113236   6.077   2.631   5.620
 4424TIP3    H213237   6.122   2.746   5.532
 4425TIP3   OH213238   1.712   0.363   2.788
 4425TIP3    H113239   1.797   0.356   2.745
 4425TIP3    H213240   1.728   0.416   2.866
 4426TIP3   OH213241   3.312   2.566   0.240
 4426TIP3    H113242   3.243   2.599   0.182
 4426TIP3    H213243   3.351   2.492   0.193
 4427TIP3   OH213244   1.281   0.511   4.531
 4427TIP3    H113245   1.227   0.476   4.461
 4427TIP3    H213246   1.367   0.471   4.517
 4428TIP3   OH213247   0.185   5.128   2.356
 4428TIP3    H113248   0.113   5.161   2.410
 4428TIP3    H213249   0.246   5.089   2.418
 4429TIP3   OH213250   6.421   4.033   5.874
 4429TIP3    H113251   6.466   4.117   5.882
 4429TIP3    H213252   6.490   3.969   5.860
 4430TIP3   OH213253   1.573   5.629   4.760
 4430TIP3    H113254   1.576   5.594   4.849
 4430TIP3    H213255   1.619   5.713   4.767
 4431TIP3   OH213256   3.545   2.974   0.249
 4431TIP3    H113257   3.461   2.999   0.285
 4431TIP3    H213258   3.588   2.925   0.319
 4432TIP3   OH213259   3.989   0.328   4.199
 4432TIP3    H113260   3.936   0.399   4.162
 4432TIP3    H213261   3.924   0.264   4.229
 4433TIP3   OH213262   5.303   2.101   0.939
 4433TIP3    H113263   5.351   2.048   1.003
 4433TIP3    H213264   5.259   2.168   0.991
 4434TIP3   OH213265   1.996   0.299   0.147
 4434TIP3    H113266   2.087   0.286   0.121
 4434TIP3    H213267   1.991   0.264   0.236
 4435TIP3   OH213268   2.061   1.406   4.145
 4435TIP3    H113269   2.030   1.315   4.149
 4435TIP3    H213270   1.996   1.456   4.194
 4436TIP3   OH213271   0.896   6.718   5.406
 4436TIP3    H113272   0.811   6.704   5.448
 4436TIP3    H213273   0.956   6.659   5.451
 4437TIP3   OH213274   3.449   2.678   2.892
 4437TIP3    H113275   3.538   2.659   2.863
 4437TIP3    H213276   3.410   2.727   2.820
 4438TIP3   OH213277   6.979   3.477   1.686
 4438TIP3    H113278   7.036   3.547   1.656
 4438TIP3    H213279   6.892   3.515   1.686
 4439TIP3   OH213280   3.820   5.018   2.351
 4439TIP3    H113281   3.755   5.043   2.286
 4439TIP3    H213282   3.833   5.098   2.403
 4440TIP3   OH213283   2.106   6.255   2.999
 4440TIP3    H113284   2.023   6.294   2.970
 4440TIP3    H213285   2.124   6.186   2.935
 4441TIP3   OH213286   4.046   4.254   5.062
 4441TIP3    H113287   4.084   4.167   5.050
 4441TIP3    H213288   3.958   4.247   5.024
 4442TIP3   OH213289   5.966   4.413   2.335
 4442TIP3    H113290   6.026   4.436   2.406
 4442TIP3    H213291   5.992   4.324   2.311
 4443TIP3   OH213292   4.496   0.310   1.819
 4443TIP3    H113293   4.417   0.357   1.796
 4443TIP3    H213294   4.560   0.378   1.841
 4444TIP3   OH213295   3.764   5.305   5.804
 4444TIP3    H113296   3.689   5.361   5.785
 4444TIP3    H213297   3.731   5.216   5.788
 4445TIP3   OH213298   6.736   4.074   5.623
 4445TIP3    H113299   6.824   4.044   5.647
 4445TIP3    H213300   6.735   4.167   5.647
 4446TIP3   OH213301   3.913   2.820   0.136
 4446TIP3    H113302   3.924   2.794   0.228
 4446TIP3    H213303   4.002   2.832   0.104
 4447TIP3   OH213304   3.210   2.743   3.729
 4447TIP3    H113305   3.240   2.740   3.638
 4447TIP3    H213306   3.208   2.651   3.756
 4448TIP3   OH213307   3.258   5.679   0.238
 4448TIP3    H113308   3.244   5.586   0.258
 4448TIP3    H213309   3.341   5.681   0.191
 4449TIP3   OH213310   1.686   5.402   3.211
 4449TIP3    H113311   1.648   5.463   3.148
 4449TIP3    H213312   1.780   5.418   3.205
 4450TIP3   OH213313   3.486   1.137   4.155
 4450TIP3    H113314   3.442   1.078   4.095
 4450TIP3    H213315   3.488   1.221   4.109
 4451TIP3   OH213316   5.407   1.595   1.253
 4451TIP3    H113317   5.457   1.569   1.330
 4451TIP3    H213318   5.396   1.515   1.203
 4452TIP3   OH213319   4.996   5.199   5.006
 4452TIP3    H113320   4.901   5.205   5.008
 4452TIP3    H213321   5.016   5.116   5.051
 4453TIP3   OH213322   5.943   3.334   3.711
 4453TIP3    H113323   5.851   3.309   3.711
 4453TIP3    H213324   5.942   3.428   3.732
 4454TIP3   OH213325   1.492   2.259   5.453
 4454TIP3    H113326   1.471   2.165   5.455
 4454TIP3    H213327   1.409   2.303   5.470
 4455TIP3   OH213328   2.601   5.329   2.408
 4455TIP3    H113329   2.610   5.242   2.370
 4455TIP3    H213330   2.676   5.337   2.467
 4456TIP3   OH213331   0.452   3.170   0.452
 4456TIP3    H113332   0.382   3.228   0.481
 4456TIP3    H213333   0.463   3.108   0.524
 4457TIP3   OH213334   0.123   6.431   2.200
 4457TIP3    H113335   0.033   6.462   2.213
 4457TIP3    H213336   0.151   6.406   2.288
 4458TIP3   OH213337   6.189   1.887   2.185
 4458TIP3    H113338   6.152   1.963   2.139
 4458TIP3    H213339   6.118   1.823   2.189
 4459TIP3   OH213340   0.390   0.621   3.484
 4459TIP3    H113341   0.389   0.692   3.548
 4459TIP3    H213342   0.303   0.581   3.490
 4460TIP3   OH213343   4.074   1.057   2.501
 4460TIP3    H113344   4.023   0.979   2.477
 4460TIP3    H213345   4.130   1.027   2.572
 4461TIP3   OH213346   4.822   6.412   0.385
 4461TIP3    H113347   4.897   6.353   0.376
 4461TIP3    H213348   4.745   6.355   0.377
 4462TIP3   OH213349   5.226   5.565   1.054
 4462TIP3    H113350   5.260   5.644   1.096
 4462TIP3    H213351   5.282   5.494   1.087
 4463TIP3   OH213352   3.625   1.408   0.231
 4463TIP3    H113353   3.654   1.321   0.205
 4463TIP3    H213354   3.701   1.464   0.216
 4464TIP3   OH213355   3.402   6.290   2.485
 4464TIP3    H113356   3.493   6.284   2.515
 4464TIP3    H213357   3.381   6.202   2.453
 4465TIP3   OH213358   1.785   2.479   5.126
 4465TIP3    H113359   1.848   2.485   5.198
 4465TIP3    H213360   1.838   2.466   5.048
 4466TIP3   OH213361   1.760   4.753   0.309
 4466TIP3    H113362   1.704   4.739   0.232
 4466TIP3    H213363   1.835   4.803   0.275
 4467TIP3   OH213364   6.037   0.491   5.744
 4467TIP3    H113365   6.038   0.463   5.652
 4467TIP3    H213366   5.946   0.483   5.771
 4468TIP3   OH213367   3.633   0.835   2.680
 4468TIP3    H113368   3.649   0.882   2.762
 4468TIP3    H213369   3.709   0.855   2.626
 4469TIP3   OH213370   4.899   1.321   0.743
 4469TIP3    H113371   4.878   1.240   0.789
 4469TIP3    H213372   4.980   1.301   0.695
 4470TIP3   OH213373   1.720   5.891   0.208
 4470TIP3    H113374   1.667   5.816   0.180
 4470TIP3    H213375   1.655   5.955   0.238
 4471TIP3   OH213376   2.757   3.840   5.198
 4471TIP3    H113377   2.749   3.932   5.223
 4471TIP3    H213378   2.751   3.841   5.102
 4472TIP3   OH213379   3.571   1.654   4.980
 4472TIP3    H113380   3.490   1.701   4.958
 4472TIP3    H213381   3.545   1.562   4.985
 4473TIP3   OH213382   5.752   6.573   2.066
 4473TIP3    H113383   5.688   6.641   2.089
 4473TIP3    H213384   5.834   6.621   2.054
 4474TIP3   OH213385   7.032   4.444   2.715
 4474TIP3    H113386   7.087   4.394   2.654
 4474TIP3    H213387   7.010   4.523   2.666
 4475TIP3   OH213388   6.404   0.819   0.944
 4475TIP3    H113389   6.483   0.858   0.983
 4475TIP3    H213390   6.436   0.742   0.897
 4476TIP3   OH213391   5.645   1.593   1.763
 4476TIP3    H113392   5.731   1.555   1.778
 4476TIP3    H213393   5.661   1.687   1.752
 4477TIP3   OH213394   6.878   0.389   3.203
 4477TIP3    H113395   6.816   0.461   3.217
 4477TIP3    H213396   6.951   0.409   3.262
 4478TIP3   OH213397   2.477   3.254   3.405
 4478TIP3    H113398   2.406   3.243   3.342
 4478TIP3    H213399   2.471   3.177   3.462
 4479TIP3   OH213400   1.155   2.966   3.674
 4479TIP3    H113401   1.132   2.958   3.582
 4479TIP3    H213402   1.202   3.049   3.680
 4480TIP3   OH213403   4.032   3.319   2.524
 4480TIP3    H113404   4.010   3.377   2.451
 4480TIP3    H213405   3.987   3.237   2.503
 4481TIP3   OH213406   0.068   1.618   4.024
 4481TIP3    H113407   0.019   1.536   4.030
 4481TIP3    H213408   0.074   1.649   4.115
 4482TIP3   OH213409   3.284   2.372   0.048
 4482TIP3    H113410   3.268   2.284   0.014
 4482TIP3    H213411   3.220   2.427   0.002
 4483TIP3   OH213412   4.188   3.361   1.358
 4483TIP3    H113413   4.097   3.337   1.341
 4483TIP3    H213414   4.185   3.416   1.436
 4484TIP3   OH213415   1.619   1.863   0.351
 4484TIP3    H113416   1.637   1.883   0.443
 4484TIP3    H213417   1.678   1.920   0.302
 4485TIP3   OH213418   5.350   4.761   5.459
 4485TIP3    H113419   5.432   4.772   5.507
 4485TIP3    H213420   5.364   4.809   5.378
 4486TIP3   OH213421   1.360   1.145   0.912
 4486TIP3    H113422   1.278   1.181   0.877
 4486TIP3    H213423   1.334   1.067   0.960
 4487TIP3   OH213424   3.569   6.088   4.049
 4487TIP3    H113425   3.638   6.153   4.039
 4487TIP3    H213426   3.550   6.059   3.959
 4488TIP3   OH213427   4.816   6.567   5.176
 4488TIP3    H113428   4.799   6.489   5.124
 4488TIP3    H213429   4.888   6.611   5.131
 4489TIP3   OH213430   4.559   1.703   1.984
 4489TIP3    H113431   4.641   1.682   2.030
 4489TIP3    H213432   4.563   1.798   1.972
 4490TIP3   OH213433   4.259   1.622   3.148
 4490TIP3    H113434   4.235   1.628   3.056
 4490TIP3    H213435   4.354   1.629   3.149
 4491TIP3   OH213436   0.161   0.228   0.323
 4491TIP3    H113437   0.204   0.288   0.262
 4491TIP3    H213438   0.201   0.143   0.305
 4492TIP3   OH213439   0.289   5.651   3.029
 4492TIP3    H113440   0.361   5.711   3.047
 4492TIP3    H213441   0.324   5.589   2.965
 4493TIP3   OH213442   1.540   5.311   2.415
 4493TIP3    H113443   1.497   5.381   2.367
 4493TIP3    H213444   1.540   5.237   2.355
 4494TIP3   OH213445   5.533   6.029   0.332
 4494TIP3    H113446   5.618   6.072   0.344
 4494TIP3    H213447   5.506   6.004   0.420
 4495TIP3   OH213448   2.764   3.770   4.058
 4495TIP3    H113449   2.838   3.830   4.049
 4495TIP3    H213450   2.804   3.683   4.056
 4496TIP3   OH213451   2.443   6.572   4.221
 4496TIP3    H113452   2.362   6.567   4.272
 4496TIP3    H213453   2.426   6.640   4.155
 4497TIP3   OH213454   4.165   4.719   2.221
 4497TIP3    H113455   4.128   4.678   2.300
 4497TIP3    H213456   4.124   4.806   2.218
 4498TIP3   OH213457   3.609   1.971   3.265
 4498TIP3    H113458   3.570   2.010   3.343
 4498TIP3    H213459   3.702   1.964   3.286
 4499TIP3   OH213460   0.912   4.520   4.426
 4499TIP3    H113461   0.995   4.562   4.404
 4499TIP3    H213462   0.872   4.579   4.491
 4500TIP3   OH213463   2.883   0.738   2.986
 4500TIP3    H113464   2.888   0.647   3.016
 4500TIP3    H213465   2.803   0.773   3.026
 4501TIP3   OH213466   2.957   2.759   3.444
 4501TIP3    H113467   2.987   2.674   3.412
 4501TIP3    H213468   3.033   2.817   3.433
 4502TIP3   OH213469   3.088   5.488   4.937
 4502TIP3    H113470   3.120   5.418   4.879
 4502TIP3    H213471   3.021   5.445   4.990
 4503TIP3   OH213472   5.246   6.616   0.696
 4503TIP3    H113473   5.184   6.687   0.679
 4503TIP3    H213474   5.238   6.600   0.790
 4504TIP3   OH213475   2.452   1.128   0.101
 4504TIP3    H113476   2.484   1.038   0.111
 4504TIP3    H213477   2.416   1.130   0.012
 4505TIP3   OH213478   0.338   0.912   5.647
 4505TIP3    H113479   0.428   0.886   5.631
 4505TIP3    H213480   0.317   0.877   5.733
 4506TIP3   OH213481   4.503   5.585   2.308
 4506TIP3    H113482   4.521   5.551   2.396
 4506TIP3    H213483   4.537   5.674   2.309
 4507TIP3   OH213484   6.292   4.020   1.260
 4507TIP3    H113485   6.317   4.043   1.170
 4507TIP3    H213486   6.196   4.023   1.259
 4508TIP3   OH213487   5.840   6.205   1.161
 4508TIP3    H113488   5.870   6.260   1.088
 4508TIP3    H213489   5.889   6.237   1.237
 4509TIP3   OH213490   2.098   3.325   0.293
 4509TIP3    H113491   2.115   3.380   0.370
 4509TIP3    H213492   2.171   3.343   0.235
 4510TIP3   OH213493   0.943   4.031   2.295
 4510TIP3    H113494   0.922   4.092   2.365
 4510TIP3    H213495   0.882   4.054   2.225
 4511TIP3   OH213496   3.750   6.564   3.553
 4511TIP3    H113497   3.758   6.522   3.467
 4511TIP3    H213498   3.839   6.563   3.588
 4512TIP3   OH213499   3.617   4.972   2.058
 4512TIP3    H113500   3.582   4.948   1.972
 4512TIP3    H213501   3.675   4.899   2.081
 4513TIP3   OH213502   6.620   3.853   0.014
 4513TIP3    H113503   6.646   3.769  -0.025
 4513TIP3    H213504   6.637   3.842   0.107
 4514TIP3   OH213505   2.647   3.022   4.204
 4514TIP3    H113506   2.670   2.965   4.277
 4514TIP3    H213507   2.570   3.069   4.234
 4515TIP3   OH213508   0.433   2.715   0.695
 4515TIP3    H113509   0.428   2.771   0.617
 4515TIP3    H213510   0.525   2.716   0.720
 4516TIP3   OH213511   1.865   0.640   0.943
 4516TIP3    H113512   1.771   0.658   0.940
 4516TIP3    H213513   1.891   0.638   0.851
 4517TIP3   OH213514   2.846   4.420   3.510
 4517TIP3    H113515   2.903   4.401   3.584
 4517TIP3    H213516   2.758   4.423   3.547
 4518TIP3   OH213517   6.083   0.553   1.457
 4518TIP3    H113518   6.025   0.499   1.511
 4518TIP3    H213519   6.142   0.594   1.520
 4519TIP3   OH213520   4.140   3.480   3.023
 4519TIP3    H113521   4.078   3.446   2.959
 4519TIP3    H213522   4.091   3.546   3.072
 4520TIP3   OH213523   1.107   6.194   0.107
 4520TIP3    H113524   1.143   6.281   0.087
 4520TIP3    H213525   1.110   6.189   0.203
 4521TIP3   OH213526   3.374   4.168   2.649
 4521TIP3    H113527   3.465   4.184   2.676
 4521TIP3    H213528   3.332   4.253   2.652
 4522TIP3   OH213529   1.914   3.980   2.667
 4522TIP3    H113530   1.937   4.064   2.706
 4522TIP3    H213531   1.863   3.935   2.734
 4523TIP3   OH213532   2.337   3.974   0.223
 4523TIP3    H113533   2.303   3.899   0.270
 4523TIP3    H213534   2.261   4.030   0.208
 4524TIP3   OH213535   4.707   1.289   3.637
 4524TIP3    H113536   4.687   1.256   3.724
 4524TIP3    H213537   4.722   1.382   3.649
 4525TIP3   OH213538   3.694   5.260   1.675
 4525TIP3    H113539   3.650   5.175   1.677
 4525TIP3    H213540   3.759   5.254   1.745
 4526TIP3   OH213541   4.491   0.622   3.200
 4526TIP3    H113542   4.485   0.588   3.111
 4526TIP3    H213543   4.494   0.717   3.190
 4527TIP3   OH213544   3.186   3.257   2.630
 4527TIP3    H113545   3.128   3.182   2.640
 4527TIP3    H213546   3.254   3.226   2.570
 4528TIP3   OH213547   4.995   5.108   3.580
 4528TIP3    H113548   4.908   5.100   3.542
 4528TIP3    H213549   4.990   5.184   3.637
 4529TIP3   OH213550   5.436   1.392   0.038
 4529TIP3    H113551   5.407   1.316  -0.011
 4529TIP3    H213552   5.416   1.371   0.129
 4530TIP3   OH213553   3.297   5.220   3.907
 4530TIP3    H113554   3.386   5.190   3.887
 4530TIP3    H213555   3.275   5.279   3.835
 4531TIP3   OH213556   1.137   2.325   5.302
 4531TIP3    H113557   1.180   2.250   5.261
 4531TIP3    H213558   1.135   2.391   5.232
 4532TIP3   OH213559   1.832   4.595   2.822
 4532TIP3    H113560   1.788   4.630   2.744
 4532TIP3    H213561   1.913   4.556   2.789
 4533TIP3   OH213562   5.483   3.994   1.188
 4533TIP3    H113563   5.462   3.986   1.095
 4533TIP3    H213564   5.403   4.028   1.228
 4534TIP3   OH213565   1.427   3.791   1.566
 4534TIP3    H113566   1.339   3.759   1.585
 4534TIP3    H213567   1.457   3.830   1.648
 4535TIP3   OH213568   0.573   2.940   5.175
 4535TIP3    H113569   0.547   2.853   5.206
 4535TIP3    H213570   0.512   3.000   5.218
 4536TIP3   OH213571   3.685   4.493   2.686
 4536TIP3    H113572   3.708   4.522   2.598
 4536TIP3    H213573   3.761   4.445   2.716
 4537TIP3   OH213574   0.113   5.251   3.029
 4537TIP3    H113575   0.184   5.285   2.975
 4537TIP3    H213576   0.094   5.165   2.991
 4538TIP3   OH213577   3.900   5.452   2.695
 4538TIP3    H113578   3.991   5.430   2.675
 4538TIP3    H213579   3.891   5.435   2.789
 4539TIP3   OH213580   6.402   2.734   5.642
 4539TIP3    H113581   6.409   2.705   5.551
 4539TIP3    H213582   6.309   2.723   5.664
 4540TIP3   OH213583   3.548   4.016   0.195
 4540TIP3    H113584   3.585   4.080   0.134
 4540TIP3    H213585   3.555   3.933   0.149
 4541TIP3   OH213586   2.504   1.801   5.786
 4541TIP3    H113587   2.414   1.786   5.756
 4541TIP3    H213588   2.523   1.724   5.840
 4542TIP3   OH213589   6.647   5.279   1.572
 4542TIP3    H113590   6.629   5.198   1.525
 4542TIP3    H213591   6.614   5.348   1.515
 4543TIP3   OH213592   5.130   1.172   4.958
 4543TIP3    H113593   5.150   1.142   4.869
 4543TIP3    H213594   5.216   1.181   5.000
 4544TIP3   OH213595   5.103   3.628   4.386
 4544TIP3    H113596   5.129   3.545   4.427
 4544TIP3    H213597   5.114   3.693   4.456
 4545TIP3   OH213598   2.333   1.916   3.874
 4545TIP3    H113599   2.269   1.985   3.893
 4545TIP3    H213600   2.295   1.867   3.802
 4546TIP3   OH213601   6.615   2.278   4.863
 4546TIP3    H113602   6.560   2.216   4.910
 4546TIP3    H213603   6.655   2.226   4.793
 4547TIP3   OH213604   2.612   2.768   1.721
 4547TIP3    H113605   2.666   2.691   1.701
 4547TIP3    H213606   2.547   2.736   1.783
 4548TIP3   OH213607   3.839   3.020   5.811
 4548TIP3    H113608   3.917   3.075   5.819
 4548TIP3    H213609   3.786   3.064   5.744
 4549TIP3   OH213610   4.314   6.117   3.053
 4549TIP3    H113611   4.359   6.163   2.982
 4549TIP3    H213612   4.289   6.185   3.115
 4550TIP3   OH213613   7.170   1.586   0.383
 4550TIP3    H113614   7.148   1.653   0.318
 4550TIP3    H213615   7.087   1.541   0.400
 4551TIP3   OH213616   1.434   3.300   5.848
 4551TIP3    H113617   1.389   3.377   5.882
 4551TIP3    H213618   1.381   3.226   5.878
 4552TIP3   OH213619   2.168   6.106   5.748
 4552TIP3    H113620   2.077   6.108   5.719
 4552TIP3    H213621   2.218   6.129   5.669
 4553TIP3   OH213622   2.537   2.836   4.990
 4553TIP3    H113623   2.591   2.913   4.974
 4553TIP3    H213624   2.564   2.773   4.923
 4554TIP3   OH213625   4.609   4.046   1.656
 4554TIP3    H113626   4.699   4.049   1.689
 4554TIP3    H213627   4.606   4.113   1.588
 4555TIP3   OH213628   4.778   5.920   2.531
 4555TIP3    H113629   4.872   5.906   2.542
 4555TIP3    H213630   4.754   5.979   2.602
 4556TIP3   OH213631   4.229   0.719   2.257
 4556TIP3    H113632   4.296   0.787   2.252
 4556TIP3    H213633   4.278   0.637   2.254
 4557TIP3   OH213634   4.043   6.510   0.170
 4557TIP3    H113635   4.026   6.432   0.116
 4557TIP3    H213636   4.111   6.557   0.123
 4558TIP3   OH213637   5.358   0.138   0.126
 4558TIP3    H113638   5.445   0.144   0.166
 4558TIP3    H213639   5.361   0.057   0.075
 4559TIP3   OH213640   5.835   0.176   5.625
 4559TIP3    H113641   5.915   0.139   5.662
 4559TIP3    H213642   5.861   0.263   5.594
 4560TIP3   OH213643   5.801   6.160   5.570
 4560TIP3    H113644   5.770   6.198   5.652
 4560TIP3    H213645   5.853   6.229   5.529
 4561TIP3   OH213646   6.990   4.098   3.098
 4561TIP3    H113647   6.964   4.189   3.085
 4561TIP3    H213648   7.004   4.065   3.009
 4562TIP3   OH213649   5.715   2.735   5.026
 4562TIP3    H113650   5.810   2.726   5.032
 4562TIP3    H213651   5.693   2.698   4.941
 4563TIP3   OH213652   4.036   2.742   3.298
 4563TIP3    H113653   4.006   2.832   3.289
 4563TIP3    H213654   3.955   2.690   3.292
 4564TIP3   OH213655   1.129   5.165   0.792
 4564TIP3    H113656   1.111   5.241   0.736
 4564TIP3    H213657   1.145   5.093   0.731
 4565TIP3   OH213658   5.261   6.750   1.389
 4565TIP3    H113659   5.353   6.765   1.370
 4565TIP3    H213660   5.245   6.659   1.362
 4566TIP3   OH213661   3.015   5.687   1.521
 4566TIP3    H113662   2.941   5.737   1.555
 4566TIP3    H213663   3.092   5.728   1.562
 4567TIP3   OH213664   1.323   6.308   4.692
 4567TIP3    H113665   1.269   6.386   4.685
 4567TIP3    H213666   1.276   6.251   4.753
 4568TIP3   OH213667   0.737   2.124   2.047
 4568TIP3    H113668   0.769   2.150   1.960
 4568TIP3    H213669   0.662   2.181   2.063
 4569TIP3   OH213670   6.837   5.034   4.909
 4569TIP3    H113671   6.891   5.033   4.988
 4569TIP3    H213672   6.786   5.114   4.916
 4570TIP3   OH213673   6.431   2.195   5.298
 4570TIP3    H113674   6.487   2.120   5.279
 4570TIP3    H213675   6.464   2.265   5.242
 4571TIP3   OH213676   0.952   4.195   1.866
 4571TIP3    H113677   0.901   4.190   1.785
 4571TIP3    H213678   0.924   4.120   1.918
 4572TIP3   OH213679   1.395   3.286   5.567
 4572TIP3    H113680   1.392   3.321   5.656
 4572TIP3    H213681   1.422   3.360   5.512
 4573TIP3   OH213682   5.685   0.138   2.747
 4573TIP3    H113683   5.630   0.118   2.671
 4573TIP3    H213684   5.623   0.142   2.820
 4574TIP3   OH213685   5.086   6.146   4.286
 4574TIP3    H113686   5.063   6.056   4.262
 4574TIP3    H213687   5.094   6.144   4.381
 4575TIP3   OH213688   0.400   4.466   3.802
 4575TIP3    H113689   0.336   4.477   3.872
 4575TIP3    H213690   0.472   4.524   3.826
 4576TIP3   OH213691   0.314   4.716   1.996
 4576TIP3    H113692   0.228   4.749   1.969
 4576TIP3    H213693   0.375   4.785   1.968
 4577TIP3   OH213694   5.930   0.437   1.653
 4577TIP3    H113695   5.917   0.343   1.639
 4577TIP3    H213696   5.942   0.447   1.747
 4578TIP3   OH213697   6.910   3.242   4.996
 4578TIP3    H113698   6.986   3.262   4.941
 4578TIP3    H213699   6.942   3.254   5.086
 4579TIP3   OH213700   6.066   2.956   1.966
 4579TIP3    H113701   6.071   2.896   2.041
 4579TIP3    H213702   5.976   2.946   1.934
 4580TIP3   OH213703   5.234   4.663   1.696
 4580TIP3    H113704   5.231   4.572   1.724
 4580TIP3    H213705   5.192   4.712   1.766
 4581TIP3   OH213706   5.831   2.381   2.051
 4581TIP3    H113707   5.819   2.450   1.987
 4581TIP3    H213708   5.748   2.333   2.050
 4582TIP3   OH213709   7.180   0.067   1.457
 4582TIP3    H113710   7.266   0.081   1.497
 4582TIP3    H213711   7.149  -0.015   1.494
 4583TIP3   OH213712   1.027   2.408   1.003
 4583TIP3    H113713   1.021   2.350   1.079
 4583TIP3    H213714   1.116   2.442   1.006
 4584TIP3   OH213715   0.390   5.655   0.952
 4584TIP3    H113716   0.447   5.714   1.000
 4584TIP3    H213717   0.324   5.628   1.015
 4585TIP3   OH213718   0.398   4.616   0.544
 4585TIP3    H113719   0.366   4.650   0.460
 4585TIP3    H213720   0.319   4.597   0.594
 4586TIP3   OH213721   6.032   0.833   5.248
 4586TIP3    H113722   5.938   0.818   5.260
 4586TIP3    H213723   6.037   0.902   5.182
 4587TIP3   OH213724   3.372   4.843   0.546
 4587TIP3    H113725   3.302   4.898   0.513
 4587TIP3    H213726   3.449   4.900   0.549
 4588TIP3   OH213727   2.649   4.757   2.209
 4588TIP3    H113728   2.640   4.754   2.114
 4588TIP3    H213729   2.742   4.742   2.225
 4589TIP3   OH213730   6.226   1.078   1.576
 4589TIP3    H113731   6.265   1.164   1.592
 4589TIP3    H213732   6.268   1.048   1.495
 4590TIP3   OH213733   3.374   1.220   2.664
 4590TIP3    H113734   3.465   1.230   2.693
 4590TIP3    H213735   3.335   1.306   2.681
 4591TIP3   OH213736   2.386   1.139   1.812
 4591TIP3    H113737   2.298   1.117   1.842
 4591TIP3    H213738   2.445   1.094   1.873
 4592TIP3   OH213739   5.775   2.625   2.790
 4592TIP3    H113740   5.771   2.575   2.708
 4592TIP3    H213741   5.747   2.713   2.765
 4593TIP3   OH213742   4.309   6.151   3.421
 4593TIP3    H113743   4.232   6.149   3.364
 4593TIP3    H213744   4.332   6.059   3.433
 4594TIP3   OH213745   1.936   5.076   2.973
 4594TIP3    H113746   1.957   5.087   3.065
 4594TIP3    H213747   1.930   4.982   2.960
 4595TIP3   OH213748   0.704   0.562   4.019
 4595TIP3    H113749   0.717   0.625   3.949
 4595TIP3    H213750   0.663   0.487   3.976
 4596TIP3   OH213751   4.935   2.475   5.621
 4596TIP3    H113752   4.986   2.449   5.544
 4596TIP3    H213753   4.985   2.546   5.660
 4597TIP3   OH213754   3.130   3.688   0.514
 4597TIP3    H113755   3.103   3.620   0.576
 4597TIP3    H213756   3.207   3.728   0.555
 4598TIP3   OH213757   2.107   4.825   0.602
 4598TIP3    H113758   2.105   4.910   0.558
 4598TIP3    H213759   2.030   4.779   0.570
 4599TIP3   OH213760   3.691   6.480   0.518
 4599TIP3    H113761   3.730   6.566   0.498
 4599TIP3    H213762   3.668   6.444   0.432
 4600TIP3   OH213763   3.038   6.364   4.372
 4600TIP3    H113764   3.011   6.275   4.352
 4600TIP3    H213765   2.959   6.417   4.359
 4601TIP3   OH213766   1.265   0.784   3.135
 4601TIP3    H113767   1.356   0.763   3.155
 4601TIP3    H213768   1.222   0.698   3.129
 4602TIP3   OH213769   2.617   4.580   1.118
 4602TIP3    H113770   2.530   4.552   1.149
 4602TIP3    H213771   2.678   4.534   1.176
 4603TIP3   OH213772   7.217   2.965   5.237
 4603TIP3    H113773   7.308   2.940   5.253
 4603TIP3    H213774   7.180   2.975   5.325
 4604TIP3   OH213775   1.422   4.638   2.206
 4604TIP3    H113776   1.430   4.550   2.168
 4604TIP3    H213777   1.496   4.686   2.170
 4605TIP3   OH213778   5.499   4.042   0.407
 4605TIP3    H113779   5.424   4.083   0.450
 4605TIP3    H213780   5.574   4.096   0.434
 4606TIP3   OH213781   1.053   2.844   3.891
 4606TIP3    H113782   1.114   2.872   3.823
 4606TIP3    H213783   1.013   2.764   3.857
 4607TIP3   OH213784   3.496   5.501   3.782
 4607TIP3    H113785   3.501   5.595   3.765
 4607TIP3    H213786   3.439   5.493   3.859
 4608TIP3   OH213787   3.025   3.434   2.460
 4608TIP3    H113788   3.081   3.384   2.520
 4608TIP3    H213789   3.008   3.374   2.388
 4609TIP3   OH213790   6.862   4.587   3.739
 4609TIP3    H113791   6.908   4.576   3.656
 4609TIP3    H213792   6.907   4.659   3.783
 4610TIP3   OH213793   4.117   5.077   5.620
 4610TIP3    H113794   4.159   5.067   5.535
 4610TIP3    H213795   4.051   5.145   5.607
 4611TIP3   OH213796   3.196   4.880   3.104
 4611TIP3    H113797   3.155   4.867   3.189
 4611TIP3    H213798   3.287   4.903   3.124
 4612TIP3   OH213799   5.702   6.148   4.009
 4612TIP3    H113800   5.658   6.165   4.093
 4612TIP3    H213801   5.635   6.167   3.943
 4613TIP3   OH213802   1.149   1.897   4.440
 4613TIP3    H113803   1.111   1.968   4.492
 4613TIP3    H213804   1.120   1.915   4.351
 4614TIP3   OH213805   0.550   5.417   2.363
 4614TIP3    H113806   0.456   5.403   2.354
 4614TIP3    H213807   0.586   5.398   2.277
 4615TIP3   OH213808   0.931   4.566   3.492
 4615TIP3    H113809   0.915   4.592   3.583
 4615TIP3    H213810   1.012   4.611   3.468
 4616TIP3   OH213811   6.458   2.608   2.395
 4616TIP3    H113812   6.414   2.693   2.403
 4616TIP3    H213813   6.397   2.554   2.346
 4617TIP3   OH213814  -0.031   4.691   3.088
 4617TIP3    H113815  -0.034   4.632   3.014
 4617TIP3    H213816   0.038   4.754   3.066
 4618TIP3   OH213817   6.796   5.335   0.598
 4618TIP3    H113818   6.826   5.426   0.598
 4618TIP3    H213819   6.857   5.289   0.541
 4619TIP3   OH213820   1.792   1.666   1.371
 4619TIP3    H113821   1.822   1.581   1.402
 4619TIP3    H213822   1.737   1.645   1.295
 4620TIP3   OH213823   4.698   2.644   0.405
 4620TIP3    H113824   4.661   2.626   0.492
 4620TIP3    H213825   4.689   2.561   0.358
 4621TIP3   OH213826   2.796   2.992   2.681
 4621TIP3    H113827   2.765   2.958   2.597
 4621TIP3    H213828   2.880   3.034   2.660
 4622TIP3   OH213829   3.115   6.668   1.690
 4622TIP3    H113830   3.036   6.708   1.727
 4622TIP3    H213831   3.122   6.704   1.602
 4623TIP3   OH213832   2.440   2.854   2.799
 4623TIP3    H113833   2.488   2.881   2.877
 4623TIP3    H213834   2.498   2.792   2.754
 4624TIP3   OH213835   2.714   1.427   4.003
 4624TIP3    H113836   2.646   1.414   3.936
 4624TIP3    H213837   2.736   1.338   4.031
 4625TIP3   OH213838   1.967   6.255   2.622
 4625TIP3    H113839   1.937   6.244   2.531
 4625TIP3    H213840   1.955   6.348   2.640
 4626TIP3   OH213841   2.266   0.241   2.953
 4626TIP3    H113842   2.176   0.271   2.940
 4626TIP3    H213843   2.293   0.280   3.036
 4627TIP3   OH213844   6.538   6.476   3.072
 4627TIP3    H113845   6.549   6.506   3.163
 4627TIP3    H213846   6.484   6.544   3.032
 4628TIP3   OH213847   0.710   6.439   1.064
 4628TIP3    H113848   0.742   6.388   0.989
 4628TIP3    H213849   0.789   6.482   1.098
 4629TIP3   OH213850   5.643   4.066   2.714
 4629TIP3    H113851   5.720   4.087   2.767
 4629TIP3    H213852   5.622   4.147   2.668
 4630TIP3   OH213853   6.289   3.656   0.267
 4630TIP3    H113854   6.297   3.747   0.298
 4630TIP3    H213855   6.251   3.663   0.180
 4631TIP3   OH213856   7.003   0.843   2.950
 4631TIP3    H113857   7.042   0.758   2.931
 4631TIP3    H213858   7.077   0.904   2.945
 4632TIP3   OH213859   2.064   3.391   1.927
 4632TIP3    H113860   2.098   3.447   1.858
 4632TIP3    H213861   2.123   3.315   1.927
 4633TIP3   OH213862   1.111   6.528   3.712
 4633TIP3    H113863   1.090   6.620   3.695
 4633TIP3    H213864   1.106   6.519   3.807
 4634TIP3   OH213865   5.363   5.802   0.236
 4634TIP3    H113866   5.399   5.884   0.268
 4634TIP3    H213867   5.376   5.806   0.141
 4635TIP3   OH213868   3.979   1.967   4.086
 4635TIP3    H113869   4.017   2.055   4.090
 4635TIP3    H213870   4.023   1.925   4.012
 4636TIP3   OH213871   1.852   2.002   0.233
 4636TIP3    H113872   1.869   2.043   0.148
 4636TIP3    H213873   1.938   1.995   0.274
 4637TIP3   OH213874   2.835   6.573   4.986
 4637TIP3    H113875   2.809   6.481   4.994
 4637TIP3    H213876   2.842   6.588   4.892
 4638TIP3   OH213877   0.042   0.083   1.788
 4638TIP3    H113878   0.089   0.166   1.778
 4638TIP3    H213879  -0.016   0.098   1.863
 4639TIP3   OH213880   6.472   3.903   5.311
 4639TIP3    H113881   6.424   3.986   5.310
 4639TIP3    H213882   6.425   3.849   5.374
 4640TIP3   OH213883   1.804   5.613   5.610
 4640TIP3    H113884   1.891   5.600   5.572
 4640TIP3    H213885   1.806   5.563   5.692
 4641TIP3   OH213886   3.636   3.814   3.164
 4641TIP3    H113887   3.568   3.771   3.112
 4641TIP3    H213888   3.634   3.905   3.136
 4642TIP3   OH213889   4.399   2.553   2.577
 4642TIP3    H113890   4.458   2.542   2.503
 4642TIP3    H213891   4.457   2.556   2.653
 4643TIP3   OH213892   5.551   6.235   4.220
 4643TIP3    H113893   5.566   6.231   4.314
 4643TIP3    H213894   5.487   6.305   4.209
 4644TIP3   OH213895   3.484   1.779   1.957
 4644TIP3    H113896   3.566   1.730   1.963
 4644TIP3    H213897   3.441   1.763   2.041
 4645TIP3   OH213898   3.361   4.924   0.825
 4645TIP3    H113899   3.376   4.857   0.758
 4645TIP3    H213900   3.368   5.007   0.777
 4646TIP3   OH213901   1.931   5.652   0.236
 4646TIP3    H113902   1.850   5.603   0.249
 4646TIP3    H213903   1.902   5.735   0.198
 4647TIP3   OH213904   0.853   0.522   2.446
 4647TIP3    H113905   0.841   0.430   2.472
 4647TIP3    H213906   0.797   0.533   2.369
 4648TIP3   OH213907   6.910   1.260   2.021
 4648TIP3    H113908   6.852   1.203   2.070
 4648TIP3    H213909   6.868   1.346   2.024
 4649TIP3   OH213910   2.521   0.775   2.494
 4649TIP3    H113911   2.542   0.823   2.574
 4649TIP3    H213912   2.517   0.683   2.522
 4650TIP3   OH213913   3.447   4.628   4.452
 4650TIP3    H113914   3.466   4.706   4.400
 4650TIP3    H213915   3.352   4.617   4.445
 4651TIP3   OH213916   4.994   3.217   2.609
 4651TIP3    H113917   5.031   3.130   2.626
 4651TIP3    H213918   4.933   3.202   2.537
 4652TIP3   OH213919   3.925   6.476   4.966
 4652TIP3    H113920   3.866   6.549   4.947
 4652TIP3    H213921   3.948   6.487   5.058
 4653TIP3   OH213922   0.688   4.940   1.696
 4653TIP3    H113923   0.690   4.910   1.605
 4653TIP3    H213924   0.638   4.872   1.742
 4654TIP3   OH213925   0.702   5.659   0.594
 4654TIP3    H113926   0.641   5.608   0.646
 4654TIP3    H213927   0.749   5.712   0.658
 4655TIP3   OH213928   5.277   2.966   2.554
 4655TIP3    H113929   5.312   2.981   2.642
 4655TIP3    H213930   5.186   2.942   2.569
 4656TIP3   OH213931   6.443   5.655   1.008
 4656TIP3    H113932   6.405   5.596   1.073
 4656TIP3    H213933   6.371   5.712   0.982
 4657TIP3   OH213934   3.888   2.393   4.202
 4657TIP3    H113935   3.822   2.422   4.139
 4657TIP3    H213936   3.931   2.473   4.230
 4658TIP3   OH213937   6.602   2.990   4.964
 4658TIP3    H113938   6.611   2.896   4.984
 4658TIP3    H213939   6.604   2.994   4.868
 4659TIP3   OH213940   3.979   4.269   3.403
 4659TIP3    H113941   3.996   4.217   3.482
 4659TIP3    H213942   4.039   4.343   3.410
 4660TIP3   OH213943   5.379   4.148   2.781
 4660TIP3    H113944   5.426   4.066   2.770
 4660TIP3    H213945   5.389   4.193   2.697
 4661TIP3   OH213946   5.831   1.095   2.631
 4661TIP3    H113947   5.901   1.152   2.660
 4661TIP3    H213948   5.802   1.132   2.548
 4662TIP3   OH213949   3.653   0.844   0.433
 4662TIP3    H113950   3.740   0.872   0.405
 4662TIP3    H213951   3.629   0.904   0.503
 4663TIP3   OH213952   6.589   0.405   1.049
 4663TIP3    H113953   6.682   0.382   1.045
 4663TIP3    H213954   6.557   0.363   1.129
 4664TIP3   OH213955   4.381   4.364   2.217
 4664TIP3    H113956   4.471   4.349   2.247
 4664TIP3    H213957   4.346   4.277   2.200
 4665TIP3   OH213958   6.925   4.681   4.114
 4665TIP3    H113959   6.905   4.664   4.206
 4665TIP3    H213960   6.910   4.597   4.070
 4666TIP3   OH213961   6.116   0.366   2.580
 4666TIP3    H113962   6.101   0.346   2.673
 4666TIP3    H213963   6.032   0.400   2.549
 4667TIP3   OH213964   3.723   4.189   5.372
 4667TIP3    H113965   3.761   4.164   5.457
 4667TIP3    H213966   3.796   4.226   5.323
 4668TIP3   OH213967   1.726   5.602   1.582
 4668TIP3    H113968   1.821   5.613   1.585
 4668TIP3    H213969   1.710   5.522   1.632
 4669TIP3   OH213970   5.440   0.891   1.721
 4669TIP3    H113971   5.367   0.953   1.720
 4669TIP3    H213972   5.515   0.941   1.753
 4670TIP3   OH213973   4.029   1.291   0.186
 4670TIP3    H113974   4.037   1.338   0.269
 4670TIP3    H213975   3.935   1.277   0.176
 4671TIP3   OH213976   4.083   1.288   5.860
 4671TIP3    H113977   4.110   1.273   5.770
 4671TIP3    H213978   4.132   1.366   5.887
 4672TIP3   OH213979   6.532   1.657   3.650
 4672TIP3    H113980   6.549   1.719   3.578
 4672TIP3    H213981   6.504   1.577   3.606
 4673TIP3   OH213982   2.755   1.697   1.867
 4673TIP3    H113983   2.819   1.626   1.855
 4673TIP3    H213984   2.798   1.758   1.927
 4674TIP3   OH213985   7.061   1.223   0.465
 4674TIP3    H113986   7.153   1.250   0.476
 4674TIP3    H213987   7.025   1.287   0.404
 4675TIP3   OH213988   1.022   2.515   1.994
 4675TIP3    H113989   1.044   2.595   2.042
 4675TIP3    H213990   1.000   2.452   2.062
 4676TIP3   OH213991   1.088   6.158   1.858
 4676TIP3    H113992   1.171   6.158   1.810
 4676TIP3    H213993   1.022   6.172   1.790
 4677TIP3   OH213994   5.620   1.753   0.984
 4677TIP3    H113995   5.626   1.845   0.959
 4677TIP3    H213996   5.641   1.752   1.077
 4678TIP3   OH213997   6.545   4.313   4.072
 4678TIP3    H113998   6.479   4.243   4.074
 4678TIP3    H213999   6.566   4.324   3.979
 4679TIP3   OH214000   1.584   1.287   0.868
 4679TIP3    H114001   1.510   1.227   0.873
 4679TIP3    H214002   1.601   1.296   0.774
 4680TIP3   OH214003   5.819   6.625   1.095
 4680TIP3    H114004   5.866   6.588   1.170
 4680TIP3    H214005   5.882   6.684   1.054
 4681TIP3   OH214006   1.974   6.204   0.297
 4681TIP3    H114007   1.885   6.209   0.263
 4681TIP3    H214008   1.972   6.134   0.362
 4682TIP3   OH214009   0.302   2.089   2.437
 4682TIP3    H114010   0.280   2.111   2.346
 4682TIP3    H214011   0.302   1.993   2.439
 4683TIP3   OH214012   3.937   4.952   4.601
 4683TIP3    H114013   3.951   4.995   4.685
 4683TIP3    H214014   4.014   4.897   4.588
 4684TIP3   OH214015   5.349   5.933   1.535
 4684TIP3    H114016   5.270   5.943   1.482
 4684TIP3    H214017   5.417   5.910   1.472
 4685TIP3   OH214018   1.904   5.633   4.209
 4685TIP3    H114019   1.812   5.658   4.200
 4685TIP3    H214020   1.942   5.651   4.124
 4686TIP3   OH214021   1.040   5.629   3.124
 4686TIP3    H114022   0.989   5.557   3.160
 4686TIP3    H214023   1.126   5.620   3.165
 4687TIP3   OH214024   7.055   6.276   2.062
 4687TIP3    H114025   7.149   6.278   2.045
 4687TIP3    H214026   7.040   6.188   2.096
 4688TIP3   OH214027   3.705   3.457   5.249
 4688TIP3    H114028   3.614   3.479   5.229
 4688TIP3    H214029   3.700   3.371   5.291
 4689TIP3   OH214030   2.234   3.943   0.750
 4689TIP3    H114031   2.140   3.952   0.761
 4689TIP3    H214032   2.260   4.020   0.699
 4690TIP3   OH214033   3.606   3.641   1.007
 4690TIP3    H114034   3.604   3.591   1.089
 4690TIP3    H214035   3.665   3.591   0.950
 4691TIP3   OH214036   2.285   4.084   3.031
 4691TIP3    H114037   2.249   4.120   3.112
 4691TIP3    H214038   2.302   4.161   2.977
 4692TIP3   OH214039   1.201   2.280   5.737
 4692TIP3    H114040   1.159   2.199   5.709
 4692TIP3    H214041   1.295   2.263   5.730
 4693TIP3   OH214042   0.478   6.471   2.325
 4693TIP3    H114043   0.550   6.411   2.346
 4693TIP3    H214044   0.437   6.432   2.248
 4694TIP3   OH214045   0.261   4.077   5.487
 4694TIP3    H114046   0.194   4.028   5.534
 4694TIP3    H214047   0.312   4.011   5.441
 4695TIP3   OH214048   1.973   3.773   3.574
 4695TIP3    H114049   1.949   3.772   3.667
 4695TIP3    H214050   2.069   3.769   3.574
 4696TIP3   OH214051   5.477   1.733   0.713
 4696TIP3    H114052   5.556   1.774   0.750
 4696TIP3    H214053   5.405   1.785   0.748
 4697TIP3   OH214054   3.333   5.377   5.197
 4697TIP3    H114055   3.417   5.333   5.190
 4697TIP3    H214056   3.334   5.442   5.127
 4698TIP3   OH214057   0.401   2.572   0.274
 4698TIP3    H114058   0.459   2.604   0.205
 4698TIP3    H214059   0.315   2.564   0.232
 4699TIP3   OH214060   1.894   0.348   1.961
 4699TIP3    H114061   1.914   0.437   1.933
 4699TIP3    H214062   1.801   0.336   1.939
 4700TIP3   OH214063   4.918   1.933   1.586
 4700TIP3    H114064   4.822   1.934   1.579
 4700TIP3    H214065   4.935   1.891   1.670
 4701TIP3   OH214066   2.729   5.569   1.659
 4701TIP3    H114067   2.820   5.547   1.679
 4701TIP3    H214068   2.725   5.569   1.563
 4702TIP3   OH214069   3.604   1.451   1.271
 4702TIP3    H114070   3.562   1.496   1.344
 4702TIP3    H214071   3.540   1.387   1.241
 4703TIP3   OH214072   5.988   1.375   2.008
 4703TIP3    H114073   5.912   1.388   2.065
 4703TIP3    H214074   5.979   1.442   1.940
 4704TIP3   OH214075   1.186   2.767   1.122
 4704TIP3    H114076   1.150   2.773   1.211
 4704TIP3    H214077   1.143   2.838   1.074
 4705TIP3   OH214078   5.963   0.217   2.775
 4705TIP3    H114079   5.970   0.231   2.869
 4705TIP3    H214080   5.891   0.156   2.764
 4706TIP3   OH214081   3.965   4.154   3.970
 4706TIP3    H114082   4.021   4.080   3.993
 4706TIP3    H214083   4.019   4.206   3.911
 4707TIP3   OH214084   5.577   1.165   1.971
 4707TIP3    H114085   5.648   1.131   1.916
 4707TIP3    H214086   5.583   1.260   1.962
 4708TIP3   OH214087   4.510   2.867   0.835
 4708TIP3    H114088   4.486   2.958   0.848
 4708TIP3    H214089   4.450   2.818   0.891
 4709TIP3   OH214090   4.857   6.109   1.920
 4709TIP3    H114091   4.933   6.052   1.926
 4709TIP3    H214092   4.863   6.166   1.997
 4710TIP3   OH214093   0.127   3.165   1.729
 4710TIP3    H114094   0.106   3.105   1.657
 4710TIP3    H214095   0.220   3.182   1.719
 4711TIP3   OH214096   4.751   2.983   1.463
 4711TIP3    H114097   4.837   2.987   1.422
 4711TIP3    H214098   4.745   3.063   1.515
 4712TIP3   OH214099   1.650   5.072   4.553
 4712TIP3    H114100   1.681   4.982   4.545
 4712TIP3    H214101   1.727   5.121   4.584
 4713TIP3   OH214102   0.543   0.199   4.724
 4713TIP3    H114103   0.542   0.147   4.805
 4713TIP3    H214104   0.616   0.164   4.673
 4714TIP3   OH214105   1.604   4.766   4.688
 4714TIP3    H114106   1.583   4.736   4.600
 4714TIP3    H214107   1.522   4.754   4.737
 4715TIP3   OH214108   6.980   3.766   1.000
 4715TIP3    H114109   7.037   3.786   1.074
 4715TIP3    H214110   6.990   3.671   0.987
 4716TIP3   OH214111   4.289   5.746   3.946
 4716TIP3    H114112   4.311   5.700   4.027
 4716TIP3    H214113   4.373   5.776   3.912
 4717TIP3   OH214114   5.377   6.318   1.718
 4717TIP3    H114115   5.446   6.323   1.784
 4717TIP3    H214116   5.408   6.374   1.646
 4718TIP3   OH214117   4.788   4.791   5.778
 4718TIP3    H114118   4.781   4.698   5.756
 4718TIP3    H214119   4.882   4.806   5.789
 4719TIP3   OH214120   6.450   3.263   0.711
 4719TIP3    H114121   6.499   3.209   0.649
 4719TIP3    H214122   6.414   3.334   0.657
 4720TIP3   OH214123   6.743   4.471   1.091
 4720TIP3    H114124   6.722   4.477   1.184
 4720TIP3    H214125   6.736   4.561   1.059
 4721TIP3   OH214126   0.420   4.577   4.780
 4721TIP3    H114127   0.340   4.550   4.824
 4721TIP3    H214128   0.445   4.502   4.726
 4722TIP3   OH214129   5.229   5.714   5.699
 4722TIP3    H114130   5.301   5.713   5.637
 4722TIP3    H214131   5.155   5.677   5.651
 4723TIP3   OH214132   4.289   0.504   2.044
 4723TIP3    H114133   4.229   0.465   2.107
 4723TIP3    H214134   4.253   0.481   1.958
 4724TIP3   OH214135   2.564   2.493   3.258
 4724TIP3    H114136   2.530   2.523   3.174
 4724TIP3    H214137   2.494   2.513   3.321
 4725TIP3   OH214138   5.977   3.932   3.144
 4725TIP3    H114139   5.934   3.849   3.123
 4725TIP3    H214140   5.917   3.973   3.207
 4726TIP3   OH214141   7.162   2.515   2.880
 4726TIP3    H114142   7.076   2.548   2.907
 4726TIP3    H214143   7.150   2.488   2.789
 4727TIP3   OH214144   1.261   3.974   1.373
 4727TIP3    H114145   1.237   4.019   1.291
 4727TIP3    H214146   1.351   3.945   1.358
 4728TIP3   OH214147   2.568   6.246   0.663
 4728TIP3    H114148   2.496   6.213   0.609
 4728TIP3    H214149   2.646   6.233   0.609
 4729TIP3   OH214150   3.848   0.249   1.665
 4729TIP3    H114151   3.759   0.240   1.630
 4729TIP3    H214152   3.898   0.179   1.623
 4730TIP3   OH214153   5.416   1.199   4.737
 4730TIP3    H114154   5.511   1.201   4.736
 4730TIP3    H214155   5.390   1.291   4.739
 4731TIP3   OH214156   4.627   6.739   4.246
 4731TIP3    H114157   4.559   6.685   4.288
 4731TIP3    H214158   4.690   6.677   4.212
 4732TIP3   OH214159   5.808   0.459   3.593
 4732TIP3    H114160   5.824   0.476   3.500
 4732TIP3    H214161   5.818   0.365   3.603
 4733TIP3   OH214162   4.324   1.175   1.899
 4733TIP3    H114163   4.251   1.227   1.866
 4733TIP3    H214164   4.285   1.092   1.926
 4734TIP3   OH214165   4.072   0.258   3.682
 4734TIP3    H114166   4.020   0.232   3.606
 4734TIP3    H214167   4.161   0.265   3.650
 4735TIP3   OH214168   1.554   6.057   1.451
 4735TIP3    H114169   1.585   6.015   1.531
 4735TIP3    H214170   1.472   6.012   1.430
 4736TIP3   OH214171   6.629   0.912   2.602
 4736TIP3    H114172   6.593   0.893   2.689
 4736TIP3    H214173   6.553   0.942   2.552
 4737TIP3   OH214174   6.136   5.329   2.980
 4737TIP3    H114175   6.051   5.284   2.979
 4737TIP3    H214176   6.161   5.332   3.072
 4738TIP3   OH214177   1.433   0.064   3.348
 4738TIP3    H114178   1.507   0.084   3.291
 4738TIP3    H214179   1.473   0.047   3.433
 4739TIP3   OH214180   3.182   1.638   5.503
 4739TIP3    H114181   3.109   1.586   5.469
 4739TIP3    H214182   3.199   1.602   5.590
 4740TIP3   OH214183   2.049   2.131   2.296
 4740TIP3    H114184   2.027   2.213   2.341
 4740TIP3    H214185   1.967   2.082   2.295
 4741TIP3   OH214186   6.843   1.958   1.592
 4741TIP3    H114187   6.796   1.969   1.510
 4741TIP3    H214188   6.782   1.909   1.648
 4742TIP3   OH214189   4.026   5.364   3.426
 4742TIP3    H114190   4.081   5.352   3.349
 4742TIP3    H214191   4.088   5.372   3.498
 4743TIP3   OH214192   4.949   3.326   2.050
 4743TIP3    H114193   4.941   3.249   2.106
 4743TIP3    H214194   4.890   3.308   1.976
 4744TIP3   OH214195   3.521   0.702   3.778
 4744TIP3    H114196   3.459   0.629   3.771
 4744TIP3    H214197   3.606   0.660   3.786
 4745TIP3   OH214198   2.097   4.506   3.140
 4745TIP3    H114199   2.018   4.559   3.149
 4745TIP3    H214200   2.136   4.536   3.058
 4746TIP3   OH214201   6.598   3.717   1.066
 4746TIP3    H114202   6.588   3.623   1.050
 4746TIP3    H214203   6.553   3.759   0.992
 4747TIP3   OH214204   5.328   0.089   0.786
 4747TIP3    H114205   5.285   0.073   0.702
 4747TIP3    H214206   5.304   0.013   0.839
 4748TIP3   OH214207   4.896   5.222   4.538
 4748TIP3    H114208   4.986   5.200   4.559
 4748TIP3    H214209   4.852   5.225   4.624
 4749TIP3   OH214210   4.525   1.752   5.894
 4749TIP3    H114211   4.499   1.691   5.825
 4749TIP3    H214212   4.497   1.837   5.863
 4750TIP3   OH214213   4.361   4.896   0.787
 4750TIP3    H114214   4.295   4.966   0.788
 4750TIP3    H214215   4.432   4.930   0.840
 4751TIP3   OH214216   2.028   5.087   0.517
 4751TIP3    H114217   1.942   5.117   0.488
 4751TIP3    H214218   2.086   5.107   0.444
 4752TIP3   OH214219   2.317   3.471   2.721
 4752TIP3    H114220   2.313   3.540   2.654
 4752TIP3    H214221   2.395   3.492   2.772
 4753TIP3   OH214222   5.961   4.659   0.367
 4753TIP3    H114223   5.994   4.693   0.284
 4753TIP3    H214224   5.866   4.670   0.361
 4754TIP3   OH214225   0.591   0.043   4.969
 4754TIP3    H114226   0.664   0.053   5.029
 4754TIP3    H214227   0.514   0.035   5.026
 4755TIP3   OH214228   4.520   3.753   3.962
 4755TIP3    H114229   4.513   3.699   3.883
 4755TIP3    H214230   4.594   3.716   4.009
 4756TIP3   OH214231   0.451   3.500   0.638
 4756TIP3    H114232   0.364   3.530   0.613
 4756TIP3    H214233   0.435   3.425   0.695
 4757TIP3   OH214234   2.007   0.545   3.733
 4757TIP3    H114235   1.982   0.474   3.792
 4757TIP3    H214236   1.924   0.589   3.711
 4758TIP3   OH214237   6.263   2.789   4.801
 4758TIP3    H114238   6.349   2.777   4.763
 4758TIP3    H214239   6.202   2.772   4.729
 4759TIP3   OH214240   6.279   6.067   3.231
 4759TIP3    H114241   6.350   6.009   3.205
 4759TIP3    H214242   6.282   6.138   3.167
 4760TIP3   OH214243   5.899   6.007  -0.004
 4760TIP3    H114244   5.833   5.940  -0.019
 4760TIP3    H214245   5.962   5.966   0.056
 4761TIP3   OH214246   0.447   1.171   5.001
 4761TIP3    H114247   0.455   1.082   5.036
 4761TIP3    H214248   0.523   1.181   4.942
 4762TIP3   OH214249   0.441   6.257   0.785
 4762TIP3    H114250   0.357   6.215   0.764
 4762TIP3    H214251   0.437   6.273   0.879
 4763TIP3   OH214252   6.822   5.341   3.258
 4763TIP3    H114253   6.762   5.415   3.257
 4763TIP3    H214254   6.839   5.325   3.351
 4764TIP3   OH214255   1.899   4.760   5.454
 4764TIP3    H114256   1.955   4.755   5.377
 4764TIP3    H214257   1.889   4.670   5.483
 4765TIP3   OH214258   0.771   0.213   1.254
 4765TIP3    H114259   0.718   0.154   1.201
 4765TIP3    H214260   0.727   0.297   1.247
 4766TIP3   OH214261   4.673   2.967   1.930
 4766TIP3    H114262   4.714   2.927   1.853
 4766TIP3    H214263   4.651   2.893   1.986
 4767TIP3   OH214264   0.656   1.694   1.025
 4767TIP3    H114265   0.622   1.616   1.068
 4767TIP3    H214266   0.600   1.705   0.948
 4768TIP3   OH214267   0.509   0.070   4.343
 4768TIP3    H114268   0.453   0.049   4.268
 4768TIP3    H214269   0.456   0.132   4.395
 4769TIP3   OH214270   1.637   6.267   5.400
 4769TIP3    H114271   1.585   6.190   5.378
 4769TIP3    H214272   1.636   6.270   5.496
 4770TIP3   OH214273   1.868   4.346   4.697
 4770TIP3    H114274   1.911   4.431   4.700
 4770TIP3    H214275   1.775   4.366   4.694
 4771TIP3   OH214276   3.006   1.347   5.494
 4771TIP3    H114277   2.978   1.414   5.556
 4771TIP3    H214278   2.930   1.331   5.439
 4772TIP3   OH214279   2.883   5.838   3.894
 4772TIP3    H114280   2.847   5.765   3.944
 4772TIP3    H214281   2.811   5.869   3.839
 4773TIP3   OH214282   0.098   3.898   0.034
 4773TIP3    H114283   0.164   3.911  -0.034
 4773TIP3    H214284   0.149   3.878   0.113
 4774TIP3   OH214285   2.102   1.925   1.716
 4774TIP3    H114286   2.111   2.017   1.743
 4774TIP3    H214287   2.155   1.919   1.637
 4775TIP3   OH214288   0.198   6.580   5.455
 4775TIP3    H114289   0.175   6.655   5.510
 4775TIP3    H214290   0.191   6.504   5.513
 4776TIP3   OH214291   1.326   6.646   4.998
 4776TIP3    H114292   1.376   6.677   4.923
 4776TIP3    H214293   1.262   6.715   5.014
 4777TIP3   OH214294   1.915   5.883   5.260
 4777TIP3    H114295   1.875   5.906   5.176
 4777TIP3    H214296   1.978   5.815   5.239
 4778TIP3   OH214297   5.911   2.441   4.003
 4778TIP3    H114298   5.951   2.436   3.916
 4778TIP3    H214299   5.817   2.438   3.986
 4779TIP3   OH214300   1.857   0.076   3.593
 4779TIP3    H114301   1.785   0.139   3.594
 4779TIP3    H214302   1.918   0.111   3.528
 4780TIP3   OH214303   1.972   6.568   3.587
 4780TIP3    H114304   1.980   6.574   3.492
 4780TIP3    H214305   1.896   6.621   3.608
 4781TIP3   OH214306   1.313   6.101   0.611
 4781TIP3    H114307   1.291   6.113   0.519
 4781TIP3    H214308   1.406   6.121   0.617
 4782TIP3   OH214309   2.164   1.765   3.674
 4782TIP3    H114310   2.075   1.767   3.639
 4782TIP3    H214311   2.200   1.682   3.642
 4783TIP3   OH214312   0.657   4.194   1.174
 4783TIP3    H114313   0.576   4.241   1.194
 4783TIP3    H214314   0.714   4.212   1.248
 4784TIP3   OH214315   0.620   2.772   2.289
 4784TIP3    H114316   0.579   2.849   2.330
 4784TIP3    H214317   0.546   2.714   2.269
 4785TIP3   OH214318   5.768   0.134   4.429
 4785TIP3    H114319   5.722   0.198   4.483
 4785TIP3    H214320   5.850   0.176   4.406
 4786TIP3   OH214321   7.220   2.161   4.166
 4786TIP3    H114322   7.286   2.212   4.119
 4786TIP3    H214323   7.158   2.226   4.199
 4787TIP3   OH214324   0.238   2.693   2.316
 4787TIP3    H114325   0.218   2.781   2.284
 4787TIP3    H214326   0.153   2.655   2.338
 4788TIP3   OH214327   5.766   1.037   0.648
 4788TIP3    H114328   5.674   1.014   0.634
 4788TIP3    H214329   5.807   1.027   0.562
 4789TIP3   OH214330   5.690   5.400   3.941
 4789TIP3    H114331   5.635   5.322   3.928
 4789TIP3    H214332   5.653   5.442   4.019
 4790TIP3   OH214333   5.373   2.204   1.982
 4790TIP3    H114334   5.315   2.142   1.938
 4790TIP3    H214335   5.356   2.288   1.938
 4791TIP3   OH214336   2.554   2.543   4.239
 4791TIP3    H114337   2.461   2.528   4.252
 4791TIP3    H214338   2.563   2.638   4.231
 4792TIP3   OH214339   0.387   6.359   2.072
 4792TIP3    H114340   0.374   6.268   2.042
 4792TIP3    H214341   0.319   6.408   2.027
 4793TIP3   OH214342   6.926   3.755   0.726
 4793TIP3    H114343   6.984   3.688   0.691
 4793TIP3    H214344   6.947   3.758   0.819
 4794TIP3   OH214345   1.511   4.401   2.067
 4794TIP3    H114346   1.504   4.428   1.976
 4794TIP3    H214347   1.489   4.307   2.066
 4795TIP3   OH214348   6.848   5.431   5.129
 4795TIP3    H114349   6.889   5.491   5.192
 4795TIP3    H214350   6.757   5.424   5.158
 4796TIP3   OH214351  -0.002   1.904   0.443
 4796TIP3    H114352   0.070   1.851   0.407
 4796TIP3    H214353  -0.035   1.953   0.368
 4797TIP3   OH214354   6.653   4.049   1.159
 4797TIP3    H114355   6.708   4.010   1.091
 4797TIP3    H214356   6.572   4.072   1.113
 4798TIP3   OH214357   6.714   6.387   2.390
 4798TIP3    H114358   6.805   6.410   2.410
 4798TIP3    H214359   6.663   6.465   2.412
 4799TIP3   OH214360   1.195   1.635   3.279
 4799TIP3    H114361   1.119   1.688   3.302
 4799TIP3    H214362   1.270   1.694   3.293
 4800TIP3   OH214363   3.267   1.434   0.990
 4800TIP3    H114364   3.285   1.475   0.905
 4800TIP3    H214365   3.301   1.496   1.054
 4801TIP3   OH214366   1.411   2.936   3.956
 4801TIP3    H114367   1.488   2.909   4.005
 4801TIP3    H214368   1.447   2.979   3.878
 4802TIP3   OH214369   4.688   1.874   4.132
 4802TIP3    H114370   4.769   1.919   4.109
 4802TIP3    H214371   4.625   1.905   4.067
 4803TIP3   OH214372   0.066   2.435   5.564
 4803TIP3    H114373   0.002   2.399   5.503
 4803TIP3    H214374   0.100   2.359   5.612
 4804TIP3   OH214375   5.578   3.234   3.591
 4804TIP3    H114376   5.617   3.317   3.564
 4804TIP3    H214377   5.637   3.167   3.557
 4805TIP3   OH214378   2.745   0.927   5.518
 4805TIP3    H114379   2.818   0.881   5.476
 4805TIP3    H214380   2.676   0.862   5.523
 4806TIP3   OH214381   6.230   0.117   5.163
 4806TIP3    H114382   6.170   0.130   5.236
 4806TIP3    H214383   6.252   0.024   5.166
 4807TIP3   OH214384   2.776   4.248   2.790
 4807TIP3    H114385   2.734   4.166   2.766
 4807TIP3    H214386   2.869   4.233   2.775
 4808TIP3   OH214387   0.719   5.517   5.326
 4808TIP3    H114388   0.774   5.592   5.349
 4808TIP3    H214389   0.735   5.504   5.232
 4809TIP3   OH214390   5.012   1.840   2.929
 4809TIP3    H114391   4.929   1.815   2.970
 4809TIP3    H214392   5.038   1.920   2.974
 4810TIP3   OH214393   4.061   6.736   3.232
 4810TIP3    H114394   4.129   6.796   3.202
 4810TIP3    H214395   4.108   6.671   3.284
 4811TIP3   OH214396   1.527   3.130   3.777
 4811TIP3    H114397   1.573   3.053   3.743
 4811TIP3    H214398   1.467   3.154   3.706
 4812TIP3   OH214399   3.372   2.569   5.540
 4812TIP3    H114400   3.319   2.615   5.475
 4812TIP3    H214401   3.437   2.522   5.488
 4813TIP3   OH214402   6.093   2.211   3.852
 4813TIP3    H114403   6.005   2.239   3.824
 4813TIP3    H214404   6.104   2.124   3.813
 4814TIP3   OH214405   2.557   4.237   5.685
 4814TIP3    H114406   2.501   4.291   5.741
 4814TIP3    H214407   2.640   4.285   5.681
 4815TIP3   OH214408   6.973   3.438   2.680
 4815TIP3    H114409   6.884   3.466   2.700
 4815TIP3    H214410   6.992   3.476   2.594
 4816TIP3   OH214411   3.220   0.732   2.933
 4816TIP3    H114412   3.125   0.728   2.946
 4816TIP3    H214413   3.239   0.665   2.868
 4817TIP3   OH214414   2.788   2.784   0.317
 4817TIP3    H114415   2.825   2.820   0.398
 4817TIP3    H214416   2.826   2.696   0.311
 4818TIP3   OH214417   6.802   3.636   0.444
 4818TIP3    H114418   6.839   3.635   0.533
 4818TIP3    H214419   6.729   3.574   0.449
 4819TIP3   OH214420   1.792   6.501   0.652
 4819TIP3    H114421   1.755   6.424   0.609
 4819TIP3    H214422   1.887   6.492   0.640
 4820TIP3   OH214423   4.132   0.460   2.555
 4820TIP3    H114424   4.057   0.431   2.503
 4820TIP3    H214425   4.130   0.555   2.549
 4821TIP3   OH214426   4.469   2.329   4.248
 4821TIP3    H114427   4.376   2.345   4.265
 4821TIP3    H214428   4.513   2.406   4.283
 4822TIP3   OH214429   0.814   1.437   1.284
 4822TIP3    H114430   0.744   1.467   1.226
 4822TIP3    H214431   0.894   1.472   1.245
 4823TIP3   OH214432   1.444   4.106   2.077
 4823TIP3    H114433   1.369   4.084   2.132
 4823TIP3    H214434   1.503   4.032   2.085
 4824TIP3   OH214435   3.582   0.497   4.558
 4824TIP3    H114436   3.517   0.506   4.489
 4824TIP3    H214437   3.581   0.404   4.581
 4825TIP3   OH214438   3.821   4.953   0.546
 4825TIP3    H114439   3.889   5.003   0.501
 4825TIP3    H214440   3.868   4.881   0.589
 4826TIP3   OH214441   1.417   3.011   4.587
 4826TIP3    H114442   1.488   3.048   4.534
 4826TIP3    H214443   1.383   3.086   4.636
 4827TIP3   OH214444   5.020   4.286   0.398
 4827TIP3    H114445   5.001   4.273   0.305
 4827TIP3    H214446   4.935   4.277   0.441
 4828TIP3   OH214447   3.449   3.278   3.004
 4828TIP3    H114448   3.367   3.298   2.959
 4828TIP3    H214449   3.437   3.312   3.093
 4829TIP3   OH214450   2.882   5.818   1.307
 4829TIP3    H114451   2.942   5.763   1.357
 4829TIP3    H214452   2.929   5.840   1.227
 4830TIP3   OH214453   1.470   1.271   3.848
 4830TIP3    H114454   1.375   1.281   3.846
 4830TIP3    H214455   1.504   1.348   3.802
 4831TIP3   OH214456   2.904   3.184   2.296
 4831TIP3    H114457   2.990   3.160   2.261
 4831TIP3    H214458   2.846   3.114   2.266
 4832TIP3   OH214459   4.634   1.989   1.951
 4832TIP3    H114460   4.716   1.987   1.902
 4832TIP3    H214461   4.657   2.030   2.034
 4833TIP3   OH214462   4.637   0.447   5.714
 4833TIP3    H114463   4.572   0.464   5.646
 4833TIP3    H214464   4.616   0.508   5.784
 4834TIP3   OH214465   0.368   5.150   3.895
 4834TIP3    H114466   0.385   5.077   3.836
 4834TIP3    H214467   0.272   5.154   3.902
 4835TIP3   OH214468   3.157   5.128   3.002
 4835TIP3    H114469   3.124   5.083   2.924
 4835TIP3    H214470   3.151   5.063   3.071
 4836TIP3   OH214471   0.576   2.782   3.788
 4836TIP3    H114472   0.595   2.697   3.749
 4836TIP3    H214473   0.481   2.784   3.797
 4837TIP3   OH214474   5.670   4.590   2.890
 4837TIP3    H114475   5.616   4.665   2.867
 4837TIP3    H214476   5.759   4.614   2.862
 4838TIP3   OH214477   0.404   3.611   2.107
 4838TIP3    H114478   0.490   3.573   2.127
 4838TIP3    H214479   0.406   3.698   2.148
 4839TIP3   OH214480   6.156   6.655   4.159
 4839TIP3    H114481   6.158   6.726   4.223
 4839TIP3    H214482   6.103   6.587   4.201
 4840TIP3   OH214483   1.550   3.984   1.365
 4840TIP3    H114484   1.630   4.036   1.370
 4840TIP3    H214485   1.563   3.914   1.429
 4841TIP3   OH214486   4.932   0.026   0.813
 4841TIP3    H114487   4.919   0.120   0.826
 4841TIP3    H214488   5.010   0.005   0.864
 4842TIP3   OH214489   6.601   6.120   4.158
 4842TIP3    H114490   6.596   6.037   4.204
 4842TIP3    H214491   6.552   6.106   4.077
 4843TIP3   OH214492   1.049   5.508   3.920
 4843TIP3    H114493   1.041   5.586   3.865
 4843TIP3    H214494   0.984   5.447   3.885
 4844TIP3   OH214495   5.002   0.150   3.647
 4844TIP3    H114496   5.011   0.058   3.673
 4844TIP3    H214497   5.067   0.197   3.700
 4845TIP3   OH214498   2.995   6.602   3.438
 4845TIP3    H114499   3.002   6.510   3.412
 4845TIP3    H214500   2.902   6.622   3.428
 4846TIP3   OH214501   1.420   5.142   2.884
 4846TIP3    H114502   1.482   5.077   2.917
 4846TIP3    H214503   1.463   5.178   2.806
 4847TIP3   OH214504   2.764   1.836   0.988
 4847TIP3    H114505   2.858   1.850   0.974
 4847TIP3    H214506   2.751   1.743   0.970
 4848TIP3   OH214507   0.590   5.294   5.720
 4848TIP3    H114508   0.549   5.354   5.659
 4848TIP3    H214509   0.675   5.274   5.681
 4849TIP3   OH214510   6.946   4.714   2.895
 4849TIP3    H114511   6.908   4.695   2.981
 4849TIP3    H214512   6.976   4.804   2.901
 4850TIP3   OH214513   6.407   3.496   2.615
 4850TIP3    H114514   6.369   3.419   2.657
 4850TIP3    H214515   6.346   3.518   2.545
 4851TIP3   OH214516   6.388   2.017   5.528
 4851TIP3    H114517   6.328   1.953   5.491
 4851TIP3    H214518   6.395   2.086   5.461
 4852TIP3   OH214519   6.985   6.327   4.668
 4852TIP3    H114520   6.979   6.282   4.583
 4852TIP3    H214521   7.076   6.355   4.673
 4853TIP3   OH214522   6.478   5.919   5.580
 4853TIP3    H114523   6.546   5.924   5.513
 4853TIP3    H214524   6.408   5.976   5.548
 4854TIP3   OH214525   0.157   3.804   5.651
 4854TIP3    H114526   0.119   3.716   5.646
 4854TIP3    H214527   0.239   3.791   5.700
 4855TIP3   OH214528   2.769   3.714   5.614
 4855TIP3    H114529   2.729   3.800   5.596
 4855TIP3    H214530   2.703   3.651   5.585
 4856TIP3   OH214531   2.578   0.424   5.256
 4856TIP3    H114532   2.578   0.338   5.214
 4856TIP3    H214533   2.634   0.413   5.333
 4857TIP3   OH214534   4.013   4.006   1.346
 4857TIP3    H114535   4.065   3.942   1.394
 4857TIP3    H214536   3.957   4.046   1.413
 4858TIP3   OH214537   5.277   5.580   3.370
 4858TIP3    H114538   5.324   5.618   3.296
 4858TIP3    H214539   5.324   5.498   3.389
 4859TIP3   OH214540   0.495   3.190   2.109
 4859TIP3    H114541   0.497   3.155   2.198
 4859TIP3    H214542   0.485   3.114   2.053
 4860TIP3   OH214543   0.259   5.282   5.449
 4860TIP3    H114544   0.171   5.288   5.486
 4860TIP3    H214545   0.303   5.361   5.479
 4861TIP3   OH214546   4.017   2.914   2.499
 4861TIP3    H114547   4.083   2.983   2.509
 4861TIP3    H214548   3.934   2.962   2.488
 4862TIP3   OH214549   5.768   3.942   2.140
 4862TIP3    H114550   5.779   4.030   2.105
 4862TIP3    H214551   5.837   3.890   2.099
 4863TIP3   OH214552   1.293   2.626   0.307
 4863TIP3    H114553   1.201   2.650   0.307
 4863TIP3    H214554   1.303   2.569   0.383
 4864TIP3   OH214555   1.914   0.033   4.245
 4864TIP3    H114556   1.898   0.123   4.217
 4864TIP3    H214557   1.922   0.039   4.341
 4865TIP3   OH214558   0.501   4.553   1.790
 4865TIP3    H114559   0.522   4.518   1.703
 4865TIP3    H214560   0.468   4.641   1.773
 4866TIP3   OH214561   4.184   4.449   0.593
 4866TIP3    H114562   4.156   4.512   0.659
 4866TIP3    H214563   4.102   4.411   0.561
 4867TIP3   OH214564   3.558   5.005   0.289
 4867TIP3    H114565   3.544   4.994   0.383
 4867TIP3    H214566   3.521   5.090   0.268
 4868TIP3   OH214567   3.327   3.861   2.138
 4868TIP3    H114568   3.305   3.806   2.213
 4868TIP3    H214569   3.420   3.844   2.122
 4869TIP3   OH214570   4.549   2.620   4.009
 4869TIP3    H114571   4.639   2.588   4.011
 4869TIP3    H214572   4.538   2.666   4.092
 4870TIP3   OH214573   4.622   4.822   0.068
 4870TIP3    H114574   4.621   4.801   0.162
 4870TIP3    H214575   4.604   4.738   0.025
 4871TIP3   OH214576   2.022   3.958   2.144
 4871TIP3    H114577   1.970   3.892   2.190
 4871TIP3    H214578   2.054   3.913   2.065
 4872TIP3   OH214579   6.569   1.353   1.120
 4872TIP3    H114580   6.488   1.316   1.154
 4872TIP3    H214581   6.544   1.438   1.084
 4873TIP3   OH214582   4.229   6.343   3.624
 4873TIP3    H114583   4.310   6.318   3.579
 4873TIP3    H214584   4.169   6.271   3.607
 4874TIP3   OH214585   1.279   3.950   5.347
 4874TIP3    H114586   1.267   3.863   5.309
 4874TIP3    H214587   1.339   3.994   5.287
 4875TIP3   OH214588   3.001   0.222   0.063
 4875TIP3    H114589   2.966   0.137   0.037
 4875TIP3    H214590   3.016   0.268  -0.019
 4876TIP3   OH214591   1.608   0.661   0.488
 4876TIP3    H114592   1.539   0.672   0.554
 4876TIP3    H214593   1.580   0.586   0.437
 4877TIP3   OH214594   1.179   0.993   4.306
 4877TIP3    H114595   1.171   0.948   4.222
 4877TIP3    H214596   1.237   0.938   4.358
 4878TIP3   OH214597   5.772   5.091   1.756
 4878TIP3    H114598   5.686   5.052   1.736
 4878TIP3    H214599   5.790   5.065   1.846
 4879TIP3   OH214600   6.566   4.976   0.806
 4879TIP3    H114601   6.645   4.923   0.819
 4879TIP3    H214602   6.494   4.920   0.835
 4880TIP3   OH214603   0.972   6.591   2.971
 4880TIP3    H114604   0.887   6.555   2.946
 4880TIP3    H214605   0.960   6.625   3.059
 4881TIP3   OH214606   0.866   3.367   3.678
 4881TIP3    H114607   0.903   3.435   3.735
 4881TIP3    H214608   0.926   3.293   3.686
 4882TIP3   OH214609   3.146   5.927   3.833
 4882TIP3    H114610   3.057   5.952   3.857
 4882TIP3    H214611   3.183   6.006   3.794
 4883TIP3   OH214612   5.122   4.637   3.222
 4883TIP3    H114613   5.157   4.593   3.300
 4883TIP3    H214614   5.104   4.726   3.251
 4884TIP3   OH214615   1.240   0.595   2.731
 4884TIP3    H114616   1.273   0.556   2.812
 4884TIP3    H214617   1.165   0.647   2.758
 4885TIP3   OH214618   2.252   6.465   5.141
 4885TIP3    H114619   2.212   6.381   5.119
 4885TIP3    H214620   2.296   6.449   5.225
 4886TIP3   OH214621   1.009   1.801   1.864
 4886TIP3    H114622   1.011   1.803   1.769
 4886TIP3    H214623   1.088   1.848   1.891
 4887TIP3   OH214624   5.994   2.641   2.400
 4887TIP3    H114625   5.968   2.688   2.480
 4887TIP3    H214626   5.999   2.550   2.427
 4888TIP3   OH214627   6.256   5.341   2.710
 4888TIP3    H114628   6.263   5.401   2.784
 4888TIP3    H214629   6.346   5.311   2.696
 4889TIP3   OH214630   0.812   5.784   3.951
 4889TIP3    H114631   0.880   5.851   3.942
 4889TIP3    H214632   0.731   5.834   3.966
 4890TIP3   OH214633   6.576   0.272   0.635
 4890TIP3    H114634   6.520   0.308   0.705
 4890TIP3    H214635   6.598   0.184   0.665
 4891TIP3   OH214636   1.702   3.206   4.860
 4891TIP3    H114637   1.634   3.142   4.841
 4891TIP3    H214638   1.751   3.167   4.933
 4892TIP3   OH214639   3.482   6.365   3.052
 4892TIP3    H114640   3.459   6.301   2.985
 4892TIP3    H214641   3.480   6.449   3.007
 4893TIP3   OH214642   2.348   2.422   3.927
 4893TIP3    H114643   2.255   2.443   3.939
 4893TIP3    H214644   2.380   2.405   4.016
 4894TIP3   OH214645   3.666   4.768   2.376
 4894TIP3    H114646   3.720   4.808   2.444
 4894TIP3    H214647   3.716   4.779   2.296
 4895TIP3   OH214648   5.729   5.302   0.334
 4895TIP3    H114649   5.753   5.276   0.423
 4895TIP3    H214650   5.756   5.393   0.327
 4896TIP3   OH214651   2.732   1.043   2.501
 4896TIP3    H114652   2.802   0.985   2.471
 4896TIP3    H214653   2.763   1.079   2.583
 4897TIP3   OH214654   4.354   3.964   1.498
 4897TIP3    H114655   4.315   3.883   1.465
 4897TIP3    H214656   4.443   3.938   1.525
 4898TIP3   OH214657   5.617   0.193   0.216
 4898TIP3    H114658   5.627   0.287   0.200
 4898TIP3    H214659   5.620   0.185   0.311
 4899TIP3   OH214660   3.460   4.588   4.122
 4899TIP3    H114661   3.474   4.675   4.158
 4899TIP3    H214662   3.507   4.529   4.181
 4900TIP3   OH214663   5.623   5.270   4.229
 4900TIP3    H114664   5.637   5.185   4.188
 4900TIP3    H214665   5.612   5.251   4.322
 4901TIP3   OH214666   4.874   5.126   1.687
 4901TIP3    H114667   4.822   5.187   1.739
 4901TIP3    H214668   4.900   5.058   1.749
 4902TIP3   OH214669   0.027   5.645   2.041
 4902TIP3    H114670   0.121   5.643   2.058
 4902TIP3    H214671  -0.013   5.622   2.125
 4903TIP3   OH214672   2.901   1.921   5.182
 4903TIP3    H114673   2.969   1.925   5.250
 4903TIP3    H214674   2.913   1.835   5.142
 4904TIP3   OH214675   3.057   5.480   5.868
 4904TIP3    H114676   3.137   5.505   5.822
 4904TIP3    H214677   3.013   5.420   5.807
 4905TIP3   OH214678   5.360   0.027   3.901
 4905TIP3    H114679   5.335  -0.061   3.873
 4905TIP3    H214680   5.422   0.014   3.972
 4906TIP3   OH214681   3.336   5.183   5.640
 4906TIP3    H114682   3.298   5.176   5.553
 4906TIP3    H214683   3.260   5.193   5.698
 4907TIP3   OH214684   6.802   6.382   2.129
 4907TIP3    H114685   6.886   6.351   2.095
 4907TIP3    H214686   6.808   6.371   2.223
 4908TIP3   OH214687   1.686   0.086   2.212
 4908TIP3    H114688   1.596   0.114   2.230
 4908TIP3    H214689   1.681   0.038   2.130
 4909TIP3   OH214690   0.325   4.804   1.004
 4909TIP3    H114691   0.403   4.854   0.981
 4909TIP3    H214692   0.264   4.870   1.037
 4910TIP3   OH214693   4.649   0.248   0.683
 4910TIP3    H114694   4.737   0.263   0.717
 4910TIP3    H214695   4.641   0.153   0.678
 4911TIP3   OH214696   0.132   3.124   4.244
 4911TIP3    H114697   0.092   3.210   4.256
 4911TIP3    H214698   0.081   3.065   4.300
 4912TIP3   OH214699   5.939   6.685   3.379
 4912TIP3    H114700   5.849   6.654   3.381
 4912TIP3    H214701   5.935   6.776   3.408
 4913TIP3   OH214702   5.168   1.362   0.199
 4913TIP3    H114703   5.203   1.286   0.153
 4913TIP3    H214704   5.232   1.380   0.268
 4914TIP3   OH214705   6.191   5.462   0.672
 4914TIP3    H114706   6.143   5.386   0.706
 4914TIP3    H214707   6.243   5.427   0.599
 4915TIP3   OH214708   0.196   4.230   1.106
 4915TIP3    H114709   0.135   4.284   1.156
 4915TIP3    H214710   0.192   4.265   1.017
 4916TIP3   OH214711   5.487   2.545   4.220
 4916TIP3    H114712   5.505   2.627   4.265
 4916TIP3    H214713   5.573   2.516   4.189
 4917TIP3   OH214714   3.026   2.450   4.048
 4917TIP3    H114715   3.016   2.468   3.955
 4917TIP3    H214716   3.043   2.356   4.053
 4918TIP3   OH214717   6.102   4.110   1.548
 4918TIP3    H114718   6.189   4.147   1.535
 4918TIP3    H214719   6.080   4.070   1.463
 4919TIP3   OH214720   2.267   3.201   2.665
 4919TIP3    H114721   2.334   3.158   2.614
 4919TIP3    H214722   2.291   3.294   2.664
 4920TIP3   OH214723   4.019   4.429   4.322
 4920TIP3    H114724   3.944   4.399   4.270
 4920TIP3    H214725   4.095   4.387   4.281
 4921TIP3   OH214726   1.330   0.856   0.995
 4921TIP3    H114727   1.246   0.838   0.953
 4921TIP3    H214728   1.317   0.831   1.086
 4922TIP3   OH214729   6.390   3.012   5.590
 4922TIP3    H114730   6.402   2.921   5.617
 4922TIP3    H214731   6.356   3.056   5.668
 4923TIP3   OH214732   2.440   2.016   0.397
 4923TIP3    H114733   2.391   1.938   0.420
 4923TIP3    H214734   2.517   1.983   0.350
 4924TIP3   OH214735   4.033   5.354   0.376
 4924TIP3    H114736   4.121   5.388   0.390
 4924TIP3    H214737   3.980   5.432   0.357
 4925TIP3   OH214738   1.511   6.676   0.347
 4925TIP3    H114739   1.418   6.689   0.328
 4925TIP3    H214740   1.527   6.727   0.426
 4926TIP3   OH214741   3.518   5.360   0.707
 4926TIP3    H114742   3.518   5.430   0.772
 4926TIP3    H214743   3.608   5.357   0.675
 4927TIP3   OH214744   6.343   1.050   1.877
 4927TIP3    H114745   6.374   1.135   1.910
 4927TIP3    H214746   6.353   1.056   1.782
 4928TIP3   OH214747   3.022   0.040   2.940
 4928TIP3    H114748   3.112   0.053   2.911
 4928TIP3    H214749   2.973   0.112   2.900
 4929TIP3   OH214750   0.935   3.427   0.946
 4929TIP3    H114751   1.018   3.405   0.988
 4929TIP3    H214752   0.956   3.500   0.888
 4930TIP3   OH214753   7.142   1.226   5.727
 4930TIP3    H114754   7.109   1.185   5.647
 4930TIP3    H214755   7.081   1.297   5.745
 4931TIP3   OH214756   6.275   2.851   2.723
 4931TIP3    H114757   6.260   2.771   2.673
 4931TIP3    H214758   6.191   2.898   2.718
 4932TIP3   OH214759   1.295   4.610   3.123
 4932TIP3    H114760   1.234   4.684   3.130
 4932TIP3    H214761   1.329   4.615   3.034
 4933TIP3   OH214762   5.044   0.387   4.803
 4933TIP3    H114763   5.051   0.297   4.772
 4933TIP3    H214764   4.958   0.416   4.774
 4934TIP3   OH214765   0.818   3.097   3.070
 4934TIP3    H114766   0.745   3.114   3.129
 4934TIP3    H214767   0.777   3.061   2.991
 4935TIP3   OH214768   3.255   0.520   4.403
 4935TIP3    H114769   3.225   0.589   4.460
 4935TIP3    H214770   3.231   0.549   4.315
 4936TIP3   OH214771   2.122   5.512   2.947
 4936TIP3    H114772   2.202   5.487   2.900
 4936TIP3    H214773   2.138   5.602   2.975
 4937TIP3   OH214774   3.069   5.578   3.152
 4937TIP3    H114775   3.073   5.673   3.162
 4937TIP3    H214776   3.120   5.544   3.226
 4938TIP3   OH214777   1.125   1.213   1.588
 4938TIP3    H114778   1.048   1.190   1.535
 4938TIP3    H214779   1.101   1.296   1.630
 4939TIP3   OH214780   2.520   4.728   0.864
 4939TIP3    H114781   2.449   4.779   0.825
 4939TIP3    H214782   2.507   4.639   0.831
 4940TIP3   OH214783   3.779   6.356   2.349
 4940TIP3    H114784   3.735   6.271   2.345
 4940TIP3    H214785   3.831   6.360   2.269
 4941TIP3   OH214786   1.695   3.094   3.492
 4941TIP3    H114787   1.623   3.110   3.431
 4941TIP3    H214788   1.741   3.018   3.457
 4942TIP3   OH214789   3.838   2.435   5.775
 4942TIP3    H114790   3.799   2.434   5.688
 4942TIP3    H214791   3.895   2.511   5.776
 4943TIP3   OH214792   6.031   2.930   5.771
 4943TIP3    H114793   6.116   2.973   5.784
 4943TIP3    H214794   6.049   2.859   5.710
 4944TIP3   OH214795   4.176   0.180   4.776
 4944TIP3    H114796   4.139   0.137   4.699
 4944TIP3    H214797   4.253   0.127   4.797
 4945TIP3   OH214798   2.738   2.229   3.244
 4945TIP3    H114799   2.692   2.313   3.251
 4945TIP3    H214800   2.673   2.169   3.208
 4946TIP3   OH214801   0.396   0.947   4.442
 4946TIP3    H114802   0.411   0.932   4.535
 4946TIP3    H214803   0.358   0.865   4.410
 4947TIP3   OH214804   4.889   2.017   3.872
 4947TIP3    H114805   4.978   2.053   3.880
 4947TIP3    H214806   4.834   2.079   3.919
 4948TIP3   OH214807   2.834   1.501   1.511
 4948TIP3    H114808   2.921   1.512   1.548
 4948TIP3    H214809   2.802   1.591   1.497
 4949TIP3   OH214810   6.174   3.349   2.643
 4949TIP3    H114811   6.139   3.434   2.667
 4949TIP3    H214812   6.097   3.299   2.614
 4950TIP3   OH214813   2.365   0.490   2.397
 4950TIP3    H114814   2.341   0.470   2.487
 4950TIP3    H214815   2.424   0.419   2.372
 4951TIP3   OH214816   5.808   4.513   1.559
 4951TIP3    H114817   5.767   4.526   1.474
 4951TIP3    H214818   5.894   4.477   1.539
 4952TIP3   OH214819   6.226   3.400   5.688
 4952TIP3    H114820   6.250   3.335   5.755
 4952TIP3    H214821   6.131   3.405   5.693
 4953TIP3   OH214822   0.169   1.067   1.371
 4953TIP3    H114823   0.213   1.151   1.371
 4953TIP3    H214824   0.177   1.036   1.462
 4954TIP3   OH214825   6.241   0.989   1.294
 4954TIP3    H114826   6.306   0.924   1.320
 4954TIP3    H214827   6.193   0.948   1.222
 4955TIP3   OH214828   1.241   4.135   4.026
 4955TIP3    H114829   1.331   4.103   4.034
 4955TIP3    H214830   1.234   4.205   4.090
 4956TIP3   OH214831   3.722   2.215   2.838
 4956TIP3    H114832   3.668   2.278   2.792
 4956TIP3    H214833   3.732   2.142   2.777
 4957TIP3   OH214834   2.294   1.164   1.312
 4957TIP3    H114835   2.370   1.222   1.314
 4957TIP3    H214836   2.250   1.186   1.230
 4958TIP3   OH214837   3.686   3.157   5.302
 4958TIP3    H114838   3.593   3.136   5.289
 4958TIP3    H214839   3.733   3.096   5.245
 4959TIP3   OH214840   3.350   0.619   5.433
 4959TIP3    H114841   3.283   0.672   5.478
 4959TIP3    H214842   3.381   0.674   5.362
 4960TIP3   OH214843   1.578   5.613   2.218
 4960TIP3    H114844   1.557   5.650   2.304
 4960TIP3    H214845   1.493   5.597   2.177
 4961TIP3   OH214846   2.711   3.394   4.574
 4961TIP3    H114847   2.784   3.345   4.536
 4961TIP3    H214848   2.714   3.480   4.531
 4962TIP3   OH214849   5.289   1.029   2.495
 4962TIP3    H114850   5.337   0.947   2.487
 4962TIP3    H214851   5.305   1.075   2.412
 4963TIP3   OH214852   2.292   3.223   5.192
 4963TIP3    H114853   2.247   3.250   5.112
 4963TIP3    H214854   2.245   3.145   5.221
 4964TIP3   OH214855   0.833   5.458   2.914
 4964TIP3    H114856   0.800   5.526   2.973
 4964TIP3    H214857   0.781   5.469   2.834
 4965TIP3   OH214858   2.616   5.024   3.842
 4965TIP3    H114859   2.646   4.975   3.766
 4965TIP3    H214860   2.659   4.983   3.916
 4966TIP3   OH214861   2.185   4.899   1.873
 4966TIP3    H114862   2.270   4.933   1.845
 4966TIP3    H214863   2.142   4.974   1.915
 4967TIP3   OH214864   4.587   0.941   0.894
 4967TIP3    H114865   4.634   0.881   0.836
 4967TIP3    H214866   4.519   0.887   0.935
 4968TIP3   OH214867   3.723   4.862   5.562
 4968TIP3    H114868   3.710   4.802   5.489
 4968TIP3    H214869   3.668   4.827   5.632
 4969TIP3   OH214870   4.729   4.233   0.439
 4969TIP3    H114871   4.664   4.256   0.373
 4969TIP3    H214872   4.681   4.181   0.504
 4970TIP3   OH214873   1.891   4.754   3.473
 4970TIP3    H114874   1.885   4.707   3.557
 4970TIP3    H214875   1.927   4.840   3.497
 4971TIP3   OH214876   0.738   1.511   3.200
 4971TIP3    H114877   0.809   1.561   3.240
 4971TIP3    H214878   0.665   1.518   3.262
 4972TIP3   OH214879   0.597   5.562   0.122
 4972TIP3    H114880   0.517   5.509   0.132
 4972TIP3    H214881   0.666   5.497   0.107
 4973TIP3   OH214882   2.934   0.671   2.578
 4973TIP3    H114883   2.932   0.729   2.655
 4973TIP3    H214884   2.957   0.728   2.505
 4974TIP3   OH214885   6.480   5.700   4.442
 4974TIP3    H114886   6.397   5.654   4.428
 4974TIP3    H214887   6.490   5.703   4.537
 4975TIP3   OH214888   2.969   2.462   4.401
 4975TIP3    H114889   3.053   2.429   4.368
 4975TIP3    H214890   2.930   2.507   4.326
 4976TIP3   OH214891   6.478   0.253   3.476
 4976TIP3    H114892   6.549   0.207   3.520
 4976TIP3    H214893   6.518   0.288   3.396
 4977TIP3   OH214894   6.215   6.632   4.949
 4977TIP3    H114895   6.128   6.671   4.940
 4977TIP3    H214896   6.227   6.622   5.044
 4978TIP3   OH214897   5.568   4.811   5.282
 4978TIP3    H114898   5.540   4.759   5.206
 4978TIP3    H214899   5.616   4.885   5.244
 4979TIP3   OH214900   4.384   0.971   3.771
 4979TIP3    H114901   4.429   0.892   3.799
 4979TIP3    H214902   4.320   0.940   3.706
 4980TIP3   OH214903   1.987   4.643   5.208
 4980TIP3    H114904   1.969   4.607   5.121
 4980TIP3    H214905   1.915   4.609   5.262
 4981TIP3   OH214906   5.194   5.328   1.640
 4981TIP3    H114907   5.120   5.310   1.581
 4981TIP3    H214908   5.208   5.422   1.632
 4982TIP3   OH214909   2.033   4.955   3.546
 4982TIP3    H114910   2.076   4.958   3.460
 4982TIP3    H214911   2.101   4.980   3.608
 4983TIP3   OH214912   3.378   6.212   0.650
 4983TIP3    H114913   3.394   6.219   0.555
 4983TIP3    H214914   3.453   6.257   0.690
 4984TIP3   OH214915   2.618   2.055   1.037
 4984TIP3    H114916   2.677   1.983   1.013
 4984TIP3    H214917   2.562   2.066   0.960
 4985TIP3   OH214918   5.883   4.697   3.320
 4985TIP3    H114919   5.844   4.760   3.381
 4985TIP3    H214920   5.809   4.646   3.287
 4986TIP3   OH214921   4.461   5.702   0.163
 4986TIP3    H114922   4.368   5.709   0.141
 4986TIP3    H214923   4.465   5.720   0.257
 4987TIP3   OH214924   4.758   0.931   1.866
 4987TIP3    H114925   4.842   0.885   1.864
 4987TIP3    H214926   4.743   0.957   1.775
 4988TIP3   OH214927   2.641   4.001   3.141
 4988TIP3    H114928   2.674   3.929   3.195
 4988TIP3    H214929   2.642   4.077   3.199
 4989TIP3   OH214930   3.429   3.108   4.072
 4989TIP3    H114931   3.394   3.043   4.011
 4989TIP3    H214932   3.471   3.174   4.017
 4990TIP3   OH214933   5.555   1.958   2.628
 4990TIP3    H114934   5.574   1.967   2.722
 4990TIP3    H214935   5.631   1.912   2.592
 4991TIP3   OH214936   3.300   5.997   2.692
 4991TIP3    H114937   3.384   5.951   2.689
 4991TIP3    H214938   3.235   5.927   2.689
 4992TIP3   OH214939   1.216   5.803   1.587
 4992TIP3    H114940   1.136   5.855   1.575
 4992TIP3    H214941   1.220   5.787   1.682
 4993TIP3   OH214942   1.477   4.282   1.104
 4993TIP3    H114943   1.441   4.278   1.193
 4993TIP3    H214944   1.543   4.213   1.102
 4994TIP3   OH214945   4.223   5.906   5.258
 4994TIP3    H114946   4.240   5.995   5.226
 4994TIP3    H214947   4.215   5.916   5.353
 4995TIP3   OH214948   0.255   2.066   3.574
 4995TIP3    H114949   0.228   2.115   3.496
 4995TIP3    H214950   0.348   2.048   3.561
 4996TIP3   OH214951   5.516   4.004   1.468
 4996TIP3    H114952   5.532   3.978   1.377
 4996TIP3    H214953   5.603   4.028   1.502
 4997TIP3   OH214954   5.871   2.753   0.141
 4997TIP3    H114955   5.856   2.677   0.086
 4997TIP3    H214956   5.839   2.727   0.227
 4998TIP3   OH214957   3.613   2.620   4.145
 4998TIP3    H114958   3.519   2.636   4.150
 4998TIP3    H214959   3.642   2.671   4.069
 4999TIP3   OH214960   2.645   2.496   5.683
 4999TIP3    H114961   2.661   2.411   5.724
 4999TIP3    H214962   2.609   2.550   5.754
 5000TIP3   OH214963   3.724   3.858   0.816
 5000TIP3    H114964   3.665   3.783   0.828
 5000TIP3    H214965   3.788   3.850   0.886
 5001TIP3   OH214966   3.208   0.591   1.110
 5001TIP3    H114967   3.239   0.521   1.053
 5001TIP3    H214968   3.141   0.550   1.164
 5002TIP3   OH214969   3.910   3.321   1.273
 5002TIP3    H114970   3.895   3.227   1.266
 5002TIP3    H214971   3.823   3.358   1.288
 5003TIP3   OH214972   6.427   3.197   0.415
 5003TIP3    H114973   6.418   3.266   0.350
 5003TIP3    H214974   6.369   3.127   0.385
 5004TIP3   OH214975   7.076   5.686   0.387
 5004TIP3    H114976   7.073   5.775   0.351
 5004TIP3    H214977   7.168   5.671   0.409
 5005TIP3   OH214978   6.967   0.449   2.400
 5005TIP3    H114979   6.876   0.471   2.420
 5005TIP3    H214980   6.965   0.411   2.313
 5006TIP3   OH214981   5.282   0.007   1.743
 5006TIP3    H114982   5.250   0.075   1.683
 5006TIP3    H214983   5.212  -0.002   1.808
 5007TIP3   OH214984   3.467   5.004   1.806
 5007TIP3    H114985   3.534   4.977   1.743
 5007TIP3    H214986   3.395   4.943   1.792
 5008TIP3   OH214987   2.741   4.695   1.389
 5008TIP3    H114988   2.646   4.697   1.397
 5008TIP3    H214989   2.763   4.603   1.381
 5009TIP3   OH214990   1.089   3.725   4.241
 5009TIP3    H114991   1.131   3.641   4.219
 5009TIP3    H214992   1.074   3.720   4.335
 5010TIP3   OH214993   7.089   0.702   3.202
 5010TIP3    H114994   7.147   0.778   3.204
 5010TIP3    H214995   7.045   0.708   3.118
 5011TIP3   OH214996   6.362   0.479   5.475
 5011TIP3    H114997   6.364   0.442   5.386
 5011TIP3    H214998   6.326   0.409   5.529
 5012TIP3   OH214999   6.681   5.804   1.111
 5012TIP3    H115000   6.703   5.869   1.044
 5012TIP3    H215001   6.632   5.737   1.065
 5013TIP3   OH215002   2.584   5.130   1.198
 5013TIP3    H115003   2.489   5.123   1.184
 5013TIP3    H215004   2.608   5.214   1.158
 5014TIP3   OH215005   1.747   4.387   0.861
 5014TIP3    H115006   1.748   4.474   0.820
 5014TIP3    H215007   1.654   4.368   0.874
 5015TIP3   OH215008   2.260   2.922   0.658
 5015TIP3    H115009   2.192   2.990   0.650
 5015TIP3    H215010   2.317   2.937   0.582
 5016TIP3   OH215011   0.555   5.757   4.934
 5016TIP3    H115012   0.628   5.718   4.982
 5016TIP3    H215013   0.545   5.844   4.973
 5017TIP3   OH215014   0.563   4.329   5.027
 5017TIP3    H115015   0.583   4.410   5.073
 5017TIP3    H215016   0.632   4.321   4.961
 5018TIP3   OH215017   6.917   2.840   5.306
 5018TIP3    H115018   6.905   2.745   5.299
 5018TIP3    H215019   7.000   2.850   5.351
 5019TIP3   OH215020   0.143   6.709   5.728
 5019TIP3    H115021   0.070   6.682   5.784
 5019TIP3    H215022   0.105   6.775   5.670
 5020TIP3   OH215023   2.154   6.156   5.002
 5020TIP3    H115024   2.249   6.155   4.994
 5020TIP3    H215025   2.128   6.065   4.987
 5021TIP3   OH215026   5.827   1.477   2.678
 5021TIP3    H115027   5.738   1.453   2.654
 5021TIP3    H215028   5.874   1.483   2.595
 5022TIP3   OH215029   1.861   2.603   0.170
 5022TIP3    H115030   1.782   2.574   0.216
 5022TIP3    H215031   1.844   2.582   0.079
 5023TIP3   OH215032   5.522   5.603   4.682
 5023TIP3    H115033   5.488   5.624   4.769
 5023TIP3    H215034   5.526   5.687   4.637
 5024TIP3   OH215035   3.355   3.859   0.377
 5024TIP3    H115036   3.442   3.899   0.376
 5024TIP3    H215037   3.298   3.927   0.415
 5025TIP3   OH215038   4.653   6.716   3.720
 5025TIP3    H115039   4.580   6.677   3.671
 5025TIP3    H215040   4.611   6.758   3.795
 5026TIP3   OH215041   4.151   0.795   0.208
 5026TIP3    H115042   4.236   0.754   0.189
 5026TIP3    H215043   4.172   0.866   0.268
 5027TIP3   OH215044   3.231   0.320   3.572
 5027TIP3    H115045   3.319   0.311   3.608
 5027TIP3    H215046   3.223   0.250   3.508
 5028TIP3   OH215047   6.923   2.247   3.969
 5028TIP3    H115048   6.879   2.165   3.945
 5028TIP3    H215049   6.923   2.246   4.065
 5029TIP3   OH215050   0.456   1.274   2.831
 5029TIP3    H115051   0.392   1.328   2.784
 5029TIP3    H215052   0.520   1.337   2.864
 5030TIP3   OH215053   0.986   4.319   3.260
 5030TIP3    H115054   1.074   4.352   3.279
 5030TIP3    H215055   0.978   4.328   3.165
 5031TIP3   OH215056   1.985   5.406   2.428
 5031TIP3    H115057   1.998   5.314   2.407
 5031TIP3    H215058   2.070   5.435   2.463
 5032TIP3   OH215059   3.258   2.103   5.084
 5032TIP3    H115060   3.318   2.125   5.012
 5032TIP3    H215061   3.184   2.163   5.073
 5033TIP3   OH215062   3.586   2.589   4.477
 5033TIP3    H115063   3.671   2.588   4.433
 5033TIP3    H215064   3.539   2.661   4.435
 5034TIP3   OH215065   3.840   4.119   1.519
 5034TIP3    H115066   3.877   4.200   1.554
 5034TIP3    H215067   3.822   4.066   1.597
 5035TIP3   OH215068   0.846   0.541   5.554
 5035TIP3    H115069   0.766   0.591   5.539
 5035TIP3    H215070   0.888   0.583   5.629
 5036TIP3   OH215071   5.188   4.463   3.435
 5036TIP3    H115072   5.260   4.448   3.496
 5036TIP3    H215073   5.132   4.387   3.445
 5037TIP3   OH215074   6.427   4.723   0.834
 5037TIP3    H115075   6.422   4.628   0.850
 5037TIP3    H215076   6.448   4.730   0.741
 5038TIP3   OH215077   3.965   1.671   2.148
 5038TIP3    H115078   4.003   1.656   2.062
 5038TIP3    H215079   4.038   1.707   2.200
 5039TIP3   OH215080   4.009   0.077   0.961
 5039TIP3    H115081   4.027   0.088   1.055
 5039TIP3    H215082   4.045  -0.009   0.940
 5040TIP3   OH215083   0.838   4.523   2.687
 5040TIP3    H115084   0.782   4.452   2.654
 5040TIP3    H215085   0.776   4.588   2.722
 5041TIP3   OH215086   2.469   5.719   4.943
 5041TIP3    H115087   2.526   5.676   4.880
 5041TIP3    H215088   2.403   5.764   4.889
 5042TIP3   OH215089   6.842   1.411   1.142
 5042TIP3    H115090   6.750   1.391   1.158
 5042TIP3    H215091   6.862   1.368   1.059
 5043TIP3   OH215092   5.925   4.727   2.881
 5043TIP3    H115093   5.991   4.751   2.945
 5043TIP3    H215094   5.970   4.734   2.796
 5044TIP3   OH215095   5.828   4.927   3.084
 5044TIP3    H115096   5.824   5.009   3.035
 5044TIP3    H215097   5.914   4.891   3.063
 5045TIP3   OH215098   6.395   6.217   2.115
 5045TIP3    H115099   6.463   6.183   2.174
 5045TIP3    H215100   6.378   6.145   2.054
 5046TIP3   OH215101   4.779   3.163   2.471
 5046TIP3    H115102   4.752   3.145   2.382
 5046TIP3    H215103   4.703   3.205   2.512
 5047TIP3   OH215104   1.229   4.815   2.073
 5047TIP3    H115105   1.265   4.801   1.986
 5047TIP3    H215106   1.251   4.734   2.121
 5048TIP3   OH215107   2.098   2.998   3.651
 5048TIP3    H115108   2.111   3.093   3.647
 5048TIP3    H215109   2.058   2.976   3.567
 5049TIP3   OH215110   4.985   2.764   1.785
 5049TIP3    H115111   5.050   2.833   1.770
 5049TIP3    H215112   4.901   2.805   1.768
 5050TIP3   OH215113   3.565   6.584   2.682
 5050TIP3    H115114   3.623   6.626   2.619
 5050TIP3    H215115   3.598   6.495   2.689
 5051TIP3   OH215116   2.833   6.212   0.201
 5051TIP3    H115117   2.913   6.248   0.238
 5051TIP3    H215118   2.855   6.121   0.178
 5052TIP3   OH215119   7.031   2.620   4.852
 5052TIP3    H115120   7.124   2.629   4.872
 5052TIP3    H215121   7.005   2.537   4.893
 5053TIP3   OH215122   5.066   0.512   2.699
 5053TIP3    H115123   5.124   0.538   2.771
 5053TIP3    H215124   5.108   0.547   2.621
 5054TIP3   OH215125   2.631   1.755   0.243
 5054TIP3    H115126   2.667   1.668   0.229
 5054TIP3    H215127   2.681   1.791   0.316
 5055TIP3   OH215128   6.073   5.287   4.306
 5055TIP3    H115129   6.143   5.229   4.335
 5055TIP3    H215130   6.092   5.305   4.214
 5056TIP3   OH215131   2.296  -0.029   4.292
 5056TIP3    H115132   2.257   0.024   4.361
 5056TIP3    H215133   2.221  -0.064   4.244
 5057TIP3   OH215134   5.782   3.858   1.627
 5057TIP3    H115135   5.871   3.825   1.616
 5057TIP3    H215136   5.785   3.947   1.592
 5058TIP3   OH215137   5.710   1.014   1.559
 5058TIP3    H115138   5.727   0.933   1.606
 5058TIP3    H215139   5.790   1.031   1.509
 5059TIP3   OH215140   6.563   6.237   3.230
 5059TIP3    H115141   6.563   6.302   3.159
 5059TIP3    H215142   6.505   6.168   3.198
 5060TIP3   OH215143   2.521   3.728   4.020
 5060TIP3    H115144   2.616   3.721   4.003
 5060TIP3    H215145   2.513   3.718   4.114
 5061TIP3   OH215146   4.807   6.349   5.647
 5061TIP3    H115147   4.839   6.425   5.598
 5061TIP3    H215148   4.813   6.276   5.585
 5062TIP3   OH215149   3.547   0.179   0.514
 5062TIP3    H115150   3.615   0.233   0.475
 5062TIP3    H215151   3.541   0.210   0.605
 5063TIP3   OH215152   1.754   4.872   0.690
 5063TIP3    H115153   1.672   4.904   0.652
 5063TIP3    H215154   1.785   4.806   0.628
 5064TIP3   OH215155   3.549   2.305   3.323
 5064TIP3    H115156   3.475   2.256   3.288
 5064TIP3    H215157   3.623   2.278   3.270
 5065TIP3   OH215158   7.129   3.995   0.672
 5065TIP3    H115159   7.052   3.940   0.680
 5065TIP3    H215160   7.195   3.938   0.630
 5066TIP3   OH215161   3.425   3.834   3.347
 5066TIP3    H115162   3.497   3.836   3.285
 5066TIP3    H215163   3.465   3.809   3.431
 5067TIP3   OH215164   3.778   4.855   3.513
 5067TIP3    H115165   3.833   4.777   3.525
 5067TIP3    H215166   3.735   4.842   3.429
 5068TIP3   OH215167   5.600   5.020   4.026
 5068TIP3    H115168   5.649   4.947   3.989
 5068TIP3    H215169   5.553   5.058   3.951
 5069TIP3   OH215170   1.446   4.102   3.648
 5069TIP3    H115171   1.384   4.060   3.707
 5069TIP3    H215172   1.395   4.167   3.600
 5070TIP3   OH215173   0.127   2.096   1.011
 5070TIP3    H115174   0.132   2.191   1.000
 5070TIP3    H215175   0.219   2.068   1.018
 5071TIP3   OH215176   5.523   2.687   5.228
 5071TIP3    H115177   5.601   2.693   5.173
 5071TIP3    H215178   5.453   2.722   5.173
 5072TIP3   OH215179   1.831   5.951   2.971
 5072TIP3    H115180   1.738   5.973   2.966
 5072TIP3    H215181   1.858   5.983   3.057
 5073TIP3   OH215182   4.662   2.811   2.467
 5073TIP3    H115183   4.604   2.747   2.426
 5073TIP3    H215184   4.608   2.852   2.535
 5074TIP3   OH215185   2.082   4.504   4.394
 5074TIP3    H115186   2.093   4.587   4.348
 5074TIP3    H215187   2.153   4.503   4.459
 5075TIP3   OH215188   1.768   5.703   3.692
 5075TIP3    H115189   1.832   5.659   3.636
 5075TIP3    H215190   1.683   5.675   3.658
 5076TIP3   OH215191   3.431   5.974   5.066
 5076TIP3    H115192   3.508   6.018   5.030
 5076TIP3    H215193   3.373   5.962   4.991
 5077TIP3   OH215194   0.834   3.984   5.770
 5077TIP3    H115195   0.769   4.042   5.809
 5077TIP3    H215196   0.787   3.902   5.756
 5078TIP3   OH215197   2.877   3.635   2.624
 5078TIP3    H115198   2.960   3.604   2.660
 5078TIP3    H215199   2.888   3.627   2.529
 5079TIP3   OH215200   0.222   1.201   5.716
 5079TIP3    H115201   0.259   1.116   5.741
 5079TIP3    H215202   0.127   1.186   5.715
 5080TIP3   OH215203   0.481   3.736   3.595
 5080TIP3    H115204   0.568   3.696   3.594
 5080TIP3    H215205   0.463   3.752   3.688
 5081TIP3   OH215206   2.362   4.514   1.227
 5081TIP3    H115207   2.300   4.528   1.155
 5081TIP3    H215208   2.314   4.540   1.305
 5082TIP3   OH215209   6.937   5.143   1.863
 5082TIP3    H115210   6.972   5.110   1.946
 5082TIP3    H215211   6.962   5.077   1.799
 5083TIP3   OH215212   4.629   2.623   1.228
 5083TIP3    H115213   4.647   2.602   1.137
 5083TIP3    H215214   4.608   2.717   1.227
 5084TIP3   OH215215   6.697   1.109   1.819
 5084TIP3    H115216   6.760   1.040   1.836
 5084TIP3    H215217   6.750   1.188   1.807
 5085TIP3   OH215218   3.951   2.056   2.178
 5085TIP3    H115219   3.929   2.149   2.178
 5085TIP3    H215220   3.985   2.039   2.266
 5086TIP3   OH215221   5.146   2.286   3.295
 5086TIP3    H115222   5.067   2.253   3.251
 5086TIP3    H215223   5.170   2.364   3.245
 5087TIP3   OH215224   5.086   4.332   2.209
 5087TIP3    H115225   5.027   4.257   2.209
 5087TIP3    H215226   5.140   4.320   2.131
 5088TIP3   OH215227   4.389   1.566   2.132
 5088TIP3    H115228   4.447   1.603   2.066
 5088TIP3    H215229   4.425   1.479   2.150
 5089TIP3   OH215230   6.233   2.470   4.316
 5089TIP3    H115231   6.270   2.416   4.385
 5089TIP3    H215232   6.303   2.532   4.295
 5090TIP3   OH215233   4.904   4.690   3.051
 5090TIP3    H115234   4.941   4.707   2.964
 5090TIP3    H215235   4.977   4.655   3.102
 5091TIP3   OH215236   1.076   0.194   4.856
 5091TIP3    H115237   1.036   0.242   4.784
 5091TIP3    H215238   1.067   0.253   4.931
 5092TIP3   OH215239   2.399   6.487   5.364
 5092TIP3    H115240   2.377   6.504   5.455
 5092TIP3    H215241   2.485   6.528   5.352
 5093TIP3   OH215242   4.792   2.756   5.519
 5093TIP3    H115243   4.859   2.730   5.582
 5093TIP3    H215244   4.710   2.721   5.553
 5094TIP3   OH215245   1.251   4.363   3.295
 5094TIP3    H115246   1.279   4.452   3.272
 5094TIP3    H215247   1.311   4.306   3.246
 5095TIP3   OH215248   4.044   6.629   0.971
 5095TIP3    H115249   4.102   6.561   0.937
 5095TIP3    H215250   4.103   6.702   0.990
 5096TIP3   OH215251   2.050   0.069   1.298
 5096TIP3    H115252   2.047   0.068   1.203
 5096TIP3    H215253   2.022  -0.019   1.324
 5097TIP3   OH215254   6.686   1.564   1.429
 5097TIP3    H115255   6.614   1.583   1.490
 5097TIP3    H215256   6.765   1.575   1.481
 5098TIP3   OH215257   0.898   1.385   0.194
 5098TIP3    H115258   0.888   1.294   0.223
 5098TIP3    H215259   0.811   1.423   0.207
 5099TIP3   OH215260   5.571   5.329   5.674
 5099TIP3    H115261   5.583   5.235   5.692
 5099TIP3    H215262   5.637   5.349   5.608
 5100TIP3   OH215263   3.189   0.160   3.367
 5100TIP3    H115264   3.099   0.191   3.362
 5100TIP3    H215265   3.221   0.166   3.277
 5101TIP3   OH215266   3.640   1.008   5.583
 5101TIP3    H115267   3.545   1.003   5.572
 5101TIP3    H215268   3.661   0.939   5.646
 5102TIP3   OH215269   0.095   0.436   2.787
 5102TIP3    H115270   0.164   0.435   2.721
 5102TIP3    H215271   0.115   0.361   2.843
 5103TIP3   OH215272   4.324   0.665   4.280
 5103TIP3    H115273   4.243   0.709   4.303
 5103TIP3    H215274   4.305   0.572   4.292
 5104TIP3   OH215275   5.727   0.029   3.154
 5104TIP3    H115276   5.707  -0.041   3.216
 5104TIP3    H215277   5.661   0.020   3.086
 5105TIP3   OH215278   2.008   5.865   2.807
 5105TIP3    H115279   1.930   5.882   2.861
 5105TIP3    H215280   2.036   5.777   2.833
 5106TIP3   OH215281   6.058   1.367   3.220
 5106TIP3    H115282   6.152   1.381   3.229
 5106TIP3    H215283   6.049   1.316   3.140
 5107TIP3   OH215284   0.447   1.729   0.872
 5107TIP3    H115285   0.368   1.694   0.914
 5107TIP3    H215286   0.439   1.703   0.781
 5108TIP3   OH215287   2.239   5.476   2.527
 5108TIP3    H115288   2.275   5.555   2.486
 5108TIP3    H215289   2.247   5.492   2.621
 5109TIP3   OH215290   6.378   3.432   5.167
 5109TIP3    H115291   6.365   3.438   5.261
 5109TIP3    H215292   6.472   3.417   5.156
 5110TIP3   OH215293   1.125   0.970   3.925
 5110TIP3    H115294   1.106   0.989   3.833
 5110TIP3    H215295   1.165   0.883   3.924
 5111TIP3   OH215296   5.841   2.019   2.781
 5111TIP3    H115297   5.852   1.924   2.771
 5111TIP3    H215298   5.779   2.027   2.854
 5112TIP3   OH215299   0.828   4.916   1.330
 5112TIP3    H115300   0.910   4.962   1.314
 5112TIP3    H215301   0.821   4.853   1.258
 5113TIP3   OH215302   0.266   0.696   0.214
 5113TIP3    H115303   0.223   0.780   0.229
 5113TIP3    H215304   0.266   0.685   0.119
 5114TIP3   OH215305   6.723   2.669   1.583
 5114TIP3    H115306   6.658   2.599   1.593
 5114TIP3    H215307   6.722   2.715   1.666
 5115TIP3   OH215308   5.363   5.075   5.630
 5115TIP3    H115309   5.310   4.999   5.656
 5115TIP3    H215310   5.441   5.069   5.684
 5116TIP3   OH215311   1.164   5.259   0.050
 5116TIP3    H115312   1.178   5.175   0.093
 5116TIP3    H215313   1.167   5.240  -0.043
 5117TIP3   OH215314   3.161   5.305   1.283
 5117TIP3    H115315   3.183   5.232   1.341
 5117TIP3    H215316   3.071   5.328   1.306
 5118TIP3   OH215317   7.136   2.768   0.632
 5118TIP3    H115318   7.115   2.769   0.726
 5118TIP3    H215319   7.230   2.751   0.629
 5119TIP3   OH215320  -0.002   0.853   4.213
 5119TIP3    H115321   0.082   0.837   4.170
 5119TIP3    H215322   0.021   0.885   4.300
 5120TIP3   OH215323   0.603   1.966   1.705
 5120TIP3    H115324   0.512   1.936   1.710
 5120TIP3    H215325   0.653   1.898   1.751
 5121TIP3   OH215326   3.239   2.059   3.770
 5121TIP3    H115327   3.238   2.130   3.706
 5121TIP3    H215328   3.246   1.980   3.717
 5122TIP3   OH215329   7.108   5.877   2.060
 5122TIP3    H115330   7.171   5.804   2.060
 5122TIP3    H215331   7.023   5.835   2.067
 5123TIP3   OH215332   4.181   1.561   1.115
 5123TIP3    H115333   4.119   1.632   1.100
 5123TIP3    H215334   4.153   1.521   1.197
 5124TIP3   OH215335   1.540   6.242   5.878
 5124TIP3    H115336   1.583   6.285   5.804
 5124TIP3    H215337   1.446   6.256   5.863
 5125TIP3   OH215338   2.922   3.295   2.932
 5125TIP3    H115339   2.855   3.272   2.868
 5125TIP3    H215340   2.899   3.383   2.962
 5126TIP3   OH215341   2.165   5.367   1.149
 5126TIP3    H115342   2.153   5.443   1.092
 5126TIP3    H215343   2.114   5.388   1.228
 5127TIP3   OH215344   3.791   6.215   1.631
 5127TIP3    H115345   3.695   6.212   1.624
 5127TIP3    H215346   3.808   6.289   1.690
 5128TIP3   OH215347   1.454   2.859   0.497
 5128TIP3    H115348   1.361   2.881   0.493
 5128TIP3    H215349   1.470   2.807   0.417
 5129TIP3   OH215350   0.833   2.516   4.898
 5129TIP3    H115351   0.746   2.539   4.864
 5129TIP3    H215352   0.882   2.487   4.822
 5130TIP3   OH215353   3.306   3.908   5.783
 5130TIP3    H115354   3.242   3.889   5.715
 5130TIP3    H215355   3.390   3.910   5.738
 5131TIP3   OH215356   3.415   2.033   1.323
 5131TIP3    H115357   3.335   2.037   1.376
 5131TIP3    H215358   3.396   2.088   1.247
 5132TIP3   OH215359   7.108   1.788   2.024
 5132TIP3    H115360   7.115   1.862   2.084
 5132TIP3    H215361   7.190   1.790   1.974
 5133TIP3   OH215362   3.438   0.328   2.443
 5133TIP3    H115363   3.371   0.348   2.509
 5133TIP3    H215364   3.503   0.276   2.489
 5134TIP3   OH215365   0.474   3.851   1.927
 5134TIP3    H115366   0.420   3.783   1.888
 5134TIP3    H215367   0.559   3.840   1.885
 5135TIP3   OH215368   0.336   6.351   2.658
 5135TIP3    H115369   0.287   6.318   2.583
 5135TIP3    H215370   0.281   6.331   2.734
 5136TIP3   OH215371   6.926   0.612   0.633
 5136TIP3    H115372   6.880   0.545   0.582
 5136TIP3    H215373   6.873   0.623   0.712
 5137TIP3   OH215374   0.691   1.868   2.078
 5137TIP3    H115375   0.682   1.963   2.073
 5137TIP3    H215376   0.740   1.844   2.000
 5138TIP3   OH215377   3.558   5.966   0.081
 5138TIP3    H115378   3.471   5.990   0.114
 5138TIP3    H215379   3.572   5.877   0.112
 5139TIP3   OH215380   0.069   2.619   3.656
 5139TIP3    H115381   0.050   2.685   3.723
 5139TIP3    H215382   0.154   2.645   3.620
 5140TIP3   OH215383   3.961   1.704   2.467
 5140TIP3    H115384   4.007   1.633   2.423
 5140TIP3    H215385   3.962   1.776   2.404
 5141TIP3   OH215386   5.556   5.850   2.988
 5141TIP3    H115387   5.561   5.758   3.014
 5141TIP3    H215388   5.647   5.878   2.983
 5142TIP3   OH215389   2.401   3.617   2.955
 5142TIP3    H115390   2.319   3.630   3.004
 5142TIP3    H215391   2.432   3.706   2.937
 5143TIP3   OH215392   0.353   4.718   2.533
 5143TIP3    H115393   0.274   4.735   2.584
 5143TIP3    H215394   0.326   4.733   2.442
 5144TIP3   OH215395   2.350   6.395   4.718
 5144TIP3    H115396   2.376   6.312   4.756
 5144TIP3    H215397   2.366   6.385   4.624
 5145TIP3   OH215398   2.109   0.283   2.386
 5145TIP3    H115399   2.109   0.285   2.291
 5145TIP3    H215400   2.072   0.197   2.409
 5146TIP3   OH215401   7.177   0.595   2.973
 5146TIP3    H115402   7.219   0.547   2.901
 5146TIP3    H215403   7.245   0.653   3.005
 5147TIP3   OH215404   5.407   0.907   2.149
 5147TIP3    H115405   5.446   0.824   2.121
 5147TIP3    H215406   5.480   0.957   2.185
 5148TIP3   OH215407   1.835   3.248   1.850
 5148TIP3    H115408   1.906   3.297   1.892
 5148TIP3    H215409   1.855   3.252   1.757
 5149TIP3   OH215410   1.001   6.825   1.493
 5149TIP3    H115411   0.972   6.855   1.579
 5149TIP3    H215412   1.019   6.732   1.505
 5150TIP3   OH215413   4.222   0.989   4.246
 5150TIP3    H115414   4.139   0.973   4.292
 5150TIP3    H215415   4.217   1.081   4.220
 5151TIP3   OH215416   2.473   1.731   1.092
 5151TIP3    H115417   2.550   1.784   1.074
 5151TIP3    H215418   2.400   1.793   1.091
 5152TIP3   OH215419   3.178   1.150   0.219
 5152TIP3    H115420   3.262   1.145   0.174
 5152TIP3    H215421   3.183   1.082   0.286
 5153TIP3   OH215422   4.208   1.274   4.359
 5153TIP3    H115423   4.141   1.330   4.398
 5153TIP3    H215424   4.260   1.243   4.433
 5154TIP3   OH215425   0.294   0.766   2.566
 5154TIP3    H115426   0.356   0.695   2.548
 5154TIP3    H215427   0.243   0.734   2.641
 5155TIP3   OH215428   2.043   1.784   2.991
 5155TIP3    H115429   2.052   1.873   2.957
 5155TIP3    H215430   1.949   1.766   2.986
 5156TIP3   OH215431   5.123   0.928   2.236
 5156TIP3    H115432   5.203   0.883   2.209
 5156TIP3    H215433   5.103   0.891   2.323
 5157TIP3   OH215434   3.713   0.519   0.640
 5157TIP3    H115435   3.759   0.568   0.709
 5157TIP3    H215436   3.670   0.447   0.686
 5158TIP3   OH215437   5.027   5.866   4.985
 5158TIP3    H115438   5.059   5.785   4.947
 5158TIP3    H215439   5.105   5.921   4.993
 5159TIP3   OH215440   4.482   3.944   3.423
 5159TIP3    H115441   4.561   3.968   3.374
 5159TIP3    H215442   4.428   4.023   3.422
 5160TIP3   OH215443   3.264   5.814   1.130
 5160TIP3    H115444   3.335   5.774   1.080
 5160TIP3    H215445   3.203   5.742   1.146
 5161TIP3   OH215446   1.352   4.633   2.521
 5161TIP3    H115447   1.371   4.651   2.429
 5161TIP3    H215448   1.405   4.696   2.570
 5162TIP3   OH215449   5.803   4.122   2.941
 5162TIP3    H115450   5.865   4.074   2.996
 5162TIP3    H215451   5.855   4.192   2.901
 5163TIP3   OH215452   5.481   2.162   4.022
 5163TIP3    H115453   5.453   2.216   3.948
 5163TIP3    H215454   5.572   2.189   4.036
 5164TIP3   OH215455   3.635   0.160   2.549
 5164TIP3    H115456   3.688   0.239   2.536
 5164TIP3    H215457   3.677   0.114   2.621
 5165TIP3   OH215458   6.962   4.680   2.609
 5165TIP3    H115459   6.956   4.676   2.705
 5165TIP3    H215460   7.027   4.748   2.592
 5166TIP3   OH215461   6.611   1.562   0.956
 5166TIP3    H115462   6.687   1.539   0.903
 5166TIP3    H215463   6.644   1.623   1.021
 5167TIP3   OH215464   0.523   1.065   1.312
 5167TIP3    H115465   0.532   1.142   1.369
 5167TIP3    H215466   0.614   1.039   1.293
 5168TIP3   OH215467   2.262   6.587   0.860
 5168TIP3    H115468   2.320   6.572   0.786
 5168TIP3    H215469   2.266   6.506   0.910
 5169TIP3   OH215470   2.519   2.162   2.779
 5169TIP3    H115471   2.548   2.088   2.726
 5169TIP3    H215472   2.425   2.151   2.788
 5170TIP3   OH215473   1.794   5.152   4.843
 5170TIP3    H115474   1.853   5.157   4.768
 5170TIP3    H215475   1.749   5.237   4.843
 5171TIP3   OH215476   6.741   2.307   1.006
 5171TIP3    H115477   6.696   2.381   0.966
 5171TIP3    H215478   6.803   2.278   0.938
 5172TIP3   OH215479   0.348   5.210   2.850
 5172TIP3    H115480   0.311   5.292   2.819
 5172TIP3    H215481   0.435   5.205   2.810
 5173TIP3   OH215482   2.073   2.254   1.146
 5173TIP3    H115483   2.011   2.327   1.152
 5173TIP3    H215484   2.061   2.220   1.058
 5174TIP3   OH215485   4.500   1.219   4.766
 5174TIP3    H115486   4.591   1.196   4.787
 5174TIP3    H215487   4.481   1.294   4.822
 5175TIP3   OH215488   6.587   5.406   5.204
 5175TIP3    H115489   6.540   5.343   5.151
 5175TIP3    H215490   6.523   5.435   5.269
 5176TIP3   OH215491   6.204   5.308   4.661
 5176TIP3    H115492   6.132   5.246   4.662
 5176TIP3    H215493   6.269   5.269   4.602
 5177TIP3   OH215494   4.848   0.870   1.386
 5177TIP3    H115495   4.936   0.845   1.416
 5177TIP3    H215496   4.859   0.892   1.294
 5178TIP3   OH215497   1.811   6.343   1.530
 5178TIP3    H115498   1.880   6.299   1.479
 5178TIP3    H215499   1.729   6.309   1.494
 5179TIP3   OH215500   5.675   1.962   3.714
 5179TIP3    H115501   5.595   2.005   3.684
 5179TIP3    H215502   5.645   1.895   3.775
 5180TIP3   OH215503   5.305   5.504   2.420
 5180TIP3    H115504   5.343   5.570   2.362
 5180TIP3    H215505   5.235   5.550   2.466
 5181TIP3   OH215506   6.464   0.712   1.543
 5181TIP3    H115507   6.499   0.799   1.560
 5181TIP3    H215508   6.448   0.711   1.449
 5182TIP3   OH215509   5.356   4.087   3.055
 5182TIP3    H115510   5.313   4.159   3.103
 5182TIP3    H215511   5.363   4.120   2.965
 5183TIP3   OH215512   6.379   1.472   0.270
 5183TIP3    H115513   6.382   1.554   0.318
 5183TIP3    H215514   6.291   1.437   0.287
 5184TIP3   OH215515   0.921   1.408   2.965
 5184TIP3    H115516   1.011   1.435   2.944
 5184TIP3    H215517   0.878   1.487   2.997
 5185TIP3   OH215518   1.734   4.686   0.906
 5185TIP3    H115519   1.751   4.713   0.816
 5185TIP3    H215520   1.641   4.665   0.908
 5186TIP3   OH215521   1.540   6.358   1.801
 5186TIP3    H115522   1.502   6.325   1.882
 5186TIP3    H215523   1.633   6.337   1.808
 5187TIP3   OH215524   2.576   1.238   3.210
 5187TIP3    H115525   2.647   1.190   3.252
 5187TIP3    H215526   2.595   1.330   3.226
 5188TIP3   OH215527   4.824   3.008   0.382
 5188TIP3    H115528   4.789   3.066   0.450
 5188TIP3    H215529   4.747   2.978   0.334
 5189TIP3   OH215530   5.739   4.208   4.396
 5189TIP3    H115531   5.708   4.122   4.364
 5189TIP3    H215532   5.735   4.200   4.491
 5190TIP3   OH215533   6.091   1.384   4.952
 5190TIP3    H115534   6.027   1.390   5.023
 5190TIP3    H215535   6.059   1.313   4.897
 5191TIP3   OH215536   0.242   0.005   0.645
 5191TIP3    H115537   0.248   0.084   0.700
 5191TIP3    H215538   0.148  -0.012   0.639
 5192TIP3   OH215539   4.021   6.750   1.472
 5192TIP3    H115540   3.956   6.689   1.435
 5192TIP3    H215541   3.970   6.825   1.501
 5193TIP3   OH215542   7.144   4.306   4.899
 5193TIP3    H115543   7.077   4.332   4.962
 5193TIP3    H215544   7.125   4.357   4.820
 5194TIP3   OH215545   3.656   4.554   0.084
 5194TIP3    H115546   3.745   4.585   0.098
 5194TIP3    H215547   3.654   4.524  -0.007
 5195TIP3   OH215548   1.232   2.120   3.861
 5195TIP3    H115549   1.297   2.126   3.931
 5195TIP3    H215550   1.194   2.208   3.855
 5196TIP3   OH215551   6.215   6.697   0.711
 5196TIP3    H115552   6.268   6.756   0.657
 5196TIP3    H215553   6.201   6.621   0.655
 5197TIP3   OH215554   5.927   1.870   3.696
 5197TIP3    H115555   5.991   1.929   3.655
 5197TIP3    H215556   5.844   1.917   3.688
 5198TIP3   OH215557   0.349   0.787   4.961
 5198TIP3    H115558   0.402   0.761   4.885
 5198TIP3    H215559   0.263   0.748   4.945
 5199TIP3   OH215560   1.079   5.830   0.175
 5199TIP3    H115561   1.102   5.771   0.247
 5199TIP3    H215562   1.162   5.846   0.130
 5200TIP3   OH215563   4.495   2.893   3.554
 5200TIP3    H115564   4.480   2.816   3.609
 5200TIP3    H215565   4.439   2.878   3.478
 5201TIP3   OH215566   6.573   2.198   0.273
 5201TIP3    H115567   6.479   2.215   0.278
 5201TIP3    H215568   6.580   2.104   0.254
 5202TIP3   OH215569   2.448   1.460   0.330
 5202TIP3    H115570   2.534   1.427   0.302
 5202TIP3    H215571   2.447   1.443   0.425
 5203TIP3   OH215572   1.426   2.869   3.430
 5203TIP3    H115573   1.444   2.788   3.383
 5203TIP3    H215574   1.339   2.896   3.400
 5204TIP3   OH215575   6.530   2.236   3.653
 5204TIP3    H115576   6.547   2.159   3.706
 5204TIP3    H215577   6.453   2.276   3.693
 5205TIP3   OH215578   5.364   5.078   3.607
 5205TIP3    H115579   5.403   5.016   3.669
 5205TIP3    H215580   5.426   5.080   3.534
 5206TIP3   OH215581   5.088   0.430   1.480
 5206TIP3    H115582   5.115   0.338   1.478
 5206TIP3    H215583   5.040   0.438   1.563
 5207TIP3   OH215584   4.105   4.840   4.866
 5207TIP3    H115585   4.063   4.794   4.939
 5207TIP3    H215586   4.143   4.919   4.907
 5208TIP3   OH215587   4.400   2.772   5.089
 5208TIP3    H115588   4.378   2.699   5.147
 5208TIP3    H215589   4.379   2.850   5.139
 5209TIP3   OH215590   5.485   1.526   2.089
 5209TIP3    H115591   5.421   1.566   2.030
 5209TIP3    H215592   5.471   1.570   2.173
 5210TIP3   OH215593   3.213   4.536   4.809
 5210TIP3    H115594   3.207   4.453   4.856
 5210TIP3    H215595   3.194   4.514   4.718
 5211TIP3   OH215596   3.024   0.323   0.385
 5211TIP3    H115597   3.110   0.331   0.343
 5211TIP3    H215598   3.045   0.303   0.477
 5212TIP3   OH215599   1.848   5.436   4.391
 5212TIP3    H115600   1.821   5.374   4.324
 5212TIP3    H215601   1.888   5.508   4.343
 5213TIP3   OH215602   5.803   6.287   1.996
 5213TIP3    H115603   5.770   6.377   2.000
 5213TIP3    H215604   5.741   6.242   1.938
 5214TIP3   OH215605   1.602   0.382   3.908
 5214TIP3    H115606   1.547   0.451   3.872
 5214TIP3    H215607   1.621   0.410   3.997
 5215TIP3   OH215608   4.936   0.297   3.420
 5215TIP3    H115609   4.847   0.332   3.423
 5215TIP3    H215610   4.944   0.247   3.501
 5216TIP3   OH215611   6.156   6.477   3.004
 5216TIP3    H115612   6.120   6.476   3.093
 5216TIP3    H215613   6.204   6.560   2.999
 5217TIP3   OH215614   0.282   2.730   4.200
 5217TIP3    H115615   0.259   2.773   4.283
 5217TIP3    H215616   0.239   2.784   4.133
 5218TIP3   OH215617   2.440   1.741   2.476
 5218TIP3    H115618   2.438   1.784   2.561
 5218TIP3    H215619   2.416   1.809   2.414
 5219TIP3   OH215620   2.600   3.889   0.699
 5219TIP3    H115621   2.659   3.828   0.743
 5219TIP3    H215622   2.533   3.834   0.658
 5220TIP3   OH215623   1.483   5.127   5.580
 5220TIP3    H115624   1.566   5.111   5.535
 5220TIP3    H215625   1.492   5.215   5.615
 5221TIP3   OH215626   3.234   2.143   1.942
 5221TIP3    H115627   3.228   2.143   1.847
 5221TIP3    H215628   3.328   2.138   1.960
 5222TIP3   OH215629   2.202   6.810   4.900
 5222TIP3    H115630   2.269   6.743   4.908
 5222TIP3    H215631   2.210   6.862   4.980
 5223TIP3   OH215632   1.604   0.767   3.013
 5223TIP3    H115633   1.684   0.816   2.993
 5223TIP3    H215634   1.602   0.763   3.108
 5224TIP3   OH215635   5.564   2.843   5.476
 5224TIP3    H115636   5.599   2.787   5.545
 5224TIP3    H215637   5.532   2.782   5.409
 5225TIP3   OH215638   6.645   0.489   5.594
 5225TIP3    H115639   6.678   0.414   5.644
 5225TIP3    H215640   6.560   0.460   5.561
 5226TIP3   OH215641   4.672   6.705   0.045
 5226TIP3    H115642   4.742   6.717   0.110
 5226TIP3    H215643   4.656   6.611   0.045
 5227TIP3   OH215644   2.360   2.684   1.848
 5227TIP3    H115645   2.311   2.716   1.924
 5227TIP3    H215646   2.386   2.595   1.871
 5228TIP3   OH215647   1.658   5.217   5.343
 5228TIP3    H115648   1.576   5.201   5.295
 5228TIP3    H215649   1.675   5.310   5.331
 5229TIP3   OH215650   0.222   6.120   1.497
 5229TIP3    H115651   0.243   6.054   1.564
 5229TIP3    H215652   0.137   6.154   1.524
 5230TIP3   OH215653   4.534   3.146   4.716
 5230TIP3    H115654   4.519   3.076   4.653
 5230TIP3    H215655   4.534   3.102   4.801
 5231TIP3   OH215656   3.348   2.496   3.477
 5231TIP3    H115657   3.292   2.517   3.402
 5231TIP3    H215658   3.352   2.401   3.479
 5232TIP3   OH215659   2.006   1.581   0.184
 5232TIP3    H115660   1.962   1.575   0.099
 5232TIP3    H215661   2.099   1.591   0.162
 5233TIP3   OH215662   2.032   2.718   1.305
 5233TIP3    H115663   2.105   2.760   1.350
 5233TIP3    H215664   2.065   2.697   1.218
 5234TIP3   OH215665   3.382   4.426   1.701
 5234TIP3    H115666   3.427   4.423   1.617
 5234TIP3    H215667   3.353   4.335   1.716
 5235TIP3   OH215668   6.306   3.037   5.868
 5235TIP3    H115669   6.285   3.130   5.879
 5235TIP3    H215670   6.402   3.036   5.862
 5236TIP3   OH215671   4.160   5.695   1.471
 5236TIP3    H115672   4.130   5.779   1.438
 5236TIP3    H215673   4.194   5.714   1.558
 5237TIP3   OH215674   4.454   1.654   5.395
 5237TIP3    H115675   4.516   1.582   5.388
 5237TIP3    H215676   4.369   1.614   5.379
 5238TIP3   OH215677   6.208   4.972   2.091
 5238TIP3    H115678   6.193   4.977   2.185
 5238TIP3    H215679   6.270   4.899   2.081
 5239TIP3   OH215680   2.215   2.269   0.846
 5239TIP3    H115681   2.256   2.269   0.932
 5239TIP3    H215682   2.256   2.196   0.800
 5240TIP3   OH215683   6.391   4.364   2.914
 5240TIP3    H115684   6.471   4.323   2.946
 5240TIP3    H215685   6.368   4.427   2.981
 5241TIP3   OH215686   4.215   6.321   1.895
 5241TIP3    H115687   4.151   6.346   1.828
 5241TIP3    H215688   4.170   6.256   1.949
 5242TIP3   OH215689   6.373   3.337   1.849
 5242TIP3    H115690   6.327   3.421   1.838
 5242TIP3    H215691   6.352   3.311   1.939
 5243TIP3   OH215692   6.192   2.900   1.150
 5243TIP3    H115693   6.179   2.839   1.077
 5243TIP3    H215694   6.161   2.984   1.117
 5244TIP3   OH215695   2.952   0.440   1.604
 5244TIP3    H115696   2.988   0.527   1.592
 5244TIP3    H215697   3.006   0.400   1.673
 5245TIP3   OH215698   6.979   0.231   1.869
 5245TIP3    H115699   7.023   0.308   1.833
 5245TIP3    H215700   6.931   0.194   1.795
 5246TIP3   OH215701   3.724   6.290   5.438
 5246TIP3    H115702   3.702   6.358   5.374
 5246TIP3    H215703   3.777   6.336   5.504
 5247TIP3   OH215704   1.725   4.840   5.231
 5247TIP3    H115705   1.763   4.923   5.200
 5247TIP3    H215706   1.767   4.826   5.316
 5248TIP3   OH215707   3.967   5.875   0.798
 5248TIP3    H115708   3.923   5.811   0.854
 5248TIP3    H215709   4.041   5.906   0.851
 5249TIP3   OH215710   3.753   3.242   5.573
 5249TIP3    H115711   3.817   3.308   5.546
 5249TIP3    H215712   3.706   3.221   5.492
 5250TIP3   OH215713   5.498   0.031   5.145
 5250TIP3    H115714   5.542  -0.015   5.217
 5250TIP3    H215715   5.541   0.115   5.140
 5251TIP3   OH215716   0.570   4.047  -0.023
 5251TIP3    H115717   0.665   4.032  -0.030
 5251TIP3    H215718   0.560   4.094   0.061
 5252TIP3   OH215719   6.090   1.621   5.565
 5252TIP3    H115720   6.009   1.664   5.591
 5252TIP3    H215721   6.120   1.669   5.487
 5253TIP3   OH215722   1.800   5.267   2.850
 5253TIP3    H115723   1.704   5.273   2.849
 5253TIP3    H215724   1.817   5.181   2.890
 5254TIP3   OH215725   2.436   6.318   4.141
 5254TIP3    H115726   2.353   6.281   4.171
 5254TIP3    H215727   2.436   6.408   4.174
 5255TIP3   OH215728   0.369   4.433   2.522
 5255TIP3    H115729   0.416   4.516   2.510
 5255TIP3    H215730   0.343   4.433   2.614
 5256TIP3   OH215731   0.934   5.986   3.453
 5256TIP3    H115732   0.988   5.935   3.513
 5256TIP3    H215733   0.997   6.026   3.393
 5257TIP3   OH215734   4.868   5.349   4.142
 5257TIP3    H115735   4.794   5.312   4.190
 5257TIP3    H215736   4.911   5.407   4.206
 5258TIP3   OH215737   1.663   2.135   4.754
 5258TIP3    H115738   1.647   2.228   4.739
 5258TIP3    H215739   1.756   2.123   4.735
 5259TIP3   OH215740   3.844   6.535   1.141
 5259TIP3    H115741   3.920   6.557   1.087
 5259TIP3    H215742   3.867   6.451   1.181
 5260TIP3   OH215743   5.157   6.386   2.558
 5260TIP3    H115744   5.067   6.403   2.530
 5260TIP3    H215745   5.191   6.471   2.585
 5261TIP3   OH215746   4.982   1.076   4.063
 5261TIP3    H115747   4.930   1.139   4.112
 5261TIP3    H215748   4.977   1.106   3.972
 5262TIP3   OH215749   4.289   2.379   0.320
 5262TIP3    H115750   4.378   2.353   0.297
 5262TIP3    H215751   4.250   2.408   0.237
 5263TIP3   OH215752   0.510   1.369   0.805
 5263TIP3    H115753   0.517   1.304   0.735
 5263TIP3    H215754   0.496   1.452   0.760
 5264TIP3   OH215755   0.029   3.396   5.182
 5264TIP3    H115756   0.009   3.349   5.101
 5264TIP3    H215757   0.031   3.488   5.156
 5265TIP3   OH215758   5.168   4.402   1.790
 5265TIP3    H115759   5.089   4.437   1.751
 5265TIP3    H215760   5.137   4.336   1.852
 5266TIP3   OH215761   1.202   4.479   4.778
 5266TIP3    H115762   1.204   4.546   4.710
 5266TIP3    H215763   1.186   4.528   4.859
 5267TIP3   OH215764   0.367   2.287   5.551
 5267TIP3    H115765   0.446   2.340   5.554
 5267TIP3    H215766   0.342   2.276   5.643
 5268TIP3   OH215767   0.151   6.751   3.591
 5268TIP3    H115768   0.124   6.671   3.636
 5268TIP3    H215769   0.083   6.767   3.526
 5269TIP3   OH215770   6.403   2.697   4.233
 5269TIP3    H115771   6.342   2.766   4.258
 5269TIP3    H215772   6.489   2.731   4.259
 5270TIP3   OH215773   1.703   6.505   0.210
 5270TIP3    H115774   1.642   6.564   0.254
 5270TIP3    H215775   1.760   6.562   0.158
 5271TIP3   OH215776   5.522   0.508   1.034
 5271TIP3    H115777   5.557   0.544   1.116
 5271TIP3    H215778   5.586   0.533   0.967
 5272TIP3   OH215779   3.124   4.469   3.593
 5272TIP3    H115780   3.171   4.547   3.623
 5272TIP3    H215781   3.092   4.428   3.673
 5273TIP3   OH215782   7.110   0.454   1.807
 5273TIP3    H115783   7.067   0.495   1.732
 5273TIP3    H215784   7.197   0.496   1.810
 5274TIP3   OH215785   1.582   2.126   3.803
 5274TIP3    H115786   1.654   2.153   3.859
 5274TIP3    H215787   1.593   2.178   3.723
 5275TIP3   OH215788   2.633   3.921   1.820
 5275TIP3    H115789   2.696   3.849   1.823
 5275TIP3    H215790   2.549   3.879   1.800
 5276TIP3   OH215791   4.256   4.313   2.641
 5276TIP3    H115792   4.286   4.261   2.716
 5276TIP3    H215793   4.333   4.321   2.585
 5277TIP3   OH215794   6.843   3.330   0.958
 5277TIP3    H115795   6.797   3.386   0.895
 5277TIP3    H215796   6.779   3.261   0.979
 5278TIP3   OH215797   2.812   4.646   2.776
 5278TIP3    H115798   2.893   4.683   2.738
 5278TIP3    H215799   2.777   4.717   2.830
 5279TIP3   OH215800   5.230   6.543   5.180
 5279TIP3    H115801   5.212   6.625   5.135
 5279TIP3    H215802   5.215   6.562   5.272
 5280TIP3   OH215803   1.042   3.141   1.723
 5280TIP3    H115804   0.982   3.069   1.743
 5280TIP3    H215805   1.020   3.209   1.787
 5281TIP3   OH215806   6.145   3.149   1.050
 5281TIP3    H115807   6.070   3.124   0.996
 5281TIP3    H215808   6.119   3.231   1.091
 5282TIP3   OH215809   2.623   4.587   4.677
 5282TIP3    H115810   2.706   4.627   4.706
 5282TIP3    H215811   2.557   4.653   4.697
 5283TIP3   OH215812   2.104   6.268   1.972
 5283TIP3    H115813   2.148   6.199   2.022
 5283TIP3    H215814   2.048   6.312   2.036
 5284TIP3   OH215815   5.932   6.529   0.811
 5284TIP3    H115816   5.966   6.560   0.727
 5284TIP3    H215817   5.975   6.585   0.876
 5285TIP3   OH215818   1.189   2.226   4.780
 5285TIP3    H115819   1.243   2.146   4.781
 5285TIP3    H215820   1.136   2.218   4.701
 5286TIP3   OH215821   2.794   4.780   3.240
 5286TIP3    H115822   2.745   4.765   3.320
 5286TIP3    H215823   2.875   4.731   3.252
 5287TIP3   OH215824   3.722   2.230   4.595
 5287TIP3    H115825   3.744   2.309   4.644
 5287TIP3    H215826   3.752   2.159   4.652
 5288TIP3   OH215827   1.968   2.756   1.953
 5288TIP3    H115828   1.915   2.753   2.032
 5288TIP3    H215829   1.983   2.849   1.937
 5289TIP3   OH215830   1.344   5.841   2.710
 5289TIP3    H115831   1.347   5.781   2.635
 5289TIP3    H215832   1.257   5.827   2.748
 5290TIP3   OH215833   3.722   5.308   4.803
 5290TIP3    H115834   3.721   5.325   4.709
 5290TIP3    H215835   3.642   5.348   4.836
 5291TIP3   OH215836   6.692   6.664   2.347
 5291TIP3    H115837   6.626   6.728   2.324
 5291TIP3    H215838   6.770   6.692   2.299
 5292TIP3   OH215839   5.694   6.546   0.404
 5292TIP3    H115840   5.700   6.627   0.354
 5292TIP3    H215841   5.623   6.562   0.466
 5293TIP3   OH215842   0.075   5.535   4.446
 5293TIP3    H115843   0.004   5.472   4.434
 5293TIP3    H215844   0.040   5.599   4.508
 5294TIP3   OH215845   4.481   1.979   0.137
 5294TIP3    H115846   4.527   1.897   0.118
 5294TIP3    H215847   4.393   1.951   0.160
 5295TIP3   OH215848   5.782   3.393   2.355
 5295TIP3    H115849   5.802   3.440   2.274
 5295TIP3    H215850   5.707   3.338   2.333
 5296TIP3   OH215851   3.052   5.203   4.340
 5296TIP3    H115852   3.122   5.178   4.279
 5296TIP3    H215853   3.098   5.234   4.418
 5297TIP3   OH215854   0.991   3.418   0.122
 5297TIP3    H115855   1.009   3.345   0.181
 5297TIP3    H215856   0.921   3.467   0.165
 5298TIP3   OH215857   3.093   2.722   4.075
 5298TIP3    H115858   3.044   2.746   3.996
 5298TIP3    H215859   3.084   2.626   4.080
 5299TIP3   OH215860   2.203   1.324   0.675
 5299TIP3    H115861   2.175   1.239   0.639
 5299TIP3    H215862   2.125   1.357   0.721
 5300TIP3   OH215863   5.157   5.941   3.294
 5300TIP3    H115864   5.193   5.880   3.230
 5300TIP3    H215865   5.148   5.889   3.374
 5301TIP3   OH215866   2.143   6.573   2.343
 5301TIP3    H115867   2.151   6.482   2.314
 5301TIP3    H215868   2.108   6.567   2.432
 5302TIP3   OH215869   4.923   2.868   5.113
 5302TIP3    H115870   4.981   2.930   5.157
 5302TIP3    H215871   4.931   2.787   5.163
 5303TIP3   OH215872   3.270   1.470   4.636
 5303TIP3    H115873   3.268   1.405   4.566
 5303TIP3    H215874   3.238   1.550   4.596
 5304TIP3   OH215875   4.896   2.698   2.509
 5304TIP3    H115876   4.810   2.731   2.486
 5304TIP3    H215877   4.906   2.619   2.456
 5305TIP3   OH215878   2.650   1.532   4.286
 5305TIP3    H115879   2.650   1.444   4.323
 5305TIP3    H215880   2.639   1.518   4.191
 5306TIP3   OH215881   3.799   1.404   5.116
 5306TIP3    H115882   3.814   1.428   5.208
 5306TIP3    H215883   3.717   1.355   5.118
 5307TIP3   OH215884   4.245   6.073   0.813
 5307TIP3    H115885   4.243   6.135   0.739
 5307TIP3    H215886   4.328   6.027   0.804
 5308TIP3   OH215887   4.876   3.876   1.657
 5308TIP3    H115888   4.965   3.863   1.689
 5308TIP3    H215889   4.882   3.866   1.562
 5309TIP3   OH215890   5.198   2.599   5.712
 5309TIP3    H115891   5.231   2.550   5.787
 5309TIP3    H215892   5.268   2.594   5.647
 5310TIP3   OH215893   2.955   6.731   2.264
 5310TIP3    H115894   2.894   6.758   2.333
 5310TIP3    H215895   3.035   6.780   2.281
 5311TIP3   OH215896   3.508   6.354   0.295
 5311TIP3    H115897   3.481   6.262   0.292
 5311TIP3    H215898   3.428   6.403   0.276
 5312TIP3   OH215899   0.249   3.078   2.792
 5312TIP3    H115900   0.193   3.035   2.856
 5312TIP3    H215901   0.301   3.140   2.843
 5313TIP3   OH215902   7.047   5.620   1.794
 5313TIP3    H115903   6.955   5.622   1.770
 5313TIP3    H215904   7.048   5.583   1.883
 5314TIP3   OH215905   1.189   2.322   1.892
 5314TIP3    H115906   1.165   2.415   1.894
 5314TIP3    H215907   1.259   2.314   1.958
 5315TIP3   OH215908   1.946   4.877   4.528
 5315TIP3    H115909   2.008   4.839   4.465
 5315TIP3    H215910   1.990   4.956   4.560
 5316TIP3   OH215911   5.403   6.565   0.263
 5316TIP3    H115912   5.378   6.648   0.304
 5316TIP3    H215913   5.478   6.587   0.208
 5317TIP3   OH215914   0.707   0.268   4.331
 5317TIP3    H115915   0.616   0.238   4.327
 5317TIP3    H215916   0.701   0.363   4.340
 5318TIP3   OH215917   3.908   5.554   5.268
 5318TIP3    H115918   3.901   5.598   5.353
 5318TIP3    H215919   3.902   5.625   5.204
 5319TIP3   OH215920   2.596   1.385   3.734
 5319TIP3    H115921   2.653   1.461   3.722
 5319TIP3    H215922   2.626   1.322   3.668
 5320TIP3   OH215923   1.619   5.938   3.503
 5320TIP3    H115924   1.614   5.842   3.500
 5320TIP3    H215925   1.529   5.965   3.521
 5321TIP3   OH215926   2.763   4.670   1.692
 5321TIP3    H115927   2.833   4.604   1.691
 5321TIP3    H215928   2.779   4.723   1.615
 5322TIP3   OH215929   7.108   0.476   4.275
 5322TIP3    H115930   7.092   0.436   4.361
 5322TIP3    H215931   7.130   0.567   4.295
 5323TIP3   OH215932   0.505   3.926   1.418
 5323TIP3    H115933   0.582   3.978   1.440
 5323TIP3    H215934   0.540   3.851   1.369
 5324TIP3   OH215935   2.315   5.595   5.862
 5324TIP3    H115936   2.407   5.621   5.869
 5324TIP3    H215937   2.272   5.672   5.824
 5325TIP3   OH215938   5.083   4.131   3.251
 5325TIP3    H115939   5.064   4.038   3.255
 5325TIP3    H215940   4.997   4.174   3.261
 5326TIP3   OH215941   3.155   6.425   3.137
 5326TIP3    H115942   3.061   6.423   3.152
 5326TIP3    H215943   3.165   6.462   3.049
 5327TIP3   OH215944   3.896   5.001   4.051
 5327TIP3    H115945   3.925   5.058   3.979
 5327TIP3    H215946   3.881   5.061   4.124
 5328TIP3   OH215947   1.555   2.677   0.322
 5328TIP3    H115948   1.478   2.637   0.282
 5328TIP3    H215949   1.572   2.625   0.400
 5329TIP3   OH215950   5.035   0.381   1.742
 5329TIP3    H115951   4.941   0.390   1.725
 5329TIP3    H215952   5.045   0.292   1.775
 5330TIP3   OH215953   3.211   0.415   3.028
 5330TIP3    H115954   3.137   0.468   2.998
 5330TIP3    H215955   3.268   0.408   2.951
 5331TIP3   OH215956   3.137   1.883   1.938
 5331TIP3    H115957   3.054   1.863   1.981
 5331TIP3    H215958   3.140   1.979   1.935
 5332TIP3   OH215959   4.038   0.582   2.866
 5332TIP3    H115960   4.123   0.606   2.829
 5332TIP3    H215961   4.026   0.491   2.840
 5333TIP3   OH215962   4.143   5.129   4.128
 5333TIP3    H115963   4.150   5.180   4.047
 5333TIP3    H215964   4.084   5.181   4.183
 5334TIP3   OH215965   4.725   5.527   4.751
 5334TIP3    H115966   4.690   5.466   4.686
 5334TIP3    H215967   4.673   5.607   4.739
 5335TIP3   OH215968   4.837   1.392   3.428
 5335TIP3    H115969   4.793   1.343   3.498
 5335TIP3    H215970   4.925   1.354   3.425
 5336TIP3   OH215971   3.652   2.491   1.594
 5336TIP3    H115972   3.696   2.489   1.509
 5336TIP3    H215973   3.642   2.584   1.613
 5337TIP3   OH215974   5.236   4.325   3.136
 5337TIP3    H115975   5.193   4.379   3.069
 5337TIP3    H215976   5.164   4.284   3.183
 5338TIP3   OH215977   3.703   0.636   3.365
 5338TIP3    H115978   3.685   0.559   3.420
 5338TIP3    H215979   3.674   0.609   3.277
 5339TIP3   OH215980   3.561   6.760   4.115
 5339TIP3    H115981   3.591   6.765   4.206
 5339TIP3    H215982   3.475   6.803   4.116
 5340TIP3   OH215983   1.244   1.573   0.238
 5340TIP3    H115984   1.298   1.513   0.289
 5340TIP3    H215985   1.269   1.660   0.269
 5341TIP3   OH215986   0.090   4.877   4.348
 5341TIP3    H115987   0.129   4.795   4.378
 5341TIP3    H215988   0.148   4.907   4.279
 5342TIP3   OH215989   4.723   4.085   0.031
 5342TIP3    H115990   4.778   4.007   0.043
 5342TIP3    H215991   4.678   4.096   0.114
 5343TIP3   OH215992   6.299   3.561   2.120
 5343TIP3    H115993   6.224   3.577   2.062
 5343TIP3    H215994   6.366   3.622   2.090
 5344TIP3   OH215995   4.127   2.640   4.996
 5344TIP3    H115996   4.195   2.646   5.063
 5344TIP3    H215997   4.055   2.595   5.041
 5345TIP3   OH215998   1.117   3.162   3.091
 5345TIP3    H115999   1.022   3.163   3.081
 5345TIP3    H216000   1.148   3.106   3.019
 5346TIP3   OH216001   1.445   5.120   3.318
 5346TIP3    H116002   1.526   5.128   3.269
 5346TIP3    H216003   1.470   5.140   3.409
 5347TIP3   OH216004   4.704   2.235   0.420
 5347TIP3    H116005   4.778   2.247   0.479
 5347TIP3    H216006   4.713   2.307   0.356
 5348TIP3   OH216007   5.483   0.467   5.606
 5348TIP3    H116008   5.561   0.482   5.553
 5348TIP3    H216009   5.430   0.546   5.593
 5349TIP3   OH216010   0.438   0.448   1.929
 5349TIP3    H116011   0.406   0.371   1.880
 5349TIP3    H216012   0.360   0.481   1.974
 5350TIP3   OH216013   0.505   6.583   2.742
 5350TIP3    H116014   0.429   6.531   2.716
 5350TIP3    H216015   0.499   6.663   2.691
 5351TIP3   OH216016   0.251   0.481   4.208
 5351TIP3    H116017   0.157   0.470   4.223
 5351TIP3    H216018   0.267   0.436   4.125
 5352TIP3   OH216019   2.272   3.185   3.199
 5352TIP3    H116020   2.346   3.142   3.155
 5352TIP3    H216021   2.223   3.228   3.129
 5353TIP3   OH216022   4.219   1.337   3.244
 5353TIP3    H116023   4.237   1.429   3.226
 5353TIP3    H216024   4.303   1.294   3.233
 5354TIP3   OH216025   1.078   0.979   3.101
 5354TIP3    H116026   1.105   1.001   3.012
 5354TIP3    H216027   1.149   0.924   3.134
 5355TIP3   OH216028   1.374   3.774   3.002
 5355TIP3    H116029   1.389   3.862   2.967
 5355TIP3    H216030   1.332   3.726   2.931
 5356TIP3   OH216031   5.151   0.061   2.082
 5356TIP3    H116032   5.243   0.042   2.102
 5356TIP3    H216033   5.103  -0.013   2.118
 5357TIP3   OH216034   4.961   3.454   5.473
 5357TIP3    H116035   4.960   3.540   5.431
 5357TIP3    H216036   4.970   3.392   5.400
 5358TIP3   OH216037   1.984   5.286   1.767
 5358TIP3    H116038   1.985   5.212   1.828
 5358TIP3    H216039   2.059   5.272   1.710
 5359TIP3   OH216040   2.318   3.129   4.692
 5359TIP3    H116041   2.404   3.088   4.692
 5359TIP3    H216042   2.266   3.077   4.754
 5360TIP3   OH216043   4.769   0.140   2.576
 5360TIP3    H116044   4.769   0.056   2.530
 5360TIP3    H216045   4.846   0.136   2.633
 5361TIP3   OH216046   6.103   0.740   5.505
 5361TIP3    H116047   6.106   0.736   5.409
 5361TIP3    H216048   6.187   0.705   5.533
 5362TIP3   OH216049   0.178   0.775   5.437
 5362TIP3    H116050   0.172   0.743   5.527
 5362TIP3    H216051   0.234   0.852   5.442
 5363TIP3   OH216052   7.098   5.626   2.318
 5363TIP3    H116053   7.103   5.719   2.340
 5363TIP3    H216054   7.057   5.585   2.394
 5364TIP3   OH216055   6.617   4.508   0.539
 5364TIP3    H116056   6.576   4.428   0.506
 5364TIP3    H216057   6.544   4.566   0.560
 5365TIP3   OH216058   5.188   1.828   0.055
 5365TIP3    H116059   5.130   1.797   0.124
 5365TIP3    H216060   5.140   1.900   0.015
 5366TIP3   OH216061   5.340   2.304   4.235
 5366TIP3    H116062   5.396   2.381   4.223
 5366TIP3    H216063   5.354   2.252   4.155
 5367TIP3   OH216064   5.591   1.300   4.983
 5367TIP3    H116065   5.534   1.223   4.989
 5367TIP3    H216066   5.625   1.298   4.894
 5368TIP3   OH216067   4.335   0.769   5.666
 5368TIP3    H116068   4.338   0.741   5.757
 5368TIP3    H216069   4.426   0.765   5.637
 5369TIP3   OH216070   4.537   4.486   5.147
 5369TIP3    H116071   4.593   4.482   5.069
 5369TIP3    H216072   4.473   4.554   5.126
 5370TIP3   OH216073   1.527   1.646   0.550
 5370TIP3    H116074   1.504   1.608   0.634
 5370TIP3    H216075   1.603   1.701   0.568
 5371TIP3   OH216076   0.629   4.919   5.549
 5371TIP3    H116077   0.653   4.833   5.583
 5371TIP3    H216078   0.535   4.914   5.534
 5372TIP3   OH216079   2.447   6.370   3.838
 5372TIP3    H116080   2.465   6.365   3.932
 5372TIP3    H216081   2.532   6.353   3.797
 5373TIP3   OH216082   0.195   2.221   3.362
 5373TIP3    H116083   0.251   2.295   3.341
 5373TIP3    H216084   0.169   2.185   3.277
 5374TIP3   OH216085   5.718   3.988   5.766
 5374TIP3    H116086   5.797   4.040   5.776
 5374TIP3    H216087   5.749   3.898   5.757
 5375TIP3   OH216088   0.872   5.234   1.515
 5375TIP3    H116089   0.905   5.268   1.598
 5375TIP3    H216090   0.828   5.152   1.537
 5376TIP3   OH216091   0.654   2.436   2.621
 5376TIP3    H116092   0.720   2.417   2.687
 5376TIP3    H216093   0.655   2.360   2.563
 5377TIP3   OH216094   6.095   3.332   5.120
 5377TIP3    H116095   6.087   3.291   5.206
 5377TIP3    H216096   6.187   3.360   5.116
 5378TIP3   OH216097   1.425   5.357   3.619
 5378TIP3    H116098   1.346   5.304   3.632
 5378TIP3    H216099   1.426   5.417   3.693
 5379TIP3   OH216100   7.070   3.452   3.293
 5379TIP3    H116101   7.100   3.496   3.213
 5379TIP3    H216102   7.024   3.374   3.262
 5380TIP3   OH216103   6.700   5.272   2.112
 5380TIP3    H116104   6.722   5.182   2.135
 5380TIP3    H216105   6.692   5.272   2.016
 5381TIP3   OH216106   4.684   1.025   4.967
 5381TIP3    H116107   4.767   0.989   4.936
 5381TIP3    H216108   4.618   0.966   4.932
 5382TIP3   OH216109   2.900   4.977   3.461
 5382TIP3    H116110   2.863   4.932   3.537
 5382TIP3    H216111   2.951   4.910   3.416
 5383TIP3   OH216112   0.775   5.183   4.112
 5383TIP3    H116113   0.703   5.133   4.152
 5383TIP3    H216114   0.733   5.234   4.043
 5384TIP3   OH216115   3.076   5.346   2.649
 5384TIP3    H116116   3.123   5.419   2.690
 5384TIP3    H216117   3.145   5.290   2.613
 5385TIP3   OH216118   5.141   3.233   1.501
 5385TIP3    H116119   5.236   3.248   1.503
 5385TIP3    H216120   5.105   3.311   1.459
 5386TIP3   OH216121   0.508   6.689   2.115
 5386TIP3    H116122   0.548   6.636   2.184
 5386TIP3    H216123   0.414   6.676   2.126
 5387TIP3   OH216124   4.075   3.429   4.747
 5387TIP3    H116125   4.073   3.335   4.730
 5387TIP3    H216126   3.982   3.453   4.756
 5388TIP3   OH216127   5.725   6.690   4.479
 5388TIP3    H116128   5.732   6.660   4.389
 5388TIP3    H216129   5.807   6.662   4.520
 5389TIP3   OH216130   6.321   2.709   1.713
 5389TIP3    H116131   6.294   2.669   1.796
 5389TIP3    H216132   6.264   2.669   1.647
 5390TIP3   OH216133   2.910   6.556   3.900
 5390TIP3    H116134   2.981   6.570   3.838
 5390TIP3    H216135   2.848   6.500   3.854
 5391TIP3   OH216136   6.252   5.105   3.422
 5391TIP3    H116137   6.205   5.022   3.424
 5391TIP3    H216138   6.318   5.096   3.491
 5392TIP3   OH216139   0.823   5.359   3.535
 5392TIP3    H116140   0.806   5.431   3.596
 5392TIP3    H216141   0.881   5.300   3.583
 5393TIP3   OH216142   2.425   2.162   1.677
 5393TIP3    H116143   2.439   2.255   1.662
 5393TIP3    H216144   2.478   2.141   1.754
 5394TIP3   OH216145   1.897   2.301   1.607
 5394TIP3    H116146   1.962   2.329   1.544
 5394TIP3    H216147   1.947   2.282   1.687
 5395TIP3   OH216148   1.012   3.755   2.339
 5395TIP3    H116149   0.928   3.710   2.331
 5395TIP3    H216150   0.997   3.841   2.300
 5396TIP3   OH216151   6.527   6.525   1.082
 5396TIP3    H116152   6.476   6.523   1.001
 5396TIP3    H216153   6.583   6.448   1.077
 5397TIP3   OH216154   5.512   2.103   1.553
 5397TIP3    H116155   5.464   2.185   1.550
 5397TIP3    H216156   5.448   2.037   1.525
 5398TIP3   OH216157   2.719   4.007   3.835
 5398TIP3    H116158   2.705   3.957   3.916
 5398TIP3    H216159   2.793   4.064   3.855
 5399TIP3   OH216160   3.680   4.434   3.443
 5399TIP3    H116161   3.680   4.410   3.350
 5399TIP3    H216162   3.679   4.351   3.489
 5400TIP3   OH216163   1.688   2.348   0.143
 5400TIP3    H116164   1.630   2.329   0.069
 5400TIP3    H216165   1.765   2.294   0.127
 5401TIP3   OH216166   0.584   5.636   4.495
 5401TIP3    H116167   0.627   5.718   4.469
 5401TIP3    H216168   0.496   5.643   4.457
 5402TIP3   OH216169   0.722   4.393   5.420
 5402TIP3    H116170   0.799   4.421   5.468
 5402TIP3    H216171   0.726   4.298   5.421
 5403TIP3   OH216172   1.709   6.537   2.162
 5403TIP3    H116173   1.759   6.463   2.129
 5403TIP3    H216174   1.772   6.608   2.169
 5404TIP3   OH216175   1.077   5.451   2.337
 5404TIP3    H116176   1.089   5.539   2.302
 5404TIP3    H216177   0.984   5.447   2.359
 5405TIP3   OH216178   2.724   0.255   2.112
 5405TIP3    H116179   2.654   0.263   2.177
 5405TIP3    H216180   2.696   0.185   2.054
 5406TIP3   OH216181   5.462   3.945   4.620
 5406TIP3    H116182   5.471   3.926   4.714
 5406TIP3    H216183   5.486   3.864   4.577
 5407TIP3   OH216184   1.963   6.580   4.570
 5407TIP3    H116185   2.054   6.596   4.596
 5407TIP3    H216186   1.942   6.653   4.512
 5408TIP3   OH216187   1.157   0.013   1.000
 5408TIP3    H116188   1.249   0.039   0.991
 5408TIP3    H216189   1.108   0.089   0.967
 5409TIP3   OH216190   5.129   3.135   2.268
 5409TIP3    H116191   5.179   3.091   2.336
 5409TIP3    H216192   5.187   3.135   2.192
 5410TIP3   OH216193   2.986   1.123   1.474
 5410TIP3    H116194   2.899   1.141   1.437
 5410TIP3    H216195   3.041   1.104   1.398
 5411TIP3   OH216196   6.592   1.945   0.191
 5411TIP3    H116197   6.653   1.887   0.236
 5411TIP3    H216198   6.508   1.900   0.197
 5412TIP3   OH216199   2.816   1.680   2.256
 5412TIP3    H116200   2.773   1.718   2.333
 5412TIP3    H216201   2.774   1.595   2.244
 5413TIP3   OH216202   4.543   2.878   1.355
 5413TIP3    H116203   4.636   2.885   1.376
 5413TIP3    H216204   4.498   2.886   1.440
 5414TIP3   OH216205   1.649   2.180   3.198
 5414TIP3    H116206   1.611   2.263   3.167
 5414TIP3    H216207   1.742   2.199   3.208
 5415TIP3   OH216208   6.980   0.669   2.103
 5415TIP3    H116209   6.977   0.574   2.098
 5415TIP3    H216210   6.890   0.696   2.123
 5416TIP3   OH216211   0.039   4.270   3.871
 5416TIP3    H116212   0.121   4.280   3.919
 5416TIP3    H216213   0.061   4.213   3.798
 5417TIP3   OH216214   1.541   4.887   5.810
 5417TIP3    H116215   1.506   4.876   5.722
 5417TIP3    H216216   1.465   4.879   5.867
 5418TIP3   OH216217   5.622   5.793   2.387
 5418TIP3    H116218   5.684   5.842   2.334
 5418TIP3    H216219   5.565   5.751   2.323
 5419TIP3   OH216220   2.396   1.243   5.432
 5419TIP3    H116221   2.308   1.220   5.463
 5419TIP3    H216222   2.413   1.182   5.360
 5420TIP3   OH216223   5.874   3.248   2.588
 5420TIP3    H116224   5.834   3.296   2.516
 5420TIP3    H216225   5.808   3.249   2.657
 5421TIP3   OH216226   3.345   6.572   1.155
 5421TIP3    H116227   3.261   6.571   1.201
 5421TIP3    H216228   3.345   6.492   1.102
 5422TIP3   OH216229   0.429   1.126   4.232
 5422TIP3    H116230   0.502   1.106   4.174
 5422TIP3    H216231   0.425   1.052   4.292
 5423TIP3   OH216232   3.804   6.381   4.246
 5423TIP3    H116233   3.736   6.361   4.181
 5423TIP3    H216234   3.878   6.412   4.195
 5424TIP3   OH216235   3.318   3.047   2.442
 5424TIP3    H116236   3.286   3.084   2.359
 5424TIP3    H216237   3.276   2.961   2.447
 5425TIP3   OH216238   0.916   2.876   3.236
 5425TIP3    H116239   0.967   2.797   3.217
 5425TIP3    H216240   0.899   2.915   3.151
 5426TIP3   OH216241   6.087   3.933   0.244
 5426TIP3    H116242   6.085   3.844   0.210
 5426TIP3    H216243   6.141   3.981   0.181
 5427TIP3   OH216244   4.284   2.565   2.229
 5427TIP3    H116245   4.291   2.585   2.136
 5427TIP3    H216246   4.338   2.631   2.272
 5428TIP3   OH216247   2.943   2.364   1.771
 5428TIP3    H116248   2.874   2.429   1.781
 5428TIP3    H216249   2.916   2.313   1.694
 5429TIP3   OH216250   3.645   6.592   4.372
 5429TIP3    H116251   3.678   6.539   4.299
 5429TIP3    H216252   3.722   6.639   4.404
 5430TIP3   OH216253   7.028   4.733   5.366
 5430TIP3    H116254   6.938   4.704   5.385
 5430TIP3    H216255   7.036   4.725   5.271
 5431TIP3   OH216256   0.228   0.047   2.028
 5431TIP3    H116257   0.148   0.098   2.017
 5431TIP3    H216258   0.284   0.076   1.955
 5432TIP3   OH216259   4.686   3.321   3.159
 5432TIP3    H116260   4.779   3.306   3.175
 5432TIP3    H216261   4.642   3.249   3.204
 5433TIP3   OH216262   6.785   5.634   1.559
 5433TIP3    H116263   6.773   5.705   1.622
 5433TIP3    H216264   6.698   5.595   1.550
 5434TIP3   OH216265   0.249   4.302   3.070
 5434TIP3    H116266   0.262   4.394   3.093
 5434TIP3    H216267   0.313   4.255   3.124
 5435TIP3   OH216268   6.369   3.015   3.021
 5435TIP3    H116269   6.370   3.098   3.069
 5435TIP3    H216270   6.281   3.011   2.983
 5436TIP3   OH216271   1.249   1.899   1.887
 5436TIP3    H116272   1.322   1.893   1.826
 5436TIP3    H216273   1.282   1.953   1.959
 5437TIP3   OH216274   2.593   5.264   1.902
 5437TIP3    H116275   2.610   5.332   1.966
 5437TIP3    H216276   2.562   5.311   1.825
 5438TIP3   OH216277   0.475   4.523   2.253
 5438TIP3    H116278   0.537   4.564   2.192
 5438TIP3    H216279   0.459   4.436   2.216
 5439TIP3   OH216280   1.044   0.073   3.570
 5439TIP3    H116281   0.981   0.070   3.642
 5439TIP3    H216282   1.125   0.037   3.608
 5440TIP3   OH216283   6.192   0.883   3.887
 5440TIP3    H116284   6.200   0.904   3.794
 5440TIP3    H216285   6.117   0.935   3.917
 5441TIP3   OH216286   6.007   6.064   2.036
 5441TIP3    H116287   6.071   6.113   2.088
 5441TIP3    H216288   5.931   6.123   2.032
 5442TIP3   OH216289   1.459   6.102   3.914
 5442TIP3    H116290   1.526   6.153   3.959
 5442TIP3    H216291   1.384   6.161   3.908
 5443TIP3   OH216292   2.220   0.879   4.830
 5443TIP3    H116293   2.164   0.849   4.758
 5443TIP3    H216294   2.303   0.902   4.788
 5444TIP3   OH216295   1.754   2.897   0.081
 5444TIP3    H116296   1.716   2.984   0.073
 5444TIP3    H216297   1.781   2.891   0.172
 5445TIP3   OH216298   2.088   6.423   3.806
 5445TIP3    H116299   2.179   6.394   3.803
 5445TIP3    H216300   2.078   6.480   3.730
 5446TIP3   OH216301   4.853   5.580   1.884
 5446TIP3    H116302   4.815   5.664   1.908
 5446TIP3    H216303   4.912   5.558   1.956
 5447TIP3   OH216304   4.404   4.213   3.437
 5447TIP3    H116305   4.378   4.186   3.525
 5447TIP3    H216306   4.466   4.285   3.452
 5448TIP3   OH216307   2.844   1.069   0.517
 5448TIP3    H116308   2.937   1.067   0.542
 5448TIP3    H216309   2.798   1.035   0.594
 5449TIP3   OH216310   5.089   4.548   5.373
 5449TIP3    H116311   5.005   4.510   5.399
 5449TIP3    H216312   5.105   4.616   5.439
 5450TIP3   OH216313   6.228   1.869   4.635
 5450TIP3    H116314   6.215   1.838   4.724
 5450TIP3    H216315   6.254   1.961   4.644
 5451TIP3   OH216316   1.625   0.118   4.152
 5451TIP3    H116317   1.684   0.184   4.187
 5451TIP3    H216318   1.625   0.048   4.216
 5452TIP3   OH216319   5.602   5.069   5.407
 5452TIP3    H116320   5.507   5.071   5.398
 5452TIP3    H216321   5.617   5.041   5.497
 5453TIP3   OH216322   0.527   5.939   1.448
 5453TIP3    H116323   0.566   6.016   1.409
 5453TIP3    H216324   0.478   5.972   1.523
 5454TIP3   OH216325   2.057   2.208   4.125
 5454TIP3    H116326   2.138   2.177   4.165
 5454TIP3    H216327   2.022   2.271   4.188
 5455TIP3   OH216328   1.758   5.107   3.611
 5455TIP3    H116329   1.852   5.100   3.622
 5455TIP3    H216330   1.743   5.196   3.579
 5456TIP3   OH216331   1.662   3.898   0.751
 5456TIP3    H116332   1.649   3.817   0.801
 5456TIP3    H216333   1.691   3.869   0.665
 5457TIP3   OH216334   2.947   4.524   0.444
 5457TIP3    H116335   2.879   4.457   0.441
 5457TIP3    H216336   3.018   4.485   0.495
 5458TIP3   OH216337   2.199   2.623   2.119
 5458TIP3    H116338   2.116   2.620   2.073
 5458TIP3    H216339   2.217   2.717   2.131
 5459TIP3   OH216340   3.856   0.427   4.820
 5459TIP3    H116341   3.773   0.474   4.823
 5459TIP3    H216342   3.839   0.352   4.762
 5460TIP3   OH216343   6.898   3.636   0.174
 5460TIP3    H116344   6.850   3.652   0.255
 5460TIP3    H216345   6.970   3.700   0.176
 5461TIP3   OH216346   6.350   1.320   1.602
 5461TIP3    H116347   6.355   1.412   1.576
 5461TIP3    H216348   6.341   1.322   1.697
 5462TIP3   OH216349   2.930   3.046   3.394
 5462TIP3    H116350   2.910   2.988   3.467
 5462TIP3    H216351   2.884   3.008   3.320
 5463TIP3   OH216352   2.139   1.868   4.554
 5463TIP3    H116353   2.050   1.833   4.547
 5463TIP3    H216354   2.191   1.796   4.589
 5464TIP3   OH216355   4.192   5.629   5.674
 5464TIP3    H116356   4.203   5.622   5.579
 5464TIP3    H216357   4.099   5.647   5.686
 5465TIP3   OH216358   0.590   1.758   3.791
 5465TIP3    H116359   0.637   1.700   3.850
 5465TIP3    H216360   0.561   1.830   3.847
 5466TIP3   OH216361   2.573   5.225   0.754
 5466TIP3    H116362   2.548   5.300   0.699
 5466TIP3    H216363   2.665   5.210   0.733
 5467TIP3   OH216364   4.389   5.499   2.796
 5467TIP3    H116365   4.399   5.406   2.818
 5467TIP3    H216366   4.361   5.540   2.878
 5468TIP3   OH216367   4.261   1.299   3.550
 5468TIP3    H116368   4.267   1.323   3.642
 5468TIP3    H216369   4.275   1.380   3.502
 5469TIP3   OH216370   5.807   2.508   0.964
 5469TIP3    H116371   5.775   2.596   0.981
 5469TIP3    H216372   5.743   2.451   1.008
 5470TIP3   OH216373   6.626   1.775   5.473
 5470TIP3    H116374   6.692   1.708   5.456
 5470TIP3    H216375   6.632   1.792   5.567
 5471TIP3   OH216376   4.015   4.636   0.392
 5471TIP3    H116377   3.922   4.614   0.399
 5471TIP3    H216378   4.046   4.586   0.317
 5472TIP3   OH216379   4.962   0.810   5.112
 5472TIP3    H116380   4.881   0.761   5.097
 5472TIP3    H216381   5.030   0.759   5.068
 5473TIP3   OH216382   0.577   0.225   0.842
 5473TIP3    H116383   0.561   0.311   0.880
 5473TIP3    H216384   0.545   0.232   0.752
 5474TIP3   OH216385   1.068   2.668   3.163
 5474TIP3    H116386   1.137   2.642   3.224
 5474TIP3    H216387   1.092   2.624   3.081
 5475TIP3   OH216388   0.903   1.047   2.190
 5475TIP3    H116389   0.954   1.032   2.269
 5475TIP3    H216390   0.961   1.098   2.133
 5476TIP3   OH216391   4.991   5.903   4.186
 5476TIP3    H116392   4.915   5.847   4.177
 5476TIP3    H216393   4.997   5.950   4.102
 5477TIP3   OH216394   5.064   3.097   5.796
 5477TIP3    H116395   5.060   3.193   5.793
 5477TIP3    H216396   5.126   3.079   5.866
 5478TIP3   OH216397   4.790   6.581   4.113
 5478TIP3    H116398   4.789   6.514   4.044
 5478TIP3    H216399   4.816   6.534   4.192
 5479TIP3   OH216400   3.373   0.472   3.245
 5479TIP3    H116401   3.310   0.449   3.177
 5479TIP3    H216402   3.389   0.565   3.233
 5480TIP3   OH216403   5.632   6.000   1.106
 5480TIP3    H116404   5.694   6.058   1.149
 5480TIP3    H216405   5.588   6.056   1.041
 5481TIP3   OH216406   5.086   1.828   1.390
 5481TIP3    H116407   5.119   1.745   1.426
 5481TIP3    H216408   5.019   1.855   1.453
 5482TIP3   OH216409   6.640   0.171   3.232
 5482TIP3    H116410   6.723   0.219   3.222
 5482TIP3    H216411   6.573   0.236   3.212
 5483TIP3   OH216412   4.757   0.187   5.799
 5483TIP3    H116413   4.674   0.145   5.823
 5483TIP3    H216414   4.735   0.280   5.790
 5484TIP3   OH216415   6.902   2.601   5.445
 5484TIP3    H116416   6.959   2.591   5.522
 5484TIP3    H216417   6.822   2.554   5.468
 5485TIP3   OH216418   4.387   3.606   1.418
 5485TIP3    H116419   4.457   3.546   1.442
 5485TIP3    H216420   4.407   3.633   1.328
 5486TIP3   OH216421   5.502   4.599   4.723
 5486TIP3    H116422   5.489   4.506   4.741
 5486TIP3    H216423   5.512   4.639   4.809
 5487TIP3   OH216424   4.287   4.589   3.903
 5487TIP3    H116425   4.266   4.672   3.947
 5487TIP3    H216426   4.364   4.556   3.951
 5488TIP3   OH216427   4.609   1.779   5.108
 5488TIP3    H116428   4.605   1.801   5.015
 5488TIP3    H216429   4.598   1.862   5.154
 5489TIP3   OH216430   3.521   6.547   5.454
 5489TIP3    H116431   3.576   6.539   5.376
 5489TIP3    H216432   3.537   6.636   5.485
 5490TIP3   OH216433   3.684   1.966   1.277
 5490TIP3    H116434   3.732   1.994   1.355
 5490TIP3    H216435   3.593   1.989   1.294
 5491TIP3   OH216436   1.897   6.035   3.967
 5491TIP3    H116437   1.848   6.049   4.048
 5491TIP3    H216438   1.865   5.951   3.934
 5492TIP3   OH216439   2.236   6.623   4.586
 5492TIP3    H116440   2.317   6.629   4.535
 5492TIP3    H216441   2.265   6.604   4.675
 5493TIP3   OH216442   3.138   1.795   2.698
 5493TIP3    H116443   3.110   1.883   2.671
 5493TIP3    H216444   3.199   1.810   2.770
 5494TIP3   OH216445   2.623   5.810   4.487
 5494TIP3    H116446   2.708   5.784   4.452
 5494TIP3    H216447   2.562   5.742   4.457
 5495TIP3   OH216448   1.531   6.699   0.025
 5495TIP3    H116449   1.591   6.766  -0.009
 5495TIP3    H216450   1.515   6.724   0.116
 5496TIP3   OH216451   5.399   0.367   3.254
 5496TIP3    H116452   5.455   0.440   3.226
 5496TIP3    H216453   5.312   0.390   3.220
 5497TIP3   OH216454   4.825   5.242   0.533
 5497TIP3    H116455   4.815   5.232   0.627
 5497TIP3    H216456   4.746   5.291   0.506
 5498TIP3   OH216457   0.495   1.249   2.115
 5498TIP3    H116458   0.510   1.323   2.056
 5498TIP3    H216459   0.420   1.203   2.078
 5499TIP3   OH216460   3.493   6.389   4.549
 5499TIP3    H116461   3.573   6.354   4.587
 5499TIP3    H216462   3.422   6.348   4.599
 5500TIP3   OH216463   1.619   5.886   5.366
 5500TIP3    H116464   1.559   5.879   5.292
 5500TIP3    H216465   1.705   5.902   5.327
 5501TIP3   OH216466   0.839   0.034   3.757
 5501TIP3    H116467   0.857  -0.058   3.738
 5501TIP3    H216468   0.745   0.044   3.741
 5502TIP3   OH216469   3.971   0.105   3.877
 5502TIP3    H116470   4.024   0.165   3.824
 5502TIP3    H216471   4.002   0.118   3.967
 5503TIP3   OH216472   4.590   4.632   4.763
 5503TIP3    H116473   4.634   4.550   4.785
 5503TIP3    H216474   4.497   4.610   4.763
 5504TIP3   OH216475   3.989   4.581   2.871
 5504TIP3    H116476   4.048   4.548   2.939
 5504TIP3    H216477   4.043   4.644   2.822
 5505TIP3   OH216478   0.276   1.195   3.665
 5505TIP3    H116479   0.218   1.144   3.720
 5505TIP3    H216480   0.325   1.250   3.726
 5506TIP3   OH216481   2.179   4.561   1.021
 5506TIP3    H116482   2.211   4.639   0.976
 5506TIP3    H216483   2.091   4.584   1.052
 5507TIP3   OH216484   6.425   6.026   4.822
 5507TIP3    H116485   6.346   6.077   4.839
 5507TIP3    H216486   6.492   6.066   4.878
 5508TIP3   OH216487   1.844   4.000   4.121
 5508TIP3    H116488   1.931   3.999   4.160
 5508TIP3    H216489   1.785   4.016   4.195
 5509TIP3   OH216490   2.274   4.353   0.880
 5509TIP3    H116491   2.217   4.289   0.923
 5509TIP3    H216492   2.247   4.438   0.917
 5510TIP3   OH216493   5.505   0.828   2.432
 5510TIP3    H116494   5.508   0.742   2.392
 5510TIP3    H216495   5.597   0.856   2.435
 5511TIP3   OH216496   6.390   3.188   5.011
 5511TIP3    H116497   6.450   3.260   4.990
 5511TIP3    H216498   6.440   3.109   4.990
 5512TIP3   OH216499   2.370   3.367   3.656
 5512TIP3    H116500   2.393   3.458   3.639
 5512TIP3    H216501   2.357   3.329   3.568
 5513TIP3   OH216502   1.680   1.360   4.012
 5513TIP3    H116503   1.762   1.351   3.964
 5513TIP3    H216504   1.615   1.317   3.956
 5514TIP3   OH216505   6.079   6.688   0.260
 5514TIP3    H116506   6.057   6.716   0.349
 5514TIP3    H216507   6.170   6.658   0.266
 5515TIP3   OH216508   4.687   2.523   3.130
 5515TIP3    H116509   4.695   2.601   3.186
 5515TIP3    H216510   4.623   2.468   3.175
 5516TIP3   OH216511   0.709   1.652   3.988
 5516TIP3    H116512   0.630   1.671   4.039
 5516TIP3    H216513   0.759   1.592   4.043
 5517TIP3   OH216514   0.357   2.490   3.902
 5517TIP3    H116515   0.333   2.583   3.897
 5517TIP3    H216516   0.452   2.490   3.905
 5518TIP3   OH216517   2.039   2.108   0.523
 5518TIP3    H116518   2.039   2.186   0.468
 5518TIP3    H216519   2.052   2.036   0.461
 5519TIP3   OH216520   2.976   2.932   5.770
 5519TIP3    H116521   3.027   2.933   5.851
 5519TIP3    H216522   3.022   2.869   5.714
 5520TIP3   OH216523   2.526   2.487   2.500
 5520TIP3    H116524   2.567   2.502   2.414
 5520TIP3    H216525   2.460   2.556   2.507
 5521TIP3   OH216526   1.882   4.380   2.486
 5521TIP3    H116527   1.866   4.474   2.489
 5521TIP3    H216528   1.920   4.364   2.400
 5522TIP3   OH216529   2.823   4.381   5.722
 5522TIP3    H116530   2.799   4.393   5.814
 5522TIP3    H216531   2.830   4.469   5.686
 5523TIP3   OH216532   4.066   2.245   0.458
 5523TIP3    H116533   4.098   2.154   0.458
 5523TIP3    H216534   4.145   2.297   0.441
 5524TIP3   OH216535   0.378   1.026   3.955
 5524TIP3    H116536   0.383   0.983   3.870
 5524TIP3    H216537   0.313   0.976   4.004
 5525TIP3   OH216538   4.751   3.778   4.480
 5525TIP3    H116539   4.708   3.852   4.438
 5525TIP3    H216540   4.683   3.737   4.533
 5526TIP3   OH216541   6.872   0.650   0.161
 5526TIP3    H116542   6.900   0.586   0.226
 5526TIP3    H216543   6.954   0.683   0.123
 5527TIP3   OH216544   4.599   5.095   0.000
 5527TIP3    H116545   4.614   5.002   0.019
 5527TIP3    H216546   4.647   5.141   0.069
 5528TIP3   OH216547   1.475   1.184   4.466
 5528TIP3    H116548   1.531   1.153   4.395
 5528TIP3    H216549   1.462   1.108   4.522
 5529TIP3   OH216550   4.575   6.686   1.509
 5529TIP3    H116551   4.525   6.707   1.430
 5529TIP3    H216552   4.587   6.591   1.505
 5530TIP3   OH216553   2.411   3.027   3.571
 5530TIP3    H116554   2.359   2.984   3.639
 5530TIP3    H216555   2.501   3.001   3.591
 5531TIP3   OH216556   3.987   4.715   4.117
 5531TIP3    H116557   3.950   4.801   4.095
 5531TIP3    H216558   3.952   4.656   4.051
 5532TIP3   OH216559   1.031   3.218   3.475
 5532TIP3    H116560   1.091   3.287   3.445
 5532TIP3    H216561   0.951   3.265   3.500
 5533TIP3   OH216562   1.209   3.108   4.030
 5533TIP3    H116563   1.253   3.034   3.989
 5533TIP3    H216564   1.118   3.081   4.037
 5534TIP3   OH216565   2.749   6.197   3.230
 5534TIP3    H116566   2.659   6.172   3.251
 5534TIP3    H216567   2.803   6.129   3.270
 5535TIP3   OH216568   4.679   2.806   4.176
 5535TIP3    H116569   4.737   2.828   4.103
 5535TIP3    H216570   4.651   2.891   4.210
 5536TIP3   OH216571   2.466   4.143   4.164
 5536TIP3    H116572   2.382   4.125   4.121
 5536TIP3    H216573   2.513   4.060   4.162
 5537TIP3   OH216574   5.086   4.140   0.756
 5537TIP3    H116575   5.058   4.077   0.690
 5537TIP3    H216576   5.039   4.114   0.835
 5538TIP3   OH216577   5.916   4.247   2.692
 5538TIP3    H116578   5.914   4.156   2.662
 5538TIP3    H216579   6.009   4.266   2.704
 5539TIP3   OH216580   4.800   6.082   1.406
 5539TIP3    H116581   4.881   6.133   1.409
 5539TIP3    H216582   4.755   6.105   1.487
 5540TIP3   OH216583   5.988   3.959   5.277
 5540TIP3    H116584   6.071   3.934   5.236
 5540TIP3    H216585   6.008   4.039   5.326
 5541TIP3   OH216586   0.393   6.748   5.811
 5541TIP3    H116587   0.389   6.820   5.874
 5541TIP3    H216588   0.302   6.731   5.788
 5542TIP3   OH216589   7.044   1.040   5.511
 5542TIP3    H116590   7.069   1.125   5.473
 5542TIP3    H216591   7.082   0.975   5.452
 5543TIP3   OH216592   3.659   0.510   5.711
 5543TIP3    H116593   3.565   0.495   5.698
 5543TIP3    H216594   3.700   0.480   5.629
 5544TIP3   OH216595   0.593   3.147   3.217
 5544TIP3    H116596   0.537   3.139   3.140
 5544TIP3    H216597   0.574   3.069   3.269
 5545TIP3   OH216598   2.790   2.575   1.609
 5545TIP3    H116599   2.868   2.626   1.634
 5545TIP3    H216600   2.820   2.520   1.536
 5546TIP3   OH216601   4.699   1.603   4.233
 5546TIP3    H116602   4.785   1.569   4.208
 5546TIP3    H216603   4.638   1.557   4.175
 5547TIP3   OH216604   2.349   4.290   3.836
 5547TIP3    H116605   2.315   4.202   3.851
 5547TIP3    H216606   2.372   4.292   3.743
 5548TIP3   OH216607   1.354   3.024   5.505
 5548TIP3    H116608   1.358   3.118   5.487
 5548TIP3    H216609   1.301   3.016   5.584
 5549TIP3   OH216610   0.508   3.540   2.404
 5549TIP3    H116611   0.554   3.486   2.340
 5549TIP3    H216612   0.485   3.479   2.474
 5550TIP3   OH216613   5.633   2.622   2.532
 5550TIP3    H116614   5.659   2.704   2.574
 5550TIP3    H216615   5.569   2.648   2.466
 5551TIP3   OH216616   3.519   5.462   4.937
 5551TIP3    H116617   3.499   5.536   4.880
 5551TIP3    H216618   3.546   5.501   5.020
 5552TIP3   OH216619   4.642   6.116   0.374
 5552TIP3    H116620   4.597   6.154   0.449
 5552TIP3    H216621   4.709   6.060   0.413
 5553TIP3   OH216622   0.590   0.648   2.563
 5553TIP3    H116623   0.625   0.653   2.474
 5553TIP3    H216624   0.650   0.701   2.615
 5554TIP3   OH216625   1.676   2.491   1.670
 5554TIP3    H116626   1.711   2.545   1.599
 5554TIP3    H216627   1.746   2.430   1.691
 5555TIP3   OH216628   5.651   6.523   5.314
 5555TIP3    H116629   5.639   6.591   5.248
 5555TIP3    H216630   5.596   6.551   5.388
 5556TIP3   OH216631   1.907   2.940   4.156
 5556TIP3    H116632   1.991   2.980   4.134
 5556TIP3    H216633   1.882   2.980   4.239
 5557TIP3   OH216634   1.974   5.209   4.028
 5557TIP3    H116635   1.905   5.238   4.089
 5557TIP3    H216636   1.929   5.151   3.967
 5558TIP3   OH216637   3.937   4.166   3.120
 5558TIP3    H116638   4.022   4.123   3.133
 5558TIP3    H216639   3.919   4.209   3.204
 5559TIP3   OH216640   0.255   5.329   1.733
 5559TIP3    H116641   0.202   5.335   1.813
 5559TIP3    H216642   0.200   5.369   1.665
 5560TIP3   OH216643   1.043   4.362   0.668
 5560TIP3    H116644   1.025   4.271   0.645
 5560TIP3    H216645   0.960   4.408   0.653
 5561TIP3   OH216646   6.582   6.247   3.835
 5561TIP3    H116647   6.612   6.165   3.797
 5561TIP3    H216648   6.496   6.226   3.872
 5562TIP3   OH216649   3.636   3.804   2.391
 5562TIP3    H116650   3.696   3.832   2.460
 5562TIP3    H216651   3.617   3.713   2.411
 5563TIP3   OH216652   3.117   2.940   0.115
 5563TIP3    H116653   3.031   2.902   0.133
 5563TIP3    H216654   3.170   2.867   0.082
 5564TIP3   OH216655   6.890   3.970   0.030
 5564TIP3    H116656   6.837   4.035   0.078
 5564TIP3    H216657   6.825   3.910  -0.007
 5565TIP3   OH216658   5.575   5.284   2.629
 5565TIP3    H116659   5.540   5.361   2.674
 5565TIP3    H216660   5.543   5.292   2.539
 5566TIP3   OH216661   6.573   5.054   1.072
 5566TIP3    H116662   6.668   5.044   1.061
 5566TIP3    H216663   6.540   5.074   0.985
 5567TIP3   OH216664   5.517   0.124   2.445
 5567TIP3    H116665   5.568   0.178   2.384
 5567TIP3    H216666   5.451   0.183   2.480
 5568TIP3   OH216667   7.099   4.601   1.066
 5568TIP3    H116668   7.132   4.665   1.003
 5568TIP3    H216669   7.015   4.636   1.093
 5569TIP3   OH216670   1.547   6.082   0.369
 5569TIP3    H116671   1.604   6.136   0.315
 5569TIP3    H216672   1.464   6.078   0.321
 5570TIP3   OH216673   2.225   3.664   5.212
 5570TIP3    H116674   2.284   3.721   5.163
 5570TIP3    H216675   2.165   3.725   5.256
 5571TIP3   OH216676   2.508   1.447   2.500
 5571TIP3    H116677   2.519   1.541   2.515
 5571TIP3    H216678   2.474   1.413   2.583
 5572TIP3   OH216679   2.712   2.208   5.372
 5572TIP3    H116680   2.767   2.225   5.296
 5572TIP3    H216681   2.679   2.295   5.397
 5573TIP3   OH216682   2.007   4.237   1.264
 5573TIP3    H116683   1.998   4.220   1.170
 5573TIP3    H216684   1.984   4.330   1.274
 5574TIP3   OH216685   5.513   4.318   4.735
 5574TIP3    H116686   5.593   4.273   4.709
 5574TIP3    H216687   5.511   4.311   4.831
 5575TIP3   OH216688   1.830   5.884   4.754
 5575TIP3    H116689   1.836   5.973   4.722
 5575TIP3    H216690   1.811   5.831   4.677
 5576TIP3   OH216691   2.601   1.052   4.911
 5576TIP3    H116692   2.600   0.956   4.904
 5576TIP3    H216693   2.510   1.077   4.893
 5577TIP3   OH216694   3.883   6.330   0.682
 5577TIP3    H116695   3.817   6.388   0.646
 5577TIP3    H216696   3.953   6.388   0.712
 5578TIP3   OH216697   5.940   5.883   0.368
 5578TIP3    H116698   5.884   5.955   0.340
 5578TIP3    H216699   6.002   5.872   0.296
 5579TIP3   OH216700   2.425   1.875   3.481
 5579TIP3    H116701   2.480   1.908   3.551
 5579TIP3    H216702   2.460   1.788   3.462
 5580TIP3   OH216703   2.634   1.320   0.148
 5580TIP3    H116704   2.570   1.249   0.145
 5580TIP3    H216705   2.714   1.279   0.182
 5581TIP3   OH216706   2.489   6.585   0.689
 5581TIP3    H116707   2.505   6.654   0.754
 5581TIP3    H216708   2.575   6.545   0.676
 5582TIP3   OH216709   4.626   4.027   4.596
 5582TIP3    H116710   4.644   3.938   4.628
 5582TIP3    H216711   4.535   4.043   4.620
 5583TIP3   OH216712   2.282   4.625   5.638
 5583TIP3    H116713   2.336   4.698   5.667
 5583TIP3    H216714   2.247   4.587   5.719
 5584TIP3   OH216715   1.856   0.656   2.632
 5584TIP3    H116716   1.799   0.639   2.558
 5584TIP3    H216717   1.926   0.591   2.625
 5585TIP3   OH216718   3.134   5.136   2.203
 5585TIP3    H116719   3.213   5.088   2.179
 5585TIP3    H216720   3.165   5.218   2.242
 5586TIP3   OH216721   2.010   6.263   4.040
 5586TIP3    H116722   1.967   6.185   4.005
 5586TIP3    H216723   2.080   6.282   3.977
 5587TIP3   OH216724   3.552   2.419   2.681
 5587TIP3    H116725   3.563   2.439   2.588
 5587TIP3    H216726   3.460   2.439   2.698
 5588TIP3   OH216727   6.136   1.678   2.818
 5588TIP3    H116728   6.188   1.598   2.825
 5588TIP3    H216729   6.196   1.742   2.780
 5589TIP3   OH216730   2.163   4.270   0.201
 5589TIP3    H116731   2.100   4.342   0.207
 5589TIP3    H216732   2.247   4.313   0.183
 5590TIP3   OH216733   4.216   1.544   5.876
 5590TIP3    H116734   4.213   1.524   5.782
 5590TIP3    H216735   4.162   1.622   5.886
 5591TIP3   OH216736   1.001   5.435   4.635
 5591TIP3    H116737   1.018   5.377   4.561
 5591TIP3    H216738   0.915   5.474   4.616
 5592TIP3   OH216739   0.713   1.428   3.574
 5592TIP3    H116740   0.618   1.443   3.566
 5592TIP3    H216741   0.746   1.436   3.485
 5593TIP3   OH216742   5.714   2.250   5.663
 5593TIP3    H116743   5.621   2.270   5.672
 5593TIP3    H216744   5.719   2.155   5.678
 5594TIP3   OH216745   6.444   3.233   2.433
 5594TIP3    H116746   6.354   3.265   2.422
 5594TIP3    H216747   6.443   3.186   2.516
 5595TIP3   OH216748   4.247   3.361   5.357
 5595TIP3    H116749   4.341   3.347   5.346
 5595TIP3    H216750   4.207   3.283   5.318
 5596TIP3   OH216751   5.720   5.415   4.812
 5596TIP3    H116752   5.678   5.485   4.763
 5596TIP3    H216753   5.693   5.335   4.768
 5597TIP3   OH216754   6.775   5.141   5.350
 5597TIP3    H116755   6.794   5.233   5.334
 5597TIP3    H216756   6.834   5.116   5.421
 5598TIP3   OH216757   0.575   4.429   0.415
 5598TIP3    H116758   0.491   4.409   0.375
 5598TIP3    H216759   0.552   4.471   0.498
 5599TIP3   OH216760   6.418   0.320   4.920
 5599TIP3    H116761   6.437   0.226   4.928
 5599TIP3    H216762   6.393   0.347   5.008
 5600TIP3   OH216763   2.181   4.423   4.142
 5600TIP3    H116764   2.115   4.465   4.198
 5600TIP3    H216765   2.205   4.344   4.189
 5601TIP3   OH216766   5.019   1.142   3.793
 5601TIP3    H116767   4.990   1.232   3.777
 5601TIP3    H216768   5.080   1.123   3.722
 5602TIP3   OH216769   2.357   4.341   4.360
 5602TIP3    H116770   2.420   4.411   4.377
 5602TIP3    H216771   2.406   4.277   4.307
 5603TIP3   OH216772   2.189   4.480   4.747
 5603TIP3    H116773   2.182   4.391   4.712
 5603TIP3    H216774   2.185   4.469   4.842
 5604TIP3   OH216775   0.983   5.752   2.509
 5604TIP3    H116776   1.047   5.822   2.515
 5604TIP3    H216777   0.900   5.793   2.532
 5605TIP3   OH216778   5.721   0.866   4.633
 5605TIP3    H116779   5.769   0.942   4.599
 5605TIP3    H216780   5.630   0.881   4.607
 5606TIP3   OH216781   3.273   1.288   4.340
 5606TIP3    H116782   3.288   1.228   4.267
 5606TIP3    H216783   3.328   1.364   4.321
 5607TIP3   OH216784   2.228   0.815   1.812
 5607TIP3    H116785   2.158   0.756   1.785
 5607TIP3    H216786   2.256   0.858   1.731
 5608TIP3   OH216787   2.197   2.867   1.687
 5608TIP3    H116788   2.243   2.790   1.720
 5608TIP3    H216789   2.119   2.875   1.742
 5609TIP3   OH216790   4.568   3.068   4.276
 5609TIP3    H116791   4.505   3.138   4.298
 5609TIP3    H216792   4.651   3.114   4.263
 5610TIP3   OH216793   5.283   6.535   3.072
 5610TIP3    H116794   5.323   6.551   3.157
 5610TIP3    H216795   5.355   6.503   3.017
 5611TIP3   OH216796   0.202   2.415   5.043
 5611TIP3    H116797   0.133   2.401   5.109
 5611TIP3    H216798   0.268   2.349   5.062
 5612TIP3   OH216799   3.736   5.389   3.914
 5612TIP3    H116800   3.699   5.438   3.987
 5612TIP3    H216801   3.715   5.441   3.836
 5613TIP3   OH216802   5.933   3.978   2.664
 5613TIP3    H116803   6.015   3.968   2.713
 5613TIP3    H216804   5.945   3.925   2.586
 5614TIP3   OH216805   6.828   6.200   0.764
 5614TIP3    H116806   6.862   6.192   0.853
 5614TIP3    H216807   6.762   6.270   0.770
 5615TIP3   OH216808   3.308   5.641   1.678
 5615TIP3    H116809   3.237   5.577   1.675
 5615TIP3    H216810   3.385   5.589   1.702
 5616TIP3   OH216811   5.647   4.674   0.428
 5616TIP3    H116812   5.626   4.707   0.515
 5616TIP3    H216813   5.624   4.746   0.369
 5617TIP3   OH216814   6.215   3.225   1.635
 5617TIP3    H116815   6.208   3.133   1.661
 5617TIP3    H216816   6.254   3.268   1.710
 5618TIP3   OH216817   2.845   0.118   0.273
 5618TIP3    H116818   2.801   0.190   0.228
 5618TIP3    H216819   2.929   0.155   0.301
 5619TIP3   OH216820   2.714   3.656   4.526
 5619TIP3    H116821   2.806   3.666   4.551
 5619TIP3    H216822   2.671   3.735   4.558
 5620TIP3   OH216823   5.084   1.281   3.354
 5620TIP3    H116824   5.101   1.316   3.266
 5620TIP3    H216825   5.125   1.344   3.413
 5621TIP3   OH216826   4.551   3.303   1.069
 5621TIP3    H116827   4.474   3.358   1.062
 5621TIP3    H216828   4.550   3.271   1.159
 5622TIP3   OH216829   6.669   4.842   2.017
 5622TIP3    H116830   6.611   4.909   1.980
 5622TIP3    H216831   6.720   4.889   2.084
 5623TIP3   OH216832   6.485   2.450   0.617
 5623TIP3    H116833   6.397   2.488   0.627
 5623TIP3    H216834   6.469   2.357   0.599
 5624TIP3   OH216835   0.777   3.800   0.984
 5624TIP3    H116836   0.759   3.873   0.925
 5624TIP3    H216837   0.730   3.726   0.946
 5625TIP3   OH216838   6.981   5.847   2.428
 5625TIP3    H116839   6.898   5.840   2.475
 5625TIP3    H216840   7.038   5.896   2.487
 5626TIP3   OH216841   3.085   4.079   5.016
 5626TIP3    H116842   3.054   3.990   4.998
 5626TIP3    H216843   3.143   4.069   5.092
 5627TIP3   OH216844   2.139   3.868   5.580
 5627TIP3    H116845   2.196   3.873   5.657
 5627TIP3    H216846   2.077   3.799   5.601
 5628TIP3   OH216847   4.995   5.968   0.782
 5628TIP3    H116848   5.010   5.881   0.744
 5628TIP3    H216849   4.985   5.952   0.876
 5629TIP3   OH216850   2.452   1.722   4.894
 5629TIP3    H116851   2.458   1.763   4.808
 5629TIP3    H216852   2.475   1.792   4.956
 5630TIP3   OH216853   7.012   1.124   2.271
 5630TIP3    H116854   7.075   1.196   2.257
 5630TIP3    H216855   7.059   1.062   2.326
 5631TIP3   OH216856   3.727   2.750   3.013
 5631TIP3    H116857   3.713   2.702   2.931
 5631TIP3    H216858   3.716   2.842   2.989
 5632TIP3   OH216859   5.664   6.435   0.826
 5632TIP3    H116860   5.602   6.487   0.775
 5632TIP3    H216861   5.750   6.465   0.796
 5633TIP3   OH216862   5.231   3.367   2.630
 5633TIP3    H116863   5.137   3.368   2.652
 5633TIP3    H216864   5.274   3.343   2.712
 5634TIP3   OH216865   1.623   3.312   2.027
 5634TIP3    H116866   1.610   3.405   2.045
 5634TIP3    H216867   1.694   3.310   1.963
 5635TIP3   OH216868   2.416   1.288   2.239
 5635TIP3    H116869   2.386   1.372   2.276
 5635TIP3    H216870   2.435   1.234   2.316
 5636TIP3   OH216871   4.576   4.531   0.747
 5636TIP3    H116872   4.516   4.525   0.822
 5636TIP3    H216873   4.656   4.487   0.776
 5637TIP3   OH216874   4.472   3.221   0.583
 5637TIP3    H116875   4.390   3.183   0.615
 5637TIP3    H216876   4.471   3.311   0.617
 5638TIP3   OH216877   1.888   0.965   0.475
 5638TIP3    H116878   1.896   0.870   0.467
 5638TIP3    H216879   1.850   0.979   0.562
 5639TIP3   OH216880   6.232   3.075   5.206
 5639TIP3    H116881   6.269   3.131   5.274
 5639TIP3    H216882   6.269   3.109   5.125
 5640TIP3   OH216883   5.142   4.349   1.077
 5640TIP3    H116884   5.114   4.366   0.987
 5640TIP3    H216885   5.130   4.433   1.121
 5641TIP3   OH216886   3.976   5.874   2.924
 5641TIP3    H116887   3.966   5.963   2.892
 5641TIP3    H216888   3.972   5.820   2.845
 5642TIP3   OH216889   6.755   4.732   5.664
 5642TIP3    H116890   6.781   4.662   5.604
 5642TIP3    H216891   6.730   4.688   5.744
 5643TIP3   OH216892   0.379   6.467   4.080
 5643TIP3    H116893   0.353   6.558   4.067
 5643TIP3    H216894   0.321   6.417   4.023
 5644TIP3   OH216895   1.950   2.034   0.763
 5644TIP3    H116896   1.885   2.100   0.784
 5644TIP3    H216897   1.996   2.069   0.686
 5645TIP3   OH216898   0.177   4.984   2.108
 5645TIP3    H116899   0.146   5.038   2.180
 5645TIP3    H216900   0.128   5.015   2.032
 5646TIP3   OH216901   6.396   4.124   3.890
 5646TIP3    H116902   6.413   4.127   3.795
 5646TIP3    H216903   6.303   4.141   3.899
 5647TIP3   OH216904   1.967   2.411   2.044
 5647TIP3    H116905   1.873   2.406   2.026
 5647TIP3    H216906   1.972   2.461   2.126
 5648TIP3   OH216907   6.397   4.131   1.040
 5648TIP3    H116908   6.381   4.109   0.948
 5648TIP3    H216909   6.396   4.227   1.042
 5649TIP3   OH216910   3.731   3.128   3.377
 5649TIP3    H116911   3.777   3.188   3.437
 5649TIP3    H216912   3.640   3.157   3.381
 5650TIP3   OH216913   5.826   4.111   1.537
 5650TIP3    H116914   5.823   4.144   1.447
 5650TIP3    H216915   5.906   4.150   1.573
 5651TIP3   OH216916   3.049   0.160   2.500
 5651TIP3    H116917   3.033   0.251   2.475
 5651TIP3    H216918   3.101   0.166   2.581
 5652TIP3   OH216919   4.680   5.002   0.666
 5652TIP3    H116920   4.714   4.990   0.754
 5652TIP3    H216921   4.620   5.077   0.673
 5653TIP3   OH216922   6.185   0.607   3.364
 5653TIP3    H116923   6.178   0.538   3.430
 5653TIP3    H216924   6.235   0.676   3.408
 5654TIP3   OH216925   1.057   2.857   0.237
 5654TIP3    H116926   0.992   2.800   0.277
 5654TIP3    H216927   1.060   2.831   0.145
 5655TIP3   OH216928   1.857   6.187   2.388
 5655TIP3    H116929   1.769   6.216   2.365
 5655TIP3    H216930   1.854   6.092   2.379
 5656TIP3   OH216931   1.205   4.078   4.462
 5656TIP3    H116932   1.120   4.114   4.489
 5656TIP3    H216933   1.207   3.990   4.500
 5657TIP3   OH216934   1.741   3.945   4.900
 5657TIP3    H116935   1.758   4.033   4.933
 5657TIP3    H216936   1.667   3.955   4.840
 5658TIP3   OH216937   3.994   6.511   4.118
 5658TIP3    H116938   3.942   6.528   4.039
 5658TIP3    H216939   4.071   6.567   4.108
 5659TIP3   OH216940   4.342   5.756   1.918
 5659TIP3    H116941   4.320   5.669   1.951
 5659TIP3    H216942   4.326   5.814   1.992
 5660TIP3   OH216943   6.378   4.440   0.821
 5660TIP3    H116944   6.303   4.433   0.762
 5660TIP3    H216945   6.345   4.410   0.906
 5661TIP3   OH216946   1.628   3.248   0.215
 5661TIP3    H116947   1.677   3.330   0.209
 5661TIP3    H216948   1.570   3.260   0.291
 5662TIP3   OH216949   4.768   4.310   3.806
 5662TIP3    H116950   4.833   4.370   3.842
 5662TIP3    H216951   4.804   4.223   3.821
 5663TIP3   OH216952   7.080   3.582   3.891
 5663TIP3    H116953   7.153   3.521   3.881
 5663TIP3    H216954   7.121   3.667   3.906
 5664TIP3   OH216955   0.055   2.774   4.702
 5664TIP3    H116956   0.064   2.782   4.797
 5664TIP3    H216957  -0.024   2.826   4.681
 5665TIP3   OH216958   2.108   4.148   5.610
 5665TIP3    H116959   2.045   4.163   5.680
 5665TIP3    H216960   2.100   4.055   5.589
 5666TIP3   OH216961   1.771   0.324   5.870
 5666TIP3    H116962   1.743   0.291   5.785
 5666TIP3    H216963   1.767   0.249   5.928
 5667TIP3   OH216964   5.801   0.182   3.578
 5667TIP3    H116965   5.871   0.143   3.526
 5667TIP3    H216966   5.803   0.134   3.661
 5668TIP3   OH216967   1.928   1.179   4.232
 5668TIP3    H116968   1.981   1.171   4.312
 5668TIP3    H216969   1.910   1.088   4.207
 5669TIP3   OH216970   1.202   4.529   5.474
 5669TIP3    H116971   1.257   4.550   5.399
 5669TIP3    H216972   1.257   4.476   5.531
 5670TIP3   OH216973   0.973   5.640   1.737
 5670TIP3    H116974   0.913   5.565   1.738
 5670TIP3    H216975   0.935   5.699   1.672
 5671TIP3   OH216976   4.622   0.427   2.635
 5671TIP3    H116977   4.665   0.350   2.599
 5671TIP3    H216978   4.671   0.447   2.715
 5672TIP3   OH216979   4.755   2.909   4.852
 5672TIP3    H116980   4.687   2.969   4.883
 5672TIP3    H216981   4.802   2.882   4.931
 5673TIP3   OH216982   6.037   6.453   2.574
 5673TIP3    H116983   5.994   6.441   2.658
 5673TIP3    H216984   6.034   6.548   2.559
 5674TIP3   OH216985   3.686   4.360   3.181
 5674TIP3    H116986   3.654   4.276   3.147
 5674TIP3    H216987   3.691   4.417   3.104
 5675TIP3   OH216988   1.366   6.455   5.198
 5675TIP3    H116989   1.378   6.526   5.135
 5675TIP3    H216990   1.422   6.478   5.272
 5676TIP3   OH216991   1.640   5.984   1.947
 5676TIP3    H116992   1.716   5.999   2.003
 5676TIP3    H216993   1.672   5.929   1.876
 5677TIP3   OH216994   4.743   1.034   5.268
 5677TIP3    H116995   4.818   1.051   5.211
 5677TIP3    H216996   4.743   1.106   5.330
 5678TIP3   OH216997   0.731   6.061   2.161
 5678TIP3    H116998   0.753   6.049   2.253
 5678TIP3    H216999   0.664   5.995   2.144
 5679TIP3   OH217000   5.904   2.561   5.345
 5679TIP3    H117001   5.830   2.507   5.318
 5679TIP3    H217002   5.877   2.651   5.326
 5680TIP3   OH217003   0.631   1.085   2.273
 5680TIP3    H117004   0.712   1.076   2.222
 5680TIP3    H217005   0.578   1.147   2.222
 5681TIP3   OH217006   6.240   5.704   0.802
 5681TIP3    H117007   6.227   5.611   0.783
 5681TIP3    H217008   6.281   5.739   0.723
 5682TIP3   OH217009   0.650   3.557   0.945
 5682TIP3    H117010   0.738   3.526   0.969
 5682TIP3    H217011   0.609   3.482   0.903
 5683TIP3   OH217012   4.816   1.198   3.085
 5683TIP3    H117013   4.766   1.261   3.137
 5683TIP3    H217014   4.908   1.225   3.098
 5684TIP3   OH217015   4.159   4.573   2.634
 5684TIP3    H117016   4.159   4.477   2.631
 5684TIP3    H217017   4.113   4.600   2.555
 5685TIP3   OH217018   6.260   3.514   2.400
 5685TIP3    H117019   6.196   3.451   2.433
 5685TIP3    H217020   6.259   3.501   2.305
 5686TIP3   OH217021   6.605   1.122   3.016
 5686TIP3    H117022   6.629   1.087   3.102
 5686TIP3    H217023   6.679   1.100   2.959
 5687TIP3   OH217024   3.549   1.936   5.101
 5687TIP3    H117025   3.576   1.861   5.049
 5687TIP3    H217026   3.514   1.998   5.037
 5688TIP3   OH217027   2.975   0.333   5.852
 5688TIP3    H117028   2.886   0.298   5.843
 5688TIP3    H217029   3.032   0.260   5.828
 5689TIP3   OH217030   3.925   5.618   5.777
 5689TIP3    H117031   3.866   5.546   5.799
 5689TIP3    H217032   3.886   5.659   5.699
 5690TIP3   OH217033   5.463   4.974   1.307
 5690TIP3    H117034   5.475   4.902   1.369
 5690TIP3    H217035   5.434   5.048   1.360
 5691TIP3   OH217036   7.023   5.000   3.825
 5691TIP3    H117037   6.952   4.969   3.882
 5691TIP3    H217038   7.009   4.954   3.742
 5692TIP3   OH217039   6.893   1.541   3.201
 5692TIP3    H117040   6.900   1.637   3.201
 5692TIP3    H217041   6.966   1.512   3.256
 5693TIP3   OH217042   1.280   3.344   1.754
 5693TIP3    H117043   1.222   3.377   1.686
 5693TIP3    H217044   1.356   3.310   1.706
 5694TIP3   OH217045   5.689   5.657   3.529
 5694TIP3    H117046   5.748   5.587   3.558
 5694TIP3    H217047   5.685   5.717   3.604
 5695TIP3   OH217048   4.858   4.590   0.388
 5695TIP3    H117049   4.794   4.629   0.447
 5695TIP3    H217050   4.844   4.496   0.396
 5696TIP3   OH217051   6.425   1.591   5.163
 5696TIP3    H117052   6.475   1.547   5.232
 5696TIP3    H217053   6.406   1.521   5.100
 5697TIP3   OH217054   6.608   3.862   5.867
 5697TIP3    H117055   6.630   3.869   5.775
 5697TIP3    H217056   6.675   3.805   5.905
 5698TIP3   OH217057   2.089   4.220   3.180
 5698TIP3    H117058   2.052   4.308   3.178
 5698TIP3    H217059   2.161   4.227   3.244
 5699TIP3   OH217060   4.242   4.654   0.765
 5699TIP3    H117061   4.291   4.737   0.770
 5699TIP3    H217062   4.303   4.589   0.801
 5700TIP3   OH217063   5.119   5.343   4.782
 5700TIP3    H117064   5.075   5.318   4.863
 5700TIP3    H217065   5.100   5.271   4.721
 5701TIP3   OH217066   1.156   0.047   3.923
 5701TIP3    H117067   1.187   0.028   3.834
 5701TIP3    H217068   1.235   0.065   3.973
 5702TIP3   OH217069   1.665   6.604   4.192
 5702TIP3    H117070   1.680   6.680   4.135
 5702TIP3    H217071   1.753   6.572   4.212
 5703TIP3   OH217072   0.427   0.982   0.327
 5703TIP3    H117073   0.406   0.930   0.404
 5703TIP3    H217074   0.481   1.054   0.359
 5704TIP3   OH217075   3.843   6.483   1.497
 5704TIP3    H117076   3.818   6.391   1.506
 5704TIP3    H217077   3.760   6.531   1.497
 5705TIP3   OH217078   6.693   4.886   2.756
 5705TIP3    H117079   6.653   4.834   2.686
 5705TIP3    H217080   6.762   4.830   2.790
 5706TIP3   OH217081   1.099   6.539   5.481
 5706TIP3    H117082   1.170   6.602   5.475
 5706TIP3    H217083   1.076   6.520   5.390
 5707TIP3   OH217084   0.796   4.751   0.533
 5707TIP3    H117085   0.839   4.822   0.581
 5707TIP3    H217086   0.760   4.695   0.602
 5708TIP3   OH217087   1.217   3.156   4.781
 5708TIP3    H117088   1.281   3.159   4.852
 5708TIP3    H217089   1.132   3.165   4.824
 5709TIP3   OH217090   3.622   3.893   4.880
 5709TIP3    H117091   3.673   3.863   4.805
 5709TIP3    H217092   3.583   3.814   4.916
 5710TIP3   OH217093   1.428   3.161   1.909
 5710TIP3    H117094   1.390   3.231   1.857
 5710TIP3    H217095   1.501   3.202   1.955
 5711TIP3   OH217096   3.149   5.147   5.033
 5711TIP3    H117097   3.189   5.131   5.118
 5711TIP3    H217098   3.120   5.061   5.003
 5712TIP3   OH217099   4.718   6.252   4.722
 5712TIP3    H117100   4.682   6.300   4.648
 5712TIP3    H217101   4.810   6.237   4.698
 5713TIP3   OH217102   3.242   1.600   4.074
 5713TIP3    H117103   3.239   1.678   4.019
 5713TIP3    H217104   3.154   1.595   4.112
 5714TIP3   OH217105   1.740   4.108   0.175
 5714TIP3    H117106   1.713   4.194   0.143
 5714TIP3    H217107   1.687   4.095   0.254
 5715TIP3   OH217108   4.503   5.674   5.751
 5715TIP3    H117109   4.512   5.612   5.679
 5715TIP3    H217110   4.518   5.760   5.712
 5716TIP3   OH217111   5.652   2.990   0.025
 5716TIP3    H117112   5.690   2.914  -0.020
 5716TIP3    H217113   5.601   2.952   0.096
 5717TIP3   OH217114  -0.017   3.849   3.942
 5717TIP3    H117115   0.019   3.919   3.997
 5717TIP3    H217116   0.047   3.840   3.871
 5718TIP3   OH217117   0.851   3.077   2.552
 5718TIP3    H117118   0.906   3.084   2.474
 5718TIP3    H217119   0.850   2.983   2.572
 5719TIP3   OH217120   2.624   5.044   3.543
 5719TIP3    H117121   2.593   5.132   3.563
 5719TIP3    H217122   2.707   5.059   3.497
 5720TIP3   OH217123   4.658   1.315   1.106
 5720TIP3    H117124   4.564   1.300   1.107
 5720TIP3    H217125   4.668   1.405   1.076
 5721TIP3   OH217126   6.386   5.776   2.402
 5721TIP3    H117127   6.320   5.835   2.364
 5721TIP3    H217128   6.342   5.691   2.405
 5722TIP3   OH217129   4.216   4.248   4.830
 5722TIP3    H117130   4.169   4.310   4.886
 5722TIP3    H217131   4.200   4.163   4.870
 5723TIP3   OH217132   2.284   4.352   3.579
 5723TIP3    H117133   2.309   4.279   3.523
 5723TIP3    H217134   2.231   4.408   3.523
 5724TIP3   OH217135   4.911   6.272   4.985
 5724TIP3    H117136   4.982   6.265   5.048
 5724TIP3    H217137   4.949   6.317   4.910
 5725TIP3   OH217138   1.599   0.916   0.315
 5725TIP3    H117139   1.546   0.866   0.252
 5725TIP3    H217140   1.608   0.857   0.390
 5726TIP3   OH217141   6.234   6.199   4.877
 5726TIP3    H117142   6.205   6.222   4.965
 5726TIP3    H217143   6.255   6.283   4.836
 5727TIP3   OH217144   0.155   1.318   4.538
 5727TIP3    H117145   0.063   1.316   4.564
 5727TIP3    H217146   0.203   1.311   4.620
 5728TIP3   OH217147   6.888   1.186   5.088
 5728TIP3    H117148   6.858   1.176   4.998
 5728TIP3    H217149   6.968   1.133   5.092
 5729TIP3   OH217150   1.911   2.406   4.897
 5729TIP3    H117151   1.994   2.376   4.859
 5729TIP3    H217152   1.850   2.409   4.823
 5730TIP3   OH217153   0.291   0.456   0.872
 5730TIP3    H117154   0.267   0.376   0.825
 5730TIP3    H217155   0.212   0.479   0.922
 5731TIP3   OH217156   7.079   5.188   3.553
 5731TIP3    H117157   7.103   5.135   3.629
 5731TIP3    H217158   7.122   5.144   3.479
 5732TIP3   OH217159   6.868   1.066   1.009
 5732TIP3    H117160   6.896   1.087   1.098
 5732TIP3    H217161   6.949   1.048   0.962
 5733TIP3   OH217162   4.433   1.256   5.229
 5733TIP3    H117163   4.382   1.265   5.148
 5733TIP3    H217164   4.369   1.262   5.299
 5734TIP3   OH217165   6.456   2.701   1.133
 5734TIP3    H117166   6.393   2.713   1.062
 5734TIP3    H217167   6.420   2.750   1.206
 5735TIP3   OH217168   2.217   2.439   1.664
 5735TIP3    H117169   2.169   2.522   1.671
 5735TIP3    H217170   2.177   2.383   1.730
 5736TIP3   OH217171   6.547   1.945   5.247
 5736TIP3    H117172   6.471   1.900   5.212
 5736TIP3    H217173   6.573   1.893   5.322
 5737TIP3   OH217174   0.064   3.630   2.046
 5737TIP3    H117175   0.099   3.591   2.125
 5737TIP3    H217176   0.001   3.566   2.013
 5738TIP3   OH217177   5.131   4.954   2.982
 5738TIP3    H117178   5.124   4.873   2.931
 5738TIP3    H217179   5.045   4.996   2.972
 5739TIP3   OH217180   3.892   3.441   3.801
 5739TIP3    H117181   3.818   3.497   3.824
 5739TIP3    H217182   3.928   3.412   3.885
 5740TIP3   OH217183   0.380   0.554   2.719
 5740TIP3    H117184   0.462   0.583   2.678
 5740TIP3    H217185   0.397   0.558   2.813
 5741TIP3   OH217186   1.595   4.133   3.412
 5741TIP3    H117187   1.555   4.140   3.499
 5741TIP3    H217188   1.648   4.054   3.416
 5742TIP3   OH217189   5.147   3.840   1.487
 5742TIP3    H117190   5.110   3.928   1.481
 5742TIP3    H217191   5.163   3.815   1.396
 5743TIP3   OH217192   5.826   2.522   3.292
 5743TIP3    H117193   5.779   2.489   3.215
 5743TIP3    H217194   5.917   2.495   3.277
 5744TIP3   OH217195   6.537   6.776   1.216
 5744TIP3    H117196   6.521   6.685   1.191
 5744TIP3    H217197   6.599   6.770   1.289
 5745TIP3   OH217198   5.180   4.186   5.155
 5745TIP3    H117199   5.165   4.149   5.242
 5745TIP3    H217200   5.195   4.109   5.099
 5746TIP3   OH217201   4.098   0.782   1.701
 5746TIP3    H117202   4.128   0.700   1.661
 5746TIP3    H217203   4.008   0.764   1.728
 5747TIP3   OH217204   5.462   1.267   3.142
 5747TIP3    H117205   5.502   1.323   3.209
 5747TIP3    H217206   5.453   1.324   3.065
 5748TIP3   OH217207   4.686   0.691   3.556
 5748TIP3    H117208   4.705   0.755   3.487
 5748TIP3    H217209   4.745   0.714   3.627
 5749TIP3   OH217210   6.997   5.453   0.223
 5749TIP3    H117211   6.989   5.529   0.281
 5749TIP3    H217212   6.988   5.489   0.135
 5750TIP3   OH217213   5.294   4.547   4.422
 5750TIP3    H117214   5.244   4.490   4.481
 5750TIP3    H217215   5.357   4.590   4.478
 5751TIP3   OH217216   4.793   5.535   1.584
 5751TIP3    H117217   4.769   5.513   1.674
 5751TIP3    H217218   4.734   5.483   1.530
 5752TIP3   OH217219   2.477   1.465   0.614
 5752TIP3    H117220   2.505   1.374   0.617
 5752TIP3    H217221   2.397   1.468   0.667
 5753TIP3   OH217222   0.318   4.331   3.527
 5753TIP3    H117223   0.343   4.375   3.608
 5753TIP3    H217224   0.401   4.304   3.487
 5754TIP3   OH217225   3.637   4.424   4.253
 5754TIP3    H117226   3.676   4.423   4.340
 5754TIP3    H217227   3.700   4.379   4.198
 5755TIP3   OH217228   5.675   3.038   2.474
 5755TIP3    H117229   5.678   3.112   2.414
 5755TIP3    H217230   5.688   2.961   2.419
 5756TIP3   OH217231   3.015   2.394   1.465
 5756TIP3    H117232   3.068   2.367   1.541
 5756TIP3    H217233   3.068   2.369   1.389
 5757TIP3   OH217234   4.778   6.136   4.106
 5757TIP3    H117235   4.733   6.069   4.055
 5757TIP3    H217236   4.859   6.094   4.136
 5758TIP3   OH217237   4.013   1.846   2.732
 5758TIP3    H117238   4.009   1.822   2.640
 5758TIP3    H217239   3.929   1.888   2.750
 5759TIP3   OH217240   2.411   2.276   2.334
 5759TIP3    H117241   2.347   2.300   2.268
 5759TIP3    H217242   2.410   2.350   2.396
 5760TIP3   OH217243   2.805   4.448   4.259
 5760TIP3    H117244   2.712   4.455   4.284
 5760TIP3    H217245   2.821   4.354   4.252
 5761TIP3   OH217246   1.899   3.603   5.601
 5761TIP3    H117247   1.823   3.647   5.562
 5761TIP3    H217248   1.928   3.541   5.534
 5762TIP3   OH217249   7.095   0.177   0.932
 5762TIP3    H117250   7.034   0.107   0.956
 5762TIP3    H217251   7.050   0.224   0.862
 5763TIP3   OH217252   3.544   6.408   0.746
 5763TIP3    H117253   3.598   6.426   0.668
 5763TIP3    H217254   3.608   6.384   0.813
 5764TIP3   OH217255   4.677   4.529   5.720
 5764TIP3    H117256   4.592   4.569   5.705
 5764TIP3    H217257   4.660   4.435   5.721
 5765TIP3   OH217258   5.173   0.815   2.739
 5765TIP3    H117259   5.236   0.886   2.732
 5765TIP3    H217260   5.226   0.737   2.753
 5766TIP3   OH217261   4.771   3.739   2.038
 5766TIP3    H117262   4.704   3.782   1.984
 5766TIP3    H217263   4.722   3.704   2.113
 5767TIP3   OH217264   7.006   6.619   3.591
 5767TIP3    H117265   6.958   6.541   3.621
 5767TIP3    H217266   6.967   6.639   3.506
 5768TIP3   OH217267   3.129   3.457   0.665
 5768TIP3    H117268   3.136   3.464   0.761
 5768TIP3    H217269   3.034   3.450   0.649
 5769TIP3   OH217270   1.084   5.922   2.065
 5769TIP3    H117271   1.167   5.915   2.018
 5769TIP3    H217272   1.091   6.005   2.113
 5770TIP3   OH217273   3.051   2.633   1.312
 5770TIP3    H117274   2.974   2.584   1.340
 5770TIP3    H217275   3.125   2.583   1.346
 5771TIP3   OH217276   5.853   0.345   1.010
 5771TIP3    H117277   5.924   0.282   1.020
 5771TIP3    H217278   5.851   0.364   0.916
 5772TIP3   OH217279   4.301   2.572   5.271
 5772TIP3    H117280   4.290   2.579   5.366
 5772TIP3    H217281   4.313   2.478   5.256
 5773TIP3   OH217282   6.568   5.231   4.319
 5773TIP3    H117283   6.583   5.280   4.238
 5773TIP3    H217284   6.579   5.295   4.388
 5774TIP3   OH217285   1.190   2.980   3.324
 5774TIP3    H117286   1.097   3.002   3.316
 5774TIP3    H217287   1.231   3.021   3.248
 5775TIP3   OH217288   5.261   4.618   2.041
 5775TIP3    H117289   5.294   4.643   2.127
 5775TIP3    H217290   5.321   4.551   2.011
 5776TIP3   OH217291   6.052   6.474   3.251
 5776TIP3    H117292   6.034   6.555   3.299
 5776TIP3    H217293   6.082   6.413   3.319
 5777TIP3   OH217294   4.344   5.873   2.161
 5777TIP3    H117295   4.414   5.884   2.225
 5777TIP3    H217296   4.269   5.918   2.198
 5778TIP3   OH217297   2.550   0.060   4.368
 5778TIP3    H117298   2.470   0.035   4.323
 5778TIP3    H217299   2.521   0.097   4.451
 5779TIP3   OH217300   4.038   2.396   1.321
 5779TIP3    H117301   4.116   2.442   1.289
 5779TIP3    H217302   4.048   2.397   1.416
 5780TIP3   OH217303   6.520   5.588   1.651
 5780TIP3    H117304   6.559   5.672   1.676
 5780TIP3    H217305   6.500   5.545   1.735
 5781TIP3   OH217306   4.854   3.212   1.604
 5781TIP3    H117307   4.877   3.303   1.585
 5781TIP3    H217308   4.824   3.212   1.695
 5782TIP3   OH217309   1.792   3.274   2.407
 5782TIP3    H117310   1.849   3.235   2.474
 5782TIP3    H217311   1.822   3.364   2.400
 5783TIP3   OH217312   2.794   5.550   1.108
 5783TIP3    H117313   2.736   5.623   1.087
 5783TIP3    H217314   2.745   5.472   1.079
 5784TIP3   OH217315   2.698   4.458   2.933
 5784TIP3    H117316   2.712   4.379   2.881
 5784TIP3    H217317   2.728   4.530   2.877
 5785TIP3   OH217318   0.319   3.240   1.324
 5785TIP3    H117319   0.346   3.289   1.401
 5785TIP3    H217320   0.224   3.227   1.336
 5786TIP3   OH217321   6.113   1.159   4.276
 5786TIP3    H117322   6.140   1.215   4.349
 5786TIP3    H217323   6.060   1.216   4.220
 5787TIP3   OH217324   0.265   2.994   0.211
 5787TIP3    H117325   0.240   3.085   0.193
 5787TIP3    H217326   0.328   3.001   0.283
 5788TIP3   OH217327   0.235   4.753   5.254
 5788TIP3    H117328   0.246   4.832   5.308
 5788TIP3    H217329   0.279   4.774   5.172
 5789TIP3   OH217330   1.147   4.739   3.566
 5789TIP3    H117331   1.121   4.696   3.647
 5789TIP3    H217332   1.221   4.794   3.590
 5790TIP3   OH217333   1.402   4.244   1.370
 5790TIP3    H117334   1.402   4.155   1.404
 5790TIP3    H217335   1.381   4.299   1.446
 5791TIP3   OH217336   6.762   4.607   0.076
 5791TIP3    H117337   6.805   4.674   0.130
 5791TIP3    H217338   6.710   4.557   0.138
 5792TIP3   OH217339   1.320   3.705   5.196
 5792TIP3    H117340   1.365   3.621   5.199
 5792TIP3    H217341   1.364   3.753   5.126
 5793TIP3   OH217342   5.215   0.631   0.010
 5793TIP3    H117343   5.263   0.551   0.030
 5793TIP3    H217344   5.123   0.610   0.031
 5794TIP3   OH217345   2.767   2.967   5.204
 5794TIP3    H117346   2.749   2.939   5.293
 5794TIP3    H217347   2.689   3.018   5.179
 5795TIP3   OH217348   1.967   0.258   2.717
 5795TIP3    H117349   1.995   0.226   2.631
 5795TIP3    H217350   2.031   0.325   2.740
 5796TIP3   OH217351   1.419   2.115   5.059
 5796TIP3    H117352   1.375   2.098   5.142
 5796TIP3    H217353   1.348   2.134   4.998
 5797TIP3   OH217354   4.475   0.499   3.461
 5797TIP3    H117355   4.533   0.567   3.495
 5797TIP3    H217356   4.457   0.526   3.371
 5798TIP3   OH217357   2.408   4.631   0.512
 5798TIP3    H117358   2.460   4.689   0.458
 5798TIP3    H217359   2.328   4.680   0.531
 5799TIP3   OH217360   1.869   1.033   2.381
 5799TIP3    H117361   1.938   1.088   2.417
 5799TIP3    H217362   1.848   1.072   2.296
 5800TIP3   OH217363   6.597   1.533   1.692
 5800TIP3    H117364   6.576   1.510   1.783
 5800TIP3    H217365   6.691   1.517   1.685
 5801TIP3   OH217366   3.348   0.748   4.258
 5801TIP3    H117367   3.408   0.744   4.184
 5801TIP3    H217368   3.405   0.754   4.335
 5802TIP3   OH217369   4.298   5.567   3.360
 5802TIP3    H117370   4.308   5.661   3.371
 5802TIP3    H217371   4.256   5.538   3.442
 5803TIP3   OH217372   3.427   5.367   1.970
 5803TIP3    H117373   3.428   5.386   1.876
 5803TIP3    H217374   3.518   5.377   1.997
 5804TIP3   OH217375   0.284   1.990   1.787
 5804TIP3    H117376   0.312   2.069   1.834
 5804TIP3    H217377   0.249   2.023   1.704
 5805TIP3   OH217378   2.582   6.664   2.203
 5805TIP3    H117379   2.517   6.642   2.136
 5805TIP3    H217380   2.591   6.584   2.255
 5806TIP3   OH217381   1.807   6.288   2.071
 5806TIP3    H117382   1.826   6.301   1.978
 5806TIP3    H217383   1.839   6.200   2.090
 5807TIP3   OH217384   2.987   4.484   1.658
 5807TIP3    H117385   2.974   4.417   1.725
 5807TIP3    H217386   2.999   4.434   1.577
 5808TIP3   OH217387   3.124   2.979   5.033
 5808TIP3    H117388   3.088   2.917   5.096
 5808TIP3    H217389   3.079   2.958   4.951
 5809TIP3   OH217390   4.695   4.683   1.145
 5809TIP3    H117391   4.706   4.771   1.180
 5809TIP3    H217392   4.743   4.684   1.062
 5810TIP3   OH217393   0.936   0.808   4.673
 5810TIP3    H117394   0.925   0.883   4.615
 5810TIP3    H217395   0.897   0.835   4.756
 5811TIP3   OH217396   6.553   3.935   2.372
 5811TIP3    H117397   6.564   3.915   2.465
 5811TIP3    H217398   6.576   3.853   2.327
 5812TIP3   OH217399   6.598  -0.025   2.841
 5812TIP3    H117400   6.552   0.002   2.761
 5812TIP3    H217401   6.629   0.057   2.879
 5813TIP3   OH217402   2.325   0.496   1.816
 5813TIP3    H117403   2.375   0.470   1.893
 5813TIP3    H217404   2.367   0.577   1.785
 5814TIP3   OH217405   7.109   5.916   1.265
 5814TIP3    H117406   7.057   5.898   1.343
 5814TIP3    H217407   7.180   5.852   1.268
 5815TIP3   OH217408   6.453   0.755   5.462
 5815TIP3    H117409   6.486   0.777   5.375
 5815TIP3    H217410   6.426   0.663   5.455
 5816TIP3   OH217411   6.701   1.895   3.203
 5816TIP3    H117412   6.654   1.976   3.220
 5816TIP3    H217413   6.758   1.915   3.129
 5817TIP3   OH217414   6.265   4.250   4.289
 5817TIP3    H117415   6.180   4.283   4.258
 5817TIP3    H217416   6.250   4.157   4.304
 5818TIP3   OH217417   3.574   3.247   3.624
 5818TIP3    H117418   3.535   3.261   3.537
 5818TIP3    H217419   3.668   3.242   3.607
 5819TIP3   OH217420   5.567   0.578   2.315
 5819TIP3    H117421   5.531   0.511   2.374
 5819TIP3    H217422   5.552   0.543   2.228
 5820TIP3   OH217423   2.801   2.849   4.086
 5820TIP3    H117424   2.778   2.933   4.124
 5820TIP3    H217425   2.718   2.806   4.069
 5821TIP3   OH217426   2.689   5.566   0.740
 5821TIP3    H117427   2.750   5.521   0.682
 5821TIP3    H217428   2.669   5.502   0.809
 5822TIP3   OH217429   1.626   2.344   1.918
 5822TIP3    H117430   1.644   2.399   1.842
 5822TIP3    H217431   1.636   2.255   1.886
 5823TIP3   OH217432   5.749   2.400   2.363
 5823TIP3    H117433   5.746   2.362   2.275
 5823TIP3    H217434   5.714   2.488   2.352
 5824TIP3   OH217435   2.849   0.162   1.426
 5824TIP3    H117436   2.903   0.108   1.485
 5824TIP3    H217437   2.896   0.245   1.420
 5825TIP3   OH217438   2.997   2.314   2.366
 5825TIP3    H117439   2.977   2.382   2.431
 5825TIP3    H217440   2.918   2.306   2.313
 5826TIP3   OH217441   2.416   3.715   2.320
 5826TIP3    H117442   2.450   3.788   2.268
 5826TIP3    H217443   2.324   3.709   2.296
 5827TIP3   OH217444   5.457   0.908   4.152
 5827TIP3    H117445   5.478   0.821   4.118
 5827TIP3    H217446   5.451   0.963   4.073
 5828TIP3   OH217447   2.888   2.943   1.601
 5828TIP3    H117448   2.849   2.937   1.513
 5828TIP3    H217449   2.963   2.884   1.598
 5829TIP3   OH217450   6.181   4.064   1.806
 5829TIP3    H117451   6.151   4.057   1.715
 5829TIP3    H217452   6.101   4.079   1.856
 5830TIP3   OH217453   5.828   0.780   1.635
 5830TIP3    H117454   5.839   0.732   1.553
 5830TIP3    H217455   5.899   0.748   1.691
 5831TIP3   OH217456   2.780   0.393   5.454
 5831TIP3    H117457   2.804   0.312   5.498
 5831TIP3    H217458   2.863   0.435   5.432
 5832TIP3   OH217459   6.111   1.827   4.925
 5832TIP3    H117460   6.128   1.746   4.877
 5832TIP3    H217461   6.020   1.818   4.955
 5833TIP3   OH217462   5.783   1.846   1.639
 5833TIP3    H117463   5.834   1.891   1.707
 5833TIP3    H217464   5.833   1.765   1.623
 5834TIP3   OH217465   0.096   5.106   3.884
 5834TIP3    H117466   0.002   5.091   3.873
 5834TIP3    H217467   0.136   5.023   3.858
 5835TIP3   OH217468   0.923   1.684   3.304
 5835TIP3    H117469   0.884   1.771   3.303
 5835TIP3    H217470   0.951   1.671   3.395
 5836TIP3   OH217471   6.340   4.213   1.462
 5836TIP3    H117472   6.429   4.217   1.495
 5836TIP3    H217473   6.347   4.165   1.379
 5837TIP3   OH217474   3.746   4.903   4.400
 5837TIP3    H117475   3.811   4.943   4.457
 5837TIP3    H217476   3.786   4.821   4.372
 5838TIP3   OH217477   4.564   6.601   0.725
 5838TIP3    H117478   4.611   6.556   0.796
 5838TIP3    H217479   4.540   6.685   0.763
 5839TIP3   OH217480   3.161   0.776   0.638
 5839TIP3    H117481   3.176   0.800   0.729
 5839TIP3    H217482   3.245   0.745   0.606
 5840TIP3   OH217483   2.759   4.588   5.118
 5840TIP3    H117484   2.709   4.523   5.068
 5840TIP3    H217485   2.850   4.574   5.090
 5841TIP3   OH217486   7.152   1.990   4.604
 5841TIP3    H117487   7.222   1.936   4.568
 5841TIP3    H217488   7.073   1.961   4.559
 5842TIP3   OH217489   4.731   3.150   2.788
 5842TIP3    H117490   4.662   3.121   2.729
 5842TIP3    H217491   4.728   3.246   2.783
 5843TIP3   OH217492   4.142   4.154   2.897
 5843TIP3    H117493   4.198   4.109   2.961
 5843TIP3    H217494   4.119   4.236   2.940
 5844TIP3   OH217495   6.192   5.965   2.571
 5844TIP3    H117496   6.109   5.996   2.608
 5844TIP3    H217497   6.243   5.936   2.647
 5845TIP3   OH217498   0.655   3.283   3.820
 5845TIP3    H117499   0.659   3.347   3.891
 5845TIP3    H217500   0.743   3.284   3.782
 5846TIP3   OH217501   3.736   4.914   3.151
 5846TIP3    H117502   3.797   4.922   3.078
 5846TIP3    H217503   3.740   4.821   3.175
 5847TIP3   OH217504   2.456   1.621   5.301
 5847TIP3    H117505   2.453   1.584   5.213
 5847TIP3    H217506   2.520   1.692   5.295
 5848TIP3   OH217507   6.874   1.731   3.736
 5848TIP3    H117508   6.781   1.726   3.713
 5848TIP3    H217509   6.895   1.643   3.768
 5849TIP3   OH217510   0.262   6.106   1.221
 5849TIP3    H117511   0.251   6.112   1.316
 5849TIP3    H217512   0.309   6.023   1.207
 5850TIP3   OH217513   2.722   1.117   5.760
 5850TIP3    H117514   2.637   1.106   5.802
 5850TIP3    H217515   2.711   1.080   5.672
 5851TIP3   OH217516   4.088   2.021   0.809
 5851TIP3    H117517   4.026   1.992   0.742
 5851TIP3    H217518   4.093   2.116   0.798
 5852TIP3   OH217519   2.808   1.559   1.027
 5852TIP3    H117520   2.743   1.532   1.093
 5852TIP3    H217521   2.873   1.489   1.028
 5853TIP3   OH217522   2.013   6.034   1.761
 5853TIP3    H117523   2.017   6.125   1.791
 5853TIP3    H217524   2.080   6.029   1.693
 5854TIP3   OH217525   3.772   0.991   2.862
 5854TIP3    H117526   3.860   0.956   2.876
 5854TIP3    H217527   3.786   1.076   2.821
 5855TIP3   OH217528   2.975   2.164   5.013
 5855TIP3    H117529   2.945   2.122   4.932
 5855TIP3    H217530   2.956   2.100   5.081
 5856TIP3   OH217531   0.217   0.163   3.567
 5856TIP3    H117532   0.186   0.086   3.616
 5856TIP3    H217533   0.147   0.183   3.506
 5857TIP3   OH217534   3.414   1.366   2.181
 5857TIP3    H117535   3.424   1.295   2.244
 5857TIP3    H217536   3.470   1.436   2.215
 5858TIP3   OH217537   4.544   2.387   1.402
 5858TIP3    H117538   4.535   2.456   1.336
 5858TIP3    H217539   4.627   2.345   1.382
 5859TIP3   OH217540   3.008   1.490   0.023
 5859TIP3    H117541   3.079   1.474   0.086
 5859TIP3    H217542   3.006   1.411  -0.031
 5860TIP3   OH217543   2.456   2.199   5.734
 5860TIP3    H117544   2.549   2.188   5.756
 5860TIP3    H217545   2.434   2.120   5.684
 5861TIP3   OH217546   4.216   6.247   0.083
 5861TIP3    H117547   4.221   6.318   0.020
 5861TIP3    H217548   4.306   6.233   0.112
 5862TIP3   OH217549   6.744   0.787   2.126
 5862TIP3    H117550   6.743   0.773   2.220
 5862TIP3    H217551   6.651   0.786   2.101
 5863TIP3   OH217552   2.803   3.812   3.394
 5863TIP3    H117553   2.887   3.770   3.373
 5863TIP3    H217554   2.750   3.800   3.315
 5864TIP3   OH217555   0.920   5.997   1.353
 5864TIP3    H117556   0.952   6.082   1.383
 5864TIP3    H217557   0.977   5.975   1.279
 5865TIP3   OH217558   5.316   1.128   0.446
 5865TIP3    H117559   5.276   1.053   0.402
 5865TIP3    H217560   5.377   1.089   0.509
 5866TIP3   OH217561   5.164   4.083   4.579
 5866TIP3    H117562   5.137   4.165   4.621
 5866TIP3    H217563   5.259   4.086   4.580
 5867TIP3   OH217564   6.804   2.881   3.597
 5867TIP3    H117565   6.789   2.882   3.502
 5867TIP3    H217566   6.775   2.794   3.625
 5868TIP3   OH217567   0.542   4.420   1.551
 5868TIP3    H117568   0.562   4.434   1.458
 5868TIP3    H217569   0.482   4.345   1.551
 5869TIP3   OH217570   5.132   3.987   0.307
 5869TIP3    H117571   5.049   4.004   0.353
 5869TIP3    H217572   5.152   4.070   0.264
 5870TIP3   OH217573   4.464   3.133   1.942
 5870TIP3    H117574   4.452   3.148   2.035
 5870TIP3    H217575   4.548   3.087   1.935
 5871TIP3   OH217576   1.490   0.682   1.647
 5871TIP3    H117577   1.543   0.752   1.608
 5871TIP3    H217578   1.548   0.605   1.647
 5872TIP3   OH217579   1.684   0.969   5.182
 5872TIP3    H117580   1.642   0.915   5.249
 5872TIP3    H217581   1.625   0.963   5.106
 5873TIP3   OH217582   7.196   3.321   4.331
 5873TIP3    H117583   7.170   3.335   4.422
 5873TIP3    H217584   7.183   3.406   4.289
 5874TIP3   OH217585   5.402   6.332   5.104
 5874TIP3    H117586   5.373   6.398   5.167
 5874TIP3    H217587   5.359   6.357   5.022
 5875TIP3   OH217588   3.144   4.940   1.539
 5875TIP3    H117589   3.090   5.019   1.542
 5875TIP3    H217590   3.177   4.931   1.628
 5876TIP3   OH217591   4.032   5.302   1.300
 5876TIP3    H117592   3.944   5.337   1.314
 5876TIP3    H217593   4.037   5.286   1.205
 5877TIP3   OH217594   4.378   4.771   5.127
 5877TIP3    H117595   4.385   4.792   5.221
 5877TIP3    H217596   4.364   4.855   5.085
 5878TIP3   OH217597   3.516   0.330   1.993
 5878TIP3    H117598   3.450   0.353   1.928
 5878TIP3    H217599   3.571   0.265   1.950
 5879TIP3   OH217600   7.027   2.504   2.121
 5879TIP3    H117601   7.012   2.437   2.053
 5879TIP3    H217602   7.078   2.459   2.188
 5880TIP3   OH217603   6.571   2.650   3.277
 5880TIP3    H117604   6.630   2.574   3.284
 5880TIP3    H217605   6.609   2.702   3.206
 5881TIP3   OH217606   0.363   2.437   1.100
 5881TIP3    H117607   0.339   2.513   1.152
 5881TIP3    H217608   0.320   2.450   1.016
 5882TIP3   OH217609   5.318   0.228   2.678
 5882TIP3    H117610   5.240   0.242   2.731
 5882TIP3    H217611   5.291   0.163   2.612
 5883TIP3   OH217612   3.176   5.850   3.132
 5883TIP3    H117613   3.235   5.891   3.195
 5883TIP3    H217614   3.164   5.916   3.064
 5884TIP3   OH217615   3.649   4.738   0.806
 5884TIP3    H117616   3.648   4.647   0.836
 5884TIP3    H217617   3.734   4.748   0.762
 5885TIP3   OH217618   1.913   1.253   1.952
 5885TIP3    H117619   1.860   1.296   2.019
 5885TIP3    H217620   1.942   1.324   1.895
 5886TIP3   OH217621   0.378   3.178   5.474
 5886TIP3    H117622   0.413   3.089   5.477
 5886TIP3    H217623   0.305   3.176   5.536
 5887TIP3   OH217624   1.001   3.338   4.049
 5887TIP3    H117625   0.922   3.356   4.100
 5887TIP3    H217626   1.038   3.425   4.031
 5888TIP3   OH217627   2.143   1.907   0.989
 5888TIP3    H117628   2.152   1.979   0.926
 5888TIP3    H217629   2.193   1.937   1.065
 5889TIP3   OH217630   1.318   5.432   4.533
 5889TIP3    H117631   1.271   5.456   4.612
 5889TIP3    H217632   1.309   5.337   4.527
 5890TIP3   OH217633   6.698   1.350   3.490
 5890TIP3    H117634   6.680   1.370   3.398
 5890TIP3    H217635   6.616   1.369   3.535
 5891TIP3   OH217636   6.511   0.197   3.885
 5891TIP3    H117637   6.424   0.236   3.875
 5891TIP3    H217638   6.554   0.212   3.801
 5892TIP3   OH217639   0.069   2.837   0.349
 5892TIP3    H117640   0.104   2.878   0.428
 5892TIP3    H217641   0.134   2.854   0.281
 5893TIP3   OH217642   0.566   1.897   0.174
 5893TIP3    H117643   0.586   1.973   0.120
 5893TIP3    H217644   0.651   1.866   0.206
 5894TIP3   OH217645   6.415   4.702   0.551
 5894TIP3    H117646   6.428   4.777   0.493
 5894TIP3    H217647   6.322   4.704   0.572
 5895TIP3   OH217648   5.666   5.738   0.057
 5895TIP3    H117649   5.669   5.727   0.152
 5895TIP3    H217650   5.688   5.651   0.022
 5896TIP3   OH217651   3.047   2.463   3.765
 5896TIP3    H117652   3.088   2.379   3.744
 5896TIP3    H217653   2.972   2.470   3.706
 5897TIP3   OH217654   1.914   6.325   4.459
 5897TIP3    H117655   1.943   6.409   4.494
 5897TIP3    H217656   1.910   6.339   4.364
 5898TIP3   OH217657   6.426   6.376   1.824
 5898TIP3    H117658   6.405   6.369   1.917
 5898TIP3    H217659   6.367   6.313   1.782
 5899TIP3   OH217660   5.629   4.259   5.785
 5899TIP3    H117661   5.567   4.243   5.856
 5899TIP3    H217662   5.684   4.181   5.783
 5900TIP3   OH217663   3.083   1.570   2.181
 5900TIP3    H117664   3.065   1.556   2.088
 5900TIP3    H217665   3.002   1.608   2.216
 5901TIP3   OH217666   1.201   4.259   2.048
 5901TIP3    H117667   1.110   4.260   2.017
 5901TIP3    H217668   1.232   4.171   2.026
 5902TIP3   OH217669   5.791   6.209   2.494
 5902TIP3    H117670   5.850   6.248   2.429
 5902TIP3    H217671   5.850   6.168   2.557
 5903TIP3   OH217672   4.398   0.412   4.785
 5903TIP3    H117673   4.452   0.345   4.743
 5903TIP3    H217674   4.334   0.363   4.836
 5904TIP3   OH217675   4.389   1.369   0.494
 5904TIP3    H117676   4.480   1.365   0.523
 5904TIP3    H217677   4.342   1.313   0.556
 5905TIP3   OH217678   0.090   5.579   0.674
 5905TIP3    H117679   0.014   5.612   0.722
 5905TIP3    H217680   0.155   5.649   0.682
 5906TIP3   OH217681   1.335   4.902   3.974
 5906TIP3    H117682   1.393   4.826   3.965
 5906TIP3    H217683   1.384   4.975   3.937
 5907TIP3   OH217684   2.903   6.677   0.961
 5907TIP3    H117685   2.838   6.655   1.027
 5907TIP3    H217686   2.967   6.731   1.007
 5908TIP3   OH217687   6.100   0.338   3.411
 5908TIP3    H117688   6.041   0.264   3.395
 5908TIP3    H217689   6.187   0.301   3.397
 5909TIP3   OH217690   5.286   5.159   5.356
 5909TIP3    H117691   5.206   5.209   5.347
 5909TIP3    H217692   5.302   5.157   5.451
 5910TIP3   OH217693   5.558   0.109   3.520
 5910TIP3    H117694   5.535   0.037   3.579
 5910TIP3    H217695   5.651   0.124   3.535
 5911TIP3   OH217696   5.957   6.105   2.679
 5911TIP3    H117697   5.993   6.181   2.725
 5911TIP3    H217698   5.903   6.061   2.743
 5912TIP3   OH217699   5.316   5.062   2.326
 5912TIP3    H117700   5.391   5.121   2.328
 5912TIP3    H217701   5.254   5.105   2.267
 5913TIP3   OH217702   5.944   0.523   2.831
 5913TIP3    H117703   5.880   0.593   2.815
 5913TIP3    H217704   5.901   0.466   2.895
 5914TIP3   OH217705   5.828   3.227   5.278
 5914TIP3    H117706   5.747   3.202   5.324
 5914TIP3    H217707   5.843   3.156   5.216
 5915TIP3   OH217708   1.822   0.468   4.638
 5915TIP3    H117709   1.892   0.470   4.703
 5915TIP3    H217710   1.754   0.414   4.678
 5916TIP3   OH217711   2.526   2.760   4.063
 5916TIP3    H117712   2.533   2.679   4.013
 5916TIP3    H217713   2.444   2.800   4.033
 5917TIP3   OH217714   5.229   6.283   4.895
 5917TIP3    H117715   5.141   6.267   4.862
 5917TIP3    H217716   5.262   6.354   4.840
 5918TIP3   OH217717   5.166   3.123   0.714
 5918TIP3    H117718   5.216   3.103   0.634
 5918TIP3    H217719   5.190   3.054   0.775
 5919TIP3   OH217720   3.727   2.447   2.016
 5919TIP3    H117721   3.789   2.446   2.090
 5919TIP3    H217722   3.700   2.539   2.010
 5920TIP3   OH217723   3.967   1.032   3.946
 5920TIP3    H117724   4.028   1.092   3.990
 5920TIP3    H217725   3.887   1.082   3.935
 5921TIP3   OH217726   5.438   1.013   5.873
 5921TIP3    H117727   5.518   1.018   5.924
 5921TIP3    H217728   5.449   1.079   5.804
 5922TIP3   OH217729   6.655   3.054   0.201
 5922TIP3    H117730   6.681   3.077   0.290
 5922TIP3    H217731   6.594   2.981   0.212
 5923TIP3   OH217732   4.000   4.153   3.652
 5923TIP3    H117733   4.078   4.190   3.694
 5923TIP3    H217734   3.929   4.212   3.678
 5924TIP3   OH217735   2.589   0.367   4.825
 5924TIP3    H117736   2.626   0.407   4.747
 5924TIP3    H217737   2.660   0.368   4.889
 5925TIP3   OH217738   4.270   1.223   4.997
 5925TIP3    H117739   4.309   1.136   4.985
 5925TIP3    H217740   4.179   1.205   5.021
 5926TIP3   OH217741   6.368   3.394   3.328
 5926TIP3    H117742   6.336   3.328   3.267
 5926TIP3    H217743   6.380   3.472   3.275
 5927TIP3   OH217744   6.052   5.215   3.880
 5927TIP3    H117745   6.062   5.295   3.932
 5927TIP3    H217746   6.041   5.246   3.790
 5928TIP3   OH217747   4.843   5.880   5.659
 5928TIP3    H117748   4.866   5.787   5.655
 5928TIP3    H217749   4.911   5.924   5.608
 5929TIP3   OH217750   7.125   3.469   0.444
 5929TIP3    H117751   7.078   3.446   0.524
 5929TIP3    H217752   7.160   3.556   0.461
 5930TIP3   OH217753   4.332   4.611   3.158
 5930TIP3    H117754   4.378   4.541   3.204
 5930TIP3    H217755   4.383   4.625   3.078
 5931TIP3   OH217756   5.061   3.506   2.882
 5931TIP3    H117757   5.039   3.553   2.963
 5931TIP3    H217758   5.108   3.570   2.830
 5932TIP3   OH217759   6.905   3.707   5.481
 5932TIP3    H117760   6.923   3.689   5.389
 5932TIP3    H217761   6.844   3.780   5.480
 5933TIP3   OH217762   3.615   3.799   5.390
 5933TIP3    H117763   3.619   3.848   5.308
 5933TIP3    H217764   3.700   3.812   5.430
 5934TIP3   OH217765   3.085   0.723   3.231
 5934TIP3    H117766   3.028   0.741   3.306
 5934TIP3    H217767   3.150   0.661   3.264
 5935TIP3   OH217768   5.393   1.928   5.805
 5935TIP3    H117769   5.316   1.916   5.861
 5935TIP3    H217770   5.467   1.930   5.866
 5936TIP3   OH217771   6.522   1.700   3.925
 5936TIP3    H117772   6.513   1.657   3.839
 5936TIP3    H217773   6.605   1.666   3.959
 5937TIP3   OH217774   3.763   1.656   1.220
 5937TIP3    H117775   3.708   1.582   1.245
 5937TIP3    H217776   3.735   1.727   1.277
 5938TIP3   OH217777   1.480   1.626   4.389
 5938TIP3    H117778   1.529   1.575   4.454
 5938TIP3    H217779   1.460   1.563   4.320
 5939TIP3   OH217780   1.899   1.302   3.525
 5939TIP3    H117781   1.804   1.291   3.532
 5939TIP3    H217782   1.915   1.316   3.432
 5940TIP3   OH217783   4.588   0.061   4.362
 5940TIP3    H117784   4.672   0.027   4.329
 5940TIP3    H217785   4.600   0.066   4.456
 5941TIP3   OH217786   5.481   0.739   0.020
 5941TIP3    H117787   5.466   0.793   0.098
 5941TIP3    H217788   5.394   0.725  -0.018
 5942TIP3   OH217789   0.209   0.999   1.630
 5942TIP3    H117790   0.145   1.016   1.699
 5942TIP3    H217791   0.289   0.974   1.677
 5943TIP3   OH217792   2.522   1.781   4.375
 5943TIP3    H117793   2.588   1.725   4.335
 5943TIP3    H217794   2.441   1.730   4.367
 5944TIP3   OH217795   1.852   6.515   3.197
 5944TIP3    H117796   1.821   6.455   3.264
 5944TIP3    H217797   1.942   6.537   3.224
 5945TIP3   OH217798   6.154   0.249   1.804
 5945TIP3    H117799   6.248   0.265   1.809
 5945TIP3    H217800   6.114   0.324   1.847
 5946TIP3   OH217801   3.213   3.909   5.516
 5946TIP3    H117802   3.261   3.851   5.456
 5946TIP3    H217803   3.121   3.896   5.492
 5947TIP3   OH217804   3.698   3.630   3.815
 5947TIP3    H117805   3.636   3.690   3.775
 5947TIP3    H217806   3.689   3.646   3.909
 5948TIP3   OH217807   3.043   3.827   4.965
 5948TIP3    H117808   3.137   3.820   4.978
 5948TIP3    H217809   3.007   3.751   5.011
 5949TIP3   OH217810   5.780   0.741   2.839
 5949TIP3    H117811   5.819   0.822   2.873
 5949TIP3    H217812   5.711   0.772   2.779
 5950TIP3   OH217813   5.852   4.090   3.721
 5950TIP3    H117814   5.941   4.055   3.730
 5950TIP3    H217815   5.807   4.030   3.662
 5951TIP3   OH217816   5.191   5.514   5.877
 5951TIP3    H117817   5.112   5.551   5.915
 5951TIP3    H217818   5.210   5.571   5.802
 5952TIP3   OH217819   7.162   1.357   4.074
 5952TIP3    H117820   7.212   1.275   4.070
 5952TIP3    H217821   7.076   1.331   4.107
 5953TIP3   OH217822   4.859   3.326   0.194
 5953TIP3    H117823   4.909   3.252   0.161
 5953TIP3    H217824   4.785   3.335   0.134
 5954TIP3   OH217825   4.812   3.014   5.875
 5954TIP3    H117826   4.898   3.028   5.835
 5954TIP3    H217827   4.818   3.054   5.961
 5955TIP3   OH217828   1.742   4.977   1.021
 5955TIP3    H117829   1.730   4.885   1.045
 5955TIP3    H217830   1.780   4.974   0.933
 5956TIP3   OH217831   1.118   1.125   4.600
 5956TIP3    H117832   1.132   1.119   4.694
 5956TIP3    H217833   1.191   1.177   4.568
 5957TIP3   OH217834   6.621   2.842   4.297
 5957TIP3    H117835   6.683   2.861   4.226
 5957TIP3    H217836   6.676   2.809   4.368
 5958TIP3   OH217837   0.985   2.038   0.474
 5958TIP3    H117838   1.062   1.986   0.451
 5958TIP3    H217839   1.002   2.067   0.564
 5959TIP3   OH217840   6.562   0.981   0.370
 5959TIP3    H117841   6.579   0.908   0.431
 5959TIP3    H217842   6.467   0.994   0.375
 5960TIP3   OH217843   4.177   4.448   5.253
 5960TIP3    H117844   4.149   4.528   5.297
 5960TIP3    H217845   4.200   4.476   5.165
 5961TIP3   OH217846   6.604   0.051   1.100
 5961TIP3    H117847   6.680   0.048   1.043
 5961TIP3    H217848   6.616  -0.022   1.161
 5962TIP3   OH217849   2.983   3.229   0.256
 5962TIP3    H117850   3.063   3.278   0.277
 5962TIP3    H217851   2.965   3.249   0.165
 5963TIP3   OH217852   1.180   3.305   2.021
 5963TIP3    H117853   1.195   3.332   1.930
 5963TIP3    H217854   1.161   3.387   2.067
 5964TIP3   OH217855   6.661   1.071   2.130
 5964TIP3    H117856   6.736   1.011   2.133
 5964TIP3    H217857   6.600   1.030   2.069
 5965TIP3   OH217858   3.874   6.770   0.779
 5965TIP3    H117859   3.906   6.813   0.859
 5965TIP3    H217860   3.941   6.705   0.759
 5966TIP3   OH217861   2.879   0.786   5.342
 5966TIP3    H117862   2.914   0.697   5.347
 5966TIP3    H217863   2.870   0.803   5.248
 5967TIP3   OH217864   4.762   2.697   4.671
 5967TIP3    H117865   4.674   2.715   4.637
 5967TIP3    H217866   4.780   2.770   4.731
 5968TIP3   OH217867   0.505   6.018   2.522
 5968TIP3    H117868   0.475   5.975   2.442
 5968TIP3    H217869   0.536   6.104   2.494
 5969TIP3   OH217870   1.301   0.302   3.379
 5969TIP3    H117871   1.332   0.212   3.372
 5969TIP3    H217872   1.207   0.296   3.363
 5970TIP3   OH217873   3.363   1.444   3.518
 5970TIP3    H117874   3.457   1.462   3.529
 5970TIP3    H217875   3.349   1.453   3.423
 5971TIP3   OH217876   3.335   4.720   5.400
 5971TIP3    H117877   3.368   4.742   5.313
 5971TIP3    H217878   3.242   4.744   5.397
 5972TIP3   OH217879   7.101   6.672   2.475
 5972TIP3    H117880   7.032   6.676   2.541
 5972TIP3    H217881   7.087   6.589   2.430
 5973TIP3   OH217882   0.753   1.214   4.379
 5973TIP3    H117883   0.760   1.175   4.292
 5973TIP3    H217884   0.694   1.288   4.367
 5974TIP3   OH217885   5.984   6.743   5.166
 5974TIP3    H117886   6.010   6.830   5.196
 5974TIP3    H217887   6.020   6.683   5.232
 5975TIP3   OH217888   2.170   2.970   5.302
 5975TIP3    H117889   2.085   2.939   5.272
 5975TIP3    H217890   2.224   2.890   5.305
 5976TIP3   OH217891   4.622   3.740   5.216
 5976TIP3    H117892   4.588   3.701   5.296
 5976TIP3    H217893   4.633   3.666   5.156
 5977TIP3   OH217894   3.987   4.804  -0.001
 5977TIP3    H117895   3.984   4.715   0.033
 5977TIP3    H217896   3.956   4.859   0.072
 5978TIP3   OH217897   2.275   2.059   0.685
 5978TIP3    H117898   2.302   1.967   0.680
 5978TIP3    H217899   2.225   2.074   0.605
 5979TIP3   OH217900   6.249   0.479   4.262
 5979TIP3    H117901   6.309   0.407   4.241
 5979TIP3    H217902   6.220   0.512   4.177
 5980TIP3   OH217903   6.919   3.910   4.683
 5980TIP3    H117904   6.853   3.840   4.682
 5980TIP3    H217905   6.921   3.940   4.774
 5981TIP3   OH217906   5.082   0.716   5.408
 5981TIP3    H117907   5.052   0.630   5.380
 5981TIP3    H217908   5.141   0.699   5.482
 5982TIP3   OH217909   5.452   6.604   4.346
 5982TIP3    H117910   5.534   6.589   4.299
 5982TIP3    H217911   5.449   6.699   4.358
 5983TIP3   OH217912   5.035   2.595   3.602
 5983TIP3    H117913   5.038   2.685   3.572
 5983TIP3    H217914   5.014   2.602   3.696
 5984TIP3   OH217915   4.748   2.761   2.772
 5984TIP3    H117916   4.653   2.770   2.775
 5984TIP3    H217917   4.764   2.697   2.702
 5985TIP3   OH217918   4.455   4.607   1.220
 5985TIP3    H117919   4.533   4.634   1.172
 5985TIP3    H217920   4.413   4.689   1.245
 5986TIP3   OH217921   1.224   0.216   5.188
 5986TIP3    H117922   1.264   0.292   5.146
 5986TIP3    H217923   1.206   0.244   5.277
 5987TIP3   OH217924   4.191   2.730   5.596
 5987TIP3    H117925   4.261   2.775   5.642
 5987TIP3    H217926   4.226   2.642   5.579
 5988TIP3   OH217927   3.207   4.849   4.067
 5988TIP3    H117928   3.219   4.807   4.152
 5988TIP3    H217929   3.229   4.781   4.003
 5989TIP3   OH217930   5.530   0.228   0.707
 5989TIP3    H117931   5.464   0.179   0.757
 5989TIP3    H217932   5.614   0.195   0.739
 5990TIP3   OH217933   1.245   2.549   3.358
 5990TIP3    H117934   1.338   2.573   3.363
 5990TIP3    H217935   1.243   2.471   3.303
 5991TIP3   OH217936   1.041   0.427   0.124
 5991TIP3    H117937   0.975   0.437   0.192
 5991TIP3    H217938   1.001   0.463   0.045
 5992TIP3   OH217939   1.295   3.233   3.687
 5992TIP3    H117940   1.240   3.268   3.757
 5992TIP3    H217941   1.304   3.305   3.626
 5993TIP3   OH217942   6.770   2.096   1.962
 5993TIP3    H117943   6.758   2.114   2.055
 5993TIP3    H217944   6.708   2.154   1.918
 5994TIP3   OH217945   1.104   0.318   2.568
 5994TIP3    H117946   1.098   0.276   2.654
 5994TIP3    H217947   1.054   0.260   2.510
 5995TIP3   OH217948   0.373   3.294   5.756
 5995TIP3    H117949   0.424   3.328   5.682
 5995TIP3    H217950   0.325   3.370   5.788
 5996TIP3   OH217951   1.385   1.171   1.510
 5996TIP3    H117952   1.360   1.087   1.473
 5996TIP3    H217953   1.302   1.218   1.521
 5997TIP3   OH217954   3.940   3.665   1.071
 5997TIP3    H117955   3.933   3.760   1.082
 5997TIP3    H217956   3.915   3.629   1.156
 5998TIP3   OH217957   6.999   6.407   2.463
 5998TIP3    H117958   7.058   6.347   2.509
 5998TIP3    H217959   7.019   6.395   2.370
 5999TIP3   OH217960   5.018   6.269   3.419
 5999TIP3    H117961   4.965   6.317   3.483
 5999TIP3    H217962   5.029   6.182   3.458
 6000TIP3   OH217963   0.231   3.516   5.841
 6000TIP3    H117964   0.261   3.495   5.929
 6000TIP3    H217965   0.136   3.501   5.845
 6001TIP3   OH217966   6.546   4.800   4.152
 6001TIP3    H117967   6.486   4.775   4.223
 6001TIP3    H217968   6.616   4.847   4.196
 6002TIP3   OH217969   1.741   5.634   1.232
 6002TIP3    H117970   1.770   5.543   1.222
 6002TIP3    H217971   1.649   5.628   1.257
 6003TIP3   OH217972   3.432   2.308   3.943
 6003TIP3    H117973   3.517   2.283   3.907
 6003TIP3    H217974   3.405   2.384   3.891
 6004TIP3   OH217975   2.264   2.339   2.115
 6004TIP3    H117976   2.248   2.433   2.109
 6004TIP3    H217977   2.183   2.299   2.084
 6005TIP3   OH217978   6.902   2.558   2.373
 6005TIP3    H117979   6.895   2.632   2.313
 6005TIP3    H217980   6.811   2.529   2.386
 6006TIP3   OH217981   6.974   4.376   2.990
 6006TIP3    H117982   6.897   4.432   2.991
 6006TIP3    H217983   7.008   4.381   2.900
 6007TIP3   OH217984   3.230   0.895   1.546
 6007TIP3    H117985   3.140   0.914   1.519
 6007TIP3    H217986   3.281   0.897   1.465
 6008TIP3   OH217987   5.617   3.703   4.864
 6008TIP3    H117988   5.699   3.699   4.912
 6008TIP3    H217989   5.628   3.640   4.793
 6009TIP3   OH217990   6.322   4.906   0.243
 6009TIP3    H117991   6.279   4.989   0.223
 6009TIP3    H217992   6.263   4.840   0.208
 6010TIP3   OH217993   1.753   1.379   0.345
 6010TIP3    H117994   1.715   1.314   0.285
 6010TIP3    H217995   1.731   1.463   0.305
 6011TIP3   OH217996   0.860   5.840   4.462
 6011TIP3    H117997   0.920   5.803   4.528
 6011TIP3    H217998   0.897   5.925   4.441
 6012TIP3   OH217999   6.326   1.702   0.448
 6012TIP3    H118000   6.246   1.675   0.494
 6012TIP3    H218001   6.397   1.677   0.508
 6013TIP3   OH218002   4.230   6.619   1.604
 6013TIP3    H118003   4.285   6.683   1.650
 6013TIP3    H218004   4.174   6.672   1.548
 6014TIP3   OH218005   0.725   2.254   4.724
 6014TIP3    H118006   0.774   2.324   4.682
 6014TIP3    H218007   0.644   2.296   4.752
 6015TIP3   OH218008   2.924   3.187   5.197
 6015TIP3    H118009   2.866   3.110   5.197
 6015TIP3    H218010   2.864   3.261   5.209
 6016TIP3   OH218011   0.198   3.276   0.530
 6016TIP3    H118012   0.199   3.180   0.537
 6016TIP3    H218013   0.146   3.305   0.605
 6017TIP3   OH218014   5.932   4.372   4.664
 6017TIP3    H118015   5.992   4.315   4.615
 6017TIP3    H218016   5.974   4.458   4.664
 6018TIP3   OH218017   7.052   6.182   5.482
 6018TIP3    H118018   7.137   6.203   5.445
 6018TIP3    H218019   7.040   6.246   5.553
 6019TIP3   OH218020   2.376   6.111   0.495
 6019TIP3    H118021   2.386   6.152   0.409
 6019TIP3    H218022   2.411   6.023   0.483
 6020TIP3   OH218023   6.704   3.029   5.235
 6020TIP3    H118024   6.701   3.042   5.140
 6020TIP3    H218025   6.788   3.068   5.261
 6021TIP3   OH218026   4.168   0.389   4.992
 6021TIP3    H118027   4.117   0.330   4.936
 6021TIP3    H218028   4.111   0.465   5.004
 6022TIP3   OH218029   4.078   2.454   1.970
 6022TIP3    H118030   4.096   2.372   1.923
 6022TIP3    H218031   4.150   2.512   1.946
 6023TIP3   OH218032   2.268   1.479   1.490
 6023TIP3    H118033   2.362   1.474   1.475
 6023TIP3    H218034   2.259   1.515   1.579
 6024TIP3   OH218035   3.627   0.661   2.435
 6024TIP3    H118036   3.553   0.702   2.478
 6024TIP3    H218037   3.589   0.594   2.379
 6025TIP3   OH218038   4.451   2.160   0.381
 6025TIP3    H118039   4.445   2.091   0.315
 6025TIP3    H218040   4.544   2.179   0.389
 6026TIP3   OH218041   3.723   0.763   5.715
 6026TIP3    H118042   3.756   0.771   5.805
 6026TIP3    H218043   3.686   0.674   5.710
 6027TIP3   OH218044   4.626   2.936   4.529
 6027TIP3    H118045   4.638   2.982   4.446
 6027TIP3    H218046   4.709   2.950   4.576
 6028TIP3   OH218047   2.462   3.121   4.377
 6028TIP3    H118048   2.406   3.197   4.393
 6028TIP3    H218049   2.415   3.048   4.417
 6029TIP3   OH218050   0.777   1.702   3.589
 6029TIP3    H118051   0.726   1.718   3.668
 6029TIP3    H218052   0.752   1.614   3.562
 6030TIP3   OH218053   3.974   1.248   1.472
 6030TIP3    H118054   4.026   1.173   1.502
 6030TIP3    H218055   3.899   1.209   1.428
 6031TIP3   OH218056   3.639   2.963   4.180
 6031TIP3    H118057   3.730   2.960   4.151
 6031TIP3    H218058   3.594   3.015   4.113
 6032TIP3   OH218059   0.854   5.845   5.782
 6032TIP3    H118060   0.926   5.825   5.842
 6032TIP3    H218061   0.870   5.790   5.706
 6033TIP3   OH218062   6.312   4.376   3.365
 6033TIP3    H118063   6.317   4.433   3.442
 6033TIP3    H218064   6.355   4.426   3.296
 6034TIP3   OH218065   5.679   1.085   1.074
 6034TIP3    H118066   5.726   1.020   1.127
 6034TIP3    H218067   5.680   1.164   1.128
 6035TIP3   OH218068   6.151   5.692   1.155
 6035TIP3    H118069   6.192   5.707   1.241
 6035TIP3    H218070   6.101   5.771   1.138
 6036TIP3   OH218071   1.125   5.159   5.123
 6036TIP3    H118072   1.104   5.140   5.031
 6036TIP3    H218073   1.045   5.199   5.158
 6037TIP3   OH218074   2.533   0.447   4.268
 6037TIP3    H118075   2.579   0.372   4.229
 6037TIP3    H218076   2.586   0.523   4.243
 6038TIP3   OH218077   4.097   1.031   0.825
 6038TIP3    H118078   4.117   0.938   0.832
 6038TIP3    H218079   4.163   1.073   0.879
 6039TIP3   OH218080   0.417   3.672   5.699
 6039TIP3    H118081   0.457   3.605   5.644
 6039TIP3    H218082   0.357   3.625   5.757
 6040TIP3   OH218083   1.542   4.686   1.649
 6040TIP3    H118084   1.446   4.680   1.645
 6040TIP3    H218085   1.560   4.710   1.740
 6041TIP3   OH218086   0.260   4.225   4.261
 6041TIP3    H118087   0.327   4.192   4.320
 6041TIP3    H218088   0.189   4.255   4.318
 6042TIP3   OH218089   6.716   4.985   4.267
 6042TIP3    H118090   6.697   4.948   4.353
 6042TIP3    H218091   6.698   5.079   4.276
 6043TIP3   OH218092   6.808   5.944   4.743
 6043TIP3    H118093   6.764   5.903   4.817
 6043TIP3    H218094   6.746   6.011   4.713
 6044TIP3   OH218095   4.375   0.662   0.111
 6044TIP3    H118096   4.375   0.592   0.176
 6044TIP3    H218097   4.428   0.629   0.039
 6045TIP3   OH218098   6.550   1.483   4.827
 6045TIP3    H118099   6.505   1.524   4.753
 6045TIP3    H218100   6.480   1.443   4.879
 6046TIP3   OH218101   5.522   1.453   0.741
 6046TIP3    H118102   5.478   1.538   0.739
 6046TIP3    H218103   5.614   1.474   0.729
 6047TIP3   OH218104   2.994   3.995  -0.003
 6047TIP3    H118105   3.082   4.028   0.017
 6047TIP3    H218106   2.980   3.923   0.059
 6048TIP3   OH218107   1.357   3.908   4.302
 6048TIP3    H118108   1.335   3.815   4.314
 6048TIP3    H218109   1.291   3.955   4.353
 6049TIP3   OH218110   2.712   4.138   2.013
 6049TIP3    H118111   2.678   4.118   2.100
 6049TIP3    H218112   2.677   4.068   1.957
 6050TIP3   OH218113   2.317   5.132   1.138
 6050TIP3    H118114   2.341   5.131   1.045
 6050TIP3    H218115   2.238   5.185   1.142
 6051TIP3   OH218116   3.112   0.100   2.147
 6051TIP3    H118117   3.029   0.052   2.155
 6051TIP3    H218118   3.157   0.058   2.074
 6052TIP3   OH218119   0.635   2.903   0.524
 6052TIP3    H118120   0.689   2.824   0.522
 6052TIP3    H218121   0.697   2.975   0.528
 6053TIP3   OH218122   6.300   6.235   3.784
 6053TIP3    H118123   6.334   6.317   3.750
 6053TIP3    H218124   6.281   6.182   3.707
 6054TIP3   OH218125   7.129   0.983   0.255
 6054TIP3    H118126   7.078   1.063   0.240
 6054TIP3    H218127   7.200   1.011   0.314
 6055TIP3   OH218128   5.233   1.881   0.765
 6055TIP3    H118129   5.175   1.805   0.759
 6055TIP3    H218130   5.233   1.905   0.858
 6056TIP3   OH218131   1.166   4.193   2.498
 6056TIP3    H118132   1.208   4.254   2.438
 6056TIP3    H218133   1.072   4.199   2.477
 6057TIP3   OH218134   2.409   2.806   3.395
 6057TIP3    H118135   2.501   2.801   3.371
 6057TIP3    H218136   2.402   2.885   3.449
 6058TIP3   OH218137   6.700   4.933   5.190
 6058TIP3    H118138   6.746   5.007   5.231
 6058TIP3    H218139   6.617   4.971   5.161
 6059TIP3   OH218140   3.604   1.944   4.383
 6059TIP3    H118141   3.573   2.034   4.370
 6059TIP3    H218142   3.699   1.952   4.388
 6060TIP3   OH218143   4.805   3.143   3.943
 6060TIP3    H118144   4.764   3.067   3.986
 6060TIP3    H218145   4.815   3.116   3.852
 6061TIP3   OH218146   4.175   1.212   0.619
 6061TIP3    H118147   4.107   1.200   0.687
 6061TIP3    H218148   4.244   1.151   0.644
 6062TIP3   OH218149   4.411   3.700   5.569
 6062TIP3    H118150   4.402   3.795   5.560
 6062TIP3    H218151   4.501   3.682   5.544
 6063TIP3   OH218152   6.725   5.355   1.168
 6063TIP3    H118153   6.810   5.310   1.164
 6063TIP3    H218154   6.748   5.446   1.189
 6064TIP3   OH218155   3.169   2.876   1.495
 6064TIP3    H118156   3.187   2.840   1.408
 6064TIP3    H218157   3.233   2.832   1.552
 6065TIP3   OH218158   4.319   1.788   0.561
 6065TIP3    H118159   4.406   1.817   0.588
 6065TIP3    H218160   4.279   1.754   0.641
 6066TIP3   OH218161   3.711   3.365   1.896
 6066TIP3    H118162   3.641   3.426   1.919
 6066TIP3    H218163   3.736   3.391   1.807
 6067TIP3   OH218164   2.103   0.039   1.025
 6067TIP3    H118165   2.170  -0.015   1.065
 6067TIP3    H218166   2.151   0.114   0.989
 6068TIP3   OH218167   0.455   6.502   1.132
 6068TIP3    H118168   0.432   6.585   1.173
 6068TIP3    H218169   0.549   6.510   1.114
 6069TIP3   OH218170   5.182   1.803   2.243
 6069TIP3    H118171   5.126   1.727   2.230
 6069TIP3    H218172   5.159   1.835   2.331
 6070TIP3   OH218173   1.579   6.323   1.375
 6070TIP3    H118174   1.568   6.228   1.382
 6070TIP3    H218175   1.553   6.344   1.285
 6071TIP3   OH218176   3.244   0.381   0.904
 6071TIP3    H118177   3.259   0.305   0.848
 6071TIP3    H218178   3.323   0.434   0.896
 6072TIP3   OH218179   5.990   0.698   3.097
 6072TIP3    H118180   5.922   0.675   3.035
 6072TIP3    H218181   5.967   0.651   3.177
 6073TIP3   OH218182   3.113  -0.003   1.224
 6073TIP3    H118183   3.019  -0.011   1.212
 6073TIP3    H218184   3.127   0.089   1.242
 6074TIP3   OH218185   3.124   2.300   0.416
 6074TIP3    H118186   3.063   2.301   0.342
 6074TIP3    H218187   3.207   2.329   0.380
 6075TIP3   OH218188   1.227   6.280   2.568
 6075TIP3    H118189   1.275   6.361   2.550
 6075TIP3    H218190   1.140   6.308   2.595
 6076TIP3   OH218191   4.252   5.401   0.833
 6076TIP3    H118192   4.255   5.309   0.806
 6076TIP3    H218193   4.334   5.438   0.801
 6077TIP3   OH218194   2.572   5.324   3.606
 6077TIP3    H118195   2.519   5.390   3.562
 6077TIP3    H218196   2.645   5.308   3.546
 6078TIP3   OH218197   5.867   4.244   0.628
 6078TIP3    H118198   5.917   4.294   0.692
 6078TIP3    H218199   5.807   4.307   0.589
 6079TIP3   OH218200   1.166   4.048   1.102
 6079TIP3    H118201   1.109   4.108   1.053
 6079TIP3    H218202   1.236   4.027   1.040
 6080TIP3   OH218203   6.391   1.245   2.152
 6080TIP3    H118204   6.458   1.185   2.184
 6080TIP3    H218205   6.334   1.261   2.228
 6081TIP3   OH218206   3.568   3.338   0.399
 6081TIP3    H118207   3.531   3.368   0.316
 6081TIP3    H218208   3.507   3.373   0.465
 6082TIP3   OH218209   4.374   6.420   0.695
 6082TIP3    H118210   4.449   6.478   0.708
 6082TIP3    H218211   4.361   6.418   0.600
 6083TIP3   OH218212   0.953   4.316   5.555
 6083TIP3    H118213   0.971   4.224   5.532
 6083TIP3    H218214   1.039   4.358   5.551
 6084TIP3   OH218215   6.825   3.292   4.603
 6084TIP3    H118216   6.758   3.355   4.577
 6084TIP3    H218217   6.853   3.252   4.521
 6085TIP3   OH218218   4.284   3.417   5.038
 6085TIP3    H118219   4.263   3.335   4.993
 6085TIP3    H218220   4.246   3.406   5.125
 6086TIP3   OH218221   1.437   6.149   2.724
 6086TIP3    H118222   1.370   6.106   2.777
 6086TIP3    H218223   1.389   6.191   2.653
 6087TIP3   OH218224   3.562   3.402   5.680
 6087TIP3    H118225   3.633   3.341   5.662
 6087TIP3    H218226   3.553   3.402   5.775
 6088TIP3   OH218227   5.381   5.715   2.268
 6088TIP3    H118228   5.374   5.684   2.177
 6088TIP3    H218229   5.337   5.800   2.267
 6089TIP3   OH218230   6.983   1.956   0.027
 6089TIP3    H118231   6.994   1.900  -0.050
 6089TIP3    H218232   7.022   2.040   0.002
 6090TIP3   OH218233   0.569   6.189   3.337
 6090TIP3    H118234   0.520   6.195   3.419
 6090TIP3    H218235   0.652   6.232   3.355
 6091TIP3   OH218236   1.061   5.455   0.211
 6091TIP3    H118237   1.077   5.398   0.136
 6091TIP3    H218238   1.111   5.415   0.282
 6092TIP3   OH218239   4.884   1.558   0.346
 6092TIP3    H118240   4.974   1.588   0.357
 6092TIP3    H218241   4.841   1.578   0.429
 6093TIP3   OH218242   1.334   2.413   4.943
 6093TIP3    H118243   1.268   2.450   5.002
 6093TIP3    H218244   1.286   2.394   4.863
 6094TIP3   OH218245   2.669   3.396   3.239
 6094TIP3    H118246   2.602   3.349   3.289
 6094TIP3    H218247   2.638   3.393   3.148
 6095TIP3   OH218248   1.567   4.691   5.561
 6095TIP3    H118249   1.583   4.638   5.483
 6095TIP3    H218250   1.653   4.705   5.599
 6096TIP3   OH218251   2.715   5.068   5.387
 6096TIP3    H118252   2.767   5.030   5.458
 6096TIP3    H218253   2.748   5.157   5.378
 6097TIP3   OH218254   0.551   5.957   5.371
 6097TIP3    H118255   0.596   6.028   5.416
 6097TIP3    H218256   0.483   5.929   5.432
 6098TIP3   OH218257   2.713   5.974   3.399
 6098TIP3    H118258   2.769   5.908   3.358
 6098TIP3    H218259   2.632   5.927   3.419
 6099TIP3   OH218260   3.953   2.406   2.207
 6099TIP3    H118261   3.997   2.412   2.123
 6099TIP3    H218262   4.007   2.457   2.267
 6100TIP3   OH218263   2.828   3.988   2.912
 6100TIP3    H118264   2.838   4.068   2.964
 6100TIP3    H218265   2.747   3.948   2.945
 6101TIP3   OH218266   3.966   2.254   4.413
 6101TIP3    H118267   3.882   2.246   4.458
 6101TIP3    H218268   3.944   2.296   4.330
 6102TIP3   OH218269   6.029   4.473   4.908
 6102TIP3    H118270   6.040   4.567   4.922
 6102TIP3    H218271   5.953   4.466   4.850
 6103TIP3   OH218272   3.585   5.299   4.247
 6103TIP3    H118273   3.642   5.241   4.196
 6103TIP3    H218274   3.542   5.241   4.310
 6104TIP3   OH218275   6.381   1.096   0.806
 6104TIP3    H118276   6.469   1.096   0.844
 6104TIP3    H218277   6.381   1.023   0.744
 6105TIP3   OH218278   3.194   1.902   2.402
 6105TIP3    H118279   3.205   1.866   2.314
 6105TIP3    H218280   3.259   1.973   2.408
 6106TIP3   OH218281   6.866   5.216   2.403
 6106TIP3    H118282   6.941   5.247   2.352
 6106TIP3    H218283   6.802   5.287   2.397
 6107TIP3   OH218284   5.396   5.695   3.754
 6107TIP3    H118285   5.456   5.756   3.796
 6107TIP3    H218286   5.310   5.715   3.793
 6108TIP3   OH218287   2.170   0.627   0.836
 6108TIP3    H118288   2.113   0.577   0.894
 6108TIP3    H218289   2.181   0.571   0.759
 6109TIP3   OH218290   6.156   5.346   3.295
 6109TIP3    H118291   6.204   5.272   3.331
 6109TIP3    H218292   6.064   5.327   3.313
 6110TIP3   OH218293   5.466   1.268   3.471
 6110TIP3    H118294   5.516   1.330   3.419
 6110TIP3    H218295   5.530   1.205   3.504
 6111TIP3   OH218296   1.479   5.057   0.314
 6111TIP3    H118297   1.385   5.075   0.315
 6111TIP3    H218298   1.508   5.088   0.229
 6112TIP3   OH218299   2.496   5.287   3.252
 6112TIP3    H118300   2.576   5.306   3.299
 6112TIP3    H218301   2.512   5.318   3.163
 6113TIP3   OH218302   1.504   1.417   5.331
 6113TIP3    H118303   1.490   1.474   5.407
 6113TIP3    H218304   1.445   1.452   5.264
 6114TIP3   OH218305   2.957   4.519   3.813
 6114TIP3    H118306   2.917   4.604   3.793
 6114TIP3    H218307   3.038   4.542   3.860
 6115TIP3   OH218308   3.312   4.952   1.085
 6115TIP3    H118309   3.342   4.938   0.995
 6115TIP3    H218310   3.231   4.903   1.091
 6116TIP3   OH218311   5.960   6.201   4.019
 6116TIP3    H118312   5.864   6.197   4.018
 6116TIP3    H218313   5.986   6.131   4.079
 6117TIP3   OH218314   5.781   3.887   3.547
 6117TIP3    H118315   5.802   3.935   3.467
 6117TIP3    H218316   5.725   3.815   3.518
 6118TIP3   OH218317   3.373   1.719   5.338
 6118TIP3    H118318   3.298   1.708   5.396
 6118TIP3    H218319   3.335   1.736   5.252
 6119TIP3   OH218320   1.837   5.886   1.370
 6119TIP3    H118321   1.802   5.803   1.335
 6119TIP3    H218322   1.766   5.920   1.425
 6120TIP3   OH218323   2.114   0.011   0.613
 6120TIP3    H118324   2.189  -0.043   0.588
 6120TIP3    H218325   2.060  -0.046   0.668
 6121TIP3   OH218326   4.424   3.537   2.525
 6121TIP3    H118327   4.346   3.535   2.580
 6121TIP3    H218328   4.475   3.611   2.560
 6122TIP3   OH218329   1.859   0.795   2.871
 6122TIP3    H118330   1.856   0.889   2.853
 6122TIP3    H218331   1.854   0.754   2.785
 6123TIP3   OH218332   6.989   5.247   0.429
 6123TIP3    H118333   7.078   5.272   0.454
 6123TIP3    H218334   6.970   5.300   0.351
 6124TIP3   OH218335   5.234   3.249   0.437
 6124TIP3    H118336   5.298   3.283   0.499
 6124TIP3    H218337   5.209   3.325   0.385
 6125TIP3   OH218338   0.109   2.371   0.945
 6125TIP3    H118339   0.161   2.450   0.928
 6125TIP3    H218340   0.020   2.395   0.918
 6126TIP3   OH218341   5.838   0.955   1.274
 6126TIP3    H118342   5.841   0.869   1.315
 6126TIP3    H218343   5.906   1.006   1.318
 6127TIP3   OH218344   1.557   0.154   5.392
 6127TIP3    H118345   1.599   0.147   5.306
 6127TIP3    H218346   1.536   0.247   5.402
 6128TIP3   OH218347   3.271   3.062   3.044
 6128TIP3    H118348   3.321   3.136   3.010
 6128TIP3    H218349   3.331   3.017   3.102
 6129TIP3   OH218350   1.399   1.118   3.155
 6129TIP3    H118351   1.402   1.027   3.125
 6129TIP3    H218352   1.321   1.155   3.114
 6130TIP3   OH218353   2.802   0.695   4.888
 6130TIP3    H118354   2.732   0.721   4.948
 6130TIP3    H218355   2.881   0.698   4.942
 6131TIP3   OH218356   4.406   1.168   3.111
 6131TIP3    H118357   4.464   1.196   3.040
 6131TIP3    H218358   4.327   1.139   3.067
 6132TIP3   OH218359   5.953   6.716   4.905
 6132TIP3    H118360   5.973   6.722   4.998
 6132TIP3    H218361   5.893   6.789   4.889
 6133TIP3   OH218362   0.330   5.508   1.367
 6133TIP3    H118363   0.367   5.543   1.448
 6133TIP3    H218364   0.402   5.513   1.304
 6134TIP3   OH218365   3.015   0.806   2.198
 6134TIP3    H118366   3.110   0.813   2.206
 6134TIP3    H218367   2.981   0.844   2.279
 6135TIP3   OH218368   3.521   5.875   5.821
 6135TIP3    H118369   3.582   5.804   5.842
 6135TIP3    H218370   3.563   5.921   5.748
 6136TIP3   OH218371   5.181   5.176   4.563
 6136TIP3    H118372   5.233   5.119   4.505
 6136TIP3    H218373   5.217   5.263   4.549
 6137TIP3   OH218374   6.317   5.558   3.660
 6137TIP3    H118375   6.354   5.568   3.572
 6137TIP3    H218376   6.390   5.572   3.719
 6138TIP3   OH218377   0.054   2.245   1.809
 6138TIP3    H118378   0.021   2.251   1.719
 6138TIP3    H218379  -0.019   2.211   1.860
 6139TIP3   OH218380   3.431   1.376   3.990
 6139TIP3    H118381   3.502   1.414   3.939
 6139TIP3    H218382   3.384   1.452   4.026
 6140TIP3   OH218383   5.881   0.705   1.369
 6140TIP3    H118384   5.950   0.648   1.403
 6140TIP3    H218385   5.879   0.686   1.275
 6141TIP3   OH218386   3.351   5.888   0.471
 6141TIP3    H118387   3.437   5.917   0.441
 6141TIP3    H218388   3.311   5.848   0.394
 6142TIP3   OH218389   3.199   3.301   2.890
 6142TIP3    H118390   3.214   3.269   2.801
 6142TIP3    H218391   3.103   3.302   2.899
 6143TIP3   OH218392   7.239   2.351   5.279
 6143TIP3    H118393   7.165   2.312   5.233
 6143TIP3    H218394   7.228   2.446   5.267
 6144TIP3   OH218395   0.616   5.665   2.463
 6144TIP3    H118396   0.695   5.713   2.440
 6144TIP3    H218397   0.603   5.603   2.391
 6145TIP3   OH218398   0.862   4.991   0.657
 6145TIP3    H118399   0.876   5.063   0.719
 6145TIP3    H218400   0.790   5.021   0.602
 6146TIP3   OH218401   5.422   0.249   5.365
 6146TIP3    H118402   5.421   0.254   5.461
 6146TIP3    H218403   5.329   0.251   5.341
 6147TIP3   OH218404   1.116   2.186   4.137
 6147TIP3    H118405   1.083   2.273   4.159
 6147TIP3    H218406   1.211   2.197   4.135
 6148TIP3   OH218407   5.471   5.232   3.879
 6148TIP3    H118408   5.438   5.290   3.810
 6148TIP3    H218409   5.397   5.176   3.901
 6149TIP3   OH218410   1.561   2.846   3.666
 6149TIP3    H118411   1.545   2.842   3.571
 6149TIP3    H218412   1.485   2.804   3.705
 6150TIP3   OH218413   3.672   6.104   2.825
 6150TIP3    H118414   3.701   6.185   2.865
 6150TIP3    H218415   3.633   6.054   2.897
 6151TIP3   OH218416   7.025   5.128   4.243
 6151TIP3    H118417   6.988   5.076   4.171
 6151TIP3    H218418   7.010   5.075   4.321
 6152TIP3   OH218419   6.405   2.927   3.400
 6152TIP3    H118420   6.427   3.006   3.351
 6152TIP3    H218421   6.310   2.927   3.405
 6153TIP3   OH218422   6.886   1.604   5.408
 6153TIP3    H118423   6.942   1.653   5.468
 6153TIP3    H218424   6.947   1.554   5.354
 6154TIP3   OH218425   2.110   2.316   1.434
 6154TIP3    H118426   2.132   2.308   1.342
 6154TIP3    H218427   2.172   2.381   1.468
 6155TIP3   OH218428   3.089   6.211   3.318
 6155TIP3    H118429   3.060   6.279   3.379
 6155TIP3    H218430   3.086   6.130   3.369
 6156TIP3   OH218431   2.911   2.531   0.347
 6156TIP3    H118432   2.880   2.491   0.428
 6156TIP3    H218433   3.007   2.530   0.356
 6157TIP3   OH218434   4.708   4.637   2.510
 6157TIP3    H118435   4.615   4.617   2.525
 6157TIP3    H218436   4.714   4.732   2.521
 6158TIP3   OH218437   1.110   4.337   1.446
 6158TIP3    H118438   1.111   4.420   1.494
 6158TIP3    H218439   1.163   4.354   1.368
 6159TIP3   OH218440   4.723   4.837   5.478
 6159TIP3    H118441   4.720   4.766   5.413
 6159TIP3    H218442   4.767   4.799   5.553
 6160TIP3   OH218443   4.705   2.199   0.824
 6160TIP3    H118444   4.774   2.179   0.760
 6160TIP3    H218445   4.667   2.281   0.793
 6161TIP3   OH218446   0.630   6.543   3.622
 6161TIP3    H118447   0.644   6.608   3.691
 6161TIP3    H218448   0.704   6.555   3.562
 6162TIP3   OH218449   4.668   0.364   5.188
 6162TIP3    H118450   4.581   0.372   5.148
 6162TIP3    H218451   4.698   0.277   5.163
 6163TIP3   OH218452   4.193   4.270   5.526
 6163TIP3    H118453   4.259   4.219   5.479
 6163TIP3    H218454   4.240   4.305   5.602
 6164TIP3   OH218455   7.051   1.540   2.106
 6164TIP3    H118456   6.962   1.521   2.074
 6164TIP3    H218457   7.075   1.620   2.061
 6165TIP3   OH218458   5.993   6.376   0.273
 6165TIP3    H118459   6.036   6.460   0.255
 6165TIP3    H218460   5.912   6.379   0.221
 6166TIP3   OH218461   6.151   2.856   5.387
 6166TIP3    H118462   6.061   2.885   5.371
 6166TIP3    H218463   6.204   2.933   5.369
 6167TIP3   OH218464   3.360   3.234   2.037
 6167TIP3    H118465   3.427   3.272   2.094
 6167TIP3    H218466   3.314   3.309   2.000
 6168TIP3   OH218467   2.500   4.020   5.186
 6168TIP3    H118468   2.544   4.024   5.101
 6168TIP3    H218469   2.503   4.109   5.219
 6169TIP3   OH218470   1.114   0.660   3.891
 6169TIP3    H118471   1.067   0.597   3.838
 6169TIP3    H218472   1.083   0.644   3.980
 6170TIP3   OH218473   6.634   4.832   4.898
 6170TIP3    H118474   6.549   4.871   4.918
 6170TIP3    H218475   6.694   4.906   4.892
 6171TIP3   OH218476   5.655   5.460   2.285
 6171TIP3    H118477   5.710   5.436   2.360
 6171TIP3    H218478   5.669   5.555   2.276
 6172TIP3   OH218479   2.555   6.464   0.422
 6172TIP3    H118480   2.612   6.529   0.464
 6172TIP3    H218481   2.579   6.466   0.330
 6173TIP3   OH218482   3.269   6.248   4.192
 6173TIP3    H118483   3.236   6.178   4.136
 6173TIP3    H218484   3.282   6.207   4.277
 6174TIP3   OH218485   4.543   6.660   1.822
 6174TIP3    H118486   4.585   6.672   1.907
 6174TIP3    H218487   4.613   6.673   1.759
 6175TIP3   OH218488   2.200   6.080   2.812
 6175TIP3    H118489   2.289   6.056   2.837
 6175TIP3    H218490   2.159   5.996   2.788
 6176TIP3   OH218491   4.135   0.108   5.510
 6176TIP3    H118492   4.230   0.098   5.518
 6176TIP3    H218493   4.118   0.198   5.537
 6177TIP3   OH218494   4.750   2.244   2.075
 6177TIP3    H118495   4.736   2.271   2.166
 6177TIP3    H218496   4.672   2.274   2.029
 6178TIP3   OH218497   4.021   5.008   5.104
 6178TIP3    H118498   3.971   4.927   5.098
 6178TIP3    H218499   3.987   5.063   5.034
 6179TIP3   OH218500   3.995   6.590   1.749
 6179TIP3    H118501   4.090   6.605   1.748
 6179TIP3    H218502   3.972   6.575   1.657
 6180TIP3   OH218503   5.833   0.816   4.888
 6180TIP3    H118504   5.928   0.805   4.884
 6180TIP3    H218505   5.806   0.826   4.796
 6181TIP3   OH218506   6.927   0.401   4.057
 6181TIP3    H118507   6.869   0.476   4.067
 6181TIP3    H218508   6.988   0.407   4.130
 6182TIP3   OH218509   3.199   5.919   0.886
 6182TIP3    H118510   3.220   5.956   0.972
 6182TIP3    H218511   3.283   5.888   0.852
 6183TIP3   OH218512   6.405   0.162   5.445
 6183TIP3    H118513   6.477   0.102   5.468
 6183TIP3    H218514   6.411   0.171   5.350
 6184TIP3   OH218515   1.191   3.265   5.162
 6184TIP3    H118516   1.144   3.344   5.136
 6184TIP3    H218517   1.169   3.254   5.254
 6185TIP3   OH218518   2.707   0.847   2.284
 6185TIP3    H118519   2.626   0.820   2.328
 6185TIP3    H218520   2.705   0.800   2.200
 6186TIP3   OH218521   1.552   2.601   5.017
 6186TIP3    H118522   1.483   2.536   5.003
 6186TIP3    H218523   1.627   2.550   5.048
 6187TIP3   OH218524   3.384   1.577   2.938
 6187TIP3    H118525   3.402   1.670   2.946
 6187TIP3    H218526   3.469   1.535   2.953
 6188TIP3   OH218527   5.918   6.000   3.831
 6188TIP3    H118528   5.868   5.937   3.883
 6188TIP3    H218529   5.942   6.069   3.893
 6189TIP3   OH218530   3.491   4.279   5.555
 6189TIP3    H118531   3.549   4.234   5.495
 6189TIP3    H218532   3.479   4.366   5.517
 6190TIP3   OH218533   6.967   0.170   4.747
 6190TIP3    H118534   7.049   0.207   4.780
 6190TIP3    H218535   6.993   0.089   4.703
 6191TIP3   OH218536   1.701   2.389   1.381
 6191TIP3    H118537   1.693   2.319   1.315
 6191TIP3    H218538   1.744   2.346   1.455
 6192TIP3   OH218539   7.024   2.517   0.833
 6192TIP3    H118540   6.961   2.464   0.784
 6192TIP3    H218541   7.004   2.500   0.925
 6193TIP3   OH218542   0.466   3.870   2.208
 6193TIP3    H118543   0.471   3.875   2.112
 6193TIP3    H218544   0.408   3.942   2.233
 6194TIP3   OH218545   3.302   2.301   4.757
 6194TIP3    H118546   3.341   2.343   4.681
 6194TIP3    H218547   3.223   2.352   4.774
 6195TIP3   OH218548   1.486   4.317   4.303
 6195TIP3    H118549   1.515   4.247   4.361
 6195TIP3    H218550   1.544   4.390   4.323
 6196TIP3   OH218551   1.550   6.618   2.410
 6196TIP3    H118552   1.586   6.586   2.327
 6196TIP3    H218553   1.545   6.541   2.466
 6197TIP3   OH218554   3.329   0.539   3.793
 6197TIP3    H118555   3.291   0.451   3.797
 6197TIP3    H218556   3.276   0.590   3.855
 6198TIP3   OH218557   4.774   4.722   2.023
 6198TIP3    H118558   4.788   4.627   2.033
 6198TIP3    H218559   4.743   4.732   1.933
 6199TIP3   OH218560   7.032   3.845   2.067
 6199TIP3    H118561   6.994   3.879   2.148
 6199TIP3    H218562   7.125   3.835   2.086
 6200TIP3   OH218563   1.014   5.676   0.403
 6200TIP3    H118564   0.920   5.686   0.386
 6200TIP3    H218565   1.044   5.616   0.334
 6201TIP3   OH218566   2.389   0.207   5.816
 6201TIP3    H118567   2.335   0.248   5.884
 6201TIP3    H218568   2.327   0.159   5.761
 6202TIP3   OH218569   6.957   4.898   2.336
 6202TIP3    H118570   7.031   4.838   2.333
 6202TIP3    H218571   6.938   4.907   2.430
 6203TIP3   OH218572   5.343   5.885   2.551
 6203TIP3    H118573   5.422   5.859   2.503
 6203TIP3    H218574   5.324   5.973   2.521
 6204TIP3   OH218575   6.171   3.929   2.789
 6204TIP3    H118576   6.169   3.969   2.876
 6204TIP3    H218577   6.257   3.888   2.783
 6205TIP3   OH218578   4.472   5.897   4.955
 6205TIP3    H118579   4.505   5.857   5.036
 6205TIP3    H218580   4.537   5.964   4.934
 6206TIP3   OH218581   4.648   4.288   2.273
 6206TIP3    H118582   4.704   4.216   2.247
 6206TIP3    H218583   4.708   4.361   2.290
 6207TIP3   OH218584   3.186   5.428   0.462
 6207TIP3    H118585   3.168   5.396   0.550
 6207TIP3    H218586   3.142   5.366   0.404
 6208TIP3   OH218587   6.313   4.112   3.590
 6208TIP3    H118588   6.308   4.205   3.612
 6208TIP3    H218589   6.325   4.111   3.495
 6209TIP3   OH218590   0.411   5.678   2.644
 6209TIP3    H118591   0.485   5.665   2.585
 6209TIP3    H218592   0.436   5.754   2.698
 6210TIP3   OH218593   0.641   4.312   2.664
 6210TIP3    H118594   0.689   4.231   2.682
 6210TIP3    H218595   0.579   4.319   2.737
 6211TIP3   OH218596   4.562   6.342   3.821
 6211TIP3    H118597   4.553   6.301   3.735
 6211TIP3    H218598   4.510   6.422   3.815
 6212TIP3   OH218599   4.983   3.132   4.494
 6212TIP3    H118600   4.915   3.199   4.485
 6212TIP3    H218601   5.000   3.126   4.588
 6213TIP3   OH218602   4.814   1.182   4.687
 6213TIP3    H118603   4.873   1.106   4.694
 6213TIP3    H218604   4.868   1.256   4.714
 6214TIP3   OH218605   5.522   6.197   3.828
 6214TIP3    H118606   5.435   6.230   3.850
 6214TIP3    H218607   5.513   6.165   3.738
 6215TIP3   OH218608   0.020   3.670   5.034
 6215TIP3    H118609   0.105   3.675   4.991
 6215TIP3    H218610   0.025   3.732   5.106
 6216TIP3   OH218611   2.640   2.656   4.812
 6216TIP3    H118612   2.729   2.692   4.817
 6216TIP3    H218613   2.650   2.572   4.768
 6217TIP3   OH218614   1.345   5.586   3.797
 6217TIP3    H118615   1.405   5.660   3.789
 6217TIP3    H218616   1.304   5.597   3.882
 6218TIP3   OH218617   1.315   1.994   1.493
 6218TIP3    H118618   1.397   2.001   1.443
 6218TIP3    H218619   1.317   2.069   1.552
 6219TIP3   OH218620   5.107   5.899   1.431
 6219TIP3    H118621   5.034   5.861   1.480
 6219TIP3    H218622   5.088   5.992   1.427
 6220TIP3   OH218623   4.206   4.572   1.661
 6220TIP3    H118624   4.247   4.516   1.595
 6220TIP3    H218625   4.278   4.597   1.719
 6221TIP3   OH218626   2.142   2.770   3.395
 6221TIP3    H118627   2.077   2.838   3.379
 6221TIP3    H218628   2.221   2.818   3.421
 6222TIP3   OH218629   4.219   3.642   5.230
 6222TIP3    H118630   4.232   3.722   5.281
 6222TIP3    H218631   4.248   3.572   5.288
 6223TIP3   OH218632   5.690   1.955   5.015
 6223TIP3    H118633   5.757   2.014   5.051
 6223TIP3    H218634   5.739   1.888   4.968
 6224TIP3   OH218635   4.224   3.247   0.436
 6224TIP3    H118636   4.286   3.229   0.365
 6224TIP3    H218637   4.210   3.341   0.432
 6225TIP3   OH218638   1.658   6.735   5.150
 6225TIP3    H118639   1.739   6.785   5.165
 6225TIP3    H218640   1.630   6.709   5.238
 6226TIP3   OH218641   1.229   1.424   1.818
 6226TIP3    H118642   1.211   1.448   1.727
 6226TIP3    H218643   1.152   1.374   1.845
 6227TIP3   OH218644   0.216   0.262   5.558
 6227TIP3    H118645   0.247   0.178   5.523
 6227TIP3    H218646   0.123   0.247   5.575
 6228TIP3   OH218647   0.771   3.070   0.249
 6228TIP3    H118648   0.767   3.080   0.344
 6228TIP3    H218649   0.865   3.060   0.231
 6229TIP3   OH218650   5.190   5.233   1.911
 6229TIP3    H118651   5.284   5.242   1.900
 6229TIP3    H218652   5.152   5.284   1.839
 6230TIP3   OH218653   5.091   1.294   5.284
 6230TIP3    H118654   5.076   1.210   5.239
 6230TIP3    H218655   5.070   1.360   5.218
 6231TIP3   OH218656   4.959   3.808   5.305
 6231TIP3    H118657   4.935   3.808   5.397
 6231TIP3    H218658   4.999   3.894   5.290
 6232TIP3   OH218659   4.106   3.671   5.503
 6232TIP3    H118660   4.187   3.694   5.550
 6232TIP3    H218661   4.096   3.741   5.439
 6233TIP3   OH218662   2.431   3.822   5.364
 6233TIP3    H118663   2.336   3.828   5.353
 6233TIP3    H218664   2.466   3.888   5.303
 6234TIP3   OH218665   0.072   3.077   3.792
 6234TIP3    H118666  -0.007   3.093   3.844
 6234TIP3    H218667   0.143   3.077   3.857
 6235TIP3   OH218668   6.053   6.078   1.753
 6235TIP3    H118669   6.010   6.082   1.839
 6235TIP3    H218670   6.068   5.984   1.739
 6236TIP3   OH218671   5.016   4.824   2.511
 6236TIP3    H118672   5.050   4.910   2.535
 6236TIP3    H218673   4.931   4.843   2.471
 6237TIP3   OH218674   4.882   0.449   3.084
 6237TIP3    H118675   4.876   0.453   2.988
 6237TIP3    H218676   4.792   0.431   3.113
 6238TIP3   OH218677   3.748   4.902   1.719
 6238TIP3    H118678   3.843   4.909   1.719
 6238TIP3    H218679   3.730   4.815   1.684
 6239TIP3   OH218680   4.577   0.358   0.924
 6239TIP3    H118681   4.599   0.303   0.848
 6239TIP3    H218682   4.524   0.302   0.980
 6240TIP3   OH218683   1.285   0.390   0.215
 6240TIP3    H118684   1.318   0.327   0.152
 6240TIP3    H218685   1.192   0.397   0.195
 6241TIP3   OH218686   1.539   5.661   3.487
 6241TIP3    H118687   1.560   5.582   3.437
 6241TIP3    H218688   1.449   5.682   3.464
 6242TIP3   OH218689   4.082   6.209   0.976
 6242TIP3    H118690   4.127   6.149   0.917
 6242TIP3    H218691   4.137   6.288   0.977
 6243TIP3   OH218692   2.182   1.630   0.644
 6243TIP3    H118693   2.148   1.567   0.581
 6243TIP3    H218694   2.105   1.662   0.690
 6244TIP3   OH218695   5.816   6.116   0.236
 6244TIP3    H118696   5.853   6.109   0.148
 6244TIP3    H218697   5.848   6.200   0.269
 6245TIP3   OH218698   6.789   6.590   1.027
 6245TIP3    H118699   6.701   6.622   1.043
 6245TIP3    H218700   6.842   6.669   1.014
 6246TIP3   OH218701   4.649   2.313   2.904
 6246TIP3    H118702   4.560   2.346   2.921
 6246TIP3    H218703   4.635   2.229   2.860
 6247TIP3   OH218704   3.498   0.244   3.671
 6247TIP3    H118705   3.502   0.273   3.762
 6247TIP3    H218706   3.588   0.219   3.649
 6248TIP3   OH218707   0.563   0.671   5.600
 6248TIP3    H118708   0.482   0.632   5.567
 6248TIP3    H218709   0.578   0.627   5.684
 6249TIP3   OH218710   0.831   0.833   2.340
 6249TIP3    H118711   0.756   0.774   2.330
 6249TIP3    H218712   0.834   0.882   2.258
 6250TIP3   OH218713   7.212   4.506   0.255
 6250TIP3    H118714   7.267   4.557   0.195
 6250TIP3    H218715   7.123   4.540   0.239
 6251TIP3   OH218716   0.058   3.559   1.488
 6251TIP3    H118717   0.011   3.638   1.517
 6251TIP3    H218718   0.138   3.592   1.448
 6252TIP3   OH218719   0.764   4.726   4.529
 6252TIP3    H118720   0.720   4.780   4.595
 6252TIP3    H218721   0.820   4.788   4.482
 6253TIP3   OH218722   5.247   6.606   3.727
 6253TIP3    H118723   5.169   6.600   3.672
 6253TIP3    H218724   5.214   6.620   3.815
 6254TIP3   OH218725   1.130   2.288   2.436
 6254TIP3    H118726   1.056   2.312   2.381
 6254TIP3    H218727   1.099   2.216   2.490
 6255TIP3   OH218728   1.813   1.938   1.485
 6255TIP3    H118729   1.877   1.972   1.422
 6255TIP3    H218730   1.797   1.848   1.457
 6256TIP3   OH218731   3.991   1.899   5.537
 6256TIP3    H118732   3.911   1.950   5.527
 6256TIP3    H218733   3.962   1.808   5.536
 6257TIP3   OH218734   4.533   1.445   2.791
 6257TIP3    H118735   4.615   1.467   2.745
 6257TIP3    H218736   4.471   1.511   2.760
 6258TIP3   OH218737   4.385   1.364   0.805
 6258TIP3    H118738   4.451   1.416   0.852
 6258TIP3    H218739   4.424   1.277   0.798
 6259TIP3   OH218740   0.388   2.836   0.432
 6259TIP3    H118741   0.402   2.818   0.339
 6259TIP3    H218742   0.473   2.868   0.462
 6260TIP3   OH218743   5.502   5.190   0.265
 6260TIP3    H118744   5.423   5.217   0.312
 6260TIP3    H218745   5.574   5.227   0.317
 6261TIP3   OH218746   1.319   5.355   3.036
 6261TIP3    H118747   1.367   5.287   2.990
 6261TIP3    H218748   1.326   5.432   2.981
 6262TIP3   OH218749   0.329   3.671   1.418
 6262TIP3    H118750   0.404   3.616   1.444
 6262TIP3    H218751   0.362   3.760   1.424
 6263TIP3   OH218752   2.205   5.751   2.988
 6263TIP3    H118753   2.291   5.784   2.962
 6263TIP3    H218754   2.177   5.809   3.059
 6264TIP3   OH218755   5.457   4.727   3.428
 6264TIP3    H118756   5.406   4.808   3.438
 6264TIP3    H218757   5.468   4.718   3.333
 6265TIP3   OH218758   2.556   4.835   2.458
 6265TIP3    H118759   2.556   4.786   2.376
 6265TIP3    H218760   2.647   4.863   2.469
 6266TIP3   OH218761   1.849   5.750   3.945
 6266TIP3    H118762   1.820   5.717   3.860
 6266TIP3    H218763   1.778   5.729   4.005
 6267TIP3   OH218764   6.930   1.161   0.698
 6267TIP3    H118765   6.854   1.118   0.661
 6267TIP3    H218766   6.987   1.179   0.623
 6268TIP3   OH218767   2.302   0.334   2.610
 6268TIP3    H118768   2.355   0.255   2.601
 6268TIP3    H218769   2.313   0.359   2.702
 6269TIP3   OH218770   6.387   0.242   5.853
 6269TIP3    H118771   6.480   0.261   5.838
 6269TIP3    H218772   6.341   0.298   5.790
 6270TIP3   OH218773   0.680   0.902   0.241
 6270TIP3    H118774   0.588   0.928   0.241
 6270TIP3    H218775   0.680   0.813   0.205
 6271TIP3   OH218776   3.190   6.694   5.356
 6271TIP3    H118777   3.230   6.607   5.362
 6271TIP3    H218778   3.174   6.719   5.447
 6272TIP3   OH218779   1.020   5.601   1.399
 6272TIP3    H118780   1.018   5.513   1.437
 6272TIP3    H218781   1.072   5.653   1.461
 6273TIP3   OH218782   0.663   4.825   0.271
 6273TIP3    H118783   0.708   4.747   0.237
 6273TIP3    H218784   0.632   4.799   0.357
 6274TIP3   OH218785  -0.024   3.562   3.065
 6274TIP3    H118786   0.012   3.633   3.117
 6274TIP3    H218787   0.030   3.560   2.986
 6275TIP3   OH218788   0.622   1.181   3.274
 6275TIP3    H118789   0.618   1.274   3.298
 6275TIP3    H218790   0.700   1.174   3.220
 6276TIP3   OH218791   2.462   4.470   0.717
 6276TIP3    H118792   2.377   4.433   0.741
 6276TIP3    H218793   2.442   4.532   0.647
 6277TIP3   OH218794   1.340   2.424   3.621
 6277TIP3    H118795   1.295   2.491   3.570
 6277TIP3    H218796   1.433   2.445   3.610
 6278TIP3   OH218797   2.637   6.410   4.357
 6278TIP3    H118798   2.616   6.408   4.264
 6278TIP3    H218799   2.553   6.395   4.401
 6279TIP3   OH218800   5.486   5.210   1.933
 6279TIP3    H118801   5.504   5.296   1.970
 6279TIP3    H218802   5.518   5.148   1.998
 6280TIP3   OH218803   1.938   3.550   4.676
 6280TIP3    H118804   1.998   3.528   4.604
 6280TIP3    H218805   1.988   3.609   4.732
 6281TIP3   OH218806   4.786   5.532   0.256
 6281TIP3    H118807   4.711   5.492   0.301
 6281TIP3    H218808   4.746   5.590   0.191
 6282TIP3   OH218809   4.900   6.313   0.105
 6282TIP3    H118810   4.978   6.347   0.062
 6282TIP3    H218811   4.928   6.294   0.195
 6283TIP3   OH218812   1.211   2.717   2.055
 6283TIP3    H118813   1.259   2.800   2.046
 6283TIP3    H218814   1.229   2.670   1.974
 6284TIP3   OH218815   5.323   1.630   5.636
 6284TIP3    H118816   5.252   1.569   5.614
 6284TIP3    H218817   5.400   1.574   5.643
 6285TIP3   OH218818   6.363   5.310   5.633
 6285TIP3    H118819   6.395   5.364   5.706
 6285TIP3    H218820   6.432   5.245   5.619
 6286TIP3   OH218821   5.681   2.126   2.449
 6286TIP3    H118822   5.682   2.222   2.450
 6286TIP3    H218823   5.620   2.102   2.518
 6287TIP3   OH218824   6.673   5.347   5.700
 6287TIP3    H118825   6.586   5.376   5.727
 6287TIP3    H218826   6.681   5.259   5.737
 6288TIP3   OH218827   6.694   6.299   0.181
 6288TIP3    H118828   6.603   6.287   0.155
 6288TIP3    H218829   6.696   6.282   0.275
 6289TIP3   OH218830   6.740   4.290   2.096
 6289TIP3    H118831   6.793   4.329   2.165
 6289TIP3    H218832   6.662   4.257   2.141
 6290TIP3   OH218833   1.887   5.519   5.220
 6290TIP3    H118834   1.958   5.545   5.278
 6290TIP3    H218835   1.812   5.505   5.278
 6291TIP3   OH218836   0.142   2.697   4.459
 6291TIP3    H118837   0.152   2.602   4.455
 6291TIP3    H218838   0.084   2.712   4.533
 6292TIP3   OH218839   1.654   0.725   5.853
 6292TIP3    H118840   1.654   0.819   5.832
 6292TIP3    H218841   1.590   0.716   5.923
 6293TIP3   OH218842   4.408   4.891   3.209
 6293TIP3    H118843   4.420   4.842   3.127
 6293TIP3    H218844   4.337   4.845   3.254
 6294TIP3   OH218845   2.421   1.352   2.793
 6294TIP3    H118846   2.382   1.400   2.866
 6294TIP3    H218847   2.503   1.317   2.828
 6295TIP3   OH218848   1.754   4.184   1.371
 6295TIP3    H118849   1.818   4.192   1.301
 6295TIP3    H218850   1.701   4.264   1.365
 6296TIP3   OH218851   2.004   4.885   0.264
 6296TIP3    H118852   2.087   4.897   0.311
 6296TIP3    H218853   2.016   4.935   0.183
 6297TIP3   OH218854   5.797   1.045   3.372
 6297TIP3    H118855   5.792   0.958   3.411
 6297TIP3    H218856   5.783   1.106   3.445
 6298TIP3   OH218857   0.192   3.610   3.518
 6298TIP3    H118858   0.200   3.515   3.508
 6298TIP3    H218859   0.199   3.644   3.429
 6299TIP3   OH218860   4.934   1.525   1.640
 6299TIP3    H118861   4.840   1.522   1.655
 6299TIP3    H218862   4.943   1.516   1.545
 6300TIP3   OH218863   5.831   2.154   4.445
 6300TIP3    H118864   5.897   2.199   4.498
 6300TIP3    H218865   5.851   2.179   4.355
 6301TIP3   OH218866   6.735   4.706   1.488
 6301TIP3    H118867   6.700   4.623   1.458
 6301TIP3    H218868   6.733   4.701   1.583
 6302TIP3   OH218869   3.908   5.699   4.859
 6302TIP3    H118870   3.877   5.722   4.946
 6302TIP3    H218871   3.928   5.782   4.817
 6303TIP3   OH218872   4.714   1.581   2.436
 6303TIP3    H118873   4.713   1.499   2.486
 6303TIP3    H218874   4.792   1.573   2.380
 6304TIP3   OH218875   1.046   2.699   3.493
 6304TIP3    H118876   1.104   2.760   3.538
 6304TIP3    H218877   1.105   2.633   3.456
 6305TIP3   OH218878   2.898   5.296   5.338
 6305TIP3    H118879   2.989   5.280   5.363
 6305TIP3    H218880   2.872   5.372   5.391
 6306TIP3   OH218881   0.483   6.314   3.556
 6306TIP3    H118882   0.388   6.323   3.563
 6306TIP3    H218883   0.515   6.404   3.558
 6307TIP3   OH218884   3.563   5.659   4.771
 6307TIP3    H118885   3.650   5.697   4.759
 6307TIP3    H218886   3.540   5.625   4.684
 6308TIP3   OH218887   3.534   5.132   3.758
 6308TIP3    H118888   3.574   5.045   3.760
 6308TIP3    H218889   3.606   5.192   3.777
 6309TIP3   OH218890   3.498   5.316   3.489
 6309TIP3    H118891   3.590   5.331   3.467
 6309TIP3    H218892   3.493   5.331   3.583
 6310TIP3   OH218893   0.490   3.389   4.891
 6310TIP3    H118894   0.462   3.384   4.983
 6310TIP3    H218895   0.564   3.449   4.892
 6311TIP3   OH218896   4.260   4.817   4.048
 6311TIP3    H118897   4.223   4.763   4.118
 6311TIP3    H218898   4.203   4.894   4.044
 6312TIP3   OH218899   3.915   2.972   3.628
 6312TIP3    H118900   3.902   2.979   3.722
 6312TIP3    H218901   3.848   2.911   3.598
 6313TIP3   OH218902   3.162   5.998   5.414
 6313TIP3    H118903   3.226   6.048   5.363
 6313TIP3    H218904   3.201   5.991   5.501
 6314TIP3   OH218905   0.622   3.474   2.151
 6314TIP3    H118906   0.704   3.486   2.199
 6314TIP3    H218907   0.633   3.391   2.104
 6315TIP3   OH218908   6.479   3.756   2.039
 6315TIP3    H118909   6.455   3.840   2.001
 6315TIP3    H218910   6.570   3.742   2.011
 6316TIP3   OH218911   6.129   1.006   0.014
 6316TIP3    H118912   6.129   1.078  -0.048
 6316TIP3    H218913   6.044   1.012   0.058
 6317TIP3   OH218914   6.119   2.928   3.323
 6317TIP3    H118915   6.165   2.888   3.249
 6317TIP3    H218916   6.028   2.900   3.312
 6318TIP3   OH218917   5.004   6.334   4.734
 6318TIP3    H118918   5.060   6.314   4.658
 6318TIP3    H218919   4.975   6.424   4.718
 6319TIP3   OH218920   1.046   6.410   2.748
 6319TIP3    H118921   1.075   6.407   2.839
 6319TIP3    H218922   1.028   6.502   2.731
 6320TIP3   OH218923   5.719   1.878   0.480
 6320TIP3    H118924   5.625   1.870   0.465
 6320TIP3    H218925   5.759   1.867   0.393
 6321TIP3   OH218926   5.264   2.958   2.059
 6321TIP3    H118927   5.250   3.014   1.982
 6321TIP3    H218928   5.205   2.884   2.045
 6322TIP3   OH218929   1.733   1.316   5.186
 6322TIP3    H118930   1.680   1.274   5.120
 6322TIP3    H218931   1.671   1.369   5.237
 6323TIP3   OH218932   5.339   5.741   1.940
 6323TIP3    H118933   5.245   5.743   1.925
 6323TIP3    H218934   5.376   5.706   1.859
 6324TIP3   OH218935   4.747   3.254   3.476
 6324TIP3    H118936   4.814   3.277   3.413
 6324TIP3    H218937   4.732   3.334   3.526
 6325TIP3   OH218938   4.886   5.793   1.605
 6325TIP3    H118939   4.811   5.848   1.626
 6325TIP3    H218940   4.852   5.703   1.607
 6326TIP3   OH218941   2.769   6.078   1.375
 6326TIP3    H118942   2.799   6.008   1.317
 6326TIP3    H218943   2.824   6.070   1.453
 6327TIP3   OH218944   6.856   6.320   3.313
 6327TIP3    H118945   6.765   6.290   3.304
 6327TIP3    H218946   6.849   6.413   3.335
 6328TIP3   OH218947   6.379   2.802   1.427
 6328TIP3    H118948   6.387   2.796   1.522
 6328TIP3    H218949   6.287   2.827   1.413
 6329TIP3   OH218950   0.654   3.772   0.398
 6329TIP3    H118951   0.662   3.685   0.437
 6329TIP3    H218952   0.690   3.831   0.464
 6330TIP3   OH218953   3.993   2.216   5.258
 6330TIP3    H118954   4.071   2.165   5.278
 6330TIP3    H218955   3.939   2.210   5.337
 6331TIP3   OH218956   1.476   3.313   1.316
 6331TIP3    H118957   1.486   3.401   1.352
 6331TIP3    H218958   1.535   3.259   1.367
 6332TIP3   OH218959   1.366   0.899   1.411
 6332TIP3    H118960   1.282   0.882   1.367
 6332TIP3    H218961   1.361   0.848   1.492
 6333TIP3   OH218962   3.773   0.085   0.831
 6333TIP3    H118963   3.867   0.101   0.829
 6333TIP3    H218964   3.755   0.056   0.921
 6334TIP3   OH218965   4.220   5.071   1.091
 6334TIP3    H118966   4.311   5.097   1.106
 6334TIP3    H218967   4.173   5.154   1.079
 6335TIP3   OH218968   1.068   2.044   0.777
 6335TIP3    H118969   1.122   1.966   0.789
 6335TIP3    H218970   0.987   2.024   0.824
 6336TIP3   OH218971   1.027   1.705   0.347
 6336TIP3    H118972   1.060   1.617   0.331
 6336TIP3    H218973   1.086   1.742   0.412
 6337TIP3   OH218974   2.284   5.755   2.418
 6337TIP3    H118975   2.321   5.701   2.349
 6337TIP3    H218976   2.359   5.805   2.451
 6338TIP3   OH218977   3.611   6.279   3.656
 6338TIP3    H118978   3.558   6.317   3.586
 6338TIP3    H218979   3.697   6.321   3.647
 6339TIP3   OH218980   5.501   2.968   0.738
 6339TIP3    H118981   5.419   2.922   0.716
 6339TIP3    H218982   5.564   2.937   0.672
 6340TIP3   OH218983   2.813   2.033   0.611
 6340TIP3    H118984   2.796   1.943   0.580
 6340TIP3    H218985   2.739   2.053   0.668
 6341TIP3   OH218986   0.308   2.366   3.648
 6341TIP3    H118987   0.336   2.391   3.736
 6341TIP3    H218988   0.388   2.330   3.607
 6342TIP3   OH218989   5.454   5.281   2.328
 6342TIP3    H118990   5.390   5.347   2.355
 6342TIP3    H218991   5.519   5.330   2.277
 6343TIP3   OH218992   0.252   5.876   1.872
 6343TIP3    H118993   0.235   5.812   1.940
 6343TIP3    H218994   0.165   5.895   1.835
 6344TIP3   OH218995   3.332   6.162   2.910
 6344TIP3    H118996   3.260   6.133   2.966
 6344TIP3    H218997   3.338   6.095   2.842
 6345TIP3   OH218998   1.180   6.752   2.855
 6345TIP3    H118999   1.105   6.692   2.860
 6345TIP3    H219000   1.167   6.813   2.928
 6346TIP3   OH219001   6.562   2.112   2.486
 6346TIP3    H119002   6.483   2.090   2.436
 6346TIP3    H219003   6.634   2.094   2.426
 6347TIP3   OH219004   1.397   1.193   4.819
 6347TIP3    H119005   1.311   1.234   4.817
 6347TIP3    H219006   1.399   1.136   4.742
 6348TIP3   OH219007   0.727   3.723   1.845
 6348TIP3    H119008   0.670   3.647   1.837
 6348TIP3    H219009   0.718   3.769   1.761
 6349TIP3   OH219010   1.891   1.166   1.612
 6349TIP3    H119011   1.882   1.092   1.553
 6349TIP3    H219012   1.985   1.179   1.621
 6350TIP3   OH219013   6.394   0.754   1.293
 6350TIP3    H119014   6.340   0.682   1.259
 6350TIP3    H219015   6.446   0.782   1.218
 6351TIP3   OH219016   0.936   6.199   1.610
 6351TIP3    H119017   0.967   6.288   1.595
 6351TIP3    H219018   0.841   6.208   1.618
 6352TIP3   OH219019   0.940   2.319   2.168
 6352TIP3    H119020   0.856   2.332   2.212
 6352TIP3    H219021   0.932   2.232   2.128
 6353TIP3   OH219022   6.580   1.218   1.492
 6353TIP3    H119023   6.523   1.276   1.542
 6353TIP3    H219024   6.666   1.230   1.531
 6354TIP3   OH219025   5.083   6.760   0.367
 6354TIP3    H119026   5.055   6.788   0.454
 6354TIP3    H219027   5.179   6.760   0.371
 6355TIP3   OH219028   4.313   6.473   3.049
 6355TIP3    H119029   4.265   6.529   3.109
 6355TIP3    H219030   4.254   6.460   2.975
 6356TIP3   OH219031   4.987   2.839   3.515
 6356TIP3    H119032   4.935   2.912   3.548
 6356TIP3    H219033   5.078   2.869   3.520
 6357TIP3   OH219034   5.301   2.723   4.408
 6357TIP3    H119035   5.273   2.814   4.405
 6357TIP3    H219036   5.226   2.675   4.443
 6358TIP3   OH219037   1.288   3.518   3.899
 6358TIP3    H119038   1.323   3.446   3.952
 6358TIP3    H219039   1.359   3.582   3.896
 6359TIP3   OH219040   4.544   5.401   4.562
 6359TIP3    H119041   4.574   5.384   4.472
 6359TIP3    H219042   4.449   5.409   4.555
 6360TIP3   OH219043   0.665   3.647   2.783
 6360TIP3    H119044   0.726   3.591   2.736
 6360TIP3    H219045   0.719   3.697   2.844
 6361TIP3   OH219046   0.766   4.562   0.727
 6361TIP3    H119047   0.766   4.471   0.696
 6361TIP3    H219048   0.780   4.555   0.821
 6362TIP3   OH219049   0.375   0.696   3.865
 6362TIP3    H119050   0.435   0.754   3.818
 6362TIP3    H219051   0.399   0.608   3.834
 6363TIP3   OH219052   5.007   4.167   3.844
 6363TIP3    H119053   5.016   4.247   3.792
 6363TIP3    H219054   5.046   4.189   3.928
 6364TIP3   OH219055   3.489   6.369   5.045
 6364TIP3    H119056   3.502   6.446   4.989
 6364TIP3    H219057   3.395   6.369   5.064
 6365TIP3   OH219058   4.968   4.261   0.132
 6365TIP3    H119059   4.883   4.304   0.123
 6365TIP3    H219060   4.985   4.223   0.046
 6366TIP3   OH219061   5.278   6.221   1.274
 6366TIP3    H119062   5.289   6.202   1.181
 6366TIP3    H219063   5.356   6.186   1.316
 6367TIP3   OH219064   4.780   4.941   2.489
 6367TIP3    H119065   4.754   5.006   2.424
 6367TIP3    H219066   4.742   4.972   2.571
 6368TIP3   OH219067   1.686   1.999   4.153
 6368TIP3    H119068   1.670   2.074   4.096
 6368TIP3    H219069   1.759   1.953   4.112
 6369TIP3   OH219070   1.285   6.706   5.396
 6369TIP3    H119071   1.299   6.787   5.346
 6369TIP3    H219072   1.362   6.653   5.378
 6370TIP3   OH219073   1.179   6.395   3.023
 6370TIP3    H119074   1.165   6.306   3.055
 6370TIP3    H219075   1.095   6.439   3.038
 6371TIP3   OH219076   6.357   1.820   1.631
 6371TIP3    H119077   6.448   1.841   1.651
 6371TIP3    H219078   6.320   1.902   1.598
 6372TIP3   OH219079   6.954   4.665   4.424
 6372TIP3    H119080   6.987   4.753   4.406
 6372TIP3    H219081   6.931   4.667   4.517
 6373TIP3   OH219082   5.357   6.609   2.557
 6373TIP3    H119083   5.437   6.558   2.544
 6373TIP3    H219084   5.379   6.672   2.625
 6374TIP3   OH219085   0.538   6.238   5.842
 6374TIP3    H119086   0.517   6.327   5.869
 6374TIP3    H219087   0.586   6.202   5.917
 6375TIP3   OH219088   3.877   0.233   1.944
 6375TIP3    H119089   3.855   0.243   1.851
 6375TIP3    H219090   3.859   0.141   1.963
 6376TIP3   OH219091   5.626   3.679   3.438
 6376TIP3    H119092   5.697   3.627   3.477
 6376TIP3    H219093   5.621   3.647   3.348
 6377TIP3   OH219094   0.897   4.131   4.775
 6377TIP3    H119095   0.930   4.053   4.820
 6377TIP3    H219096   0.912   4.203   4.837
 6378TIP3   OH219097   4.428   1.135   1.650
 6378TIP3    H119098   4.342   1.109   1.618
 6378TIP3    H219099   4.422   1.127   1.745
 6379TIP3   OH219100   2.883   3.195   4.484
 6379TIP3    H119101   2.896   3.191   4.389
 6379TIP3    H219102   2.970   3.204   4.521
 6380TIP3   OH219103   0.480   2.791   5.775
 6380TIP3    H119104   0.502   2.884   5.784
 6380TIP3    H219105   0.442   2.767   5.859
 6381TIP3   OH219106   0.830   0.312   2.796
 6381TIP3    H119107   0.880   0.233   2.818
 6381TIP3    H219108   0.817   0.306   2.701
 6382TIP3   OH219109   4.438   2.069   1.354
 6382TIP3    H119110   4.352   2.091   1.388
 6382TIP3    H219111   4.495   2.140   1.383
 6383TIP3   OH219112   0.948   4.720   2.132
 6383TIP3    H119113   0.988   4.691   2.214
 6383TIP3    H219114   0.998   4.797   2.106
 6384TIP3   OH219115   1.237   6.616   1.454
 6384TIP3    H119116   1.243   6.578   1.367
 6384TIP3    H219117   1.311   6.678   1.458
 6385TIP3   OH219118   3.152   1.082   2.674
 6385TIP3    H119119   3.171   1.016   2.741
 6385TIP3    H219120   3.237   1.122   2.655
 6386TIP3   OH219121   6.744   6.057   0.463
 6386TIP3    H119122   6.736   6.101   0.547
 6386TIP3    H219123   6.838   6.054   0.446
 6387TIP3   OH219124   6.337   3.469   3.888
 6387TIP3    H119125   6.381   3.550   3.862
 6387TIP3    H219126   6.294   3.439   3.807
 6388TIP3   OH219127   6.741   2.179   4.650
 6388TIP3    H119128   6.810   2.246   4.643
 6388TIP3    H219129   6.780   2.109   4.701
 6389TIP3   OH219130   0.231   4.075   5.183
 6389TIP3    H119131   0.262   4.071   5.093
 6389TIP3    H219132   0.175   4.153   5.186
 6390TIP3   OH219133   5.478   3.171   0.281
 6390TIP3    H119134   5.395   3.170   0.329
 6390TIP3    H219135   5.521   3.090   0.307
 6391TIP3   OH219136   1.694   4.389   3.898
 6391TIP3    H119137   1.687   4.402   3.804
 6391TIP3    H219138   1.789   4.382   3.914
 6392TIP3   OH219139   3.260   1.804   5.104
 6392TIP3    H119140   3.278   1.897   5.120
 6392TIP3    H219141   3.232   1.801   5.013
 6393TIP3   OH219142   2.055   0.075   1.667
 6393TIP3    H119143   2.086   0.032   1.747
 6393TIP3    H219144   2.059   0.008   1.600
 6394TIP3   OH219145   1.488   6.128   4.444
 6394TIP3    H119146   1.533   6.211   4.433
 6394TIP3    H219147   1.436   6.139   4.524
 6395TIP3   OH219148   1.705   0.010   5.193
 6395TIP3    H119149   1.680  -0.077   5.162
 6395TIP3    H219150   1.706   0.064   5.115
 6396TIP3   OH219151   4.240   5.081   0.602
 6396TIP3    H119152   4.246   4.992   0.569
 6396TIP3    H219153   4.168   5.120   0.552
 6397TIP3   OH219154   1.927   2.895   5.171
 6397TIP3    H119155   1.914   2.810   5.128
 6397TIP3    H219156   1.899   2.959   5.106
 6398TIP3   OH219157   4.389   3.707   1.147
 6398TIP3    H119158   4.327   3.780   1.138
 6398TIP3    H219159   4.385   3.661   1.063
 6399TIP3   OH219160   4.196   3.744   5.777
 6399TIP3    H119161   4.163   3.832   5.759
 6399TIP3    H219162   4.266   3.731   5.713
 6400TIP3   OH219163   2.019   3.157   2.119
 6400TIP3    H119164   2.113   3.174   2.120
 6400TIP3    H219165   1.982   3.221   2.180
 6401TIP3   OH219166   3.789   4.196   5.640
 6401TIP3    H119167   3.729   4.157   5.703
 6401TIP3    H219168   3.873   4.199   5.685
 6402TIP3   OH219169   6.349   6.635   1.420
 6402TIP3    H119170   6.394   6.690   1.484
 6402TIP3    H219171   6.274   6.599   1.467
 6403TIP3   OH219172   6.896   4.908   1.046
 6403TIP3    H119173   6.868   4.846   0.978
 6403TIP3    H219174   6.895   4.857   1.127
 6404TIP3   OH219175   7.076   1.011   0.862
 6404TIP3    H119176   7.169   1.029   0.850
 6404TIP3    H219177   7.032   1.072   0.803
 6405TIP3   OH219178   2.408   2.677   0.650
 6405TIP3    H119179   2.430   2.688   0.557
 6405TIP3    H219180   2.381   2.765   0.678
 6406TIP3   OH219181   0.460   3.861   4.092
 6406TIP3    H119182   0.380   3.909   4.112
 6406TIP3    H219183   0.453   3.840   3.999
 6407TIP3   OH219184   5.267   3.826   3.102
 6407TIP3    H119185   5.295   3.917   3.087
 6407TIP3    H219186   5.287   3.810   3.194
 6408TIP3   OH219187   2.673   6.244   5.853
 6408TIP3    H119188   2.631   6.269   5.936
 6408TIP3    H219189   2.756   6.293   5.853
 6409TIP3   OH219190   7.007   4.542   3.517
 6409TIP3    H119191   7.013   4.448   3.497
 6409TIP3    H219192   7.089   4.579   3.483
 6410TIP3   OH219193   6.075   0.658   2.466
 6410TIP3    H119194   6.085   0.737   2.519
 6410TIP3    H219195   6.143   0.599   2.498
 6411TIP3   OH219196   5.863   5.813   4.179
 6411TIP3    H119197   5.950   5.797   4.145
 6411TIP3    H219198   5.873   5.890   4.236
 6412TIP3   OH219199   2.920   1.387   1.251
 6412TIP3    H119200   2.880   1.413   1.334
 6412TIP3    H219201   3.013   1.380   1.271
 6413TIP3   OH219202   1.439   2.162   4.471
 6413TIP3    H119203   1.416   2.160   4.564
 6413TIP3    H219204   1.422   2.072   4.441
 6414TIP3   OH219205   2.226   5.155   5.059
 6414TIP3    H119206   2.155   5.218   5.069
 6414TIP3    H219207   2.200   5.080   5.112
 6415TIP3   OH219208   6.063   1.584   0.430
 6415TIP3    H119209   6.061   1.490   0.443
 6415TIP3    H219210   5.978   1.615   0.461
 6416TIP3   OH219211   0.776   6.606   5.046
 6416TIP3    H119212   0.840   6.651   5.102
 6416TIP3    H219213   0.691   6.625   5.086
 6417TIP3   OH219214   3.420   4.594   2.686
 6417TIP3    H119215   3.515   4.586   2.695
 6417TIP3    H219216   3.396   4.666   2.745
 6418TIP3   OH219217   5.753   1.441   2.136
 6418TIP3    H119218   5.677   1.477   2.090
 6418TIP3    H219219   5.807   1.517   2.155
 6419TIP3   OH219220   0.735   5.675   0.326
 6419TIP3    H119221   0.701   5.664   0.415
 6419TIP3    H219222   0.678   5.621   0.271
 6420TIP3   OH219223   5.916   0.551   5.040
 6420TIP3    H119224   5.832   0.593   5.053
 6420TIP3    H219225   5.951   0.591   4.960
 6421TIP3   OH219226   2.376   1.285   0.894
 6421TIP3    H119227   2.380   1.357   0.957
 6421TIP3    H219228   2.333   1.323   0.817
 6422TIP3   OH219229   0.380   6.119   5.655
 6422TIP3    H119230   0.382   6.183   5.583
 6422TIP3    H219231   0.444   6.153   5.718
 6423TIP3   OH219232   3.857   5.667   0.536
 6423TIP3    H119233   3.924   5.735   0.536
 6423TIP3    H219234   3.892   5.599   0.593
 6424TIP3   OH219235   5.770   2.000   2.235
 6424TIP3    H119236   5.741   2.061   2.302
 6424TIP3    H219237   5.838   1.948   2.277
 6425TIP3   OH219238   5.430   1.543   3.876
 6425TIP3    H119239   5.341   1.508   3.879
 6425TIP3    H219240   5.430   1.615   3.939
 6426TIP3   OH219241   2.214   4.162   5.184
 6426TIP3    H119242   2.226   4.080   5.233
 6426TIP3    H219243   2.301   4.202   5.182
 6427TIP3   OH219244   7.025   4.982   4.737
 6427TIP3    H119245   7.078   5.031   4.799
 6427TIP3    H219246   6.938   4.978   4.777
 6428TIP3   OH219247   3.486   6.573   3.659
 6428TIP3    H119248   3.476   6.662   3.624
 6428TIP3    H219249   3.577   6.550   3.643
 6429TIP3   OH219250   2.748   0.945   3.621
 6429TIP3    H119251   2.731   0.858   3.656
 6429TIP3    H219252   2.712   1.005   3.686
 6430TIP3   OH219253   1.918   6.484   4.157
 6430TIP3    H119254   1.944   6.397   4.126
 6430TIP3    H219255   1.981   6.544   4.116
 6431TIP3   OH219256   2.845   0.452   0.808
 6431TIP3    H119257   2.803   0.377   0.765
 6431TIP3    H219258   2.876   0.417   0.891
 6432TIP3   OH219259   4.268   5.489   0.404
 6432TIP3    H119260   4.249   5.535   0.486
 6432TIP3    H219261   4.363   5.481   0.402
 6433TIP3   OH219262   0.524   2.146   0.730
 6433TIP3    H119263   0.590   2.150   0.661
 6433TIP3    H219264   0.460   2.213   0.706
 6434TIP3   OH219265   5.839   4.171   0.354
 6434TIP3    H119266   5.879   4.160   0.440
 6434TIP3    H219267   5.794   4.255   0.358
 6435TIP3   OH219268   6.437   1.726   4.459
 6435TIP3    H119269   6.408   1.681   4.380
 6435TIP3    H219270   6.356   1.758   4.499
 6436TIP3   OH219271   7.172   2.767   2.182
 6436TIP3    H119272   7.157   2.799   2.271
 6436TIP3    H219273   7.085   2.757   2.145
 6437TIP3   OH219274   6.552   1.658   2.654
 6437TIP3    H119275   6.622   1.685   2.595
 6437TIP3    H219276   6.481   1.719   2.635
 6438TIP3   OH219277   3.896   2.288   2.588
 6438TIP3    H119278   3.948   2.346   2.533
 6438TIP3    H219279   3.809   2.286   2.547
 6439TIP3   OH219280   4.958   2.697   0.458
 6439TIP3    H119281   4.867   2.704   0.429
 6439TIP3    H219282   5.009   2.702   0.377
 6440TIP3   OH219283   2.819   1.114   1.706
 6440TIP3    H119284   2.898   1.105   1.653
 6440TIP3    H219285   2.781   1.026   1.708
 6441TIP3   OH219286   6.159   3.402   4.145
 6441TIP3    H119287   6.151   3.421   4.052
 6441TIP3    H219288   6.227   3.461   4.176
 6442TIP3   OH219289   2.342   5.373   4.078
 6442TIP3    H119290   2.288   5.299   4.106
 6442TIP3    H219291   2.430   5.351   4.108
 6443TIP3   OH219292   0.382   3.278   1.710
 6443TIP3    H119293   0.397   3.346   1.644
 6443TIP3    H219294   0.373   3.325   1.792
 6444TIP3   OH219295   5.876   0.289   0.700
 6444TIP3    H119296   5.957   0.249   0.667
 6444TIP3    H219297   5.836   0.328   0.622
 6445TIP3   OH219298   4.690   3.478   5.083
 6445TIP3    H119299   4.764   3.506   5.028
 6445TIP3    H219300   4.681   3.385   5.063
 6446TIP3   OH219301  -0.007   3.813   2.460
 6446TIP3    H119302   0.085   3.788   2.452
 6446TIP3    H219303  -0.006   3.896   2.508
 6447TIP3   OH219304   3.542   4.078   1.883
 6447TIP3    H119305   3.449   4.097   1.887
 6447TIP3    H219306   3.585   4.163   1.888
 6448TIP3   OH219307   5.279   3.759   1.228
 6448TIP3    H119308   5.374   3.772   1.236
 6448TIP3    H219309   5.258   3.790   1.140
 6449TIP3   OH219310   1.814   5.379   1.146
 6449TIP3    H119311   1.724   5.349   1.134
 6449TIP3    H219312   1.859   5.351   1.066
 6450TIP3   OH219313   0.480   3.024   4.773
 6450TIP3    H119314   0.569   3.059   4.775
 6450TIP3    H219315   0.425   3.099   4.748
 6451TIP3   OH219316   6.322   5.451   1.126
 6451TIP3    H119317   6.341   5.399   1.204
 6451TIP3    H219318   6.227   5.463   1.128
 6452TIP3   OH219319   4.671   6.132   4.948
 6452TIP3    H119320   4.742   6.182   4.988
 6452TIP3    H219321   4.674   6.157   4.856
 6453TIP3   OH219322   3.948   6.306   3.813
 6453TIP3    H119323   3.979   6.233   3.760
 6453TIP3    H219324   3.948   6.381   3.753
 6454TIP3   OH219325   3.792   3.109   0.884
 6454TIP3    H119326   3.871   3.160   0.870
 6454TIP3    H219327   3.803   3.032   0.828
 6455TIP3   OH219328   6.351   4.112   0.762
 6455TIP3    H119329   6.446   4.110   0.751
 6455TIP3    H219330   6.317   4.123   0.673
 6456TIP3   OH219331   0.357   6.742   2.958
 6456TIP3    H119332   0.349   6.678   2.887
 6456TIP3    H219333   0.440   6.786   2.942
 6457TIP3   OH219334   1.613   0.054   0.579
 6457TIP3    H119335   1.653   0.082   0.497
 6457TIP3    H219336   1.565   0.131   0.610
 6458TIP3   OH219337   3.515   1.524   0.459
 6458TIP3    H119338   3.555   1.501   0.375
 6458TIP3    H219339   3.450   1.591   0.438
 6459TIP3   OH219340   0.805   6.598   3.237
 6459TIP3    H119341   0.793   6.643   3.320
 6459TIP3    H219342   0.717   6.588   3.202
 6460TIP3   OH219343   4.006   6.119   3.588
 6460TIP3    H119344   3.967   6.035   3.611
 6460TIP3    H219345   3.990   6.128   3.494
 6461TIP3   OH219346   0.229   0.603   2.051
 6461TIP3    H119347   0.174   0.567   2.120
 6461TIP3    H219348   0.247   0.693   2.079
 6462TIP3   OH219349   1.202   2.987   1.986
 6462TIP3    H119350   1.287   3.030   1.986
 6462TIP3    H219351   1.163   3.011   1.902
 6463TIP3   OH219352   5.317   5.660   5.153
 6463TIP3    H119353   5.307   5.565   5.145
 6463TIP3    H219354   5.367   5.686   5.075
 6464TIP3   OH219355   4.696   3.123   0.925
 6464TIP3    H119356   4.641   3.184   0.975
 6464TIP3    H219357   4.776   3.116   0.976
 6465TIP3   OH219358   2.579   0.051   1.976
 6465TIP3    H119359   2.593  -0.011   2.048
 6465TIP3    H219360   2.634   0.018   1.906
 6466TIP3   OH219361   2.629   3.156   1.016
 6466TIP3    H119362   2.714   3.120   0.992
 6466TIP3    H219363   2.650   3.233   1.069
 6467TIP3   OH219364   3.325   5.791   4.048
 6467TIP3    H119365   3.264   5.838   3.992
 6467TIP3    H219366   3.357   5.719   3.995
 6468TIP3   OH219367   1.407   3.301   4.025
 6468TIP3    H119368   1.337   3.237   4.020
 6468TIP3    H219369   1.480   3.261   3.977
 6469TIP3   OH219370   3.224   5.547   2.060
 6469TIP3    H119371   3.304   5.499   2.039
 6469TIP3    H219372   3.231   5.566   2.153
 6470TIP3   OH219373   7.053   2.318   3.284
 6470TIP3    H119374   7.067   2.312   3.190
 6470TIP3    H219375   6.965   2.282   3.298
 6471TIP3   OH219376   3.839   4.935   0.192
 6471TIP3    H119377   3.747   4.934   0.218
 6471TIP3    H219378   3.881   4.993   0.257
 6472TIP3   OH219379   5.098   0.767   5.752
 6472TIP3    H119380   5.154   0.698   5.789
 6472TIP3    H219381   5.035   0.720   5.697
 6473TIP3   OH219382   0.153   4.856   0.552
 6473TIP3    H119383   0.175   4.778   0.604
 6473TIP3    H219384   0.125   4.920   0.617
 6474TIP3   OH219385   5.756   3.418   1.391
 6474TIP3    H119386   5.685   3.356   1.373
 6474TIP3    H219387   5.719   3.504   1.369
 6475TIP3   OH219388   2.477   4.932   0.553
 6475TIP3    H119389   2.492   4.898   0.465
 6475TIP3    H219390   2.565   4.941   0.590
 6476TIP3   OH219391   4.578   4.402   3.649
 6476TIP3    H119392   4.638   4.475   3.634
 6476TIP3    H219393   4.623   4.348   3.715
 6477TIP3   OH219394   5.618  -0.012   5.605
 6477TIP3    H119395   5.684   0.057   5.611
 6477TIP3    H219396   5.540   0.026   5.647
 6478TIP3   OH219397   2.700   6.180   4.475
 6478TIP3    H119398   2.793   6.166   4.457
 6478TIP3    H219399   2.673   6.248   4.413
 6479TIP3   OH219400   6.323   1.846   5.116
 6479TIP3    H119401   6.250   1.839   5.053
 6479TIP3    H219402   6.358   1.757   5.121
 6480TIP3   OH219403   3.305   3.497   5.626
 6480TIP3    H119404   3.342   3.583   5.645
 6480TIP3    H219405   3.377   3.436   5.643
 6481TIP3   OH219406   1.813   1.590   4.074
 6481TIP3    H119407   1.760   1.666   4.049
 6481TIP3    H219408   1.761   1.514   4.048
 6482TIP3   OH219409   3.161   4.367   0.570
 6482TIP3    H119410   3.214   4.439   0.536
 6482TIP3    H219411   3.163   4.380   0.665
 6483TIP3   OH219412   1.402   0.979   4.615
 6483TIP3    H119413   1.334   0.912   4.604
 6483TIP3    H219414   1.479   0.930   4.643
 6484TIP3   OH219415   1.580   3.743   3.358
 6484TIP3    H119416   1.571   3.692   3.439
 6484TIP3    H219417   1.674   3.742   3.340
 6485TIP3   OH219418   5.102   4.547   2.633
 6485TIP3    H119419   5.124   4.622   2.578
 6485TIP3    H219420   5.026   4.508   2.592
 6486TIP3   OH219421   2.010   0.404   3.030
 6486TIP3    H119422   1.986   0.322   3.073
 6486TIP3    H219423   1.926   0.448   3.014
 6487TIP3   OH219424   1.298   3.037   5.063
 6487TIP3    H119425   1.245   3.104   5.105
 6487TIP3    H219426   1.270   2.955   5.104
 6488TIP3   OH219427   6.841   3.993   0.954
 6488TIP3    H119428   6.871   4.075   0.993
 6488TIP3    H219429   6.902   3.927   0.988
 6489TIP3   OH219430   2.951   5.729   2.303
 6489TIP3    H119431   2.917   5.816   2.282
 6489TIP3    H219432   3.046   5.739   2.300
 6490TIP3   OH219433   0.884   0.857   4.059
 6490TIP3    H119434   0.968   0.899   4.040
 6490TIP3    H219435   0.868   0.799   3.985
 6491TIP3   OH219436   1.943   2.049   4.741
 6491TIP3    H119437   2.038   2.049   4.753
 6491TIP3    H219438   1.917   1.958   4.753
 6492TIP3   OH219439   3.282   2.846   3.451
 6492TIP3    H119440   3.370   2.831   3.415
 6492TIP3    H219441   3.228   2.865   3.375
 6493TIP3   OH219442   1.679   4.990   4.143
 6493TIP3    H119443   1.749   4.935   4.177
 6493TIP3    H219444   1.711   5.021   4.058
 6494TIP3   OH219445   2.703   0.192   0.783
 6494TIP3    H119446   2.735   0.163   0.698
 6494TIP3    H219447   2.613   0.159   0.787
 6495TIP3   OH219448   6.613   5.716   5.391
 6495TIP3    H119449   6.685   5.753   5.339
 6495TIP3    H219450   6.650   5.636   5.429
 6496TIP3   OH219451   0.370   4.817   5.633
 6496TIP3    H119452   0.298   4.763   5.665
 6496TIP3    H219453   0.448   4.763   5.647
 6497TIP3   OH219454   6.555   3.851   5.051
 6497TIP3    H119455   6.497   3.904   4.997
 6497TIP3    H219456   6.529   3.871   5.141
 6498TIP3   OH219457   2.989   3.770   2.944
 6498TIP3    H119458   3.071   3.807   2.909
 6498TIP3    H219459   2.926   3.841   2.938
 6499TIP3   OH219460   0.027   5.439   5.443
 6499TIP3    H119461  -0.012   5.460   5.528
 6499TIP3    H219462   0.084   5.513   5.424
 6500TIP3   OH219463   0.356   5.583   4.351
 6500TIP3    H119464   0.342   5.542   4.265
 6500TIP3    H219465   0.272   5.575   4.395
 6501TIP3   OH219466   0.154   1.931   4.470
 6501TIP3    H119467   0.240   1.906   4.435
 6501TIP3    H219468   0.167   2.019   4.505
 6502TIP3   OH219469   4.676   0.975   4.030
 6502TIP3    H119470   4.728   0.926   4.093
 6502TIP3    H219471   4.596   0.997   4.076
 6503TIP3   OH219472   0.197   1.595   1.624
 6503TIP3    H119473   0.122   1.616   1.679
 6503TIP3    H219474   0.272   1.635   1.669
 6504TIP3   OH219475   2.514   0.418   2.045
 6504TIP3    H119476   2.560   0.391   1.966
 6504TIP3    H219477   2.581   0.416   2.113
 6505TIP3   OH219478   2.342   0.735   3.698
 6505TIP3    H119479   2.391   0.655   3.680
 6505TIP3    H219480   2.285   0.712   3.772
 6506TIP3   OH219481   0.792   4.405   3.747
 6506TIP3    H119482   0.799   4.326   3.694
 6506TIP3    H219483   0.883   4.427   3.770
 6507TIP3   OH219484   1.702   3.684   5.413
 6507TIP3    H119485   1.753   3.649   5.340
 6507TIP3    H219486   1.679   3.773   5.386
 6508TIP3   OH219487   5.233   3.403   5.219
 6508TIP3    H119488   5.200   3.414   5.130
 6508TIP3    H219489   5.288   3.324   5.216
 6509TIP3   OH219490   5.662   3.773   1.849
 6509TIP3    H119491   5.709   3.816   1.778
 6509TIP3    H219492   5.625   3.844   1.901
 6510TIP3   OH219493   0.000   0.279   4.854
 6510TIP3    H119494  -0.052   0.356   4.878
 6510TIP3    H219495   0.085   0.313   4.829
 6511TIP3   OH219496   2.202   3.015   1.054
 6511TIP3    H119497   2.113   2.980   1.061
 6511TIP3    H219498   2.190   3.108   1.035
 6512TIP3   OH219499   2.918   3.537   3.958
 6512TIP3    H119500   2.849   3.492   3.911
 6512TIP3    H219501   2.955   3.599   3.895
 6513TIP3   OH219502   4.745   6.089   3.401
 6513TIP3    H119503   4.772   6.009   3.447
 6513TIP3    H219504   4.659   6.110   3.437
 6514TIP3   OH219505   5.390   2.459   0.137
 6514TIP3    H119506   5.412   2.384   0.083
 6514TIP3    H219507   5.409   2.431   0.226
 6515TIP3   OH219508   5.043   4.320   1.423
 6515TIP3    H119509   4.995   4.362   1.352
 6515TIP3    H219510   5.134   4.321   1.395
 6516TIP3   OH219511   3.226   3.323   0.355
 6516TIP3    H119512   3.279   3.362   0.424
 6516TIP3    H219513   3.270   3.349   0.274
 6517TIP3   OH219514   5.980   1.062   3.950
 6517TIP3    H119515   5.912   1.073   4.017
 6517TIP3    H219516   6.034   1.141   3.958
 6518TIP3   OH219517   3.061   4.596   0.117
 6518TIP3    H119518   3.127   4.643   0.168
 6518TIP3    H219519   3.100   4.510   0.101
 6519TIP3   OH219520   2.902   2.902   0.525
 6519TIP3    H119521   2.951   2.830   0.565
 6519TIP3    H219522   2.953   2.980   0.547
 6520TIP3   OH219523   0.569   6.525   3.144
 6520TIP3    H119524   0.510   6.599   3.130
 6520TIP3    H219525   0.515   6.448   3.124
 6521TIP3   OH219526   5.503   5.179   4.513
 6521TIP3    H119527   5.450   5.257   4.531
 6521TIP3    H219528   5.445   5.122   4.462
 6522TIP3   OH219529   5.407   2.199   0.684
 6522TIP3    H119530   5.481   2.250   0.717
 6522TIP3    H219531   5.382   2.143   0.757
 6523TIP3   OH219532   4.806   0.486   4.711
 6523TIP3    H119533   4.855   0.556   4.668
 6523TIP3    H219534   4.720   0.523   4.728
 6524TIP3   OH219535   1.670   0.137   3.237
 6524TIP3    H119536   1.721   0.187   3.301
 6524TIP3    H219537   1.736   0.087   3.189
 6525TIP3   OH219538   2.488   5.014   1.540
 6525TIP3    H119539   2.431   5.080   1.499
 6525TIP3    H219540   2.488   4.941   1.478
 6526TIP3   OH219541   0.822   5.356   2.431
 6526TIP3    H119542   0.846   5.264   2.425
 6526TIP3    H219543   0.734   5.360   2.394
 6527TIP3   OH219544   6.920   6.570   4.951
 6527TIP3    H119545   6.866   6.498   4.982
 6527TIP3    H219546   7.010   6.540   4.962
 6528TIP3   OH219547   0.525   2.101   5.851
 6528TIP3    H119548   0.577   2.074   5.776
 6528TIP3    H219549   0.486   2.020   5.884
 6529TIP3   OH219550   1.145   3.536   5.052
 6529TIP3    H119551   1.145   3.573   5.140
 6529TIP3    H219552   1.183   3.605   4.997
 6530TIP3   OH219553   1.117   1.871   3.756
 6530TIP3    H119554   1.145   1.811   3.826
 6530TIP3    H219555   1.160   1.954   3.777
 6531TIP3   OH219556   6.016   5.237   1.585
 6531TIP3    H119557   6.087   5.177   1.609
 6531TIP3    H219558   6.052   5.290   1.514
 6532TIP3   OH219559   6.853   2.927   2.368
 6532TIP3    H119560   6.775   2.893   2.323
 6532TIP3    H219561   6.874   3.008   2.322
 6533TIP3   OH219562   2.236   4.767   5.369
 6533TIP3    H119563   2.202   4.677   5.372
 6533TIP3    H219564   2.258   4.787   5.460
 6534TIP3   OH219565   1.724   3.575   4.363
 6534TIP3    H119566   1.801   3.631   4.358
 6534TIP3    H219567   1.677   3.605   4.440
 6535TIP3   OH219568   5.254   2.340   2.680
 6535TIP3    H119569   5.209   2.266   2.641
 6535TIP3    H219570   5.195   2.414   2.668
 6536TIP3   OH219571   0.967   5.163   0.271
 6536TIP3    H119572   0.911   5.113   0.211
 6536TIP3    H219573   0.905   5.207   0.330
 6537TIP3   OH219574   2.404   2.742   2.498
 6537TIP3    H119575   2.422   2.824   2.452
 6537TIP3    H219576   2.339   2.765   2.564
 6538TIP3   OH219577   7.082   3.855   0.198
 6538TIP3    H119578   7.157   3.903   0.162
 6538TIP3    H219579   7.009   3.877   0.140
 6539TIP3   OH219580   1.651   5.872   0.516
 6539TIP3    H119581   1.657   5.858   0.421
 6539TIP3    H219582   1.627   5.964   0.526
 6540TIP3   OH219583   0.542   0.335   1.522
 6540TIP3    H119584   0.508   0.252   1.491
 6540TIP3    H219585   0.476   0.366   1.585
 6541TIP3   OH219586   0.729   2.051   5.210
 6541TIP3    H119587   0.642   2.016   5.229
 6541TIP3    H219588   0.745   2.027   5.118
 6542TIP3   OH219589   6.014   4.965   1.154
 6542TIP3    H119590   6.081   4.959   1.085
 6542TIP3    H219591   5.971   5.049   1.137
 6543TIP3   OH219592   1.587   2.270   1.030
 6543TIP3    H119593   1.547   2.220   1.101
 6543TIP3    H219594   1.520   2.273   0.962
 6544TIP3   OH219595   5.013   3.736   3.022
 6544TIP3    H119596   5.083   3.801   3.025
 6544TIP3    H219597   4.983   3.738   2.931
 6545TIP3   OH219598   0.480   6.843   5.032
 6545TIP3    H119599   0.437   6.772   4.985
 6545TIP3    H219600   0.476   6.817   5.124
 6546TIP3   OH219601   2.815   0.007   3.662
 6546TIP3    H119602   2.731  -0.031   3.637
 6546TIP3    H219603   2.794   0.060   3.739
 6547TIP3   OH219604   7.198   0.679   2.261
 6547TIP3    H119605   7.204   0.585   2.276
 6547TIP3    H219606   7.119   0.690   2.208
 6548TIP3   OH219607   2.132   1.201   3.900
 6548TIP3    H119608   2.220   1.224   3.932
 6548TIP3    H219609   2.123   1.108   3.922
 6549TIP3   OH219610   6.928   0.430   3.776
 6549TIP3    H119611   6.846   0.475   3.756
 6549TIP3    H219612   6.914   0.392   3.863
 6550TIP3   OH219613   2.081   2.257   1.829
 6550TIP3    H119614   2.099   2.184   1.888
 6550TIP3    H219615   2.038   2.323   1.885
 6551TIP3   OH219616   4.022   1.733   5.854
 6551TIP3    H119617   4.014   1.823   5.887
 6551TIP3    H219618   3.961   1.683   5.908
 6552TIP3   OH219619   4.141   6.258   4.067
 6552TIP3    H119620   4.144   6.191   3.999
 6552TIP3    H219621   4.089   6.329   4.029
 6553TIP3   OH219622   6.270   5.668   1.404
 6553TIP3    H119623   6.324   5.596   1.436
 6553TIP3    H219624   6.226   5.702   1.483
 6554TIP3   OH219625   4.883   2.546   2.295
 6554TIP3    H119626   4.939   2.620   2.274
 6554TIP3    H219627   4.940   2.469   2.289
 6555TIP3   OH219628   6.015   3.193   3.180
 6555TIP3    H119629   6.028   3.179   3.273
 6555TIP3    H219630   5.928   3.234   3.174
 6556TIP3   OH219631   6.937   5.579   3.130
 6556TIP3    H119632   6.935   5.488   3.159
 6556TIP3    H219633   6.865   5.621   3.177
 6557TIP3   OH219634   1.944   3.437   5.375
 6557TIP3    H119635   1.912   3.357   5.417
 6557TIP3    H219636   1.891   3.446   5.296
 6558TIP3   OH219637   2.926   0.213   3.448
 6558TIP3    H119638   2.937   0.137   3.505
 6558TIP3    H219639   2.885   0.178   3.369
 6559TIP3   OH219640   5.125   2.058   4.648
 6559TIP3    H119641   5.140   2.108   4.728
 6559TIP3    H219642   5.200   2.078   4.592
 6560TIP3   OH219643   3.107   4.776   3.383
 6560TIP3    H119644   3.181   4.769   3.443
 6560TIP3    H219645   3.080   4.686   3.366
 6561TIP3   OH219646   0.611   6.714   3.843
 6561TIP3    H119647   0.527   6.748   3.812
 6561TIP3    H219648   0.676   6.776   3.810
 6562TIP3   OH219649   5.728   5.876   3.239
 6562TIP3    H119650   5.820   5.898   3.227
 6562TIP3    H219651   5.680   5.954   3.209
 6563TIP3   OH219652   0.863   2.272   5.225
 6563TIP3    H119653   0.833   2.182   5.237
 6563TIP3    H219654   0.953   2.272   5.257
 6564TIP3   OH219655   5.907   5.595   4.902
 6564TIP3    H119656   5.867   5.509   4.891
 6564TIP3    H219657   5.991   5.589   4.855
 6565TIP3   OH219658   4.482   2.704   1.774
 6565TIP3    H119659   4.575   2.721   1.755
 6565TIP3    H219660   4.437   2.784   1.748
 6566TIP3   OH219661   3.144   3.221   5.364
 6566TIP3    H119662   3.097   3.290   5.411
 6566TIP3    H219663   3.075   3.176   5.314
 6567TIP3   OH219664   1.150   4.053   3.328
 6567TIP3    H119665   1.193   4.132   3.294
 6567TIP3    H219666   1.206   3.981   3.299
 6568TIP3   OH219667   4.650   6.806   2.313
 6568TIP3    H119668   4.714   6.875   2.299
 6568TIP3    H219669   4.667   6.775   2.402
 6569TIP3   OH219670   5.734   5.937   2.172
 6569TIP3    H119671   5.788   5.990   2.112
 6569TIP3    H219672   5.678   5.885   2.115
 6570TIP3   OH219673   0.393   0.751   0.763
 6570TIP3    H119674   0.393   0.656   0.747
 6570TIP3    H219675   0.340   0.762   0.841
 6571TIP3   OH219676   4.462   4.901   5.364
 6571TIP3    H119677   4.529   4.865   5.421
 6571TIP3    H219678   4.506   4.973   5.318
 6572TIP3   OH219679   3.725   5.159   5.049
 6572TIP3    H119680   3.729   5.173   4.955
 6572TIP3    H219681   3.813   5.178   5.080
 6573TIP3   OH219682   5.472   1.122   1.458
 6573TIP3    H119683   5.503   1.213   1.463
 6573TIP3    H219684   5.553   1.070   1.462
 6574TIP3   OH219685   6.687   4.119   1.868
 6574TIP3    H119686   6.666   4.149   1.956
 6574TIP3    H219687   6.626   4.048   1.852
 6575TIP3   OH219688   1.855   5.787   4.470
 6575TIP3    H119689   1.895   5.716   4.419
 6575TIP3    H219690   1.908   5.864   4.449
 6576TIP3   OH219691   3.838   0.386   5.870
 6576TIP3    H119692   3.763   0.422   5.822
 6576TIP3    H219693   3.914   0.434   5.836
 6577TIP3   OH219694   3.482   2.172   4.932
 6577TIP3    H119695   3.443   2.216   4.856
 6577TIP3    H219696   3.473   2.235   5.003
 6578TIP3   OH219697   4.704   1.560   3.635
 6578TIP3    H119698   4.772   1.585   3.573
 6578TIP3    H219699   4.654   1.641   3.650
 6579TIP3   OH219700   4.033   5.175   0.048
 6579TIP3    H119701   4.052   5.084   0.071
 6579TIP3    H219702   4.119   5.214   0.034
 6580TIP3   OH219703   1.734   2.145   1.259
 6580TIP3    H119704   1.827   2.142   1.281
 6580TIP3    H219705   1.726   2.087   1.183
 6581TIP3   OH219706   3.872   6.665   2.837
 6581TIP3    H119707   3.870   6.750   2.794
 6581TIP3    H219708   3.803   6.669   2.903
 6582TIP3   OH219709   4.900   1.465   2.922
 6582TIP3    H119710   4.909   1.499   3.010
 6582TIP3    H219711   4.928   1.373   2.928
 6583TIP3   OH219712   1.899   4.534   4.970
 6583TIP3    H119713   1.823   4.475   4.971
 6583TIP3    H219714   1.878   4.597   4.901
 6584TIP3   OH219715   2.297   5.010   0.022
 6584TIP3    H119716   2.257   5.042   0.102
 6584TIP3    H219717   2.390   5.003   0.042
 6585TIP3   OH219718   3.881   4.406   1.126
 6585TIP3    H119719   3.916   4.372   1.209
 6585TIP3    H219720   3.956   4.450   1.086
 6586TIP3   OH219721   6.890   1.792   5.136
 6586TIP3    H119722   6.841   1.712   5.119
 6586TIP3    H219723   6.911   1.827   5.049
 6587TIP3   OH219724   2.280   3.988   2.739
 6587TIP3    H119725   2.320   3.935   2.808
 6587TIP3    H219726   2.314   4.076   2.754
 6588TIP3   OH219727   4.206   0.599   3.986
 6588TIP3    H119728   4.142   0.661   4.020
 6588TIP3    H219729   4.224   0.540   4.059
 6589TIP3   OH219730   1.933   3.533   2.764
 6589TIP3    H119731   1.867   3.566   2.825
 6589TIP3    H219732   1.999   3.603   2.759
 6590TIP3   OH219733   6.068   5.911   2.998
 6590TIP3    H119734   6.033   5.954   3.077
 6590TIP3    H219735   6.019   5.829   2.993
 6591TIP3   OH219736   6.252   5.915   3.781
 6591TIP3    H119737   6.238   5.879   3.694
 6591TIP3    H219738   6.290   5.842   3.831
 6592TIP3   OH219739   6.836   1.144   2.564
 6592TIP3    H119740   6.807   1.053   2.566
 6592TIP3    H219741   6.781   1.188   2.629
 6593TIP3   OH219742   1.790   3.269   5.871
 6593TIP3    H119743   1.812   3.362   5.872
 6593TIP3    H219744   1.874   3.224   5.877
 6594TIP3   OH219745   5.028   5.060   0.792
 6594TIP3    H119746   4.971   5.009   0.850
 6594TIP3    H219747   4.969   5.121   0.748
 6595TIP3   OH219748   6.214   0.182   3.097
 6595TIP3    H119749   6.203   0.269   3.135
 6595TIP3    H219750   6.299   0.152   3.128
 6596TIP3   OH219751   1.344   4.410   1.618
 6596TIP3    H119752   1.399   4.352   1.671
 6596TIP3    H219753   1.256   4.397   1.651
 6597TIP3   OH219754   2.552   3.385   0.780
 6597TIP3    H119755   2.556   3.428   0.866
 6597TIP3    H219756   2.628   3.327   0.779
 6598TIP3   OH219757   5.745   1.290   1.341
 6598TIP3    H119758   5.780   1.201   1.349
 6598TIP3    H219759   5.692   1.302   1.420
 6599TIP3   OH219760   4.077   4.145   4.558
 6599TIP3    H119761   4.129   4.101   4.491
 6599TIP3    H219762   4.033   4.074   4.605
 6600TIP3   OH219763   1.444   2.994   0.194
 6600TIP3    H119764   1.468   2.915   0.146
 6600TIP3    H219765   1.527   3.029   0.226
 6601TIP3   OH219766   5.136   0.628   1.743
 6601TIP3    H119767   5.230   0.629   1.765
 6601TIP3    H219768   5.115   0.534   1.739
 6602TIP3   OH219769   6.710   5.605   3.254
 6602TIP3    H119770   6.696   5.689   3.297
 6602TIP3    H219771   6.630   5.589   3.204
 6603TIP3   OH219772   4.966   3.059   4.764
 6603TIP3    H119773   5.009   3.067   4.849
 6603TIP3    H219774   4.899   2.992   4.777
 6604TIP3   OH219775   2.211   2.623   4.774
 6604TIP3    H119776   2.182   2.600   4.862
 6604TIP3    H219777   2.238   2.539   4.735
 6605TIP3   OH219778   4.496   3.435   5.615
 6605TIP3    H119779   4.468   3.523   5.641
 6605TIP3    H219780   4.524   3.445   5.524
 6606TIP3   OH219781   6.734   5.825   0.200
 6606TIP3    H119782   6.658   5.875   0.230
 6606TIP3    H219783   6.703   5.735   0.194
 6607TIP3   OH219784   0.740   3.450   4.035
 6607TIP3    H119785   0.765   3.540   4.017
 6607TIP3    H219786   0.657   3.457   4.083
 6608TIP3   OH219787   2.505   2.486   0.311
 6608TIP3    H119788   2.478   2.519   0.224
 6608TIP3    H219789   2.422   2.471   0.357
 6609TIP3   OH219790   0.243   6.731   1.532
 6609TIP3    H119791   0.193   6.730   1.450
 6609TIP3    H219792   0.177   6.745   1.600
 6610TIP3   OH219793   2.115   5.127   1.598
 6610TIP3    H119794   2.167   5.141   1.519
 6610TIP3    H219795   2.113   5.032   1.609
 6611TIP3   OH219796   1.795   0.086   0.357
 6611TIP3    H119797   1.887   0.112   0.362
 6611TIP3    H219798   1.766   0.119   0.272
 6612TIP3   OH219799   4.675   1.968   3.182
 6612TIP3    H119800   4.728   1.958   3.262
 6612TIP3    H219801   4.593   2.007   3.212
 6613TIP3   OH219802   2.131   5.242   0.758
 6613TIP3    H119803   2.195   5.182   0.797
 6613TIP3    H219804   2.166   5.262   0.671
 6614TIP3   OH219805   5.023   4.129   5.377
 6614TIP3    H119806   5.053   4.134   5.467
 6614TIP3    H219807   4.941   4.178   5.376
 6615TIP3   OH219808   2.821   3.849   4.803
 6615TIP3    H119809   2.820   3.822   4.712
 6615TIP3    H219810   2.901   3.809   4.839
 6616TIP3   OH219811   3.317   3.866   4.087
 6616TIP3    H119812   3.310   3.787   4.033
 6616TIP3    H219813   3.339   3.833   4.175
 6617TIP3   OH219814   1.141   4.886   2.728
 6617TIP3    H119815   1.203   4.946   2.768
 6617TIP3    H219816   1.137   4.812   2.788
 6618TIP3   OH219817   5.040   3.959   4.347
 6618TIP3    H119818   5.061   4.014   4.423
 6618TIP3    H219819   5.125   3.937   4.309
 6619TIP3   OH219820   7.164   0.887   2.703
 6619TIP3    H119821   7.119   0.802   2.697
 6619TIP3    H219822   7.176   0.915   2.612
 6620TIP3   OH219823   4.678   0.961   5.780
 6620TIP3    H119824   4.704   0.895   5.844
 6620TIP3    H219825   4.751   1.023   5.779
 6621TIP3   OH219826   5.373   4.646   3.073
 6621TIP3    H119827   5.384   4.569   3.018
 6621TIP3    H219828   5.290   4.632   3.118
 6622TIP3   OH219829   3.539   4.477   1.984
 6622TIP3    H119830   3.462   4.441   2.027
 6622TIP3    H219831   3.536   4.441   1.895
 6623TIP3   OH219832   1.830   3.008   2.580
 6623TIP3    H119833   1.854   3.092   2.620
 6623TIP3    H219834   1.734   3.009   2.579
 6624TIP3   OH219835   2.617   0.730   5.099
 6624TIP3    H119836   2.607   0.642   5.136
 6624TIP3    H219837   2.532   0.771   5.113
 6625TIP3   OH219838   0.364   1.950   0.606
 6625TIP3    H119839   0.407   1.866   0.591
 6625TIP3    H219840   0.432   2.005   0.645
 6626TIP3   OH219841   4.995   1.891   5.073
 6626TIP3    H119842   4.951   1.808   5.058
 6626TIP3    H219843   4.924   1.954   5.085
 6627TIP3   OH219844   6.442   2.379   5.494
 6627TIP3    H119845   6.426   2.290   5.464
 6627TIP3    H219846   6.406   2.435   5.426
 6628TIP3   OH219847   2.234   3.668   0.707
 6628TIP3    H119848   2.307   3.637   0.760
 6628TIP3    H219849   2.242   3.763   0.707
 6629TIP3   OH219850   0.359   4.328   0.202
 6629TIP3    H119851   0.343   4.379   0.123
 6629TIP3    H219852   0.412   4.254   0.172
 6630TIP3   OH219853   6.686   1.745   4.334
 6630TIP3    H119854   6.684   1.804   4.258
 6630TIP3    H219855   6.598   1.752   4.372
 6631TIP3   OH219856   6.725   1.359   5.781
 6631TIP3    H119857   6.702   1.294   5.715
 6631TIP3    H219858   6.816   1.381   5.762
 6632TIP3   OH219859   2.921   6.762   2.886
 6632TIP3    H119860   2.977   6.718   2.949
 6632TIP3    H219861   2.975   6.771   2.807
 6633TIP3   OH219862   2.201   2.661   5.464
 6633TIP3    H119863   2.174   2.728   5.527
 6633TIP3    H219864   2.236   2.590   5.518
 6634TIP3   OH219865   1.806   4.159   2.253
 6634TIP3    H119866   1.721   4.136   2.290
 6634TIP3    H219867   1.792   4.159   2.158
 6635TIP3   OH219868   3.482   0.726   5.211
 6635TIP3    H119869   3.567   0.765   5.229
 6635TIP3    H219870   3.421   0.799   5.210
 6636TIP3   OH219871   4.329   4.416   1.448
 6636TIP3    H119872   4.292   4.333   1.417
 6636TIP3    H219873   4.360   4.459   1.368
 6637TIP3   OH219874   1.973   3.454   3.230
 6637TIP3    H119875   1.890   3.418   3.197
 6637TIP3    H219876   2.007   3.387   3.288
 6638TIP3   OH219877   2.553   0.846   3.363
 6638TIP3    H119878   2.544   0.894   3.446
 6638TIP3    H219879   2.487   0.886   3.306
 6639TIP3   OH219880   5.471   6.581   3.585
 6639TIP3    H119881   5.391   6.601   3.632
 6639TIP3    H219882   5.525   6.534   3.649
 6640TIP3   OH219883   5.180   2.813   3.238
 6640TIP3    H119884   5.239   2.786   3.308
 6640TIP3    H219885   5.195   2.750   3.167
 6641TIP3   OH219886   6.696   0.483   4.916
 6641TIP3    H119887   6.704   0.400   4.870
 6641TIP3    H219888   6.787   0.510   4.932
 6642TIP3   OH219889   5.814   4.258   3.487
 6642TIP3    H119890   5.889   4.292   3.440
 6642TIP3    H219891   5.848   4.233   3.573
 6643TIP3   OH219892   1.107   4.392   1.738
 6643TIP3    H119893   1.043   4.457   1.769
 6643TIP3    H219894   1.074   4.308   1.769
 6644TIP3   OH219895   7.175   6.301   2.687
 6644TIP3    H119896   7.149   6.240   2.756
 6644TIP3    H219897   7.152   6.388   2.721
 6645TIP3   OH219898   1.461   6.467   2.085
 6645TIP3    H119899   1.444   6.532   2.016
 6645TIP3    H219900   1.553   6.480   2.108
 6646TIP3   OH219901   6.243   5.777   4.220
 6646TIP3    H119902   6.271   5.844   4.282
 6646TIP3    H219903   6.293   5.699   4.244
 6647TIP3   OH219904   4.208   1.782   2.175
 6647TIP3    H119905   4.232   1.846   2.108
 6647TIP3    H219906   4.265   1.707   2.159
 6648TIP3   OH219907   5.814   1.735   4.907
 6648TIP3    H119908   5.781   1.732   4.817
 6648TIP3    H219909   5.770   1.662   4.951
 6649TIP3   OH219910   4.250   6.402   1.252
 6649TIP3    H119911   4.268   6.415   1.159
 6649TIP3    H219912   4.184   6.332   1.254
 6650TIP3   OH219913   3.229   4.420   2.644
 6650TIP3    H119914   3.316   4.457   2.627
 6650TIP3    H219915   3.172   4.460   2.579
 6651TIP3   OH219916   6.916   5.067   3.185
 6651TIP3    H119917   7.006   5.058   3.217
 6651TIP3    H219918   6.902   5.162   3.179
 6652TIP3   OH219919   7.046   0.633   2.686
 6652TIP3    H119920   6.965   0.599   2.724
 6652TIP3    H219921   7.040   0.613   2.593
 6653TIP3   OH219922   0.196   2.048   3.875
 6653TIP3    H119923   0.183   2.135   3.913
 6653TIP3    H219924   0.198   2.064   3.780
 6654TIP3   OH219925   4.402   0.058   5.529
 6654TIP3    H119926   4.439   0.145   5.536
 6654TIP3    H219927   4.434   0.025   5.445
 6655TIP3   OH219928   1.920   5.597   0.732
 6655TIP3    H119929   1.824   5.595   0.733
 6655TIP3    H219930   1.943   5.587   0.640
 6656TIP3   OH219931   2.964   1.357   4.308
 6656TIP3    H119932   3.049   1.328   4.342
 6656TIP3    H219933   2.900   1.320   4.369
 6657TIP3   OH219934   6.493   2.099   1.569
 6657TIP3    H119935   6.565   2.067   1.513
 6657TIP3    H219936   6.435   2.145   1.509
 6658TIP3   OH219937   5.118   0.338   3.202
 6658TIP3    H119938   5.072   0.312   3.283
 6658TIP3    H219939   5.056   0.395   3.157
 6659TIP3   OH219940   4.700   1.797   0.844
 6659TIP3    H119941   4.716   1.863   0.911
 6659TIP3    H219942   4.741   1.718   0.878
 6660TIP3   OH219943   2.477   6.122   2.688
 6660TIP3    H119944   2.485   6.128   2.783
 6660TIP3    H219945   2.514   6.203   2.654
 6661TIP3   OH219946   6.311   2.368   3.780
 6661TIP3    H119947   6.231   2.324   3.806
 6661TIP3    H219948   6.326   2.433   3.849
 6662TIP3   OH219949   5.812   6.249   5.845
 6662TIP3    H119950   5.901   6.218   5.858
 6662TIP3    H219951   5.816   6.343   5.864
 6663TIP3   OH219952   5.500   1.304   2.358
 6663TIP3    H119953   5.467   1.219   2.327
 6663TIP3    H219954   5.521   1.352   2.278
 6664TIP3   OH219955   3.838   3.802   5.592
 6664TIP3    H119956   3.889   3.838   5.519
 6664TIP3    H219957   3.865   3.710   5.595
 6665TIP3   OH219958   7.142   3.784   2.838
 6665TIP3    H119959   7.198   3.714   2.803
 6665TIP3    H219960   7.183   3.807   2.922
 6666TIP3   OH219961   1.677   2.671   1.191
 6666TIP3    H119962   1.735   2.595   1.182
 6666TIP3    H219963   1.658   2.697   1.101
 6667TIP3   OH219964   6.735   5.830   2.555
 6667TIP3    H119965   6.676   5.905   2.565
 6667TIP3    H219966   6.736   5.788   2.641
 6668TIP3   OH219967   2.438   0.015   2.865
 6668TIP3    H119968   2.417  -0.038   2.941
 6668TIP3    H219969   2.368   0.080   2.859
 6669TIP3   OH219970   2.039   3.120   0.581
 6669TIP3    H119971   2.110   3.183   0.576
 6669TIP3    H219972   1.962   3.167   0.548
 6670TIP3   OH219973   0.539   3.391   0.285
 6670TIP3    H119974   0.546   3.328   0.357
 6670TIP3    H219975   0.605   3.457   0.305
 6671TIP3   OH219976   6.457   2.845   0.245
 6671TIP3    H119977   6.422   2.820   0.159
 6671TIP3    H219978   6.408   2.924   0.269
 6672TIP3   OH219979   0.210   3.973   4.145
 6672TIP3    H119980   0.204   4.058   4.187
 6672TIP3    H219981   0.147   3.918   4.193
 6673TIP3   OH219982   1.445   2.726   1.003
 6673TIP3    H119983   1.422   2.666   0.932
 6673TIP3    H219984   1.363   2.745   1.047
 6674TIP3   OH219985   4.924   2.311   2.767
 6674TIP3    H119986   4.950   2.370   2.838
 6674TIP3    H219987   4.878   2.367   2.705
 6675TIP3   OH219988   4.768   0.416   1.653
 6675TIP3    H119989   4.706   0.488   1.662
 6675TIP3    H219990   4.730   0.359   1.587
 6676TIP3   OH219991   3.047   2.079   0.846
 6676TIP3    H119992   3.037   2.153   0.906
 6676TIP3    H219993   2.966   2.077   0.796
 6677TIP3   OH219994   0.947   0.001   0.647
 6677TIP3    H119995   1.020   0.064   0.648
 6677TIP3    H219996   0.936  -0.025   0.738
 6678TIP3   OH219997   2.278   0.245   0.092
 6678TIP3    H119998   2.322   0.185   0.032
 6678TIP3    H219999   2.337   0.254   0.166
 6679TIP3   OH220000   0.244   3.707   2.351
 6679TIP3    H120001   0.334   3.733   2.370
 6679TIP3    H220002   0.252   3.627   2.299
 6680TIP3   OH220003   5.639   3.969   4.336
 6680TIP3    H120004   5.693   3.890   4.341
 6680TIP3    H220005   5.550   3.936   4.321
 6681TIP3   OH220006   3.473   2.372   5.720
 6681TIP3    H120007   3.454   2.450   5.669
 6681TIP3    H220008   3.397   2.315   5.707
 6682TIP3   OH220009   4.555   5.490   1.998
 6682TIP3    H120010   4.621   5.557   1.981
 6682TIP3    H220011   4.522   5.510   2.086
 6683TIP3   OH220012   6.395   6.719   4.346
 6683TIP3    H120013   6.302   6.695   4.353
 6683TIP3    H220014   6.443   6.639   4.367
 6684TIP3   OH220015   5.750   5.714   5.631
 6684TIP3    H120016   5.787   5.802   5.625
 6684TIP3    H220017   5.815   5.657   5.591
 6685TIP3   OH220018   3.085   4.122   1.641
 6685TIP3    H120019   3.132   4.158   1.716
 6685TIP3    H220020   2.994   4.146   1.656
 6686TIP3   OH220021   1.916   2.707   4.967
 6686TIP3    H120022   1.965   2.626   4.978
 6686TIP3    H220023   1.885   2.705   4.877
 6687TIP3   OH220024   5.046   5.552   1.446
 6687TIP3    H120025   4.972   5.534   1.505
 6687TIP3    H220026   5.007   5.555   1.359
 6688TIP3   OH220027   1.142   5.151   2.894
 6688TIP3    H120028   1.142   5.247   2.888
 6688TIP3    H220029   1.235   5.128   2.899
 6689TIP3   OH220030   1.040   5.779   4.711
 6689TIP3    H120031   1.089   5.833   4.649
 6689TIP3    H220032   1.107   5.733   4.762
 6690TIP3   OH220033   4.518   1.412   4.948
 6690TIP3    H120034   4.575   1.395   5.023
 6690TIP3    H220035   4.453   1.474   4.982
 6691TIP3   OH220036   2.317   1.499   2.988
 6691TIP3    H120037   2.223   1.481   2.991
 6691TIP3    H220038   2.333   1.552   3.066
 6692TIP3   OH220039   2.455   0.562   3.353
 6692TIP3    H120040   2.397   0.636   3.335
 6692TIP3    H220041   2.541   0.601   3.367
 6693TIP3   OH220042   6.960   2.586   0.482
 6693TIP3    H120043   7.013   2.639   0.541
 6693TIP3    H220044   7.015   2.572   0.405
 6694TIP3   OH220045   1.734   1.333   5.663
 6694TIP3    H120046   1.682   1.369   5.734
 6694TIP3    H220047   1.720   1.393   5.590
 6695TIP3   OH220048   3.999   1.280   2.658
 6695TIP3    H120049   3.904   1.278   2.665
 6695TIP3    H220050   4.020   1.222   2.586
 6696TIP3   OH220051   3.754   0.136   3.029
 6696TIP3    H120052   3.713   0.210   3.074
 6696TIP3    H220053   3.723   0.059   3.076
 6697TIP3   OH220054   6.719   3.779   4.542
 6697TIP3    H120055   6.655   3.745   4.480
 6697TIP3    H220056   6.709   3.874   4.538
 6698TIP3   OH220057   5.756   6.492   1.670
 6698TIP3    H120058   5.773   6.574   1.624
 6698TIP3    H220059   5.837   6.441   1.659
 6699TIP3   OH220060   0.990   6.511   0.348
 6699TIP3    H120061   0.903   6.471   0.339
 6699TIP3    H220062   0.983   6.566   0.426
 6700TIP3   OH220063   3.219   0.832   0.907
 6700TIP3    H120064   3.314   0.836   0.897
 6700TIP3    H220065   3.205   0.773   0.982
 6701TIP3   OH220066   5.781   3.089   2.821
 6701TIP3    H120067   5.765   3.184   2.824
 6701TIP3    H220068   5.747   3.057   2.904
 6702TIP3   OH220069   0.861   4.096   2.562
 6702TIP3    H120070   0.886   4.028   2.624
 6702TIP3    H220071   0.782   4.063   2.520
 6703TIP3   OH220072   4.790   6.366   3.962
 6703TIP3    H120073   4.717   6.352   3.902
 6703TIP3    H220074   4.787   6.290   4.021
 6704TIP3   OH220075   1.906   2.782   2.871
 6704TIP3    H120076   1.955   2.826   2.801
 6704TIP3    H220077   1.973   2.747   2.929
 6705TIP3   OH220078   0.082   1.847   0.729
 6705TIP3    H120079   0.053   1.901   0.655
 6705TIP3    H220080   0.161   1.890   0.761
 6706TIP3   OH220081   5.710   1.110   4.065
 6706TIP3    H120082   5.681   1.144   4.150
 6706TIP3    H220083   5.651   1.152   4.002
 6707TIP3   OH220084   4.948   6.247   2.815
 6707TIP3    H120085   5.021   6.202   2.773
 6707TIP3    H220086   4.988   6.296   2.887
 6708TIP3   OH220087   4.659   0.162   2.184
 6708TIP3    H120088   4.622   0.150   2.271
 6708TIP3    H220089   4.625   0.246   2.155
 6709TIP3   OH220090   1.364   4.742   4.851
 6709TIP3    H120091   1.310   4.715   4.777
 6709TIP3    H220092   1.312   4.717   4.928
 6710TIP3   OH220093   6.995   4.890   3.581
 6710TIP3    H120094   7.051   4.818   3.608
 6710TIP3    H220095   6.992   4.884   3.486
 6711TIP3   OH220096   5.980   1.865   2.483
 6711TIP3    H120097   5.941   1.801   2.424
 6711TIP3    H220098   6.036   1.813   2.541
 6712TIP3   OH220099   5.481   2.547   4.927
 6712TIP3    H120100   5.412   2.533   4.863
 6712TIP3    H220101   5.444   2.613   4.987
 6713TIP3   OH220102   0.765   5.770   1.470
 6713TIP3    H120103   0.842   5.826   1.460
 6713TIP3    H220104   0.691   5.831   1.469
 6714TIP3   OH220105   3.620   6.553   0.050
 6714TIP3    H120106   3.616   6.492   0.123
 6714TIP3    H220107   3.559   6.623   0.073
 6715TIP3   OH220108   0.580   5.881   5.688
 6715TIP3    H120109   0.649   5.876   5.754
 6715TIP3    H220110   0.586   5.970   5.653
 6716TIP3   OH220111   3.865   3.804   2.933
 6716TIP3    H120112   3.803   3.791   3.005
 6716TIP3    H220113   3.949   3.819   2.976
 6717TIP3   OH220114   0.714   1.491   1.816
 6717TIP3    H120115   0.736   1.496   1.723
 6717TIP3    H220116   0.619   1.480   1.818
 6718TIP3   OH220117   3.875   1.955   1.528
 6718TIP3    H120118   3.905   1.980   1.615
 6718TIP3    H220119   3.809   1.888   1.543
 6719TIP3   OH220120   3.039   4.381   2.088
 6719TIP3    H120121   3.055   4.362   2.180
 6719TIP3    H220122   2.950   4.416   2.086
 6720TIP3   OH220123   2.894   1.518   5.671
 6720TIP3    H120124   2.822   1.471   5.712
 6720TIP3    H220125   2.856   1.603   5.647
 6721TIP3   OH220126   1.053   4.935   3.933
 6721TIP3    H120127   1.136   4.894   3.954
 6721TIP3    H220128   1.070   4.986   3.854
 6722TIP3   OH220129   3.737   6.558   4.672
 6722TIP3    H120130   3.664   6.604   4.631
 6722TIP3    H220131   3.722   6.565   4.766
 6723TIP3   OH220132   1.086   3.814   0.518
 6723TIP3    H120133   1.157   3.753   0.497
 6723TIP3    H220134   1.070   3.800   0.612
 6724TIP3   OH220135   3.680   2.852   0.482
 6724TIP3    H120136   3.747   2.852   0.549
 6724TIP3    H220137   3.622   2.779   0.505
 6725TIP3   OH220138   4.288   3.174   5.633
 6725TIP3    H120139   4.293   3.262   5.595
 6725TIP3    H220140   4.379   3.150   5.649
 6726TIP3   OH220141   4.457   1.107   0.731
 6726TIP3    H120142   4.460   1.061   0.647
 6726TIP3    H220143   4.518   1.059   0.787
 6727TIP3   OH220144   1.595   6.001   2.530
 6727TIP3    H120145   1.666   6.013   2.593
 6727TIP3    H220146   1.516   6.025   2.578
 6728TIP3   OH220147   0.117   1.785   5.726
 6728TIP3    H120148   0.145   1.845   5.656
 6728TIP3    H220149   0.134   1.698   5.690
 6729TIP3   OH220150   0.871   3.942   1.970
 6729TIP3    H120151   0.840   3.859   1.934
 6729TIP3    H220152   0.807   3.965   2.036
 6730TIP3   OH220153   1.260   2.242   0.019
 6730TIP3    H120154   1.227   2.180  -0.045
 6730TIP3    H220155   1.278   2.188   0.097
 6731TIP3   OH220156   5.144   1.437   3.139
 6731TIP3    H120157   5.067   1.492   3.132
 6731TIP3    H220158   5.169   1.418   3.049
 6732TIP3   OH220159   1.727   3.230   5.428
 6732TIP3    H120160   1.703   3.209   5.518
 6732TIP3    H220161   1.731   3.146   5.384
 6733TIP3   OH220162   2.266   4.292   2.499
 6733TIP3    H120163   2.190   4.245   2.466
 6733TIP3    H220164   2.290   4.352   2.428
 6734TIP3   OH220165   2.830   4.557   2.050
 6734TIP3    H120166   2.759   4.563   1.987
 6734TIP3    H220167   2.792   4.513   2.126
 6735TIP3   OH220168   2.995   2.038   2.996
 6735TIP3    H120169   2.920   1.979   3.005
 6735TIP3    H220170   2.984   2.076   2.908
 6736TIP3   OH220171   6.071   6.122   3.611
 6736TIP3    H120172   6.005   6.082   3.668
 6736TIP3    H220173   6.153   6.077   3.634
 6737TIP3   OH220174   6.015   1.923   4.435
 6737TIP3    H120175   6.082   1.893   4.497
 6737TIP3    H220176   5.959   1.981   4.488
 6738TIP3   OH220177   2.862   1.282   3.733
 6738TIP3    H120178   2.861   1.258   3.641
 6738TIP3    H220179   2.932   1.347   3.740
 6739TIP3   OH220180   0.928   5.942   0.559
 6739TIP3    H120181   0.960   5.990   0.482
 6739TIP3    H220182   0.833   5.937   0.547
 6740TIP3   OH220183   7.189   0.689   0.634
 6740TIP3    H120184   7.201   0.755   0.702
 6740TIP3    H220185   7.102   0.653   0.649
 6741TIP3   OH220186   2.910   5.373   3.662
 6741TIP3    H120187   2.977   5.307   3.648
 6741TIP3    H220188   2.848   5.333   3.723
 6742TIP3   OH220189   4.166   5.594   4.603
 6742TIP3    H120190   4.077   5.579   4.635
 6742TIP3    H220191   4.190   5.679   4.639
 6743TIP3   OH220192   6.102   1.529   3.589
 6743TIP3    H120193   6.037   1.543   3.520
 6743TIP3    H220194   6.171   1.479   3.546
 6744TIP3   OH220195   1.649   1.217   4.243
 6744TIP3    H120196   1.622   1.273   4.170
 6744TIP3    H220197   1.745   1.217   4.239
 6745TIP3   OH220198   5.345   2.701   2.628
 6745TIP3    H120199   5.352   2.777   2.570
 6745TIP3    H220200   5.371   2.734   2.714
 6746TIP3   OH220201   1.437   3.530   0.204
 6746TIP3    H120202   1.373   3.599   0.188
 6746TIP3    H220203   1.504   3.542   0.138
 6747TIP3   OH220204   1.806   0.406   5.281
 6747TIP3    H120205   1.769   0.452   5.357
 6747TIP3    H220206   1.895   0.383   5.309
 6748TIP3   OH220207   4.087   4.911   2.467
 6748TIP3    H120208   4.015   4.928   2.407
 6748TIP3    H220209   4.151   4.980   2.448
 6749TIP3   OH220210   1.303   1.810   4.883
 6749TIP3    H120211   1.290   1.746   4.813
 6749TIP3    H220212   1.215   1.842   4.904
 6750TIP3   OH220213   3.042   0.494   1.321
 6750TIP3    H120214   3.057   0.414   1.271
 6750TIP3    H220215   3.086   0.480   1.405
 6751TIP3   OH220216   5.044   3.103   0.227
 6751TIP3    H120217   4.980   3.070   0.291
 6751TIP3    H220218   5.128   3.096   0.273
 6752TIP3   OH220219   0.724   6.733   5.622
 6752TIP3    H120220   0.727   6.813   5.675
 6752TIP3    H220221   0.793   6.677   5.658
 6753TIP3   OH220222   4.320   4.529   4.736
 6753TIP3    H120223   4.252   4.482   4.688
 6753TIP3    H220224   4.358   4.589   4.672
 6754TIP3   OH220225   4.795   1.270   4.997
 6754TIP3    H120226   4.766   1.182   5.021
 6754TIP3    H220227   4.809   1.265   4.902
 6755TIP3   OH220228   5.101   2.573   2.652
 6755TIP3    H120229   5.186   2.617   2.646
 6755TIP3    H220230   5.038   2.637   2.622
 6756TIP3   OH220231   5.215   6.576   5.443
 6756TIP3    H120232   5.214   6.485   5.473
 6756TIP3    H220233   5.303   6.607   5.465
 6757TIP3   OH220234   2.077   1.864   0.362
 6757TIP3    H120235   2.024   1.799   0.315
 6757TIP3    H220236   2.159   1.818   0.380
 6758TIP3   OH220237   1.120   1.392   0.571
 6758TIP3    H120238   1.054   1.459   0.589
 6758TIP3    H220239   1.200   1.442   0.555
 6759TIP3   OH220240   1.831   4.614   3.717
 6759TIP3    H120241   1.885   4.551   3.766
 6759TIP3    H220242   1.748   4.569   3.703
 6760TIP3   OH220243   0.394   5.590   1.614
 6760TIP3    H120244   0.375   5.553   1.701
 6760TIP3    H220245   0.432   5.676   1.632
 6761TIP3   OH220246   2.117   2.081   4.376
 6761TIP3    H120247   2.119   2.016   4.446
 6761TIP3    H220248   2.025   2.107   4.369
 6762TIP3   OH220249   5.267   5.881   4.674
 6762TIP3    H120250   5.181   5.849   4.699
 6762TIP3    H220251   5.288   5.835   4.593
 6763TIP3   OH220252   2.076   3.153   4.544
 6763TIP3    H120253   2.169   3.158   4.566
 6763TIP3    H220254   2.049   3.066   4.572
 6764TIP3   OH220255   4.692   2.481   2.682
 6764TIP3    H120256   4.706   2.463   2.776
 6764TIP3    H220257   4.650   2.402   2.649
 6765TIP3   OH220258   4.674   0.960   2.118
 6765TIP3    H120259   4.696   0.943   2.026
 6765TIP3    H220260   4.699   1.051   2.132
 6766TIP3   OH220261   6.690   3.446   3.364
 6766TIP3    H120262   6.748   3.479   3.433
 6766TIP3    H220263   6.608   3.494   3.377
 6767TIP3   OH220264   4.129   3.774   1.451
 6767TIP3    H120265   4.183   3.697   1.468
 6767TIP3    H220266   4.044   3.739   1.423
 6768TIP3   OH220267   0.539   4.718   0.803
 6768TIP3    H120268   0.455   4.696   0.763
 6768TIP3    H220269   0.596   4.644   0.782
 6769TIP3   OH220270   6.460   0.320   2.771
 6769TIP3    H120271   6.487   0.359   2.854
 6769TIP3    H220272   6.389   0.261   2.795
 6770TIP3   OH220273   0.795   0.594   1.283
 6770TIP3    H120274   0.737   0.645   1.340
 6770TIP3    H220275   0.879   0.593   1.329
 6771TIP3   OH220276   4.163   4.066   3.228
 6771TIP3    H120277   4.156   4.043   3.320
 6771TIP3    H220278   4.234   4.131   3.225
 6772TIP3   OH220279   5.624   4.344   0.979
 6772TIP3    H120280   5.534   4.313   0.969
 6772TIP3    H220281   5.676   4.264   0.980
 6773TIP3   OH220282   4.107   0.187   4.436
 6773TIP3    H120283   4.067   0.223   4.357
 6773TIP3    H220284   4.126   0.264   4.491
 6774TIP3   OH220285   6.975   0.046   5.012
 6774TIP3    H120286   6.918   0.033   4.936
 6774TIP3    H220287   6.928   0.109   5.066
 6775TIP3   OH220288   6.700   3.052   3.827
 6775TIP3    H120289   6.606   3.072   3.833
 6775TIP3    H220290   6.707   2.993   3.752
 6776TIP3   OH220291   2.872   1.114   4.766
 6776TIP3    H120292   2.870   1.185   4.702
 6776TIP3    H220293   2.799   1.132   4.825
 6777TIP3   OH220294   4.553   1.901   5.446
 6777TIP3    H120295   4.509   1.819   5.427
 6777TIP3    H220296   4.531   1.958   5.372
 6778TIP3   OH220297   6.842   1.736   1.887
 6778TIP3    H120298   6.848   1.669   1.819
 6778TIP3    H220299   6.932   1.747   1.918
 6779TIP3   OH220300   1.404   5.275   4.266
 6779TIP3    H120301   1.468   5.299   4.333
 6779TIP3    H220302   1.414   5.341   4.198
 6780TIP3   OH220303   2.052   2.842   2.256
 6780TIP3    H120304   2.043   2.932   2.224
 6780TIP3    H220305   2.073   2.852   2.348
 6781TIP3   OH220306   1.583   4.536   0.591
 6781TIP3    H120307   1.548   4.462   0.542
 6781TIP3    H220308   1.677   4.533   0.574
 6782TIP3   OH220309   4.451   4.126   1.876
 6782TIP3    H120310   4.517   4.097   1.813
 6782TIP3    H220311   4.385   4.170   1.822
 6783TIP3   OH220312   4.919   1.131   5.774
 6783TIP3    H120313   4.930   1.132   5.679
 6783TIP3    H220314   5.004   1.103   5.808
 6784TIP3   OH220315   5.938   1.979   0.776
 6784TIP3    H120316   5.906   2.019   0.695
 6784TIP3    H220317   6.021   2.025   0.794
 6785TIP3   OH220318   1.646   2.921   0.982
 6785TIP3    H120319   1.571   2.876   1.021
 6785TIP3    H220320   1.636   2.906   0.888
 6786TIP3   OH220321   5.734   0.179   1.205
 6786TIP3    H120322   5.755   0.258   1.155
 6786TIP3    H220323   5.733   0.208   1.296
 6787TIP3   OH220324   0.322   0.920   2.133
 6787TIP3    H120325   0.353   1.005   2.103
 6787TIP3    H220326   0.368   0.906   2.216
 6788TIP3   OH220327   5.478   6.485   1.524
 6788TIP3    H120328   5.556   6.494   1.579
 6788TIP3    H220329   5.500   6.531   1.443
 6789TIP3   OH220330   3.373   5.493   2.689
 6789TIP3    H120331   3.363   5.542   2.607
 6789TIP3    H220332   3.459   5.452   2.682
 6790TIP3   OH220333   0.124   6.730   4.825
 6790TIP3    H120334   0.130   6.802   4.762
 6790TIP3    H220335   0.214   6.698   4.833
 6791TIP3   OH220336   1.838   1.441   1.515
 6791TIP3    H120337   1.901   1.404   1.453
 6791TIP3    H220338   1.784   1.367   1.542
 6792TIP3   OH220339   1.528   5.818   3.812
 6792TIP3    H120340   1.518   5.913   3.824
 6792TIP3    H220341   1.622   5.803   3.820
 6793TIP3   OH220342   1.242   0.535   1.616
 6793TIP3    H120343   1.288   0.517   1.698
 6793TIP3    H220344   1.312   0.556   1.554
 6794TIP3   OH220345   2.439   5.888   3.473
 6794TIP3    H120346   2.360   5.860   3.520
 6794TIP3    H220347   2.474   5.807   3.436
 6795TIP3   OH220348   6.489   0.881   2.856
 6795TIP3    H120349   6.397   0.883   2.884
 6795TIP3    H220350   6.528   0.957   2.899
 6796TIP3   OH220351   1.033   6.653   1.906
 6796TIP3    H120352   0.990   6.668   1.991
 6796TIP3    H220353   1.075   6.568   1.916
 6797TIP3   OH220354   0.825   2.528   0.256
 6797TIP3    H120355   0.859   2.439   0.252
 6797TIP3    H220356   0.889   2.576   0.309
 6798TIP3   OH220357   2.400   1.074   5.216
 6798TIP3    H120358   2.333   1.062   5.149
 6798TIP3    H220359   2.404   0.991   5.263
 6799TIP3   OH220360   4.761   4.929   3.655
 6799TIP3    H120361   4.705   4.968   3.587
 6799TIP3    H220362   4.766   4.996   3.723
 6800TIP3   OH220363   1.948   0.954   3.543
 6800TIP3    H120364   1.908   0.872   3.513
 6800TIP3    H220365   1.873   1.012   3.559
 6801TIP3   OH220366   3.439   6.165   5.881
 6801TIP3    H120367   3.375   6.203   5.821
 6801TIP3    H220368   3.442   6.073   5.858
 6802TIP3   OH220369   1.810   4.969   1.542
 6802TIP3    H120370   1.788   5.060   1.521
 6802TIP3    H220371   1.813   4.967   1.638
 6803TIP3   OH220372   3.571   3.096   1.131
 6803TIP3    H120373   3.631   3.102   1.057
 6803TIP3    H220374   3.602   3.163   1.192
 6804TIP3   OH220375   7.121   1.283   5.433
 6804TIP3    H120376   7.050   1.339   5.401
 6804TIP3    H220377   7.198   1.311   5.383
 6805TIP3   OH220378   1.609   0.896   0.888
 6805TIP3    H120379   1.611   0.805   0.918
 6805TIP3    H220380   1.516   0.918   0.885
 6806TIP3   OH220381   5.658   5.674   5.247
 6806TIP3    H120382   5.732   5.652   5.303
 6806TIP3    H220383   5.633   5.590   5.207
 6807TIP3   OH220384   1.787   2.520   2.826
 6807TIP3    H120385   1.740   2.603   2.832
 6807TIP3    H220386   1.769   2.490   2.737
 6808TIP3   OH220387   5.497   2.968   5.815
 6808TIP3    H120388   5.581   2.949   5.773
 6808TIP3    H220389   5.455   3.031   5.757
 6809TIP3   OH220390   5.166   6.205   0.696
 6809TIP3    H120391   5.149   6.265   0.768
 6809TIP3    H220392   5.139   6.119   0.729
 6810TIP3   OH220393   1.091   3.672   2.590
 6810TIP3    H120394   1.074   3.673   2.495
 6810TIP3    H220395   1.102   3.764   2.613
 6811TIP3   OH220396   5.020   1.237   1.566
 6811TIP3    H120397   4.972   1.239   1.484
 6811TIP3    H220398   4.983   1.308   1.618
 6812TIP3   OH220399   1.383   1.228   5.115
 6812TIP3    H120400   1.375   1.200   5.024
 6812TIP3    H220401   1.393   1.323   5.110
 6813TIP3   OH220402   4.193   3.136   1.185
 6813TIP3    H120403   4.164   3.074   1.118
 6813TIP3    H220404   4.282   3.159   1.160
 6814TIP3   OH220405   1.961   4.217   0.994
 6814TIP3    H120406   1.937   4.147   0.934
 6814TIP3    H220407   1.908   4.292   0.966
 6815TIP3   OH220408   4.814   0.194   1.175
 6815TIP3    H120409   4.731   0.196   1.127
 6815TIP3    H220410   4.872   0.251   1.125
 6816TIP3   OH220411   6.572   0.475   3.906
 6816TIP3    H120412   6.617   0.493   3.989
 6816TIP3    H220413   6.535   0.388   3.917
 6817TIP3   OH220414   4.751   0.106   1.863
 6817TIP3    H120415   4.727   0.145   1.947
 6817TIP3    H220416   4.667   0.090   1.819
 6818TIP3   OH220417   3.682   1.755   3.572
 6818TIP3    H120418   3.626   1.791   3.640
 6818TIP3    H220419   3.754   1.817   3.564
 6819TIP3   OH220420   0.292   6.056   3.192
 6819TIP3    H120421   0.247   6.043   3.276
 6819TIP3    H220422   0.348   5.979   3.183
 6820TIP3   OH220423   6.812   1.972   3.522
 6820TIP3    H120424   6.733   1.922   3.501
 6820TIP3    H220425   6.816   1.972   3.618
 6821TIP3   OH220426   5.606   1.096   2.780
 6821TIP3    H120427   5.680   1.106   2.721
 6821TIP3    H220428   5.645   1.070   2.863
 6822TIP3   OH220429   6.944   2.477   3.061
 6822TIP3    H120430   6.855   2.472   3.028
 6822TIP3    H220431   6.939   2.539   3.134
 6823TIP3   OH220432   5.633   3.925   4.026
 6823TIP3    H120433   5.637   4.004   3.972
 6823TIP3    H220434   5.663   3.953   4.112
 6824TIP3   OH220435   0.819   1.144   0.309
 6824TIP3    H120436   0.765   1.065   0.310
 6824TIP3    H220437   0.783   1.198   0.378
 6825TIP3   OH220438   2.542   4.370   4.016
 6825TIP3    H120439   2.540   4.282   4.052
 6825TIP3    H220440   2.479   4.369   3.944
 6826TIP3   OH220441   1.225   2.584   2.305
 6826TIP3    H120442   1.301   2.632   2.339
 6826TIP3    H220443   1.208   2.622   2.219
 6827TIP3   OH220444   5.273   3.430   1.763
 6827TIP3    H120445   5.362   3.465   1.771
 6827TIP3    H220446   5.281   3.358   1.701
 6828TIP3   OH220447   2.047   6.012   0.911
 6828TIP3    H120448   2.108   5.972   0.973
 6828TIP3    H220449   2.085   5.994   0.825
 6829TIP3   OH220450   4.531   6.232   3.557
 6829TIP3    H120451   4.564   6.311   3.514
 6829TIP3    H220452   4.466   6.197   3.497
 6830TIP3   OH220453   0.214   3.155   2.039
 6830TIP3    H120454   0.254   3.234   2.003
 6830TIP3    H220455   0.271   3.083   2.011
 6831TIP3   OH220456   6.549   4.184   2.251
 6831TIP3    H120457   6.457   4.210   2.239
 6831TIP3    H220458   6.545   4.111   2.313
 6832TIP3   OH220459   4.446   6.204   1.496
 6832TIP3    H120460   4.520   6.254   1.528
 6832TIP3    H220461   4.371   6.239   1.544
 6833TIP3   OH220462   3.761   4.872   2.706
 6833TIP3    H120463   3.726   4.797   2.755
 6833TIP3    H220464   3.855   4.855   2.701
 6834TIP3   OH220465   1.128   3.968   2.031
 6834TIP3    H120466   1.150   3.938   1.943
 6834TIP3    H220467   1.032   3.962   2.036
 6835TIP3   OH220468   3.167   1.275   5.149
 6835TIP3    H120469   3.088   1.328   5.157
 6835TIP3    H220470   3.229   1.315   5.211
 6836TIP3   OH220471   2.158   1.929   4.968
 6836TIP3    H120472   2.163   1.885   5.053
 6836TIP3    H220473   2.122   2.016   4.989
 6837TIP3   OH220474   0.979   4.201   0.137
 6837TIP3    H120475   0.963   4.267   0.070
 6837TIP3    H220476   0.964   4.118   0.091
 6838TIP3   OH220477   6.246   0.607   1.698
 6838TIP3    H120478   6.328   0.642   1.663
 6838TIP3    H220479   6.262   0.514   1.709
 6839TIP3   OH220480   4.587   0.745   4.976
 6839TIP3    H120481   4.602   0.773   4.886
 6839TIP3    H220482   4.508   0.691   4.972
 6840TIP3   OH220483   2.662   0.702   0.439
 6840TIP3    H120484   2.708   0.708   0.523
 6840TIP3    H220485   2.691   0.619   0.401
 6841TIP3   OH220486   1.935   4.572   2.281
 6841TIP3    H120487   1.865   4.527   2.234
 6841TIP3    H220488   2.002   4.588   2.214
 6842TIP3   OH220489   0.599   3.066   2.336
 6842TIP3    H120490   0.527   3.047   2.396
 6842TIP3    H220491   0.677   3.069   2.393
 6843TIP3   OH220492   0.384   3.866   0.604
 6843TIP3    H120493   0.472   3.851   0.639
 6843TIP3    H220494   0.345   3.928   0.666
 6844TIP3   OH220495   0.971   4.950   2.973
 6844TIP3    H120496   1.013   4.866   2.954
 6844TIP3    H220497   1.022   5.013   2.923
 6845TIP3   OH220498   6.441   6.212   0.202
 6845TIP3    H120499   6.378   6.227   0.273
 6845TIP3    H220500   6.386   6.186   0.127
 6846TIP3   OH220501   5.675   6.416   4.678
 6846TIP3    H120502   5.721   6.486   4.631
 6846TIP3    H220503   5.662   6.450   4.766
 6847TIP3   OH220504   5.810   4.839   3.849
 6847TIP3    H120505   5.896   4.878   3.867
 6847TIP3    H220506   5.811   4.756   3.896
 6848TIP3   OH220507   2.658   6.745   4.017
 6848TIP3    H120508   2.699   6.695   4.087
 6848TIP3    H220509   2.699   6.831   4.022
 6849TIP3   OH220510   2.998   1.629   0.402
 6849TIP3    H120511   3.009   1.540   0.436
 6849TIP3    H220512   2.958   1.617   0.316
 6850TIP3   OH220513  -0.033   5.111   3.258
 6850TIP3    H120514   0.031   5.045   3.287
 6850TIP3    H220515   0.000   5.141   3.174
 6851TIP3   OH220516   5.948   1.984   4.182
 6851TIP3    H120517   6.011   1.972   4.111
 6851TIP3    H220518   5.988   1.937   4.256
 6852TIP3   OH220519   5.918   4.976   0.367
 6852TIP3    H120520   5.972   5.055   0.367
 6852TIP3    H220521   5.943   4.930   0.286
 6853TIP3   OH220522   0.385   4.325   4.693
 6853TIP3    H120523   0.378   4.266   4.618
 6853TIP3    H220524   0.317   4.391   4.678
 6854TIP3   OH220525   6.988   1.439   5.743
 6854TIP3    H120526   7.000   1.472   5.654
 6854TIP3    H220527   7.031   1.504   5.799
 6855TIP3   OH220528   2.021   4.034   0.173
 6855TIP3    H120529   1.928   4.040   0.152
 6855TIP3    H220530   2.047   4.125   0.190
 6856TIP3   OH220531   2.614   4.798   4.313
 6856TIP3    H120532   2.639   4.852   4.238
 6856TIP3    H220533   2.612   4.859   4.387
 6857TIP3   OH220534   3.462   5.848   0.752
 6857TIP3    H120535   3.404   5.830   0.677
 6857TIP3    H220536   3.536   5.896   0.713
 6858TIP3   OH220537   0.547   1.495   3.367
 6858TIP3    H120538   0.510   1.582   3.383
 6858TIP3    H220539   0.471   1.438   3.357
 6859TIP3   OH220540   0.802   0.256   2.511
 6859TIP3    H120541   0.777   0.242   2.420
 6859TIP3    H220542   0.808   0.167   2.548
 6860TIP3   OH220543   6.984   4.492   5.640
 6860TIP3    H120544   7.043   4.566   5.641
 6860TIP3    H220545   7.026   4.428   5.582
 6861TIP3   OH220546   2.612   6.821   5.187
 6861TIP3    H120547   2.678   6.846   5.122
 6861TIP3    H220548   2.631   6.729   5.206
 6862TIP3   OH220549   0.829   5.285   5.514
 6862TIP3    H120550   0.867   5.209   5.468
 6862TIP3    H220551   0.783   5.333   5.446
 6863TIP3   OH220552   5.523   6.056   3.599
 6863TIP3    H120553   5.596   5.994   3.604
 6863TIP3    H220554   5.504   6.063   3.505
 6864TIP3   OH220555   0.489   2.644   2.587
 6864TIP3    H120556   0.531   2.559   2.577
 6864TIP3    H220557   0.528   2.681   2.667
 6865TIP3   OH220558   2.156   3.522   4.502
 6865TIP3    H120559   2.163   3.607   4.459
 6865TIP3    H220560   2.241   3.508   4.541
 6866TIP3   OH220561   2.898   0.470   3.567
 6866TIP3    H120562   2.805   0.476   3.543
 6866TIP3    H220563   2.928   0.389   3.526
 6867TIP3   OH220564   0.282   2.570   5.743
 6867TIP3    H120565   0.206   2.513   5.744
 6867TIP3    H220566   0.327   2.552   5.826
 6868TIP3   OH220567   4.984   6.212   1.072
 6868TIP3    H120568   4.912   6.204   1.009
 6868TIP3    H220569   4.991   6.306   1.088
 6869TIP3   OH220570   1.568   2.388   0.399
 6869TIP3    H120571   1.483   2.346   0.412
 6869TIP3    H220572   1.589   2.369   0.307
 6870TIP3   OH220573   2.329   6.291   1.823
 6870TIP3    H120574   2.241   6.287   1.861
 6870TIP3    H220575   2.326   6.366   1.764
 6871TIP3   OH220576   5.213   0.563   1.144
 6871TIP3    H120577   5.124   0.555   1.179
 6871TIP3    H220578   5.245   0.646   1.181
 6872TIP3   OH220579   2.724   5.710   2.520
 6872TIP3    H120580   2.795   5.722   2.457
 6872TIP3    H220581   2.707   5.616   2.520
 6873TIP3   OH220582   3.001   0.565   5.098
 6873TIP3    H120583   3.054   0.617   5.158
 6873TIP3    H220584   3.036   0.476   5.106
 6874TIP3   OH220585   1.037   6.441   1.543
 6874TIP3    H120586   0.963   6.465   1.488
 6874TIP3    H220587   1.111   6.490   1.506
 6875TIP3   OH220588   5.828   2.040   1.986
 6875TIP3    H120589   5.750   2.067   1.938
 6875TIP3    H220590   5.795   2.008   2.070
 6876TIP3   OH220591   6.045   3.761   4.601
 6876TIP3    H120592   6.019   3.700   4.531
 6876TIP3    H220593   5.965   3.811   4.618
 6877TIP3   OH220594   4.610   0.514   3.749
 6877TIP3    H120595   4.637   0.564   3.672
 6877TIP3    H220596   4.646   0.426   3.734
 6878TIP3   OH220597   4.467   2.327   5.292
 6878TIP3    H120598   4.551   2.342   5.334
 6878TIP3    H220599   4.456   2.232   5.291
 6879TIP3   OH220600   2.767   2.436   3.656
 6879TIP3    H120601   2.747   2.359   3.709
 6879TIP3    H220602   2.716   2.423   3.576
 6880TIP3   OH220603   4.887   5.527   4.380
 6880TIP3    H120604   4.944   5.597   4.410
 6880TIP3    H220605   4.894   5.460   4.448
 6881TIP3   OH220606   3.007   0.536   5.413
 6881TIP3    H120607   3.071   0.465   5.406
 6881TIP3    H220608   3.058   0.613   5.437
 6882TIP3   OH220609   2.005   4.263   2.727
 6882TIP3    H120610   2.100   4.259   2.741
 6882TIP3    H220611   1.994   4.303   2.641
 6883TIP3   OH220612   6.101   3.078   4.605
 6883TIP3    H120613   6.149   3.140   4.660
 6883TIP3    H220614   6.010   3.106   4.611
 6884TIP3   OH220615   4.479   2.960   5.503
 6884TIP3    H120616   4.522   3.028   5.554
 6884TIP3    H220617   4.510   2.878   5.542
 6885TIP3   OH220618   6.526   1.546   0.605
 6885TIP3    H120619   6.506   1.603   0.680
 6885TIP3    H220620   6.616   1.519   0.619
 6886TIP3   OH220621   2.342   3.503   0.206
 6886TIP3    H120622   2.370   3.447   0.278
 6886TIP3    H220623   2.423   3.545   0.176
 6887TIP3   OH220624   6.507   1.529   5.778
 6887TIP3    H120625   6.426   1.482   5.762
 6887TIP3    H220626   6.573   1.461   5.786
 6888TIP3   OH220627   4.867   0.788   1.027
 6888TIP3    H120628   4.882   0.782   0.932
 6888TIP3    H220629   4.854   0.697   1.055
 6889TIP3   OH220630   6.761   4.036   3.891
 6889TIP3    H120631   6.711   4.085   3.825
 6889TIP3    H220632   6.841   4.010   3.845
 6890TIP3   OH220633   6.913   6.455   0.125
 6890TIP3    H120634   6.835   6.401   0.133
 6890TIP3    H220635   6.982   6.393   0.101
 6891TIP3   OH220636   0.194   2.657   0.538
 6891TIP3    H120637   0.273   2.649   0.592
 6891TIP3    H220638   0.225   2.693   0.455
 6892TIP3   OH220639   4.106   4.378   3.842
 6892TIP3    H120640   4.029   4.434   3.830
 6892TIP3    H220641   4.171   4.436   3.883
 6893TIP3   OH220642   5.817   3.487   0.290
 6893TIP3    H120643   5.910   3.490   0.309
 6893TIP3    H220644   5.807   3.415   0.227
 6894TIP3   OH220645   2.474   6.344   0.907
 6894TIP3    H120646   2.539   6.356   0.976
 6894TIP3    H220647   2.525   6.324   0.828
 6895TIP3   OH220648   4.744   6.736   0.561
 6895TIP3    H120649   4.715   6.677   0.631
 6895TIP3    H220650   4.702   6.700   0.482
 6896TIP3   OH220651   6.938   3.407  -0.018
 6896TIP3    H120652   6.911   3.316  -0.007
 6896TIP3    H220653   6.945   3.441   0.071
 6897TIP3   OH220654   7.182   4.318   2.514
 6897TIP3    H120655   7.226   4.235   2.533
 6897TIP3    H220656   7.240   4.363   2.453
 6898TIP3   OH220657   3.352   1.159   4.764
 6898TIP3    H120658   3.443   1.155   4.794
 6898TIP3    H220659   3.355   1.130   4.673
 6899TIP3   OH220660   5.210   0.269   2.959
 6899TIP3    H120661   5.153   0.198   2.929
 6899TIP3    H220662   5.169   0.301   3.039
 6900TIP3   OH220663   4.053   6.348   2.578
 6900TIP3    H120664   4.007   6.270   2.547
 6900TIP3    H220665   4.033   6.415   2.513
 6901TIP3   OH220666   0.931   4.791   5.892
 6901TIP3    H120667   0.836   4.788   5.903
 6901TIP3    H220668   0.945   4.861   5.828
 6902TIP3   OH220669   3.983   2.890   4.230
 6902TIP3    H120670   4.063   2.893   4.177
 6902TIP3    H220671   4.004   2.942   4.308
 6903TIP3   OH220672   3.519   3.315   3.920
 6903TIP3    H120673   3.554   3.290   3.834
 6903TIP3    H220674   3.438   3.361   3.900
 6904TIP3   OH220675   2.244   5.534   1.755
 6904TIP3    H120676   2.240   5.562   1.846
 6904TIP3    H220677   2.290   5.605   1.710
 6905TIP3   OH220678   4.666   3.656   5.512
 6905TIP3    H120679   4.707   3.576   5.479
 6905TIP3    H220680   4.737   3.703   5.555
 6906TIP3   OH220681   1.204   3.049   1.308
 6906TIP3    H120682   1.239   2.996   1.380
 6906TIP3    H220683   1.268   3.037   1.237
 6907TIP3   OH220684   2.429   5.988   2.245
 6907TIP3    H120685   2.503   5.968   2.189
 6907TIP3    H220686   2.452   5.951   2.330
 6908TIP3   OH220687   3.105   6.627   1.252
 6908TIP3    H120688   3.103   6.687   1.178
 6908TIP3    H220689   3.122   6.682   1.328
 6909TIP3   OH220690   7.085   6.162   3.783
 6909TIP3    H120691   7.060   6.250   3.755
 6909TIP3    H220692   7.075   6.163   3.878
 6910TIP3   OH220693   7.198   6.533   0.960
 6910TIP3    H120694   7.290   6.545   0.983
 6910TIP3    H220695   7.150   6.555   1.039
 6911TIP3   OH220696   2.671   3.590   2.365
 6911TIP3    H120697   2.579   3.618   2.361
 6911TIP3    H220698   2.705   3.607   2.277
 6912TIP3   OH220699   1.373   5.549   1.613
 6912TIP3    H120700   1.303   5.609   1.638
 6912TIP3    H220701   1.413   5.523   1.697
 6913TIP3   OH220702   1.331   0.196   0.017
 6913TIP3    H120703   1.400   0.174  -0.046
 6913TIP3    H220704   1.261   0.134   0.000
 6914TIP3   OH220705   4.074   0.645   1.257
 6914TIP3    H120706   4.026   0.671   1.336
 6914TIP3    H220707   4.042   0.558   1.237
 6915TIP3   OH220708   6.368   2.129   1.292
 6915TIP3    H120709   6.377   2.220   1.321
 6915TIP3    H220710   6.408   2.127   1.206
 6916TIP3   OH220711   2.167   3.701   2.234
 6916TIP3    H120712   2.081   3.680   2.196
 6916TIP3    H220713   2.149   3.716   2.327
 6917TIP3   OH220714   0.101   5.431   1.509
 6917TIP3    H120715   0.028   5.472   1.462
 6917TIP3    H220716   0.178   5.450   1.454
 6918TIP3   OH220717   5.833   3.055   5.075
 6918TIP3    H120718   5.848   3.074   4.982
 6918TIP3    H220719   5.832   2.960   5.081
 6919TIP3   OH220720   5.675   2.633   3.486
 6919TIP3    H120721   5.720   2.597   3.410
 6919TIP3    H220722   5.640   2.717   3.456
 6920TIP3   OH220723   5.508   2.696   2.289
 6920TIP3    H120724   5.567   2.762   2.252
 6920TIP3    H220725   5.486   2.640   2.216
 6921TIP3   OH220726   3.859   4.958   1.380
 6921TIP3    H120727   3.894   4.876   1.415
 6921TIP3    H220728   3.889   4.960   1.289
 6922TIP3   OH220729   0.424   3.533   0.080
 6922TIP3    H120730   0.331   3.538   0.059
 6922TIP3    H220731   0.429   3.474   0.155
 6923TIP3   OH220732   0.032   3.042   4.950
 6923TIP3    H120733   0.108   2.985   4.938
 6923TIP3    H220734   0.003   3.024   5.039
 6924TIP3   OH220735   6.285   3.442   4.739
 6924TIP3    H120736   6.376   3.436   4.767
 6924TIP3    H220737   6.236   3.396   4.807
 6925TIP3   OH220738   1.969   0.128   4.510
 6925TIP3    H120739   1.920   0.209   4.527
 6925TIP3    H220740   1.916   0.059   4.551
 6926TIP3   OH220741   6.395   3.912   4.358
 6926TIP3    H120742   6.383   3.905   4.263
 6926TIP3    H220743   6.312   3.949   4.390
 6927TIP3   OH220744   1.570   5.852   4.467
 6927TIP3    H120745   1.663   5.841   4.448
 6927TIP3    H220746   1.552   5.943   4.444
 6928TIP3   OH220747   0.582   5.772   1.093
 6928TIP3    H120748   0.659   5.746   1.143
 6928TIP3    H220749   0.609   5.850   1.044
 6929TIP3   OH220750   2.447   5.951   1.795
 6929TIP3    H120751   2.498   5.967   1.716
 6929TIP3    H220752   2.441   6.036   1.838
 6930TIP3   OH220753   1.737   5.597   4.989
 6930TIP3    H120754   1.824   5.590   4.951
 6930TIP3    H220755   1.732   5.524   5.051
 6931TIP3   OH220756   5.531   1.827   2.068
 6931TIP3    H120757   5.484   1.800   1.989
 6931TIP3    H220758   5.623   1.831   2.041
 6932TIP3   OH220759   3.113   2.320   0.689
 6932TIP3    H120760   3.141   2.257   0.623
 6932TIP3    H220761   3.094   2.400   0.639
 6933TIP3   OH220762   6.331   2.387   0.860
 6933TIP3    H120763   6.279   2.449   0.807
 6933TIP3    H220764   6.386   2.342   0.796
 6934TIP3   OH220765   2.965   0.470   2.795
 6934TIP3    H120766   2.966   0.529   2.720
 6934TIP3    H220767   3.044   0.416   2.785
 6935TIP3   OH220768   3.088   4.053   4.343
 6935TIP3    H120769   3.156   4.011   4.289
 6935TIP3    H220770   3.078   3.994   4.418
 6936TIP3   OH220771   3.889   3.607   0.173
 6936TIP3    H120772   3.796   3.620   0.193
 6936TIP3    H220773   3.934   3.671   0.227
 6937TIP3   OH220774   0.735   1.443   0.557
 6937TIP3    H120775   0.687   1.361   0.562
 6937TIP3    H220776   0.710   1.491   0.636
 6938TIP3   OH220777   6.529   1.079   2.380
 6938TIP3    H120778   6.463   1.011   2.362
 6938TIP3    H220779   6.605   1.052   2.329
 6939TIP3   OH220780   0.074   6.488   1.465
 6939TIP3    H120781   0.076   6.417   1.400
 6939TIP3    H220782   0.164   6.494   1.497
 6940TIP3   OH220783   3.473   2.174   4.434
 6940TIP3    H120784   3.541   2.214   4.488
 6940TIP3    H220785   3.461   2.235   4.362
 6941TIP3   OH220786   0.962   3.881   0.273
 6941TIP3    H120787   1.049   3.921   0.268
 6941TIP3    H220788   0.971   3.814   0.340
 6942TIP3   OH220789   4.100   5.633   2.374
 6942TIP3    H120790   4.152   5.691   2.431
 6942TIP3    H220791   4.108   5.672   2.287
 6943TIP3   OH220792   3.311   4.770   0.182
 6943TIP3    H120793   3.320   4.712   0.258
 6943TIP3    H220794   3.400   4.776   0.146
 6944TIP3   OH220795   5.901   5.054   1.992
 6944TIP3    H120796   5.860   5.087   2.072
 6944TIP3    H220797   5.992   5.084   1.997
 6945TIP3   OH220798   4.523   0.100   1.612
 6945TIP3    H120799   4.570   0.173   1.572
 6945TIP3    H220800   4.470   0.141   1.681
 6946TIP3   OH220801   6.959   2.264   2.410
 6946TIP3    H120802   6.892   2.332   2.402
 6946TIP3    H220803   7.031   2.294   2.354
 6947TIP3   OH220804   5.833   3.054   1.794
 6947TIP3    H120805   5.747   3.087   1.768
 6947TIP3    H220806   5.890   3.131   1.790
 6948TIP3   OH220807   3.078   4.279   0.289
 6948TIP3    H120808   3.105   4.286   0.381
 6948TIP3    H220809   2.982   4.288   0.291
 6949TIP3   OH220810   5.934   0.392   5.460
 6949TIP3    H120811   5.892   0.460   5.512
 6949TIP3    H220812   5.960   0.435   5.379
 6950TIP3   OH220813   7.127   2.631   0.278
 6950TIP3    H120814   7.173   2.708   0.313
 6950TIP3    H220815   7.149   2.631   0.184
 6951TIP3   OH220816   2.163   4.417   4.999
 6951TIP3    H120817   2.074   4.452   4.992
 6951TIP3    H220818   2.155   4.346   5.063
 6952TIP3   OH220819   1.581   3.551   0.611
 6952TIP3    H120820   1.668   3.543   0.651
 6952TIP3    H220821   1.573   3.473   0.556
 6953TIP3   OH220822   4.015   6.128   2.784
 6953TIP3    H120823   4.104   6.155   2.759
 6953TIP3    H220824   3.968   6.120   2.702
 6954TIP3   OH220825   4.022   4.921   2.122
 6954TIP3    H120826   4.088   4.968   2.071
 6954TIP3    H220827   3.977   4.989   2.172
 6955TIP3   OH220828   1.344   0.322   5.640
 6955TIP3    H120829   1.370   0.408   5.673
 6955TIP3    H220830   1.392   0.260   5.696
 6956TIP3   OH220831   3.851   3.679   3.528
 6956TIP3    H120832   3.799   3.599   3.528
 6956TIP3    H220833   3.837   3.717   3.614
 6957TIP3   OH220834   0.257   4.965   4.111
 6957TIP3    H120835   0.236   4.920   4.029
 6957TIP3    H220836   0.240   5.057   4.093
 6958TIP3   OH220837   5.764   0.700   3.709
 6958TIP3    H120838   5.673   0.712   3.682
 6958TIP3    H220839   5.781   0.607   3.695
 6959TIP3   OH220840   0.190   4.788   1.490
 6959TIP3    H120841   0.199   4.882   1.473
 6959TIP3    H220842   0.116   4.760   1.436
 6960TIP3   OH220843   1.694   1.113   3.603
 6960TIP3    H120844   1.712   1.122   3.697
 6960TIP3    H220845   1.605   1.078   3.600
 6961TIP3   OH220846   6.551   2.429   4.583
 6961TIP3    H120847   6.639   2.391   4.592
 6961TIP3    H220848   6.528   2.413   4.491
 6962TIP3   OH220849   4.770   2.272   3.676
 6962TIP3    H120850   4.809   2.296   3.592
 6962TIP3    H220851   4.844   2.241   3.729
 6963TIP3   OH220852   2.798   6.014   5.708
 6963TIP3    H120853   2.786   6.081   5.775
 6963TIP3    H220854   2.737   6.039   5.639
 6964TIP3   OH220855   4.467   4.837   2.485
 6964TIP3    H120856   4.435   4.894   2.554
 6964TIP3    H220857   4.500   4.896   2.417
 6965TIP3   OH220858   1.169   4.960   4.453
 6965TIP3    H120859   1.201   5.022   4.518
 6965TIP3    H220860   1.218   4.982   4.373
 6966TIP3   OH220861   5.579   1.443   4.095
 6966TIP3    H120862   5.586   1.405   4.007
 6966TIP3    H220863   5.520   1.518   4.084
 6967TIP3   OH220864   0.743   5.627   3.316
 6967TIP3    H120865   0.807   5.556   3.323
 6967TIP3    H220866   0.684   5.613   3.390
 6968TIP3   OH220867   5.839   3.154   4.613
 6968TIP3    H120868   5.806   3.079   4.663
 6968TIP3    H220869   5.795   3.230   4.652
 6969TIP3   OH220870   5.167   0.608   4.961
 6969TIP3    H120871   5.115   0.570   4.890
 6969TIP3    H220872   5.168   0.541   5.029
 6970TIP3   OH220873   5.424   2.537   3.388
 6970TIP3    H120874   5.372   2.535   3.468
 6970TIP3    H220875   5.515   2.540   3.419
 6971TIP3   OH220876   0.946   6.172   3.014
 6971TIP3    H120877   0.855   6.197   3.030
 6971TIP3    H220878   0.955   6.088   3.060
 6972TIP3   OH220879   3.431   2.345   4.230
 6972TIP3    H120880   3.419   2.439   4.244
 6972TIP3    H220881   3.431   2.335   4.134
 6973TIP3   OH220882   3.284   5.207   2.494
 6973TIP3    H120883   3.317   5.221   2.406
 6973TIP3    H220884   3.362   5.194   2.548
 6974TIP3   OH220885   2.093   2.774   3.074
 6974TIP3    H120886   2.079   2.784   3.168
 6974TIP3    H220887   2.183   2.803   3.060
 6975TIP3   OH220888   6.832   5.770   5.236
 6975TIP3    H120889   6.878   5.688   5.221
 6975TIP3    H220890   6.883   5.836   5.190
 6976TIP3   OH220891   0.620   5.231   3.350
 6976TIP3    H120892   0.646   5.290   3.421
 6976TIP3    H220893   0.702   5.202   3.312
 6977TIP3   OH220894   2.011   5.461   1.356
 6977TIP3    H120895   1.933   5.411   1.378
 6977TIP3    H220896   2.032   5.511   1.436
 6978TIP3   OH220897   1.888   0.287   1.356
 6978TIP3    H120898   1.937   0.311   1.435
 6978TIP3    H220899   1.918   0.199   1.335
 6979TIP3   OH220900   1.954   4.583   1.755
 6979TIP3    H120901   2.043   4.557   1.731
 6979TIP3    H220902   1.899   4.514   1.719
 6980TIP3   OH220903   1.957   3.266   2.642
 6980TIP3    H120904   1.952   3.328   2.716
 6980TIP3    H220905   2.048   3.238   2.640
 6981TIP3   OH220906   0.275   2.547   4.732
 6981TIP3    H120907   0.198   2.596   4.703
 6981TIP3    H220908   0.272   2.466   4.681
 6982TIP3   OH220909   6.862   3.736   2.823
 6982TIP3    H120910   6.814   3.679   2.763
 6982TIP3    H220911   6.937   3.766   2.773
 6983TIP3   OH220912   6.030   0.957   3.272
 6983TIP3    H120913   6.027   0.883   3.211
 6983TIP3    H220914   5.938   0.974   3.292
 6984TIP3   OH220915   5.880   0.513   3.316
 6984TIP3    H120916   5.969   0.486   3.340
 6984TIP3    H220917   5.849   0.442   3.260
 6985TIP3   OH220918   4.744   4.653   3.574
 6985TIP3    H120919   4.655   4.651   3.540
 6985TIP3    H220920   4.743   4.720   3.643
 6986TIP3   OH220921   2.142   5.637   4.426
 6986TIP3    H120922   2.235   5.642   4.404
 6986TIP3    H220923   2.102   5.596   4.349
 6987TIP3   OH220924   3.530   0.921   1.635
 6987TIP3    H120925   3.506   0.956   1.549
 6987TIP3    H220926   3.453   0.936   1.689
 6988TIP3   OH220927   0.543   4.992   1.386
 6988TIP3    H120928   0.556   5.087   1.392
 6988TIP3    H220929   0.627   4.958   1.355
 6989TIP3   OH220930   1.506   0.998   3.961
 6989TIP3    H120931   1.415   0.970   3.972
 6989TIP3    H220932   1.502   1.093   3.955
 6990TIP3   OH220933   1.295   6.621   3.138
 6990TIP3    H120934   1.270   6.544   3.086
 6990TIP3    H220935   1.224   6.631   3.202
 6991TIP3   OH220936   5.530   2.659   3.163
 6991TIP3    H120937   5.608   2.701   3.201
 6991TIP3    H220938   5.490   2.612   3.236
 6992TIP3   OH220939   0.758   4.449   3.332
 6992TIP3    H120940   0.825   4.482   3.392
 6992TIP3    H220941   0.807   4.410   3.260
 6993TIP3   OH220942   4.467   6.571   5.206
 6993TIP3    H120943   4.523   6.495   5.192
 6993TIP3    H220944   4.520   6.645   5.176
 6994TIP3   OH220945   4.061   3.187   5.777
 6994TIP3    H120946   4.072   3.214   5.868
 6994TIP3    H220947   4.148   3.195   5.738
 6995TIP3   OH220948   3.608   2.155   0.922
 6995TIP3    H120949   3.679   2.093   0.936
 6995TIP3    H220950   3.594   2.155   0.828
 6996TIP3   OH220951   0.833   0.564   4.764
 6996TIP3    H120952   0.869   0.574   4.852
 6996TIP3    H220953   0.860   0.643   4.717
 6997TIP3   OH220954   1.228   0.403   5.919
 6997TIP3    H120955   1.320   0.411   5.893
 6997TIP3    H220956   1.179   0.414   5.837
 6998TIP3   OH220957   0.810   5.093   2.162
 6998TIP3    H120958   0.893   5.064   2.123
 6998TIP3    H220959   0.784   5.021   2.219
 6999TIP3   OH220960   4.771   0.943   3.354
 6999TIP3    H120961   4.713   0.989   3.415
 6999TIP3    H220962   4.855   0.938   3.399
 7000TIP3   OH220963   6.577   2.112   1.110
 7000TIP3    H120964   6.602   2.035   1.058
 7000TIP3    H220965   6.639   2.180   1.083
 7001TIP3   OH220966   1.346   4.628   5.736
 7001TIP3    H120967   1.336   4.695   5.803
 7001TIP3    H220968   1.378   4.675   5.659
 7002TIP3   OH220969   0.338   5.158   1.024
 7002TIP3    H120970   0.340   5.228   1.089
 7002TIP3    H220971   0.355   5.203   0.940
 7003TIP3   OH220972   5.499   0.952   3.453
 7003TIP3    H120973   5.469   0.992   3.371
 7003TIP3    H220974   5.463   0.863   3.450
 7004TIP3   OH220975   4.279   6.285   2.415
 7004TIP3    H120976   4.312   6.299   2.503
 7004TIP3    H220977   4.273   6.373   2.377
 7005TIP3   OH220978   2.852   6.276   0.782
 7005TIP3    H120979   2.935   6.229   0.789
 7005TIP3    H220980   2.785   6.208   0.791
 7006TIP3   OH220981   2.457   6.722   4.435
 7006TIP3    H120982   2.494   6.683   4.355
 7006TIP3    H220983   2.519   6.791   4.459
 7007TIP3   OH220984   2.489   3.234   2.295
 7007TIP3    H120985   2.410   3.269   2.335
 7007TIP3    H220986   2.561   3.271   2.346
 7008TIP3   OH220987   6.928   1.930   4.221
 7008TIP3    H120988   6.977   2.010   4.237
 7008TIP3    H220989   6.904   1.898   4.309
 7009TIP3   OH220990   0.851   2.851   5.187
 7009TIP3    H120991   0.919   2.918   5.190
 7009TIP3    H220992   0.770   2.898   5.208
 7010TIP3   OH220993   2.467   2.148   4.530
 7010TIP3    H120994   2.466   2.171   4.437
 7010TIP3    H220995   2.560   2.145   4.553
 7011TIP3   OH220996   5.796   5.900   3.627
 7011TIP3    H120997   5.819   5.944   3.709
 7011TIP3    H220998   5.879   5.866   3.594
 7012TIP3   OH220999   3.479   0.487   5.085
 7012TIP3    H121000   3.491   0.419   5.152
 7012TIP3    H221001   3.501   0.569   5.130
 7013TIP3   OH221002   3.577   4.069   2.340
 7013TIP3    H121003   3.606   4.107   2.423
 7013TIP3    H221004   3.584   3.974   2.353
 7014TIP3   OH221005   4.506   2.315   3.715
 7014TIP3    H121006   4.490   2.390   3.659
 7014TIP3    H221007   4.600   2.298   3.706
 7015TIP3   OH221008   1.163   4.835   3.262
 7015TIP3    H121009   1.168   4.774   3.335
 7015TIP3    H221010   1.219   4.909   3.289
 7016TIP3   OH221011   5.831   2.824   3.955
 7016TIP3    H121012   5.916   2.820   4.000
 7016TIP3    H221013   5.844   2.769   3.878
 7017TIP3   OH221014   4.309   0.301   3.558
 7017TIP3    H121015   4.332   0.237   3.490
 7017TIP3    H221016   4.364   0.377   3.538
 7018TIP3   OH221017   6.335   4.629   1.231
 7018TIP3    H121018   6.413   4.683   1.236
 7018TIP3    H221019   6.263   4.687   1.257
 7019TIP3   OH221020   0.086   4.339   1.334
 7019TIP3    H121021   0.019   4.405   1.317
 7019TIP3    H221022   0.119   4.360   1.421
 7020TIP3   OH221023   1.345   0.191   4.047
 7020TIP3    H121024   1.306   0.255   4.107
 7020TIP3    H221025   1.437   0.185   4.074
 7021TIP3   OH221026   5.122   1.523   1.108
 7021TIP3    H121027   5.155   1.488   1.025
 7021TIP3    H221028   5.165   1.469   1.175
 7022TIP3   OH221029   5.503   0.037   1.098
 7022TIP3    H121030   5.432   0.100   1.114
 7022TIP3    H221031   5.582   0.091   1.098
 7023TIP3   OH221032   0.097   1.066   3.822
 7023TIP3    H121033   0.078   1.060   3.916
 7023TIP3    H221034   0.031   1.126   3.788
 7024TIP3   OH221035   2.668   1.330   1.617
 7024TIP3    H121036   2.716   1.257   1.656
 7024TIP3    H221037   2.736   1.392   1.590
 7025TIP3   OH221038   4.237   1.043   2.720
 7025TIP3    H121039   4.250   1.129   2.759
 7025TIP3    H221040   4.325   1.017   2.690
 7026TIP3   OH221041   5.685   0.952   1.836
 7026TIP3    H121042   5.678   0.914   1.924
 7026TIP3    H221043   5.770   0.923   1.805
 7027TIP3   OH221044   5.088   0.918   4.426
 7027TIP3    H121045   5.126   0.980   4.488
 7027TIP3    H221046   5.030   0.970   4.371
 7028TIP3   OH221047   1.056   1.889   4.966
 7028TIP3    H121048   0.987   1.856   4.909
 7028TIP3    H221049   1.032   1.980   4.984
 7029TIP3   OH221050   4.099   1.979   0.443
 7029TIP3    H121051   4.023   1.921   0.437
 7029TIP3    H221052   4.167   1.925   0.484
 7030TIP3   OH221053   6.441   3.783   1.610
 7030TIP3    H121054   6.442   3.689   1.591
 7030TIP3    H221055   6.466   3.825   1.528
 7031TIP3   OH221056   3.617   0.289   0.766
 7031TIP3    H121057   3.657   0.218   0.816
 7031TIP3    H221058   3.563   0.336   0.829
 7032TIP3   OH221059   6.492   0.096   1.834
 7032TIP3    H121060   6.454   0.105   1.921
 7032TIP3    H221061   6.562   0.032   1.845
 7033TIP3   OH221062   2.606   4.188   3.345
 7033TIP3    H121063   2.627   4.280   3.328
 7033TIP3    H221064   2.681   4.156   3.396
 7034TIP3   OH221065   5.972   0.918   4.327
 7034TIP3    H121066   6.020   0.991   4.289
 7034TIP3    H221067   5.918   0.957   4.396
 7035TIP3   OH221068   0.967   0.392   5.065
 7035TIP3    H121069   1.007   0.392   5.152
 7035TIP3    H221070   0.873   0.386   5.082
 7036TIP3   OH221071   5.609   2.571   0.716
 7036TIP3    H121072   5.539   2.595   0.776
 7036TIP3    H221073   5.633   2.482   0.741
 7037TIP3   OH221074   7.004   3.767   1.374
 7037TIP3    H121075   7.036   3.842   1.324
 7037TIP3    H221076   6.919   3.747   1.334
 7038TIP3   OH221077   1.127   5.005   0.570
 7038TIP3    H121078   1.146   4.922   0.527
 7038TIP3    H221079   1.033   5.001   0.589
 7039TIP3   OH221080   2.534   5.748   2.099
 7039TIP3    H121081   2.443   5.759   2.071
 7039TIP3    H221082   2.527   5.708   2.186
 7040TIP3   OH221083   4.583   3.299   3.854
 7040TIP3    H121084   4.673   3.277   3.877
 7040TIP3    H221085   4.551   3.221   3.808
 7041TIP3   OH221086   5.749   1.604   4.505
 7041TIP3    H121087   5.748   1.659   4.583
 7041TIP3    H221088   5.671   1.548   4.514
 7042TIP3   OH221089   6.785   0.666   0.890
 7042TIP3    H121090   6.763   0.667   0.983
 7042TIP3    H221091   6.707   0.633   0.846
 7043TIP3   OH221092   3.155   2.093   1.430
 7043TIP3    H121093   3.100   2.151   1.378
 7043TIP3    H221094   3.096   2.020   1.454
 7044TIP3   OH221095   5.996   4.255   4.286
 7044TIP3    H121096   5.953   4.221   4.207
 7044TIP3    H221097   5.932   4.243   4.356
 7045TIP3   OH221098   4.405   3.125   0.868
 7045TIP3    H121099   4.496   3.153   0.879
 7045TIP3    H221100   4.354   3.206   0.875
 7046TIP3   OH221101   4.860   1.207   4.389
 7046TIP3    H121102   4.952   1.234   4.391
 7046TIP3    H221103   4.828   1.227   4.477
 7047TIP3   OH221104   6.594   2.764   3.946
 7047TIP3    H121105   6.508   2.766   3.989
 7047TIP3    H221106   6.634   2.849   3.967
 7048TIP3   OH221107   0.055   1.803   3.112
 7048TIP3    H121108   0.064   1.731   3.175
 7048TIP3    H221109   0.026   1.877   3.165
 7049TIP3   OH221110   3.099   4.128   3.861
 7049TIP3    H121111   3.021   4.181   3.843
 7049TIP3    H221112   3.144   4.122   3.777
 7050TIP3   OH221113   7.022   1.773   4.829
 7050TIP3    H121114   7.058   1.702   4.775
 7050TIP3    H221115   7.097   1.830   4.846
 7051TIP3   OH221116   1.005   2.832   0.730
 7051TIP3    H121117   1.045   2.745   0.723
 7051TIP3    H221118   1.000   2.863   0.640
 7052TIP3   OH221119   3.741   1.089   3.402
 7052TIP3    H121120   3.661   1.089   3.349
 7052TIP3    H221121   3.720   1.031   3.476
 7053TIP3   OH221122   0.909   1.207   1.389
 7053TIP3    H121123   0.872   1.291   1.362
 7053TIP3    H221124   0.908   1.154   1.309
 7054TIP3   OH221125   0.068   0.543   5.604
 7054TIP3    H121126   0.019   0.478   5.554
 7054TIP3    H221127   0.001   0.594   5.650
 7055TIP3   OH221128   0.677   3.498   0.511
 7055TIP3    H121129   0.594   3.503   0.559
 7055TIP3    H221130   0.719   3.418   0.544
 7056TIP3   OH221131   3.734   4.735   5.320
 7056TIP3    H121132   3.794   4.752   5.247
 7056TIP3    H221133   3.665   4.680   5.281
 7057TIP3   OH221134   3.859   6.359   1.839
 7057TIP3    H121135   3.800   6.363   1.915
 7057TIP3    H221136   3.884   6.450   1.823
 7058TIP3   OH221137   6.421   0.551   2.603
 7058TIP3    H121138   6.329   0.526   2.617
 7058TIP3    H221139   6.469   0.502   2.669
 7059TIP3   OH221140   4.797   1.957   5.284
 7059TIP3    H121141   4.867   1.975   5.346
 7059TIP3    H221142   4.752   1.881   5.319
 7060TIP3   OH221143   4.651   6.441   0.104
 7060TIP3    H121144   4.737   6.402   0.090
 7060TIP3    H221145   4.598   6.371   0.142
 7061TIP3   OH221146   1.497   4.399   0.352
 7061TIP3    H121147   1.409   4.380   0.319
 7061TIP3    H221148   1.542   4.314   0.349
 7062TIP3   OH221149   6.612   0.698   0.537
 7062TIP3    H121150   6.609   0.659   0.625
 7062TIP3    H221151   6.704   0.722   0.525
 7063TIP3   OH221152   1.201   4.008   0.212
 7063TIP3    H121153   1.284   4.008   0.165
 7063TIP3    H221154   1.161   4.092   0.189
 7064TIP3   OH221155   5.133   6.018   1.985
 7064TIP3    H121156   5.171   6.058   1.907
 7064TIP3    H221157   5.124   5.925   1.962
 7065TIP3   OH221158   3.885   4.101   0.194
 7065TIP3    H121159   3.811   4.153   0.163
 7065TIP3    H221160   3.863   4.079   0.284
 7066TIP3   OH221161   5.200   5.625   5.395
 7066TIP3    H121162   5.237   5.678   5.324
 7066TIP3    H221163   5.244   5.540   5.388
 7067TIP3   OH221164   4.558   0.390   2.120
 7067TIP3    H121165   4.488   0.417   2.061
 7067TIP3    H221166   4.612   0.468   2.131
 7068TIP3   OH221167   6.530   5.256   0.401
 7068TIP3    H121168   6.614   5.238   0.443
 7068TIP3    H221169   6.543   5.337   0.352
 7069TIP3   OH221170   3.333   5.302   4.806
 7069TIP3    H121171   3.303   5.231   4.863
 7069TIP3    H221172   3.410   5.337   4.850
 7070TIP3   OH221173   5.919   0.651   4.363
 7070TIP3    H121174   5.845   0.614   4.315
 7070TIP3    H221175   5.941   0.731   4.316
 7071TIP3   OH221176   3.031   6.310   0.332
 7071TIP3    H121177   3.026   6.373   0.404
 7071TIP3    H221178   3.125   6.294   0.321
 7072TIP3   OH221179   4.046   2.801   1.402
 7072TIP3    H121180   3.972   2.769   1.350
 7072TIP3    H221181   4.027   2.772   1.491
 7073TIP3   OH221182   5.892   1.053   4.541
 7073TIP3    H121183   5.981   1.087   4.551
 7073TIP3    H221184   5.843   1.126   4.503
 7074TIP3   OH221185   1.400   1.497   5.076
 7074TIP3    H121186   1.309   1.502   5.048
 7074TIP3    H221187   1.429   1.588   5.080
 7075TIP3   OH221188   1.570   4.885   3.520
 7075TIP3    H121189   1.608   4.831   3.451
 7075TIP3    H221190   1.634   4.956   3.532
 7076TIP3   OH221191   2.448   1.949   5.059
 7076TIP3    H121192   2.371   1.953   5.003
 7076TIP3    H221193   2.494   2.031   5.042
 7077TIP3   OH221194   1.827   5.416   5.811
 7077TIP3    H121195   1.820   5.410   5.906
 7077TIP3    H221196   1.893   5.350   5.788
 7078TIP3   OH221197   1.432   0.061   0.948
 7078TIP3    H121198   1.428  -0.022   0.902
 7078TIP3    H221199   1.445   0.126   0.880
 7079TIP3   OH221200   3.979   3.850   4.883
 7079TIP3    H121201   3.988   3.807   4.799
 7079TIP3    H221202   3.986   3.779   4.948
 7080TIP3   OH221203   5.064   0.427   4.212
 7080TIP3    H121204   5.148   0.443   4.167
 7080TIP3    H221205   5.011   0.503   4.190
 7081TIP3   OH221206   0.250   3.418   5.364
 7081TIP3    H121207   0.285   3.328   5.364
 7081TIP3    H221208   0.178   3.415   5.301
 7082TIP3   OH221209   1.076   5.900   5.178
 7082TIP3    H121210   1.071   5.852   5.096
 7082TIP3    H221211   0.985   5.907   5.208
 7083TIP3   OH221212   4.324   3.499   4.215
 7083TIP3    H121213   4.407   3.530   4.251
 7083TIP3    H221214   4.348   3.462   4.129
 7084TIP3   OH221215   4.964   3.478   1.746
 7084TIP3    H121216   5.059   3.471   1.756
 7084TIP3    H221217   4.937   3.536   1.817
 7085TIP3   OH221218   4.195   3.049   3.854
 7085TIP3    H121219   4.199   3.047   3.949
 7085TIP3    H221220   4.285   3.064   3.826
 7086TIP3   OH221221   5.703   4.680   0.126
 7086TIP3    H121222   5.784   4.731   0.124
 7086TIP3    H221223   5.638   4.741   0.160
 7087TIP3   OH221224   4.845   4.017   2.874
 7087TIP3    H121225   4.754   4.047   2.881
 7087TIP3    H221226   4.840   3.937   2.822
 7088TIP3   OH221227   1.602   1.083   2.474
 7088TIP3    H121228   1.544   1.132   2.416
 7088TIP3    H221229   1.679   1.065   2.421
 7089TIP3   OH221230   0.800   4.699   3.777
 7089TIP3    H121231   0.891   4.682   3.804
 7089TIP3    H221232   0.764   4.612   3.760
 7090TIP3   OH221233   4.874   0.901   3.732
 7090TIP3    H121234   4.846   0.852   3.809
 7090TIP3    H221235   4.935   0.967   3.767
 7091TIP3   OH221236   3.476   0.290   1.233
 7091TIP3    H121237   3.435   0.374   1.214
 7091TIP3    H221238   3.529   0.306   1.311
 7092TIP3   OH221239   1.955   1.753   0.760
 7092TIP3    H121240   1.967   1.769   0.854
 7092TIP3    H221241   1.966   1.838   0.719
 7093TIP3   OH221242   3.021   4.489   1.166
 7093TIP3    H121243   2.960   4.451   1.102
 7093TIP3    H221244   3.050   4.571   1.125
 7094TIP3   OH221245   5.180   3.498   2.168
 7094TIP3    H121246   5.100   3.519   2.120
 7094TIP3    H221247   5.150   3.441   2.240
 7095TIP3   OH221248   3.643   6.329   2.603
 7095TIP3    H121249   3.719   6.344   2.547
 7095TIP3    H221250   3.679   6.289   2.682
 7096TIP3   OH221251   5.189   3.627   3.403
 7096TIP3    H121252   5.163   3.585   3.486
 7096TIP3    H221253   5.140   3.580   3.336
 7097TIP3   OH221254   5.999   5.335   5.888
 7097TIP3    H121255   6.037   5.317   5.802
 7097TIP3    H221256   5.924   5.276   5.893
 7098TIP3   OH221257   6.495   3.865   4.757
 7098TIP3    H121258   6.425   3.813   4.718
 7098TIP3    H221259   6.539   3.906   4.683
 7099TIP3   OH221260   1.785   2.056   2.214
 7099TIP3    H121261   1.722   2.029   2.147
 7099TIP3    H221262   1.746   2.134   2.254
 7100TIP3   OH221263   1.059   2.056   5.593
 7100TIP3    H121264   0.970   2.068   5.558
 7100TIP3    H221265   1.064   1.962   5.612
 7101TIP3   OH221266   1.597   0.623   0.948
 7101TIP3    H121267   1.502   0.631   0.960
 7101TIP3    H221268   1.611   0.531   0.928
 7102TIP3   OH221269   6.240   0.272   1.307
 7102TIP3    H121270   6.223   0.178   1.316
 7102TIP3    H221271   6.332   0.278   1.281
 7103TIP3   OH221272   6.300   6.427   4.783
 7103TIP3    H121273   6.268   6.503   4.832
 7103TIP3    H221274   6.391   6.416   4.813
 7104TIP3   OH221275   6.441   5.663   2.662
 7104TIP3    H121276   6.387   5.740   2.679
 7104TIP3    H221277   6.435   5.649   2.568
 7105TIP3   OH221278   4.298   2.386   1.537
 7105TIP3    H121279   4.274   2.387   1.444
 7105TIP3    H221280   4.393   2.386   1.538
 7106TIP3   OH221281   3.867   3.669   1.410
 7106TIP3    H121282   3.849   3.655   1.503
 7106TIP3    H221283   3.800   3.616   1.365
 7107TIP3   OH221284   0.122   3.933   3.056
 7107TIP3    H121285   0.089   3.879   3.128
 7107TIP3    H221286   0.217   3.920   3.058
 7108TIP3   OH221287   1.260   0.516   2.465
 7108TIP3    H121288   1.207   0.437   2.475
 7108TIP3    H221289   1.265   0.553   2.553
 7109TIP3   OH221290   7.151   6.072   4.556
 7109TIP3    H121291   7.188   6.042   4.639
 7109TIP3    H221292   7.057   6.058   4.564
 7110TIP3   OH221293   4.303   4.258   0.738
 7110TIP3    H121294   4.369   4.237   0.672
 7110TIP3    H221295   4.251   4.328   0.699
 7111TIP3   OH221296   5.351   4.092   5.779
 7111TIP3    H121297   5.396   4.050   5.706
 7111TIP3    H221298   5.420   4.105   5.845
 7112TIP3   OH221299   4.864   5.280   2.186
 7112TIP3    H121300   4.826   5.283   2.098
 7112TIP3    H221301   4.943   5.227   2.176
 7113TIP3   OH221302   1.231   5.287   3.302
 7113TIP3    H121303   1.291   5.213   3.309
 7113TIP3    H221304   1.230   5.309   3.209
 7114TIP3   OH221305   0.753   4.193   1.660
 7114TIP3    H121306   0.780   4.276   1.620
 7114TIP3    H221307   0.686   4.217   1.723
 7115TIP3   OH221308   0.624   0.681   0.079
 7115TIP3    H121309   0.660   0.639   0.000
 7115TIP3    H221310   0.531   0.658   0.078
 7116TIP3   OH221311   2.297   5.141   5.745
 7116TIP3    H121312   2.373   5.171   5.695
 7116TIP3    H221313   2.253   5.079   5.688
 7117TIP3   OH221314   0.376   3.514   3.103
 7117TIP3    H121315   0.371   3.577   3.174
 7117TIP3    H221316   0.399   3.566   3.026
 7118TIP3   OH221317   4.474   1.806   4.658
 7118TIP3    H121318   4.430   1.772   4.736
 7118TIP3    H221319   4.410   1.865   4.618
 7119TIP3   OH221320   2.947   0.979   5.142
 7119TIP3    H121321   2.964   0.990   5.049
 7119TIP3    H221322   2.852   0.986   5.151
 7120TIP3   OH221323   2.574   3.059   1.702
 7120TIP3    H121324   2.651   3.113   1.681
 7120TIP3    H221325   2.609   2.971   1.717
 7121TIP3   OH221326   5.675   3.319   1.686
 7121TIP3    H121327   5.639   3.387   1.743
 7121TIP3    H221328   5.770   3.329   1.693
 7122TIP3   OH221329   6.339   4.741   3.955
 7122TIP3    H121330   6.430   4.718   3.976
 7122TIP3    H221331   6.309   4.792   4.029
 7123TIP3   OH221332   4.116   4.996   3.646
 7123TIP3    H121333   4.026   5.028   3.655
 7123TIP3    H221334   4.116   4.911   3.689
 7124TIP3   OH221335   1.426   6.735   4.688
 7124TIP3    H121336   1.512   6.777   4.682
 7124TIP3    H221337   1.436   6.654   4.638
 7125TIP3   OH221338   4.437   6.170   5.484
 7125TIP3    H121339   4.456   6.245   5.540
 7125TIP3    H221340   4.368   6.201   5.425
 7126TIP3   OH221341   6.928   1.738   0.545
 7126TIP3    H121342   6.972   1.764   0.626
 7126TIP3    H221343   6.996   1.747   0.477
 7127TIP3   OH221344   2.266   6.049   1.106
 7127TIP3    H121345   2.272   6.060   1.201
 7127TIP3    H221346   2.356   6.030   1.079
 7128TIP3   OH221347   5.431   0.954   5.569
 7128TIP3    H121348   5.341   0.980   5.547
 7128TIP3    H221349   5.484   0.991   5.499
 7129TIP3   OH221350   3.728   0.538   1.915
 7129TIP3    H121351   3.709   0.465   1.975
 7129TIP3    H221352   3.800   0.585   1.957
 7130TIP3   OH221353   1.894   4.411   0.182
 7130TIP3    H121354   1.930   4.490   0.141
 7130TIP3    H221355   1.864   4.357   0.109
 7131TIP3   OH221356   5.334   1.075   1.225
 7131TIP3    H121357   5.382   1.059   1.306
 7131TIP3    H221358   5.332   0.990   1.181
 7132TIP3   OH221359   4.143   5.977   2.543
 7132TIP3    H121360   4.189   6.022   2.614
 7132TIP3    H221361   4.203   5.907   2.517
 7133TIP3   OH221362   5.948   3.737   5.466
 7133TIP3    H121363   5.931   3.813   5.411
 7133TIP3    H221364   6.016   3.688   5.420
 7134TIP3   OH221365   0.953   3.406   0.601
 7134TIP3    H121366   0.988   3.425   0.689
 7134TIP3    H221367   0.966   3.488   0.553
 7135TIP3   OH221368   3.910   4.495   1.884
 7135TIP3    H121369   3.949   4.440   1.952
 7135TIP3    H221370   3.967   4.572   1.879
 7136TIP3   OH221371   1.935   1.473   1.786
 7136TIP3    H121372   1.895   1.440   1.705
 7136TIP3    H221373   1.979   1.554   1.759
 7137TIP3   OH221374   1.262   6.043   4.751
 7137TIP3    H121375   1.353   6.036   4.782
 7137TIP3    H221376   1.262   5.994   4.668
 7138TIP3   OH221377   3.235   2.476   1.931
 7138TIP3    H121378   3.189   2.511   2.008
 7138TIP3    H221379   3.312   2.432   1.967
 7139TIP3   OH221380   0.045   4.176  -0.003
 7139TIP3    H121381   0.067   4.113   0.066
 7139TIP3    H221382   0.128   4.194  -0.047
 7140TIP3   OH221383   5.143   0.600   3.360
 7140TIP3    H121384   5.096   0.518   3.374
 7140TIP3    H221385   5.079   0.668   3.383
 7141TIP3   OH221386   3.031   5.935   5.059
 7141TIP3    H121387   2.992   5.926   5.146
 7141TIP3    H221388   3.003   5.857   5.011
 7142TIP3   OH221389   6.811   4.468   4.794
 7142TIP3    H121390   6.866   4.476   4.872
 7142TIP3    H221391   6.779   4.379   4.796
 7143TIP3   OH221392   3.306   0.421   1.825
 7143TIP3    H121393   3.323   0.493   1.764
 7143TIP3    H221394   3.211   0.420   1.836
 7144TIP3   OH221395   3.421   3.208   4.328
 7144TIP3    H121396   3.449   3.159   4.251
 7144TIP3    H221397   3.481   3.283   4.333
 7145TIP3   OH221398   3.050   5.962   3.435
 7145TIP3    H121399   3.004   5.898   3.381
 7145TIP3    H221400   3.008   5.955   3.521
 7146TIP3   OH221401   3.838   2.046   5.028
 7146TIP3    H121402   3.825   1.953   5.048
 7146TIP3    H221403   3.774   2.092   5.082
 7147TIP3   OH221404   4.260   3.377   0.820
 7147TIP3    H121405   4.262   3.423   0.904
 7147TIP3    H221406   4.314   3.432   0.762
 7148TIP3   OH221407   6.345   0.097   1.010
 7148TIP3    H121408   6.433   0.102   1.047
 7148TIP3    H221409   6.289   0.078   1.085
 7149TIP3   OH221410   4.161   1.046   0.346
 7149TIP3    H121411   4.089   1.103   0.371
 7149TIP3    H221412   4.205   1.093   0.274
 7150TIP3   OH221413   1.254   6.060   2.909
 7150TIP3    H121414   1.171   6.021   2.936
 7150TIP3    H221415   1.321   6.007   2.951
 7151TIP3   OH221416   6.247   0.551   1.191
 7151TIP3    H121417   6.259   0.478   1.253
 7151TIP3    H221418   6.152   0.559   1.182
 7152TIP3   OH221419   2.529   4.177   0.864
 7152TIP3    H121420   2.502   4.155   0.775
 7152TIP3    H221421   2.465   4.242   0.893
 7153TIP3   OH221422   5.575   1.451   3.320
 7153TIP3    H121423   5.521   1.521   3.284
 7153TIP3    H221424   5.653   1.496   3.353
 7154TIP3   OH221425   5.009   2.800   3.837
 7154TIP3    H121426   4.918   2.822   3.856
 7154TIP3    H221427   5.038   2.869   3.776
 7155TIP3   OH221428   2.708   3.358   3.601
 7155TIP3    H121429   2.623   3.342   3.562
 7155TIP3    H221430   2.714   3.453   3.608
 7156TIP3   OH221431   2.117   1.518   4.612
 7156TIP3    H121432   2.039   1.555   4.572
 7156TIP3    H221433   2.109   1.539   4.705
 7157TIP3   OH221434   1.482   4.582   1.155
 7157TIP3    H121435   1.439   4.643   1.096
 7157TIP3    H221436   1.486   4.500   1.106
 7158TIP3   OH221437   6.469   5.518   1.894
 7158TIP3    H121438   6.401   5.580   1.869
 7158TIP3    H221439   6.421   5.443   1.929
 7159TIP3   OH221440   6.515   4.821   1.230
 7159TIP3    H121441   6.595   4.807   1.180
 7159TIP3    H221442   6.533   4.898   1.285
 7160TIP3   OH221443   5.624   6.137   1.861
 7160TIP3    H121444   5.594   6.140   1.770
 7160TIP3    H221445   5.558   6.086   1.907
 7161TIP3   OH221446   1.310   4.753   0.691
 7161TIP3    H121447   1.351   4.834   0.662
 7161TIP3    H221448   1.295   4.703   0.611
 7162TIP3   OH221449   0.944   1.116   5.340
 7162TIP3    H121450   1.017   1.069   5.300
 7162TIP3    H221451   0.904   1.164   5.268
 7163TIP3   OH221452   5.234   1.600   1.482
 7163TIP3    H121453   5.233   1.504   1.487
 7163TIP3    H221454   5.302   1.619   1.418
 7164TIP3   OH221455   6.619   2.500   0.875
 7164TIP3    H121456   6.594   2.502   0.782
 7164TIP3    H221457   6.587   2.583   0.909
 7165TIP3   OH221458   1.880   4.000   0.857
 7165TIP3    H121459   1.803   3.950   0.831
 7165TIP3    H221460   1.923   3.945   0.923
 7166TIP3   OH221461   2.186   4.871   2.789
 7166TIP3    H121462   2.261   4.860   2.730
 7166TIP3    H221463   2.110   4.872   2.730
 7167TIP3   OH221464   3.081   6.078   4.720
 7167TIP3    H121465   3.098   6.023   4.644
 7167TIP3    H221466   2.987   6.070   4.735
 7168TIP3   OH221467   7.025   6.658   0.279
 7168TIP3    H121468   6.963   6.728   0.299
 7168TIP3    H221469   6.971   6.583   0.254
 7169TIP3   OH221470   6.077   3.639   2.715
 7169TIP3    H121471   6.003   3.647   2.655
 7169TIP3    H221472   6.105   3.729   2.731
 7170TIP3   OH221473   5.889   2.609   0.484
 7170TIP3    H121474   5.856   2.526   0.518
 7170TIP3    H221475   5.956   2.584   0.421
 7171TIP3   OH221476   0.331   2.591   3.295
 7171TIP3    H121477   0.361   2.500   3.284
 7171TIP3    H221478   0.243   2.591   3.256
 7172TIP3   OH221479   0.515   2.226   3.532
 7172TIP3    H121480   0.565   2.160   3.485
 7172TIP3    H221481   0.568   2.246   3.609
 7173TIP3   OH221482   1.451   0.716   5.100
 7173TIP3    H121483   1.425   0.801   5.065
 7173TIP3    H221484   1.462   0.732   5.194
 7174TIP3   OH221485   4.641   2.636   5.230
 7174TIP3    H121486   4.636   2.714   5.174
 7174TIP3    H221487   4.568   2.646   5.291
 7175TIP3   OH221488   5.135   0.300   2.377
 7175TIP3    H121489   5.178   0.353   2.311
 7175TIP3    H221490   5.058   0.350   2.402
 7176TIP3   OH221491   1.210   4.269   3.546
 7176TIP3    H121492   1.209   4.327   3.470
 7176TIP3    H221493   1.202   4.181   3.509
 7177TIP3   OH221494   4.340   2.340   0.988
 7177TIP3    H121495   4.396   2.311   0.916
 7177TIP3    H221496   4.277   2.269   0.999
 7178TIP3   OH221497   4.814   5.916   3.927
 7178TIP3    H121498   4.844   5.855   3.860
 7178TIP3    H221499   4.781   5.860   3.998
 7179TIP3   OH221500   5.877   5.823   2.583
 7179TIP3    H121501   5.810   5.782   2.637
 7179TIP3    H221502   5.830   5.855   2.506
 7180TIP3   OH221503   4.599   5.778   5.235
 7180TIP3    H121504   4.631   5.729   5.311
 7180TIP3    H221505   4.677   5.821   5.200
 7181TIP3   OH221506   2.445   0.336   1.205
 7181TIP3    H121507   2.366   0.295   1.240
 7181TIP3    H221508   2.514   0.311   1.266
 7182TIP3   OH221509   1.401   5.682   5.472
 7182TIP3    H121510   1.384   5.764   5.425
 7182TIP3    H221511   1.476   5.700   5.527
 7183TIP3   OH221512   3.263   3.607  -0.017
 7183TIP3    H121513   3.263   3.694  -0.057
 7183TIP3    H221514   3.266   3.623   0.077
 7184TIP3   OH221515   0.135   0.423   2.258
 7184TIP3    H121516   0.215   0.386   2.296
 7184TIP3    H221517   0.071   0.419   2.329
 7185TIP3   OH221518   5.622   4.015   3.119
 7185TIP3    H121519   5.542   4.066   3.126
 7185TIP3    H221520   5.669   4.054   3.045
 7186TIP3   OH221521   2.618   6.346   3.467
 7186TIP3    H121522   2.637   6.307   3.553
 7186TIP3    H221523   2.584   6.273   3.415
 7187TIP3   OH221524   2.599   3.655   2.034
 7187TIP3    H121525   2.600   3.613   1.948
 7187TIP3    H221526   2.543   3.598   2.087
 7188TIP3   OH221527   0.759   3.452   1.408
 7188TIP3    H121528   0.805   3.428   1.328
 7188TIP3    H221529   0.795   3.393   1.475
 7189TIP3   OH221530   4.937   6.049  -0.012
 7189TIP3    H121531   4.883   5.999   0.049
 7189TIP3    H221532   4.959   6.130   0.036
 7190TIP3   OH221533   2.080   1.659   4.894
 7190TIP3    H121534   2.079   1.750   4.865
 7190TIP3    H221535   1.988   1.634   4.899
 7191TIP3   OH221536   2.362   0.700   4.457
 7191TIP3    H121537   2.325   0.707   4.369
 7191TIP3    H221538   2.372   0.606   4.472
 7192TIP3   OH221539   1.600   3.452   0.920
 7192TIP3    H121540   1.584   3.365   0.885
 7192TIP3    H221541   1.516   3.479   0.956
 7193TIP3   OH221542   1.342   5.188   2.002
 7193TIP3    H121543   1.261   5.173   2.050
 7193TIP3    H221544   1.339   5.127   1.929
 7194TIP3   OH221545   6.775   2.786   4.720
 7194TIP3    H121546   6.755   2.878   4.733
 7194TIP3    H221547   6.841   2.766   4.786
 7195TIP3   OH221548   6.691   2.116   0.712
 7195TIP3    H121549   6.722   2.064   0.786
 7195TIP3    H221550   6.760   2.181   0.697
 7196TIP3   OH221551   2.530   3.534   1.538
 7196TIP3    H121552   2.487   3.448   1.532
 7196TIP3    H221553   2.597   3.532   1.470
 7197TIP3   OH221554   6.301   6.176   1.704
 7197TIP3    H121555   6.307   6.164   1.609
 7197TIP3    H221556   6.209   6.160   1.725
 7198TIP3   OH221557   0.362   5.382   0.126
 7198TIP3    H121558   0.326   5.307   0.078
 7198TIP3    H221559   0.292   5.409   0.185
 7199TIP3   OH221560   6.273   0.739   2.220
 7199TIP3    H121561   6.200   0.796   2.195
 7199TIP3    H221562   6.290   0.760   2.312
 7200TIP3   OH221563   4.432   5.761   2.730
 7200TIP3    H121564   4.501   5.803   2.781
 7200TIP3    H221565   4.422   5.674   2.771
 7201TIP3   OH221566   1.822   2.821   4.658
 7201TIP3    H121567   1.790   2.906   4.628
 7201TIP3    H221568   1.745   2.777   4.693
 7202TIP3   OH221569   0.478   5.793  -0.027
 7202TIP3    H121570   0.473   5.840   0.056
 7202TIP3    H221571   0.501   5.703  -0.004
 7203TIP3   OH221572   2.900   1.841   2.056
 7203TIP3    H121573   2.873   1.772   2.117
 7203TIP3    H221574   2.877   1.923   2.101
 7204TIP3   OH221575   3.498   6.059   3.762
 7204TIP3    H121576   3.560   6.126   3.732
 7204TIP3    H221577   3.414   6.086   3.724
 7205TIP3   OH221578   3.260   1.464   2.403
 7205TIP3    H121579   3.279   1.371   2.398
 7205TIP3    H221580   3.208   1.482   2.324
 7206TIP3   OH221581   3.802   5.334   2.939
 7206TIP3    H121582   3.887   5.324   2.981
 7206TIP3    H221583   3.776   5.245   2.916
 7207TIP3   OH221584   3.048   5.527   0.847
 7207TIP3    H121585   3.030   5.547   0.939
 7207TIP3    H221586   3.007   5.598   0.798
 7208TIP3   OH221587   6.483   1.998   2.861
 7208TIP3    H121588   6.479   2.092   2.844
 7208TIP3    H221589   6.576   1.976   2.852
 7209TIP3   OH221590   5.933   6.609   0.528
 7209TIP3    H121591   5.889   6.547   0.470
 7209TIP3    H221592   5.867   6.676   0.547
 7210TIP3   OH221593   1.577   2.156   2.926
 7210TIP3    H121594   1.493   2.111   2.930
 7210TIP3    H221595   1.601   2.172   3.017
 7211TIP3   OH221596   5.864   2.098   0.525
 7211TIP3    H121597   5.807   2.027   0.495
 7211TIP3    H221598   5.810   2.177   0.516
 7212TIP3   OH221599   0.808   4.993   3.766
 7212TIP3    H121600   0.904   4.998   3.766
 7212TIP3    H221601   0.790   4.904   3.797
 7213TIP3   OH221602   2.062   2.693   0.783
 7213TIP3    H121603   1.979   2.740   0.783
 7213TIP3    H221604   2.128   2.763   0.779
 7214TIP3   OH221605   1.840   1.725   1.062
 7214TIP3    H121606   1.784   1.653   1.032
 7214TIP3    H221607   1.925   1.684   1.078
 7215TIP3   OH221608   1.660   3.880   2.587
 7215TIP3    H121609   1.644   3.788   2.606
 7215TIP3    H221610   1.692   3.917   2.669
 7216TIP3   OH221611   1.053   0.471   5.363
 7216TIP3    H121612   1.009   0.509   5.439
 7216TIP3    H221613   1.146   0.492   5.375
 7217TIP3   OH221614   0.890   6.222   4.189
 7217TIP3    H121615   0.902   6.315   4.210
 7217TIP3    H221616   0.968   6.200   4.138
 7218TIP3   OH221617   2.204   3.363   2.365
 7218TIP3    H121618   2.120   3.374   2.321
 7218TIP3    H221619   2.209   3.436   2.427
 7219TIP3   OH221620   2.959   4.547   3.292
 7219TIP3    H121621   2.938   4.481   3.359
 7219TIP3    H221622   2.932   4.507   3.209
 7220TIP3   OH221623   0.953   2.824   4.172
 7220TIP3    H121624   0.887   2.804   4.238
 7220TIP3    H221625   0.951   2.919   4.164
 7221TIP3   OH221626   6.011   6.038   3.253
 7221TIP3    H121627   6.101   6.069   3.250
 7221TIP3    H221628   5.960   6.117   3.272
 7222TIP3   OH221629   2.093   2.923   2.544
 7222TIP3    H121630   2.129   2.866   2.612
 7222TIP3    H221631   1.998   2.910   2.549
 7223TIP3   OH221632   0.553   0.059   3.734
 7223TIP3    H121633   0.478   0.114   3.709
 7223TIP3    H221634   0.513  -0.026   3.755
 7224TIP3   OH221635   0.783   1.682   2.864
 7224TIP3    H121636   0.834   1.724   2.795
 7224TIP3    H221637   0.723   1.750   2.894
 7225TIP3   OH221638   2.733   2.387   4.749
 7225TIP3    H121639   2.821   2.411   4.780
 7225TIP3    H221640   2.748   2.324   4.679
 7226TIP3   OH221641   0.466   6.749   0.051
 7226TIP3    H121642   0.447   6.795   0.133
 7226TIP3    H221643   0.400   6.782  -0.011
 7227TIP3   OH221644   3.095   6.093   3.044
 7227TIP3    H121645   3.018   6.107   2.989
 7227TIP3    H221646   3.073   6.136   3.127
 7228TIP3   OH221647   1.055   4.621   3.811
 7228TIP3    H121648   1.094   4.643   3.896
 7228TIP3    H221649   1.068   4.527   3.802
 7229TIP3   OH221650   0.569   4.496   4.249
 7229TIP3    H121651   0.658   4.513   4.220
 7229TIP3    H221652   0.529   4.583   4.258
 7230TIP3   OH221653   5.296   2.564   1.654
 7230TIP3    H121654   5.201   2.557   1.649
 7230TIP3    H221655   5.312   2.624   1.727
 7231TIP3   OH221656   5.175   2.974   4.391
 7231TIP3    H121657   5.091   3.010   4.419
 7231TIP3    H221658   5.186   3.004   4.301
 7232TIP3   OH221659   3.659   3.201   0.024
 7232TIP3    H121660   3.695   3.151  -0.050
 7232TIP3    H221661   3.736   3.235   0.070
 7233TIP3   OH221662   4.951   1.192   5.511
 7233TIP3    H121663   4.994   1.223   5.431
 7233TIP3    H221664   4.900   1.267   5.542
 7234TIP3   OH221665   0.321   4.025   3.839
 7234TIP3    H121666   0.243   4.001   3.889
 7234TIP3    H221667   0.288   4.069   3.761
 7235TIP3   OH221668   0.105   2.738   2.792
 7235TIP3    H121669   0.081   2.739   2.699
 7235TIP3    H221670   0.046   2.673   2.831
 7236TIP3   OH221671   4.752   5.273   1.298
 7236TIP3    H121672   4.772   5.367   1.292
 7236TIP3    H221673   4.657   5.269   1.299
 7237TIP3   OH221674   3.645   2.544   3.452
 7237TIP3    H121675   3.654   2.496   3.370
 7237TIP3    H221676   3.554   2.530   3.479
 7238TIP3   OH221677   3.545   1.222   2.927
 7238TIP3    H121678   3.620   1.247   2.873
 7238TIP3    H221679   3.538   1.127   2.916
 7239TIP3   OH221680   4.272   6.710   1.867
 7239TIP3    H121681   4.256   6.646   1.936
 7239TIP3    H221682   4.364   6.697   1.844
 7240TIP3   OH221683   5.379   3.147   5.658
 7240TIP3    H121684   5.415   3.235   5.648
 7240TIP3    H221685   5.292   3.152   5.618
 7241TIP3   OH221686   6.641   3.769   0.257
 7241TIP3    H121687   6.710   3.756   0.322
 7241TIP3    H221688   6.560   3.757   0.307
 7242TIP3   OH221689   1.726   0.423   0.263
 7242TIP3    H121690   1.721   0.342   0.211
 7242TIP3    H221691   1.657   0.414   0.328
 7243TIP3   OH221692   0.488   3.350   0.865
 7243TIP3    H121693   0.501   3.260   0.837
 7243TIP3    H221694   0.401   3.351   0.905
 7244TIP3   OH221695   2.349   2.803   5.658
 7244TIP3    H121696   2.411   2.777   5.591
 7244TIP3    H221697   2.390   2.779   5.741
 7245TIP3   OH221698   4.583   6.202   0.641
 7245TIP3    H121699   4.677   6.218   0.655
 7245TIP3    H221700   4.540   6.278   0.680
 7246TIP3   OH221701   4.881   6.680   0.208
 7246TIP3    H121702   4.950   6.723   0.259
 7246TIP3    H221703   4.871   6.595   0.250
 7247TIP3   OH221704   0.931   0.704   1.757
 7247TIP3    H121705   0.963   0.614   1.748
 7247TIP3    H221706   0.902   0.709   1.848
 7248TIP3   OH221707   1.715   3.758   0.206
 7248TIP3    H121708   1.657   3.760   0.282
 7248TIP3    H221709   1.657   3.769   0.131
 7249TIP3   OH221710   4.768   4.681   4.506
 7249TIP3    H121711   4.832   4.652   4.441
 7249TIP3    H221712   4.725   4.601   4.535
 7250TIP3   OH221713   1.284   4.883   5.093
 7250TIP3    H121714   1.343   4.953   5.062
 7250TIP3    H221715   1.201   4.928   5.108
 7251TIP3   OH221716   1.214   2.514   1.434
 7251TIP3    H121717   1.254   2.505   1.521
 7251TIP3    H221718   1.285   2.495   1.373
 7252TIP3   OH221719   1.957   0.961   5.638
 7252TIP3    H121720   1.873   0.973   5.595
 7252TIP3    H221721   1.935   0.948   5.731
 7253TIP3   OH221722   4.919   2.893   0.669
 7253TIP3    H121723   4.887   2.966   0.617
 7253TIP3    H221724   4.945   2.827   0.605
 7254TIP3   OH221725   2.209   4.689   1.692
 7254TIP3    H121726   2.199   4.748   1.767
 7254TIP3    H221727   2.304   4.678   1.683
 7255TIP3   OH221728   5.727   4.079   1.021
 7255TIP3    H121729   5.816   4.044   1.022
 7255TIP3    H221730   5.683   4.033   1.093
 7256TIP3   OH221731   0.438   2.024   0.968
 7256TIP3    H121732   0.457   2.075   0.889
 7256TIP3    H221733   0.464   1.935   0.946
 7257TIP3   OH221734   0.222   5.172   4.962
 7257TIP3    H121735   0.213   5.111   5.035
 7257TIP3    H221736   0.132   5.191   4.935
 7258TIP3   OH221737   6.781   6.497   4.713
 7258TIP3    H121738   6.828   6.428   4.667
 7258TIP3    H221739   6.846   6.537   4.771
 7259TIP3   OH221740   3.126   6.202   2.326
 7259TIP3    H121741   3.104   6.290   2.294
 7259TIP3    H221742   3.220   6.193   2.307
 7260TIP3   OH221743   3.625   0.391   1.449
 7260TIP3    H121744   3.627   0.430   1.536
 7260TIP3    H221745   3.652   0.300   1.462
 7261TIP3   OH221746   2.243   3.743   3.535
 7261TIP3    H121747   2.307   3.748   3.606
 7261TIP3    H221748   2.267   3.665   3.486
 7262TIP3   OH221749   2.889   5.661   4.641
 7262TIP3    H121750   2.898   5.566   4.630
 7262TIP3    H221751   2.905   5.697   4.553
 7263TIP3   OH221752   2.537   4.429   2.113
 7263TIP3    H121753   2.597   4.430   2.187
 7263TIP3    H221754   2.463   4.375   2.142
 7264TIP3   OH221755   2.479   4.600   3.280
 7264TIP3    H121756   2.543   4.529   3.278
 7264TIP3    H221757   2.517   4.665   3.339
 7265TIP3   OH221758   6.882   2.949   1.549
 7265TIP3    H121759   6.806   2.891   1.547
 7265TIP3    H221760   6.869   3.004   1.626
 7266TIP3   OH221761   0.683   5.998   0.967
 7266TIP3    H121762   0.635   6.078   0.989
 7266TIP3    H221763   0.773   6.027   0.954
 7267TIP3   OH221764   0.864   1.048   5.585
 7267TIP3    H121765   0.892   1.070   5.496
 7267TIP3    H221766   0.825   1.128   5.618
 7268TIP3   OH221767   3.542   1.296   5.114
 7268TIP3    H121768   3.474   1.263   5.173
 7268TIP3    H221769   3.494   1.346   5.048
 7269TIP3   OH221770   6.845   3.364   2.074
 7269TIP3    H121771   6.861   3.441   2.128
 7269TIP3    H221772   6.780   3.393   2.009
 7270TIP3   OH221773   3.142   3.113   2.153
 7270TIP3    H121774   3.218   3.142   2.104
 7270TIP3    H221775   3.089   3.066   2.088
 7271TIP3   OH221776   1.565   5.831   2.867
 7271TIP3    H121777   1.498   5.865   2.808
 7271TIP3    H221778   1.631   5.793   2.810
 7272TIP3   OH221779   3.682   1.284   3.852
 7272TIP3    H121780   3.619   1.347   3.816
 7272TIP3    H221781   3.768   1.326   3.839
 7273TIP3   OH221782   1.400   1.737   5.337
 7273TIP3    H121783   1.411   1.775   5.250
 7273TIP3    H221784   1.489   1.715   5.364
 7274TIP3   OH221785   2.614   5.009   4.514
 7274TIP3    H121786   2.561   5.087   4.499
 7274TIP3    H221787   2.595   4.983   4.604
 7275TIP3   OH221788   5.136   2.383   5.429
 7275TIP3    H121789   5.074   2.372   5.357
 7275TIP3    H221790   5.118   2.309   5.488
 7276TIP3   OH221791   1.915   6.306   5.845
 7276TIP3    H121792   1.903   6.384   5.899
 7276TIP3    H221793   1.964   6.246   5.901
 7277TIP3   OH221794   5.434   0.993   3.206
 7277TIP3    H121795   5.357   0.970   3.154
 7277TIP3    H221796   5.452   1.084   3.183
 7278TIP3   OH221797   5.885   1.901   1.191
 7278TIP3    H121798   5.862   1.956   1.267
 7278TIP3    H221799   5.807   1.845   1.179
 7279TIP3   OH221800   5.011   0.830   1.873
 7279TIP3    H121801   5.056   0.896   1.820
 7279TIP3    H221802   5.053   0.747   1.848
 7280TIP3   OH221803   5.519   6.587   0.646
 7280TIP3    H121804   5.425   6.595   0.660
 7280TIP3    H221805   5.555   6.672   0.670
 7281TIP3   OH221806   1.725   4.048   3.760
 7281TIP3    H121807   1.708   4.004   3.843
 7281TIP3    H221808   1.639   4.072   3.727
 7282TIP3   OH221809   0.284   0.416   0.120
 7282TIP3    H121810   0.347   0.472   0.075
 7282TIP3    H221811   0.202   0.466   0.119
 7283TIP3   OH221812   4.544   5.120   1.964
 7283TIP3    H121813   4.614   5.077   1.915
 7283TIP3    H221814   4.563   5.099   2.055
 7284TIP3   OH221815   1.663   3.427   2.697
 7284TIP3    H121816   1.650   3.346   2.647
 7284TIP3    H221817   1.756   3.446   2.687
 7285TIP3   OH221818   3.413   2.100   2.178
 7285TIP3    H121819   3.411   2.115   2.273
 7285TIP3    H221820   3.497   2.056   2.162
 7286TIP3   OH221821   4.041   5.738   0.123
 7286TIP3    H121822   4.104   5.794   0.079
 7286TIP3    H221823   4.075   5.649   0.111
 7287TIP3   OH221824   4.496   3.464   0.673
 7287TIP3    H121825   4.546   3.477   0.753
 7287TIP3    H221826   4.537   3.522   0.609
 7288TIP3   OH221827   5.624   2.836   1.603
 7288TIP3    H121828   5.699   2.788   1.637
 7288TIP3    H221829   5.655   2.874   1.521
 7289TIP3   OH221830   2.199   1.355   0.349
 7289TIP3    H121831   2.294   1.358   0.345
 7289TIP3    H221832   2.171   1.443   0.322
 7290TIP3   OH221833   5.412   6.712   2.805
 7290TIP3    H121834   5.480   6.668   2.855
 7290TIP3    H221835   5.362   6.761   2.870
 7291TIP3   OH221836   0.832   4.185   0.384
 7291TIP3    H121837   0.813   4.093   0.366
 7291TIP3    H221838   0.896   4.210   0.317
 7292TIP3   OH221839   1.976   1.271   0.128
 7292TIP3    H121840   1.967   1.359   0.165
 7292TIP3    H221841   1.929   1.215   0.190
 7293TIP3   OH221842   3.199   1.248   3.863
 7293TIP3    H121843   3.140   1.249   3.938
 7293TIP3    H221844   3.282   1.281   3.898
 7294TIP3   OH221845   1.264   4.108   5.009
 7294TIP3    H121846   1.316   4.169   4.957
 7294TIP3    H221847   1.329   4.047   5.044
 7295TIP3   OH221848   5.797   4.555   1.936
 7295TIP3    H121849   5.867   4.568   1.999
 7295TIP3    H221850   5.718   4.545   1.990
 7296TIP3   OH221851   2.794   1.310   0.741
 7296TIP3    H121852   2.790   1.303   0.837
 7296TIP3    H221853   2.720   1.259   0.710
 7297TIP3   OH221854   1.190   3.188   4.288
 7297TIP3    H121855   1.146   3.119   4.337
 7297TIP3    H221856   1.197   3.153   4.199
 7298TIP3   OH221857   2.650   6.352   1.716
 7298TIP3    H121858   2.647   6.374   1.809
 7298TIP3    H221859   2.640   6.257   1.713
 7299TIP3   OH221860   7.184   3.465   1.143
 7299TIP3    H121861   7.197   3.393   1.206
 7299TIP3    H221862   7.095   3.497   1.162
 7300TIP3   OH221863   4.872   5.701   3.802
 7300TIP3    H121864   4.820   5.650   3.864
 7300TIP3    H221865   4.931   5.636   3.761
 7301TIP3   OH221866   1.071   2.051   2.115
 7301TIP3    H121867   1.058   1.993   2.190
 7301TIP3    H221868   1.162   2.080   2.122
 7302TIP3   OH221869   0.056   2.647   4.970
 7302TIP3    H121870   0.119   2.580   4.943
 7302TIP3    H221871   0.059   2.647   5.065
 7303TIP3   OH221872   0.934   2.029   0.141
 7303TIP3    H121873   0.921   2.070   0.056
 7303TIP3    H221874   0.881   1.949   0.137
 7304TIP3   OH221875   2.220   2.867   1.422
 7304TIP3    H121876   2.315   2.858   1.436
 7304TIP3    H221877   2.181   2.843   1.506
 7305TIP3   OH221878   3.518   0.033   5.044
 7305TIP3    H121879   3.581   0.105   5.047
 7305TIP3    H221880   3.444   0.063   5.097
 7306TIP3   OH221881   1.622   3.099   1.460
 7306TIP3    H121882   1.699   3.085   1.405
 7306TIP3    H221883   1.563   3.026   1.438
 7307TIP3   OH221884   4.996   1.431   3.733
 7307TIP3    H121885   4.983   1.509   3.786
 7307TIP3    H221886   5.063   1.457   3.669
 7308TIP3   OH221887   6.227   3.509   3.035
 7308TIP3    H121888   6.236   3.533   2.943
 7308TIP3    H221889   6.298   3.556   3.079
 7309TIP3   OH221890   1.741   5.951   5.053
 7309TIP3    H121891   1.778   6.038   5.067
 7309TIP3    H221892   1.760   5.931   4.961
 7310TIP3   OH221893   1.289   6.515   2.365
 7310TIP3    H121894   1.378   6.536   2.335
 7310TIP3    H221895   1.290   6.539   2.458
 7311TIP3   OH221896   2.729   4.349   0.715
 7311TIP3    H121897   2.685   4.268   0.689
 7311TIP3    H221898   2.657   4.411   0.731
 7312TIP3   OH221899   1.113   2.367   3.837
 7312TIP3    H121900   1.148   2.427   3.770
 7312TIP3    H221901   1.103   2.422   3.915
 7313TIP3   OH221902   5.990   1.116   4.828
 7313TIP3    H121903   6.040   1.103   4.747
 7313TIP3    H221904   5.962   1.028   4.853
 7314TIP3   OH221905   5.561   5.047   0.720
 7314TIP3    H121906   5.492   5.114   0.720
 7314TIP3    H221907   5.638   5.091   0.685
 7315TIP3   OH221908   0.992   3.072   4.963
 7315TIP3    H121909   0.954   3.160   4.957
 7315TIP3    H221910   1.014   3.062   5.056
 7316TIP3   OH221911   1.616   0.307   4.693
 7316TIP3    H121912   1.634   0.235   4.632
 7316TIP3    H221913   1.542   0.276   4.745
 7317TIP3   OH221914   4.070   4.704   4.621
 7317TIP3    H121915   4.140   4.642   4.603
 7317TIP3    H221916   4.091   4.739   4.708
 7318TIP3   OH221917   4.542   4.531   2.038
 7318TIP3    H121918   4.483   4.469   2.081
 7318TIP3    H221919   4.558   4.599   2.104
 7319TIP3   OH221920   2.632   1.922   3.688
 7319TIP3    H121921   2.664   1.832   3.691
 7319TIP3    H221922   2.703   1.972   3.650
 7320TIP3   OH221923   1.212   5.211   5.578
 7320TIP3    H121924   1.177   5.180   5.495
 7320TIP3    H221925   1.307   5.206   5.568
 7321TIP3   OH221926   5.002   3.347   3.975
 7321TIP3    H121927   4.935   3.281   3.996
 7321TIP3    H221928   4.954   3.430   3.974
 7322TIP3   OH221929   2.249   5.780   0.483
 7322TIP3    H121930   2.245   5.808   0.392
 7322TIP3    H221931   2.339   5.748   0.495
 7323TIP3   OH221932   6.294   4.542   3.098
 7323TIP3    H121933   6.314   4.633   3.120
 7323TIP3    H221934   6.198   4.536   3.106
 7324TIP3   OH221935   4.842   6.338   4.288
 7324TIP3    H121936   4.934   6.364   4.278
 7324TIP3    H221937   4.835   6.256   4.240
 7325TIP3   OH221938   4.036   4.050   2.686
 7325TIP3    H121939   4.003   4.135   2.659
 7325TIP3    H221940   4.086   4.067   2.766
 7326TIP3   OH221941   7.163   4.828   0.253
 7326TIP3    H121942   7.076   4.827   0.213
 7326TIP3    H221943   7.149   4.793   0.341
 7327TIP3   OH221944   1.289   6.121   3.267
 7327TIP3    H121945   1.301   6.045   3.211
 7327TIP3    H221946   1.352   6.185   3.235
 7328TIP3   OH221947   2.798   0.725   2.065
 7328TIP3    H121948   2.819   0.755   1.977
 7328TIP3    H221949   2.870   0.757   2.119
 7329TIP3   OH221950   1.360   2.217   1.211
 7329TIP3    H121951   1.320   2.144   1.163
 7329TIP3    H221952   1.307   2.293   1.187
 7330TIP3   OH221953   6.942   1.849   3.035
 7330TIP3    H121954   7.020   1.840   2.981
 7330TIP3    H221955   6.869   1.851   2.973
 7331TIP3   OH221956   2.317   3.971   2.261
 7331TIP3    H121957   2.257   3.971   2.187
 7331TIP3    H221958   2.268   3.925   2.330
 7332TIP3   OH221959   0.126   2.268   2.564
 7332TIP3    H121960   0.185   2.342   2.579
 7332TIP3    H221961   0.180   2.204   2.518
 7333TIP3   OH221962   1.346   3.663   0.801
 7333TIP3    H121963   1.386   3.590   0.754
 7333TIP3    H221964   1.399   3.740   0.777
 7334TIP3   OH221965   3.953   0.273   2.907
 7334TIP3    H121966   3.872   0.224   2.917
 7334TIP3    H221967   3.953   0.335   2.980
 7335TIP3   OH221968   0.894   0.359   0.552
 7335TIP3    H121969   0.841   0.429   0.513
 7335TIP3    H221970   0.984   0.392   0.549
 7336TIP3   OH221971   6.191  -0.009   3.700
 7336TIP3    H121972   6.214   0.065   3.644
 7336TIP3    H221973   6.159  -0.075   3.639
 7337TIP3   OH221974   4.100   3.576   3.431
 7337TIP3    H121975   4.175   3.616   3.476
 7337TIP3    H221976   4.024   3.621   3.467
 7338TIP3   OH221977   3.249   6.163   0.375
 7338TIP3    H121978   3.233   6.104   0.302
 7338TIP3    H221979   3.212   6.118   0.451
 7339TIP3   OH221980   7.063   5.441   3.444
 7339TIP3    H121981   7.127   5.502   3.480
 7339TIP3    H221982   7.071   5.363   3.499
 7340TIP3   OH221983   0.818   3.455   5.434
 7340TIP3    H121984   0.835   3.376   5.383
 7340TIP3    H221985   0.894   3.511   5.417
 7341TIP3   OH221986   3.439   1.664   1.078
 7341TIP3    H121987   3.513   1.606   1.061
 7341TIP3    H221988   3.458   1.742   1.027
 7342TIP3   OH221989   1.467   4.325   5.352
 7342TIP3    H121990   1.449   4.329   5.446
 7342TIP3    H221991   1.533   4.393   5.337
 7343TIP3   OH221992   0.230   0.424   4.909
 7343TIP3    H121993   0.325   0.432   4.899
 7343TIP3    H221994   0.200   0.514   4.922
 7344TIP3   OH221995   0.851   1.140   0.633
 7344TIP3    H121996   0.761   1.114   0.615
 7344TIP3    H221997   0.850   1.169   0.724
 7345TIP3   OH221998   3.075   2.591   0.566
 7345TIP3    H121999   3.072   2.631   0.653
 7345TIP3    H222000   3.162   2.613   0.533
 7346TIP3   OH222001   1.881   3.552   2.416
 7346TIP3    H122002   1.902   3.496   2.341
 7346TIP3    H222003   1.787   3.567   2.410
 7347TIP3   OH222004   1.439   2.024   0.605
 7347TIP3    H122005   1.507   2.048   0.542
 7347TIP3    H222006   1.483   2.030   0.690
 7348TIP3   OH222007   5.657   5.634   4.341
 7348TIP3    H122008   5.728   5.669   4.286
 7348TIP3    H222009   5.695   5.557   4.382
 7349TIP3   OH222010   2.978   0.434   2.437
 7349TIP3    H122011   2.951   0.454   2.347
 7349TIP3    H222012   2.978   0.519   2.481
 7350TIP3   OH222013   0.823   2.695   1.383
 7350TIP3    H122014   0.758   2.712   1.451
 7350TIP3    H222015   0.792   2.616   1.339
 7351TIP3   OH222016   1.041   1.655   3.565
 7351TIP3    H122017   1.106   1.722   3.587
 7351TIP3    H222018   0.960   1.686   3.606
 7352TIP3   OH222019   3.053   0.029   1.551
 7352TIP3    H122020   3.125   0.087   1.526
 7352TIP3    H222021   3.074   0.002   1.641
 7353TIP3   OH222022   6.034   4.562   5.337
 7353TIP3    H122023   6.030   4.579   5.431
 7353TIP3    H222024   5.943   4.562   5.308
 7354TIP3   OH222025   6.234   0.621   4.678
 7354TIP3    H122026   6.288   0.545   4.696
 7354TIP3    H222027   6.272   0.661   4.600
 7355TIP3   OH222028   6.266   3.563   0.931
 7355TIP3    H122029   6.249   3.541   0.840
 7355TIP3    H222030   6.195   3.521   0.980
 7356TIP3   OH222031   4.620   0.554   1.847
 7356TIP3    H122032   4.702   0.543   1.895
 7356TIP3    H222033   4.595   0.645   1.864
 7357TIP3   OH222034   6.683   5.256   1.835
 7357TIP3    H122035   6.673   5.252   1.740
 7357TIP3    H222036   6.758   5.199   1.854
 7358TIP3   OH222037   7.033   1.790   0.854
 7358TIP3    H122038   7.109   1.815   0.907
 7358TIP3    H222039   6.989   1.722   0.907
 7359TIP3   OH222040   5.950   4.949   5.029
 7359TIP3    H122041   6.013   4.909   5.089
 7359TIP3    H222042   5.897   5.007   5.085
 7360TIP3   OH222043   6.101   5.735   3.977
 7360TIP3    H122044   6.162   5.751   4.050
 7360TIP3    H222045   6.118   5.806   3.916
 7361TIP3   OH222046   3.696   2.180   0.044
 7361TIP3    H122047   3.759   2.185   0.116
 7361TIP3    H222048   3.670   2.087   0.042
 7362TIP3   OH222049   2.145   5.090   5.437
 7362TIP3    H122050   2.052   5.091   5.459
 7362TIP3    H222051   2.148   5.068   5.344
 7363TIP3   OH222052   3.221   3.512   5.332
 7363TIP3    H122053   3.164   3.557   5.394
 7363TIP3    H222054   3.253   3.435   5.380
 7364TIP3   OH222055   3.741   5.847   4.610
 7364TIP3    H122056   3.669   5.902   4.643
 7364TIP3    H222057   3.795   5.907   4.559
 7365TIP3   OH222058   2.027   3.112   5.825
 7365TIP3    H122059   2.035   3.115   5.730
 7365TIP3    H222060   2.108   3.071   5.855
 7366TIP3   OH222061   1.736   1.407   2.086
 7366TIP3    H122062   1.647   1.407   2.050
 7366TIP3    H222063   1.723   1.413   2.181
 7367TIP3   OH222064   6.254   1.222   3.958
 7367TIP3    H122065   6.260   1.314   3.982
 7367TIP3    H222066   6.270   1.220   3.864
 7368TIP3   OH222067   0.668   6.309   1.635
 7368TIP3    H122068   0.630   6.387   1.676
 7368TIP3    H222069   0.698   6.340   1.549
 7369TIP3   OH222070   5.437   0.448   2.557
 7369TIP3    H122071   5.394   0.380   2.610
 7369TIP3    H222072   5.365   0.506   2.531
 7370TIP3   OH222073   1.337   6.060   3.522
 7370TIP3    H122074   1.366   6.140   3.565
 7370TIP3    H222075   1.329   6.084   3.429
 7371TIP3   OH222076   4.813   5.842   1.034
 7371TIP3    H122077   4.747   5.898   0.994
 7371TIP3    H222078   4.763   5.770   1.074
 7372TIP3   OH222079   5.996   4.036   1.038
 7372TIP3    H122080   6.050   3.961   1.015
 7372TIP3    H222081   6.015   4.102   0.970
 7373TIP3   OH222082   0.452   1.579   0.631
 7373TIP3    H122083   0.389   1.527   0.581
 7373TIP3    H222084   0.490   1.638   0.567
 7374TIP3   OH222085   2.347   1.757   0.399
 7374TIP3    H122086   2.379   1.680   0.351
 7374TIP3    H222087   2.380   1.746   0.488
 7375TIP3   OH222088   3.222   1.896   3.500
 7375TIP3    H122089   3.278   1.913   3.424
 7375TIP3    H222090   3.259   1.817   3.539
 7376TIP3   OH222091   3.447   5.007   4.934
 7376TIP3    H122092   3.525   4.953   4.933
 7376TIP3    H222093   3.471   5.083   4.988
 7377TIP3   OH222094   0.062   1.508   1.208
 7377TIP3    H122095  -0.021   1.484   1.250
 7377TIP3    H222096   0.079   1.597   1.238
 7378TIP3   OH222097   5.509   4.240   5.510
 7378TIP3    H122098   5.531   4.282   5.593
 7378TIP3    H222099   5.488   4.150   5.533
 7379TIP3   OH222100   1.907   3.550   1.573
 7379TIP3    H122101   1.901   3.458   1.596
 7379TIP3    H222102   1.914   3.551   1.477
 7380TIP3   OH222103   3.562   1.389   4.667
 7380TIP3    H122104   3.515   1.430   4.594
 7380TIP3    H222105   3.506   1.405   4.743
 7381TIP3   OH222106   0.256   6.018   4.995
 7381TIP3    H122107   0.348   5.994   4.990
 7381TIP3    H222108   0.256   6.113   5.003
 7382TIP3   OH222109   2.399   5.511   2.970
 7382TIP3    H122110   2.460   5.449   2.929
 7382TIP3    H222111   2.455   5.568   3.023
 7383TIP3   OH222112   5.878   2.733   0.750
 7383TIP3    H122113   5.919   2.692   0.674
 7383TIP3    H222114   5.800   2.681   0.766
 7384TIP3   OH222115   1.487   2.976   2.698
 7384TIP3    H122116   1.516   3.050   2.645
 7384TIP3    H222117   1.398   2.958   2.666
 7385TIP3   OH222118   0.895   1.662   5.107
 7385TIP3    H122119   0.857   1.744   5.075
 7385TIP3    H222120   0.839   1.593   5.071
 7386TIP3   OH222121   6.552   5.990   0.268
 7386TIP3    H122122   6.613   6.005   0.340
 7386TIP3    H222123   6.538   6.078   0.231
 7387TIP3   OH222124   3.298   4.978   2.702
 7387TIP3    H122125   3.227   5.035   2.732
 7387TIP3    H222126   3.378   5.017   2.737
 7388TIP3   OH222127   6.051   6.559   2.082
 7388TIP3    H122128   6.024   6.574   2.172
 7388TIP3    H222129   6.031   6.467   2.065
 7389TIP3   OH222130   4.973   4.490   1.634
 7389TIP3    H122131   4.972   4.583   1.611
 7389TIP3    H222132   4.973   4.445   1.549
 7390TIP3   OH222133   5.223   0.972   0.953
 7390TIP3    H122134   5.128   0.986   0.952
 7390TIP3    H222135   5.260   1.060   0.952
 7391TIP3   OH222136   3.668   5.161   1.286
 7391TIP3    H122137   3.737   5.101   1.315
 7391TIP3    H222138   3.673   5.159   1.191
 7392TIP3   OH222139   1.917   2.945   1.084
 7392TIP3    H122140   1.906   2.873   1.146
 7392TIP3    H222141   1.856   2.925   1.013
 7393TIP3   OH222142   3.393   3.139   5.317
 7393TIP3    H122143   3.357   3.169   5.233
 7393TIP3    H222144   3.331   3.170   5.383
 7394TIP3   OH222145   2.047   0.528   2.214
 7394TIP3    H122146   2.124   0.470   2.207
 7394TIP3    H222147   1.973   0.468   2.216
 7395TIP3   OH222148   1.345   6.564   5.814
 7395TIP3    H122149   1.319   6.632   5.752
 7395TIP3    H222150   1.439   6.577   5.826
 7396TIP3   OH222151   6.617   3.014   1.848
 7396TIP3    H122152   6.648   3.097   1.811
 7396TIP3    H222153   6.612   3.031   1.942
 7397TIP3   OH222154   2.217   3.962   1.698
 7397TIP3    H122155   2.231   4.052   1.669
 7397TIP3    H222156   2.297   3.916   1.673
 7398TIP3   OH222157   5.946   5.937   1.109
 7398TIP3    H122158   5.942   5.891   1.025
 7398TIP3    H222159   5.960   6.029   1.086
 7399TIP3   OH222160   6.787   4.677   5.069
 7399TIP3    H122161   6.734   4.665   4.990
 7399TIP3    H222162   6.746   4.751   5.114
 7400TIP3   OH222163   2.537   2.246   0.508
 7400TIP3    H122164   2.504   2.289   0.429
 7400TIP3    H222165   2.525   2.153   0.491
 7401TIP3   OH222166   4.202   1.958   5.705
 7401TIP3    H122167   4.159   1.882   5.665
 7401TIP3    H222168   4.130   2.014   5.734
 7402TIP3   OH222169   2.691   2.879   2.920
 7402TIP3    H122170   2.722   2.910   2.835
 7402TIP3    H222171   2.741   2.798   2.935
 7403TIP3   OH222172   6.750   1.737   2.476
 7403TIP3    H122173   6.792   1.822   2.468
 7403TIP3    H222174   6.820   1.674   2.462
 7404TIP3   OH222175   0.985   0.898   5.796
 7404TIP3    H122176   0.934   0.926   5.872
 7404TIP3    H222177   0.940   0.938   5.721
 7405TIP3   OH222178   6.656   5.033   1.434
 7405TIP3    H122179   6.628   4.953   1.480
 7405TIP3    H222180   6.752   5.025   1.429
 7406TIP3   OH222181   3.369   1.174   2.382
 7406TIP3    H122182   3.313   1.102   2.354
 7406TIP3    H222183   3.376   1.165   2.477
 7407TIP3   OH222184   1.624   0.343   0.929
 7407TIP3    H122185   1.598   0.297   1.008
 7407TIP3    H222186   1.552   0.329   0.867
 7408TIP3   OH222187   0.609   5.264   1.397
 7408TIP3    H122188   0.673   5.304   1.455
 7408TIP3    H222189   0.608   5.320   1.320
 7409TIP3   OH222190   2.797   3.423   5.136
 7409TIP3    H122191   2.742   3.472   5.197
 7409TIP3    H222192   2.753   3.430   5.052
 7410TIP3   OH222193   6.423   4.437   0.061
 7410TIP3    H122194   6.329   4.425   0.051
 7410TIP3    H222195   6.443   4.518   0.014
 7411TIP3   OH222196   7.219   5.971   1.831
 7411TIP3    H122197   7.252   6.052   1.871
 7411TIP3    H222198   7.142   5.948   1.884
 7412TIP3   OH222199   2.586   1.994   3.975
 7412TIP3    H122200   2.630   1.910   3.988
 7412TIP3    H222201   2.525   1.979   3.903
 7413TIP3   OH222202   1.723   2.382   2.584
 7413TIP3    H122203   1.640   2.353   2.544
 7413TIP3    H222204   1.790   2.354   2.522
 7414TIP3   OH222205   6.108   1.428   0.046
 7414TIP3    H122206   6.095   1.413   0.140
 7414TIP3    H222207   6.060   1.508   0.027
 7415TIP3   OH222208   4.753   2.868   3.900
 7415TIP3    H122209   4.725   2.781   3.870
 7415TIP3    H222210   4.727   2.927   3.829
 7416TIP3   OH222211   0.625   4.707   2.710
 7416TIP3    H122212   0.550   4.705   2.650
 7416TIP3    H222213   0.664   4.794   2.697
 7417TIP3   OH222214   3.221   2.375   1.671
 7417TIP3    H122215   3.190   2.399   1.759
 7417TIP3    H222216   3.313   2.350   1.685
 7418TIP3   OH222217   6.101   1.136   3.502
 7418TIP3    H122218   6.155   1.068   3.460
 7418TIP3    H222219   6.043   1.167   3.432
 7419TIP3   OH222220   4.133   2.145   1.080
 7419TIP3    H122221   4.110   2.103   1.163
 7419TIP3    H222222   4.102   2.083   1.013
 7420TIP3   OH222223   2.166   0.768   3.471
 7420TIP3    H122224   2.128   0.855   3.463
 7420TIP3    H222225   2.233   0.777   3.539
 7421TIP3   OH222226   6.304   3.257   1.271
 7421TIP3    H122227   6.392   3.256   1.309
 7421TIP3    H222228   6.289   3.167   1.243
 7422TIP3   OH222229   3.659   5.663   1.360
 7422TIP3    H122230   3.653   5.757   1.377
 7422TIP3    H222231   3.569   5.631   1.368
 7423TIP3   OH222232   7.144   2.108   0.259
 7423TIP3    H122233   7.151   2.201   0.283
 7423TIP3    H222234   7.123   2.109   0.166
 7424TIP3   OH222235   3.357   6.353   3.568
 7424TIP3    H122236   3.378   6.445   3.586
 7424TIP3    H222237   3.338   6.351   3.474
 7425TIP3   OH222238   0.017   3.310   2.802
 7425TIP3    H122239   0.066   3.230   2.819
 7425TIP3    H222240   0.078   3.381   2.821
 7426TIP3   OH222241   5.890   0.177   1.707
 7426TIP3    H122242   5.868   0.084   1.712
 7426TIP3    H222243   5.969   0.186   1.760
 7427TIP3   OH222244   4.455   3.126   2.700
 7427TIP3    H122245   4.414   3.144   2.784
 7427TIP3    H222246   4.464   3.211   2.658
 7428TIP3   OH222247   0.520   5.483   0.737
 7428TIP3    H122248   0.455   5.417   0.761
 7428TIP3    H222249   0.492   5.562   0.784
 7429TIP3   OH222250   1.901   6.091   5.645
 7429TIP3    H122251   1.885   6.181   5.676
 7429TIP3    H222252   1.818   6.065   5.605
 7430TIP3   OH222253   6.952   3.878   3.773
 7430TIP3    H122254   6.926   3.786   3.764
 7430TIP3    H222255   7.036   3.875   3.818
 7431TIP3   OH222256   6.721   5.445   2.358
 7431TIP3    H122257   6.715   5.533   2.320
 7431TIP3    H222258   6.636   5.405   2.338
 7432TIP3   OH222259   3.647   0.838   2.241
 7432TIP3    H122260   3.679   0.907   2.299
 7432TIP3    H222261   3.646   0.759   2.296
 7433TIP3   OH222262   7.162   5.715   5.490
 7433TIP3    H122263   7.254   5.706   5.468
 7433TIP3    H222264   7.157   5.796   5.541
 7434TIP3   OH222265   3.689   2.907   0.020
 7434TIP3    H122266   3.635   2.945   0.089
 7434TIP3    H222267   3.771   2.883   0.064
 7435TIP3   OH222268   7.153   0.241   5.545
 7435TIP3    H122269   7.150   0.151   5.513
 7435TIP3    H222270   7.077   0.283   5.505
 7436TIP3   OH222271   0.416   4.899   2.906
 7436TIP3    H122272   0.432   4.983   2.949
 7436TIP3    H222273   0.475   4.837   2.950
 7437TIP3   OH222274   1.380   2.049   4.747
 7437TIP3    H122275   1.472   2.069   4.761
 7437TIP3    H222276   1.368   1.961   4.782
 7438TIP3   OH222277   0.455   4.973   2.239
 7438TIP3    H122278   0.376   5.008   2.199
 7438TIP3    H222279   0.424   4.922   2.314
 7439TIP3   OH222280   2.826   4.668   0.921
 7439TIP3    H122281   2.903   4.698   0.872
 7439TIP3    H222282   2.840   4.574   0.932
 7440TIP3   OH222283   5.424   3.285   1.583
 7440TIP3    H122284   5.514   3.287   1.614
 7440TIP3    H222285   5.417   3.205   1.531
 7441TIP3   OH222286   6.195   2.249   5.173
 7441TIP3    H122287   6.249   2.206   5.239
 7441TIP3    H222288   6.256   2.270   5.102
 7442TIP3   OH222289   2.600   6.627   5.789
 7442TIP3    H122290   2.583   6.641   5.882
 7442TIP3    H222291   2.607   6.715   5.752
 7443TIP3   OH222292   4.052   0.649   5.007
 7443TIP3    H122293   4.006   0.656   5.091
 7443TIP3    H222294   4.082   0.738   4.989
 7444TIP3   OH222295   3.850   5.994   3.935
 7444TIP3    H122296   3.935   6.021   3.899
 7444TIP3    H222297   3.849   6.030   4.024
 7445TIP3   OH222298   6.838   4.727   4.707
 7445TIP3    H122299   6.809   4.637   4.723
 7445TIP3    H222300   6.926   4.731   4.744
 7446TIP3   OH222301   5.801   3.337   3.232
 7446TIP3    H122302   5.727   3.395   3.218
 7446TIP3    H222303   5.862   3.388   3.285
 7447TIP3   OH222304   4.617   2.233   4.611
 7447TIP3    H122305   4.639   2.318   4.648
 7447TIP3    H222306   4.543   2.202   4.664
 7448TIP3   OH222307   7.211   5.777   1.612
 7448TIP3    H122308   7.208   5.857   1.665
 7448TIP3    H222309   7.182   5.708   1.672
 7449TIP3   OH222310   2.465   3.970   3.909
 7449TIP3    H122311   2.476   3.884   3.949
 7449TIP3    H222312   2.518   3.966   3.829
 7450TIP3   OH222313   2.199   2.086   2.793
 7450TIP3    H122314   2.192   2.023   2.721
 7450TIP3    H222315   2.125   2.144   2.781
 7451TIP3   OH222316   0.830   5.493   5.693
 7451TIP3    H122317   0.844   5.411   5.646
 7451TIP3    H222318   0.882   5.484   5.773
 7452TIP3   OH222319   5.547   5.644   1.455
 7452TIP3    H122320   5.460   5.604   1.461
 7452TIP3    H222321   5.578   5.620   1.368
 7453TIP3   OH222322   1.421   4.743   4.316
 7453TIP3    H122323   1.386   4.831   4.301
 7453TIP3    H222324   1.508   4.745   4.277
 7454TIP3   OH222325   5.071   4.653   5.113
 7454TIP3    H122326   5.102   4.615   5.195
 7454TIP3    H222327   5.052   4.578   5.057
 7455TIP3   OH222328   4.497   2.033   5.164
 7455TIP3    H122329   4.459   2.065   5.083
 7455TIP3    H222330   4.582   2.076   5.170
 7456TIP3   OH222331   4.262   0.718   2.790
 7456TIP3    H122332   4.298   0.783   2.850
 7456TIP3    H222333   4.263   0.762   2.705
 7457TIP3   OH222334   1.792   1.792   5.185
 7457TIP3    H122335   1.748   1.749   5.258
 7457TIP3    H222336   1.792   1.885   5.209
 7458TIP3   OH222337   6.755   1.877   2.149
 7458TIP3    H122338   6.773   1.872   2.055
 7458TIP3    H222339   6.716   1.792   2.170
 7459TIP3   OH222340   5.807   3.770   1.330
 7459TIP3    H122341   5.785   3.716   1.406
 7459TIP3    H222342   5.746   3.740   1.262
 7460TIP3   OH222343   2.079   4.932   1.361
 7460TIP3    H122344   2.003   4.987   1.342
 7460TIP3    H222345   2.051   4.844   1.337
 7461TIP3   OH222346   3.493   0.804   3.368
 7461TIP3    H122347   3.578   0.768   3.394
 7461TIP3    H222348   3.432   0.732   3.377
 7462TIP3   OH222349   7.169   6.481   3.325
 7462TIP3    H122350   7.080   6.512   3.309
 7462TIP3    H222351   7.158   6.402   3.378
 7463TIP3   OH222352   5.129   3.973   2.840
 7463TIP3    H122353   5.179   4.025   2.777
 7463TIP3    H222354   5.050   4.024   2.856
 7464TIP3   OH222355   5.953   3.533   3.917
 7464TIP3    H122356   5.887   3.591   3.879
 7464TIP3    H222357   5.916   3.506   4.001
 7465TIP3   OH222358   3.028   3.387   5.704
 7465TIP3    H122359   3.077   3.450   5.652
 7465TIP3    H222360   3.055   3.302   5.670
 7466TIP3   OH222361   5.716   5.140   3.750
 7466TIP3    H122362   5.641   5.146   3.809
 7466TIP3    H222363   5.710   5.051   3.713
 7467TIP3   OH222364   0.628   4.775   3.012
 7467TIP3    H122365   0.710   4.797   3.056
 7467TIP3    H222366   0.654   4.737   2.929
 7468TIP3   OH222367   2.286   4.690   3.524
 7468TIP3    H122368   2.282   4.762   3.461
 7468TIP3    H222369   2.218   4.629   3.495
 7469TIP3   OH222370   6.069   1.050   5.085
 7469TIP3    H122371   6.159   1.039   5.114
 7469TIP3    H222372   6.076   1.072   4.993
 7470TIP3   OH222373   5.310   3.391   3.101
 7470TIP3    H122374   5.263   3.469   3.131
 7470TIP3    H222375   5.243   3.323   3.097
 7471TIP3   OH222376   6.890   4.226   1.089
 7471TIP3    H122377   6.855   4.314   1.104
 7471TIP3    H222378   6.911   4.193   1.177
 7472TIP3   OH222379   6.827   3.742   3.307
 7472TIP3    H122380   6.856   3.668   3.361
 7472TIP3    H222381   6.823   3.707   3.218
 7473TIP3   OH222382   6.302   1.444   4.586
 7473TIP3    H122383   6.390   1.462   4.555
 7473TIP3    H222384   6.258   1.404   4.511
 7474TIP3   OH222385   3.926   5.143   3.812
 7474TIP3    H122386   3.868   5.201   3.860
 7474TIP3    H222387   3.885   5.134   3.726
 7475TIP3   OH222388   1.142   2.452   5.533
 7475TIP3    H122389   1.118   2.391   5.463
 7475TIP3    H222390   1.131   2.401   5.614
 7476TIP3   OH222391   3.522   2.750   3.775
 7476TIP3    H122392   3.499   2.842   3.759
 7476TIP3    H222393   3.577   2.752   3.853
 7477TIP3   OH222394   1.925   4.704   1.109
 7477TIP3    H122395   1.871   4.714   1.031
 7477TIP3    H222396   1.880   4.756   1.176
 7478TIP3   OH222397   5.509   3.937   4.885
 7478TIP3    H122398   5.512   3.968   4.976
 7478TIP3    H222399   5.561   3.856   4.885
 7479TIP3   OH222400   5.609   4.477   2.133
 7479TIP3    H122401   5.529   4.460   2.084
 7479TIP3    H222402   5.579   4.513   2.216
 7480TIP3   OH222403   2.020   2.469   4.279
 7480TIP3    H122404   1.979   2.533   4.339
 7480TIP3    H222405   2.114   2.486   4.287
 7481TIP3   OH222406   5.253   5.364   3.131
 7481TIP3    H122407   5.273   5.347   3.223
 7481TIP3    H222408   5.297   5.293   3.084
 7482TIP3   OH222409   6.426   4.881   3.439
 7482TIP3    H122410   6.415   4.881   3.534
 7482TIP3    H222411   6.520   4.894   3.426
 7483TIP3   OH222412   5.997   5.193   0.992
 7483TIP3    H122413   6.070   5.203   0.932
 7483TIP3    H222414   5.990   5.277   1.037
 7484TIP3   OH222415   1.109   5.734   2.801
 7484TIP3    H122416   1.016   5.733   2.777
 7484TIP3    H222417   1.110   5.709   2.894
 7485TIP3   OH222418   6.451   5.010   4.997
 7485TIP3    H122419   6.426   5.093   5.037
 7485TIP3    H222420   6.385   4.996   4.930
 7486TIP3   OH222421   0.888   1.595   0.029
 7486TIP3    H122422   0.897   1.567  -0.062
 7486TIP3    H222423   0.927   1.525   0.080
 7487TIP3   OH222424   1.349   4.152   5.881
 7487TIP3    H122425   1.347   4.248   5.882
 7487TIP3    H222426   1.257   4.126   5.876
 7488TIP3   OH222427   2.420   3.742   0.522
 7488TIP3    H122428   2.487   3.772   0.461
 7488TIP3    H222429   2.344   3.724   0.467
 7489TIP3   OH222430   1.714   1.611   1.825
 7489TIP3    H122431   1.777   1.677   1.794
 7489TIP3    H222432   1.764   1.530   1.829
 7490TIP3   OH222433   1.157   3.011   5.698
 7490TIP3    H122434   1.100   2.935   5.714
 7490TIP3    H222435   1.181   3.042   5.785
 7491TIP3   OH222436   6.541   3.489   5.901
 7491TIP3    H122437   6.610   3.464   5.962
 7491TIP3    H222438   6.583   3.486   5.815
 7492TIP3   OH222439   0.802   3.929   1.265
 7492TIP3    H122440   0.798   3.879   1.184
 7492TIP3    H222441   0.782   4.019   1.239
 7493TIP3   OH222442   2.014   5.256   3.419
 7493TIP3    H122443   2.033   5.267   3.512
 7493TIP3    H222444   2.095   5.281   3.374
 7494TIP3   OH222445   3.242   6.063   3.628
 7494TIP3    H122446   3.194   6.028   3.553
 7494TIP3    H222447   3.235   6.158   3.618
 7495TIP3   OH222448   2.726   2.219   3.832
 7495TIP3    H122449   2.709   2.278   3.906
 7495TIP3    H222450   2.722   2.131   3.869
 7496TIP3   OH222451   5.181   4.481   0.535
 7496TIP3    H122452   5.245   4.523   0.477
 7496TIP3    H222453   5.113   4.449   0.475
 7497TIP3   OH222454   3.595   3.301   0.930
 7497TIP3    H122455   3.655   3.375   0.923
 7497TIP3    H222456   3.650   3.224   0.913
 7498TIP3   OH222457   6.787   1.536   0.675
 7498TIP3    H122458   6.853   1.491   0.727
 7498TIP3    H222459   6.835   1.605   0.629
 7499TIP3   OH222460   6.991   3.119   4.451
 7499TIP3    H122461   6.940   3.046   4.487
 7499TIP3    H222462   7.053   3.078   4.391
 7500TIP3   OH222463   4.225   5.024   1.976
 7500TIP3    H122464   4.289   4.965   2.016
 7500TIP3    H222465   4.250   5.028   1.884
 7501TIP3   OH222466   4.344   2.988   5.258
 7501TIP3    H122467   4.258   3.031   5.254
 7501TIP3    H222468   4.376   3.007   5.346
 7502TIP3   OH222469   6.674   2.404   2.422
 7502TIP3    H122470   6.651   2.331   2.365
 7502TIP3    H222471   6.593   2.454   2.431
 7503TIP3   OH222472   2.942   5.537   3.451
 7503TIP3    H122473   2.910   5.495   3.531
 7503TIP3    H222474   3.011   5.597   3.481
 7504TIP3   OH222475   0.042   1.236   3.477
 7504TIP3    H122476   0.111   1.233   3.542
 7504TIP3    H222477   0.030   1.146   3.449
 7505TIP3   OH222478   4.993   3.949   1.191
 7505TIP3    H122479   5.086   3.971   1.183
 7505TIP3    H222480   4.964   3.997   1.269
 7506TIP3   OH222481   0.467   1.790   4.789
 7506TIP3    H122482   0.403   1.744   4.735
 7506TIP3    H222483   0.539   1.811   4.729
 7507TIP3   OH222484   5.196   3.722   2.759
 7507TIP3    H122485   5.199   3.814   2.787
 7507TIP3    H222486   5.241   3.722   2.674
 7508TIP3   OH222487   4.951   2.038   5.764
 7508TIP3    H122488   4.972   2.071   5.676
 7508TIP3    H222489   5.014   1.968   5.779
 7509TIP3   OH222490   2.644   0.448   1.807
 7509TIP3    H122491   2.591   0.527   1.816
 7509TIP3    H222492   2.696   0.462   1.727
 7510TIP3   OH222493   1.675   0.181   5.654
 7510TIP3    H122494   1.631   0.175   5.569
 7510TIP3    H222495   1.717   0.095   5.665
 7511TIP3   OH222496   6.230   1.576   1.494
 7511TIP3    H122497   6.247   1.582   1.400
 7511TIP3    H222498   6.269   1.656   1.530
 7512TIP3   OH222499   6.057   2.912   4.080
 7512TIP3    H122500   6.134   2.968   4.090
 7512TIP3    H222501   5.983   2.972   4.087
 7513TIP3   OH222502   4.423   5.601   4.860
 7513TIP3    H122503   4.353   5.542   4.831
 7513TIP3    H222504   4.413   5.606   4.955
 7514TIP3   OH222505   5.853   5.613   3.266
 7514TIP3    H122506   5.875   5.574   3.350
 7514TIP3    H222507   5.797   5.687   3.288
 7515TIP3   OH222508   3.524   6.185   1.555
 7515TIP3    H122509   3.488   6.227   1.478
 7515TIP3    H222510   3.466   6.211   1.627
 7516TIP3   OH222511   4.059   3.294   3.992
 7516TIP3    H122512   4.043   3.271   4.084
 7516TIP3    H222513   4.154   3.294   3.984
 7517TIP3   OH222514   4.001   3.240   0.810
 7517TIP3    H122515   4.064   3.265   0.743
 7517TIP3    H222516   4.028   3.290   0.888
 7518TIP3   OH222517   3.265   1.287   5.565
 7518TIP3    H122518   3.180   1.279   5.523
 7518TIP3    H222519   3.247   1.338   5.644
 7519TIP3   OH222520   3.321   1.734   1.302
 7519TIP3    H122521   3.357   1.823   1.306
 7519TIP3    H222522   3.352   1.699   1.219
 7520TIP3   OH222523   3.868   5.511   4.373
 7520TIP3    H122524   3.869   5.606   4.388
 7520TIP3    H222525   3.908   5.500   4.287
 7521TIP3   OH222526   1.771   6.055   2.712
 7521TIP3    H122527   1.814   5.987   2.763
 7521TIP3    H222528   1.839   6.120   2.696
 7522TIP3   OH222529   3.669   4.481   0.911
 7522TIP3    H122530   3.583   4.446   0.931
 7522TIP3    H222531   3.718   4.475   0.993
 7523TIP3   OH222532   0.479   1.433   5.520
 7523TIP3    H122533   0.484   1.428   5.424
 7523TIP3    H222534   0.430   1.513   5.537
 7524TIP3   OH222535   0.755   3.578   0.201
 7524TIP3    H122536   0.730   3.658   0.246
 7524TIP3    H222537   0.728   3.591   0.111
 7525TIP3   OH222538   0.493   5.437   2.947
 7525TIP3    H122539   0.546   5.517   2.950
 7525TIP3    H222540   0.500   5.407   2.857
 7526TIP3   OH222541   0.234   2.233   0.457
 7526TIP3    H122542   0.225   2.139   0.440
 7526TIP3    H222543   0.172   2.274   0.398
 7527TIP3   OH222544   5.861   0.954   0.414
 7527TIP3    H122545   5.828   0.875   0.372
 7527TIP3    H222546   5.956   0.949   0.403
 7528TIP3   OH222547   5.233   3.841   0.985
 7528TIP3    H122548   5.176   3.806   0.917
 7528TIP3    H222549   5.302   3.887   0.937
 7529TIP3   OH222550   1.160   1.176   0.729
 7529TIP3    H122551   1.198   1.248   0.679
 7529TIP3    H222552   1.102   1.131   0.666
 7530TIP3   OH222553   1.635   2.748   2.805
 7530TIP3    H122554   1.715   2.791   2.836
 7530TIP3    H222555   1.577   2.820   2.781
 7531TIP3   OH222556   0.891   0.600   1.019
 7531TIP3    H122557   0.866   0.515   0.982
 7531TIP3    H222558   0.866   0.595   1.111
 7532TIP3   OH222559   1.006   4.992   2.016
 7532TIP3    H122560   1.100   4.980   2.031
 7532TIP3    H222561   0.990   4.956   1.929
 7533TIP3   OH222562   5.631   4.808   4.606
 7533TIP3    H122563   5.556   4.867   4.598
 7533TIP3    H222564   5.593   4.725   4.637
 7534TIP3   OH222565   1.101   3.127   0.713
 7534TIP3    H122566   1.172   3.171   0.761
 7534TIP3    H222567   1.024   3.139   0.769
 7535TIP3   OH222568   3.611   5.728   3.192
 7535TIP3    H122569   3.649   5.815   3.190
 7535TIP3    H222570   3.680   5.670   3.161
 7536TIP3   OH222571   1.760   4.838   1.286
 7536TIP3    H122572   1.798   4.896   1.352
 7536TIP3    H222573   1.667   4.833   1.309
 7537TIP3   OH222574   2.915   6.632   5.303
 7537TIP3    H122575   3.005   6.664   5.307
 7537TIP3    H222576   2.900   6.613   5.211
 7538TIP3   OH222577   7.034   6.835   3.770
 7538TIP3    H122578   6.949   6.830   3.813
 7538TIP3    H222579   7.039   6.757   3.715
 7539TIP3   OH222580   4.099   3.965   5.683
 7539TIP3    H122581   4.081   4.058   5.698
 7539TIP3    H222582   4.029   3.936   5.624
 7540TIP3   OH222583   5.959   1.311   1.111
 7540TIP3    H122584   5.979   1.222   1.083
 7540TIP3    H222585   5.997   1.367   1.042
 7541TIP3   OH222586   0.655   5.089   0.521
 7541TIP3    H122587   0.665   5.145   0.598
 7541TIP3    H222588   0.561   5.092   0.502
 7542TIP3   OH222589   2.154   2.423   3.283
 7542TIP3    H122590   2.171   2.358   3.216
 7542TIP3    H222591   2.060   2.442   3.274
 7543TIP3   OH222592   4.977   4.284   2.551
 7543TIP3    H122593   5.025   4.205   2.573
 7543TIP3    H222594   4.891   4.272   2.591
 7544TIP3   OH222595   6.247   3.109   4.165
 7544TIP3    H122596   6.323   3.110   4.223
 7544TIP3    H222597   6.207   3.195   4.176
 7545TIP3   OH222598   4.426   1.528   4.532
 7545TIP3    H122599   4.464   1.614   4.516
 7545TIP3    H222600   4.350   1.544   4.587
 7546TIP3   OH222601   2.416   1.130   3.475
 7546TIP3    H122602   2.411   1.147   3.381
 7546TIP3    H222603   2.340   1.175   3.511
 7547TIP3   OH222604   5.920   6.778   1.908
 7547TIP3    H122605   5.950   6.761   1.819
 7547TIP3    H222606   5.994   6.755   1.964
 7548TIP3   OH222607   5.344   2.104   3.134
 7548TIP3    H122608   5.338   2.148   3.049
 7548TIP3    H222609   5.270   2.138   3.184
 7549TIP3   OH222610   0.962   4.269   4.170
 7549TIP3    H122611   1.049   4.280   4.208
 7549TIP3    H222612   0.916   4.212   4.231
 7550TIP3   OH222613   3.772   0.405   5.490
 7550TIP3    H122614   3.826   0.466   5.441
 7550TIP3    H222615   3.795   0.319   5.454
 7551TIP3   OH222616   4.966   0.849   0.761
 7551TIP3    H122617   5.045   0.796   0.755
 7551TIP3    H222618   4.976   0.916   0.694
 7552TIP3   OH222619   5.272   4.247   0.213
 7552TIP3    H122620   5.191   4.284   0.249
 7552TIP3    H222621   5.342   4.295   0.258
 7553TIP3   OH222622   0.051   0.883   2.467
 7553TIP3    H122623   0.028   0.811   2.408
 7553TIP3    H222624   0.143   0.866   2.489
 7554TIP3   OH222625   5.680   3.309   4.807
 7554TIP3    H122626   5.739   3.348   4.872
 7554TIP3    H222627   5.626   3.248   4.857
 7555TIP3   OH222628   3.766   5.382   0.597
 7555TIP3    H122629   3.812   5.304   0.567
 7555TIP3    H222630   3.835   5.438   0.633
 7556TIP3   OH222631   0.006   1.769   2.514
 7556TIP3    H122632   0.092   1.798   2.483
 7556TIP3    H222633   0.016   1.675   2.529
 7557TIP3   OH222634   2.654   1.804   5.215
 7557TIP3    H122635   2.588   1.842   5.156
 7557TIP3    H222636   2.734   1.851   5.194
 7558TIP3   OH222637   5.283   5.013   4.366
 7558TIP3    H122638   5.320   4.939   4.318
 7558TIP3    H222639   5.205   5.037   4.315
 7559TIP3   OH222640   2.222   0.060   4.772
 7559TIP3    H122641   2.146   0.103   4.811
 7559TIP3    H222642   2.246  -0.007   4.836
 7560TIP3   OH222643   1.218   5.447   5.809
 7560TIP3    H122644   1.184   5.457   5.720
 7560TIP3    H222645   1.303   5.490   5.807
 7561TIP3   OH222646   3.242   2.323   2.223
 7561TIP3    H122647   3.260   2.235   2.191
 7561TIP3    H222648   3.156   2.317   2.265
 7562TIP3   OH222649   3.669   6.462   5.246
 7562TIP3    H122650   3.719   6.534   5.208
 7562TIP3    H222651   3.619   6.425   5.173
 7563TIP3   OH222652   2.213   4.618   2.902
 7563TIP3    H122653   2.277   4.563   2.857
 7563TIP3    H222654   2.219   4.703   2.858
 7564TIP3   OH222655   2.818   5.375   2.566
 7564TIP3    H122656   2.793   5.414   2.650
 7564TIP3    H222657   2.912   5.359   2.575
 7565TIP3   OH222658   3.218   1.079   5.854
 7565TIP3    H122659   3.244   1.126   5.933
 7565TIP3    H222660   3.131   1.113   5.833
 7566TIP3   OH222661   0.318   2.776   3.893
 7566TIP3    H122662   0.225   2.787   3.872
 7566TIP3    H222663   0.345   2.861   3.928
 7567TIP3   OH222664   7.042   4.978   2.871
 7567TIP3    H122665   7.123   5.029   2.871
 7567TIP3    H222666   7.006   4.990   2.783
 7568TIP3   OH222667   1.085   2.715   5.393
 7568TIP3    H122668   1.089   2.640   5.452
 7568TIP3    H222669   0.991   2.731   5.380
 7569TIP3   OH222670   6.928   0.470   2.887
 7569TIP3    H122671   6.903   0.454   2.978
 7569TIP3    H222672   7.019   0.497   2.892
 7570TIP3   OH222673   1.446   1.073   1.752
 7570TIP3    H122674   1.366   1.066   1.803
 7570TIP3    H222675   1.418   1.104   1.666
 7571TIP3   OH222676   6.528   1.274   0.154
 7571TIP3    H122677   6.607   1.235   0.192
 7571TIP3    H222678   6.504   1.344   0.215
 7572TIP3   OH222679   4.682   6.091   4.434
 7572TIP3    H122680   4.696   6.072   4.341
 7572TIP3    H222681   4.663   6.185   4.437
 7573TIP3   OH222682   1.609   4.435   5.001
 7573TIP3    H122683   1.585   4.515   5.047
 7573TIP3    H222684   1.628   4.463   4.911
 7574TIP3   OH222685   6.390   3.926   4.093
 7574TIP3    H122686   6.466   3.898   4.042
 7574TIP3    H222687   6.379   4.019   4.069
 7575TIP3   OH222688   3.779   5.983   3.204
 7575TIP3    H122689   3.731   6.018   3.128
 7575TIP3    H222690   3.749   6.037   3.277
 7576TIP3   OH222691   2.225   0.605   3.191
 7576TIP3    H122692   2.134   0.632   3.206
 7576TIP3    H222693   2.235   0.526   3.244
 7577TIP3   OH222694   3.242   3.150   1.538
 7577TIP3    H122695   3.218   3.058   1.524
 7577TIP3    H222696   3.255   3.185   1.449
 7578TIP3   OH222697   4.034   6.281   0.437
 7578TIP3    H122698   4.005   6.255   0.349
 7578TIP3    H222699   3.966   6.250   0.496
 7579TIP3   OH222700   0.521   5.896   2.108
 7579TIP3    H122701   0.479   5.893   2.194
 7579TIP3    H222702   0.547   5.806   2.091
 7580TIP3   OH222703   1.620   2.014   1.954
 7580TIP3    H122704   1.702   1.969   1.974
 7580TIP3    H222705   1.596   1.981   1.867
 7581TIP3   OH222706   1.889   3.141   4.334
 7581TIP3    H122707   1.948   3.140   4.409
 7581TIP3    H222708   1.903   3.227   4.294
 7582TIP3   OH222709   0.591   4.960   0.911
 7582TIP3    H122710   0.686   4.953   0.919
 7582TIP3    H222711   0.566   4.883   0.860
 7583TIP3   OH222712   6.039   3.207   3.474
 7583TIP3    H122713   6.124   3.171   3.498
 7583TIP3    H222714   6.011   3.256   3.551
 7584TIP3   OH222715   4.669   5.091   2.245
 7584TIP3    H122716   4.722   5.047   2.179
 7584TIP3    H222717   4.701   5.181   2.246
 7585TIP3   OH222718   0.298   5.386   2.309
 7585TIP3    H122719   0.246   5.443   2.366
 7585TIP3    H222720   0.259   5.299   2.321
 7586TIP3   OH222721   6.610   1.094   1.247
 7586TIP3    H122722   6.572   1.158   1.187
 7586TIP3    H222723   6.597   1.132   1.334
 7587TIP3   OH222724   2.729   3.649   0.824
 7587TIP3    H122725   2.653   3.635   0.879
 7587TIP3    H222726   2.804   3.638   0.882
 7588TIP3   OH222727   0.513   4.096   5.169
 7588TIP3    H122728   0.508   4.166   5.104
 7588TIP3    H222729   0.434   4.107   5.222
 7589TIP3   OH222730   6.807   3.427   5.735
 7589TIP3    H122731   6.848   3.340   5.736
 7589TIP3    H222732   6.753   3.427   5.656
 7590TIP3   OH222733   2.285   1.284   3.245
 7590TIP3    H122734   2.373   1.288   3.207
 7590TIP3    H222735   2.256   1.375   3.245
 7591TIP3   OH222736   3.004   0.945   2.453
 7591TIP3    H122737   3.041   1.012   2.395
 7591TIP3    H222738   3.032   0.971   2.540
 7592TIP3   OH222739   2.538   5.128   5.084
 7592TIP3    H122740   2.448   5.140   5.055
 7592TIP3    H222741   2.561   5.211   5.126
 7593TIP3   OH222742   2.658   0.815   3.108
 7593TIP3    H122743   2.655   0.839   3.200
 7593TIP3    H222744   2.579   0.763   3.093
 7594TIP3   OH222745   5.795   0.999   5.849
 7594TIP3    H122746   5.795   1.060   5.775
 7594TIP3    H222747   5.868   0.940   5.832
 7595TIP3   OH222748   4.618   4.101   0.865
 7595TIP3    H122749   4.623   4.131   0.774
 7595TIP3    H222750   4.657   4.014   0.864
 7596TIP3   OH222751   3.218   0.223   4.685
 7596TIP3    H122752   3.156   0.190   4.751
 7596TIP3    H222753   3.282   0.274   4.736
 7597TIP3   OH222754   5.149   3.270   0.977
 7597TIP3    H122755   5.217   3.255   1.042
 7597TIP3    H222756   5.191   3.249   0.894
 7598TIP3   OH222757   3.425   4.196   0.344
 7598TIP3    H122758   3.408   4.176   0.436
 7598TIP3    H222759   3.467   4.117   0.310
 7599TIP3   OH222760   1.628   2.749   1.936
 7599TIP3    H122761   1.682   2.761   2.014
 7599TIP3    H222762   1.632   2.834   1.891
 7600TIP3   OH222763   4.801   2.507   4.037
 7600TIP3    H122764   4.884   2.474   4.002
 7600TIP3    H222765   4.750   2.429   4.055
 7601TIP3   OH222766   5.774   5.904   1.771
 7601TIP3    H122767   5.750   5.872   1.684
 7601TIP3    H222768   5.728   5.988   1.779
 7602TIP3   OH222769   7.125   5.164   5.591
 7602TIP3    H122770   7.209   5.155   5.635
 7602TIP3    H222771   7.065   5.110   5.643
 7603TIP3   OH222772   0.795   5.339   0.401
 7603TIP3    H122773   0.741   5.412   0.371
 7603TIP3    H222774   0.734   5.278   0.442
 7604TIP3   OH222775   0.621   0.883   0.892
 7604TIP3    H122776   0.573   0.943   0.949
 7604TIP3    H222777   0.558   0.858   0.825
 7605TIP3   OH222778   3.611   2.750   5.003
 7605TIP3    H122779   3.599   2.841   5.029
 7605TIP3    H222780   3.666   2.712   5.072
 7606TIP3   OH222781   2.162   5.496   0.858
 7606TIP3    H122782   2.088   5.555   0.840
 7606TIP3    H222783   2.138   5.415   0.813
 7607TIP3   OH222784   6.505   5.255   2.631
 7607TIP3    H122785   6.574   5.320   2.617
 7607TIP3    H222786   6.512   5.196   2.556
 7608TIP3   OH222787   4.630   4.732   3.222
 7608TIP3    H122788   4.708   4.778   3.252
 7608TIP3    H222789   4.560   4.759   3.282
 7609TIP3   OH222790   0.141   5.535   2.494
 7609TIP3    H122791   0.054   5.499   2.508
 7609TIP3    H222792   0.127   5.616   2.445
 7610TIP3   OH222793   6.134   2.601   2.709
 7610TIP3    H122794   6.217   2.554   2.701
 7610TIP3    H222795   6.081   2.547   2.767
 7611TIP3   OH222796   1.459   0.983   3.630
 7611TIP3    H122797   1.397   1.042   3.588
 7611TIP3    H222798   1.406   0.910   3.662
 7612TIP3   OH222799   5.088   5.255   3.964
 7612TIP3    H122800   5.142   5.178   3.980
 7612TIP3    H222801   5.008   5.239   4.016
 7613TIP3   OH222802   3.747   0.744   0.860
 7613TIP3    H122803   3.756   0.799   0.938
 7613TIP3    H222804   3.696   0.798   0.799
 7614TIP3   OH222805   3.150   6.036   0.626
 7614TIP3    H122806   3.138   5.991   0.710
 7614TIP3    H222807   3.238   6.072   0.630
 7615TIP3   OH222808   6.642   0.950   3.837
 7615TIP3    H122809   6.697   0.976   3.911
 7615TIP3    H222810   6.579   0.888   3.874
 7616TIP3   OH222811   3.256   0.136   2.697
 7616TIP3    H122812   3.297   0.116   2.781
 7616TIP3    H222813   3.291   0.221   2.673
 7617TIP3   OH222814   5.355   4.102   3.372
 7617TIP3    H122815   5.272   4.096   3.326
 7617TIP3    H222816   5.387   4.012   3.376
 7618TIP3   OH222817   1.369   5.924   5.880
 7618TIP3    H122818   1.459   5.949   5.902
 7618TIP3    H222819   1.356   5.960   5.792
 7619TIP3   OH222820   7.032   2.137   4.837
 7619TIP3    H122821   6.956   2.082   4.858
 7619TIP3    H222822   7.104   2.075   4.828
 7620TIP3   OH222823   2.931   5.708   4.371
 7620TIP3    H122824   3.007   5.764   4.354
 7620TIP3    H222825   2.899   5.685   4.284
 7621TIP3   OH222826   5.740   4.397   0.444
 7621TIP3    H122827   5.730   4.488   0.416
 7621TIP3    H222828   5.654   4.373   0.479
 7622TIP3   OH222829   3.725   3.926   1.677
 7622TIP3    H122830   3.668   3.955   1.748
 7622TIP3    H222831   3.673   3.860   1.631
 7623TIP3   OH222832   1.444   2.913   3.127
 7623TIP3    H122833   1.437   2.942   3.036
 7623TIP3    H222834   1.495   2.982   3.170
 7624TIP3   OH222835   3.595   1.824   3.023
 7624TIP3    H122836   3.590   1.845   3.116
 7624TIP3    H222837   3.688   1.818   3.004
 7625TIP3   OH222838   7.215   0.589   0.149
 7625TIP3    H122839   7.178   0.592   0.237
 7625TIP3    H222840   7.178   0.666   0.104
 7626TIP3   OH222841   5.774   5.008   3.360
 7626TIP3    H122842   5.791   4.989   3.268
 7626TIP3    H222843   5.860   5.032   3.396
 7627TIP3   OH222844   6.086   0.116   4.926
 7627TIP3    H122845   6.131   0.132   5.009
 7627TIP3    H222846   5.994   0.131   4.947
 7628TIP3   OH222847   3.326   1.097   2.024
 7628TIP3    H122848   3.322   1.053   2.109
 7628TIP3    H222849   3.326   1.026   1.960
 7629TIP3   OH222850   2.864   3.220   4.924
 7629TIP3    H122851   2.841   3.310   4.900
 7629TIP3    H222852   2.908   3.228   5.009
 7630TIP3   OH222853   4.116   3.669   4.230
 7630TIP3    H122854   4.202   3.635   4.207
 7630TIP3    H222855   4.113   3.663   4.326
 7631TIP3   OH222856   5.917   0.402   2.166
 7631TIP3    H122857   5.899   0.434   2.254
 7631TIP3    H222858   5.869   0.320   2.160
 7632TIP3   OH222859   4.452   0.462   1.263
 7632TIP3    H122860   4.397   0.389   1.292
 7632TIP3    H222861   4.419   0.538   1.312
 7633TIP3   OH222862   4.481   5.592   1.708
 7633TIP3    H122863   4.439   5.650   1.771
 7633TIP3    H222864   4.476   5.505   1.749
 7634TIP3   OH222865   3.425   4.002   0.808
 7634TIP3    H122866   3.377   3.924   0.779
 7634TIP3    H222867   3.472   3.974   0.887
 7635TIP3   OH222868   0.414   1.721   5.550
 7635TIP3    H122869   0.338   1.761   5.507
 7635TIP3    H222870   0.489   1.768   5.514
 7636TIP3   OH222871   5.371   0.919   0.191
 7636TIP3    H122872   5.404   0.904   0.279
 7636TIP3    H222873   5.278   0.896   0.195
 7637TIP3   OH222874   7.088   5.031   5.344
 7637TIP3    H122875   7.047   4.945   5.359
 7637TIP3    H222876   7.109   5.063   5.432
 7638TIP3   OH222877   3.202   4.504   2.922
 7638TIP3    H122878   3.209   4.502   2.827
 7638TIP3    H222879   3.147   4.580   2.941
 7639TIP3   OH222880   2.289   2.014   2.345
 7639TIP3    H122881   2.195   2.027   2.337
 7639TIP3    H222882   2.322   2.098   2.378
 7640TIP3   OH222883   4.300   0.085   3.792
 7640TIP3    H122884   4.233   0.030   3.752
 7640TIP3    H222885   4.314   0.155   3.728
 7641TIP3   OH222886   3.983   4.932   1.120
 7641TIP3    H122887   4.069   4.950   1.081
 7641TIP3    H222888   3.992   4.843   1.156
 7642TIP3   OH222889   5.451   1.681   0.078
 7642TIP3    H122890   5.462   1.605   0.020
 7642TIP3    H222891   5.472   1.648   0.165
 7643TIP3   OH222892   0.043   5.373   0.991
 7643TIP3    H122893   0.007   5.318   0.922
 7643TIP3    H222894   0.009   5.335   1.072
 7644TIP3   OH222895   4.698   6.608   4.907
 7644TIP3    H122896   4.633   6.541   4.929
 7644TIP3    H222897   4.672   6.684   4.960
 7645TIP3   OH222898   0.507   5.790   3.802
 7645TIP3    H122899   0.477   5.825   3.718
 7645TIP3    H222900   0.515   5.868   3.858
 7646TIP3   OH222901   0.019   5.866   4.247
 7646TIP3    H122902   0.072   5.895   4.173
 7646TIP3    H222903   0.049   5.920   4.320
 7647TIP3   OH222904   1.612   4.488   4.750
 7647TIP3    H122905   1.541   4.441   4.706
 7647TIP3    H222906   1.618   4.571   4.702
 7648TIP3   OH222907   0.865   1.022   4.527
 7648TIP3    H122908   0.822   1.093   4.480
 7648TIP3    H222909   0.959   1.036   4.510
 7649TIP3   OH222910   1.553   0.049   3.583
 7649TIP3    H122911   1.634   0.002   3.563
 7649TIP3    H222912   1.573   0.101   3.660
 7650TIP3   OH222913   3.070   0.650   5.852
 7650TIP3    H122914   3.037   0.733   5.817
 7650TIP3    H222915   3.165   0.660   5.853
 7651TIP3   OH222916   4.382   4.411   4.357
 7651TIP3    H122917   4.460   4.400   4.412
 7651TIP3    H222918   4.309   4.415   4.419
 7652TIP3   OH222919   2.860   2.646   2.929
 7652TIP3    H122920   2.955   2.651   2.939
 7652TIP3    H222921   2.847   2.608   2.843
 7653TIP3   OH222922   5.903   3.214   4.341
 7653TIP3    H122923   5.992   3.243   4.363
 7653TIP3    H222924   5.860   3.205   4.426
 7654TIP3   OH222925   5.977   1.422   3.835
 7654TIP3    H122926   5.979   1.406   3.740
 7654TIP3    H222927   5.944   1.512   3.842
 7655TIP3   OH222928   4.602   6.284   1.291
 7655TIP3    H122929   4.536   6.277   1.360
 7655TIP3    H222930   4.659   6.208   1.305
 7656TIP3   OH222931   0.997   5.124   4.857
 7656TIP3    H122932   0.929   5.165   4.803
 7656TIP3    H222933   0.996   5.032   4.831
 7657TIP3   OH222934   2.698   1.118   1.346
 7657TIP3    H122935   2.696   1.064   1.267
 7657TIP3    H222936   2.631   1.185   1.331
 7658TIP3   OH222937   1.356   0.853   0.211
 7658TIP3    H122938   1.290   0.811   0.156
 7658TIP3    H222939   1.307   0.886   0.286
 7659TIP3   OH222940   4.920   0.881   2.727
 7659TIP3    H122941   4.862   0.805   2.722
 7659TIP3    H222942   4.995   0.849   2.778
 7660TIP3   OH222943   4.760   4.393   0.040
 7660TIP3    H122944   4.684   4.339   0.064
 7660TIP3    H222945   4.759   4.394  -0.056
 7661TIP3   OH222946   0.006   1.299   0.858
 7661TIP3    H122947   0.036   1.273   0.945
 7661TIP3    H222948   0.085   1.302   0.805
 7662TIP3   OH222949   0.892   1.410   2.451
 7662TIP3    H122950   0.961   1.390   2.388
 7662TIP3    H222951   0.855   1.493   2.419
 7663TIP3   OH222952   0.691   6.325   2.083
 7663TIP3    H122953   0.708   6.239   2.122
 7663TIP3    H222954   0.595   6.332   2.083
 7664TIP3   OH222955   2.865   3.464   4.226
 7664TIP3    H122956   2.878   3.496   4.137
 7664TIP3    H222957   2.909   3.379   4.227
 7665TIP3   OH222958   3.145   2.694   0.810
 7665TIP3    H122959   3.130   2.637   0.885
 7665TIP3    H222960   3.176   2.776   0.849
 7666TIP3   OH222961   5.248   1.118   4.089
 7666TIP3    H122962   5.306   1.080   4.024
 7666TIP3    H222963   5.165   1.072   4.077
 7667TIP3   OH222964   4.449   1.598   1.400
 7667TIP3    H122965   4.457   1.513   1.444
 7667TIP3    H222966   4.511   1.655   1.447
 7668TIP3   OH222967   4.677   1.466   1.684
 7668TIP3    H122968   4.623   1.424   1.617
 7668TIP3    H222969   4.697   1.396   1.746
 7669TIP3   OH222970   3.588   4.808  -0.025
 7669TIP3    H122971   3.599   4.876   0.042
 7669TIP3    H222972   3.613   4.727   0.019
 7670TIP3   OH222973   2.647   3.080   3.937
 7670TIP3    H122974   2.677   3.015   3.874
 7670TIP3    H222975   2.656   3.036   4.022
 7671TIP3   OH222976   3.868   4.422   5.255
 7671TIP3    H122977   3.891   4.458   5.341
 7671TIP3    H222978   3.948   4.428   5.204
 7672TIP3   OH222979   0.835   4.281   1.356
 7672TIP3    H122980   0.802   4.315   1.439
 7672TIP3    H222981   0.931   4.284   1.366
 7673TIP3   OH222982   3.205   3.156   1.793
 7673TIP3    H122983   3.242   3.132   1.708
 7673TIP3    H222984   3.164   3.241   1.777
 7674TIP3   OH222985   1.910   6.086   3.180
 7674TIP3    H122986   1.875   6.137   3.252
 7674TIP3    H222987   1.951   6.151   3.122
 7675TIP3   OH222988   6.817   3.006   2.630
 7675TIP3    H122989   6.846   2.982   2.542
 7675TIP3    H222990   6.728   2.971   2.636
 7676TIP3   OH222991   5.372   5.351   1.134
 7676TIP3    H122992   5.463   5.332   1.112
 7676TIP3    H222993   5.336   5.267   1.162
 7677TIP3   OH222994   3.991   1.208   5.072
 7677TIP3    H122995   3.927   1.274   5.097
 7677TIP3    H222996   3.940   1.131   5.048
 7678TIP3   OH222997   3.539   4.668   3.432
 7678TIP3    H122998   3.584   4.584   3.439
 7678TIP3    H222999   3.504   4.670   3.343
 7679TIP3   OH223000   6.164   1.753   0.699
 7679TIP3    H123001   6.227   1.702   0.749
 7679TIP3    H223002   6.182   1.844   0.724
 7680TIP3   OH223003   6.725   0.246   2.446
 7680TIP3    H123004   6.783   0.187   2.494
 7680TIP3    H223005   6.638   0.206   2.457
 7681TIP3   OH223006   1.509   3.640   2.647
 7681TIP3    H123007   1.426   3.642   2.694
 7681TIP3    H223008   1.545   3.553   2.665
 7682TIP3   OH223009   4.147   1.587   4.627
 7682TIP3    H123010   4.103   1.513   4.586
 7682TIP3    H223011   4.154   1.562   4.720
 7683TIP3   OH223012   3.070   6.665   2.627
 7683TIP3    H123013   3.156   6.635   2.596
 7683TIP3    H223014   3.029   6.703   2.549
 7684TIP3   OH223015   2.976   1.944   3.371
 7684TIP3    H123016   2.940   2.028   3.398
 7684TIP3    H223017   3.049   1.928   3.430
 7685TIP3   OH223018   3.654   6.147   4.411
 7685TIP3    H123019   3.697   6.223   4.373
 7685TIP3    H223020   3.721   6.106   4.465
 7686TIP3   OH223021   3.817   0.253   4.600
 7686TIP3    H123022   3.876   0.206   4.540
 7686TIP3    H223023   3.731   0.248   4.559
 7687TIP3   OH223024   5.525   4.796   0.653
 7687TIP3    H123025   5.539   4.888   0.674
 7687TIP3    H223026   5.559   4.748   0.729
 7688TIP3   OH223027   1.803   5.221   0.221
 7688TIP3    H123028   1.778   5.161   0.291
 7688TIP3    H223029   1.813   5.306   0.264
 7689TIP3   OH223030   0.830   1.809   1.185
 7689TIP3    H123031   0.768   1.769   1.124
 7689TIP3    H223032   0.826   1.903   1.165
 7690TIP3   OH223033   0.950   6.149   2.721
 7690TIP3    H123034   0.999   6.231   2.715
 7690TIP3    H223035   0.945   6.130   2.814
 7691TIP3   OH223036   3.040   2.881   2.880
 7691TIP3    H123037   3.075   2.792   2.875
 7691TIP3    H223038   3.108   2.931   2.926
 7692TIP3   OH223039   4.905   4.699   0.863
 7692TIP3    H123040   4.979   4.754   0.837
 7692TIP3    H223041   4.883   4.650   0.784
 7693TIP3   OH223042   0.999   2.076   1.325
 7693TIP3    H123043   0.993   2.138   1.398
 7693TIP3    H223044   1.080   2.029   1.340
 7694TIP3   OH223045   6.291   3.797   2.376
 7694TIP3    H123046   6.378   3.828   2.351
 7694TIP3    H223047   6.299   3.702   2.378
 7695TIP3   OH223048   3.773   1.951   1.013
 7695TIP3    H123049   3.754   1.948   1.107
 7695TIP3    H223050   3.853   1.900   1.003
 7696TIP3   OH223051   5.803   0.733   2.001
 7696TIP3    H123052   5.836   0.736   2.091
 7696TIP3    H223053   5.867   0.680   1.954
 7697TIP3   OH223054   5.604   2.322   1.059
 7697TIP3    H123055   5.606   2.237   1.101
 7697TIP3    H223056   5.518   2.359   1.081
 7698TIP3   OH223057   3.516   4.276   1.127
 7698TIP3    H123058   3.574   4.219   1.177
 7698TIP3    H223059   3.454   4.310   1.192
 7699TIP3   OH223060   4.516   3.022   4.961
 7699TIP3    H123061   4.438   3.077   4.963
 7699TIP3    H223062   4.535   3.003   5.053
 7700TIP3   OH223063   6.561   6.402   4.843
 7700TIP3    H123064   6.624   6.421   4.773
 7700TIP3    H223065   6.598   6.326   4.888
 7701TIP3   OH223066   3.618   3.095   3.089
 7701TIP3    H123067   3.572   3.176   3.068
 7701TIP3    H223068   3.602   3.081   3.182
 7702TIP3   OH223069   2.820   1.839   2.496
 7702TIP3    H123070   2.890   1.774   2.489
 7702TIP3    H223071   2.866   1.924   2.493
 7703TIP3   OH223072   4.709   3.539   1.176
 7703TIP3    H123073   4.655   3.520   1.253
 7703TIP3    H223074   4.691   3.467   1.116
 7704TIP3   OH223075   0.906   4.813   4.122
 7704TIP3    H123076   0.891   4.721   4.099
 7704TIP3    H223077   0.959   4.847   4.051
 7705TIP3   OH223078   2.532   5.400   1.683
 7705TIP3    H123079   2.604   5.462   1.695
 7705TIP3    H223080   2.484   5.433   1.607
 7706TIP3   OH223081   6.123   4.456   0.669
 7706TIP3    H123082   6.060   4.527   0.680
 7706TIP3    H223083   6.113   4.429   0.578
 7707TIP3   OH223084   5.477   2.539   2.059
 7707TIP3    H123085   5.431   2.466   2.101
 7707TIP3    H223086   5.506   2.504   1.975
 7708TIP3   OH223087   3.757   3.212   4.111
 7708TIP3    H123088   3.775   3.298   4.148
 7708TIP3    H223089   3.665   3.214   4.086
 7709TIP3   OH223090   4.685   0.913   2.503
 7709TIP3    H123091   4.693   0.983   2.438
 7709TIP3    H223092   4.723   0.836   2.460
 7710TIP3   OH223093   4.085   6.269   4.323
 7710TIP3    H123094   4.052   6.180   4.312
 7710TIP3    H223095   4.119   6.293   4.237
 7711TIP3   OH223096   6.516   2.502   1.594
 7711TIP3    H123097   6.458   2.523   1.667
 7711TIP3    H223098   6.458   2.463   1.529
 7712TIP3   OH223099   4.564   0.815   2.904
 7712TIP3    H123100   4.477   0.848   2.926
 7712TIP3    H223101   4.623   0.869   2.956
 7713TIP3   OH223102   6.126   4.282   3.885
 7713TIP3    H123103   6.151   4.374   3.896
 7713TIP3    H223104   6.103   4.274   3.793
 7714TIP3   OH223105   4.292   0.787   4.612
 7714TIP3    H123106   4.273   0.874   4.577
 7714TIP3    H223107   4.250   0.727   4.551
 7715TIP3   OH223108   0.698   1.844   5.835
 7715TIP3    H123109   0.638   1.785   5.880
 7715TIP3    H223110   0.761   1.785   5.792
 7716TIP3   OH223111   3.155   2.838   3.213
 7716TIP3    H123112   3.216   2.873   3.148
 7716TIP3    H223113   3.123   2.756   3.175
 7717TIP3   OH223114   5.709   5.266   1.484
 7717TIP3    H123115   5.623   5.268   1.526
 7717TIP3    H223116   5.690   5.267   1.391
 7718TIP3   OH223117   3.616   2.001   1.832
 7718TIP3    H123118   3.584   1.930   1.887
 7718TIP3    H223119   3.539   2.032   1.785
 7719TIP3   OH223120   2.941   3.853   1.677
 7719TIP3    H123121   3.003   3.800   1.626
 7719TIP3    H223122   2.941   3.939   1.633
 7720TIP3   OH223123   3.784   2.076   5.544
 7720TIP3    H123124   3.699   2.077   5.588
 7720TIP3    H223125   3.778   2.145   5.478
 7721TIP3   OH223126   3.449   2.391   5.118
 7721TIP3    H123127   3.471   2.468   5.170
 7721TIP3    H223128   3.355   2.398   5.102
 7722TIP3   OH223129   3.234   1.474   2.725
 7722TIP3    H123130   3.209   1.553   2.678
 7722TIP3    H223131   3.288   1.504   2.798
 7723TIP3   OH223132   0.893   2.201   1.565
 7723TIP3    H123133   0.945   2.144   1.621
 7723TIP3    H223134   0.863   2.271   1.622
 7724TIP3   OH223135   1.150   6.130   4.125
 7724TIP3    H123136   1.194   6.188   4.186
 7724TIP3    H223137   1.212   6.058   4.110
 7725TIP3   OH223138   4.551   0.379   4.011
 7725TIP3    H123139   4.553   0.407   3.920
 7725TIP3    H223140   4.512   0.453   4.058
 7726TIP3   OH223141   2.569   4.791   0.337
 7726TIP3    H123142   2.546   4.773   0.245
 7726TIP3    H223143   2.665   4.786   0.338
 7727TIP3   OH223144   5.470   0.637   3.115
 7727TIP3    H123145   5.507   0.717   3.079
 7727TIP3    H223146   5.502   0.568   3.057
 7728TIP3   OH223147   4.614   3.686   0.125
 7728TIP3    H123148   4.606   3.596   0.158
 7728TIP3    H223149   4.551   3.736   0.177
 7729TIP3   OH223150   2.970   6.097   4.368
 7729TIP3    H123151   3.035   6.047   4.418
 7729TIP3    H223152   2.967   6.054   4.283
 7730TIP3   OH223153   6.878   3.998   0.305
 7730TIP3    H123154   6.963   3.971   0.270
 7730TIP3    H223155   6.894   4.009   0.399
 7731TIP3   OH223156   4.572   5.234   0.914
 7731TIP3    H123157   4.662   5.262   0.899
 7731TIP3    H223158   4.527   5.254   0.832
 7732TIP3   OH223159   0.724   2.895   5.635
 7732TIP3    H123160   0.758   2.806   5.647
 7732TIP3    H223161   0.760   2.944   5.709
 7733TIP3   OH223162   4.538   3.724   2.913
 7733TIP3    H123163   4.534   3.673   2.994
 7733TIP3    H223164   4.481   3.676   2.853
 7734TIP3   OH223165   4.894   0.298   0.853
 7734TIP3    H123166   4.970   0.328   0.804
 7734TIP3    H223167   4.856   0.378   0.890
 7735TIP3   OH223168   3.948   3.412   1.663
 7735TIP3    H123169   3.914   3.500   1.647
 7735TIP3    H223170   4.043   3.425   1.672
 7736TIP3   OH223171   2.656   2.459   0.689
 7736TIP3    H123172   2.609   2.409   0.622
 7736TIP3    H223173   2.608   2.542   0.695
 7737TIP3   OH223174   3.207   2.683   5.378
 7737TIP3    H123175   3.181   2.752   5.318
 7737TIP3    H223176   3.144   2.612   5.362
 7738TIP3   OH223177   5.301   4.189   0.549
 7738TIP3    H123178   5.220   4.236   0.531
 7738TIP3    H223179   5.275   4.121   0.611
 7739TIP3   OH223180   6.141   6.342   3.470
 7739TIP3    H123181   6.235   6.359   3.468
 7739TIP3    H223182   6.129   6.276   3.539
 7740TIP3   OH223183   4.818   6.072   3.707
 7740TIP3    H123184   4.788   6.020   3.781
 7740TIP3    H223185   4.888   6.019   3.668
 7741TIP3   OH223186   2.168   1.329   4.926
 7741TIP3    H123187   2.079   1.348   4.897
 7741TIP3    H223188   2.204   1.413   4.954
 7742TIP3   OH223189   6.538   2.530   1.906
 7742TIP3    H123190   6.564   2.465   1.972
 7742TIP3    H223191   6.611   2.591   1.901
 7743TIP3   OH223192   3.717   1.126   1.391
 7743TIP3    H123193   3.691   1.209   1.352
 7743TIP3    H223194   3.647   1.065   1.368
 7744TIP3   OH223195   6.390   3.814   3.550
 7744TIP3    H123196   6.462   3.866   3.515
 7744TIP3    H223197   6.346   3.872   3.612
 7745TIP3   OH223198   4.296   4.533   5.020
 7745TIP3    H123199   4.325   4.624   5.033
 7745TIP3    H223200   4.299   4.520   4.925
 7746TIP3   OH223201   2.921   0.412   4.389
 7746TIP3    H123202   2.914   0.319   4.371
 7746TIP3    H223203   2.968   0.448   4.313
 7747TIP3   OH223204   1.959   4.854   3.825
 7747TIP3    H123205   2.053   4.840   3.811
 7747TIP3    H223206   1.917   4.781   3.779
 7748TIP3   OH223207   5.470   0.991   0.625
 7748TIP3    H123208   5.467   1.046   0.703
 7748TIP3    H223209   5.509   0.909   0.655
 7749TIP3   OH223210   6.335   0.481   3.594
 7749TIP3    H123211   6.336   0.419   3.666
 7749TIP3    H223212   6.421   0.472   3.554
 7750TIP3   OH223213   3.670   5.273   2.028
 7750TIP3    H123214   3.648   5.180   2.028
 7750TIP3    H223215   3.763   5.276   2.049
 7751TIP3   OH223216   1.722   1.615   2.595
 7751TIP3    H123217   1.786   1.577   2.655
 7751TIP3    H223218   1.767   1.691   2.558
 7752TIP3   OH223219   6.918   2.928   5.038
 7752TIP3    H123220   6.885   3.018   5.037
 7752TIP3    H223221   6.921   2.904   5.131
 7753TIP3   OH223222   2.230   4.798   3.775
 7753TIP3    H123223   2.261   4.763   3.692
 7753TIP3    H223224   2.270   4.741   3.841
 7754TIP3   OH223225   4.384   1.277   0.227
 7754TIP3    H123226   4.478   1.259   0.235
 7754TIP3    H223227   4.359   1.314   0.312
 7755TIP3   OH223228   6.632   0.362   2.201
 7755TIP3    H123229   6.557   0.407   2.241
 7755TIP3    H223230   6.668   0.308   2.272
 7756TIP3   OH223231   2.667   6.604   2.852
 7756TIP3    H123232   2.735   6.538   2.846
 7756TIP3    H223233   2.615   6.594   2.772
 7757TIP3   OH223234   1.885   0.339   3.892
 7757TIP3    H123235   1.791   0.356   3.892
 7757TIP3    H223236   1.893   0.248   3.917
 7758TIP3   OH223237   4.104   5.833   3.382
 7758TIP3    H123238   4.040   5.779   3.428
 7758TIP3    H223239   4.104   5.800   3.292
 7759TIP3   OH223240   7.039   1.352   2.504
 7759TIP3    H123241   6.972   1.284   2.512
 7759TIP3    H223242   6.994   1.423   2.458
 7760TIP3   OH223243   5.080   0.612   0.551
 7760TIP3    H123244   5.152   0.672   0.571
 7760TIP3    H223245   5.117   0.525   0.566
 7761TIP3   OH223246   1.359   6.226   5.042
 7761TIP3    H123247   1.444   6.203   5.005
 7761TIP3    H223248   1.368   6.317   5.069
 7762TIP3   OH223249   6.143   2.529   0.316
 7762TIP3    H123250   6.170   2.535   0.408
 7762TIP3    H223251   6.089   2.450   0.313
 7763TIP3   OH223252   4.760   5.241   3.700
 7763TIP3    H123253   4.759   5.311   3.765
 7763TIP3    H223254   4.726   5.282   3.620
 7764TIP3   OH223255   3.599   3.428   4.375
 7764TIP3    H123256   3.587   3.451   4.467
 7764TIP3    H223257   3.577   3.507   4.327
 7765TIP3   OH223258   6.213   0.619   5.914
 7765TIP3    H123259   6.179   0.585   5.831
 7765TIP3    H223260   6.308   0.609   5.906
 7766TIP3   OH223261   5.929   2.384   0.665
 7766TIP3    H123262   5.932   2.363   0.759
 7766TIP3    H223263   5.989   2.457   0.655
 7767TIP3   OH223264   0.076   5.680   3.185
 7767TIP3    H123265   0.061   5.593   3.222
 7767TIP3    H223266   0.152   5.670   3.129
 7768TIP3   OH223267   4.088   4.335   0.257
 7768TIP3    H123268   4.165   4.278   0.263
 7768TIP3    H223269   4.034   4.310   0.332
 7769TIP3   OH223270   6.420   5.255   2.961
 7769TIP3    H123271   6.331   5.286   2.978
 7769TIP3    H223272   6.437   5.191   3.030
 7770TIP3   OH223273   6.117   1.854   0.305
 7770TIP3    H123274   6.167   1.817   0.233
 7770TIP3    H223275   6.137   1.799   0.380
 7771TIP3   OH223276   3.085   4.592   2.490
 7771TIP3    H123277   2.992   4.587   2.468
 7771TIP3    H223278   3.089   4.654   2.562
 7772TIP3   OH223279   1.051   2.947   0.973
 7772TIP3    H123280   1.055   2.912   0.884
 7772TIP3    H223281   0.962   2.980   0.983
 7773TIP3   OH223282   0.338   1.038   4.713
 7773TIP3    H123283   0.351   1.108   4.777
 7773TIP3    H223284   0.248   1.009   4.726
 7774TIP3   OH223285   3.361   3.650   1.246
 7774TIP3    H123286   3.369   3.718   1.313
 7774TIP3    H223287   3.451   3.621   1.232
 7775TIP3   OH223288   7.189   6.784   3.398
 7775TIP3    H123289   7.152   6.697   3.383
 7775TIP3    H223290   7.116   6.835   3.434
 7776TIP3   OH223291   2.206   4.044   3.525
 7776TIP3    H123292   2.155   4.051   3.606
 7776TIP3    H223293   2.206   3.951   3.505
 7777TIP3   OH223294   3.470   0.329   5.348
 7777TIP3    H123295   3.425   0.402   5.389
 7777TIP3    H223296   3.554   0.323   5.394
 7778TIP3   OH223297   0.466   1.939   1.282
 7778TIP3    H123298   0.544   1.965   1.330
 7778TIP3    H223299   0.475   1.981   1.197
 7779TIP3   OH223300   3.170   6.609   0.778
 7779TIP3    H123301   3.238   6.675   0.792
 7779TIP3    H223302   3.091   6.649   0.815
 7780TIP3   OH223303   4.432   5.111   4.094
 7780TIP3    H123304   4.449   5.113   4.189
 7780TIP3    H223305   4.353   5.164   4.083
 7781TIP3   OH223306   7.012   5.892   0.234
 7781TIP3    H123307   7.059   5.862   0.156
 7781TIP3    H223308   6.925   5.852   0.226
 7782TIP3   OH223309   5.202   5.466   2.746
 7782TIP3    H123310   5.193   5.371   2.751
 7782TIP3    H223311   5.113   5.498   2.728
 7783TIP3   OH223312   3.289   3.600   1.627
 7783TIP3    H123313   3.273   3.652   1.705
 7783TIP3    H223314   3.243   3.518   1.643
 7784TIP3   OH223315   0.618   4.089   3.816
 7784TIP3    H123316   0.606   4.164   3.874
 7784TIP3    H223317   0.545   4.031   3.837
 7785TIP3   OH223318   1.464   3.306   0.587
 7785TIP3    H123319   1.401   3.348   0.528
 7785TIP3    H223320   1.510   3.242   0.532
 7786TIP3   OH223321   3.965   2.416   2.902
 7786TIP3    H123322   4.009   2.351   2.957
 7786TIP3    H223323   3.890   2.369   2.864
 7787TIP3   OH223324   0.225   3.944   3.420
 7787TIP3    H123325   0.164   4.018   3.425
 7787TIP3    H223326   0.303   3.975   3.465
 7788TIP3   OH223327   6.282   2.583   1.959
 7788TIP3    H123328   6.372   2.552   1.955
 7788TIP3    H223329   6.264   2.591   2.053
 7789TIP3   OH223330   4.312   6.085   2.741
 7789TIP3    H123331   4.369   6.143   2.791
 7789TIP3    H223332   4.346   5.997   2.757
 7790TIP3   OH223333   5.223   4.125   1.208
 7790TIP3    H123334   5.251   4.170   1.288
 7790TIP3    H223335   5.185   4.194   1.154
 7791TIP3   OH223336   3.807   3.654   1.675
 7791TIP3    H123337   3.787   3.720   1.741
 7791TIP3    H223338   3.735   3.591   1.681
 7792TIP3   OH223339   3.551   3.559   1.571
 7792TIP3    H123340   3.558   3.544   1.476
 7792TIP3    H223341   3.458   3.578   1.585
 7793TIP3   OH223342   1.342   1.817   0.339
 7793TIP3    H123343   1.303   1.845   0.421
 7793TIP3    H223344   1.436   1.812   0.356
 7794TIP3   OH223345   6.454   4.859   1.666
 7794TIP3    H123346   6.401   4.797   1.615
 7794TIP3    H223347   6.541   4.818   1.670
 7795TIP3   OH223348   4.789   3.693   0.601
 7795TIP3    H123349   4.850   3.663   0.533
 7795TIP3    H223350   4.703   3.670   0.568
 7796TIP3   OH223351   4.580   5.883   2.333
 7796TIP3    H123352   4.565   5.975   2.309
 7796TIP3    H223353   4.651   5.887   2.397
 7797TIP3   OH223354   2.826   0.677   4.416
 7797TIP3    H123355   2.854   0.586   4.410
 7797TIP3    H223356   2.907   0.727   4.405
 7798TIP3   OH223357   2.471   5.569   2.307
 7798TIP3    H123358   2.436   5.505   2.245
 7798TIP3    H223359   2.520   5.517   2.371
 7799TIP3   OH223360   6.967   1.440   5.189
 7799TIP3    H123361   6.953   1.355   5.146
 7799TIP3    H223362   6.893   1.493   5.159
 7800TIP3   OH223363   0.161   1.831   0.040
 7800TIP3    H123364   0.147   1.854   0.132
 7800TIP3    H223365   0.111   1.751   0.027
 7801TIP3   OH223366   2.864   2.013   5.649
 7801TIP3    H123367   2.907   1.967   5.577
 7801TIP3    H223368   2.788   2.054   5.609
 7802TIP3   OH223369   3.355   6.253   3.284
 7802TIP3    H123370   3.260   6.257   3.271
 7802TIP3    H223371   3.392   6.297   3.207
 7803TIP3   OH223372   7.141   1.784   5.238
 7803TIP3    H123373   7.050   1.775   5.211
 7803TIP3    H223374   7.138   1.836   5.318
 7804TIP3   OH223375   4.660   0.321   3.382
 7804TIP3    H123376   4.589   0.348   3.440
 7804TIP3    H223377   4.634   0.353   3.295
 7805TIP3   OH223378   2.130   1.823   2.683
 7805TIP3    H123379   2.076   1.825   2.605
 7805TIP3    H223380   2.132   1.730   2.708
 7806TIP3   OH223381   4.996   2.132   2.968
 7806TIP3    H123382   4.957   2.184   2.898
 7806TIP3    H223383   4.947   2.157   3.047
 7807TIP3   OH223384   4.577   6.473   3.368
 7807TIP3    H123385   4.586   6.465   3.273
 7807TIP3    H223386   4.597   6.565   3.387
 7808TIP3   OH223387   2.811   1.866   4.209
 7808TIP3    H123388   2.740   1.929   4.203
 7808TIP3    H223389   2.891   1.919   4.200
 7809TIP3   OH223390   3.784   3.766   4.638
 7809TIP3    H123391   3.708   3.789   4.584
 7809TIP3    H223392   3.858   3.807   4.594
 7810TIP3   OH223393   6.205   3.887   5.089
 7810TIP3    H123394   6.189   3.808   5.037
 7810TIP3    H223395   6.264   3.939   5.034
 7811TIP3   OH223396   5.622   6.795   2.616
 7811TIP3    H123397   5.636   6.716   2.565
 7811TIP3    H223398   5.563   6.769   2.687
 7812TIP3   OH223399   2.902   5.722   0.324
 7812TIP3    H123400   2.953   5.686   0.396
 7812TIP3    H223401   2.852   5.648   0.290
 7813TIP3   OH223402   5.210   6.385   0.962
 7813TIP3    H123403   5.233   6.303   1.006
 7813TIP3    H223404   5.143   6.423   1.019
 7814TIP3   OH223405   4.404   0.148   3.348
 7814TIP3    H123406   4.354   0.067   3.357
 7814TIP3    H223407   4.425   0.154   3.255
 7815TIP3   OH223408   1.210   1.830   0.864
 7815TIP3    H123409   1.142   1.773   0.900
 7815TIP3    H223410   1.286   1.815   0.920
 7816TIP3   OH223411   1.231   5.127   1.624
 7816TIP3    H123412   1.157   5.091   1.673
 7816TIP3    H223413   1.308   5.094   1.670
 7817TIP3   OH223414   3.822   5.734   5.499
 7817TIP3    H123415   3.800   5.803   5.562
 7817TIP3    H223416   3.744   5.727   5.444
 7818TIP3   OH223417   6.682   5.298   4.859
 7818TIP3    H123418   6.765   5.345   4.857
 7818TIP3    H223419   6.616   5.367   4.872
 7819TIP3   OH223420   1.650   5.528   5.377
 7819TIP3    H123421   1.658   5.532   5.472
 7819TIP3    H223422   1.556   5.529   5.360
 7820TIP3   OH223423   2.089   0.515   3.483
 7820TIP3    H123424   2.111   0.604   3.456
 7820TIP3    H223425   2.084   0.520   3.579
 7821TIP3   OH223426   4.485   4.698   3.600
 7821TIP3    H123427   4.500   4.685   3.694
 7821TIP3    H223428   4.440   4.619   3.572
 7822TIP3   OH223429   0.825   0.678   3.223
 7822TIP3    H123430   0.828   0.765   3.263
 7822TIP3    H223431   0.789   0.693   3.136
 7823TIP3   OH223432   7.170   2.769   3.085
 7823TIP3    H123433   7.188   2.775   3.179
 7823TIP3    H223434   7.164   2.675   3.067
 7824TIP3   OH223435   0.411   6.190   4.570
 7824TIP3    H123436   0.418   6.238   4.488
 7824TIP3    H223437   0.481   6.124   4.565
 7825TIP3   OH223438   3.910   5.212   1.837
 7825TIP3    H123439   3.988   5.243   1.791
 7825TIP3    H223440   3.922   5.118   1.844
 7826TIP3   OH223441   3.093   5.710   0.539
 7826TIP3    H123442   3.167   5.770   0.540
 7826TIP3    H223443   3.132   5.625   0.520
 7827TIP3   OH223444   6.691   3.051   4.689
 7827TIP3    H123445   6.628   3.039   4.618
 7827TIP3    H223446   6.744   3.126   4.662
 7828TIP3   OH223447   7.045   4.950   1.692
 7828TIP3    H123448   7.033   4.858   1.717
 7828TIP3    H223449   7.138   4.958   1.673
 7829TIP3   OH223450   7.111   2.237   2.701
 7829TIP3    H123451   7.196   2.242   2.659
 7829TIP3    H223452   7.061   2.309   2.662
 7830TIP3   OH223453   0.090   3.881   2.171
 7830TIP3    H123454   0.118   3.797   2.207
 7830TIP3    H223455   0.098   3.870   2.076
 7831TIP3   OH223456   2.400   3.060   5.535
 7831TIP3    H123457   2.371   3.012   5.457
 7831TIP3    H223458   2.385   3.000   5.607
 7832TIP3   OH223459   3.892   0.944   0.552
 7832TIP3    H123460   3.841   0.895   0.617
 7832TIP3    H223461   3.963   0.984   0.602
 7833TIP3   OH223462   0.244   2.503   2.580
 7833TIP3    H123463   0.321   2.552   2.610
 7833TIP3    H223464   0.189   2.570   2.539
 7834TIP3   OH223465   2.135   0.393   5.644
 7834TIP3    H123466   2.114   0.459   5.710
 7834TIP3    H223467   2.094   0.424   5.564
 7835TIP3   OH223468   2.076   0.414   5.301
 7835TIP3    H123469   2.161   0.441   5.268
 7835TIP3    H223470   2.054   0.335   5.252
 7836TIP3   OH223471  -0.014   0.608   3.893
 7836TIP3    H123472  -0.014   0.513   3.901
 7836TIP3    H223473   0.068   0.628   3.847
 7837TIP3   OH223474   4.167   6.540   0.389
 7837TIP3    H123475   4.117   6.540   0.307
 7837TIP3    H223476   4.132   6.466   0.438
 7838TIP3   OH223477   6.149   1.148   4.603
 7838TIP3    H123478   6.214   1.100   4.550
 7838TIP3    H223479   6.199   1.219   4.643
 7839TIP3   OH223480   4.401   2.090   4.720
 7839TIP3    H123481   4.317   2.076   4.676
 7839TIP3    H223482   4.379   2.137   4.800
 7840TIP3   OH223483   0.740   6.727   1.800
 7840TIP3    H123484   0.830   6.706   1.824
 7840TIP3    H223485   0.687   6.687   1.869
 7841TIP3   OH223486   1.877   2.550   3.085
 7841TIP3    H123487   1.872   2.543   2.989
 7841TIP3    H223488   1.938   2.622   3.100
 7842TIP3   OH223489   2.134   1.501   3.354
 7842TIP3    H123490   2.153   1.594   3.342
 7842TIP3    H223491   2.117   1.492   3.448
 7843TIP3   OH223492   0.994   4.114   3.931
 7843TIP3    H123493   1.086   4.128   3.955
 7843TIP3    H223494   0.945   4.140   4.009
 7844TIP3   OH223495   2.820   0.376   4.978
 7844TIP3    H123496   2.895   0.338   5.024
 7844TIP3    H223497   2.802   0.457   5.025
 7845TIP3   OH223498   3.566   4.182   3.791
 7845TIP3    H123499   3.566   4.174   3.886
 7845TIP3    H223500   3.477   4.211   3.770
 7846TIP3   OH223501   3.314   4.450   2.105
 7846TIP3    H123502   3.278   4.513   2.168
 7846TIP3    H223503   3.244   4.386   2.091
 7847TIP3   OH223504   3.542   1.531   5.445
 7847TIP3    H123505   3.494   1.601   5.400
 7847TIP3    H223506   3.627   1.530   5.403
 7848TIP3   OH223507   3.482   4.756   2.932
 7848TIP3    H123508   3.554   4.696   2.951
 7848TIP3    H223509   3.494   4.828   2.993
 7849TIP3   OH223510   3.409   5.561   1.339
 7849TIP3    H123511   3.443   5.480   1.379
 7849TIP3    H223512   3.325   5.576   1.383
 7850TIP3   OH223513   6.404   4.591   5.576
 7850TIP3    H123514   6.401   4.503   5.615
 7850TIP3    H223515   6.493   4.622   5.595
 7851TIP3   OH223516   5.879   1.074   0.093
 7851TIP3    H123517   5.786   1.068   0.114
 7851TIP3    H223518   5.892   1.166   0.071
 7852TIP3   OH223519   4.485   2.404   2.127
 7852TIP3    H123520   4.412   2.462   2.149
 7852TIP3    H223521   4.506   2.360   2.209
 7853TIP3   OH223522   2.648   3.960   4.263
 7853TIP3    H123523   2.673   3.907   4.187
 7853TIP3    H223524   2.577   3.911   4.304
 7854TIP3   OH223525   4.255   5.835   3.040
 7854TIP3    H123526   4.282   5.925   3.058
 7854TIP3    H223527   4.166   5.843   3.007
 7855TIP3   OH223528   5.413   6.564   0.984
 7855TIP3    H123529   5.368   6.503   0.926
 7855TIP3    H223530   5.375   6.546   1.071
 7856TIP3   OH223531   0.606   0.744   0.537
 7856TIP3    H123532   0.606   0.815   0.601
 7856TIP3    H223533   0.515   0.738   0.508
 7857TIP3   OH223534   0.677   6.147   5.546
 7857TIP3    H123535   0.632   6.231   5.556
 7857TIP3    H223536   0.742   6.162   5.477
 7858TIP3   OH223537   4.157   2.220   3.787
 7858TIP3    H123538   4.107   2.299   3.769
 7858TIP3    H223539   4.244   2.238   3.752
 7859TIP3   OH223540   4.615   6.120   5.303
 7859TIP3    H123541   4.597   6.026   5.299
 7859TIP3    H223542   4.548   6.155   5.361
 7860TIP3   OH223543   0.384   5.082   0.442
 7860TIP3    H123544   0.301   5.112   0.404
 7860TIP3    H223545   0.382   4.987   0.430
 7861TIP3   OH223546   6.733   0.725   2.404
 7861TIP3    H123547   6.653   0.675   2.387
 7861TIP3    H223548   6.723   0.755   2.494
 7862TIP3   OH223549   6.362   1.580   0.825
 7862TIP3    H123550   6.388   1.491   0.847
 7862TIP3    H223551   6.435   1.635   0.854
 7863TIP3   OH223552   6.636   6.714   0.700
 7863TIP3    H123553   6.553   6.735   0.656
 7863TIP3    H223554   6.678   6.799   0.713
 7864TIP3   OH223555   5.751   1.943   5.633
 7864TIP3    H123556   5.733   1.890   5.710
 7864TIP3    H223557   5.846   1.937   5.620
 7865TIP3   OH223558   0.878   0.093   2.053
 7865TIP3    H123559   0.814   0.098   1.981
 7865TIP3    H223560   0.956   0.056   2.013
 7866TIP3   OH223561   4.988   1.637   4.802
 7866TIP3    H123562   4.957   1.705   4.742
 7866TIP3    H223563   4.961   1.667   4.889
 7867TIP3   OH223564   3.452   0.673   1.824
 7867TIP3    H123565   3.458   0.577   1.828
 7867TIP3    H223566   3.522   0.704   1.882
 7868TIP3   OH223567   4.482   0.522   2.934
 7868TIP3    H123568   4.528   0.590   2.886
 7868TIP3    H223569   4.428   0.478   2.868
 7869TIP3   OH223570   3.124   3.390   0.961
 7869TIP3    H123571   3.217   3.396   0.982
 7869TIP3    H223572   3.108   3.296   0.949
 7870TIP3   OH223573   1.457   5.482   0.852
 7870TIP3    H123574   1.398   5.451   0.783
 7870TIP3    H223575   1.493   5.402   0.890
 7871TIP3   OH223576   6.273   0.060   3.398
 7871TIP3    H123577   6.334   0.126   3.432
 7871TIP3    H223578   6.328   0.001   3.346
 7872TIP3   OH223579   5.461   5.590   1.748
 7872TIP3    H123580   5.473   5.495   1.751
 7872TIP3    H223581   5.478   5.612   1.656
 7873TIP3   OH223582   1.415   4.404   5.584
 7873TIP3    H123583   1.437   4.320   5.625
 7873TIP3    H223584   1.469   4.468   5.631
 7874TIP3   OH223585   1.728   1.043   2.975
 7874TIP3    H123586   1.681   1.043   2.892
 7874TIP3    H223587   1.750   1.135   2.990
 7875TIP3   OH223588   6.737   4.583   3.093
 7875TIP3    H123589   6.772   4.551   3.176
 7875TIP3    H223590   6.737   4.678   3.103
 7876TIP3   OH223591   6.117   6.539   5.310
 7876TIP3    H123592   6.039   6.486   5.320
 7876TIP3    H223593   6.185   6.492   5.359
 7877TIP3   OH223594   4.452   3.198   0.253
 7877TIP3    H123595   4.412   3.194   0.166
 7877TIP3    H223596   4.468   3.291   0.268
 7878TIP3   OH223597   5.845   1.183   3.133
 7878TIP3    H123598   5.805   1.270   3.122
 7878TIP3    H223599   5.815   1.154   3.219
 7879TIP3   OH223600   6.804   2.732   2.928
 7879TIP3    H123601   6.736   2.779   2.976
 7879TIP3    H223602   6.758   2.692   2.855
 7880TIP3   OH223603   2.302   2.878   4.853
 7880TIP3    H123604   2.276   2.793   4.819
 7880TIP3    H223605   2.363   2.858   4.924
 7881TIP3   OH223606   0.390   3.389   1.963
 7881TIP3    H123607   0.438   3.333   2.024
 7881TIP3    H223608   0.361   3.463   2.017
 7882TIP3   OH223609   0.756   4.153   3.259
 7882TIP3    H123610   0.841   4.187   3.288
 7882TIP3    H223611   0.695   4.183   3.326
 7883TIP3   OH223612   1.030   1.930   5.255
 7883TIP3    H123613   1.015   1.910   5.162
 7883TIP3    H223614   0.946   1.964   5.285
 7884TIP3   OH223615   5.196   2.954   1.194
 7884TIP3    H123616   5.271   2.898   1.174
 7884TIP3    H223617   5.136   2.942   1.120
 7885TIP3   OH223618   0.789   3.029   1.304
 7885TIP3    H123619   0.820   3.067   1.387
 7885TIP3    H223620   0.825   2.941   1.303
 7886TIP3   OH223621   0.149   4.373   2.339
 7886TIP3    H123622   0.228   4.407   2.381
 7886TIP3    H223623   0.159   4.395   2.246
 7887TIP3   OH223624   1.799   1.126   1.332
 7887TIP3    H123625   1.744   1.187   1.381
 7887TIP3    H223626   1.738   1.075   1.280
 7888TIP3   OH223627   1.676   1.524   0.954
 7888TIP3    H123628   1.729   1.517   0.874
 7888TIP3    H223629   1.613   1.453   0.946
 7889TIP3   OH223630   0.881   5.526   0.923
 7889TIP3    H123631   0.823   5.593   0.958
 7889TIP3    H223632   0.869   5.530   0.828
 7890TIP3   OH223633   5.558   4.815   2.579
 7890TIP3    H123634   5.611   4.888   2.545
 7890TIP3    H223635   5.508   4.854   2.651
 7891TIP3   OH223636   0.854   3.395   2.458
 7891TIP3    H123637   0.929   3.376   2.402
 7891TIP3    H223638   0.879   3.362   2.544
 7892TIP3   OH223639   1.857   1.021   2.691
 7892TIP3    H123640   1.863   0.967   2.612
 7892TIP3    H223641   1.763   1.028   2.708
 7893TIP3   OH223642   0.909   2.431   4.656
 7893TIP3    H123643   0.957   2.509   4.629
 7893TIP3    H223644   0.909   2.375   4.578
 7894TIP3   OH223645   4.632   3.741   2.501
 7894TIP3    H123646   4.659   3.778   2.417
 7894TIP3    H223647   4.712   3.708   2.540
 7895TIP3   OH223648   3.208   4.155   3.382
 7895TIP3    H123649   3.178   4.156   3.291
 7895TIP3    H223650   3.296   4.117   3.378
 7896TIP3   OH223651   1.497   1.490   3.219
 7896TIP3    H123652   1.575   1.434   3.219
 7896TIP3    H223653   1.528   1.573   3.254
 7897TIP3   OH223654   0.663   3.846   4.254
 7897TIP3    H123655   0.587   3.841   4.197
 7897TIP3    H223656   0.628   3.835   4.343
 7898TIP3   OH223657   4.429   5.230   3.650
 7898TIP3    H123658   4.480   5.260   3.574
 7898TIP3    H223659   4.417   5.137   3.635
 7899TIP3   OH223660   3.195   0.124   5.794
 7899TIP3    H123661   3.182   0.066   5.869
 7899TIP3    H223662   3.241   0.200   5.830
 7900TIP3   OH223663   3.720   1.194   0.093
 7900TIP3    H123664   3.704   1.234   0.007
 7900TIP3    H223665   3.756   1.107   0.072
 7901TIP3   OH223666   0.325   2.491   2.925
 7901TIP3    H123667   0.252   2.440   2.958
 7901TIP3    H223668   0.307   2.502   2.832
 7902TIP3   OH223669   0.605   0.029   1.116
 7902TIP3    H123670   0.516   0.057   1.095
 7902TIP3    H223671   0.626  -0.036   1.048
 7903TIP3   OH223672   3.853   6.666   5.274
 7903TIP3    H123673   3.942   6.636   5.254
 7903TIP3    H223674   3.853   6.678   5.369
 7904TIP3   OH223675   1.880   0.500   4.355
 7904TIP3    H123676   1.896   0.495   4.449
 7904TIP3    H223677   1.940   0.568   4.324
 7905TIP3   OH223678   6.154   6.255   2.189
 7905TIP3    H123679   6.242   6.262   2.153
 7905TIP3    H223680   6.168   6.257   2.284
 7906TIP3   OH223681   4.014   1.134   3.275
 7906TIP3    H123682   4.033   1.047   3.239
 7906TIP3    H223683   4.081   1.191   3.238
 7907TIP3   OH223684   0.297   4.207   1.796
 7907TIP3    H123685   0.330   4.263   1.867
 7907TIP3    H223686   0.236   4.263   1.748
 7908TIP3   OH223687   5.125   2.087   4.051
 7908TIP3    H123688   5.121   2.052   4.141
 7908TIP3    H223689   5.196   2.038   4.010
 7909TIP3   OH223690   6.547   6.178   2.337
 7909TIP3    H123691   6.583   6.261   2.366
 7909TIP3    H223692   6.558   6.119   2.411
 7910TIP3   OH223693   4.473   0.854   2.315
 7910TIP3    H123694   4.503   0.806   2.392
 7910TIP3    H223695   4.454   0.942   2.348
 7911TIP3   OH223696   6.700   5.840   1.733
 7911TIP3    H123697   6.694   5.815   1.825
 7911TIP3    H223698   6.648   5.920   1.726
 7912TIP3   OH223699   2.001   2.512   5.265
 7912TIP3    H123700   2.019   2.422   5.293
 7912TIP3    H223701   2.067   2.564   5.311
 7913TIP3   OH223702   0.389   2.780   2.080
 7913TIP3    H123703   0.319   2.813   2.136
 7913TIP3    H223704   0.411   2.695   2.117
 7914TIP3   OH223705   3.517   2.065   3.533
 7914TIP3    H123706   3.591   2.126   3.536
 7914TIP3    H223707   3.440   2.121   3.545
 7915TIP3   OH223708   4.089   4.709   3.232
 7915TIP3    H123709   4.116   4.785   3.283
 7915TIP3    H223710   4.163   4.649   3.236
 7916TIP3   OH223711   3.099   5.282   0.679
 7916TIP3    H123712   3.069   5.354   0.736
 7916TIP3    H223713   3.044   5.208   0.704
 7917TIP3   OH223714   6.284   2.741   0.914
 7917TIP3    H123715   6.237   2.679   0.859
 7917TIP3    H223716   6.368   2.753   0.870
 7918TIP3   OH223717   3.014   3.333   1.459
 7918TIP3    H123718   3.042   3.250   1.421
 7918TIP3    H223719   3.010   3.393   1.384
 7919TIP3   OH223720   4.654   2.279   3.375
 7919TIP3    H123721   4.647   2.204   3.434
 7919TIP3    H223722   4.563   2.302   3.354
 7920TIP3   OH223723   6.719   1.951   0.480
 7920TIP3    H123724   6.631   1.915   0.465
 7920TIP3    H223725   6.706   2.022   0.543
 7921TIP3   OH223726   6.469   6.413   1.487
 7921TIP3    H123727   6.444   6.494   1.443
 7921TIP3    H223728   6.562   6.425   1.508
 7922TIP3   OH223729   2.083   2.156   3.159
 7922TIP3    H123730   2.006   2.155   3.102
 7922TIP3    H223731   2.049   2.135   3.246
 7923TIP3   OH223732   5.216   0.443   5.767
 7923TIP3    H123733   5.309   0.466   5.759
 7923TIP3    H223734   5.207   0.413   5.857
 7924TIP3   OH223735   4.092   3.498   2.214
 7924TIP3    H123736   4.089   3.571   2.276
 7924TIP3    H223737   4.095   3.539   2.128
 7925TIP3   OH223738   3.286   0.169   1.704
 7925TIP3    H123739   3.285   0.260   1.735
 7925TIP3    H223740   3.205   0.131   1.736
 7926TIP3   OH223741   0.504   0.081   3.009
 7926TIP3    H123742   0.531   0.105   3.097
 7926TIP3    H223743   0.431   0.021   3.022
 7927TIP3   OH223744   0.167   2.355   4.044
 7927TIP3    H123745   0.130   2.417   4.108
 7927TIP3    H223746   0.225   2.408   3.990
 7928TIP3   OH223747   0.770   0.727   3.829
 7928TIP3    H123748   0.737   0.817   3.837
 7928TIP3    H223749   0.759   0.706   3.737
 7929TIP3   OH223750   4.736   5.706   0.046
 7929TIP3    H123751   4.646   5.673   0.035
 7929TIP3    H223752   4.785   5.666  -0.026
 7930TIP3   OH223753   3.014   1.203   0.002
 7930TIP3    H123754   3.089   1.178   0.056
 7930TIP3    H223755   2.947   1.137   0.022
 7931TIP3   OH223756   1.768   3.594   2.977
 7931TIP3    H123757   1.841   3.577   3.037
 7931TIP3    H223758   1.693   3.552   3.019
 7932TIP3   OH223759   5.022   2.509   1.614
 7932TIP3    H123760   4.949   2.449   1.628
 7932TIP3    H223761   4.995   2.590   1.658
 7933TIP3   OH223762   0.386   5.792   2.336
 7933TIP3    H123763   0.377   5.742   2.418
 7933TIP3    H223764   0.298   5.821   2.315
 7934TIP3   OH223765   2.965   5.403   4.652
 7934TIP3    H123766   2.920   5.337   4.704
 7934TIP3    H223767   3.022   5.353   4.594
 7935TIP3   OH223768   6.298   3.662   4.190
 7935TIP3    H123769   6.315   3.750   4.155
 7935TIP3    H223770   6.379   3.614   4.174
 7936TIP3   OH223771   2.502   0.095   5.511
 7936TIP3    H123772   2.413   0.130   5.519
 7936TIP3    H223773   2.517   0.089   5.417
 7937TIP3   OH223774   4.778   0.790   5.394
 7937TIP3    H123775   4.870   0.769   5.379
 7937TIP3    H223776   4.759   0.862   5.334
 7938TIP3   OH223777   6.442   5.521   3.122
 7938TIP3    H123778   6.385   5.556   3.053
 7938TIP3    H223779   6.464   5.432   3.093
 7939TIP3   OH223780   7.224   0.292   1.125
 7939TIP3    H123781   7.197   0.378   1.094
 7939TIP3    H223782   7.197   0.232   1.055
 7940TIP3   OH223783   3.404   5.954   3.250
 7940TIP3    H123784   3.425   5.919   3.337
 7940TIP3    H223785   3.401   6.048   3.262
 7941TIP3   OH223786   6.283   6.321   5.691
 7941TIP3    H123787   6.223   6.312   5.766
 7941TIP3    H223788   6.241   6.386   5.635
 7942TIP3   OH223789   1.050   5.465   5.313
 7942TIP3    H123790   0.995   5.386   5.312
 7942TIP3    H223791   1.048   5.496   5.223
 7943TIP3   OH223792   4.234   5.148   2.418
 7943TIP3    H123793   4.292   5.114   2.487
 7943TIP3    H223794   4.290   5.205   2.366
 7944TIP3   OH223795   0.280   3.027   3.994
 7944TIP3    H123796   0.374   3.046   4.005
 7944TIP3    H223797   0.240   3.062   4.074
 7945TIP3   OH223798   3.869   4.241   2.011
 7945TIP3    H123799   3.824   4.170   2.057
 7945TIP3    H223800   3.959   4.209   2.002
 7946TIP3   OH223801   2.529   0.144   5.252
 7946TIP3    H123802   2.437   0.165   5.237
 7946TIP3    H223803   2.565   0.131   5.164
 7947TIP3   OH223804   2.306   5.029   3.001
 7947TIP3    H123805   2.320   4.959   3.065
 7947TIP3    H223806   2.265   4.986   2.926
 7948TIP3   OH223807   0.434   4.920   4.459
 7948TIP3    H123808   0.383   4.969   4.524
 7948TIP3    H223809   0.440   4.980   4.384
 7949TIP3   OH223810   6.677   4.714   0.960
 7949TIP3    H123811   6.712   4.696   0.872
 7949TIP3    H223812   6.583   4.698   0.953
 7950TIP3   OH223813   0.230   3.350   0.927
 7950TIP3    H123814   0.169   3.314   0.863
 7950TIP3    H223815   0.203   3.441   0.937
 7951TIP3   OH223816   0.730   4.582   1.012
 7951TIP3    H123817   0.771   4.668   1.011
 7951TIP3    H223818   0.636   4.601   1.015
 7952TIP3   OH223819   7.152   5.367   2.587
 7952TIP3    H123820   7.146   5.357   2.682
 7952TIP3    H223821   7.076   5.421   2.565
 7953TIP3   OH223822   7.059   5.053   2.142
 7953TIP3    H123823   7.083   5.132   2.191
 7953TIP3    H223824   7.029   4.991   2.209
 7954TIP3   OH223825   2.810   0.043   4.623
 7954TIP3    H123826   2.822   0.058   4.530
 7954TIP3    H223827   2.896   0.063   4.662
 7955TIP3   OH223828   0.683   4.085   4.493
 7955TIP3    H123829   0.702   4.090   4.399
 7955TIP3    H223830   0.767   4.102   4.535
 7956TIP3   OH223831   5.072   1.661   0.781
 7956TIP3    H123832   4.990   1.646   0.734
 7956TIP3    H223833   5.100   1.573   0.808
 7957TIP3   OH223834   3.481   1.241   1.155
 7957TIP3    H123835   3.529   1.237   1.072
 7957TIP3    H223836   3.430   1.160   1.157
 7958TIP3   OH223837  -0.017   4.786   0.905
 7958TIP3    H123838   0.054   4.846   0.929
 7958TIP3    H223839  -0.086   4.843   0.872
 7959TIP3   OH223840   6.674   0.687   5.269
 7959TIP3    H123841   6.667   0.593   5.249
 7959TIP3    H223842   6.749   0.717   5.217
 7960TIP3   OH223843   4.112   2.092   4.675
 7960TIP3    H123844   4.018   2.086   4.695
 7960TIP3    H223845   4.131   2.012   4.626
 7961TIP3   OH223846   5.770   1.227   3.588
 7961TIP3    H123847   5.730   1.299   3.635
 7961TIP3    H223848   5.805   1.170   3.656
 7962TIP3   OH223849   5.097   5.726   0.275
 7962TIP3    H123850   5.086   5.647   0.222
 7962TIP3    H223851   5.191   5.738   0.281
 7963TIP3   OH223852   6.578   1.782   3.413
 7963TIP3    H123853   6.501   1.749   3.368
 7963TIP3    H223854   6.633   1.820   3.344
 7964TIP3   OH223855   1.297   2.831   5.280
 7964TIP3    H123856   1.333   2.883   5.351
 7964TIP3    H223857   1.219   2.790   5.317
 7965TIP3   OH223858   2.809   4.611   5.607
 7965TIP3    H123859   2.821   4.690   5.661
 7965TIP3    H223860   2.754   4.640   5.535
 7966TIP3   OH223861   1.959   3.731   4.223
 7966TIP3    H123862   1.948   3.823   4.250
 7966TIP3    H223863   1.981   3.736   4.130
 7967TIP3   OH223864   0.996   3.859   3.760
 7967TIP3    H123865   0.999   3.941   3.809
 7967TIP3    H223866   0.904   3.833   3.761
 7968TIP3   OH223867   5.431   5.772   4.935
 7968TIP3    H123868   5.515   5.811   4.958
 7968TIP3    H223869   5.372   5.846   4.926
 7969TIP3   OH223870   0.763   1.352   5.560
 7969TIP3    H123871   0.680   1.395   5.580
 7969TIP3    H223872   0.829   1.406   5.603
 7970TIP3   OH223873   5.162   4.614   1.175
 7970TIP3    H123874   5.200   4.646   1.257
 7970TIP3    H223875   5.212   4.657   1.107
 7971TIP3   OH223876   2.336   5.074   3.861
 7971TIP3    H123877   2.295   4.988   3.859
 7971TIP3    H223878   2.428   5.057   3.880
 7972TIP3   OH223879   3.124   0.782   5.502
 7972TIP3    H123880   3.073   0.841   5.446
 7972TIP3    H223881   3.142   0.834   5.581
 7973TIP3   OH223882   6.723   1.219   0.355
 7973TIP3    H123883   6.641   1.248   0.395
 7973TIP3    H223884   6.719   1.123   0.357
 7974TIP3   OH223885   5.635   2.793   0.556
 7974TIP3    H123886   5.635   2.712   0.608
 7974TIP3    H223887   5.726   2.805   0.531
 7975TIP3   OH223888   0.232   5.408   3.394
 7975TIP3    H123889   0.291   5.468   3.350
 7975TIP3    H223890   0.152   5.409   3.341
 7976TIP3   OH223891   7.068   2.639   4.067
 7976TIP3    H123892   7.073   2.562   4.124
 7976TIP3    H223893   6.996   2.621   4.007
 7977TIP3   OH223894   0.454   5.472   5.540
 7977TIP3    H123895   0.466   5.566   5.550
 7977TIP3    H223896   0.516   5.447   5.472
 7978TIP3   OH223897   6.920   6.727   2.659
 7978TIP3    H123898   6.830   6.706   2.632
 7978TIP3    H223899   6.915   6.735   2.754
 7979TIP3   OH223900   4.714   4.683   1.750
 7979TIP3    H123901   4.780   4.682   1.681
 7979TIP3    H223902   4.661   4.605   1.733
 7980TIP3   OH223903   4.690   5.426   5.640
 7980TIP3    H123904   4.622   5.358   5.637
 7980TIP3    H223905   4.715   5.431   5.732
 7981TIP3   OH223906   3.334   2.663   0.471
 7981TIP3    H123907   3.424   2.640   0.497
 7981TIP3    H223908   3.317   2.610   0.394
 7982TIP3   OH223909   1.338   5.512   2.351
 7982TIP3    H123910   1.358   5.579   2.417
 7982TIP3    H223911   1.265   5.463   2.389
 7983TIP3   OH223912   4.455   3.511   3.495
 7983TIP3    H123913   4.418   3.426   3.472
 7983TIP3    H223914   4.494   3.543   3.413
 7984TIP3   OH223915   4.396   0.337   5.557
 7984TIP3    H123916   4.458   0.389   5.506
 7984TIP3    H223917   4.315   0.386   5.554
 7985TIP3   OH223918   2.891   4.737   4.125
 7985TIP3    H123919   2.839   4.672   4.171
 7985TIP3    H223920   2.971   4.691   4.100
 7986TIP3   OH223921   4.191   2.712   2.641
 7986TIP3    H123922   4.256   2.648   2.613
 7986TIP3    H223923   4.217   2.793   2.596
 7987TIP3   OH223924   6.985   5.384   1.971
 7987TIP3    H123925   6.966   5.304   1.924
 7987TIP3    H223926   6.903   5.434   1.969
 7988TIP3   OH223927   2.037   5.535   3.297
 7988TIP3    H123928   2.055   5.446   3.266
 7988TIP3    H223929   2.032   5.588   3.218
 7989TIP3   OH223930   0.445   1.461   1.615
 7989TIP3    H123931   0.439   1.543   1.566
 7989TIP3    H223932   0.473   1.396   1.551
 7990TIP3   OH223933   2.354   0.402   4.476
 7990TIP3    H123934   2.427   0.392   4.414
 7990TIP3    H223935   2.318   0.313   4.484
 7991TIP3   OH223936   2.048   0.528   1.808
 7991TIP3    H123937   2.141   0.508   1.812
 7991TIP3    H223938   2.044   0.613   1.765
 7992TIP3   OH223939   3.305   5.007   3.683
 7992TIP3    H123940   3.380   5.064   3.699
 7992TIP3    H223941   3.330   4.923   3.720
 7993TIP3   OH223942   3.824   4.048   2.208
 7993TIP3    H123943   3.907   4.071   2.249
 7993TIP3    H223944   3.758   4.065   2.276
 7994TIP3   OH223945   4.892   3.801   5.574
 7994TIP3    H123946   4.970   3.767   5.619
 7994TIP3    H223947   4.836   3.834   5.644
 7995TIP3   OH223948   6.675   4.141   3.660
 7995TIP3    H123949   6.631   4.204   3.602
 7995TIP3    H223950   6.690   4.064   3.605
 7996TIP3   OH223951   5.027   2.386   4.681
 7996TIP3    H123952   4.980   2.460   4.642
 7996TIP3    H223953   5.022   2.318   4.614
 7997TIP3   OH223954   1.580   5.333   5.042
 7997TIP3    H123955   1.495   5.371   5.063
 7997TIP3    H223956   1.588   5.342   4.947
 7998TIP3   OH223957   5.115   0.532   3.760
 7998TIP3    H123958   5.174   0.459   3.741
 7998TIP3    H223959   5.062   0.502   3.833
 7999TIP3   OH223960   0.756   0.633   3.581
 7999TIP3    H123961   0.829   0.625   3.519
 7999TIP3    H223962   0.683   0.589   3.537
 8000TIP3   OH223963   5.764   5.526   5.864
 8000TIP3    H123964   5.856   5.500   5.863
 8000TIP3    H223965   5.751   5.571   5.781
 8001TIP3   OH223966   2.596   5.300   4.171
 8001TIP3    H123967   2.669   5.361   4.155
 8001TIP3    H223968   2.636   5.229   4.221
 8002TIP3   OH223969   5.037   5.923   3.651
 8002TIP3    H123970   5.048   5.831   3.678
 8002TIP3    H223971   5.109   5.969   3.694
 8003TIP3   OH223972   3.953   3.232   1.991
 8003TIP3    H123973   3.860   3.253   2.001
 8003TIP3    H223974   3.994   3.314   1.965
 8004TIP3   OH223975   1.879   4.652   3.216
 8004TIP3    H123976   1.788   4.623   3.209
 8004TIP3    H223977   1.883   4.697   3.300
 8005TIP3   OH223978   2.918   5.755   0.774
 8005TIP3    H123979   2.853   5.739   0.705
 8005TIP3    H223980   2.990   5.799   0.730
 8006TIP3   OH223981   3.077   5.014   2.442
 8006TIP3    H123982   3.150   5.042   2.497
 8006TIP3    H223983   3.097   5.050   2.355
 8007TIP3   OH223984   5.686   5.855   1.519
 8007TIP3    H123985   5.741   5.857   1.441
 8007TIP3    H223986   5.638   5.772   1.512
 8008TIP3   OH223987   3.604   1.547   3.770
 8008TIP3    H123988   3.674   1.545   3.705
 8008TIP3    H223989   3.600   1.638   3.797
 8009TIP3   OH223990   1.835   1.853   1.982
 8009TIP3    H123991   1.808   1.795   2.053
 8009TIP3    H223992   1.917   1.816   1.950
 8010TIP3   OH223993   1.006   5.593   4.346
 8010TIP3    H123994   1.006   5.687   4.329
 8010TIP3    H223995   1.076   5.558   4.292
 8011TIP3   OH223996   2.211   2.738   2.692
 8011TIP3    H123997   2.294   2.761   2.733
 8011TIP3    H223998   2.171   2.674   2.751
 8012TIP3   OH223999   3.769   2.640   5.202
 8012TIP3    H124000   3.840   2.579   5.185
 8012TIP3    H224001   3.802   2.698   5.270
 8013TIP3   OH224002   4.615   2.877   0.232
 8013TIP3    H124003   4.644   2.798   0.279
 8013TIP3    H224004   4.546   2.914   0.287
 8014TIP3   OH224005   6.918   1.402   0.321
 8014TIP3    H124006   6.839   1.356   0.349
 8014TIP3    H224007   6.902   1.421   0.228
 8015TIP3   OH224008   1.701   2.121   0.580
 8015TIP3    H124009   1.701   2.203   0.532
 8015TIP3    H224010   1.724   2.145   0.670
 8016TIP3   OH224011   5.692   3.376   5.685
 8016TIP3    H124012   5.635   3.410   5.754
 8016TIP3    H224013   5.679   3.436   5.611
 8017TIP3   OH224014   6.934   3.248   1.310
 8017TIP3    H124015   6.947   3.191   1.234
 8017TIP3    H224016   6.991   3.212   1.377
 8018TIP3   OH224017   4.683   4.838   1.495
 8018TIP3    H124018   4.715   4.747   1.491
 8018TIP3    H224019   4.592   4.830   1.522
 8019TIP3   OH224020   2.511   3.607   5.522
 8019TIP3    H124021   2.479   3.689   5.484
 8019TIP3    H224022   2.473   3.538   5.467
 8020TIP3   OH224023   0.198   4.807   4.771
 8020TIP3    H124024   0.264   4.737   4.770
 8020TIP3    H224025   0.232   4.873   4.711
 8021TIP3   OH224026   6.517   5.129   5.506
 8021TIP3    H124027   6.605   5.153   5.478
 8021TIP3    H224028   6.506   5.038   5.478
 8022TIP3   OH224029   4.857   1.927   4.373
 8022TIP3    H124030   4.942   1.957   4.340
 8022TIP3    H224031   4.798   2.000   4.354
 8023TIP3   OH224032   4.778   2.528   1.015
 8023TIP3    H124033   4.798   2.612   0.972
 8023TIP3    H224034   4.740   2.474   0.945
 8024TIP3   OH224035   6.245   2.108   2.599
 8024TIP3    H124036   6.157   2.134   2.572
 8024TIP3    H224037   6.302   2.142   2.530
 8025TIP3   OH224038   0.046   2.354   1.262
 8025TIP3    H124039   0.105   2.376   1.191
 8025TIP3    H224040  -0.009   2.431   1.272
 8026TIP3   OH224041   3.025   1.302   2.755
 8026TIP3    H124042   3.100   1.360   2.764
 8026TIP3    H224043   3.061   1.220   2.723
 8027TIP3   OH224044   0.965   0.795   5.352
 8027TIP3    H124045   0.871   0.795   5.366
 8027TIP3    H224046   0.978   0.738   5.276
 8028TIP3   OH224047   4.507   3.726   0.535
 8028TIP3    H124048   4.414   3.703   0.526
 8028TIP3    H224049   4.507   3.819   0.556
 8029TIP3   OH224050   3.624   3.934   4.493
 8029TIP3    H124051   3.649   3.973   4.410
 8029TIP3    H224052   3.629   4.006   4.556
 8030TIP3   OH224053   1.243   3.148   0.169
 8030TIP3    H124054   1.209   3.136   0.081
 8030TIP3    H224055   1.319   3.091   0.174
 8031TIP3   OH224056   4.619   0.045   1.025
 8031TIP3    H124057   4.649  -0.023   0.964
 8031TIP3    H224058   4.564  -0.001   1.087
 8032TIP3   OH224059   6.705   4.846   3.455
 8032TIP3    H124060   6.740   4.917   3.509
 8032TIP3    H224061   6.746   4.767   3.490
 8033TIP3   OH224062   6.989   2.398   1.686
 8033TIP3    H124063   7.010   2.306   1.666
 8033TIP3    H224064   6.906   2.414   1.641
 8034TIP3   OH224065   6.292   0.849   5.040
 8034TIP3    H124066   6.317   0.929   5.086
 8034TIP3    H224067   6.374   0.800   5.032
 8035TIP3   OH224068   4.957   0.019   3.322
 8035TIP3    H124069   4.943   0.031   3.417
 8035TIP3    H224070   4.915   0.096   3.283
 8036TIP3   OH224071   0.810   4.953   5.206
 8036TIP3    H124072   0.725   4.976   5.243
 8036TIP3    H224073   0.861   4.920   5.281
 8037TIP3   OH224074   7.085   5.563   0.850
 8037TIP3    H124075   7.133   5.491   0.891
 8037TIP3    H224076   7.052   5.615   0.923
 8038TIP3   OH224077   5.852   2.905   0.374
 8038TIP3    H124078   5.937   2.878   0.411
 8038TIP3    H224079   5.870   2.919   0.281
 8039TIP3   OH224080   3.155   5.397   5.410
 8039TIP3    H124081   3.133   5.489   5.426
 8039TIP3    H224082   3.203   5.398   5.327
 8040TIP3   OH224083   4.356   6.383   4.705
 8040TIP3    H124084   4.381   6.292   4.688
 8040TIP3    H224085   4.260   6.381   4.704
 8041TIP3   OH224086   2.382   3.001   0.411
 8041TIP3    H124087   2.434   2.925   0.386
 8041TIP3    H224088   2.298   2.989   0.366
 8042TIP3   OH224089   3.644   3.429   2.619
 8042TIP3    H124090   3.596   3.490   2.563
 8042TIP3    H224091   3.636   3.466   2.707
 8043TIP3   OH224092   4.238   2.784   0.664
 8043TIP3    H124093   4.227   2.707   0.607
 8043TIP3    H224094   4.223   2.751   0.752
 8044TIP3   OH224095   1.235   1.275   3.023
 8044TIP3    H124096   1.195   1.220   2.955
 8044TIP3    H224097   1.292   1.335   2.975
 8045TIP3   OH224098   1.599   3.534   1.669
 8045TIP3    H124099   1.568   3.625   1.665
 8045TIP3    H224100   1.685   3.540   1.711
 8046TIP3   OH224101   4.398   2.104   4.397
 8046TIP3    H124102   4.406   2.185   4.347
 8046TIP3    H224103   4.435   2.124   4.483
 8047TIP3   OH224104   6.816   5.692   2.788
 8047TIP3    H124105   6.880   5.729   2.848
 8047TIP3    H224106   6.777   5.618   2.836
 8048TIP3   OH224107   5.940   3.974   4.858
 8048TIP3    H124108   5.952   3.881   4.878
 8048TIP3    H224109   5.869   4.001   4.917
 8049TIP3   OH224110   4.445   5.385   5.344
 8049TIP3    H124111   4.486   5.356   5.262
 8049TIP3    H224112   4.353   5.397   5.322
 8050TIP3   OH224113   5.182   1.124   4.593
 8050TIP3    H124114   5.161   1.215   4.573
 8050TIP3    H224115   5.260   1.129   4.648
 8051TIP3   OH224116   1.597   0.723   3.813
 8051TIP3    H124117   1.655   0.690   3.744
 8051TIP3    H224118   1.570   0.809   3.781
 8052TIP3   OH224119   4.632   3.406   4.634
 8052TIP3    H124120   4.617   3.327   4.685
 8052TIP3    H224121   4.545   3.445   4.624
 8053TIP3   OH224122   4.691   0.516   1.139
 8053TIP3    H124123   4.676   0.461   1.062
 8053TIP3    H224124   4.622   0.490   1.201
 8054TIP3   OH224125   5.794   2.120   3.046
 8054TIP3    H124126   5.763   2.044   3.095
 8054TIP3    H224127   5.880   2.140   3.084
 8055TIP3   OH224128   4.523   4.565   0.013
 8055TIP3    H124129   4.560   4.510  -0.056
 8055TIP3    H224130   4.556   4.529   0.095
 8056TIP3   OH224131   2.955   5.754   4.892
 8056TIP3    H124132   2.996   5.667   4.891
 8056TIP3    H224133   2.919   5.764   4.804
 8057TIP3   OH224134   3.371   0.536   5.681
 8057TIP3    H124135   3.359   0.627   5.708
 8057TIP3    H224136   3.353   0.536   5.587
 8058TIP3   OH224137   3.248   3.431   4.195
 8058TIP3    H124138   3.341   3.411   4.187
 8058TIP3    H224139   3.206   3.380   4.127
 8059TIP3   OH224140   6.939   6.159   1.028
 8059TIP3    H124141   6.962   6.073   0.994
 8059TIP3    H224142   6.898   6.142   1.112
 8060TIP3   OH224143   1.467   2.652   3.087
 8060TIP3    H124144   1.405   2.713   3.125
 8060TIP3    H224145   1.553   2.684   3.114
 8061TIP3   OH224146   2.394   0.296   3.230
 8061TIP3    H124147   2.466   0.233   3.235
 8061TIP3    H224148   2.424   0.370   3.283
 8062TIP3   OH224149   0.439   4.587   5.386
 8062TIP3    H124150   0.485   4.534   5.321
 8062TIP3    H224151   0.401   4.659   5.336
 8063TIP3   OH224152   7.124   1.489   4.923
 8063TIP3    H124153   7.182   1.565   4.934
 8063TIP3    H224154   7.066   1.493   4.999
 8064TIP3   OH224155   4.569   4.644   3.870
 8064TIP3    H124156   4.495   4.704   3.872
 8064TIP3    H224157   4.568   4.603   3.957
 8065TIP3   OH224158   1.087   5.043   3.697
 8065TIP3    H124159   1.071   5.128   3.657
 8065TIP3    H224160   1.172   5.015   3.663
 8066TIP3   OH224161   1.646   5.994   5.608
 8066TIP3    H124162   1.629   5.937   5.533
 8066TIP3    H224163   1.563   6.040   5.622
 8067TIP3   OH224164   1.568   5.357   2.730
 8067TIP3    H124165   1.547   5.350   2.637
 8067TIP3    H224166   1.526   5.439   2.758
 8068TIP3   OH224167   2.798   4.058   4.485
 8068TIP3    H124168   2.735   4.003   4.439
 8068TIP3    H224169   2.752   4.141   4.498
 8069TIP3   OH224170   0.146   0.704   1.404
 8069TIP3    H124171   0.134   0.799   1.393
 8069TIP3    H224172   0.107   0.665   1.327
 8070TIP3   OH224173   0.697   5.113   4.437
 8070TIP3    H124174   0.727   5.197   4.403
 8070TIP3    H224175   0.765   5.051   4.410
 8071TIP3   OH224176   0.860   1.996   2.470
 8071TIP3    H124177   0.773   1.969   2.440
 8071TIP3    H224178   0.919   1.968   2.400
 8072TIP3   OH224179   4.203   2.339   4.293
 8072TIP3    H124180   4.151   2.295   4.360
 8072TIP3    H224181   4.163   2.314   4.210
 8073TIP3   OH224182   3.609   4.934   4.053
 8073TIP3    H124183   3.619   4.894   3.966
 8073TIP3    H224184   3.687   4.905   4.101
 8074TIP3   OH224185   1.767   1.978   1.048
 8074TIP3    H124186   1.784   1.888   1.077
 8074TIP3    H224187   1.819   1.987   0.968
 8075TIP3   OH224188   5.729   1.872   3.166
 8075TIP3    H124189   5.809   1.858   3.215
 8075TIP3    H224190   5.684   1.787   3.169
 8076TIP3   OH224191   3.643   4.372   0.500
 8076TIP3    H124192   3.607   4.437   0.560
 8076TIP3    H224193   3.570   4.311   0.485
 8077TIP3   OH224194   1.556   3.834   1.791
 8077TIP3    H124195   1.642   3.805   1.760
 8077TIP3    H224196   1.570   3.857   1.882
 8078TIP3   OH224197   5.891   5.596   3.726
 8078TIP3    H124198   5.852   5.680   3.753
 8078TIP3    H224199   5.972   5.621   3.682
 8079TIP3   OH224200   2.451   3.421   4.105
 8079TIP3    H124201   2.450   3.340   4.156
 8079TIP3    H224202   2.492   3.485   4.163
 8080TIP3   OH224203   1.681   2.236   3.576
 8080TIP3    H124204   1.747   2.172   3.599
 8080TIP3    H224205   1.653   2.213   3.487
 8081TIP3   OH224206   0.607   1.142   1.853
 8081TIP3    H124207   0.590   1.234   1.874
 8081TIP3    H224208   0.685   1.144   1.798
 8082TIP3   OH224209   6.536   3.057   1.558
 8082TIP3    H124210   6.543   2.992   1.487
 8082TIP3    H224211   6.524   3.004   1.637
 8083TIP3   OH224212   0.795   1.551   1.556
 8083TIP3    H124213   0.830   1.637   1.580
 8083TIP3    H224214   0.849   1.523   1.482
 8084TIP3   OH224215   0.889   3.580   5.841
 8084TIP3    H124216   0.934   3.661   5.864
 8084TIP3    H224217   0.891   3.528   5.922
 8085TIP3   OH224218   1.534   3.927   5.613
 8085TIP3    H124219   1.481   3.852   5.587
 8085TIP3    H224220   1.616   3.889   5.644
 8086TIP3   OH224221   2.701   3.579   5.837
 8086TIP3    H124222   2.744   3.624   5.764
 8086TIP3    H224223   2.701   3.644   5.908
 8087TIP3   OH224224   5.302   3.555   0.872
 8087TIP3    H124225   5.324   3.557   0.965
 8087TIP3    H224226   5.290   3.462   0.853
 8088TIP3   OH224227   5.008   5.575   2.090
 8088TIP3    H124228   5.103   5.578   2.078
 8088TIP3    H224229   4.992   5.630   2.167
 8089TIP3   OH224230   5.745   4.921   2.803
 8089TIP3    H124231   5.811   4.865   2.844
 8089TIP3    H224232   5.661   4.888   2.836
 8090TIP3   OH224233   0.967   0.740   2.578
 8090TIP3    H124234   0.941   0.740   2.670
 8090TIP3    H224235   0.945   0.652   2.547
 8091TIP3   OH224236   1.558   5.340   1.135
 8091TIP3    H124237   1.546   5.274   1.202
 8091TIP3    H224238   1.469   5.373   1.118
 8092TIP3   OH224239   5.581   5.647   0.701
 8092TIP3    H124240   5.495   5.624   0.735
 8092TIP3    H224241   5.581   5.613   0.611
 8093TIP3   OH224242   2.866   4.876   5.205
 8093TIP3    H124243   2.806   4.937   5.248
 8093TIP3    H224244   2.810   4.824   5.147
 8094TIP3   OH224245   2.484   2.411   1.638
 8094TIP3    H124246   2.513   2.474   1.572
 8094TIP3    H224247   2.398   2.441   1.664
 8095TIP3   OH224248   5.881   2.933   5.387
 8095TIP3    H124249   5.848   3.020   5.362
 8095TIP3    H224250   5.901   2.941   5.480
 8096TIP3   OH224251   5.613   6.500   2.546
 8096TIP3    H124252   5.630   6.466   2.458
 8096TIP3    H224253   5.670   6.448   2.603
 8097TIP3   OH224254   1.340   3.835   3.294
 8097TIP3    H124255   1.363   3.820   3.202
 8097TIP3    H224256   1.420   3.816   3.343
 8098TIP3   OH224257   1.575   0.685   1.258
 8098TIP3    H124258   1.645   0.625   1.231
 8098TIP3    H224259   1.607   0.723   1.340
 8099TIP3   OH224260   2.460   5.408   0.583
 8099TIP3    H124261   2.493   5.495   0.562
 8099TIP3    H224262   2.371   5.406   0.548
 8100TIP3   OH224263   5.006   2.364   2.052
 8100TIP3    H124264   5.045   2.326   2.131
 8100TIP3    H224265   4.913   2.344   2.059
 8101TIP3   OH224266   3.664   3.104   1.807
 8101TIP3    H124267   3.676   3.181   1.863
 8101TIP3    H224268   3.731   3.112   1.739
 8102TIP3   OH224269   3.614   5.969   0.385
 8102TIP3    H124270   3.650   5.961   0.474
 8102TIP3    H224271   3.670   5.912   0.332
 8103TIP3   OH224272   1.259   4.018   2.257
 8103TIP3    H124273   1.211   4.004   2.176
 8103TIP3    H224274   1.192   4.042   2.321
 8104TIP3   OH224275   1.945   5.528   3.557
 8104TIP3    H124276   1.981   5.545   3.470
 8104TIP3    H224277   1.938   5.432   3.562
 8105TIP3   OH224278   6.897   5.947   5.802
 8105TIP3    H124279   6.896   5.873   5.863
 8105TIP3    H224280   6.970   5.930   5.744
 8106TIP3   OH224281   5.429   3.667   4.636
 8106TIP3    H124282   5.374   3.610   4.689
 8106TIP3    H224283   5.501   3.610   4.607
 8107TIP3   OH224284   3.518   4.351   2.923
 8107TIP3    H124285   3.595   4.406   2.906
 8107TIP3    H224286   3.447   4.413   2.939
 8108TIP3   OH224287   1.561   4.051   5.363
 8108TIP3    H124288   1.540   4.005   5.445
 8108TIP3    H224289   1.536   4.142   5.380
 8109TIP3   OH224290   4.658   3.556   2.207
 8109TIP3    H124291   4.590   3.618   2.181
 8109TIP3    H224292   4.628   3.471   2.175
 8110TIP3   OH224293   4.466   5.275   4.855
 8110TIP3    H124294   4.490   5.326   4.778
 8110TIP3    H224295   4.370   5.272   4.852
 8111TIP3   OH224296   5.554   0.815   2.715
 8111TIP3    H124297   5.524   0.826   2.625
 8111TIP3    H224298   5.524   0.894   2.760
 8112TIP3   OH224299   2.723   4.192   4.980
 8112TIP3    H124300   2.665   4.244   4.925
 8112TIP3    H224301   2.698   4.101   4.963
 8113TIP3   OH224302   1.631   4.955   2.968
 8113TIP3    H124303   1.630   4.994   3.056
 8113TIP3    H224304   1.723   4.934   2.953
 8114TIP3   OH224305   4.302   5.025   4.565
 8114TIP3    H124306   4.238   4.964   4.529
 8114TIP3    H224307   4.367   4.968   4.608
 8115TIP3   OH224308   3.057   1.045   5.395
 8115TIP3    H124309   3.002   1.018   5.322
 8115TIP3    H224310   3.039   1.139   5.405
 8116TIP3   OH224311   4.926   3.942   4.900
 8116TIP3    H124312   4.905   3.881   4.830
 8116TIP3    H224313   5.021   3.949   4.899
 8117TIP3   OH224314   0.668   5.639   5.890
 8117TIP3    H124315   0.691   5.601   5.806
 8117TIP3    H224316   0.752   5.654   5.933
 8118TIP3   OH224317   5.407   3.335   2.847
 8118TIP3    H124318   5.379   3.370   2.931
 8118TIP3    H224319   5.488   3.381   2.827
 8119TIP3   OH224320   4.021   0.661   5.277
 8119TIP3    H124321   4.005   0.751   5.249
 8119TIP3    H224322   3.962   0.649   5.352
 8120TIP3   OH224323   0.694   1.018   3.518
 8120TIP3    H124324   0.772   0.973   3.485
 8120TIP3    H224325   0.663   1.068   3.442
 8121TIP3   OH224326   2.483   5.707   1.289
 8121TIP3    H124327   2.502   5.795   1.258
 8121TIP3    H224328   2.431   5.667   1.219
 8122TIP3   OH224329   4.732   4.610   5.306
 8122TIP3    H124330   4.662   4.555   5.271
 8122TIP3    H224331   4.797   4.547   5.339
 8123TIP3   OH224332   0.579   0.313   5.551
 8123TIP3    H124333   0.536   0.276   5.473
 8123TIP3    H224334   0.671   0.319   5.527
 8124TIP3   OH224335   3.877   1.110   1.012
 8124TIP3    H124336   3.876   1.057   1.092
 8124TIP3    H224337   3.954   1.079   0.963
 8125TIP3   OH224338   3.956   3.546   5.740
 8125TIP3    H124339   4.010   3.621   5.716
 8125TIP3    H224340   4.000   3.471   5.698
 8126TIP3   OH224341   1.699   5.394   4.771
 8126TIP3    H124342   1.779   5.443   4.789
 8126TIP3    H224343   1.642   5.457   4.725
 8127TIP3   OH224344   6.254   4.961   4.126
 8127TIP3    H124345   6.182   4.970   4.189
 8127TIP3    H224346   6.270   5.050   4.096
 8128TIP3   OH224347   1.276   3.836   4.048
 8128TIP3    H124348   1.203   3.776   4.065
 8128TIP3    H224349   1.309   3.859   4.135
 8129TIP3   OH224350   2.060   3.136   5.504
 8129TIP3    H124351   1.995   3.072   5.532
 8129TIP3    H224352   2.115   3.089   5.441
 8130TIP3   OH224353   1.541   2.831   5.559
 8130TIP3    H124354   1.612   2.865   5.504
 8130TIP3    H224355   1.480   2.903   5.567
 8131TIP3   OH224356   4.936   5.597   3.476
 8131TIP3    H124357   4.972   5.513   3.445
 8131TIP3    H224358   4.998   5.626   3.543
 8132TIP3   OH224359   6.940   5.027   1.446
 8132TIP3    H124360   6.949   5.122   1.450
 8132TIP3    H224361   6.960   4.997   1.534
 8133TIP3   OH224362   2.183   3.310   2.949
 8133TIP3    H124363   2.214   3.381   2.893
 8133TIP3    H224364   2.206   3.230   2.901
 8134TIP3   OH224365   2.743   3.368   2.520
 8134TIP3    H124366   2.714   3.443   2.468
 8134TIP3    H224367   2.837   3.361   2.502
 8135TIP3   OH224368   4.939   6.455   2.414
 8135TIP3    H124369   4.964   6.431   2.325
 8135TIP3    H224370   4.954   6.550   2.418
 8136TIP3   OH224371   4.773   0.405   0.484
 8136TIP3    H124372   4.742   0.487   0.445
 8136TIP3    H224373   4.759   0.417   0.578
 8137TIP3   OH224374   3.096   6.017   1.842
 8137TIP3    H124375   3.120   5.927   1.864
 8137TIP3    H224376   3.064   6.054   1.924
 8138TIP3   OH224377   5.492   2.894   1.182
 8138TIP3    H124378   5.442   2.889   1.264
 8138TIP3    H224379   5.544   2.975   1.191
 8139TIP3   OH224380   3.996   4.566   2.394
 8139TIP3    H124381   3.902   4.553   2.410
 8139TIP3    H224382   4.035   4.480   2.410
 8140TIP3   OH224383   0.774   5.365   0.106
 8140TIP3    H124384   0.859   5.404   0.126
 8140TIP3    H224385   0.749   5.320   0.186
 8141TIP3   OH224386   2.830   1.407   4.753
 8141TIP3    H124387   2.803   1.426   4.842
 8141TIP3    H224388   2.769   1.457   4.698
 8142TIP3   OH224389   6.115   5.907   0.117
 8142TIP3    H124390   6.161   5.990   0.129
 8142TIP3    H224391   6.143   5.877   0.031
 8143TIP3   OH224392   5.523   3.042   2.093
 8143TIP3    H124393   5.562   3.012   2.011
 8143TIP3    H224394   5.441   2.993   2.100
 8144TIP3   OH224395   1.901   1.304   0.993
 8144TIP3    H124396   1.925   1.355   0.916
 8144TIP3    H224397   1.806   1.294   0.987
 8145TIP3   OH224398   0.949   1.298   4.058
 8145TIP3    H124399   0.902   1.217   4.078
 8145TIP3    H224400   0.911   1.328   3.975
 8146TIP3   OH224401   5.667   3.346   0.770
 8146TIP3    H124402   5.712   3.319   0.691
 8146TIP3    H224403   5.642   3.437   0.754
 8147TIP3   OH224404   1.645   0.283   1.860
 8147TIP3    H124405   1.602   0.201   1.836
 8147TIP3    H224406   1.579   0.351   1.847
 8148TIP3   OH224407   2.234   2.096   4.683
 8148TIP3    H124408   2.220   2.006   4.655
 8148TIP3    H224409   2.299   2.130   4.622
 8149TIP3   OH224410   4.150   4.944   3.353
 8149TIP3    H124411   4.142   4.953   3.448
 8149TIP3    H224412   4.110   5.024   3.318
 8150TIP3   OH224413   6.442   2.493   0.261
 8150TIP3    H124414   6.494   2.515   0.184
 8150TIP3    H224415   6.358   2.536   0.247
 8151TIP3   OH224416   6.550   0.678   4.394
 8151TIP3    H124417   6.591   0.659   4.479
 8151TIP3    H224418   6.469   0.723   4.416
 8152TIP3   OH224419   0.271   6.465   5.226
 8152TIP3    H124420   0.192   6.441   5.178
 8152TIP3    H224421   0.239   6.512   5.304
 8153TIP3   OH224422   1.073   5.059   5.399
 8153TIP3    H124423   1.120   5.075   5.317
 8153TIP3    H224424   1.040   4.970   5.390
 8154TIP3   OH224425   2.725   1.728   3.960
 8154TIP3    H124426   2.767   1.647   3.989
 8154TIP3    H224427   2.700   1.711   3.869
 8155TIP3   OH224428   5.046   5.353   3.394
 8155TIP3    H124429   5.081   5.351   3.483
 8155TIP3    H224430   5.123   5.365   3.338
 8156TIP3   OH224431   4.697   6.119   1.690
 8156TIP3    H124432   4.644   6.042   1.710
 8156TIP3    H224433   4.757   6.127   1.764
 8157TIP3   OH224434   1.418   5.903   3.116
 8157TIP3    H124435   1.385   5.832   3.171
 8157TIP3    H224436   1.486   5.862   3.062
 8158TIP3   OH224437   1.144   6.792   4.734
 8158TIP3    H124438   1.238   6.805   4.729
 8158TIP3    H224439   1.121   6.813   4.825
 8159TIP3   OH224440   5.343   4.722   2.295
 8159TIP3    H124441   5.351   4.811   2.329
 8159TIP3    H224442   5.381   4.667   2.364
 8160TIP3   OH224443   5.670   5.159   4.758
 8160TIP3    H124444   5.610   5.145   4.686
 8160TIP3    H224445   5.707   5.072   4.776
 8161TIP3   OH224446   1.116   0.695   0.871
 8161TIP3    H124447   1.045   0.648   0.916
 8161TIP3    H224448   1.192   0.638   0.882
 8162TIP3   OH224449   1.521   5.986   4.730
 8162TIP3    H124450   1.528   5.933   4.651
 8162TIP3    H224451   1.604   6.032   4.736
 8163TIP3   OH224452   5.226   3.611   5.404
 8163TIP3    H124453   5.218   3.550   5.330
 8163TIP3    H224454   5.243   3.696   5.363
 8164TIP3   OH224455   3.027   2.793   1.998
 8164TIP3    H124456   3.012   2.803   1.905
 8164TIP3    H224457   3.008   2.701   2.016
 8165TIP3   OH224458   0.618   0.788   1.426
 8165TIP3    H124459   0.579   0.790   1.339
 8165TIP3    H224460   0.546   0.763   1.484
 8166TIP3   OH224461   5.642   1.389   1.071
 8166TIP3    H124462   5.694   1.383   1.151
 8166TIP3    H224463   5.699   1.437   1.010
 8167TIP3   OH224464   1.358   5.690   1.152
 8167TIP3    H124465   1.334   5.607   1.193
 8167TIP3    H224466   1.311   5.689   1.068
 8168TIP3   OH224467   6.260   2.103   4.362
 8168TIP3    H124468   6.224   2.170   4.304
 8168TIP3    H224469   6.188   2.041   4.375
 8169TIP3   OH224470   2.764   0.853   1.403
 8169TIP3    H124471   2.743   0.831   1.494
 8169TIP3    H224472   2.763   0.948   1.400
 8170TIP3   OH224473   3.100   3.506   3.691
 8170TIP3    H124474   3.175   3.513   3.632
 8170TIP3    H224475   3.091   3.593   3.729
 8171TIP3   OH224476   4.911   1.533   3.194
 8171TIP3    H124477   4.911   1.626   3.216
 8171TIP3    H224478   4.872   1.490   3.271
 8172TIP3   OH224479   2.457   0.947   3.895
 8172TIP3    H124480   2.545   0.982   3.881
 8172TIP3    H224481   2.441   0.892   3.819
 8173TIP3   OH224482   1.124   3.252   1.037
 8173TIP3    H124483   1.107   3.158   1.032
 8173TIP3    H224484   1.219   3.260   1.024
 8174TIP3   OH224485   4.138   6.167   5.447
 8174TIP3    H124486   4.137   6.209   5.534
 8174TIP3    H224487   4.125   6.074   5.466
 8175TIP3   OH224488   4.768   3.213   5.108
 8175TIP3    H124489   4.728   3.142   5.159
 8175TIP3    H224490   4.857   3.220   5.142
 8176TIP3   OH224491   3.587   3.299   2.232
 8176TIP3    H124492   3.662   3.351   2.202
 8176TIP3    H224493   3.623   3.245   2.302
 8177TIP3   OH224494   1.093   5.290   3.545
 8177TIP3    H124495   1.150   5.270   3.471
 8177TIP3    H224496   1.112   5.382   3.566
 8178TIP3   OH224497   1.256   6.306   3.865
 8178TIP3    H124498   1.244   6.388   3.913
 8178TIP3    H224499   1.172   6.262   3.871
 8179TIP3   OH224500   6.123   2.041   3.608
 8179TIP3    H124501   6.081   2.125   3.625
 8179TIP3    H224502   6.198   2.063   3.552
 8180TIP3   OH224503   6.565   0.442   1.507
 8180TIP3    H124504   6.658   0.463   1.497
 8180TIP3    H224505   6.523   0.526   1.525
 8181TIP3   OH224506   6.847   5.566   3.831
 8181TIP3    H124507   6.865   5.486   3.880
 8181TIP3    H224508   6.877   5.637   3.888
 8182TIP3   OH224509   5.538   4.700   5.664
 8182TIP3    H124510   5.592   4.622   5.673
 8182TIP3    H224511   5.466   4.687   5.726
 8183TIP3   OH224512   0.394   5.621   4.748
 8183TIP3    H124513   0.448   5.642   4.672
 8183TIP3    H224514   0.442   5.659   4.822
 8184TIP3   OH224515   0.368   1.602   3.031
 8184TIP3    H124516   0.436   1.563   2.977
 8184TIP3    H224517   0.416   1.653   3.096
 8185TIP3   OH224518   2.361   0.525   4.860
 8185TIP3    H124519   2.425   0.455   4.849
 8185TIP3    H224520   2.407   0.605   4.835
 8186TIP3   OH224521   5.650   3.103   0.922
 8186TIP3    H124522   5.579   3.061   0.873
 8186TIP3    H224523   5.676   3.178   0.868
 8187TIP3   OH224524   1.892   5.304   0.893
 8187TIP3    H124525   1.848   5.330   0.812
 8187TIP3    H224526   1.970   5.257   0.864
 8188TIP3   OH224527   1.977   2.150   3.413
 8188TIP3    H124528   1.922   2.085   3.456
 8188TIP3    H224529   1.990   2.218   3.478
 8189TIP3   OH224530   5.025   0.121   5.748
 8189TIP3    H124531   5.039   0.130   5.654
 8189TIP3    H224532   4.938   0.159   5.764
 8190TIP3   OH224533   5.457   1.418   2.875
 8190TIP3    H124534   5.474   1.397   2.783
 8190TIP3    H224535   5.362   1.411   2.884
 8191TIP3   OH224536   1.859   6.399   5.277
 8191TIP3    H124537   1.792   6.354   5.329
 8191TIP3    H224538   1.935   6.403   5.334
 8192TIP3   OH224539   4.070   5.199   4.447
 8192TIP3    H124540   4.094   5.110   4.474
 8192TIP3    H224541   4.123   5.256   4.501
 8193TIP3   OH224542   0.495   2.580   1.412
 8193TIP3    H124543   0.492   2.658   1.356
 8193TIP3    H224544   0.566   2.597   1.473
 8194TIP3   OH224545   4.933   3.324   0.652
 8194TIP3    H124546   4.856   3.279   0.616
 8194TIP3    H224547   4.988   3.253   0.685
 8195TIP3   OH224548   3.092   4.865   5.037
 8195TIP3    H124549   3.020   4.901   5.089
 8195TIP3    H224550   3.076   4.770   5.036
 8196TIP3   OH224551   5.891   5.199   2.951
 8196TIP3    H124552   5.804   5.238   2.946
 8196TIP3    H224553   5.903   5.156   2.867
 8197TIP3   OH224554   2.207   3.821   4.462
 8197TIP3    H124555   2.248   3.849   4.544
 8197TIP3    H224556   2.116   3.848   4.469
 8198TIP3   OH224557   1.507   3.450   4.282
 8198TIP3    H124558   1.547   3.367   4.259
 8198TIP3    H224559   1.576   3.498   4.329
 8199TIP3   OH224560   5.553   4.877   3.747
 8199TIP3    H124561   5.490   4.810   3.775
 8199TIP3    H224562   5.638   4.834   3.755
 8200TIP3   OH224563   6.462   0.782   3.921
 8200TIP3    H124564   6.439   0.690   3.907
 8200TIP3    H224565   6.379   0.825   3.941
 8201TIP3   OH224566   4.689   5.013   2.727
 8201TIP3    H124567   4.687   4.986   2.819
 8201TIP3    H224568   4.746   5.089   2.725
 8202TIP3   OH224569   2.953   3.871   1.348
 8202TIP3    H124570   2.949   3.779   1.375
 8202TIP3    H224571   2.993   3.869   1.261
 8203TIP3   OH224572   3.240   5.452   3.339
 8203TIP3    H124573   3.283   5.415   3.262
 8203TIP3    H224574   3.163   5.397   3.351
 8204TIP3   OH224575   5.720   5.042   2.559
 8204TIP3    H124576   5.694   5.127   2.593
 8204TIP3    H224577   5.758   4.996   2.634
 8205TIP3   OH224578   3.789   0.776   1.711
 8205TIP3    H124579   3.769   0.737   1.796
 8205TIP3    H224580   3.703   0.795   1.673
 8206TIP3   OH224581   2.780   1.259   4.498
 8206TIP3    H124582   2.722   1.183   4.512
 8206TIP3    H224583   2.738   1.330   4.548
 8207TIP3   OH224584   0.748   4.145   2.157
 8207TIP3    H124585   0.731   4.206   2.228
 8207TIP3    H224586   0.765   4.202   2.081
 8208TIP3   OH224587   6.739   5.091   5.784
 8208TIP3    H124588   6.812   5.134   5.829
 8208TIP3    H224589   6.699   5.036   5.851
 8209TIP3   OH224590   6.756   2.832   5.577
 8209TIP3    H124591   6.825   2.780   5.617
 8209TIP3    H224592   6.777   2.832   5.483
 8210TIP3   OH224593   2.729   5.734   5.655
 8210TIP3    H124594   2.746   5.809   5.712
 8210TIP3    H224595   2.748   5.766   5.567
 8211TIP3   OH224596   4.168   6.767   5.357
 8211TIP3    H124597   4.242   6.707   5.356
 8211TIP3    H224598   4.191   6.836   5.295
 8212TIP3   OH224599   3.936   5.691   1.250
 8212TIP3    H124600   3.932   5.684   1.155
 8212TIP3    H224601   3.988   5.769   1.267
 8213TIP3   OH224602   6.091   6.733   3.141
 8213TIP3    H124603   6.031   6.694   3.204
 8213TIP3    H224604   6.153   6.783   3.194
 8214TIP3   OH224605   2.364   1.166   4.810
 8214TIP3    H124606   2.318   1.220   4.874
 8214TIP3    H224607   2.385   1.226   4.739
 8215TIP3   OH224608   4.234   3.052   4.127
 8215TIP3    H124609   4.296   3.120   4.155
 8215TIP3    H224610   4.252   2.978   4.184
 8216TIP3   OH224611   5.059   6.606   3.922
 8216TIP3    H124612   5.062   6.513   3.943
 8216TIP3    H224613   5.049   6.649   4.007
 8217TIP3   OH224614   5.088   2.508   0.931
 8217TIP3    H124615   5.088   2.437   0.996
 8217TIP3    H224616   5.046   2.469   0.854
 8218TIP3   OH224617   3.178   0.271   4.188
 8218TIP3    H124618   3.224   0.252   4.106
 8218TIP3    H224619   3.243   0.251   4.256
 8219TIP3   OH224620   0.412   3.892   3.050
 8219TIP3    H124621   0.503   3.917   3.064
 8219TIP3    H224622   0.415   3.833   2.974
 8220TIP3   OH224623   0.751   5.296   0.702
 8220TIP3    H124624   0.813   5.350   0.654
 8220TIP3    H224625   0.690   5.358   0.742
 8221TIP3   OH224626   5.495   1.174   0.828
 8221TIP3    H124627   5.522   1.241   0.765
 8221TIP3    H224628   5.550   1.189   0.904
 8222TIP3   OH224629   0.159   2.329   2.064
 8222TIP3    H124630   0.253   2.318   2.052
 8222TIP3    H224631   0.122   2.310   1.977
 8223TIP3   OH224632   4.489   0.917   3.199
 8223TIP3    H124633   4.559   0.914   3.264
 8223TIP3    H224634   4.457   1.007   3.203
 8224TIP3   OH224635   4.771   5.796   3.538
 8224TIP3    H124636   4.816   5.733   3.482
 8224TIP3    H224637   4.826   5.803   3.616
 8225TIP3   OH224638   2.373   2.767   5.195
 8225TIP3    H124639   2.313   2.707   5.150
 8225TIP3    H224640   2.424   2.807   5.125
 8226TIP3   OH224641   4.942   6.597   4.788
 8226TIP3    H124642   4.865   6.618   4.842
 8226TIP3    H224643   4.979   6.682   4.765
 8227TIP3   OH224644   2.162   6.562   4.051
 8227TIP3    H124645   2.206   6.647   4.045
 8227TIP3    H224646   2.137   6.541   3.961
 8228TIP3   OH224647   3.838   4.347   4.101
 8228TIP3    H124648   3.883   4.270   4.064
 8228TIP3    H224649   3.820   4.402   4.025
 8229TIP3   OH224650   0.970   6.690   0.146
 8229TIP3    H124651   0.882   6.681   0.110
 8229TIP3    H224652   0.974   6.624   0.216
 8230TIP3   OH224653   1.205   3.895   1.756
 8230TIP3    H124654   1.195   3.821   1.697
 8230TIP3    H224655   1.156   3.966   1.715
 8231TIP3   OH224656   1.280   2.160   2.972
 8231TIP3    H124657   1.292   2.096   3.042
 8231TIP3    H224658   1.195   2.138   2.934
 8232TIP3   OH224659   1.588   6.609   3.856
 8232TIP3    H124660   1.518   6.570   3.908
 8232TIP3    H224661   1.584   6.703   3.877
 8233TIP3   OH224662   3.567   4.529   3.757
 8233TIP3    H124663   3.651   4.524   3.803
 8233TIP3    H224664   3.587   4.500   3.667
 8234TIP3   OH224665   6.447   2.195   2.034
 8234TIP3    H124666   6.447   2.237   1.948
 8234TIP3    H224667   6.449   2.102   2.015
 8235TIP3   OH224668   4.911   2.580   4.937
 8235TIP3    H124669   4.982   2.627   4.893
 8235TIP3    H224670   4.901   2.626   5.021
 8236TIP3   OH224671   2.106   3.694   4.845
 8236TIP3    H124672   2.102   3.688   4.941
 8236TIP3    H224673   2.095   3.787   4.827
 8237TIP3   OH224674   5.239   2.902   3.614
 8237TIP3    H124675   5.246   2.847   3.693
 8237TIP3    H224676   5.317   2.957   3.617
 8238TIP3   OH224677   0.450   5.585   5.158
 8238TIP3    H124678   0.475   5.669   5.120
 8238TIP3    H224679   0.530   5.533   5.155
 8239TIP3   OH224680   6.416   0.267   4.252
 8239TIP3    H124681   6.507   0.292   4.264
 8239TIP3    H224682   6.420   0.184   4.204
 8240TIP3   OH224683   4.099   6.297   4.704
 8240TIP3    H124684   4.027   6.303   4.642
 8240TIP3    H224685   4.088   6.211   4.746
 8241TIP3   OH224686   4.572   4.419   1.762
 8241TIP3    H124687   4.656   4.384   1.734
 8241TIP3    H224688   4.585   4.445   1.854
 8242TIP3   OH224689   2.078   5.131   1.975
 8242TIP3    H124690   2.039   5.191   2.039
 8242TIP3    H224691   2.153   5.179   1.941
 8243TIP3   OH224692   2.149   5.924   3.205
 8243TIP3    H124693   2.184   5.985   3.140
 8243TIP3    H224694   2.062   5.959   3.227
 8244TIP3   OH224695   5.312   0.684   5.587
 8244TIP3    H124696   5.304   0.778   5.572
 8244TIP3    H224697   5.335   0.676   5.680
 8245TIP3   OH224698   4.979   0.359   0.306
 8245TIP3    H124699   4.920   0.370   0.379
 8245TIP3    H224700   4.928   0.311   0.240
 8246TIP3   OH224701   3.926   0.625   0.232
 8246TIP3    H124702   3.982   0.703   0.235
 8246TIP3    H224703   3.921   0.604   0.139
 8247TIP3   OH224704   0.384   3.418   3.969
 8247TIP3    H124705   0.435   3.479   4.022
 8247TIP3    H224706   0.293   3.437   3.994
 8248TIP3   OH224707   1.874   4.794   2.975
 8248TIP3    H124708   1.878   4.719   2.915
 8248TIP3    H224709   1.882   4.754   3.062
 8249TIP3   OH224710   0.752   1.114   4.099
 8249TIP3    H124711   0.707   1.118   4.015
 8249TIP3    H224712   0.801   1.032   4.097
 8250TIP3   OH224713   2.641   5.620   3.930
 8250TIP3    H124714   2.644   5.524   3.923
 8250TIP3    H224715   2.555   5.639   3.966
 8251TIP3   OH224716   6.481   0.843   2.064
 8251TIP3    H124717   6.442   0.858   1.977
 8251TIP3    H224718   6.416   0.790   2.110
 8252TIP3   OH224719   0.303   5.747   0.566
 8252TIP3    H124720   0.351   5.749   0.649
 8252TIP3    H224721   0.319   5.833   0.526
 8253TIP3   OH224722   6.364   1.814   0.118
 8253TIP3    H124723   6.386   1.740   0.061
 8253TIP3    H224724   6.331   1.881   0.058
 8254TIP3   OH224725   3.531   2.848   2.412
 8254TIP3    H124726   3.478   2.909   2.361
 8254TIP3    H224727   3.618   2.887   2.415
 8255TIP3   OH224728   2.673   1.467   2.286
 8255TIP3    H124729   2.741   1.399   2.294
 8255TIP3    H224730   2.608   1.443   2.352
 8256TIP3   OH224731   7.034   2.538   3.526
 8256TIP3    H124732   6.955   2.487   3.507
 8256TIP3    H224733   7.028   2.613   3.468
 8257TIP3   OH224734   3.713   2.291   5.381
 8257TIP3    H124735   3.722   2.381   5.413
 8257TIP3    H224736   3.717   2.298   5.286
 8258TIP3   OH224737   6.364   1.374   4.978
 8258TIP3    H124738   6.388   1.281   4.978
 8258TIP3    H224739   6.268   1.373   4.978
 8259TIP3   OH224740   7.037   5.786   2.938
 8259TIP3    H124741   7.112   5.742   2.897
 8259TIP3    H224742   7.021   5.736   3.018
 8260TIP3   OH224743   1.233   0.249   1.608
 8260TIP3    H124744   1.250   0.343   1.617
 8260TIP3    H224745   1.139   0.244   1.590
 8261TIP3   OH224746   3.201   4.277   5.575
 8261TIP3    H124747   3.292   4.266   5.600
 8261TIP3    H224748   3.182   4.369   5.592
 8262TIP3   OH224749   2.260   6.615   2.833
 8262TIP3    H124750   2.332   6.678   2.827
 8262TIP3    H224751   2.207   6.646   2.906
 8263TIP3   OH224752   3.701   1.070   5.071
 8263TIP3    H124753   3.631   1.131   5.094
 8263TIP3    H224754   3.690   1.056   4.977
 8264TIP3   OH224755   2.737   5.301   0.966
 8264TIP3    H124756   2.658   5.249   0.960
 8264TIP3    H224757   2.806   5.245   0.931
 8265TIP3   OH224758   4.677   0.054   2.994
 8265TIP3    H124759   4.722   0.069   3.077
 8265TIP3    H224760   4.736   0.090   2.928
 8266TIP3   OH224761   4.157   1.374   1.316
 8266TIP3    H124762   4.072   1.337   1.340
 8266TIP3    H224763   4.213   1.357   1.391
 8267TIP3   OH224764   3.623   3.970   5.199
 8267TIP3    H124765   3.635   4.046   5.256
 8267TIP3    H224766   3.695   3.976   5.136
 8268TIP3   OH224767   3.153   2.199   4.018
 8268TIP3    H124768   3.164   2.121   3.963
 8268TIP3    H224769   3.236   2.245   4.011
 8269TIP3   OH224770   6.988   6.182   2.828
 8269TIP3    H124771   6.911   6.216   2.782
 8269TIP3    H224772   6.969   6.195   2.921
 8270TIP3   OH224773   6.401   0.305   1.695
 8270TIP3    H124774   6.452   0.237   1.738
 8270TIP3    H224775   6.455   0.330   1.619
 8271TIP3   OH224776   2.140   3.609   2.522
 8271TIP3    H124777   2.147   3.673   2.593
 8271TIP3    H224778   2.047   3.587   2.518
 8272TIP3   OH224779   1.987   1.399   2.468
 8272TIP3    H124780   1.903   1.433   2.438
 8272TIP3    H224781   2.050   1.427   2.402
 8273TIP3   OH224782   3.723   0.833   4.882
 8273TIP3    H124783   3.701   0.740   4.877
 8273TIP3    H224784   3.816   0.836   4.860
 8274TIP3   OH224785   6.195   1.954   1.384
 8274TIP3    H124786   6.103   1.972   1.404
 8274TIP3    H224787   6.235   2.040   1.377
 8275TIP3   OH224788   5.268   5.190   1.379
 8275TIP3    H124789   5.180   5.173   1.347
 8275TIP3    H224790   5.258   5.204   1.473
 8276TIP3   OH224791   0.815   6.177   3.633
 8276TIP3    H124792   0.793   6.249   3.574
 8276TIP3    H224793   0.832   6.102   3.575
 8277TIP3   OH224794   3.448   3.137   5.645
 8277TIP3    H124795   3.465   3.224   5.609
 8277TIP3    H224796   3.495   3.135   5.728
 8278TIP3   OH224797   5.080   2.708   2.166
 8278TIP3    H124798   5.119   2.666   2.242
 8278TIP3    H224799   5.099   2.648   2.094
 8279TIP3   OH224800  -0.020   5.617   3.622
 8279TIP3    H124801  -0.012   5.648   3.712
 8279TIP3    H224802   0.011   5.690   3.569
 8280TIP3   OH224803   6.844   6.152   5.321
 8280TIP3    H124804   6.889   6.081   5.276
 8280TIP3    H224805   6.910   6.189   5.380
 8281TIP3   OH224806   2.676   5.186   0.487
 8281TIP3    H124807   2.590   5.153   0.513
 8281TIP3    H224808   2.730   5.108   0.479
 8282TIP3   OH224809   6.383   3.123   2.668
 8282TIP3    H124810   6.316   3.180   2.706
 8282TIP3    H224811   6.367   3.037   2.708
 8283TIP3   OH224812   4.139   0.201   2.719
 8283TIP3    H124813   4.090   0.232   2.795
 8283TIP3    H224814   4.218   0.255   2.718
 8284TIP3   OH224815   4.332   6.151   5.172
 8284TIP3    H124816   4.368   6.113   5.092
 8284TIP3    H224817   4.296   6.235   5.144
 8285TIP3   OH224818   2.314   2.153   1.079
 8285TIP3    H124819   2.365   2.103   1.143
 8285TIP3    H224820   2.254   2.205   1.132
 8286TIP3   OH224821   0.704   3.761   5.691
 8286TIP3    H124822   0.732   3.686   5.743
 8286TIP3    H224823   0.608   3.756   5.691
 8287TIP3   OH224824   3.231   4.671   2.271
 8287TIP3    H124825   3.185   4.626   2.342
 8287TIP3    H224826   3.258   4.755   2.308
 8288TIP3   OH224827   4.478   0.747   5.314
 8288TIP3    H124828   4.518   0.784   5.392
 8288TIP3    H224829   4.478   0.819   5.250
 8289TIP3   OH224830   2.954   6.278   1.738
 8289TIP3    H124831   2.865   6.312   1.738
 8289TIP3    H224832   2.949   6.195   1.785
 8290TIP3   OH224833   2.188   5.373   0.522
 8290TIP3    H124834   2.162   5.332   0.440
 8290TIP3    H224835   2.123   5.443   0.535
 8291TIP3   OH224836   3.516   6.101   5.553
 8291TIP3    H124837   3.553   6.187   5.534
 8291TIP3    H224838   3.435   6.119   5.601
 8292TIP3   OH224839   2.492   1.035   2.050
 8292TIP3    H124840   2.483   0.942   2.072
 8292TIP3    H224841   2.429   1.079   2.107
 8293TIP3   OH224842   1.956   4.262   3.964
 8293TIP3    H124843   1.919   4.186   4.010
 8293TIP3    H224844   2.049   4.260   3.984
 8294TIP3   OH224845   4.806   5.160   3.050
 8294TIP3    H124846   4.831   5.206   2.969
 8294TIP3    H224847   4.782   5.073   3.020
 8295TIP3   OH224848   1.202   4.951   0.130
 8295TIP3    H124849   1.191   4.856   0.126
 8295TIP3    H224850   1.210   4.970   0.224
 8296TIP3   OH224851   5.571   3.030   4.041
 8296TIP3    H124852   5.647   2.977   4.065
 8296TIP3    H224853   5.496   2.982   4.076
 8297TIP3   OH224854   3.839   5.230   2.527
 8297TIP3    H124855   3.852   5.323   2.506
 8297TIP3    H224856   3.849   5.226   2.623
 8298TIP3   OH224857   2.552   3.468   0.519
 8298TIP3    H124858   2.565   3.442   0.611
 8298TIP3    H224859   2.500   3.548   0.524
 8299TIP3   OH224860   7.110   5.957   5.627
 8299TIP3    H124861   7.187   5.987   5.676
 8299TIP3    H224862   7.088   6.030   5.570
 8300TIP3   OH224863   5.969   0.546   1.143
 8300TIP3    H124864   5.962   0.452   1.131
 8300TIP3    H224865   5.911   0.583   1.076
 8301TIP3   OH224866   3.708   6.092   2.363
 8301TIP3    H124867   3.636   6.030   2.371
 8301TIP3    H224868   3.772   6.048   2.307
 8302TIP3   OH224869   2.385   0.942   1.628
 8302TIP3    H124870   2.364   1.021   1.677
 8302TIP3    H224871   2.384   0.969   1.536
 8303TIP3   OH224872   3.301   3.572   3.503
 8303TIP3    H124873   3.339   3.496   3.459
 8303TIP3    H224874   3.348   3.647   3.467
 8304TIP3   OH224875   4.521   0.815   1.626
 8304TIP3    H124876   4.474   0.814   1.543
 8304TIP3    H224877   4.528   0.907   1.649
 8305TIP3   OH224878   2.670   2.222   2.380
 8305TIP3    H124879   2.596   2.256   2.330
 8305TIP3    H224880   2.633   2.202   2.466
 8306TIP3   OH224881   4.257   1.742   1.723
 8306TIP3    H124882   4.346   1.777   1.723
 8306TIP3    H224883   4.224   1.759   1.634
 8307TIP3   OH224884   4.519   6.352   5.698
 8307TIP3    H124885   4.510   6.408   5.775
 8307TIP3    H224886   4.613   6.337   5.689
 8308TIP3   OH224887   5.307   5.090   5.075
 8308TIP3    H124888   5.242   5.021   5.061
 8308TIP3    H224889   5.313   5.098   5.171
 8309TIP3   OH224890   6.745   3.622   5.065
 8309TIP3    H124891   6.668   3.679   5.072
 8309TIP3    H224892   6.814   3.670   5.111
 8310TIP3   OH224893   1.644   1.289   0.611
 8310TIP3    H124894   1.585   1.231   0.563
 8310TIP3    H224895   1.667   1.357   0.549
 8311TIP3   OH224896   7.135   6.613   0.531
 8311TIP3    H124897   7.173   6.526   0.539
 8311TIP3    H224898   7.120   6.624   0.437
 8312TIP3   OH224899   2.506   4.638   4.103
 8312TIP3    H124900   2.527   4.688   4.182
 8312TIP3    H224901   2.523   4.547   4.128
 8313TIP3   OH224902   2.895   0.692   0.584
 8313TIP3    H124903   2.982   0.729   0.596
 8313TIP3    H224904   2.900   0.605   0.621
 8314TIP3   OH224905   1.621   3.588   2.404
 8314TIP3    H124906   1.572   3.602   2.323
 8314TIP3    H224907   1.556   3.599   2.474
 8315TIP3   OH224908   2.559   5.658   5.846
 8315TIP3    H124909   2.633   5.622   5.896
 8315TIP3    H224910   2.593   5.668   5.757
 8316TIP3   OH224911   2.454   6.669   1.935
 8316TIP3    H124912   2.500   6.654   1.852
 8316TIP3    H224913   2.411   6.753   1.924
 8317TIP3   OH224914   5.831   1.173   5.178
 8317TIP3    H124915   5.778   1.206   5.106
 8317TIP3    H224916   5.894   1.114   5.137
 8318TIP3   OH224917   0.090   4.562   5.116
 8318TIP3    H124918   0.026   4.632   5.126
 8318TIP3    H224919   0.170   4.597   5.154
 8319TIP3   OH224920   5.467   6.557   3.918
 8319TIP3    H124921   5.464   6.466   3.945
 8319TIP3    H224922   5.556   6.570   3.887
 8320TIP3   OH224923   1.088   0.308   0.978
 8320TIP3    H124924   1.086   0.400   1.004
 8320TIP3    H224925   1.011   0.297   0.923
 8321TIP3   OH224926   6.879   4.961   4.057
 8321TIP3    H124927   6.800   4.982   4.107
 8321TIP3    H224928   6.899   4.870   4.081
 8322TIP3   OH224929   3.662   1.867   0.309
 8322TIP3    H124930   3.577   1.884   0.349
 8322TIP3    H224931   3.645   1.860   0.216
 8323TIP3   OH224932   4.964   3.568   0.289
 8323TIP3    H124933   4.945   3.480   0.258
 8323TIP3    H224934   5.002   3.555   0.376
 8324TIP3   OH224935   0.105   1.744   4.290
 8324TIP3    H124936   0.102   1.823   4.344
 8324TIP3    H224937   0.116   1.672   4.352
 8325TIP3   OH224938   5.891   0.147   5.105
 8325TIP3    H124939   5.798   0.151   5.126
 8325TIP3    H224940   5.935   0.147   5.190
 8326TIP3   OH224941   2.960   1.505   3.867
 8326TIP3    H124942   3.010   1.439   3.916
 8326TIP3    H224943   2.869   1.478   3.878
 8327TIP3   OH224944   3.894   5.741   2.697
 8327TIP3    H124945   3.892   5.648   2.673
 8327TIP3    H224946   3.893   5.787   2.613
 8328TIP3   OH224947   0.300   4.984   5.430
 8328TIP3    H124948   0.280   4.936   5.511
 8328TIP3    H224949   0.302   5.076   5.457
 8329TIP3   OH224950   2.909   5.837   3.241
 8329TIP3    H124951   2.842   5.856   3.175
 8329TIP3    H224952   2.991   5.843   3.193
 8330TIP3   OH224953   2.063   4.268   1.728
 8330TIP3    H124954   2.116   4.280   1.807
 8330TIP3    H224955   2.124   4.239   1.661
 8331TIP3   OH224956   0.226   1.090   2.567
 8331TIP3    H124957   0.205   1.104   2.474
 8331TIP3    H224958   0.214   1.176   2.607
 8332TIP3   OH224959   3.934   1.470   0.679
 8332TIP3    H124960   3.884   1.551   0.688
 8332TIP3    H224961   3.996   1.471   0.751
 8333TIP3   OH224962   5.326   3.204   1.204
 8333TIP3    H124963   5.277   3.124   1.221
 8333TIP3    H224964   5.413   3.187   1.241
 8334TIP3   OH224965   2.914   2.573   2.474
 8334TIP3    H124966   2.862   2.650   2.499
 8334TIP3    H224967   2.931   2.585   2.380
 8335TIP3   OH224968   1.579   6.186   0.665
 8335TIP3    H124969   1.606   6.211   0.577
 8335TIP3    H224970   1.532   6.262   0.699
 8336TIP3   OH224971   5.795   0.575   4.580
 8336TIP3    H124972   5.833   0.615   4.502
 8336TIP3    H224973   5.787   0.646   4.643
 8337TIP3   OH224974   4.857   0.564   0.695
 8337TIP3    H124975   4.898   0.563   0.782
 8337TIP3    H224976   4.928   0.588   0.636
 8338TIP3   OH224977   5.419   0.525   0.342
 8338TIP3    H124978   5.509   0.496   0.328
 8338TIP3    H224979   5.428   0.617   0.366
 8339TIP3   OH224980   6.224   5.071   4.882
 8339TIP3    H124981   6.137   5.056   4.921
 8339TIP3    H224982   6.228   5.165   4.868
 8340TIP3   OH224983   0.999   3.454   3.242
 8340TIP3    H124984   0.907   3.433   3.224
 8340TIP3    H224985   0.996   3.517   3.314
 8341TIP3   OH224986   2.958   3.078   1.870
 8341TIP3    H124987   3.043   3.117   1.853
 8341TIP3    H224988   2.929   3.045   1.785
 8342TIP3   OH224989   5.019   5.721   4.680
 8342TIP3    H124990   4.960   5.646   4.687
 8342TIP3    H224991   5.027   5.737   4.586
 8343TIP3   OH224992   6.715   6.444   0.781
 8343TIP3    H124993   6.666   6.524   0.765
 8343TIP3    H224994   6.768   6.463   0.859
 8344TIP3   OH224995   0.517   2.683   5.257
 8344TIP3    H124996   0.568   2.603   5.242
 8344TIP3    H224997   0.454   2.658   5.325
 8345TIP3   OH224998   1.038   1.655   0.648
 8345TIP3    H124999   0.988   1.659   0.567
 8345TIP3    H225000   0.984   1.701   0.712
 8346TIP3   OH225001   2.270   4.260   4.596
 8346TIP3    H125002   2.339   4.220   4.649
 8346TIP3    H225003   2.312   4.274   4.511
 8347TIP3   OH225004   6.182   5.367   2.254
 8347TIP3    H125005   6.212   5.288   2.300
 8347TIP3    H225006   6.116   5.335   2.192
 8348TIP3   OH225007   7.133   0.833   5.376
 8348TIP3    H125008   7.223   0.802   5.385
 8348TIP3    H225009   7.080   0.768   5.423
 8349TIP3   OH225010   0.238   5.626   5.335
 8349TIP3    H125011   0.297   5.599   5.265
 8349TIP3    H225012   0.295   5.673   5.397
 8350TIP3   OH225013   0.787   4.167   3.600
 8350TIP3    H125014   0.756   4.125   3.681
 8350TIP3    H225015   0.847   4.102   3.561
 8351TIP3   OH225016   5.014   0.555   0.918
 8351TIP3    H125017   5.091   0.501   0.899
 8351TIP3    H225018   5.035   0.599   1.000
 8352TIP3   OH225019   2.595   0.244   2.968
 8352TIP3    H125020   2.590   0.194   3.050
 8352TIP3    H225021   2.527   0.208   2.913
 8353TIP3   OH225022   5.518   1.471   4.477
 8353TIP3    H125023   5.517   1.437   4.387
 8353TIP3    H225024   5.448   1.423   4.521
 8354TIP3   OH225025   5.486   4.793   2.889
 8354TIP3    H125026   5.428   4.771   2.962
 8354TIP3    H225027   5.438   4.859   2.840
 8355TIP3   OH225028   5.074   1.584   1.881
 8355TIP3    H125029   5.158   1.552   1.914
 8355TIP3    H225030   5.050   1.523   1.811
 8356TIP3   OH225031   4.040   4.690   1.201
 8356TIP3    H125032   4.073   4.659   1.285
 8356TIP3    H225033   4.066   4.622   1.139
 8357TIP3   OH225034   3.960   4.661   1.531
 8357TIP3    H125035   4.033   4.626   1.582
 8357TIP3    H225036   3.914   4.584   1.498
 8358TIP3   OH225037   1.292   4.533   1.920
 8358TIP3    H125038   1.244   4.485   1.853
 8358TIP3    H225039   1.251   4.507   2.003
 8359TIP3   OH225040   5.456   2.309   3.791
 8359TIP3    H125041   5.484   2.246   3.724
 8359TIP3    H225042   5.388   2.361   3.749
 8360TIP3   OH225043   6.591   6.085   5.364
 8360TIP3    H125044   6.682   6.105   5.345
 8360TIP3    H225045   6.561   6.157   5.420
 8361TIP3   OH225046   1.050   3.808   5.159
 8361TIP3    H125047   1.122   3.754   5.191
 8361TIP3    H225048   1.040   3.877   5.224
 8362TIP3   OH225049   2.958   0.361   2.170
 8362TIP3    H125050   3.000   0.277   2.184
 8362TIP3    H225051   2.869   0.339   2.142
 8363TIP3   OH225052   5.290   4.715   0.926
 8363TIP3    H125053   5.346   4.792   0.926
 8363TIP3    H225054   5.218   4.736   0.866
 8364TIP3   OH225055   0.832   0.326   0.865
 8364TIP3    H125056   0.776   0.262   0.908
 8364TIP3    H225057   0.824   0.307   0.771
 8365TIP3   OH225058   6.329   0.629   0.685
 8365TIP3    H125059   6.276   0.632   0.605
 8365TIP3    H225060   6.275   0.584   0.749
 8366TIP3   OH225061   7.046   0.362   3.532
 8366TIP3    H125062   7.065   0.444   3.486
 8366TIP3    H225063   7.028   0.388   3.622
 8367TIP3   OH225064   3.857   5.231   4.234
 8367TIP3    H125065   3.897   5.225   4.321
 8367TIP3    H225066   3.900   5.306   4.193
 8368TIP3   OH225067   5.195   6.434   4.522
 8368TIP3    H125068   5.251   6.485   4.580
 8368TIP3    H225069   5.250   6.361   4.493
 8369TIP3   OH225070   5.086   5.581   4.933
 8369TIP3    H125071   5.131   5.512   4.982
 8369TIP3    H225072   5.097   5.556   4.842
 8370TIP3   OH225073   1.726   6.040   0.901
 8370TIP3    H125074   1.662   6.078   0.840
 8370TIP3    H225075   1.679   5.967   0.941
 8371TIP3   OH225076   4.392   3.604   3.742
 8371TIP3    H125077   4.435   3.578   3.660
 8371TIP3    H225078   4.342   3.682   3.719
 8372TIP3   OH225079   1.283  -0.014   2.607
 8372TIP3    H125080   1.293   0.081   2.594
 8372TIP3    H225081   1.310  -0.028   2.698
 8373TIP3   OH225082   6.552   3.920   1.367
 8373TIP3    H125083   6.458   3.933   1.355
 8373TIP3    H225084   6.592   3.968   1.294
 8374TIP3   OH225085   6.364   1.784   1.180
 8374TIP3    H125086   6.455   1.759   1.167
 8374TIP3    H225087   6.367   1.848   1.252
 8375TIP3   OH225088   5.997   2.083   5.081
 8375TIP3    H125089   6.082   2.126   5.084
 8375TIP3    H225090   5.995   2.029   5.160
 8376TIP3   OH225091   1.517   4.191   5.681
 8376TIP3    H125092   1.531   4.102   5.649
 8376TIP3    H225093   1.496   4.181   5.774
 8377TIP3   OH225094   2.274   5.117   1.392
 8377TIP3    H125095   2.210   5.048   1.376
 8377TIP3    H225096   2.313   5.134   1.307
 8378TIP3   OH225097   7.095   6.693   3.066
 8378TIP3    H125098   7.182   6.662   3.092
 8378TIP3    H225099   7.045   6.696   3.147
 8379TIP3   OH225100   1.384   3.439   1.070
 8379TIP3    H125101   1.336   3.515   1.104
 8379TIP3    H225102   1.410   3.390   1.148
 8380TIP3   OH225103   5.099   5.942   5.573
 8380TIP3    H125104   5.141   5.864   5.610
 8380TIP3    H225105   5.125   6.013   5.632
 8381TIP3   OH225106   2.452   3.872   2.958
 8381TIP3    H125107   2.514   3.852   3.028
 8381TIP3    H225108   2.406   3.950   2.988
 8382TIP3   OH225109   3.800   2.928   2.777
 8382TIP3    H125110   3.887   2.908   2.811
 8382TIP3    H225111   3.784   2.862   2.710
 8383TIP3   OH225112   0.024   0.147   4.537
 8383TIP3    H125113   0.065   0.100   4.465
 8383TIP3    H225114  -0.015   0.079   4.591
 8384TIP3   OH225115   0.394   2.206   0.083
 8384TIP3    H125116   0.481   2.186   0.048
 8384TIP3    H225117   0.410   2.257   0.162
 8385TIP3   OH225118   2.113   4.079   4.198
 8385TIP3    H125119   2.110   4.033   4.114
 8385TIP3    H225120   2.186   4.039   4.245
 8386TIP3   OH225121   4.891   2.958   2.912
 8386TIP3    H125122   4.867   2.897   2.842
 8386TIP3    H225123   4.833   3.033   2.900
 8387TIP3   OH225124   4.016   4.902   1.767
 8387TIP3    H125125   4.070   4.873   1.693
 8387TIP3    H225126   4.033   4.838   1.836
 8388TIP3   OH225127   1.965   1.354   5.364
 8388TIP3    H125128   2.014   1.292   5.310
 8388TIP3    H225129   1.877   1.355   5.325
 8389TIP3   OH225130   2.850   4.949   0.522
 8389TIP3    H125131   2.861   4.870   0.468
 8389TIP3    H225132   2.911   4.936   0.595
 8390TIP3   OH225133   4.383   3.213   1.551
 8390TIP3    H125134   4.307   3.260   1.515
 8390TIP3    H225135   4.416   3.271   1.620
 8391TIP3   OH225136   2.577   0.148   4.637
 8391TIP3    H125137   2.588   0.222   4.698
 8391TIP3    H225138   2.666   0.122   4.616
 8392TIP3   OH225139   0.436   3.820   5.459
 8392TIP3    H125140   0.416   3.759   5.529
 8392TIP3    H225141   0.492   3.770   5.399
 8393TIP3   OH225142   5.239   1.858   3.222
 8393TIP3    H125143   5.235   1.810   3.139
 8393TIP3    H225144   5.298   1.931   3.205
 8394TIP3   OH225145   2.390   6.324   4.454
 8394TIP3    H125146   2.406   6.235   4.424
 8394TIP3    H225147   2.328   6.360   4.391
 8395TIP3   OH225148   4.298   5.856   4.306
 8395TIP3    H125149   4.287   5.947   4.331
 8395TIP3    H225150   4.211   5.817   4.319
 8396TIP3   OH225151   3.057   3.208   3.163
 8396TIP3    H125152   3.145   3.189   3.129
 8396TIP3    H225153   3.004   3.219   3.084
 8397TIP3   OH225154   1.906   3.626   1.856
 8397TIP3    H125155   1.974   3.693   1.858
 8397TIP3    H225156   1.895   3.605   1.763
 8398TIP3   OH225157   4.754   5.778   4.161
 8398TIP3    H125158   4.742   5.683   4.156
 8398TIP3    H225159   4.669   5.812   4.189
 8399TIP3   OH225160   2.144   4.777   4.898
 8399TIP3    H125161   2.075   4.711   4.890
 8399TIP3    H225162   2.104   4.848   4.949
 8400TIP3   OH225163   5.089   4.909   3.744
 8400TIP3    H125164   5.070   4.980   3.683
 8400TIP3    H225165   5.064   4.830   3.697
 8401TIP3   OH225166   4.414   6.617   5.476
 8401TIP3    H125167   4.437   6.609   5.383
 8401TIP3    H225168   4.494   6.651   5.517
 8402TIP3   OH225169   5.981   5.042   3.602
 8402TIP3    H125170   5.909   5.045   3.665
 8402TIP3    H225171   6.021   5.129   3.606
 8403TIP3   OH225172   4.387   5.039   2.635
 8403TIP3    H125173   4.471   5.072   2.668
 8403TIP3    H225174   4.322   5.076   2.695
 8404TIP3   OH225175   0.065   4.360   5.488
 8404TIP3    H125176   0.093   4.281   5.442
 8404TIP3    H225177   0.109   4.356   5.572
 8405TIP3   OH225178   0.849   1.156   3.103
 8405TIP3    H125179   0.875   1.247   3.087
 8405TIP3    H225180   0.925   1.104   3.077
 8406TIP3   OH225181   0.555   6.462   5.632
 8406TIP3    H125182   0.626   6.522   5.610
 8406TIP3    H225183   0.547   6.468   5.727
 8407TIP3   OH225184   5.760   2.219   4.051
 8407TIP3    H125185   5.805   2.245   3.971
 8407TIP3    H225186   5.807   2.141   4.081
 8408TIP3   OH225187   0.335   6.542   4.673
 8408TIP3    H125188   0.334   6.611   4.607
 8408TIP3    H225189   0.300   6.465   4.628
 8409TIP3   OH225190   2.084   3.022   3.346
 8409TIP3    H125191   2.141   3.050   3.275
 8409TIP3    H225192   2.036   3.101   3.371
 8410TIP3   OH225193   4.447   2.856   0.014
 8410TIP3    H125194   4.472   2.769  -0.016
 8410TIP3    H225195   4.509   2.876   0.084
 8411TIP3   OH225196   0.362   1.529   2.745
 8411TIP3    H125197   0.392   1.582   2.672
 8411TIP3    H225198   0.320   1.592   2.804
 8412TIP3   OH225199   0.304   4.087   2.252
 8412TIP3    H125200   0.295   4.115   2.343
 8412TIP3    H225201   0.217   4.053   2.229
 8413TIP3   OH225202   5.690   0.328   4.600
 8413TIP3    H125203   5.732   0.301   4.682
 8413TIP3    H225204   5.722   0.417   4.585
 8414TIP3   OH225205   3.385   6.025   2.377
 8414TIP3    H125206   3.429   6.004   2.295
 8414TIP3    H225207   3.322   5.955   2.389
 8415TIP3   OH225208   4.791   3.991   4.272
 8415TIP3    H125209   4.811   3.975   4.180
 8415TIP3    H225210   4.873   3.972   4.318
 8416TIP3   OH225211   2.419   4.593   5.092
 8416TIP3    H125212   2.366   4.668   5.063
 8416TIP3    H225213   2.448   4.618   5.180
 8417TIP3   OH225214   3.443   1.628   5.835
 8417TIP3    H125215   3.502   1.700   5.859
 8417TIP3    H225216   3.372   1.670   5.787
 8418TIP3   OH225217   5.476   6.648   5.510
 8418TIP3    H125218   5.494   6.741   5.524
 8418TIP3    H225219   5.494   6.607   5.594
 8419TIP3   OH225220   3.995   3.844   1.853
 8419TIP3    H125221   4.068   3.870   1.797
 8419TIP3    H225222   3.917   3.878   1.809
 8420TIP3   OH225223   2.214   1.872   3.334
 8420TIP3    H125224   2.288   1.879   3.395
 8420TIP3    H225225   2.182   1.962   3.325
 8421TIP3   OH225226   3.558   4.386   1.498
 8421TIP3    H125227   3.614   4.458   1.466
 8421TIP3    H225228   3.540   4.335   1.419
 8422TIP3   OH225229   5.835   3.677   5.028
 8422TIP3    H125230   5.925   3.682   4.995
 8422TIP3    H225231   5.840   3.620   5.104
 8423TIP3   OH225232   0.078   1.025  -0.008
 8423TIP3    H125233   0.147   1.056   0.051
 8423TIP3    H225234  -0.002   1.066   0.025
 8424TIP3   OH225235   5.805   0.973   3.722
 8424TIP3    H125236   5.866   1.001   3.791
 8424TIP3    H225237   5.801   0.878   3.731
 8425TIP3   OH225238   5.297   1.097   1.939
 8425TIP3    H125239   5.306   1.015   1.988
 8425TIP3    H225240   5.386   1.133   1.937
 8426TIP3   OH225241   5.278   0.772   1.291
 8426TIP3    H125242   5.215   0.790   1.361
 8426TIP3    H225243   5.364   0.785   1.332
 8427TIP3   OH225244   2.824   5.041   5.649
 8427TIP3    H125245   2.837   4.971   5.713
 8427TIP3    H225246   2.816   5.121   5.701
 8428TIP3   OH225247   4.300   1.031   1.390
 8428TIP3    H125248   4.255   0.979   1.322
 8428TIP3    H225249   4.390   1.000   1.388
 8429TIP3   OH225250   3.595   5.106   5.686
 8429TIP3    H125251   3.577   5.014   5.667
 8429TIP3    H225252   3.512   5.150   5.671
 8430TIP3   OH225253   4.807   1.229   1.362
 8430TIP3    H125254   4.712   1.235   1.353
 8430TIP3    H225255   4.836   1.182   1.283
 8431TIP3   OH225256   4.463   3.282   5.216
 8431TIP3    H125257   4.453   3.328   5.133
 8431TIP3    H225258   4.463   3.189   5.192
 8432TIP3   OH225259   4.663   6.682   5.550
 8432TIP3    H125260   4.667   6.664   5.644
 8432TIP3    H225261   4.748   6.655   5.516
 8433TIP3   OH225262   3.937   6.269   1.208
 8433TIP3    H125263   3.954   6.232   1.121
 8433TIP3    H225264   3.844   6.253   1.223
 8434TIP3   OH225265   4.282   2.781   3.442
 8434TIP3    H125266   4.247   2.758   3.529
 8434TIP3    H225267   4.217   2.748   3.381
 8435TIP3   OH225268   5.300   2.267   2.342
 8435TIP3    H125269   5.333   2.200   2.282
 8435TIP3    H225270   5.378   2.298   2.389
 8436TIP3   OH225271   4.933   6.594   2.073
 8436TIP3    H125272   4.976   6.679   2.081
 8436TIP3    H225273   4.840   6.613   2.087
 8437TIP3   OH225274   4.339   4.293   1.701
 8437TIP3    H125275   4.348   4.294   1.606
 8437TIP3    H225276   4.409   4.351   1.732
 8438TIP3   OH225277   4.230   4.183   1.426
 8438TIP3    H125278   4.280   4.103   1.438
 8438TIP3    H225279   4.146   4.153   1.391
 8439TIP3   OH225280   3.973   3.651   3.186
 8439TIP3    H125281   4.031   3.714   3.143
 8439TIP3    H225282   4.024   3.618   3.260
 8440TIP3   OH225283   4.730   1.436   5.182
 8440TIP3    H125284   4.766   1.391   5.105
 8440TIP3    H225285   4.706   1.366   5.242
 8441TIP3   OH225286   4.884   0.633   5.644
 8441TIP3    H125287   4.798   0.602   5.674
 8441TIP3    H225288   4.864   0.692   5.571
 8442TIP3   OH225289   3.515   4.169   3.505
 8442TIP3    H125290   3.598   4.121   3.507
 8442TIP3    H225291   3.503   4.192   3.412
 8443TIP3   OH225292   5.722   4.522   5.749
 8443TIP3    H125293   5.764   4.539   5.833
 8443TIP3    H225294   5.702   4.428   5.751
 8444TIP3   OH225295   4.723   4.884   2.995
 8444TIP3    H125296   4.678   4.828   3.059
 8444TIP3    H225297   4.803   4.836   2.973
 8445TIP3   OH225298   7.166   6.454   5.288
 8445TIP3    H125299   7.178   6.549   5.285
 8445TIP3    H225300   7.072   6.442   5.295
 8446TIP3   OH225301   0.904   6.706   4.578
 8446TIP3    H125302   0.819   6.716   4.621
 8446TIP3    H225303   0.966   6.704   4.651
 8447TIP3   OH225304   4.593   1.050   3.560
 8447TIP3    H125305   4.585   1.026   3.653
 8447TIP3    H225306   4.647   1.129   3.560
 8448TIP3   OH225307   4.182   1.697   1.472
 8448TIP3    H125308   4.265   1.656   1.447
 8448TIP3    H225309   4.115   1.631   1.454
 8449TIP3   OH225310   2.827   2.337   5.140
 8449TIP3    H125311   2.824   2.430   5.116
 8449TIP3    H225312   2.894   2.300   5.083
 8450TIP3   OH225313   6.716   4.874   3.146
 8450TIP3    H125314   6.786   4.939   3.148
 8450TIP3    H225315   6.678   4.877   3.234
 8451TIP3   OH225316   4.804   1.717   2.109
 8451TIP3    H125317   4.808   1.794   2.167
 8451TIP3    H225318   4.879   1.664   2.135
 8452TIP3   OH225319   2.640   5.592   4.768
 8452TIP3    H125320   2.727   5.624   4.742
 8452TIP3    H225321   2.628   5.512   4.718
 8453TIP3   OH225322   1.546   3.895   1.031
 8453TIP3    H125323   1.628   3.860   0.998
 8453TIP3    H225324   1.570   3.974   1.079
 8454TIP3   OH225325   3.475   4.378   4.568
 8454TIP3    H125326   3.381   4.359   4.571
 8454TIP3    H225327   3.481   4.461   4.521
 8455TIP3   OH225328   5.296   4.954   0.551
 8455TIP3    H125329   5.264   4.888   0.490
 8455TIP3    H225330   5.379   4.919   0.583
 8456TIP3   OH225331   3.044   0.204   5.372
 8456TIP3    H125332   3.055   0.191   5.278
 8456TIP3    H225333   2.969   0.150   5.395
 8457TIP3   OH225334   5.662   2.468   3.866
 8457TIP3    H125335   5.695   2.433   3.783
 8457TIP3    H225336   5.582   2.418   3.883
 8458TIP3   OH225337   6.009   3.091   1.429
 8458TIP3    H125338   6.047   3.113   1.514
 8458TIP3    H225339   6.043   3.157   1.369
 8459TIP3   OH225340   5.649   2.761   0.996
 8459TIP3    H125341   5.587   2.812   1.047
 8459TIP3    H225342   5.599   2.730   0.921
 8460TIP3   OH225343   2.107   6.790   0.718
 8460TIP3    H125344   2.027   6.818   0.762
 8460TIP3    H225345   2.148   6.729   0.780
 8461TIP3   OH225346   2.105   0.716   3.918
 8461TIP3    H125347   2.052   0.704   3.839
 8461TIP3    H225348   2.141   0.630   3.937
 8462TIP3   OH225349   1.120   3.680   1.612
 8462TIP3    H125350   1.092   3.631   1.689
 8462TIP3    H225351   1.040   3.722   1.581
 8463TIP3   OH225352   6.811   2.005   2.389
 8463TIP3    H125353   6.787   1.960   2.308
 8463TIP3    H225354   6.884   2.061   2.363
 8464TIP3   OH225355   2.002   0.324   1.616
 8464TIP3    H125356   2.022   0.237   1.652
 8464TIP3    H225357   2.034   0.385   1.683
 8465TIP3   OH225358   6.642   1.114   0.639
 8465TIP3    H125359   6.640   1.145   0.730
 8465TIP3    H225360   6.566   1.157   0.598
 8466TIP3   OH225361   3.293   4.701   3.572
 8466TIP3    H125362   3.381   4.698   3.534
 8466TIP3    H225363   3.304   4.749   3.654
 8467TIP3   OH225364   0.647   1.861   2.673
 8467TIP3    H125365   0.732   1.852   2.629
 8467TIP3    H225366   0.600   1.782   2.649
 8468TIP3   OH225367   3.211   0.914   0.372
 8468TIP3    H125368   3.172   0.888   0.455
 8468TIP3    H225369   3.237   0.832   0.330
 8469TIP3   OH225370   0.670   1.173   2.521
 8469TIP3    H125371   0.682   1.130   2.437
 8469TIP3    H225372   0.616   1.113   2.572
 8470TIP3   OH225373   1.062   3.669   3.429
 8470TIP3    H125374   1.099   3.679   3.342
 8470TIP3    H225375   1.014   3.751   3.444
 8471TIP3   OH225376   4.148   3.232   2.813
 8471TIP3    H125377   4.077   3.195   2.759
 8471TIP3    H225378   4.119   3.320   2.834
 8472TIP3   OH225379   4.007   5.251   1.005
 8472TIP3    H125380   3.913   5.233   1.012
 8472TIP3    H225381   4.012   5.342   0.975
 8473TIP3   OH225382   0.465   5.289   4.888
 8473TIP3    H125383   0.455   5.291   4.793
 8473TIP3    H225384   0.398   5.226   4.917
 8474TIP3   OH225385   5.500   3.535   1.395
 8474TIP3    H125386   5.470   3.601   1.458
 8474TIP3    H225387   5.495   3.452   1.443
 8475TIP3   OH225388   5.378   3.239   2.414
 8475TIP3    H125389   5.319   3.302   2.455
 8475TIP3    H225390   5.385   3.168   2.478
 8476TIP3   OH225391   3.461   6.720   4.546
 8476TIP3    H125392   3.442   6.802   4.500
 8476TIP3    H225393   3.410   6.726   4.627
 8477TIP3   OH225394   3.414   1.714   0.035
 8477TIP3    H125395   3.350   1.769   0.081
 8477TIP3    H225396   3.374   1.627   0.034
 8478TIP3   OH225397   0.902   6.095   2.399
 8478TIP3    H125398   0.955   6.168   2.366
 8478TIP3    H225399   0.965   6.036   2.440
 8479TIP3   OH225400   2.393   0.809   5.248
 8479TIP3    H125401   2.313   0.843   5.208
 8479TIP3    H225402   2.362   0.743   5.310
 8480TIP3   OH225403   2.811   6.818   5.523
 8480TIP3    H125404   2.741   6.861   5.474
 8480TIP3    H225405   2.863   6.773   5.456
 8481TIP3   OH225406   3.465   3.020   4.570
 8481TIP3    H125407   3.558   3.001   4.572
 8481TIP3    H225408   3.453   3.076   4.492
 8482TIP3   OH225409   3.282   6.275   1.667
 8482TIP3    H125410   3.200   6.227   1.678
 8482TIP3    H225411   3.271   6.355   1.719
 8483TIP3   OH225412   6.747   5.000   2.215
 8483TIP3    H125413   6.683   4.948   2.263
 8483TIP3    H225414   6.830   4.982   2.259
 8484TIP3   OH225415   1.336   4.589   2.862
 8484TIP3    H125416   1.406   4.652   2.843
 8484TIP3    H225417   1.344   4.524   2.792
 8485TIP3   OH225418   2.978   5.169   1.493
 8485TIP3    H125419   2.962   5.251   1.539
 8485TIP3    H225420   2.890   5.137   1.472
 8486TIP3   OH225421   0.035   4.534   1.806
 8486TIP3    H125422   0.052   4.450   1.848
 8486TIP3    H225423   0.036   4.597   1.877
 8487TIP3   OH225424   2.391   5.568   4.325
 8487TIP3    H125425   2.398   5.543   4.233
 8487TIP3    H225426   2.479   5.555   4.360
 8488TIP3   OH225427   2.334   5.659   1.058
 8488TIP3    H125428   2.243   5.690   1.057
 8488TIP3    H225429   2.343   5.611   0.976
 8489TIP3   OH225430   2.795   1.527   0.194
 8489TIP3    H125431   2.879   1.517   0.148
 8489TIP3    H225432   2.753   1.442   0.187
 8490TIP3   OH225433   6.023   5.837   1.897
 8490TIP3    H125434   6.029   5.889   1.977
 8490TIP3    H225435   5.929   5.831   1.880
 8491TIP3   OH225436   0.239   3.865   2.733
 8491TIP3    H125437   0.166   3.923   2.755
 8491TIP3    H225438   0.291   3.914   2.670
 8492TIP3   OH225439   5.718   1.260   4.732
 8492TIP3    H125440   5.766   1.180   4.750
 8492TIP3    H225441   5.749   1.288   4.646
 8493TIP3   OH225442   4.180   1.881   4.491
 8493TIP3    H125443   4.147   1.796   4.521
 8493TIP3    H225444   4.209   1.866   4.401
 8494TIP3   OH225445   6.658   1.989   1.355
 8494TIP3    H125446   6.623   1.901   1.339
 8494TIP3    H225447   6.627   2.041   1.280
 8495TIP3   OH225448   3.105   1.300   3.279
 8495TIP3    H125449   3.132   1.209   3.296
 8495TIP3    H225450   3.021   1.308   3.325
 8496TIP3   OH225451   3.426   2.852   3.118
 8496TIP3    H125452   3.446   2.803   3.038
 8496TIP3    H225453   3.487   2.818   3.183
 8497TIP3   OH225454   2.215   0.908   2.557
 8497TIP3    H125455   2.172   0.975   2.504
 8497TIP3    H225456   2.175   0.916   2.643
 8498TIP3   OH225457   6.245   4.659   2.358
 8498TIP3    H125458   6.162   4.698   2.330
 8498TIP3    H225459   6.296   4.650   2.278
 8499TIP3   OH225460   3.269   4.588   0.452
 8499TIP3    H125461   3.286   4.675   0.488
 8499TIP3    H225462   3.355   4.555   0.428
 8500TIP3   OH225463   4.696   3.793   3.535
 8500TIP3    H125464   4.764   3.851   3.570
 8500TIP3    H225465   4.624   3.851   3.512
 8501TIP3   OH225466   6.522   4.364   4.593
 8501TIP3    H125467   6.538   4.270   4.583
 8501TIP3    H225468   6.569   4.405   4.520
 8502TIP3   OH225469   3.632   0.958   0.709
 8502TIP3    H125470   3.541   0.968   0.683
 8502TIP3    H225471   3.665   1.048   0.717
 8503TIP3   OH225472   3.910   2.582   0.691
 8503TIP3    H125473   3.979   2.602   0.754
 8503TIP3    H225474   3.846   2.531   0.741
 8504TIP3   OH225475   3.932   2.024   5.800
 8504TIP3    H125476   3.898   2.084   5.866
 8504TIP3    H225477   3.899   2.058   5.717
 8505TIP3   OH225478   2.930   3.865   0.477
 8505TIP3    H125479   2.910   3.837   0.388
 8505TIP3    H225480   3.014   3.822   0.497
 8506TIP3   OH225481   3.755   2.773   3.533
 8506TIP3    H125482   3.672   2.781   3.580
 8506TIP3    H225483   3.758   2.681   3.504
 8507TIP3   OH225484   4.267   5.386   4.044
 8507TIP3    H125485   4.254   5.350   3.957
 8507TIP3    H225486   4.356   5.424   4.042
 8508TIP3   OH225487   0.990   1.393   0.884
 8508TIP3    H125488   0.908   1.345   0.895
 8508TIP3    H225489   1.045   1.337   0.830
 8509TIP3   OH225490   3.450   2.478   0.776
 8509TIP3    H125491   3.371   2.512   0.817
 8509TIP3    H225492   3.444   2.383   0.788
 8510TIP3   OH225493   1.862   6.832   1.359
 8510TIP3    H125494   1.846   6.765   1.425
 8510TIP3    H225495   1.951   6.814   1.328
 8511TIP3   OH225496   5.990   3.981   1.324
 8511TIP3    H125497   5.935   3.903   1.322
 8511TIP3    H225498   5.954   4.037   1.255
 8512TIP3   OH225499   0.362   1.462   3.954
 8512TIP3    H125500   0.284   1.468   3.899
 8512TIP3    H225501   0.376   1.551   3.987
 8513TIP3   OH225502   6.788   4.057   4.177
 8513TIP3    H125503   6.850   3.989   4.205
 8513TIP3    H225504   6.773   4.039   4.084
 8514TIP3   OH225505   0.170   2.931   2.210
 8514TIP3    H125506   0.149   3.014   2.167
 8514TIP3    H225507   0.114   2.867   2.167
 8515TIP3   OH225508   0.316   1.331   1.022
 8515TIP3    H125509   0.256   1.259   1.046
 8515TIP3    H225510   0.262   1.410   1.030
 8516TIP3   OH225511   4.487   5.843   3.742
 8516TIP3    H125512   4.564   5.805   3.698
 8516TIP3    H225513   4.428   5.867   3.670
 8517TIP3   OH225514   3.601   3.656   0.255
 8517TIP3    H125515   3.600   3.703   0.172
 8517TIP3    H225516   3.549   3.710   0.315
 8518TIP3   OH225517   0.322   2.346   1.652
 8518TIP3    H125518   0.315   2.428   1.701
 8518TIP3    H225519   0.232   2.320   1.635
 8519TIP3   OH225520   5.134   5.668   3.666
 8519TIP3    H125521   5.205   5.666   3.602
 8519TIP3    H225522   5.149   5.589   3.719
 8520TIP3   OH225523   2.058   5.853   4.924
 8520TIP3    H125524   1.962   5.850   4.926
 8520TIP3    H225525   2.083   5.795   4.853
 8521TIP3   OH225526   0.174   5.629   1.096
 8521TIP3    H125527   0.158   5.664   1.183
 8521TIP3    H225528   0.122   5.548   1.092
 8522TIP3   OH225529   3.503   2.965   2.857
 8522TIP3    H125530   3.594   2.934   2.856
 8522TIP3    H225531   3.500   3.025   2.932
 8523TIP3   OH225532   6.231   3.810   3.857
 8523TIP3    H125533   6.199   3.726   3.891
 8523TIP3    H225534   6.282   3.847   3.929
 8524TIP3   OH225535   4.009   3.115   5.473
 8524TIP3    H125536   3.961   3.194   5.496
 8524TIP3    H225537   4.049   3.086   5.555
 8525TIP3   OH225538   2.691   2.860   3.364
 8525TIP3    H125539   2.736   2.781   3.393
 8525TIP3    H225540   2.741   2.890   3.288
 8526TIP3   OH225541   6.920   2.677   3.273
 8526TIP3    H125542   7.009   2.713   3.277
 8526TIP3    H225543   6.864   2.753   3.285
 8527TIP3   OH225544   3.625   1.537   2.199
 8527TIP3    H125545   3.588   1.611   2.246
 8527TIP3    H225546   3.679   1.577   2.130
 8528TIP3   OH225547   6.959   5.980   5.103
 8528TIP3    H125548   6.952   6.062   5.053
 8528TIP3    H225549   7.049   5.952   5.091
 8529TIP3   OH225550   4.337   1.059   3.448
 8529TIP3    H125551   4.426   1.055   3.483
 8529TIP3    H225552   4.298   1.135   3.491
 8530TIP3   OH225553   0.994   2.704   4.637
 8530TIP3    H125554   1.071   2.733   4.687
 8530TIP3    H225555   0.919   2.739   4.687
 8531TIP3   OH225556   5.920   6.599   2.317
 8531TIP3    H125557   5.846   6.625   2.371
 8531TIP3    H225558   5.907   6.505   2.302
 8532TIP3   OH225559   1.121   2.371   2.746
 8532TIP3    H125560   1.091   2.280   2.744
 8532TIP3    H225561   1.161   2.384   2.660
 8533TIP3   OH225562   3.705   6.751   5.559
 8533TIP3    H125563   3.793   6.717   5.574
 8533TIP3    H225564   3.678   6.784   5.644
 8534TIP3   OH225565   1.882   3.493   1.282
 8534TIP3    H125566   1.835   3.570   1.252
 8534TIP3    H225567   1.860   3.425   1.218
 8535TIP3   OH225568   1.057   3.610   5.389
 8535TIP3    H125569   0.999   3.685   5.394
 8535TIP3    H225570   1.123   3.627   5.456
 8536TIP3   OH225571   0.242   0.742   0.996
 8536TIP3    H125572   0.159   0.783   0.972
 8536TIP3    H225573   0.275   0.796   1.068
 8537TIP3   OH225574   4.442   1.669   2.386
 8537TIP3    H125575   4.423   1.639   2.297
 8537TIP3    H225576   4.532   1.640   2.403
 8538TIP3   OH225577   1.409   6.684   0.608
 8538TIP3    H125578   1.400   6.777   0.589
 8538TIP3    H225579   1.424   6.679   0.702
 8539TIP3   OH225580   1.525   4.931   1.484
 8539TIP3    H125581   1.448   4.891   1.524
 8539TIP3    H225582   1.596   4.912   1.545
 8540TIP3   OH225583   1.011   2.106   4.588
 8540TIP3    H125584   0.941   2.079   4.648
 8540TIP3    H225585   0.969   2.168   4.528
 8541TIP3   OH225586   5.545   3.588   0.728
 8541TIP3    H125587   5.469   3.581   0.786
 8541TIP3    H225588   5.520   3.657   0.665
 8542TIP3   OH225589   3.266   5.351   3.081
 8542TIP3    H125590   3.333   5.375   3.018
 8542TIP3    H225591   3.224   5.273   3.044
 8543TIP3   OH225592   6.001   0.463   1.918
 8543TIP3    H125593   6.012   0.558   1.919
 8543TIP3    H225594   5.976   0.441   2.008
 8544TIP3   OH225595   1.613   4.574   0.130
 8544TIP3    H125596   1.584   4.515   0.200
 8544TIP3    H225597   1.679   4.524   0.083
 8545TIP3   OH225598   5.707   2.379   3.599
 8545TIP3    H125599   5.666   2.333   3.526
 8545TIP3    H225600   5.747   2.456   3.560
 8546TIP3   OH225601   0.695   4.062   2.836
 8546TIP3    H125602   0.782   4.023   2.831
 8546TIP3    H225603   0.682   4.080   2.930
 8547TIP3   OH225604   6.485   0.162   2.534
 8547TIP3    H125605   6.473   0.216   2.612
 8547TIP3    H225606   6.403   0.172   2.486
 8548TIP3   OH225607   3.639   0.508   0.189
 8548TIP3    H125608   3.675   0.476   0.106
 8548TIP3    H225609   3.689   0.587   0.208
 8549TIP3   OH225610   6.088   4.686   4.297
 8549TIP3    H125611   6.025   4.756   4.313
 8549TIP3    H225612   6.048   4.632   4.228
 8550TIP3   OH225613   4.781   3.564   4.812
 8550TIP3    H125614   4.837   3.627   4.768
 8550TIP3    H225615   4.746   3.509   4.743
 8551TIP3   OH225616   5.252   1.449   2.282
 8551TIP3    H125617   5.273   1.359   2.306
 8551TIP3    H225618   5.235   1.493   2.365
 8552TIP3   OH225619   0.776   5.948   2.625
 8552TIP3    H125620   0.804   6.036   2.651
 8552TIP3    H225621   0.683   5.959   2.605
 8553TIP3   OH225622   0.784   4.076   5.128
 8553TIP3    H125623   0.706   4.093   5.180
 8553TIP3    H225624   0.841   4.151   5.145
 8554TIP3   OH225625   5.804   1.254   2.397
 8554TIP3    H125626   5.887   1.298   2.413
 8554TIP3    H225627   5.748   1.321   2.359
 8555TIP3   OH225628   5.372   6.137   3.239
 8555TIP3    H125629   5.342   6.200   3.304
 8555TIP3    H225630   5.308   6.065   3.244
 8556TIP3   OH225631   3.732   3.464   3.163
 8556TIP3    H125632   3.686   3.429   3.239
 8556TIP3    H225633   3.770   3.547   3.192
 8557TIP3   OH225634   5.595   3.138   5.432
 8557TIP3    H125635   5.580   3.045   5.452
 8557TIP3    H225636   5.625   3.176   5.514
 8558TIP3   OH225637   0.173   0.338   1.669
 8558TIP3    H125638   0.159   0.430   1.694
 8558TIP3    H225639   0.159   0.337   1.574
 8559TIP3   OH225640   4.899   4.326   4.117
 8559TIP3    H125641   4.987   4.350   4.085
 8559TIP3    H225642   4.857   4.410   4.136
 8560TIP3   OH225643   5.191   3.795   4.590
 8560TIP3    H125644   5.208   3.889   4.584
 8560TIP3    H225645   5.277   3.756   4.598
 8561TIP3   OH225646   4.439   5.327   1.817
 8561TIP3    H125647   4.470   5.238   1.831
 8561TIP3    H225648   4.458   5.373   1.898
 8562TIP3   OH225649   2.389   5.350   2.135
 8562TIP3    H125650   2.460   5.290   2.156
 8562TIP3    H225651   2.331   5.300   2.078
 8563TIP3   OH225652   2.705   1.524   5.002
 8563TIP3    H125653   2.660   1.465   5.063
 8563TIP3    H225654   2.635   1.578   4.966
 8564TIP3   OH225655   1.776   2.820   3.495
 8564TIP3    H125656   1.834   2.747   3.470
 8564TIP3    H225657   1.749   2.800   3.584
 8565TIP3   OH225658   5.760   5.061   5.201
 8565TIP3    H125659   5.712   5.103   5.129
 8565TIP3    H225660   5.701   5.070   5.276
 8566TIP3   OH225661   3.846   3.172   1.589
 8566TIP3    H125662   3.874   3.261   1.609
 8566TIP3    H225663   3.918   3.135   1.538
 8567TIP3   OH225664   4.746   6.249   2.426
 8567TIP3    H125665   4.701   6.264   2.510
 8567TIP3    H225666   4.818   6.312   2.426
 8568TIP3   OH225667   0.975   3.380   1.256
 8568TIP3    H125668   1.030   3.329   1.196
 8568TIP3    H225669   1.030   3.453   1.284
 8569TIP3   OH225670   1.049   3.026   5.254
 8569TIP3    H125671   1.005   3.098   5.301
 8569TIP3    H225672   1.100   2.982   5.322
 8570TIP3   OH225673   3.133   5.992   1.377
 8570TIP3    H125674   3.166   5.985   1.288
 8570TIP3    H225675   3.199   5.949   1.431
 8571TIP3   OH225676   1.505   5.686   1.428
 8571TIP3    H125677   1.585   5.634   1.433
 8571TIP3    H225678   1.445   5.645   1.490
 8572TIP3   OH225679   4.730   2.433   4.759
 8572TIP3    H125680   4.756   2.445   4.850
 8572TIP3    H225681   4.738   2.520   4.720
 8573TIP3   OH225682   1.164   0.398   0.554
 8573TIP3    H125683   1.208   0.411   0.638
 8573TIP3    H225684   1.193   0.472   0.501
 8574TIP3   OH225685   1.744   2.007   5.437
 8574TIP3    H125686   1.794   2.063   5.496
 8574TIP3    H225687   1.723   2.064   5.363
 8575TIP3   OH225688   1.384   2.660   3.815
 8575TIP3    H125689   1.439   2.597   3.859
 8575TIP3    H225690   1.346   2.713   3.885
 8576TIP3   OH225691   1.684   3.339   3.700
 8576TIP3    H125692   1.631   3.416   3.682
 8576TIP3    H225693   1.623   3.266   3.695
 8577TIP3   OH225694   5.535   2.078   1.180
 8577TIP3    H125695   5.611   2.030   1.216
 8577TIP3    H225696   5.469   2.010   1.167
 8578TIP3   OH225697   6.478   5.343   2.269
 8578TIP3    H125698   6.539   5.318   2.199
 8578TIP3    H225699   6.398   5.368   2.223
 8579TIP3   OH225700   0.167   4.940   3.338
 8579TIP3    H125701   0.225   5.013   3.361
 8579TIP3    H225702   0.198   4.866   3.390
 8580TIP3   OH225703   2.750   2.098   2.118
 8580TIP3    H125704   2.725   2.110   2.210
 8580TIP3    H225705   2.769   2.186   2.087
 8581TIP3   OH225706   4.062   6.531   5.179
 8581TIP3    H125707   4.102   6.523   5.265
 8581TIP3    H225708   4.128   6.499   5.118
 8582TIP3   OH225709  -0.018   5.926   3.947
 8582TIP3    H125710  -0.053   5.997   4.001
 8582TIP3    H225711   0.057   5.965   3.903
 8583TIP3   OH225712   3.102   6.197   5.107
 8583TIP3    H125713   3.039   6.224   5.174
 8583TIP3    H225714   3.076   6.108   5.084
 8584TIP3   OH225715   0.307   5.663   2.080
 8584TIP3    H125716   0.307   5.748   2.125
 8584TIP3    H225717   0.364   5.607   2.133
 8585TIP3   OH225718   4.130   2.900   1.717
 8585TIP3    H125719   4.093   2.812   1.708
 8585TIP3    H225720   4.053   2.958   1.715
 8586TIP3   OH225721   0.525   2.043   5.562
 8586TIP3    H125722   0.436   2.009   5.551
 8586TIP3    H225723   0.513   2.135   5.584
 8587TIP3   OH225724   1.523   2.599   3.373
 8587TIP3    H125725   1.553   2.588   3.464
 8587TIP3    H225726   1.582   2.543   3.322
 8588TIP3   OH225727   1.459   2.984   2.286
 8588TIP3    H125728   1.542   3.008   2.245
 8588TIP3    H225729   1.457   2.888   2.280
 8589TIP3   OH225730   0.218   6.217   4.788
 8589TIP3    H125731   0.284   6.219   4.719
 8589TIP3    H225732   0.263   6.251   4.866
 8590TIP3   OH225733   4.379   2.348   2.897
 8590TIP3    H125734   4.325   2.295   2.838
 8590TIP3    H225735   4.351   2.438   2.881
 8591TIP3   OH225736   2.731   3.093   0.294
 8591TIP3    H125737   2.827   3.094   0.302
 8591TIP3    H225738   2.704   3.019   0.347
 8592TIP3   OH225739   0.046   3.306   1.370
 8592TIP3    H125740   0.045   3.392   1.414
 8592TIP3    H225741  -0.001   3.248   1.430
 8593TIP3   OH225742   4.049   1.785   4.835
 8593TIP3    H125743   3.963   1.756   4.806
 8593TIP3    H225744   4.110   1.746   4.773
 8594TIP3   OH225745   0.343   4.541   1.059
 8594TIP3    H125746   0.338   4.632   1.030
 8594TIP3    H225747   0.323   4.544   1.152
 8595TIP3   OH225748   5.189   5.561   4.189
 8595TIP3    H125749   5.266   5.511   4.162
 8595TIP3    H225750   5.121   5.537   4.126
 8596TIP3   OH225751   5.560   6.535   5.782
 8596TIP3    H125752   5.489   6.595   5.804
 8596TIP3    H225753   5.564   6.475   5.857
 8597TIP3   OH225754   1.062   3.941   4.925
 8597TIP3    H125755   1.140   3.995   4.916
 8597TIP3    H225756   1.065   3.908   5.015
 8598TIP3   OH225757   3.911   6.455   2.134
 8598TIP3    H125758   3.830   6.469   2.085
 8598TIP3    H225759   3.933   6.542   2.169
 8599TIP3   OH225760   2.628   4.417   1.848
 8599TIP3    H125761   2.579   4.426   1.930
 8599TIP3    H225762   2.703   4.363   1.870
 8600TIP3   OH225763   0.069   3.849   5.232
 8600TIP3    H125764   0.142   3.903   5.202
 8600TIP3    H225765   0.036   3.893   5.309
 8601TIP3   OH225766   4.409   0.960   0.476
 8601TIP3    H125767   4.328   1.003   0.447
 8601TIP3    H225768   4.461   0.951   0.396
 8602TIP3   OH225769   5.997   2.239   4.855
 8602TIP3    H125770   5.985   2.159   4.906
 8602TIP3    H225771   5.975   2.310   4.916
 8603TIP3   OH225772   4.543   0.503   5.411
 8603TIP3    H125773   4.611   0.467   5.354
 8603TIP3    H225774   4.522   0.588   5.373
 8604TIP3   OH225775   1.603   1.208   3.292
 8604TIP3    H125776   1.526   1.180   3.241
 8604TIP3    H225777   1.566   1.241   3.374
 8605TIP3   OH225778   3.427   1.854   0.439
 8605TIP3    H125779   3.382   1.888   0.361
 8605TIP3    H225780   3.356   1.817   0.493
 8606TIP3   OH225781   0.201   6.388   3.894
 8606TIP3    H125782   0.198   6.447   3.818
 8606TIP3    H225783   0.183   6.301   3.857
 8607TIP3   OH225784   6.692   0.499   3.649
 8607TIP3    H125785   6.639   0.514   3.727
 8607TIP3    H225786   6.721   0.586   3.623
 8608TIP3   OH225787   2.012   1.596   3.883
 8608TIP3    H125788   1.971   1.563   3.963
 8608TIP3    H225789   2.104   1.610   3.907
 8609TIP3   OH225790   0.172   0.382   1.328
 8609TIP3    H125791   0.218   0.456   1.288
 8609TIP3    H225792   0.090   0.376   1.279
 8610TIP3   OH225793   0.130   5.788   1.324
 8610TIP3    H125794   0.201   5.828   1.274
 8610TIP3    H225795   0.166   5.777   1.412
 8611TIP3   OH225796   6.431   0.039   4.091
 8611TIP3    H125797   6.482   0.083   4.023
 8611TIP3    H225798   6.363  -0.009   4.044
 8612TIP3   OH225799   6.471   6.549   5.117
 8612TIP3    H125800   6.522   6.526   5.039
 8612TIP3    H225801   6.412   6.474   5.129
 8613TIP3   OH225802   3.889   3.214   3.042
 8613TIP3    H125803   3.910   3.263   3.121
 8613TIP3    H225804   3.810   3.165   3.064
 8614TIP3   OH225805   6.734   2.373   3.762
 8614TIP3    H125806   6.663   2.316   3.730
 8614TIP3    H225807   6.813   2.337   3.721
 8615TIP3   OH225808   6.804   0.379   0.542
 8615TIP3    H125809   6.833   0.295   0.506
 8615TIP3    H225810   6.710   0.367   0.558
 8616TIP3   OH225811   4.089   2.833   5.364
 8616TIP3    H125812   4.047   2.909   5.403
 8616TIP3    H225813   4.136   2.791   5.436
 8617TIP3   OH225814   4.268   3.904   5.337
 8617TIP3    H125815   4.210   3.975   5.310
 8617TIP3    H225816   4.313   3.937   5.415
 8618TIP3   OH225817   3.250   4.297   3.126
 8618TIP3    H125818   3.251   4.360   3.199
 8618TIP3    H225819   3.225   4.349   3.050
 8619TIP3   OH225820   0.951   6.047   0.923
 8619TIP3    H125821   1.020   6.053   0.857
 8619TIP3    H225822   0.996   6.017   1.002
 8620TIP3   OH225823   6.627   2.343   3.254
 8620TIP3    H125824   6.646   2.266   3.201
 8620TIP3    H225825   6.551   2.318   3.306
 8621TIP3   OH225826   0.504   3.585   1.795
 8621TIP3    H125827   0.476   3.516   1.854
 8621TIP3    H225828   0.422   3.623   1.762
 8622TIP3   OH225829   6.536   3.609   2.921
 8622TIP3    H125830   6.557   3.546   2.852
 8622TIP3    H225831   6.481   3.674   2.878
 8623TIP3   OH225832   2.656   0.645   0.854
 8623TIP3    H125833   2.712   0.594   0.796
 8623TIP3    H225834   2.626   0.583   0.920
 8624TIP3   OH225835   6.168   4.325   2.760
 8624TIP3    H125836   6.220   4.366   2.828
 8624TIP3    H225837   6.199   4.234   2.758
 8625TIP3   OH225838   0.110   2.596   2.012
 8625TIP3    H125839   0.042   2.630   2.070
 8625TIP3    H225840   0.119   2.504   2.036
 8626TIP3   OH225841   2.050   0.467   4.801
 8626TIP3    H125842   2.008   0.476   4.886
 8626TIP3    H225843   2.136   0.507   4.812
 8627TIP3   OH225844   5.117   6.071   3.984
 8627TIP3    H125845   5.179   6.096   4.053
 8627TIP3    H225846   5.171   6.064   3.905
 8628TIP3   OH225847   5.762   1.174   5.628
 8628TIP3    H125848   5.677   1.218   5.624
 8628TIP3    H225849   5.826   1.245   5.636
 8629TIP3   OH225850   3.237   6.366   2.731
 8629TIP3    H125851   3.293   6.323   2.666
 8629TIP3    H225852   3.237   6.306   2.805
 8630TIP3   OH225853   6.304   4.824   5.456
 8630TIP3    H125854   6.392   4.861   5.453
 8630TIP3    H225855   6.312   4.747   5.513
 8631TIP3   OH225856   7.043   4.718   0.488
 8631TIP3    H125857   7.079   4.645   0.539
 8631TIP3    H225858   6.959   4.687   0.457
 8632TIP3   OH225859   5.250   6.340   5.593
 8632TIP3    H125860   5.214   6.257   5.561
 8632TIP3    H225861   5.343   6.322   5.609
 8633TIP3   OH225862   2.545   3.290   5.583
 8633TIP3    H125863   2.607   3.248   5.642
 8633TIP3    H225864   2.477   3.225   5.569
 8634TIP3   OH225865   1.946   4.259   4.341
 8634TIP3    H125866   2.000   4.194   4.297
 8634TIP3    H225867   2.006   4.330   4.364
 8635TIP3   OH225868   6.936   6.706  -0.012
 8635TIP3    H125869   6.942   6.624   0.038
 8635TIP3    H225870   6.978   6.771   0.044
 8636TIP3   OH225871   0.661   2.463   5.156
 8636TIP3    H125872   0.731   2.398   5.167
 8636TIP3    H225873   0.685   2.512   5.078
 8637TIP3   OH225874   5.176   5.488   3.861
 8637TIP3    H125875   5.152   5.412   3.913
 8637TIP3    H225876   5.236   5.538   3.917
 8638TIP3   OH225877   1.862   3.977   5.578
 8638TIP3    H125878   1.884   4.037   5.649
 8638TIP3    H225879   1.857   3.891   5.621
 8639TIP3   OH225880  -0.019   4.248   0.594
 8639TIP3    H125881   0.039   4.228   0.521
 8639TIP3    H225882  -0.038   4.163   0.634
 8640TIP3   OH225883   0.054   3.792   3.271
 8640TIP3    H125884   0.114   3.829   3.335
 8640TIP3    H225885  -0.031   3.832   3.290
 8641TIP3   OH225886   5.017   1.459   5.809
 8641TIP3    H125887   5.016   1.549   5.843
 8641TIP3    H225888   5.050   1.467   5.720
 8642TIP3   OH225889   6.905   4.452   1.926
 8642TIP3    H125890   6.991   4.468   1.965
 8642TIP3    H225891   6.866   4.383   1.980
 8643TIP3   OH225892   4.217   3.092   2.537
 8643TIP3    H125893   4.294   3.099   2.594
 8643TIP3    H225894   4.187   3.182   2.527
 8644TIP3   OH225895   4.074   2.233   4.075
 8644TIP3    H125896   4.118   2.252   3.993
 8644TIP3    H225897   4.012   2.305   4.087
 8645TIP3   OH225898   5.747   0.394   3.004
 8645TIP3    H125899   5.669   0.445   2.980
 8645TIP3    H225900   5.716   0.334   3.072
 8646TIP3   OH225901   2.735   3.719   1.176
 8646TIP3    H125902   2.723   3.785   1.108
 8646TIP3    H225903   2.813   3.747   1.223
 8647TIP3   OH225904   3.027   2.357   4.677
 8647TIP3    H125905   3.020   2.418   4.603
 8647TIP3    H225906   3.051   2.274   4.637
 8648TIP3   OH225907   5.071   2.878   0.064
 8648TIP3    H125908   5.083   2.957   0.116
 8648TIP3    H225909   5.085   2.905  -0.027
 8649TIP3   OH225910   6.413   0.054   4.868
 8649TIP3    H125911   6.470   0.022   4.798
 8649TIP3    H225912   6.326   0.057   4.829
 8650TIP3   OH225913   4.411   5.827   0.404
 8650TIP3    H125914   4.369   5.910   0.383
 8650TIP3    H225915   4.344   5.779   0.453
 8651TIP3   OH225916   0.167   1.804   1.959
 8651TIP3    H125917   0.187   1.877   1.900
 8651TIP3    H225918   0.243   1.798   2.017
 8652TIP3   OH225919   4.834   4.495   3.370
 8652TIP3    H125920   4.814   4.550   3.295
 8652TIP3    H225921   4.805   4.545   3.446
 8653TIP3   OH225922   0.552   5.873   4.667
 8653TIP3    H125923   0.537   5.816   4.743
 8653TIP3    H225924   0.620   5.934   4.696
 8654TIP3   OH225925   4.830   5.517   5.014
 8654TIP3    H125926   4.915   5.555   4.995
 8654TIP3    H225927   4.790   5.502   4.928
 8655TIP3   OH225928   3.096   6.425   4.652
 8655TIP3    H125929   3.130   6.344   4.690
 8655TIP3    H225930   3.075   6.402   4.561
 8656TIP3   OH225931   6.078   1.242   2.661
 8656TIP3    H125932   6.172   1.225   2.654
 8656TIP3    H225933   6.066   1.326   2.617
 8657TIP3   OH225934   1.094   5.403   2.838
 8657TIP3    H125935   1.024   5.411   2.903
 8657TIP3    H225936   1.055   5.434   2.756
 8658TIP3   OH225937   3.605   5.307   5.253
 8658TIP3    H125938   3.673   5.282   5.191
 8658TIP3    H225939   3.635   5.276   5.338
 8659TIP3   OH225940   0.637   5.122   2.417
 8659TIP3    H125941   0.685   5.041   2.397
 8659TIP3    H225942   0.571   5.128   2.348
 8660TIP3   OH225943   1.600   1.424   4.551
 8660TIP3    H125944   1.551   1.433   4.632
 8660TIP3    H225945   1.568   1.342   4.513
 8661TIP3   OH225946   4.521   0.658   2.499
 8661TIP3    H125947   4.466   0.605   2.441
 8661TIP3    H225948   4.547   0.599   2.569
 8662TIP3   OH225949   1.083   6.349   4.460
 8662TIP3    H125950   1.002   6.385   4.424
 8662TIP3    H225951   1.114   6.416   4.522
 8663TIP3   OH225952   4.366   1.636   2.666
 8663TIP3    H125953   4.280   1.599   2.685
 8663TIP3    H225954   4.373   1.634   2.570
 8664TIP3   OH225955   0.530   4.169   0.741
 8664TIP3    H125956   0.488   4.104   0.798
 8664TIP3    H225957   0.491   4.252   0.767
 8665TIP3   OH225958   2.905   3.539   0.279
 8665TIP3    H125959   2.882   3.554   0.371
 8665TIP3    H225960   2.861   3.457   0.257
 8666TIP3   OH225961   1.870   3.160   5.098
 8666TIP3    H125962   1.822   3.227   5.148
 8666TIP3    H225963   1.959   3.194   5.093
 8667TIP3   OH225964   7.129   0.795   1.612
 8667TIP3    H125965   7.132   0.704   1.582
 8667TIP3    H225966   7.039   0.823   1.598
 8668TIP3   OH225967   0.188   4.747   2.807
 8668TIP3    H125968   0.145   4.664   2.829
 8668TIP3    H225969   0.237   4.770   2.886
 8669TIP3   OH225970   4.908   2.380   0.278
 8669TIP3    H125971   4.938   2.358   0.367
 8669TIP3    H225972   4.942   2.468   0.263
 8670TIP3   OH225973   0.129   3.575   4.439
 8670TIP3    H125974   0.041   3.555   4.472
 8670TIP3    H225975   0.161   3.491   4.404
 8671TIP3   OH225976   0.441   3.931   4.752
 8671TIP3    H125977   0.528   3.892   4.760
 8671TIP3    H225978   0.398   3.881   4.684
 8672TIP3   OH225979   1.276   6.277   5.825
 8672TIP3    H125980   1.239   6.366   5.822
 8672TIP3    H225981   1.225   6.233   5.893
 8673TIP3   OH225982   5.869   3.137   4.079
 8673TIP3    H125983   5.811   3.190   4.024
 8673TIP3    H225984   5.861   3.176   4.166
 8674TIP3   OH225985   7.053   2.188   5.147
 8674TIP3    H125986   6.967   2.218   5.176
 8674TIP3    H225987   7.043   2.172   5.054
 8675TIP3   OH225988   0.477   5.430   0.426
 8675TIP3    H125989   0.451   5.468   0.510
 8675TIP3    H225990   0.395   5.401   0.387
 8676TIP3   OH225991   4.541   2.430   1.744
 8676TIP3    H125992   4.497   2.515   1.752
 8676TIP3    H225993   4.487   2.370   1.795
 8677TIP3   OH225994   2.966   5.955   1.596
 8677TIP3    H125995   3.010   5.973   1.679
 8677TIP3    H225996   3.025   5.991   1.529
 8678TIP3   OH225997   1.836   6.562   5.030
 8678TIP3    H125998   1.775   6.618   5.078
 8678TIP3    H225999   1.849   6.486   5.087
 8679TIP3   OH226000   7.235   5.421   3.232
 8679TIP3    H126001   7.245   5.349   3.170
 8679TIP3    H226002   7.146   5.411   3.266
 8680TIP3   OH226003   3.175   2.358   0.949
 8680TIP3    H126004   3.154   2.337   0.859
 8680TIP3    H226005   3.103   2.414   0.979
 8681TIP3   OH226006   2.597   6.417   5.635
 8681TIP3    H126007   2.592   6.350   5.703
 8681TIP3    H226008   2.607   6.499   5.684
 8682TIP3   OH226009   1.684   1.510   2.896
 8682TIP3    H126010   1.695   1.432   2.951
 8682TIP3    H226011   1.760   1.508   2.837
 8683TIP3   OH226012   2.460   4.843   5.650
 8683TIP3    H126013   2.512   4.874   5.724
 8683TIP3    H226014   2.442   4.922   5.599
 8684TIP3   OH226015   3.345   5.019   2.071
 8684TIP3    H126016   3.371   4.927   2.073
 8684TIP3    H226017   3.403   5.059   2.006
 8685TIP3   OH226018   5.671   4.685   1.713
 8685TIP3    H126019   5.696   4.607   1.663
 8685TIP3    H226020   5.713   4.674   1.798
 8686TIP3   OH226021   6.522   1.614   1.976
 8686TIP3    H126022   6.441   1.663   1.961
 8686TIP3    H226023   6.541   1.627   2.069
 8687TIP3   OH226024   2.857   2.926   3.160
 8687TIP3    H126025   2.840   2.933   3.066
 8687TIP3    H226026   2.943   2.885   3.165
 8688TIP3   OH226027   3.382   2.094   2.492
 8688TIP3    H126028   3.360   2.093   2.585
 8688TIP3    H226029   3.478   2.087   2.490
 8689TIP3   OH226030   4.778   5.146   5.473
 8689TIP3    H126031   4.858   5.192   5.499
 8689TIP3    H226032   4.786   5.059   5.513
 8690TIP3   OH226033   6.055   3.323   0.407
 8690TIP3    H126034   6.058   3.257   0.338
 8690TIP3    H226035   6.088   3.277   0.485
 8691TIP3   OH226036   0.871   1.706   2.586
 8691TIP3    H126037   0.963   1.693   2.608
 8691TIP3    H226038   0.866   1.689   2.491
 8692TIP3   OH226039   4.724   4.950   1.264
 8692TIP3    H126040   4.726   5.045   1.275
 8692TIP3    H226041   4.712   4.916   1.353
 8693TIP3   OH226042   5.860   4.814   0.600
 8693TIP3    H126043   5.850   4.882   0.666
 8693TIP3    H226044   5.883   4.862   0.520
 8694TIP3   OH226045   0.036   4.659   5.540
 8694TIP3    H126046   0.067   4.581   5.495
 8694TIP3    H226047  -0.031   4.695   5.482
 8695TIP3   OH226048   1.383   6.151   2.224
 8695TIP3    H126049   1.296   6.191   2.231
 8695TIP3    H226050   1.366   6.057   2.228
 8696TIP3   OH226051   1.573   2.812   5.194
 8696TIP3    H126052   1.569   2.765   5.111
 8696TIP3    H226053   1.484   2.810   5.228
 8697TIP3   OH226054   1.378   6.225   1.954
 8697TIP3    H126055   1.393   6.216   2.048
 8697TIP3    H226056   1.403   6.140   1.917
 8698TIP3   OH226057   2.259   1.647   2.128
 8698TIP3    H126058   2.339   1.671   2.081
 8698TIP3    H226059   2.188   1.678   2.071
 8699TIP3   OH226060   6.003   5.098   4.671
 8699TIP3    H126061   5.945   5.042   4.722
 8699TIP3    H226062   5.948   5.131   4.600
 8700TIP3   OH226063   6.985   0.173   5.266
 8700TIP3    H126064   7.054   0.108   5.280
 8700TIP3    H226065   7.031   0.248   5.228
 8701TIP3   OH226066   0.210   6.410   4.444
 8701TIP3    H126067   0.166   6.453   4.370
 8701TIP3    H226068   0.186   6.318   4.436
 8702TIP3   OH226069   1.654   5.746   4.172
 8702TIP3    H126070   1.590   5.724   4.239
 8702TIP3    H226071   1.648   5.841   4.164
 8703TIP3   OH226072   5.445   0.258   4.102
 8703TIP3    H126073   5.492   0.295   4.177
 8703TIP3    H226074   5.429   0.167   4.127
 8704TIP3   OH226075   7.226   0.202   5.816
 8704TIP3    H126076   7.201   0.210   5.724
 8704TIP3    H226077   7.198   0.284   5.856
 8705TIP3   OH226078   6.872   3.160   0.085
 8705TIP3    H126079   6.942   3.106   0.122
 8705TIP3    H226080   6.792   3.126   0.123
 8706TIP3   OH226081   3.807   0.720   5.445
 8706TIP3    H126082   3.755   0.778   5.389
 8706TIP3    H226083   3.773   0.735   5.533
 8707TIP3   OH226084   3.740   2.435   0.928
 8707TIP3    H126085   3.814   2.419   0.987
 8707TIP3    H226086   3.698   2.350   0.917
 8708TIP3   OH226087   0.447   3.776   0.208
 8708TIP3    H126088   0.511   3.762   0.278
 8708TIP3    H226089   0.436   3.689   0.168
 8709TIP3   OH226090   1.665   0.648   4.475
 8709TIP3    H126091   1.735   0.589   4.503
 8709TIP3    H226092   1.706   0.735   4.475
 8710TIP3   OH226093   3.839   4.081   4.947
 8710TIP3    H126094   3.747   4.105   4.957
 8710TIP3    H226095   3.837   3.992   4.911
 8711TIP3   OH226096   5.238   1.148   0.040
 8711TIP3    H126097   5.189   1.116  -0.036
 8711TIP3    H226098   5.273   1.069   0.081
 8712TIP3   OH226099   3.465   2.270   0.334
 8712TIP3    H126100   3.430   2.204   0.395
 8712TIP3    H226101   3.542   2.228   0.296
 8713TIP3   OH226102   0.486   4.841   0.078
 8713TIP3    H126103   0.569   4.830   0.124
 8713TIP3    H226104   0.422   4.795   0.132
 8714TIP3   OH226105   3.166   6.765   4.847
 8714TIP3    H126106   3.087   6.745   4.799
 8714TIP3    H226107   3.143   6.751   4.939
 8715TIP3   OH226108   4.511   4.127   1.197
 8715TIP3    H126109   4.530   4.034   1.191
 8715TIP3    H226110   4.441   4.142   1.133
 8716TIP3   OH226111   4.271   1.941   3.018
 8716TIP3    H126112   4.269   2.025   2.970
 8716TIP3    H226113   4.233   1.878   2.956
 8717TIP3   OH226114   3.362   1.339   5.311
 8717TIP3    H126115   3.433   1.399   5.335
 8717TIP3    H226116   3.335   1.300   5.394
 8718TIP3   OH226117   1.850   5.700   2.203
 8718TIP3    H126118   1.760   5.667   2.195
 8718TIP3    H226119   1.849   5.753   2.282
 8719TIP3   OH226120   6.572   2.896   5.815
 8719TIP3    H126121   6.514   2.836   5.767
 8719TIP3    H226122   6.656   2.891   5.769
 8720TIP3   OH226123   4.547   3.594   3.153
 8720TIP3    H126124   4.555   3.502   3.130
 8720TIP3    H226125   4.636   3.621   3.176
 8721TIP3   OH226126   4.608   3.122   5.674
 8721TIP3    H126127   4.555   3.192   5.713
 8721TIP3    H226128   4.685   3.116   5.731
 8722TIP3   OH226129   0.431   6.313   5.448
 8722TIP3    H126130   0.385   6.365   5.381
 8722TIP3    H226131   0.474   6.378   5.504
 8723TIP3   OH226132   3.450   6.742   0.156
 8723TIP3    H126133   3.408   6.697   0.229
 8723TIP3    H226134   3.492   6.818   0.196
 8724TIP3   OH226135   4.640   4.415   4.497
 8724TIP3    H126136   4.626   4.394   4.589
 8724TIP3    H226137   4.719   4.367   4.472
 8725TIP3   OH226138   1.372   2.493   4.235
 8725TIP3    H126139   1.279   2.482   4.215
 8725TIP3    H226140   1.375   2.502   4.330
 8726TIP3   OH226141   5.226   2.112   5.310
 8726TIP3    H126142   5.307   2.069   5.283
 8726TIP3    H226143   5.207   2.174   5.239
 8727TIP3   OH226144   0.063   4.528   2.842
 8727TIP3    H126145   0.114   4.456   2.805
 8727TIP3    H226146  -0.025   4.515   2.807
 8728TIP3   OH226147   3.978   0.183   3.413
 8728TIP3    H126148   4.025   0.187   3.330
 8728TIP3    H226149   3.934   0.267   3.420
 8729TIP3   OH226150   5.103   0.341   0.687
 8729TIP3    H126151   5.133   0.279   0.621
 8729TIP3    H226152   5.177   0.349   0.748
 8730TIP3   OH226153   5.596   4.360   4.990
 8730TIP3    H126154   5.592   4.351   5.085
 8730TIP3    H226155   5.642   4.443   4.975
 8731TIP3   OH226156   1.886   3.940   1.273
 8731TIP3    H126157   1.941   3.933   1.351
 8731TIP3    H226158   1.834   3.860   1.273
 8732TIP3   OH226159   2.655   5.525   4.377
 8732TIP3    H126160   2.729   5.520   4.316
 8732TIP3    H226161   2.683   5.474   4.453
 8733TIP3   OH226162   1.073   0.215   4.490
 8733TIP3    H126163   1.029   0.136   4.460
 8733TIP3    H226164   1.022   0.244   4.566
 8734TIP3   OH226165   4.258   6.721   3.482
 8734TIP3    H126166   4.221   6.740   3.568
 8734TIP3    H226167   4.324   6.789   3.469
 8735TIP3   OH226168   6.682   3.402   3.743
 8735TIP3    H126169   6.652   3.319   3.782
 8735TIP3    H226170   6.605   3.459   3.746
 8736TIP3   OH226171   5.438   3.576   4.284
 8736TIP3    H126172   5.370   3.617   4.230
 8736TIP3    H226173   5.413   3.484   4.288
 8737TIP3   OH226174   4.457   2.971   0.427
 8737TIP3    H126175   4.447   3.065   0.411
 8737TIP3    H226176   4.388   2.950   0.490
 8738TIP3   OH226177   6.065   5.031   5.814
 8738TIP3    H126178   6.008   5.046   5.889
 8738TIP3    H226179   6.010   5.052   5.738
 8739TIP3   OH226180   3.373   3.361   1.106
 8739TIP3    H126181   3.421   3.410   1.172
 8739TIP3    H226182   3.440   3.328   1.046
 8740TIP3   OH226183   0.819   3.423   4.695
 8740TIP3    H126184   0.862   3.506   4.712
 8740TIP3    H226185   0.793   3.427   4.603
 8741TIP3   OH226186   3.090   3.422   1.741
 8741TIP3    H126187   3.049   3.397   1.658
 8741TIP3    H226188   3.021   3.413   1.806
 8742TIP3   OH226189   1.937   2.589   2.293
 8742TIP3    H126190   1.996   2.663   2.278
 8742TIP3    H226191   1.862   2.626   2.338
 8743TIP3   OH226192   2.748   2.368   4.128
 8743TIP3    H126193   2.667   2.413   4.151
 8743TIP3    H226194   2.813   2.437   4.119
 8744TIP3   OH226195   4.966   6.461   0.775
 8744TIP3    H126196   4.975   6.531   0.839
 8744TIP3    H226197   4.975   6.504   0.690
 8745TIP3   OH226198   2.954   3.271   3.696
 8745TIP3    H126199   3.005   3.351   3.684
 8745TIP3    H226200   2.865   3.296   3.674
 8746TIP3   OH226201   1.887   2.890   0.798
 8746TIP3    H126202   1.797   2.870   0.774
 8746TIP3    H226203   1.918   2.949   0.729
 8747TIP3   OH226204   4.283   1.944   2.732
 8747TIP3    H126205   4.195   1.913   2.751
 8747TIP3    H226206   4.288   1.947   2.636
 8748TIP3   OH226207   4.343   4.091   3.688
 8748TIP3    H126208   4.421   4.060   3.734
 8748TIP3    H226209   4.271   4.040   3.727
 8749TIP3   OH226210   7.130   0.552   1.490
 8749TIP3    H126211   7.119   0.464   1.454
 8749TIP3    H226212   7.224   0.569   1.486
 8750TIP3   OH226213   5.032   0.140   1.866
 8750TIP3    H126214   5.037   0.105   1.955
 8750TIP3    H226215   4.943   0.119   1.837
 8751TIP3   OH226216   0.899   4.864   3.491
 8751TIP3    H126217   0.960   4.798   3.524
 8751TIP3    H226218   0.898   4.932   3.559
 8752TIP3   OH226219   0.653   1.607   5.310
 8752TIP3    H126220   0.644   1.638   5.220
 8752TIP3    H226221   0.659   1.686   5.363
 8753TIP3   OH226222   5.710   5.727   1.986
 8753TIP3    H126223   5.736   5.771   1.905
 8753TIP3    H226224   5.768   5.652   1.993
 8754TIP3   OH226225   0.747   4.104   5.460
 8754TIP3    H126226   0.790   4.045   5.398
 8754TIP3    H226227   0.702   4.045   5.521
 8755TIP3   OH226228   1.857   6.612   1.516
 8755TIP3    H126229   1.868   6.517   1.510
 8755TIP3    H226230   1.823   6.626   1.605
 8756TIP3   OH226231   2.591   1.063   2.961
 8756TIP3    H126232   2.623   0.995   3.019
 8756TIP3    H226233   2.583   1.140   3.017
 8757TIP3   OH226234   3.305   5.952   2.099
 8757TIP3    H126235   3.285   5.891   2.028
 8757TIP3    H226236   3.266   5.911   2.176
 8758TIP3   OH226237   3.518   5.415   2.957
 8758TIP3    H126238   3.590   5.443   2.900
 8758TIP3    H226239   3.467   5.495   2.972
 8759TIP3   OH226240   1.973   0.530   0.383
 8759TIP3    H126241   1.992   0.484   0.465
 8759TIP3    H226242   1.904   0.479   0.342
 8760TIP3   OH226243   4.031   0.916   2.837
 8760TIP3    H126244   4.064   0.827   2.843
 8760TIP3    H226245   4.095   0.962   2.782
 8761TIP3   OH226246   2.671   4.267   4.644
 8761TIP3    H126247   2.648   4.360   4.642
 8761TIP3    H226248   2.757   4.265   4.687
 8762TIP3   OH226249   4.912   6.530   5.475
 8762TIP3    H126250   4.999   6.563   5.450
 8762TIP3    H226251   4.888   6.470   5.405
 8763TIP3   OH226252   0.946   1.345   1.823
 8763TIP3    H126253   0.906   1.260   1.805
 8763TIP3    H226254   0.874   1.408   1.810
 8764TIP3   OH226255   1.728   2.214   5.174
 8764TIP3    H126256   1.642   2.186   5.144
 8764TIP3    H226257   1.726   2.310   5.170
 8765TIP3   OH226258   0.980   0.504   4.105
 8765TIP3    H126259   0.993   0.420   4.063
 8765TIP3    H226260   0.889   0.527   4.085
 8766TIP3   OH226261   5.226   5.689   0.524
 8766TIP3    H126262   5.152   5.687   0.464
 8766TIP3    H226263   5.186   5.684   0.611
 8767TIP3   OH226264   2.371   6.614   3.447
 8767TIP3    H126265   2.338   6.703   3.434
 8767TIP3    H226266   2.400   6.587   3.360
 8768TIP3   OH226267   7.099   3.553   4.178
 8768TIP3    H126268   7.078   3.557   4.085
 8768TIP3    H226269   7.022   3.590   4.222
 8769TIP3   OH226270   0.745   2.571   2.161
 8769TIP3    H126271   0.695   2.544   2.238
 8769TIP3    H226272   0.731   2.665   2.155
 8770TIP3   OH226273   4.162   6.510   2.836
 8770TIP3    H126274   4.175   6.605   2.841
 8770TIP3    H226275   4.086   6.499   2.780
 8771TIP3   OH226276   4.368   1.196   5.494
 8771TIP3    H126277   4.284   1.151   5.502
 8771TIP3    H226278   4.417   1.171   5.573
 8772TIP3   OH226279   3.405   0.834   4.913
 8772TIP3    H126280   3.487   0.791   4.938
 8772TIP3    H226281   3.395   0.905   4.977
 8773TIP3   OH226282   0.023   5.389   5.164
 8773TIP3    H126283   0.014   5.382   5.259
 8773TIP3    H226284   0.111   5.425   5.151
 8774TIP3   OH226285   4.095   4.690   1.921
 8774TIP3    H126286   4.149   4.613   1.940
 8774TIP3    H226287   4.116   4.752   1.992
 8775TIP3   OH226288   0.165   1.783   2.876
 8775TIP3    H126289   0.115   1.796   2.956
 8775TIP3    H226290   0.255   1.767   2.905
 8776TIP3   OH226291   0.165   3.461   0.348
 8776TIP3    H126292   0.189   3.381   0.394
 8776TIP3    H226293   0.072   3.473   0.367
 8777TIP3   OH226294   7.073   3.517   0.892
 8777TIP3    H126295   7.127   3.555   0.824
 8777TIP3    H226296   7.128   3.519   0.970
 8778TIP3   OH226297   6.566   4.638   4.707
 8778TIP3    H126298   6.565   4.670   4.617
 8778TIP3    H226299   6.598   4.712   4.758
 8779TIP3   OH226300   2.160   3.932   4.701
 8779TIP3    H126301   2.204   3.961   4.781
 8779TIP3    H226302   2.115   4.010   4.669
 8780TIP3   OH226303   1.983   6.046   4.426
 8780TIP3    H126304   1.977   6.140   4.441
 8780TIP3    H226305   2.076   6.026   4.438
 8781TIP3   OH226306   1.754   5.524   2.500
 8781TIP3    H126307   1.706   5.444   2.523
 8781TIP3    H226308   1.831   5.492   2.453
 8782TIP3   OH226309   3.747   2.244   3.518
 8782TIP3    H126310   3.714   2.327   3.484
 8782TIP3    H226311   3.842   2.257   3.523
 8783TIP3   OH226312   6.706   3.375   5.189
 8783TIP3    H126313   6.734   3.464   5.168
 8783TIP3    H226314   6.752   3.320   5.126
 8784TIP3   OH226315   0.096   0.701   4.949
 8784TIP3    H126316   0.014   0.652   4.946
 8784TIP3    H226317   0.070   0.793   4.943
 8785TIP3   OH226318   1.993   4.128   3.700
 8785TIP3    H126319   2.002   4.202   3.760
 8785TIP3    H226320   1.911   4.086   3.726
 8786TIP3   OH226321   2.171   3.904   2.471
 8786TIP3    H126322   2.093   3.959   2.478
 8786TIP3    H226323   2.228   3.935   2.542
 8787TIP3   OH226324   2.414   3.250   0.330
 8787TIP3    H126325   2.382   3.185   0.392
 8787TIP3    H226326   2.424   3.202   0.248
 8788TIP3   OH226327   1.035   5.385   0.630
 8788TIP3    H126328   0.999   5.385   0.542
 8788TIP3    H226329   1.078   5.470   0.639
 8789TIP3   OH226330   3.443   5.601   3.406
 8789TIP3    H126331   3.472   5.635   3.321
 8789TIP3    H226332   3.393   5.522   3.384
 8790TIP3   OH226333   1.198   4.604   4.038
 8790TIP3    H126334   1.294   4.600   4.042
 8790TIP3    H226335   1.171   4.613   4.129
 8791TIP3   OH226336   2.590   4.435   4.912
 8791TIP3    H126337   2.529   4.488   4.963
 8791TIP3    H226338   2.593   4.477   4.826
 8792TIP3   OH226339   6.987   0.211   2.759
 8792TIP3    H126340   7.080   0.205   2.779
 8792TIP3    H226341   6.955   0.283   2.813
 8793TIP3   OH226342   4.324   0.687   4.860
 8793TIP3    H126343   4.311   0.729   4.775
 8793TIP3    H226344   4.302   0.595   4.845
 8794TIP3   OH226345   5.353   1.310   1.068
 8794TIP3    H126346   5.448   1.317   1.056
 8794TIP3    H226347   5.343   1.242   1.135
 8795TIP3   OH226348   6.968   6.174   4.897
 8795TIP3    H126349   7.039   6.119   4.865
 8795TIP3    H226350   6.957   6.241   4.829
 8796TIP3   OH226351   2.837   0.996   0.032
 8796TIP3    H126352   2.914   0.939   0.028
 8796TIP3    H226353   2.807   0.989   0.122
 8797TIP3   OH226354   3.267   6.502   0.285
 8797TIP3    H126355   3.204   6.574   0.282
 8797TIP3    H226356   3.291   6.495   0.378
 8798TIP3   OH226357   3.881   1.424   1.028
 8798TIP3    H126358   3.868   1.329   1.023
 8798TIP3    H226359   3.948   1.442   0.962
 8799TIP3   OH226360   1.497   6.497   1.567
 8799TIP3    H126361   1.515   6.454   1.651
 8799TIP3    H226362   1.521   6.431   1.501
 8800TIP3   OH226363   4.006   6.595   4.669
 8800TIP3    H126364   4.006   6.512   4.717
 8800TIP3    H226365   3.918   6.600   4.631
 8801TIP3   OH226366   5.255   4.560   3.858
 8801TIP3    H126367   5.303   4.579   3.939
 8801TIP3    H226368   5.323   4.559   3.790
 8802TIP3   OH226369   0.792   5.616   4.193
 8802TIP3    H126370   0.826   5.644   4.108
 8802TIP3    H226371   0.871   5.598   4.246
 8803TIP3   OH226372   6.413   3.130   3.891
 8803TIP3    H126373   6.318   3.132   3.878
 8803TIP3    H226374   6.427   3.170   3.977
 8804TIP3   OH226375   1.202   6.034   0.324
 8804TIP3    H126376   1.161   6.017   0.239
 8804TIP3    H226377   1.143   6.095   0.367
 8805TIP3   OH226378   3.797   3.342   0.618
 8805TIP3    H126379   3.877   3.294   0.599
 8805TIP3    H226380   3.748   3.284   0.677
 8806TIP3   OH226381   5.198   1.383   3.936
 8806TIP3    H126382   5.194   1.297   3.977
 8806TIP3    H226383   5.115   1.392   3.889
 8807TIP3   OH226384   0.547   2.298   1.395
 8807TIP3    H126385   0.539   2.394   1.392
 8807TIP3    H226386   0.578   2.274   1.308
 8808TIP3   OH226387   3.105   6.719   4.444
 8808TIP3    H126388   3.053   6.703   4.523
 8808TIP3    H226389   3.140   6.807   4.454
 8809TIP3   OH226390   3.439   6.344   1.350
 8809TIP3    H126391   3.458   6.437   1.336
 8809TIP3    H226392   3.343   6.340   1.351
 8810TIP3   OH226393   1.352   5.944   0.085
 8810TIP3    H126394   1.348   6.040   0.091
 8810TIP3    H226395   1.404   5.928   0.006
 8811TIP3   OH226396   0.944   6.252   3.855
 8811TIP3    H126397   0.905   6.226   3.772
 8811TIP3    H226398   0.870   6.283   3.908
 8812TIP3   OH226399   3.475   4.200   4.331
 8812TIP3    H126400   3.495   4.284   4.373
 8812TIP3    H226401   3.487   4.217   4.237
 8813TIP3   OH226402   5.831   2.066   1.416
 8813TIP3    H126403   5.864   2.082   1.504
 8813TIP3    H226404   5.745   2.025   1.430
 8814TIP3   OH226405   1.040   6.718   0.542
 8814TIP3    H126406   1.084   6.696   0.624
 8814TIP3    H226407   1.065   6.809   0.525
 8815TIP3   OH226408   3.689   6.195   1.274
 8815TIP3    H126409   3.615   6.145   1.242
 8815TIP3    H226410   3.651   6.265   1.326
 8816TIP3   OH226411   5.657   2.290   0.797
 8816TIP3    H126412   5.624   2.285   0.886
 8816TIP3    H226413   5.752   2.287   0.806
 8817TIP3   OH226414   2.754   0.430   0.425
 8817TIP3    H126415   2.710   0.418   0.341
 8817TIP3    H226416   2.839   0.387   0.414
 8818TIP3   OH226417   6.242   4.951   1.319
 8818TIP3    H126418   6.154   4.960   1.281
 8818TIP3    H226419   6.246   5.018   1.387
 8819TIP3   OH226420   0.495   3.568   4.178
 8819TIP3    H126421   0.486   3.661   4.156
 8819TIP3    H226422   0.500   3.567   4.274
 8820TIP3   OH226423   2.695   3.981   5.578
 8820TIP3    H126424   2.621   4.029   5.540
 8820TIP3    H226425   2.767   3.996   5.517
 8821TIP3   OH226426   6.029   1.922   5.665
 8821TIP3    H126427   6.083   1.909   5.587
 8821TIP3    H226428   6.047   2.012   5.692
 8822TIP3   OH226429   4.196   2.688   3.971
 8822TIP3    H126430   4.201   2.684   4.066
 8822TIP3    H226431   4.198   2.597   3.942
 8823TIP3   OH226432   5.116   3.152   3.655
 8823TIP3    H126433   5.182   3.113   3.713
 8823TIP3    H226434   5.144   3.127   3.567
 8824TIP3   OH226435   1.944   5.328   5.026
 8824TIP3    H126436   1.925   5.402   5.084
 8824TIP3    H226437   1.869   5.269   5.037
 8825TIP3   OH226438   1.867   3.936   5.292
 8825TIP3    H126439   1.872   3.952   5.386
 8825TIP3    H226440   1.805   4.001   5.260
 8826TIP3   OH226441   3.559   5.837   5.546
 8826TIP3    H126442   3.553   5.932   5.542
 8826TIP3    H226443   3.470   5.806   5.532
 8827TIP3   OH226444   5.212   5.314   3.621
 8827TIP3    H126445   5.255   5.232   3.644
 8827TIP3    H226446   5.222   5.370   3.698
 8828TIP3   OH226447   4.766   0.258   3.743
 8828TIP3    H126448   4.842   0.204   3.720
 8828TIP3    H226449   4.694   0.195   3.753
 8829TIP3   OH226450   6.095   1.499   0.960
 8829TIP3    H126451   6.051   1.573   0.919
 8829TIP3    H226452   6.174   1.485   0.907
 8830TIP3   OH226453   4.167   3.092   3.562
 8830TIP3    H126454   4.175   3.078   3.656
 8830TIP3    H226455   4.092   3.040   3.535
 8831TIP3   OH226456   2.531   6.530   2.626
 8831TIP3    H126457   2.516   6.601   2.564
 8831TIP3    H226458   2.445   6.489   2.637
 8832TIP3   OH226459   3.081   3.947   4.620
 8832TIP3    H126460   3.012   3.996   4.664
 8832TIP3    H226461   3.152   4.011   4.608
 8833TIP3   OH226462   7.119   2.022   0.646
 8833TIP3    H126463   7.135   1.985   0.559
 8833TIP3    H226464   7.049   1.968   0.683
 8834TIP3   OH226465   0.386   3.743   3.849
 8834TIP3    H126466   0.300   3.766   3.812
 8834TIP3    H226467   0.372   3.657   3.889
 8835TIP3   OH226468   4.849   1.702   0.594
 8835TIP3    H126469   4.757   1.674   0.597
 8835TIP3    H226470   4.847   1.787   0.551
 8836TIP3   OH226471   6.935   4.177   2.429
 8836TIP3    H126472   7.026   4.187   2.457
 8836TIP3    H226473   6.922   4.246   2.364
 8837TIP3   OH226474   3.165   3.144   5.647
 8837TIP3    H126475   3.207   3.065   5.682
 8837TIP3    H226476   3.187   3.144   5.554
 8838TIP3   OH226477   2.934   6.170   5.444
 8838TIP3    H126478   2.972   6.256   5.465
 8838TIP3    H226479   3.010   6.113   5.432
 8839TIP3   OH226480   3.717   2.960   2.136
 8839TIP3    H126481   3.733   3.037   2.190
 8839TIP3    H226482   3.775   2.971   2.060
 8840TIP3   OH226483   5.084   1.801   1.117
 8840TIP3    H126484   5.077   1.708   1.095
 8840TIP3    H226485   5.071   1.804   1.212
 8841TIP3   OH226486   3.154   2.422   5.096
 8841TIP3    H126487   3.079   2.440   5.040
 8841TIP3    H226488   3.118   2.422   5.185
 8842TIP3   OH226489   3.522   6.630   3.339
 8842TIP3    H126490   3.537   6.535   3.345
 8842TIP3    H226491   3.432   6.638   3.308
 8843TIP3   OH226492   4.811   4.598   2.755
 8843TIP3    H126493   4.787   4.617   2.664
 8843TIP3    H226494   4.828   4.504   2.756
 8844TIP3   OH226495   0.248   6.461   1.857
 8844TIP3    H126496   0.239   6.555   1.873
 8844TIP3    H226497   0.262   6.454   1.763
 8845TIP3   OH226498   2.259   1.004   4.313
 8845TIP3    H126499   2.186   0.979   4.369
 8845TIP3    H226500   2.231   0.979   4.225
 8846TIP3   OH226501   0.386   4.163   1.533
 8846TIP3    H126502   0.367   4.131   1.621
 8846TIP3    H226503   0.426   4.089   1.488
 8847TIP3   OH226504   3.559   5.880   2.679
 8847TIP3    H126505   3.578   5.967   2.715
 8847TIP3    H226506   3.629   5.863   2.617
 8848TIP3   OH226507   2.578   4.068   2.258
 8848TIP3    H126508   2.627   3.993   2.293
 8848TIP3    H226509   2.487   4.046   2.275
 8849TIP3   OH226510   5.728   4.478   4.313
 8849TIP3    H126511   5.726   4.411   4.381
 8849TIP3    H226512   5.651   4.461   4.259
 8850TIP3   OH226513   0.538   3.080   3.999
 8850TIP3    H126514   0.560   3.147   3.934
 8850TIP3    H226515   0.622   3.039   4.019
 8851TIP3   OH226516   4.163   6.499   4.425
 8851TIP3    H126517   4.116   6.518   4.506
 8851TIP3    H226518   4.138   6.409   4.404
 8852TIP3   OH226519   0.578   2.699   3.301
 8852TIP3    H126520   0.611   2.668   3.217
 8852TIP3    H226521   0.495   2.653   3.313
 8853TIP3   OH226522   6.942   0.116   0.503
 8853TIP3    H126523   6.966   0.102   0.412
 8853TIP3    H226524   7.011   0.073   0.553
 8854TIP3   OH226525   0.481   0.673   4.761
 8854TIP3    H126526   0.539   0.702   4.690
 8854TIP3    H226527   0.399   0.651   4.717
 8855TIP3   OH226528   0.407   2.462   4.224
 8855TIP3    H126529   0.438   2.451   4.134
 8855TIP3    H226530   0.352   2.540   4.222
 8856TIP3   OH226531   6.352   4.727   4.331
 8856TIP3    H126532   6.378   4.638   4.307
 8856TIP3    H226533   6.256   4.725   4.334
 8857TIP3   OH226534   3.292   4.384   0.134
 8857TIP3    H126535   3.222   4.358   0.194
 8857TIP3    H226536   3.373   4.363   0.181
 8858TIP3   OH226537   0.624   6.396   4.675
 8858TIP3    H126538   0.634   6.321   4.616
 8858TIP3    H226539   0.560   6.452   4.632
 8859TIP3   OH226540   4.927   2.366   5.236
 8859TIP3    H126541   4.900   2.437   5.177
 8859TIP3    H226542   4.868   2.294   5.215
 8860TIP3   OH226543   7.086   6.731   5.359
 8860TIP3    H126544   7.004   6.684   5.375
 8860TIP3    H226545   7.121   6.750   5.446
 8861TIP3   OH226546   0.124   1.338   0.456
 8861TIP3    H126547   0.128   1.418   0.509
 8861TIP3    H226548   0.151   1.367   0.369
 8862TIP3   OH226549   2.090   0.137   0.382
 8862TIP3    H126550   2.171   0.184   0.360
 8862TIP3    H226551   2.096   0.120   0.475
 8863TIP3   OH226552   4.340   1.893   3.294
 8863TIP3    H126553   4.405   1.825   3.315
 8863TIP3    H226554   4.303   1.867   3.210
 8864TIP3   OH226555   0.548   1.691   1.529
 8864TIP3    H126556   0.644   1.682   1.535
 8864TIP3    H226557   0.522   1.721   1.616
 8865TIP3   OH226558   2.119   3.573   0.010
 8865TIP3    H126559   2.202   3.603   0.047
 8865TIP3    H226560   2.054   3.633   0.047
 8866TIP3   OH226561   2.033   6.208   1.359
 8866TIP3    H126562   2.107   6.181   1.413
 8866TIP3    H226563   2.066   6.281   1.307
 8867TIP3   OH226564   5.259   3.629   2.528
 8867TIP3    H126565   5.322   3.665   2.466
 8867TIP3    H226566   5.295   3.543   2.551
 8868TIP3   OH226567   1.175   5.960   0.787
 8868TIP3    H126568   1.234   5.893   0.821
 8868TIP3    H226569   1.226   6.005   0.720
 8869TIP3   OH226570   0.736   1.772   1.824
 8869TIP3    H126571   0.822   1.799   1.793
 8869TIP3    H226572   0.748   1.679   1.847
 8870TIP3   OH226573   2.190   0.710   5.504
 8870TIP3    H126574   2.164   0.659   5.581
 8870TIP3    H226575   2.122   0.692   5.439
 8871TIP3   OH226576   1.892   1.944   2.785
 8871TIP3    H126577   1.841   2.000   2.727
 8871TIP3    H226578   1.982   1.950   2.751
 8872TIP3   OH226579   2.094   3.288   5.017
 8872TIP3    H126580   2.051   3.266   4.934
 8872TIP3    H226581   2.055   3.371   5.043
 8873TIP3   OH226582   0.795   2.128   5.551
 8873TIP3    H126583   0.708   2.091   5.559
 8873TIP3    H226584   0.793   2.208   5.603
 8874TIP3   OH226585   1.977   5.059   3.236
 8874TIP3    H126586   1.940   4.979   3.273
 8874TIP3    H226587   1.982   5.120   3.309
 8875TIP3   OH226588   3.274   0.629   3.474
 8875TIP3    H126589   3.309   0.560   3.530
 8875TIP3    H226590   3.190   0.652   3.513
 8876TIP3   OH226591   5.622   5.272   2.921
 8876TIP3    H126592   5.607   5.282   2.827
 8876TIP3    H226593   5.541   5.233   2.954
 8877TIP3   OH226594   1.933   4.708   1.493
 8877TIP3    H126595   1.962   4.667   1.574
 8877TIP3    H226596   1.909   4.797   1.518
 8878TIP3   OH226597   3.158   6.581   2.917
 8878TIP3    H126598   3.243   6.618   2.937
 8878TIP3    H226599   3.176   6.516   2.848
 8879TIP3   OH226600   1.711   4.410   5.652
 8879TIP3    H126601   1.679   4.466   5.723
 8879TIP3    H226602   1.658   4.331   5.658
 8880TIP3   OH226603   5.262   1.645   4.533
 8880TIP3    H126604   5.339   1.656   4.478
 8880TIP3    H226605   5.280   1.697   4.611
 8881TIP3   OH226606   6.732   2.346   5.779
 8881TIP3    H126607   6.706   2.254   5.784
 8881TIP3    H226608   6.699   2.386   5.860
 8882TIP3   OH226609   3.488   2.630   5.248
 8882TIP3    H126610   3.578   2.653   5.224
 8882TIP3    H226611   3.435   2.699   5.210
 8883TIP3   OH226612   6.909   4.766   1.269
 8883TIP3    H126613   6.932   4.839   1.326
 8883TIP3    H226614   6.875   4.699   1.327
 8884TIP3   OH226615   1.304   3.666   4.457
 8884TIP3    H126616   1.236   3.617   4.502
 8884TIP3    H226617   1.359   3.600   4.416
 8885TIP3   OH226618   4.713   1.024   0.494
 8885TIP3    H126619   4.651   0.985   0.431
 8885TIP3    H226620   4.744   0.950   0.546
 8886TIP3   OH226621   6.487   0.615   2.903
 8886TIP3    H126622   6.467   0.625   2.996
 8886TIP3    H226623   6.509   0.703   2.874
 8887TIP3   OH226624   0.041   0.896   3.169
 8887TIP3    H126625   0.077   0.978   3.135
 8887TIP3    H226626   0.102   0.829   3.140
 8888TIP3   OH226627   5.414   5.020   0.080
 8888TIP3    H126628   5.341   5.063   0.037
 8888TIP3    H226629   5.442   5.082   0.147
 8889TIP3   OH226630   3.541   5.982   4.728
 8889TIP3    H126631   3.556   6.049   4.795
 8889TIP3    H226632   3.459   5.940   4.755
 8890TIP3   OH226633   6.768   1.557   4.001
 8890TIP3    H126634   6.751   1.499   4.076
 8890TIP3    H226635   6.837   1.616   4.031
 8891TIP3   OH226636   2.859   4.150   1.335
 8891TIP3    H126637   2.765   4.140   1.349
 8891TIP3    H226638   2.899   4.077   1.383
 8892TIP3   OH226639   1.047   3.625   0.782
 8892TIP3    H126640   1.132   3.582   0.791
 8892TIP3    H226641   1.067   3.719   0.788
 8893TIP3   OH226642   5.177   4.935   1.463
 8893TIP3    H126643   5.222   4.976   1.536
 8893TIP3    H226644   5.117   5.002   1.431
 8894TIP3   OH226645   0.029   5.143   1.611
 8894TIP3    H126646  -0.023   5.194   1.549
 8894TIP3    H226647   0.119   5.171   1.595
 8895TIP3   OH226648   4.175   5.315   4.820
 8895TIP3    H126649   4.104   5.371   4.788
 8895TIP3    H226650   4.157   5.305   4.913
 8896TIP3   OH226651   0.472   5.175   1.910
 8896TIP3    H126652   0.540   5.187   1.844
 8896TIP3    H226653   0.394   5.215   1.871
 8897TIP3   OH226654   5.589   0.750   0.688
 8897TIP3    H126655   5.564   0.658   0.697
 8897TIP3    H226656   5.616   0.777   0.776
 8898TIP3   OH226657   2.602   5.026   2.778
 8898TIP3    H126658   2.517   4.982   2.768
 8898TIP3    H226659   2.646   5.013   2.695
 8899TIP3   OH226660   3.576   3.738   2.727
 8899TIP3    H126661   3.654   3.690   2.755
 8899TIP3    H226662   3.609   3.825   2.704
 8900TIP3   OH226663   0.836   0.237   5.419
 8900TIP3    H126664   0.854   0.331   5.424
 8900TIP3    H226665   0.911   0.196   5.462
 8901TIP3   OH226666   1.077   6.489   4.947
 8901TIP3    H126667   1.134   6.523   5.016
 8901TIP3    H226668   0.991   6.525   4.967
 8902TIP3   OH226669   5.974   4.811   2.383
 8902TIP3    H126670   5.979   4.807   2.478
 8902TIP3    H226671   6.002   4.900   2.361
 8903TIP3   OH226672   1.409   1.536   3.923
 8903TIP3    H126673   1.326   1.584   3.916
 8903TIP3    H226674   1.445   1.537   3.835
 8904TIP3   OH226675   5.385   1.092   5.314
 8904TIP3    H126676   5.297   1.072   5.346
 8904TIP3    H226677   5.394   1.187   5.325
 8905TIP3   OH226678   6.793   0.866   1.302
 8905TIP3    H126679   6.728   0.934   1.319
 8905TIP3    H226680   6.755   0.814   1.231
 8906TIP3   OH226681   5.155   2.126   3.584
 8906TIP3    H126682   5.076   2.077   3.606
 8906TIP3    H226683   5.138   2.162   3.497
 8907TIP3   OH226684   4.084   3.137   4.749
 8907TIP3    H126685   4.006   3.100   4.791
 8907TIP3    H226686   4.079   3.106   4.658
 8908TIP3   OH226687   5.933   4.162   5.826
 8908TIP3    H126688   5.999   4.224   5.793
 8908TIP3    H226689   5.931   4.177   5.921
 8909TIP3   OH226690   7.120   1.919   3.880
 8909TIP3    H126691   7.175   1.975   3.935
 8909TIP3    H226692   7.133   1.952   3.792
 8910TIP3   OH226693   4.965   2.154   2.535
 8910TIP3    H126694   4.904   2.080   2.541
 8910TIP3    H226695   4.965   2.192   2.623
 8911TIP3   OH226696   6.504   0.282   1.276
 8911TIP3    H126697   6.557   0.203   1.284
 8911TIP3    H226698   6.535   0.339   1.347
 8912TIP3   OH226699   5.298   0.556   2.831
 8912TIP3    H126700   5.282   0.491   2.899
 8912TIP3    H226701   5.393   0.557   2.821
 8913TIP3   OH226702   1.668   2.304   2.305
 8913TIP3    H126703   1.679   2.389   2.262
 8913TIP3    H226704   1.574   2.300   2.325
 8914TIP3   OH226705   1.565   3.178   1.100
 8914TIP3    H126706   1.528   3.242   1.161
 8914TIP3    H226707   1.647   3.151   1.141
 8915TIP3   OH226708   0.363   6.602   4.944
 8915TIP3    H126709   0.332   6.534   5.004
 8915TIP3    H226710   0.369   6.558   4.859
 8916TIP3   OH226711   4.272   1.171  -0.018
 8916TIP3    H126712   4.302   1.221   0.058
 8916TIP3    H226713   4.176   1.177  -0.014
 8917TIP3   OH226714   2.530   1.810   3.074
 8917TIP3    H126715   2.444   1.779   3.100
 8917TIP3    H226716   2.538   1.895   3.116
 8918TIP3   OH226717   1.427   2.725   2.424
 8918TIP3    H126718   1.413   2.668   2.499
 8918TIP3    H226719   1.379   2.805   2.444
 8919TIP3   OH226720   4.785   1.959   0.480
 8919TIP3    H126721   4.808   2.050   0.463
 8919TIP3    H226722   4.698   1.963   0.521
 8920TIP3   OH226723   0.916   6.558   5.708
 8920TIP3    H126724   0.978   6.505   5.659
 8920TIP3    H226725   0.909   6.515   5.793
 8921TIP3   OH226726   6.129   6.541   5.630
 8921TIP3    H126727   6.037   6.529   5.608
 8921TIP3    H226728   6.148   6.631   5.604
 8922TIP3   OH226729   3.345   4.229   5.876
 8922TIP3    H126730   3.356   4.193   5.964
 8922TIP3    H226731   3.302   4.158   5.827
 8923TIP3   OH226732   5.976   2.820   2.603
 8923TIP3    H126733   6.034   2.753   2.639
 8923TIP3    H226734   5.989   2.896   2.660
 8924TIP3   OH226735   0.264   5.049   4.674
 8924TIP3    H126736   0.260   5.112   4.746
 8924TIP3    H226737   0.197   5.079   4.613
 8925TIP3   OH226738   5.327   2.113   4.467
 8925TIP3    H126739   5.335   2.193   4.414
 8925TIP3    H226740   5.415   2.099   4.501
 8926TIP3   OH226741   6.564   0.572   0.770
 8926TIP3    H126742   6.480   0.616   0.755
 8926TIP3    H226743   6.540   0.489   0.811
 8927TIP3   OH226744   0.227   4.343   5.744
 8927TIP3    H126745   0.220   4.437   5.759
 8927TIP3    H226746   0.303   4.334   5.686
 8928TIP3   OH226747   3.866   1.125   2.233
 8928TIP3    H126748   3.880   1.214   2.266
 8928TIP3    H226749   3.853   1.072   2.312
 8929TIP3   OH226750   0.540   4.585   3.435
 8929TIP3    H126751   0.578   4.670   3.458
 8929TIP3    H226752   0.615   4.531   3.410
 8930TIP3   OH226753   4.402   3.754   4.434
 8930TIP3    H126754   4.448   3.751   4.350
 8930TIP3    H226755   4.470   3.772   4.498
 8931TIP3   OH226756   6.638   2.861   1.356
 8931TIP3    H126757   6.545   2.845   1.369
 8931TIP3    H226758   6.678   2.774   1.365
 8932TIP3   OH226759   4.554   5.456   3.254
 8932TIP3    H126760   4.519   5.419   3.172
 8932TIP3    H226761   4.489   5.521   3.281
 8933TIP3   OH226762   4.518   4.342   2.888
 8933TIP3    H126763   4.576   4.387   2.951
 8933TIP3    H226764   4.466   4.283   2.942
 8934TIP3   OH226765   4.559   3.888   1.061
 8934TIP3    H126766   4.501   3.817   1.086
 8934TIP3    H226767   4.633   3.845   1.018
 8935TIP3   OH226768   0.791   2.655   3.487
 8935TIP3    H126769   0.733   2.693   3.420
 8935TIP3    H226770   0.880   2.673   3.454
 8936TIP3   OH226771   3.382   2.783   2.651
 8936TIP3    H126772   3.422   2.855   2.699
 8936TIP3    H226773   3.424   2.786   2.565
 8937TIP3   OH226774   1.869   4.842   1.807
 8937TIP3    H126775   1.876   4.749   1.787
 8937TIP3    H226776   1.960   4.872   1.814
 8938TIP3   OH226777   5.332   6.271   0.187
 8938TIP3    H126778   5.315   6.242   0.277
 8938TIP3    H226779   5.372   6.358   0.197
 8939TIP3   OH226780   4.457   5.667   3.034
 8939TIP3    H126781   4.521   5.710   3.091
 8939TIP3    H226782   4.390   5.734   3.019
 8940TIP3   OH226783   6.224   0.684   0.421
 8940TIP3    H126784   6.217   0.614   0.356
 8940TIP3    H226785   6.171   0.756   0.386
 8941TIP3   OH226786   4.568   1.181   2.884
 8941TIP3    H126787   4.550   1.266   2.845
 8941TIP3    H226788   4.663   1.169   2.874
 8942TIP3   OH226789   2.664   4.428   3.206
 8942TIP3    H126790   2.741   4.371   3.204
 8942TIP3    H226791   2.651   4.455   3.115
 8943TIP3   OH226792   2.160   4.918   5.164
 8943TIP3    H126793   2.220   4.869   5.221
 8943TIP3    H226794   2.079   4.867   5.164
 8944TIP3   OH226795   0.371   3.836   5.159
 8944TIP3    H126796   0.419   3.918   5.145
 8944TIP3    H226797   0.349   3.837   5.252
 8945TIP3   OH226798   6.736   5.496   5.484
 8945TIP3    H126799   6.715   5.434   5.554
 8945TIP3    H226800   6.810   5.457   5.439
 8946TIP3   OH226801   2.466   6.173   0.020
 8946TIP3    H126802   2.400   6.186   0.088
 8946TIP3    H226803   2.479   6.260  -0.019
 8947TIP3   OH226804   4.256   1.201   3.827
 8947TIP3    H126805   4.323   1.252   3.872
 8947TIP3    H226806   4.290   1.111   3.826
 8948TIP3   OH226807   7.191   5.296   1.247
 8948TIP3    H126808   7.186   5.202   1.228
 8948TIP3    H226809   7.103   5.319   1.275
 8949TIP3   OH226810   3.946   3.304   0.111
 8949TIP3    H126811   4.006   3.231   0.094
 8949TIP3    H226812   3.890   3.272   0.182
 8950TIP3   OH226813   1.686   1.633   0.213
 8950TIP3    H126814   1.718   1.673   0.132
 8950TIP3    H226815   1.684   1.706   0.275
 8951TIP3   OH226816   7.222   0.928   1.099
 8951TIP3    H126817   7.167   0.880   1.161
 8951TIP3    H226818   7.160   0.960   1.033
 8952TIP3   OH226819   0.172   1.192   4.966
 8952TIP3    H126820   0.167   1.256   4.895
 8952TIP3    H226821   0.260   1.205   5.003
 8953TIP3   OH226822   4.032   3.394   1.024
 8953TIP3    H126823   4.123   3.386   1.054
 8953TIP3    H226824   3.980   3.356   1.095
 8954TIP3   OH226825   0.092   6.162   5.707
 8954TIP3    H126826   0.185   6.140   5.696
 8954TIP3    H226827   0.093   6.254   5.735
 8955TIP3   OH226828   5.875   6.407   5.427
 8955TIP3    H126829   5.849   6.474   5.489
 8955TIP3    H226830   5.804   6.405   5.363
 8956TIP3   OH226831   4.588   0.777   5.598
 8956TIP3    H126832   4.637   0.829   5.662
 8956TIP3    H226833   4.642   0.781   5.519
 8957TIP3   OH226834   6.921   1.300   4.145
 8957TIP3    H126835   6.896   1.244   4.071
 8957TIP3    H226836   6.842   1.351   4.164
 8958TIP3   OH226837   0.801   1.780   0.197
 8958TIP3    H126838   0.835   1.727   0.125
 8958TIP3    H226839   0.859   1.761   0.271
 8959TIP3   OH226840   3.925   1.276   1.991
 8959TIP3    H126841   3.918   1.211   2.062
 8959TIP3    H226842   4.014   1.310   1.998
 8960TIP3   OH226843   4.023   3.839   4.555
 8960TIP3    H126844   4.044   3.755   4.515
 8960TIP3    H226845   4.102   3.862   4.606
 8961TIP3   OH226846   3.344   0.673   2.528
 8961TIP3    H126847   3.256   0.694   2.496
 8961TIP3    H226848   3.328   0.623   2.609
 8962TIP3   OH226849   2.114   6.263   0.072
 8962TIP3    H126850   2.171   6.333   0.042
 8962TIP3    H226851   2.090   6.288   0.162
 8963TIP3   OH226852   1.163   3.576   2.166
 8963TIP3    H126853   1.233   3.634   2.136
 8963TIP3    H226854   1.115   3.628   2.230
 8964TIP3   OH226855   4.813   6.491   2.828
 8964TIP3    H126856   4.836   6.572   2.781
 8964TIP3    H226857   4.888   6.474   2.885
 8965TIP3   OH226858   6.853   4.058   2.669
 8965TIP3    H126859   6.933   4.070   2.718
 8965TIP3    H226860   6.868   4.104   2.586
 8966TIP3   OH226861   6.063   1.867   1.787
 8966TIP3    H126862   6.079   1.932   1.856
 8966TIP3    H226863   6.064   1.917   1.706
 8967TIP3   OH226864   0.722   5.509   1.525
 8967TIP3    H126865   0.706   5.603   1.536
 8967TIP3    H226866   0.764   5.503   1.439
 8968TIP3   OH226867   6.726   2.399   5.518
 8968TIP3    H126868   6.742   2.377   5.610
 8968TIP3    H226869   6.634   2.376   5.504
 8969TIP3   OH226870   5.651   4.594   1.353
 8969TIP3    H126871   5.595   4.660   1.393
 8969TIP3    H226872   5.718   4.644   1.306
 8970TIP3   OH226873   4.681   3.420   2.887
 8970TIP3    H126874   4.687   3.363   2.963
 8970TIP3    H226875   4.587   3.422   2.866
 8971TIP3   OH226876   6.768   3.307   1.507
 8971TIP3    H126877   6.811   3.269   1.431
 8971TIP3    H226878   6.829   3.292   1.579
 8972TIP3   OH226879   1.754   0.569   3.625
 8972TIP3    H126880   1.759   0.599   3.534
 8972TIP3    H226881   1.739   0.475   3.618
 8973TIP3   OH226882   0.479   3.456   5.541
 8973TIP3    H126883   0.529   3.497   5.470
 8973TIP3    H226884   0.392   3.440   5.504
 8974TIP3   OH226885   2.539   4.602   2.601
 8974TIP3    H126886   2.538   4.691   2.565
 8974TIP3    H226887   2.573   4.548   2.530
 8975TIP3   OH226888   3.296   5.788   5.643
 8975TIP3    H126889   3.355   5.837   5.700
 8975TIP3    H226890   3.210   5.798   5.684
 8976TIP3   OH226891   5.322   6.626   3.350
 8976TIP3    H126892   5.367   6.665   3.425
 8976TIP3    H226893   5.257   6.692   3.325
 8977TIP3   OH226894   4.295   2.480   5.579
 8977TIP3    H126895   4.290   2.478   5.675
 8977TIP3    H226896   4.287   2.389   5.553
 8978TIP3   OH226897   4.361   3.254   4.327
 8978TIP3    H126898   4.352   3.272   4.420
 8978TIP3    H226899   4.355   3.340   4.285
 8979TIP3   OH226900   5.216   0.589   2.470
 8979TIP3    H126901   5.170   0.672   2.482
 8979TIP3    H226902   5.217   0.574   2.376
 8980TIP3   OH226903   1.916   0.212   2.190
 8980TIP3    H126904   1.827   0.181   2.210
 8980TIP3    H226905   1.910   0.245   2.101
 8981TIP3   OH226906   6.244   5.535   4.390
 8981TIP3    H126907   6.214   5.444   4.390
 8981TIP3    H226908   6.164   5.587   4.399
 8982TIP3   OH226909   3.459   1.073   0.083
 8982TIP3    H126910   3.469   0.981   0.107
 8982TIP3    H226911   3.542   1.114   0.111
 8983TIP3   OH226912   0.182   5.941   2.172
 8983TIP3    H126913   0.135   5.952   2.254
 8983TIP3    H226914   0.182   6.028   2.132
 8984TIP3   OH226915   1.372   0.083   2.059
 8984TIP3    H126916   1.338   0.077   2.148
 8984TIP3    H226917   1.411  -0.002   2.042
 8985TIP3   OH226918   4.151   0.603   5.565
 8985TIP3    H126919   4.191   0.600   5.478
 8985TIP3    H226920   4.207   0.662   5.616
 8986TIP3   OH226921   6.703   1.230   5.280
 8986TIP3    H126922   6.668   1.140   5.284
 8986TIP3    H226923   6.787   1.221   5.235
 8987TIP3   OH226924   4.998   6.713   2.408
 8987TIP3    H126925   4.953   6.795   2.386
 8987TIP3    H226926   5.078   6.713   2.355
 8988TIP3   OH226927   4.224   3.761   0.562
 8988TIP3    H126928   4.231   3.773   0.656
 8988TIP3    H226929   4.132   3.779   0.542
 8989TIP3   OH226930   6.339   5.557   3.376
 8989TIP3    H126931   6.265   5.509   3.338
 8989TIP3    H226932   6.411   5.540   3.316
 8990TIP3   OH226933   2.504   0.227   3.618
 8990TIP3    H126934   2.572   0.262   3.560
 8990TIP3    H226935   2.511   0.132   3.608
 8991TIP3   OH226936   1.190   2.808   1.660
 8991TIP3    H126937   1.167   2.778   1.572
 8991TIP3    H226938   1.221   2.898   1.647
 8992TIP3   OH226939   5.900   5.339   3.401
 8992TIP3    H126940   5.858   5.358   3.485
 8992TIP3    H226941   5.836   5.366   3.336
 8993TIP3   OH226942   1.434   5.463   3.328
 8993TIP3    H126943   1.500   5.425   3.269
 8993TIP3    H226944   1.361   5.401   3.326
 8994TIP3   OH226945   6.470   0.550   5.877
 8994TIP3    H126946   6.518   0.593   5.948
 8994TIP3    H226947   6.533   0.546   5.805
 8995TIP3   OH226948   2.293   4.261   2.778
 8995TIP3    H126949   2.345   4.338   2.801
 8995TIP3    H226950   2.274   4.271   2.685
 8996TIP3   OH226951   2.856   6.586   4.417
 8996TIP3    H126952   2.764   6.564   4.405
 8996TIP3    H226953   2.876   6.645   4.344
 8997TIP3   OH226954   5.234   0.379   0.918
 8997TIP3    H126955   5.253   0.405   1.008
 8997TIP3    H226956   5.244   0.283   0.919
 8998TIP3   OH226957   2.278   3.049   2.418
 8998TIP3    H126958   2.235   3.135   2.415
 8998TIP3    H226959   2.214   2.992   2.460
 8999TIP3   OH226960   1.599   6.349   2.585
 8999TIP3    H126961   1.587   6.268   2.636
 8999TIP3    H226962   1.630   6.320   2.499
 9000TIP3   OH226963   2.778   0.979   0.775
 9000TIP3    H126964   2.697   1.016   0.811
 9000TIP3    H226965   2.812   0.924   0.846
 9001TIP3   OH226966   6.016   4.153   2.335
 9001TIP3    H126967   6.023   4.072   2.284
 9001TIP3    H226968   6.069   4.137   2.414
 9002TIP3   OH226969   3.172   0.660   1.663
 9002TIP3    H126970   3.215   0.595   1.608
 9002TIP3    H226971   3.201   0.744   1.627
 9003TIP3   OH226972   1.475   3.134   3.326
 9003TIP3    H126973   1.426   3.058   3.358
 9003TIP3    H226974   1.411   3.205   3.327
 9004TIP3   OH226975   2.338   2.877   4.464
 9004TIP3    H126976   2.271   2.873   4.532
 9004TIP3    H226977   2.416   2.838   4.504
 9005TIP3   OH226978   4.960   3.797   2.312
 9005TIP3    H126979   4.919   3.713   2.292
 9005TIP3    H226980   4.977   3.793   2.406
 9006TIP3   OH226981   0.890   3.228   1.532
 9006TIP3    H126982   0.931   3.186   1.607
 9006TIP3    H226983   0.964   3.258   1.478
 9007TIP3   OH226984   1.008   2.855   2.180
 9007TIP3    H126985   1.091   2.843   2.133
 9007TIP3    H226986   0.942   2.863   2.110
 9008TIP3   OH226987   3.557   2.875   5.489
 9008TIP3    H126988   3.500   2.807   5.452
 9008TIP3    H226989   3.506   2.956   5.479
 9009TIP3   OH226990   6.119   3.232   2.036
 9009TIP3    H126991   6.114   3.310   1.980
 9009TIP3    H226992   6.091   3.160   1.979
 9010TIP3   OH226993   3.606   6.609   1.519
 9010TIP3    H126994   3.565   6.681   1.471
 9010TIP3    H226995   3.587   6.626   1.611
 9011TIP3   OH226996   4.528   2.136   4.071
 9011TIP3    H126997   4.455   2.098   4.022
 9011TIP3    H226998   4.490   2.212   4.116
 9012TIP3   OH226999   3.956   0.446   3.198
 9012TIP3    H127000   3.992   0.458   3.286
 9012TIP3    H227001   3.984   0.358   3.173
 9013TIP3   OH227002   4.590   5.486   1.016
 9013TIP3    H127003   4.570   5.520   0.929
 9013TIP3    H227004   4.609   5.393   1.002
 9014TIP3   OH227005   0.022   4.018   4.901
 9014TIP3    H127006  -0.015   4.105   4.888
 9014TIP3    H227007   0.114   4.034   4.923
 9015TIP3   OH227008   6.654   6.628   2.647
 9015TIP3    H127009   6.649   6.703   2.706
 9015TIP3    H227010   6.651   6.666   2.559
 9016TIP3   OH227011   0.349   0.524   5.579
 9016TIP3    H127012   0.391   0.440   5.601
 9016TIP3    H227013   0.255   0.508   5.591
 9017TIP3   OH227014  -0.001   4.821   2.601
 9017TIP3    H127015   0.040   4.811   2.688
 9017TIP3    H227016   0.002   4.915   2.584
 9018TIP3   OH227017   1.698   6.248   3.991
 9018TIP3    H127018   1.780   6.256   3.942
 9018TIP3    H227019   1.667   6.338   4.000
 9019TIP3   OH227020   6.554   4.011   4.529
 9019TIP3    H127021   6.600   4.066   4.466
 9019TIP3    H227022   6.482   3.972   4.479
 9020TIP3   OH227023   6.283   0.344   3.830
 9020TIP3    H127024   6.195   0.327   3.797
 9020TIP3    H227025   6.270   0.406   3.902
 9021TIP3   OH227026   2.450   1.092   2.437
 9021TIP3    H127027   2.428   0.999   2.447
 9021TIP3    H227028   2.546   1.093   2.438
 9022TIP3   OH227029   2.229   3.655   1.476
 9022TIP3    H127030   2.217   3.570   1.518
 9022TIP3    H227031   2.323   3.660   1.458
 9023TIP3   OH227032   1.942   3.278   3.449
 9023TIP3    H127033   1.989   3.309   3.527
 9023TIP3    H227034   1.866   3.231   3.484
 9024TIP3   OH227035   5.698   3.669   3.923
 9024TIP3    H127036   5.711   3.711   4.008
 9024TIP3    H227037   5.745   3.725   3.861
 9025TIP3   OH227038   3.214   4.087   0.122
 9025TIP3    H127039   3.299   4.126   0.143
 9025TIP3    H227040   3.155   4.120   0.190
 9026TIP3   OH227041   4.246   6.807   5.020
 9026TIP3    H127042   4.291   6.746   4.961
 9026TIP3    H227043   4.157   6.811   4.985
 9027TIP3   OH227044   0.592   4.167   0.204
 9027TIP3    H127045   0.637   4.252   0.202
 9027TIP3    H227046   0.573   4.152   0.297
 9028TIP3   OH227047   0.388   0.323   3.702
 9028TIP3    H127048   0.319   0.276   3.655
 9028TIP3    H227049   0.341   0.380   3.764
 9029TIP3   OH227050   3.216   5.356   3.686
 9029TIP3    H127051   3.250   5.306   3.612
 9029TIP3    H227052   3.200   5.444   3.652
 9030TIP3   OH227053   4.962   6.686   1.638
 9030TIP3    H127054   4.924   6.736   1.711
 9030TIP3    H227055   5.045   6.653   1.672
 9031TIP3   OH227056   3.363   1.023   5.511
 9031TIP3    H127057   3.350   0.976   5.593
 9031TIP3    H227058   3.338   1.113   5.531
 9032TIP3   OH227059   2.755   5.162   4.884
 9032TIP3    H127060   2.826   5.216   4.921
 9032TIP3    H227061   2.685   5.168   4.949
 9033TIP3   OH227062   5.797   4.201   1.291
 9033TIP3    H127063   5.733   4.216   1.222
 9033TIP3    H227064   5.855   4.278   1.287
 9034TIP3   OH227065   6.290   5.153   4.431
 9034TIP3    H127066   6.372   5.187   4.395
 9034TIP3    H227067   6.316   5.075   4.480
 9035TIP3   OH227068   7.193   4.220   5.795
 9035TIP3    H127069   7.143   4.290   5.837
 9035TIP3    H227070   7.281   4.257   5.786
 9036TIP3   OH227071   6.679   3.830   0.631
 9036TIP3    H127072   6.757   3.794   0.674
 9036TIP3    H227073   6.703   3.919   0.609
 9037TIP3   OH227074   6.030   5.833   0.875
 9037TIP3    H127075   6.108   5.779   0.885
 9037TIP3    H227076   6.047   5.885   0.797
 9038TIP3   OH227077   6.152   3.703   1.799
 9038TIP3    H127078   6.239   3.696   1.759
 9038TIP3    H227079   6.093   3.710   1.724
 9039TIP3   OH227080   4.071   0.100   1.596
 9039TIP3    H127081   4.096   0.188   1.626
 9039TIP3    H227082   4.127   0.041   1.646
 9040TIP3   OH227083   1.700   0.680   0.157
 9040TIP3    H127084   1.785   0.666   0.114
 9040TIP3    H227085   1.684   0.599   0.205
 9041TIP3   OH227086   6.550   1.181   5.635
 9041TIP3    H127087   6.463   1.155   5.606
 9041TIP3    H227088   6.609   1.115   5.598
 9042TIP3   OH227089   7.183   6.341   3.038
 9042TIP3    H127090   7.117   6.280   3.070
 9042TIP3    H227091   7.150   6.427   3.061
 9043TIP3   OH227092   1.249   2.081   5.271
 9043TIP3    H127093   1.293   2.074   5.355
 9043TIP3    H227094   1.178   2.017   5.275
 9044TIP3   OH227095   5.880   1.672   1.868
 9044TIP3    H127096   5.929   1.750   1.845
 9044TIP3    H227097   5.894   1.662   1.962
 9045TIP3   OH227098   6.724   1.569   5.056
 9045TIP3    H127099   6.644   1.572   5.109
 9045TIP3    H227100   6.699   1.516   4.980
 9046TIP3   OH227101   1.947   3.780   0.093
 9046TIP3    H127102   2.008   3.839   0.136
 9046TIP3    H227103   1.870   3.780   0.149
 9047TIP3   OH227104   4.637   5.101   5.245
 9047TIP3    H127105   4.689   5.117   5.323
 9047TIP3    H227106   4.650   5.179   5.191
 9048TIP3   OH227107   4.416   4.297   5.293
 9048TIP3    H127108   4.461   4.357   5.233
 9048TIP3    H227109   4.325   4.325   5.292
 9049TIP3   OH227110   0.147   3.759   1.203
 9049TIP3    H127111   0.177   3.702   1.274
 9049TIP3    H227112   0.215   3.826   1.195
 9050TIP3   OH227113   4.035   2.346   4.678
 9050TIP3    H127114   4.040   2.310   4.589
 9050TIP3    H227115   4.103   2.299   4.727
 9051TIP3   OH227116   2.895   0.919   4.139
 9051TIP3    H127117   2.955   0.888   4.206
 9051TIP3    H227118   2.818   0.863   4.148
 9052TIP3   OH227119   6.075   3.284   5.411
 9052TIP3    H127120   6.072   3.310   5.503
 9052TIP3    H227121   5.994   3.234   5.397
 9053TIP3   OH227122   1.214   1.552   5.472
 9053TIP3    H127123   1.130   1.574   5.431
 9053TIP3    H227124   1.278   1.608   5.427
 9054TIP3   OH227125   1.746   1.710   2.231
 9054TIP3    H127126   1.668   1.700   2.177
 9054TIP3    H227127   1.763   1.622   2.266
 9055TIP3   OH227128   3.135   2.659   0.072
 9055TIP3    H127129   3.070   2.601   0.112
 9055TIP3    H227130   3.144   2.626  -0.018
 9056TIP3   OH227131   3.639   4.315   1.770
 9056TIP3    H127132   3.625   4.309   1.675
 9056TIP3    H227133   3.706   4.383   1.780
 9057TIP3   OH227134   6.773   6.632   0.370
 9057TIP3    H127135   6.793   6.545   0.406
 9057TIP3    H227136   6.738   6.680   0.445
 9058TIP3   OH227137   4.024   1.057   5.469
 9058TIP3    H127138   4.053   1.026   5.555
 9058TIP3    H227139   4.005   0.977   5.420
 9059TIP3   OH227140   3.294   2.500   1.413
 9059TIP3    H127141   3.266   2.468   1.499
 9059TIP3    H227142   3.375   2.452   1.395
 9060TIP3   OH227143   6.874   1.416   3.669
 9060TIP3    H127144   6.849   1.346   3.729
 9060TIP3    H227145   6.802   1.419   3.605
 9061TIP3   OH227146   4.658   4.196   4.127
 9061TIP3    H127147   4.683   4.130   4.192
 9061TIP3    H227148   4.732   4.257   4.125
 9062TIP3   OH227149   6.458   5.895   1.244
 9062TIP3    H127150   6.518   5.888   1.169
 9062TIP3    H227151   6.411   5.812   1.244
 9063TIP3   OH227152   2.604   5.909   0.404
 9063TIP3    H127153   2.604   5.912   0.308
 9063TIP3    H227154   2.683   5.958   0.428
 9064TIP3   OH227155   5.671   0.476   0.201
 9064TIP3    H127156   5.691   0.567   0.179
 9064TIP3    H227157   5.755   0.431   0.194
 9065TIP3   OH227158   4.361   0.438   0.279
 9065TIP3    H127159   4.265   0.443   0.278
 9065TIP3    H227160   4.379   0.344   0.278
 9066TIP3   OH227161   0.642   3.613   4.936
 9066TIP3    H127162   0.658   3.700   4.972
 9066TIP3    H227163   0.727   3.586   4.901
 9067TIP3   OH227164   2.646   2.685   2.683
 9067TIP3    H127165   2.611   2.610   2.635
 9067TIP3    H227166   2.676   2.745   2.615
 9068TIP3   OH227167   5.917   2.361   0.322
 9068TIP3    H127168   5.923   2.341   0.415
 9068TIP3    H227169   5.944   2.280   0.278
 9069TIP3   OH227170   5.130   0.048   4.282
 9069TIP3    H127171   5.090   0.116   4.228
 9069TIP3    H227172   5.174   0.097   4.353
 9070TIP3   OH227173   1.371   2.997   1.103
 9070TIP3    H127174   1.432   3.070   1.101
 9070TIP3    H227175   1.358   2.975   1.010
 9071TIP3   OH227176   7.039   4.147   5.530
 9071TIP3    H127177   7.075   4.073   5.480
 9071TIP3    H227178   7.076   4.137   5.617
 9072TIP3   OH227179   3.684   2.008   2.111
 9072TIP3    H127180   3.676   2.056   2.029
 9072TIP3    H227181   3.777   1.984   2.115
 9073TIP3   OH227182   3.631   3.771   4.049
 9073TIP3    H127183   3.663   3.861   4.059
 9073TIP3    H227184   3.640   3.733   4.137
 9074TIP3   OH227185   3.509   3.556   1.897
 9074TIP3    H127186   3.460   3.624   1.944
 9074TIP3    H227187   3.503   3.581   1.805
 9075TIP3   OH227188   0.257   3.821   4.566
 9075TIP3    H127189   0.251   3.725   4.571
 9075TIP3    H227190   0.178   3.852   4.609
 9076TIP3   OH227191   1.677   5.409   3.807
 9076TIP3    H127192   1.682   5.418   3.712
 9076TIP3    H227193   1.768   5.397   3.834
 9077TIP3   OH227194   2.218   0.229   4.072
 9077TIP3    H127195   2.295   0.184   4.037
 9077TIP3    H227196   2.149   0.163   4.069
 9078TIP3   OH227197   0.000   6.532   4.938
 9078TIP3    H127198   0.005   6.510   4.845
 9078TIP3    H227199   0.037   6.620   4.944
 9079TIP3   OH227200   6.613   3.611   4.807
 9079TIP3    H127201   6.578   3.699   4.792
 9079TIP3    H227202   6.694   3.626   4.856
 9080TIP3   OH227203   4.384   4.129   4.668
 9080TIP3    H127204   4.355   4.182   4.742
 9080TIP3    H227205   4.330   4.159   4.594
 9081TIP3   OH227206   3.842   1.568   0.152
 9081TIP3    H127207   3.916   1.629   0.150
 9081TIP3    H227208   3.807   1.570   0.063
 9082TIP3   OH227209   7.072   3.222   3.656
 9082TIP3    H127210   7.110   3.302   3.620
 9082TIP3    H227211   7.146   3.162   3.667
 9083TIP3   OH227212   6.417   6.128   0.734
 9083TIP3    H127213   6.342   6.148   0.789
 9083TIP3    H227214   6.434   6.035   0.750
 9084TIP3   OH227215   6.914   5.697   5.631
 9084TIP3    H127216   6.973   5.754   5.581
 9084TIP3    H227217   6.865   5.649   5.564
 9085TIP3   OH227218   0.302   2.783   1.681
 9085TIP3    H127219   0.384   2.822   1.652
 9085TIP3    H227220   0.327   2.723   1.751
 9086TIP3   OH227221   6.147   1.303   0.424
 9086TIP3    H127222   6.158   1.339   0.512
 9086TIP3    H227223   6.147   1.208   0.437
 9087TIP3   OH227224   7.093   4.824   3.339
 9087TIP3    H127225   7.111   4.798   3.249
 9087TIP3    H227226   7.179   4.828   3.380
 9088TIP3   OH227227   2.496   3.100   3.053
 9088TIP3    H127228   2.502   3.193   3.028
 9088TIP3    H227229   2.552   3.055   2.990
 9089TIP3   OH227230   6.149   5.060   0.512
 9089TIP3    H127231   6.178   5.061   0.603
 9089TIP3    H227232   6.149   4.967   0.488
 9090TIP3   OH227233   1.709   2.473   4.695
 9090TIP3    H127234   1.710   2.509   4.606
 9090TIP3    H227235   1.631   2.512   4.735
 9091TIP3   OH227236   3.406   0.469   0.377
 9091TIP3    H127237   3.340   0.406   0.348
 9091TIP3    H227238   3.482   0.451   0.323
 9092TIP3   OH227239   0.844   0.111   4.137
 9092TIP3    H127240   0.813   0.158   4.214
 9092TIP3    H227241   0.890   0.177   4.085
 9093TIP3   OH227242   1.270   1.474   1.275
 9093TIP3    H127243   1.326   1.397   1.262
 9093TIP3    H227244   1.223   1.456   1.356
 9094TIP3   OH227245   6.526   5.881   0.675
 9094TIP3    H127246   6.588   5.811   0.656
 9094TIP3    H227247   6.469   5.883   0.598
 9095TIP3   OH227248   6.582   0.881   3.477
 9095TIP3    H127249   6.573   0.801   3.425
 9095TIP3    H227250   6.600   0.950   3.413
 9096TIP3   OH227251   6.180   2.584   1.518
 9096TIP3    H127252   6.099   2.534   1.531
 9096TIP3    H227253   6.175   2.614   1.427
 9097TIP3   OH227254   6.267   5.304   0.433
 9097TIP3    H127255   6.358   5.283   0.410
 9097TIP3    H227256   6.228   5.219   0.454
 9098TIP3   OH227257   0.304   0.968   3.522
 9098TIP3    H127258   0.335   0.965   3.431
 9098TIP3    H227259   0.290   1.061   3.539
 9099TIP3   OH227260   1.792   2.240   0.827
 9099TIP3    H127261   1.851   2.315   0.827
 9099TIP3    H227262   1.740   2.250   0.907
 9100TIP3   OH227263   4.891   5.886   0.217
 9100TIP3    H127264   4.967   5.828   0.220
 9100TIP3    H227265   4.819   5.830   0.188
 9101TIP3   OH227266   4.743   5.322   1.825
 9101TIP3    H127267   4.650   5.326   1.845
 9101TIP3    H227268   4.774   5.411   1.839
 9102TIP3   OH227269   7.117   4.339   0.983
 9102TIP3    H127270   7.075   4.277   1.042
 9102TIP3    H227271   7.108   4.424   1.027
 9103TIP3   OH227272   0.419   0.951   1.803
 9103TIP3    H127273   0.496   1.005   1.785
 9103TIP3    H227274   0.372   0.997   1.873
 9104TIP3   OH227275   5.949   6.606   4.637
 9104TIP3    H127276   5.936   6.646   4.724
 9104TIP3    H227277   5.991   6.522   4.655
 9105TIP3   OH227278   4.180   0.359   1.651
 9105TIP3    H127279   4.099   0.405   1.673
 9105TIP3    H227280   4.243   0.430   1.634
 9106TIP3   OH227281   0.274   0.535   0.464
 9106TIP3    H127282   0.270   0.551   0.370
 9106TIP3    H227283   0.351   0.479   0.477
 9107TIP3   OH227284   0.429   6.771   1.207
 9107TIP3    H127285   0.352   6.769   1.151
 9107TIP3    H227286   0.412   6.842   1.270
 9108TIP3   OH227287   2.588   0.276   1.427
 9108TIP3    H127288   2.549   0.272   1.515
 9108TIP3    H227289   2.676   0.241   1.438
 9109TIP3   OH227290   6.288   2.756   3.187
 9109TIP3    H127291   6.367   2.770   3.238
 9109TIP3    H227292   6.316   2.700   3.114
 9110TIP3   OH227293   4.243   6.425   0.945
 9110TIP3    H127294   4.321   6.429   1.000
 9110TIP3    H227295   4.276   6.427   0.856
 9111TIP3   OH227296   1.184   2.546   5.151
 9111TIP3    H127297   1.118   2.593   5.100
 9111TIP3    H227298   1.225   2.613   5.206
 9112TIP3   OH227299   6.740   0.310   4.683
 9112TIP3    H127300   6.699   0.264   4.610
 9112TIP3    H227301   6.815   0.256   4.707
 9113TIP3   OH227302   3.353   1.285   0.379
 9113TIP3    H127303   3.433   1.322   0.417
 9113TIP3    H227304   3.287   1.297   0.447
 9114TIP3   OH227305   6.701   3.438   0.764
 9114TIP3    H127306   6.627   3.390   0.727
 9114TIP3    H227307   6.671   3.528   0.770
 9115TIP3   OH227308   1.355   5.813   0.327
 9115TIP3    H127309   1.364   5.844   0.237
 9115TIP3    H227310   1.308   5.883   0.372
 9116TIP3   OH227311   0.430   2.298   4.626
 9116TIP3    H127312   0.459   2.212   4.655
 9116TIP3    H227313   0.416   2.289   4.532
 9117TIP3   OH227314   3.501   3.362   4.613
 9117TIP3    H127315   3.443   3.403   4.677
 9117TIP3    H227316   3.487   3.268   4.625
 9118TIP3   OH227317   2.671   5.808   5.382
 9118TIP3    H127318   2.579   5.826   5.400
 9118TIP3    H227319   2.675   5.803   5.286
 9119TIP3   OH227320   1.413   4.162   1.800
 9119TIP3    H127321   1.422   4.139   1.893
 9119TIP3    H227322   1.399   4.079   1.756
 9120TIP3   OH227323   1.303   2.337   2.161
 9120TIP3    H127324   1.367   2.403   2.187
 9120TIP3    H227325   1.229   2.352   2.219
 9121TIP3   OH227326   4.444   1.101   5.733
 9121TIP3    H127327   4.517   1.055   5.776
 9121TIP3    H227328   4.387   1.127   5.805
 9122TIP3   OH227329   3.752   1.051   5.863
 9122TIP3    H127330   3.669   1.027   5.905
 9122TIP3    H227331   3.725   1.098   5.784
 9123TIP3   OH227332   7.150   5.016   1.259
 9123TIP3    H127333   7.130   4.934   1.304
 9123TIP3    H227334   7.067   5.065   1.260
 9124TIP3   OH227335   1.287   3.953   2.607
 9124TIP3    H127336   1.339   3.954   2.687
 9124TIP3    H227337   1.266   4.045   2.592
 9125TIP3   OH227338   3.204   4.042   5.265
 9125TIP3    H127339   3.248   4.013   5.345
 9125TIP3    H227340   3.129   4.093   5.296
 9126TIP3   OH227341   5.816   1.541   0.215
 9126TIP3    H127342   5.792   1.495   0.135
 9126TIP3    H227343   5.827   1.632   0.188
 9127TIP3   OH227344   2.855   2.636   5.564
 9127TIP3    H127345   2.794   2.573   5.603
 9127TIP3    H227346   2.935   2.627   5.617
 9128TIP3   OH227347   2.485   1.706   1.992
 9128TIP3    H127348   2.523   1.625   2.028
 9128TIP3    H227349   2.561   1.759   1.969
 9129TIP3   OH227350   3.979   5.160   1.552
 9129TIP3    H127351   3.949   5.078   1.513
 9129TIP3    H227352   4.051   5.188   1.496
 9130TIP3   OH227353   1.083   6.179   2.160
 9130TIP3    H127354   1.075   6.171   2.065
 9130TIP3    H227355   1.030   6.256   2.182
 9131TIP3   OH227356   3.983   5.495   0.726
 9131TIP3    H127357   3.983   5.510   0.820
 9131TIP3    H227358   4.076   5.498   0.701
 9132TIP3   OH227359   6.556   3.118   2.094
 9132TIP3    H127360   6.533   3.093   2.183
 9132TIP3    H227361   6.532   3.210   2.088
 9133TIP3   OH227362   1.718   2.110   2.693
 9133TIP3    H127363   1.649   2.106   2.759
 9133TIP3    H227364   1.723   2.203   2.668
 9134TIP3   OH227365   3.748   4.661   0.462
 9134TIP3    H127366   3.783   4.750   0.464
 9134TIP3    H227367   3.654   4.673   0.449
 9135TIP3   OH227368   4.572   2.422   0.761
 9135TIP3    H127369   4.502   2.381   0.710
 9135TIP3    H227370   4.569   2.514   0.735
 9136TIP3   OH227371   4.979   5.550   1.172
 9136TIP3    H127372   4.970   5.465   1.129
 9136TIP3    H227373   5.057   5.589   1.132
 9137TIP3   OH227374   3.898   0.701   3.071
 9137TIP3    H127375   3.921   0.662   2.987
 9137TIP3    H227376   3.912   0.632   3.135
 9138TIP3   OH227377   4.461   3.458   0.217
 9138TIP3    H127378   4.457   3.475   0.123
 9138TIP3    H227379   4.381   3.498   0.251
 9139TIP3   OH227380   5.474   3.804   3.671
 9139TIP3    H127381   5.471   3.710   3.688
 9139TIP3    H227382   5.533   3.813   3.596
 9140TIP3   OH227383   5.051   0.816   4.072
 9140TIP3    H127384   4.970   0.777   4.038
 9140TIP3    H227385   5.031   0.910   4.078
 9141TIP3   OH227386   5.215   3.660   4.150
 9141TIP3    H127387   5.204   3.750   4.120
 9141TIP3    H227388   5.170   3.657   4.235
 9142TIP3   OH227389   2.215   3.391   1.650
 9142TIP3    H127390   2.291   3.335   1.631
 9142TIP3    H227391   2.150   3.365   1.585
 9143TIP3   OH227392   5.407   1.685   1.863
 9143TIP3    H127393   5.478   1.648   1.811
 9143TIP3    H227394   5.341   1.709   1.798
 9144TIP3   OH227395   6.772   0.070   2.189
 9144TIP3    H127396   6.837   0.043   2.255
 9144TIP3    H227397   6.825   0.098   2.114
 9145TIP3   OH227398   6.261   3.006   0.344
 9145TIP3    H127399   6.208   2.953   0.403
 9145TIP3    H227400   6.197   3.047   0.285
 9146TIP3   OH227401   4.125   1.443   0.427
 9146TIP3    H127402   4.096   1.442   0.518
 9146TIP3    H227403   4.220   1.426   0.432
 9147TIP3   OH227404   0.924   3.436   2.979
 9147TIP3    H127405   0.846   3.406   3.026
 9147TIP3    H227406   0.997   3.402   3.031
 9148TIP3   OH227407   5.521   5.056   3.401
 9148TIP3    H127408   5.495   5.008   3.322
 9148TIP3    H227409   5.616   5.050   3.401
 9149TIP3   OH227410   4.975   1.495   1.349
 9149TIP3    H127411   4.933   1.410   1.333
 9149TIP3    H227412   5.045   1.500   1.284
 9150TIP3   OH227413   6.578   3.341   4.899
 9150TIP3    H127414   6.668   3.312   4.915
 9150TIP3    H227415   6.588   3.422   4.849
 9151TIP3   OH227416   2.256   6.306   0.648
 9151TIP3    H127417   2.282   6.230   0.596
 9151TIP3    H227418   2.324   6.313   0.715
 9152TIP3   OH227419   3.079   1.501   1.638
 9152TIP3    H127420   3.125   1.423   1.606
 9152TIP3    H227421   3.149   1.563   1.659
 9153TIP3   OH227422   2.507   5.422   5.074
 9153TIP3    H127423   2.438   5.462   5.128
 9153TIP3    H227424   2.537   5.493   5.018
 9154TIP3   OH227425   6.151   2.328   1.879
 9154TIP3    H127426   6.065   2.345   1.919
 9154TIP3    H227427   6.193   2.413   1.875
 9155TIP3   OH227428   5.932   0.387   0.147
 9155TIP3    H127429   6.011   0.401   0.095
 9155TIP3    H227430   5.953   0.313   0.204
 9156TIP3   OH227431   5.885   5.207   2.241
 9156TIP3    H127432   5.967   5.174   2.276
 9156TIP3    H227433   5.839   5.244   2.316
 9157TIP3   OH227434   5.330   6.471   2.085
 9157TIP3    H127435   5.245   6.481   2.041
 9157TIP3    H227436   5.389   6.438   2.017
 9158TIP3   OH227437   4.164   3.917   3.821
 9158TIP3    H127438   4.128   3.830   3.839
 9158TIP3    H227439   4.186   3.952   3.907
 9159TIP3   OH227440   3.525   6.688   5.828
 9159TIP3    H127441   3.453   6.729   5.876
 9159TIP3    H227442   3.486   6.659   5.746
 9160TIP3   OH227443   1.706   5.357   0.675
 9160TIP3    H127444   1.635   5.347   0.738
 9160TIP3    H227445   1.680   5.433   0.622
 9161TIP3   OH227446   5.859   3.743   5.743
 9161TIP3    H127447   5.866   3.715   5.652
 9161TIP3    H227448   5.948   3.772   5.766
 9162TIP3   OH227449   2.993   2.549   1.040
 9162TIP3    H127450   3.022   2.595   1.118
 9162TIP3    H227451   2.928   2.607   1.001
 9163TIP3   OH227452   5.302   0.333   4.869
 9163TIP3    H127453   5.372   0.352   4.807
 9163TIP3    H227454   5.226   0.382   4.836
 9164TIP3   OH227455   0.051   6.366   0.563
 9164TIP3    H127456  -0.006   6.325   0.629
 9164TIP3    H227457   0.041   6.310   0.486
 9165TIP3   OH227458   0.836   6.717   3.474
 9165TIP3    H127459   0.819   6.805   3.439
 9165TIP3    H227460   0.899   6.731   3.544
 9166TIP3   OH227461   4.253   2.924   1.992
 9166TIP3    H127462   4.298   2.968   2.065
 9166TIP3    H227463   4.298   2.955   1.914
 9167TIP3   OH227464   6.656   0.140   4.484
 9167TIP3    H127465   6.723   0.162   4.420
 9167TIP3    H227466   6.579   0.120   4.432
 9168TIP3   OH227467   6.844   2.279   1.283
 9168TIP3    H127468   6.923   2.225   1.284
 9168TIP3    H227469   6.818   2.281   1.190
 9169TIP3   OH227470   4.051   6.162   3.054
 9169TIP3    H127471   4.002   6.174   2.973
 9169TIP3    H227472   4.140   6.140   3.025
 9170TIP3   OH227473   1.444   2.352   2.787
 9170TIP3    H127474   1.489   2.311   2.860
 9170TIP3    H227475   1.353   2.322   2.794
 9171TIP3   OH227476   1.367   5.258   5.284
 9171TIP3    H127477   1.352   5.352   5.278
 9171TIP3    H227478   1.303   5.220   5.224
 9172TIP3   OH227479   5.462   1.634   4.858
 9172TIP3    H127480   5.507   1.608   4.939
 9172TIP3    H227481   5.390   1.689   4.887
 9173TIP3   OH227482   5.417   4.748   0.140
 9173TIP3    H127483   5.399   4.723   0.049
 9173TIP3    H227484   5.412   4.844   0.140
 9174TIP3   OH227485   2.534   2.758   0.415
 9174TIP3    H127486   2.612   2.787   0.367
 9174TIP3    H227487   2.541   2.662   0.417
 9175TIP3   OH227488   0.409   3.687   2.854
 9175TIP3    H127489   0.355   3.736   2.792
 9175TIP3    H227490   0.499   3.706   2.827
 9176TIP3   OH227491   1.722   0.781   3.451
 9176TIP3    H127492   1.747   0.844   3.384
 9176TIP3    H227493   1.631   0.801   3.471
 9177TIP3   OH227494   2.777   5.544   3.221
 9177TIP3    H127495   2.811   5.484   3.155
 9177TIP3    H227496   2.854   5.582   3.262
 9178TIP3   OH227497   2.002   5.299   3.705
 9178TIP3    H127498   2.015   5.379   3.756
 9178TIP3    H227499   2.088   5.257   3.702
 9179TIP3   OH227500   1.405   6.427   0.507
 9179TIP3    H127501   1.390   6.446   0.414
 9179TIP3    H227502   1.419   6.513   0.547
 9180TIP3   OH227503   3.064   1.841   4.641
 9180TIP3    H127504   3.049   1.900   4.715
 9180TIP3    H227505   3.018   1.760   4.665
 9181TIP3   OH227506   5.163   1.338   4.414
 9181TIP3    H127507   5.109   1.413   4.389
 9181TIP3    H227508   5.243   1.348   4.362
 9182TIP3   OH227509   6.866   5.743   2.053
 9182TIP3    H127510   6.824   5.747   2.139
 9182TIP3    H227511   6.823   5.670   2.009
 9183TIP3   OH227512   3.510   6.724   1.002
 9183TIP3    H127513   3.581   6.664   0.980
 9183TIP3    H227514   3.468   6.685   1.078
 9184TIP3   OH227515   2.257   6.045   4.059
 9184TIP3    H127516   2.250   6.103   3.984
 9184TIP3    H227517   2.167   6.017   4.077
 9185TIP3   OH227518   7.034   3.932   3.320
 9185TIP3    H127519   6.949   3.890   3.308
 9185TIP3    H227520   7.032   4.008   3.261
 9186TIP3   OH227521   4.003   3.455   2.764
 9186TIP3    H127522   3.947   3.533   2.762
 9186TIP3    H227523   3.973   3.401   2.692
 9187TIP3   OH227524   2.695   3.251   2.769
 9187TIP3    H127525   2.736   3.300   2.698
 9187TIP3    H227526   2.706   3.159   2.745
 9188TIP3   OH227527   4.867   6.198   0.647
 9188TIP3    H127528   4.913   6.114   0.649
 9188TIP3    H227529   4.935   6.262   0.624
 9189TIP3   OH227530   0.853   5.413   1.772
 9189TIP3    H127531   0.770   5.437   1.730
 9189TIP3    H227532   0.847   5.318   1.782
 9190TIP3   OH227533   1.083   6.184   5.060
 9190TIP3    H127534   1.077   6.116   5.128
 9190TIP3    H227535   1.176   6.200   5.050
 9191TIP3   OH227536   2.999   3.613   5.137
 9191TIP3    H127537   3.034   3.628   5.225
 9191TIP3    H227538   2.918   3.565   5.152
 9192TIP3   OH227539   3.888   3.748   2.187
 9192TIP3    H127540   3.881   3.843   2.189
 9192TIP3    H227541   3.929   3.725   2.270
 9193TIP3   OH227542   5.106   0.956   3.073
 9193TIP3    H127543   5.085   0.991   3.160
 9193TIP3    H227544   5.071   0.867   3.074
 9194TIP3   OH227545   0.408   1.612   4.452
 9194TIP3    H127546   0.402   1.521   4.423
 9194TIP3    H227547   0.489   1.644   4.415
 9195TIP3   OH227548   0.456   0.887   2.359
 9195TIP3    H127549   0.518   0.956   2.335
 9195TIP3    H227550   0.403   0.926   2.429
 9196TIP3   OH227551   3.176   6.352   1.275
 9196TIP3    H127552   3.124   6.421   1.236
 9196TIP3    H227553   3.120   6.315   1.343
 9197TIP3   OH227554   5.309   2.707   3.841
 9197TIP3    H127555   5.402   2.689   3.828
 9197TIP3    H227556   5.302   2.730   3.934
 9198TIP3   OH227557   0.702   4.978   2.668
 9198TIP3    H127558   0.662   5.045   2.724
 9198TIP3    H227559   0.729   5.025   2.589
 9199TIP3   OH227560   4.397   5.130   3.340
 9199TIP3    H127561   4.378   5.094   3.427
 9199TIP3    H227562   4.403   5.052   3.284
 9200TIP3   OH227563   0.335   2.774   2.961
 9200TIP3    H127564   0.339   2.687   3.001
 9200TIP3    H227565   0.264   2.768   2.897
 9201TIP3   OH227566   5.966   1.125   1.459
 9201TIP3    H127567   6.029   1.103   1.527
 9201TIP3    H227568   6.003   1.201   1.415
 9202TIP3   OH227569   5.325   4.240   4.266
 9202TIP3    H127570   5.234   4.270   4.266
 9202TIP3    H227571   5.345   4.223   4.358
 9203TIP3   OH227572   4.737   2.833   1.679
 9203TIP3    H127573   4.726   2.905   1.617
 9203TIP3    H227574   4.757   2.757   1.625
 9204TIP3   OH227575   4.326   0.949   4.964
 9204TIP3    H127576   4.319   0.857   4.941
 9204TIP3    H227577   4.382   0.951   5.042
 9205TIP3   OH227578   3.561   5.954   3.023
 9205TIP3    H127579   3.501   5.946   3.097
 9205TIP3    H227580   3.586   5.864   3.002
 9206TIP3   OH227581   3.279   6.381   0.912
 9206TIP3    H127582   3.306   6.325   0.840
 9206TIP3    H227583   3.262   6.466   0.871
 9207TIP3   OH227584   1.376   2.548   4.511
 9207TIP3    H127585   1.293   2.567   4.467
 9207TIP3    H227586   1.355   2.550   4.605
 9208TIP3   OH227587   5.986   2.138   0.188
 9208TIP3    H127588   6.026   2.066   0.237
 9208TIP3    H227589   5.989   2.110   0.097
 9209TIP3   OH227590   0.699   1.523   4.363
 9209TIP3    H127591   0.619   1.501   4.316
 9209TIP3    H227592   0.759   1.553   4.295
 9210TIP3   OH227593   2.085   0.160   5.172
 9210TIP3    H127594   2.055   0.127   5.088
 9210TIP3    H227595   2.116   0.082   5.219
 9211TIP3   OH227596   4.118   5.347   2.572
 9211TIP3    H127597   4.128   5.274   2.511
 9211TIP3    H227598   4.132   5.425   2.518
 9212TIP3   OH227599   3.746   4.533   5.613
 9212TIP3    H127600   3.816   4.485   5.568
 9212TIP3    H227601   3.665   4.495   5.580
 9213TIP3   OH227602   3.186   1.789   0.562
 9213TIP3    H127603   3.152   1.878   0.564
 9213TIP3    H227604   3.140   1.747   0.489
 9214TIP3   OH227605   0.265   0.010   5.397
 9214TIP3    H127606   0.306  -0.067   5.436
 9214TIP3    H227607   0.338   0.066   5.371
 9215TIP3   OH227608   1.357   6.246   0.863
 9215TIP3    H127609   1.342   6.182   0.793
 9215TIP3    H227610   1.303   6.215   0.935
 9216TIP3   OH227611   5.155   5.090   1.118
 9216TIP3    H127612   5.096   5.018   1.099
 9216TIP3    H227613   5.242   5.056   1.099
 9217TIP3   OH227614   2.724   5.851   1.931
 9217TIP3    H127615   2.652   5.821   1.986
 9217TIP3    H227616   2.732   5.785   1.862
 9218TIP3   OH227617   0.459   4.304   5.612
 9218TIP3    H127618   0.451   4.327   5.519
 9218TIP3    H227619   0.464   4.208   5.612
 9219TIP3   OH227620   2.913   2.822   2.274
 9219TIP3    H127621   2.831   2.783   2.243
 9219TIP3    H227622   2.967   2.832   2.195
 9220TIP3   OH227623   4.176   2.043   5.393
 9220TIP3    H127624   4.143   2.004   5.474
 9220TIP3    H227625   4.191   1.968   5.335
 9221TIP3   OH227626   2.691   3.371   0.278
 9221TIP3    H127627   2.719   3.285   0.309
 9221TIP3    H227628   2.608   3.387   0.323
 9222TIP3   OH227629   5.517   3.396   0.167
 9222TIP3    H127630   5.497   3.318   0.218
 9222TIP3    H227631   5.481   3.468   0.217
 9223TIP3   OH227632   4.583   4.731   2.213
 9223TIP3    H127633   4.655   4.751   2.153
 9223TIP3    H227634   4.625   4.721   2.299
 9224TIP3   OH227635   3.118   1.046   0.648
 9224TIP3    H127636   3.123   0.955   0.679
 9224TIP3    H227637   3.105   1.097   0.728
 9225TIP3   OH227638   4.995   0.435   5.102
 9225TIP3    H127639   4.908   0.473   5.094
 9225TIP3    H227640   5.019   0.409   5.013
 9226TIP3   OH227641   1.575   5.713   0.091
 9226TIP3    H127642   1.549   5.621   0.084
 9226TIP3    H227643   1.542   5.753   0.011
 9227TIP3   OH227644   4.671   6.544   0.971
 9227TIP3    H127645   4.596   6.601   0.985
 9227TIP3    H227646   4.742   6.604   0.946
 9228TIP3   OH227647   0.861   0.891   1.022
 9228TIP3    H127648   0.779   0.885   0.973
 9228TIP3    H227649   0.904   0.807   1.007
 9229TIP3   OH227650   5.818   6.304   3.392
 9229TIP3    H127651   5.871   6.266   3.462
 9229TIP3    H227652   5.782   6.385   3.430
 9230TIP3   OH227653   4.580   1.552   5.701
 9230TIP3    H127654   4.603   1.459   5.706
 9230TIP3    H227655   4.651   1.591   5.650
 9231TIP3   OH227656   6.314   5.912   5.815
 9231TIP3    H127657   6.312   5.996   5.862
 9231TIP3    H227658   6.358   5.932   5.732
 9232TIP3   OH227659   4.900   4.919   4.548
 9232TIP3    H127660   4.884   5.002   4.504
 9232TIP3    H227661   4.838   4.858   4.507
 9233TIP3   OH227662   1.192   2.598   2.941
 9233TIP3    H127663   1.281   2.631   2.945
 9233TIP3    H227664   1.194   2.531   2.872
 9234TIP3   OH227665   6.446   4.764   2.152
 9234TIP3    H127666   6.510   4.775   2.082
 9234TIP3    H227667   6.496   4.783   2.232
 9235TIP3   OH227668   0.057   4.045   2.606
 9235TIP3    H127669   0.055   4.079   2.695
 9235TIP3    H227670   0.145   4.066   2.574
 9236TIP3   OH227671   7.120   6.783   1.933
 9236TIP3    H127672   7.187   6.806   1.997
 9236TIP3    H227673   7.051   6.848   1.945
 9237TIP3   OH227674   0.685   0.735   5.294
 9237TIP3    H127675   0.642   0.790   5.360
 9237TIP3    H227676   0.631   0.657   5.289
 9238TIP3   OH227677   1.112   1.149   2.048
 9238TIP3    H127678   1.163   1.089   2.102
 9238TIP3    H227679   1.128   1.121   1.958
 9239TIP3   OH227680   4.918   2.261   4.945
 9239TIP3    H127681   4.838   2.211   4.929
 9239TIP3    H227682   4.946   2.290   4.858
 9240TIP3   OH227683   3.298   0.670   2.172
 9240TIP3    H127684   3.246   0.617   2.112
 9240TIP3    H227685   3.384   0.629   2.172
 9241TIP3   OH227686   4.235   0.921   1.938
 9241TIP3    H127687   4.204   0.863   1.868
 9241TIP3    H227688   4.155   0.947   1.984
 9242TIP3   OH227689   6.906   5.016   2.605
 9242TIP3    H127690   6.834   4.985   2.661
 9242TIP3    H227691   6.874   5.097   2.566
 9243TIP3   OH227692   4.421   3.376   2.956
 9243TIP3    H127693   4.327   3.395   2.965
 9243TIP3    H227694   4.427   3.281   2.967
 9244TIP3   OH227695   3.780   0.117   5.893
 9244TIP3    H127696   3.744   0.097   5.806
 9244TIP3    H227697   3.824   0.201   5.882
 9245TIP3   OH227698   2.954   2.777   5.153
 9245TIP3    H127699   2.932   2.695   5.197
 9245TIP3    H227700   2.873   2.828   5.155
 9246TIP3   OH227701   4.097   3.969   3.485
 9246TIP3    H127702   4.024   3.948   3.427
 9246TIP3    H227703   4.059   4.025   3.552
 9247TIP3   OH227704   0.624   3.653   5.303
 9247TIP3    H127705   0.649   3.713   5.233
 9247TIP3    H227706   0.705   3.609   5.328
 9248TIP3   OH227707   5.507   5.259   1.662
 9248TIP3    H127708   5.415   5.264   1.638
 9248TIP3    H227709   5.507   5.230   1.753
 9249TIP3   OH227710   2.981   1.235   5.774
 9249TIP3    H127711   2.885   1.232   5.775
 9249TIP3    H227712   3.003   1.294   5.701
 9250TIP3   OH227713   5.913   2.806   1.658
 9250TIP3    H127714   5.913   2.901   1.673
 9250TIP3    H227715   5.994   2.791   1.608
 9251TIP3   OH227716   2.878   3.418   5.464
 9251TIP3    H127717   2.788   3.397   5.438
 9251TIP3    H227718   2.878   3.410   5.559
 9252TIP3   OH227719   0.861   3.172   0.882
 9252TIP3    H127720   0.886   3.263   0.896
 9252TIP3    H227721   0.800   3.152   0.953
 9253TIP3   OH227722   7.046   3.234   1.554
 9253TIP3    H127723   7.049   3.327   1.580
 9253TIP3    H227724   7.007   3.190   1.629
 9254TIP3   OH227725   6.267   3.406   3.611
 9254TIP3    H127726   6.324   3.417   3.536
 9254TIP3    H227727   6.268   3.312   3.628
 9255TIP3   OH227728   4.762   1.758   3.447
 9255TIP3    H127729   4.840   1.764   3.393
 9255TIP3    H227730   4.744   1.849   3.473
 9256TIP3   OH227731   3.217   5.049   0.488
 9256TIP3    H127732   3.283   5.116   0.507
 9256TIP3    H227733   3.212   5.046   0.392
 9257TIP3   OH227734   7.257   2.668   2.527
 9257TIP3    H127735   7.189   2.604   2.549
 9257TIP3    H227736   7.215   2.729   2.466
 9258TIP3   OH227737   3.325   2.090   0.814
 9258TIP3    H127738   3.230   2.078   0.817
 9258TIP3    H227739   3.358   2.042   0.890
 9259TIP3   OH227740   4.345   3.885   0.800
 9259TIP3    H127741   4.370   3.926   0.882
 9259TIP3    H227742   4.390   3.937   0.733
 9260TIP3   OH227743   1.451   4.174   3.188
 9260TIP3    H127744   1.522   4.146   3.129
 9260TIP3    H227745   1.487   4.164   3.276
 9261TIP3   OH227746   4.273   6.418   5.046
 9261TIP3    H127747   4.336   6.466   5.100
 9261TIP3    H227748   4.278   6.460   4.960
 9262TIP3   OH227749   4.047   3.065   1.428
 9262TIP3    H127750   4.097   3.097   1.352
 9262TIP3    H227751   4.073   2.974   1.438
 9263TIP3   OH227752   2.707   5.016   1.930
 9263TIP3    H127753   2.665   5.102   1.937
 9263TIP3    H227754   2.775   5.017   1.997
 9264TIP3   OH227755   0.554   5.984   5.094
 9264TIP3    H127756   0.519   5.965   5.181
 9264TIP3    H227757   0.630   6.040   5.110
 9265TIP3   OH227758   2.015   5.367   2.107
 9265TIP3    H127759   1.999   5.458   2.082
 9265TIP3    H227760   2.046   5.372   2.198
 9266TIP3   OH227761   3.633   1.542   3.406
 9266TIP3    H127762   3.715   1.492   3.408
 9266TIP3    H227763   3.652   1.620   3.459
 9267TIP3   OH227764   3.891   0.696   1.464
 9267TIP3    H127765   3.870   0.742   1.545
 9267TIP3    H227766   3.819   0.718   1.405
 9268TIP3   OH227767   7.058   6.639   1.180
 9268TIP3    H127768   7.020   6.561   1.221
 9268TIP3    H227769   7.088   6.692   1.253
 9269TIP3   OH227770   5.980   2.529   4.764
 9269TIP3    H127771   6.033   2.487   4.832
 9269TIP3    H227772   6.042   2.582   4.714
 9270TIP3   OH227773   1.732   2.468   3.296
 9270TIP3    H127774   1.812   2.478   3.348
 9270TIP3    H227775   1.755   2.503   3.210
 9271TIP3   OH227776   3.195   4.241   4.091
 9271TIP3    H127777   3.158   4.187   4.021
 9271TIP3    H227778   3.289   4.228   4.084
 9272TIP3   OH227779   2.628   4.746   5.455
 9272TIP3    H127780   2.561   4.768   5.519
 9272TIP3    H227781   2.600   4.792   5.375
 9273TIP3   OH227782   0.723   1.339  -0.025
 9273TIP3    H127783   0.783   1.406   0.008
 9273TIP3    H227784   0.759   1.256   0.005
 9274TIP3   OH227785   1.626   5.971   5.891
 9274TIP3    H127786   1.675   5.932   5.819
 9274TIP3    H227787   1.595   6.055   5.856
 9275TIP3   OH227788   1.886   6.766   1.743
 9275TIP3    H127789   1.956   6.756   1.679
 9275TIP3    H227790   1.931   6.774   1.827
 9276TIP3   OH227791   5.024   6.551   3.553
 9276TIP3    H127792   4.948   6.496   3.574
 9276TIP3    H227793   5.001   6.637   3.587
 9277TIP3   OH227794   5.167   0.259   5.268
 9277TIP3    H127795   5.206   0.208   5.197
 9277TIP3    H227796   5.094   0.305   5.227
 9278TIP3   OH227797   6.769   2.973   1.137
 9278TIP3    H127798   6.746   2.887   1.103
 9278TIP3    H227799   6.734   2.974   1.226
 9279TIP3   OH227800   3.544   1.211   3.200
 9279TIP3    H127801   3.569   1.228   3.110
 9279TIP3    H227802   3.505   1.124   3.199
 9280TIP3   OH227803   2.878   2.463   0.029
 9280TIP3    H127804   2.868   2.386  -0.027
 9280TIP3    H227805   2.849   2.434   0.115
 9281TIP3   OH227806   2.100   6.063   5.403
 9281TIP3    H127807   2.080   6.126   5.472
 9281TIP3    H227808   2.017   6.017   5.388
 9282TIP3   OH227809   6.143   1.925   4.014
 9282TIP3    H127810   6.236   1.947   4.012
 9282TIP3    H227811   6.138   1.839   3.972
 9283TIP3   OH227812   3.794   6.790   1.221
 9283TIP3    H127813   3.732   6.801   1.293
 9283TIP3    H227814   3.802   6.695   1.210
 9284TIP3   OH227815   6.101   4.891   3.350
 9284TIP3    H127816   6.120   4.843   3.431
 9284TIP3    H227817   6.025   4.847   3.313
 9285TIP3   OH227818   1.708   1.445   2.389
 9285TIP3    H127819   1.648   1.373   2.408
 9285TIP3    H227820   1.688   1.511   2.455
 9286TIP3   OH227821   5.833   2.199   3.784
 9286TIP3    H127822   5.800   2.113   3.761
 9286TIP3    H227823   5.796   2.258   3.717
 9287TIP3   OH227824   6.059   5.721   2.387
 9287TIP3    H127825   6.011   5.761   2.460
 9287TIP3    H227826   6.136   5.681   2.427
 9288TIP3   OH227827   6.741   3.716   1.323
 9288TIP3    H127828   6.663   3.771   1.322
 9288TIP3    H227829   6.744   3.678   1.234
 9289TIP3   OH227830   5.310   1.746   3.476
 9289TIP3    H127831   5.297   1.808   3.405
 9289TIP3    H227832   5.404   1.750   3.494
 9290TIP3   OH227833   2.570   1.648   3.408
 9290TIP3    H127834   2.640   1.704   3.374
 9290TIP3    H227835   2.541   1.599   3.331
 9291TIP3   OH227836   1.874   2.133   2.997
 9291TIP3    H127837   1.798   2.180   2.965
 9291TIP3    H227838   1.888   2.063   2.933
 9292TIP3   OH227839   5.379   0.495   4.388
 9292TIP3    H127840   5.435   0.494   4.310
 9292TIP3    H227841   5.335   0.580   4.386
 9293TIP3   OH227842   4.482   4.693   0.309
 9293TIP3    H127843   4.495   4.635   0.384
 9293TIP3    H227844   4.390   4.681   0.285
 9294TIP3   OH227845   6.693   6.570   4.426
 9294TIP3    H127846   6.702   6.638   4.492
 9294TIP3    H227847   6.710   6.488   4.472
 9295TIP3   OH227848   5.364   3.872   5.255
 9295TIP3    H127849   5.404   3.955   5.229
 9295TIP3    H227850   5.399   3.807   5.194
 9296TIP3   OH227851   1.544   6.569   5.391
 9296TIP3    H127852   1.598   6.616   5.455
 9296TIP3    H227853   1.573   6.479   5.396
 9297TIP3   OH227854   3.354   2.458   4.530
 9297TIP3    H127855   3.287   2.526   4.522
 9297TIP3    H227856   3.436   2.501   4.509
 9298TIP3   OH227857   6.648   1.397   3.240
 9298TIP3    H127858   6.719   1.441   3.192
 9298TIP3    H227859   6.578   1.388   3.175
 9299TIP3   OH227860   4.897   6.107   3.189
 9299TIP3    H127861   4.832   6.071   3.248
 9299TIP3    H227862   4.946   6.170   3.242
 9300TIP3   OH227863   1.124   0.860   3.467
 9300TIP3    H127864   1.158   0.805   3.537
 9300TIP3    H227865   1.150   0.949   3.491
 9301TIP3   OH227866   0.293   0.574   1.201
 9301TIP3    H127867   0.301   0.655   1.251
 9301TIP3    H227868   0.282   0.603   1.110
 9302TIP3   OH227869   6.660   0.568   4.161
 9302TIP3    H127870   6.632   0.595   4.248
 9302TIP3    H227871   6.680   0.650   4.115
 9303TIP3   OH227872   1.050   4.277   5.122
 9303TIP3    H127873   1.001   4.327   5.057
 9303TIP3    H227874   1.126   4.244   5.075
 9304TIP3   OH227875   6.174   1.521   2.188
 9304TIP3    H127876   6.113   1.594   2.179
 9304TIP3    H227877   6.168   1.475   2.105
 9305TIP3   OH227878   2.332   2.283   3.130
 9305TIP3    H127879   2.337   2.268   3.224
 9305TIP3    H227880   2.273   2.215   3.098
 9306TIP3   OH227881   5.911   3.659   3.071
 9306TIP3    H127882   5.907   3.571   3.033
 9306TIP3    H227883   5.868   3.715   3.006
 9307TIP3   OH227884   4.106   3.134   5.234
 9307TIP3    H127885   4.050   3.078   5.179
 9307TIP3    H227886   4.066   3.131   5.320
 9308TIP3   OH227887   5.104   3.240   2.886
 9308TIP3    H127888   5.093   3.335   2.890
 9308TIP3    H227889   5.029   3.210   2.834
 9309TIP3   OH227890   6.277   1.456   2.765
 9309TIP3    H127891   6.324   1.452   2.682
 9309TIP3    H227892   6.338   1.421   2.829
 9310TIP3   OH227893   3.294   2.875   0.988
 9310TIP3    H127894   3.379   2.883   0.946
 9310TIP3    H227895   3.314   2.840   1.075
 9311TIP3   OH227896   6.873   0.040   0.208
 9311TIP3    H127897   6.955   0.078   0.176
 9311TIP3    H227898   6.823   0.115   0.242
 9312TIP3   OH227899   6.001   2.498   3.738
 9312TIP3    H127900   5.934   2.563   3.717
 9312TIP3    H227901   6.080   2.550   3.753
 9313TIP3   OH227902   6.577   0.461   5.149
 9313TIP3    H127903   6.497   0.416   5.177
 9313TIP3    H227904   6.587   0.436   5.057
 9314TIP3   OH227905   1.485   4.770  -0.023
 9314TIP3    H127906   1.544   4.706   0.016
 9314TIP3    H227907   1.451   4.820   0.051
 9315TIP3   OH227908   5.583   5.856   4.178
 9315TIP3    H127909   5.671   5.884   4.153
 9315TIP3    H227910   5.596   5.771   4.221
 9316TIP3   OH227911   5.260   6.085   1.755
 9316TIP3    H127912   5.277   6.177   1.737
 9316TIP3    H227913   5.312   6.038   1.690
 9317TIP3   OH227914   5.053   3.547   0.549
 9317TIP3    H127915   4.994   3.487   0.595
 9317TIP3    H227916   5.096   3.596   0.620
 9318TIP3   OH227917   2.644   2.581   5.156
 9318TIP3    H127918   2.619   2.671   5.140
 9318TIP3    H227919   2.612   2.533   5.079
 9319TIP3   OH227920   0.815   2.614   5.414
 9319TIP3    H127921   0.805   2.533   5.364
 9319TIP3    H227922   0.786   2.683   5.354
 9320TIP3   OH227923   0.736   0.131   5.188
 9320TIP3    H127924   0.737   0.211   5.135
 9320TIP3    H227925   0.777   0.156   5.270
 9321TIP3   OH227926   2.271   6.519   0.065
 9321TIP3    H127927   2.361   6.493   0.049
 9321TIP3    H227928   2.239   6.548  -0.021
 9322TIP3   OH227929   5.295   5.886   3.018
 9322TIP3    H127930   5.267   5.795   3.022
 9322TIP3    H227931   5.390   5.882   3.005
 9323TIP3   OH227932   2.796   4.059   0.598
 9323TIP3    H127933   2.846   3.985   0.566
 9323TIP3    H227934   2.710   4.022   0.621
 9324TIP3   OH227935   4.550   5.960   4.206
 9324TIP3    H127936   4.465   5.949   4.250
 9324TIP3    H227937   4.528   5.997   4.121
 9325TIP3   OH227938   4.181   4.022   4.980
 9325TIP3    H127939   4.102   3.984   4.941
 9325TIP3    H227940   4.230   3.947   5.012
 9326TIP3   OH227941   3.433   4.198   0.607
 9326TIP3    H127942   3.351   4.238   0.635
 9326TIP3    H227943   3.439   4.117   0.658
 9327TIP3   OH227944   2.578   2.181   5.072
 9327TIP3    H127945   2.537   2.267   5.074
 9327TIP3    H227946   2.667   2.197   5.041
 9328TIP3   OH227947   3.692   0.127   1.467
 9328TIP3    H127948   3.752   0.053   1.453
 9328TIP3    H227949   3.605   0.090   1.452
 9329TIP3   OH227950   6.096   5.625   0.179
 9329TIP3    H127951   6.182   5.628   0.220
 9329TIP3    H227952   6.082   5.713   0.146
 9330TIP3   OH227953   3.071   6.087   2.601
 9330TIP3    H127954   3.082   6.111   2.509
 9330TIP3    H227955   3.155   6.049   2.626
 9331TIP3   OH227956   6.001   0.895   0.748
 9331TIP3    H127957   5.914   0.933   0.733
 9331TIP3    H227958   6.058   0.970   0.764
 9332TIP3   OH227959   1.436   3.449   5.162
 9332TIP3    H127960   1.372   3.378   5.151
 9332TIP3    H227961   1.458   3.475   5.073
 9333TIP3   OH227962   3.143   6.668   3.665
 9333TIP3    H127963   3.088   6.645   3.589
 9333TIP3    H227964   3.169   6.583   3.701
 9334TIP3   OH227965   1.917   1.850   2.456
 9334TIP3    H127966   1.879   1.831   2.370
 9334TIP3    H227967   1.873   1.931   2.484
 9335TIP3   OH227968   2.491   5.565   5.450
 9335TIP3    H127969   2.447   5.489   5.487
 9335TIP3    H227970   2.443   5.585   5.370
 9336TIP3   OH227971   2.212   3.748   0.302
 9336TIP3    H127972   2.272   3.695   0.250
 9336TIP3    H227973   2.144   3.686   0.330
 9337TIP3   OH227974   1.599   2.388   4.461
 9337TIP3    H127975   1.535   2.318   4.454
 9337TIP3    H227976   1.546   2.468   4.465
 9338TIP3   OH227977   3.446   6.478   1.856
 9338TIP3    H127978   3.364   6.429   1.851
 9338TIP3    H227979   3.474   6.470   1.947
 9339TIP3   OH227980   6.095   4.810   5.212
 9339TIP3    H127981   6.167   4.848   5.263
 9339TIP3    H227982   6.072   4.730   5.259
 9340TIP3   OH227983   0.957   4.546   1.904
 9340TIP3    H127984   0.875   4.499   1.916
 9340TIP3    H227985   0.966   4.599   1.984
 9341TIP3   OH227986   5.364   1.363   5.329
 9341TIP3    H127987   5.268   1.356   5.330
 9341TIP3    H227988   5.381   1.454   5.304
 9342TIP3   OH227989   0.517   0.599   3.239
 9342TIP3    H127990   0.568   0.679   3.223
 9342TIP3    H227991   0.480   0.612   3.326
 9343TIP3   OH227992   1.086   0.641   4.947
 9343TIP3    H127993   1.071   0.553   4.981
 9343TIP3    H227994   1.025   0.697   4.995
 9344TIP3   OH227995   3.640   6.139   4.926
 9344TIP3    H127996   3.735   6.146   4.936
 9344TIP3    H227997   3.605   6.216   4.969
 9345TIP3   OH227998   4.389   1.346   1.131
 9345TIP3    H127999   4.356   1.436   1.126
 9345TIP3    H228000   4.310   1.292   1.130
 9346TIP3   OH228001   2.208   4.903   3.338
 9346TIP3    H128002   2.232   4.851   3.261
 9346TIP3    H228003   2.276   4.970   3.344
 9347TIP3   OH228004   0.295   5.980   4.429
 9347TIP3    H128005   0.373   6.010   4.382
 9347TIP3    H228006   0.330   5.945   4.511
 9348TIP3   OH228007   2.037   3.687   3.855
 9348TIP3    H128008   2.105   3.637   3.901
 9348TIP3    H228009   1.993   3.622   3.800
 9349TIP3   OH228010   0.460   2.049   5.239
 9349TIP3    H128011   0.401   2.094   5.300
 9349TIP3    H228012   0.486   2.116   5.177
 9350TIP3   OH228013   1.903   1.371   1.257
 9350TIP3    H128014   1.887   1.284   1.293
 9350TIP3    H228015   1.908   1.358   1.162
 9351TIP3   OH228016   2.862   5.947   0.086
 9351TIP3    H128017   2.940   5.950   0.031
 9351TIP3    H228018   2.889   5.899   0.164
 9352TIP3   OH228019   1.153   1.715   3.973
 9352TIP3    H128020   1.187   1.710   4.063
 9352TIP3    H228021   1.079   1.654   3.972
 9353TIP3   OH228022   5.553   1.246   3.892
 9353TIP3    H128023   5.535   1.171   3.834
 9353TIP3    H228024   5.493   1.314   3.861
 9354TIP3   OH228025   4.183   4.412   5.820
 9354TIP3    H128026   4.188   4.485   5.758
 9354TIP3    H228027   4.205   4.451   5.904
 9355TIP3   OH228028   4.147   1.522   4.258
 9355TIP3    H128029   4.091   1.519   4.180
 9355TIP3    H228030   4.216   1.458   4.241
 9356TIP3   OH228031   6.220   0.284   5.611
 9356TIP3    H128032   6.174   0.224   5.670
 9356TIP3    H228033   6.268   0.226   5.551
 9357TIP3   OH228034   0.445   5.410   3.203
 9357TIP3    H128035   0.450   5.424   3.109
 9357TIP3    H228036   0.517   5.350   3.222
 9358TIP3   OH228037   2.295   1.559   5.040
 9358TIP3    H128038   2.362   1.578   4.974
 9358TIP3    H228039   2.217   1.605   5.010
 9359TIP3   OH228040   6.381   0.908   5.702
 9359TIP3    H128041   6.391   0.855   5.622
 9359TIP3    H228042   6.295   0.949   5.693
 9360TIP3   OH228043   3.147   1.036   3.344
 9360TIP3    H128044   3.075   0.992   3.298
 9360TIP3    H228045   3.133   1.015   3.436
 9361TIP3   OH228046   5.727   0.246   2.292
 9361TIP3    H128047   5.769   0.300   2.359
 9361TIP3    H228048   5.776   0.163   2.295
 9362TIP3   OH228049   7.097   2.977   1.396
 9362TIP3    H128050   7.017   2.953   1.443
 9362TIP3    H228051   7.165   2.921   1.435
 9363TIP3   OH228052   6.180   5.043   2.843
 9363TIP3    H128053   6.271   5.017   2.832
 9363TIP3    H228054   6.179   5.137   2.825
 9364TIP3   OH228055   6.020   5.244   2.615
 9364TIP3    H128056   6.102   5.287   2.642
 9364TIP3    H228057   6.048   5.179   2.550
 9365TIP3   OH228058   3.081   6.707   0.019
 9365TIP3    H128059   3.129   6.678  -0.059
 9365TIP3    H228060   3.146   6.754   0.070
 9366TIP3   OH228061   2.733   6.530   0.743
 9366TIP3    H128062   2.764   6.440   0.748
 9366TIP3    H228063   2.785   6.578   0.807
 9367TIP3   OH228064   3.293   1.367   1.873
 9367TIP3    H128065   3.269   1.460   1.867
 9367TIP3    H228066   3.232   1.323   1.814
 9368TIP3   OH228067   6.454   5.238   1.276
 9368TIP3    H128068   6.455   5.153   1.232
 9368TIP3    H228069   6.541   5.275   1.260
 9369TIP3   OH228070   3.954   6.080   0.610
 9369TIP3    H128071   3.921   6.154   0.660
 9369TIP3    H228072   3.977   6.015   0.677
 9370TIP3   OH228073   0.472   2.320   0.322
 9370TIP3    H128074   0.387   2.329   0.366
 9370TIP3    H228075   0.506   2.409   0.316
 9371TIP3   OH228076   2.089   2.107   3.866
 9371TIP3    H128077   2.023   2.152   3.813
 9371TIP3    H228078   2.092   2.156   3.948
 9372TIP3   OH228079   5.061   5.361   0.559
 9372TIP3    H128080   5.030   5.410   0.636
 9372TIP3    H228081   4.981   5.344   0.509
 9373TIP3   OH228082   2.939   3.912   5.426
 9373TIP3    H128083   2.900   3.900   5.339
 9373TIP3    H228084   2.969   4.002   5.426
 9374TIP3   OH228085   5.593   6.185   2.225
 9374TIP3    H128086   5.582   6.111   2.166
 9374TIP3    H228087   5.659   6.156   2.288
 9375TIP3   OH228088   6.843   4.122   5.218
 9375TIP3    H128089   6.840   4.070   5.299
 9375TIP3    H228090   6.923   4.094   5.175
 9376TIP3   OH228091   5.754   0.778   5.262
 9376TIP3    H128092   5.697   0.815   5.194
 9376TIP3    H228093   5.694   0.734   5.322
 9377TIP3   OH228094   3.140   4.744   1.088
 9377TIP3    H128095   3.202   4.721   1.157
 9377TIP3    H228096   3.066   4.782   1.135
 9378TIP3   OH228097   5.552   6.470   1.885
 9378TIP3    H128098   5.596   6.505   1.962
 9378TIP3    H228099   5.617   6.476   1.815
 9379TIP3   OH228100   1.170   0.235   3.077
 9379TIP3    H128101   1.134   0.256   3.163
 9379TIP3    H228102   1.175   0.139   3.076
 9380TIP3   OH228103   0.415   4.740   1.338
 9380TIP3    H128104   0.436   4.833   1.327
 9380TIP3    H228105   0.344   4.739   1.403
 9381TIP3   OH228106   4.748   2.660   3.738
 9381TIP3    H128107   4.763   2.571   3.769
 9381TIP3    H228108   4.706   2.649   3.652
 9382TIP3   OH228109   3.026   1.632   3.572
 9382TIP3    H128110   3.104   1.685   3.592
 9382TIP3    H228111   3.050   1.543   3.597
 9383TIP3   OH228112   6.606   2.304   2.662
 9383TIP3    H128113   6.591   2.211   2.648
 9383TIP3    H228114   6.656   2.332   2.585
 9384TIP3   OH228115   1.685   6.449   3.647
 9384TIP3    H128116   1.743   6.382   3.684
 9384TIP3    H228117   1.657   6.500   3.723
 9385TIP3   OH228118   2.861   2.696   4.307
 9385TIP3    H128119   2.829   2.761   4.370
 9385TIP3    H228120   2.862   2.741   4.223
 9386TIP3   OH228121   3.181   2.312   2.931
 9386TIP3    H128122   3.127   2.270   2.864
 9386TIP3    H228123   3.131   2.301   3.012
 9387TIP3   OH228124   3.484   6.432   4.198
 9387TIP3    H128125   3.431   6.352   4.198
 9387TIP3    H228126   3.505   6.447   4.106
 9388TIP3   OH228127   5.546   6.623   1.282
 9388TIP3    H128128   5.508   6.701   1.244
 9388TIP3    H228129   5.626   6.608   1.230
 9389TIP3   OH228130   4.004   3.380   4.276
 9389TIP3    H128131   4.051   3.458   4.247
 9389TIP3    H228132   3.977   3.399   4.366
 9390TIP3   OH228133   6.574   3.285   2.801
 9390TIP3    H128134   6.648   3.238   2.840
 9390TIP3    H228135   6.522   3.217   2.758
 9391TIP3   OH228136   3.347   2.521   3.112
 9391TIP3    H128137   3.419   2.564   3.066
 9391TIP3    H228138   3.338   2.436   3.070
 9392TIP3   OH228139   7.141   3.966   3.579
 9392TIP3    H128140   7.086   4.009   3.645
 9392TIP3    H228141   7.079   3.933   3.514
 9393TIP3   OH228142   6.758   3.898   1.605
 9393TIP3    H128143   6.681   3.896   1.548
 9393TIP3    H228144   6.768   3.809   1.637
 9394TIP3   OH228145   1.087   3.358   2.327
 9394TIP3    H128146   1.140   3.281   2.309
 9394TIP3    H228147   1.117   3.424   2.264
 9395TIP3   OH228148   3.089   0.565   2.056
 9395TIP3    H128149   3.070   0.656   2.078
 9395TIP3    H228150   3.022   0.514   2.102
 9396TIP3   OH228151   6.517   6.305   5.506
 9396TIP3    H128152   6.437   6.288   5.554
 9396TIP3    H228153   6.586   6.300   5.572
 9397TIP3   OH228154   0.457   1.522   3.681
 9397TIP3    H128155   0.383   1.477   3.723
 9397TIP3    H228156   0.466   1.603   3.732
 9398TIP3   OH228157   2.027   1.118   4.758
 9398TIP3    H128158   1.988   1.084   4.839
 9398TIP3    H228159   2.121   1.126   4.779
 9399TIP3   OH228160   6.570   5.550   4.959
 9399TIP3    H128161   6.554   5.525   5.050
 9399TIP3    H228162   6.489   5.590   4.930
 9400TIP3   OH228163   0.199   6.401   3.593
 9400TIP3    H128164   0.144   6.454   3.650
 9400TIP3    H228165   0.148   6.321   3.577
 9401TIP3   OH228166   3.504   6.123   1.958
 9401TIP3    H128167   3.442   6.063   2.000
 9401TIP3    H228168   3.571   6.066   1.920
 9402TIP3   OH228169   2.275   2.079   3.624
 9402TIP3    H128170   2.214   2.123   3.683
 9402TIP3    H228171   2.248   1.988   3.624
 9403TIP3   OH228172   1.218   6.599   0.023
 9403TIP3    H128173   1.267   6.656   0.082
 9403TIP3    H228174   1.128   6.602   0.056
 9404TIP3   OH228175   1.654   4.897   2.543
 9404TIP3    H128176   1.727   4.959   2.550
 9404TIP3    H228177   1.602   4.929   2.470
 9405TIP3   OH228178   2.326   4.181   3.324
 9405TIP3    H128179   2.420   4.166   3.317
 9405TIP3    H228180   2.300   4.136   3.404
 9406TIP3   OH228181   2.643   1.412   5.723
 9406TIP3    H128182   2.583   1.422   5.649
 9406TIP3    H228183   2.601   1.348   5.780
 9407TIP3   OH228184   3.784   0.152   3.702
 9407TIP3    H128185   3.861   0.140   3.758
 9407TIP3    H228186   3.785   0.077   3.643
 9408TIP3   OH228187   0.661   6.381   4.941
 9408TIP3    H128188   0.664   6.402   4.848
 9408TIP3    H228189   0.711   6.450   4.983
 9409TIP3   OH228190   6.378   2.474   5.783
 9409TIP3    H128191   6.422   2.556   5.759
 9409TIP3    H228192   6.412   2.410   5.720
 9410TIP3   OH228193   1.484   3.568   1.360
 9410TIP3    H128194   1.439   3.635   1.308
 9410TIP3    H228195   1.491   3.605   1.447
 9411TIP3   OH228196   1.315   5.675   3.211
 9411TIP3    H128197   1.277   5.716   3.289
 9411TIP3    H228198   1.362   5.599   3.245
 9412TIP3   OH228199   1.740   2.975   5.342
 9412TIP3    H128200   1.676   2.945   5.278
 9412TIP3    H228201   1.824   2.967   5.296
 9413TIP3   OH228202   1.273   2.799   4.159
 9413TIP3    H128203   1.313   2.757   4.236
 9413TIP3    H228204   1.343   2.801   4.094
 9414TIP3   OH228205   0.760   5.042   0.137
 9414TIP3    H128206   0.683   5.092   0.165
 9414TIP3    H228207   0.740   4.952   0.164
 9415TIP3   OH228208   3.888   0.557   2.474
 9415TIP3    H128209   3.857   0.518   2.555
 9415TIP3    H228210   3.810   0.600   2.437
 9416TIP3   OH228211   2.190   2.687   1.062
 9416TIP3    H128212   2.228   2.771   1.035
 9416TIP3    H228213   2.192   2.633   0.983
 9417TIP3   OH228214   1.395   6.385   2.862
 9417TIP3    H128215   1.321   6.386   2.923
 9417TIP3    H228216   1.428   6.295   2.865
 9418TIP3   OH228217   1.514   4.058   4.716
 9418TIP3    H128218   1.551   4.091   4.634
 9418TIP3    H228219   1.489   4.137   4.765
 9419TIP3   OH228220   1.018   4.070   5.306
 9419TIP3    H128221   1.104   4.066   5.349
 9419TIP3    H228222   1.023   4.148   5.251
 9420TIP3   OH228223   0.108   2.727   5.579
 9420TIP3    H128224   0.180   2.736   5.642
 9420TIP3    H228225   0.108   2.634   5.556
 9421TIP3   OH228226   6.720   2.643   3.706
 9421TIP3    H128227   6.717   2.547   3.710
 9421TIP3    H228228   6.669   2.671   3.782
 9422TIP3   OH228229   2.652   3.733   3.124
 9422TIP3    H128230   2.697   3.663   3.077
 9422TIP3    H228231   2.606   3.689   3.195
 9423TIP3   OH228232   4.526   5.209   3.113
 9423TIP3    H128233   4.617   5.226   3.137
 9423TIP3    H228234   4.486   5.177   3.194
 9424TIP3   OH228235   5.026   5.959   2.980
 9424TIP3    H128236   4.988   6.023   3.041
 9424TIP3    H228237   5.117   5.951   3.008
 9425TIP3   OH228238   6.798   3.672   5.891
 9425TIP3    H128239   6.884   3.699   5.857
 9425TIP3    H228240   6.793   3.579   5.870
 9426TIP3   OH228241   3.069   3.499   1.236
 9426TIP3    H128242   3.151   3.548   1.245
 9426TIP3    H228243   3.072   3.464   1.147
 9427TIP3   OH228244   5.482   3.663   5.656
 9427TIP3    H128245   5.431   3.615   5.591
 9427TIP3    H228246   5.559   3.693   5.608
 9428TIP3   OH228247   4.012   3.598   1.971
 9428TIP3    H128248   3.976   3.660   2.034
 9428TIP3    H228249   4.025   3.649   1.891
 9429TIP3   OH228250   0.509   3.930   2.633
 9429TIP3    H128251   0.534   3.964   2.719
 9429TIP3    H228252   0.584   3.879   2.604
 9430TIP3   OH228253   4.370   4.972   3.582
 9430TIP3    H128254   4.397   4.880   3.585
 9430TIP3    H228255   4.277   4.970   3.605
 9431TIP3   OH228256   1.416   0.577   3.957
 9431TIP3    H128257   1.468   0.643   3.910
 9431TIP3    H228258   1.468   0.556   4.035
 9432TIP3   OH228259   4.496   3.983   2.851
 9432TIP3    H128260   4.490   3.892   2.880
 9432TIP3    H228261   4.458   3.982   2.763
 9433TIP3   OH228262   0.535   5.366   1.707
 9433TIP3    H128263   0.568   5.417   1.634
 9433TIP3    H228264   0.440   5.361   1.692
 9434TIP3   OH228265  -0.016   5.808   5.113
 9434TIP3    H128266   0.047   5.768   5.053
 9434TIP3    H228267   0.035   5.825   5.192
 9435TIP3   OH228268   1.950   1.360   5.828
 9435TIP3    H128269   1.901   1.357   5.746
 9435TIP3    H228270   1.992   1.274   5.833
 9436TIP3   OH228271   6.362   3.369   5.432
 9436TIP3    H128272   6.398   3.282   5.413
 9436TIP3    H228273   6.329   3.362   5.521
 9437TIP3   OH228274   3.912   5.610   3.418
 9437TIP3    H128275   3.949   5.523   3.402
 9437TIP3    H228276   3.864   5.630   3.337
 9438TIP3   OH228277   5.200   1.358   2.867
 9438TIP3    H128278   5.157   1.273   2.873
 9438TIP3    H228279   5.163   1.398   2.788
 9439TIP3   OH228280   6.331   1.863   2.701
 9439TIP3    H128281   6.378   1.892   2.779
 9439TIP3    H228282   6.286   1.941   2.669
 9440TIP3   OH228283   1.393   1.374   3.442
 9440TIP3    H128284   1.316   1.410   3.486
 9440TIP3    H228285   1.388   1.408   3.353
 9441TIP3   OH228286   6.197   5.613   1.889
 9441TIP3    H128287   6.231   5.628   1.977
 9441TIP3    H228288   6.133   5.683   1.876
 9442TIP3   OH228289   4.067   2.911   5.090
 9442TIP3    H128290   4.104   2.848   5.028
 9442TIP3    H228291   4.083   2.874   5.176
 9443TIP3   OH228292   2.255   5.206   2.548
 9443TIP3    H128293   2.278   5.295   2.520
 9443TIP3    H228294   2.194   5.219   2.621
 9444TIP3   OH228295   0.629   0.340   0.091
 9444TIP3    H128296   0.600   0.399   0.021
 9444TIP3    H228297   0.713   0.307   0.060
 9445TIP3   OH228298   1.775   1.033   0.708
 9445TIP3    H128299   1.710   1.007   0.772
 9445TIP3    H228300   1.749   1.120   0.680
 9446TIP3   OH228301   5.947   2.096   1.688
 9446TIP3    H128302   5.991   2.180   1.694
 9446TIP3    H228303   5.863   2.110   1.733
 9447TIP3   OH228304   2.545   0.017   0.329
 9447TIP3    H128305   2.563   0.033   0.237
 9447TIP3    H228306   2.627  -0.017   0.364
 9448TIP3   OH228307   3.724   6.206   5.847
 9448TIP3    H128308   3.654   6.263   5.818
 9448TIP3    H228309   3.688   6.161   5.924
 9449TIP3   OH228310   5.850   3.396   5.047
 9449TIP3    H128311   5.823   3.355   5.129
 9449TIP3    H228312   5.945   3.398   5.051
 9450TIP3   OH228313   6.147   0.163   0.050
 9450TIP3    H128314   6.182   0.170   0.139
 9450TIP3    H228315   6.151   0.253   0.016
 9451TIP3   OH228316   6.253   4.522   1.794
 9451TIP3    H128317   6.309   4.456   1.836
 9451TIP3    H228318   6.208   4.564   1.868
 9452TIP3   OH228319   4.942   2.760   5.754
 9452TIP3    H128320   4.960   2.703   5.830
 9452TIP3    H228321   4.899   2.837   5.792
 9453TIP3   OH228322   5.960   2.211   1.164
 9453TIP3    H128323   5.997   2.132   1.123
 9453TIP3    H228324   5.867   2.191   1.174
 9454TIP3   OH228325   2.718   5.942   4.760
 9454TIP3    H128326   2.689   5.867   4.811
 9454TIP3    H228327   2.700   5.919   4.669
 9455TIP3   OH228328   3.095   5.452   1.709
 9455TIP3    H128329   3.121   5.368   1.671
 9455TIP3    H228330   3.071   5.430   1.799
 9456TIP3   OH228331   2.106   0.542   4.524
 9456TIP3    H128332   2.190   0.508   4.493
 9456TIP3    H228333   2.092   0.498   4.608
 9457TIP3   OH228334   6.934   1.558   2.360
 9457TIP3    H128335   6.860   1.603   2.318
 9457TIP3    H228336   6.982   1.519   2.287
 9458TIP3   OH228337   5.547   0.440   4.953
 9458TIP3    H128338   5.465   0.401   4.983
 9458TIP3    H228339   5.522   0.522   4.911
 9459TIP3   OH228340   4.920   4.871   3.960
 9459TIP3    H128341   4.951   4.914   3.880
 9459TIP3    H228342   4.825   4.884   3.959
 9460TIP3   OH228343   3.843   2.657   4.298
 9460TIP3    H128344   3.768   2.657   4.239
 9460TIP3    H228345   3.890   2.738   4.278
 9461TIP3   OH228346   5.895   5.598   1.603
 9461TIP3    H128347   5.844   5.568   1.678
 9461TIP3    H228348   5.840   5.579   1.527
 9462TIP3   OH228349   4.195   5.271   2.095
 9462TIP3    H128350   4.276   5.268   2.145
 9462TIP3    H228351   4.207   5.207   2.026
 9463TIP3   OH228352   1.129   2.618   4.400
 9463TIP3    H128353   1.060   2.637   4.463
 9463TIP3    H228354   1.090   2.553   4.341
 9464TIP3   OH228355   1.702   1.070   5.533
 9464TIP3    H128356   1.695   1.158   5.571
 9464TIP3    H228357   1.677   1.081   5.441
 9465TIP3   OH228358   6.009   3.037   2.440
 9465TIP3    H128359   6.005   2.957   2.491
 9465TIP3    H228360   5.960   3.101   2.492
 9466TIP3   OH228361   3.565   0.346   3.917
 9466TIP3    H128362   3.619   0.386   3.848
 9466TIP3    H228363   3.590   0.392   3.997
 9467TIP3   OH228364   0.699   4.342   4.773
 9467TIP3    H128365   0.637   4.272   4.751
 9467TIP3    H228366   0.686   4.407   4.704
 9468TIP3   OH228367   0.905   6.690   3.913
 9468TIP3    H128368   0.933   6.689   4.005
 9468TIP3    H228369   0.813   6.665   3.917
 9469TIP3   OH228370   6.183   5.006   1.636
 9469TIP3    H128371   6.275   4.991   1.656
 9469TIP3    H228372   6.138   4.930   1.674
 9470TIP3   OH228373   5.098   3.968   2.525
 9470TIP3    H128374   5.059   3.911   2.591
 9470TIP3    H228375   5.191   3.973   2.549
 9471TIP3   OH228376   3.759   6.353   3.132
 9471TIP3    H128377   3.666   6.365   3.111
 9471TIP3    H228378   3.803   6.352   3.047
 9472TIP3   OH228379   6.299   1.317   0.967
 9472TIP3    H128380   6.308   1.295   1.060
 9472TIP3    H228381   6.305   1.233   0.922
 9473TIP3   OH228382   1.592   2.719   4.756
 9473TIP3    H128383   1.580   2.706   4.850
 9473TIP3    H228384   1.512   2.762   4.727
 9474TIP3   OH228385   2.024   0.148   5.792
 9474TIP3    H128386   2.058   0.235   5.772
 9474TIP3    H228387   1.930   0.162   5.805
 9475TIP3   OH228388   3.848   0.956   0.038
 9475TIP3    H128389   3.892   0.893   0.095
 9475TIP3    H228390   3.906   0.964  -0.037
 9476TIP3   OH228391   0.789   1.989   4.745
 9476TIP3    H128392   0.764   2.079   4.723
 9476TIP3    H228393   0.737   1.934   4.687
 9477TIP3   OH228394   6.045   3.409   1.855
 9477TIP3    H128395   6.022   3.380   1.767
 9477TIP3    H228396   5.989   3.485   1.871
 9478TIP3   OH228397   2.378   4.687   4.737
 9478TIP3    H128398   2.320   4.614   4.715
 9478TIP3    H228399   2.325   4.745   4.791
 9479TIP3   OH228400   3.021   5.391   1.969
 9479TIP3    H128401   3.088   5.447   2.009
 9479TIP3    H228402   2.952   5.385   2.036
 9480TIP3   OH228403   1.169   4.805   0.394
 9480TIP3    H128404   1.140   4.757   0.316
 9480TIP3    H228405   1.245   4.756   0.426
 9481TIP3   OH228406   0.598   5.274   3.929
 9481TIP3    H128407   0.575   5.367   3.922
 9481TIP3    H228408   0.518   5.228   3.902
 9482TIP3   OH228409   4.799   2.970   0.033
 9482TIP3    H128410   4.750   2.946   0.112
 9482TIP3    H228411   4.888   2.939   0.050
 9483TIP3   OH228412   5.365   0.097   5.720
 9483TIP3    H128413   5.312   0.134   5.790
 9483TIP3    H228414   5.303   0.078   5.650
 9484TIP3   OH228415   4.166   0.765   0.815
 9484TIP3    H128416   4.239   0.745   0.757
 9484TIP3    H228417   4.123   0.680   0.829
 9485TIP3   OH228418   2.333   2.359   4.196
 9485TIP3    H128419   2.292   2.381   4.280
 9485TIP3    H228420   2.340   2.264   4.197
 9486TIP3   OH228421   3.284   6.141   1.086
 9486TIP3    H128422   3.306   6.213   1.027
 9486TIP3    H228423   3.224   6.180   1.150
 9487TIP3   OH228424   4.416   1.563   3.604
 9487TIP3    H128425   4.441   1.594   3.517
 9487TIP3    H228426   4.491   1.511   3.634
 9488TIP3   OH228427   1.838   3.533   0.662
 9488TIP3    H128428   1.868   3.442   0.660
 9488TIP3    H228429   1.911   3.581   0.702
 9489TIP3   OH228430   3.336   5.051   1.357
 9489TIP3    H128431   3.346   5.012   1.271
 9489TIP3    H228432   3.278   4.991   1.405
 9490TIP3   OH228433   0.653   5.215   1.019
 9490TIP3    H128434   0.596   5.143   0.993
 9490TIP3    H228435   0.741   5.187   0.994
 9491TIP3   OH228436   5.723   3.755  -0.024
 9491TIP3    H128437   5.700   3.829   0.031
 9491TIP3    H228438   5.754   3.795  -0.106
 9492TIP3   OH228439   4.112   1.286   5.309
 9492TIP3    H128440   4.064   1.266   5.229
 9492TIP3    H228441   4.094   1.212   5.367
 9493TIP3   OH228442   0.388   0.031   0.918
 9493TIP3    H128443   0.335   0.093   0.968
 9493TIP3    H228444   0.467   0.080   0.894
 9494TIP3   OH228445   1.381   2.051   2.081
 9494TIP3    H128446   1.372   2.146   2.076
 9494TIP3    H228447   1.463   2.032   2.035
 9495TIP3   OH228448   5.661   1.499   0.428
 9495TIP3    H128449   5.716   1.472   0.501
 9495TIP3    H228450   5.721   1.501   0.353
 9496TIP3   OH228451   1.106   6.616   3.359
 9496TIP3    H128452   1.014   6.602   3.338
 9496TIP3    H228453   1.133   6.536   3.404
 9497TIP3   OH228454   1.356   2.712   1.839
 9497TIP3    H128455   1.300   2.761   1.779
 9497TIP3    H228456   1.434   2.768   1.849
 9498TIP3   OH228457   3.314   0.129   5.211
 9498TIP3    H128458   3.345   0.195   5.273
 9498TIP3    H228459   3.290   0.054   5.266
 9499TIP3   OH228460   1.611   4.509   3.026
 9499TIP3    H128461   1.602   4.425   2.981
 9499TIP3    H228462   1.686   4.551   2.984
 9500TIP3   OH228463   2.174   6.071   2.145
 9500TIP3    H128464   2.227   6.038   2.217
 9500TIP3    H228465   2.155   5.994   2.091
 9501TIP3   OH228466   2.194   5.555   0.132
 9501TIP3    H128467   2.115   5.608   0.144
 9501TIP3    H228468   2.266   5.617   0.147
 9502TIP3   OH228469   0.814   4.478   1.582
 9502TIP3    H128470   0.874   4.552   1.571
 9502TIP3    H228471   0.727   4.517   1.584
 9503TIP3   OH228472   2.723   2.987   2.078
 9503TIP3    H128473   2.709   3.070   2.033
 9503TIP3    H228474   2.758   2.928   2.012
 9504TIP3   OH228475   1.861   3.412   1.003
 9504TIP3    H128476   1.768   3.413   0.983
 9504TIP3    H228477   1.897   3.341   0.950
 9505TIP3   OH228478   0.762   5.070   3.091
 9505TIP3    H128479   0.829   5.051   3.026
 9505TIP3    H228480   0.762   4.994   3.150
 9506TIP3   OH228481   0.667   1.825   5.457
 9506TIP3    H128482   0.737   1.829   5.521
 9506TIP3    H228483   0.630   1.913   5.455
 9507TIP3   OH228484   2.757   6.658   1.204
 9507TIP3    H128485   2.749   6.735   1.261
 9507TIP3    H228486   2.762   6.584   1.264
 9508TIP3   OH228487   5.263   4.889   1.964
 9508TIP3    H128488   5.283   4.797   1.981
 9508TIP3    H228489   5.339   4.936   1.996
 9509TIP3   OH228490   1.981   2.044   1.288
 9509TIP3    H128491   2.031   2.123   1.268
 9509TIP3    H228492   2.032   1.973   1.248
 9510TIP3   OH228493   2.236   0.466   3.923
 9510TIP3    H128494   2.236   0.450   3.828
 9510TIP3    H228495   2.226   0.379   3.962
 9511TIP3   OH228496   1.956   6.692   2.185
 9511TIP3    H128497   2.034   6.674   2.237
 9511TIP3    H228498   1.989   6.700   2.095
 9512TIP3   OH228499   2.603   3.983   1.042
 9512TIP3    H128500   2.553   4.034   0.978
 9512TIP3    H228501   2.685   4.030   1.052
 9513TIP3   OH228502   0.073   6.300   5.090
 9513TIP3    H128503   0.044   6.335   5.006
 9513TIP3    H228504   0.026   6.351   5.156
 9514TIP3   OH228505   1.389   3.824   4.812
 9514TIP3    H128506   1.423   3.913   4.803
 9514TIP3    H228507   1.313   3.820   4.754
 9515TIP3   OH228508   4.548   1.302   1.444
 9515TIP3    H128509   4.479   1.321   1.380
 9515TIP3    H228510   4.505   1.248   1.510
 9516TIP3   OH228511   2.842   0.783   0.976
 9516TIP3    H128512   2.765   0.735   0.945
 9516TIP3    H228513   2.906   0.715   0.997
 9517TIP3   OH228514   3.300   4.378   1.287
 9517TIP3    H128515   3.227   4.399   1.345
 9517TIP3    H228516   3.330   4.463   1.254
 9518TIP3   OH228517   1.303   0.792   3.746
 9518TIP3    H128518   1.247   0.741   3.805
 9518TIP3    H228519   1.324   0.731   3.675
 9519TIP3   OH228520   4.295   1.414   1.570
 9519TIP3    H128521   4.207   1.440   1.598
 9519TIP3    H228522   4.328   1.360   1.642
 9520TIP3   OH228523   2.024   6.555   5.666
 9520TIP3    H128524   2.027   6.609   5.744
 9520TIP3    H228525   1.976   6.608   5.602
 9521TIP3   OH228526   5.533   6.175   2.548
 9521TIP3    H128527   5.542   6.137   2.636
 9521TIP3    H228528   5.623   6.182   2.516
 9522TIP3   OH228529   1.363   1.427   4.186
 9522TIP3    H128530   1.316   1.344   4.186
 9522TIP3    H228531   1.376   1.448   4.094
 9523TIP3   OH228532   3.848   0.428   2.198
 9523TIP3    H128533   3.804   0.443   2.282
 9523TIP3    H228534   3.806   0.350   2.163
 9524TIP3   OH228535   3.833   5.472   1.532
 9524TIP3    H128536   3.793   5.387   1.513
 9524TIP3    H228537   3.863   5.465   1.622
 9525TIP3   OH228538   1.188   1.152   1.212
 9525TIP3    H128539   1.177   1.064   1.248
 9525TIP3    H228540   1.099   1.186   1.203
 9526TIP3   OH228541   3.321   6.168   5.273
 9526TIP3    H128542   3.258   6.179   5.201
 9526TIP3    H228543   3.398   6.129   5.232
 9527TIP3   OH228544   4.092   3.141   2.185
 9527TIP3    H128545   4.039   3.158   2.108
 9527TIP3    H228546   4.036   3.165   2.259
 9528TIP3   OH228547   4.781   6.812   5.313
 9528TIP3    H128548   4.771   6.722   5.281
 9528TIP3    H228549   4.872   6.818   5.341
 9529TIP3   OH228550   1.308   0.652   1.218
 9529TIP3    H128551   1.400   0.673   1.234
 9529TIP3    H228552   1.309   0.564   1.180
 9530TIP3   OH228553   3.369   0.905   3.693
 9530TIP3    H128554   3.417   0.970   3.642
 9530TIP3    H228555   3.417   0.823   3.680
 9531TIP3   OH228556   3.088   4.763   2.708
 9531TIP3    H128557   3.083   4.740   2.801
 9531TIP3    H228558   3.145   4.840   2.705
 9532TIP3   OH228559   4.304   4.859   1.235
 9532TIP3    H128560   4.257   4.870   1.317
 9532TIP3    H228561   4.286   4.939   1.186
 9533TIP3   OH228562   6.357   1.237   1.217
 9533TIP3    H128563   6.292   1.297   1.253
 9533TIP3    H228564   6.338   1.152   1.258
 9534TIP3   OH228565   3.982   0.189   2.473
 9534TIP3    H128566   3.952   0.180   2.564
 9534TIP3    H228567   4.073   0.218   2.480
 9535TIP3   OH228568   3.175   3.366   5.100
 9535TIP3    H128569   3.128   3.444   5.130
 9535TIP3    H228570   3.124   3.293   5.134
 9536TIP3   OH228571   5.474   3.389   0.484
 9536TIP3    H128572   5.569   3.379   0.478
 9536TIP3    H228573   5.456   3.473   0.444
 9537TIP3   OH228574   1.831   5.843   1.820
 9537TIP3    H128575   1.891   5.917   1.808
 9537TIP3    H228576   1.886   5.774   1.856
 9538TIP3   OH228577   4.761   1.372   2.594
 9538TIP3    H128578   4.855   1.387   2.604
 9538TIP3    H228579   4.745   1.288   2.638
 9539TIP3   OH228580   4.747   5.219   0.191
 9539TIP3    H128581   4.792   5.301   0.209
 9539TIP3    H228582   4.658   5.232   0.225
 9540TIP3   OH228583   0.243   5.442   2.729
 9540TIP3    H128584   0.305   5.514   2.737
 9540TIP3    H228585   0.200   5.457   2.644
 9541TIP3   OH228586   2.291   0.252   0.983
 9541TIP3    H128587   2.319   0.163   0.961
 9541TIP3    H228588   2.369   0.293   1.020
 9542TIP3   OH228589   5.530   2.627   4.515
 9542TIP3    H128590   5.437   2.627   4.494
 9542TIP3    H228591   5.551   2.535   4.532
 9543TIP3   OH228592   0.618   4.471   4.552
 9543TIP3    H128593   0.556   4.440   4.486
 9543TIP3    H228594   0.679   4.526   4.503
 9544TIP3   OH228595   3.539   3.660   4.961
 9544TIP3    H128596   3.472   3.652   5.029
 9544TIP3    H228597   3.564   3.569   4.943
 9545TIP3   OH228598   6.255   0.179   2.385
 9545TIP3    H128599   6.185   0.146   2.330
 9545TIP3    H228600   6.227   0.267   2.410
 9546TIP3   OH228601   1.843   6.156   4.669
 9546TIP3    H128602   1.854   6.183   4.578
 9546TIP3    H228603   1.916   6.197   4.715
 9547TIP3   OH228604   1.188   2.085   1.045
 9547TIP3    H128605   1.218   1.994   1.048
 9547TIP3    H228606   1.118   2.085   0.979
 9548TIP3   OH228607   6.369   3.695   5.502
 9548TIP3    H128608   6.347   3.608   5.468
 9548TIP3    H228609   6.456   3.684   5.541
 9549TIP3   OH228610   5.880   3.583   0.651
 9549TIP3    H128611   5.966   3.573   0.691
 9549TIP3    H228612   5.897   3.576   0.557
 9550TIP3   OH228613   0.770   5.925   0.180
 9550TIP3    H128614   0.865   5.927   0.165
 9550TIP3    H228615   0.756   5.844   0.230
 9551TIP3   OH228616   5.186   2.264   5.091
 9551TIP3    H128617   5.226   2.221   5.015
 9551TIP3    H228618   5.092   2.260   5.075
 9552TIP3   OH228619   2.320   0.479   5.177
 9552TIP3    H128620   2.412   0.498   5.195
 9552TIP3    H228621   2.320   0.443   5.089
 9553TIP3   OH228622   1.324   3.309   0.829
 9553TIP3    H128623   1.346   3.336   0.918
 9553TIP3    H228624   1.400   3.334   0.777
 9554TIP3   OH228625   3.970   1.336   3.814
 9554TIP3    H128626   3.968   1.409   3.876
 9554TIP3    H228627   4.059   1.301   3.820
 9555TIP3   OH228628   0.271   3.743   4.893
 9555TIP3    H128629   0.289   3.767   4.983
 9555TIP3    H228630   0.317   3.809   4.841
 9556TIP3   OH228631   4.492   1.712   3.933
 9556TIP3    H128632   4.485   1.617   3.922
 9556TIP3    H228633   4.403   1.740   3.956
 9557TIP3   OH228634   3.946   0.841   4.695
 9557TIP3    H128635   3.997   0.764   4.670
 9557TIP3    H228636   3.914   0.876   4.612
 9558TIP3   OH228637   2.924   4.063   1.077
 9558TIP3    H128638   2.894   4.083   1.165
 9558TIP3    H228639   2.975   4.140   1.050
 9559TIP3   OH228640   2.462   5.085   2.080
 9559TIP3    H128641   2.453   5.082   1.985
 9559TIP3    H228642   2.386   5.037   2.113
 9560TIP3   OH228643   2.168   1.189   1.073
 9560TIP3    H128644   2.226   1.217   1.001
 9560TIP3    H228645   2.083   1.226   1.052
 9561TIP3   OH228646   0.242   4.640   4.087
 9561TIP3    H128647   0.298   4.646   4.165
 9561TIP3    H228648   0.190   4.721   4.089
 9562TIP3   OH228649   5.055   1.443   5.066
 9562TIP3    H128650   5.095   1.519   5.024
 9562TIP3    H228651   5.014   1.395   4.994
 9563TIP3   OH228652   1.457   6.273   3.654
 9563TIP3    H128653   1.410   6.295   3.734
 9563TIP3    H228654   1.534   6.330   3.654
 9564TIP3   OH228655   4.081   4.134   5.312
 9564TIP3    H128656   4.109   4.174   5.395
 9564TIP3    H228657   4.064   4.209   5.255
 9565TIP3   OH228658   3.828   2.017   4.745
 9565TIP3    H128659   3.790   1.929   4.741
 9565TIP3    H228660   3.838   2.034   4.839
 9566TIP3   OH228661   1.458   3.800   3.620
 9566TIP3    H128662   1.411   3.820   3.701
 9566TIP3    H228663   1.491   3.885   3.591
 9567TIP3   OH228664   6.115   0.554   5.218
 9567TIP3    H128665   6.042   0.524   5.164
 9567TIP3    H228666   6.114   0.650   5.209
 9568TIP3   OH228667   0.538   0.848   3.051
 9568TIP3    H128668   0.595   0.777   3.022
 9568TIP3    H228669   0.565   0.923   2.998
 9569TIP3   OH228670   6.595   2.210   1.790
 9569TIP3    H128671   6.667   2.248   1.741
 9569TIP3    H228672   6.548   2.156   1.727
 9570TIP3   OH228673   6.480   3.449   1.081
 9570TIP3    H128674   6.464   3.356   1.070
 9570TIP3    H228675   6.428   3.491   1.013
 9571TIP3   OH228676   6.033   3.434   1.070
 9571TIP3    H128677   6.042   3.487   1.149
 9571TIP3    H228678   5.938   3.428   1.056
 9572TIP3   OH228679   2.258   5.577   2.034
 9572TIP3    H128680   2.309   5.502   2.064
 9572TIP3    H228681   2.199   5.597   2.108
 9573TIP3   OH228682   3.420   5.274   0.290
 9573TIP3    H128683   3.432   5.321   0.372
 9573TIP3    H228684   3.335   5.303   0.258
 9574TIP3   OH228685   6.117   2.228   4.146
 9574TIP3    H128686   6.114   2.227   4.050
 9574TIP3    H228687   6.027   2.248   4.173
 9575TIP3   OH228688   0.110   1.349   5.201
 9575TIP3    H128689   0.166   1.300   5.262
 9575TIP3    H228690   0.132   1.313   5.114
 9576TIP3   OH228691   4.097   3.663   0.823
 9576TIP3    H128692   4.044   3.644   0.901
 9576TIP3    H228693   4.036   3.706   0.763
 9577TIP3   OH228694   3.878   5.879   0.280
 9577TIP3    H128695   3.917   5.864   0.366
 9577TIP3    H228696   3.931   5.826   0.220
 9578TIP3   OH228697   4.005   4.358   1.370
 9578TIP3    H128698   3.941   4.346   1.440
 9578TIP3    H228699   4.090   4.349   1.413
 9579TIP3   OH228700   0.060   5.117   1.893
 9579TIP3    H128701   0.058   5.108   1.798
 9579TIP3    H228702   0.052   5.211   1.908
 9580TIP3   OH228703   2.906   3.741   3.767
 9580TIP3    H128704   2.985   3.771   3.723
 9580TIP3    H228705   2.889   3.806   3.835
 9581TIP3   OH228706   3.508   4.076   2.958
 9581TIP3    H128707   3.549   4.046   2.877
 9581TIP3    H228708   3.505   4.171   2.950
 9582TIP3   OH228709   0.332   4.657   4.355
 9582TIP3    H128710   0.353   4.747   4.379
 9582TIP3    H228711   0.314   4.613   4.438
 9583TIP3   OH228712   0.779   2.863   4.383
 9583TIP3    H128713   0.760   2.815   4.463
 9583TIP3    H228714   0.698   2.858   4.332
 9584TIP3   OH228715   0.980   1.153   3.689
 9584TIP3    H128716   0.964   1.179   3.599
 9584TIP3    H228717   0.895   1.162   3.732
 9585TIP3   OH228718   4.804   2.652   1.457
 9585TIP3    H128719   4.781   2.655   1.364
 9585TIP3    H228720   4.850   2.569   1.468
 9586TIP3   OH228721   5.511   4.398   3.199
 9586TIP3    H128722   5.488   4.490   3.213
 9586TIP3    H228723   5.430   4.358   3.167
 9587TIP3   OH228724   4.302   0.212   1.055
 9587TIP3    H128725   4.292   0.307   1.060
 9587TIP3    H228726   4.324   0.184   1.144
 9588TIP3   OH228727   0.774   0.033   3.268
 9588TIP3    H128728   0.792   0.052   3.176
 9588TIP3    H228729   0.711   0.100   3.294
 9589TIP3   OH228730   2.358   1.958   2.082
 9589TIP3    H128731   2.340   1.992   2.170
 9589TIP3    H228732   2.327   1.868   2.083
 9590TIP3   OH228733   2.020   5.596   0.490
 9590TIP3    H128734   1.998   5.620   0.400
 9590TIP3    H228735   2.113   5.617   0.499
 9591TIP3   OH228736   4.030   3.330   3.249
 9591TIP3    H128737   4.044   3.371   3.335
 9591TIP3    H228738   4.087   3.378   3.190
 9592TIP3   OH228739   5.937   1.634   1.551
 9592TIP3    H128740   6.017   1.628   1.500
 9592TIP3    H228741   5.950   1.573   1.624
 9593TIP3   OH228742   3.160   5.903   4.510
 9593TIP3    H128743   3.173   5.809   4.525
 9593TIP3    H228744   3.239   5.932   4.465
 9594TIP3   OH228745   5.683   2.384   3.106
 9594TIP3    H128746   5.615   2.400   3.041
 9594TIP3    H228747   5.714   2.295   3.087
 9595TIP3   OH228748   0.815   1.125   1.662
 9595TIP3    H128749   0.815   1.193   1.594
 9595TIP3    H228750   0.801   1.044   1.614
 9596TIP3   OH228751   3.883   6.170   0.217
 9596TIP3    H128752   3.789   6.183   0.201
 9596TIP3    H228753   3.890   6.078   0.243
 9597TIP3   OH228754   4.118   2.572   0.875
 9597TIP3    H128755   4.066   2.552   0.953
 9597TIP3    H228756   4.208   2.575   0.906
 9598TIP3   OH228757   5.205   2.018   1.893
 9598TIP3    H128758   5.136   2.022   1.960
 9598TIP3    H228759   5.204   1.927   1.863
 9599TIP3   OH228760   1.143   6.367   0.643
 9599TIP3    H128761   1.186   6.291   0.682
 9599TIP3    H228762   1.213   6.413   0.596
 9600TIP3   OH228763   1.306   5.511   0.595
 9600TIP3    H128764   1.343   5.526   0.508
 9600TIP3    H228765   1.259   5.591   0.616
 9601TIP3   OH228766   3.587   2.452   4.727
 9601TIP3    H128767   3.580   2.518   4.658
 9601TIP3    H228768   3.503   2.456   4.771
 9602TIP3   OH228769   2.374   5.629   4.038
 9602TIP3    H128770   2.347   5.544   4.071
 9602TIP3    H228771   2.296   5.664   3.995
 9603TIP3   OH228772   5.166   1.628   0.381
 9603TIP3    H128773   5.238   1.639   0.444
 9603TIP3    H228774   5.206   1.582   0.307
 9604TIP3   OH228775   5.005   2.275   3.821
 9604TIP3    H128776   5.034   2.250   3.908
 9604TIP3    H228777   5.036   2.365   3.809
 9605TIP3   OH228778   0.724   6.671   4.159
 9605TIP3    H128779   0.790   6.697   4.223
 9605TIP3    H228780   0.681   6.595   4.198
 9606TIP3   OH228781   6.915   2.003   2.670
 9606TIP3    H128782   6.957   2.086   2.693
 9606TIP3    H228783   6.879   2.018   2.582
 9607TIP3   OH228784   6.390   0.312   0.827
 9607TIP3    H128785   6.402   0.223   0.861
 9607TIP3    H228786   6.310   0.343   0.869
 9608TIP3   OH228787   0.965   4.790   5.371
 9608TIP3    H128788   0.938   4.761   5.457
 9608TIP3    H228789   0.954   4.713   5.315
 9609TIP3   OH228790   2.390   4.475   5.440
 9609TIP3    H128791   2.378   4.541   5.508
 9609TIP3    H228792   2.485   4.468   5.429
 9610TIP3   OH228793   2.539   2.229   3.615
 9610TIP3    H128794   2.464   2.170   3.606
 9610TIP3    H228795   2.578   2.206   3.699
 9611TIP3   OH228796   1.885   5.129   5.503
 9611TIP3    H128797   1.850   5.075   5.573
 9611TIP3    H228798   1.808   5.164   5.458
 9612TIP3   OH228799   6.949   0.947   4.598
 9612TIP3    H128800   6.924   1.023   4.546
 9612TIP3    H228801   6.934   0.872   4.539
 9613TIP3   OH228802   2.633   1.571   1.258
 9613TIP3    H128803   2.580   1.630   1.205
 9613TIP3    H228804   2.683   1.628   1.315
 9614TIP3   OH228805   5.253   4.735   0.353
 9614TIP3    H128806   5.161   4.746   0.329
 9614TIP3    H228807   5.302   4.753   0.273
 9615TIP3   OH228808   5.808   5.397   2.514
 9615TIP3    H128809   5.884   5.350   2.549
 9615TIP3    H228810   5.742   5.392   2.583
 9616TIP3   OH228811   6.132   4.645   2.005
 9616TIP3    H128812   6.058   4.650   2.067
 9616TIP3    H228813   6.203   4.608   2.057
 9617TIP3   OH228814   2.333   5.212   4.795
 9617TIP3    H128815   2.315   5.173   4.880
 9617TIP3    H228816   2.335   5.306   4.812
 9618TIP3   OH228817   2.821   0.011   4.362
 9618TIP3    H128818   2.727   0.023   4.346
 9618TIP3    H228819   2.861   0.018   4.275
 9619TIP3   OH228820   1.237   1.754   1.275
 9619TIP3    H128821   1.254   1.804   1.354
 9619TIP3    H228822   1.272   1.667   1.294
 9620TIP3   OH228823   3.558   1.824   0.901
 9620TIP3    H128824   3.633   1.867   0.941
 9620TIP3    H228825   3.587   1.805   0.811
 9621TIP3   OH228826   7.009   5.092   5.862
 9621TIP3    H128827   7.058   5.139   5.930
 9621TIP3    H228828   7.041   5.001   5.869
 9622TIP3   OH228829   6.946   1.179   4.464
 9622TIP3    H128830   6.977   1.185   4.374
 9622TIP3    H228831   6.853   1.202   4.460
 9623TIP3   OH228832   1.929   0.699   3.126
 9623TIP3    H128833   1.933   0.715   3.032
 9623TIP3    H228834   1.930   0.787   3.165
 9624TIP3   OH228835   3.856   3.265   3.597
 9624TIP3    H128836   3.940   3.222   3.581
 9624TIP3    H228837   3.869   3.316   3.677
 9625TIP3   OH228838   3.563   0.427   3.453
 9625TIP3    H128839   3.484   0.437   3.400
 9625TIP3    H228840   3.537   0.368   3.524
 9626TIP3   OH228841   6.668   4.333   5.128
 9626TIP3    H128842   6.639   4.402   5.186
 9626TIP3    H228843   6.695   4.262   5.186
 9627TIP3   OH228844   2.067   0.491   2.567
 9627TIP3    H128845   2.066   0.455   2.478
 9627TIP3    H228846   2.138   0.445   2.611
 9628TIP3   OH228847   1.730   4.287   2.831
 9628TIP3    H128848   1.681   4.283   2.749
 9628TIP3    H228849   1.821   4.276   2.805
 9629TIP3   OH228850   2.650   1.966   5.459
 9629TIP3    H128851   2.679   1.922   5.380
 9629TIP3    H228852   2.667   2.059   5.443
 9630TIP3   OH228853   6.132   5.582   4.734
 9630TIP3    H128854   6.113   5.634   4.655
 9630TIP3    H228855   6.174   5.503   4.701
 9631TIP3   OH228856   5.405   0.061   3.259
 9631TIP3    H128857   5.367   0.141   3.296
 9631TIP3    H228858   5.432   0.011   3.336
 9632TIP3   OH228859   6.648   1.732   1.209
 9632TIP3    H128860   6.737   1.748   1.177
 9632TIP3    H228861   6.659   1.663   1.275
 9633TIP3   OH228862   1.944   3.444   2.177
 9633TIP3    H128863   1.978   3.424   2.090
 9633TIP3    H228864   1.860   3.486   2.161
 9634TIP3   OH228865   2.332   1.504   1.029
 9634TIP3    H128866   2.393   1.578   1.026
 9634TIP3    H228867   2.318   1.488   1.122
 9635TIP3   OH228868   4.061   0.922   3.111
 9635TIP3    H128869   4.095   0.967   3.034
 9635TIP3    H228870   4.005   0.853   3.076
 9636TIP3   OH228871   0.068   2.131   5.676
 9636TIP3    H128872  -0.022   2.100   5.666
 9636TIP3    H228873   0.097   2.150   5.587
 9637TIP3   OH228874   2.422   1.459   4.547
 9637TIP3    H128875   2.400   1.373   4.512
 9637TIP3    H228876   2.338   1.505   4.555
 9638TIP3   OH228877   6.257   5.267   0.902
 9638TIP3    H128878   6.281   5.349   0.945
 9638TIP3    H228879   6.341   5.225   0.883
 9639TIP3   OH228880   1.942   3.147   2.959
 9639TIP3    H128881   1.999   3.222   2.976
 9639TIP3    H228882   2.000   3.071   2.967
 9640TIP3   OH228883   2.259   1.705   3.134
 9640TIP3    H128884   2.185   1.718   3.074
 9640TIP3    H228885   2.243   1.767   3.205
 9641TIP3   OH228886   5.374   3.230   3.781
 9641TIP3    H128887   5.402   3.318   3.806
 9641TIP3    H228888   5.438   3.202   3.715
 9642TIP3   OH228889   6.760   3.335   3.118
 9642TIP3    H128890   6.739   3.409   3.061
 9642TIP3    H228891   6.739   3.366   3.206
 9643TIP3   OH228892   0.153   4.362   0.424
 9643TIP3    H128893   0.089   4.422   0.385
 9643TIP3    H228894   0.237   4.388   0.384
 9644TIP3   OH228895   6.992   3.400   5.449
 9644TIP3    H128896   7.063   3.357   5.496
 9644TIP3    H228897   6.921   3.405   5.513
 9645TIP3   OH228898   4.160   3.995   1.701
 9645TIP3    H128899   4.181   4.088   1.700
 9645TIP3    H228900   4.227   3.955   1.645
 9646TIP3   OH228901   3.580   5.018   5.244
 9646TIP3    H128902   3.619   4.939   5.280
 9646TIP3    H228903   3.644   5.048   5.178
 9647TIP3   OH228904   5.113   1.019   1.720
 9647TIP3    H128905   5.149   1.085   1.779
 9647TIP3    H228906   5.058   1.068   1.660
 9648TIP3   OH228907   0.349   1.951   3.013
 9648TIP3    H128908   0.335   2.019   3.080
 9648TIP3    H228909   0.412   1.891   3.053
 9649TIP3   OH228910   4.042   2.449   3.705
 9649TIP3    H128911   4.070   2.540   3.702
 9649TIP3    H228912   3.997   2.434   3.622
 9650TIP3   OH228913   6.283   3.540   1.615
 9650TIP3    H128914   6.209   3.501   1.569
 9650TIP3    H228915   6.359   3.488   1.587
 9651TIP3   OH228916   4.233   4.643   4.252
 9651TIP3    H128917   4.292   4.574   4.281
 9651TIP3    H228918   4.149   4.599   4.241
 9652TIP3   OH228919   4.247   4.312   4.142
 9652TIP3    H128920   4.336   4.307   4.176
 9652TIP3    H228921   4.256   4.352   4.056
 9653TIP3   OH228922   2.519   5.920   2.486
 9653TIP3    H128923   2.612   5.914   2.507
 9653TIP3    H228924   2.482   5.974   2.555
 9654TIP3   OH228925   4.753   3.775   3.096
 9654TIP3    H128926   4.840   3.775   3.056
 9654TIP3    H228927   4.694   3.801   3.025
 9655TIP3   OH228928   3.737   4.013   3.516
 9655TIP3    H128929   3.803   4.027   3.584
 9655TIP3    H228930   3.784   4.030   3.434
 9656TIP3   OH228931   1.245   1.126   3.508
 9656TIP3    H128932   1.308   1.165   3.447
 9656TIP3    H228933   1.222   1.197   3.567
 9657TIP3   OH228934   6.288   0.991   4.442
 9657TIP3    H128935   6.258   0.900   4.435
 9657TIP3    H228936   6.266   1.030   4.357
 9658TIP3   OH228937   5.159   3.880   5.820
 9658TIP3    H128938   5.234   3.939   5.813
 9658TIP3    H228939   5.156   3.836   5.735
 9659TIP3   OH228940   1.670   1.230   4.889
 9659TIP3    H128941   1.588   1.225   4.840
 9659TIP3    H228942   1.725   1.162   4.851
 9660TIP3   OH228943   0.160   1.132   1.110
 9660TIP3    H128944   0.154   1.132   1.205
 9660TIP3    H228945   0.100   1.063   1.082
 9661TIP3   OH228946   7.099   2.013   5.405
 9661TIP3    H128947   7.052   2.056   5.477
 9661TIP3    H228948   7.094   2.076   5.333
 9662TIP3   OH228949   3.462   2.949   4.859
 9662TIP3    H128950   3.434   2.963   4.769
 9662TIP3    H228951   3.506   2.863   4.857
 9663TIP3   OH228952   0.664   2.170   0.501
 9663TIP3    H128953   0.604   2.221   0.446
 9663TIP3    H228954   0.750   2.183   0.461
 9664TIP3   OH228955   0.532   6.598   5.182
 9664TIP3    H128956   0.535   6.621   5.275
 9664TIP3    H228957   0.451   6.548   5.172
 9665TIP3   OH228958   4.129   3.591   4.517
 9665TIP3    H128959   4.123   3.521   4.581
 9665TIP3    H228960   4.223   3.609   4.509
 9666TIP3   OH228961   0.041   2.995   3.516
 9666TIP3    H128962   0.051   3.009   3.610
 9666TIP3    H228963   0.129   3.013   3.480
 9667TIP3   OH228964   1.085   0.172   5.563
 9667TIP3    H128965   1.155   0.235   5.582
 9667TIP3    H228966   1.075   0.123   5.644
 9668TIP3   OH228967   2.826   4.200   2.473
 9668TIP3    H128968   2.736   4.209   2.505
 9668TIP3    H228969   2.859   4.122   2.517
 9669TIP3   OH228970   2.402   5.809   5.536
 9669TIP3    H128971   2.346   5.802   5.614
 9669TIP3    H228972   2.415   5.718   5.509
 9670TIP3   OH228973   4.722   0.658   2.751
 9670TIP3    H128974   4.670   0.729   2.787
 9670TIP3    H228975   4.746   0.605   2.827
 9671TIP3   OH228976   0.069   6.609   2.673
 9671TIP3    H128977   0.009   6.660   2.618
 9671TIP3    H228978   0.099   6.671   2.739
 9672TIP3   OH228979   3.179   3.091   3.690
 9672TIP3    H128980   3.107   3.150   3.712
 9672TIP3    H228981   3.139   3.004   3.689
 9673TIP3   OH228982   5.765   4.449   3.122
 9673TIP3    H128983   5.752   4.477   3.031
 9673TIP3    H228984   5.677   4.443   3.158
 9674TIP3   OH228985   6.858   0.074   5.670
 9674TIP3    H128986   6.886   0.140   5.734
 9674TIP3    H228987   6.939   0.049   5.625
 9675TIP3   OH228988   4.285   0.094   0.817
 9675TIP3    H128989   4.282   0.126   0.907
 9675TIP3    H228990   4.212   0.137   0.773
 9676TIP3   OH228991   2.372   5.108   0.888
 9676TIP3    H128992   2.437   5.150   0.833
 9676TIP3    H228993   2.375   5.015   0.863
 9677TIP3   OH228994   5.612   1.050   0.075
 9677TIP3    H128995   5.604   1.004  -0.009
 9677TIP3    H228996   5.537   1.019   0.126
 9678TIP3   OH228997   6.150   4.848   4.680
 9678TIP3    H128998   6.236   4.855   4.638
 9678TIP3    H228999   6.128   4.938   4.703
 9679TIP3   OH229000   5.561   2.910   0.294
 9679TIP3    H129001   5.596   2.879   0.377
 9679TIP3    H229002   5.559   2.833   0.238
 9680TIP3   OH229003   0.122   1.718   3.637
 9680TIP3    H129004   0.030   1.745   3.627
 9680TIP3    H229005   0.164   1.748   3.556
 9681TIP3   OH229006   2.703   2.675   2.198
 9681TIP3    H129007   2.610   2.651   2.200
 9681TIP3    H229008   2.734   2.642   2.113
 9682TIP3   OH229009   4.811   0.515   2.020
 9682TIP3    H129010   4.835   0.448   2.083
 9682TIP3    H229011   4.889   0.571   2.014
 9683TIP3   OH229012   2.701   2.874   4.456
 9683TIP3    H129013   2.671   2.807   4.518
 9683TIP3    H229014   2.696   2.956   4.505
 9684TIP3   OH229015   0.465   2.661   5.543
 9684TIP3    H129016   0.382   2.621   5.570
 9684TIP3    H229017   0.486   2.723   5.613
 9685TIP3   OH229018   6.062   2.808   4.617
 9685TIP3    H129019   6.064   2.904   4.619
 9685TIP3    H229020   6.071   2.786   4.524
 9686TIP3   OH229021   5.976   1.743   0.945
 9686TIP3    H129022   6.048   1.780   0.996
 9686TIP3    H229023   5.977   1.793   0.863
 9687TIP3   OH229024   4.796   2.211   4.040
 9687TIP3    H129025   4.707   2.177   4.034
 9687TIP3    H229026   4.812   2.218   4.134
 9688TIP3   OH229027   3.020   3.650   5.460
 9688TIP3    H129028   2.954   3.582   5.448
 9688TIP3    H229029   2.969   3.732   5.463
 9689TIP3   OH229030   1.158   1.039   1.792
 9689TIP3    H129031   1.148   0.959   1.741
 9689TIP3    H229032   1.144   1.110   1.729
 9690TIP3   OH229033   2.291   5.291   1.874
 9690TIP3    H129034   2.254   5.359   1.819
 9690TIP3    H229035   2.373   5.266   1.830
 9691TIP3   OH229036   5.232   4.275   4.793
 9691TIP3    H129037   5.280   4.340   4.741
 9691TIP3    H229038   5.207   4.321   4.872
 9692TIP3   OH229039   2.902   1.245   1.951
 9692TIP3    H129040   2.830   1.257   2.013
 9692TIP3    H229041   2.861   1.206   1.873
 9693TIP3   OH229042   6.584   5.453   0.820
 9693TIP3    H129043   6.533   5.521   0.865
 9693TIP3    H229044   6.518   5.388   0.794
 9694TIP3   OH229045   4.405   1.593   5.107
 9694TIP3    H129046   4.353   1.601   5.187
 9694TIP3    H229047   4.482   1.647   5.123
 9695TIP3   OH229048   3.167   5.037   0.203
 9695TIP3    H129049   3.225   5.074   0.137
 9695TIP3    H229050   3.191   4.944   0.206
 9696TIP3   OH229051   2.379   6.285   0.287
 9696TIP3    H129052   2.442   6.328   0.345
 9696TIP3    H229053   2.308   6.349   0.279
 9697TIP3   OH229054   1.978   6.674   2.966
 9697TIP3    H129055   1.899   6.726   2.952
 9697TIP3    H229056   1.946   6.585   2.979
 9698TIP3   OH229057   2.701   5.356   5.719
 9698TIP3    H129058   2.743   5.436   5.752
 9698TIP3    H229059   2.670   5.311   5.798
 9699TIP3   OH229060   0.788   2.811   2.520
 9699TIP3    H129061   0.740   2.790   2.439
 9699TIP3    H229062   0.867   2.757   2.516
 9700TIP3   OH229063   2.165   5.771   3.966
 9700TIP3    H129064   2.106   5.701   3.937
 9700TIP3    H229065   2.151   5.842   3.902
 9701TIP3   OH229066   0.431   1.959   4.415
 9701TIP3    H129067   0.445   2.053   4.410
 9701TIP3    H229068   0.490   1.922   4.349
 9702TIP3   OH229069   3.167   4.625   4.371
 9702TIP3    H129070   3.210   4.597   4.291
 9702TIP3    H229071   3.108   4.553   4.394
 9703TIP3   OH229072   1.516   0.751   4.762
 9703TIP3    H129073   1.449   0.685   4.782
 9703TIP3    H229074   1.578   0.707   4.704
 9704TIP3   OH229075   5.876   4.219   4.048
 9704TIP3    H129076   5.963   4.219   4.009
 9704TIP3    H229077   5.815   4.212   3.974
 9705TIP3   OH229078   2.674   3.240   2.024
 9705TIP3    H129079   2.585   3.274   2.031
 9705TIP3    H229080   2.727   3.316   1.997
 9706TIP3   OH229081   4.211   4.037   4.121
 9706TIP3    H129082   4.214   4.129   4.148
 9706TIP3    H229083   4.291   4.024   4.071
 9707TIP3   OH229084   1.288   4.342   2.305
 9707TIP3    H129085   1.374   4.384   2.307
 9707TIP3    H229086   1.282   4.306   2.217
 9708TIP3   OH229087   3.919   6.124   2.535
 9708TIP3    H129088   3.843   6.112   2.477
 9708TIP3    H229089   3.963   6.039   2.534
 9709TIP3   OH229090   5.406   4.398   1.971
 9709TIP3    H129091   5.374   4.405   1.882
 9709TIP3    H229092   5.465   4.323   1.970
 9710TIP3   OH229093   6.797   6.075   3.642
 9710TIP3    H129094   6.806   6.021   3.720
 9710TIP3    H229095   6.829   6.021   3.570
 9711TIP3   OH229096   0.737   3.896   4.735
 9711TIP3    H129097   0.699   3.926   4.652
 9711TIP3    H229098   0.769   3.976   4.777
 9712TIP3   OH229099   6.644   1.484   5.338
 9712TIP3    H129100   6.667   1.392   5.327
 9712TIP3    H229101   6.727   1.531   5.336
 9713TIP3   OH229102   4.763   3.671   4.089
 9713TIP3    H129103   4.829   3.740   4.095
 9713TIP3    H229104   4.791   3.617   4.015
 9714TIP3   OH229105   3.550   3.964   5.638
 9714TIP3    H129106   3.576   3.912   5.562
 9714TIP3    H229107   3.483   4.024   5.605
 9715TIP3   OH229108   4.636   5.751   0.547
 9715TIP3    H129109   4.620   5.659   0.526
 9715TIP3    H229110   4.578   5.799   0.488
 9716TIP3   OH229111   4.726   4.495   4.966
 9716TIP3    H129112   4.815   4.459   4.972
 9716TIP3    H229113   4.739   4.586   4.942
 9717TIP3   OH229114   1.354   0.891   2.617
 9717TIP3    H129115   1.382   0.881   2.708
 9717TIP3    H229116   1.261   0.914   2.622
 9718TIP3   OH229117   1.703   4.178   4.479
 9718TIP3    H129118   1.769   4.231   4.434
 9718TIP3    H229119   1.752   4.133   4.548
 9719TIP3   OH229120   1.339   3.839   5.900
 9719TIP3    H129121   1.386   3.892   5.963
 9719TIP3    H229122   1.352   3.883   5.816
 9720TIP3   OH229123   3.588   1.237   1.957
 9720TIP3    H129124   3.591   1.211   1.865
 9720TIP3    H229125   3.679   1.230   1.986
 9721TIP3   OH229126   3.117   0.180   3.785
 9721TIP3    H129127   3.173   0.232   3.728
 9721TIP3    H229128   3.040   0.235   3.799
 9722TIP3   OH229129   0.315   4.093   4.936
 9722TIP3    H129130   0.335   4.185   4.920
 9722TIP3    H229131   0.378   4.045   4.883
 9723TIP3   OH229132   1.927   3.503   5.043
 9723TIP3    H129133   1.844   3.482   5.087
 9723TIP3    H229134   1.924   3.598   5.031
 9724TIP3   OH229135   6.082   0.870   2.071
 9724TIP3    H129136   6.094   0.954   2.027
 9724TIP3    H229137   6.015   0.887   2.138
 9725TIP3   OH229138   3.327   2.037   4.626
 9725TIP3    H129139   3.381   2.078   4.557
 9725TIP3    H229140   3.336   2.095   4.701
 9726TIP3   OH229141   3.363   1.757   4.825
 9726TIP3    H129142   3.439   1.780   4.772
 9726TIP3    H229143   3.291   1.807   4.788
 9727TIP3   OH229144   3.006   3.136   3.953
 9727TIP3    H129145   2.973   3.191   3.881
 9727TIP3    H229146   3.024   3.052   3.912
 9728TIP3   OH229147   3.104   1.750   3.850
 9728TIP3    H129148   3.051   1.809   3.904
 9728TIP3    H229149   3.056   1.667   3.851
 9729TIP3   OH229150   4.955   4.054   1.464
 9729TIP3    H129151   5.000   4.132   1.431
 9729TIP3    H229152   4.905   4.086   1.539
 9730TIP3   OH229153   3.363   1.491   3.254
 9730TIP3    H129154   3.384   1.583   3.271
 9730TIP3    H229155   3.446   1.452   3.226
 9731TIP3   OH229156   3.437   3.454   5.170
 9731TIP3    H129157   3.381   3.487   5.240
 9731TIP3    H229158   3.377   3.412   5.108
 9732TIP3   OH229159   0.222   5.433   3.681
 9732TIP3    H129160   0.221   5.442   3.586
 9732TIP3    H229161   0.177   5.511   3.713
 9733TIP3   OH229162   6.140   0.985   0.424
 9733TIP3    H129163   6.206   1.011   0.360
 9733TIP3    H229164   6.189   0.968   0.504
 9734TIP3   OH229165   4.758   2.728   0.828
 9734TIP3    H129166   4.803   2.799   0.782
 9734TIP3    H229167   4.677   2.768   0.858
 9735TIP3   OH229168   1.501   2.008   3.455
 9735TIP3    H129169   1.415   2.016   3.496
 9735TIP3    H229170   1.562   2.011   3.528
 9736TIP3   OH229171   3.030   2.015   0.090
 9736TIP3    H129172   3.023   2.103   0.128
 9736TIP3    H229173   2.962   2.013   0.022
 9737TIP3   OH229174   2.985   6.467   2.242
 9737TIP3    H129175   2.978   6.562   2.249
 9737TIP3    H229176   2.910   6.442   2.188
 9738TIP3   OH229177   1.928   5.552   1.867
 9738TIP3    H129178   1.952   5.460   1.861
 9738TIP3    H229179   1.847   5.553   1.919
 9739TIP3   OH229180   2.714   2.245   5.799
 9739TIP3    H129181   2.711   2.185   5.874
 9739TIP3    H229182   2.800   2.286   5.805
 9740TIP3   OH229183   6.921   6.142   3.099
 9740TIP3    H129184   6.977   6.067   3.080
 9740TIP3    H229185   6.914   6.143   3.195
 9741TIP3   OH229186   1.018   1.426   5.665
 9741TIP3    H129187   1.082   1.464   5.604
 9741TIP3    H229188   1.068   1.408   5.745
 9742TIP3   OH229189   2.553   3.509   1.032
 9742TIP3    H129190   2.510   3.594   1.036
 9742TIP3    H229191   2.639   3.524   1.071
 9743TIP3   OH229192   0.721   0.664   2.972
 9743TIP3    H129193   0.775   0.725   2.921
 9743TIP3    H229194   0.678   0.610   2.906
 9744TIP3   OH229195   4.448   1.265   4.505
 9744TIP3    H129196   4.458   1.360   4.514
 9744TIP3    H229197   4.480   1.229   4.588
 9745TIP3   OH229198   0.021   2.738   1.498
 9745TIP3    H129199   0.087   2.676   1.467
 9745TIP3    H229200  -0.008   2.703   1.583
 9746TIP3   OH229201   5.448   3.869   0.208
 9746TIP3    H129202   5.433   3.923   0.286
 9746TIP3    H229203   5.535   3.832   0.222
 9747TIP3   OH229204   4.123   1.421   0.881
 9747TIP3    H129205   4.202   1.390   0.837
 9747TIP3    H229206   4.154   1.486   0.944
 9748TIP3   OH229207   3.740   2.264   2.328
 9748TIP3    H129208   3.664   2.320   2.308
 9748TIP3    H229209   3.816   2.319   2.307
 9749TIP3   OH229210   5.132   2.300   1.086
 9749TIP3    H129211   5.116   2.308   1.180
 9749TIP3    H229212   5.071   2.232   1.056
   7.21554   6.80288   5.89145   0.00000   0.00000  -2.40518   0.00000  -2.40518  -3.40143
