Title
  165
    1GLY      N    1   1.413   1.913   4.403  0.5367  0.1156 -0.3530
    1GLY    HT1    2   1.413   1.892   4.505 -2.1901  2.7943  0.3553
    1GLY    HT2    3   1.315   1.945   4.387 -0.0763 -1.3902  0.2458
    1GLY    HT3    4   1.481   1.991   4.389 -1.1248  1.5170 -0.9816
    1GLY     CA    5   1.429   1.798   4.321  0.6828  1.2482  0.2439
    1GLY    HA1    6   1.528   1.754   4.327  1.3457  2.6386  0.0115
    1GLY    HA2    7   1.409   1.826   4.218  2.6576  0.2162 -0.4804
    1GLY      C    8   1.332   1.689   4.362  0.5011  0.6034  0.2908
    1GLY      O    9   1.257   1.706   4.459 -0.3290  0.1589  0.3339
    2PRO      N   10   1.331   1.574   4.291  0.2931  0.1087  0.5114
    2PRO     CD   11   1.405   1.552   4.170 -0.6265  0.3572 -0.2008
    2PRO    HD1   12   1.511   1.527   4.194  0.3229  1.8215 -2.5010
    2PRO    HD2   13   1.396   1.644   4.108 -0.8512  1.1942  1.0182
    2PRO     CA   14   1.220   1.479   4.299 -0.0297  0.2654 -0.4499
    2PRO     HA   15   1.132   1.532   4.265 -0.7258 -1.8737 -2.2709
    2PRO     CB   16   1.248   1.371   4.193 -0.6097 -0.0228 -0.0849
    2PRO    HB1   17   1.147   1.332   4.166 -2.3569  2.0257  2.8803
    2PRO    HB2   18   1.314   1.293   4.235 -1.5343 -0.3440  0.7897
    2PRO     CG   19   1.316   1.453   4.088  0.3347  0.2298 -0.1875
    2PRO    HG1   20   1.388   1.399   4.022  0.7895 -0.9062  1.1921
    2PRO    HG2   21   1.244   1.501   4.018  0.2284  0.2869 -0.0383
    2PRO      C   22   1.189   1.419   4.433  0.6116 -0.2009  0.1287
    2PRO      O   23   1.270   1.394   4.516  0.0023  0.1283 -0.2626
    3GLY      N   24   1.060   1.402   4.463 -0.1671 -0.6068  0.1154
    3GLY     HN   25   0.994   1.443   4.400 -1.2477 -0.3292  1.3673
    3GLY     CA   26   1.012   1.366   4.599 -0.3383 -0.4282 -0.4058
    3GLY    HA1   27   1.071   1.285   4.639  0.0415 -1.0038 -2.0426
    3GLY    HA2   28   0.910   1.335   4.585 -1.0750  1.8933 -0.6815
    3GLY      C   29   1.013   1.483   4.699 -0.1725  0.1904  0.1459
    3GLY      O   30   1.036   1.595   4.662 -1.1838 -0.4127  0.0519
    4ASP      N   31   0.990   1.456   4.833 -0.2793 -0.0596  0.5386
    4ASP     HN   32   0.973   1.362   4.862  0.0984 -0.3671 -0.2002
    4ASP     CA   33   0.975   1.549   4.946 -0.4379  0.1340 -0.4384
    4ASP     HA   34   0.922   1.634   4.907  0.8593  0.8960 -0.6010
    4ASP     CB   35   0.905   1.474   5.063  0.0610  0.1841  0.1222
    4ASP    HB1   36   0.893   1.537   5.154  2.1609 -0.8883  1.2104
    4ASP    HB2   37   0.958   1.381   5.091  2.5825  1.5992  0.3478
    4ASP     CG   38   0.755   1.450   5.022 -0.6746  0.4196 -0.9543
    4ASP    OD1   39   0.699   1.516   4.936 -0.1719 -0.0596 -0.0450
    4ASP    OD2   40   0.695   1.362   5.091  0.4215  0.2500 -0.1560
    4ASP      C   41   1.111   1.610   4.980 -0.1530 -0.1300  0.6027
    4ASP      O   42   1.212   1.548   4.947  0.0217 -0.0159 -0.5863
    5PRO      N   43   1.115   1.736   5.030 -0.4066  0.2444 -0.0736
    5PRO     CD   44   1.000   1.811   5.070 -0.0066 -0.9535  0.6508
    5PRO    HD1   45   0.946   1.776   5.161 -0.0262 -1.2527  0.5248
    5PRO    HD2   46   0.931   1.820   4.983  2.0154 -1.2596 -1.0619
    5PRO     CA   47   1.233   1.812   5.057  0.3819  0.1262 -1.2903
    5PRO     HA   48   1.272   1.837   4.960  0.6041  1.2424 -0.9277
    5PRO     CB   49   1.186   1.932   5.139 -0.2246  0.0135 -0.6247
    5PRO    HB1   50   1.242   2.021   5.105  1.3267 -1.3386 -1.7945
    5PRO    HB2   51   1.203   1.921   5.249  0.9383  4.4022 -0.2009
    5PRO     CG   52   1.044   1.954   5.097  0.0710 -0.3714 -0.5228
    5PRO    HG1   53   0.985   2.004   5.177  0.2350  0.2513 -0.7862
    5PRO    HG2   54   1.051   2.019   5.007 -1.8516  1.3751  0.5046
    5PRO      C   55   1.347   1.735   5.126  0.4248  0.3227 -1.6607
    5PRO      O   56   1.314   1.653   5.208 -0.0381  0.0318  0.4526
    6GLY      N   57   1.473   1.742   5.093  0.1476  0.8411  0.9248
    6GLY     HN   58   1.500   1.812   5.027 -1.3538  1.8566  1.3343
    6GLY     CA   59   1.579   1.648   5.123  0.0006  0.0432 -0.4909
    6GLY    HA1   60   1.658   1.661   5.050 -0.0130 -1.2703 -0.7573
    6GLY    HA2   61   1.540   1.548   5.137  2.7370 -1.0836 -0.1330
    6GLY      C   62   1.649   1.679   5.250  0.2190  0.0625  0.0389
    6GLY      O   63   1.619   1.782   5.314 -0.1382 -0.8384  0.5566
    7PRO      N   64   1.747   1.603   5.288  0.8233  0.0364 -0.2025
    7PRO     CD   65   1.784   1.478   5.223 -0.1594  0.0130  0.7092
    7PRO    HD1   66   1.784   1.500   5.115 -1.3878  1.1840  0.9168
    7PRO    HD2   67   1.717   1.392   5.245  0.2388 -1.3973 -2.9357
    7PRO     CA   68   1.843   1.640   5.389 -0.0465  0.2046 -0.4449
    7PRO     HA   69   1.790   1.662   5.480  1.3219  0.7107  0.2437
    7PRO     CB   70   1.946   1.517   5.398  0.0915 -0.2587 -0.7192
    7PRO    HB1   71   1.908   1.450   5.478  1.9631 -0.1117  0.3371
    7PRO    HB2   72   2.052   1.537   5.425 -0.2341 -0.8697  1.1205
    7PRO     CG   73   1.932   1.448   5.261  0.4688 -0.0141 -0.0173
    7PRO    HG1   74   2.007   1.488   5.189 -0.1748  2.3803  0.5480
    7PRO    HG2   75   1.940   1.338   5.277 -3.3557 -0.9658 -3.0290
    7PRO      C   76   1.924   1.766   5.355  0.6184 -1.2103 -0.6416
    7PRO      O   77   1.942   1.798   5.236 -0.0430  0.4468 -0.3472
    8GLY      N   78   1.951   1.854   5.466  0.0128  0.4210 -0.4018
    8GLY     HN   79   1.915   1.837   5.557 -0.2474  0.1305 -0.5595
    8GLY     CA   80   2.025   1.978   5.458  1.0119  0.5567 -0.1413
    8GLY    HA1   81   2.108   1.970   5.389  2.2227  3.3117  0.8665
    8GLY    HA2   82   2.052   1.983   5.562 -1.7468  1.0411  0.6318
    8GLY      C   83   1.945   2.104   5.424  0.6020  0.8180 -0.6924
    8GLY      O   84   1.827   2.107   5.391  0.6535 -0.3640 -0.0385
    9ASP      N   85   2.018   2.211   5.440 -0.4438 -0.0066  0.1765
    9ASP     HN   86   2.101   2.210   5.495 -0.8217 -1.8854  0.7916
    9ASP     CA   87   1.972   2.342   5.403 -0.0807  0.2882 -0.8176
    9ASP     HA   88   1.882   2.362   5.459  0.9309  1.6565  0.4079
    9ASP     CB   89   2.081   2.447   5.448  0.1534 -0.0865 -0.1080
    9ASP    HB1   90   2.059   2.533   5.381 -2.0715 -1.3880 -1.1399
    9ASP    HB2   91   2.180   2.401   5.426  0.6231  1.1425 -0.6849
    9ASP     CG   92   2.070   2.489   5.590 -0.6916  0.1912 -0.5561
    9ASP    OD1   93   1.988   2.436   5.665 -0.2565 -0.2381  0.2763
    9ASP    OD2   94   2.151   2.570   5.642  0.1329  0.1263 -0.2125
    9ASP      C   95   1.929   2.363   5.259 -0.6430  0.3011 -0.2103
    9ASP      O   96   2.010   2.318   5.177  0.1780 -0.5511 -0.0355
   10PRO      N   97   1.820   2.430   5.230 -0.0477 -0.5256  0.4764
   10PRO     CD   98   1.721   2.478   5.330  0.6053  0.0721 -0.4499
   10PRO    HD1   99   1.772   2.539   5.407 -0.1089  0.0110  0.0839
   10PRO    HD2  100   1.675   2.386   5.372 -0.1859 -0.3102 -2.0862
   10PRO     CA  101   1.782   2.470   5.090  0.2514  0.2017 -0.9014
   10PRO     HA  102   1.737   2.384   5.041  0.9669  0.7832 -2.6392
   10PRO     CB  103   1.676   2.582   5.111 -0.3020 -0.8542  0.0775
   10PRO    HB1  104   1.609   2.597   5.024 -1.2754 -2.4393  0.5205
   10PRO    HB2  105   1.731   2.679   5.122 -1.1189 -0.1560 -1.6975
   10PRO     CG  106   1.612   2.549   5.247 -0.1100  0.5292 -0.0066
   10PRO    HG1  107   1.569   2.637   5.300 -2.3459 -1.2266  1.2711
   10PRO    HG2  108   1.526   2.482   5.226 -0.0526  0.0473  1.1884
   10PRO      C  109   1.897   2.515   5.000  0.2110  0.1229 -0.5753
   10PRO      O  110   1.983   2.590   5.047  0.0288 -0.1805  0.2835
   11GLY      N  111   1.900   2.470   4.873 -0.8259  0.1342  0.4052
   11GLY     HN  112   1.830   2.418   4.825  0.7817  0.7529 -2.8813
   11GLY     CA  113   2.012   2.498   4.776 -0.1846  0.3002 -0.2019
   11GLY    HA1  114   1.997   2.599   4.743 -0.9780  0.1810 -0.2155
   11GLY    HA2  115   1.988   2.436   4.690  1.7215  0.4904 -0.9147
   11GLY      C  116   2.152   2.459   4.823  0.4256  0.1542 -0.2763
   11GLY      O  117   2.177   2.386   4.917  0.6439  0.1064 -0.2212
   12PRO      N  118   2.258   2.503   4.759  0.4485 -0.6918  0.1871
   12PRO     CD  119   2.251   2.555   4.625 -0.0931  1.1431 -0.3972
   12PRO    HD1  120   2.192   2.649   4.629  0.2087  1.3223 -0.1269
   12PRO    HD2  121   2.208   2.473   4.563  1.8147  0.3844 -0.7871
   12PRO     CA  122   2.393   2.536   4.822 -0.1946 -0.9282  0.2032
   12PRO     HA  123   2.444   2.440   4.822 -2.4893 -2.2363  0.3816
   12PRO     CB  124   2.446   2.639   4.715 -0.1072  0.3187  0.3554
   12PRO    HB1  125   2.557   2.634   4.711 -0.0054  0.1460  2.2800
   12PRO    HB2  126   2.413   2.742   4.740  0.6186  0.8707 -0.8976
   12PRO     CG  127   2.390   2.589   4.582  0.1449  0.1263 -0.0917
   12PRO    HG1  128   2.384   2.676   4.514  3.2902 -0.6443 -1.5598
   12PRO    HG2  129   2.452   2.505   4.544  0.3426  0.4508 -0.4950
   12PRO      C  130   2.397   2.592   4.963  0.6523  0.1533  0.4721
   12PRO      O  131   2.324   2.684   4.995  0.8392  0.5771  0.1085
   13GLY      N  132   2.482   2.531   5.045 -0.9573  0.3269 -0.1063
   13GLY     HN  133   2.549   2.468   5.009 -0.2530  0.2568  1.2594
   13GLY     CA  134   2.494   2.561   5.186  0.2557 -0.1656 -0.0841
   13GLY    HA1  135   2.538   2.471   5.227 -0.2148 -0.8639 -1.0633
   13GLY    HA2  136   2.400   2.579   5.236  2.4743  1.7815  3.8780
   13GLY      C  137   2.577   2.688   5.213  0.1746  0.2778 -0.1840
   13GLY      O  138   2.604   2.769   5.123 -0.3654  0.1507 -0.4337
   14ASP      N  139   2.618   2.696   5.343 -0.3638 -0.5636  0.6949
   14ASP     HN  140   2.589   2.628   5.410 -1.2964 -0.5027  0.3745
   14ASP     CA  141   2.713   2.790   5.401  0.7691  0.4579 -0.3601
   14ASP     HA  142   2.677   2.887   5.370 -0.1347  0.1458 -0.3202
   14ASP     CB  143   2.719   2.773   5.549  0.1698  0.1610 -0.0546
   14ASP    HB1  144   2.794   2.842   5.593  3.2139 -3.4361  0.8661
   14ASP    HB2  145   2.757   2.676   5.587  2.8749  1.3183  0.3984
   14ASP     CG  146   2.577   2.812   5.613 -0.3393  1.3118  0.2027
   14ASP    OD1  147   2.534   2.731   5.695  0.2329  0.1521  0.7248
   14ASP    OD2  148   2.526   2.919   5.582 -0.4847  0.1836  0.1700
   14ASP      C  149   2.854   2.773   5.351  0.1569 -0.5979 -0.3864
   14ASP      O  150   2.911   2.666   5.357  0.1617  0.2093  0.4089
   15PRO      N  151   2.918   2.879   5.301  0.4384  0.3955  0.1710
   15PRO     CD  152   2.857   2.998   5.239  0.9975  0.2788 -0.6048
   15PRO    HD1  153   2.852   3.077   5.316  1.1084 -0.9374  0.6962
   15PRO    HD2  154   2.759   2.978   5.191  1.4416  0.8706 -1.8029
   15PRO     CA  155   3.063   2.875   5.266 -0.2734 -0.1602 -0.1571
   15PRO     HA  156   3.086   2.807   5.185  0.8737  2.6933 -2.4015
   15PRO     CB  157   3.088   3.016   5.200 -0.3731 -0.1015  0.4194
   15PRO    HB1  158   3.173   3.016   5.129  0.0867 -3.0471  0.8462
   15PRO    HB2  159   3.107   3.088   5.282  0.7823  2.1000 -1.6755
   15PRO     CG  160   2.956   3.050   5.135  0.4381  1.0519 -0.0432
   15PRO    HG1  161   2.941   3.156   5.109  1.9982  1.6815  1.3920
   15PRO    HG2  162   2.936   2.988   5.045  1.4186 -1.1219  1.1324
   15PRO      C  163   3.147   2.836   5.388  0.2474 -0.5356 -0.3118
   15PRO    OT1  164   3.160   2.918   5.484  0.6442  0.8648  0.1583
   15PRO    OT2  165   3.216   2.728   5.395 -0.6222  0.1392  0.1297
   8.30814   7.83300   6.78357   0.00000   0.00000  -2.76938   0.00000  -2.76938  -3.91650
